/*--------------------------------*- C++ -*----------------------------------*\
| =========                 |                                                 |
| \\      /  F ield         | OpenFOAM: The Open Source CFD Toolbox           |
|  \\    /   O peration     | Version:  2312                                  |
|   \\  /    A nd           | Website:  www.openfoam.com                      |
|    \\/     M anipulation  |                                                 |
\*---------------------------------------------------------------------------*/
FoamFile
{
    version     2.0;
    format      ascii;
    arch        "LSB;label=32;scalar=64";
    class       volScalarField;
    location    "500";
    object      epsilon;
}
// * * * * * * * * * * * * * * * * * * * * * * * * * * * * * * * * * * * * * //

dimensions      [0 2 -3 0 0 0 0];

internalField   nonuniform List<scalar> 
42840
(
1.31332e-07
2.40762e-07
2.40778e-07
3.8338e-07
1.29953e-07
2.53409e-07
2.53425e-07
4.12384e-07
1.29353e-07
2.68087e-07
2.68106e-07
4.43712e-07
1.29536e-07
2.84728e-07
2.8475e-07
4.77307e-07
1.30478e-07
3.03246e-07
3.03273e-07
5.12724e-07
1.32181e-07
3.23537e-07
3.23566e-07
5.48978e-07
1.34644e-07
3.45478e-07
3.45516e-07
5.86129e-07
1.37868e-07
3.68937e-07
3.68983e-07
6.24569e-07
1.41854e-07
3.93761e-07
3.93819e-07
6.62467e-07
1.46609e-07
4.198e-07
4.19864e-07
7.00141e-07
1.52136e-07
4.46885e-07
4.4696e-07
7.36835e-07
1.5844e-07
4.74855e-07
4.74942e-07
7.72699e-07
1.65527e-07
5.03536e-07
5.03634e-07
8.07554e-07
1.73398e-07
5.32753e-07
5.32852e-07
8.40895e-07
1.82053e-07
5.62328e-07
5.62439e-07
8.72245e-07
1.91489e-07
5.92095e-07
5.92217e-07
9.0352e-07
2.01696e-07
6.21887e-07
6.22013e-07
9.33712e-07
2.12661e-07
6.51541e-07
6.51673e-07
9.62718e-07
2.24363e-07
6.8091e-07
6.81048e-07
9.90554e-07
2.36775e-07
7.09859e-07
7.10003e-07
1.01719e-06
2.49865e-07
7.38279e-07
7.38427e-07
1.04263e-06
2.63592e-07
7.66052e-07
7.66199e-07
1.06702e-06
2.77908e-07
7.93087e-07
7.93232e-07
1.09035e-06
2.92755e-07
8.19302e-07
8.19447e-07
1.11263e-06
3.08068e-07
8.44631e-07
8.44777e-07
1.13387e-06
3.83253e-07
4.058e-07
2.40836e-07
2.4087e-07
2.50131e-07
2.5017e-07
3.83247e-07
4.05857e-07
2.40787e-07
2.40878e-07
2.50079e-07
2.50178e-07
2.40825e-07
2.5006e-07
2.50126e-07
3.83352e-07
4.05942e-07
2.40823e-07
2.50074e-07
2.50127e-07
4.06126e-07
4.11869e-07
4.36826e-07
2.53493e-07
2.53529e-07
2.64316e-07
2.64356e-07
4.12113e-07
4.36806e-07
2.5344e-07
2.5354e-07
2.64259e-07
2.64367e-07
2.53482e-07
2.64234e-07
2.64306e-07
4.1233e-07
4.37209e-07
2.53481e-07
2.6425e-07
2.64307e-07
4.36914e-07
4.43508e-07
4.70116e-07
2.68179e-07
2.68217e-07
2.80481e-07
2.80523e-07
4.43696e-07
4.70274e-07
2.68121e-07
2.6823e-07
2.8042e-07
2.80538e-07
2.68163e-07
2.80391e-07
2.80472e-07
4.43621e-07
4.7011e-07
2.68162e-07
2.80411e-07
2.8047e-07
4.69993e-07
4.76802e-07
5.04964e-07
2.8483e-07
2.84869e-07
2.9855e-07
2.98592e-07
4.77096e-07
5.05019e-07
2.84766e-07
2.84882e-07
2.98483e-07
2.98611e-07
2.84812e-07
2.98448e-07
2.98538e-07
4.77238e-07
5.04932e-07
2.84806e-07
2.98473e-07
2.9853e-07
5.04992e-07
5.12106e-07
5.41079e-07
3.03359e-07
3.03396e-07
3.18421e-07
3.18462e-07
5.12305e-07
5.40923e-07
3.03287e-07
3.03416e-07
3.18345e-07
3.18484e-07
3.03341e-07
3.18309e-07
3.18415e-07
5.12502e-07
5.40915e-07
3.03327e-07
3.18337e-07
3.18395e-07
5.40873e-07
5.48504e-07
5.77869e-07
3.23661e-07
3.23699e-07
3.39978e-07
3.40017e-07
5.4864e-07
5.7795e-07
3.23582e-07
3.23719e-07
3.39891e-07
3.40039e-07
3.23649e-07
3.39847e-07
3.39978e-07
5.48789e-07
5.77968e-07
3.23624e-07
3.39884e-07
3.39946e-07
5.78223e-07
5.8607e-07
6.1563e-07
3.45616e-07
3.45654e-07
3.63088e-07
3.63126e-07
5.85965e-07
6.15498e-07
3.45527e-07
3.45676e-07
3.62988e-07
3.63145e-07
3.45612e-07
3.6294e-07
3.63092e-07
5.86159e-07
6.15439e-07
3.45576e-07
3.62983e-07
3.63048e-07
6.14866e-07
6.23757e-07
6.52845e-07
3.6909e-07
3.69127e-07
3.87604e-07
3.87634e-07
6.2378e-07
6.53045e-07
3.68992e-07
3.69148e-07
3.87494e-07
3.87659e-07
3.69092e-07
3.87438e-07
3.8761e-07
6.23793e-07
6.52865e-07
3.69046e-07
3.87494e-07
3.87559e-07
6.51939e-07
6.61431e-07
6.90019e-07
3.9393e-07
3.93962e-07
4.13375e-07
4.13393e-07
6.61355e-07
6.90124e-07
3.93822e-07
3.93989e-07
4.13251e-07
4.13423e-07
3.93937e-07
4.13184e-07
4.13379e-07
6.61367e-07
6.90227e-07
3.93882e-07
4.13248e-07
4.13314e-07
6.89005e-07
6.9874e-07
7.26715e-07
4.19987e-07
4.20007e-07
4.40234e-07
4.40242e-07
6.98676e-07
7.2715e-07
4.19868e-07
4.20038e-07
4.40096e-07
4.40277e-07
4.19995e-07
4.40023e-07
4.40239e-07
6.98769e-07
7.27376e-07
4.19926e-07
4.40095e-07
4.40163e-07
7.25744e-07
7.35399e-07
7.6239e-07
4.47093e-07
4.471e-07
4.68012e-07
4.6801e-07
7.35164e-07
7.63386e-07
4.46963e-07
4.47138e-07
4.67865e-07
4.68057e-07
4.47103e-07
4.67785e-07
4.68017e-07
7.35158e-07
7.63559e-07
4.47021e-07
4.67872e-07
4.67931e-07
7.61656e-07
7.71435e-07
7.96584e-07
4.75079e-07
4.75071e-07
4.96545e-07
4.96532e-07
7.70866e-07
7.98546e-07
4.74939e-07
4.75122e-07
4.9639e-07
4.9659e-07
4.75085e-07
4.96305e-07
4.96548e-07
7.71012e-07
7.9864e-07
4.74992e-07
4.96404e-07
4.96455e-07
7.96669e-07
8.07312e-07
8.30791e-07
5.03774e-07
5.03759e-07
5.25656e-07
5.25636e-07
8.05837e-07
8.32558e-07
5.03624e-07
5.03814e-07
5.25489e-07
5.25696e-07
5.03778e-07
5.25406e-07
5.25659e-07
8.05909e-07
8.31121e-07
5.03675e-07
5.25508e-07
5.2555e-07
8.30732e-07
8.41246e-07
8.63611e-07
5.32999e-07
5.3298e-07
5.55167e-07
5.55141e-07
8.39639e-07
8.65306e-07
5.32838e-07
5.33031e-07
5.54987e-07
5.5521e-07
5.33001e-07
5.54908e-07
5.55167e-07
8.40276e-07
8.63468e-07
5.32884e-07
5.55018e-07
5.55048e-07
8.65242e-07
8.73871e-07
8.95172e-07
5.62581e-07
5.62555e-07
5.84897e-07
5.8487e-07
8.72227e-07
8.9685e-07
5.62409e-07
5.62616e-07
5.84711e-07
5.84953e-07
5.62589e-07
5.84643e-07
5.84912e-07
8.73761e-07
8.95205e-07
5.62459e-07
5.84766e-07
5.84781e-07
8.96788e-07
9.05221e-07
9.25559e-07
5.9234e-07
5.92314e-07
6.14684e-07
6.14662e-07
9.0361e-07
9.27188e-07
5.92161e-07
5.92388e-07
6.14495e-07
6.14756e-07
5.92364e-07
6.14444e-07
6.14725e-07
9.05255e-07
9.2567e-07
5.92227e-07
6.14573e-07
6.14581e-07
9.27136e-07
9.354e-07
9.5478e-07
6.22119e-07
6.22094e-07
6.44379e-07
6.44359e-07
9.33768e-07
9.56384e-07
6.21934e-07
6.22182e-07
6.44181e-07
6.44456e-07
6.22166e-07
6.44147e-07
6.44435e-07
9.35499e-07
9.5492e-07
6.22017e-07
6.4428e-07
6.44283e-07
9.56329e-07
9.64395e-07
9.82796e-07
6.5177e-07
6.51741e-07
6.73826e-07
6.738e-07
9.62769e-07
9.84344e-07
6.51574e-07
6.51838e-07
6.73621e-07
6.73905e-07
6.51829e-07
6.73597e-07
6.73891e-07
9.64391e-07
9.84581e-07
6.51668e-07
6.73737e-07
6.73732e-07
9.84339e-07
9.92134e-07
1.0096e-06
6.81134e-07
6.81103e-07
7.0288e-07
7.02859e-07
9.90536e-07
1.01114e-06
6.8093e-07
6.81203e-07
7.02675e-07
7.02963e-07
6.81202e-07
7.02662e-07
7.02959e-07
9.90812e-07
1.01127e-06
6.81036e-07
7.02807e-07
7.02798e-07
1.01117e-06
1.01872e-06
1.03534e-06
7.10072e-07
7.10045e-07
7.31425e-07
7.31415e-07
1.01715e-06
1.03687e-06
7.09868e-07
7.10148e-07
7.31223e-07
7.31521e-07
7.10156e-07
7.31226e-07
7.31518e-07
1.0173e-06
1.03701e-06
7.09986e-07
7.31375e-07
7.31351e-07
1.0368e-06
1.04416e-06
1.05992e-06
7.38474e-07
7.38461e-07
7.59356e-07
7.59354e-07
1.04267e-06
1.05989e-06
7.38272e-07
7.3856e-07
7.59155e-07
7.59454e-07
7.38567e-07
7.59169e-07
7.59457e-07
1.04281e-06
1.06155e-06
7.38393e-07
7.59317e-07
7.59284e-07
1.06136e-06
1.06847e-06
1.08344e-06
7.66233e-07
7.66226e-07
7.86572e-07
7.8657e-07
1.06836e-06
1.08343e-06
7.66033e-07
7.66324e-07
7.86372e-07
7.86668e-07
7.66338e-07
7.86399e-07
7.86684e-07
1.06718e-06
1.08505e-06
7.66156e-07
7.86544e-07
7.86503e-07
1.08489e-06
1.09173e-06
1.10592e-06
7.93255e-07
7.93247e-07
8.12988e-07
8.12983e-07
1.09172e-06
1.10598e-06
7.93056e-07
7.93346e-07
8.12788e-07
8.13079e-07
7.9337e-07
8.12827e-07
8.13105e-07
1.09049e-06
1.10749e-06
7.93185e-07
8.12973e-07
8.12921e-07
1.10735e-06
1.11393e-06
1.12801e-06
8.19458e-07
8.19451e-07
8.38532e-07
8.38523e-07
1.11397e-06
1.12804e-06
8.19259e-07
8.19548e-07
8.38331e-07
8.3862e-07
8.19582e-07
8.38383e-07
8.38655e-07
1.11275e-06
1.12854e-06
8.19392e-07
8.3853e-07
8.3847e-07
1.12879e-06
1.13434e-06
8.4478e-07
8.44769e-07
1.13444e-06
8.44578e-07
8.44863e-07
8.44907e-07
1.13396e-06
8.44717e-07
3.75802e-06
8.9208e-06
8.92498e-06
3.73564e-06
1.84404e-05
1.84331e-05
3.75845e-06
8.92217e-06
8.92634e-06
3.73564e-06
1.31336e-07
1.3134e-07
1.3134e-07
1.30233e-07
1.30237e-07
1.30242e-07
1.30243e-07
1.24156e-06
2.86938e-06
1.5958e-07
2.4374e-07
2.88874e-06
1.60134e-07
1.21459e-06
1.84411e-05
1.84338e-05
1.24154e-06
1.59613e-07
2.8681e-06
2.43751e-07
1.60144e-07
2.89013e-06
1.21474e-06
5.1699e-06
5.17292e-06
3.91634e-07
5.17971e-06
5.18053e-06
3.81797e-06
8.93068e-06
3.80077e-06
8.93437e-06
1.84137e-05
1.84072e-05
3.81814e-06
8.93166e-06
3.80081e-06
8.936e-06
1.29956e-07
1.29962e-07
1.29962e-07
1.29445e-07
1.2945e-07
1.29456e-07
1.29456e-07
1.32214e-06
2.93113e-06
1.62234e-07
2.56898e-07
1.29653e-06
2.948e-06
1.63125e-07
1.84143e-05
1.84078e-05
1.32217e-06
1.6227e-07
2.92991e-06
2.56913e-07
1.29676e-06
1.63136e-07
2.94933e-06
5.19841e-06
5.20086e-06
4.21191e-07
5.20642e-06
5.20723e-06
3.86456e-06
8.93926e-06
3.85042e-06
8.94263e-06
1.83893e-05
1.83836e-05
3.86397e-06
8.94027e-06
3.85103e-06
8.94416e-06
1.29357e-07
1.29363e-07
1.29363e-07
1.29421e-07
1.29425e-07
1.29433e-07
1.29433e-07
1.39859e-06
2.98557e-06
1.66232e-07
2.72071e-07
1.37393e-06
3.00017e-06
1.67465e-07
1.839e-05
1.83842e-05
1.39835e-06
1.66273e-07
2.98437e-06
2.72091e-07
1.3744e-06
1.67478e-07
3.00146e-06
5.2223e-06
5.22474e-06
4.53529e-07
5.22882e-06
5.23052e-06
3.89934e-06
8.94657e-06
3.88853e-06
8.94979e-06
1.83673e-05
1.83623e-05
3.8988e-06
8.9478e-06
3.8892e-06
8.95126e-06
1.2954e-07
1.29548e-07
1.29547e-07
1.30171e-07
1.30175e-07
1.30184e-07
1.30183e-07
1.46895e-06
3.03349e-06
1.7159e-07
2.8919e-07
1.44647e-06
3.04612e-06
1.73166e-07
1.83679e-05
1.83629e-05
1.46926e-06
1.71633e-07
3.03231e-06
2.89213e-07
1.44651e-06
1.7318e-07
3.04738e-06
5.24248e-06
5.24443e-06
4.87248e-07
5.24779e-06
5.24877e-06
3.92574e-06
8.95324e-06
3.91747e-06
8.95608e-06
1.83474e-05
1.83432e-05
3.92523e-06
8.95461e-06
3.91814e-06
8.95747e-06
1.30482e-07
1.30491e-07
1.3049e-07
1.31684e-07
1.31688e-07
1.31698e-07
1.31698e-07
1.53336e-06
3.07575e-06
1.78316e-07
3.08162e-07
1.51293e-06
3.08671e-06
1.80237e-07
1.83481e-05
1.83438e-05
1.53356e-06
1.78366e-07
3.07463e-06
3.08189e-07
1.51281e-06
1.80255e-07
3.08795e-06
5.25945e-06
5.26138e-06
5.22764e-07
5.26401e-06
5.26538e-06
3.94591e-06
8.95895e-06
3.93955e-06
8.96176e-06
1.83297e-05
1.83263e-05
3.94542e-06
8.96038e-06
3.94019e-06
8.96311e-06
1.32185e-07
1.32195e-07
1.32195e-07
1.33958e-07
1.33961e-07
1.33972e-07
1.33973e-07
1.59142e-06
3.11314e-06
1.86412e-07
3.28877e-07
1.57342e-06
3.12269e-06
1.88676e-07
1.83304e-05
1.8327e-05
1.59135e-06
1.86467e-07
3.1121e-06
3.28911e-07
1.57346e-06
1.88699e-07
3.12391e-06
5.27423e-06
5.27597e-06
5.59883e-07
5.27793e-06
5.27936e-06
3.96154e-06
8.9645e-06
3.95658e-06
8.96717e-06
1.83142e-05
1.83115e-05
3.96107e-06
8.9659e-06
3.95723e-06
8.96845e-06
1.34648e-07
1.34659e-07
1.3466e-07
1.36991e-07
1.36994e-07
1.37006e-07
1.37009e-07
1.64366e-06
3.14638e-06
1.9587e-07
3.5121e-07
1.62772e-06
3.15474e-06
1.98474e-07
1.8315e-05
1.83123e-05
1.64372e-06
1.95932e-07
3.14541e-06
3.51252e-07
1.62775e-06
1.985e-07
3.15593e-06
5.28688e-06
5.28866e-06
5.96099e-07
5.29016e-06
5.2917e-06
3.97371e-06
8.96987e-06
3.97001e-06
8.97254e-06
1.83009e-05
1.8299e-05
3.9736e-06
8.97131e-06
3.97055e-06
8.9738e-06
1.37872e-07
1.37884e-07
1.37887e-07
1.40788e-07
1.4079e-07
1.40803e-07
1.40808e-07
1.69047e-06
3.17615e-06
2.06662e-07
3.75024e-07
1.67625e-06
3.18351e-06
2.09606e-07
1.83017e-05
1.82999e-05
1.69066e-06
2.06734e-07
3.17524e-06
3.75076e-07
1.6762e-06
2.09634e-07
3.18467e-06
5.29824e-06
5.29997e-06
6.33465e-07
5.30112e-06
5.30273e-06
3.98361e-06
8.97529e-06
3.98085e-06
8.97808e-06
1.82898e-05
1.82888e-05
3.98357e-06
8.97665e-06
3.98116e-06
8.97941e-06
1.41857e-07
1.41872e-07
1.41877e-07
1.45351e-07
1.4535e-07
1.45366e-07
1.45372e-07
1.7326e-06
3.20303e-06
2.18771e-07
4.00166e-07
1.71934e-06
3.20956e-06
2.2204e-07
1.82908e-05
1.82898e-05
1.73253e-06
2.18854e-07
3.20215e-06
4.00226e-07
1.71959e-06
2.22081e-07
3.21069e-06
5.3086e-06
5.31031e-06
6.70534e-07
5.3112e-06
5.31285e-06
3.99208e-06
8.98099e-06
3.98976e-06
8.98397e-06
1.82812e-05
1.82811e-05
3.99205e-06
8.98233e-06
3.98997e-06
8.98533e-06
1.4661e-07
1.46627e-07
1.46634e-07
1.50684e-07
1.50681e-07
1.507e-07
1.50707e-07
1.77019e-06
3.2276e-06
2.3216e-07
4.2648e-07
1.75815e-06
3.23322e-06
2.35742e-07
1.82822e-05
1.82821e-05
1.77005e-06
2.32255e-07
3.22666e-06
4.26546e-07
1.7585e-06
2.35795e-07
3.23445e-06
5.31827e-06
5.31995e-06
7.07571e-07
5.32071e-06
5.32235e-06
3.99933e-06
8.98713e-06
3.99737e-06
8.99034e-06
1.8275e-05
1.82757e-05
3.9993e-06
8.98852e-06
3.99754e-06
8.99172e-06
1.52134e-07
1.52154e-07
1.52163e-07
1.56794e-07
1.56787e-07
1.56811e-07
1.56818e-07
1.80401e-06
3.24993e-06
2.46784e-07
4.53798e-07
1.79318e-06
3.25511e-06
2.5067e-07
1.8276e-05
1.82767e-05
1.8039e-06
2.46893e-07
3.24919e-06
4.53878e-07
1.79348e-06
2.50736e-07
3.25636e-06
5.32749e-06
5.32916e-06
7.43888e-07
5.32983e-06
5.33147e-06
4.00572e-06
8.99411e-06
4.00407e-06
8.99701e-06
1.82712e-05
1.82728e-05
4.00576e-06
8.99524e-06
4.00418e-06
8.99866e-06
1.58435e-07
1.58459e-07
1.58469e-07
1.63684e-07
1.63674e-07
1.63703e-07
1.63711e-07
1.83463e-06
3.27043e-06
2.62598e-07
4.81961e-07
1.82495e-06
3.27576e-06
2.66773e-07
1.82722e-05
1.82738e-05
1.83459e-06
2.62719e-07
3.27012e-06
4.82054e-07
1.8252e-06
2.66849e-07
3.27672e-06
5.33643e-06
5.3381e-06
7.79362e-07
5.33871e-06
5.34038e-06
4.01161e-06
9.00147e-06
4.01013e-06
9.00466e-06
1.82699e-05
1.82723e-05
4.01165e-06
9.00256e-06
4.01018e-06
9.00625e-06
1.65518e-07
1.65546e-07
1.65557e-07
1.71359e-07
1.71346e-07
1.7138e-07
1.71387e-07
1.86283e-06
3.29035e-06
2.79539e-07
5.10798e-07
1.85385e-06
3.29462e-06
2.83989e-07
1.82707e-05
1.82731e-05
1.86282e-06
2.79672e-07
3.28943e-06
5.10897e-07
1.85411e-06
2.84074e-07
3.29556e-06
5.34526e-06
5.34692e-06
8.1378e-07
5.34753e-06
5.34921e-06
4.01723e-06
9.00957e-06
4.01583e-06
9.01305e-06
1.82708e-05
1.82741e-05
4.01728e-06
9.01061e-06
4.01586e-06
9.01461e-06
1.73386e-07
1.73419e-07
1.7343e-07
1.79819e-07
1.79803e-07
1.79842e-07
1.7985e-07
1.88884e-06
3.30859e-06
2.97543e-07
5.40121e-07
1.88053e-06
3.31337e-06
3.02245e-07
1.82716e-05
1.82748e-05
1.88881e-06
2.97683e-07
3.30788e-06
5.40222e-07
1.88073e-06
3.02337e-07
3.31382e-06
5.35401e-06
5.35572e-06
8.48669e-07
5.35637e-06
5.35805e-06
4.02274e-06
9.01841e-06
4.02134e-06
9.02221e-06
1.8274e-05
1.82781e-05
4.02284e-06
9.01944e-06
4.02134e-06
9.02379e-06
1.82039e-07
1.82076e-07
1.82089e-07
1.89059e-07
1.89043e-07
1.89088e-07
1.89097e-07
1.91304e-06
3.32587e-06
3.1653e-07
5.69758e-07
1.90538e-06
3.33005e-06
3.21466e-07
1.82747e-05
1.82787e-05
1.91305e-06
3.16678e-07
3.32567e-06
5.69871e-07
1.90553e-06
3.21566e-07
3.33103e-06
5.36283e-06
5.36453e-06
8.81117e-07
5.36525e-06
5.36695e-06
4.02835e-06
9.02804e-06
4.02684e-06
9.03215e-06
1.82793e-05
1.82842e-05
4.02838e-06
9.02932e-06
4.02686e-06
9.03345e-06
1.91475e-07
1.91517e-07
1.9153e-07
1.99073e-07
1.99059e-07
1.99109e-07
1.9912e-07
1.93575e-06
3.34244e-06
3.36421e-07
5.99547e-07
1.92863e-06
3.34673e-06
3.41572e-07
1.828e-05
1.82848e-05
1.93582e-06
3.36579e-07
3.34224e-06
5.9967e-07
1.92875e-06
3.4168e-07
3.34739e-06
5.37174e-06
5.37343e-06
9.12095e-07
5.3742e-06
5.37589e-06
4.03402e-06
9.03844e-06
4.03246e-06
9.04298e-06
1.82867e-05
1.82923e-05
4.03416e-06
9.03945e-06
4.03252e-06
9.04445e-06
2.01683e-07
2.0173e-07
2.01746e-07
2.09849e-07
2.09838e-07
2.09892e-07
2.09906e-07
1.95732e-06
3.35801e-06
3.57136e-07
6.29317e-07
1.95048e-06
3.36298e-06
3.62479e-07
1.82875e-05
1.8293e-05
1.95738e-06
3.57298e-07
3.3582e-06
6.29445e-07
1.95064e-06
3.62589e-07
3.36288e-06
5.38074e-06
5.38246e-06
9.41869e-07
5.38324e-06
5.38489e-06
4.04e-06
9.04939e-06
4.03841e-06
9.05465e-06
1.82962e-05
1.83025e-05
4.04017e-06
9.05073e-06
4.03847e-06
9.05602e-06
2.12649e-07
2.12703e-07
2.1272e-07
2.21368e-07
2.21359e-07
2.2142e-07
2.21437e-07
1.97786e-06
3.37322e-06
3.78586e-07
6.58911e-07
1.97135e-06
3.37791e-06
3.84097e-07
1.82969e-05
1.83032e-05
1.97791e-06
3.78748e-07
3.37362e-06
6.59048e-07
1.97147e-06
3.84208e-07
3.37791e-06
5.38984e-06
5.39155e-06
9.70469e-07
5.39237e-06
5.39399e-06
4.0464e-06
9.06141e-06
4.04454e-06
9.067e-06
1.83073e-05
1.83142e-05
4.04655e-06
9.06276e-06
4.0446e-06
9.06835e-06
2.24353e-07
2.24414e-07
2.24433e-07
2.33606e-07
2.336e-07
2.33666e-07
2.33685e-07
1.99746e-06
3.38794e-06
4.00668e-07
6.88185e-07
1.99125e-06
3.39244e-06
4.06323e-07
1.83083e-05
1.83152e-05
1.99753e-06
4.00833e-07
3.38871e-06
6.88328e-07
1.99134e-06
4.06435e-07
3.39203e-06
5.39901e-06
5.40074e-06
9.97895e-07
5.40154e-06
5.40317e-06
4.05311e-06
9.07428e-06
4.051e-06
9.07981e-06
1.83203e-05
1.83279e-05
4.05316e-06
9.07551e-06
4.05117e-06
9.08137e-06
2.36768e-07
2.36836e-07
2.36856e-07
2.4653e-07
2.46527e-07
2.466e-07
2.4662e-07
2.01626e-06
3.4024e-06
4.23285e-07
7.17013e-07
2.01031e-06
3.40646e-06
4.29058e-07
1.83214e-05
1.83289e-05
2.01636e-06
4.23458e-07
3.40278e-06
7.1716e-07
2.01045e-06
4.29178e-07
3.40617e-06
5.4083e-06
5.41002e-06
1.02412e-06
5.41076e-06
5.4124e-06
4.05982e-06
9.08756e-06
4.05796e-06
9.09369e-06
1.8335e-05
1.83432e-05
4.06011e-06
9.08893e-06
4.05796e-06
9.09505e-06
2.49862e-07
2.49937e-07
2.49957e-07
2.60102e-07
2.60105e-07
2.60182e-07
2.60202e-07
2.03432e-06
3.41604e-06
4.46336e-07
7.45283e-07
2.02862e-06
3.41996e-06
4.52196e-07
1.83362e-05
1.83443e-05
2.03441e-06
4.46507e-07
3.41645e-06
7.4543e-07
2.02872e-06
4.52315e-07
3.41967e-06
5.41765e-06
5.41935e-06
1.04919e-06
5.42004e-06
5.42175e-06
4.06703e-06
9.10162e-06
4.06519e-06
9.10799e-06
1.83513e-05
1.836e-05
4.06734e-06
9.10298e-06
4.06509e-06
9.10933e-06
2.63594e-07
2.63673e-07
2.63694e-07
2.74276e-07
2.74283e-07
2.74365e-07
2.74386e-07
2.05169e-06
3.42893e-06
4.69705e-07
7.72878e-07
2.04622e-06
3.43306e-06
4.7563e-07
1.83525e-05
1.83611e-05
2.05177e-06
4.69876e-07
3.42959e-06
7.73027e-07
2.04632e-06
4.75746e-07
3.43269e-06
5.42698e-06
5.42869e-06
1.07324e-06
5.42957e-06
5.43112e-06
4.07436e-06
9.11646e-06
4.07248e-06
9.12255e-06
1.83689e-05
1.83781e-05
4.0749e-06
9.11759e-06
4.07241e-06
9.12415e-06
2.77914e-07
2.77998e-07
2.78019e-07
2.88996e-07
2.89007e-07
2.89093e-07
2.89115e-07
2.06839e-06
3.44181e-06
4.93294e-07
7.99713e-07
2.06315e-06
3.44559e-06
4.99257e-07
1.83701e-05
1.83793e-05
2.06845e-06
4.93461e-07
3.44229e-06
7.99864e-07
2.06321e-06
4.99368e-07
3.44525e-06
5.4362e-06
5.4381e-06
1.09621e-06
5.43904e-06
5.44044e-06
4.08224e-06
9.13159e-06
4.08e-06
9.13786e-06
1.83878e-05
1.83975e-05
4.08247e-06
9.13276e-06
4.08004e-06
9.13924e-06
2.92764e-07
2.92852e-07
2.92875e-07
3.04199e-07
3.04214e-07
3.04303e-07
3.04326e-07
2.08439e-06
3.45402e-06
5.1699e-07
8.25716e-07
2.07936e-06
3.45775e-06
5.22965e-07
1.83891e-05
1.83987e-05
2.08442e-06
5.17157e-07
3.45432e-06
8.25864e-07
2.07943e-06
5.23074e-07
3.45751e-06
5.44555e-06
5.44745e-06
1.11815e-06
5.44833e-06
5.44985e-06
4.08967e-06
9.14713e-06
4.0877e-06
9.15361e-06
1.8408e-05
1.84182e-05
4.09019e-06
9.14848e-06
4.08758e-06
9.15507e-06
3.08081e-07
3.08173e-07
3.08196e-07
2.09966e-06
3.46576e-06
5.40675e-07
8.50819e-07
2.09484e-06
3.46938e-06
5.46627e-07
1.84093e-05
1.84194e-05
2.0997e-06
5.40845e-07
3.46613e-06
8.50965e-07
2.09496e-06
5.46746e-07
3.46919e-06
5.45485e-06
5.45675e-06
1.1388e-06
5.45764e-06
5.45919e-06
1.84375e-05
1.84303e-05
1.84405e-05
1.84333e-05
5.16984e-06
5.17182e-06
3.91393e-07
5.17969e-06
5.18163e-06
1.8417e-05
1.84239e-05
1.842e-05
1.84269e-05
3.97131e-07
5.19364e-06
5.19581e-06
5.18445e-06
5.1864e-06
3.75847e-06
8.92115e-06
8.92535e-06
3.73519e-06
1.24132e-06
2.86795e-06
1.59606e-07
2.43809e-07
2.89005e-06
1.60142e-07
1.21454e-06
1.24121e-06
2.86851e-06
1.59609e-07
2.43847e-07
2.89065e-06
1.60144e-07
1.21459e-06
3.77027e-06
8.92986e-06
8.92591e-06
3.78986e-06
3.76983e-06
8.93021e-06
8.92628e-06
3.79054e-06
1.25605e-06
2.46907e-07
2.92047e-06
1.6147e-07
2.89991e-06
1.60768e-07
1.28213e-06
1.25605e-06
2.46943e-07
2.92107e-06
1.61473e-07
2.90045e-06
1.60771e-07
1.28214e-06
5.17161e-06
5.17162e-06
3.91349e-07
5.18148e-06
5.17944e-06
1.84383e-05
1.8431e-05
1.84199e-05
1.84267e-05
3.97197e-07
5.19543e-06
5.19365e-06
5.18622e-06
5.18571e-06
1.84177e-05
1.84246e-05
1.24155e-06
2.86859e-06
1.59597e-07
2.4376e-07
2.89063e-06
1.60133e-07
1.21463e-06
3.75834e-06
8.92177e-06
8.92593e-06
3.7356e-06
1.24159e-06
1.59612e-07
2.86989e-06
2.43854e-07
1.60149e-07
2.88933e-06
1.21462e-06
3.77026e-06
8.93143e-06
8.92728e-06
3.7901e-06
1.25604e-06
2.46856e-07
2.92105e-06
1.61463e-07
2.90051e-06
1.60761e-07
1.28225e-06
3.77026e-06
8.9308e-06
8.92691e-06
3.79005e-06
1.25597e-06
2.4695e-07
1.61479e-07
2.91984e-06
1.60776e-07
2.90174e-06
1.28235e-06
3.75822e-06
8.9214e-06
8.92553e-06
3.73583e-06
1.24144e-06
1.59592e-07
2.86815e-06
2.43805e-07
1.6013e-07
2.89023e-06
1.21461e-06
3.75872e-06
8.92134e-06
8.92555e-06
3.73536e-06
1.25598e-06
2.4683e-07
2.91918e-06
1.61462e-07
2.90122e-06
1.60742e-07
1.28241e-06
3.77054e-06
8.93036e-06
8.92651e-06
3.79004e-06
1.25597e-06
2.46898e-07
1.61459e-07
2.92061e-06
1.60755e-07
2.9001e-06
1.28233e-06
3.76985e-06
8.93043e-06
8.9265e-06
3.79067e-06
5.1729e-06
5.1715e-06
3.917e-07
5.18118e-06
5.17893e-06
1.84387e-05
1.84314e-05
1.84205e-05
1.84274e-05
3.9725e-07
5.19448e-06
5.19324e-06
5.18711e-06
5.18602e-06
1.84181e-05
1.8425e-05
1.24132e-06
1.59618e-07
2.86995e-06
2.43804e-07
1.60149e-07
2.88935e-06
1.21466e-06
3.75828e-06
8.92166e-06
8.92581e-06
3.7359e-06
3.75819e-06
8.92196e-06
8.92615e-06
3.73584e-06
1.25624e-06
2.46845e-07
1.61473e-07
2.92053e-06
1.60776e-07
2.90009e-06
1.28218e-06
1.25625e-06
2.46896e-07
1.61479e-07
2.91989e-06
1.60783e-07
2.9018e-06
1.28222e-06
3.77061e-06
8.93064e-06
8.92676e-06
3.79007e-06
3.77059e-06
8.93101e-06
8.9271e-06
3.79003e-06
1.84395e-05
1.84323e-05
1.84413e-05
1.8434e-05
3.97216e-07
5.19397e-06
5.19527e-06
5.18448e-06
5.18762e-06
1.8419e-05
1.84258e-05
1.84208e-05
1.84277e-05
1.84108e-05
1.84044e-05
1.84138e-05
1.84073e-05
5.19818e-06
5.20039e-06
4.21096e-07
5.20633e-06
5.20839e-06
1.83923e-05
1.83984e-05
1.83952e-05
1.84013e-05
4.27586e-07
5.21811e-06
5.21998e-06
5.21059e-06
5.21281e-06
3.81854e-06
8.93103e-06
3.80028e-06
8.93473e-06
1.32195e-06
2.9299e-06
1.62262e-07
2.56973e-07
1.2966e-06
2.94916e-06
1.63131e-07
1.32205e-06
2.93044e-06
1.62265e-07
2.57016e-07
1.29655e-06
2.94973e-06
1.63135e-07
3.82758e-06
8.93861e-06
8.93516e-06
3.84311e-06
3.82701e-06
8.93894e-06
8.93553e-06
3.84313e-06
1.3361e-06
2.60585e-07
2.97607e-06
1.65132e-07
2.95799e-06
1.64093e-07
1.36063e-06
1.33599e-06
2.60624e-07
2.9766e-06
1.65137e-07
2.95851e-06
1.64096e-07
1.36065e-06
5.20055e-06
5.19914e-06
4.21e-07
5.20788e-06
5.20602e-06
1.84115e-05
1.8405e-05
1.83951e-05
1.84012e-05
4.27575e-07
5.21984e-06
5.21749e-06
5.21218e-06
5.21161e-06
1.83929e-05
1.83989e-05
1.32213e-06
2.93048e-06
1.62257e-07
2.56921e-07
1.2966e-06
2.94976e-06
1.63126e-07
3.818e-06
8.93166e-06
3.80084e-06
8.93536e-06
1.32213e-06
1.62273e-07
2.93157e-06
2.57024e-07
1.29654e-06
1.63143e-07
2.9485e-06
3.82763e-06
8.94025e-06
8.93616e-06
3.84248e-06
1.33604e-06
2.6053e-07
2.97668e-06
1.65129e-07
2.95855e-06
1.64088e-07
1.36079e-06
3.82754e-06
8.93956e-06
8.93617e-06
3.8432e-06
1.33601e-06
2.60633e-07
1.65145e-07
2.97549e-06
1.64105e-07
2.95964e-06
1.36084e-06
3.81801e-06
8.93123e-06
3.80107e-06
8.93489e-06
1.32215e-06
1.6225e-07
2.93007e-06
2.56969e-07
1.29653e-06
1.63122e-07
2.94931e-06
3.81866e-06
8.93127e-06
3.80031e-06
8.93499e-06
1.3361e-06
2.60499e-07
2.9748e-06
1.65126e-07
2.9592e-06
1.64065e-07
1.36121e-06
3.82782e-06
8.93909e-06
8.93572e-06
3.84324e-06
1.33597e-06
2.60572e-07
1.65124e-07
2.97621e-06
1.64082e-07
2.95815e-06
1.36079e-06
3.82704e-06
8.93923e-06
8.93581e-06
3.84321e-06
5.20106e-06
5.19938e-06
4.21162e-07
5.20731e-06
5.20607e-06
1.84119e-05
1.84054e-05
1.83957e-05
1.84018e-05
4.27215e-07
5.21968e-06
5.21806e-06
5.21314e-06
5.21153e-06
1.83933e-05
1.83994e-05
1.32206e-06
1.6228e-07
2.93162e-06
2.56972e-07
1.29675e-06
1.63144e-07
2.94852e-06
3.81807e-06
8.93147e-06
3.80114e-06
8.93517e-06
3.81803e-06
8.93186e-06
3.80113e-06
8.93556e-06
1.33618e-06
2.60515e-07
1.65137e-07
2.97614e-06
1.64103e-07
2.95811e-06
1.36089e-06
1.33622e-06
2.60571e-07
1.65148e-07
2.9755e-06
1.64113e-07
2.95971e-06
1.36081e-06
3.82784e-06
8.93936e-06
8.93597e-06
3.84254e-06
3.82784e-06
8.93979e-06
8.93637e-06
3.8425e-06
1.84128e-05
1.84063e-05
1.84146e-05
1.84081e-05
4.27262e-07
5.21829e-06
5.21916e-06
5.21093e-06
5.21343e-06
1.83943e-05
1.84004e-05
1.8396e-05
1.84022e-05
1.83865e-05
1.83808e-05
1.83894e-05
1.83837e-05
5.22206e-06
5.22432e-06
4.531e-07
5.22882e-06
5.23056e-06
1.83699e-05
1.83752e-05
1.83728e-05
1.83781e-05
4.60095e-07
5.2388e-06
5.24053e-06
5.23277e-06
5.2343e-06
3.86448e-06
8.93965e-06
3.8504e-06
8.94282e-06
1.39807e-06
2.98439e-06
1.6626e-07
2.72159e-07
1.37439e-06
3.00131e-06
1.67468e-07
1.39808e-06
2.98499e-06
1.66265e-07
2.72198e-07
1.37433e-06
3.0003e-06
1.67476e-07
3.87085e-06
8.9464e-06
8.943e-06
3.88312e-06
3.87081e-06
8.94656e-06
8.94355e-06
3.8831e-06
1.41129e-06
2.76263e-07
3.02504e-06
1.70149e-07
3.00908e-06
1.68768e-07
1.43409e-06
1.41124e-06
2.76302e-07
3.02433e-06
1.70157e-07
3.01044e-06
1.68776e-07
1.43408e-06
5.22395e-06
5.22297e-06
4.53137e-07
5.23044e-06
5.22861e-06
1.8387e-05
1.83814e-05
1.83727e-05
1.8378e-05
4.60035e-07
5.24024e-06
5.23854e-06
5.23435e-06
5.23323e-06
1.83704e-05
1.83757e-05
1.3981e-06
2.98492e-06
1.66258e-07
2.721e-07
1.3744e-06
3.0019e-06
1.67469e-07
3.86457e-06
8.94028e-06
3.85052e-06
8.94351e-06
1.39822e-06
1.66277e-07
2.98596e-06
2.72214e-07
1.37427e-06
1.67485e-07
3.00068e-06
3.87147e-06
8.94783e-06
8.94421e-06
3.88244e-06
1.41131e-06
2.76204e-07
3.02559e-06
1.70152e-07
3.00961e-06
1.6877e-07
1.43409e-06
3.87091e-06
8.94718e-06
8.94419e-06
3.88317e-06
1.41122e-06
2.76314e-07
1.70168e-07
3.02443e-06
1.68788e-07
3.01068e-06
1.4341e-06
3.86468e-06
8.93982e-06
3.8507e-06
8.94304e-06
1.39817e-06
1.66252e-07
2.98452e-06
2.7215e-07
1.37429e-06
1.67463e-07
3.00145e-06
3.86454e-06
8.93995e-06
3.85044e-06
8.94323e-06
1.41091e-06
2.76168e-07
3.02376e-06
1.70145e-07
3.01025e-06
1.68742e-07
1.4345e-06
3.87099e-06
8.94666e-06
8.9437e-06
3.88324e-06
1.41119e-06
2.76248e-07
1.70145e-07
3.02518e-06
1.68763e-07
3.00924e-06
1.43422e-06
3.87086e-06
8.94698e-06
8.94391e-06
3.88316e-06
5.22426e-06
5.22283e-06
4.53264e-07
5.23037e-06
5.22862e-06
1.83875e-05
1.83817e-05
1.83733e-05
1.83786e-05
4.59926e-07
5.23992e-06
5.23847e-06
5.23463e-06
5.23327e-06
1.83708e-05
1.83762e-05
1.39817e-06
1.66285e-07
2.98601e-06
2.7215e-07
1.37443e-06
1.67488e-07
3.00071e-06
3.8639e-06
8.94008e-06
3.85125e-06
8.94332e-06
3.86386e-06
8.94051e-06
3.85125e-06
8.94376e-06
1.41133e-06
2.76188e-07
1.70157e-07
3.02505e-06
1.68784e-07
3.00917e-06
1.43454e-06
1.41133e-06
2.76245e-07
1.70172e-07
3.02445e-06
1.68797e-07
3.01072e-06
1.43419e-06
3.87161e-06
8.94697e-06
8.944e-06
3.88247e-06
3.87161e-06
8.94744e-06
8.94444e-06
3.88244e-06
1.83885e-05
1.83828e-05
1.83903e-05
1.83845e-05
4.60014e-07
5.23869e-06
5.24014e-06
5.23283e-06
5.23464e-06
1.83719e-05
1.83772e-05
1.83737e-05
1.8379e-05
1.83646e-05
1.83596e-05
1.83674e-05
1.83625e-05
5.24232e-06
5.24404e-06
4.87274e-07
5.24774e-06
5.2496e-06
1.83498e-05
1.83544e-05
1.83527e-05
1.83573e-05
4.94325e-07
5.25629e-06
5.25807e-06
5.25105e-06
5.2531e-06
3.89929e-06
8.94717e-06
3.88857e-06
8.95007e-06
1.46861e-06
3.03231e-06
1.71617e-07
2.89289e-07
1.44677e-06
3.04724e-06
1.73169e-07
1.46859e-06
3.03376e-06
1.71626e-07
2.89329e-07
1.44674e-06
3.04653e-06
1.73177e-07
3.90407e-06
8.95299e-06
8.95e-06
3.91338e-06
3.90405e-06
8.95322e-06
8.95046e-06
3.91337e-06
1.48068e-06
2.93865e-07
3.06819e-06
1.76535e-07
3.05407e-06
1.74811e-07
1.50203e-06
1.48072e-06
2.93905e-07
3.06756e-06
1.76543e-07
3.05557e-06
1.74819e-07
1.50156e-06
5.24375e-06
5.24273e-06
4.87305e-07
5.24941e-06
5.24737e-06
1.83649e-05
1.836e-05
1.83525e-05
1.83571e-05
4.94568e-07
5.25779e-06
5.25584e-06
5.25273e-06
5.25162e-06
1.83501e-05
1.83546e-05
1.46866e-06
3.03286e-06
1.71623e-07
2.89223e-07
1.44682e-06
3.04779e-06
1.73174e-07
3.89937e-06
8.94775e-06
3.88868e-06
8.95063e-06
1.46858e-06
1.7164e-07
3.03387e-06
2.89344e-07
1.4468e-06
1.73189e-07
3.04663e-06
3.90471e-06
8.95437e-06
8.95132e-06
3.91274e-06
1.48077e-06
2.93798e-07
3.06872e-06
1.76543e-07
3.05463e-06
1.74819e-07
1.50163e-06
3.90416e-06
8.95373e-06
8.95115e-06
3.91347e-06
1.48078e-06
2.9392e-07
1.76558e-07
3.06763e-06
1.74835e-07
3.05563e-06
1.50167e-06
3.89943e-06
8.94723e-06
3.88874e-06
8.95007e-06
1.46879e-06
1.71614e-07
3.03248e-06
2.8928e-07
1.4467e-06
1.73166e-07
3.0474e-06
3.89936e-06
8.94744e-06
3.88863e-06
8.95036e-06
1.48049e-06
2.93758e-07
3.06695e-06
1.76531e-07
3.05521e-06
1.74783e-07
1.50193e-06
3.90424e-06
8.95324e-06
8.95058e-06
3.9135e-06
1.48066e-06
2.93848e-07
1.76533e-07
3.06837e-06
1.74807e-07
3.05427e-06
1.50176e-06
3.90412e-06
8.95355e-06
8.95092e-06
3.91345e-06
5.24434e-06
5.24287e-06
4.87172e-07
5.24907e-06
5.24751e-06
1.83655e-05
1.83605e-05
1.83531e-05
1.83577e-05
4.94502e-07
5.25753e-06
5.25604e-06
5.25311e-06
5.25169e-06
1.83507e-05
1.83553e-05
1.4687e-06
1.7165e-07
3.03389e-06
2.89271e-07
1.4468e-06
1.73193e-07
3.04664e-06
3.89869e-06
8.94756e-06
3.88937e-06
8.95043e-06
3.89866e-06
8.94803e-06
3.88937e-06
8.95091e-06
1.48043e-06
2.93784e-07
1.76546e-07
3.06822e-06
1.7483e-07
3.05416e-06
1.50229e-06
1.48077e-06
2.9384e-07
1.76561e-07
3.06764e-06
1.74845e-07
3.05565e-06
1.50165e-06
3.90482e-06
8.95361e-06
8.95098e-06
3.91276e-06
3.90482e-06
8.95411e-06
8.95144e-06
3.91273e-06
1.83665e-05
1.83616e-05
1.83683e-05
1.83634e-05
4.94445e-07
5.25631e-06
5.25752e-06
5.25118e-06
5.25319e-06
1.83518e-05
1.83564e-05
1.83536e-05
1.83582e-05
1.83448e-05
1.83406e-05
1.83477e-05
1.83435e-05
5.25936e-06
5.26119e-06
5.22855e-07
5.26396e-06
5.26574e-06
1.83319e-05
1.83357e-05
1.83348e-05
1.83386e-05
5.30271e-07
5.27114e-06
5.27293e-06
5.26699e-06
5.26882e-06
3.92569e-06
8.95362e-06
3.91751e-06