/*--------------------------------*- C++ -*----------------------------------*\
| =========                 |                                                 |
| \\      /  F ield         | OpenFOAM: The Open Source CFD Toolbox           |
|  \\    /   O peration     | Version:                                        |
|   \\  /    A nd           | Website:  www.openfoam.com                      |
|    \\/     M anipulation  |                                                 |
\*---------------------------------------------------------------------------*/
FoamFile
{
    version     2.0;
    format      ascii;
    class       volScalarField;
    location    "21350.5";
    object      p;
}
// * * * * * * * * * * * * * * * * * * * * * * * * * * * * * * * * * * * * * //

dimensions      [0 2 -2 0 0 0 0];


internalField   nonuniform List<scalar> 
247096
(
1.14582e-07
1.14585e-07
1.14729e-07
1.14815e-07
1.14848e-07
1.14806e-07
1.14715e-07
1.14561e-07
1.14585e-07
1.14783e-07
1.1496e-07
1.15053e-07
1.15076e-07
1.15046e-07
1.14942e-07
1.14759e-07
1.14729e-07
1.1496e-07
1.15101e-07
1.15143e-07
1.15149e-07
1.1514e-07
1.1509e-07
1.14933e-07
1.14701e-07
1.14815e-07
1.15053e-07
1.15143e-07
1.15154e-07
1.15153e-07
1.15154e-07
1.15138e-07
1.15031e-07
1.14782e-07
1.14582e-07
1.14848e-07
1.15076e-07
1.15149e-07
1.15153e-07
1.15149e-07
1.15154e-07
1.15146e-07
1.15057e-07
1.14813e-07
1.14806e-07
1.15046e-07
1.1514e-07
1.15154e-07
1.15154e-07
1.15154e-07
1.15135e-07
1.15023e-07
1.14773e-07
1.14715e-07
1.14942e-07
1.1509e-07
1.15138e-07
1.15146e-07
1.15135e-07
1.15079e-07
1.14914e-07
1.14689e-07
1.14561e-07
1.14759e-07
1.14933e-07
1.15031e-07
1.15057e-07
1.15023e-07
1.14914e-07
1.14737e-07
1.14701e-07
1.14782e-07
1.14813e-07
1.14773e-07
1.14689e-07
1.1177e-07
1.11745e-07
1.11754e-07
1.11605e-07
1.11618e-07
1.11637e-07
1.11617e-07
1.11803e-07
1.1174e-07
1.11754e-07
1.11626e-07
1.11423e-07
1.1144e-07
1.1144e-07
1.11423e-07
1.11683e-07
1.11629e-07
1.11605e-07
1.11423e-07
1.1146e-07
1.11481e-07
1.11481e-07
1.1146e-07
1.11423e-07
1.11746e-07
1.11791e-07
1.1177e-07
1.11618e-07
1.1144e-07
1.11481e-07
1.11504e-07
1.11504e-07
1.11481e-07
1.1144e-07
1.11774e-07
1.11809e-07
1.11745e-07
1.11637e-07
1.1144e-07
1.11481e-07
1.11504e-07
1.11504e-07
1.11481e-07
1.1144e-07
1.11777e-07
1.11634e-07
1.11617e-07
1.11423e-07
1.1146e-07
1.11481e-07
1.11481e-07
1.1146e-07
1.11423e-07
1.1177e-07
1.11818e-07
1.11803e-07
1.11683e-07
1.11423e-07
1.1144e-07
1.1144e-07
1.11423e-07
1.11765e-07
1.11688e-07
1.11801e-07
1.1174e-07
1.11629e-07
1.11746e-07
1.11774e-07
1.11777e-07
1.1177e-07
1.11688e-07
1.11812e-07
1.11791e-07
1.11809e-07
1.11634e-07
1.11818e-07
1.11801e-07
1.09987e-07
1.09979e-07
1.09987e-07
1.09858e-07
1.09857e-07
1.09867e-07
1.09859e-07
1.10021e-07
1.09978e-07
1.09987e-07
1.09852e-07
1.09617e-07
1.09625e-07
1.09625e-07
1.09617e-07
1.09875e-07
1.0987e-07
1.09858e-07
1.09617e-07
1.09637e-07
1.09648e-07
1.09648e-07
1.09637e-07
1.09617e-07
1.09919e-07
1.10011e-07
1.09987e-07
1.09857e-07
1.09625e-07
1.09648e-07
1.09662e-07
1.09662e-07
1.09648e-07
1.09625e-07
1.09923e-07
1.10008e-07
1.09979e-07
1.09867e-07
1.09625e-07
1.09648e-07
1.09662e-07
1.09662e-07
1.09648e-07
1.09625e-07
1.09922e-07
1.09877e-07
1.09859e-07
1.09617e-07
1.09637e-07
1.09648e-07
1.09648e-07
1.09637e-07
1.09617e-07
1.09926e-07
1.10016e-07
1.10021e-07
1.09875e-07
1.09617e-07
1.09625e-07
1.09625e-07
1.09617e-07
1.09907e-07
1.09898e-07
1.10021e-07
1.09978e-07
1.0987e-07
1.09919e-07
1.09923e-07
1.09922e-07
1.09926e-07
1.09898e-07
1.10024e-07
1.10011e-07
1.10008e-07
1.09877e-07
1.10016e-07
1.10021e-07
1.0838e-07
1.08371e-07
1.0838e-07
1.08256e-07
1.08255e-07
1.08263e-07
1.08257e-07
1.0841e-07
1.08373e-07
1.0838e-07
1.08252e-07
1.08042e-07
1.08047e-07
1.08047e-07
1.08042e-07
1.08275e-07
1.0827e-07
1.08257e-07
1.08042e-07
1.08053e-07
1.08059e-07
1.08059e-07
1.08053e-07
1.08042e-07
1.08316e-07
1.08403e-07
1.0838e-07
1.08255e-07
1.08047e-07
1.08059e-07
1.08067e-07
1.08067e-07
1.08059e-07
1.08047e-07
1.08319e-07
1.08401e-07
1.08371e-07
1.08263e-07
1.08047e-07
1.08059e-07
1.08067e-07
1.08067e-07
1.08059e-07
1.08047e-07
1.08318e-07
1.08275e-07
1.08257e-07
1.08042e-07
1.08053e-07
1.08059e-07
1.08059e-07
1.08053e-07
1.08042e-07
1.08321e-07
1.08408e-07
1.0841e-07
1.08275e-07
1.08042e-07
1.08047e-07
1.08047e-07
1.08042e-07
1.08303e-07
1.08296e-07
1.08411e-07
1.08373e-07
1.0827e-07
1.08316e-07
1.08319e-07
1.08318e-07
1.08321e-07
1.08296e-07
1.08415e-07
1.08403e-07
1.08401e-07
1.08275e-07
1.08408e-07
1.08411e-07
1.0693e-07
1.06921e-07
1.06929e-07
1.06812e-07
1.06809e-07
1.06816e-07
1.06811e-07
1.06956e-07
1.06924e-07
1.06929e-07
1.06807e-07
1.06617e-07
1.06621e-07
1.06621e-07
1.06617e-07
1.06829e-07
1.06826e-07
1.06812e-07
1.06617e-07
1.06625e-07
1.06629e-07
1.06629e-07
1.06625e-07
1.06617e-07
1.06867e-07
1.06953e-07
1.0693e-07
1.06809e-07
1.06621e-07
1.06629e-07
1.06633e-07
1.06633e-07
1.06629e-07
1.06621e-07
1.06869e-07
1.0695e-07
1.06921e-07
1.06816e-07
1.06621e-07
1.06629e-07
1.06633e-07
1.06633e-07
1.06629e-07
1.06621e-07
1.06867e-07
1.06831e-07
1.06811e-07
1.06617e-07
1.06625e-07
1.06629e-07
1.06629e-07
1.06625e-07
1.06617e-07
1.0687e-07
1.06956e-07
1.06956e-07
1.06829e-07
1.06617e-07
1.06621e-07
1.06621e-07
1.06617e-07
1.06854e-07
1.06849e-07
1.06958e-07
1.06924e-07
1.06826e-07
1.06867e-07
1.06869e-07
1.06867e-07
1.0687e-07
1.06849e-07
1.06963e-07
1.06953e-07
1.0695e-07
1.06831e-07
1.06956e-07
1.06958e-07
1.05608e-07
1.05599e-07
1.05607e-07
1.05495e-07
1.05491e-07
1.05496e-07
1.05493e-07
1.05631e-07
1.05603e-07
1.05607e-07
1.05489e-07
1.05316e-07
1.05318e-07
1.05318e-07
1.05316e-07
1.05511e-07
1.05509e-07
1.05495e-07
1.05316e-07
1.05321e-07
1.05322e-07
1.05322e-07
1.05321e-07
1.05316e-07
1.05549e-07
1.0563e-07
1.05608e-07
1.05491e-07
1.05318e-07
1.05322e-07
1.05325e-07
1.05325e-07
1.05322e-07
1.05318e-07
1.05549e-07
1.05628e-07
1.05599e-07
1.05496e-07
1.05318e-07
1.05322e-07
1.05325e-07
1.05325e-07
1.05322e-07
1.05318e-07
1.05548e-07
1.05513e-07
1.05493e-07
1.05316e-07
1.05321e-07
1.05322e-07
1.05322e-07
1.05321e-07
1.05316e-07
1.0555e-07
1.05633e-07
1.05631e-07
1.05511e-07
1.05316e-07
1.05318e-07
1.05318e-07
1.05316e-07
1.05535e-07
1.0553e-07
1.05634e-07
1.05603e-07
1.05509e-07
1.05549e-07
1.05549e-07
1.05548e-07
1.0555e-07
1.0553e-07
1.0564e-07
1.0563e-07
1.05628e-07
1.05513e-07
1.05633e-07
1.05634e-07
1.04369e-07
1.0436e-07
1.04368e-07
1.04258e-07
1.04254e-07
1.04259e-07
1.04256e-07
1.04391e-07
1.04365e-07
1.04368e-07
1.04252e-07
1.04089e-07
1.0409e-07
1.0409e-07
1.04089e-07
1.04275e-07
1.04273e-07
1.04258e-07
1.04089e-07
1.04093e-07
1.04093e-07
1.04093e-07
1.04093e-07
1.04089e-07
1.04313e-07
1.04391e-07
1.04369e-07
1.04254e-07
1.0409e-07
1.04093e-07
1.04094e-07
1.04094e-07
1.04093e-07
1.0409e-07
1.04313e-07
1.04389e-07
1.0436e-07
1.04259e-07
1.0409e-07
1.04093e-07
1.04094e-07
1.04094e-07
1.04093e-07
1.0409e-07
1.04311e-07
1.04277e-07
1.04256e-07
1.04089e-07
1.04093e-07
1.04093e-07
1.04093e-07
1.04093e-07
1.04089e-07
1.04313e-07
1.04393e-07
1.04391e-07
1.04275e-07
1.04089e-07
1.0409e-07
1.0409e-07
1.04089e-07
1.04299e-07
1.04293e-07
1.04394e-07
1.04365e-07
1.04273e-07
1.04313e-07
1.04313e-07
1.04311e-07
1.04313e-07
1.04293e-07
1.04401e-07
1.04391e-07
1.04389e-07
1.04277e-07
1.04393e-07
1.04394e-07
1.0317e-07
1.03161e-07
1.03168e-07
1.03061e-07
1.03056e-07
1.0306e-07
1.03058e-07
1.03191e-07
1.03166e-07
1.03168e-07
1.03054e-07
1.02895e-07
1.02896e-07
1.02896e-07
1.02895e-07
1.03077e-07
1.03076e-07
1.03061e-07
1.02895e-07
1.02899e-07
1.02898e-07
1.02898e-07
1.02899e-07
1.02895e-07
1.03116e-07
1.03192e-07
1.0317e-07
1.03056e-07
1.02896e-07
1.02898e-07
1.02898e-07
1.02898e-07
1.02898e-07
1.02896e-07
1.03116e-07
1.0319e-07
1.03161e-07
1.0306e-07
1.02896e-07
1.02898e-07
1.02898e-07
1.02898e-07
1.02898e-07
1.02896e-07
1.03114e-07
1.03079e-07
1.03058e-07
1.02895e-07
1.02899e-07
1.02898e-07
1.02898e-07
1.02899e-07
1.02895e-07
1.03115e-07
1.03194e-07
1.03191e-07
1.03077e-07
1.02895e-07
1.02896e-07
1.02896e-07
1.02895e-07
1.03102e-07
1.03095e-07
1.03194e-07
1.03166e-07
1.03076e-07
1.03116e-07
1.03116e-07
1.03114e-07
1.03115e-07
1.03095e-07
1.03202e-07
1.03192e-07
1.0319e-07
1.03079e-07
1.03194e-07
1.03194e-07
1.01984e-07
1.01975e-07
1.01983e-07
1.01876e-07
1.01871e-07
1.01875e-07
1.01873e-07
1.02006e-07
1.0198e-07
1.01983e-07
1.01869e-07
1.01712e-07
1.01712e-07
1.01712e-07
1.01712e-07
1.01893e-07
1.01891e-07
1.01876e-07
1.01712e-07
1.01715e-07
1.01714e-07
1.01714e-07
1.01715e-07
1.01712e-07
1.01932e-07
1.02007e-07
1.01984e-07
1.01871e-07
1.01712e-07
1.01714e-07
1.01713e-07
1.01713e-07
1.01714e-07
1.01712e-07
1.01931e-07
1.02004e-07
1.01975e-07
1.01875e-07
1.01712e-07
1.01714e-07
1.01713e-07
1.01713e-07
1.01714e-07
1.01712e-07
1.01929e-07
1.01894e-07
1.01873e-07
1.01712e-07
1.01715e-07
1.01714e-07
1.01714e-07
1.01715e-07
1.01712e-07
1.01931e-07
1.02009e-07
1.02006e-07
1.01893e-07
1.01712e-07
1.01712e-07
1.01712e-07
1.01712e-07
1.01917e-07
1.01911e-07
1.02009e-07
1.0198e-07
1.01891e-07
1.01932e-07
1.01931e-07
1.01929e-07
1.01931e-07
1.01911e-07
1.02017e-07
1.02007e-07
1.02004e-07
1.01894e-07
1.02009e-07
1.02009e-07
1.00802e-07
1.00793e-07
1.00801e-07
1.00694e-07
1.00689e-07
1.00693e-07
1.00691e-07
1.00824e-07
1.00798e-07
1.00801e-07
1.00687e-07
1.0053e-07
1.00531e-07
1.00531e-07
1.0053e-07
1.00711e-07
1.00709e-07
1.00694e-07
1.0053e-07
1.00533e-07
1.00532e-07
1.00532e-07
1.00533e-07
1.0053e-07
1.0075e-07
1.00825e-07
1.00802e-07
1.00689e-07
1.00531e-07
1.00532e-07
1.00531e-07
1.00531e-07
1.00532e-07
1.00531e-07
1.00749e-07
1.00822e-07
1.00793e-07
1.00693e-07
1.00531e-07
1.00532e-07
1.00531e-07
1.00531e-07
1.00532e-07
1.00531e-07
1.00747e-07
1.00713e-07
1.00691e-07
1.0053e-07
1.00533e-07
1.00532e-07
1.00532e-07
1.00533e-07
1.0053e-07
1.00749e-07
1.00827e-07
1.00824e-07
1.00711e-07
1.0053e-07
1.00531e-07
1.00531e-07
1.0053e-07
1.00735e-07
1.00729e-07
1.00827e-07
1.00798e-07
1.00709e-07
1.0075e-07
1.00749e-07
1.00747e-07
1.00749e-07
1.00729e-07
1.00835e-07
1.00825e-07
1.00822e-07
1.00713e-07
1.00827e-07
1.00827e-07
9.9621e-08
9.96118e-08
9.96196e-08
9.95123e-08
9.95079e-08
9.9512e-08
9.95095e-08
9.96421e-08
9.96169e-08
9.96196e-08
9.95059e-08
9.93486e-08
9.93491e-08
9.9349e-08
9.93486e-08
9.95292e-08
9.95275e-08
9.95123e-08
9.93486e-08
9.93517e-08
9.93505e-08
9.93505e-08
9.93518e-08
9.93486e-08
9.95683e-08
9.96432e-08
9.9621e-08
9.95079e-08
9.9349e-08
9.93505e-08
9.93498e-08
9.93498e-08
9.93505e-08
9.93491e-08
9.95679e-08
9.9641e-08
9.96118e-08
9.9512e-08
9.9349e-08
9.93505e-08
9.93498e-08
9.93498e-08
9.93505e-08
9.9349e-08
9.95657e-08
9.95311e-08
9.95095e-08
9.93486e-08
9.93517e-08
9.93505e-08
9.93505e-08
9.93517e-08
9.93486e-08
9.95674e-08
9.96451e-08
9.96421e-08
9.95292e-08
9.93486e-08
9.9349e-08
9.9349e-08
9.93486e-08
9.95535e-08
9.95472e-08
9.96454e-08
9.96169e-08
9.95275e-08
9.95683e-08
9.95679e-08
9.95657e-08
9.95674e-08
9.95472e-08
9.96531e-08
9.96432e-08
9.9641e-08
9.95311e-08
9.96451e-08
9.96454e-08
9.84394e-08
9.84303e-08
9.84381e-08
9.83307e-08
9.83264e-08
9.83304e-08
9.83279e-08
9.84605e-08
9.84354e-08
9.8438e-08
9.83243e-08
9.8167e-08
9.81675e-08
9.81674e-08
9.8167e-08
9.83477e-08
9.83459e-08
9.83307e-08
9.8167e-08
9.81702e-08
9.81689e-08
9.81689e-08
9.81702e-08
9.8167e-08
9.83867e-08
9.84616e-08
9.84394e-08
9.83264e-08
9.81674e-08
9.81689e-08
9.81682e-08
9.81682e-08
9.81689e-08
9.81674e-08
9.83863e-08
9.84594e-08
9.84303e-08
9.83304e-08
9.81674e-08
9.81689e-08
9.81682e-08
9.81682e-08
9.81689e-08
9.81674e-08
9.83841e-08
9.83495e-08
9.83279e-08
9.8167e-08
9.81701e-08
9.81689e-08
9.81689e-08
9.81701e-08
9.8167e-08
9.83858e-08
9.84635e-08
9.84605e-08
9.83477e-08
9.8167e-08
9.81674e-08
9.81674e-08
9.8167e-08
9.83719e-08
9.83656e-08
9.84638e-08
9.84354e-08
9.83458e-08
9.83867e-08
9.83863e-08
9.83841e-08
9.83858e-08
9.83656e-08
9.84715e-08
9.84616e-08
9.84594e-08
9.83495e-08
9.84635e-08
9.84638e-08
9.72578e-08
9.72487e-08
9.72564e-08
9.71491e-08
9.71447e-08
9.71488e-08
9.71463e-08
9.72789e-08
9.72537e-08
9.72564e-08
9.71427e-08
9.69854e-08
9.69858e-08
9.69858e-08
9.69854e-08
9.71661e-08
9.71643e-08
9.71491e-08
9.69854e-08
9.69885e-08
9.69873e-08
9.69873e-08
9.69885e-08
9.69854e-08
9.72051e-08
9.728e-08
9.72578e-08
9.71447e-08
9.69858e-08
9.69873e-08
9.69866e-08
9.69866e-08
9.69873e-08
9.69858e-08
9.72047e-08
9.72778e-08
9.72486e-08
9.71488e-08
9.69858e-08
9.69873e-08
9.69866e-08
9.69866e-08
9.69873e-08
9.69858e-08
9.72025e-08
9.71679e-08
9.71463e-08
9.69854e-08
9.69885e-08
9.69873e-08
9.69873e-08
9.69885e-08
9.69854e-08
9.72042e-08
9.72819e-08
9.72789e-08
9.71661e-08
9.69854e-08
9.69858e-08
9.69858e-08
9.69854e-08
9.71903e-08
9.7184e-08
9.72822e-08
9.72537e-08
9.71642e-08
9.72051e-08
9.72047e-08
9.72025e-08
9.72042e-08
9.7184e-08
9.72899e-08
9.728e-08
9.72778e-08
9.71679e-08
9.72819e-08
9.72822e-08
9.60761e-08
9.6067e-08
9.60748e-08
9.59675e-08
9.59631e-08
9.59671e-08
9.59647e-08
9.60972e-08
9.60721e-08
9.60748e-08
9.59611e-08
9.58038e-08
9.58042e-08
9.58042e-08
9.58038e-08
9.59844e-08
9.59827e-08
9.59674e-08
9.58038e-08
9.58069e-08
9.58057e-08
9.58057e-08
9.58069e-08
9.58038e-08
9.60235e-08
9.60984e-08
9.60761e-08
9.59631e-08
9.58042e-08
9.58057e-08
9.58049e-08
9.58049e-08
9.58057e-08
9.58042e-08
9.60231e-08
9.60962e-08
9.6067e-08
9.59671e-08
9.58042e-08
9.58057e-08
9.58049e-08
9.58049e-08
9.58057e-08
9.58042e-08
9.60209e-08
9.59863e-08
9.59647e-08
9.58038e-08
9.58069e-08
9.58057e-08
9.58056e-08
9.58069e-08
9.58038e-08
9.60226e-08
9.61003e-08
9.60972e-08
9.59844e-08
9.58038e-08
9.58042e-08
9.58042e-08
9.58038e-08
9.60087e-08
9.60024e-08
9.61006e-08
9.60721e-08
9.59827e-08
9.60235e-08
9.60231e-08
9.60209e-08
9.60226e-08
9.60024e-08
9.61083e-08
9.60984e-08
9.60961e-08
9.59863e-08
9.61003e-08
9.61006e-08
9.48945e-08
9.48854e-08
9.48932e-08
9.47858e-08
9.47815e-08
9.47855e-08
9.47831e-08
9.49156e-08
9.48905e-08
9.48932e-08
9.47795e-08
9.46221e-08
9.46226e-08
9.46226e-08
9.46221e-08
9.48028e-08
9.4801e-08
9.47858e-08
9.46221e-08
9.46253e-08
9.4624e-08
9.4624e-08
9.46253e-08
9.46221e-08
9.48418e-08
9.49168e-08
9.48945e-08
9.47815e-08
9.46226e-08
9.4624e-08
9.46233e-08
9.46233e-08
9.4624e-08
9.46226e-08
9.48415e-08
9.49145e-08
9.48854e-08
9.47855e-08
9.46226e-08
9.4624e-08
9.46233e-08
9.46233e-08
9.4624e-08
9.46226e-08
9.48393e-08
9.48047e-08
9.47831e-08
9.46221e-08
9.46253e-08
9.4624e-08
9.4624e-08
9.46253e-08
9.46221e-08
9.4841e-08
9.49186e-08
9.49156e-08
9.48028e-08
9.46221e-08
9.46226e-08
9.46226e-08
9.46221e-08
9.48271e-08
9.48208e-08
9.4919e-08
9.48905e-08
9.4801e-08
9.48418e-08
9.48415e-08
9.48393e-08
9.4841e-08
9.48208e-08
9.49266e-08
9.49168e-08
9.49145e-08
9.48047e-08
9.49186e-08
9.4919e-08
9.37129e-08
9.37038e-08
9.37116e-08
9.36042e-08
9.35999e-08
9.36039e-08
9.36015e-08
9.3734e-08
9.37089e-08
9.37116e-08
9.35979e-08
9.34406e-08
9.3441e-08
9.3441e-08
9.34406e-08
9.36212e-08
9.36195e-08
9.36042e-08
9.34406e-08
9.34437e-08
9.34424e-08
9.34424e-08
9.34437e-08
9.34405e-08
9.36602e-08
9.37352e-08
9.37129e-08
9.35999e-08
9.3441e-08
9.34424e-08
9.34417e-08
9.34417e-08
9.34424e-08
9.3441e-08
9.36599e-08
9.37329e-08
9.37038e-08
9.36039e-08
9.3441e-08
9.34424e-08
9.34417e-08
9.34417e-08
9.34424e-08
9.3441e-08
9.36577e-08
9.36231e-08
9.36015e-08
9.34406e-08
9.34437e-08
9.34424e-08
9.34424e-08
9.34437e-08
9.34406e-08
9.36594e-08
9.3737e-08
9.3734e-08
9.36212e-08
9.34405e-08
9.3441e-08
9.3441e-08
9.34405e-08
9.36455e-08
9.36391e-08
9.37374e-08
9.37089e-08
9.36194e-08
9.36602e-08
9.36599e-08
9.36577e-08
9.36594e-08
9.36392e-08
9.3745e-08
9.37352e-08
9.37329e-08
9.36231e-08
9.3737e-08
9.37374e-08
9.25313e-08
9.25222e-08
9.253e-08
9.24227e-08
9.24183e-08
9.24223e-08
9.24199e-08
9.25524e-08
9.25273e-08
9.253e-08
9.24163e-08
9.2259e-08
9.22594e-08
9.22594e-08
9.2259e-08
9.24396e-08
9.24379e-08
9.24227e-08
9.2259e-08
9.22621e-08
9.22609e-08
9.22609e-08
9.22621e-08
9.2259e-08
9.24787e-08
9.25536e-08
9.25313e-08
9.24183e-08
9.22594e-08
9.22609e-08
9.22601e-08
9.22601e-08
9.22609e-08
9.22594e-08
9.24783e-08
9.25514e-08
9.25222e-08
9.24223e-08
9.22594e-08
9.22609e-08
9.22601e-08
9.22601e-08
9.22609e-08
9.22594e-08
9.24761e-08
9.24415e-08
9.24199e-08
9.2259e-08
9.22621e-08
9.22609e-08
9.22609e-08
9.22621e-08
9.2259e-08
9.24778e-08
9.25554e-08
9.25524e-08
9.24396e-08
9.2259e-08
9.22594e-08
9.22594e-08
9.2259e-08
9.24639e-08
9.24576e-08
9.25558e-08
9.25273e-08
9.24379e-08
9.24787e-08
9.24783e-08
9.24761e-08
9.24778e-08
9.24576e-08
9.25635e-08
9.25536e-08
9.25514e-08
9.24415e-08
9.25555e-08
9.25558e-08
9.13498e-08
9.13406e-08
9.13484e-08
9.12411e-08
9.12367e-08
9.12408e-08
9.12383e-08
9.13709e-08
9.13457e-08
9.13484e-08
9.12347e-08
9.10774e-08
9.10778e-08
9.10778e-08
9.10774e-08
9.1258e-08
9.12563e-08
9.12411e-08
9.10774e-08
9.10805e-08
9.10793e-08
9.10793e-08
9.10805e-08
9.10774e-08
9.12971e-08
9.1372e-08
9.13498e-08
9.12367e-08
9.10778e-08
9.10793e-08
9.10786e-08
9.10786e-08
9.10793e-08
9.10778e-08
9.12967e-08
9.13698e-08
9.13406e-08
9.12407e-08
9.10778e-08
9.10793e-08
9.10786e-08
9.10786e-08
9.10793e-08
9.10778e-08
9.12945e-08
9.12599e-08
9.12383e-08
9.10774e-08
9.10805e-08
9.10793e-08
9.10793e-08
9.10805e-08
9.10774e-08
9.12962e-08
9.13739e-08
9.13709e-08
9.1258e-08
9.10774e-08
9.10778e-08
9.10778e-08
9.10774e-08
9.12823e-08
9.1276e-08
9.13742e-08
9.13457e-08
9.12563e-08
9.12971e-08
9.12967e-08
9.12945e-08
9.12962e-08
9.1276e-08
9.13819e-08
9.1372e-08
9.13698e-08
9.12599e-08
9.13739e-08
9.13742e-08
9.01682e-08
9.01591e-08
9.01668e-08
9.00595e-08
9.00552e-08
9.00592e-08
9.00567e-08
9.01893e-08
9.01641e-08
9.01668e-08
9.00531e-08
8.98958e-08
8.98962e-08
8.98962e-08
8.98958e-08
9.00765e-08
9.00747e-08
9.00595e-08
8.98958e-08
8.98989e-08
8.98977e-08
8.98977e-08
8.98989e-08
8.98958e-08
9.01155e-08
9.01904e-08
9.01682e-08
9.00552e-08
8.98962e-08
8.98977e-08
8.9897e-08
8.9897e-08
8.98977e-08
8.98962e-08
9.01151e-08
9.01882e-08
9.0159e-08
9.00592e-08
8.98962e-08
8.98977e-08
8.9897e-08
8.9897e-08
8.98977e-08
8.98962e-08
9.01129e-08
9.00783e-08
9.00567e-08
8.98958e-08
8.98989e-08
8.98977e-08
8.98977e-08
8.98989e-08
8.98958e-08
9.01146e-08
9.01923e-08
9.01893e-08
9.00765e-08
8.98958e-08
8.98962e-08
8.98962e-08
8.98958e-08
9.01007e-08
9.00944e-08
9.01926e-08
9.01641e-08
9.00747e-08
9.01155e-08
9.01151e-08
9.01129e-08
9.01146e-08
9.00944e-08
9.02003e-08
9.01904e-08
9.01882e-08
9.00783e-08
9.01923e-08
9.01926e-08
8.89866e-08
8.89775e-08
8.89852e-08
8.88779e-08
8.88736e-08
8.88776e-08
8.88751e-08
8.90077e-08
8.89826e-08
8.89852e-08
8.88715e-08
8.87142e-08
8.87147e-08
8.87146e-08
8.87142e-08
8.88949e-08
8.88931e-08
8.88779e-08
8.87142e-08
8.87174e-08
8.87161e-08
8.87161e-08
8.87174e-08
8.87142e-08
8.89339e-08
8.90088e-08
8.89866e-08
8.88736e-08
8.87146e-08
8.87161e-08
8.87154e-08
8.87154e-08
8.87161e-08
8.87147e-08
8.89335e-08
8.90066e-08
8.89775e-08
8.88776e-08
8.87146e-08
8.87161e-08
8.87154e-08
8.87154e-08
8.87161e-08
8.87146e-08
8.89313e-08
8.88967e-08
8.88751e-08
8.87142e-08
8.87174e-08
8.87161e-08
8.87161e-08
8.87174e-08
8.87142e-08
8.8933e-08
8.90107e-08
8.90077e-08
8.88949e-08
8.87142e-08
8.87146e-08
8.87146e-08
8.87142e-08
8.89191e-08
8.89128e-08
8.9011e-08
8.89826e-08
8.88931e-08
8.89339e-08
8.89335e-08
8.89313e-08
8.8933e-08
8.89128e-08
8.90187e-08
8.90088e-08
8.90066e-08
8.88967e-08
8.90107e-08
8.9011e-08
8.7805e-08
8.77959e-08
8.78036e-08
8.76963e-08
8.7692e-08
8.7696e-08
8.76935e-08
8.78261e-08
8.78009e-08
8.78036e-08
8.76899e-08
8.75326e-08
8.7533e-08
8.7533e-08
8.75326e-08
8.77133e-08
8.77115e-08
8.76963e-08
8.75326e-08
8.75357e-08
8.75345e-08
8.75345e-08
8.75358e-08
8.75326e-08
8.77523e-08
8.78272e-08
8.7805e-08
8.7692e-08
8.7533e-08
8.75345e-08
8.75338e-08
8.75338e-08
8.75345e-08
8.7533e-08
8.77519e-08
8.7825e-08
8.77958e-08
8.7696e-08
8.7533e-08
8.75345e-08
8.75338e-08
8.75338e-08
8.75345e-08
8.7533e-08
8.77497e-08
8.77151e-08
8.76935e-08
8.75326e-08
8.75357e-08
8.75345e-08
8.75345e-08
8.75357e-08
8.75326e-08
8.77514e-08
8.78291e-08
8.78261e-08
8.77133e-08
8.75326e-08
8.7533e-08
8.7533e-08
8.75326e-08
8.77375e-08
8.77312e-08
8.78294e-08
8.78009e-08
8.77115e-08
8.77523e-08
8.77519e-08
8.77497e-08
8.77514e-08
8.77312e-08
8.78371e-08
8.78272e-08
8.7825e-08
8.77151e-08
8.78291e-08
8.78294e-08
8.66234e-08
8.66143e-08
8.6622e-08
8.65147e-08
8.65104e-08
8.65144e-08
8.65119e-08
8.66445e-08
8.66193e-08
8.6622e-08
8.65083e-08
8.6351e-08
8.63514e-08
8.63514e-08
8.6351e-08
8.65317e-08
8.65299e-08
8.65147e-08
8.6351e-08
8.63541e-08
8.63529e-08
8.63529e-08
8.63542e-08
8.6351e-08
8.65707e-08
8.66456e-08
8.66234e-08
8.65103e-08
8.63514e-08
8.63529e-08
8.63522e-08
8.63522e-08
8.63529e-08
8.63514e-08
8.65703e-08
8.66434e-08
8.66142e-08
8.65144e-08
8.63514e-08
8.63529e-08
8.63522e-08
8.63522e-08
8.63529e-08
8.63514e-08
8.65681e-08
8.65335e-08
8.65119e-08
8.6351e-08
8.63541e-08
8.63529e-08
8.63529e-08
8.63541e-08
8.6351e-08
8.65698e-08
8.66475e-08
8.66445e-08
8.65317e-08
8.6351e-08
8.63514e-08
8.63514e-08
8.6351e-08
8.65559e-08
8.65496e-08
8.66478e-08
8.66193e-08
8.65299e-08
8.65707e-08
8.65703e-08
8.65681e-08
8.65698e-08
8.65496e-08
8.66555e-08
8.66456e-08
8.66434e-08
8.65335e-08
8.66475e-08
8.66478e-08
8.54418e-08
8.54327e-08
8.54404e-08
8.53331e-08
8.53288e-08
8.53328e-08
8.53303e-08
8.54629e-08
8.54377e-08
8.54404e-08
8.53267e-08
8.51694e-08
8.51699e-08
8.51699e-08
8.51694e-08
8.53501e-08
8.53483e-08
8.53331e-08
8.51694e-08
8.51726e-08
8.51713e-08
8.51713e-08
8.51726e-08
8.51694e-08
8.53891e-08
8.5464e-08
8.54418e-08
8.53288e-08
8.51699e-08
8.51713e-08
8.51706e-08
8.51706e-08
8.51713e-08
8.51699e-08
8.53887e-08
8.54618e-08
8.54326e-08
8.53328e-08
8.51699e-08
8.51713e-08
8.51706e-08
8.51706e-08
8.51713e-08
8.51699e-08
8.53865e-08
8.53519e-08
8.53303e-08
8.51694e-08
8.51726e-08
8.51713e-08
8.51713e-08
8.51726e-08
8.51694e-08
8.53882e-08
8.54659e-08
8.54629e-08
8.53501e-08
8.51694e-08
8.51699e-08
8.51698e-08
8.51694e-08
8.53743e-08
8.5368e-08
8.54662e-08
8.54377e-08
8.53483e-08
8.53891e-08
8.53887e-08
8.53865e-08
8.53882e-08
8.5368e-08
8.54739e-08
8.5464e-08
8.54618e-08
8.53519e-08
8.54659e-08
8.54662e-08
8.42602e-08
8.42511e-08
8.42589e-08
8.41515e-08
8.41472e-08
8.41512e-08
8.41487e-08
8.42813e-08
8.42562e-08
8.42589e-08
8.41451e-08
8.39878e-08
8.39883e-08
8.39883e-08
8.39878e-08
8.41685e-08
8.41667e-08
8.41515e-08
8.39878e-08
8.3991e-08
8.39897e-08
8.39897e-08
8.3991e-08
8.39878e-08
8.42075e-08
8.42825e-08
8.42602e-08
8.41472e-08
8.39883e-08
8.39897e-08
8.3989e-08
8.3989e-08
8.39897e-08
8.39883e-08
8.42071e-08
8.42802e-08
8.42511e-08
8.41512e-08
8.39883e-08
8.39897e-08
8.3989e-08
8.3989e-08
8.39897e-08
8.39883e-08
8.42049e-08
8.41703e-08
8.41487e-08
8.39878e-08
8.3991e-08
8.39897e-08
8.39897e-08
8.3991e-08
8.39878e-08
8.42066e-08
8.42843e-08
8.42813e-08
8.41685e-08
8.39878e-08
8.39883e-08
8.39883e-08
8.39878e-08
8.41927e-08
8.41864e-08
8.42846e-08
8.42562e-08
8.41667e-08
8.42075e-08
8.42071e-08
8.42049e-08
8.42066e-08
8.41864e-08
8.42923e-08
8.42825e-08
8.42802e-08
8.41703e-08
8.42843e-08
8.42846e-08
8.30786e-08
8.30695e-08
8.30773e-08
8.29699e-08
8.29656e-08
8.29696e-08
8.29671e-08
8.30997e-08
8.30746e-08
8.30773e-08
8.29635e-08
8.28062e-08
8.28067e-08
8.28067e-08
8.28062e-08
8.29869e-08
8.29851e-08
8.29699e-08
8.28062e-08
8.28094e-08
8.28081e-08
8.28081e-08
8.28094e-08
8.28062e-08
8.30259e-08
8.31009e-08
8.30786e-08
8.29656e-08
8.28067e-08
8.28081e-08
8.28074e-08
8.28074e-08
8.28081e-08
8.28067e-08
8.30255e-08
8.30986e-08
8.30695e-08
8.29696e-08
8.28067e-08
8.28081e-08
8.28074e-08
8.28074e-08
8.28081e-08
8.28067e-08
8.30233e-08
8.29887e-08
8.29671e-08
8.28062e-08
8.28094e-08
8.28081e-08
8.28081e-08
8.28094e-08
8.28062e-08
8.3025e-08
8.31027e-08
8.30997e-08
8.29869e-08
8.28062e-08
8.28067e-08
8.28067e-08
8.28062e-08
8.30111e-08
8.30048e-08
8.3103e-08
8.30746e-08
8.29851e-08
8.30259e-08
8.30255e-08
8.30233e-08
8.3025e-08
8.30048e-08
8.31107e-08
8.31009e-08
8.30986e-08
8.29887e-08
8.31027e-08
8.31031e-08
8.1897e-08
8.18879e-08
8.18957e-08
8.17883e-08
8.1784e-08
8.1788e-08
8.17855e-08
8.19181e-08
8.1893e-08
8.18957e-08
8.17819e-08
8.16246e-08
8.16251e-08
8.16251e-08
8.16246e-08
8.18053e-08
8.18035e-08
8.17883e-08
8.16246e-08
8.16278e-08
8.16265e-08
8.16265e-08
8.16278e-08
8.16246e-08
8.18443e-08
8.19193e-08
8.1897e-08
8.1784e-08
8.16251e-08
8.16265e-08
8.16258e-08
8.16258e-08
8.16265e-08
8.16251e-08
8.18439e-08
8.1917e-08
8.18879e-08
8.1788e-08
8.16251e-08
8.16265e-08
8.16258e-08
8.16258e-08
8.16265e-08
8.16251e-08
8.18417e-08
8.18071e-08
8.17855e-08
8.16246e-08
8.16278e-08
8.16265e-08
8.16265e-08
8.16278e-08
8.16246e-08
8.18434e-08
8.19211e-08
8.19181e-08
8.18053e-08
8.16246e-08
8.16251e-08
8.16251e-08
8.16246e-08
8.18295e-08
8.18232e-08
8.19214e-08
8.1893e-08
8.18035e-08
8.18443e-08
8.18439e-08
8.18417e-08
8.18434e-08
8.18232e-08
8.19291e-08
8.19193e-08
8.1917e-08
8.18071e-08
8.19211e-08
8.19214e-08
8.07154e-08
8.07063e-08
8.0714e-08
8.06067e-08
8.06023e-08
8.06064e-08
8.06039e-08
8.07365e-08
8.07113e-08
8.0714e-08
8.06003e-08
8.0443e-08
8.04434e-08
8.04434e-08
8.0443e-08
8.06237e-08
8.06219e-08
8.06067e-08
8.0443e-08
8.04461e-08
8.04449e-08
8.04449e-08
8.04461e-08
8.0443e-08
8.06627e-08
8.07376e-08
8.07154e-08
8.06023e-08
8.04434e-08
8.04449e-08
8.04442e-08
8.04442e-08
8.04449e-08
8.04434e-08
8.06623e-08
8.07354e-08
8.07062e-08
8.06064e-08
8.04434e-08
8.04449e-08
8.04442e-08
8.04442e-08
8.04449e-08
8.04434e-08
8.06601e-08
8.06255e-08
8.06039e-08
8.0443e-08
8.04461e-08
8.04449e-08
8.04449e-08
8.04461e-08
8.0443e-08
8.06618e-08
8.07395e-08
8.07365e-08
8.06237e-08
8.0443e-08
8.04434e-08
8.04434e-08
8.0443e-08
8.06479e-08
8.06416e-08
8.07398e-08
8.07113e-08
8.06219e-08
8.06627e-08
8.06623e-08
8.06601e-08
8.06618e-08
8.06416e-08
8.07475e-08
8.07376e-08
8.07354e-08
8.06255e-08
8.07395e-08
8.07398e-08
7.95338e-08
7.95246e-08
7.95324e-08
7.94251e-08
7.94207e-08
7.94248e-08
7.94223e-08
7.95549e-08
7.95297e-08
7.95324e-08
7.94187e-08
7.92614e-08
7.92618e-08
7.92618e-08
7.92614e-08
7.94421e-08
7.94403e-08
7.94251e-08
7.92614e-08
7.92645e-08
7.92633e-08
7.92633e-08
7.92645e-08
7.92614e-08
7.94811e-08
7.9556e-08
7.95338e-08
7.94207e-08
7.92618e-08
7.92633e-08
7.92626e-08
7.92626e-08
7.92633e-08
7.92618e-08
7.94807e-08
7.95538e-08
7.95246e-08
7.94248e-08
7.92618e-08
7.92633e-08
7.92626e-08
7.92626e-08
7.92633e-08
7.92618e-08
7.94785e-08
7.94439e-08
7.94223e-08
7.92614e-08
7.92645e-08
7.92633e-08
7.92633e-08
7.92645e-08
7.92614e-08
7.94802e-08
7.95579e-08
7.95549e-08
7.94421e-08
7.92614e-08
7.92618e-08
7.92618e-08
7.92614e-08
7.94663e-08
7.946e-08
7.95582e-08
7.95297e-08
7.94403e-08
7.94811e-08
7.94807e-08
7.94785e-08
7.94802e-08
7.946e-08
7.95659e-08
7.9556e-08
7.95538e-08
7.94439e-08
7.95579e-08
7.95582e-08
7.83522e-08
7.83431e-08
7.83509e-08
7.82435e-08
7.82392e-08
7.82432e-08
7.82407e-08
7.83733e-08
7.83481e-08
7.83508e-08
7.82371e-08
7.80798e-08
7.80803e-08
7.80803e-08
7.80798e-08
7.82605e-08
7.82587e-08
7.82435e-08
7.80798e-08
7.8083e-08
7.80817e-08
7.80817e-08
7.8083e-08
7.80798e-08
7.82995e-08
7.83744e-08
7.83522e-08
7.82392e-08
7.80803e-08
7.80817e-08
7.8081e-08
7.8081e-08
7.80817e-08
7.80803e-08
7.82991e-08
7.83722e-08
7.8343e-08
7.82432e-08
7.80803e-08
7.80817e-08
7.8081e-08
7.8081e-08
7.80817e-08
7.80803e-08
7.82969e-08
7.82623e-08
7.82407e-08
7.80798e-08
7.8083e-08
7.80817e-08
7.80817e-08
7.8083e-08
7.80798e-08
7.82986e-08
7.83763e-08
7.83733e-08
7.82605e-08
7.80798e-08
7.80803e-08
7.80803e-08
7.80798e-08
7.82847e-08
7.82784e-08
7.83766e-08
7.83481e-08
7.82587e-08
7.82995e-08
7.82991e-08
7.82969e-08
7.82986e-08
7.82784e-08
7.83843e-08
7.83744e-08
7.83722e-08
7.82623e-08
7.83763e-08
7.83766e-08
7.71706e-08
7.71615e-08
7.71693e-08
7.70619e-08
7.70576e-08
7.70616e-08
7.70591e-08
7.71917e-08
7.71666e-08
7.71693e-08
7.70555e-08
7.68982e-08
7.68987e-08
7.68987e-08
7.68982e-08
7.70789e-08
7.70772e-08
7.70619e-08
7.68982e-08
7.69014e-08
7.69001e-08
7.69001e-08
7.69014e-08
7.68982e-08
7.71179e-08
7.71929e-08
7.71706e-08
7.70576e-08
7.68987e-08
7.69001e-08
7.68994e-08
7.68994e-08
7.69001e-08
7.68987e-08
7.71175e-08
7.71906e-08
7.71615e-08
7.70616e-08
7.68987e-08
7.69001e-08
7.68994e-08
7.68994e-08
7.69001e-08
7.68987e-08
7.71153e-08
7.70807e-08
7.70591e-08
7.68982e-08
7.69014e-08
7.69001e-08
7.69001e-08
7.69014e-08
7.68982e-08
7.7117e-08
7.71947e-08
7.71917e-08
7.70789e-08
7.68982e-08
7.68987e-08
7.68987e-08
7.68982e-08
7.71031e-08
7.70968e-08
7.7195e-08
7.71665e-08
7.70772e-08
7.71179e-08
7.71176e-08
7.71154e-08
7.71171e-08
7.70968e-08
7.72027e-08
7.71929e-08
7.71906e-08
7.70807e-08
7.71947e-08
7.71951e-08
7.5989e-08
7.59799e-08
7.59877e-08
7.58803e-08
7.5876e-08
7.588e-08
7.58776e-08
7.60101e-08
7.5985e-08
7.59877e-08
7.5874e-08
7.57166e-08
7.57171e-08
7.57171e-08
7.57166e-08
7.58973e-08
7.58956e-08
7.58803e-08
7.57166e-08
7.57198e-08
7.57185e-08
7.57185e-08
7.57198e-08
7.57166e-08
7.59363e-08
7.60113e-08
7.5989e-08
7.5876e-08
7.57171e-08
7.57185e-08
7.57178e-08
7.57178e-08
7.57185e-08
7.57171e-08
7.5936e-08
7.6009e-08
7.59799e-08
7.588e-08
7.57171e-08
7.57185e-08
7.57178e-08
7.57178e-08
7.57185e-08
7.57171e-08
7.59338e-08
7.58992e-08
7.58776e-08
7.57166e-08
7.57198e-08
7.57185e-08
7.57185e-08
7.57198e-08
7.57166e-08
7.59355e-08
7.60131e-08
7.60101e-08
7.58973e-08
7.57166e-08
7.57171e-08
7.57171e-08
7.57166e-08
7.59215e-08
7.59152e-08
7.60135e-08
7.5985e-08
7.58956e-08
7.59363e-08
7.5936e-08
7.59338e-08
7.59355e-08
7.59153e-08
7.60211e-08
7.60113e-08
7.6009e-08
7.58992e-08
7.60131e-08
7.60135e-08
7.48074e-08
7.47983e-08
7.48061e-08
7.46988e-08
7.46944e-08
7.46984e-08
7.4696e-08
7.48285e-08
7.48034e-08
7.48061e-08
7.46924e-08
7.45351e-08
7.45355e-08
7.45355e-08
7.45351e-08
7.47157e-08
7.4714e-08
7.46987e-08
7.45351e-08
7.45382e-08
7.4537e-08
7.4537e-08
7.45382e-08
7.45351e-08
7.47548e-08
7.48297e-08
7.48074e-08
7.46944e-08
7.45355e-08
7.4537e-08
7.45362e-08
7.45362e-08
7.4537e-08
7.45355e-08
7.47544e-08
7.48275e-08
7.47983e-08
7.46984e-08
7.45355e-08
7.4537e-08
7.45362e-08
7.45362e-08
7.4537e-08
7.45355e-08
7.47522e-08
7.47176e-08
7.4696e-08
7.45351e-08
7.45382e-08
7.4537e-08
7.45369e-08
7.45382e-08
7.45351e-08
7.47539e-08
7.48315e-08
7.48285e-08
7.47157e-08
7.45351e-08
7.45355e-08
7.45355e-08
7.45351e-08
7.474e-08
7.47337e-08
7.48319e-08
7.48034e-08