/*--------------------------------*- C++ -*----------------------------------*\
| =========                 |                                                 |
| \\      /  F ield         | OpenFOAM: The Open Source CFD Toolbox           |
|  \\    /   O peration     | Version:                                        |
|   \\  /    A nd           | Website:  www.openfoam.com                      |
|    \\/     M anipulation  |                                                 |
\*---------------------------------------------------------------------------*/
FoamFile
{
    version     2.0;
    format      ascii;
    class       volScalarField;
    location    "300";
    object      epsilon;
}
// * * * * * * * * * * * * * * * * * * * * * * * * * * * * * * * * * * * * * //

dimensions      [0 2 -3 0 0 0 0];


internalField   nonuniform List<scalar> 
172512
(
4.9917e-07
4.99976e-07
4.99976e-07
4.99864e-07
4.45574e-07
4.54114e-07
4.54114e-07
4.63753e-07
4.03788e-07
4.18749e-07
4.18751e-07
4.3954e-07
3.68406e-07
3.88705e-07
3.88708e-07
4.17791e-07
3.38054e-07
3.62205e-07
3.62208e-07
3.9618e-07
3.11679e-07
3.38343e-07
3.38346e-07
3.74653e-07
2.88499e-07
3.16686e-07
3.1669e-07
3.53759e-07
2.67942e-07
2.97056e-07
2.9706e-07
3.34179e-07
2.49594e-07
2.79396e-07
2.794e-07
3.16504e-07
2.33147e-07
2.63701e-07
2.63704e-07
3.01174e-07
2.18372e-07
2.49975e-07
2.49979e-07
2.88501e-07
2.05095e-07
2.38219e-07
2.38223e-07
2.78702e-07
1.93175e-07
2.28434e-07
2.28438e-07
2.71884e-07
1.825e-07
2.20627e-07
2.20631e-07
2.68172e-07
1.7298e-07
2.14805e-07
2.14809e-07
2.67656e-07
1.64542e-07
2.1098e-07
2.10985e-07
2.70509e-07
1.57123e-07
2.09159e-07
2.09164e-07
2.76716e-07
1.5067e-07
2.09358e-07
2.09364e-07
2.86302e-07
1.45139e-07
2.11621e-07
2.11628e-07
2.99251e-07
1.40495e-07
2.15965e-07
2.15973e-07
3.15625e-07
1.36707e-07
2.22411e-07
2.22421e-07
3.35369e-07
1.33753e-07
2.30975e-07
2.30987e-07
3.58383e-07
1.3161e-07
2.41646e-07
2.41659e-07
3.84503e-07
1.30265e-07
2.54402e-07
2.54417e-07
4.13476e-07
1.29704e-07
2.69198e-07
2.69216e-07
4.44965e-07
1.29929e-07
2.85969e-07
2.8599e-07
4.78581e-07
1.30919e-07
3.04629e-07
3.04654e-07
5.13898e-07
1.32675e-07
3.25073e-07
3.25102e-07
5.50467e-07
1.35196e-07
3.47181e-07
3.47215e-07
5.87844e-07
1.38486e-07
3.70817e-07
3.70856e-07
6.25607e-07
1.42545e-07
3.95836e-07
3.95881e-07
6.63376e-07
1.4738e-07
4.2208e-07
4.2213e-07
7.00818e-07
1.52995e-07
4.49383e-07
4.49439e-07
7.37663e-07
1.59396e-07
4.77575e-07
4.77637e-07
7.73699e-07
1.66588e-07
5.06481e-07
5.06549e-07
8.08765e-07
1.74573e-07
5.35922e-07
5.35997e-07
8.42717e-07
1.83352e-07
5.65725e-07
5.65806e-07
8.75523e-07
1.9292e-07
5.95714e-07
5.95802e-07
9.07147e-07
2.03269e-07
6.25722e-07
6.25817e-07
9.37568e-07
2.14382e-07
6.55588e-07
6.5569e-07
9.66779e-07
2.26239e-07
6.85162e-07
6.85271e-07
9.94785e-07
2.38812e-07
7.1431e-07
7.14425e-07
1.02161e-06
2.52065e-07
7.42911e-07
7.43032e-07
1.04727e-06
2.65956e-07
7.70854e-07
7.70979e-07
1.07181e-06
2.80435e-07
7.98043e-07
7.98172e-07
1.09526e-06
2.95441e-07
8.24398e-07
8.2453e-07
1.11766e-06
3.10911e-07
8.49853e-07
8.49988e-07
1.13903e-06
3.26772e-07
8.74359e-07
8.74495e-07
1.1594e-06
3.42947e-07
8.97878e-07
8.98015e-07
1.1788e-06
3.59358e-07
9.20387e-07
9.20525e-07
1.19727e-06
3.75922e-07
9.41873e-07
9.42012e-07
1.21483e-06
3.92559e-07
9.62334e-07
9.62473e-07
1.2315e-06
4.09187e-07
9.81789e-07
9.81928e-07
1.24732e-06
4.25728e-07
1.00024e-06
1.00038e-06
1.26232e-06
4.42107e-07
1.0177e-06
1.01784e-06
1.27651e-06
4.58251e-07
1.03418e-06
1.03432e-06
1.28994e-06
4.74093e-07
1.0497e-06
1.04984e-06
1.30261e-06
4.89565e-07
1.06428e-06
1.06441e-06
1.31455e-06
5.04607e-07
1.07793e-06
1.07806e-06
1.32579e-06
5.19149e-07
1.09067e-06
1.0908e-06
1.33634e-06
5.3311e-07
1.10251e-06
1.10263e-06
1.34622e-06
5.46429e-07
1.11351e-06
1.11363e-06
1.35557e-06
5.58996e-07
1.12358e-06
1.1237e-06
1.36421e-06
5.70755e-07
1.13294e-06
1.13306e-06
1.3726e-06
5.81619e-07
1.14147e-06
1.14159e-06
1.38048e-06
5.91478e-07
1.14924e-06
1.14935e-06
1.38809e-06
6.00204e-07
1.15586e-06
1.15598e-06
1.39493e-06
6.07561e-07
1.16058e-06
1.16071e-06
1.39892e-06
6.14638e-07
1.16639e-06
1.1665e-06
1.40562e-06
6.22565e-07
1.17584e-06
1.17595e-06
1.42012e-06
6.30678e-07
1.18724e-06
1.18737e-06
1.43918e-06
6.37273e-07
1.19685e-06
1.19698e-06
1.45619e-06
6.41673e-07
1.20348e-06
1.2036e-06
1.4686e-06
6.44128e-07
1.20726e-06
1.20737e-06
1.47606e-06
6.45204e-07
1.20881e-06
1.20892e-06
1.47931e-06
6.4556e-07
1.20927e-06
1.20939e-06
1.48035e-06
6.45704e-07
1.2095e-06
1.20961e-06
1.48084e-06
6.4581e-07
1.20966e-06
1.20977e-06
1.48119e-06
6.45852e-07
1.20972e-06
1.20982e-06
1.48131e-06
6.45862e-07
1.20973e-06
1.20984e-06
1.48137e-06
6.45854e-07
1.20973e-06
1.20984e-06
1.48142e-06
6.45841e-07
1.20972e-06
1.20983e-06
1.48141e-06
6.45823e-07
1.20972e-06
1.20982e-06
1.4814e-06
6.45809e-07
1.2097e-06
1.20981e-06
1.48133e-06
6.45798e-07
1.2097e-06
1.20981e-06
1.48133e-06
6.45787e-07
1.20968e-06
1.2098e-06
1.48135e-06
6.45777e-07
1.20968e-06
1.20979e-06
1.48139e-06
6.45767e-07
1.20968e-06
1.20979e-06
1.48136e-06
6.4576e-07
1.20967e-06
1.20979e-06
1.48131e-06
6.45756e-07
1.20968e-06
1.20979e-06
1.48133e-06
6.45758e-07
1.20968e-06
1.20979e-06
1.48132e-06
6.45768e-07
1.2097e-06
1.20981e-06
1.48131e-06
6.45768e-07
1.2097e-06
1.20982e-06
1.48132e-06
6.44484e-07
1.20863e-06
1.20874e-06
1.48074e-06
7.21961e-07
1.11193e-06
1.112e-06
1.42657e-06
5.06203e-07
5.05586e-07
5.05585e-07
5.06203e-07
5.05585e-07
5.05585e-07
5.05986e-07
5.05986e-07
5.05986e-07
5.05987e-07
5.05587e-07
5.05586e-07
5.06203e-07
5.05587e-07
5.05585e-07
5.06203e-07
4.99865e-07
4.67264e-07
4.99977e-07
4.99979e-07
4.6414e-07
4.64148e-07
4.99865e-07
4.67263e-07
4.99979e-07
4.99979e-07
4.64144e-07
4.64149e-07
4.99977e-07
4.64135e-07
4.6414e-07
4.99864e-07
4.67266e-07
4.99978e-07
4.64135e-07
4.64144e-07
4.67268e-07
4.63753e-07
4.41544e-07
4.54119e-07
4.54127e-07
4.27004e-07
4.27013e-07
4.63753e-07
4.41543e-07
4.54123e-07
4.54129e-07
4.27004e-07
4.27015e-07
4.5412e-07
4.26996e-07
4.27006e-07
4.63753e-07
4.41549e-07
4.54123e-07
4.26998e-07
4.27007e-07
4.41555e-07
4.39534e-07
4.19396e-07
4.18757e-07
4.18766e-07
3.95844e-07
3.95853e-07
4.39537e-07
4.19399e-07
4.18757e-07
4.18769e-07
3.95839e-07
3.95856e-07
4.18761e-07
3.95834e-07
3.9585e-07
4.39538e-07
4.19404e-07
4.1876e-07
3.95836e-07
3.95845e-07
4.19413e-07
4.17775e-07
3.9773e-07
3.88717e-07
3.88725e-07
3.68571e-07
3.68579e-07
4.17779e-07
3.97735e-07
3.88711e-07
3.88729e-07
3.68561e-07
3.68583e-07
3.88723e-07
3.68558e-07
3.68578e-07
4.17783e-07
3.97741e-07
3.88717e-07
3.68561e-07
3.68569e-07
3.97751e-07
3.96161e-07
3.76141e-07
3.62219e-07
3.62226e-07
3.44105e-07
3.44112e-07
3.96166e-07
3.76146e-07
3.62208e-07
3.6223e-07
3.44092e-07
3.44116e-07
3.62226e-07
3.44091e-07
3.44113e-07
3.96172e-07
3.76153e-07
3.62216e-07
3.44094e-07
3.441e-07
3.76164e-07
3.74632e-07
3.55142e-07
3.38358e-07
3.38364e-07
3.21922e-07
3.21928e-07
3.74637e-07
3.55148e-07
3.38344e-07
3.38368e-07
3.21906e-07
3.21932e-07
3.38366e-07
3.21907e-07
3.2193e-07
3.74644e-07
3.55155e-07
3.38353e-07
3.2191e-07
3.21915e-07
3.55166e-07
3.53736e-07
3.35407e-07
3.16703e-07
3.16708e-07
3.01795e-07
3.018e-07
3.53743e-07
3.35414e-07
3.16686e-07
3.16712e-07
3.01776e-07
3.01804e-07
3.16711e-07
3.01778e-07
3.01803e-07
3.53749e-07
3.35421e-07
3.16695e-07
3.01782e-07
3.01787e-07
3.35432e-07
3.34155e-07
3.17533e-07
2.97074e-07
2.97079e-07
2.83645e-07
2.8365e-07
3.34163e-07
3.1754e-07
2.97054e-07
2.97082e-07
2.83625e-07
2.83654e-07
2.97082e-07
2.83628e-07
2.83654e-07
3.3417e-07
3.17548e-07
2.97065e-07
2.83631e-07
2.83636e-07
3.17559e-07
3.1648e-07
3.01967e-07
2.79415e-07
2.7942e-07
2.67459e-07
2.67463e-07
3.16488e-07
3.01973e-07
2.79394e-07
2.79422e-07
2.67437e-07
2.67467e-07
2.79423e-07
2.6744e-07
2.67467e-07
3.16494e-07
3.01982e-07
2.79405e-07
2.67444e-07
2.67448e-07
3.01993e-07
3.01148e-07
2.89028e-07
2.6372e-07
2.63725e-07
2.53241e-07
2.53246e-07
3.01157e-07
2.89033e-07
2.63698e-07
2.63727e-07
2.53218e-07
2.53249e-07
2.63728e-07
2.53221e-07
2.53249e-07
3.01164e-07
2.89043e-07
2.63709e-07
2.53225e-07
2.53229e-07
2.89054e-07
2.88475e-07
2.78935e-07
2.49995e-07
2.5e-07
2.40994e-07
2.40999e-07
2.88484e-07
2.7894e-07
2.49972e-07
2.50003e-07
2.4097e-07
2.41003e-07
2.50003e-07
2.40973e-07
2.41001e-07
2.88491e-07
2.7895e-07
2.49983e-07
2.40976e-07
2.40981e-07
2.78962e-07
2.78675e-07
2.71813e-07
2.38242e-07
2.38247e-07
2.30716e-07
2.30723e-07
2.78684e-07
2.71821e-07
2.38217e-07
2.38249e-07
2.30691e-07
2.30726e-07
2.38249e-07
2.30694e-07
2.30724e-07
2.78691e-07
2.7183e-07
2.38229e-07
2.30697e-07
2.30703e-07
2.71843e-07
2.71854e-07
2.67846e-07
2.28458e-07
2.28465e-07
2.22415e-07
2.22423e-07
2.71865e-07
2.67856e-07
2.28432e-07
2.28467e-07
2.22388e-07
2.22427e-07
2.28465e-07
2.2239e-07
2.22423e-07
2.71872e-07
2.67865e-07
2.28444e-07
2.22394e-07
2.22402e-07
2.67879e-07
2.68139e-07
2.66965e-07
2.20653e-07
2.20661e-07
2.16097e-07
2.16107e-07
2.68152e-07
2.66976e-07
2.20626e-07
2.20664e-07
2.16069e-07
2.16111e-07
2.2066e-07
2.16069e-07
2.16104e-07
2.6816e-07
2.66987e-07
2.20639e-07
2.16073e-07
2.16083e-07
2.67002e-07
2.67618e-07
2.69137e-07
2.14833e-07
2.14845e-07
2.1177e-07
2.11787e-07
2.67633e-07
2.69152e-07
2.14805e-07
2.14847e-07
2.11744e-07
2.11789e-07
2.14841e-07
2.11742e-07
2.11778e-07
2.67642e-07
2.69163e-07
2.14819e-07
2.11747e-07
2.11759e-07
2.6918e-07
2.70466e-07
2.74644e-07
2.11006e-07
2.11026e-07
2.09443e-07
2.09468e-07
2.70484e-07
2.74662e-07
2.10982e-07
2.11027e-07
2.09419e-07
2.09468e-07
2.11016e-07
2.09415e-07
2.09452e-07
2.70494e-07
2.74674e-07
2.10998e-07
2.0942e-07
2.09437e-07
2.74693e-07
2.76667e-07
2.83526e-07
2.09186e-07
2.09212e-07
2.09161e-07
2.09191e-07
2.7669e-07
2.83547e-07
2.09163e-07
2.09212e-07
2.09137e-07
2.09191e-07
2.09196e-07
2.09131e-07
2.0917e-07
2.76699e-07
2.83559e-07
2.09181e-07
2.09137e-07
2.09157e-07
2.83581e-07
2.86249e-07
2.95788e-07
2.0939e-07
2.09421e-07
2.1089e-07
2.10925e-07
2.86278e-07
2.95813e-07
2.09366e-07
2.09421e-07
2.10864e-07
2.10925e-07
2.09399e-07
2.10855e-07
2.10898e-07
2.86285e-07
2.95825e-07
2.09386e-07
2.10861e-07
2.10886e-07
2.95848e-07
2.99191e-07
3.11465e-07
2.11658e-07
2.11693e-07
2.14715e-07
2.14759e-07
2.99221e-07
3.11492e-07
2.11632e-07
2.11693e-07
2.1469e-07
2.14757e-07
2.11666e-07
2.14678e-07
2.14725e-07
2.99231e-07
3.11507e-07
2.11654e-07
2.14685e-07
2.14715e-07
3.11533e-07
3.1556e-07
3.30518e-07
2.16005e-07
2.16047e-07
2.20646e-07
2.20691e-07
3.15586e-07
3.3054e-07
2.15979e-07
2.16048e-07
2.20617e-07
2.20692e-07
2.16015e-07
2.20602e-07
2.20655e-07
3.15603e-07
3.30562e-07
2.16005e-07
2.2061e-07
2.20646e-07
3.30591e-07
3.35304e-07
3.52854e-07
2.22461e-07
2.22503e-07
2.28694e-07
2.28736e-07
3.35321e-07
3.52873e-07
2.22429e-07
2.22506e-07
2.28658e-07
2.28741e-07
2.22468e-07
2.28639e-07
2.28699e-07
3.35344e-07
3.52899e-07
2.22458e-07
2.28649e-07
2.2869e-07
3.52933e-07
3.58313e-07
3.78321e-07
2.31035e-07
2.31077e-07
2.38849e-07
2.38889e-07
3.58327e-07
3.78337e-07
2.30998e-07
2.31083e-07
2.38807e-07
2.38899e-07
2.3104e-07
2.38784e-07
2.38852e-07
3.58355e-07
3.7837e-07
2.31029e-07
2.38796e-07
2.38842e-07
3.78407e-07
3.84427e-07
4.06685e-07
2.41716e-07
2.41755e-07
2.51096e-07
2.51136e-07
3.84438e-07
4.067e-07
2.41672e-07
2.41766e-07
2.51048e-07
2.51151e-07
2.41719e-07
2.51022e-07
2.511e-07
3.84472e-07
4.06739e-07
2.41707e-07
2.51036e-07
2.51087e-07
4.06779e-07
4.13392e-07
4.37624e-07
2.54481e-07
2.5452e-07
2.65397e-07
2.65436e-07
4.13402e-07
4.37639e-07
2.5443e-07
2.54536e-07
2.65342e-07
2.65456e-07
2.54484e-07
2.65314e-07
2.65401e-07
4.13442e-07
4.37683e-07
2.54469e-07
2.6533e-07
2.65385e-07
4.37727e-07
4.44873e-07
4.7076e-07
2.69286e-07
2.69326e-07
2.81691e-07
2.81731e-07
4.44882e-07
4.70774e-07
2.69229e-07
2.69347e-07
2.81628e-07
2.81755e-07
2.69291e-07
2.81598e-07
2.81697e-07
4.44927e-07
4.70824e-07
2.69272e-07
2.81617e-07
2.81676e-07
4.70872e-07
4.78481e-07
5.05673e-07
2.86067e-07
2.86107e-07
2.99898e-07
2.99937e-07
4.7849e-07
5.05687e-07
2.86002e-07
2.86132e-07
2.99826e-07
2.99966e-07
2.86074e-07
2.99795e-07
2.99905e-07
4.7854e-07
5.05742e-07
2.8605e-07
2.99818e-07
2.99879e-07
5.05795e-07
5.13789e-07
5.41923e-07
3.04736e-07
3.04777e-07
3.19916e-07
3.19956e-07
5.13797e-07
5.41936e-07
3.04663e-07
3.04807e-07
3.19835e-07
3.19989e-07
3.04746e-07
3.19803e-07
3.19927e-07
5.13853e-07
5.41996e-07
3.04715e-07
3.19831e-07
3.19893e-07
5.42053e-07
5.50351e-07
5.79063e-07
3.2519e-07
3.25231e-07
3.41631e-07
3.41669e-07
5.50358e-07
5.79075e-07
3.25108e-07
3.25265e-07
3.41539e-07
3.41707e-07
3.25203e-07
3.41507e-07
3.41645e-07
5.50419e-07
5.79141e-07
3.25164e-07
3.4154e-07
3.41602e-07
5.79202e-07
5.87721e-07
6.16669e-07
3.47307e-07
3.47348e-07
3.64909e-07
3.64945e-07
5.87727e-07
6.16681e-07
3.47215e-07
3.47386e-07
3.64806e-07
3.64988e-07
3.47325e-07
3.64775e-07
3.64926e-07
5.87793e-07
6.16752e-07
3.47276e-07
3.64813e-07
3.64873e-07
6.16816e-07
6.25477e-07
6.54355e-07
3.70953e-07
3.70992e-07
3.89607e-07
3.8964e-07
6.25482e-07
6.54367e-07
3.7085e-07
3.71036e-07
3.89491e-07
3.89687e-07
3.70976e-07
3.89463e-07
3.89628e-07
6.25553e-07
6.54442e-07
3.70916e-07
3.89506e-07
3.89563e-07
6.54509e-07
6.63239e-07
6.91782e-07
3.95979e-07
3.96018e-07
4.15569e-07
4.15599e-07
6.63244e-07
6.91793e-07
3.95867e-07
3.96066e-07
4.15441e-07
4.1565e-07
3.96008e-07
4.15415e-07
4.15595e-07
6.63319e-07
6.91873e-07
3.95937e-07
4.15464e-07
4.15517e-07
6.91942e-07
7.00676e-07
7.28669e-07
4.2223e-07
4.22268e-07
4.4263e-07
4.42657e-07
7.0068e-07
7.2868e-07
4.22107e-07
4.2232e-07
4.42491e-07
4.42713e-07
4.22266e-07
4.42469e-07
4.42662e-07
7.0076e-07
7.28763e-07
4.22182e-07
4.42524e-07
4.42572e-07
7.28834e-07
7.37518e-07
7.64794e-07
4.49541e-07
4.49575e-07
4.70623e-07
4.70647e-07
7.37521e-07
7.64805e-07
4.49407e-07
4.49631e-07
4.70473e-07
4.70707e-07
4.49583e-07
4.70455e-07
4.70661e-07
7.37603e-07
7.6489e-07
4.49485e-07
4.70516e-07
4.70558e-07
7.64962e-07
7.7355e-07
7.99989e-07
4.77739e-07
4.7777e-07
4.99373e-07
4.99392e-07
7.73553e-07
7.99999e-07
4.77594e-07
4.7783e-07
4.99212e-07
4.99458e-07
4.77788e-07
4.99199e-07
4.99417e-07
7.73637e-07
8.00086e-07
4.77677e-07
4.99266e-07
4.99301e-07
8.0016e-07
8.08614e-07
8.34122e-07
5.0665e-07
5.06677e-07
5.28702e-07
5.28717e-07
8.08616e-07
8.34132e-07
5.06495e-07
5.0674e-07
5.28531e-07
5.28787e-07
5.06705e-07
5.28523e-07
5.28753e-07
8.08702e-07
8.34221e-07
5.06581e-07
5.28597e-07
5.28624e-07
8.34297e-07
8.42559e-07
8.67135e-07
5.36096e-07
5.36118e-07
5.58435e-07
5.58444e-07
8.42563e-07
8.67143e-07
5.35932e-07
5.36185e-07
5.58255e-07
5.5852e-07
5.36158e-07
5.58251e-07
5.58492e-07
8.42651e-07
8.67234e-07
5.36021e-07
5.58332e-07
5.58351e-07
8.67308e-07
8.75366e-07
8.98982e-07
5.65903e-07
5.65919e-07
5.88397e-07
5.88401e-07
8.75368e-07
8.98988e-07
5.65729e-07
5.65989e-07
5.88209e-07
5.88482e-07
5.65971e-07
5.88209e-07
5.8846e-07
8.75458e-07
8.99081e-07
5.65822e-07
5.88298e-07
5.88307e-07
8.99154e-07
9.06992e-07
9.29635e-07
5.95896e-07
5.95906e-07
6.18418e-07
6.18417e-07
9.06991e-07
9.29638e-07
5.95714e-07
5.9598e-07
6.18224e-07
6.18502e-07
5.9597e-07
6.18228e-07
6.18487e-07
9.07083e-07
9.29733e-07
5.95809e-07
6.18323e-07
6.18324e-07
9.29805e-07
9.37413e-07
9.59085e-07
6.25907e-07
6.2591e-07
6.48335e-07
6.4833e-07
9.37411e-07
9.59086e-07
6.25718e-07
6.2599e-07
6.48136e-07
6.48417e-07
6.25986e-07
6.48144e-07
6.4841e-07
9.37505e-07
9.59184e-07
6.25815e-07
6.48247e-07
6.48238e-07
9.59254e-07
9.66625e-07
9.87335e-07
6.55777e-07
6.55771e-07
6.77999e-07
6.77983e-07
9.66621e-07
9.87333e-07
6.5558e-07
6.55856e-07
6.77792e-07
6.78075e-07
6.55858e-07
6.77804e-07
6.78077e-07
9.66718e-07
9.87433e-07
6.55679e-07
6.77914e-07
6.77896e-07
9.87501e-07
9.94629e-07
1.0144e-06
6.85356e-07
6.85342e-07
7.07264e-07
7.07245e-07
9.94626e-07
1.01439e-06
6.8515e-07
6.8543e-07
7.07055e-07
7.07338e-07
6.85438e-07
7.07071e-07
7.07348e-07
9.94726e-07
1.0145e-06
6.8525e-07
7.07188e-07
7.0716e-07
1.01456e-06
1.02145e-06
1.0403e-06
7.14503e-07
7.14486e-07
7.36008e-07
7.35988e-07
1.02145e-06
1.0403e-06
7.14294e-07
7.14578e-07
7.35799e-07
7.36083e-07
7.1459e-07
7.3582e-07
7.36098e-07
1.02155e-06
1.0404e-06
7.14396e-07
7.35942e-07
7.35906e-07
1.04046e-06
1.04711e-06
1.06508e-06
7.431e-07
7.4308e-07
7.64121e-07
7.64097e-07
1.04711e-06
1.06507e-06
7.42891e-07
7.43175e-07
7.63912e-07
7.64196e-07
7.43193e-07
7.63937e-07
7.64216e-07
1.04721e-06
1.06518e-06
7.42993e-07
7.64064e-07
7.64019e-07
1.06524e-06
1.07166e-06
1.08876e-06
7.71039e-07
7.71015e-07
7.91504e-07
7.91474e-07
1.07165e-06
1.08875e-06
7.70829e-07
7.71113e-07
7.91294e-07
7.91576e-07
7.71136e-07
7.91322e-07
7.91601e-07
1.07176e-06
1.08886e-06
7.70933e-07
7.91454e-07
7.91401e-07
1.08892e-06
1.09511e-06
1.11138e-06
7.98226e-07
7.98194e-07
8.18072e-07
8.18033e-07
1.09511e-06
1.11137e-06
7.98015e-07
7.98296e-07
8.1786e-07
8.18139e-07
7.98324e-07
8.17892e-07
8.18169e-07
1.09521e-06
1.11148e-06
7.98118e-07
8.18027e-07
8.17967e-07
1.11154e-06
1.11751e-06
1.13297e-06
8.24578e-07
8.24538e-07
8.43754e-07
8.43707e-07
1.1175e-06
1.13296e-06
8.24365e-07
8.24644e-07
8.43541e-07
8.43817e-07
8.24676e-07
8.43577e-07
8.43851e-07
1.11761e-06
1.13307e-06
8.24469e-07
8.43715e-07
8.43648e-07
1.13312e-06
1.13888e-06
1.15355e-06
8.5003e-07
8.49981e-07
8.68498e-07
8.68442e-07
1.13887e-06
1.15354e-06
8.49817e-07
8.50092e-07
8.68284e-07
8.68556e-07
8.50128e-07
8.68324e-07
8.68594e-07
1.13898e-06
1.15365e-06
8.4992e-07
8.68464e-07
8.6839e-07
1.15371e-06
1.15925e-06
1.17316e-06
8.74533e-07
8.74475e-07
8.92264e-07
8.92199e-07
1.15924e-06
1.17315e-06
8.74319e-07
8.7459e-07
8.92049e-07
8.92317e-07
8.74629e-07
8.92093e-07
8.92357e-07
1.15935e-06
1.17326e-06
8.74421e-07
8.92233e-07
8.92154e-07
1.17331e-06
1.17866e-06
1.19183e-06
8.98049e-07
8.97983e-07
9.15024e-07
9.14951e-07
1.17865e-06
1.19182e-06
8.97835e-07
8.98101e-07
9.14809e-07
9.15072e-07
8.98144e-07
9.14855e-07
9.15115e-07
1.17876e-06
1.19193e-06
8.97936e-07
9.14997e-07
9.14912e-07
1.19198e-06
1.19713e-06
1.20958e-06
9.20555e-07
9.20482e-07
9.36763e-07
9.36684e-07
1.19712e-06
1.20956e-06
9.2034e-07
9.20602e-07
9.36549e-07
9.36807e-07
9.20647e-07
9.36598e-07
9.36852e-07
1.19722e-06
1.20967e-06
9.2044e-07
9.3674e-07
9.3665e-07
1.20973e-06
1.21469e-06
1.22644e-06
9.42038e-07
9.41958e-07
9.57476e-07
9.5739e-07
1.21467e-06
1.22642e-06
9.41824e-07
9.4208e-07
9.57262e-07
9.57515e-07
9.42128e-07
9.57314e-07
9.57563e-07
1.21478e-06
1.22653e-06
9.41922e-07
9.57456e-07
9.57362e-07
1.22658e-06
1.23136e-06
1.24244e-06
9.62497e-07
9.6241e-07
9.77179e-07
9.77088e-07
1.23135e-06
1.24243e-06
9.62282e-07
9.62534e-07
9.76965e-07
9.77214e-07
9.62584e-07
9.7702e-07
9.77263e-07
1.23146e-06
1.24253e-06
9.62379e-07
9.77161e-07
9.77063e-07
1.24258e-06
1.24719e-06
1.25761e-06
9.81949e-07
9.81857e-07
9.9588e-07
9.95783e-07
1.24717e-06
1.25759e-06
9.81735e-07
9.81982e-07
9.95667e-07
9.9591e-07
9.82033e-07
9.95723e-07
9.95961e-07
1.24728e-06
1.2577e-06
9.8183e-07
9.95864e-07
9.95762e-07
1.25775e-06
1.26218e-06
1.27198e-06
1.0004e-06
1.0003e-06
1.01358e-06
1.01348e-06
1.26217e-06
1.27196e-06
1.00019e-06
1.00043e-06
1.01337e-06
1.01361e-06
1.00048e-06
1.01343e-06
1.01366e-06
1.26228e-06
1.27207e-06
1.00028e-06
1.01357e-06
1.01346e-06
1.27211e-06
1.27638e-06
1.28556e-06
1.01786e-06
1.01776e-06
1.0303e-06
1.0302e-06
1.27637e-06
1.28554e-06
1.01764e-06
1.01788e-06
1.03009e-06
1.03033e-06
1.01793e-06
1.03015e-06
1.03038e-06
1.27647e-06
1.28565e-06
1.01773e-06
1.03029e-06
1.03018e-06
1.2857e-06
1.28981e-06
1.29839e-06
1.03433e-06
1.03423e-06
1.04606e-06
1.04595e-06
1.28979e-06
1.29837e-06
1.03412e-06
1.03436e-06
1.04585e-06
1.04608e-06
1.03441e-06
1.04591e-06
1.04613e-06
1.2899e-06
1.29848e-06
1.03421e-06
1.04605e-06
1.04594e-06
1.29852e-06
1.30248e-06
1.31048e-06
1.04985e-06
1.04974e-06
1.06087e-06
1.06076e-06
1.30246e-06
1.31046e-06
1.04964e-06
1.04987e-06
1.06066e-06
1.06088e-06
1.04992e-06
1.06073e-06
1.06094e-06
1.30257e-06
1.31057e-06
1.04973e-06
1.06086e-06
1.06074e-06
1.31061e-06
1.31443e-06
1.32187e-06
1.06443e-06
1.06432e-06
1.07475e-06
1.07464e-06
1.31441e-06
1.32185e-06
1.06422e-06
1.06444e-06
1.07454e-06
1.07476e-06
1.0645e-06
1.07461e-06
1.07481e-06
1.31451e-06
1.32195e-06
1.0643e-06
1.07474e-06
1.07462e-06
1.32199e-06
1.32567e-06
1.33256e-06
1.07808e-06
1.07796e-06
1.08771e-06
1.0876e-06
1.32565e-06
1.33254e-06
1.07787e-06
1.07809e-06
1.08751e-06
1.08773e-06
1.07814e-06
1.08758e-06
1.08778e-06
1.32575e-06
1.33264e-06
1.07795e-06
1.0877e-06
1.08759e-06
1.33269e-06
1.33622e-06
1.34257e-06
1.09082e-06
1.0907e-06
1.09977e-06
1.09965e-06
1.33621e-06
1.34255e-06
1.09061e-06
1.09082e-06
1.09956e-06
1.09977e-06
1.09088e-06
1.09964e-06
1.09983e-06
1.3363e-06
1.34265e-06
1.09069e-06
1.09976e-06
1.09964e-06
1.34269e-06
1.3461e-06
1.35204e-06
1.10264e-06
1.10253e-06
1.11097e-06
1.11086e-06
1.34609e-06
1.35202e-06
1.10244e-06
1.10265e-06
1.11077e-06
1.11098e-06
1.10271e-06
1.11084e-06
1.11103e-06
1.34618e-06
1.35212e-06
1.10252e-06
1.11096e-06
1.11084e-06
1.35216e-06
1.35546e-06
1.36082e-06
1.11364e-06
1.11353e-06
1.12128e-06
1.12116e-06
1.35545e-06
1.3608e-06
1.11344e-06
1.11365e-06
1.12108e-06
1.12128e-06
1.1137e-06
1.12115e-06
1.12134e-06
1.35554e-06
1.36089e-06
1.11352e-06
1.12127e-06
1.12115e-06
1.36093e-06
1.3641e-06
1.36922e-06
1.12371e-06
1.1236e-06
1.13078e-06
1.13066e-06
1.36408e-06
1.3692e-06
1.12351e-06
1.12371e-06
1.13058e-06
1.13078e-06
1.12377e-06
1.13065e-06
1.13083e-06
1.36417e-06
1.36929e-06
1.12358e-06
1.13077e-06
1.13065e-06
1.36933e-06
1.3725e-06
1.37727e-06
1.13307e-06
1.13295e-06
1.13956e-06
1.13945e-06
1.37248e-06
1.37725e-06
1.13287e-06
1.13307e-06
1.13937e-06
1.13957e-06
1.13312e-06
1.13944e-06
1.13962e-06
1.37257e-06
1.37735e-06
1.13294e-06
1.13956e-06
1.13944e-06
1.37739e-06
1.38037e-06
1.38483e-06
1.14159e-06
1.14148e-06
1.14746e-06
1.14735e-06
1.38036e-06
1.38482e-06
1.14139e-06
1.1416e-06
1.14726e-06
1.14746e-06
1.14165e-06
1.14734e-06
1.14751e-06
1.38045e-06
1.3849e-06
1.14147e-06
1.14745e-06
1.14733e-06
1.38494e-06
1.38799e-06
1.39211e-06
1.14936e-06
1.14925e-06
1.15455e-06
1.15444e-06
1.38799e-06
1.39209e-06
1.14916e-06
1.14937e-06
1.15435e-06
1.15456e-06
1.14942e-06
1.15444e-06
1.15461e-06
1.38807e-06
1.39218e-06
1.14923e-06
1.15455e-06
1.15443e-06
1.39221e-06
1.39483e-06
1.3964e-06
1.15599e-06
1.15587e-06
1.15958e-06
1.15946e-06
1.39481e-06
1.39636e-06
1.15579e-06
1.156e-06
1.15939e-06
1.1596e-06
1.15604e-06
1.15945e-06
1.15963e-06
1.3949e-06
1.39648e-06
1.15586e-06
1.15958e-06
1.15946e-06
1.3965e-06
1.39883e-06
1.40196e-06
1.16071e-06
1.16059e-06
1.16474e-06
1.16463e-06
1.39879e-06
1.40194e-06
1.16052e-06
1.16073e-06
1.16454e-06
1.16475e-06
1.16076e-06
1.16462e-06
1.16479e-06
1.39891e-06
1.40203e-06
1.16059e-06
1.16472e-06
1.16461e-06
1.40206e-06
1.40555e-06
1.41508e-06
1.16652e-06
1.16641e-06
1.17329e-06
1.17319e-06
1.40553e-06
1.41507e-06
1.16632e-06
1.16652e-06
1.17309e-06
1.17329e-06
1.16657e-06
1.17317e-06
1.17334e-06
1.4056e-06
1.41513e-06
1.16639e-06
1.17327e-06
1.17316e-06
1.41518e-06
1.42007e-06
1.4338e-06
1.17597e-06
1.17587e-06
1.18458e-06
1.18448e-06
1.42006e-06
1.43378e-06
1.17577e-06
1.17597e-06
1.18439e-06
1.1846e-06
1.17602e-06
1.18445e-06
1.18464e-06
1.42013e-06
1.43387e-06
1.17584e-06
1.18457e-06
1.18446e-06
1.43391e-06
1.43911e-06
1.45146e-06
1.18738e-06
1.18727e-06
1.19485e-06
1.19474e-06
1.43909e-06
1.45143e-06
1.18718e-06
1.18739e-06
1.19465e-06
1.19486e-06
1.18743e-06
1.19471e-06
1.19491e-06
1.43918e-06
1.45153e-06
1.18726e-06
1.19483e-06
1.19473e-06
1.45158e-06
1.45611e-06
1.46475e-06
1.19699e-06
1.19687e-06
1.20223e-06
1.20212e-06
1.45608e-06
1.46472e-06
1.19679e-06
1.197e-06
1.20203e-06
1.20225e-06
1.19704e-06
1.20209e-06
1.20228e-06
1.45619e-06
1.46483e-06
1.19687e-06
1.20221e-06
1.20211e-06
1.46486e-06
1.46851e-06
1.47309e-06
1.20361e-06
1.2035e-06
1.20668e-06
1.20658e-06
1.46849e-06
1.47308e-06
1.20341e-06
1.20363e-06
1.20648e-06
1.2067e-06
1.20366e-06
1.20656e-06
1.20673e-06
1.46859e-06
1.47316e-06
1.20348e-06
1.20666e-06
1.20656e-06
1.4732e-06
1.47596e-06
1.47697e-06
1.20738e-06
1.20729e-06
1.2087e-06
1.2086e-06
1.47595e-06
1.47696e-06
1.20718e-06
1.2074e-06
1.2085e-06
1.20871e-06
1.20744e-06
1.20857e-06
1.20875e-06
1.47603e-06
1.47704e-06
1.20726e-06
1.20868e-06
1.20857e-06
1.47708e-06
1.47919e-06
1.47819e-06
1.20894e-06
1.20884e-06
1.20933e-06
1.20923e-06
1.47918e-06
1.47818e-06
1.20874e-06
1.20895e-06
1.20913e-06
1.20934e-06
1.20899e-06
1.2092e-06
1.20938e-06
1.47926e-06
1.47827e-06
1.20881e-06
1.20931e-06
1.2092e-06
1.47831e-06
1.48023e-06
1.47871e-06
1.2094e-06
1.2093e-06
1.20957e-06
1.20947e-06
1.48022e-06
1.47871e-06
1.2092e-06
1.20941e-06
1.20937e-06
1.20959e-06
1.20945e-06
1.20944e-06
1.20962e-06
1.4803e-06
1.47879e-06
1.20927e-06
1.20955e-06
1.20944e-06
1.47882e-06
1.48072e-06
1.47906e-06
1.20962e-06
1.20953e-06
1.20975e-06
1.20966e-06
1.48073e-06
1.47907e-06
1.20942e-06
1.20964e-06
1.20955e-06
1.20977e-06
1.20968e-06
1.20962e-06
1.20981e-06
1.48081e-06
1.47914e-06
1.2095e-06
1.20973e-06
1.20963e-06
1.47917e-06
1.48107e-06
1.47921e-06
1.20978e-06
1.20969e-06
1.20984e-06
1.20974e-06
1.48108e-06
1.47921e-06
1.20958e-06
1.2098e-06
1.20964e-06
1.20985e-06
1.20984e-06
1.2097e-06
1.2099e-06
1.48115e-06
1.47928e-06
1.20966e-06
1.20981e-06
1.20971e-06
1.47932e-06
1.4812e-06
1.47929e-06
1.20985e-06
1.20975e-06
1.20987e-06
1.20977e-06
1.4812e-06
1.47927e-06
1.20965e-06
1.20987e-06
1.20967e-06
1.20989e-06
1.20991e-06
1.20973e-06
1.20993e-06
1.48127e-06
1.47935e-06
1.20972e-06
1.20984e-06
1.20975e-06
1.47941e-06
1.48125e-06
1.47935e-06
1.20988e-06
1.20978e-06
1.20989e-06
1.20979e-06
1.48124e-06
1.47933e-06
1.20968e-06
1.20989e-06
1.20969e-06
1.2099e-06
1.20993e-06
1.20973e-06
1.20994e-06
1.48132e-06
1.47942e-06
1.20975e-06
1.20984e-06
1.20976e-06
1.47947e-06
1.4813e-06
1.47934e-06
1.20988e-06
1.20978e-06
1.20987e-06
1.20977e-06
1.48128e-06
1.47932e-06
1.20968e-06
1.2099e-06
1.20967e-06
1.20989e-06
1.20993e-06
1.20972e-06
1.20992e-06
1.48137e-06
1.4794e-06
1.20975e-06
1.20983e-06
1.20974e-06
1.47944e-06
1.4813e-06
1.47931e-06
1.20987e-06
1.20977e-06
1.20987e-06
1.20977e-06
1.48128e-06
1.47931e-06
1.20967e-06
1.20988e-06
1.20967e-06
1.20988e-06
1.20992e-06
1.20971e-06
1.20992e-06
1.48137e-06
1.47938e-06
1.20974e-06
1.20982e-06
1.20974e-06
1.47941e-06
1.4813e-06
1.47924e-06
1.20987e-06
1.20977e-06
1.20985e-06
1.20976e-06
1.4813e-06
1.47924e-06
1.20967e-06
1.20988e-06
1.20965e-06
1.20987e-06
1.20992e-06
1.2097e-06
1.20991e-06
1.48137e-06
1.47932e-06
1.20974e-06
1.2098e-06
1.20972e-06
1.47936e-06
1.48123e-06
1.47926e-06
1.20985e-06
1.20976e-06
1.20985e-06
1.20975e-06
1.48122e-06
1.47925e-06
1.20965e-06
1.20987e-06
1.20965e-06
1.20986e-06
1.20991e-06
1.20969e-06
1.2099e-06
1.48129e-06
1.47933e-06
1.20972e-06
1.2098e-06
1.20972e-06
1.47939e-06
1.48121e-06
1.47929e-06
1.20985e-06
1.20975e-06
1.20983e-06
1.20973e-06
1.4812e-06
1.47926e-06
1.20965e-06
1.20986e-06
1.20963e-06
1.20985e-06
1.2099e-06
1.20968e-06
1.20989e-06
1.48128e-06
1.47935e-06
1.20972e-06
1.20979e-06
1.2097e-06
1.47941e-06
1.48122e-06
1.47933e-06
1.20983e-06
1.20973e-06
1.20982e-06
1.20973e-06
1.4812e-06
1.47931e-06
1.20963e-06
1.20985e-06
1.20962e-06
1.20984e-06
1.20989e-06
1.20967e-06
1.20988e-06
1.48129e-06
1.47939e-06
1.2097e-06
1.20978e-06
1.2097e-06
1.47942e-06
1.48127e-06
1.47928e-06
1.20982e-06
1.20973e-06
1.20981e-06
1.20971e-06
1.48125e-06
1.47926e-06
1.20962e-06
1.20984e-06
1.20961e-06
1.20983e-06
1.20988e-06
1.20966e-06
1.20986e-06
1.48134e-06
1.47935e-06
1.2097e-06
1.20977e-06
1.20968e-06
1.47936e-06
1.48126e-06
1.47922e-06
1.20981e-06
1.20972e-06
1.20979e-06
1.2097e-06
1.48124e-06
1.47921e-06
1.20961e-06
1.20983e-06
1.20959e-06
1.20981e-06
1.20987e-06
1.20965e-06
1.20985e-06
1.48133e-06
1.4793e-06
1.20969e-06
1.20976e-06
1.20967e-06
1.47934e-06
1.4812e-06
1.47924e-06
1.2098e-06
1.20971e-06
1.20978e-06
1.20969e-06
1.48118e-06
1.47923e-06
1.2096e-06
1.20982e-06
1.20958e-06
1.2098e-06
1.20986e-06
1.20964e-06
1.20984e-06
1.48127e-06
1.47932e-06
1.20968e-06
1.20975e-06
1.20966e-06
1.47936e-06
1.4812e-06
1.47924e-06
1.2098e-06
1.20971e-06
1.20976e-06
1.20968e-06
1.4812e-06
1.47924e-06
1.2096e-06
1.20982e-06
1.20956e-06
1.20979e-06
1.20986e-06
1.20963e-06
1.20983e-06
1.48128e-06
1.47932e-06
1.20968e-06
1.20974e-06
1.20964e-06
1.47934e-06
1.48121e-06
1.47923e-06
1.2098e-06
1.20971e-06
1.20975e-06
1.20967e-06
1.48121e-06
1.47922e-06
1.2096e-06
1.20982e-06
1.20955e-06
1.20978e-06
1.20986e-06
1.20963e-06
1.20982e-06
1.48129e-06
1.4793e-06
1.20968e-06
1.20974e-06
1.20964e-06
1.47935e-06
1.4812e-06
1.47924e-06
1.20981e-06
1.20972e-06
1.20974e-06
1.20966e-06
1.48119e-06
1.47925e-06
1.20961e-06
1.20984e-06
1.20954e-06
1.20976e-06
1.20988e-06
1.20961e-06
1.2098e-06
1.48127e-06
1.47932e-06
1.2097e-06
1.20973e-06
1.20963e-06
1.47938e-06
1.48119e-06
1.47897e-06
1.20982e-06
1.20973e-06
1.20945e-06
1.20936e-06
1.48118e-06
1.47898e-06
1.20962e-06
1.20984e-06
1.20922e-06
1.20947e-06
1.20988e-06
1.2093e-06
1.20952e-06
1.48126e-06
1.47905e-06
1.2097e-06
1.20941e-06
1.20931e-06
1.4791e-06
1.4806e-06
1.44943e-06
1.20873e-06
1.20863e-06
1.13869e-06
1.13861e-06
1.48061e-06
1.44943e-06
1.20856e-06
1.20873e-06
1.13863e-06
1.13868e-06
1.20877e-06
1.13871e-06
1.13873e-06
1.48068e-06
1.44947e-06
1.20863e-06
1.13878e-06
1.13868e-06
1.4495e-06
1.42646e-06
1.11188e-06
1.1118e-06
1.42648e-06
1.11182e-06
1.11187e-06
7.21966e-07
7.22045e-07
7.22034e-07
1.11193e-06
1.42653e-06
1.1119e-06
5.35653e-07
5.35523e-07
5.35636e-07
5.35636e-07
5.34569e-07
5.35437e-07
5.33636e-07
5.35608e-07
5.34569e-07
5.35437e-07
5.35608e-07
5.33635e-07
5.35196e-07
5.35984e-07
5.35983e-07
1.10752e-06
3.87706e-06
9.31517e-07
4.60281e-06
1.25997e-05
1.65964e-05
1.10795e-06
3.87738e-06
9.31279e-07
4.60373e-06
4.9917e-07
4.9917e-07
4.9917e-07
4.57218e-07
4.57218e-07
4.57218e-07
4.57218e-07
5.43021e-07
1.21905e-06
4.99137e-07
4.86017e-07
5.24982e-07
1.20925e-06
4.82349e-07
1.26009e-05
1.65978e-05
5.43028e-07
4.99137e-07
1.21903e-06
4.86017e-07
5.2498e-07
4.82349e-07
1.20923e-06
2.51859e-06
2.51919e-06
4.84044e-07
2.37583e-06
2.37655e-06
1.43236e-06
5.59145e-06
1.33113e-06
6.13443e-06
2.12857e-05
2.31129e-05
1.43272e-06
5.59222e-06
1.33093e-06
6.13568e-06
4.45574e-07
4.45575e-07
4.45575e-07
4.13574e-07