/*--------------------------------*- C++ -*----------------------------------*\
| =========                 |                                                 |
| \\      /  F ield         | OpenFOAM: The Open Source CFD Toolbox           |
|  \\    /   O peration     | Version:                                        |
|   \\  /    A nd           | Website:  www.openfoam.com                      |
|    \\/     M anipulation  |                                                 |
\*---------------------------------------------------------------------------*/
FoamFile
{
    version     2.0;
    format      ascii;
    class       volScalarField;
    location    "300";
    object      k;
}
// * * * * * * * * * * * * * * * * * * * * * * * * * * * * * * * * * * * * * //

dimensions      [0 2 -2 0 0 0 0];


internalField   nonuniform List<scalar> 
172512
(
3.60232e-05
3.60198e-05
3.60198e-05
3.60083e-05
3.39295e-05
3.38866e-05
3.38866e-05
3.39613e-05
3.21573e-05
3.20054e-05
3.20054e-05
3.19506e-05
3.05337e-05
3.02265e-05
3.02264e-05
2.99865e-05
2.90316e-05
2.85512e-05
2.85511e-05
2.81205e-05
2.76339e-05
2.69845e-05
2.69844e-05
2.63886e-05
2.63292e-05
2.55284e-05
2.55283e-05
2.48054e-05
2.51095e-05
2.41824e-05
2.41823e-05
2.33766e-05
2.39692e-05
2.29482e-05
2.29481e-05
2.21035e-05
2.2904e-05
2.18246e-05
2.18245e-05
2.09852e-05
2.19103e-05
2.08093e-05
2.08091e-05
2.0013e-05
2.09848e-05
1.98994e-05
1.98992e-05
1.91813e-05
2.01224e-05
1.90929e-05
1.90928e-05
1.84898e-05
1.93222e-05
1.83869e-05
1.83868e-05
1.79337e-05
1.85831e-05
1.77779e-05
1.77778e-05
1.75073e-05
1.79026e-05
1.72644e-05
1.72644e-05
1.72015e-05
1.72783e-05
1.68456e-05
1.68455e-05
1.7024e-05
1.67082e-05
1.65204e-05
1.65203e-05
1.69835e-05
1.61909e-05
1.62889e-05
1.62889e-05
1.70807e-05
1.5724e-05
1.61512e-05
1.61513e-05
1.73056e-05
1.53059e-05
1.61069e-05
1.61071e-05
1.76586e-05
1.4936e-05
1.61532e-05
1.61533e-05
1.81355e-05
1.46132e-05
1.62917e-05
1.62919e-05
1.87297e-05
1.43368e-05
1.65198e-05
1.65202e-05
1.94286e-05
1.41066e-05
1.68352e-05
1.68356e-05
2.02207e-05
1.3922e-05
1.72348e-05
1.72354e-05
2.10937e-05
1.37829e-05
1.7715e-05
1.77158e-05
2.20343e-05
1.36891e-05
1.82718e-05
1.82727e-05
2.30282e-05
1.36406e-05
1.89007e-05
1.89018e-05
2.40618e-05
1.36373e-05
1.95966e-05
1.95978e-05
2.51221e-05
1.36795e-05
2.0354e-05
2.03555e-05
2.61975e-05
1.37678e-05
2.11673e-05
2.1169e-05
2.72781e-05
1.39022e-05
2.20303e-05
2.20321e-05
2.83558e-05
1.40831e-05
2.29366e-05
2.29386e-05
2.94243e-05
1.43106e-05
2.38798e-05
2.3882e-05
3.04786e-05
1.45847e-05
2.48535e-05
2.4856e-05
3.15153e-05
1.49054e-05
2.58515e-05
2.58541e-05
3.25317e-05
1.52722e-05
2.68673e-05
2.68702e-05
3.35263e-05
1.56847e-05
2.78948e-05
2.78979e-05
3.44975e-05
1.61419e-05
2.89284e-05
2.89317e-05
3.54446e-05
1.66426e-05
2.99631e-05
2.99666e-05
3.63665e-05
1.71853e-05
3.09949e-05
3.09986e-05
3.72632e-05
1.77682e-05
3.2019e-05
3.20229e-05
3.8135e-05
1.8389e-05
3.30312e-05
3.30352e-05
3.89819e-05
1.9045e-05
3.40277e-05
3.40319e-05
3.98039e-05
1.97333e-05
3.50055e-05
3.50097e-05
4.06009e-05
2.04506e-05
3.5962e-05
3.59663e-05
4.13732e-05
2.11934e-05
3.6895e-05
3.68993e-05
4.21207e-05
2.19579e-05
3.78029e-05
3.78073e-05
4.28435e-05
2.27402e-05
3.86843e-05
3.86887e-05
4.35416e-05
2.35366e-05
3.95384e-05
3.95428e-05
4.42156e-05
2.4343e-05
4.03644e-05
4.03688e-05
4.48654e-05
2.51557e-05
4.11618e-05
4.11662e-05
4.54913e-05
2.59711e-05
4.19305e-05
4.19349e-05
4.60937e-05
2.67853e-05
4.26699e-05
4.26743e-05
4.66728e-05
2.75954e-05
4.33807e-05
4.3385e-05
4.7229e-05
2.8398e-05
4.40625e-05
4.40669e-05
4.77628e-05
2.91904e-05
4.47154e-05
4.47199e-05
4.82736e-05
2.99703e-05
4.53412e-05
4.53453e-05
4.87632e-05
3.07357e-05
4.59386e-05
4.59434e-05
4.92334e-05
3.14866e-05
4.65104e-05
4.65144e-05
4.96766e-05
3.22138e-05
4.70458e-05
4.70497e-05
5.00969e-05
3.294e-05
4.75849e-05
4.75892e-05
5.0521e-05
3.36177e-05
4.80248e-05
4.80282e-05
5.08311e-05
3.4316e-05
4.85521e-05
4.85566e-05
5.12743e-05
3.49697e-05
4.89416e-05
4.89459e-05
5.1523e-05
3.56572e-05
4.95117e-05
4.95091e-05
5.20794e-05
3.61892e-05
4.96263e-05
4.96303e-05
5.21256e-05
3.62611e-05
4.8999e-05
4.90065e-05
5.1044e-05
3.6471e-05
4.87555e-05
4.87571e-05
5.04325e-05
3.77132e-05
4.99216e-05
4.99233e-05
5.15686e-05
3.97965e-05
5.19495e-05
5.19546e-05
5.36523e-05
4.19417e-05
5.39052e-05
5.39123e-05
5.56711e-05
4.36298e-05
5.54198e-05
5.54249e-05
5.72755e-05
4.47165e-05
5.63428e-05
5.63453e-05
5.82455e-05
4.52536e-05
5.67114e-05
5.67149e-05
5.85863e-05
4.54136e-05
5.67957e-05
5.67996e-05
5.86653e-05
4.54914e-05
5.68622e-05
5.68656e-05
5.87278e-05
4.55479e-05
5.6909e-05
5.69117e-05
5.87748e-05
4.5573e-05
5.69244e-05
5.6927e-05
5.87938e-05
4.55887e-05
5.69376e-05
5.69413e-05
5.88049e-05
4.55878e-05
5.69336e-05
5.69379e-05
5.88068e-05
4.55869e-05
5.69353e-05
5.69393e-05
5.8802e-05
4.55859e-05
5.6934e-05
5.69368e-05
5.88038e-05
4.55852e-05
5.69351e-05
5.69377e-05
5.88032e-05
4.55844e-05
5.69318e-05
5.69352e-05
5.87973e-05
4.55838e-05
5.6932e-05
5.69356e-05
5.88069e-05
4.55828e-05
5.69305e-05
5.69345e-05
5.87929e-05
4.55817e-05
5.69294e-05
5.69335e-05
5.88031e-05
4.55807e-05
5.69292e-05
5.6933e-05
5.8803e-05
4.55799e-05
5.69288e-05
5.69321e-05
5.87917e-05
4.55797e-05
5.6929e-05
5.6932e-05
5.88023e-05
4.55798e-05
5.69302e-05
5.69332e-05
5.88e-05
4.55501e-05
5.69205e-05
5.69233e-05
5.87842e-05
4.76912e-05
5.48421e-05
5.48445e-05
5.85196e-05
3.62983e-05
3.62919e-05
3.62919e-05
3.62984e-05
3.62919e-05
3.62919e-05
3.62908e-05
3.62908e-05
3.62908e-05
3.62908e-05
3.62919e-05
3.62919e-05
3.62984e-05
3.62919e-05
3.62919e-05
3.62984e-05
3.60083e-05
3.42678e-05
3.60198e-05
3.60198e-05
3.43746e-05
3.43745e-05
3.60083e-05
3.42678e-05
3.60198e-05
3.60198e-05
3.43746e-05
3.43745e-05
3.60198e-05
3.43746e-05
3.43746e-05
3.60083e-05
3.42678e-05
3.60198e-05
3.43746e-05
3.43746e-05
3.42678e-05
3.39613e-05
3.2262e-05
3.38865e-05
3.38865e-05
3.24657e-05
3.24656e-05
3.39613e-05
3.2262e-05
3.38866e-05
3.38865e-05
3.24658e-05
3.24656e-05
3.38865e-05
3.24658e-05
3.24657e-05
3.39613e-05
3.2262e-05
3.38866e-05
3.24658e-05
3.24657e-05
3.22619e-05
3.19507e-05
3.02976e-05
3.20052e-05
3.20051e-05
3.06615e-05
3.06613e-05
3.19507e-05
3.02975e-05
3.20053e-05
3.20051e-05
3.06616e-05
3.06613e-05
3.20052e-05
3.06617e-05
3.06614e-05
3.19506e-05
3.02975e-05
3.20053e-05
3.06617e-05
3.06616e-05
3.02974e-05
2.99866e-05
2.84235e-05
3.02261e-05
3.0226e-05
2.89596e-05
2.89594e-05
2.99866e-05
2.84235e-05
3.02263e-05
3.02259e-05
2.89598e-05
2.89593e-05
3.02261e-05
2.89599e-05
2.89595e-05
2.99865e-05
2.84233e-05
3.02263e-05
2.89599e-05
2.89597e-05
2.84232e-05
2.81207e-05
2.66722e-05
2.85508e-05
2.85506e-05
2.73652e-05
2.7365e-05
2.81207e-05
2.66721e-05
2.8551e-05
2.85505e-05
2.73656e-05
2.73649e-05
2.85507e-05
2.73657e-05
2.73651e-05
2.81206e-05
2.66719e-05
2.85509e-05
2.73657e-05
2.73655e-05
2.66718e-05
2.6389e-05
2.50647e-05
2.69839e-05
2.69836e-05
2.58814e-05
2.58812e-05
2.63889e-05
2.50646e-05
2.69842e-05
2.69835e-05
2.58819e-05
2.5881e-05
2.69838e-05
2.5882e-05
2.58813e-05
2.63888e-05
2.50644e-05
2.69841e-05
2.5882e-05
2.58817e-05
2.50642e-05
2.48059e-05
2.36112e-05
2.55277e-05
2.55274e-05
2.45077e-05
2.45074e-05
2.48058e-05
2.36111e-05
2.55282e-05
2.55273e-05
2.45082e-05
2.45072e-05
2.55276e-05
2.45084e-05
2.45075e-05
2.48056e-05
2.36109e-05
2.5528e-05
2.45083e-05
2.4508e-05
2.36106e-05
2.33771e-05
2.23115e-05
2.41816e-05
2.41813e-05
2.32454e-05
2.32451e-05
2.3377e-05
2.23114e-05
2.41822e-05
2.41812e-05
2.3246e-05
2.32449e-05
2.41815e-05
2.32462e-05
2.32453e-05
2.33768e-05
2.23112e-05
2.4182e-05
2.32461e-05
2.32459e-05
2.23109e-05
2.2104e-05
2.11676e-05
2.29473e-05
2.2947e-05
2.20942e-05
2.20939e-05
2.21039e-05
2.11675e-05
2.29479e-05
2.29468e-05
2.2095e-05
2.20937e-05
2.29472e-05
2.20952e-05
2.20941e-05
2.21037e-05
2.11672e-05
2.29478e-05
2.20951e-05
2.20948e-05
2.1167e-05
2.09859e-05
2.01706e-05
2.18236e-05
2.18233e-05
2.1052e-05
2.10517e-05
2.09858e-05
2.01705e-05
2.18243e-05
2.18231e-05
2.10528e-05
2.10515e-05
2.18235e-05
2.1053e-05
2.10519e-05
2.09855e-05
2.01702e-05
2.18242e-05
2.10529e-05
2.10526e-05
2.017e-05
2.00136e-05
1.93149e-05
2.08082e-05
2.08079e-05
2.01159e-05
2.01157e-05
2.00135e-05
1.93148e-05
2.0809e-05
2.08077e-05
2.01168e-05
2.01155e-05
2.08081e-05
2.0117e-05
2.01159e-05
2.00132e-05
1.93145e-05
2.08088e-05
2.01169e-05
2.01167e-05
1.93142e-05
1.91817e-05
1.85913e-05
1.98982e-05
1.98979e-05
1.92837e-05
1.92834e-05
1.91818e-05
1.85911e-05
1.98991e-05
1.98978e-05
1.92846e-05
1.92833e-05
1.98982e-05
1.92848e-05
1.92836e-05
1.91814e-05
1.85908e-05
1.9899e-05
1.92847e-05
1.92844e-05
1.85905e-05
1.84902e-05
1.79989e-05
1.90918e-05
1.90916e-05
1.85528e-05
1.85526e-05
1.84903e-05
1.79987e-05
1.90927e-05
1.90914e-05
1.85537e-05
1.85524e-05
1.90918e-05
1.85539e-05
1.85528e-05
1.84899e-05
1.79985e-05
1.90926e-05
1.85538e-05
1.85536e-05
1.79983e-05
1.7934e-05
1.75405e-05
1.83858e-05
1.83856e-05
1.79198e-05
1.79197e-05
1.79341e-05
1.75404e-05
1.83867e-05
1.83855e-05
1.79207e-05
1.79195e-05
1.83858e-05
1.79208e-05
1.79198e-05
1.79338e-05
1.75402e-05
1.83866e-05
1.79208e-05
1.79207e-05
1.754e-05
1.75076e-05
1.7219e-05
1.77769e-05
1.77767e-05
1.73824e-05
1.73824e-05
1.75077e-05
1.7219e-05
1.77778e-05
1.77766e-05
1.73833e-05
1.73823e-05
1.77769e-05
1.73834e-05
1.73825e-05
1.75074e-05
1.72188e-05
1.77777e-05
1.73834e-05
1.73833e-05
1.72187e-05
1.72016e-05
1.70274e-05
1.72634e-05
1.72634e-05
1.69399e-05
1.69399e-05
1.72018e-05
1.70275e-05
1.72643e-05
1.72633e-05
1.69407e-05
1.69398e-05
1.72635e-05
1.69408e-05
1.694e-05
1.72015e-05
1.70273e-05
1.72643e-05
1.69407e-05
1.69408e-05
1.70274e-05
1.7024e-05
1.69739e-05
1.68447e-05
1.68447e-05
1.65911e-05
1.65912e-05
1.70242e-05
1.69741e-05
1.68455e-05
1.68446e-05
1.65918e-05
1.65911e-05
1.68448e-05
1.65918e-05
1.65912e-05
1.7024e-05
1.6974e-05
1.68455e-05
1.65918e-05
1.65919e-05
1.69741e-05
1.69833e-05
1.70448e-05
1.65196e-05
1.65197e-05
1.6336e-05
1.63361e-05
1.69835e-05
1.70451e-05
1.65203e-05
1.65196e-05
1.63366e-05
1.63361e-05
1.65197e-05
1.63366e-05
1.63361e-05
1.69834e-05
1.7045e-05
1.65205e-05
1.63366e-05
1.63368e-05
1.70452e-05
1.70803e-05
1.72448e-05
1.62883e-05
1.62885e-05
1.61745e-05
1.61748e-05
1.70806e-05
1.72451e-05
1.62889e-05
1.62884e-05
1.61751e-05
1.61748e-05
1.62885e-05
1.6175e-05
1.61748e-05
1.70805e-05
1.72451e-05
1.62891e-05
1.61751e-05
1.61754e-05
1.72453e-05
1.73051e-05
1.75732e-05
1.61507e-05
1.6151e-05
1.61065e-05
1.61068e-05
1.73054e-05
1.75734e-05
1.61513e-05
1.6151e-05
1.61069e-05
1.61069e-05
1.6151e-05
1.61068e-05
1.61068e-05
1.73054e-05
1.75735e-05
1.61516e-05
1.61069e-05
1.61074e-05
1.75739e-05
1.7658e-05
1.80262e-05
1.61066e-05
1.6107e-05
1.61324e-05
1.61327e-05
1.76581e-05
1.80263e-05
1.61071e-05
1.61071e-05
1.61327e-05
1.61329e-05
1.61069e-05
1.61325e-05
1.61327e-05
1.76583e-05
1.80266e-05
1.61075e-05
1.61328e-05
1.61333e-05
1.8027e-05
1.81347e-05
1.85977e-05
1.6153e-05
1.61533e-05
1.62484e-05
1.62488e-05
1.81348e-05
1.85978e-05
1.61533e-05
1.61536e-05
1.62486e-05
1.62491e-05
1.61533e-05
1.62484e-05
1.62488e-05
1.81351e-05
1.85982e-05
1.61539e-05
1.62487e-05
1.62494e-05
1.85987e-05
1.87288e-05
1.92757e-05
1.62917e-05
1.6292e-05
1.64546e-05
1.64549e-05
1.87288e-05
1.92758e-05
1.62919e-05
1.62924e-05
1.64547e-05
1.64554e-05
1.62921e-05
1.64543e-05
1.64551e-05
1.87293e-05
1.92764e-05
1.62926e-05
1.64548e-05
1.64555e-05
1.9277e-05
1.94275e-05
2.00488e-05
1.652e-05
1.65204e-05
1.67486e-05
1.67491e-05
1.94275e-05
2.00489e-05
1.65201e-05
1.65209e-05
1.67486e-05
1.67497e-05
1.65206e-05
1.67482e-05
1.67493e-05
1.94281e-05
2.00496e-05
1.65209e-05
1.67488e-05
1.67496e-05
2.00503e-05
2.02193e-05
2.0905e-05
1.68356e-05
1.6836e-05
1.71277e-05
1.71282e-05
2.02194e-05
2.09051e-05
1.68355e-05
1.68367e-05
1.71275e-05
1.71289e-05
1.68363e-05
1.71271e-05
1.71285e-05
2.02201e-05
2.0906e-05
1.68364e-05
1.71278e-05
1.71286e-05
2.09068e-05
2.10921e-05
2.18312e-05
1.72354e-05
1.72359e-05
1.75883e-05
1.75889e-05
2.10921e-05
2.18313e-05
1.72351e-05
1.72367e-05
1.75879e-05
1.75898e-05
1.72363e-05
1.75875e-05
1.75894e-05
2.1093e-05
2.18323e-05
1.72362e-05
1.75884e-05
1.75892e-05
2.18333e-05
2.20324e-05
2.28134e-05
1.77159e-05
1.77164e-05
1.81267e-05
1.81272e-05
2.20324e-05
2.28135e-05
1.77153e-05
1.77173e-05
1.8126e-05
1.81282e-05
1.77169e-05
1.81256e-05
1.81279e-05
2.20334e-05
2.28147e-05
1.77166e-05
1.81266e-05
1.81274e-05
2.28158e-05
2.30261e-05
2.38379e-05
1.82729e-05
1.82734e-05
1.87382e-05
1.87387e-05
2.30261e-05
2.3838e-05
1.82721e-05
1.82745e-05
1.87372e-05
1.87399e-05
1.82741e-05
1.87369e-05
1.87396e-05
2.30273e-05
2.38393e-05
1.82735e-05
1.87381e-05
1.87388e-05
2.38405e-05
2.40595e-05
2.48915e-05
1.8902e-05
1.89025e-05
1.94181e-05
1.94186e-05
2.40595e-05
2.48916e-05
1.89009e-05
1.89037e-05
1.94168e-05
1.94198e-05
1.89034e-05
1.94166e-05
1.94197e-05
2.40608e-05
2.48931e-05
1.89024e-05
1.94179e-05
1.94185e-05
2.48943e-05
2.51196e-05
2.59625e-05
1.95981e-05
1.95986e-05
2.0161e-05
2.01614e-05
2.51195e-05
2.59626e-05
1.95967e-05
1.95999e-05
2.01593e-05
2.01628e-05
1.95998e-05
2.01592e-05
2.01627e-05
2.5121e-05
2.59642e-05
1.95983e-05
2.01607e-05
2.01611e-05
2.59655e-05
2.61948e-05
2.70408e-05
2.03557e-05
2.03563e-05
2.09611e-05
2.09614e-05
2.61948e-05
2.70408e-05
2.03541e-05
2.03577e-05
2.0959e-05
2.09629e-05
2.03577e-05
2.09591e-05
2.0963e-05
2.61964e-05
2.70426e-05
2.03558e-05
2.09608e-05
2.0961e-05
2.70439e-05
2.72753e-05
2.81178e-05
2.11692e-05
2.11697e-05
2.18124e-05
2.18126e-05
2.72752e-05
2.81179e-05
2.11672e-05
2.11712e-05
2.181e-05
2.18143e-05
2.11714e-05
2.18102e-05
2.18146e-05
2.7277e-05
2.81197e-05
2.11691e-05
2.18121e-05
2.18121e-05
2.81211e-05
2.8353e-05
2.91871e-05
2.20323e-05
2.20327e-05
2.27087e-05
2.27088e-05
2.83529e-05
2.91871e-05
2.20301e-05
2.20344e-05
2.2706e-05
2.27106e-05
2.20348e-05
2.27063e-05
2.27111e-05
2.83547e-05
2.9189e-05
2.20321e-05
2.27084e-05
2.27082e-05
2.91904e-05
2.94214e-05
3.02433e-05
2.29388e-05
2.29391e-05
2.36434e-05
2.36434e-05
2.94212e-05
3.02433e-05
2.29362e-05
2.29409e-05
2.36404e-05
2.36454e-05
2.29415e-05
2.36409e-05
2.3646e-05
2.94231e-05
3.02453e-05
2.29383e-05
2.36432e-05
2.36427e-05
3.02467e-05
3.04756e-05
3.12829e-05
2.38822e-05
2.38823e-05
2.46102e-05
2.461e-05
3.04755e-05
3.12828e-05
2.38793e-05
2.38843e-05
2.46069e-05
2.46121e-05
2.3885e-05
2.46075e-05
2.4613e-05
3.04775e-05
3.12849e-05
2.38815e-05
2.46101e-05
2.46093e-05
3.12863e-05
3.15123e-05
3.2303e-05
2.4856e-05
2.4856e-05
2.56028e-05
2.56025e-05
3.15121e-05
3.23029e-05
2.48528e-05
2.4858e-05
2.55993e-05
2.56047e-05
2.48591e-05
2.56e-05
2.56058e-05
3.15141e-05
3.2305e-05
2.48551e-05
2.56028e-05
2.56017e-05
3.23064e-05
3.25288e-05
3.33017e-05
2.58541e-05
2.58539e-05
2.66149e-05
2.66143e-05
3.25286e-05
3.33016e-05
2.58507e-05
2.5856e-05
2.66111e-05
2.66167e-05
2.58573e-05
2.66119e-05
2.6618e-05
3.25307e-05
3.33038e-05
2.5853e-05
2.66149e-05
2.66136e-05
3.33051e-05
3.35234e-05
3.42777e-05
2.687e-05
2.68696e-05
2.764e-05
2.76393e-05
3.3523e-05
3.42774e-05
2.68663e-05
2.68718e-05
2.76361e-05
2.76418e-05
2.68734e-05
2.7637e-05
2.76433e-05
3.35252e-05
3.42798e-05
2.68687e-05
2.76402e-05
2.76386e-05
3.4281e-05
3.44947e-05
3.52298e-05
2.78976e-05
2.78969e-05
2.86726e-05
2.86717e-05
3.44943e-05
3.52294e-05
2.78937e-05
2.78993e-05
2.86685e-05
2.86744e-05
2.79011e-05
2.86696e-05
2.8676e-05
3.44966e-05
3.52319e-05
2.78961e-05
2.86731e-05
2.86711e-05
3.5233e-05
3.54417e-05
3.61571e-05
2.89313e-05
2.89304e-05
2.97075e-05
2.97063e-05
3.54412e-05
3.61567e-05
2.89272e-05
2.89329e-05
2.97033e-05
2.97091e-05
2.89348e-05
2.97044e-05
2.97109e-05
3.54436e-05
3.61592e-05
2.89297e-05
2.97081e-05
2.97058e-05
3.61603e-05
3.63636e-05
3.70594e-05
2.99661e-05
2.99649e-05
3.07406e-05
3.07391e-05
3.63632e-05
3.70589e-05
2.99618e-05
2.99676e-05
3.07362e-05
3.0742e-05
2.99696e-05
3.07375e-05
3.0744e-05
3.63656e-05
3.70615e-05
2.99643e-05
3.07413e-05
3.07388e-05
3.70625e-05
3.72604e-05
3.79368e-05
3.0998e-05
3.09965e-05
3.17671e-05
3.17653e-05
3.72599e-05
3.79362e-05
3.09936e-05
3.09994e-05
3.17626e-05
3.17684e-05
3.10015e-05
3.17639e-05
3.17705e-05
3.72625e-05
3.79389e-05
3.0996e-05
3.17679e-05
3.17652e-05
3.79398e-05
3.81323e-05
3.87893e-05
3.20221e-05
3.20204e-05
3.27826e-05
3.27806e-05
3.81317e-05
3.87886e-05
3.20176e-05
3.20234e-05
3.2778e-05
3.27837e-05
3.20256e-05
3.27794e-05
3.2786e-05
3.81344e-05
3.87915e-05
3.20201e-05
3.27836e-05
3.27806e-05
3.87922e-05
3.89792e-05
3.9617e-05
3.30343e-05
3.30322e-05
3.37834e-05
3.3781e-05
3.89785e-05
3.96163e-05
3.30297e-05
3.30354e-05
3.37787e-05
3.37843e-05
3.30377e-05
3.37802e-05
3.37866e-05
3.89813e-05
3.96192e-05
3.30322e-05
3.37845e-05
3.37813e-05
3.96198e-05
3.98013e-05
4.04199e-05
3.40309e-05
3.40285e-05
3.47661e-05
3.47635e-05
3.98005e-05
4.04191e-05
3.40262e-05
3.40318e-05
3.47614e-05
3.47669e-05
3.40341e-05
3.47629e-05
3.47692e-05
3.98034e-05
4.0422e-05
3.40286e-05
3.47673e-05
3.47639e-05
4.04226e-05
4.05985e-05
4.11978e-05
3.50086e-05
3.50059e-05
3.57281e-05
3.57251e-05
4.05977e-05
4.1197e-05
3.50039e-05
3.50094e-05
3.57234e-05
3.57287e-05
3.50117e-05
3.57249e-05
3.5731e-05
4.06006e-05
4.12e-05
3.50063e-05
3.57294e-05
3.57258e-05
4.12005e-05
4.13708e-05
4.1951e-05
3.59651e-05
3.59621e-05
3.66671e-05
3.66639e-05
4.13699e-05
4.19501e-05
3.59603e-05
3.59656e-05
3.66624e-05
3.66675e-05
3.5968e-05
3.6664e-05
3.66699e-05
4.13729e-05
4.19531e-05
3.59626e-05
3.66685e-05
3.66647e-05
4.19535e-05
4.21184e-05
4.26795e-05
3.68981e-05
3.68948e-05
3.75814e-05
3.75779e-05
4.21174e-05
4.26785e-05
3.68933e-05
3.68985e-05
3.75767e-05
3.75817e-05
3.69008e-05
3.75783e-05
3.7584e-05
4.21204e-05
4.26816e-05
3.68955e-05
3.75829e-05
3.7579e-05
4.26819e-05
4.28413e-05
4.33833e-05
3.78059e-05
3.78024e-05
3.84695e-05
3.84657e-05
4.28403e-05
4.33822e-05
3.78012e-05
3.78062e-05
3.84648e-05
3.84696e-05
3.78085e-05
3.84664e-05
3.84718e-05
4.28433e-05
4.33853e-05
3.78033e-05
3.8471e-05
3.84669e-05
4.33855e-05
4.35395e-05
4.40627e-05
3.86872e-05
3.86834e-05
3.93304e-05
3.93264e-05
4.35385e-05
4.40616e-05
3.86825e-05
3.86873e-05
3.93258e-05
3.93304e-05
3.86897e-05
3.93274e-05
3.93326e-05
4.35415e-05
4.40647e-05
3.86846e-05
3.9332e-05
3.93278e-05
4.40649e-05
4.42136e-05
4.4718e-05
3.95413e-05
3.95373e-05
4.01634e-05
4.01592e-05
4.42125e-05
4.47168e-05
3.95366e-05
3.95412e-05
4.01588e-05
4.01632e-05
3.95435e-05
4.01605e-05
4.01654e-05
4.42156e-05
4.47199e-05
3.95386e-05
4.01651e-05
4.01608e-05
4.472e-05
4.48636e-05
4.53493e-05
4.03673e-05
4.03631e-05
4.0968e-05
4.09636e-05
4.48623e-05
4.5348e-05
4.03627e-05
4.0367e-05
4.09634e-05
4.09676e-05
4.03693e-05
4.09651e-05
4.09698e-05
4.48654e-05
4.53511e-05
4.03645e-05
4.09697e-05
4.09653e-05
4.53512e-05
4.54895e-05
4.5957e-05
4.11645e-05
4.11602e-05
4.17438e-05
4.17393e-05
4.54883e-05
4.59557e-05
4.116e-05
4.11642e-05
4.17393e-05
4.17433e-05
4.11664e-05
4.1741e-05
4.17454e-05
4.54914e-05
4.59588e-05
4.11618e-05
4.17456e-05
4.17411e-05
4.59588e-05
4.60922e-05
4.65413e-05
4.19332e-05
4.19287e-05
4.24904e-05
4.24858e-05
4.60909e-05
4.65399e-05
4.19287e-05
4.19327e-05
4.24861e-05
4.24899e-05
4.19348e-05
4.24877e-05
4.24919e-05
4.60939e-05
4.6543e-05
4.19304e-05
4.24923e-05
4.24877e-05
4.65429e-05
4.66714e-05
4.71026e-05
4.26726e-05
4.2668e-05
4.32084e-05
4.32036e-05
4.667e-05
4.71012e-05
4.26683e-05
4.2672e-05
4.32041e-05
4.32077e-05
4.26741e-05
4.32057e-05
4.32097e-05
4.66731e-05
4.71043e-05
4.26698e-05
4.32103e-05
4.32056e-05
4.71041e-05
4.72277e-05
4.76413e-05
4.33832e-05
4.33785e-05
4.38973e-05
4.38924e-05
4.72263e-05
4.76398e-05
4.3379e-05
4.33825e-05
4.38931e-05
4.38965e-05
4.33846e-05
4.38947e-05
4.38984e-05
4.72293e-05
4.76429e-05
4.33804e-05
4.38992e-05
4.38944e-05
4.76427e-05
4.77616e-05
4.81573e-05
4.40651e-05
4.40603e-05
4.45577e-05
4.45526e-05
4.77601e-05
4.81555e-05
4.4061e-05
4.40644e-05
4.45536e-05
4.45568e-05
4.40663e-05
4.4555e-05
4.45585e-05
4.77632e-05
4.81588e-05
4.40623e-05
4.45596e-05
4.45547e-05
4.81584e-05
4.82726e-05
4.86513e-05
4.47181e-05
4.47131e-05
4.51896e-05
4.51848e-05
4.82709e-05
4.86501e-05
4.4714e-05
4.47172e-05
4.51856e-05
4.51886e-05
4.4719e-05
4.51876e-05
4.51905e-05
4.8274e-05
4.86527e-05
4.47152e-05
4.51916e-05
4.51868e-05
4.86525e-05
4.87622e-05
4.91256e-05
4.53434e-05
4.53385e-05
4.57941e-05
4.57887e-05
4.87609e-05
4.91235e-05
4.53394e-05
4.53424e-05
4.57901e-05
4.57931e-05
4.53444e-05
4.57915e-05
4.57947e-05
4.87636e-05
4.91272e-05
4.53406e-05
4.57962e-05
4.57911e-05
4.91265e-05
4.92328e-05
4.95773e-05
4.59414e-05
4.59361e-05
4.63744e-05
4.63691e-05
4.92306e-05
4.95756e-05
4.59375e-05
4.59405e-05
4.63706e-05
4.6373e-05
4.5942e-05
4.63719e-05
4.63746e-05
4.92343e-05
4.9578e-05
4.59384e-05
4.63762e-05
4.63712e-05
4.95777e-05
4.96762e-05
4.99949e-05
4.65128e-05
4.65077e-05
4.69122e-05
4.69072e-05
4.96747e-05
4.99937e-05
4.6509e-05
4.65114e-05
4.69085e-05
4.69113e-05
4.6513e-05
4.69107e-05
4.6913e-05
4.96769e-05
4.99968e-05
4.65096e-05
4.69146e-05
4.69096e-05
4.99961e-05
5.00958e-05
5.04323e-05
4.70473e-05
4.70424e-05
4.7461e-05
4.74556e-05
5.00946e-05
5.04304e-05
4.70436e-05
4.70464e-05
4.74574e-05
4.74598e-05
4.70482e-05
4.74587e-05
4.74612e-05
5.00977e-05
5.04333e-05
4.70447e-05
4.7463e-05
4.74579e-05
5.04326e-05
5.05207e-05
5.07476e-05
4.75872e-05
4.75817e-05
4.79138e-05
4.79084e-05
5.05187e-05
5.07461e-05
4.75836e-05
4.7586e-05
4.79103e-05
4.79125e-05
4.75875e-05
4.7912e-05
4.79141e-05
5.05217e-05
5.07489e-05
4.75842e-05
4.79159e-05
4.79109e-05
5.07483e-05
5.08309e-05
5.11824e-05
4.80265e-05
4.80215e-05
4.84247e-05
4.84193e-05
5.08296e-05
5.11801e-05
4.8023e-05
4.80249e-05
4.8421e-05
4.84222e-05
4.80265e-05
4.84225e-05
4.84236e-05
5.08317e-05
5.11823e-05
4.80232e-05
4.84259e-05
4.84205e-05
5.1181e-05
5.12752e-05
5.14566e-05
4.85547e-05
4.85488e-05
4.88469e-05
4.88417e-05
5.12725e-05
5.14544e-05
4.85513e-05
4.8553e-05
4.88443e-05
4.88465e-05
4.85541e-05
4.88447e-05
4.88478e-05
5.12758e-05
5.14586e-05
4.85514e-05
4.88497e-05
4.88458e-05
5.14587e-05
5.15209e-05
5.19494e-05
4.89433e-05
4.89387e-05
4.9353e-05
4.935e-05
5.15195e-05
5.19522e-05
4.89407e-05
4.89428e-05
4.93491e-05
4.93498e-05
4.89439e-05
4.93563e-05
4.93538e-05
5.15227e-05
5.19495e-05
4.89418e-05
4.93539e-05
4.93492e-05
5.19497e-05
5.20794e-05
5.21522e-05
4.95081e-05
4.95049e-05
4.96506e-05
4.96458e-05
5.20822e-05
5.21506e-05
4.9504e-05
4.95045e-05
4.9647e-05
4.96483e-05
4.95091e-05
4.96511e-05
4.96511e-05
5.20789e-05
5.21529e-05
4.95044e-05
4.96535e-05
4.96481e-05
5.21523e-05
5.21254e-05
5.11365e-05
4.96267e-05
4.96213e-05
4.91795e-05
4.91705e-05
5.2123e-05
5.11293e-05
4.96234e-05
4.96251e-05
4.91778e-05
4.91805e-05
4.9627e-05
4.91753e-05
4.91782e-05
5.21268e-05
5.11407e-05
4.96245e-05
4.91848e-05
4.91775e-05
5.11355e-05
5.10441e-05
5.04245e-05
4.90019e-05
4.89935e-05
4.87477e-05
4.87423e-05
5.10378e-05
5.04242e-05
4.90003e-05
4.90023e-05
4.87454e-05
4.87454e-05
4.90007e-05
4.87466e-05
4.8746e-05
5.10477e-05
5.0423e-05
4.89995e-05
4.87488e-05
4.87434e-05
5.04223e-05
5.04351e-05
5.12648e-05
4.87564e-05
4.87515e-05
4.94951e-05
4.94921e-05
5.04352e-05
5.1264e-05
4.8754e-05
4.87537e-05
4.9492e-05
4.94907e-05
4.87547e-05
4.94941e-05
4.94925e-05
5.04332e-05
5.12627e-05
4.87518e-05
4.94942e-05
4.94895e-05
5.12617e-05
5.15719e-05
5.32774e-05
4.99244e-05
4.9921e-05
5.14248e-05
5.14203e-05
5.15709e-05
5.32759e-05
4.99216e-05
4.9921e-05
5.14226e-05
5.14234e-05
4.99221e-05
5.14231e-05
5.14245e-05
5.15705e-05
5.32781e-05
4.99196e-05
5.14276e-05
5.14227e-05
5.32774e-05
5.36524e-05
5.53416e-05
5.19522e-05
5.19469e-05
5.34534e-05
5.34456e-05
5.36505e-05
5.5336e-05
5.195e-05
5.19511e-05
5.34515e-05
5.34529e-05
5.19526e-05
5.34508e-05
5.34545e-05
5.36532e-05
5.53428e-05
5.19509e-05
5.34576e-05
5.34531e-05
5.53426e-05
5.56711e-05
5.70298e-05
5.39088e-05
5.39004e-05
5.50934e-05
5.50866e-05
5.56651e-05
5.70262e-05
5.39068e-05
5.39083e-05
5.50914e-05
5.50931e-05
5.39095e-05
5.50912e-05
5.50927e-05
5.56725e-05
5.70319e-05
5.3908e-05
5.50971e-05
5.50912e-05
5.70287e-05
5.72772e-05
5.81163e-05
5.54216e-05
5.54157e-05
5.61711e-05
5.61667e-05
5.72747e-05
5.81157e-05
5.54195e-05
5.54211e-05
5.61688e-05
5.61695e-05
5.54206e-05
5.61708e-05
5.61699e-05
5.72793e-05
5.81165e-05
5.5419e-05
5.61735e-05
5.61682e-05
5.81149e-05
5.82471e-05
5.85437e-05
5.63432e-05
5.63385e-05
5.666e-05
5.66539e-05
5.82462e-05
5.854e-05
5.63409e-05
5.63412e-05
5.66578e-05
5.66574e-05
5.6342e-05
5.66583e-05
5.66591e-05
5.82469e-05
5.85424e-05
5.63402e-05
5.66615e-05
5.66573e-05
5.85426e-05
5.85874e-05
5.8644e-05
5.67132e-05
5.67067e-05
5.67834e-05
5.67773e-05
5.85834e-05
5.86411e-05
5.67111e-05
5.67104e-05
5.67815e-05
5.67813e-05
5.67123e-05
5.67818e-05
5.67826e-05
5.85861e-05
5.86439e-05
5.67105e-05
5.67857e-05
5.6781e-05
5.8643e-05
5.86661e-05
5.87028e-05
5.67964e-05
5.67908e-05
5.68427e-05
5.6839e-05
5.86639e-05
5.87035e-05
5.67944e-05
5.67947e-05
5.68407e-05
5.68425e-05
5.67955e-05
5.68442e-05
5.68426e-05
5.86665e-05
5.87058e-05
5.67939e-05
5.68478e-05
5.68411e-05
5.87027e-05
5.87274e-05
5.87556e-05
5.68601e-05
5.68565e-05
5.68987e-05
5.68956e-05
5.87285e-05
5.87568e-05
5.68581e-05
5.68599e-05
5.68967e-05
5.68986e-05
5.68602e-05
5.69012e-05
5.68996e-05
5.87306e-05
5.87584e-05
5.68586e-05
5.69041e-05
5.6898e-05
5.87563e-05
5.8774e-05
5.8778e-05
5.6906e-05
5.6903e-05
5.69188e-05
5.69148e-05
5.87751e-05
5.87786e-05
5.69041e-05
5.69059e-05
5.69168e-05
5.69176e-05
5.69072e-05
5.69204e-05
5.69192e-05
5.87766e-05
5.87797e-05
5.69055e-05
5.69229e-05
5.69174e-05
5.87784e-05
5.87934e-05
5.87899e-05
5.69232e-05
5.69189e-05
5.69356e-05
5.69308e-05
5.87938e-05
5.87878e-05
5.69213e-05
5.69217e-05
5.69337e-05
5.69341e-05
5.69232e-05
5.69357e-05
5.6935e-05
5.87948e-05
5.87897e-05
5.69214e-05
5.69391e-05
5.69334e-05
5.87885e-05
5.88062e-05
5.87964e-05
5.69376e-05
5.69328e-05
5.69365e-05
5.69313e-05
5.88043e-05
5.87938e-05
5.69357e-05
5.69362e-05
5.69345e-05
5.6935e-05
5.69371e-05
5.6936e-05
5.69361e-05
5.88064e-05
5.87968e-05
5.69356e-05
5.69401e-05
5.69347e-05
5.87965e-05
5.88065e-05
5.8786e-05
5.69341e-05
5.69288e-05
5.69334e-05
5.69282e-05
5.88039e-05
5.87838e-05
5.69322e-05
5.69326e-05
5.69316e-05
5.69321e-05
5.69336e-05
5.69331e-05
5.69325e-05
5.88069e-05
5.87867e-05
5.69322e-05
5.69374e-05
5.69312e-05
5.87841e-05
5.88041e-05
5.87917e-05
5.6935e-05
5.69302e-05
5.69336e-05
5.69298e-05
5.88021e-05
5.87938e-05
5.69332e-05
5.69339e-05
5.69317e-05
5.69328e-05
5.69342e-05
5.69352e-05
5.69338e-05
5.88049e-05
5.87942e-05
5.69329e-05
5.69383e-05
5.69321e-05
5.87935e-05
5.88019e-05
5.87863e-05
5.69319e-05
5.69284e-05
5.69319e-05
5.69285e-05
5.88041e-05
5.87878e-05
5.69299e-05
5.69311e-05
5.69299e-05
5.69309e-05
5.69321e-05
5.69342e-05
5.69318e-05
5.88044e-05
5.8788e-05
5.69303e-05
5.69366e-05
5.69299e-05
5.8785e-05
5.88041e-05
5.87862e-05
5.69332e-05
5.69295e-05
5.69315e-05
5.69269e-05
5.88057e-05
5.87847e-05
5.69311e-05
5.6932e-05
5.69295e-05
5.69298e-05
5.6933e-05
5.69322e-05
5.6931e-05
5.88059e-05
5.87866e-05
5.69311e-05
5.69356e-05
5.69292e-05
5.87863e-05
5.87972e-05
5.87939e-05
5.69312e-05
5.69264e-05
5.69322e-05
5.69269e-05
5.87959e-05
5.8792e-05
5.69291e-05
5.69294e-05
5.69303e-05
5.69304e-05
5.69304e-05
5.69317e-05
5.69309e-05
5.87977e-05
5.87941e-05
5.69286e-05
5.69353e-05
5.69292e-05
5.87906e-05
5.88095e-05
5.87804e-05
5.69324e-05
5.6927e-05
5.69305e-05
5.69248e-05
5.88076e-05
5.87782e-05
5.69306e-05
5.69306e-05
5.69288e-05
5.69291e-05
5.69311e-05
5.69299e-05
5.69293e-05
5.88097e-05
5.87808e-05
5.69294e-05
5.69338e-05
5.69276e-05
5.87789e-05
5.87954e-05
5.87911e-05
5.6931e-05
5.69253e-05
5.69302e-05
5.69243e-05
5.8793e-05
5.87882e-05
5.69293e-05
5.69297e-05
5.69284e-05
5.6929e-05
5.69298e-05
5.69292e-05
5.69293e-05
5.8796e-05
5.87918e-05
5.69281e-05
5.69333e-05
5.69276e-05
5.8792e-05
5.88013e-05
5.87892e-05
5.69302e-05
5.69243e-05
5.69292e-05
5.69236e-05
5.87984e-05
5.87866e-05
5.69284e-05
5.6929e-05
5.69274e-05
5.6928e-05
5.69293e-05
5.69283e-05
5.69284e-05
5.8802e-05
5.879e-05
5.69276e-05
5.69322e-05
5.69267e-05
5.87853e-05
5.88058e-05
5.87783e-05
5.69298e-05
5.69243e-05
5.69276e-05
5.69226e-05
5.88033e-05
5.87767e-05
5.6928e-05
5.69285e-05
5.69257e-05
5.69261e-05
5.69291e-05
5.6927e-05
5.6927e-05
5.88065e-05
5.87785e-05
5.69275e-05
5.69303e-05
5.69253e-05
5.87789e-05
5.8793e-05
5.87885e-05
5.69291e-05
5.69243e-05
5.6927e-05
5.69225e-05
5.87914e-05
5.87873e-05
5.69272e-05
5.69276e-05
5.69251e-05
5.69255e-05
5.69283e-05
5.69267e-05
5.69264e-05
5.87931e-05
5.87887e-05
5.69267e-05
5.69297e-05
5.69248e-05
5.87903e-05
5.87989e-05
5.87881e-05
5.69289e-05
5.69245e-05
5.69266e-05
5.69224e-05
5.87978e-05
5.87871e-05
5.6927e-05
5.69275e-05
5.69248e-05
5.69253e-05
5.69284e-05
5.69266e-05
5.69259e-05
5.87991e-05
5.87885e-05
5.69268e-05
5.69296e-05
5.69243e-05
5.87831e-05
5.88039e-05
5.87763e-05
5.69299e-05
5.69256e-05
5.69167e-05
5.69126e-05
5.88029e-05
5.87757e-05
5.6928e-05
5.69286e-05
5.69149e-05
5.69154e-05
5.69293e-05
5.6917e-05
5.69163e-05
5.88043e-05
5.87772e-05
5.69275e-05
5.69199e-05
5.69144e-05
5.87765e-05
5.8786e-05
5.86785e-05
5.69201e-05
5.6916e-05
5.54298e-05
5.54262e-05
5.87854e-05
5.86779e-05
5.69182e-05
5.69188e-05
5.54298e-05
5.54285e-05
5.69196e-05
5.54319e-05
5.54295e-05
5.87867e-05
5.86791e-05
5.69177e-05
5.54343e-05
5.54294e-05
5.86786e-05
5.85196e-05
5.48395e-05
5.48362e-05
5.85191e-05
5.48395e-05
5.48383e-05
4.76909e-05
4.76938e-05
4.76923e-05
5.48394e-05
5.85204e-05
5.48394e-05
3.73769e-05
3.73764e-05
3.73767e-05
3.73767e-05
3.73694e-05
3.73755e-05
3.73043e-05
3.73764e-05
3.73694e-05
3.73755e-05
3.73764e-05
3.73043e-05
3.73714e-05
3.72959e-05
3.72959e-05
3.58864e-05
4.08615e-05
3.66006e-05
4.51355e-05
5.51055e-05
6.48938e-05
3.5887e-05
4.08611e-05
3.66005e-05
4.51382e-05
3.60232e-05
3.60232e-05
3.60232e-05
3.44005e-05
3.44005e-05
3.44005e-05
3.44005e-05
3.52763e-05
3.56369e-05
3.60241e-05
3.53762e-05
3.60477e-05
3.42377e-05
3.53827e-05
5.51074e-05
6.48955e-05
3.52764e-05
3.60241e-05
3.56365e-05
3.53762e-05
3.60476e-05
3.53827e-05
3.42382e-05
3.65914e-05
3.65921e-05
3.52783e-05
3.40716e-05
3.40707e-05
3.39708e-05
5.13445e-05
3.46832e-05
5.46148e-05
7.65468e-05
8.08644e-05
3.39718e-05
5.1345e-05
3.46825e-05
5.46181e-05
3.39295e-05
3.39295e-05
3.39295e-05
3.2585e-05
3.2585e-05