/*--------------------------------*- C++ -*----------------------------------*\
| =========                 |                                                 |
| \\      /  F ield         | OpenFOAM: The Open Source CFD Toolbox           |
|  \\    /   O peration     | Version:                                        |
|   \\  /    A nd           | Website:  www.openfoam.com                      |
|    \\/     M anipulation  |                                                 |
\*---------------------------------------------------------------------------*/
FoamFile
{
    version     2.0;
    format      ascii;
    class       volScalarField;
    location    "300";
    object      nut;
}
// * * * * * * * * * * * * * * * * * * * * * * * * * * * * * * * * * * * * * //

dimensions      [0 2 -1 0 0 0 0];


internalField   nonuniform List<scalar> 
172512
(
0.000233969
0.000233548
0.000233548
0.000233451
0.000232529
0.00022758
0.00022758
0.000223833
0.000230487
0.000220158
0.000220157
0.000209027
0.000227758
0.000211542
0.00021154
0.000193702
0.000224387
0.000202552
0.000202549
0.000179637
0.000220505
0.000193693
0.000193689
0.000167281
0.000216258
0.000185208
0.000185204
0.000156542
0.000211776
0.000177176
0.000177171
0.000147172
0.000207165
0.000169637
0.000169632
0.000138926
0.000202506
0.000162564
0.000162559
0.000131599
0.000197852
0.000155905
0.0001559
0.000124945
0.00019324
0.000149604
0.000149599
0.000118811
0.000188648
0.000143624
0.00014362
0.000113168
0.000184117
0.000137912
0.000137907
0.000107937
0.000179673
0.000132422
0.000132418
0.000103063
0.000175306
0.000127147
0.000127143
9.84445e-05
0.000171004
0.000122106
0.000122102
9.42614e-05
0.000166753
0.000117325
0.000117321
9.06713e-05
0.000162554
0.000112841
0.000112838
8.7744e-05
0.000158382
0.00010871
0.000108707
8.53976e-05
0.00015423
0.000104981
0.000104978
8.36817e-05
0.000150109
0.00010167
0.000101666
8.25947e-05
0.000146029
9.88542e-05
9.88514e-05
8.21117e-05
0.000142011
9.6546e-05
9.65439e-05
8.2163e-05
0.000138082
9.47561e-05
9.47547e-05
8.27008e-05
0.000134258
9.34838e-05
9.3483e-05
8.36746e-05
0.000130594
9.27163e-05
9.27162e-05
8.50281e-05
0.000127117
9.2433e-05
9.24336e-05
8.67025e-05
0.000123864
9.26067e-05
9.2608e-05
8.86413e-05
0.000120864
9.32057e-05
9.32078e-05
9.07929e-05
0.000118149
9.41952e-05
9.41978e-05
9.31111e-05
0.000115753
9.55387e-05
9.55421e-05
9.55575e-05
0.000113694
9.71999e-05
9.72041e-05
9.80999e-05
0.000111986
9.91424e-05
9.9147e-05
0.000100712
0.000110641
0.000101331
0.000101336
0.000103374
0.000109663
0.000103733
0.000103739
0.000106072
0.000109054
0.000106318
0.000106325
0.00010879
0.00010881
0.000109057
0.000109064
0.000111515
0.000108924
0.00011192
0.000111928
0.00011424
0.000109386
0.000114884
0.000114892
0.000116954
0.000110184
0.000117929
0.000117938
0.000119651
0.000111302
0.000121042
0.000121052
0.000122327
0.000112724
0.0001242
0.00012421
0.000124978
0.000114432
0.000127385
0.000127395
0.0001276
0.000116405
0.000130582
0.000130592
0.000130189
0.000118624
0.000133776
0.000133787
0.000132741
0.000121065
0.000136958
0.000136968
0.000135253
0.000123708
0.000140116
0.000140127
0.000137721
0.000126531
0.000143244
0.000143255
0.000140143
0.00012951
0.000146333
0.000146344
0.000142515
0.000132626
0.000149378
0.00014939
0.000144837
0.000135858
0.000152375
0.000152386
0.000147106
0.000139186
0.000155315
0.000155326
0.000149321
0.00014259
0.000158196
0.000158208
0.000151481
0.000146053
0.000161015
0.000161026
0.000153584
0.000149559
0.000163772
0.000163782
0.00015563
0.000153093
0.000166462
0.000166474
0.000157619
0.000156643
0.000169084
0.000169096
0.000159546
0.000160203
0.000171648
0.000171657
0.000161418
0.000163771
0.000174142
0.000174158
0.000163247
0.00016737
0.000176588
0.000176598
0.00016498
0.00017092
0.000178892
0.000178902
0.000166625
0.000174695
0.000181375
0.000181388
0.000168386
0.000178209
0.000183217
0.000183224
0.000169417
0.000182221
0.000185864
0.000185879
0.0001714
0.000186075
0.00018758
0.000187595
0.000172118
0.000190651
0.000190876
0.000190836
0.000174994
0.000194004
0.000190982
0.000190991
0.000174804
0.000192533
0.000185256
0.000185295
0.000166827
0.000192288
0.000181946
0.000181941
0.00016119
0.000202965
0.000188921
0.000188914
0.000166303
0.000223669
0.000202939
0.000202957
0.00017791
0.000246729
0.000217302
0.000217338
0.000189932
0.000265972
0.000228966
0.000228987
0.000200021
0.00027892
0.000236352
0.000236352
0.000206399
0.000285504
0.000239364
0.000239371
0.000208675
0.000287463
0.000240032
0.000240043
0.000209169
0.000288401
0.000240562
0.000240569
0.000209566
0.000289099
0.000240947
0.000240948
0.000209883
0.000289413
0.000241074
0.000241074
0.000210011
0.000289616
0.000241186
0.000241195
0.000210082
0.00028961
0.000241155
0.000241169
0.000210098
0.000289607
0.000241169
0.000241182
0.000210065
0.000289601
0.000241161
0.000241163
0.000210088
0.000289596
0.000241172
0.000241172
0.000210083
0.000289592
0.000241146
0.000241153
0.000210039
0.000289589
0.000241148
0.000241157
0.000210102
0.00028958
0.000241137
0.000241148
0.000210006
0.000289569
0.000241128
0.000241141
0.000210086
0.000289559
0.000241126
0.000241136
0.000210083
0.000289548
0.000241121
0.000241127
0.000210004
0.00028954
0.000241119
0.000241123
0.00021008
0.000289542
0.000241129
0.000241132
0.000210062
0.000289741
0.000241259
0.000241262
0.000210033
0.000283535
0.000243442
0.000243447
0.000216048
0.000234256
0.000234459
0.00023446
0.000234257
0.00023446
0.00023446
0.000234259
0.000234259
0.000234259
0.000234259
0.000234459
0.000234459
0.000234256
0.000234459
0.00023446
0.000234256
0.000233451
0.000226179
0.000233548
0.000233547
0.000229123
0.000229118
0.000233451
0.00022618
0.000233547
0.000233547
0.00022912
0.000229117
0.000233548
0.000229126
0.000229123
0.000233451
0.000226178
0.000233547
0.000229126
0.00022912
0.000226177
0.000223834
0.000212154
0.000227577
0.000227572
0.000222157
0.000222151
0.000223833
0.000212155
0.000227575
0.000227571
0.000222158
0.00022215
0.000227576
0.000222163
0.000222156
0.000223834
0.000212152
0.000227575
0.000222162
0.000222156
0.000212148
0.000209031
0.000196985
0.000220151
0.000220146
0.000213749
0.000213742
0.000209029
0.000196983
0.000220153
0.000220143
0.000213753
0.00021374
0.000220149
0.000213758
0.000213745
0.000209029
0.00019698
0.000220151
0.000213757
0.00021375
0.000196975
0.000193711
0.000182814
0.000211531
0.000211525
0.000204788
0.000204781
0.000193709
0.000182811
0.000211537
0.000211522
0.000204797
0.000204778
0.000211527
0.000204801
0.000204784
0.000193706
0.000182807
0.000211533
0.000204799
0.000204792
0.0001828
0.000179648
0.000170219
0.000202538
0.000202531
0.000195862
0.000195855
0.000179645
0.000170216
0.000202548
0.000202528
0.000195874
0.000195851
0.000202533
0.000195877
0.000195856
0.000179642
0.000170211
0.000202542
0.000195875
0.000195868
0.000170204
0.000167295
0.000159208
0.000193675
0.000193669
0.00018727
0.000187263
0.000167292
0.000159204
0.000193689
0.000193665
0.000187286
0.000187258
0.000193669
0.000187288
0.000187263
0.000167287
0.000159199
0.000193682
0.000187285
0.000187278
0.000159191
0.000156557
0.000149591
0.000185188
0.000185181
0.000179116
0.000179109
0.000156553
0.000149587
0.000185205
0.000185177
0.000179135
0.000179104
0.000185182
0.000179137
0.000179109
0.000156548
0.000149581
0.000185197
0.000179134
0.000179127
0.000149573
0.000147189
0.000141095
0.000177153
0.000177146
0.000171451
0.000171444
0.000147185
0.000141091
0.000177173
0.000177142
0.000171473
0.000171439
0.000177146
0.000171474
0.000171444
0.000147179
0.000141084
0.000177164
0.000171471
0.000171464
0.000141076
0.000138944
0.000133545
0.000169611
0.000169604
0.000164264
0.000164257
0.000138939
0.000133541
0.000169634
0.0001696
0.000164288
0.000164252
0.000169605
0.00016429
0.000164258
0.000138933
0.000133533
0.000169625
0.000164286
0.000164279
0.000133525
0.000131618
0.00012669
0.000162536
0.000162529
0.000157505
0.000157498
0.000131613
0.000126686
0.000162561
0.000162525
0.000157532
0.000157493
0.00016253
0.000157533
0.000157499
0.000131606
0.000126678
0.000162552
0.000157529
0.000157522
0.00012667
0.000124964
0.000120371
0.000155875
0.000155868
0.000151118
0.000151111
0.000124959
0.000120368
0.000155903
0.000155864
0.000151147
0.000151106
0.000155869
0.000151148
0.000151113
0.000124952
0.00012036
0.000155893
0.000151144
0.000151137
0.000120352
0.000118828
0.000114443
0.000149573
0.000149566
0.000145058
0.000145051
0.000118825
0.000114437
0.000149602
0.000149562
0.000145088
0.000145046
0.000149568
0.000145089
0.000145053
0.000118818
0.00011443
0.000149592
0.000145086
0.000145079
0.000114421
0.000113185
0.000108855
0.000143592
0.000143584
0.000139282
0.000139274
0.000113182
0.000108849
0.000143622
0.000143581
0.000139313
0.00013927
0.000143587
0.000139314
0.000139278
0.000113175
0.000108842
0.000143612
0.000139311
0.000139303
0.000108834
0.000107954
0.000103722
0.000137879
0.00013787
0.00013374
0.000133731
0.00010795
0.000103717
0.000137909
0.000137867
0.000133771
0.000133727
0.000137874
0.000133772
0.000133735
0.000107943
0.00010371
0.0001379
0.000133769
0.000133761
0.000103702
0.000103081
9.91477e-05
0.000132389
0.00013238
0.00012841
0.000128399
0.000103076
9.91429e-05
0.00013242
0.000132377
0.000128439
0.000128396
0.000132384
0.000128441
0.000128406
0.000103069
9.91362e-05
0.00013241
0.000128438
0.00012843
9.91293e-05
9.84623e-05
9.50096e-05
0.000127116
0.000127104
0.00012331
0.000123295
9.8457e-05
9.5005e-05
0.000127144
0.000127102
0.000123336
0.000123294
0.000127112
0.000123339
0.000123306
9.84507e-05
9.49988e-05
0.000127135
0.000123336
0.000123326
9.49925e-05
9.42778e-05
9.14561e-05
0.000122077
0.000122063
0.000118443
0.000118428
9.42725e-05
9.14515e-05
0.000122102
0.000122061
0.000118467
0.000118427
0.000122073
0.000118471
0.00011844
9.4267e-05
9.1446e-05
0.000122093
0.000118468
0.000118458
9.14402e-05
9.06861e-05
8.8399e-05
0.000117296
0.000117281
0.000113888
0.000113871
9.06796e-05
8.83942e-05
0.00011732
0.00011728
0.00011391
0.000113871
0.000117294
0.000113915
0.000113886
9.06756e-05
8.83895e-05
0.000117311
0.000113912
0.000113902
8.83845e-05
8.77578e-05
8.59307e-05
0.000112813
0.000112797
0.000109659
0.00010964
8.77524e-05
8.59262e-05
0.000112835
0.000112796
0.000109679
0.000109641
0.000112811
0.000109684
0.000109657
8.77482e-05
8.5922e-05
0.000112827
0.000109682
0.000109671
8.59174e-05
8.54099e-05
8.40905e-05
0.000108683
0.000108666
0.000105815
0.000105798
8.54056e-05
8.40868e-05
0.000108704
0.000108666
0.000105835
0.000105799
0.000108682
0.00010584
0.000105815
8.54014e-05
8.40828e-05
0.000108696
0.000105838
0.000105827
8.40786e-05
8.36922e-05
8.2881e-05
0.000104954
0.000104938
0.00010242
0.000102405
8.36891e-05
8.28778e-05
0.000104974
0.000104938
0.00010244
0.000102406
0.000104954
0.000102446
0.000102422
8.36851e-05
8.28742e-05
0.000104967
0.000102445
0.000102434
8.28704e-05
8.2604e-05
8.22809e-05
0.000101641
0.000101627
9.94812e-05
9.94688e-05
8.26014e-05
8.22782e-05
0.000101662
0.000101628
9.95016e-05
9.94689e-05
0.000101644
9.95076e-05
9.94849e-05
8.25978e-05
8.22749e-05
0.000101655
9.95073e-05
9.94959e-05
8.22716e-05
8.212e-05
8.22252e-05
9.88259e-05
9.88138e-05
9.70453e-05
9.70347e-05
8.21177e-05
8.2223e-05
9.88461e-05
9.88138e-05
9.70653e-05
9.70347e-05
9.88299e-05
9.70714e-05
9.70504e-05
8.21144e-05
8.22199e-05
9.88401e-05
9.70716e-05
9.70603e-05
8.22171e-05
8.21702e-05
8.26641e-05
9.65183e-05
9.65079e-05
9.51271e-05
9.5118e-05
8.21682e-05
8.2662e-05
9.65379e-05
9.65078e-05
9.51464e-05
9.51179e-05
9.65235e-05
9.51525e-05
9.51334e-05
8.21653e-05
8.26595e-05
9.65326e-05
9.51532e-05
9.51421e-05
8.26574e-05
8.27067e-05
8.35495e-05
9.47294e-05
9.47204e-05
9.37275e-05
9.37198e-05
8.2705e-05
8.35478e-05
9.47482e-05
9.47203e-05
9.37459e-05
9.37198e-05
9.47357e-05
9.3752e-05
9.37348e-05
8.27024e-05
8.35457e-05
9.47437e-05
9.37531e-05
9.37424e-05
8.35441e-05
8.36795e-05
8.48258e-05
9.34583e-05
9.34505e-05
9.28367e-05
9.283e-05
8.3678e-05
8.48241e-05
9.34761e-05
9.34506e-05
9.28541e-05
9.28303e-05
9.34656e-05
9.286e-05
9.28449e-05
8.36759e-05
8.48228e-05
9.34724e-05
9.28618e-05
9.28513e-05
8.48216e-05
8.50318e-05
8.64345e-05
9.26921e-05
9.26853e-05
9.24362e-05
9.24304e-05
8.50304e-05
8.64331e-05
9.27088e-05
9.26857e-05
9.24523e-05
9.24309e-05
9.27002e-05
9.24583e-05
9.24451e-05
8.5029e-05
8.64322e-05
9.27058e-05
9.24605e-05
9.24502e-05
8.64314e-05
8.67053e-05
8.83188e-05
9.24104e-05
9.24043e-05
9.25e-05
9.24949e-05
8.6704e-05
8.83174e-05
9.24257e-05
9.2405e-05
9.25149e-05
9.24959e-05
9.24191e-05
9.25208e-05
9.25098e-05
8.67031e-05
8.83172e-05
9.24234e-05
9.25236e-05
9.25135e-05
8.83167e-05
8.86432e-05
9.04259e-05
9.25855e-05
9.25801e-05
9.29974e-05
9.29929e-05
8.8642e-05
9.04247e-05
9.25996e-05
9.25812e-05
9.3011e-05
9.29942e-05
9.2595e-05
9.30169e-05
9.30079e-05
8.86417e-05
9.04251e-05
9.2598e-05
9.30203e-05
9.30103e-05
9.04248e-05
9.0794e-05
9.27093e-05
9.31861e-05
9.31811e-05
9.38941e-05
9.38899e-05
9.07928e-05
9.27081e-05
9.31988e-05
9.31826e-05
9.39063e-05
9.38916e-05
9.31962e-05
9.39122e-05
9.39051e-05
9.07931e-05
9.27088e-05
9.31978e-05
9.39161e-05
9.3906e-05
9.27087e-05
9.31117e-05
9.51285e-05
9.41768e-05
9.41723e-05
9.5154e-05
9.51499e-05
9.31106e-05
9.51273e-05
9.41881e-05
9.41742e-05
9.51647e-05
9.51522e-05
9.41876e-05
9.51707e-05
9.51656e-05
9.31111e-05
9.51287e-05
9.41877e-05
9.51753e-05
9.5165e-05
9.51286e-05
9.55575e-05
9.76508e-05
9.55217e-05
9.55174e-05
9.67405e-05
9.67366e-05
9.55563e-05
9.76495e-05
9.55318e-05
9.55199e-05
9.67499e-05
9.67393e-05
9.55332e-05
9.6756e-05
9.67527e-05
9.55576e-05
9.76514e-05
9.55318e-05
9.67613e-05
9.67507e-05
9.76513e-05
9.80995e-05
0.000100249
9.71841e-05
9.718e-05
9.86173e-05
9.86133e-05
9.80983e-05
0.000100248
9.71929e-05
9.71829e-05
9.86253e-05
9.86163e-05
9.71963e-05
9.86317e-05
9.86299e-05
9.81e-05
0.00010025
9.71935e-05
9.86373e-05
9.86265e-05
0.00010025
0.000100712
0.000102901
9.91277e-05
9.91236e-05
0.000100748
0.000100744
0.00010071
0.000102899
9.91352e-05
9.91268e-05
0.000100755
0.000100748
9.91404e-05
0.000100762
0.000100762
0.000100712
0.000102902
9.91362e-05
0.000100768
0.000100757
0.000102902
0.000103373
0.000105591
0.000101317
0.000101313
0.000103101
0.000103096
0.000103372
0.000105589
0.000101323
0.000101317
0.000103107
0.0001031
0.00010133
0.000103113
0.000103114
0.000103374
0.000105592
0.000101325
0.00010312
0.000103108
0.000105592
0.000106072
0.000108303
0.00010372
0.000103716
0.000105644
0.00010564
0.000106071
0.000108302
0.000103725
0.00010372
0.000105649
0.000105644
0.000103734
0.000105656
0.000105658
0.000106073
0.000108305
0.000103727
0.000105663
0.000105651
0.000108304
0.00010879
0.000111026
0.000106306
0.000106302
0.000108348
0.000108343
0.000108788
0.000111024
0.000106311
0.000106306
0.000108352
0.000108347
0.00010632
0.000108359
0.000108362
0.000108791
0.000111028
0.000106313
0.000108367
0.000108354
0.000111027
0.000111515
0.00011375
0.000109045
0.00010904
0.000111183
0.000111177
0.000111513
0.000113748
0.000109049
0.000109045
0.000111186
0.000111182
0.000109059
0.000111193
0.000111196
0.000111516
0.000113752
0.000109051
0.000111201
0.000111188
0.000113752
0.000114239
0.000116468
0.000111909
0.000111904
0.000114124
0.000114118
0.000114237
0.000116465
0.000111912
0.000111909
0.000114127
0.000114124
0.000111923
0.000114134
0.000114138
0.000114241
0.00011647
0.000111914
0.000114143
0.000114129
0.000116469
0.000116954
0.000119169
0.000114874
0.000114868
0.000117151
0.000117144
0.000116951
0.000119167
0.000114876
0.000114873
0.000117153
0.00011715
0.000114888
0.00011716
0.000117165
0.000116955
0.000119172
0.000114878
0.00011717
0.000117155
0.00011917
0.000119651
0.000121851
0.00011792
0.000117913
0.00012025
0.000120242
0.000119648
0.000121848
0.000117922
0.000117919
0.000120251
0.000120248
0.000117933
0.000120258
0.000120263
0.000119652
0.000121854
0.000117924
0.000120269
0.000120254
0.000121852
0.000122327
0.00012451
0.000121033
0.000121025
0.0001234
0.00012339
0.000122324
0.000124507
0.000121034
0.000121032
0.0001234
0.000123397
0.000121046
0.000123407
0.000123411
0.000122328
0.000124512
0.000121036
0.000123418
0.000123402
0.00012451
0.000124978
0.000127141
0.000124193
0.000124182
0.000126581
0.000126569
0.000124975
0.000127137
0.000124192
0.00012419
0.00012658
0.000126577
0.000124204
0.000126587
0.000126591
0.00012498
0.000127143
0.000124194
0.000126598
0.000126582
0.000127141
0.000127601
0.00012974
0.000127379
0.000127367
0.000129776
0.000129763
0.000127597
0.000129736
0.000127378
0.000127375
0.000129775
0.000129772
0.000127389
0.000129782
0.000129785
0.000127602
0.000129742
0.00012738
0.000129793
0.000129777
0.00012974
0.00013019
0.000132303
0.000130576
0.000130563
0.000132973
0.000132959
0.000130186
0.000132299
0.000130574
0.000130571
0.000132972
0.000132968
0.000130585
0.000132978
0.000132981
0.000130192
0.000132305
0.000130576
0.00013299
0.000132973
0.000132302
0.000132743
0.000134826
0.000133771
0.000133757
0.000136159
0.000136144
0.000132739
0.000134822
0.000133769
0.000133766
0.000136157
0.000136153
0.000133779
0.000136163
0.000136166
0.000132745
0.000134828
0.000133771
0.000136175
0.000136159
0.000134825
0.000135255
0.000137306
0.000136953
0.000136937
0.000139324
0.000139309
0.00013525
0.000137301
0.000136951
0.000136947
0.000139323
0.000139318
0.000136959
0.000139328
0.00013933
0.000135257
0.000137308
0.000136952
0.000139341
0.000139324
0.000137304
0.000137723
0.000139741
0.000140111
0.000140095
0.000142461
0.000142444
0.000137718
0.000139735
0.00014011
0.000140105
0.000142459
0.000142454
0.000140117
0.000142465
0.000142465
0.000137725
0.000139743
0.00014011
0.000142477
0.00014246
0.000139738
0.000140146
0.000142126
0.000143239
0.000143223
0.00014556
0.000145543
0.00014014
0.00014212
0.000143238
0.000143233
0.000145559
0.000145553
0.000143244
0.000145564
0.000145564
0.000140147
0.000142128
0.000143238
0.000145576
0.000145559
0.000142123
0.000142518
0.000144461
0.000146328
0.000146311
0.000148617
0.0001486
0.000142512
0.000144455
0.000146327
0.000146321
0.000148616
0.00014861
0.000146332
0.000148621
0.00014862
0.00014252
0.000144463
0.000146327
0.000148633
0.000148616
0.000144458
0.000144841
0.000146745
0.000149374
0.000149357
0.000151627
0.000151609
0.000144835
0.000146738
0.000149373
0.000149367
0.000151626
0.000151619
0.000149377
0.00015163
0.000151628
0.000144842
0.000146746
0.000149372
0.000151643
0.000151625
0.00014674
0.000147111
0.000148973
0.000152371
0.000152353
0.000154581
0.000154563
0.000147104
0.000148966
0.00015237
0.000152363
0.000154581
0.000154573
0.000152372
0.000154585
0.000154582
0.000147112
0.000148974
0.000152369
0.000154597
0.000154579
0.000148968
0.000149326
0.000151147
0.00015531
0.000155292
0.000157478
0.000157459
0.000149319
0.00015114
0.00015531
0.000155302
0.000157478
0.000157469
0.000155311
0.000157481
0.000157477
0.000149327
0.000151148
0.000155309
0.000157494
0.000157476
0.000151142
0.000151487
0.000153264
0.000158192
0.000158173
0.000160312
0.000160293
0.00015148
0.000153257
0.000158192
0.000158184
0.000160312
0.000160303
0.000158192
0.000160315
0.00016031
0.000151487
0.000153265
0.00015819
0.000160328
0.00016031
0.000153258
0.00015359
0.000155324
0.00016101
0.000160992
0.000163085
0.000163065
0.000153583
0.000155317
0.000161011
0.000161002
0.000163086
0.000163076
0.000161009
0.000163089
0.000163083
0.00015359
0.000155324
0.000161009
0.000163101
0.000163083
0.000155318
0.000155636
0.000157327
0.000163767
0.000163748
0.000165791
0.000165771
0.000155629
0.00015732
0.000163768
0.000163758
0.000165793
0.000165782
0.000163765
0.000165795
0.000165788
0.000155636
0.000157328
0.000163765
0.000165807
0.000165789
0.000157321
0.000157626
0.00015927
0.000166458
0.000166438
0.000168433
0.000168412
0.000157618
0.000159261
0.00016646
0.000166449
0.000168435
0.000168424
0.000166455
0.000168435
0.000168428
0.000157626
0.00015927
0.000166456
0.000168449
0.00016843
0.000159262
0.000159554
0.000161155
0.00016908
0.00016906
0.000171007
0.000170988
0.000159545
0.00016115
0.000169083
0.000169072
0.000171009
0.000170997
0.000169076
0.000171014
0.000171003
0.000159553
0.000161154
0.000169078
0.000171024
0.000171005
0.000161148
0.000161426
0.000162994
0.000171641
0.000171622
0.000173518
0.000173496
0.00016142
0.000162982
0.000171644
0.000171632
0.000173522
0.00017351
0.000171638
0.000173521
0.000173513
0.000161425
0.000162995
0.00017164
0.000173536
0.000173516
0.000162984
0.000163257
0.000164768
0.000174141
0.000174118
0.000175994
0.000175973
0.000163245
0.000164758
0.000174144
0.000174132
0.000175999
0.000175983
0.000174135
0.000175996
0.000175986
0.000163258
0.000164763
0.000174138
0.000176009
0.00017599
0.000164755
0.000164992
0.000166381
0.000176584
0.000176564
0.000178284
0.000178264
0.000164984
0.000166376
0.000176588
0.000176573
0.000178289
0.000178276
0.000176576
0.000178293
0.00017828
0.000164987
0.000166384
0.000176581
0.000178304
0.000178284
0.000166375
0.000166632
0.000168213
0.000178882
0.000178862
0.000180802
0.000180779
0.000166626
0.000168203
0.000178887
0.000178874
0.000180807
0.000180791
0.000178879
0.000180804
0.000180794
0.000166635
0.000168211
0.000178883
0.000180819
0.000180799
0.000168201
0.000168397
0.000169278
0.000181371
0.000181348
0.00018272
0.000182698
0.000168386
0.00016927
0.000181377
0.000181362
0.000182726
0.00018271
0.000181364
0.000182726
0.000182714
0.000168395
0.000169277
0.000181369
0.000182738
0.000182719
0.000169269
0.000169429
0.000171184
0.00018321
0.00018319
0.000185198
0.000185176
0.000169422
0.000171171
0.000183215
0.000183197
0.000185202
0.000185178
0.000183201
0.000185201
0.000185181
0.000169425
0.000171174
0.000183205
0.000185209
0.000185186
0.00017116
0.00017142
0.000172079
0.000185863
0.000185837
0.000187146
0.000187124
0.000171403
0.000172066
0.00018587
0.000185849
0.000187158
0.000187141
0.000185849
0.000187147
0.000187143
0.000171414
0.000172083
0.000185858
0.000187169
0.000187158
0.000172079
0.000172116
0.000174474
0.000187574
0.000187557
0.00018987
0.000189865
0.000172108
0.000174495
0.000187587
0.00018757
0.000189873
0.000189844
0.00018757
0.000189914
0.000189868
0.000172119
0.000174466
0.000187583
0.000189878
0.000189861
0.000174463
0.000175006
0.000175299
0.000190828
0.000190822
0.000191333
0.000191316
0.000175027
0.000175293
0.000190829
0.000190799
0.000191338
0.000191313
0.000190827
0.000191359
0.000191329
0.000174994
0.000175293
0.00019082
0.000191356
0.000191334
0.000175287
0.000174814
0.000167868
0.000190963
0.000190941
0.000186888
0.000186837
0.000174803
0.000167823
0.000190969
0.000190948
0.000186907
0.000186895
0.000190957
0.000186876
0.000186871
0.000174814
0.000167888
0.000190966
0.00018693
0.000186894
0.000167849
0.000166835
0.000161713
0.000185258
0.000185211
0.000182282
0.000182257
0.000166797
0.000161712
0.000185277
0.00018526
0.000182296
0.000182265
0.000185241
0.000182293
0.000182262
0.000166852
0.000161697
0.00018526
0.000182294
0.00018227
0.000161688
0.000161212
0.000164965
0.000181932
0.000181911
0.000186123
0.000186118
0.000161214
0.000164963
0.000181945
0.000181912
0.000186131
0.000186088
0.000181912
0.000186137
0.000186096
0.000161194
0.000164944
0.000181918
0.000186119
0.000186101
0.000164933
0.000166332
0.000176004
0.00018892
0.000188911
0.000199194
0.000199177
0.000166328
0.000175998
0.000188931
0.000188892
0.000199209
0.00019918
0.000188894
0.000199203
0.000199182
0.000166315
0.000176
0.000188903
0.000199217
0.000199197
0.000175991
0.000177921
0.000188184
0.000202937
0.000202915
0.000213898
0.000213854
0.000177912
0.00018815
0.000202954
0.000202926
0.000213918
0.00021389
0.00020293
0.000213901
0.000213897
0.000177917
0.000188183
0.000202947
0.000213935
0.000213917
0.000188177
0.000189943
0.000198709
0.000217308
0.00021726
0.000226386
0.000226348
0.000189905
0.000198685
0.000217329
0.000217301
0.000226407
0.00022638
0.000217305
0.000226391
0.00022637
0.000189943
0.000198713
0.000217325
0.00022642
0.000226392
0.000198687
0.000200047
0.00020581
0.000228958
0.000228927
0.000234936
0.000234919
0.00020003
0.000205808
0.000228979
0.000228951
0.000234956
0.000234921
0.000228939
0.000234959
0.000234916
0.000200052
0.000205802
0.00022896
0.000234961
0.000234936
0.000205784
0.000206427
0.000208676
0.000236332
0.000236312
0.00023892
0.000238888
0.000206423
0.000208651
0.000236352
0.000236312
0.000238941
0.000238894
0.00023631
0.000238931
0.0002389
0.000206416
0.000208656
0.000236331
0.000238936
0.000238921
0.000208652
0.0002087
0.000209318
0.000239355
0.000239319
0.000239914
0.000239881
0.000208673
0.000209297
0.000239377
0.000239328
0.000239938
0.000239893
0.000239336
0.000239925
0.000239896
0.00020868
0.000209305
0.000239356
0.000239937
0.000239918
0.000209295
0.000209191
0.000209688
0.000240014
0.000239985
0.000240379
0.000240366
0.000209174
0.000209693
0.000240037
0.000239995
0.000240402
0.000240373
0.000239995
0.000240417
0.000240366
0.000209182
0.000209698
0.000240017
0.000240425
0.000240389
0.000209672
0.000209579
0.000210045
0.000240519
0.000240508
0.000240835
0.000240828
0.000209586
0.000210053
0.000240542
0.000240515
0.000240858
0.000240831
0.000240509
0.000240884
0.000240832
0.000209591
0.000210054
0.000240532
0.000240887
0.000240854
0.000210033
0.000209893
0.000210193
0.000240895
0.000240889
0.000240998
0.000240984
0.000209902
0.0002102
0.000240918
0.000240891
0.000241021
0.000240985
0.000240894
0.000241041
0.000240991
0.000209902
0.000210196
0.000240915
0.00024104
0.000241012
0.00021018
0.000210025
0.000210269
0.000241034
0.000241017
0.000241138
0.000241117
0.00021003
0.000210257
0.000241058
0.000241019
0.000241162
0.000241122
0.000241024
0.00024117
0.000241122
0.000210026
0.000210259
0.000241045
0.000241177
0.000241145
0.000210243
0.00021011
0.000210318
0.000241156
0.000241135
0.000241148
0.000241124
0.000210098
0.000210302
0.00024118
0.000241141
0.000241171
0.000241133
0.000241141
0.000241176
0.000241135
0.000210102
0.000210312
0.000241164
0.000241188
0.000241159
0.000210304
0.000210111
0.000210247
0.000241128
0.000241103
0.000241123
0.000241098
0.000210096
0.000210233
0.000241152
0.000241113
0.000241148
0.00024111
0.000241114
0.000241152
0.000241105
0.000210105
0.000210242
0.000241138
0.000241166
0.00024113
0.000210219
0.000210094
0.000210298
0.000241137
0.000241115
0.000241128
0.000241115
0.000210081
0.000210313
0.000241161
0.000241125
0.000241151
0.000241118
0.00024112
0.000241172
0.000241118
0.00021009
0.000210306
0.000241144
0.000241177
0.000241141
0.000210295
0.00021009
0.000210256
0.000241114
0.000241102
0.000241115
0.000241105
0.000210106
0.00021027
0.000241136
0.000241104
0.000241137
0.000241104
0.000241104
0.000241166
0.000241103
0.000210098
0.000210259
0.000241126
0.000241165
0.000241124
0.000210229
0.000210107
0.000210252
0.000241125
0.000241114
0.000241114
0.000241095
0.000210121
0.000210245
0.000241147
0.000241113
0.000241136
0.000241097
0.000241113
0.000241152
0.000241099
0.00021011
0.000210246
0.000241134
0.000241157
0.00024112
0.000210236
0.000210057
0.000210302
0.000241111
0.000241091
0.000241122
0.000241096
0.00021005
0.000210291
0.000241134
0.000241094
0.000241146
0.000241103
0.000241094
0.000241148
0.0002411
0.000210051
0.000210294
0.000241115
0.000241156
0.000241122
0.000210265
0.000210137
0.000210212
0.000241123
0.000241097
0.000241111
0.000241082
0.000210126
0.0002102
0.000241148
0.000241105
0.000241136
0.000241095
0.000241102
0.000241135
0.000241089
0.000210129
0.000210206
0.000241124
0.000241145
0.000241111
0.000210189
0.000210038
0.000210296
0.000241114
0.000241085
0.000241111
0.00024108
0.000210023
0.000210278
0.00024114
0.000241099
0.000241137
0.000241097
0.000241092
0.000241131
0.000241092
0.000210033
0.000210291
0.000241114
0.000241143
0.000241113
0.000210286
0.000210089
0.00021028
0.000241109
0.000241078
0.000241106
0.000241076
0.00021007
0.000210263
0.000241135
0.000241095
0.00024113
0.000241091
0.00024109
0.000241124
0.000241087
0.000210084
0.000210275
0.000241112
0.000241136
0.000241108
0.000210236
0.000210121
0.000210202
0.000241107
0.000241079
0.000241094
0.00024107
0.000210104
0.000210191
0.000241131
0.000241092
0.000241118
0.000241078
0.000241089
0.000241115
0.000241077
0.000210115
0.000210192
0.000241111
0.000241122
0.000241099
0.000210192
0.000210027
0.000210277
0.0002411
0.000241077
0.000241091
0.000241071
0.000210016
0.00021027
0.000241123
0.000241083
0.000241115
0.000241074
0.000241081
0.000241114
0.000241074
0.000210017
0.000210268
0.000241103
0.000241118
0.000241097
0.000210273
0.000210072
0.000210272
0.000241096
0.000241076
0.000241091
0.000241072
0.000210065
0.000210265
0.00024112
0.000241079
0.000241114
0.000241075
0.000241079
0.000241116
0.000241072
0.000210063
0.000210264
0.000241101
0.000241119
0.000241094
0.000210216
0.000210109
0.000210227
0.000241103
0.000241085
0.000241065
0.000241047
0.000210102
0.000210221
0.000241127
0.000241088
0.000241095
0.000241049
0.000241085
0.000241097
0.000241047
0.000210102
0.000210222
0.000241108
0.0002411
0.000241075
0.00021021
0.000210065
0.000213798
0.000241237
0.000241222
0.000242841
0.000242828
0.000210059
0.000213792
0.000241254
0.000241226
0.000242856
0.000242832
0.000241224
0.000242856
0.00024283
0.000210059
0.000213796
0.000241237
0.000242862
0.000242841
0.000213787
0.000216065
0.000243429
0.000243417
0.000216058
0.000243442
0.000243421
0.000283529
0.000283533
0.000283518
0.000243416
0.00021606
0.000243425
0.000234728
0.000234779
0.000234733
0.000234733
0.00023511
0.000234806
0.000234702
0.000234742
0.00023511
0.000234806
0.000234742
0.000234702
0.00023486
0.000233567
0.000233568
0.000104653
3.87587e-05
0.000129428
3.98342e-05
2.16907e-05
2.28368e-05
0.000104616
3.87547e-05
0.00012946
3.98309e-05
0.000233969
0.000233969
0.000233969
0.000232942
0.000232942
0.000232942
0.000232942
0.000206249
9.37608e-05
0.000233996
0.000231746
0.000222768
8.72446e-05
0.000233595
2.169e-05
2.28361e-05
0.000206248
0.000233996
9.37597e-05
0.000231747
0.000222768
0.000233595
8.72484e-05
4.78455e-05
4.78363e-05
0.000231405
4.39757e-05
4.39601e-05
7.25106e-05
4.24332e-05
8.13316e-05
4.37612e-05
2.47747e-05
2.54626e-05
7.24964e-05
4.24283e-05
8.13406e-05
4.37576e-05
0.000232529
0.000232529
0.000232529
0.000231061
0.000231061
0.00023106
0.00023106