/*--------------------------------*- C++ -*----------------------------------*\
| =========                 |                                                 |
| \\      /  F ield         | OpenFOAM: The Open Source CFD Toolbox           |
|  \\    /   O peration     | Version:                                        |
|   \\  /    A nd           | Website:  www.openfoam.com                      |
|    \\/     M anipulation  |                                                 |
\*---------------------------------------------------------------------------*/
FoamFile
{
    version     2.0;
    format      ascii;
    class       volScalarField;
    location    "300";
    object      p;
}
// * * * * * * * * * * * * * * * * * * * * * * * * * * * * * * * * * * * * * //

dimensions      [0 2 -2 0 0 0 0];


internalField   nonuniform List<scalar> 
172512
(
0.00361573
0.00361617
0.00361617
0.00361609
0.00355736
0.00355768
0.00355768
0.00356049
0.00350604
0.00350604
0.00350604
0.0035088
0.00345379
0.00345378
0.00345378
0.00345651
0.00340242
0.00340242
0.00340242
0.00340512
0.00335244
0.00335245
0.00335245
0.00335511
0.00330391
0.00330394
0.00330394
0.00330656
0.00325668
0.00325671
0.00325672
0.0032593
0.00321055
0.00321058
0.00321058
0.00321314
0.00316531
0.00316535
0.00316535
0.00316788
0.0031208
0.00312084
0.00312084
0.00312334
0.00307689
0.00307692
0.00307692
0.0030794
0.00303349
0.00303352
0.00303352
0.00303597
0.00299056
0.00299059
0.00299059
0.00299304
0.00294805
0.00294808
0.00294808
0.00295052
0.00290596
0.00290598
0.00290598
0.00290841
0.00286425
0.00286426
0.00286426
0.00286669
0.0028229
0.00282291
0.00282291
0.00282533
0.00278189
0.00278189
0.00278189
0.0027843
0.00274118
0.00274117
0.00274117
0.00274358
0.00270076
0.00270075
0.00270075
0.00270315
0.00266061
0.0026606
0.0026606
0.00266299
0.00262071
0.0026207
0.0026207
0.00262309
0.00258105
0.00258103
0.00258103
0.00258341
0.00254163
0.0025416
0.0025416
0.00254397
0.00250241
0.00250238
0.00250238
0.00250474
0.00246341
0.00246338
0.00246338
0.00246572
0.00242461
0.00242458
0.00242458
0.00242689
0.002386
0.00238597
0.00238597
0.00238827
0.00234758
0.00234754
0.00234754
0.00234982
0.00230934
0.00230931
0.00230931
0.00231157
0.00227127
0.00227124
0.00227124
0.00227348
0.00223337
0.00223335
0.00223335
0.00223557
0.00219563
0.00219562
0.00219562
0.00219781
0.00215805
0.00215804
0.00215804
0.00216022
0.00212063
0.00212062
0.00212062
0.00212278
0.00208335
0.00208334
0.00208334
0.00208549
0.00204622
0.0020462
0.0020462
0.00204833
0.00200922
0.0020092
0.0020092
0.00201131
0.00197235
0.00197232
0.00197232
0.00197443
0.0019356
0.00193557
0.00193557
0.00193766
0.00189897
0.00189893
0.00189893
0.00190102
0.00186246
0.00186241
0.00186241
0.00186448
0.00182605
0.00182599
0.00182599
0.00182805
0.00178973
0.00178967
0.00178967
0.00179173
0.00175351
0.00175344
0.00175344
0.00175549
0.00171738
0.0017173
0.0017173
0.00171935
0.00168133
0.00168125
0.00168125
0.00168328
0.00164535
0.00164526
0.00164526
0.00164729
0.00160945
0.00160935
0.00160935
0.00161137
0.00157361
0.00157351
0.00157351
0.00157552
0.00153783
0.00153772
0.00153772
0.00153973
0.00150211
0.00150199
0.00150199
0.001504
0.00146643
0.00146632
0.00146632
0.00146832
0.00143081
0.00143068
0.00143068
0.00143268
0.00139522
0.0013951
0.0013951
0.00139709
0.00135967
0.00135954
0.00135954
0.00136153
0.00132416
0.00132403
0.00132403
0.00132601
0.00128867
0.00128854
0.00128854
0.00129053
0.00125321
0.00125309
0.00125309
0.00125507
0.00121775
0.00121763
0.00121763
0.0012196
0.00118235
0.00118223
0.00118223
0.0011842
0.00114686
0.00114674
0.00114674
0.00114871
0.00111149
0.00111139
0.00111139
0.00111336
0.00107605
0.00107591
0.00107592
0.00107788
0.0010407
0.0010406
0.0010406
0.00104257
0.001005
0.00100494
0.00100494
0.00100698
0.000968284
0.000968238
0.00096824
0.000970314
0.0009321
0.000932046
0.000932041
0.000934056
0.000897912
0.00089772
0.00089772
0.000899588
0.000865301
0.0008649
0.000864901
0.00086661
0.000832781
0.000832307
0.000832308
0.000833983
0.000799654
0.000799245
0.000799245
0.000800975
0.000765467
0.000765183
0.000765182
0.000767014
0.000730116
0.000729946
0.000729946
0.000731874
0.000694013
0.000693933
0.000693934
0.000695926
0.000657589
0.000657551
0.000657551
0.000659576
0.000621032
0.000620995
0.000620995
0.000623028
0.000584405
0.000584375
0.000584374
0.000586412
0.000547752
0.000547722
0.000547722
0.000549763
0.000511079
0.000511055
0.000511055
0.000513097
0.000474393
0.000474366
0.000474366
0.00047641
0.000437705
0.000437681
0.00043768
0.000439724
0.000401014
0.000400986
0.000400986
0.00040303
0.000364325
0.000364299
0.0003643
0.000366343
0.000327634
0.000327607
0.000327607
0.00032965
0.000290941
0.000290915
0.000290915
0.000292959
0.000254244
0.000254221
0.000254221
0.000256264
0.000217545
0.00021752
0.00021752
0.000219563
0.000180852
0.00018083
0.00018083
0.000182873
0.000144161
0.000144144
0.000144144
0.000146186
0.000107462
0.00010745
0.00010745
0.000109494
7.07718e-05
7.07504e-05
7.07499e-05
7.28053e-05
3.48401e-05
3.42222e-05
3.42186e-05
3.62385e-05
9.82266e-06
6.42947e-06
6.42636e-06
4.83936e-06
0.0036259
0.00362496
0.00362495
0.00362589
0.00362495
0.00362495
0.00362385
0.00362385
0.00362385
0.00362385
0.00362495
0.00362495
0.0036259
0.00362495
0.00362495
0.00362589
0.00361609
0.00356693
0.00361617
0.00361617
0.00356907
0.00356907
0.00361609
0.00356693
0.00361617
0.00361617
0.00356907
0.00356907
0.00361617
0.00356907
0.00356907
0.00361609
0.00356693
0.00361617
0.00356907
0.00356907
0.00356693
0.00356049
0.00351588
0.00355768
0.00355767
0.00351925
0.00351925
0.00356049
0.00351588
0.00355768
0.00355768
0.00351924
0.00351925
0.00355768
0.00351925
0.00351925
0.00356049
0.00351588
0.00355768
0.00351925
0.00351924
0.00351588
0.0035088
0.00346349
0.00350605
0.00350605
0.00346678
0.00346677
0.0035088
0.00346349
0.00350604
0.00350604
0.00346677
0.00346677
0.00350604
0.00346677
0.00346677
0.0035088
0.00346349
0.00350604
0.00346677
0.00346677
0.00346349
0.0034565
0.00341194
0.00345378
0.00345378
0.00341514
0.00341514
0.0034565
0.00341194
0.00345378
0.00345378
0.00341514
0.00341514
0.00345378
0.00341514
0.00341514
0.0034565
0.00341193
0.00345378
0.00341514
0.00341514
0.00341194
0.00340512
0.00336171
0.00340242
0.00340242
0.00336481
0.00336481
0.00340512
0.00336171
0.00340242
0.00340242
0.00336481
0.00336481
0.00340242
0.00336481
0.00336481
0.00340512
0.00336171
0.00340242
0.00336481
0.00336481
0.00336171
0.00335511
0.00331295
0.00335246
0.00335246
0.00331594
0.00331594
0.00335511
0.00331295
0.00335245
0.00335246
0.00331594
0.00331594
0.00335246
0.00331594
0.00331594
0.00335511
0.00331295
0.00335245
0.00331594
0.00331594
0.00331295
0.00330656
0.00326552
0.00330394
0.00330394
0.00326841
0.00326841
0.00330655
0.00326552
0.00330394
0.00330394
0.00326841
0.00326841
0.00330394
0.00326841
0.00326841
0.00330656
0.00326551
0.00330394
0.00326842
0.00326841
0.00326552
0.0032593
0.00321921
0.00325671
0.00325671
0.00322202
0.00322202
0.0032593
0.00321921
0.00325671
0.00325671
0.00322202
0.00322202
0.00325671
0.00322202
0.00322202
0.0032593
0.00321921
0.00325671
0.00322203
0.00322202
0.00321921
0.00321314
0.00317383
0.00321058
0.00321058
0.00317659
0.00317659
0.00321314
0.00317383
0.00321058
0.00321058
0.00317659
0.00317659
0.00321058
0.00317659
0.00317659
0.00321314
0.00317383
0.00321058
0.00317659
0.00317659
0.00317383
0.00316788
0.0031292
0.00316535
0.00316535
0.00313191
0.00313191
0.00316788
0.00312919
0.00316535
0.00316535
0.00313191
0.00313191
0.00316535
0.00313191
0.00313191
0.00316788
0.0031292
0.00316535
0.00313191
0.00313191
0.0031292
0.00312334
0.00308517
0.00312084
0.00312084
0.00308785
0.00308785
0.00312334
0.00308517
0.00312084
0.00312084
0.00308785
0.00308785
0.00312084
0.00308785
0.00308785
0.00312334
0.00308517
0.00312084
0.00308785
0.00308785
0.00308517
0.0030794
0.00304167
0.00307692
0.00307692
0.00304433
0.00304433
0.0030794
0.00304167
0.00307692
0.00307692
0.00304433
0.00304433
0.00307692
0.00304433
0.00304433
0.0030794
0.00304167
0.00307692
0.00304433
0.00304433
0.00304167
0.00303597
0.00299866
0.00303352
0.00303352
0.00300128
0.00300128
0.00303597
0.00299867
0.00303352
0.00303352
0.00300128
0.00300128
0.00303352
0.00300128
0.00300128
0.00303597
0.00299867
0.00303352
0.00300128
0.00300128
0.00299866
0.00299303
0.0029561
0.00299059
0.00299059
0.00295867
0.00295867
0.00299304
0.0029561
0.00299059
0.00299059
0.00295867
0.00295867
0.00299059
0.00295867
0.00295865
0.00299304
0.0029561
0.00299059
0.00295867
0.00295867
0.00295609
0.00295052
0.00291394
0.00294808
0.00294808
0.00291647
0.00291647
0.00295052
0.00291394
0.00294808
0.00294808
0.00291646
0.00291646
0.00294808
0.00291647
0.00291647
0.00295052
0.00291394
0.00294808
0.00291646
0.00291646
0.00291394
0.00290841
0.00287216
0.00290598
0.00290598
0.00287466
0.00287466
0.00290841
0.00287216
0.00290598
0.00290598
0.00287466
0.00287466
0.00290598
0.00287466
0.00287466
0.00290841
0.00287216
0.00290598
0.00287466
0.00287466
0.00287216
0.00286669
0.00283075
0.00286426
0.00286426
0.00283322
0.00283322
0.00286669
0.00283075
0.00286426
0.00286426
0.00283322
0.00283322
0.00286426
0.00283322
0.00283322
0.00286669
0.00283075
0.00286426
0.00283322
0.00283322
0.00283075
0.00282533
0.00278968
0.00282291
0.00282291
0.00279211
0.00279211
0.00282533
0.00278968
0.00282291
0.00282291
0.00279211
0.00279211
0.00282291
0.00279211
0.00279211
0.00282533
0.00278968
0.00282291
0.00279211
0.00279211
0.00278968
0.0027843
0.00274892
0.00278189
0.00278189
0.00275132
0.00275132
0.0027843
0.00274893
0.00278189
0.00278189
0.00275132
0.00275132
0.00278189
0.00275132
0.00275132
0.0027843
0.00274893
0.00278189
0.00275132
0.00275132
0.00274893
0.00274358
0.00270846
0.00274117
0.00274117
0.00271083
0.00271083
0.00274358
0.00270846
0.00274117
0.00274118
0.00271083
0.00271083
0.00274118
0.00271083
0.00271083
0.00274358
0.00270846
0.00274117
0.00271083
0.00271083
0.00270846
0.00270315
0.00266827
0.00270075
0.00270075
0.00267061
0.00267061
0.00270315
0.00266827
0.00270075
0.00270075
0.00267061
0.00267061
0.00270075
0.00267061
0.00267061
0.00270315
0.00266827
0.00270075
0.00267061
0.00267061
0.00266827
0.00266299
0.00262834
0.0026606
0.0026606
0.00263065
0.00263065
0.00266299
0.00262834
0.0026606
0.0026606
0.00263065
0.00263065
0.0026606
0.00263065
0.00263065
0.00266299
0.00262834
0.0026606
0.00263065
0.00263065
0.00262834
0.00262308
0.00258864
0.0026207
0.0026207
0.00259093
0.00259093
0.00262309
0.00258864
0.0026207
0.0026207
0.00259093
0.00259093
0.0026207
0.00259093
0.00259093
0.00262308
0.00258864
0.0026207
0.00259093
0.00259093
0.00258864
0.00258341
0.00254917
0.00258103
0.00258103
0.00255144
0.00255144
0.00258341
0.00254917
0.00258103
0.00258103
0.00255144
0.00255144
0.00258103
0.00255144
0.00255144
0.00258341
0.00254917
0.00258103
0.00255144
0.00255144
0.00254917
0.00254397
0.00250991
0.0025416
0.0025416
0.00251217
0.00251217
0.00254397
0.00250991
0.0025416
0.0025416
0.00251217
0.00251217
0.0025416
0.00251217
0.00251217
0.00254397
0.00250991
0.0025416
0.00251217
0.00251217
0.00250991
0.00250474
0.00247087
0.00250238
0.00250238
0.00247311
0.00247311
0.00250474
0.00247087
0.00250238
0.00250238
0.00247311
0.00247311
0.00250238
0.00247311
0.00247311
0.00250474
0.00247087
0.00250238
0.00247311
0.00247311
0.00247087
0.00246572
0.00243203
0.00246338
0.00246338
0.00243426
0.00243426
0.00246572
0.00243203
0.00246338
0.00246338
0.00243426
0.00243426
0.00246338
0.00243426
0.00243426
0.00246572
0.00243203
0.00246338
0.00243426
0.00243426
0.00243203
0.00242689
0.00239338
0.00242458
0.00242458
0.0023956
0.0023956
0.00242689
0.00239338
0.00242458
0.00242458
0.0023956
0.0023956
0.00242458
0.0023956
0.0023956
0.00242689
0.00239338
0.00242458
0.0023956
0.0023956
0.00239338
0.00238827
0.00235492
0.00238597
0.00238597
0.00235713
0.00235713
0.00238827
0.00235492
0.00238597
0.00238597
0.00235713
0.00235713
0.00238597
0.00235713
0.00235713
0.00238827
0.00235492
0.00238597
0.00235713
0.00235713
0.00235492
0.00234982
0.00231665
0.00234754
0.00234754
0.00231885
0.00231885
0.00234982
0.00231665
0.00234754
0.00234754
0.00231885
0.00231885
0.00234754
0.00231885
0.00231885
0.00234982
0.00231665
0.00234754
0.00231885
0.00231885
0.00231665
0.00231156
0.00227855
0.00230931
0.00230931
0.00228074
0.00228074
0.00231156
0.00227855
0.00230931
0.00230931
0.00228074
0.00228074
0.00230931
0.00228074
0.00228074
0.00231157
0.00227855
0.00230931
0.00228074
0.00228074
0.00227855
0.00227348
0.00224062
0.00227124
0.00227124
0.00224281
0.00224281
0.00227348
0.00224062
0.00227124
0.00227124
0.00224281
0.00224281
0.00227124
0.00224281
0.00224281
0.00227348
0.00224062
0.00227124
0.00224281
0.00224281
0.00224062
0.00223557
0.00220285
0.00223335
0.00223335
0.00220503
0.00220504
0.00223557
0.00220285
0.00223335
0.00223335
0.00220503
0.00220504
0.00223335
0.00220503
0.00220504
0.00223557
0.00220285
0.00223335
0.00220504
0.00220503
0.00220285
0.00219781
0.00216524
0.00219562
0.00219562
0.00216742
0.00216742
0.00219781
0.00216524
0.00219562
0.00219562
0.00216742
0.00216742
0.00219562
0.00216742
0.00216742
0.00219781
0.00216524
0.00219562
0.00216742
0.00216742
0.00216524
0.00216022
0.00212779
0.00215804
0.00215804
0.00212996
0.00212996
0.00216022
0.00212779
0.00215804
0.00215804
0.00212996
0.00212996
0.00215804
0.00212996
0.00212996
0.00216022
0.00212779
0.00215804
0.00212996
0.00212996
0.00212779
0.00212278
0.00209048
0.00212062
0.00212062
0.00209265
0.00209265
0.00212278
0.00209048
0.00212062
0.00212062
0.00209265
0.00209265
0.00212062
0.00209265
0.00209265
0.00212278
0.00209048
0.00212062
0.00209265
0.00209265
0.00209048
0.00208548
0.00205332
0.00208334
0.00208334
0.00205547
0.00205547
0.00208548
0.00205332
0.00208334
0.00208334
0.00205547
0.00205547
0.00208334
0.00205547
0.00205547
0.00208549
0.00205332
0.00208334
0.00205547
0.00205547
0.00205332
0.00204833
0.00201629
0.0020462
0.0020462
0.00201844
0.00201844
0.00204833
0.00201629
0.0020462
0.0020462
0.00201844
0.00201844
0.0020462
0.00201844
0.00201844
0.00204833
0.00201629
0.0020462
0.00201844
0.00201844
0.00201629
0.00201131
0.00197939
0.0020092
0.0020092
0.00198153
0.00198153
0.00201131
0.00197939
0.0020092
0.0020092
0.00198153
0.00198153
0.0020092
0.00198153
0.00198153
0.00201131
0.00197939
0.0020092
0.00198153
0.00198153
0.00197939
0.00197443
0.00194261
0.00197232
0.00197232
0.00194475
0.00194475
0.00197443
0.00194261
0.00197232
0.00197232
0.00194475
0.00194475
0.00197232
0.00194475
0.00194475
0.00197443
0.00194261
0.00197232
0.00194475
0.00194475
0.00194261
0.00193766
0.00190596
0.00193557
0.00193557
0.00190808
0.00190808
0.00193766
0.00190596
0.00193557
0.00193557
0.00190808
0.00190808
0.00193557
0.00190808
0.00190808
0.00193766
0.00190596
0.00193557
0.00190808
0.00190808
0.00190596
0.00190102
0.00186942
0.00189893
0.00189893
0.00187153
0.00187153
0.00190102
0.00186942
0.00189893
0.00189893
0.00187153
0.00187153
0.00189893
0.00187153
0.00187153
0.00190102
0.00186942
0.00189893
0.00187153
0.00187153
0.00186941
0.00186448
0.00183298
0.00186241
0.00186241
0.00183509
0.00183508
0.00186448
0.00183298
0.00186241
0.00186241
0.00183508
0.00183509
0.00186241
0.00183508
0.00183509
0.00186448
0.00183298
0.00186241
0.00183509
0.00183509
0.00183298
0.00182805
0.00179664
0.00182599
0.00182599
0.00179874
0.00179874
0.00182805
0.00179664
0.00182599
0.00182599
0.00179874
0.00179874
0.00182599
0.00179874
0.00179874
0.00182805
0.00179664
0.00182599
0.00179874
0.00179874
0.00179664
0.00179173
0.0017604
0.00178967
0.00178967
0.00176249
0.00176249
0.00179173
0.0017604
0.00178967
0.00178967
0.00176249
0.00176249
0.00178967
0.00176249
0.00176249
0.00179173
0.0017604
0.00178967
0.00176249
0.00176249
0.0017604
0.00175549
0.00172425
0.00175344
0.00175344
0.00172633
0.00172633
0.00175549
0.00172425
0.00175344
0.00175344
0.00172633
0.00172633
0.00175344
0.00172633
0.00172633
0.00175549
0.00172425
0.00175344
0.00172633
0.00172633
0.00172425
0.00171935
0.00168818
0.0017173
0.0017173
0.00169025
0.00169025
0.00171935
0.00168818
0.0017173
0.0017173
0.00169025
0.00169025
0.0017173
0.00169025
0.00169025
0.00171935
0.00168818
0.0017173
0.00169025
0.00169025
0.00168818
0.00168328
0.00165218
0.00168125
0.00168125
0.00165425
0.00165425
0.00168328
0.00165218
0.00168125
0.00168125
0.00165425
0.00165425
0.00168125
0.00165425
0.00165425
0.00168328
0.00165218
0.00168125
0.00165425
0.00165425
0.00165218
0.00164729
0.00161626
0.00164526
0.00164526
0.00161833
0.00161832
0.00164729
0.00161626
0.00164526
0.00164526
0.00161832
0.00161832
0.00164526
0.00161833
0.00161833
0.00164729
0.00161626
0.00164526
0.00161833
0.00161833
0.00161626
0.00161137
0.00158041
0.00160935
0.00160935
0.00158246
0.00158246
0.00161137
0.00158041
0.00160935
0.00160935
0.00158246
0.00158246
0.00160935
0.00158246
0.00158246
0.00161137
0.00158041
0.00160935
0.00158246
0.00158246
0.00158041
0.00157552
0.00154461
0.00157351
0.00157351
0.00154666
0.00154666
0.00157552
0.00154461
0.00157351
0.00157351
0.00154666
0.00154666
0.00157351
0.00154666
0.00154666
0.00157552
0.00154461
0.00157351
0.00154666
0.00154666
0.00154461
0.00153973
0.00150888
0.00153772
0.00153772
0.00151092
0.00151092
0.00153973
0.00150888
0.00153772
0.00153772
0.00151092
0.00151092
0.00153772
0.00151092
0.00151092
0.00153973
0.00150888
0.00153772
0.00151092
0.00151092
0.00150887
0.001504
0.00147319
0.00150199
0.00150199
0.00147523
0.00147523
0.001504
0.00147319
0.00150199
0.00150199
0.00147523
0.00147523
0.00150199
0.00147523
0.00147523
0.001504
0.00147319
0.00150199
0.00147523
0.00147523
0.00147319
0.00146832
0.00143755
0.00146632
0.00146632
0.00143959
0.00143959
0.00146832
0.00143755
0.00146632
0.00146632
0.00143959
0.00143959
0.00146632
0.00143959
0.00143959
0.00146832
0.00143755
0.00146632
0.00143959
0.00143959
0.00143755
0.00143268
0.00140196
0.00143068
0.00143068
0.00140399
0.00140399
0.00143268
0.00140196
0.00143068
0.00143068
0.00140399
0.00140399
0.00143068
0.00140399
0.00140399
0.00143268
0.00140196
0.00143068
0.00140399
0.00140399
0.00140196
0.00139709
0.0013664
0.0013951
0.0013951
0.00136843
0.00136843
0.00139709
0.0013664
0.0013951
0.0013951
0.00136843
0.00136843
0.0013951
0.00136843
0.00136843
0.00139709
0.0013664
0.0013951
0.00136843
0.00136843
0.0013664
0.00136153
0.00133088
0.00135954
0.00135954
0.0013329
0.0013329
0.00136153
0.00133088
0.00135954
0.00135954
0.0013329
0.0013329
0.00135954
0.0013329
0.0013329
0.00136153
0.00133088
0.00135954
0.0013329
0.0013329
0.00133088
0.00132601
0.00129539
0.00132403
0.00132403
0.00129741
0.00129741
0.00132601
0.00129539
0.00132403
0.00132403
0.00129741
0.00129741
0.00132403
0.00129741
0.00129741
0.00132601
0.00129539
0.00132403
0.00129741
0.00129741
0.00129539
0.00129053
0.00125993
0.00128854
0.00128854
0.00126195
0.00126195
0.00129053
0.00125993
0.00128854
0.00128854
0.00126195
0.00126195
0.00128854
0.00126195
0.00126195
0.00129053
0.00125993
0.00128854
0.00126195
0.00126195
0.00125993
0.00125507
0.00122447
0.00125309
0.00125309
0.00122649
0.00122649
0.00125507
0.00122447
0.00125309
0.00125309
0.00122649
0.00122649
0.00125309
0.00122649
0.00122649
0.00125506
0.00122447
0.00125309
0.00122649
0.00122649
0.00122447
0.0012196
0.00118907
0.00121763
0.00121763
0.00119108
0.00119108
0.0012196
0.00118907
0.00121763
0.00121763
0.00119108
0.00119108
0.00121763
0.00119108
0.00119108
0.0012196
0.00118907
0.00121763
0.00119108
0.00119108
0.00118907
0.0011842
0.00115359
0.00118223
0.00118223
0.00115561
0.00115561
0.0011842
0.00115359
0.00118223
0.00118223
0.00115561
0.00115561
0.00118223
0.00115561
0.00115561
0.0011842
0.00115359
0.00118223
0.00115561
0.00115561
0.00115359
0.00114871
0.00111822
0.00114674
0.00114674
0.00112021
0.00112021
0.00114871
0.00111822
0.00114674
0.00114674
0.00112021
0.00112021
0.00114674
0.00112021
0.00112021
0.00114871
0.00111822
0.00114674
0.00112021
0.00112021
0.00111822
0.00111336
0.00108277
0.00111139
0.00111139
0.0010848
0.0010848
0.00111336
0.00108277
0.00111139
0.00111139
0.0010848
0.0010848
0.00111139
0.0010848
0.0010848
0.00111336
0.00108277
0.00111139
0.0010848
0.0010848
0.00108277
0.00107788
0.0010474
0.00107591
0.00107591
0.0010494
0.0010494
0.00107788
0.0010474
0.00107591
0.00107592
0.0010494
0.00104939
0.00107592
0.0010494
0.0010494
0.00107788
0.0010474
0.00107592
0.00104939
0.00104939
0.0010474
0.00104257
0.00101195
0.0010406
0.0010406
0.00101397
0.00101397
0.00104257
0.00101195
0.0010406
0.0010406
0.00101397
0.00101397
0.0010406
0.00101397
0.00101397
0.00104257
0.00101195
0.0010406
0.00101397
0.00101397
0.00101195
0.00100698
0.000975388
0.00100494
0.00100494
0.000977449
0.000977454
0.00100698
0.000975387
0.00100494
0.00100494
0.000977455
0.000977451
0.00100494
0.000977454
0.000977456
0.00100698
0.000975389
0.00100494
0.000977451
0.000977456
0.00097539
0.000970312
0.000938952
0.000968238
0.000968238
0.000940942
0.000940944
0.000970311
0.000938956
0.00096824
0.00096824
0.000940941
0.00094094
0.000968239
0.000940945
0.000940943
0.000970314
0.00093895
0.00096824
0.00094094
0.000940942
0.000938953
0.000934054
0.000904216
0.000932043
0.000932046
0.000906122
0.000906123
0.000934058
0.000904216
0.000932043
0.000932041
0.000906121
0.00090612
0.000932044
0.000906121
0.00090612
0.000934052
0.000904213
0.000932043
0.00090612
0.00090612
0.000904212
0.000899589
0.000871099
0.000897721
0.000897722
0.000873047
0.000873047
0.000899589
0.000871099
0.000897721
0.00089772
0.000873047
0.000873049
0.00089772
0.000873047
0.000873048
0.000899587
0.0008711
0.00089772
0.000873049
0.000873048
0.000871099
0.000866609
0.000838492
0.000864899
0.0008649
0.000840478
0.000840477
0.000866609
0.000838491
0.0008649
0.000864901
0.000840478
0.000840479
0.0008649
0.000840478
0.000840479
0.00086661
0.000838492
0.000864901
0.000840479
0.000840479
0.000838492
0.000833983
0.00080559
0.000832308
0.000832307
0.000807585
0.000807585
0.000833981
0.000805589
0.000832308
0.000832308
0.000807586
0.000807586
0.000832308
0.000807584
0.000807584
0.000833983
0.000805589
0.000832308
0.000807586
0.000807585
0.000805588
0.000800975
0.000771799
0.000799246
0.000799246
0.000773814
0.000773816
0.000800975
0.0007718
0.000799245
0.000799245
0.000773814
0.000773814
0.000799244
0.000773815
0.000773814
0.000800975
0.000771799
0.000799244
0.000773814
0.000773814
0.000771799
0.000767013
0.000736817
0.000765183
0.000765184
0.000738849
0.000738848
0.000767014
0.000736816
0.000765183
0.000765183
0.000738849
0.000738848
0.000765183
0.000738848
0.000738849
0.000767013
0.000736816
0.000765183
0.000738848
0.000738848
0.000736816
0.000731873
0.000700954
0.000729946
0.000729946
0.000702982
0.000702981
0.000731872
0.000700953
0.000729946
0.000729946
0.000702982
0.000702982
0.000729946
0.000702981
0.000702982
0.000731873
0.000700954
0.000729946
0.000702982
0.000702982
0.000700953
0.000695926
0.000664643
0.000693934
0.000693933
0.000666668
0.000666669
0.000695925
0.000664644
0.000693934
0.000693934
0.000666668
0.000666668
0.000693933
0.000666669
0.000666668
0.000695926
0.000664643
0.000693933
0.000666668
0.000666668
0.000664642
0.000659575
0.000628111
0.00065755
0.000657551
0.000630142
0.000630142
0.000659575
0.000628111
0.00065755
0.000657551
0.000630142
0.000630143
0.000657551
0.000630142
0.000630143
0.000659575
0.000628111
0.000657551
0.000630143
0.000630143
0.000628111
0.000623027
0.000591502
0.000620995
0.000620995
0.000593534
0.000593533
0.000623027
0.000591502
0.000620995
0.000620995
0.000593533
0.000593533
0.000620995
0.000593533
0.000593533
0.000623027
0.000591502
0.000620995
0.000593533
0.000593533
0.000591502
0.000586412
0.000554857
0.000584375
0.000584375
0.000556887
0.000556887
0.000586412
0.000554857
0.000584375
0.000584375
0.000556887
0.000556887
0.000584374
0.000556888
0.000556887
0.000586412
0.000554857
0.000584374
0.000556887
0.000556887
0.000554856
0.000549763
0.000518192
0.000547722
0.000547722
0.000520223
0.000520223
0.000549762
0.000518192
0.000547722
0.000547722
0.000520223
0.000520223
0.000547722
0.000520223
0.000520223
0.000549763
0.000518192
0.000547722
0.000520223
0.000520223
0.000518192
0.000513096
0.000481508
0.000511055
0.000511054
0.000483538
0.000483537
0.000513096
0.000481507
0.000511055
0.000511055
0.000483538
0.000483538
0.000511055
0.000483538
0.000483538
0.000513096
0.000481507
0.000511055
0.000483538
0.000483538
0.000481507
0.000476409
0.000444821
0.000474366
0.000474366
0.000446852
0.000446853
0.000476409
0.000444822
0.000474366
0.000474366
0.000446852
0.000446852
0.000474366
0.000446853
0.000446853
0.00047641
0.000444821
0.000474366
0.000446852
0.000446852
0.000444821
0.000439723
0.000408128
0.00043768
0.000437681
0.000410158
0.000410159
0.000439724
0.000408128
0.00043768
0.00043768
0.000410158
0.000410158
0.000437681
0.000410159
0.000410159
0.000439723
0.000408128
0.00043768
0.000410158
0.000410159
0.000408128
0.000403029
0.000371441
0.000400986
0.000400986
0.000373472
0.000373472
0.00040303
0.000371441
0.000400986
0.000400986
0.000373472
0.000373472
0.000400986
0.000373472
0.000373472
0.00040303
0.000371441
0.000400986
0.000373472
0.000373472
0.000371441
0.000366342
0.000334748
0.000364299
0.000364299
0.000336778
0.000336778
0.000366342
0.000334748
0.000364299
0.0003643
0.000336778
0.000336778
0.0003643
0.000336778
0.000336778
0.000366343
0.000334748
0.0003643
0.000336778
0.000336778
0.000334747
0.00032965
0.000298058
0.000327607
0.000327607
0.000300089
0.000300089
0.00032965
0.000298058
0.000327607
0.000327607
0.000300089
0.000300089
0.000327607
0.000300089
0.000300089
0.00032965
0.000298058
0.000327607
0.000300089
0.000300089
0.000298058
0.000292958
0.000261362
0.000290915
0.000290915
0.000263392
0.000263392
0.000292958
0.000261362
0.000290915
0.000290915
0.000263392
0.000263393
0.000290916
0.000263392
0.000263392
0.000292959
0.000261362
0.000290915
0.000263393
0.000263392
0.000261361
0.000256263
0.000224661
0.000254221
0.000254221
0.000226692
0.000226692
0.000256263
0.000224661
0.000254221
0.000254221
0.000226692
0.000226692
0.000254221
0.000226692
0.000226692
0.000256264
0.000224661
0.000254221
0.000226692
0.000226692
0.000224661
0.000219562
0.00018797
0.00021752
0.00021752
0.000190001
0.000190001
0.000219562
0.000187971
0.00021752
0.00021752
0.000190001
0.000190001
0.00021752
0.000190001
0.000190001
0.000219562
0.00018797
0.00021752
0.000190001
0.000190001
0.00018797
0.000182872
0.000151282
0.00018083
0.00018083
0.000153311
0.000153311
0.000182872
0.000151282
0.00018083
0.00018083
0.000153311
0.000153311
0.00018083
0.000153311
0.000153311
0.000182872
0.000151282
0.00018083
0.000153311
0.00015331
0.000151281
0.000146186
0.000114586
0.000144144
0.000144144
0.000116618
0.000116618
0.000146186
0.000114586
0.000144144
0.000144144
0.000116618
0.000116618
0.000144144
0.000116618
0.000116618
0.000146186
0.000114586
0.000144144
0.000116617
0.000116618
0.000114586
0.000109494
7.78773e-05
0.00010745
0.00010745
7.99207e-05
7.99212e-05
0.000109494
7.78771e-05
0.00010745
0.00010745
7.99211e-05
7.99207e-05
0.00010745
7.99207e-05
7.99205e-05
0.000109494
7.7877e-05
0.000107449
7.99209e-05
7.99204e-05
7.78765e-05
7.28044e-05
4.11425e-05
7.07507e-05
7.07506e-05
4.32533e-05
4.32536e-05
7.28047e-05
4.1142e-05
7.07502e-05
7.07501e-05
4.32528e-05
4.32511e-05
7.07505e-05
4.32531e-05
4.32513e-05
7.28048e-05
4.11399e-05
7.07498e-05
4.32506e-05
4.32507e-05
4.11397e-05
3.62412e-05
6.4607e-06
3.42212e-05
3.42213e-05
8.29986e-06
8.29985e-06
3.62393e-05
6.46143e-06
3.4222e-05
3.42173e-05
8.29849e-06
8.29503e-06
3.4218e-05
8.29874e-06
8.29678e-06
3.62373e-05
6.4575e-06
3.42193e-05
8.29498e-06
8.29635e-06
6.46054e-06
4.84171e-06
6.43102e-06
6.43106e-06
4.8421e-06
6.42978e-06
6.42703e-06
9.82287e-06
9.82039e-06
9.82074e-06
6.42706e-06
4.83841e-06
6.42665e-06
0.00363377
0.00364395
0.00363848
0.00363848
0.00366102
0.00364795
0.00367619
0.00364189
0.00366102
0.00364795
0.0036419
0.00367619
0.00365247
0.00367991
0.00367991
0.00358794
0.00361191
0.0036168
0.00357835
0.00358864
0.0035805
0.00358793
0.00361193
0.00361678
0.00357833
0.00361573
0.00361573
0.00361573
0.00356875
0.00356875
0.00356875
0.00356875
0.00358573
0.00361287
0.00361552
0.0035933
0.0036155
0.00358321
0.0035942
0.00358871
0.00358048
0.00358573
0.00361552
0.00361288
0.00359329
0.00361551
0.0035942
0.00358321
0.00361757
0.00361757
0.00358843
0.00358359
0.00358359
0.00354297
0.00356252
0.00356349
0.00354145
0.0035612
0.00354099
0.00354297
0.00356253
0.0035635
0.00354145
0.00355736
0.00355736
0.00355736
0.00351931
0.00351931
0.00351931
0.00351931
0.00354157
0.00356225
0.00355751
0.00354538
0.00356101
0.00354192
0.00354528
0.00356121
0.00354099
0.00354157
0.00355751
0.00356225
0.00354538
0.00356101
0.00354528
0.00354192
0.00356342
0.00356342
0.00354193
0.00354237
0.00354237
0.0034905
0.00350931
0.00351037
0.00348948
0.00350894
0.00348919
0.0034905
0.00350931
0.00351037
0.00348948
0.00350604
0.00350604
0.00350604
0.00346677
0.00346677
0.00346677
0.00346677
0.00348959
0.00350965
0.00350597
0.0034929
0.00350916
0.0034899
0.00349283
0.00350894
0.00348919
0.00348959
0.00350597
0.00350965
0.0034929
0.00350916
0.00349283
0.0034899
0.00350993
0.00350993
0.00348963
0.00349001
0.00349001
0.00343798
0.00345663
0.00345749
0.00343722
0.00345642
0.00343703
0.00343798
0.00345663
0.00345749
0.00343722
0.00345379
0.00345379
0.00345379
0.00341514
0.00341514
0.00341514
0.00341514
0.00343747
0.00345701
0.00345375
0.00344083
0.00345677
0.00343763
0.00344081
0.00345642
0.00343703
0.00343747
0.00345375
0.00345701
0.00344083
0.00345677
0.00344081
0.00343763
0.00345706
0.00345706
0.00343758
0.00343758
0.00343758
0.00338678
0.00340515
0.00340576
0.00338623
0.00340499
0.00338609
0.00338678
0.00340515
0.00340576
0.00338623
0.00340242
0.00340242
0.00340242
0.0033648
0.0033648
0.0033648
0.0033648
0.00338651
0.00340548
0.0034024
0.00338979
0.00340533
0.0033866
0.00338976
0.00340499
0.00338609
0.00338651
0.0034024
0.00340548
0.00338979
0.00340533
0.00338976
0.0033866
0.00340546
0.00340546
0.00338664
0.00338652
0.00338652
0.00333714
0.00335509
0.00335554
0.00333675
0.00335497
0.00333663
0.00333714
0.00335509
0.00335554
0.00333675
0.00335244
0.00335244
0.00335244
0.00331592
0.00331592
0.00331592
0.00331592
0.00333702
0.00335538
0.00335243
0.00334019
0.00335528
0.00333708