/*--------------------------------*- C++ -*----------------------------------*\
| =========                 |                                                 |
| \\      /  F ield         | OpenFOAM: The Open Source CFD Toolbox           |
|  \\    /   O peration     | Version:  2312                                  |
|   \\  /    A nd           | Website:  www.openfoam.com                      |
|    \\/     M anipulation  |                                                 |
\*---------------------------------------------------------------------------*/
FoamFile
{
    version     2.0;
    format      ascii;
    arch        "LSB;label=32;scalar=64";
    class       volScalarField;
    location    "300";
    object      epsilon;
}
// * * * * * * * * * * * * * * * * * * * * * * * * * * * * * * * * * * * * * //

dimensions      [0 2 -3 0 0 0 0];

internalField   nonuniform List<scalar> 
43008
(
1.40296e-07
2.15348e-07
1.36484e-07
2.21709e-07
2.21719e-07
3.34486e-07
3.14545e-07
3.29769e-07
2.15387e-07
2.15423e-07
2.19973e-07
2.20013e-07
3.29893e-07
2.15352e-07
2.15414e-07
2.19934e-07
2.20003e-07
2.19921e-07
2.19981e-07
3.14532e-07
3.29793e-07
2.15364e-07
2.19932e-07
2.19953e-07
3.29505e-07
3.34171e-07
2.21766e-07
2.21804e-07
3.34459e-07
2.21725e-07
2.21794e-07
2.21765e-07
3.34248e-07
2.2174e-07
3.46774e-06
8.88354e-06
3.42494e-06
8.88993e-06
1.85247e-05
3.46862e-06
8.88464e-06
3.42446e-06
8.89105e-06
1.40299e-07
1.40301e-07
1.40299e-07
1.3736e-07
1.37363e-07
1.37366e-07
1.37364e-07
9.88101e-07
2.16739e-07
2.66125e-06
1.59069e-07
1.85349e-05
1.85254e-05
9.88126e-07
1.59528e-07
2.63341e-06
2.16745e-07
9.61494e-07
1.59072e-07
2.66127e-06
3.19256e-07
5.05964e-06
5.0614e-06
3.58607e-06
8.897e-06
3.54942e-06
8.90295e-06
1.85007e-05
1.84921e-05
3.58485e-06
8.89822e-06
3.54899e-06
8.90422e-06
1.36487e-07
1.3649e-07
1.36488e-07
1.0724e-06
2.72073e-06
1.58256e-07
2.23637e-07
1.04486e-06
2.74559e-06
1.58112e-07
1.85014e-05
1.84926e-05
1.07336e-06
1.58267e-07
2.72091e-06
2.23645e-07
1.04515e-06
1.58122e-07
2.74775e-06
5.09495e-06
5.09667e-06
3.40705e-07
5.10915e-06
5.10888e-06
1.85319e-05
1.85221e-05
1.85348e-05
1.85253e-05
5.04219e-06
5.04563e-06
3.19726e-07
5.06097e-06
5.06165e-06
1.85054e-05
1.85144e-05
1.85085e-05
1.85176e-05
3.23901e-07
5.08607e-06
5.08677e-06
5.06908e-06
5.07248e-06
3.46757e-06
8.88359e-06
3.42501e-06
8.89001e-06
9.88645e-07
2.63327e-06
1.5953e-07
2.16783e-07
9.61154e-07
2.66125e-06
1.59077e-07
9.88084e-07
2.63278e-06
1.59533e-07
2.16825e-07
9.61548e-07
2.66359e-06
1.59078e-07
3.4899e-06
8.89651e-06
8.89044e-06
3.52904e-06
3.48989e-06
8.89675e-06
8.89054e-06
3.52891e-06
1.00243e-06
2.18315e-07
2.70454e-06
1.58441e-07
2.67814e-06
1.58739e-07
1.03065e-06
1.00281e-06
2.18353e-07
2.70671e-06
1.58442e-07
2.67756e-06
1.58742e-07
1.02997e-06
3.19792e-07
5.06124e-06
5.06113e-06
1.85231e-05
1.85081e-05
1.85171e-05
3.23853e-07
5.0865e-06
5.08622e-06
5.07219e-06
5.06937e-06
1.85061e-05
1.85153e-05
9.87912e-07
2.63374e-06
1.59531e-07
2.16748e-07
9.61498e-07
2.66179e-06
1.59074e-07
3.46774e-06
8.88457e-06
3.42507e-06
8.89016e-06
9.88066e-07
1.5954e-07
2.63394e-06
2.16815e-07
9.61459e-07
1.59084e-07
2.66196e-06
3.48928e-06
8.89777e-06
8.89157e-06
3.52983e-06
1.00298e-06
2.18277e-07
2.7065e-06
1.58437e-07
2.67874e-06
1.58739e-07
1.02983e-06
3.49005e-06
8.89688e-06
8.89149e-06
3.52912e-06
1.00287e-06
2.18343e-07
1.58445e-07
2.70529e-06
1.58748e-07
2.67892e-06
1.02999e-06
3.46838e-06
8.89032e-06
9.88618e-07
2.16787e-07
1.59073e-07
2.66143e-06
3.46807e-06
8.8899e-06
1.0028e-06
2.18263e-07
2.70448e-06
1.5843e-07
2.67806e-06
1.58727e-07
1.03006e-06
3.48925e-06
8.89692e-06
8.8908e-06
3.52962e-06
1.00242e-06
2.18316e-07
1.58438e-07
2.70626e-06
1.58738e-07
2.67833e-06
1.03053e-06
3.48947e-06
8.89659e-06
8.89119e-06
3.52961e-06
5.04543e-06
5.04238e-06
3.1978e-07
5.06144e-06
5.0612e-06
1.85326e-05
1.85231e-05
1.85087e-05
1.85179e-05
3.23736e-07
5.08663e-06
5.08627e-06
5.07231e-06
5.0693e-06
1.85063e-05
1.85154e-05
9.87949e-07
1.59526e-07
2.63274e-06
2.16763e-07
9.61612e-07
1.59068e-07
2.66347e-06
3.46782e-06
8.88456e-06
3.42539e-06
8.89013e-06
3.46787e-06
8.8846e-06
3.42534e-06
8.89104e-06
1.00304e-06
2.18273e-07
1.58437e-07
2.70454e-06
1.58738e-07
2.67835e-06
1.03007e-06
1.00307e-06
2.1829e-07
1.58434e-07
2.70649e-06
1.58735e-07
2.67758e-06
1.02994e-06
3.49021e-06
8.89679e-06
8.89142e-06
3.52932e-06
3.49018e-06
8.89775e-06
8.89157e-06
3.52936e-06
1.8524e-05
1.85263e-05
3.24331e-07
5.08477e-06
5.08652e-06
5.07045e-06
5.07219e-06
1.85072e-05
1.85164e-05
1.85096e-05
1.85187e-05
1.84979e-05
1.84894e-05
1.85011e-05
1.84924e-05
5.09351e-06
5.09677e-06
3.40614e-07
5.10891e-06
5.11102e-06
3.58564e-06
8.89723e-06
3.54943e-06
8.90312e-06
1.0729e-06
2.72072e-06
1.58269e-07
2.23693e-07
1.04447e-06
2.74768e-06
1.58125e-07
1.0725e-06
2.72019e-06
1.58271e-07
2.23735e-07
1.04495e-06
2.74827e-06
1.58127e-07
5.09648e-06
5.09377e-06
3.40733e-07
5.11075e-06
5.10651e-06
1.84986e-05
1.84899e-05
1.07223e-06
2.72017e-06
1.58267e-07
2.23649e-07
1.04505e-06
2.74813e-06
1.5812e-07
3.58514e-06
8.89812e-06
3.54956e-06
8.90334e-06
1.07212e-06
1.58276e-07
2.72149e-06
2.23727e-07
1.0451e-06
1.58128e-07
2.74636e-06
3.5858e-06
8.8974e-06
3.54891e-06
8.90336e-06
1.07287e-06
1.58266e-07
2.71981e-06
2.237e-07
1.04452e-06
1.58121e-07
2.74797e-06
3.5858e-06
8.89779e-06
3.54893e-06
8.90301e-06
5.09665e-06
5.09377e-06
3.40662e-07
5.10893e-06
5.10679e-06
1.84989e-05
1.84901e-05
1.0732e-06
1.58265e-07
2.72066e-06
2.23671e-07
1.04516e-06
1.5812e-07
2.74623e-06
3.58643e-06
8.89802e-06
3.54971e-06
8.90323e-06
3.58626e-06
8.89825e-06
3.54974e-06
8.90421e-06
1.84999e-05
1.84911e-05
1.85022e-05
1.84935e-05
1.21038e-05
3.45814e-06
1.06415e-05
4.33897e-06
1.06397e-05
4.33186e-06
1.21067e-05
2.25125e-05
7.18595e-06
8.88651e-06
2.25106e-05
7.18636e-06
1.21036e-05
3.43499e-06
1.06382e-05
4.30677e-06
1.21008e-05
1.06396e-05
4.31443e-06
2.25012e-05
7.19159e-06
8.88704e-06
7.19167e-06
2.2503e-05
1.85333e-05
1.85256e-05
1.21036e-05
3.45753e-06
4.33887e-06
1.06416e-05
4.33186e-06
1.06397e-05
1.21066e-05
2.25117e-05
7.18485e-06
8.88762e-06
2.25098e-05
7.18644e-06
1.21034e-05
3.43576e-06
4.3068e-06
1.06382e-05
1.21007e-05
4.31437e-06
1.06397e-05
2.25005e-05
7.19237e-06
8.88813e-06
7.19108e-06
2.25023e-05
1.85339e-05
1.85263e-05
9.71746e-06
2.19933e-05
2.19928e-05
2.19929e-05
2.19924e-05
9.71714e-06
3.80597e-06
5.04601e-06
1.7475e-06
8.97452e-06
3.81305e-06
5.0478e-06
1.74934e-06
8.97949e-06
9.71401e-06
2.20036e-05
2.20031e-05
3.82306e-06
8.98402e-06
5.05755e-06
1.77232e-06
1.76534e-06
8.97799e-06
3.82846e-06
3.83004e-06
8.98895e-06
5.05931e-06
1.77413e-06
1.76688e-06
8.98274e-06
3.83556e-06
1.21173e-05
3.57691e-06
1.06556e-05
4.42436e-06
1.06524e-05
4.41898e-06
1.21205e-05
2.24744e-05
7.20645e-06
8.89977e-06
2.24728e-05
7.20667e-06
1.21169e-05
3.55778e-06
1.06483e-05
4.39901e-06
1.21137e-05
1.06513e-05
4.4049e-06
2.24633e-05
7.21013e-06
8.90021e-06
7.20997e-06
2.24649e-05
1.85e-05
1.84927e-05
1.21173e-05
3.57695e-06
4.42425e-06
1.06558e-05
4.41895e-06
1.06525e-05
1.21205e-05
2.24741e-05
7.20596e-06
8.90102e-06
2.24724e-05
7.20654e-06
1.21169e-05
3.55818e-06
4.3989e-06
1.06484e-05
1.21137e-05
4.4049e-06
1.06515e-05
2.2463e-05
7.20993e-06
8.90147e-06
7.20965e-06
2.24646e-05
1.85006e-05
1.84934e-05
9.72674e-06
2.19521e-05
2.19516e-05
2.19518e-05
2.19514e-05
9.72562e-06
3.89047e-06
1.83741e-06
9.00521e-06
5.09641e-06
3.8855e-06
1.84454e-06
9.01062e-06
3.89911e-06
1.83916e-06
9.01007e-06
5.09806e-06
3.89209e-06
1.84575e-06
9.01557e-06
9.72403e-06
2.19621e-05
2.19616e-05
9.72498e-06
2.19623e-05
2.19619e-05
3.90541e-06
9.01892e-06
5.1058e-06
1.86751e-06
1.86059e-06
9.01368e-06
3.90942e-06
3.91127e-06
9.02386e-06
5.108e-06
1.86889e-06
1.86235e-06
9.01857e-06
3.91831e-06
1.85309e-05
1.85229e-05
1.85339e-05
1.85262e-05
9.71774e-06
2.19934e-05
2.19929e-05
2.19931e-05
2.19925e-05
9.7174e-06
3.80586e-06
1.74019e-06
8.96782e-06
5.04743e-06
3.80021e-06
8.97427e-06
1.74747e-06
3.81282e-06
1.74172e-06
8.97287e-06
5.04795e-06
3.80716e-06
8.97988e-06
1.74909e-06
9.71432e-06
2.20035e-05
2.20029e-05
9.71453e-06
2.20038e-05
2.20033e-05
3.82295e-06
8.98372e-06
5.05614e-06
1.77223e-06
8.9776e-06
3.82822e-06
1.76514e-06
3.82986e-06
8.98917e-06
5.05952e-06
1.77405e-06
8.98287e-06
3.83529e-06
1.76674e-06
1.8506e-05
1.85136e-05
1.85093e-05
1.85168e-05
9.72004e-06
2.19827e-05
2.19822e-05
9.72062e-06
2.19829e-05
2.19826e-05
3.86575e-06
1.82051e-06
5.08156e-06
9.00176e-06
8.99597e-06
1.81374e-06
3.87047e-06
3.87279e-06
1.82219e-06
5.08518e-06
9.00723e-06
9.00143e-06
1.81548e-06
3.87762e-06
3.84962e-06
8.98693e-06
1.78962e-06
5.07357e-06
3.84478e-06
8.99292e-06
1.79681e-06
3.85675e-06
8.99231e-06
1.79134e-06
5.07453e-06
3.85172e-06
8.99835e-06
1.79808e-06
9.7231e-06
2.19723e-05
2.19723e-05
2.1972e-05
2.19719e-05
9.72233e-06
1.21038e-05
3.45819e-06
1.06414e-05
4.33923e-06
1.06396e-05
4.33147e-06
1.21067e-05
2.2512e-05
7.18298e-06
8.88654e-06
2.25102e-05
7.18519e-06
1.21036e-05
3.43505e-06
1.06381e-05
4.30634e-06
1.06395e-05
1.21009e-05
4.31467e-06
2.25008e-05
7.1909e-06
8.88714e-06
7.18977e-06
2.25026e-05
1.211e-05
1.06418e-05
4.35551e-06
3.49889e-06
1.21069e-05
1.06441e-05
4.36214e-06
2.24824e-05
8.89373e-06
7.20256e-06
2.2484e-05
7.20234e-06
2.24936e-05
7.19754e-06
8.89324e-06
2.24919e-05
7.19769e-06
1.21103e-05
3.52023e-06
1.06474e-05
4.38418e-06
1.21134e-05
1.06447e-05
4.37782e-06
1.211e-05
1.06417e-05
4.35509e-06
3.49896e-06
1.2107e-05
1.0644e-05
4.36231e-06
2.24819e-05
8.89391e-06
7.20099e-06
7.20004e-06
2.24835e-05
2.24931e-05
7.19482e-06
8.89342e-06
2.24915e-05
7.19628e-06
1.21103e-05
3.52035e-06
1.06474e-05
4.38444e-06
1.06446e-05
4.37751e-06
1.21135e-05
9.71775e-06
2.19932e-05
2.19934e-05
2.19928e-05
2.1993e-05
9.71745e-06
3.81269e-06
5.04752e-06
8.97956e-06
1.74937e-06
3.80733e-06
5.04753e-06
1.74816e-06
8.97504e-06
9.71431e-06
2.20037e-05
2.2004e-05
3.82991e-06
8.98905e-06
5.05938e-06
1.77418e-06
8.98223e-06
1.7668e-06
3.83548e-06
3.82165e-06
8.98447e-06
5.05618e-06
1.77288e-06
1.76441e-06
8.97755e-06
3.82943e-06
1.85317e-05
1.85238e-05
1.85088e-05
1.85164e-05
9.72017e-06
2.19825e-05
2.19827e-05
9.72069e-06
2.19829e-05
2.19831e-05
3.87204e-06
1.82241e-06
5.08489e-06
9.00679e-06
1.81545e-06
9.00107e-06
3.8792e-06
3.86493e-06
1.82136e-06
5.08182e-06
9.00247e-06
8.99606e-06
1.81293e-06
3.87035e-06
3.85832e-06
8.99193e-06
1.79138e-06
5.07423e-06
1.7985e-06
3.85174e-06
8.99805e-06
3.85083e-06
8.98698e-06
1.78908e-06
5.07368e-06
3.84371e-06
8.99362e-06
1.79717e-06
9.72318e-06
2.19724e-05
2.19728e-05
2.19722e-05
2.19724e-05
9.72243e-06
1.85068e-05
1.85144e-05
1.21038e-05
3.45836e-06
1.06415e-05
4.33949e-06
1.06397e-05
4.33123e-06
1.21067e-05
2.25112e-05
7.18399e-06
8.88671e-06
2.25094e-05
7.18384e-06
1.21036e-05
3.43505e-06
1.06382e-05
4.30633e-06
1.06396e-05
1.21009e-05
4.31487e-06
2.25001e-05
7.19042e-06
8.88806e-06
7.19005e-06
2.25018e-05
1.21099e-05
4.35547e-06
1.06419e-05
3.49981e-06
1.21068e-05
4.36219e-06
1.06442e-05
2.24818e-05
8.89493e-06
7.20249e-06
2.24835e-05
7.20187e-06
2.24929e-05
7.19631e-06
8.89443e-06
2.24912e-05
7.19787e-06
1.21102e-05
3.51974e-06
4.38414e-06
1.06476e-05
1.21133e-05
4.37782e-06
1.06448e-05
1.211e-05
1.06418e-05
4.35498e-06
3.4991e-06
1.2107e-05
1.06442e-05
4.36272e-06
2.24813e-05
8.89485e-06
7.20065e-06
7.20059e-06
2.24829e-05
2.24924e-05
7.19533e-06
8.89356e-06
2.24907e-05
7.19528e-06
1.21103e-05
3.52048e-06
1.06475e-05
4.38467e-06
1.06448e-05
4.37731e-06
1.21134e-05
1.21032e-05
3.45741e-06
4.3394e-06
1.06415e-05
4.33079e-06
1.06397e-05
1.21061e-05
2.24989e-05
7.19182e-06
8.88738e-06
7.19038e-06
2.2501e-05
1.21036e-05
3.45767e-06
1.06413e-05
4.33899e-06
1.06395e-05
4.33138e-06
1.21065e-05
2.24999e-05
7.19034e-06
8.88779e-06
7.19011e-06
2.25017e-05
1.21094e-05
4.35473e-06
1.06419e-05
3.49955e-06
1.21064e-05
4.36235e-06
1.06442e-05
2.248e-05
8.89411e-06
7.20163e-06
7.20123e-06
2.24821e-05
2.24915e-05
7.19621e-06
8.89364e-06
2.24895e-05
7.19699e-06
1.21097e-05
3.51974e-06
4.38442e-06
1.06475e-05
4.37718e-06
1.06447e-05
1.21128e-05
1.21098e-05
1.06417e-05
4.35504e-06
3.49955e-06
1.21068e-05
1.0644e-05
4.36234e-06
2.2481e-05
8.89452e-06
7.20047e-06
7.20026e-06
2.24827e-05
2.24922e-05
7.19505e-06
8.89327e-06
2.24905e-05
7.19506e-06
1.21101e-05
3.51981e-06
1.06473e-05
4.38433e-06
1.06445e-05
4.37733e-06
1.21132e-05
9.71732e-06
2.19924e-05
2.19927e-05
2.19921e-05
2.19923e-05
9.717e-06
3.81304e-06
1.74176e-06
8.97255e-06
5.0478e-06
8.97909e-06
3.80715e-06
1.7493e-06
3.80579e-06
1.74027e-06
8.96758e-06
5.04763e-06
1.74742e-06
3.80013e-06
8.9745e-06
9.71391e-06
2.20024e-05
2.20026e-05
2.20028e-05
9.71399e-06
2.2003e-05
3.82988e-06
8.98862e-06
5.05928e-06
1.77426e-06
8.98224e-06
1.76675e-06
3.8355e-06
3.82283e-06
8.98396e-06
5.05636e-06
1.77225e-06
1.76524e-06
8.97727e-06
3.8283e-06
1.85317e-05
1.8524e-05
1.85096e-05
1.8517e-05
9.71967e-06
2.19818e-05
2.1982e-05
9.72022e-06
2.19821e-05
2.19823e-05
3.87283e-06
1.82234e-06
5.08502e-06
9.00673e-06
1.81546e-06
9.00081e-06
3.87783e-06
3.86572e-06
1.82055e-06
5.08179e-06
9.00206e-06
8.99569e-06
1.81384e-06
3.87058e-06
3.85699e-06
8.99166e-06
1.79133e-06
5.07438e-06
1.79852e-06
3.85174e-06
8.99785e-06
3.84973e-06
8.98666e-06
1.78973e-06
5.07376e-06
3.84466e-06
8.99318e-06
1.79672e-06
9.72272e-06
2.19718e-05
2.1972e-05
2.19715e-05
2.19717e-05
9.72195e-06
1.85071e-05
1.85146e-05
1.21033e-05
3.45858e-06
4.33909e-06
1.06415e-05
4.3318e-06
1.06397e-05
1.21062e-05
2.25105e-05
7.18483e-06
8.8867e-06
7.18529e-06
2.25088e-05
1.21031e-05
3.43524e-06
4.30682e-06
1.06382e-05
4.31457e-06
1.21004e-05
1.06396e-05
2.24994e-05
7.19131e-06
8.88801e-06
7.19101e-06
2.25011e-05
1.21043e-05
3.45853e-06
4.33932e-06
1.06417e-05
4.33147e-06
1.06399e-05
1.21072e-05
2.25129e-05
7.18416e-06
8.88758e-06
2.25111e-05
7.18435e-06
1.21041e-05
3.43524e-06
4.30649e-06
1.06384e-05
1.21014e-05
4.31483e-06
1.06398e-05
2.25018e-05
7.18957e-06
8.88812e-06
7.18986e-06
2.25035e-05
1.21095e-05
4.35546e-06
1.06419e-05
3.49926e-06
1.21065e-05
4.36223e-06
1.06442e-05
2.24806e-05
8.89474e-06
7.20193e-06
7.20172e-06
2.24822e-05
2.24916e-05
7.19643e-06
8.8935e-06
2.249e-05
7.19643e-06
1.21098e-05
3.52059e-06
4.38421e-06
1.06475e-05
4.37781e-06
1.06448e-05
1.2113e-05
1.21105e-05
4.35517e-06
1.06421e-05
3.49931e-06
1.21075e-05
4.36272e-06
1.06444e-05
2.24831e-05
8.89494e-06
7.20001e-06
7.20053e-06
2.24847e-05
2.24941e-05
7.19588e-06
8.89443e-06
2.24924e-05
7.19608e-06
1.21108e-05
3.5206e-06
4.38463e-06
1.06477e-05
4.37744e-06
1.0645e-05
1.2114e-05
1.85326e-05
1.85249e-05
1.85349e-05
1.85272e-05
9.71982e-06
2.19826e-05
2.19822e-05
9.72037e-06
2.19829e-05
2.19825e-05
3.86494e-06
1.82104e-06
5.08319e-06
9.00205e-06
3.87185e-06
1.81383e-06
8.99644e-06
3.8719e-06
1.82236e-06
5.0849e-06
9.00698e-06
3.87909e-06
1.81547e-06
9.00129e-06
3.85132e-06
8.98734e-06
1.78981e-06
5.07259e-06
3.84471e-06
1.79705e-06
8.99319e-06
3.85838e-06
8.99214e-06
1.79139e-06
5.07437e-06
3.8517e-06
1.79863e-06
8.99812e-06
9.72287e-06
2.19726e-05
2.19722e-05
9.72211e-06
2.19723e-05
2.19719e-05
1.85081e-05
1.85155e-05
1.85104e-05
1.85179e-05
1.84974e-05
1.849e-05
1.85004e-05
1.8493e-05
9.72699e-06
2.1952e-05
2.1952e-05
2.19516e-05
2.19516e-05
9.7259e-06
3.89026e-06
1.83722e-06
9.00475e-06
5.09763e-06
3.88581e-06
9.01034e-06
1.84416e-06
3.89741e-06
1.83912e-06
9.01022e-06
5.09833e-06
3.8929e-06
9.01581e-06
1.84558e-06
9.72427e-06
2.19617e-05
2.19617e-05
9.72523e-06
2.1962e-05
2.1962e-05
3.90542e-06
9.01865e-06
5.10466e-06
1.86726e-06
9.01325e-06
3.90895e-06
1.86037e-06
3.91251e-06
9.02412e-06
5.10773e-06
1.86877e-06
9.01875e-06
3.91613e-06
1.86226e-06
1.21173e-05
3.5768e-06
1.06557e-05
4.42477e-06
1.06521e-05
4.41845e-06
1.21205e-05
2.2474e-05
7.20445e-06
8.89998e-06
2.24724e-05
7.20486e-06
1.2117e-05
3.55804e-06
1.06481e-05
4.39858e-06
1.06513e-05
1.21138e-05
4.40509e-06
2.24629e-05
7.20825e-06
8.90039e-06
7.20815e-06
2.24644e-05
9.727e-06
2.19517e-05
2.19522e-05
2.19514e-05
2.19519e-05
9.72593e-06
3.89913e-06
1.839e-06
9.00974e-06
5.09801e-06
9.01524e-06
3.89217e-06
1.84663e-06
3.89027e-06
1.83666e-06
9.00487e-06
5.09759e-06
1.84485e-06
3.88571e-06
9.01105e-06
9.72434e-06
2.19617e-05
2.19621e-05
2.1962e-05
9.72522e-06
2.19625e-05
3.91111e-06
9.02355e-06
5.10746e-06
1.87037e-06
9.01821e-06
1.86152e-06
3.91879e-06
3.90525e-06
9.01934e-06
5.10562e-06
1.86819e-06
1.85972e-06
9.01335e-06
3.90916e-06
1.8498e-05
1.84905e-05
1.21173e-05
3.57734e-06
1.06557e-05
4.42492e-06
1.06525e-05
4.41833e-06
1.21205e-05
2.24734e-05
7.20451e-06
8.90014e-06
2.24719e-05
7.20422e-06
1.2117e-05
3.55791e-06
1.06483e-05
4.39852e-06
1.06513e-05
1.21138e-05
4.4053e-06
2.24624e-05
7.20811e-06
8.90134e-06
7.20823e-06
2.24639e-05
1.21167e-05
3.57653e-06
4.42491e-06
1.0656e-05
4.41808e-06
1.06522e-05
1.21199e-05
2.24726e-05
7.20541e-06
8.90017e-06
7.20567e-06
2.24706e-05
1.21163e-05
3.55815e-06
4.39836e-06
1.06482e-05
4.405e-06
1.21132e-05
1.06515e-05
2.24611e-05
7.20915e-06
8.90062e-06
7.20904e-06
2.2463e-05
1.21171e-05
3.57649e-06
1.06558e-05
4.42422e-06
1.06519e-05
4.4184e-06
1.21203e-05
2.24731e-05
7.2041e-06
8.89983e-06
2.24716e-05
7.20412e-06
1.21167e-05
3.55825e-06
1.0648e-05
4.39853e-06
1.21135e-05
1.06513e-05
4.40486e-06
2.24621e-05
7.2076e-06
8.901e-06
7.20774e-06
2.24636e-05
9.72655e-06
2.19513e-05
2.19515e-05
2.1951e-05
2.19512e-05
9.72543e-06
3.8977e-06
1.8391e-06
9.00962e-06
5.09809e-06
9.01531e-06
3.89296e-06
1.84588e-06
3.89181e-06
1.83725e-06
9.00447e-06
5.09766e-06
1.84476e-06
3.8854e-06
9.01064e-06
9.72386e-06
2.19613e-05
2.19614e-05
2.19615e-05
9.72481e-06
2.19617e-05
3.91248e-06
9.02362e-06
5.10808e-06
1.86899e-06
9.01815e-06
1.86229e-06
3.91646e-06
3.90404e-06
9.01894e-06
5.10556e-06
1.86771e-06
1.85997e-06
9.01294e-06
3.91158e-06
1.84981e-05
1.84908e-05
1.21168e-05
3.57691e-06
4.42438e-06
1.06559e-05
4.41885e-06
1.06523e-05
1.212e-05
2.24727e-05
7.20563e-06
8.90002e-06
7.20569e-06
2.24711e-05
1.21165e-05
3.55827e-06
4.39896e-06
1.06483e-05
4.40486e-06
1.21133e-05
1.06514e-05
2.24616e-05
7.20918e-06
8.90122e-06
7.20926e-06
2.24631e-05
1.21178e-05
3.5771e-06
4.42533e-06
1.06561e-05
4.41827e-06
1.06525e-05
1.2121e-05
2.24752e-05
7.20482e-06
8.90102e-06
2.24736e-05
7.20487e-06
1.21175e-05
3.55812e-06
4.39859e-06
1.06485e-05
1.21143e-05
4.40539e-06
1.06516e-05
2.24642e-05
7.20808e-06
8.90149e-06
7.20824e-06
2.24657e-05
1.84991e-05
1.84918e-05
1.85015e-05
1.84942e-05
1.27763e-07
1.2776e-07
1.39265e-07
1.26356e-07
1.26353e-07
1.21063e-07
1.22602e-07
1.54881e-06
3.1441e-07
6.545e-07
6.54644e-07
1.22377e-07
1.22373e-07
1.35664e-07
1.21125e-07
1.21122e-07
1.15233e-07
1.16644e-07
1.64944e-06
7.07376e-07
7.0852e-07
3.34664e-07
1.64083e-06
7.12006e-07
7.11437e-07
1.54861e-06
6.51782e-07
6.51968e-07
3.15059e-07
1.54228e-06
6.54266e-07
6.5456e-07
1.61733e-06
3.28955e-07
6.96452e-07
6.96738e-07
6.93806e-07
6.9404e-07
1.62359e-06
1.54973e-06
3.15153e-07
6.5588e-07
6.55557e-07
1.61655e-06
3.28876e-07
6.98022e-07
6.98058e-07
6.92959e-07
6.92555e-07
1.62457e-06
1.54919e-06
6.51903e-07
6.51533e-07
3.15123e-07
6.5466e-07
1.54202e-06
6.54681e-07
1.61729e-06
3.28924e-07
6.96911e-07
6.96784e-07
6.93977e-07
6.9358e-07
1.62362e-06
1.61653e-06
3.29349e-07
6.97674e-07
6.96915e-07
1.62485e-06
6.93609e-07
6.94148e-07
1.64757e-06
7.08029e-07
7.08291e-07
3.34998e-07
1.64155e-06
7.10985e-07
7.12055e-07
1.64844e-06
7.07547e-07
7.07135e-07
3.35095e-07
7.12364e-07
1.64082e-06
7.12753e-07
1.64799e-06
7.0826e-07
7.07957e-07
3.35104e-07
7.11182e-07
1.64154e-06
7.11445e-07
1.27764e-07
1.2776e-07
1.39268e-07
1.26357e-07
1.26353e-07
1.21063e-07
1.22602e-07
1.27765e-07
1.2776e-07
1.39271e-07
1.26359e-07
1.26353e-07
1.21064e-07
1.22602e-07
1.27763e-07
1.2776e-07
1.39268e-07
1.26357e-07
1.26352e-07
1.21063e-07
1.22602e-07
1.38285e-07
1.23664e-07
1.23661e-07
1.24992e-07
1.24989e-07
1.19559e-07
1.18085e-07
1.38288e-07
1.23664e-07
1.23661e-07
1.24993e-07
1.24988e-07
1.19558e-07
1.18085e-07
1.38291e-07
1.23666e-07
1.23661e-07
1.24995e-07
1.2499e-07
1.19559e-07
1.18085e-07
1.38288e-07
1.23665e-07
1.2366e-07
1.24992e-07
1.24989e-07
1.19559e-07
1.18085e-07
4.12441e-07
9.82037e-07
1.295e-06
3.38329e-07
1.28698e-06
3.37747e-07
4.12765e-07
5.77416e-07
1.92577e-06
2.65609e-06
8.87832e-07
8.83905e-07
1.91742e-06
5.78323e-07
4.12975e-07
9.82267e-07
3.38319e-07
1.29435e-06
3.37774e-07
1.2879e-06
4.13115e-07
5.69342e-07
8.67599e-07
1.89493e-06
2.63853e-06
5.66287e-07
8.71226e-07
1.90064e-06
4.06092e-07
9.67535e-07
3.32508e-07
1.26455e-06
4.05912e-07
3.3309e-07
1.27125e-06
5.76446e-07
1.92491e-06
2.65628e-06
8.87503e-07
8.83964e-07
1.91877e-06
5.79381e-07
1.56776e-06
3.19568e-07
6.68398e-07
6.68605e-07
6.65612e-07
6.65934e-07
1.57435e-06
1.22377e-07
1.22373e-07
1.35668e-07
1.21126e-07
1.21122e-07
1.15233e-07
1.16644e-07
1.22379e-07
1.22375e-07
1.3567e-07
1.21128e-07
1.21122e-07
1.15233e-07
1.16645e-07
1.22378e-07
1.22374e-07
1.35669e-07
1.21126e-07
1.21121e-07
1.15233e-07
1.16644e-07
4.44066e-07
1.06609e-06
1.38672e-06
3.61272e-07
1.37912e-06
3.60565e-07
4.43526e-07
6.10242e-07
9.33108e-07
1.98709e-06
2.72533e-06
6.09324e-07
9.37411e-07
1.99489e-06
4.35595e-07
1.05118e-06
1.35651e-06
3.5434e-07
4.3544e-07
1.36363e-06
3.5516e-07
6.20417e-07
2.01601e-06
2.74132e-06
9.54415e-07
9.49882e-07
2.00997e-06
6.20887e-07
4.44177e-07
1.06619e-06
3.62153e-07
1.3859e-06
3.59963e-07
1.38013e-06
4.43643e-07
6.11458e-07
9.33457e-07
1.98832e-06
2.72549e-06
6.08352e-07
9.37308e-07
1.99393e-06
4.35751e-07
1.05122e-06
3.5396e-07
1.35705e-06
4.35578e-07
3.55751e-07
1.36331e-06
6.19722e-07
2.01736e-06
2.74073e-06
9.54682e-07
9.49796e-07
2.01029e-06
6.20478e-07
1.6642e-06
3.39811e-07
7.26969e-07
7.27528e-07
7.21956e-07
7.22459e-07
1.67401e-06
1.56766e-06
3.19203e-07
6.6829e-07
6.68573e-07
1.57404e-06
6.6559e-07
6.65901e-07
1.59874e-06
3.24554e-07
6.79557e-07
6.79842e-07
1.59267e-06
6.82438e-07
6.82662e-07
4.12474e-07
9.816e-07
1.29462e-06
3.38969e-07
1.28735e-06
3.37266e-07
4.13896e-07
5.69576e-07
8.67615e-07
1.89424e-06
2.63853e-06
1.90171e-06
5.66483e-07
8.71615e-07
4.07052e-07
9.67796e-07
1.26425e-06
3.32092e-07
1.27146e-06
4.04968e-07
3.33672e-07
5.76563e-07
1.9256e-06
2.65604e-06
8.8787e-07
1.91826e-06
8.83922e-07
5.79535e-07
4.12441e-07
9.82129e-07
1.29404e-06
3.38903e-07
1.28792e-06
3.37252e-07
4.12685e-07
5.68391e-07
8.68019e-07
1.89476e-06
2.64088e-06
5.67608e-07
1.90073e-06
8.72099e-07
4.05933e-07
9.67379e-07
1.26461e-06
3.32076e-07
4.05075e-07
1.27085e-06
3.33647e-07
5.77547e-07
1.92456e-06
2.65566e-06
8.88525e-07
1.91861e-06
5.78443e-07
8.84418e-07
4.21443e-07
1.3106e-06
3.42554e-07
1.00973e-06
4.19125e-07
1.31781e-06
3.44286e-07
5.97416e-07
9.20851e-07
2.69981e-06
1.9721e-06
9.16666e-07
1.96476e-06
6.00424e-07
5.90035e-07
1.94187e-06
9.00255e-07
2.68325e-06
9.04504e-07
5.86859e-07
1.94907e-06
4.26579e-07
1.02325e-06
1.34088e-06
3.49967e-07
1.33358e-06
3.48077e-07
4.28844e-07
4.20247e-07
1.31098e-06
3.42541e-07
1.00916e-06
4.20036e-07
1.31721e-06
3.4422e-07
5.98437e-07
9.2121e-07
2.69891e-06
1.97116e-06
1.96548e-06
9.17241e-07
5.9944e-07
5.88658e-07
1.94216e-06
9.00799e-07
2.68505e-06
5.8785e-07
1.94821e-06
9.04685e-07
4.27512e-07
1.02385e-06
1.34019e-06
3.49903e-07
1.33401e-06
3.48078e-07
4.27822e-07
1.56688e-06
3.19142e-07
6.69605e-07
6.69693e-07
6.64505e-07
6.65022e-07
1.5749e-06
1.59993e-06
3.24707e-07
6.79072e-07
6.7864e-07
6.83575e-07
1.59188e-06
6.83447e-07
4.11839e-07
9.82258e-07
1.29395e-06
3.38293e-07
1.28796e-06
3.37739e-07
4.14214e-07
5.69611e-07
8.67874e-07
1.89435e-06
2.63914e-06
1.90176e-06
5.6646e-07
8.71895e-07
4.06722e-07
9.6718e-07
1.26467e-06
3.32452e-07
1.27091e-06
4.05421e-07
3.33021e-07
5.7653e-07
1.92564e-06
2.65654e-06
8.88344e-07
1.91828e-06
8.84275e-07
5.79581e-07
4.12781e-07
9.82141e-07
3.38332e-07
1.29426e-06
3.37774e-07
1.28777e-06
4.13067e-07
5.69496e-07
8.67331e-07
1.89469e-06
2.63923e-06
5.66422e-07
1.90087e-06
8.72907e-07
4.05884e-07
9.67396e-07
3.32529e-07
1.26448e-06
4.05802e-07
3.33069e-07
1.2711e-06
5.76494e-07
1.9245e-06
2.65679e-06
8.89499e-07
1.91863e-06
5.79474e-07
8.8354e-07
4.21312e-07
1.31106e-06
3.43006e-07
1.0088e-06
4.1931e-07
1.31717e-06
3.43611e-07
5.97336e-07
9.2102e-07
2.69967e-06
1.97252e-06
9.17058e-07
1.9645e-06
6.00618e-07
5.90087e-07
1.94193e-06
9.00658e-07
2.68408e-06
9.04594e-07
5.86824e-07
1.94945e-06
4.26667e-07
1.02396e-06
1.34025e-06
3.49197e-07
1.33416e-06
3.48572e-07
4.28899e-07
4.21363e-07
3.43024e-07
1.31093e-06
1.00907e-06
4.19867e-07
3.43646e-07
1.31761e-06
5.97311e-07
9.22385e-07
2.7006e-06
1.97112e-06
1.96542e-06
9.16026e-07
6.00592e-07
5.90004e-07
1.94217e-06
8.9993e-07
2.68402e-06
5.86783e-07
1.94848e-06
9.0568e-07
4.26948e-07
1.02392e-06
3.49201e-07
1.341e-06
3.48576e-07
1.33361e-06
4.28907e-07
4.12876e-07
9.81628e-07
3.38264e-07
1.294e-06
3.37741e-07
1.28795e-06
4.12801e-07
5.7751e-07
1.92448e-06
2.65637e-06
8.87705e-07
8.84206e-07
1.9186e-06
5.78285e-07
4.20299e-07
1.31018e-06
3.42982e-07
1.00898e-06
4.20102e-07
1.31746e-06
3.43647e-07
5.98321e-07
9.20724e-07
2.69975e-06
1.97226e-06
5.99425e-07
9.16546e-07
1.96406e-06
5.88546e-07
1.94121e-06
9.00164e-07
2.68314e-06
5.87714e-07
9.0422e-07
1.94896e-06
4.27498e-07
1.02368e-06
1.34062e-06
3.4919e-07
4.27918e-07
1.33349e-06
3.48532e-07
4.20459e-07
3.42995e-07
1.31093e-06
1.00948e-06
4.20136e-07
3.43639e-07
1.31713e-06
5.98487e-07
9.21011e-07
2.69941e-06
1.97105e-06
1.96526e-06
9.16922e-07
5.99432e-07
5.88604e-07
1.94204e-06
9.00346e-07
2.68374e-06
5.87843e-07
1.94791e-06
9.04373e-07
4.2759e-07
1.02336e-06
3.49255e-07
1.3402e-06
3.48604e-07
1.33404e-06
4.27882e-07
1.56749e-06
3.19142e-07
6.68659e-07
6.6859e-07
6.65501e-07
6.65849e-07
1.57419e-06
1.59916e-06
3.24649e-07
6.79798e-07
6.79457e-07
6.82795e-07
1.59242e-06
6.82542e-07
4.12126e-07
9.82314e-07
3.38908e-07
1.29466e-06
3.37237e-07
1.2872e-06
4.14055e-07
5.69565e-07
8.68009e-07
1.89456e-06
2.64079e-06
8.71703e-07
5.66409e-07
1.90098e-06
4.07223e-07
9.67373e-07
3.32059e-07
1.26397e-06
3.33639e-07
4.05238e-07
1.27163e-06
5.76461e-07
1.92565e-06
2.65556e-06
8.87996e-07
8.84334e-07
1.91775e-06
5.79551e-07
4.20588e-07
3.43045e-07
1.31102e-06
1.00892e-06
4.20356e-07
3.43654e-07
1.31747e-06
5.97235e-07
9.20422e-07
2.69996e-06
1.9714e-06
6.00416e-07
9.16938e-07
1.96539e-06
5.89941e-07
1.94233e-06
9.00357e-07
2.68331e-06
5.86752e-07
9.0418e-07
1.94833e-06
4.27708e-07
1.02395e-06
3.49818e-07
1.34069e-06
4.28111e-07
3.48504e-07
1.33397e-06
4.21762e-07
3.42549e-07
1.3105e-06
1.00892e-06
4.19522e-07
3.44236e-07
1.31795e-06
5.97329e-07
9.2103e-07
2.69902e-06
1.97198e-06
1.96435e-06
9.17324e-07
6.00558e-07
5.90072e-07
1.94116e-06
9.00729e-07
2.68492e-06
5.86765e-07
1.94859e-06
9.0467e-07
4.2675e-07
1.02405e-06
3.49909e-07
1.3408e-06
3.48086e-07
1.33347e-06
4.28957e-07
1.60048e-06
3.24442e-07
6.79634e-07
6.79909e-07
1.59266e-06
6.82535e-07
6.82734e-07
1.66543e-06
3.39683e-07
7.25482e-07
7.26574e-07
1.67143e-06
7.22678e-07
7.22197e-07
4.42939e-07
1.06562e-06
1.38584e-06
3.62162e-07
1.37945e-06
3.59904e-07
4.44687e-07
6.10036e-07
9.33236e-07
1.98774e-06
2.72557e-06
1.99476e-06
6.08826e-07
9.377e-07
4.36658e-07
1.05155e-06
1.35668e-06
3.53974e-07
1.36361e-06
4.34322e-07
3.55758e-07
6.20393e-07
2.01686e-06
2.74054e-06
9.54496e-07
2.01011e-06
9.49976e-07
6.20988e-07
4.43846e-07
1.06606e-06
1.38652e-06
3.62088e-07
1.37925e-06
3.59891e-07
4.43422e-07
6.10292e-07
9.34024e-07
1.98806e-06
2.72753e-06
6.09336e-07
1.99459e-06
9.37532e-07
4.35325e-07
1.05132e-06
1.35694e-06
3.53944e-07
4.35154e-07
1.36365e-06
3.55723e-07
6.20602e-07
2.01776e-06
2.74046e-06
9.54115e-07
2.0097e-06
6.21035e-07
9.50891e-07
1.66454e-06
3.39775e-07
7.27731e-07
7.27229e-07
7.21494e-07
7.21786e-07
1.67353e-06
4.42872e-07
1.06634e-06
1.38603e-06
3.62016e-07
1.37989e-06
3.60121e-07
4.44654e-07
6.11535e-07
9.33696e-07
1.98757e-06
2.7274e-06
1.99504e-06
6.08433e-07
9.38575e-07
4.36561e-07
1.05106e-06
1.35703e-06
3.54424e-07
1.36318e-06
4.34249e-07
3.55367e-07
6.19694e-07
2.01721e-06
2.74052e-06
9.55015e-07
2.00994e-06
9.49807e-07
6.20564e-07
4.42991e-07
1.0664e-06
3.62012e-07
1.38674e-06
3.6011e-07
1.37929e-06
4.44756e-07
6.11725e-07
9.32998e-07
1.98807e-06
2.72619e-06
6.0833e-07
1.99475e-06
9.39193e-07
4.36713e-07
1.05098e-06
3.54427e-07
1.35643e-06
4.34454e-07
3.55373e-07
1.36364e-06
6.19073e-07
2.01748e-06
2.74206e-06
9.5638e-07
2.00971e-06
6.23136e-07
9.4949e-07
4.43798e-07
1.06565e-06
3.62007e-07
1.38632e-06
3.60128e-07
1.37941e-06
4.43428e-07
6.10236e-07
9.33377e-07
1.98789e-06
2.72722e-06
9.37964e-07
6.09205e-07
1.9948e-06
4.35316e-07
1.05151e-06
3.5443e-07
1.35698e-06
3.55413e-07
4.3514e-07
1.36348e-06
6.2006e-07
2.01797e-06
2.74008e-06
9.54669e-07
9.50155e-07
2.00937e-06
6.23175e-07
1.66522e-06
3.39876e-07
7.25941e-07
7.25685e-07
7.22553e-07
7.22891e-07
1.67282e-06
4.43053e-07
1.06595e-06
3.61025e-07
1.38602e-06
3.60202e-07
1.37938e-06
4.44832e-07
6.09979e-07
9.33878e-07
1.9874e-06
2.72575e-06
9.37608e-07
6.08713e-07
1.99357e-06
4.36734e-07
1.05144e-06
3.5404e-07
1.35666e-06
3.55483e-07
4.34428e-07
1.36353e-06
6.20374e-07
2.01616e-06
2.74186e-06
9.54083e-07
9.50797e-07
2.01026e-06
6.20952e-07
4.99175e-07
4.99992e-07
4.9999e-07
4.99905e-07
4.45594e-07
4.54289e-07
4.54277e-07
4.63962e-07
4.03819e-07
4.18932e-07
4.18923e-07
4.39724e-07
3.68443e-07
3.88857e-07
3.88854e-07
4.17824e-07
3.38087e-07
3.623e-07
3.62297e-07
3.96029e-07
3.11701e-07
3.38375e-07
3.38374e-07
3.74389e-07
2.88506e-07
3.16657e-07
3.16661e-07
3.5339e-07
2.67934e-07
2.96973e-07
2.96979e-07
3.33732e-07
2.4957e-07
2.79266e-07
2.7927e-07
3.15987e-07
2.33109e-07
2.63531e-07
2.63534e-07
3.0051e-07
2.18321e-07
2.49772e-07
2.49773e-07
2.87684e-07
2.0503e-07
2.37981e-07
2.37983e-07
2.77809e-07
1.93096e-07
2.28162e-07
2.28165e-07
2.71172e-07
1.82408e-07
2.20321e-07
2.20327e-07
2.67536e-07
1.72874e-07
2.14459e-07
2.14468e-07
2.6699e-07
1.64421e-07
2.10591e-07
2.106e-07
2.69815e-07
1.56985e-07
2.08723e-07
2.08731e-07
2.76146e-07
1.50514e-07
2.08863e-07
2.0887e-07
2.8584e-07
1.44963e-07
2.11066e-07
2.11073e-07
2.98723e-07
2.15342e-07
3.14852e-07
5.06199e-07
5.05566e-07
5.05568e-07
5.06206e-07
5.05564e-07
5.0557e-07
5.05985e-07
5.05985e-07
5.05986e-07
5.05983e-07
5.05568e-07
5.05561e-07
5.06192e-07
5.05569e-07
5.05561e-07
5.06178e-07