/*--------------------------------*- C++ -*----------------------------------*\
| =========                 |                                                 |
| \\      /  F ield         | OpenFOAM: The Open Source CFD Toolbox           |
|  \\    /   O peration     | Version:  2312                                  |
|   \\  /    A nd           | Website:  www.openfoam.com                      |
|    \\/     M anipulation  |                                                 |
\*---------------------------------------------------------------------------*/
FoamFile
{
    version     2.0;
    format      ascii;
    arch        "LSB;label=32;scalar=64";
    class       volScalarField;
    location    "300";
    object      nut;
}
// * * * * * * * * * * * * * * * * * * * * * * * * * * * * * * * * * * * * * //

dimensions      [0 2 -1 0 0 0 0];

internalField   nonuniform List<scalar> 
43008
(
0.000158325
0.000108542
0.000154168
0.000104784
0.000104785
8.34939e-05
8.52295e-05
8.37462e-05
0.000108516
0.000108501
0.000105632
0.000105616
8.37254e-05
0.000108538
0.000108505
0.000105654
0.00010562
0.000105656
0.000105622
8.52369e-05
8.37457e-05
0.000108529
0.000105656
0.000105644
8.38319e-05
8.3551e-05
0.00010476
0.000104745
8.34776e-05
0.00010478
0.000104748
0.000104755
8.35342e-05
0.000104774
6.51417e-05
4.95123e-05
6.39694e-05
4.95184e-05
2.36523e-05
6.51277e-05
4.95071e-05
6.39751e-05
4.9513e-05
0.000158319
0.000158317
0.000158313
0.0001552
0.000155194
0.000155191
0.000155188
6.16421e-05
0.000107537
6.23323e-05
0.000133379
2.36551e-05
2.36513e-05
6.16636e-05
0.000134451
6.15882e-05
0.000107539
6.08256e-05
0.000133371
6.23658e-05
8.47451e-05
5.93432e-05
5.93428e-05
6.77275e-05
4.95377e-05
6.66877e-05
4.95429e-05
2.36419e-05
2.3638e-05
6.7753e-05
4.95324e-05
6.66935e-05
4.95375e-05
0.000154162
0.000154159
0.000154156
6.422e-05
6.37093e-05
0.000130144
0.000103911
6.32841e-05
6.44238e-05
0.000129102
2.36408e-05
2.36373e-05
6.41731e-05
0.000130132
6.36967e-05
0.000103913
6.3274e-05
0.000129092
6.43876e-05
6.00619e-05
6.00635e-05
8.30494e-05
6.04252e-05
6.04475e-05
2.36584e-05
2.36545e-05
2.36561e-05
2.36522e-05
5.89487e-05
5.89359e-05
8.46145e-05
5.93285e-05
5.93475e-05
2.36473e-05
2.36515e-05
2.36451e-05
2.3649e-05
8.42848e-05
5.98937e-05
5.99118e-05
5.95309e-05
5.95177e-05
6.51454e-05
4.95065e-05
6.39668e-05
4.95124e-05
6.16131e-05
6.16055e-05
0.000134455
0.000107515
6.08649e-05
6.23484e-05
0.000133373
6.16381e-05
6.16326e-05
0.00013445
0.000107497
6.08442e-05
6.23064e-05
0.000133369
6.53654e-05
4.95313e-05
4.9525e-05
6.64844e-05
6.53643e-05
4.95245e-05
4.95191e-05
6.64868e-05
6.20612e-05
0.000106584
6.33936e-05
0.000131216
6.26688e-05
0.000132279
6.28546e-05
6.20475e-05
0.000106569
6.33628e-05
0.000131213
6.26914e-05
0.000132275
6.28875e-05
8.46046e-05
5.93436e-05
5.93286e-05
2.36533e-05
2.3645e-05
2.36491e-05
8.43346e-05
5.99049e-05
5.98932e-05
5.95115e-05
5.95307e-05
2.36464e-05
2.36502e-05
6.1655e-05
6.1607e-05
0.00013445
0.000107536
6.0835e-05
6.23388e-05
0.00013337
6.51444e-05
4.94975e-05
6.39659e-05
4.9514e-05
6.16362e-05
0.000134442
6.15829e-05
0.000107501
6.08432e-05
0.000133362
6.23511e-05
6.53742e-05
4.95255e-05
4.95198e-05
6.64722e-05
6.20228e-05
0.000106605
6.33614e-05
0.000131213
6.267e-05
0.000132274
6.28891e-05
6.53617e-05
4.95263e-05
4.95105e-05
6.64853e-05
6.20379e-05
0.000106573
0.000131205
6.34051e-05
0.000132265
6.26469e-05
6.28907e-05
6.50902e-05
4.95138e-05
6.16032e-05
0.000107506
0.000133373
6.23545e-05
6.51206e-05
4.95151e-05
6.20178e-05
0.00010661
6.33895e-05
0.000131223
6.26681e-05
0.000132287
6.2899e-05
6.53975e-05
4.95264e-05
4.95206e-05
6.64377e-05
6.2062e-05
0.000106578
0.000131214
6.33737e-05
0.000132276
6.26458e-05
6.28527e-05
6.53797e-05
4.95273e-05
4.95115e-05
6.64601e-05
5.89276e-05
5.89496e-05
8.46032e-05
5.93439e-05
5.93321e-05
2.36575e-05
2.36535e-05
2.36442e-05
2.36478e-05
8.43351e-05
5.99082e-05
5.98951e-05
5.95103e-05
5.953e-05
2.36463e-05
2.36502e-05
6.16518e-05
0.000134447
6.16276e-05
0.000107526
6.08354e-05
0.000133368
6.22982e-05
6.51265e-05
4.95027e-05
6.39824e-05
4.95192e-05
6.51243e-05
4.95025e-05
6.39819e-05
4.95087e-05
6.20086e-05
0.000106609
0.000131213
6.34082e-05
0.000132274
6.26482e-05
6.29131e-05
6.20243e-05
0.000106598
0.000131211
6.33571e-05
0.000132271
6.2694e-05
6.28939e-05
6.5381e-05
4.95313e-05
4.95156e-05
6.64634e-05
6.53802e-05
4.95213e-05
4.95154e-05
6.64615e-05
2.36522e-05
2.3651e-05
8.42196e-05
5.99066e-05
5.9905e-05
5.95087e-05
5.95098e-05
2.3645e-05
2.36487e-05
2.36439e-05
2.36477e-05
2.36442e-05
2.36402e-05
2.36419e-05
2.36382e-05
6.0085e-05
6.00723e-05
8.30517e-05
6.04317e-05
6.04342e-05
6.7735e-05
4.95309e-05
6.66863e-05
4.95368e-05
6.41722e-05
6.37135e-05
0.000130136
0.000103888
6.33413e-05
6.43813e-05
0.000129095
6.4197e-05
6.37335e-05
0.000130133
0.000103873
6.33168e-05
6.43835e-05
0.000129091
6.00658e-05
6.00841e-05
8.3038e-05
6.04251e-05
6.04603e-05
2.36434e-05
2.36396e-05
6.42135e-05
6.37434e-05
0.000130131
0.00010391
6.33015e-05
6.43789e-05
0.000129093
6.7747e-05
4.95231e-05
6.66837e-05
4.95381e-05
6.42221e-05
0.000130123
6.36981e-05
0.000103875
6.32941e-05
0.000129085
6.44155e-05
6.77009e-05
4.9533e-05
6.67152e-05
4.95384e-05
6.41693e-05
0.000130134
6.37181e-05
0.000103881
6.33322e-05
0.000129094
6.43875e-05
6.77204e-05
4.9524e-05
6.67025e-05
4.95391e-05
6.00649e-05
6.00827e-05
8.305e-05
6.0451e-05
6.04589e-05
2.36431e-05
2.36394e-05
6.41613e-05
0.000130129
6.37253e-05
0.000103901
6.32956e-05
0.000129089
6.44236e-05
6.77038e-05
4.9528e-05
6.67032e-05
4.95431e-05
6.77064e-05
4.95276e-05
6.67018e-05
4.95334e-05
2.36417e-05
2.3638e-05
2.36407e-05
2.3637e-05
3.61705e-05
6.46758e-05
4.03052e-05
6.75589e-05
4.03028e-05
6.71514e-05
3.61734e-05
2.02411e-05
6.67539e-05
4.95119e-05
2.02406e-05
6.69331e-05
3.61703e-05
6.44431e-05
4.0301e-05
6.66349e-05
3.61675e-05
4.03028e-05
6.70478e-05
2.02378e-05
6.71586e-05
4.95186e-05
6.6979e-05
2.02383e-05
2.3656e-05
2.36528e-05
3.61702e-05
6.4684e-05
6.75573e-05
4.03044e-05
6.71456e-05
4.03022e-05
3.61731e-05
2.02414e-05
6.67609e-05
4.95066e-05
2.02409e-05
6.69242e-05
3.617e-05
6.44309e-05
6.66284e-05
4.03003e-05
3.61672e-05
6.70457e-05
4.03021e-05
2.02381e-05
6.71412e-05
4.95136e-05
6.69827e-05
2.02386e-05
2.36549e-05
2.36514e-05
6.93129e-05
2.15791e-05
2.1576e-05
2.1579e-05
2.15758e-05
6.94784e-05
7.01938e-05
5.90517e-05
6.60608e-05
4.70421e-05
7.02378e-05
5.90516e-05
6.60644e-05
4.70325e-05
6.92656e-05
2.15825e-05
2.15793e-05
7.04939e-05
4.70585e-05
5.92188e-05
6.6717e-05
6.64493e-05
4.70429e-05
7.0694e-05
7.05449e-05
4.70491e-05
5.92198e-05
6.67106e-05
6.64647e-05
4.70338e-05
7.07367e-05
3.61839e-05
6.73252e-05
4.0324e-05
6.94562e-05
4.03178e-05
6.90735e-05
3.61871e-05
2.02299e-05
6.76074e-05
4.95371e-05
2.02295e-05
6.77556e-05
3.61836e-05
6.71243e-05
4.03132e-05
6.86157e-05
3.61804e-05
4.0318e-05
6.90023e-05
2.02266e-05
6.79445e-05
4.95437e-05
6.78049e-05
2.02271e-05
2.36415e-05
2.36384e-05
3.61837e-05
6.73222e-05
6.94552e-05
4.03233e-05
6.90688e-05
4.03175e-05
3.61869e-05
2.02301e-05
6.76097e-05
4.95315e-05
2.02297e-05
6.77483e-05
3.61834e-05
6.71193e-05
6.86123e-05
4.0313e-05
3.61801e-05
6.89993e-05
4.03171e-05
2.02268e-05
6.7941e-05
4.95381e-05
6.7801e-05
2.02272e-05
2.36407e-05
2.36374e-05
7.01191e-05
2.15657e-05
2.15625e-05
2.15656e-05
2.15624e-05
7.02655e-05
7.21299e-05
6.84014e-05
4.70903e-05
6.01793e-05
7.19494e-05
6.86349e-05
4.7105e-05
7.21468e-05
6.84066e-05
4.70813e-05
6.01783e-05
7.20041e-05
6.8665e-05
4.70957e-05
7.00774e-05
2.15689e-05
2.15658e-05
6.99269e-05
2.1569e-05
2.15659e-05
7.24036e-05
4.71195e-05
6.0334e-05
6.92806e-05
6.90444e-05
4.71051e-05
7.25938e-05
7.24698e-05
4.71103e-05
6.03304e-05
6.93012e-05
6.90476e-05
4.70961e-05
7.26078e-05
2.36581e-05
2.36551e-05
2.36557e-05
2.36525e-05
6.93182e-05
2.15797e-05
2.15765e-05
2.15796e-05
2.15764e-05
6.94839e-05
7.02011e-05
6.58133e-05
4.70289e-05
5.90363e-05
6.99905e-05
4.70447e-05
6.60528e-05
7.02383e-05
6.58296e-05
4.70223e-05
5.90581e-05
7.00464e-05
4.70308e-05
6.6062e-05
6.92707e-05
2.15828e-05
2.15796e-05
6.91021e-05
2.15831e-05
2.15799e-05
7.04926e-05
4.70612e-05
5.92413e-05
6.67018e-05
4.70455e-05
7.07021e-05
6.64595e-05
7.05488e-05
4.70496e-05
5.92289e-05
6.67004e-05
4.70355e-05
7.07372e-05
6.64755e-05
2.36479e-05
2.36509e-05
2.36454e-05
2.36486e-05
6.96902e-05
2.15762e-05
2.1573e-05
6.95284e-05
2.15765e-05
2.15731e-05
7.14664e-05
6.79927e-05
5.98118e-05
4.70929e-05
4.70779e-05
6.77566e-05
7.16631e-05
7.15236e-05
6.80153e-05
5.97958e-05
4.7082e-05
4.70671e-05
6.77563e-05
7.17009e-05
7.11923e-05
4.70621e-05
6.71093e-05
5.96178e-05
7.09847e-05
4.70774e-05
6.73399e-05
7.12282e-05
4.70511e-05
6.71152e-05
5.96332e-05
7.10413e-05
4.70664e-05
6.73735e-05
6.97336e-05
2.15734e-05
2.15698e-05
2.15732e-05
2.15696e-05
6.98897e-05
3.61689e-05
6.46735e-05
4.0305e-05
6.7549e-05
4.03027e-05
6.71454e-05
3.61717e-05
2.02403e-05
6.67313e-05
4.9506e-05
2.02397e-05
6.69157e-05
3.61687e-05
6.44423e-05
4.03008e-05
6.66293e-05
4.03027e-05
3.6166e-05
6.70387e-05
2.02368e-05
6.7134e-05
4.95126e-05
6.69465e-05
2.02374e-05
3.61766e-05
4.03055e-05
6.76543e-05
6.58266e-05
3.61736e-05
4.03085e-05
6.80557e-05
2.02323e-05
4.95315e-05
6.75612e-05
2.02328e-05
6.74028e-05
2.02355e-05
6.71919e-05
4.95251e-05
2.0235e-05
6.73618e-05
3.61769e-05
6.60383e-05
4.03129e-05
6.85351e-05
3.61801e-05
4.0309e-05
6.81433e-05
3.6175e-05
4.03054e-05
6.7649e-05
6.58247e-05
3.6172e-05
4.03084e-05
6.80466e-05
2.02312e-05
4.9525e-05
6.75429e-05
6.73726e-05
2.02319e-05
2.02346e-05
6.71681e-05
4.95187e-05
2.0234e-05
6.73422e-05
3.61753e-05
6.60344e-05
4.03126e-05
6.85241e-05
4.0309e-05
6.81359e-05
3.61784e-05
6.93231e-05
2.15764e-05
2.15794e-05
2.15763e-05
2.15793e-05
6.94795e-05
7.02403e-05
5.90547e-05
4.70293e-05
6.60549e-05
7.01633e-05
5.90376e-05
6.60219e-05
4.70382e-05
6.92671e-05
2.15796e-05
2.15825e-05
7.05522e-05
4.70466e-05
5.92207e-05
6.67042e-05
4.70387e-05
6.64751e-05
7.07323e-05
7.05235e-05
4.70551e-05
5.92442e-05
6.66698e-05
6.64915e-05
4.70501e-05
7.06673e-05
2.3657e-05
2.36538e-05
2.36455e-05
2.36486e-05
6.96865e-05
2.15729e-05
2.15759e-05
6.95312e-05
2.15731e-05
2.1576e-05
7.15403e-05
6.80014e-05
5.97891e-05
4.70815e-05
6.7769e-05
4.70662e-05
7.16705e-05
7.14925e-05
6.79605e-05
5.98116e-05
4.70873e-05
4.70812e-05
6.7791e-05
7.1655e-05
7.11939e-05
4.70517e-05
6.71211e-05
5.96278e-05
6.73516e-05
7.10458e-05
4.70647e-05
7.11566e-05
4.70656e-05
6.71346e-05
5.96182e-05
7.10122e-05
4.70715e-05
6.73176e-05
6.97356e-05
2.15698e-05
2.15726e-05
2.15696e-05
2.15725e-05
6.98864e-05
2.36469e-05
2.365e-05
3.61684e-05
6.46702e-05
4.03043e-05
6.7541e-05
4.0302e-05
6.71517e-05
3.61713e-05
2.02403e-05
6.67192e-05
4.95077e-05
2.02398e-05
6.69209e-05
3.61682e-05
6.44446e-05
4.03001e-05
6.66314e-05
4.0302e-05
3.61655e-05
6.70314e-05
2.0237e-05
6.71318e-05
4.9504e-05
6.69444e-05
2.02375e-05
3.61764e-05
6.76495e-05
4.0305e-05
6.58114e-05
3.61733e-05
6.80517e-05
4.03078e-05
2.02325e-05
4.95261e-05
6.75549e-05
2.02329e-05
6.74028e-05
2.02357e-05
6.72019e-05
4.95195e-05
2.02353e-05
6.73495e-05
3.61767e-05
6.6045e-05
6.85333e-05
4.0312e-05
3.61798e-05
6.8138e-05
4.03086e-05
3.61746e-05
4.03047e-05
6.76536e-05
6.58248e-05
3.61716e-05
4.03077e-05
6.80365e-05
2.02313e-05
4.95165e-05
6.75428e-05
6.73656e-05
2.02319e-05
2.02347e-05
6.71651e-05
4.95202e-05
2.02342e-05
6.73482e-05
3.61749e-05
6.60323e-05
4.03121e-05
6.85169e-05
4.03082e-05
6.81426e-05
3.6178e-05
3.61702e-05
6.47098e-05
6.75001e-05
4.03039e-05
6.71873e-05
4.03018e-05
3.6173e-05
2.02381e-05
6.7128e-05
4.95146e-05
6.69757e-05
2.02386e-05
3.61689e-05
6.46913e-05
4.03046e-05
6.75416e-05
4.03025e-05
6.71493e-05
3.61717e-05
2.02372e-05
6.71307e-05
4.9505e-05
6.69369e-05
2.02377e-05
3.61763e-05
6.7684e-05
4.03045e-05
6.57761e-05
3.61734e-05
6.80022e-05
4.03072e-05
2.02324e-05
4.95272e-05
6.75437e-05
6.73931e-05
2.0233e-05
2.02358e-05
6.7184e-05
4.95202e-05
2.02352e-05
6.73397e-05
3.61767e-05
6.60663e-05
6.84832e-05
4.03113e-05
6.81688e-05
4.03083e-05
3.61797e-05
3.6175e-05
4.03052e-05
6.76518e-05
6.57993e-05
3.6172e-05
4.03079e-05
6.80358e-05
2.02315e-05
4.95176e-05
6.75386e-05
6.73632e-05
2.0232e-05
2.02349e-05
6.71595e-05
4.95215e-05
2.02343e-05
6.73459e-05
3.61754e-05
6.60519e-05
4.0312e-05
6.85166e-05
4.0309e-05
6.81402e-05
3.61784e-05
6.9323e-05
2.15766e-05
2.15798e-05
2.15765e-05
2.15797e-05
6.94763e-05
7.02315e-05
6.58272e-05
4.70177e-05
5.90522e-05
4.70334e-05
7.00501e-05
6.60486e-05
7.0202e-05
6.58021e-05
4.70327e-05
5.90393e-05
6.60668e-05
6.9998e-05
4.70415e-05
6.92657e-05
2.15799e-05
2.15831e-05
2.158e-05
6.91026e-05
2.15832e-05
7.05518e-05
4.70499e-05
5.92218e-05
6.66997e-05
4.7035e-05
6.64738e-05
7.07343e-05
7.04996e-05
4.7058e-05
5.92419e-05
6.67081e-05
6.64507e-05
4.70495e-05
7.0689e-05
2.36571e-05
2.36538e-05
2.36443e-05
2.36477e-05
6.96832e-05
2.15732e-05
2.15763e-05
6.95305e-05
2.15733e-05
2.15764e-05
7.15234e-05
6.80001e-05
5.97889e-05
4.70817e-05
6.7768e-05
4.70669e-05
7.16986e-05
7.14784e-05
6.80064e-05
5.981e-05
4.70888e-05
4.70823e-05
6.7746e-05
7.16543e-05
7.12246e-05
4.70514e-05
6.71198e-05
5.96281e-05
6.73512e-05
7.10427e-05
4.70659e-05
7.11798e-05
4.7066e-05
6.71035e-05
5.96204e-05
7.09956e-05
4.70735e-05
6.73564e-05
6.97342e-05
2.15699e-05
2.1573e-05
2.15698e-05
2.1573e-05
6.98833e-05
2.36466e-05
2.36498e-05
3.61706e-05
6.46888e-05
6.7549e-05
4.03044e-05
6.71558e-05
4.03021e-05
3.61735e-05
2.0242e-05
6.67397e-05
4.95129e-05
6.69402e-05
2.02414e-05
3.61704e-05
6.44252e-05
6.66382e-05
4.03002e-05
6.70384e-05
3.61677e-05
4.0302e-05
2.02386e-05
6.71557e-05
4.95092e-05
6.69628e-05
2.02392e-05
3.61681e-05
6.46882e-05
6.75427e-05
4.03039e-05
6.71485e-05
4.03016e-05
3.6171e-05
2.02402e-05
6.67144e-05
4.95021e-05
2.02396e-05
6.69159e-05
3.61679e-05
6.44237e-05
6.66299e-05
4.02997e-05
3.61651e-05
6.70308e-05
4.03015e-05
2.02369e-05
6.71417e-05
4.95089e-05
6.69451e-05
2.02375e-05
3.61768e-05
6.76578e-05
4.03047e-05
6.58044e-05
3.61738e-05
6.80457e-05
4.03078e-05
2.02329e-05
4.95216e-05
6.75603e-05
6.73838e-05
2.02335e-05
2.02363e-05
6.71806e-05
4.95253e-05
2.02358e-05
6.73679e-05
3.61771e-05
6.60525e-05
6.85259e-05
4.03121e-05
6.81448e-05
4.03083e-05
3.61802e-05
3.61743e-05
6.76502e-05
4.03043e-05
6.58023e-05
3.61713e-05
6.80354e-05
4.03074e-05
2.02313e-05
4.95217e-05
6.75501e-05
6.73708e-05
2.02319e-05
2.02346e-05
6.71533e-05
4.95151e-05
2.02341e-05
6.73379e-05
3.61747e-05
6.60512e-05
6.85171e-05
4.03116e-05
6.814e-05
4.03079e-05
3.61777e-05
2.36559e-05
2.36523e-05
2.36547e-05
2.36513e-05
6.96834e-05
2.15756e-05
2.15725e-05
6.9524e-05
2.15758e-05
2.15726e-05
7.14846e-05
6.79877e-05
5.97868e-05
4.70899e-05
7.16388e-05
6.7751e-05
4.70751e-05
7.15349e-05
6.8013e-05
5.97878e-05
4.70807e-05
7.16823e-05
6.7767e-05
4.7066e-05
7.11596e-05
4.70594e-05
6.70966e-05
5.9627e-05
7.09887e-05
6.7345e-05
4.70744e-05
7.12046e-05
4.70503e-05
6.71159e-05
5.96266e-05
7.10399e-05
6.73493e-05
4.70651e-05
6.97301e-05
2.15724e-05
2.15692e-05
6.98833e-05
2.15723e-05
2.15691e-05
2.36451e-05
2.36486e-05
2.36442e-05
2.36474e-05
2.36436e-05
2.36407e-05
2.36416e-05
2.36385e-05
7.01265e-05
2.15665e-05
2.15628e-05
2.15664e-05
2.15628e-05
7.0272e-05
7.21359e-05
6.84112e-05
4.70934e-05
6.01674e-05
7.19416e-05
4.7108e-05
6.86307e-05
7.21706e-05
6.84009e-05
4.70825e-05
6.01859e-05
7.19966e-05
4.70971e-05
6.86655e-05
7.00829e-05
2.15699e-05
2.15663e-05
6.99329e-05
2.157e-05
2.15664e-05
7.23984e-05
4.71225e-05
6.03545e-05
6.92721e-05
4.71081e-05
7.26027e-05
6.90572e-05
7.24556e-05
4.71116e-05
6.03429e-05
6.93004e-05
4.70973e-05
7.26376e-05
6.90482e-05
3.61823e-05
6.73263e-05
4.03225e-05
6.94411e-05
4.0319e-05
6.90694e-05
3.61854e-05
2.0229e-05
6.75753e-05
4.95308e-05
2.02285e-05
6.77419e-05
3.61819e-05
6.71183e-05
4.03134e-05
6.861e-05
4.03174e-05
3.61788e-05
6.89914e-05
2.02256e-05
6.79317e-05
4.95373e-05
6.77693e-05
2.02261e-05
7.01282e-05
2.15632e-05
2.15659e-05
2.15631e-05
2.15658e-05
7.02672e-05
7.21368e-05
6.84177e-05
4.70826e-05
6.01783e-05
4.70971e-05
7.20122e-05
6.86215e-05
7.21258e-05
6.84315e-05
4.70959e-05
6.01689e-05
6.86078e-05
7.19548e-05
4.71024e-05
7.00794e-05
2.15665e-05
2.15691e-05
2.15666e-05
6.99352e-05
2.15692e-05
7.24825e-05
4.71116e-05
6.03369e-05
6.92379e-05
4.70975e-05
6.90882e-05
7.25875e-05
7.24149e-05
4.71171e-05
6.03447e-05
6.92415e-05
6.9079e-05
4.71107e-05
7.25913e-05
2.3643e-05
2.364e-05
3.61819e-05
6.73154e-05
4.03237e-05
6.94359e-05
4.03165e-05
6.9075e-05
3.6185e-05
2.02291e-05
6.75766e-05
4.95323e-05
2.02285e-05
6.77457e-05
3.61815e-05
6.71237e-05
4.03123e-05
6.86148e-05
4.03174e-05
3.61784e-05
6.89849e-05
2.02257e-05
6.79299e-05
4.9529e-05
6.77665e-05
2.02262e-05
3.61837e-05
6.73491e-05
6.94028e-05
4.03206e-05
6.90995e-05
4.03192e-05
3.61867e-05
2.02301e-05
6.75948e-05
4.95324e-05
6.77409e-05
2.02296e-05
3.61832e-05
6.70828e-05
6.86392e-05
4.03132e-05
6.89538e-05
3.61802e-05
4.03158e-05
2.02267e-05
6.79317e-05
4.95391e-05
6.77905e-05
2.02273e-05
3.61823e-05
6.73379e-05
4.03212e-05
6.94409e-05
4.032e-05
6.90716e-05
3.61854e-05
2.02292e-05
6.7569e-05
4.95334e-05
2.02286e-05
6.77403e-05
3.61819e-05
6.71023e-05
4.03139e-05
6.86117e-05
3.61788e-05
4.03164e-05
6.8986e-05
2.02258e-05
6.79293e-05
4.953e-05
6.77655e-05
2.02263e-05
7.01257e-05
2.15632e-05
2.15663e-05
2.15631e-05
2.15662e-05
7.02646e-05
7.2167e-05
6.84158e-05
4.70823e-05
6.01826e-05
4.70968e-05
7.1996e-05
6.86439e-05
7.20974e-05
6.84009e-05
4.70974e-05
6.017e-05
6.86217e-05
7.1959e-05
4.71036e-05
7.00767e-05
2.15664e-05
2.15696e-05
2.15665e-05
6.99326e-05
2.15697e-05
7.24559e-05
4.71113e-05
6.03307e-05
6.92883e-05
4.70971e-05
6.90605e-05
7.26335e-05
7.24345e-05
4.7118e-05
6.03442e-05
6.92667e-05
6.90646e-05
4.71122e-05
7.2548e-05
2.36428e-05
2.36396e-05
3.6184e-05
6.73461e-05
6.94459e-05
4.03216e-05
6.90749e-05
4.03188e-05
3.61872e-05
2.02306e-05
6.75944e-05
4.95375e-05
6.7761e-05
2.02301e-05
3.61837e-05
6.70983e-05
6.86165e-05
4.03129e-05
6.89936e-05
3.61805e-05
4.03167e-05
2.02273e-05
6.79494e-05
4.9534e-05
6.77863e-05
2.02278e-05
3.61817e-05
6.73414e-05
6.94294e-05
4.03211e-05
6.90749e-05
4.03183e-05
3.61848e-05
2.0229e-05
6.75664e-05
4.95274e-05
2.02285e-05
6.77375e-05
3.61812e-05
6.71003e-05
6.86123e-05
4.03125e-05
3.61781e-05
6.89831e-05
4.03163e-05
2.02256e-05
6.79291e-05
4.95336e-05
6.77686e-05
2.02261e-05
2.36415e-05
2.36383e-05
2.36404e-05
2.36373e-05
0.000180008
0.000180018
0.000157278
0.000179143
0.000179154
0.000197118
0.000197819
6.89206e-05
8.52502e-05
7.04897e-05
7.05347e-05
0.000176558
0.000176568
0.000153129
0.000175697
0.000175707
0.000194311
0.000195014
7.14859e-05
7.135e-05
7.11671e-05
8.35061e-05
7.1273e-05
7.12925e-05
7.15215e-05
6.88758e-05
7.02826e-05
7.03018e-05
8.51141e-05
6.8631e-05
7.04418e-05
7.04279e-05
7.0613e-05
8.39041e-05
7.111e-05
7.12e-05
7.09715e-05
7.09035e-05
7.08597e-05
6.88245e-05
8.50816e-05
7.02806e-05
7.03177e-05
7.0643e-05
8.39389e-05
7.10217e-05
7.09749e-05
7.10758e-05
7.1104e-05
7.08144e-05
6.88684e-05
7.02972e-05
7.03202e-05
8.51011e-05
7.04108e-05
6.86411e-05
7.04007e-05
7.06151e-05
8.39152e-05
7.11648e-05
7.11121e-05
7.09733e-05
7.09879e-05
7.08526e-05
7.06226e-05
8.38273e-05
7.0971e-05
7.12328e-05
7.08476e-05
7.09782e-05
7.08768e-05
7.15369e-05
7.12784e-05
7.11913e-05
8.34041e-05
7.12705e-05
7.14007e-05
7.14233e-05
7.14807e-05
7.13402e-05
7.13689e-05
8.33871e-05
7.12803e-05
7.1309e-05
7.12943e-05
7.15e-05
7.122e-05
7.12739e-05
8.33871e-05
7.142e-05
7.12809e-05
7.14489e-05
0.000180005
0.000180017
0.000157272
0.00017914
0.000179151
0.000197117
0.000197818
0.000180003
0.000180013
0.000157269
0.000179138
0.000179148
0.000197113
0.000197814
0.000180003
0.000180009
0.000157266
0.000179138
0.000179145
0.000197112
0.000197813
0.000156244
0.000177418
0.000177428
0.000178281
0.00017829
0.000196417
0.000195715
0.000156238
0.000177415
0.000177426
0.000178278
0.00017829
0.000196416
0.000195714
0.000156235
0.000177412
0.000177423
0.000178274
0.000178284
0.000196412
0.00019571
0.000156232
0.000177412
0.00017742
0.000178275
0.000178282
0.000196411
0.000195709
7.29944e-05
6.13984e-05
6.31772e-05
7.68777e-05
6.30128e-05
7.6752e-05
7.32886e-05
6.6824e-05
6.3757e-05
6.21335e-05
6.51692e-05
6.49645e-05
6.36239e-05
6.71499e-05
7.29988e-05
6.14024e-05
7.68064e-05
6.32418e-05
7.68156e-05
6.29637e-05
7.31018e-05
6.67533e-05
6.45384e-05
6.29311e-05
6.18356e-05
6.69254e-05
6.48287e-05
6.32132e-05
7.33081e-05
6.10595e-05
7.72369e-05
6.23241e-05
7.3224e-05
7.72051e-05
6.25789e-05
6.70409e-05
6.38361e-05
6.21184e-05
6.52649e-05
6.49425e-05
6.35627e-05
6.69013e-05
6.9257e-05
8.46427e-05
7.06569e-05
7.07376e-05
7.04297e-05
7.03965e-05
6.95616e-05
0.000176555
0.000176567
0.000153122
0.000175694
0.000175705
0.00019431
0.000195012
0.000176552
0.000176562
0.000153119
0.000175691
0.000175702
0.000194306
0.000195008
0.000176552
0.00017656
0.000153116
0.000175691
0.0001757
0.000194305
0.000195007
7.22888e-05
6.39452e-05
6.58799e-05
7.57616e-05
6.56734e-05
7.5586e-05
7.27796e-05
6.76946e-05
6.63987e-05
6.55144e-05
6.39128e-05
6.73744e-05
6.65515e-05
6.56567e-05
7.28377e-05
6.3549e-05
6.49713e-05
7.58523e-05
7.24743e-05
6.52113e-05
7.59826e-05
6.76236e-05
6.63297e-05
6.4218e-05
6.70252e-05
6.69008e-05
6.61274e-05
6.78859e-05
7.23741e-05
6.39483e-05
7.55348e-05
6.59451e-05
7.57742e-05
6.56345e-05
7.26418e-05
6.74734e-05
6.63372e-05
6.5455e-05
6.3926e-05
6.7583e-05
6.66072e-05
6.57381e-05
7.26912e-05
6.35611e-05
7.59998e-05
6.49654e-05
7.25561e-05
7.57982e-05
6.52532e-05
6.77844e-05
6.63252e-05
6.42241e-05
6.7015e-05
6.688e-05
6.61015e-05
6.79519e-05
7.19613e-05
8.32026e-05
7.15895e-05
7.16844e-05
7.16587e-05
7.15584e-05
7.21062e-05
6.92905e-05
8.47268e-05
7.06203e-05
7.06127e-05
6.95298e-05
7.04809e-05
7.04939e-05
7.02119e-05
8.41662e-05
7.07102e-05
7.06937e-05
6.99511e-05
7.08299e-05
7.09041e-05
7.31046e-05
6.14599e-05
6.32037e-05
7.66785e-05
6.30157e-05
7.69281e-05
7.29858e-05
6.67591e-05
6.45904e-05
6.30056e-05
6.18153e-05
6.31356e-05
6.6909e-05
6.47492e-05
7.31605e-05
6.10271e-05
6.23652e-05
7.73352e-05
6.25454e-05
7.34146e-05
7.70871e-05
6.70339e-05
6.377e-05
6.21367e-05
6.51731e-05
6.36319e-05
6.4998e-05
6.69146e-05
7.30268e-05
6.1434e-05
6.32276e-05
7.66904e-05
6.29754e-05
7.69339e-05
7.33328e-05
6.70146e-05
6.45975e-05
6.29204e-05
6.17725e-05
6.66846e-05
6.3209e-05
6.47823e-05
7.34816e-05
6.10477e-05
6.23329e-05
7.73398e-05
7.33077e-05
6.25853e-05
7.70918e-05
6.68338e-05
6.3843e-05
6.21637e-05
6.51898e-05
6.35547e-05
6.71609e-05
6.49667e-05
7.27788e-05
6.36637e-05
7.65834e-05
6.22219e-05
7.30358e-05
6.38639e-05
7.63562e-05
6.73906e-05
6.60716e-05
6.3193e-05
6.50447e-05
6.59189e-05
6.48966e-05
6.72942e-05
6.70678e-05
6.42608e-05
6.54472e-05
6.28696e-05
6.55976e-05
6.71995e-05
6.44104e-05
7.2895e-05
6.26994e-05
6.45274e-05
7.60498e-05
6.43347e-05
7.6287e-05
7.26665e-05
7.31181e-05
6.36374e-05
7.65902e-05
6.22385e-05
7.27938e-05
6.38878e-05
7.63661e-05
6.71871e-05
6.61636e-05
6.32161e-05
6.51056e-05
6.48095e-05
6.58633e-05
6.75262e-05
6.73532e-05
6.41855e-05
6.54084e-05
6.28534e-05
6.69977e-05
6.44744e-05
6.56831e-05
7.2648e-05
6.26701e-05
6.4558e-05
7.60585e-05
6.43087e-05
7.62894e-05
7.29712e-05
6.93216e-05
8.47354e-05
7.0521e-05
7.04868e-05
7.05986e-05
7.05726e-05
6.94923e-05
7.01536e-05
8.41656e-05
7.07826e-05
7.08069e-05
7.07771e-05
6.99828e-05
7.07607e-05
7.32023e-05
6.14095e-05
6.32284e-05
7.68798e-05
6.29772e-05
7.6746e-05
7.29133e-05
6.67738e-05
6.46029e-05
6.29925e-05
6.1812e-05
6.31369e-05
6.68891e-05
6.4754e-05
7.32045e-05
6.10591e-05
6.23345e-05
7.71782e-05
6.25699e-05
7.33127e-05
7.72845e-05
6.70171e-05
6.37691e-05
6.21408e-05
6.5161e-05
6.36246e-05
6.50116e-05
6.69231e-05
7.30464e-05
6.14264e-05
7.68751e-05
6.32153e-05
7.67444e-05
6.29835e-05
7.31233e-05
6.67458e-05
6.4636e-05
6.29184e-05
6.18234e-05
6.69188e-05
6.31971e-05
6.46812e-05
7.33607e-05
6.10466e-05
7.71672e-05
6.23401e-05
7.32551e-05
7.72794e-05
6.25606e-05
6.70467e-05
6.38391e-05
6.21142e-05
6.50934e-05
6.35511e-05
6.69011e-05
6.5056e-05
7.27862e-05
6.36379e-05
7.64128e-05
6.22612e-05
7.29856e-05
6.38826e-05
7.65526e-05
6.73851e-05
6.61648e-05
6.32108e-05
6.50247e-05
6.58683e-05
6.4907e-05
6.72747e-05
6.70695e-05
6.42492e-05
6.54435e-05
6.28603e-05
6.56738e-05
6.71859e-05
6.44026e-05
7.28636e-05
6.26531e-05
6.45643e-05
7.6261e-05
6.43016e-05
7.61058e-05
7.26405e-05
7.27796e-05
7.64143e-05
6.36408e-05
6.22406e-05
7.28992e-05
7.65486e-05
6.38612e-05
6.74037e-05
6.60062e-05
6.31732e-05
6.50942e-05
6.48183e-05
6.59919e-05
6.72619e-05
6.70485e-05
6.41847e-05
6.54955e-05
6.28741e-05
6.72121e-05
6.4444e-05
6.5558e-05
7.2827e-05
6.26568e-05
7.62657e-05
6.45128e-05
7.61103e-05
6.43302e-05
7.26421e-05
7.29234e-05
6.14538e-05
7.68982e-05
6.32529e-05
7.67549e-05
6.29415e-05
7.32911e-05
6.67943e-05
6.38352e-05
6.21084e-05
6.52296e-05
6.49269e-05
6.35593e-05
6.71791e-05
7.30788e-05
6.36537e-05
7.64266e-05
6.22617e-05
7.275e-05
6.3889e-05
7.65509e-05
6.71749e-05
6.60778e-05
6.31912e-05
6.50214e-05
6.74955e-05
6.59061e-05
6.4893e-05
6.73408e-05
6.42489e-05
6.54263e-05
6.28617e-05
6.69865e-05
6.5601e-05
6.43932e-05
7.26197e-05
6.26485e-05
6.45486e-05
7.62687e-05
7.29194e-05
6.42972e-05
7.61211e-05
7.30617e-05
7.6427e-05
6.36121e-05
6.22171e-05
7.27494e-05
7.65608e-05
6.39053e-05
6.71354e-05
6.61095e-05
6.31805e-05
6.51067e-05
6.48057e-05
6.58462e-05
6.75141e-05
6.73584e-05
6.41861e-05
6.53885e-05
6.28806e-05
6.69523e-05
6.44876e-05
6.56676e-05
7.26083e-05
6.2691e-05
7.62598e-05
6.45768e-05
7.61109e-05
6.42846e-05
7.29407e-05
6.92945e-05
8.47507e-05
7.06004e-05
7.06127e-05
7.04914e-05
7.04835e-05
6.95366e-05
7.01902e-05
8.41447e-05
7.07285e-05
7.07201e-05
7.08075e-05
6.99608e-05
7.0854e-05
7.31483e-05
6.14147e-05
7.66744e-05
6.31879e-05
7.69348e-05
6.30082e-05
7.29422e-05
6.67764e-05
6.46029e-05
6.29565e-05
6.17685e-05
6.47566e-05
6.6899e-05
6.31529e-05
7.31095e-05
6.1044e-05
7.73392e-05
6.23587e-05
7.70788e-05
7.33468e-05
6.25336e-05
6.70234e-05
6.37596e-05
6.21603e-05
6.51965e-05
6.5011e-05
6.36049e-05
6.69382e-05
7.29035e-05
7.64794e-05
6.36212e-05
6.22891e-05
7.28053e-05
7.64737e-05
6.38952e-05
6.73996e-05
6.61652e-05
6.31771e-05
6.50965e-05
6.72736e-05
6.58362e-05
6.48241e-05
6.70485e-05
6.41907e-05
6.53802e-05
6.28795e-05
6.7204e-05
6.5682e-05
6.44707e-05
7.2683e-05
6.26351e-05
7.60579e-05
6.45612e-05
7.27678e-05
7.61968e-05
6.42983e-05
7.27008e-05
7.65882e-05
6.36609e-05
6.22583e-05
7.2945e-05
7.63456e-05
6.38377e-05
6.73733e-05
6.6094e-05
6.32226e-05
6.50179e-05
6.48831e-05
6.59129e-05
6.73042e-05
6.70914e-05
6.42481e-05
6.54466e-05
6.28359e-05
6.71857e-05
6.43951e-05
6.56384e-05
7.28458e-05
6.26509e-05
7.60408e-05
6.45186e-05
7.62893e-05
6.43341e-05
7.26279e-05
7.01691e-05
8.42229e-05
7.06633e-05
7.06246e-05
6.99229e-05
7.08134e-05
7.09541e-05
7.19348e-05
8.32097e-05
7.17492e-05
7.17617e-05
7.21887e-05
7.15843e-05
7.15715e-05
7.26025e-05
6.4011e-05
6.59322e-05
7.55216e-05
6.56917e-05
7.57941e-05
7.25009e-05
6.76558e-05
6.64063e-05
6.55207e-05
6.39102e-05
6.56703e-05
6.75292e-05
6.65313e-05
7.2563e-05
6.35101e-05
6.50054e-05
7.59944e-05
6.52163e-05
7.2778e-05
7.58035e-05
6.77203e-05
6.63132e-05
6.42418e-05
6.70365e-05
6.61565e-05
6.69078e-05
6.793e-05
7.2357e-05
6.39853e-05
6.58922e-05
7.5537e-05
6.56951e-05
7.58005e-05
7.28294e-05
6.77569e-05
6.63214e-05
6.54547e-05
6.38866e-05
6.7395e-05
6.57059e-05
6.66872e-05
7.29162e-05
6.35224e-05
6.49857e-05
7.60056e-05
7.25531e-05
6.52082e-05
7.58094e-05
6.76056e-05
6.62935e-05
6.4248e-05
6.71886e-05
6.6116e-05
6.80308e-05
6.68052e-05
7.19824e-05
8.31899e-05
7.15704e-05
7.15688e-05
7.1712e-05
7.17011e-05
7.20826e-05
7.25987e-05
6.39582e-05
6.5909e-05
7.56134e-05
6.56668e-05
7.56695e-05
7.24846e-05
6.74795e-05
6.63365e-05
6.55287e-05
6.3877e-05
6.56536e-05
6.7573e-05
6.65847e-05
7.25605e-05
6.35362e-05
6.49839e-05
7.58282e-05
6.52281e-05
7.27801e-05
7.59389e-05
6.77992e-05
6.63018e-05
6.42585e-05
6.70921e-05
6.61571e-05
6.68785e-05
6.79508e-05
7.25873e-05
6.39519e-05
7.56269e-05
6.58836e-05
7.5677e-05
6.56945e-05
7.24712e-05
6.74436e-05
6.64533e-05
6.54666e-05
6.39032e-05
6.75887e-05
6.56588e-05
6.64641e-05
7.25371e-05
6.35565e-05
7.58328e-05
6.50128e-05
7.27554e-05
7.59456e-05
6.52061e-05
6.78642e-05
6.62768e-05
6.42187e-05
6.694e-05
6.6137e-05
6.76709e-05
6.69676e-05
7.23465e-05
6.40017e-05
7.56168e-05
6.59202e-05
7.56815e-05
6.56592e-05
7.28174e-05
6.77441e-05
6.63499e-05
6.54489e-05
6.38873e-05
6.6592e-05
6.73676e-05
6.56995e-05
7.29013e-05
6.35118e-05
7.58393e-05
6.4961e-05
7.5938e-05
7.25338e-05
6.5242e-05
6.76303e-05
6.6283e-05
6.42372e-05
6.71149e-05
6.68372e-05
6.61152e-05
6.77831e-05
7.19522e-05
8.31665e-05
7.17844e-05
7.17362e-05
7.1604e-05
7.15209e-05
7.21229e-05
7.25596e-05
6.39848e-05
7.57703e-05
6.59186e-05
7.57239e-05
6.56815e-05
7.24513e-05
6.76797e-05
6.63977e-05
6.55099e-05
6.39144e-05
6.65741e-05
6.75238e-05
6.5683e-05
7.25283e-05
6.35241e-05
7.59808e-05
6.49927e-05
7.58574e-05
7.27438e-05
6.5219e-05
6.77037e-05
6.63065e-05
6.42202e-05
6.71097e-05
6.68765e-05
6.61278e-05
6.79358e-05
0.000233968
0.000233539
0.00023354
0.000233435
0.000232518
0.000227474
0.000227481
0.000223703
0.000230461
0.000220007
0.00022001
0.000208857
0.000227713
0.000211365
0.000211369
0.000193563
0.000224328
0.000202377
0.000202381
0.000179552
0.000220435
0.000193535
0.000193535
0.000167226
0.00021618
0.000185074
0.000185069
0.000156523
0.000211695
0.000177063
0.000177055
0.000147194
0.000207083
0.000169542
0.000169535
0.000138969
0.000202426
0.000162483
0.000162476
0.000131704
0.000197778
0.000155833
0.000155827
0.000125095
0.000193172
0.000149538
0.000149533
0.000118969
0.000188588
0.000143558
0.000143554
0.000113207
0.000184061
0.00013784
0.000137835
0.000107893
0.00017962
0.000132341
0.000132336
0.000102975
0.000175254
0.000127054
0.000127049
9.83002e-05
0.000170952
0.000121996
0.000121994
9.39955e-05
0.000166701
0.000117201
0.0001172
9.03543e-05
0.0001625
0.000112695
0.000112695
8.74124e-05
0.00010854
8.51122e-05
0.00023425
0.000234469
0.000234468
0.000234247
0.000234469
0.000234467
0.00023426
0.00023426
0.00023426
0.000234261
0.000234468
0.000234471
0.000234254
0.000234467
0.000234471
0.00023426
0.000233433
0.000226026
0.000233538
0.000233536
0.000229027