/*--------------------------------*- C++ -*----------------------------------*\
| =========                 |                                                 |
| \\      /  F ield         | OpenFOAM: The Open Source CFD Toolbox           |
|  \\    /   O peration     | Version:  2312                                  |
|   \\  /    A nd           | Website:  www.openfoam.com                      |
|    \\/     M anipulation  |                                                 |
\*---------------------------------------------------------------------------*/
FoamFile
{
    version     2.0;
    format      ascii;
    arch        "LSB;label=32;scalar=64";
    class       volScalarField;
    location    "550";
    object      p;
}
// * * * * * * * * * * * * * * * * * * * * * * * * * * * * * * * * * * * * * //

dimensions      [0 2 -2 0 0 0 0];

internalField   nonuniform List<scalar> 
172512
(
0.000710854
0.000710802
0.000710802
0.000712378
0.000718026
0.000719637
0.000719637
0.000718025
0.000719637
0.000719637
0.000719637
0.000719637
0.000718026
0.000719637
0.000719637
0.000718025
0.000712378
0.000710802
0.000710802
0.000712377
0.000710802
0.000710802
0.000710802
0.000712378
0.000710802
0.000735142
0.00073514
0.000735142
0.00071969
0.00071969
0.00071969
0.00071969
0.000735141
0.000737303
0.000735177
0.000699804
0.000712945
0.000712933
0.000699806
0.000712953
0.000699805
0.000699804
0.000712945
0.000712933
0.000699806
0.000710854
0.000710854
0.000710854
0.000699885
0.000712898
0.000710821
0.000701965
0.000712849
0.000699841
0.000701984
0.000712953
0.000699805
0.000699885
0.000710821
0.000712898
0.000701965
0.000712849
0.000701984
0.000699841
0.000712945
0.000712945
0.000700353
0.0006998
0.000699799
0.000735141
0.000735141
0.000735692
0.000735136
0.000735136
0.000717476
0.000730619
0.000717476
0.000730619
0.000730046
0.000717471
0.000717471
0.000730611
0.000730611
0.000737303
0.000735178
0.0007306
0.000717477
0.000730612
0.000717475
0.0007306
0.000717477
0.000730611
0.000717475
0.000730516
0.000728471
0.000717513
0.000719657
0.000730565
0.000728491
0.000717557
0.000730516
0.000728471
0.000717513
0.000719657
0.000730564
0.000728491
0.000717557
0.000717476
0.000730619
0.000730044
0.000717471
0.000717471
0.000730611
0.000717476
0.000735222
0.000737303
0.000735178
0.000737324
0.00073514
0.000735142
0.000735222
0.000737303
0.000737324
0.000735177
0.0007306
0.000717477
0.000730612
0.000717475
0.000730516
0.000728471
0.000717512
0.000719657
0.000730565
0.000728491
0.000717557
0.0007306
0.000717477
0.000730612
0.000717475
0.000730516
0.000728471
0.000719657
0.000717512
0.000728491
0.000730565
0.000717557
0.000717512
0.000719656
0.000717557
0.000717477
0.000717475
0.000719657
0.000717512
0.000717557
0.000717477
0.000717475
0.000735692
0.000735135
0.000735135
0.000735141
0.000717476
0.000730619
0.000730045
0.00071747
0.000717471
0.000730611
0.000730611
0.000717476
0.000730619
0.000735142
0.000730516
0.000728471
0.000719657
0.000717512
0.000728491
0.000730564
0.000717557
0.000730515
0.000728471
0.000719657
0.000717512
0.000728491
0.000730565
0.000717557
0.000730599
0.000717477
0.000730612
0.000717475
0.000730599
0.000717477
0.000730612
0.000717476
0.000730044
0.00071747
0.000717471
0.000730611
0.000717476
0.000717476
0.000730619
0.000712953
0.000699805
0.000712953
0.000699805
0.000712945
0.000712945
0.000700353
0.0006998
0.0006998
0.00069528
0.00069528
0.000694704
0.000695272
0.000695272
0.000699804
0.000712945
0.000712933
0.000699806
0.000699885
0.000712898
0.000710822
0.000701965
0.000712849
0.000699841
0.000701984
0.000699885
0.000712897
0.000710821
0.000701965
0.000712849
0.000699842
0.000701984
0.00069526
0.000695273
0.00069526
0.000695273
0.000695176
0.000693127
0.000695225
0.000693146
0.000695176
0.000693127
0.000695225
0.000693146
0.000712944
0.000712945
0.000700354
0.0006998
0.0006998
0.000712953
0.000699805
0.00069528
0.000694704
0.000695272
0.000695272
0.00069528
0.000699885
0.000712898
0.000710822
0.000701965
0.000712849
0.000699841
0.000701984
0.000699804
0.000712945
0.000712933
0.000699806
0.000699885
0.000710821
0.000712898
0.000701965
0.000712849
0.000701984
0.000699841
0.000695261
0.000695273
0.000695176
0.000693127
0.000695225
0.000693146
0.000695261
0.000695273
0.000695176
0.000693127
0.000693146
0.000695225
0.000699804
0.000712945
0.000712933
0.000699806
0.000699885
0.000710822
0.000712898
0.000701965
0.000712849
0.000701985
0.000699841
0.000699804
0.000712945
0.000712933
0.000699806
0.000695176
0.000693127
0.000695225
0.000693146
0.00069526
0.000695273
0.000695176
0.000693127
0.000693146
0.000695225
0.000695261
0.000695273
0.000712945
0.000712945
0.000700353
0.000699799
0.0006998
0.000712953
0.000699805
0.00069528
0.000694704
0.000695272
0.000695272
0.00069528
0.000699885
0.000710821
0.000712898
0.000701965
0.000712849
0.000701984
0.000699841
0.000699804
0.000712946
0.000712933
0.000699806
0.000699805
0.000712945
0.000712932
0.000699806
0.000695176
0.000693127
0.000693146
0.000695225
0.000695176
0.000693127
0.000693146
0.000695225
0.00069526
0.000695273
0.00069526
0.000695273
0.000712953
0.000699805
0.000712953
0.000699805
0.000694704
0.000695272
0.000695272
0.00069528
0.00069528
0.000739455
0.000735129
0.000739443
0.000739447
0.000735138
0.000739452
0.000739431
0.000735139
0.000735134
0.000739434
0.000739451
0.000735134
0.000739454
0.000735129
0.000739443
0.000739447
0.000735138
0.00073945
0.00070412
0.000704098
0.000699798
0.000699802
0.000704118
0.000704101
0.000699798
0.000708639
0.00071295
0.000708642
0.000712957
0.00070863
0.000708635
0.00070864
0.000712953
0.000712936
0.000712955
0.000708634
0.000708639
0.000704122
0.000699793
0.00070411
0.000704114
0.000699802
0.000708641
0.000704117
0.00070412
0.000704098
0.000699802
0.000699798
0.000704101
0.000704118
0.000699798
0.000708639
0.00071295
0.000708642
0.000712957
0.00070863
0.000708635
0.00070864
0.000712936
0.000712954
0.000712955
0.000708639
0.000708634
0.000704122
0.000699793
0.00070411
0.000704114
0.000699802
0.000708641
0.000704117
0.000704124
0.0006998
0.0006998
0.000704127
0.000704127
0.000699791
0.000708659
0.000712888
0.000712948
0.000708636
0.000712921
0.000708688
0.000708644
0.000708659
0.000712888
0.000712948
0.000708636
0.000712922
0.000708688
0.000708644
0.000708627
0.000712962
0.000712962
0.000712959
0.000708637
0.000708636
0.000704086
0.000699808
0.000704109
0.000699852
0.000704052
0.000704113
0.000699822
0.000704086
0.000699807
0.000704109
0.000699852
0.000704052
0.000704113
0.000699822
0.00073945
0.00073945
0.000739456
0.000735136
0.000735136
0.00073946
0.00073946
0.000735127
0.000739419
0.000735144
0.000739442
0.000735189
0.000739445
0.000735159
0.000739385
0.000739419
0.000735144
0.000739442
0.000735189
0.000739445
0.000735159
0.000739385
0.000721787
0.000726309
0.000721787
0.000726309
0.000726296
0.000730629
0.000730629
0.000730626
0.000726305
0.000726305
0.000721755
0.000717524
0.000721779
0.000717479
0.000721782
0.000721721
0.000717494
0.000721755
0.000717524
0.000721779
0.000717479
0.000721782
0.000721722
0.000717494
0.000726327
0.000730615
0.000730554
0.000726304
0.000730588
0.000726312
0.000726357
0.000726327
0.000730615
0.000730554
0.000726304
0.000730588
0.000726312
0.000726357
0.000721793
0.000717472
0.000717472
0.000721797
0.000721797
0.000717462
0.000726302
0.00073062
0.000730603
0.000726308
0.000730622
0.000726302
0.000726307
0.000721791
0.000721779
0.000717464
0.000717473
0.000721784
0.000726306
0.000730616
0.00072631
0.000730623
0.000726298
0.00072179
0.000721767
0.000717469
0.000717473
0.000717469
0.000721787
0.000721771
0.000726302
0.00073062
0.000730603
0.000726308
0.000730622
0.000726302
0.000726307
0.000721791
0.000721779
0.000717464
0.000721784
0.000717473
0.000726306
0.000730616
0.00072631
0.000730623
0.000726298
0.00072179
0.000721767
0.000717469
0.000717473
0.000721788
0.000721771
0.000717469
0.000721787
0.000726309
0.000721755
0.000717523
0.000721778
0.000717479
0.000721722
0.000721782
0.000717494
0.000721755
0.000717523
0.000721778
0.000717479
0.000721782
0.000721721
0.000717494
0.000730554
0.000726304
0.000726357
0.000721793
0.000717471
0.000717471
0.000721796
0.000721796
0.000717462
0.000721787
0.000739452
0.000739431
0.000735134
0.000735138
0.000739451
0.000739434
0.000735134
0.000739454
0.000735129
0.000739442
0.000739447
0.000735138
0.000726302
0.000730603
0.00073062
0.000726308
0.000730622
0.000726307
0.000726302
0.000721791
0.000721779
0.000717464
0.000717473
0.000721784
0.000726306
0.000730616
0.00072631
0.000730624
0.000726298
0.000721789
0.000721767
0.000717473
0.000717469
0.000717469
0.00072177
0.000721787
0.000726302
0.00073062
0.000730603
0.000726308
0.000730622
0.000726302
0.000726307
0.000721791
0.000721779
0.000717464
0.000721784
0.000717473
0.000726306
0.000730616
0.00072631
0.000730624
0.000726297
0.00072179
0.000721767
0.000717469
0.000717473
0.000721787
0.00072177
0.000717469
0.000721791
0.000721779
0.000717465
0.000721783
0.000717473
0.000721789
0.000721766
0.000717474
0.000717469
0.000721769
0.000721787
0.00071747
0.000721791
0.000721779
0.000717464
0.000721783
0.000717473
0.000721789
0.000721767
0.000717469
0.000717474
0.000721787
0.00072177
0.000717469
0.000739456
0.000735136
0.000735136
0.00073946
0.00073946
0.000735127
0.000739419
0.000735143
0.000739442
0.000735188
0.000739445
0.000739385
0.000735158
0.000739419
0.000735143
0.000739442
0.000735189
0.000739385
0.000739445
0.000735158
0.00073945
0.000721787
0.000726309
0.000726295
0.000730629
0.000730629
0.000730625
0.000726305
0.000726305
0.000721756
0.000717523
0.000721779
0.000717478
0.000721722
0.000721782
0.000717494
0.000721755
0.000717524
0.000721779
0.000717479
0.000721782
0.000721722
0.000717494
0.000726327
0.000730615
0.000730555
0.000726304
0.000726356
0.000730588
0.000726312
0.000726327
0.000730615
0.000730554
0.000726304
0.000730588
0.000726312
0.000726357
0.000721793
0.000717471
0.000717472
0.000721796
0.000721796
0.000717462
0.000721787
0.000726309
0.000739443
0.000726302
0.000730603
0.00073062
0.000726309
0.000730622
0.000726307
0.000726302
0.000721791
0.000721779
0.000717464
0.000721784
0.000717473
0.000726306
0.000730616
0.00072631
0.000730623
0.000726298
0.00072179
0.000721767
0.000717474
0.000717469
0.00072177
0.000721787
0.000717469
0.000726302
0.000730602
0.00073062
0.000726309
0.000730622
0.000726307
0.000726303
0.000721791
0.000721779
0.000717464
0.000721783
0.000717473
0.000726306
0.000730616
0.00072631
0.000730624
0.000726298
0.000721789
0.000721766
0.000717474
0.000717469
0.00072177
0.000721787
0.000717469
0.000726295
0.000726304
0.000726305
0.000721755
0.000717523
0.000721779
0.000717479
0.000717493
0.000721721
0.000721782
0.000721756
0.000717523
0.000721779
0.000717479
0.000717494
0.000721722
0.000721782
0.000726327
0.000726304
0.000726357
0.000726312
0.000726327
0.000730554
0.000726304
0.000726356
0.000726312
0.000721793
0.000717472
0.000717471
0.000717462
0.000721797
0.000721796
0.000721786
0.000726309
0.000721787
0.000726309
0.000708641
0.000704117
0.000708641
0.000704117
0.000704124
0.0006998
0.0006998
0.000704127
0.000704127
0.000699791
0.000708659
0.000712887
0.000712948
0.000708636
0.000712921
0.000708644
0.000708689
0.000708659
0.000712887
0.000712948
0.000708636
0.000712921
0.000708644
0.000708689
0.000708628
0.000712963
0.000712963
0.000712959
0.000708637
0.000708637
0.000704085
0.000699808
0.000704109
0.000699852
0.000704113
0.000699823
0.000704052
0.000704086
0.000699808
0.00070411
0.000699852
0.000704113
0.000699823
0.000704052
0.000690967
0.000690967
0.000690953
0.00069529
0.00069529
0.000695286
0.000690962
0.000690962
0.000690985
0.000695275
0.000695214
0.000690962
0.000695248
0.00069097
0.000691014
0.000690985
0.000695275
0.000695215
0.000690961
0.000695248
0.00069097
0.000691014
0.00070412
0.000704098
0.000699798
0.000699802
0.000704118
0.000704101
0.000699798
0.000708638
0.000712949
0.000708642
0.000712957
0.000708629
0.000708634
0.00070864
0.000712953
0.000712936
0.000708634
0.000712955
0.000708639
0.000704121
0.000699793
0.00070411
0.000704114
0.000699802
0.00069096
0.000695281
0.000695264
0.000690966
0.000695283
0.00069096
0.000690964
0.000690964
0.000695277
0.000690968
0.000695284
0.000690955
0.00069096
0.000695281
0.000695264
0.000690966
0.000695283
0.00069096
0.000690964
0.000690964
0.000695277
0.000690968
0.000695284
0.000690955
0.000704123
0.0006998
0.0006998
0.000704127
0.000704127
0.000699791
0.000708659
0.000712887
0.000712948
0.000708636
0.000708644
0.000712921
0.000708689
0.000708659
0.000712887
0.000712948
0.000708636
0.000708689
0.000712921
0.000708644
0.000708627
0.000712962
0.000712962
0.000708637
0.000712959
0.000708637
0.000704086
0.000699808
0.000704109
0.000699852
0.000704113
0.000704052
0.000699822
0.000704085
0.000699808
0.000704109
0.000699852
0.000704051
0.000704113
0.000699823
0.000708642
0.000704117
0.000690967
0.000690953
0.00069529
0.00069529
0.000695286
0.000690962
0.000690962
0.000690984
0.000695275
0.000695214
0.000690962
0.000691014
0.000695248
0.00069097
0.000690985
0.000695275
0.000695214
0.000690962
0.000695248
0.00069097
0.000691014
0.000690967
0.00070412
0.000704098
0.000699798
0.000699802
0.000704118
0.000704101
0.000699798
0.000708638
0.00071295
0.000708642
0.000712957
0.000708629
0.000708634
0.00070864
0.000712953
0.000712936
0.000708634
0.000712955
0.000708639
0.000704122
0.000699793
0.00070411
0.000704114
0.000699802
0.00069096
0.000695264
0.000695281
0.000690966
0.000695283
0.000690965
0.00069096
0.000690964
0.000695277
0.000690968
0.000695284
0.000690955
0.00069096
0.000695281
0.000695264
0.000690966
0.000695283
0.00069096
0.000690964
0.000690964
0.000695277
0.000690968
0.000695284
0.000690955
0.00070412
0.000704097
0.000699803
0.000699798
0.0007041
0.000704118
0.000699799
0.000708638
0.000712949
0.000708643
0.00070863
0.000712957
0.000708635
0.000708641
0.000712935
0.000712953
0.00070864
0.000712955
0.000708634
0.000704122
0.000699794
0.00070411
0.000704114
0.000699802
0.00070412
0.000704098
0.000699798
0.000699803
0.000704118
0.000704101
0.000699798
0.000708639
0.000712949
0.000708642
0.000712957
0.00070863
0.000708635
0.00070864
0.000712953
0.000712936
0.000712955
0.000708634
0.000708639
0.000704122
0.000699793
0.00070411
0.000704114
0.000699802
0.000690961
0.000695263
0.000695281
0.000690966
0.000695283
0.000690965
0.00069096
0.000690964
0.000695276
0.000690968
0.000695285
0.000690956
0.00069096
0.000695281
0.000695264
0.000690966
0.000695283
0.00069096
0.000690964
0.000690964
0.000695277
0.000690968
0.000695285
0.000690956
0.000704124
0.0006998
0.0006998
0.000704127
0.000704127
0.000699791
0.000708659
0.000712888
0.000712948
0.000708636
0.000708644
0.000712922
0.000708688
0.000708659
0.000712888
0.000712948
0.000708636
0.000708689
0.000712922
0.000708644
0.000708628
0.000712963
0.000712963
0.000708637
0.000712959
0.000708637
0.000704086
0.000699807
0.000704109
0.000699851
0.000704113
0.000704053
0.000699822
0.000704086
0.000699808
0.000704109
0.000699852
0.000704052
0.000704113
0.000699822
0.000708642
0.000704117
0.000690967
0.000690953
0.00069529
0.00069529
0.000695286
0.000690962
0.000690962
0.000690984
0.000695276
0.000695215
0.000690961
0.000691013
0.000695249
0.000690969
0.000690984
0.000695276
0.000695215
0.000690962
0.000695249
0.000690969
0.000691014
0.000690967
0.00070412
0.000704097
0.000699802
0.000699798
0.000704101
0.000704118
0.000699798
0.000708639
0.00071295
0.000708643
0.00070863
0.000712957
0.000708635
0.000708641
0.000712937
0.000712953
0.000708639
0.000712956
0.000708635
0.000704122
0.000699793
0.00070411
0.000704114
0.000699802
0.00070412
0.000704097
0.000699803
0.000699798
0.0007041
0.000704118
0.000699798
0.000708638
0.000712949
0.000708642
0.000712957
0.00070863
0.000708634
0.000708641
0.000712936
0.000712953
0.000712955
0.000708639
0.000708635
0.000704122
0.000699793
0.00070411
0.000704114
0.000699802
0.00069096
0.000695264
0.000695281
0.000690966
0.000695283
0.000690964
0.00069096
0.000690964
0.000695277
0.000690968
0.000695285
0.000690955
0.00069096
0.000695263
0.000695281
0.000690966
0.000695283
0.000690965
0.00069096
0.000690964
0.000695277
0.000690968
0.000695284
0.000690955
0.000708641
0.000704117
0.000708641
0.000704117
0.000690953
0.00069529
0.00069529
0.000695287
0.000690962
0.000690962
0.000690984
0.000695275
0.000695215
0.000690962
0.000695248
0.000691014
0.00069097
0.000690984
0.000695276
0.000695215
0.000690961
0.000695249
0.000691014
0.000690969
0.000690967
0.000690967
0.000737357
0.00073739
0.000710886
0.000710886
0.000702016
0.000702048
0.000702048
0.000702093
0.000710931
0.00070876
0.000712657
0.000712658
0.00070919
0.000712819
0.000708932
0.000708932
0.000721653
0.000721212
0.000717768
0.000717767
0.000721491
0.000721492
0.000717595
0.000721653
0.000721211
0.000717768
0.000717766
0.000721492
0.000721489
0.000717595
0.000721654
0.000721212
0.000717768
0.000717768
0.000721491
0.000721492
0.000717595
0.000721653
0.000721213
0.000717768
0.000717767
0.000717595
0.000721492
0.000721492
0.00070876
0.000712657
0.000712658
0.00070919
0.000712819
0.000708932
0.000708932
0.00070876
0.000712657
0.000712656
0.000709191
0.000708933
0.000712819
0.000708933
0.00070876
0.000712657
0.000712657
0.00070919
0.000708932
0.00071282
0.000708933
0.000737357
0.00073739
0.000728524
0.000719722
0.000719722
0.000728557
0.000728557
0.000728603
0.000719768
0.000728524
0.000719722
0.000719722
0.000728557
0.000728555
0.000728604
0.000719768
0.000728525
0.000719722
0.000719722
0.000728557
0.000728558
0.000728604
0.000719768
0.000728524
0.000719722
0.000719722
0.000728555
0.000728557
0.000728604
0.000719768
0.000739395
0.000735339
0.000739247
0.000710886
0.000710886
0.000702016
0.000702048
0.000702048
0.000702092
0.000710931
0.000710885
0.000710885
0.000702016
0.000702048
0.000702047
0.000702093
0.000710931
0.000710886
0.000710885
0.000702016
0.000702048
0.000702047
0.000702093
0.000710931
0.000693177
0.000693208
0.000693208
0.000693253
0.000693177
0.000693208
0.000693208
0.000693253
0.000693177
0.000693208
0.000693208
0.000693253
0.000693177
0.000693208
0.000693208
0.000693253
0.000703781
0.000704013
0.000699882
0.00070012
0.000704017
0.000703783
0.000700126
0.000708923
0.000712748
0.000712868
0.000708678
0.000712645
0.000708839
0.000708704
0.000708962
0.000708722
0.000712853
0.000712619
0.000712617
0.000708719
0.000708957
0.000703809
0.000699868
0.000704062
0.000700002
0.000703913
0.000704032
0.000700087
0.000703781
0.000704013
0.00070012
0.000699882
0.000703783
0.000704018
0.000700126
0.000708923
0.000712749
0.000712868
0.000708678
0.000712645
0.000708838
0.000708704
0.000708962
0.000708722
0.000712619
0.000712854
0.000712617
0.000708957
0.000708719
0.000703809
0.000699867
0.000704062
0.000700002
0.000703913
0.000704033
0.000700086
0.000703983
0.000703542
0.000700096
0.000700095
0.000703821
0.000703822
0.000699923
0.000739317
0.000738877
0.000735434
0.000735433
0.00073526
0.000739155
0.000739156
0.000726428
0.00072686
0.000730324
0.000730325
0.000730486
0.000726602
0.000726601
0.000739144
0.000735204
0.000739396
0.000735339
0.000739366
0.000739247
0.000735424
0.000726631
0.00073052
0.000730286
0.00072639
0.000730284
0.000726387
0.000726626
0.000721479
0.000717673
0.000721732
0.000717539
0.000721583
0.000721702
0.000717758
0.000726592
0.000730534
0.000730416
0.000726346
0.000726507
0.000730312
0.000726372
0.000721451
0.000721683
0.000717554
0.000717792
0.000721687
0.000721453
0.000717798
0.000726632
0.00073052
0.000730286
0.00072639
0.000730284
0.000726387
0.000726626
0.000721478
0.000717672
0.000721732
0.000717539
0.000721702
0.000721582
0.000717758
0.000726592
0.000730534
0.000730416
0.000726346
0.000730311
0.000726372
0.000726507
0.000721451
0.000721683
0.000717554
0.000717793
0.000721688
0.000721453
0.000717798
0.000726861
0.000730321
0.000726602
0.000739115
0.000739347
0.000735219
0.000735459
0.000739351
0.000739118
0.000735464
0.000739143
0.000735204
0.000739395
0.000735339
0.000739366
0.000739247
0.000735425
0.000739116
0.000739347
0.000735459
0.000735219
0.000739118
0.000739351
0.000735464
0.000739143
0.000735204
0.000739395
0.000735339
0.000739366
0.000735424
0.000739247
0.000726632
0.00073052
0.000730286
0.00072639
0.000730284
0.000726387
0.000726627
0.000721479
0.000717673
0.000721732
0.000717539
0.000721583
0.000721702
0.000717759
0.000726592
0.000730535
0.000730416
0.000726346
0.000726507
0.000730312
0.000726372
0.000721451
0.000721683
0.000717554
0.000717793
0.000721687
0.000721453
0.000717798
0.000726631
0.000730286
0.000730521
0.00072639
0.000730284
0.000726626
0.000726387
0.000721479
0.000717673
0.000721732
0.000717538
0.000721702
0.000721583
0.000717758
0.000726592
0.000730535
0.000730416
0.000726345
0.000730312
0.000726372
0.000726506
0.000721451
0.000721683
0.000717793
0.000717553
0.000721453
0.000721688
0.000717798
0.000721478
0.000717672
0.000721731
0.000717539
0.000717758
0.000721582
0.000721701
0.000721451
0.000721683
0.000717554
0.000717792
0.000717797
0.000721687
0.000721453
0.000721479
0.000717672
0.000721732
0.000717539
0.000721701
0.000721583
0.000717758
0.000721451
0.000721683
0.000717792
0.000717554
0.000721453
0.000721687
0.000717797
0.000739317
0.000738877
0.000735434
0.000735433
0.000739156
0.000739155
0.00073526
0.000726428
0.00072686
0.000730324
0.000730324
0.000726601
0.000730486
0.000726601
0.000726632
0.000730287
0.00073052
0.00072639
0.000730285
0.000726626
0.000726387
0.000721479
0.000717673
0.000721732
0.000717539
0.000717758
0.000721583
0.000721702
0.000726592
0.000730535
0.000730416
0.000726346
0.000730312
0.000726507
0.000726372
0.000721451
0.000721683
0.000717793
0.000717554
0.000717798
0.000721454
0.000721687
0.000726632
0.000730286
0.00073052
0.00072639
0.000730284
0.000726626
0.000726387
0.000721479
0.000717673
0.000721732
0.000717539
0.000721702
0.000721583
0.000717758
0.000726592
0.000730535
0.000730416
0.000726346
0.000730312
0.000726372
0.000726506
0.000721451
0.000721683
0.000717793
0.000717554
0.000721453
0.000721687
0.000717798
0.000726428
0.000726859
0.000730321
0.000726604
0.000726599
0.000703983
0.000703541
0.000700096
0.000700095
0.000699923
0.000703821
0.000703822
0.000691085
0.000691515
0.000694984
0.000694984
0.000695146
0.000691257
0.000691257
0.000703781
0.000704013
0.000699882
0.00070012
0.000704017
0.000703783
0.000700126
0.000708923
0.000712749
0.000712868
0.000708678
0.000708704
0.000712645
0.000708838
0.000708962
0.000708721
0.000712853
0.000712619
0.000708719
0.000712617
0.000708957
0.000703809
0.000699867
0.000704062
0.000700001
0.000704032
0.000703913
0.000700086
0.00070378
0.000704013
0.000699882
0.00070012
0.000704017
0.000703783
0.000700126
0.000708924
0.000712748
0.000712868
0.000708678
0.000712644
0.000708704
0.000708839
0.000708963
0.000708721
0.000712853
0.000712619
0.000712616
0.000708718
0.000708957
0.000703808
0.000699867
0.000704062
0.000700002
0.000704032
0.000700087
0.000703913
0.000691287
0.00069518
0.000694945
0.000691047
0.000694943
0.000691044
0.000691282
0.000691248
0.000695195
0.000695076
0.000691003
0.000691163
0.000694971
0.000691029
0.000691288
0.00069518
0.000694945
0.000691047
0.000694943
0.000691044
0.000691282
0.000691249
0.000695195
0.000695075
0.000691003
0.000694971
0.000691029
0.000691164
0.000703983
0.000703541
0.000700096
0.000700096
0.000703821
0.000703821
0.000699923
0.000691085
0.000691515
0.000694983
0.000694984
0.000691258
0.000695146
0.000691257
0.00070378
0.000704013
0.000699882
0.000700121
0.000704017
0.000703783
0.000700126
0.000708924
0.000712749
0.000712868
0.000708677
0.000708704
0.000712644
0.000708838
0.000708963
0.000708722
0.000712853
0.000712619
0.000708719
0.000712616
0.000708957
0.000703808
0.000699867
0.000704062
0.000700002
0.000704032
0.000703913
0.000700087
0.000703781
0.000704013
0.000700121
0.000699882
0.000703783
0.000704018
0.000700126
0.000708923
0.00071275
0.000712868
0.000708677
0.000712645
0.000708703
0.000708838
0.000708962
0.000708722
0.000712619
0.000712853
0.000712617
0.000708957
0.000708718
0.000703809
0.000699867
0.000704062
0.000700001
0.000704033
0.000700086
0.000703914
0.000691288
0.00069518
0.000694945
0.000691047
0.000694943
0.000691044
0.000691282
0.000691249
0.000695195
0.000695076
0.000691003
0.000691163
0.000694971
0.000691029
0.000691287
0.000694945
0.00069518
0.000691047
0.000694943
0.000691282
0.000691044
0.000691248
0.000695195
0.000695077
0.000691003
0.000694971
0.000691029
0.000691163
0.000703781
0.000704013
0.00070012
0.000699882
0.000703783
0.000704018
0.000700126
0.000708923
0.000712749
0.000712868
0.000708678
0.000708837
0.000712645
0.000708704
0.000708962
0.000708722
0.000712619
0.000712853
0.000708957
0.000712617
0.000708719
0.000703809
0.000699867
0.000704062
0.000700001
0.000703914
0.000704032
0.000700086
0.000691287
0.00069518
0.000694945
0.000691047
0.000694944
0.000691044
0.000691282
0.000691248
0.000695195
0.000695075
0.000691003
0.000694971
0.000691164
0.000691029
0.000691287
0.000694945
0.00069518
0.000691047
0.000694944
0.000691282
0.000691044
0.000691248
0.000695195
0.000695077
0.000691003
0.000694971
0.000691029
0.000691163
0.000703984
0.000703542
0.000700096
0.000700096
0.000703822
0.000703821
0.000699923
0.000691085
0.000691515
0.000694983
0.000694984
0.000691257
0.000695146
0.000691257
0.000703781
0.000704013
0.00070012
0.000699882
0.000703783
0.000704017
0.000700126
0.000708923
0.000712749
0.000712868
0.000708678
0.000708838
0.000712645
0.000708703
0.000708963
0.000708722
0.000712619
0.000712853
0.000708957
0.000712617
0.000708719
0.000703809
0.000699867
0.000704062
0.000700002
0.000703913
0.000704032
0.000700086
0.000691287
0.000694945
0.00069518
0.000691047
0.000694943
0.000691282
0.000691044
0.000691248
0.000695195
0.000695076
0.000691003
0.000694971
0.000691163
0.000691029
0.000691288
0.000694945
0.00069518
0.000691047
0.000694943
0.000691282
0.000691044
0.000691248
0.000695195
0.000695076
0.000691003
0.000694971
0.000691029
0.000691163
0.000691085
0.000691515
0.000694984
0.000694984
0.000695146
0.000691257
0.000691257
0.000675494
0.000675445
0.000675445
0.000677024
0.000640107
0.000640061
0.000640061
0.000641642
0.000604691
0.000604648
0.000604648
0.000606232
0.000569245
0.000569204
0.000569204
0.000570791
0.000533768
0.000533729
0.000533729
0.000535319
0.000498257
0.000498222
0.000498221
0.000499814
0.000462713
0.00046268
0.00046268
0.000464275
0.000427135
0.000427103
0.000427103
0.000428701
0.000391521
0.000391492
0.000391493
0.000393093
0.000355872
0.000355845
0.000355845
0.000357448
0.000320187
0.000320162
0.000320162
0.000321768
0.000284466
0.000284443
0.000284443
0.000286052
0.000248708
0.000248687
0.000248687
0.000250298
0.000212914
0.000212895
0.000212895
0.000214509
0.000177084
0.000177066
0.000177066
0.000178683
0.000141216
0.000141199
0.000141199
0.000142819
0.000105306
0.000105291
0.000105291
0.000106915
6.93672e-05
6.93379e-05
6.93372e-05
7.0961e-05
3.40317e-05
3.34915e-05
3.34882e-05
3.49323e-05
1.09763e-05
7.25209e-06
7.24907e-06
5.71666e-06
0.000682675
0.000684287
0.000684287
0.000682675
0.000684287
0.000684287
0.000684287
0.000684287
0.000682675
0.000684287
0.000684287
0.000682674
0.000677023
0.000647297
0.000675445
0.000675445
0.000648909
0.000648909
0.000677023
0.000647297
0.000675445
0.000675445
0.000648909
0.000648909
0.000675445
0.000648909
0.000648909
0.000677023
0.000647297
0.000675445
0.000648909
0.000648909
0.000647297
0.000641642
0.000611891
0.000640061
0.000640061
0.000613504
0.000613504
0.000641642
0.000611891
0.000640061
0.000640061
0.000613504
0.000613504
0.000640061
0.000613504
0.000613504
0.000641642
0.000611891
0.000640061
0.000613504
0.000613504
0.00061189
0.000606231
0.000576454
0.000604648
0.000604648
0.000578068
0.000578068
0.000606231
0.000576454
0.000604648
0.000604648
0.000578068
0.000578068
0.000604648
0.000578068
0.000578068
0.000606232
0.000576454
0.000604648
0.000578068
0.000578068
0.000576454
0.000570791
0.000540986
0.000569204
0.000569204
0.000542601
0.000542601
0.00057079
0.000540987
0.000569204
0.000569204
0.000542601
0.000542601
0.000569204
0.000542601
0.000542601
0.000570791
0.000540986
0.000569204
0.000542601
0.000542601
0.000540986
0.000535318
0.000505486
0.000533729
0.000533729
0.000507101
0.000507101
0.000535318
0.000505486
0.000533729
0.000533729
0.000507101
0.000507101
0.000533729
0.000507101
0.000507101
0.000535318
0.000505486
0.000533729
0.000507101
0.000507101
0.000505486
0.000499813
0.000469952
0.000498221
0.000498221
0.000471568
0.000471568
0.000499813
0.000469952
0.000498221
0.000498221
0.000471568
0.000471568
0.000498221
0.000471568
0.000471568
0.000499813
0.000469952
0.000498221
0.000471568
0.000471568
0.000469952
0.000464274
0.000434384
0.00046268
0.00046268
0.000436
0.000436
0.000464274
0.000434384
0.00046268
0.00046268
0.000436
0.000436
0.00046268
0.000436
0.000436
0.000464274
0.000434383
0.00046268
0.000436
0.000436
0.000434383
0.000428701
0.00039878
0.000427104
0.000427103
0.000400398
0.000400398
0.000428701
0.00039878
0.000427103
0.000427103
0.000400398
0.000400398
0.000427103
0.000400398
0.000400398
0.000428701
0.00039878
0.000427103
0.000400398
0.000400398
0.00039878
0.000393092
0.000363141
0.000391492
0.000391492
0.00036476
0.00036476
0.000393092
0.000363141
0.000391492
0.000391492
0.00036476
0.00036476
0.000391492
0.00036476
0.00036476
0.000393093
0.000363141
0.000391492
0.00036476
0.00036476
0.000363141
0.000357448
0.000327466
0.000355845
0.000355845
0.000329085
0.000329085
0.000357448
0.000327466
0.000355845
0.000355845
0.000329085
0.000329085
0.000355845
0.000329085
0.000329086
0.000357448
0.000327466
0.000355845
0.000329086
0.000329086
0.000327466
0.000321768
0.000291755
0.000320162
0.000320162
0.000293375
0.000293375
0.000321768
0.000291755
0.000320162
0.000320162
0.000293375
0.000293375
0.000320162
0.000293375
0.000293375
0.000321768
0.000291755
0.000320162
0.000293375
0.000293375
0.000291754
0.000286051
0.000256007
0.000284443
0.000284443
0.000257628
0.000257628
0.000286051
0.000256008
0.000284443
0.000284443
0.000257628
0.000257628
0.000284443
0.000257628
0.000257628
0.000286051
0.000256007
0.000284443
0.000257628
0.000257628
0.000256007
0.000250298
0.000220224
0.000248687