/*--------------------------------*- C++ -*----------------------------------*\
| =========                 |                                                 |
| \\      /  F ield         | OpenFOAM: The Open Source CFD Toolbox           |
|  \\    /   O peration     | Version:                                        |
|   \\  /    A nd           | Website:  www.openfoam.com                      |
|    \\/     M anipulation  |                                                 |
\*---------------------------------------------------------------------------*/
FoamFile
{
    version     2.0;
    format      ascii;
    class       volScalarField;
    location    "30350.5";
    object      p;
}
// * * * * * * * * * * * * * * * * * * * * * * * * * * * * * * * * * * * * * //

dimensions      [0 2 -2 0 0 0 0];


internalField   nonuniform List<scalar> 
247096
(
1.09847e-07
1.0985e-07
1.09994e-07
1.1008e-07
1.10113e-07
1.10071e-07
1.0998e-07
1.09826e-07
1.0985e-07
1.10048e-07
1.10226e-07
1.10318e-07
1.10341e-07
1.10311e-07
1.10207e-07
1.10024e-07
1.09994e-07
1.10226e-07
1.10366e-07
1.10408e-07
1.10414e-07
1.10405e-07
1.10355e-07
1.10198e-07
1.09966e-07
1.1008e-07
1.10318e-07
1.10408e-07
1.10419e-07
1.10418e-07
1.10419e-07
1.10403e-07
1.10296e-07
1.10047e-07
1.09847e-07
1.10113e-07
1.10341e-07
1.10414e-07
1.10418e-07
1.10415e-07
1.10419e-07
1.10411e-07
1.10322e-07
1.10078e-07
1.10071e-07
1.10311e-07
1.10405e-07
1.10419e-07
1.10419e-07
1.10419e-07
1.104e-07
1.10288e-07
1.10038e-07
1.0998e-07
1.10207e-07
1.10355e-07
1.10403e-07
1.10411e-07
1.104e-07
1.10344e-07
1.10179e-07
1.09954e-07
1.09826e-07
1.10024e-07
1.10198e-07
1.10296e-07
1.10322e-07
1.10288e-07
1.10179e-07
1.10002e-07
1.09966e-07
1.10047e-07
1.10078e-07
1.10038e-07
1.09954e-07
1.07034e-07
1.07009e-07
1.07018e-07
1.06869e-07
1.06882e-07
1.06901e-07
1.06881e-07
1.07067e-07
1.07005e-07
1.07018e-07
1.0689e-07
1.06686e-07
1.06703e-07
1.06703e-07
1.06686e-07
1.06947e-07
1.06893e-07
1.06869e-07
1.06686e-07
1.06723e-07
1.06744e-07
1.06744e-07
1.06723e-07
1.06686e-07
1.0701e-07
1.07056e-07
1.07034e-07
1.06882e-07
1.06703e-07
1.06744e-07
1.06767e-07
1.06767e-07
1.06744e-07
1.06703e-07
1.07038e-07
1.07074e-07
1.07009e-07
1.06901e-07
1.06703e-07
1.06744e-07
1.06767e-07
1.06767e-07
1.06744e-07
1.06703e-07
1.07041e-07
1.06898e-07
1.06881e-07
1.06686e-07
1.06723e-07
1.06744e-07
1.06744e-07
1.06723e-07
1.06686e-07
1.07034e-07
1.07083e-07
1.07067e-07
1.06947e-07
1.06686e-07
1.06703e-07
1.06703e-07
1.06686e-07
1.07028e-07
1.06952e-07
1.07066e-07
1.07005e-07
1.06893e-07
1.0701e-07
1.07038e-07
1.07041e-07
1.07034e-07
1.06952e-07
1.07076e-07
1.07056e-07
1.07074e-07
1.06898e-07
1.07083e-07
1.07066e-07
1.05258e-07
1.05249e-07
1.05257e-07
1.05127e-07
1.05126e-07
1.05137e-07
1.05129e-07
1.05292e-07
1.05249e-07
1.05257e-07
1.05122e-07
1.04888e-07
1.04897e-07
1.04897e-07
1.04888e-07
1.05145e-07
1.05139e-07
1.05127e-07
1.04888e-07
1.04908e-07
1.04919e-07
1.04919e-07
1.04908e-07
1.04888e-07
1.0519e-07
1.05282e-07
1.05258e-07
1.05126e-07
1.04897e-07
1.04919e-07
1.04933e-07
1.04933e-07
1.04919e-07
1.04897e-07
1.05194e-07
1.05279e-07
1.05249e-07
1.05137e-07
1.04897e-07
1.04919e-07
1.04933e-07
1.04933e-07
1.04919e-07
1.04897e-07
1.05193e-07
1.05146e-07
1.05129e-07
1.04888e-07
1.04908e-07
1.04919e-07
1.04919e-07
1.04908e-07
1.04888e-07
1.05197e-07
1.05287e-07
1.05292e-07
1.05145e-07
1.04888e-07
1.04897e-07
1.04897e-07
1.04888e-07
1.05178e-07
1.05168e-07
1.05292e-07
1.05248e-07
1.05139e-07
1.0519e-07
1.05194e-07
1.05193e-07
1.05197e-07
1.05168e-07
1.05295e-07
1.05282e-07
1.05279e-07
1.05146e-07
1.05287e-07
1.05292e-07
1.03658e-07
1.0365e-07
1.03658e-07
1.03535e-07
1.03533e-07
1.03542e-07
1.03536e-07
1.03689e-07
1.03651e-07
1.03658e-07
1.0353e-07
1.03322e-07
1.03328e-07
1.03328e-07
1.03322e-07
1.03554e-07
1.03548e-07
1.03535e-07
1.03322e-07
1.03334e-07
1.0334e-07
1.0334e-07
1.03334e-07
1.03322e-07
1.03595e-07
1.03682e-07
1.03658e-07
1.03533e-07
1.03328e-07
1.0334e-07
1.03347e-07
1.03347e-07
1.0334e-07
1.03328e-07
1.03599e-07
1.0368e-07
1.0365e-07
1.03542e-07
1.03328e-07
1.0334e-07
1.03347e-07
1.03347e-07
1.0334e-07
1.03328e-07
1.03598e-07
1.03553e-07
1.03536e-07
1.03322e-07
1.03334e-07
1.0334e-07
1.0334e-07
1.03334e-07
1.03322e-07
1.03601e-07
1.03687e-07
1.03689e-07
1.03554e-07
1.03322e-07
1.03328e-07
1.03328e-07
1.03322e-07
1.03583e-07
1.03574e-07
1.0369e-07
1.03651e-07
1.03548e-07
1.03595e-07
1.03599e-07
1.03598e-07
1.03601e-07
1.03574e-07
1.03694e-07
1.03682e-07
1.0368e-07
1.03553e-07
1.03687e-07
1.0369e-07
1.02193e-07
1.02185e-07
1.02193e-07
1.02075e-07
1.02073e-07
1.0208e-07
1.02075e-07
1.02221e-07
1.02187e-07
1.02193e-07
1.02071e-07
1.01879e-07
1.01882e-07
1.01882e-07
1.01879e-07
1.02094e-07
1.02089e-07
1.02075e-07
1.01879e-07
1.01886e-07
1.01889e-07
1.01889e-07
1.01886e-07
1.01879e-07
1.02133e-07
1.02216e-07
1.02193e-07
1.02073e-07
1.01882e-07
1.01889e-07
1.01894e-07
1.01894e-07
1.01889e-07
1.01882e-07
1.02135e-07
1.02214e-07
1.02185e-07
1.0208e-07
1.01882e-07
1.01889e-07
1.01894e-07
1.01894e-07
1.01889e-07
1.01882e-07
1.02133e-07
1.02094e-07
1.02075e-07
1.01879e-07
1.01886e-07
1.01889e-07
1.01889e-07
1.01886e-07
1.01879e-07
1.02137e-07
1.0222e-07
1.02221e-07
1.02094e-07
1.01879e-07
1.01882e-07
1.01882e-07
1.01879e-07
1.0212e-07
1.02113e-07
1.02222e-07
1.02187e-07
1.02089e-07
1.02133e-07
1.02135e-07
1.02133e-07
1.02137e-07
1.02113e-07
1.02227e-07
1.02216e-07
1.02214e-07
1.02094e-07
1.0222e-07
1.02222e-07
1.00822e-07
1.00814e-07
1.00822e-07
1.00709e-07
1.00706e-07
1.00712e-07
1.00708e-07
1.00847e-07
1.00817e-07
1.00822e-07
1.00704e-07
1.00523e-07
1.00525e-07
1.00525e-07
1.00523e-07
1.00726e-07
1.00723e-07
1.00709e-07
1.00523e-07
1.00528e-07
1.0053e-07
1.0053e-07
1.00528e-07
1.00523e-07
1.00764e-07
1.00845e-07
1.00822e-07
1.00706e-07
1.00525e-07
1.0053e-07
1.00533e-07
1.00533e-07
1.0053e-07
1.00525e-07
1.00765e-07
1.00843e-07
1.00814e-07
1.00712e-07
1.00525e-07
1.0053e-07
1.00533e-07
1.00533e-07
1.0053e-07
1.00525e-07
1.00763e-07
1.00727e-07
1.00708e-07
1.00523e-07
1.00528e-07
1.0053e-07
1.0053e-07
1.00528e-07
1.00523e-07
1.00767e-07
1.00848e-07
1.00847e-07
1.00726e-07
1.00523e-07
1.00525e-07
1.00525e-07
1.00523e-07
1.00751e-07
1.00745e-07
1.0085e-07
1.00817e-07
1.00723e-07
1.00764e-07
1.00765e-07
1.00763e-07
1.00767e-07
1.00745e-07
1.00855e-07
1.00845e-07
1.00843e-07
1.00727e-07
1.00848e-07
1.0085e-07
9.95264e-08
9.95179e-08
9.95254e-08
9.94163e-08
9.94132e-08
9.94185e-08
9.94152e-08
9.95494e-08
9.95213e-08
9.95254e-08
9.94109e-08
9.92393e-08
9.92409e-08
9.92409e-08
9.92393e-08
9.94328e-08
9.94305e-08
9.94163e-08
9.92393e-08
9.92432e-08
9.92444e-08
9.92444e-08
9.92432e-08
9.92393e-08
9.94695e-08
9.95481e-08
9.95263e-08
9.94132e-08
9.92409e-08
9.92443e-08
9.92462e-08
9.92462e-08
9.92444e-08
9.92409e-08
9.94701e-08
9.95461e-08
9.95179e-08
9.94185e-08
9.92409e-08
9.92443e-08
9.92462e-08
9.92462e-08
9.92444e-08
9.92409e-08
9.94684e-08
9.94345e-08
9.94152e-08
9.92393e-08
9.92432e-08
9.92444e-08
9.92443e-08
9.92432e-08
9.92393e-08
9.94714e-08
9.9551e-08
9.95494e-08
9.94328e-08
9.92393e-08
9.92409e-08
9.92409e-08
9.92393e-08
9.94563e-08
9.94515e-08
9.95521e-08
9.95213e-08
9.94305e-08
9.94695e-08
9.94701e-08
9.94684e-08
9.94714e-08
9.94515e-08
9.95576e-08
9.95481e-08
9.95461e-08
9.94345e-08
9.9551e-08
9.95521e-08
9.82932e-08
9.82848e-08
9.82921e-08
9.8186e-08
9.81825e-08
9.81871e-08
9.81842e-08
9.83149e-08
9.82886e-08
9.82921e-08
9.818e-08
9.80169e-08
9.8018e-08
9.8018e-08
9.80169e-08
9.82018e-08
9.82001e-08
9.8186e-08
9.80169e-08
9.80201e-08
9.80206e-08
9.80206e-08
9.80201e-08
9.80169e-08
9.82382e-08
9.83146e-08
9.82932e-08
9.81825e-08
9.8018e-08
9.80206e-08
9.80217e-08
9.80217e-08
9.80206e-08
9.8018e-08
9.82384e-08
9.83126e-08
9.82848e-08
9.81871e-08
9.8018e-08
9.80206e-08
9.80217e-08
9.80217e-08
9.80206e-08
9.8018e-08
9.82366e-08
9.8204e-08
9.81842e-08
9.80169e-08
9.80201e-08
9.80206e-08
9.80206e-08
9.80201e-08
9.80169e-08
9.82392e-08
9.83171e-08
9.83149e-08
9.82018e-08
9.80169e-08
9.8018e-08
9.8018e-08
9.80169e-08
9.82248e-08
9.822e-08
9.83178e-08
9.82885e-08
9.82001e-08
9.82382e-08
9.82384e-08
9.82366e-08
9.82392e-08
9.822e-08
9.83237e-08
9.83146e-08
9.83126e-08
9.8204e-08
9.83171e-08
9.83178e-08
9.71085e-08
9.71001e-08
9.71073e-08
9.70033e-08
9.69995e-08
9.70036e-08
9.70011e-08
9.71293e-08
9.71042e-08
9.71073e-08
9.69971e-08
9.68402e-08
9.68411e-08
9.68411e-08
9.68402e-08
9.70189e-08
9.70175e-08
9.70033e-08
9.68402e-08
9.68431e-08
9.6843e-08
9.6843e-08
9.68431e-08
9.68402e-08
9.70554e-08
9.71297e-08
9.71085e-08
9.69995e-08
9.6841e-08
9.6843e-08
9.68435e-08
9.68435e-08
9.6843e-08
9.6841e-08
9.70551e-08
9.71278e-08
9.71e-08
9.70036e-08
9.6841e-08
9.6843e-08
9.68435e-08
9.68435e-08
9.6843e-08
9.6841e-08
9.70533e-08
9.70212e-08
9.70011e-08
9.68402e-08
9.6843e-08
9.6843e-08
9.6843e-08
9.6843e-08
9.68402e-08
9.70556e-08
9.71319e-08
9.71293e-08
9.70189e-08
9.68402e-08
9.6841e-08
9.6841e-08
9.68402e-08
9.70417e-08
9.70367e-08
9.71323e-08
9.71042e-08
9.70175e-08
9.70553e-08
9.70551e-08
9.70533e-08
9.70556e-08
9.70367e-08
9.71387e-08
9.71297e-08
9.71277e-08
9.70211e-08
9.71319e-08
9.71323e-08
9.59552e-08
9.59468e-08
9.59541e-08
9.58514e-08
9.58473e-08
9.58512e-08
9.58489e-08
9.59756e-08
9.59513e-08
9.59539e-08
9.5845e-08
9.5692e-08
9.56926e-08
9.56926e-08
9.5692e-08
9.5867e-08
9.58654e-08
9.58513e-08
9.5692e-08
9.56947e-08
9.56941e-08
9.56941e-08
9.56947e-08
9.5692e-08
9.59035e-08
9.59764e-08
9.59552e-08
9.58473e-08
9.56926e-08
9.56941e-08
9.56941e-08
9.56941e-08
9.56941e-08
9.56926e-08
9.59032e-08
9.59745e-08
9.59468e-08
9.58512e-08
9.56926e-08
9.56941e-08
9.56941e-08
9.56941e-08
9.56941e-08
9.56926e-08
9.59013e-08
9.58691e-08
9.58489e-08
9.5692e-08
9.56946e-08
9.56941e-08
9.56941e-08
9.56946e-08
9.5692e-08
9.59032e-08
9.59785e-08
9.59756e-08
9.5867e-08
9.56919e-08
9.56926e-08
9.56926e-08
9.56919e-08
9.58897e-08
9.58845e-08
9.59787e-08
9.59512e-08
9.58653e-08
9.59035e-08
9.59031e-08
9.59012e-08
9.59031e-08
9.58843e-08
9.59854e-08
9.59764e-08
9.59744e-08
9.5869e-08
9.59784e-08
9.59786e-08
9.48188e-08
9.48103e-08
9.48177e-08
9.47156e-08
9.47115e-08
9.47152e-08
9.47129e-08
9.48388e-08
9.48148e-08
9.48174e-08
9.47091e-08
9.4558e-08
9.45586e-08
9.45585e-08
9.4558e-08
9.47311e-08
9.47305e-08
9.47154e-08
9.4558e-08
9.45607e-08
9.45599e-08
9.45599e-08
9.45608e-08
9.4558e-08
9.47681e-08
9.48401e-08
9.48187e-08
9.47113e-08
9.45585e-08
9.45598e-08
9.45596e-08
9.45596e-08
9.45599e-08
9.45586e-08
9.47676e-08
9.48381e-08
9.48103e-08
9.47151e-08
9.45585e-08
9.45598e-08
9.45595e-08
9.45595e-08
9.45599e-08
9.45586e-08
9.47656e-08
9.47333e-08
9.47129e-08
9.4558e-08
9.45607e-08
9.45598e-08
9.45598e-08
9.45607e-08
9.4558e-08
9.47674e-08
9.4842e-08
9.4839e-08
9.47312e-08
9.45579e-08
9.45585e-08
9.45585e-08
9.45579e-08
9.4754e-08
9.47487e-08
9.48421e-08
9.48149e-08
9.47292e-08
9.47678e-08
9.47674e-08
9.47654e-08
9.47672e-08
9.47482e-08
9.48489e-08
9.48398e-08
9.48379e-08
9.47332e-08
9.48418e-08
9.48419e-08
9.36898e-08
9.36813e-08
9.36886e-08
9.35869e-08
9.35827e-08
9.35864e-08
9.35842e-08
9.37099e-08
9.3686e-08
9.36884e-08
9.35803e-08
9.343e-08
9.34305e-08
9.34305e-08
9.343e-08
9.36025e-08
9.36006e-08
9.35866e-08
9.34299e-08
9.34328e-08
9.34317e-08
9.34317e-08
9.34328e-08
9.34299e-08
9.36393e-08
9.37109e-08
9.36897e-08
9.35825e-08
9.34304e-08
9.34317e-08
9.34312e-08
9.34312e-08
9.34317e-08
9.34304e-08
9.36389e-08
9.3709e-08
9.36812e-08
9.35863e-08
9.34304e-08
9.34317e-08
9.34312e-08
9.34312e-08
9.34317e-08
9.34304e-08
9.36368e-08
9.36045e-08
9.35841e-08
9.34299e-08
9.34328e-08
9.34317e-08
9.34317e-08
9.34328e-08
9.343e-08
9.36386e-08
9.37129e-08
9.37099e-08
9.36024e-08
9.34299e-08
9.34304e-08
9.34304e-08
9.34299e-08
9.36252e-08
9.36199e-08
9.3713e-08
9.36859e-08
9.36005e-08
9.36392e-08
9.36388e-08
9.36367e-08
9.36384e-08
9.36194e-08
9.37199e-08
9.37108e-08
9.37089e-08
9.36044e-08
9.37127e-08
9.37128e-08
9.25635e-08
9.2555e-08
9.25623e-08
9.24606e-08
9.24564e-08
9.24601e-08
9.24579e-08
9.25836e-08
9.25597e-08
9.2562e-08
9.24541e-08
9.2304e-08
9.23044e-08
9.23044e-08
9.2304e-08
9.24763e-08
9.24743e-08
9.24604e-08
9.23039e-08
9.23071e-08
9.23057e-08
9.23057e-08
9.23072e-08
9.23039e-08
9.25132e-08
9.25846e-08
9.25634e-08
9.24563e-08
9.23044e-08
9.23057e-08
9.23051e-08
9.23051e-08
9.23057e-08
9.23044e-08
9.25127e-08
9.25827e-08
9.25549e-08
9.246e-08
9.23044e-08
9.23057e-08
9.23051e-08
9.23051e-08
9.23057e-08
9.23044e-08
9.25107e-08
9.24783e-08
9.24578e-08
9.23039e-08
9.23071e-08
9.23056e-08
9.23056e-08
9.23071e-08
9.23039e-08
9.25124e-08
9.25866e-08
9.25835e-08
9.24762e-08
9.23038e-08
9.23043e-08
9.23043e-08
9.23038e-08
9.2499e-08
9.24937e-08
9.25867e-08
9.25596e-08
9.24743e-08
9.25131e-08
9.25126e-08
9.25105e-08
9.25122e-08
9.24932e-08
9.25935e-08
9.25845e-08
9.25825e-08
9.24781e-08
9.25864e-08
9.25864e-08
9.1438e-08
9.14295e-08
9.14369e-08
9.13352e-08
9.1331e-08
9.13346e-08
9.13324e-08
9.14579e-08
9.1434e-08
9.14366e-08
9.13287e-08
9.11787e-08
9.11791e-08
9.11791e-08
9.11786e-08
9.13507e-08
9.135e-08
9.1335e-08
9.11786e-08
9.11815e-08
9.11804e-08
9.11804e-08
9.11815e-08
9.11787e-08
9.13879e-08
9.14593e-08
9.14379e-08
9.13309e-08
9.1179e-08
9.11803e-08
9.11797e-08
9.11797e-08
9.11804e-08
9.11791e-08
9.13874e-08
9.14573e-08
9.14295e-08
9.13346e-08
9.1179e-08
9.11803e-08
9.11797e-08
9.11797e-08
9.11803e-08
9.11791e-08
9.13853e-08
9.13529e-08
9.13324e-08
9.11786e-08
9.11815e-08
9.11803e-08
9.11803e-08
9.11815e-08
9.11786e-08
9.1387e-08
9.14611e-08
9.1458e-08
9.13508e-08
9.11785e-08
9.1179e-08
9.1179e-08
9.11786e-08
9.13736e-08
9.13682e-08
9.14612e-08
9.14341e-08
9.13488e-08
9.13876e-08
9.13872e-08
9.13852e-08
9.13868e-08
9.13678e-08
9.14681e-08
9.1459e-08
9.14571e-08
9.13527e-08
9.14609e-08
9.1461e-08
9.03129e-08
9.03044e-08
9.03117e-08
9.021e-08
9.02058e-08
9.02095e-08
9.02073e-08
9.03329e-08
9.0309e-08
9.03114e-08
9.02035e-08
9.00535e-08
9.00539e-08
9.00539e-08
9.00535e-08
9.02257e-08
9.02237e-08
9.02098e-08
9.00535e-08
9.00563e-08
9.00552e-08
9.00552e-08
9.00564e-08
9.00535e-08
9.02625e-08
9.03339e-08
9.03127e-08
9.02057e-08
9.00539e-08
9.00552e-08
9.00545e-08
9.00546e-08
9.00552e-08
9.00539e-08
9.02621e-08
9.0332e-08
9.03043e-08
9.02094e-08
9.00539e-08
9.00552e-08
9.00545e-08
9.00545e-08
9.00552e-08
9.00539e-08
9.02601e-08
9.02277e-08
9.02072e-08
9.00535e-08
9.00563e-08
9.00552e-08
9.00552e-08
9.00563e-08
9.00535e-08
9.02618e-08
9.03359e-08
9.03329e-08
9.02256e-08
9.00534e-08
9.00538e-08
9.00538e-08
9.00534e-08
9.02484e-08
9.02431e-08
9.0336e-08
9.03089e-08
9.02237e-08
9.02625e-08
9.0262e-08
9.026e-08
9.02616e-08
9.02426e-08
9.03429e-08
9.03339e-08
9.03319e-08
9.02275e-08
9.03357e-08
9.03358e-08
8.91877e-08
8.91793e-08
8.91865e-08
8.90849e-08
8.90807e-08
8.90844e-08
8.90822e-08
8.92078e-08
8.91839e-08
8.91863e-08
8.90784e-08
8.89284e-08
8.89288e-08
8.89288e-08
8.89284e-08
8.91006e-08
8.90986e-08
8.90847e-08
8.89283e-08
8.89312e-08
8.89301e-08
8.89301e-08
8.89312e-08
8.89284e-08
8.91374e-08
8.92088e-08
8.91876e-08
8.90805e-08
8.89287e-08
8.89301e-08
8.89294e-08
8.89294e-08
8.89301e-08
8.89288e-08
8.9137e-08
8.92069e-08
8.91791e-08
8.90843e-08
8.89287e-08
8.89301e-08
8.89294e-08
8.89294e-08
8.89301e-08
8.89288e-08
8.9135e-08
8.91025e-08
8.90821e-08
8.89283e-08
8.89312e-08
8.89301e-08
8.89301e-08
8.89312e-08
8.89284e-08
8.91367e-08
8.92108e-08
8.92077e-08
8.91005e-08
8.89283e-08
8.89287e-08
8.89287e-08
8.89283e-08
8.91233e-08
8.91179e-08
8.92109e-08
8.91838e-08
8.90986e-08
8.91374e-08
8.9137e-08
8.91349e-08
8.91365e-08
8.91175e-08
8.92178e-08
8.92088e-08
8.92068e-08
8.91025e-08
8.92107e-08
8.92107e-08
8.80626e-08
8.80541e-08
8.80614e-08
8.79598e-08
8.79555e-08
8.79592e-08
8.79569e-08
8.80825e-08
8.80586e-08
8.80611e-08
8.79532e-08
8.78033e-08
8.78037e-08
8.78037e-08
8.78033e-08
8.79753e-08
8.79746e-08
8.79596e-08
8.78032e-08
8.78061e-08
8.7805e-08
8.7805e-08
8.78061e-08
8.78033e-08
8.80125e-08
8.80839e-08
8.80625e-08
8.79554e-08
8.78036e-08
8.7805e-08
8.78043e-08
8.78043e-08
8.7805e-08
8.78037e-08
8.8012e-08
8.80819e-08
8.8054e-08
8.79591e-08
8.78036e-08
8.7805e-08
8.78043e-08
8.78043e-08
8.7805e-08
8.78037e-08
8.80099e-08
8.79775e-08
8.79569e-08
8.78032e-08
8.78061e-08
8.7805e-08
8.7805e-08
8.78061e-08
8.78033e-08
8.80115e-08
8.80856e-08
8.80824e-08
8.79753e-08
8.78033e-08
8.78037e-08
8.78037e-08
8.78033e-08
8.79982e-08
8.79924e-08
8.80856e-08
8.80585e-08
8.79745e-08
8.80125e-08
8.8012e-08
8.80099e-08
8.80116e-08
8.79929e-08
8.80927e-08
8.80838e-08
8.80818e-08
8.79775e-08
8.80857e-08
8.80858e-08
8.69375e-08
8.6929e-08
8.69363e-08
8.68347e-08
8.68304e-08
8.68341e-08
8.68318e-08
8.69574e-08
8.69335e-08
8.6936e-08
8.68281e-08
8.66782e-08
8.66786e-08
8.66786e-08
8.66782e-08
8.68502e-08
8.68495e-08
8.68345e-08
8.66781e-08
8.6681e-08
8.66799e-08
8.66799e-08
8.66811e-08
8.66782e-08
8.68875e-08
8.69588e-08
8.69374e-08
8.68303e-08
8.66785e-08
8.66799e-08
8.66792e-08
8.66793e-08
8.66799e-08
8.66786e-08
8.68869e-08
8.69568e-08
8.69289e-08
8.6834e-08
8.66785e-08
8.66799e-08
8.66792e-08
8.66792e-08
8.66799e-08
8.66786e-08
8.68848e-08
8.68524e-08
8.68318e-08
8.66781e-08
8.6681e-08
8.66799e-08
8.66799e-08
8.6681e-08
8.66782e-08
8.68865e-08
8.69606e-08
8.69573e-08
8.68502e-08
8.66782e-08
8.66786e-08
8.66786e-08
8.66782e-08
8.68731e-08
8.68678e-08
8.69608e-08
8.69334e-08
8.68494e-08
8.68874e-08
8.68869e-08
8.68847e-08
8.68864e-08
8.68673e-08
8.69676e-08
8.69587e-08
8.69567e-08
8.68523e-08
8.69605e-08
8.69606e-08
8.58124e-08
8.58039e-08
8.58112e-08
8.57096e-08
8.57054e-08
8.5709e-08
8.57068e-08
8.58323e-08
8.58084e-08
8.5811e-08
8.57031e-08
8.55531e-08
8.55535e-08
8.55535e-08
8.55531e-08
8.57252e-08
8.57244e-08
8.57094e-08
8.55531e-08
8.55559e-08
8.55548e-08
8.55548e-08
8.5556e-08
8.55531e-08
8.57624e-08
8.58337e-08
8.58123e-08
8.57053e-08
8.55535e-08
8.55548e-08
8.55542e-08
8.55542e-08
8.55548e-08
8.55535e-08
8.57618e-08
8.58317e-08
8.58038e-08
8.5709e-08
8.55535e-08
8.55548e-08
8.55541e-08
8.55542e-08
8.55548e-08
8.55535e-08
8.57597e-08
8.57273e-08
8.57068e-08
8.55531e-08
8.55559e-08
8.55548e-08
8.55548e-08
8.55559e-08
8.55531e-08
8.57614e-08
8.58356e-08
8.58324e-08
8.57252e-08
8.5553e-08
8.55534e-08
8.55535e-08
8.5553e-08
8.5748e-08
8.57427e-08
8.58357e-08
8.58085e-08
8.57233e-08
8.57621e-08
8.57617e-08
8.57596e-08
8.57612e-08
8.57422e-08
8.58425e-08
8.58335e-08
8.58315e-08
8.57272e-08
8.58354e-08
8.58354e-08
8.46874e-08
8.46789e-08
8.46862e-08
8.45845e-08
8.45803e-08
8.4584e-08
8.45818e-08
8.47074e-08
8.46835e-08
8.46859e-08
8.4578e-08
8.4428e-08
8.44284e-08
8.44284e-08
8.4428e-08
8.46002e-08
8.45983e-08
8.45843e-08
8.4428e-08
8.44309e-08
8.44297e-08
8.44297e-08
8.44309e-08
8.4428e-08
8.46371e-08
8.47085e-08
8.46872e-08
8.45802e-08
8.44284e-08
8.44297e-08
8.44291e-08
8.44291e-08
8.44297e-08
8.44284e-08
8.46367e-08
8.47066e-08
8.46788e-08
8.45839e-08
8.44284e-08
8.44297e-08
8.44291e-08
8.44291e-08
8.44297e-08
8.44284e-08
8.46346e-08
8.46022e-08
8.45817e-08
8.4428e-08
8.44308e-08
8.44297e-08
8.44297e-08
8.44308e-08
8.4428e-08
8.46363e-08
8.47104e-08
8.47074e-08
8.46001e-08
8.44279e-08
8.44284e-08
8.44284e-08
8.44279e-08
8.46229e-08
8.46176e-08
8.47106e-08
8.46835e-08
8.45982e-08
8.4637e-08
8.46366e-08
8.46345e-08
8.46361e-08
8.46171e-08
8.47174e-08
8.47084e-08
8.47064e-08
8.46021e-08
8.47103e-08
8.47103e-08
8.35622e-08
8.35537e-08
8.35611e-08
8.34594e-08
8.34552e-08
8.34588e-08
8.34566e-08
8.35821e-08
8.35583e-08
8.35608e-08
8.34529e-08
8.33029e-08
8.33033e-08
8.33033e-08
8.33029e-08
8.3475e-08
8.34743e-08
8.34592e-08
8.33029e-08
8.33058e-08
8.33046e-08
8.33047e-08
8.33058e-08
8.3303e-08
8.35122e-08
8.35835e-08
8.35622e-08
8.34551e-08
8.33033e-08
8.33046e-08
8.3304e-08
8.3304e-08
8.33047e-08
8.33034e-08
8.35117e-08
8.35816e-08
8.35537e-08
8.34588e-08
8.33033e-08
8.33046e-08
8.3304e-08
8.3304e-08
8.33047e-08
8.33034e-08
8.35096e-08
8.34772e-08
8.34566e-08
8.33029e-08
8.33057e-08
8.33046e-08
8.33046e-08
8.33058e-08
8.33029e-08
8.35112e-08
8.35854e-08
8.35823e-08
8.3475e-08
8.33028e-08
8.33033e-08
8.33033e-08
8.33029e-08
8.34979e-08
8.34925e-08
8.35855e-08
8.35584e-08
8.34731e-08
8.35119e-08
8.35115e-08
8.35094e-08
8.3511e-08
8.3492e-08
8.35924e-08
8.35833e-08
8.35813e-08
8.3477e-08
8.35852e-08
8.35852e-08
8.24371e-08
8.24286e-08
8.2436e-08
8.23343e-08
8.23301e-08
8.23337e-08
8.23315e-08
8.2457e-08
8.24332e-08
8.24357e-08
8.23278e-08
8.21778e-08
8.21783e-08
8.21782e-08
8.21778e-08
8.23499e-08
8.23492e-08
8.23342e-08
8.21778e-08
8.21807e-08
8.21796e-08
8.21796e-08
8.21807e-08
8.21779e-08
8.23871e-08
8.24585e-08
8.24371e-08
8.233e-08
8.21782e-08
8.21795e-08
8.21789e-08
8.21789e-08
8.21796e-08
8.21783e-08
8.23866e-08
8.24565e-08
8.24286e-08
8.23337e-08
8.21782e-08
8.21795e-08
8.21789e-08
8.21789e-08
8.21796e-08
8.21783e-08
8.23845e-08
8.23521e-08
8.23316e-08
8.21778e-08
8.21807e-08
8.21795e-08
8.21795e-08
8.21807e-08
8.21779e-08
8.23862e-08
8.24603e-08
8.24572e-08
8.235e-08
8.21778e-08
8.21782e-08
8.21782e-08
8.21778e-08
8.23728e-08
8.23674e-08
8.24604e-08
8.24333e-08
8.2348e-08
8.23868e-08
8.23864e-08
8.23843e-08
8.2386e-08
8.23669e-08
8.24673e-08
8.24582e-08
8.24563e-08
8.23519e-08
8.24601e-08
8.24601e-08
8.1312e-08
8.13035e-08
8.13109e-08
8.12092e-08
8.1205e-08
8.12087e-08
8.12064e-08
8.13319e-08
8.13081e-08
8.13106e-08
8.12027e-08
8.10528e-08
8.10532e-08
8.10532e-08
8.10527e-08
8.12248e-08
8.12241e-08
8.12091e-08
8.10527e-08
8.10556e-08
8.10545e-08
8.10545e-08
8.10556e-08
8.10528e-08
8.12621e-08
8.13334e-08
8.1312e-08
8.12049e-08
8.10532e-08
8.10545e-08
8.10538e-08
8.10538e-08
8.10545e-08
8.10532e-08
8.12615e-08
8.13314e-08
8.13035e-08
8.12087e-08
8.10532e-08
8.10545e-08
8.10538e-08
8.10538e-08
8.10545e-08
8.10532e-08
8.12594e-08
8.1227e-08
8.12065e-08
8.10528e-08
8.10556e-08
8.10545e-08
8.10545e-08
8.10556e-08
8.10528e-08
8.12611e-08
8.13352e-08
8.13321e-08
8.12249e-08
8.10527e-08
8.10531e-08
8.10531e-08
8.10527e-08
8.12477e-08
8.12424e-08
8.13353e-08
8.13082e-08
8.12229e-08
8.12618e-08
8.12613e-08
8.12593e-08
8.12609e-08
8.12419e-08
8.13422e-08
8.13331e-08
8.13312e-08
8.12268e-08
8.1335e-08
8.13351e-08
8.01869e-08
8.01784e-08
8.01856e-08
8.0084e-08
8.00799e-08
8.00835e-08
8.00813e-08
8.02068e-08
8.0183e-08
8.01858e-08
8.00777e-08
7.99277e-08
7.99281e-08
7.99281e-08
7.99277e-08
8.00997e-08
8.0099e-08
8.00842e-08
7.99277e-08
7.99305e-08
7.99294e-08
7.99294e-08
7.99306e-08
7.99277e-08
8.0137e-08
8.02083e-08
8.0187e-08
8.00799e-08
7.99281e-08
7.99294e-08
7.99288e-08
7.99288e-08
7.99294e-08
7.99281e-08
8.01364e-08
8.02063e-08
8.01785e-08
8.00836e-08
7.99281e-08
7.99294e-08
7.99288e-08
7.99288e-08
7.99294e-08
7.99281e-08
8.01344e-08
8.0102e-08
8.00814e-08
7.99277e-08
7.99305e-08
7.99294e-08
7.99294e-08
7.99306e-08
7.99277e-08
8.0136e-08
8.02102e-08
8.02071e-08
8.00998e-08
7.99277e-08
7.99281e-08
7.99281e-08
7.99277e-08
8.01227e-08
8.01173e-08
8.02103e-08
8.01832e-08
8.00979e-08
8.01367e-08
8.01363e-08
8.01342e-08
8.01359e-08
8.01168e-08
8.02172e-08
8.02081e-08
8.02062e-08
8.01018e-08
8.021e-08
8.021e-08
7.90619e-08
7.90534e-08
7.90608e-08
7.89591e-08
7.89549e-08
7.89585e-08
7.89563e-08
7.90818e-08
7.90579e-08
7.90605e-08
7.89526e-08
7.88026e-08
7.8803e-08
7.8803e-08
7.88026e-08
7.89747e-08
7.8974e-08
7.89589e-08
7.88026e-08
7.88055e-08
7.88044e-08
7.88044e-08
7.88055e-08
7.88027e-08
7.90119e-08
7.90833e-08
7.90618e-08
7.89548e-08
7.8803e-08
7.88043e-08
7.88037e-08
7.88037e-08
7.88044e-08
7.88031e-08
7.90114e-08
7.90813e-08
7.90533e-08
7.89585e-08
7.8803e-08
7.88043e-08
7.88037e-08
7.88037e-08
7.88044e-08
7.88031e-08
7.90093e-08
7.89769e-08
7.89562e-08
7.88026e-08
7.88055e-08
7.88044e-08
7.88044e-08
7.88055e-08
7.88027e-08
7.9011e-08
7.90851e-08
7.90818e-08
7.89746e-08
7.88026e-08
7.88031e-08
7.8803e-08
7.88026e-08
7.89976e-08
7.89922e-08
7.90852e-08
7.90579e-08
7.89739e-08
7.90119e-08
7.90113e-08
7.90092e-08
7.90108e-08
7.89918e-08
7.90921e-08
7.90832e-08
7.90812e-08
7.89768e-08
7.9085e-08
7.9085e-08
7.79369e-08
7.79284e-08
7.79357e-08
7.78341e-08
7.78299e-08
7.78335e-08
7.78313e-08
7.79568e-08
7.79329e-08
7.79354e-08
7.78276e-08
7.76776e-08
7.7678e-08
7.7678e-08
7.76776e-08
7.78496e-08
7.78489e-08
7.78339e-08
7.76776e-08
7.76804e-08
7.76793e-08
7.76793e-08
7.76805e-08
7.76776e-08
7.78868e-08
7.79582e-08
7.79368e-08
7.78297e-08
7.7678e-08
7.76793e-08
7.76787e-08
7.76787e-08
7.76793e-08
7.7678e-08
7.78863e-08
7.79562e-08
7.79283e-08
7.78334e-08
7.7678e-08
7.76793e-08
7.76787e-08
7.76787e-08
7.76793e-08
7.7678e-08
7.78842e-08
7.78518e-08
7.78312e-08
7.76776e-08
7.76804e-08
7.76793e-08
7.76793e-08
7.76805e-08
7.76776e-08
7.78858e-08
7.79599e-08
7.79567e-08
7.78496e-08
7.76776e-08
7.7678e-08
7.7678e-08
7.76776e-08
7.78726e-08
7.78667e-08
7.796e-08
7.79329e-08
7.78489e-08
7.78868e-08
7.78863e-08
7.78842e-08
7.78859e-08
7.78672e-08
7.7967e-08
7.79582e-08
7.79562e-08
7.78518e-08
7.796e-08
7.79602e-08
7.68119e-08
7.68034e-08
7.68107e-08
7.67091e-08
7.67049e-08
7.67085e-08
7.67063e-08
7.6832e-08
7.68081e-08
7.68104e-08
7.67025e-08
7.65526e-08
7.6553e-08
7.6553e-08
7.65526e-08
7.67247e-08
7.67228e-08
7.67089e-08
7.65525e-08
7.65554e-08
7.65543e-08
7.65543e-08
7.65554e-08
7.65525e-08
7.67616e-08
7.6833e-08
7.68118e-08
7.67047e-08
7.6553e-08
7.65543e-08
7.65536e-08
7.65536e-08
7.65543e-08
7.65529e-08
7.67612e-08
7.6831e-08
7.68033e-08
7.67084e-08
7.6553e-08
7.65543e-08
7.65536e-08
7.65536e-08
7.65543e-08
7.65529e-08
7.67591e-08
7.67267e-08
7.67063e-08
7.65526e-08
7.65554e-08
7.65543e-08
7.65543e-08
7.65554e-08
7.65525e-08
7.67607e-08
7.68348e-08
7.68319e-08
7.67247e-08
7.65525e-08
7.65529e-08
7.65529e-08
7.65526e-08
7.67475e-08
7.67417e-08
7.68349e-08
7.6808e-08
7.67228e-08
7.67616e-08
7.67612e-08
7.67591e-08
7.67608e-08
7.67421e-08
7.6842e-08
7.6833e-08
7.6831e-08
7.67267e-08
7.68349e-08
7.68351e-08
7.56869e-08
7.56784e-08
7.56857e-08
7.5584e-08
7.55798e-08
7.55835e-08
7.55813e-08
7.5707e-08
7.5683e-08
7.56854e-08
7.55775e-08
7.54276e-08
7.5428e-08
7.5428e-08
7.54276e-08
7.55997e-08
7.55978e-08
7.55838e-08
7.54275e-08
7.54304e-08
7.54293e-08
7.54293e-08
7.54304e-08
7.54275e-08
7.56366e-08
7.5708e-08
7.56867e-08
7.55797e-08
7.54279e-08
7.54292e-08
7.54286e-08
7.54286e-08
7.54293e-08
7.54279e-08
7.56362e-08
7.5706e-08
7.56783e-08
7.55834e-08
7.54279e-08
7.54292e-08
7.54286e-08
7.54286e-08
7.54292e-08
7.54279e-08
7.56341e-08
7.56017e-08
7.55812e-08
7.54275e-08
7.54304e-08
7.54292e-08
7.54292e-08
7.54304e-08
7.54275e-08
7.56358e-08
7.57099e-08
7.57069e-08
7.55997e-08
7.54275e-08
7.54279e-08
7.54279e-08
7.54275e-08
7.56225e-08
7.56171e-08
7.571e-08
7.5683e-08
7.55977e-08
7.56365e-08
7.56361e-08
7.5634e-08
7.56357e-08
7.56166e-08
7.57169e-08
7.57079e-08
7.5706e-08
7.56016e-08
7.57098e-08
7.57098e-08
7.45618e-08
7.45533e-08
7.45606e-08
7.4459e-08
7.44547e-08
7.44584e-08
7.44561e-08
7.45817e-08
7.45578e-08
7.45604e-08
7.44525e-08
7.43025e-08
7.43029e-08
7.43029e-08
7.43025e-08
7.44745e-08
7.44738e-08
7.44588e-08
7.43025e-08
7.43053e-08
7.43042e-08
7.43042e-08
7.43054e-08
7.43025e-08
7.45118e-08
7.45831e-08
7.45617e-08
7.44547e-08
7.43029e-08
7.43042e-08
7.43036e-08
7.43036e-08
7.43042e-08
7.43029e-08
7.45112e-08
7.45811e-08
7.45533e-08
7.44584e-08
7.43029e-08
7.43042e-08
7.43036e-08
7.43036e-08
7.43042e-08
7.43029e-08
7.45091e-08
7.44767e-08
7.44562e-08
7.43025e-08
7.43053e-08
7.43042e-08
7.43042e-08
7.43054e-08
7.43025e-08
7.45108e-08
7.45849e-08
7.45819e-08
7.44746e-08
7.43025e-08
7.43029e-08
7.43029e-08
7.43025e-08
7.44974e-08
7.44921e-08
7.4585e-08
7.4558e-08
7.44727e-08
7.45115e-08
7.45111e-08
7.4509e-08
7.45107e-08
7.44916e-08
7.45919e-08
7.45829e-08
7.4581e-08
7.44766e-08
7.45848e-08
7.45848e-08
7.34367e-08
7.34282e-08
7.34353e-08
7.33338e-08
7.33296e-08
7.33333e-08
7.33311e-08
7.34566e-08
7.34327e-08
7.34356e-08
7.33274e-08
7.31774e-08
7.31778e-08
7.31778e-08
7.31774e-08
7.33495e-08
7.33488e-08
7.33339e-08
7.31775e-08
7.31803e-08
7.31792e-08
7.31792e-08
7.31803e-08
7.31775e-08
7.33867e-08
7.3458e-08
7.34367e-08
7.33297e-08
7.31779e-08
7.31792e-08
7.31785e-08
7.31785e-08
7.31792e-08
7.31779e-08
7.33862e-08
7.3456e-08
7.34282e-08
7.33334e-08
7.31779e-08
7.31792e-08
7.31785e-08
7.31785e-08
7.31792e-08
7.31779e-08
7.33841e-08
7.33516e-08
7.33311e-08
7.31774e-08
7.31803e-08
7.31792e-08
7.31792e-08
7.31803e-08
7.31775e-08
7.33857e-08
7.34598e-08
7.34566e-08
7.33495e-08
7.31775e-08
7.31779e-08
7.31779e-08
7.31775e-08
7.33724e-08
7.33666e-08
7.34598e-08
7.34328e-08
7.33488e-08
7.33867e-08
7.33862e-08
7.33841e-08
7.33858e-08
7.33671e-08
7.34669e-08
7.34581e-08
7.34561e-08
7.33517e-08
7.34599e-08
7.346e-08
7.23116e-08
7.23032e-08
7.23103e-08
7.22087e-08
7.22046e-08
7.22083e-08
7.2206e-08
7.23316e-08
7.23077e-08
7.23106e-08
7.22024e-08
7.20524e-08
7.20528e-08
7.20528e-08
7.20524e-08
7.22244e-08
7.22237e-08
7.22089e-08
7.20524e-08
7.20553e-08
7.20541e-08
7.20541e-08
7.20553e-08
7.20524e-08
7.22617e-08
7.2333e-08
7.23117e-08
7.22047e-08
7.20528e-08
7.20542e-08
7.20535e-08
7.20535e-08
7.20542e-08
7.20528e-08
7.22611e-08
7.2331e-08
7.23032e-08
7.22083e-08
7.20528e-08
7.20542e-08
7.20535e-08
7.20535e-08
7.20542e-08
7.20528e-08
7.2259e-08
7.22266e-08
7.22061e-08
7.20524e-08
7.20553e-08
7.20542e-08
7.20542e-08
7.20553e-08
7.20524e-08
7.22606e-08
7.23348e-08
7.23316e-08
7.22245e-08
7.20525e-08
7.20529e-08
7.20529e-08
7.20525e-08
7.22474e-08
7.22416e-08
7.23348e-08
7.23077e-08
7.22237e-08
7.22617e-08
7.22612e-08
7.22591e-08
7.22607e-08
7.2242e-08
7.23419e-08
7.2333e-08
7.2331e-08
7.22266e-08
7.23349e-08
7.2335e-08
7.11867e-08
7.11782e-08
7.11855e-08
7.10839e-08
7.10797e-08
7.10834e-08
7.10812e-08
7.12068e-08
7.11829e-08
7.11853e-08
7.10774e-08
7.09274e-08
7.09278e-08
7.09278e-08
7.09274e-08
7.10996e-08
7.10976e-08
7.10837e-08
7.09274e-08
7.09303e-08
7.09291e-08
7.09291e-08
7.09303e-08
7.09274e-08
7.11365e-08
7.12078e-08
7.11866e-08
7.10796e-08
7.09278e-08
7.09291e-08
7.09285e-08
7.09285e-08
7.09291e-08
7.09278e-08
7.11361e-08
7.12059e-08
7.11782e-08
7.10833e-08
7.09278e-08
7.09291e-08
7.09285e-08
7.09285e-08
7.09291e-08
7.09278e-08
7.1134e-08
7.11016e-08
7.10811e-08
7.09274e-08
7.09302e-08
7.09291e-08
7.09291e-08
7.09303e-08
7.09274e-08
7.11357e-08
7.12098e-08
7.12068e-08
7.10995e-08
7.09274e-08
7.09278e-08
7.09278e-08
7.09274e-08
7.11223e-08
7.1117e-08
7.12099e-08
7.11829e-08
7.10976e-08