/*--------------------------------*- C++ -*----------------------------------*\
| =========                 |                                                 |
| \\      /  F ield         | OpenFOAM: The Open Source CFD Toolbox           |
|  \\    /   O peration     | Version:  2312                                  |
|   \\  /    A nd           | Website:  www.openfoam.com                      |
|    \\/     M anipulation  |                                                 |
\*---------------------------------------------------------------------------*/
FoamFile
{
    version     2.0;
    format      ascii;
    arch        "LSB;label=32;scalar=64";
    class       surfaceScalarField;
    location    "200";
    object      phi;
}
// * * * * * * * * * * * * * * * * * * * * * * * * * * * * * * * * * * * * * //

dimensions      [0 3 -1 0 0 0 0];

oriented        oriented;

internalField   nonuniform List<scalar> 
124832
(
-8.75836e-07
-8.82804e-07
4.56131e-07
4.56918e-07
0.00114043
-0.00113959
-1.51901e-06
8.7707e-07
4.4545e-07
0.00113302
-5.32637e-07
1.10751e-06
1.27562e-07
7.2477e-07
-5.90738e-07
-1.27328e-06
5.84313e-08
-0.00113244
-8.56708e-07
-8.57903e-07
-0.00114291
4.42766e-07
4.43453e-07
0.00114374
-0.00113482
-1.51672e-06
8.57502e-07
4.19119e-07
0.00113537
-5.2153e-07
1.1169e-06
1.34198e-07
7.32316e-07
-5.75129e-07
-1.25932e-06
6.75718e-08
-0.00113469
-1.51398e-06
8.57433e-07
4.24626e-07
0.00113523
-5.2156e-07
1.11424e-06
1.34147e-07
7.32321e-07
-5.75284e-07
-1.25934e-06
6.79109e-08
-0.00027628
1.54558e-06
1.50865e-06
-4.99864e-07
-5.02935e-07
0.000274228
1.56163e-06
1.52208e-06
-5.07872e-07
-5.16027e-07
0.00027407
-0.00027613
-1.15823e-06
-1.11537e-06
0.000276354
-0.000274237
7.57582e-08
8.12117e-08
4.36139e-07
0.0011326
-5.35316e-07
1.15048e-06
1.30655e-07
7.30214e-07
-5.90773e-07
-1.27885e-06
5.83685e-08
-0.00113201
8.70979e-07
4.36113e-07
0.00113267
1.14771e-06
1.33282e-07
7.30001e-07
-5.90789e-07
-1.2787e-06
5.82622e-08
-0.00113208
-1.55649e-06
-5.35641e-07
0.00113427
8.61389e-07
-0.00113374
4.39065e-07
-1.55806e-06
1.41461e-07
-5.29983e-07
-1.26862e-06
6.53734e-08
-5.79386e-07
7.36122e-07
1.1528e-06
0.00113435
8.61793e-07
-0.0011338
4.28318e-07
-1.5555e-06
1.38275e-07
-5.27381e-07
-1.26839e-06
6.52776e-08
-5.79233e-07
7.35872e-07
-1.11527e-06
0.000276335
-0.000274222
7.58262e-08
7.84684e-08
4.34893e-07
0.00113359
-5.32825e-07
1.11038e-06
1.27545e-07
7.30116e-07
-5.90772e-07
-1.27876e-06
5.86465e-08
-0.00113301
-1.55369e-06
8.7619e-07
4.361e-07
0.00113255
-5.38268e-07
1.14231e-06
1.33416e-07
7.30268e-07
-5.90711e-07
-1.27854e-06
5.49703e-08
-0.00113197
0.00113527
8.62542e-07
-0.00113472
4.27354e-07
-1.51839e-06
1.32473e-07
-5.24604e-07
-1.26849e-06
6.55768e-08
-5.79339e-07
7.35963e-07
1.14742e-06
0.00113424
8.61311e-07
-0.00113369
4.28431e-07
-1.55001e-06
1.38419e-07
-5.3003e-07
-1.2683e-06
6.2208e-08
-5.76374e-07
7.35989e-07
8.62293e-07
-0.00113428
4.3272e-07
-1.51805e-06
1.32586e-07
-5.24353e-07
-1.26289e-06
6.53998e-08
7.30471e-07
-5.78995e-07
1.14453e-06
0.00113386
8.61336e-07
-0.00113331
4.28304e-07
-1.54694e-06
1.35596e-07
-5.26995e-07
-1.25993e-06
5.87931e-08
-5.73318e-07
7.27772e-07
-5.10929e-07
-5.15714e-07
0.000274045
-0.000276091
-1.10983e-06
0.000276309
-0.000274209
7.60304e-08
8.11813e-08
7.76307e-07
2.55156e-07
0.00113308
1.06643e-06
1.15417e-07
7.2714e-07
-5.87937e-07
5.85611e-08
-1.27576e-06
-1.58656e-06
-0.00113209
-5.43542e-07
8.62207e-07
-0.00113414
4.27009e-07
-1.5126e-06
1.32559e-07
-5.24332e-07
-1.26298e-06
6.56235e-08
7.30542e-07
-5.79124e-07
1.10712e-06
0.00113484
8.62036e-07
-0.00113429
4.2697e-07
-1.51e-06
1.32519e-07
-5.24514e-07
-1.26533e-06
6.57277e-08
-5.79123e-07
7.33181e-07
-0.000274182
7.58192e-08
7.86037e-08
1.55949e-06
1.51704e-06
-5.00118e-07
-5.05634e-07
0.000274283
4.14643e-07
0.00113482
-5.3006e-07
1.15985e-06
1.42981e-07
7.37917e-07
-5.75565e-07
-1.26513e-06
6.75354e-08
-1.55415e-06
8.57402e-07
4.25928e-07
0.00113489
-5.27281e-07
1.15446e-06
1.39904e-07
7.37853e-07
-5.75347e-07
-1.26484e-06
6.42224e-08
-5.00353e-07
-5.02466e-07
0.000274267
4.24994e-07
0.00113581
-5.21898e-07
1.117e-06
1.34008e-07
7.37843e-07
-5.75483e-07
-1.26495e-06
6.77927e-08
-1.54862e-06
8.56603e-07
4.25989e-07
0.00113478
-5.27182e-07
1.14909e-06
1.40058e-07
7.37913e-07
-5.72574e-07
-1.26477e-06
6.4439e-08
8.56619e-07
4.25856e-07
0.0011344
-5.24156e-07
1.14619e-06
1.37214e-07
7.29716e-07
-5.69541e-07
6.10632e-08
-1.25642e-06
-5.00431e-07
-5.05195e-07
0.000274253
8.57377e-07
4.24556e-07
0.00113538
-5.21699e-07
1.10875e-06
1.34135e-07
7.35019e-07
-5.7522e-07
6.80074e-08
-1.26179e-06
-1.98153e-10
9.36202e-08
0.000237628
-0.000237702
-1.05845e-08
-8.3332e-09
-3.71699e-09
1.51366e-07
-2.0785e-08
0.00019805
-0.000198176
-2.21077e-11
2.7688e-07
0.000237945
-9.49658e-08
-1.30356e-08
-0.000238114
1.5078e-08
3.11196e-08
0.00019784
-5.6216e-09
-0.000197881
-1.49666e-08
5.4873e-09
9.92816e-05
-9.92722e-05
9.35632e-08
-1.29731e-10
0.000237616
-0.00023769
-8.45345e-09
-1.0544e-08
-3.93133e-09
1.51345e-07
-2.08079e-08
0.000198031
-0.000198158
2.76828e-07
2.20029e-10
0.000237933
-1.34133e-08
-9.49388e-08
-0.000238102
1.54145e-08
3.08975e-08
0.000197824
-5.86918e-09
-0.000197864
4.61967e-07
4.3523e-07
0.0011402
-8.77052e-07
-0.00113935
4.56602e-07
4.8431e-07
0.00114001
-0.0011392
4.06575e-07
4.29045e-07
0.00113994
-1.04301e-06
-0.00113896
-0.00114209
4.55735e-07
4.5091e-07
0.0011427
-0.00114188
4.50518e-07
4.5101e-07
0.00114249
-0.00114167
4.50316e-07
4.50697e-07
0.00114245
-0.00114163
4.5025e-07
4.50694e-07
-9.38049e-08
-1.86139e-09
0.000261358
-0.000261287
-2.73864e-08
5.21423e-08
4.26992e-07
1.1119e-06
0.00113371
8.72029e-07
-1.26972e-06
6.07406e-08
-5.86749e-07
7.26428e-07
-1.52058e-06
1.29221e-07
-5.29872e-07
-0.00113313
4.77796e-09
-3.11898e-08
0.000254114
2.01529e-08
-0.000254148
4.04917e-08
-1.77264e-08
0.00113385
9.24183e-07
-1.38039e-06
5.7449e-07
-1.20854e-06
7.71373e-07
-0.00113308
4.15093e-09
6.76771e-08
9.93316e-05
-9.94035e-05
-1.50147e-08
7.9361e-09
9.92742e-05
-9.92671e-05
-4.14373e-10
-9.37682e-08
0.000261344
-0.000261277
5.48909e-08
-2.80186e-08
0.00113295
5.31217e-08
9.28418e-07
7.71505e-07
-1.21093e-06
-1.38329e-06
5.72045e-07
-0.00113223
-7.05884e-08
-1.51265e-07
3.3771e-07
7.6267e-08
0.000254362
-0.000254555
4.43072e-07
1.10651e-06
0.00113358
8.72035e-07
-1.26993e-06
6.09275e-08
-5.8685e-07
7.26674e-07
-1.51781e-06
1.29271e-07
-5.29861e-07
1.80439e-09
-2.76885e-07
0.000261427
5.31072e-07
-3.53572e-08
-0.000261648
1.89406e-08
0.00113368
9.24124e-07
-1.38055e-06
5.77206e-07
-1.20597e-06
7.74036e-07
4.47335e-09
-3.10064e-08
0.000254103
2.02548e-08
-0.000254139
4.29456e-08
-1.14666e-06
-1.09832e-06
0.000276178
-0.000274075
6.54705e-08
7.61016e-08
-4.75252e-09
-7.82881e-09
0.000285612
2.27585e-08
-0.000285683
6.07392e-08
-4.70408e-09
-7.81682e-09
0.000285531
2.3134e-08
-0.000285603
6.06151e-08
-1.33574e-10
7.70713e-08
-0.000236783
-5.76061e-09
-6.57978e-09
-0.000197528
-3.30878e-09
1.40599e-07
-1.78326e-08
0.000197409
-0.000237162
-3.40163e-11
2.57453e-07
0.000237005
-8.82655e-08
-1.12864e-08
1.40553e-08
2.27008e-08
-3.82449e-09
-0.000197258
-9.91572e-05
4.86626e-09
6.37274e-08
9.90886e-05
-1.40114e-08
4.62889e-09
-9.90286e-05
7.69974e-08
1.08446e-11
-0.000236771
-6.77214e-09
-5.71922e-09
-0.000197507
-4.91551e-09
1.4037e-07
-1.80023e-08
0.000197389
-0.00023715
2.57409e-07
3.02984e-10
0.000236993
-1.167e-08
-8.83041e-08
1.40048e-08
2.26184e-08
-3.65501e-09
-0.000197239
4.48637e-07
4.49173e-07
0.00114352
4.48307e-07
4.48807e-07
0.00114331
4.48303e-07
4.48796e-07
0.00114327
-7.72475e-08
-1.53507e-09
-0.000260654
-2.27353e-08
3.59989e-08
-0.000253674
-6.78337e-08
-1.4246e-07
3.22981e-07
6.89276e-08
0.000253492
0.00113603
-0.00113532
2.89843e-09
9.10828e-07
7.81006e-07
-1.1989e-06
-1.36955e-06
5.84182e-07
4.2784e-07
1.11851e-06
8.5262e-07
-1.25571e-06
6.98472e-08
-5.71331e-07
7.34286e-07
-1.5153e-06
1.35859e-07
-5.18771e-07
-0.000261044
-2.57282e-07
1.58001e-09
0.000260816
-3.02437e-08
5.14e-07
7.61485e-09
-2.05063e-08
1.47568e-08
-0.000253281
2.84857e-08
-3.9385e-09
9.06546e-07
-1.36941e-06
5.83697e-07
-1.19916e-06
7.80433e-07
-9.91509e-05
4.81878e-09
6.35654e-08
9.90825e-05
-1.42131e-08
4.74567e-09
-9.90239e-05
-8.03933e-10
-7.72153e-08
-0.000260643
3.60688e-08
-2.27006e-08
0.00113587
-0.00113515
4.6953e-09
9.10988e-07
7.81074e-07
-1.2019e-06
-1.37247e-06
5.81251e-07
-0.000253665
-6.80289e-08
-1.40277e-07
3.20576e-07
6.91632e-08
0.000253483
4.22387e-07
1.1159e-06
8.52556e-07
-1.25581e-06
7.00906e-08
-5.71454e-07
7.34242e-07
-1.5125e-06
1.32815e-07
-5.1871e-07
-0.000261033
9.79928e-10
-2.57437e-07
0.000260805
5.14246e-07
-3.05694e-08
-3.10773e-09
9.06649e-07
-1.36949e-06
5.86445e-07
-1.1966e-06
7.83334e-07
7.44911e-09
-2.26297e-08
1.47382e-08
-0.000253272
3.10159e-08
-0.000285132
6.79739e-08
-6.35825e-08
1.79776e-07
-1.34681e-08
0.000284962
-0.000285052
6.80574e-08
-6.34454e-08
1.74889e-07
-1.39728e-08
0.000284887
-1.14781e-06
-1.11037e-06
-0.00027427
8.0852e-08
8.37154e-08
-7.86086e-09
-4.65287e-09
2.14025e-08
-0.000284734
4.90282e-08
-7.67871e-09
-4.59058e-09
2.17583e-08
-0.000284659
5.35139e-08
6.93887e-08
9.93596e-05
-9.94327e-05
7.85999e-09
9.93043e-05
-9.92971e-05
6.7502e-08
9.93482e-05
-9.94197e-05
7.42444e-09
9.92906e-05
-9.92826e-05
7.29781e-08
1.88816e-07
-1.32372e-08
0.00028599
-0.000286169
7.03166e-08
1.9089e-07
-1.29609e-08
0.000285912
-0.000286093
0.00027625
-1.1522e-06
-1.11209e-06
-0.000274129
6.81011e-08
7.6144e-08
0.000285668
-1.96436e-09
2.52526e-08
-0.000285741
5.82643e-08
0.000285591
-2.11705e-09
2.25494e-08
-0.000285662
5.79301e-08
6.15549e-09
-1.40984e-08
9.91788e-05
-9.91709e-05
6.5707e-08
4.73438e-09
9.92339e-05
6.11094e-09
-1.44714e-08
9.91671e-05
-9.91587e-05
6.56036e-08
4.57467e-09
9.92204e-05
1.5593e-06
1.51969e-06
0.000274184
-5.02748e-07
-5.10869e-07
-6.16274e-09
0.000285188
5.354e-08
-0.000285251
2.19159e-08
-3.61524e-09
0.000285112
5.34023e-08
-0.000285178
2.19403e-08
6.80066e-08
-1.59295e-08
1.85566e-07
0.000285496
6.7973e-08
-1.33232e-08
1.85173e-07
0.000285417
9.3581e-08
0.000237585
-0.00023766
-1.05596e-08
-8.2981e-09
1.53596e-07
-2.05834e-08
0.000197983
-4.07996e-09
-0.000198111
2.76848e-07
0.000237903
-9.49323e-08
-1.35181e-08
-0.000238071
2.88354e-08
0.000197779
-5.34774e-09
-0.000197818
-9.40711e-10
0.000261373
-0.000261303
-2.77588e-08
5.19512e-08
3.40357e-07
7.6051e-08
0.000254376
-0.000254568
0.00113337
3.96329e-09
9.29018e-07
7.77589e-07
-1.21635e-06
-1.38871e-06
5.80635e-07
-0.00113262
4.32935e-07
0.00113317
8.70873e-07
-1.56045e-06
1.35254e-07
-5.32642e-07
-1.27551e-06
6.0698e-08
-5.86911e-07
7.32104e-07
8.25333e-10
0.000261453
-3.40794e-08
5.31046e-07
-0.000261674
0.000254114
2.01374e-08
-0.000254146
4.05251e-08
-3.28383e-09
0.00113412
9.1883e-07
-1.38619e-06
5.82983e-07
-1.2142e-06
7.79915e-07
0.000261343
-0.000261276
-2.65759e-08
5.19139e-08
3.40224e-07
7.61001e-08
0.000254266
-0.000254456
-7.29083e-08
0.00113331
9.23481e-07
7.77377e-07
-1.21636e-06
-1.38845e-06
5.80642e-07
-0.00113255
4.33667e-07
0.00113324
1.14942e-06
8.71621e-07
-1.27543e-06
6.06908e-08
7.31909e-07
-5.86988e-07
-1.55798e-06
1.34957e-07
-5.35641e-07
0.000261426
-3.57525e-08
5.31064e-07
-0.000261644
0.000254004
4.52459e-09
2.02365e-08
-0.000254041
4.04158e-08
0.00113406
9.18989e-07
-1.38587e-06
5.82989e-07
-1.21418e-06
7.79794e-07
-4.45759e-11
2.66965e-07
-9.14165e-08
-1.20812e-08
0.000237465
2.65678e-08
-0.000197565
-4.16246e-09
1.45755e-07
-2.16895e-08
0.000197721
-2.4258e-10
8.50989e-08
-0.000237232
-7.91783e-09
-7.34751e-09
2.66938e-07
-9.14041e-08
-1.25764e-08
0.000237422
2.68185e-08
1.41651e-08
0.000197456
-0.000197493
-3.98142e-09
1.4801e-07
-4.72845e-09
-1.90767e-08
0.000197655
8.51076e-08
0.00023712
-0.000237189
-7.9701e-09
-7.65774e-09
8.20287e-10
-3.18677e-08
5.22727e-07
0.000261148
4.25062e-07
8.66399e-07
1.15384e-06
-5.32736e-07
1.3682e-07
7.34081e-07
-5.83187e-07
6.2974e-08
-1.27214e-06
0.000253676
3.41716e-08
-0.000253708
1.73307e-08
-0.00113485
-3.41928e-09
0.0011356
9.15486e-07
-1.38084e-06
5.84826e-07
-1.20696e-06
7.84665e-07
7.00013e-08
3.31796e-07
0.000253926
3.7993e-09
9.20031e-07
7.82218e-07
-1.20926e-06
-1.38366e-06
5.82506e-07
-9.32619e-10
0.000261059
-0.000260991
-2.56428e-08
4.39376e-08
-3.38221e-08
5.22716e-07
0.000261122
4.31244e-07
-1.55681e-06
8.66751e-07
7.3391e-07
-5.83095e-07
-1.27197e-06
6.29958e-08
1.15114e-06
-5.30141e-07
1.33633e-07
3.58618e-09
0.000253567
3.44164e-08
-0.000253595
1.73864e-08
-0.0011348
0.00113553
9.15588e-07
-1.38054e-06
5.84812e-07
-1.20691e-06
7.84469e-07
-7.04039e-08
7.2476e-08
3.31685e-07
0.000253819
9.2018e-07
7.82107e-07
-1.20927e-06
-1.38332e-06
5.82458e-07
0.000261029
-0.000260964
-2.41951e-08
4.39193e-08
0.000276234
-0.000274117
7.07453e-08
7.33317e-08
0.000285528
2.30976e-08
-0.000285602
6.0754e-08
-7.85439e-09
0.000285682
2.28336e-08
-0.000285751
5.8427e-08
9.92982e-05
-1.49079e-08
-9.92911e-05
6.67633e-09
-9.91497e-05
6.80086e-08
9.92089e-05
1.51942e-06
0.000274171
-5.05753e-07
-5.07858e-07
0.000285054
5.37279e-08
-0.00028512
2.24565e-08
-3.92631e-09
-6.28714e-09
0.0002852
5.3607e-08
-0.000285266
2.22139e-08
-1.32786e-08
1.85373e-07
0.000285354
-6.54012e-08
7.0321e-08
-1.34041e-08
1.85258e-07
0.000285506
-1.45359e-08
9.91773e-05
-9.91667e-05
4.57225e-09
9.92282e-05
-1.69112e-09
0.000261366
-0.000261296
-2.73575e-08
5.19561e-08
3.37707e-07
7.61449e-08
0.000254336
-0.000254529
0.00113322
2.97237e-09
9.34013e-07
7.77244e-07
-1.21352e-06
-1.3886e-06
5.7782e-07
-0.00113247
4.32016e-07
0.00113416
8.72146e-07
-1.52081e-06
1.29208e-07
-5.30043e-07
-1.27539e-06
6.10557e-08
-5.86863e-07
7.32098e-07
1.79558e-09
0.000261446
-3.52165e-08
5.30974e-07
-0.000261667
0.000254076
1.99854e-08
-0.000254111
4.28854e-08
-4.3103e-09
0.00113397
9.23849e-07
-1.38593e-06
5.80136e-07
-1.21135e-06
7.79619e-07
9.35513e-08
0.000237573
-0.000237648
-1.05627e-08
-8.59292e-09
1.51402e-07
-2.06838e-08
0.000197971
-0.000198098
2.76783e-07
0.000237891
-9.49287e-08
-1.31406e-08
-0.000238059
3.13154e-08
0.000197763
-5.70779e-09
-0.000197804
0.000261334
-0.000261267
5.19597e-08
-2.70159e-08
0.00113317
9.28343e-07
7.77447e-07
-1.21349e-06
-1.3884e-06
5.77822e-07
-0.00113242
-7.30395e-08
3.35206e-07
7.61176e-08
0.000254254
-0.000254441
4.33722e-07
0.00113312
1.14405e-06
8.8216e-07
-1.27526e-06
5.74634e-08
7.3216e-07
-5.84118e-07
-1.55253e-06
1.35106e-07
-5.35539e-07
0.000261418
5.30908e-07
-3.54325e-08
-0.000261635
0.00113391
9.29674e-07
-1.38575e-06
5.8017e-07
-1.2113e-06
7.7998e-07
0.000253989
4.8614e-09
1.97474e-08
-0.000254028
4.59473e-08
2.66918e-07
2.09008e-10
-1.24604e-08
-9.14014e-08
0.000237452
2.66177e-08
-0.000197543
-4.4487e-09
1.45714e-07
-1.92947e-08
0.000197702
8.50617e-08
-4.0088e-11
-0.00023722
-7.59403e-09
-7.97126e-09
1.8027e-09
-3.30815e-08
5.22671e-07
0.000261142
4.29603e-07
8.67373e-07
1.11374e-06
-5.274e-07
1.30773e-07
7.34009e-07
-5.83137e-07
6.32108e-08
-1.27195e-06
0.000253639
3.68965e-08
-0.00025367
1.72371e-08
-0.0011347
-3.9246e-09
0.00113543
9.15249e-07
-1.38074e-06
5.84783e-07
-1.20685e-06
7.84286e-07
7.25485e-08
3.29122e-07
0.000253888
3.06302e-09
9.25028e-07
7.81946e-07
-1.20918e-06
-1.38332e-06
5.82399e-07
-1.65917e-09
0.000261052
-0.000260982
-2.47315e-08
4.11192e-08
2.66877e-07
-9.13945e-08
-1.21922e-08
0.00023741
2.69242e-08
1.45832e-08
0.000197447
-0.000197483
-4.84461e-09
1.45747e-07
-4.54767e-09
-1.93699e-08
0.000197642
8.50516e-08
0.000237109
-0.000237178
-7.99011e-09
-7.58945e-09
5.22634e-07
-3.32933e-08
0.000261114
4.25638e-07
-1.55126e-06
8.6625e-07
7.34099e-07
-5.80229e-07
-1.27181e-06
5.98215e-08
1.14574e-06
-5.32808e-07
1.3672e-07
-0.00113464
0.00113537
9.15339e-07
-1.38042e-06
5.84808e-07
-1.20683e-06
7.84628e-07
6.47573e-09
0.000253551
3.98761e-08
-0.000253588
1.68403e-08
9.25182e-07
7.82293e-07
-1.20914e-06
-1.3831e-06
5.82412e-07
-7.03909e-08
7.24365e-08
3.26541e-07
0.000253806
0.000261021
-0.000260954
4.11324e-08
-2.43034e-08
-1.48283e-10
0.000237609
-0.000237686
-8.49324e-09
-8.53371e-09
0.000197827
-5.5597e-09
-0.000197867
-9.36251e-08
0.000261327
-0.000261259
5.19409e-08
-2.73148e-08
4.49592e-07
0.00113275
8.76454e-07
-1.54941e-06
1.35202e-07
-5.32696e-07
-1.26958e-06
5.74557e-08
-5.86594e-07
7.23933e-07
-0.0011322
0.00113376
9.23731e-07
-1.38019e-06
5.77439e-07
-1.20852e-06
7.74308e-07
-0.00113302
-3.12085e-08
0.00025403
1.99525e-08
-0.00025407
4.59503e-08
0.00023757
-0.000237644
-1.0604e-08
-8.84702e-09
0.000197767
1.49703e-08
-5.55937e-09
-0.000197807
-2.66793e-07
1.32974e-09
-3.26153e-08
5.22629e-07
0.000261134
4.24428e-07
8.67253e-07
1.11359e-06
-5.27167e-07
1.30886e-07
7.28398e-07
-5.82888e-07
-1.26638e-06
6.3039e-08
-2.45406e-08
3.43955e-08
-0.000253707
1.72988e-08
-0.00113457
-5.34921e-09
9.15263e-07
-1.37505e-06
5.79105e-07
7.75979e-07
-1.20404e-06
-1.45536e-07
7.23153e-08
3.31411e-07
0.000253926
-1.16582e-09
9.19725e-07
7.76423e-07
-1.20363e-06
-1.37502e-06
5.79564e-07
-8.53297e-08
-1.5592e-09
-0.000260976
-2.50028e-08
4.40785e-08
-1.0284e-10
-1.22567e-08
-9.35056e-08
0.000237448
0.000197512
-0.000197547
-4.59214e-09
-1.92046e-08
0.000197705
2.16117e-12
0.000237144
-0.000237216
-7.83315e-09
-5.96357e-09
-2.66834e-07
5.2258e-07
-3.35613e-08
0.000261106
4.36248e-07
-1.55097e-06
8.66374e-07
7.25826e-07
-5.79913e-07
-1.2634e-06
5.63691e-08
1.14559e-06
-5.32554e-07
1.36874e-07
-0.00113451
0.00113523
9.15221e-07
-1.37495e-06
5.82014e-07
-1.20406e-06
7.78954e-07
-2.68136e-08
6.3508e-09
0.000253592
3.44998e-08
-0.000253624
1.72107e-08
9.19486e-07
7.76573e-07
-1.20634e-06
-1.37757e-06
5.79714e-07
-1.4561e-07
-7.04534e-08
7.24532e-08
3.2889e-07
0.000253845
-8.51878e-08
0.00026101
-0.000260948
4.67763e-08
-2.43974e-08
-9.13779e-08
-1.25656e-08
0.000237407
1.44823e-08
0.00019745
-0.000197487
-4.6195e-09
-4.53217e-09
-1.9246e-08
0.000197645
0.000237105
-0.000237174
-8.03703e-09
-7.38453e-09
1.86418e-07
-1.34924e-08
0.000285853
-0.000286031
-6.75916e-08
1.88664e-07
-1.37275e-08
0.000285995
-0.000286173
0.000276208
-0.000274105
7.09521e-08
7.60798e-08
0.000285528
2.32446e-08
-0.000285601
6.31601e-08
-7.69992e-09
0.00028567
2.29142e-08
-0.000285741
6.06896e-08
4.23203e-09
9.93551e-05
-9.94269e-05
9.92977e-05
-1.48276e-08
-9.92906e-05
6.27228e-09
-9.91426e-05
6.55514e-08
9.92041e-05
1.51384e-06
0.000274159
-5.05783e-07
-5.10508e-07
0.000285048
5.83287e-08
-0.000285117
2.25619e-08
-6.01351e-09
-6.06577e-09
0.00028519
5.58134e-08
-0.000285259
2.48919e-08
-1.37124e-08
1.80617e-07
0.000285356
-6.54504e-08
7.05024e-08
-1.65675e-08
1.82889e-07
0.000285498
-1.43518e-08
9.91744e-05
-9.91661e-05
4.65031e-09
9.92276e-05
-9.11765e-08
0.000261311
-0.000261247
5.20808e-08
-2.55156e-08
0.00113287
9.57518e-07
7.74231e-07
-1.21084e-06
5.72022e-07
-1.38573e-06
-0.00113227
-1.51374e-07
3.40203e-07
7.619e-08
0.000254252
-7.30378e-08
-0.000254444
3.93893e-07
0.00113372
8.66628e-07
-1.51524e-06
1.23097e-07
-5.32766e-07
-1.2724e-06
6.10165e-08
-5.84088e-07
7.29241e-07
-2.79317e-07
0.000261398
5.33701e-07
-3.5356e-08
-0.000261615
0.00113359
9.24279e-07
-1.38301e-06
5.77209e-07
-1.20586e-06
7.76715e-07
-3.10607e-08
0.000253993
2.00156e-08
-0.000254029
4.28901e-08
1.10311e-10
0.000237602
-0.000237677
-8.478e-09
-1.06827e-08
-2.04248e-08
0.00019803
-0.000198156
3.73928e-10
0.00023792
-1.36131e-08
-9.49262e-08
-0.000238089
0.000197822
-5.24051e-09
-0.000197863
0.000237563
-0.000237635
-8.1197e-09
-1.06199e-08
-2.05324e-08
0.000197967
-0.000198093
-4.2492e-09
0.000237878
-1.33571e-08
-9.48986e-08
-0.000238049
0.000197759
1.49239e-08
-5.44708e-09
-0.0001978
1.2862e-09
-2.66954e-07
5.20105e-07
-3.29551e-08
0.000261122
4.3514e-07
8.67184e-07
1.10818e-06
-5.27106e-07
1.30878e-07
7.28614e-07
-5.83005e-07
-1.26651e-06
6.32695e-08
-0.00113442
-8.04782e-10
9.15391e-07
-1.37523e-06
5.81807e-07
7.78787e-07
-1.2015e-06
-2.65991e-08
3.68631e-08
-0.000253699
1.73562e-08
1.14584e-08
9.20009e-07
7.7647e-07
-1.20658e-06
-1.37788e-06
5.76683e-07
-1.45614e-07
7.26301e-08
3.28959e-07
0.000253917
-7.41457e-10
-8.53054e-08
-0.000260965
4.41614e-08
-2.52342e-08
-2.69412e-07
5.22642e-07
-3.36993e-08
0.000261093
4.24035e-07
-1.5113e-06
8.67189e-07
7.31214e-07
-5.82916e-07
-1.26886e-06
6.33518e-08
1.10549e-06
-5.27279e-07
1.30845e-07
-0.00113434
0.00113507
9.15095e-07
-1.37759e-06
5.8183e-07
-1.20133e-06
7.8131e-07
-2.67018e-08
6.27904e-09
0.000253555
3.95018e-08
-0.000253591
1.71117e-08
9.19642e-07
7.78926e-07
-1.20646e-06
-1.38036e-06
5.76654e-07
-1.45617e-07
-7.04556e-08
7.25486e-08
3.2894e-07
0.000253807
-8.26802e-08
0.000261
-0.000260936
4.12499e-08
-2.33307e-08
3.28276e-10
-1.26758e-08
-9.13958e-08
0.000237439
0.000197506
-0.000197542
-4.30822e-09
-1.90823e-08
0.0001977
-2.09168e-11
0.000237138
-0.000237207
-7.5429e-09
-8.12813e-09
-1.24438e-08
-9.13699e-08
0.000237398
1.44217e-08
0.000197443
-0.000197479
-4.47379e-09
-4.63582e-09
-1.91541e-08
0.000197637
0.000237098
-0.000237165
-7.18678e-09
-8.0606e-09
9.92762e-05
-9.92691e-05
9.92726e-05
-9.92655e-05
0.000274129
-5.05248e-07
-5.08329e-07
-6.15614e-09
5.35386e-08
-0.000285195
2.20576e-08
-6.13048e-09
5.8095e-08
-0.00028512
2.24305e-08
-6.55896e-08
-1.32284e-08
1.82964e-07
0.000285437
-6.54695e-08
-1.37805e-08
1.82872e-07
0.000285357
9.91529e-05
-9.91445e-05
9.92061e-05
9.91492e-05
-9.91409e-05
9.92025e-05
6.39395e-08
9.91116e-05
4.5122e-09
-9.90525e-05
6.34981e-08
9.90987e-05
4.45972e-09
-9.904e-05
6.80587e-08
1.80021e-07
-1.35548e-08
0.000285017
6.80288e-08
1.7971e-07
-1.36851e-08
0.000284941
-1.15876e-06
-1.11861e-06
-0.000274327
8.07632e-08
8.62348e-08
-7.59664e-09
2.08445e-08
-0.000284789
5.13192e-08
-7.51216e-09
2.08759e-08
-0.000284713
4.8903e-08
7.70723e-08
-0.00023674
-5.77063e-09
-6.69323e-09
1.40413e-07
-1.81093e-08
0.000197339
2.57447e-07
0.000236962
-8.83e-08
-1.1719e-08
2.27126e-08
-3.65849e-09
-0.000197191
-9.01923e-10
-0.000260669
-2.25995e-08
3.58547e-08
3.23405e-07
6.9146e-08
0.000253493
0.0011363
3.77397e-09
9.11173e-07
7.86946e-07
-1.20738e-06
-1.37811e-06
5.89879e-07
4.28884e-07
8.51987e-07
-1.55532e-06
1.41657e-07
-5.24387e-07
-1.26154e-06
6.98598e-08
-5.71739e-07
7.3985e-07
8.257e-10
0.000260831
-2.98281e-08
5.14185e-07
1.45703e-08
-0.000253281
3.11874e-08
-3.48303e-09
9.07091e-07
-1.37517e-06
5.92185e-07
-1.20492e-06
7.89125e-07
-0.000260642
-2.15836e-08
3.58333e-08
-6.51611e-08
3.23267e-07
6.88854e-08
0.00025338
0.00113626
9.11262e-07
7.86848e-07
-1.20734e-06
-1.37773e-06
5.89841e-07
4.23506e-07
1.15608e-06
8.5256e-07
-1.2613e-06
6.65487e-08
7.39755e-07
-5.68842e-07
-1.55273e-06
1.41561e-07
-5.24492e-07
0.000260804
-3.14124e-08
5.14165e-07
4.87791e-09
1.46142e-08
-0.000253171
3.13134e-08
9.07141e-07
-1.37484e-06
5.92202e-07
-1.20487e-06
7.89012e-07
1.7972e-07
-1.29508e-08
0.000284886
-6.57346e-08
1.79634e-07
-1.35061e-08
0.000285032
-0.000274309
8.09041e-08
8.3513e-08
2.36926e-08
-0.000284656
4.89817e-08
-2.39559e-09
2.14534e-08
-0.000284804
4.90517e-08
4.98829e-09
9.91066e-05
-1.41292e-08
-9.90479e-05
-1.64302e-09
-0.000260659
-2.21875e-08
3.3028e-08
3.20669e-07
6.91351e-08
0.000253457
0.00113615
3.3423e-09
9.10912e-07
7.86708e-07
-1.2045e-06
-1.37788e-06
5.87034e-07
4.2254e-07
8.52963e-07
-1.51563e-06
1.3568e-07
-5.19082e-07
-1.26134e-06
7.00995e-08
-5.71641e-07
7.39757e-07
1.82406e-09
0.000260822
-3.09539e-08
5.16854e-07
1.46503e-08
-0.000253246
3.10243e-08
-3.77582e-09
9.06617e-07
-1.37496e-06
5.89312e-07
-1.20203e-06
7.88872e-07
7.70089e-08
-0.000236729
-5.74108e-09
-6.66081e-09
1.40421e-07
-1.82708e-08
0.000197329
2.57375e-07
0.000236951
-8.829e-08
-1.12438e-08
2.29079e-08
-4.14724e-09
-0.00019718
-0.000260631
3.30319e-08
-2.16831e-08
0.00113609
9.10991e-07
7.86927e-07
-1.20448e-06
-1.37764e-06
5.87049e-07
-6.79167e-08
3.18142e-07
6.89613e-08
0.000253372
4.2336e-07
1.15075e-06
8.51645e-07
-1.26117e-06
6.67613e-08
7.39821e-07
-5.68804e-07
-1.54717e-06
1.41769e-07
-5.24367e-07
0.000260794
5.16831e-07
-3.11183e-08
9.06683e-07
-1.3747e-06
5.89348e-07
-1.20202e-06
7.89112e-07
7.89044e-09
1.41722e-08
-0.000253161
3.40304e-08
4.03485e-11
-0.000236766
-6.99923e-09
-3.73442e-09
-1.80062e-08
0.000197393
3.20005e-11
0.000236988
-1.12049e-08
-9.04103e-08
-3.78497e-09
-0.000197243
-7.71084e-08
-0.000260626
3.87211e-08
-2.16346e-08
0.00113596
9.10748e-07
7.81356e-07
-1.20163e-06
5.84282e-07
-1.37201e-06
-1.40352e-07
3.23105e-07
6.90587e-08
0.000253409
4.23312e-07
8.51668e-07
-1.54414e-06
1.38826e-07
-5.21384e-07
-1.25269e-06
6.33982e-08
-5.65716e-07
7.31638e-07
-2.57307e-07
0.000260789
5.11279e-07
-3.1364e-08
9.06393e-07
-1.36921e-06
5.86656e-07
-1.19917e-06
7.8369e-07
-2.27928e-08
1.44843e-08
-0.000253197
2.86111e-08
-0.000236725
-5.80162e-09
-6.47309e-09
-4.85705e-09
-1.81584e-08
0.000197333
0.000236947
-8.82693e-08
-1.16103e-08
1.41626e-08
-4.02646e-09
-0.000197183
1.75043e-07
-1.38677e-08
0.000284883
-6.34451e-08
1.77285e-07
-1.66962e-08
0.000285025
-0.000274294
8.11605e-08
8.63174e-08
2.18877e-08
-0.000284655
5.37673e-08
-4.50365e-09
2.41793e-08
-0.000284797
5.12572e-08
4.97067e-09
9.9106e-05
-1.39371e-08
-9.90473e-05
-7.46425e-08
-0.000260613
3.31513e-08
-2.10505e-08
0.0011358
9.10767e-07
7.8368e-07
-1.20173e-06
5.81189e-07
-1.37475e-06
-1.40293e-07
3.17983e-07
6.91242e-08
0.000253376
4.22034e-07
8.52467e-07
-1.5072e-06
1.35792e-07
-5.18888e-07
-1.25816e-06
7.02615e-08
-5.71385e-07
7.36931e-07
-2.59866e-07
0.000260776
5.16794e-07
-3.18398e-08
9.06397e-07
-1.37184e-06
5.86417e-07
-1.19643e-06
7.85943e-07
-2.26523e-08
1.44724e-08
-0.000253165
3.36285e-08
-6.23876e-11
-0.000236758
-6.64918e-09
-5.90106e-09
-1.79473e-08
0.000197388
2.19705e-10
0.00023698
-1.18083e-08
-8.82799e-08
-3.56245e-09
-0.000197238
-0.000236716
-6.56064e-09
-5.84577e-09
-4.97658e-09
-1.79876e-08
0.000197325
0.000236938
-1.15927e-08
-8.82525e-08
1.4043e-08
-3.76202e-09
-0.000197175
9.90844e-05
-9.90257e-05
9.90808e-05
-9.90221e-05
-4.88402e-10
8.64063e-08
0.000145584
-0.000145666
-3.66813e-09
-9.31389e-08
-1.27519e-08
-0.000237868
-2.39474e-10
2.71874e-07
-0.000173728
-9.42424e-11
-1.85993e-10
0.000173717
-0.000230529
-7.30739e-09
-8.57323e-09
0.000230467
6.99275e-08
-0.000173821
-2.4256e-10
-0.000230688
-1.71519e-08
2.48857e-07
-1.14555e-10
0.000145577
-8.03659e-05
-1.3829e-08
-1.92505e-10
8.03799e-05
-6.16365e-08
0.000270221
1.76373e-08
1.99002e-07
-0.000270397
-6.63718e-09
0.000198005
1.74373e-08
3.3594e-08
3.46308e-09
-8.0431e-05
8.8929e-09
0.000270149
4.25757e-08
-0.000145675
-2.28129e-10
8.59362e-09
-1.205e-08
-8.78459e-09
-3.44058e-11
9.80399e-08
7.9152e-10
0.000173833
-1.63534e-10
-0.000173929
-8.80327e-08
0.000230753
2.53414e-07
-0.000230913
-0.000145759
-1.50659e-10
7.38835e-08
6.0488e-08
8.03157e-05
-0.000269977
1.46723e-08
0.000269908
3.96053e-08
-1.99968e-08
-4.42055e-09
1.48608e-07
1.95459e-07
8.03303e-05
9.93457e-05
-1.53787e-08
6.38623e-09
-9.93367e-05
4.47689e-09
6.90263e-08
8.64671e-08
-2.72187e-10
0.000145583
-0.000145666
-3.8515e-09
-1.31658e-08
-9.31135e-08
-0.000237856
6.30974e-11
2.71816e-07
-0.00023052
-7.27758e-09
-8.55745e-09
0.000230457
6.98712e-08
-0.000173725
-2.44055e-10
5.51621e-11
0.000173715
-0.000230678
-1.72804e-08
2.48862e-07
-0.000173819
5.61823e-11
-1.01376e-10
0.000145576
-8.03675e-05
-1.41248e-08
-6.37163e-11
8.03817e-05
-6.16409e-08
0.000270216
1.77886e-08
1.99013e-07
-0.000270392
-5.992e-09
0.000197988
1.54392e-08
3.32563e-08
3.57792e-09
-8.04327e-05
9.15397e-09
0.000270145
4.24359e-08
-0.000145674
8.57245e-09
-9.69155e-11
-8.75825e-09
-1.19938e-08
5.68906e-11
9.79652e-08
-8.80533e-08
0.000230743
2.53467e-07
-0.000230904
6.10565e-10
0.000173831
5.92141e-11
-0.000173926
-0.000145758
7.38918e-08
8.07777e-11
6.056e-08
8.03173e-05
-0.000269972
1.47851e-08
0.000269904
3.94632e-08
-2.00731e-08
-3.77542e-09
1.48363e-07
1.95459e-07
8.0332e-05
9.93381e-05
-1.52762e-08
8.83971e-09
4.35001e-09
6.65966e-08
-4.09953e-08
-4.09324e-08
0.000218973
-0.000219098
1.02359e-07
1.04776e-07
-8.19485e-05
8.45852e-09
-1.72631e-08
8.19573e-05
-8.19366e-05
8.33409e-09
-1.71632e-08
8.19455e-05
-8.20137e-05
2.42147e-08
-8.20018e-05
2.42813e-08
3.84903e-08
3.86191e-08
0.000218913
7.03098e-08
-3.8564e-08
-4.02409e-08
0.00022902
5.74468e-08
-0.000229069
6.33058e-08
2.35968e-08
0.000285863
-8.71289e-09
-0.000285937
-3.82089e-09
0.000260212
7.7851e-08
-0.000260235
7.92615e-08
1.7401e-08
0.000187188
-0.000187221
7.28409e-08
-3.84463e-08
-3.83188e-08
0.000228944
5.7478e-08
-0.000228997
6.31578e-08
2.34647e-08
0.00028578
-8.71209e-09
-3.83689e-09
-0.000285854
0.000260089
7.32195e-08
8.41242e-08
-0.00026011
1.72767e-08
0.000187134
-0.000187166
-9.17078e-09
-9.01935e-09
-0.000219159
-8.20054e-05
-8.19936e-05
1.46291e-07
-1.28212e-07
0.000228869
2.35259e-07
-0.000187071
3.4808e-08
0.000187042
1.88248e-07
-1.31485e-08
-6.66165e-08
7.17107e-08
-0.000260028
-6.99111e-08
0.000260008
7.23891e-08
7.86035e-08
3.28173e-07
1.89621e-07
0.000228815
5.72973e-08
1.46354e-07
-1.26175e-07
0.000228797
2.30954e-07
-0.000187019
3.67104e-08
0.000186988
1.85777e-07
-1.37156e-08
-6.65105e-08
7.17465e-08
-0.000259909
-7.22969e-08
0.000259891
6.99103e-08
8.09621e-08
3.22939e-07
1.89599e-07
0.000228745
5.50413e-08
8.8011e-10
8.06878e-08
0.000145246
-0.000145323
-4.75541e-09
-8.6864e-08
-1.11314e-08
-0.000236937
-1.31501e-10
2.52854e-07
-0.000173341
-1.13195e-09
-8.52402e-11
-0.000229693
-2.82317e-09
-6.85191e-09
5.52901e-08
-0.000173427
-6.93614e-11
-0.000229839
-1.56627e-08
2.31754e-07
-6.88527e-10
-8.01729e-05
-1.67097e-08
6.78578e-10
8.01889e-05
-5.75687e-08
0.000269284
1.61821e-08
-0.000269446
1.85259e-07
-3.98232e-09
0.000197374
1.41557e-08
2.47494e-08
4.59984e-09
-8.02351e-05
7.4234e-09
0.000269225
3.12205e-08
-0.000145327
1.02925e-09
3.86715e-09
-6.83901e-09
-7.0937e-09
3.72782e-11
8.10823e-08
-5.55427e-10
0.000173433
-0.00017352
-1.51112e-10
-8.20506e-08
0.000229894
-0.000230043
2.35941e-07
-0.000145405
-3.68253e-11
5.87961e-08
5.67378e-08
8.01274e-05
-0.000269066
1.7335e-08
2.85739e-08
-1.76547e-08
-5.01079e-09
1.37879e-07
1.8207e-07
9.90967e-05
-1.39547e-08
5.92931e-09
5.22898e-09
6.28308e-08
8.06614e-08
1.02808e-09
0.000145245
-0.000145322
-4.83616e-09
-1.1504e-08
-8.68557e-08
-0.000236925
1.77186e-10
2.52793e-07
-0.000229683
-2.79473e-09
-7.04268e-09
5.52668e-08
-0.000173339
-1.33466e-09
1.58514e-10
-0.000229829
-1.5776e-08