/*--------------------------------*- C++ -*----------------------------------*\
| =========                 |                                                 |
| \\      /  F ield         | OpenFOAM: The Open Source CFD Toolbox           |
|  \\    /   O peration     | Version:  2312                                  |
|   \\  /    A nd           | Website:  www.openfoam.com                      |
|    \\/     M anipulation  |                                                 |
\*---------------------------------------------------------------------------*/
FoamFile
{
    version     2.0;
    format      ascii;
    arch        "LSB;label=32;scalar=64";
    class       volScalarField;
    location    "950";
    object      k;
}
// * * * * * * * * * * * * * * * * * * * * * * * * * * * * * * * * * * * * * //

dimensions      [0 2 -2 0 0 0 0];

internalField   nonuniform List<scalar> 
43496
(
6.85749e-05
7.11956e-05
5.14166e-05
6.47967e-05
6.06294e-05
4.67106e-05
6.85733e-05
7.34397e-05
6.0628e-05
5.14118e-05
4.67113e-05
6.47924e-05
5.35257e-05
6.99399e-05
6.99377e-05
7.11943e-05
7.34444e-05
7.18478e-05
6.85633e-05
7.16012e-05
7.16307e-05
7.15895e-05
7.16183e-05
7.18627e-05
7.16832e-05
7.97877e-05
7.978e-05
7.16975e-05
7.11838e-05
7.18474e-05
6.85617e-05
7.16301e-05
7.1596e-05
7.16177e-05
7.15843e-05
7.18607e-05
7.16812e-05
7.97682e-05
7.34308e-05
7.97605e-05
7.16955e-05
9.49809e-05
7.34963e-05
7.35024e-05
7.34828e-05
7.34889e-05
9.49831e-05
7.41992e-05
7.328e-05
6.99369e-05
6.52486e-05
7.32696e-05
6.52362e-05
7.42038e-05
7.41515e-05
7.32709e-05
6.9934e-05
6.52443e-05
6.52318e-05
7.32623e-05
7.41563e-05
7.11824e-05
7.34335e-05
3.19043e-05
3.89085e-05
3.19096e-05
6.47853e-05
6.03793e-05
6.03745e-05
5.62967e-05
6.06109e-05
6.23235e-05
5.502e-05
6.23054e-05
5.5017e-05
5.62914e-05
5.73869e-05
6.42063e-05
6.41936e-05
5.73887e-05
5.62942e-05
6.06095e-05
5.5019e-05
6.23197e-05
5.50159e-05
6.23014e-05
5.62889e-05
5.73829e-05
6.41989e-05
6.47815e-05
6.03706e-05
6.41859e-05
5.73847e-05
6.03711e-05
6.59272e-05
5.35452e-05
5.94751e-05
5.94776e-05
5.94803e-05
5.94779e-05
6.59319e-05
3.8387e-05
5.111e-05
5.11133e-05
5.33005e-05
3.88048e-05
5.13557e-05
5.13591e-05
5.34952e-05
5.32918e-05
5.34434e-05
5.11104e-05
5.11054e-05
5.12966e-05
5.12922e-05
5.33008e-05
5.34379e-05
5.11076e-05
5.11086e-05
5.12939e-05
5.12947e-05
5.111e-05
5.12955e-05
5.12944e-05
5.33024e-05
5.34346e-05
5.11072e-05
5.12995e-05
5.12941e-05
5.34323e-05
5.34873e-05
5.13561e-05
5.13504e-05
5.34896e-05
5.13535e-05
5.13543e-05
5.13569e-05
5.34962e-05
5.13531e-05
6.8514e-05
7.33596e-05
7.33841e-05
6.84878e-05
7.1114e-05
7.11403e-05
6.85145e-05
7.33602e-05
7.33867e-05
6.84859e-05
3.83862e-05
3.83918e-05
3.83903e-05
3.87026e-05
3.87022e-05
3.8707e-05
3.87055e-05
6.0524e-05
6.46954e-05
4.63288e-05
5.11726e-05
6.47261e-05
4.64088e-05
6.04753e-05
7.11152e-05
7.11411e-05
6.05241e-05
4.63327e-05
6.46959e-05
5.11766e-05
4.64124e-05
6.47272e-05
6.04754e-05
6.98613e-05
6.98697e-05
5.33346e-05
6.98806e-05
6.98889e-05
7.3419e-05
6.85507e-05
7.11691e-05
7.34198e-05
6.85489e-05
3.88039e-05
3.88094e-05
3.88081e-05
6.06293e-05
6.4768e-05
4.66387e-05
6.05855e-05
4.67121e-05
7.11703e-05
6.06294e-05
4.66427e-05
6.47684e-05
6.05856e-05
4.67154e-05
6.99166e-05
6.99251e-05
5.35235e-05
6.99333e-05
6.99418e-05
7.11129e-05
7.1139e-05
7.11158e-05
7.11419e-05
6.98651e-05
6.98733e-05
5.3346e-05
6.98844e-05
6.98921e-05
7.11664e-05
7.11406e-05
7.11694e-05
7.11436e-05
5.33899e-05
6.99117e-05
6.99194e-05
6.98934e-05
6.99016e-05
6.85125e-05
7.33564e-05
7.33808e-05
6.84863e-05
6.05227e-05
6.46943e-05
4.63284e-05
5.11737e-05
6.47249e-05
4.64082e-05
6.04777e-05
6.05211e-05
6.46905e-05
4.63259e-05
5.1169e-05
6.47213e-05
4.64061e-05
6.04762e-05
6.85199e-05
7.34138e-05
7.33896e-05
6.85451e-05
6.85185e-05
7.34108e-05
7.33863e-05
6.85435e-05
6.05344e-05
5.1236e-05
6.47607e-05
4.65631e-05
6.47316e-05
4.64868e-05
6.05766e-05
6.05329e-05
5.12308e-05
6.47569e-05
4.65612e-05
6.47277e-05
4.64843e-05
6.0575e-05
6.98652e-05
6.9867e-05
5.33342e-05
6.98844e-05
6.9885e-05
7.11142e-05
7.11403e-05
7.11677e-05
7.11418e-05
5.33986e-05
6.99117e-05
6.99124e-05
6.98935e-05
6.98953e-05
7.11677e-05
7.11419e-05
6.05238e-05
6.46958e-05
4.63276e-05
5.1171e-05
6.47274e-05
4.64074e-05
6.04748e-05
6.8513e-05
7.33568e-05
7.33813e-05
6.84843e-05
6.05224e-05
4.63285e-05
6.4692e-05
5.11718e-05
4.64082e-05
6.47227e-05
6.04735e-05
6.85181e-05
7.34164e-05
7.33903e-05
6.85457e-05
6.05316e-05
5.12333e-05
6.4763e-05
4.65623e-05
6.47331e-05
4.64861e-05
6.05779e-05
6.85165e-05
7.34109e-05
7.33868e-05
6.85439e-05
6.05302e-05
5.12342e-05
4.65631e-05
6.47585e-05
4.64869e-05
6.47293e-05
6.05765e-05
6.85129e-05
7.33588e-05
7.33853e-05
6.84849e-05
6.05238e-05
4.63297e-05
6.46913e-05
5.11722e-05
4.6409e-05
6.47222e-05
6.04749e-05
6.85139e-05
7.33567e-05
7.33812e-05
6.84854e-05
6.05321e-05
5.12357e-05
6.47616e-05
4.65638e-05
6.47326e-05
4.64872e-05
6.05781e-05
6.8517e-05
7.34148e-05
7.33889e-05
6.85438e-05
6.05317e-05
5.12361e-05
4.65638e-05
6.4758e-05
4.64882e-05
6.47284e-05
6.05778e-05
6.85176e-05
7.34109e-05
7.33867e-05
6.85449e-05
6.98684e-05
6.98658e-05
5.33361e-05
6.98865e-05
6.9884e-05
7.11138e-05
7.11398e-05
7.11686e-05
7.11429e-05
5.34008e-05
6.99139e-05
6.99114e-05
6.98967e-05
6.98941e-05
7.11673e-05
7.11416e-05
6.05213e-05
4.63299e-05
6.46935e-05
5.11712e-05
4.64093e-05
6.47249e-05
6.04728e-05
6.85125e-05
7.33606e-05
7.33851e-05
6.84843e-05
6.85087e-05
7.33583e-05
7.33828e-05
6.84808e-05
6.05322e-05
5.1239e-05
4.65672e-05
6.47629e-05
4.64911e-05
6.47331e-05
6.05782e-05
6.05295e-05
5.12328e-05
4.65641e-05
6.47606e-05
4.64883e-05
6.47308e-05
6.05753e-05
6.85165e-05
7.34148e-05
7.33906e-05
6.85433e-05
6.85131e-05
7.34124e-05
7.33883e-05
6.85396e-05
7.11138e-05
7.11399e-05
7.11165e-05
7.11425e-05
5.33988e-05
6.99079e-05
6.99163e-05
6.98895e-05
6.98981e-05
7.11673e-05
7.11416e-05
7.117e-05
7.11442e-05
7.1168e-05
7.1171e-05
6.99203e-05
6.99287e-05
7.34145e-05
6.8549e-05
6.47671e-05
4.66385e-05
6.0588e-05
6.47633e-05
4.66359e-05
6.05864e-05
6.99204e-05
6.99222e-05
7.11693e-05
6.47688e-05
4.66378e-05
6.05852e-05
7.34161e-05
6.85472e-05
4.66386e-05
6.47645e-05
6.05838e-05
6.85731e-05
7.34183e-05
6.85476e-05
6.06293e-05
4.66399e-05
6.47638e-05
5.14106e-05
6.05852e-05
4.67118e-05
6.47916e-05
6.85742e-05
7.34161e-05
6.85482e-05
7.34396e-05
6.99237e-05
6.9921e-05
7.11689e-05
6.06267e-05
4.664e-05
6.47662e-05
5.14118e-05
6.0583e-05
4.67123e-05
6.47944e-05
6.85726e-05
7.34199e-05
6.85471e-05
6.85688e-05
7.34176e-05
6.85437e-05
7.34411e-05
7.11689e-05
7.11943e-05
7.11716e-05
7.11969e-05
7.17909e-05
7.15715e-05
7.15455e-05
6.85041e-05
7.15591e-05
7.15365e-05
7.18046e-05
7.16306e-05
7.33692e-05
7.97182e-05
7.97264e-05
7.1616e-05
7.16296e-05
7.97395e-05
7.33746e-05
7.97314e-05
7.16441e-05
7.179e-05
6.84981e-05
7.15444e-05
7.15216e-05
7.15566e-05
7.1531e-05
7.1776e-05
7.11264e-05
7.11279e-05
7.1791e-05
7.15456e-05
7.15717e-05
6.8502e-05
7.15332e-05
7.15592e-05
7.18049e-05
7.16308e-05
7.33718e-05
7.97159e-05
7.97246e-05
7.16162e-05
7.16298e-05
7.97377e-05
7.33753e-05
7.97291e-05
7.16443e-05
7.17902e-05
6.84985e-05
7.15187e-05
7.15446e-05
7.1531e-05
7.15568e-05
7.17761e-05
7.11273e-05
7.11291e-05
9.49254e-05
7.34532e-05
7.34465e-05
7.34395e-05
7.34329e-05
9.49286e-05
7.40743e-05
6.51187e-05
6.98663e-05
7.31885e-05
6.51327e-05
7.32011e-05
7.40684e-05
7.41223e-05
6.51265e-05
6.98748e-05
7.31983e-05
6.51412e-05
7.32108e-05
7.41164e-05
7.40856e-05
7.32155e-05
6.98756e-05
6.51558e-05
6.5142e-05
7.32031e-05
7.40912e-05
7.41336e-05
7.32252e-05
6.98841e-05
6.51643e-05
6.51499e-05
7.32129e-05
7.41392e-05
9.4914e-05
7.34267e-05
7.34201e-05
7.34405e-05
7.34338e-05
9.49106e-05
7.16841e-05
7.97699e-05
7.34285e-05
7.16698e-05
7.97774e-05
7.18479e-05
6.85604e-05
7.16035e-05
7.15793e-05
7.18338e-05
7.16163e-05
7.15876e-05
7.11813e-05
7.16843e-05
7.97676e-05
7.34307e-05
7.16699e-05
7.97756e-05
7.18475e-05
6.85603e-05
7.15764e-05
7.16041e-05
7.18341e-05
7.15878e-05
7.16161e-05
7.11821e-05
9.49819e-05
7.35033e-05
7.34967e-05
7.34899e-05
7.34832e-05
9.49847e-05
7.414e-05
6.52084e-05
7.32459e-05
6.99209e-05
7.41347e-05
6.52209e-05
7.32582e-05
7.41879e-05
6.52163e-05
7.32557e-05
6.99295e-05
7.41826e-05
6.52295e-05
7.32676e-05
9.49709e-05
7.34774e-05
7.34708e-05
9.49682e-05
7.34909e-05
7.34843e-05
7.41501e-05
7.32723e-05
6.99298e-05
6.52415e-05
6.52293e-05
7.32598e-05
7.41558e-05
7.4198e-05
7.32807e-05
6.99384e-05
6.52499e-05
6.52372e-05
7.32707e-05
7.42037e-05
7.11251e-05
7.11268e-05
7.11281e-05
7.11298e-05
9.49288e-05
7.3453e-05
7.34461e-05
7.34392e-05
7.34324e-05
9.49315e-05
7.40761e-05
6.51212e-05
6.98702e-05
7.31894e-05
7.32021e-05
6.51337e-05
7.40702e-05
7.4122e-05
6.51276e-05
6.98779e-05
7.31986e-05
7.32112e-05
6.51416e-05
7.41163e-05
7.40876e-05
7.32165e-05
6.98795e-05
6.51568e-05
7.32041e-05
7.4093e-05
6.51446e-05
7.41336e-05
7.32257e-05
6.98876e-05
6.51647e-05
7.32132e-05
7.4139e-05
6.5151e-05
9.49168e-05
7.34264e-05
7.34196e-05
7.34402e-05
7.34334e-05
9.49141e-05
7.11544e-05
7.11527e-05
7.11573e-05
7.11557e-05
9.4946e-05
7.34519e-05
7.34451e-05
9.49433e-05
7.34656e-05
7.34588e-05
7.41207e-05
6.52009e-05
6.99071e-05
7.32452e-05
7.32327e-05
6.51896e-05
7.4126e-05
7.41668e-05
6.52089e-05
6.99152e-05
7.32544e-05
7.32419e-05
6.51959e-05
7.4172e-05
7.41098e-05
7.32186e-05
6.51673e-05
6.9898e-05
7.41044e-05
7.32308e-05
6.51791e-05
7.41558e-05
7.32278e-05
6.51737e-05
6.9906e-05
7.41505e-05
7.324e-05
6.5187e-05
9.49576e-05
7.34782e-05
7.34714e-05
7.34646e-05
7.34578e-05
9.49603e-05
7.17923e-05
7.15712e-05
7.15405e-05
6.85026e-05
7.15588e-05
7.15315e-05
7.18017e-05
7.163e-05
7.33659e-05
7.96998e-05
7.97083e-05
7.16155e-05
7.1629e-05
7.97213e-05
7.33714e-05
7.97131e-05
7.16435e-05
7.17872e-05
6.84966e-05
7.15441e-05
7.15167e-05
7.15562e-05
7.1526e-05
7.17776e-05
7.18191e-05
7.15742e-05
7.1551e-05
6.85299e-05
7.18055e-05
7.15864e-05
7.15601e-05
7.16565e-05
7.34045e-05
7.97651e-05
7.16709e-05
7.97572e-05
7.16576e-05
7.97445e-05
7.33992e-05
7.16431e-05
7.97524e-05
7.182e-05
6.85355e-05
7.16012e-05
7.15742e-05
7.18334e-05
7.15891e-05
7.15652e-05
7.18161e-05
7.15739e-05
7.1546e-05
6.85284e-05
7.18067e-05
7.15861e-05
7.15551e-05
7.16559e-05
7.3401e-05
7.97468e-05
7.9739e-05
7.16703e-05
7.16569e-05
7.97261e-05
7.33959e-05
7.16425e-05
7.97343e-05
7.18213e-05
6.8534e-05
7.16011e-05
7.15692e-05
7.15888e-05
7.15603e-05
7.18306e-05
9.49277e-05
7.34469e-05
7.34529e-05
7.34331e-05
7.34392e-05
9.49297e-05
7.41216e-05
6.51251e-05
6.98702e-05
7.31971e-05
7.32097e-05
6.51379e-05
7.41171e-05
7.4075e-05
6.51215e-05
6.98709e-05
7.31919e-05
6.51349e-05
7.32013e-05
7.40706e-05
7.41343e-05
7.32241e-05
6.98796e-05
6.5161e-05
7.32117e-05
6.51483e-05
7.41386e-05
7.40878e-05
7.32157e-05
6.98813e-05
6.5158e-05
6.51449e-05
7.32064e-05
7.4092e-05
9.49149e-05
7.34203e-05
7.34264e-05
7.34341e-05
7.34402e-05
9.4913e-05
7.11264e-05
7.11281e-05
7.11555e-05
7.11541e-05
9.49442e-05
7.34458e-05
7.34519e-05
9.49422e-05
7.34596e-05
7.34656e-05
7.41675e-05
6.5205e-05
6.9907e-05
7.32528e-05
6.51932e-05
7.32403e-05
7.41714e-05
7.4121e-05
6.5202e-05
6.99089e-05
7.32444e-05
7.32353e-05
6.51896e-05
7.41248e-05
7.41552e-05
7.32262e-05
6.5171e-05
6.98981e-05
6.51832e-05
7.4151e-05
7.32384e-05
7.41086e-05
7.3221e-05
6.51675e-05
6.9899e-05
7.41046e-05
7.32303e-05
6.51803e-05
9.49565e-05
7.34722e-05
7.34782e-05
7.34585e-05
7.34646e-05
9.49584e-05
7.11557e-05
7.11541e-05
7.17914e-05
7.15712e-05
7.15403e-05
6.85005e-05
7.15587e-05
7.1528e-05
7.18017e-05
7.16288e-05
7.33664e-05
7.96962e-05
7.97048e-05
7.16143e-05
7.16279e-05
7.9718e-05
7.33718e-05
7.97094e-05
7.16423e-05
7.17868e-05
6.84969e-05
7.1544e-05
7.15134e-05
7.15562e-05
7.15256e-05
7.17771e-05
7.18192e-05
7.1548e-05
7.15744e-05
6.85302e-05
7.18056e-05
7.15601e-05
7.15866e-05
7.16567e-05
7.3405e-05
7.97632e-05
7.16711e-05
7.97549e-05
7.16577e-05
7.97421e-05
7.34015e-05
7.16433e-05
7.97505e-05
7.18202e-05
6.85337e-05
7.15744e-05
7.16017e-05
7.18333e-05
7.15623e-05
7.15892e-05
7.18168e-05
7.15738e-05
7.15428e-05
6.85287e-05
7.18052e-05
7.15862e-05
7.15549e-05
7.16547e-05
7.34016e-05
7.97436e-05
7.97354e-05
7.16691e-05
7.16558e-05
7.97225e-05
7.33963e-05
7.16413e-05
7.97309e-05
7.18191e-05
6.85321e-05
7.16009e-05
7.15689e-05
7.15886e-05
7.15571e-05
7.18315e-05
7.17891e-05
7.15412e-05
7.1571e-05
6.8501e-05
7.15302e-05
7.15584e-05
7.18035e-05
7.16297e-05
7.33704e-05
7.9713e-05
7.97175e-05
7.16146e-05
7.16281e-05
7.97307e-05
7.33739e-05
7.97264e-05
7.16432e-05
7.17889e-05
6.84969e-05
7.15154e-05
7.15437e-05
7.15266e-05
7.15561e-05
7.17744e-05
7.17899e-05
7.15712e-05
7.15415e-05
6.85015e-05
7.15587e-05
7.15293e-05
7.18037e-05
7.16295e-05
7.33664e-05
7.96961e-05
7.97047e-05
7.16149e-05
7.16285e-05
7.97178e-05
7.33717e-05
7.97093e-05
7.1643e-05
7.17891e-05
6.84979e-05
7.15441e-05
7.15147e-05
7.15563e-05
7.15269e-05
7.1775e-05
7.1818e-05
7.15449e-05
7.15735e-05
6.85286e-05
7.18037e-05
7.15557e-05
7.1586e-05
7.1655e-05
7.34036e-05
7.97561e-05
7.97521e-05
7.167e-05
7.16566e-05
7.97393e-05
7.34001e-05
7.16416e-05
7.97433e-05
7.18183e-05
6.85326e-05
7.15697e-05
7.16007e-05
7.15592e-05
7.15883e-05
7.1832e-05
7.18181e-05
7.15738e-05
7.1544e-05
6.85297e-05
7.18044e-05
7.15862e-05
7.15561e-05
7.16553e-05
7.34016e-05
7.97433e-05
7.97351e-05
7.16697e-05
7.16564e-05
7.97223e-05
7.33963e-05
7.16419e-05
7.97306e-05
7.1819e-05
6.85331e-05
7.16009e-05
7.157e-05
7.15886e-05
7.15582e-05
7.18323e-05
9.49242e-05
7.34461e-05
7.34522e-05
7.34325e-05
7.34386e-05
9.49267e-05
7.41219e-05
6.5125e-05
6.98724e-05
7.31989e-05
7.32082e-05
6.51398e-05
7.41174e-05
7.40742e-05
6.5121e-05
6.98698e-05
7.31909e-05
6.51353e-05
7.32002e-05
7.40698e-05
7.41346e-05
7.32226e-05
6.98827e-05
6.51628e-05
7.32134e-05
6.51485e-05
7.41389e-05
7.40869e-05
7.32146e-05
6.98801e-05
6.51584e-05
6.51444e-05
7.32054e-05
7.40913e-05
9.4912e-05
7.34197e-05
7.34258e-05
7.34333e-05
7.34395e-05
9.49094e-05
7.1126e-05
7.11278e-05
7.11567e-05
7.11549e-05
9.49411e-05
7.34452e-05
7.34513e-05
9.49388e-05
7.34588e-05
7.34649e-05
7.41678e-05
6.5207e-05
6.99104e-05
7.32512e-05
6.51937e-05
7.32422e-05
7.41717e-05
7.41201e-05
6.52027e-05
6.99077e-05
7.32432e-05
7.32342e-05
6.51892e-05
7.41242e-05
7.41554e-05
7.3228e-05
6.51712e-05
6.99004e-05
6.51852e-05
7.41514e-05
7.32373e-05
7.41078e-05
7.322e-05
6.51671e-05
6.98978e-05
7.41037e-05
7.32292e-05
6.51808e-05
9.49531e-05
7.34713e-05
7.34775e-05
7.34578e-05
7.34639e-05
9.49553e-05
7.11553e-05
7.11536e-05
7.17907e-05
7.15463e-05
7.15706e-05
6.85005e-05
7.15339e-05
7.1558e-05
7.18045e-05
7.16307e-05
7.33702e-05
7.97143e-05
7.9723e-05
7.16162e-05
7.16298e-05
7.97361e-05
7.33756e-05
7.97276e-05
7.16442e-05
7.179e-05
6.84964e-05
7.15194e-05
7.15433e-05
7.15317e-05
7.15557e-05
7.17758e-05
7.17886e-05
7.15377e-05
7.15696e-05
6.84971e-05
7.1526e-05
7.15569e-05
7.18028e-05
7.163e-05
7.33679e-05
7.96975e-05
7.9706e-05
7.16154e-05
7.16289e-05
7.97191e-05
7.33733e-05
7.97108e-05
7.16435e-05
7.17882e-05
6.84926e-05
7.15113e-05
7.15423e-05
7.15231e-05
7.15548e-05
7.17739e-05
7.18189e-05
7.15486e-05
7.1573e-05
6.85282e-05
7.18053e-05
7.15608e-05
7.15856e-05
7.16566e-05
7.34055e-05
7.97616e-05
7.97533e-05
7.1671e-05
7.16576e-05
7.97406e-05
7.34002e-05
7.16432e-05
7.9749e-05
7.18198e-05
6.8532e-05
7.15747e-05
7.16003e-05
7.15628e-05
7.15878e-05
7.18331e-05
7.18171e-05
7.15407e-05
7.1572e-05
6.85244e-05
7.18032e-05
7.15523e-05
7.15846e-05
7.16558e-05
7.34031e-05
7.97447e-05
7.97366e-05
7.16702e-05
7.16569e-05
7.97238e-05
7.33978e-05
7.16424e-05
7.9732e-05
7.18177e-05
6.85286e-05
7.15662e-05
7.15993e-05
7.1555e-05
7.15867e-05
7.18313e-05
7.1126e-05
7.11277e-05
7.11287e-05
7.11304e-05
9.4943e-05
7.34522e-05
7.34456e-05
9.49399e-05
7.34658e-05
7.34592e-05
7.41187e-05
6.51998e-05
6.99032e-05
7.32441e-05
7.41241e-05
6.51869e-05
7.32316e-05
7.41667e-05
6.52084e-05
6.99117e-05
7.32537e-05
7.41721e-05
6.51948e-05
7.32414e-05
7.4108e-05
7.32176e-05
6.51647e-05
6.98941e-05
7.41024e-05
6.51781e-05
7.32297e-05
7.4156e-05
7.32274e-05
6.51726e-05
6.99026e-05
7.41504e-05
6.51866e-05
7.32394e-05
9.49541e-05
7.34784e-05
7.34718e-05
9.49571e-05
7.34649e-05
7.34582e-05
7.11553e-05
7.11536e-05
7.1158e-05
7.11563e-05
7.118e-05
7.11829e-05
7.41421e-05
6.52111e-05
7.32468e-05
6.99253e-05
7.41367e-05
7.32595e-05
6.52221e-05
7.41881e-05
6.52175e-05
7.32561e-05
6.99328e-05
7.41827e-05
7.32688e-05
6.52302e-05
9.49744e-05
7.34771e-05
7.34703e-05
9.49716e-05
7.34907e-05
7.34839e-05
7.16835e-05
7.97514e-05
7.3426e-05
7.16692e-05
7.97593e-05
7.18451e-05
6.85588e-05
7.16033e-05
7.15745e-05
7.1616e-05
7.18353e-05
7.15827e-05
7.41872e-05
6.52145e-05
7.32545e-05
6.99253e-05
7.32671e-05
7.41834e-05
6.52262e-05
7.41405e-05
6.5211e-05
7.32495e-05
6.99254e-05
6.52232e-05
7.4137e-05
7.32581e-05
9.49723e-05
7.3471e-05
7.34771e-05
7.34847e-05
9.49706e-05
7.34908e-05
7.16823e-05
7.97481e-05
7.34255e-05
7.1668e-05
7.9756e-05
7.18463e-05
6.85587e-05
7.16034e-05
7.15711e-05
7.16154e-05
7.18331e-05
7.15825e-05
7.18487e-05
6.85622e-05
7.163e-05
7.15865e-05
7.16174e-05
7.16832e-05
7.97645e-05
7.34295e-05
7.97688e-05
7.16683e-05
7.18465e-05
6.85586e-05
7.1573e-05
7.16031e-05
7.15832e-05
7.18332e-05
7.16153e-05
7.16814e-05
7.18476e-05
6.85627e-05
7.16302e-05
7.1597e-05
7.16177e-05
7.15854e-05
7.18612e-05
7.16829e-05
7.97477e-05
7.34254e-05
7.16686e-05
7.97556e-05
7.18468e-05
6.85596e-05
7.16034e-05
7.15722e-05
7.18334e-05
7.16155e-05
7.15836e-05
7.16818e-05
7.97677e-05
7.34307e-05
7.976e-05
7.16961e-05
7.41875e-05
6.5215e-05
7.32561e-05
6.99272e-05
7.32655e-05
7.41837e-05
6.52281e-05
7.414e-05
6.52106e-05
7.32482e-05
6.99247e-05
6.52238e-05
7.4136e-05
7.32574e-05
9.49693e-05
7.34704e-05
7.34765e-05
7.34838e-05
9.49671e-05
7.349e-05
7.11808e-05
7.18485e-05
6.85616e-05
7.16016e-05
7.16295e-05
7.15899e-05
7.16169e-05
7.18619e-05
7.16842e-05
7.97659e-05
7.34296e-05
7.9774e-05
7.16699e-05
7.18476e-05
6.85581e-05
7.15768e-05
7.16026e-05
7.15882e-05
7.18342e-05
7.16148e-05
7.16831e-05
7.97861e-05
7.97781e-05
7.16974e-05
7.18456e-05
6.85583e-05
7.15933e-05
7.16285e-05
7.15822e-05
7.16158e-05
7.18606e-05
7.16835e-05
7.97492e-05
7.34269e-05
7.16691e-05
7.97571e-05
7.18458e-05
6.85543e-05
7.15689e-05
7.16015e-05
7.18321e-05
7.15798e-05
7.16138e-05
7.16822e-05
7.97692e-05
7.34322e-05
7.97616e-05
7.16966e-05
7.11808e-05
7.11824e-05
7.11835e-05
7.11851e-05
3.12709e-05
3.12687e-05
3.84938e-05
3.14015e-05
3.13988e-05
2.22637e-05
2.21124e-05
6.58131e-05
5.9305e-05
5.93061e-05
5.32847e-05
5.93048e-05
5.93054e-05
6.58074e-05
3.17836e-05
3.17811e-05
2.28617e-05
2.27138e-05
6.59088e-05
5.94435e-05
5.9444e-05
5.34797e-05
6.5904e-05
5.94424e-05
5.94438e-05
6.58154e-05
5.93044e-05
5.93059e-05
5.32965e-05
5.93102e-05
5.93108e-05
6.58078e-05
6.58816e-05
5.34395e-05
5.94145e-05
5.94146e-05
5.941e-05
5.94101e-05
6.58884e-05
6.5814e-05
5.93044e-05
5.93074e-05
5.3285e-05
5.93075e-05
5.93044e-05
6.58084e-05
6.58817e-05
5.34439e-05
5.94084e-05
5.94113e-05
5.94075e-05
5.94107e-05
6.5887e-05
6.58137e-05
5.93052e-05
5.93079e-05
5.32866e-05
5.93077e-05
5.93047e-05
6.58078e-05
6.58815e-05
5.34512e-05
5.94107e-05
5.94125e-05
5.94116e-05
5.94133e-05
6.58865e-05
6.58807e-05
5.3449e-05
5.94091e-05
5.94117e-05
6.5886e-05
5.94101e-05
5.94116e-05
6.59117e-05
5.94434e-05
5.9444e-05
5.34905e-05
6.59047e-05
5.94486e-05
5.94488e-05
6.5911e-05
5.94421e-05
5.94453e-05
5.34898e-05
5.94489e-05
6.59039e-05
5.9446e-05
6.59098e-05
5.94433e-05
5.94458e-05
5.34809e-05
5.94453e-05
6.59046e-05
5.94425e-05
3.12702e-05
3.12698e-05
3.84934e-05
3.14011e-05
3.13996e-05
2.22641e-05
2.21128e-05
3.12745e-05
3.12742e-05
3.84984e-05
3.14046e-05
3.14047e-05
2.22678e-05
2.21165e-05
3.12754e-05
3.12726e-05
3.84967e-05
3.14046e-05
3.14043e-05
2.22683e-05
2.21165e-05
3.85994e-05
3.16577e-05
3.16551e-05
3.15306e-05
3.15285e-05
2.24148e-05
2.25645e-05
3.85985e-05
3.16573e-05
3.16558e-05
3.15299e-05
3.15296e-05
2.24152e-05
2.25648e-05
3.86041e-05
3.16607e-05
3.16609e-05
3.15342e-05
3.15339e-05
2.24189e-05
2.25685e-05
3.86027e-05
3.16606e-05
3.16608e-05
3.15353e-05
3.1532e-05
2.24188e-05
2.2569e-05
5.61407e-05
6.22263e-05
5.48517e-05
6.0504e-05
6.22075e-05
5.4847e-05
5.61355e-05
5.72156e-05
6.02279e-05
6.47076e-05
6.40859e-05
6.023e-05
6.40992e-05
5.72121e-05
5.72486e-05
6.41215e-05
6.47142e-05
6.02606e-05
6.02595e-05
6.41082e-05
5.72518e-05
5.60934e-05
6.04956e-05
6.21818e-05
5.48005e-05
6.22007e-05
5.48055e-05
5.60986e-05
5.6143e-05
5.48526e-05
6.22292e-05
6.05041e-05
5.4848e-05
6.22097e-05
5.61379e-05
5.72184e-05
6.02278e-05
6.47086e-05
6.40877e-05
6.02368e-05
6.41023e-05
5.72147e-05
5.72513e-05
6.41246e-05
6.47147e-05
6.0267e-05
6.02585e-05
6.41101e-05
5.72545e-05
5.60959e-05
6.04958e-05
5.48016e-05
6.21841e-05
5.48065e-05
6.22036e-05
5.6101e-05
6.58325e-05
5.33503e-05
5.9341e-05
5.9341e-05
5.93408e-05
5.93418e-05
6.58381e-05
3.17828e-05
3.17826e-05
3.1905e-05
2.2862e-05
2.27142e-05
3.17869e-05
3.17867e-05
3.19104e-05
2.28657e-05
2.27179e-05
3.17883e-05
3.17845e-05
3.89079e-05
3.19094e-05
3.19111e-05
2.28662e-05
2.27177e-05
5.62974e-05
6.06112e-05
6.23227e-05
5.50201e-05
6.23051e-05
5.5017e-05
5.62921e-05
5.73579e-05
6.03476e-05
6.41734e-05
6.47786e-05
5.73551e-05
6.03462e-05
6.4185e-05
5.62539e-05
6.06039e-05
6.22823e-05
5.4975e-05
5.626e-05
6.22995e-05
5.49788e-05
5.62999e-05
6.06113e-05
5.50211e-05
6.23255e-05
5.50179e-05
6.23073e-05
5.62945e-05
5.73603e-05
6.03451e-05
6.4175e-05
6.478e-05
5.73576e-05
6.03529e-05
6.41882e-05
5.6256e-05
6.0604e-05
5.49759e-05
6.22846e-05
5.62622e-05
5.49797e-05
6.23024e-05
5.73907e-05
6.4208e-05
6.41951e-05
5.73929e-05
6.5926e-05
5.35391e-05
5.94767e-05
5.94756e-05
5.9475e-05
5.94757e-05
6.59329e-05
6.58332e-05
5.3342e-05
5.93465e-05
5.93458e-05
6.58401e-05
5.93394e-05
5.9341e-05
6.58645e-05
5.3394e-05
5.93742e-05
5.93753e-05
6.58577e-05
5.93803e-05
5.93801e-05
5.61432e-05
6.22259e-05
5.48432e-05
6.05066e-05
6.22117e-05
5.4856e-05
5.61331e-05
5.7209e-05
6.0229e-05
6.47064e-05
6.40879e-05
6.40997e-05
6.02301e-05
5.72195e-05
5.72556e-05
6.41221e-05
6.47133e-05
6.02606e-05
6.41104e-05
6.02596e-05
5.72454e-05
5.60915e-05
6.04945e-05
6.21857e-05
5.48091e-05
6.22003e-05
5.47974e-05
5.61013e-05
5.61391e-05
6.22213e-05
5.48412e-05
6.0505e-05
6.2207e-05
5.48542e-05
5.61288e-05
5.72028e-05
6.02256e-05
6.47027e-05
6.40798e-05
6.40924e-05
6.02265e-05
5.72134e-05
5.72494e-05
6.41146e-05
6.47094e-05
6.02569e-05
6.41025e-05
5.72392e-05
6.02561e-05
5.60873e-05
6.04929e-05
6.2181e-05
5.48074e-05
6.21958e-05
5.47956e-05
5.60972e-05
5.6174e-05
6.22372e-05
5.48988e-05
6.05503e-05
5.61842e-05
6.22513e-05
5.48862e-05
5.73272e-05
6.03202e-05
6.47497e-05
6.41654e-05
6.0319e-05
6.41543e-05
5.73164e-05
5.72806e-05
6.41326e-05
6.0289e-05
6.47431e-05
6.02902e-05
5.72917e-05
6.41441e-05
5.62241e-05
6.05616e-05
6.22758e-05
5.49274e-05
6.22621e-05
5.49418e-05
5.62137e-05
5.61696e-05
6.22325e-05
5.48971e-05
6.05487e-05
5.618e-05
6.22467e-05
5.48844e-05
5.7321e-05
6.03163e-05
6.47458e-05
6.41578e-05
6.41464e-05
6.03154e-05
5.73099e-05
5.72744e-05
6.41245e-05
6.02855e-05
6.47394e-05
5.72856e-05
6.41367e-05
6.02864e-05
5.62199e-05
6.056e-05
6.22712e-05
5.49255e-05
6.22574e-05
5.49399e-05
5.62094e-05
6.58336e-05
5.33501e-05
5.93396e-05
5.93436e-05
5.93432e-05
5.93396e-05
6.58388e-05
6.58632e-05
5.33848e-05
5.93741e-05
5.93773e-05
5.93746e-05
6.58581e-05
5.93782e-05
5.61393e-05
6.22269e-05
5.48506e-05
6.05035e-05
6.22074e-05
5.4846e-05
5.6134e-05
5.72137e-05
6.02263e-05
6.47087e-05
6.40856e-05
6.41002e-05
6.02353e-05
5.72101e-05
5.72468e-05
6.41225e-05
6.47147e-05
6.02655e-05
6.41083e-05
6.0257e-05
5.725e-05
5.60919e-05
6.04953e-05
6.21817e-05
5.47998e-05
6.22012e-05
5.48045e-05
5.60971e-05
5.61368e-05
5.48495e-05
6.22233e-05
6.05022e-05
5.48449e-05
6.22035e-05
5.61317e-05
5.72098e-05
6.02259e-05
6.47042e-05
6.40783e-05
6.4093e-05
6.02275e-05
5.72062e-05
5.72429e-05
6.41153e-05
6.47109e-05
6.02577e-05
6.41008e-05
5.72462e-05
6.02562e-05
5.60895e-05
6.0494e-05
5.47988e-05
6.21779e-05
5.48036e-05
6.21975e-05
5.60946e-05
5.61746e-05
6.22332e-05
5.48893e-05
6.05512e-05
5.61802e-05
6.22522e-05
5.48935e-05
5.73182e-05
6.03226e-05
6.47512e-05
6.41658e-05
6.03174e-05
6.41522e-05
5.7321e-05
5.72862e-05
6.41304e-05
6.02865e-05
6.47453e-05
6.02942e-05
5.72833e-05
6.41443e-05
5.622e-05
6.05588e-05
6.22767e-05
5.49366e-05
6.22581e-05
5.49327e-05
5.62142e-05
5.61723e-05
5.48882e-05
6.22293e-05
6.05499e-05
5.61778e-05
5.48925e-05
6.22486e-05
5.73144e-05
6.03162e-05
6.47473e-05
6.41585e-05
6.41445e-05
6.03154e-05
5.73172e-05
5.72824e-05
6.4123e-05
6.0286e-05
6.47409e-05
5.72795e-05
6.4137e-05
6.02873e-05
5.62175e-05
6.05574e-05
5.49355e-05
6.2273e-05
5.49316e-05
6.22541e-05
5.62119e-05
5.61385e-05
5.48511e-05
6.22246e-05
6.05036e-05
5.48465e-05
6.22053e-05
5.61336e-05
5.72121e-05
6.02229e-05
6.47037e-05
6.40797e-05
6.0232e-05
6.40934e-05
5.72084e-05
5.7245e-05
6.41157e-05
6.47101e-05
6.02622e-05
6.02536e-05
6.4102e-05
5.72483e-05
5.60914e-05
6.04955e-05
5.48003e-05
6.21796e-05
5.48053e-05
6.21989e-05
5.60962e-05
5.61759e-05
6.22332e-05
5.48903e-05
6.05514e-05
5.61815e-05
6.22515e-05
5.48945e-05
5.73199e-05
6.03192e-05
6.47506e-05
6.41645e-05
5.73227e-05
6.03186e-05
6.41521e-05
5.72878e-05
6.41304e-05
6.02892e-05
6.47441e-05
5.7285e-05
6.02904e-05
6.41433e-05
5.62212e-05
6.05593e-05
6.22762e-05
5.49374e-05
5.62153e-05
6.2258e-05
5.49336e-05
5.61741e-05
5.48898e-05
6.2231e-05
6.05513e-05
5.61795e-05
5.48941e-05
6.22499e-05
5.73165e-05
6.03204e-05
6.47462e-05
6.4159e-05
6.41458e-05
6.03121e-05
5.73195e-05
5.72845e-05
6.41244e-05
6.0283e-05
6.47403e-05
5.72815e-05
6.41376e-05
6.02909e-05
5.62192e-05
6.05589e-05
5.49371e-05
6.22743e-05
5.49331e-05
6.22559e-05
5.62137e-05
6.58329e-05
5.3352e-05
5.93403e-05
5.93438e-05
5.93437e-05
5.9341e-05
6.58386e-05
6.58629e-05
5.33858e-05
5.93766e-05
5.93783e-05
5.93757e-05
6.58575e-05
5.93787e-05
5.61373e-05
5.48502e-05
6.22222e-05
6.05015e-05
5.48457e-05
6.2203e-05
5.6132e-05
5.72111e-05
6.02247e-05
6.47063e-05
6.40792e-05
6.02337e-05
6.40936e-05
5.72074e-05
5.72441e-05
6.4116e-05
6.47123e-05
6.02639e-05
6.02554e-05
6.41016e-05
5.72473e-05
5.609e-05
6.0493e-05
5.47995e-05
6.21773e-05
5.48044e-05
6.21965e-05
5.60951e-05
5.61783e-05
5.48912e-05
6.22354e-05
6.05515e-05
5.61838e-05
5.48954e-05
6.22544e-05
5.73224e-05
6.03251e-05
6.47509e-05
6.41678e-05
5.73254e-05
6.03169e-05
6.41538e-05
5.72906e-05
6.41323e-05
6.02879e-05
6.47452e-05
5.72876e-05
6.02957e-05
6.41463e-05
5.62235e-05
6.05594e-05
5.49383e-05
6.22792e-05
5.62176e-05
5.49346e-05
6.22602e-05
5.61726e-05
5.48889e-05
6.22288e-05
6.05487e-05
5.61781e-05
5.48932e-05
6.22475e-05
5.73155e-05
6.03221e-05
6.47487e-05
6.41592e-05
6.41455e-05
6.03139e-05
5.73186e-05
5.72835e-05
6.41238e-05
6.02849e-05
6.47428e-05
5.72805e-05
6.41377e-05
6.02927e-05
5.62178e-05
6.05567e-05
5.49361e-05
6.22719e-05
5.49322e-05
6.22536e-05
5.62121e-05
6.58624e-05
5.33845e-05
5.93752e-05
5.93772e-05
6.5857e-05
5.93759e-05
5.93768e-05
5.73493e-05
6.03454e-05
6.41754e-05
6.47777e-05
6.41855e-05
5.73622e-05
6.03444e-05
5.62514e-05
6.06034e-05
6.22867e-05
5.49863e-05
6.22992e-05
5.62628e-05
5.49679e-05
5.73428e-05
6.03419e-05
6.41674e-05
6.47739e-05
5.73562e-05
6.4178e-05
6.03404e-05
5.6247e-05
6.06019e-05
6.22819e-05
5.49845e-05
5.62586e-05
6.22946e-05
5.4966e-05
5.73551e-05
6.03435e-05
6.41733e-05
6.47802e-05
6.41861e-05
5.73529e-05
6.03509e-05
5.62526e-05
6.06039e-05
6.22823e-05
5.49749e-05
6.23002e-05
5.62588e-05
5.49783e-05
5.73514e-05
6.0343e-05
6.41657e-05
6.47757e-05
5.73491e-05
6.41787e-05
6.03436e-05
5.62503e-05
6.06025e-05
5.49739e-05
6.22783e-05
5.62563e-05
5.49773e-05
6.22965e-05
5.62958e-05
6.06109e-05
5.50202e-05
6.23211e-05
5.50173e-05
6.23031e-05
5.62908e-05
5.73537e-05
6.03406e-05
6.41669e-05
6.47751e-05
6.03475e-05
5.73513e-05
6.41795e-05
5.62521e-05
6.06038e-05
5.49754e-05
6.22801e-05
5.49789e-05
5.62581e-05
6.22979e-05
5.73845e-05
6.41994e-05
6.47809e-05
6.03746e-05
6.03679e-05
6.41871e-05
5.73867e-05
5.62945e-05
6.06088e-05
5.50193e-05
6.23186e-05
5.50163e-05
6.23009e-05
5.62892e-05
5.73528e-05
6.03422e-05
6.41666e-05
6.47777e-05
6.03495e-05
5.73503e-05
6.41796e-05
5.62505e-05
6.06013e-05
5.49745e-05
6.22778e-05
5.49779e-05
5.62567e-05
6.22954e-05
5.73835e-05
6.41996e-05
6.47831e-05
6.03758e-05
6.03709e-05
6.41868e-05
5.73859e-05
3.64638e-05
4.17847e-05
3.64637e-05
7.13552e-05
6.01874e-05
6.95326e-05
6.68972e-05
6.68943e-05
6.95309e-05
6.01888e-05
7.13573e-05
7.01869e-05
7.13393e-05
7.73907e-05
7.7373e-05
7.02008e-05
6.952e-05
7.00872e-05
5.93337e-05
6.68829e-05
7.1145e-05
5.9283e-05
7.11303e-05
7.011e-05
7.00369e-05
5.93263e-05
6.68797e-05
7.11374e-05
7.11193e-05
5.92779e-05
7.0058e-05
9.23431e-05
7.20312e-05
7.20368e-05
7.20173e-05
7.20228e-05
9.23519e-05
6.95182e-05
7.01851e-05
7.13419e-05
7.74014e-05
7.7382e-05
7.01998e-05
5.95226e-05
4.176e-05
5.05133e-05
5.05105e-05
5.04718e-05
5.04726e-05
5.95543e-05
4.8048e-05
5.25241e-05
6.0143e-05
5.8516e-05
5.84566e-05
5.24835e-05
4.80887e-05
4.80535e-05
5.25262e-05
6.01461e-05
5.85197e-05
5.24851e-05
5.84632e-05
4.80925e-05
2.10413e-05
3.66941e-05
3.66977e-05
4.19542e-05
2.17997e-05
3.75998e-05
3.76031e-05
4.26836e-05
2.25764e-05
3.84795e-05
3.84827e-05
4.33847e-05
2.33675e-05
3.93322e-05
3.93354e-05
4.40483e-05
2.41692e-05
4.01569e-05
4.01603e-05
4.47043e-05
2.49776e-05
4.09532e-05
4.09568e-05
4.53263e-05
2.5789e-05
4.17208e-05
4.17247e-05
4.59301e-05
2.65997e-05
4.24595e-05
4.24637e-05
4.65049e-05
2.74065e-05
4.31693e-05
4.31737e-05
4.70579e-05
2.82062e-05
4.38504e-05
4.3855e-05
4.75871e-05
2.89959e-05
4.45032e-05
4.45079e-05
4.80979e-05
2.9773e-05
4.51278e-05
4.51324e-05
4.85878e-05
3.05351e-05
4.57247e-05
4.5729e-05
4.90518e-05
3.12799e-05
4.62939e-05
4.62981e-05
4.94994e-05
3.20057e-05
4.6836e-05
4.68399e-05
4.99199e-05
3.27109e-05
4.73512e-05
4.73549e-05
5.03212e-05
3.33938e-05
4.78398e-05
4.78434e-05
5.07049e-05
3.40533e-05
4.83022e-05
4.83058e-05
5.1069e-05
3.46883e-05
4.8739e-05
4.87424e-05
5.1413e-05
3.52978e-05
4.91503e-05
4.91537e-05
5.17369e-05
3.5881e-05
4.95367e-05
4.954e-05
5.20439e-05
3.64374e-05
4.98985e-05
4.9902e-05
5.23336e-05
3.69665e-05
5.02363e-05
5.02399e-05
5.26052e-05
3.74679e-05
5.05506e-05
5.0554e-05
5.28558e-05
3.79414e-05