/*--------------------------------*- C++ -*----------------------------------*\
| =========                 |                                                 |
| \\      /  F ield         | OpenFOAM: The Open Source CFD Toolbox           |
|  \\    /   O peration     | Version:  2312                                  |
|   \\  /    A nd           | Website:  www.openfoam.com                      |
|    \\/     M anipulation  |                                                 |
\*---------------------------------------------------------------------------*/
FoamFile
{
    version     2.0;
    format      ascii;
    arch        "LSB;label=32;scalar=64";
    class       volScalarField;
    location    "950";
    object      nut;
}
// * * * * * * * * * * * * * * * * * * * * * * * * * * * * * * * * * * * * * //

dimensions      [0 2 -1 0 0 0 0];

internalField   nonuniform List<scalar> 
43496
(
9.98432e-05
2.3891e-05
0.0002005
0.0001036
0.000144124
0.000210021
9.98401e-05
5.07359e-05
0.000144121
0.000200463
0.000210019
0.000103579
0.000181934
7.78895e-05
7.79041e-05
2.38932e-05
5.07434e-05
3.67094e-05
9.98079e-05
9.44612e-05
4.10573e-05
9.44281e-05
4.10507e-05
3.67175e-05
2.03164e-05
7.90783e-05
7.90606e-05
2.03185e-05
2.38891e-05
3.67084e-05
9.98049e-05
4.1057e-05
9.44507e-05
4.10504e-05
9.44181e-05
3.6714e-05
2.03155e-05
7.90577e-05
5.07352e-05
7.904e-05
2.03175e-05
8.14833e-05
2.17076e-05
2.17109e-05
2.17057e-05
2.17089e-05
8.14901e-05
0.0001052
4.86451e-05
7.78825e-05
0.000128753
4.86415e-05
0.000128697
0.000105222
0.000105198
4.86551e-05
7.78955e-05
0.000128784
0.000128727
4.8656e-05
0.000105219
2.38913e-05
5.07381e-05
0.000203205
0.000206575
0.000203212
0.000103558
0.000147563
0.000147503
0.000171156
0.000144025
0.000137581
0.000176518
0.000137487
0.000176381
0.000171361
0.000160619
0.000122738
0.000122672
0.000160772
0.000171126
0.000144022
0.000176516
0.000137572
0.000176378
0.000137478
0.000171364
0.00016058
0.000122726
0.000103539
0.000147508
0.000122661
0.000160788
0.000147476
0.000138286
0.000181876
0.000161732
0.000161753
0.000161709
0.000161688
0.000138322
0.00020345
0.000198754
0.000198761
0.000180671
0.00020596
0.000200156
0.000200162
0.00018162
0.000180617
0.000181557
0.00019874
0.000198722
0.000199796
0.000199773
0.000180685
0.000181521
0.000198749
0.000198726
0.000199807
0.000199783
0.000198726
0.000199807
0.000199788
0.000180686
0.000181486
0.000198738
0.000199819
0.000199797
0.000181467
0.000181571
0.000200141
0.000200122
0.000181593
0.000200151
0.000200127
0.000200127
0.000181628
0.000200139
9.97266e-05
5.07185e-05
5.07248e-05
9.96655e-05
2.38784e-05
2.38829e-05
9.97268e-05
5.0711e-05
5.07222e-05
9.96577e-05
0.000203445
0.000203457
0.000203448
0.000205341
0.000205332
0.000205348
0.000205344
0.000143714
0.00010336
0.000207743
0.000199107
0.000103445
0.000208207
0.000143499
2.38776e-05
2.38818e-05
0.000143713
0.000207749
0.000103361
0.000199118
0.000208217
0.000103447
0.000143498
7.78092e-05
7.78038e-05
0.000180988
7.78373e-05
7.78318e-05
5.07389e-05
9.97873e-05
2.38877e-05
5.07317e-05
9.97803e-05
0.000205955
0.000205967
0.000205956
0.000144122
0.00010352
0.00020958
0.000143924
0.000210022
2.38868e-05
0.000144121
0.000209586
0.000103521
0.000143922
0.000210031
7.78723e-05
7.78671e-05
0.000181929
7.78958e-05
7.78902e-05
2.38805e-05
2.38849e-05
2.38785e-05
2.38829e-05
7.78184e-05
7.78124e-05
0.00018108
7.78468e-05
7.78395e-05
2.38895e-05
2.38852e-05
2.38875e-05
2.38831e-05
0.000181089
7.78777e-05
7.78703e-05
7.78508e-05
7.78451e-05
9.97234e-05
5.07129e-05
5.07193e-05
9.96623e-05
0.00014371
0.000103362
0.000207741
0.000199096
0.000103446
0.000208208
0.000143517
0.000143706
0.000103337
0.000207734
0.000199073
0.000103423
0.0002082
0.000143513
9.97276e-05
5.07351e-05
5.07288e-05
9.97867e-05
9.97246e-05
5.07303e-05
5.07231e-05
9.97832e-05
0.000143734
0.00019945
0.000103524
0.000209127
0.000103444
0.000208672
0.000143917
0.00014373
0.000199432
0.000103502
0.000209119
0.000103419
0.000208666
0.000143913
7.7797e-05
7.78203e-05
0.000180999
7.78266e-05
7.78453e-05
2.38798e-05
2.38842e-05
2.38875e-05
2.38831e-05
0.000181155
7.78575e-05
7.78764e-05
7.78294e-05
7.78526e-05
2.38888e-05
2.38845e-05
0.000143715
0.000103351
0.000207738
0.000199106
0.000103438
0.000208206
0.0001435
9.97238e-05
5.07095e-05
5.07159e-05
9.96552e-05
0.000143712
0.000207737
0.000103341
0.000199082
0.000208204
0.000103425
0.000143497
9.97206e-05
5.07324e-05
5.07214e-05
9.97872e-05
0.000143717
0.000199459
0.000103516
0.000209125
0.000103433
0.00020867
0.000143923
9.97174e-05
5.07262e-05
5.07198e-05
9.97835e-05
0.000143714
0.000199436
0.000209123
0.000103504
0.000208668
0.000103423
0.00014392
9.97197e-05
5.07122e-05
5.07233e-05
9.96512e-05
0.000143715
0.000207739
0.000103349
0.000199088
0.000208205
0.000103434
0.0001435
9.97253e-05
5.07107e-05
5.07171e-05
9.9657e-05
0.000143716
0.000199465
0.000103523
0.000209126
0.000103442
0.000208673
0.000143922
9.97134e-05
5.07335e-05
5.07226e-05
9.97792e-05
0.000143717
0.000199436
0.000209124
0.000103513
0.00020867
0.00010343
0.000143923
9.97191e-05
5.07274e-05
5.0721e-05
9.9785e-05
7.78046e-05
7.78178e-05
0.000181001
7.78296e-05
7.78434e-05
2.38798e-05
2.38841e-05
2.38865e-05
2.38822e-05
0.00018116
7.78606e-05
7.78745e-05
7.78371e-05
7.78501e-05
2.38887e-05
2.38844e-05
0.000143705
0.00020774
0.000103342
0.000199096
0.000208207
0.000103428
0.00014349
9.9718e-05
5.07148e-05
5.07212e-05
9.96494e-05
9.9708e-05
5.07091e-05
5.07155e-05
9.96388e-05
0.000143715
0.000199472
0.000209135
0.000103525
0.00020868
0.000103443
0.000143921
0.000143707
0.000199448
0.000209125
0.000103507
0.000208671
0.000103424
0.000143912
9.97116e-05
5.07316e-05
5.07251e-05
9.97776e-05
9.97012e-05
5.07258e-05
5.07195e-05
9.97676e-05
2.38784e-05
2.38828e-05
2.38773e-05
2.38817e-05
0.000181145
7.78681e-05
7.78628e-05
7.78415e-05
7.78366e-05
2.38874e-05
2.38831e-05
2.38863e-05
2.3882e-05
2.38898e-05
2.38877e-05
7.78811e-05
7.78757e-05
5.07305e-05
9.97837e-05
0.000103522
0.00020958
0.000143941
0.000103498
0.000209572
0.000143937
7.78596e-05
7.7883e-05
2.3889e-05
0.000103512
0.000209577
0.000143924
5.07298e-05
9.97769e-05
0.000209576
0.000103501
0.000143921
9.98357e-05
5.07327e-05
9.97727e-05
0.000144124
0.000209577
0.000103509
0.000200468
0.000143925
0.00021002
0.000103587
9.98415e-05
5.07311e-05
9.97785e-05
5.07371e-05
7.78677e-05
7.78808e-05
2.3889e-05
0.000144113
0.000209578
0.000103502
0.000200478
0.000143914
0.000210021
0.000103581
9.98341e-05
5.07351e-05
9.97709e-05
9.98241e-05
5.07295e-05
9.97605e-05
5.07355e-05
2.38877e-05
2.38919e-05
2.38866e-05
2.38908e-05
3.66953e-05
4.10405e-05
9.43686e-05
9.96971e-05
4.10344e-05
9.43436e-05
3.67021e-05
2.03087e-05
5.07197e-05
7.90072e-05
7.90253e-05
2.03066e-05
2.03085e-05
7.90373e-05
5.07236e-05
7.90193e-05
2.03106e-05
3.66984e-05
9.9696e-05
4.10304e-05
9.43189e-05
4.10362e-05
9.43446e-05
3.66914e-05
2.38805e-05
2.38808e-05
3.66952e-05
9.43689e-05
4.104e-05
9.96891e-05
9.43344e-05
4.10338e-05
3.67022e-05
2.0309e-05
5.0717e-05
7.90022e-05
7.90215e-05
2.0307e-05
2.03089e-05
7.90336e-05
5.07163e-05
7.90145e-05
2.0311e-05
3.66983e-05
9.96963e-05
9.43105e-05
4.10298e-05
9.43448e-05
4.10357e-05
3.66912e-05
2.38795e-05
2.38799e-05
8.14422e-05
2.1703e-05
2.16997e-05
2.17009e-05
2.16977e-05
8.14503e-05
0.000105056
0.000128361
7.78209e-05
4.86251e-05
0.000128424
4.86326e-05
0.000105032
0.000105063
0.000128341
7.78158e-05
4.86148e-05
0.000128406
4.86221e-05
0.000105039
0.000105065
4.86374e-05
7.78257e-05
0.000128497
0.000128434
4.86301e-05
0.000105088
0.000105072
4.86269e-05
7.78206e-05
0.000128479
0.000128415
4.86197e-05
0.000105095
8.144e-05
2.1699e-05
2.16958e-05
2.17011e-05
2.16978e-05
8.14317e-05
2.03162e-05
7.90544e-05
5.07407e-05
2.03142e-05
7.90714e-05
3.67135e-05
9.98166e-05
4.10471e-05
9.44152e-05
3.6706e-05
4.1054e-05
9.44384e-05
2.38898e-05
2.03166e-05
7.90495e-05
5.07368e-05
2.03146e-05
7.90677e-05
3.67128e-05
9.9815e-05
9.44068e-05
4.10469e-05
3.67062e-05
9.44388e-05
4.10527e-05
2.38887e-05
8.14812e-05
2.17104e-05
2.17071e-05
2.17084e-05
2.17051e-05
8.1489e-05
0.000105182
0.000128648
4.86442e-05
7.78824e-05
0.000105159
0.000128706
4.86516e-05
0.000105189
0.000128628
4.86339e-05
7.78775e-05
0.000105166
0.000128688
4.86406e-05
8.14796e-05
2.17065e-05
2.17033e-05
8.1472e-05
2.17085e-05
2.17053e-05
0.000105188
4.8657e-05
7.78876e-05
0.000128772
0.000128716
4.8649e-05
0.000105213
0.000105195
4.86433e-05
7.78822e-05
0.000128754
0.000128696
4.86409e-05
0.000105219
2.38826e-05
2.38829e-05
2.38806e-05
2.38808e-05
8.1448e-05
2.17033e-05
2.17e-05
2.17013e-05
2.1698e-05
8.14553e-05
0.000105065
0.000128374
7.78306e-05
4.86281e-05
4.86356e-05
0.000128431
0.00010504
0.000105066
0.00012835
7.78232e-05
4.86154e-05
4.86228e-05
0.000128413
0.000105041
0.000105073
4.86404e-05
7.7835e-05
0.000128504
4.86331e-05
0.000105097
0.000128448
0.000105075
4.86278e-05
7.78291e-05
0.000128486
4.86204e-05
0.000105098
0.000128424
8.14449e-05
2.16994e-05
2.16961e-05
2.17015e-05
2.16981e-05
8.14377e-05
2.38875e-05
2.38872e-05
2.38854e-05
2.38852e-05
8.14655e-05
2.17032e-05
2.16999e-05
8.14582e-05
2.17052e-05
2.17019e-05
0.000105136
0.000128645
7.78662e-05
4.86499e-05
4.86423e-05
0.000128591
0.00010516
0.000105138
0.000128627
7.78604e-05
4.86373e-05
4.86298e-05
0.000128567
0.000105161
0.000105129
4.86378e-05
0.00012852
7.7862e-05
0.000105105
4.86448e-05
0.000128575
0.00010513
4.86253e-05
0.000128496
7.78552e-05
0.000105107
4.86322e-05
0.000128557
8.1468e-05
2.17071e-05
2.17038e-05
2.1705e-05
2.17017e-05
8.14754e-05
3.66978e-05
4.10404e-05
9.43572e-05
9.96939e-05
4.10344e-05
9.43329e-05
3.66969e-05
2.0308e-05
5.07141e-05
7.89849e-05
7.90034e-05
2.03059e-05
2.03078e-05
7.90153e-05
5.0718e-05
7.89973e-05
2.03099e-05
3.66932e-05
9.96928e-05
4.10303e-05
9.43083e-05
4.1036e-05
9.43332e-05
3.66942e-05
3.67059e-05
4.1039e-05
9.43678e-05
9.97573e-05
3.66992e-05
4.10447e-05
9.43931e-05
2.03123e-05
5.07341e-05
7.90607e-05
2.03144e-05
7.90428e-05
2.03125e-05
7.90313e-05
5.07304e-05
2.03104e-05
7.90492e-05
3.67027e-05
9.97578e-05
4.1049e-05
9.44164e-05
3.67093e-05
4.10434e-05
9.43914e-05
3.67006e-05
4.10389e-05
9.43571e-05
9.97541e-05
3.67013e-05
4.10446e-05
9.43817e-05
2.03117e-05
5.07281e-05
7.90385e-05
7.90211e-05
2.03137e-05
2.03118e-05
7.90092e-05
5.07249e-05
2.03098e-05
7.90272e-05
3.67051e-05
9.97548e-05
4.10491e-05
9.4405e-05
4.10432e-05
9.4381e-05
3.67046e-05
8.14458e-05
2.17e-05
2.17031e-05
2.1698e-05
2.1701e-05
8.1452e-05
0.000105062
0.000128342
7.78104e-05
4.86152e-05
4.86225e-05
0.0001284
0.000105042
0.00010506
0.000128372
7.78293e-05
4.86307e-05
0.000128433
4.86306e-05
0.00010504
0.000105075
4.86273e-05
7.78136e-05
0.000128473
4.86202e-05
0.000128415
0.000105095
0.000105072
4.86353e-05
7.78366e-05
0.000128506
0.000128446
4.86354e-05
0.000105092
8.14415e-05
2.16961e-05
2.16991e-05
2.16981e-05
2.17012e-05
8.14354e-05
2.38819e-05
2.38821e-05
2.38854e-05
2.38852e-05
8.14622e-05
2.16999e-05
2.17029e-05
8.14559e-05
2.17019e-05
2.17049e-05
0.000105138
0.000128613
7.78446e-05
4.86369e-05
0.000128558
4.86294e-05
0.000105157
0.000105136
0.000128646
7.78681e-05
4.86449e-05
4.86452e-05
0.000128589
0.000105155
0.000105126
4.86248e-05
0.000128487
7.78419e-05
0.000128544
0.000105107
4.86317e-05
0.000105124
4.86403e-05
0.000128518
7.78614e-05
0.000105104
4.86406e-05
0.000128577
8.14658e-05
2.17038e-05
2.17068e-05
2.17017e-05
2.17048e-05
8.14721e-05
2.38868e-05
2.38865e-05
3.66964e-05
4.10398e-05
9.43581e-05
9.96862e-05
4.10337e-05
9.43243e-05
3.66975e-05
2.0308e-05
5.07108e-05
7.89813e-05
7.90005e-05
2.0306e-05
2.03079e-05
7.90126e-05
5.07145e-05
7.89937e-05
2.03099e-05
3.66933e-05
9.96929e-05
4.10296e-05
9.43001e-05
4.10354e-05
9.43334e-05
3.66934e-05
3.67057e-05
9.43593e-05
4.10384e-05
9.97571e-05
3.6699e-05
9.4393e-05
4.10442e-05
2.03127e-05
5.07263e-05
7.90567e-05
2.03147e-05
7.90381e-05
2.03129e-05
7.90264e-05
5.0727e-05
2.03108e-05
7.90453e-05
3.67029e-05
9.97507e-05
9.44171e-05
4.10488e-05
3.67089e-05
9.43831e-05
4.10427e-05
3.67024e-05
4.10381e-05
9.43492e-05
9.97542e-05
3.66985e-05
4.10441e-05
9.43826e-05
2.03117e-05
5.07251e-05
7.90359e-05
7.90175e-05
2.03137e-05
2.03119e-05
7.90057e-05
5.07213e-05
2.03098e-05
7.90244e-05
3.67015e-05
9.97476e-05
4.10483e-05
9.44058e-05
4.10423e-05
9.4373e-05
3.67068e-05
3.66949e-05
9.43577e-05
4.10396e-05
9.96823e-05
9.43238e-05
4.10332e-05
3.67023e-05
2.03092e-05
5.07181e-05
7.89986e-05
7.90118e-05
2.03071e-05
2.0309e-05
7.90239e-05
5.07175e-05
7.9011e-05
2.03111e-05
3.66984e-05
9.96887e-05
9.42992e-05
4.10292e-05
9.43333e-05
4.10352e-05
3.66911e-05
3.66939e-05
4.10403e-05
9.43615e-05
9.9688e-05
4.10341e-05
9.43273e-05
3.67009e-05
2.03083e-05
5.0712e-05
7.89827e-05
7.90016e-05
2.03062e-05
2.03082e-05
7.90136e-05
5.07158e-05
7.89948e-05
2.03102e-05
3.66971e-05
9.96945e-05
4.10301e-05
9.43032e-05
4.10359e-05
9.43372e-05
3.669e-05
3.6706e-05
9.43485e-05
4.10377e-05
9.975e-05
3.66988e-05
9.43818e-05
4.10439e-05
2.03128e-05
5.07276e-05
7.90469e-05
7.90344e-05
2.03149e-05
2.0313e-05
7.90228e-05
5.07282e-05
2.03109e-05
7.90351e-05
3.67024e-05
9.97435e-05
9.4405e-05
4.10481e-05
9.43723e-05
4.10419e-05
3.67092e-05
3.67045e-05
4.10386e-05
9.43521e-05
9.97558e-05
3.66978e-05
4.10446e-05
9.43859e-05
2.0312e-05
5.07263e-05
7.90368e-05
7.90183e-05
2.0314e-05
2.03121e-05
7.90067e-05
5.07226e-05
2.03101e-05
7.90253e-05
3.67014e-05
9.97492e-05
4.10488e-05
9.44089e-05
4.10428e-05
9.43758e-05
3.67079e-05
8.14442e-05
2.17002e-05
2.17035e-05
2.16982e-05
2.17015e-05
8.14512e-05
0.000105064
0.000128341
7.78134e-05
4.86195e-05
4.86194e-05
0.000128405
0.000105045
0.000105062
0.000128372
7.78271e-05
4.86318e-05
0.000128435
4.86317e-05
0.000105042
0.000105077
4.86242e-05
7.78211e-05
0.000128478
4.86242e-05
0.000128415
0.000105097
0.000105075
4.86365e-05
7.78342e-05
0.000128509
0.000128446
4.86365e-05
0.000105094
8.14408e-05
2.16963e-05
2.16996e-05
2.16983e-05
2.17016e-05
8.14337e-05
2.38817e-05
2.38821e-05
2.38845e-05
2.38842e-05
8.14613e-05
2.17001e-05
2.17033e-05
8.14544e-05
2.17021e-05
2.17053e-05
0.000105141
0.000128619
7.78527e-05
4.86338e-05
0.00012856
4.86341e-05
0.000105159
0.000105138
0.00012865
7.78656e-05
4.86461e-05
4.86464e-05
0.000128589
0.000105157
0.000105128
4.86291e-05
0.000128487
7.78453e-05
0.000128549
0.000105109
4.86294e-05
0.000105126
4.86414e-05
0.000128518
7.78591e-05
0.000105107
4.86416e-05
0.00012858
8.14644e-05
2.1704e-05
2.17072e-05
2.1702e-05
2.17052e-05
8.14711e-05
2.38867e-05
2.38864e-05
3.66957e-05
9.43699e-05
4.10395e-05
9.96805e-05
9.43358e-05
4.10331e-05
3.67026e-05
2.03097e-05
5.07161e-05
7.90034e-05
7.90224e-05
2.03076e-05
2.03095e-05
7.90344e-05
5.07199e-05
7.90156e-05
2.03116e-05
3.66988e-05
9.96871e-05
9.43118e-05
4.10291e-05
9.43457e-05
4.10351e-05
3.66917e-05
3.66925e-05
9.43499e-05
4.10391e-05
9.96701e-05
9.43156e-05
4.10325e-05
3.66997e-05
2.03078e-05
5.07104e-05
7.89804e-05
7.89994e-05
2.03057e-05
2.03077e-05
7.90115e-05
5.07142e-05
7.89927e-05
2.03097e-05
3.66959e-05
9.9677e-05
9.42913e-05
4.10285e-05
9.43256e-05
4.10347e-05
3.66886e-05
3.67063e-05
9.43606e-05
4.10376e-05
9.97484e-05
3.66995e-05
9.43941e-05
4.10438e-05
2.03133e-05
5.07304e-05
7.90576e-05
7.9039e-05
2.03154e-05
2.03135e-05
7.90275e-05
5.07267e-05
2.03114e-05
7.90462e-05
3.67032e-05
9.97417e-05
9.44172e-05
4.1048e-05
9.43843e-05
4.10418e-05
3.67097e-05
3.67034e-05
9.43404e-05
4.1037e-05
9.97383e-05
3.66963e-05
9.43742e-05
4.10433e-05
2.03115e-05
5.07247e-05
7.90347e-05
7.90163e-05
2.03135e-05
2.03116e-05
7.90047e-05
5.0721e-05
2.03096e-05
7.90232e-05
3.67e-05
9.97313e-05
9.43973e-05
4.10476e-05
9.43641e-05
4.10411e-05
3.67068e-05
2.38805e-05
2.38807e-05
2.38794e-05
2.38797e-05
8.14603e-05
2.17028e-05
2.16996e-05
8.14524e-05
2.17048e-05
2.17016e-05
0.000105128
0.000128637
7.78571e-05
4.86468e-05
0.000105151
0.000128578
4.86394e-05
0.000105135
0.00012862
7.78519e-05
4.86362e-05
0.000105158
0.000128558
4.8629e-05
0.00010512
4.86349e-05
0.000128507
7.7852e-05
0.000105097
0.000128567
4.86417e-05
0.000105127
4.86246e-05
0.000128487
7.78472e-05
0.000105104
0.00012855
4.86312e-05
8.14622e-05
2.17067e-05
2.17034e-05
8.14699e-05
2.17047e-05
2.17014e-05
2.38854e-05
2.38851e-05
2.38843e-05
2.3884e-05
2.38918e-05
2.38898e-05
0.000105191
0.000128661
4.8647e-05
7.78934e-05
0.000105166
4.86553e-05
0.000128713
0.000105192
0.000128637
4.86345e-05
7.78854e-05
0.000105168
4.86426e-05
0.000128696
8.14852e-05
2.17069e-05
2.17036e-05
8.14776e-05
2.17089e-05
2.17056e-05
2.03156e-05
7.9032e-05
5.07373e-05
2.03135e-05
7.90497e-05
3.67086e-05
9.98133e-05
4.10469e-05
9.44048e-05
4.10539e-05
3.6708e-05
9.44271e-05
0.000105187
0.000128627
4.8634e-05
7.78731e-05
4.86422e-05
0.000105169
0.000128681
0.000105184
0.000128658
4.865e-05
7.78904e-05
0.000128714
0.000105166
4.86487e-05
8.14814e-05
2.17036e-05
2.17066e-05
2.17056e-05
8.14755e-05
2.17086e-05
2.03156e-05
7.9029e-05
5.07314e-05
2.03136e-05
7.90469e-05
3.6711e-05
9.98118e-05
4.10466e-05
9.43964e-05
4.10523e-05
3.67048e-05
9.44283e-05
3.67123e-05
9.98009e-05
4.10569e-05
9.44175e-05
4.105e-05
2.03168e-05
7.90455e-05
5.0739e-05
7.90587e-05
2.03147e-05
3.67121e-05
9.98075e-05
9.43954e-05
4.10462e-05
9.44273e-05
3.67068e-05
4.10521e-05
2.03166e-05
3.6709e-05
9.98065e-05
4.10575e-05
9.44536e-05
4.10509e-05
9.44208e-05
3.67147e-05
2.03159e-05
7.90296e-05
5.07324e-05
2.03138e-05
7.90477e-05
3.67117e-05
9.98133e-05
4.10471e-05
9.43991e-05
3.67053e-05
4.10528e-05
9.44312e-05
2.03157e-05
7.90584e-05
5.07363e-05
7.90406e-05
2.03177e-05
0.00010519
0.000128628
4.86381e-05
7.78755e-05
4.86391e-05
0.000105171
0.000128687
0.000105187
0.000128658
4.86508e-05
7.78891e-05
0.000128718
0.000105168
4.86511e-05
8.14807e-05
2.17038e-05
2.17071e-05
2.17058e-05
8.1474e-05
2.1709e-05
2.3891e-05
3.67108e-05
9.97991e-05
9.44618e-05
4.10567e-05
9.44292e-05
4.10499e-05
3.67164e-05
2.03173e-05
7.90504e-05
5.07372e-05
7.90686e-05
2.03152e-05
3.67135e-05
9.9806e-05
9.44076e-05
4.10461e-05
9.44395e-05
3.67071e-05
4.1052e-05
2.03171e-05
7.90793e-05
7.90612e-05
2.03191e-05
3.67068e-05
9.97888e-05
9.4442e-05
4.10563e-05
9.44094e-05
4.10492e-05
3.6715e-05
2.03154e-05
7.90277e-05
5.07308e-05
2.03133e-05
7.90457e-05
3.67105e-05
9.97959e-05
9.43874e-05
4.10455e-05
3.6704e-05
9.44197e-05
4.10515e-05
2.03152e-05
7.90563e-05
5.07347e-05
7.90387e-05
2.03172e-05
2.38897e-05
2.38899e-05
2.38886e-05
2.38889e-05
0.000199216
0.000199215
0.000204086
0.000200025
0.000200024
0.000189323
0.0001883
0.000137896
0.000160909
0.000160896
0.000180747
0.000160964
0.000160949
0.000137857
0.000202422
0.000202421
0.000193388
0.000192377
0.000138235
0.000161539
0.000161523
0.000181702
0.000138199
0.000161591
0.00016158
0.000137909
0.000160908
0.000160899
0.000180842
0.000160996
0.000160983
0.000137863
0.000138122
0.000181335
0.000161468
0.000161452
0.000161386
0.000161369
0.000138166
0.000137903
0.000160898
0.00016092
0.000180762
0.000160977
0.000160955
0.000137863
0.000138121
0.000181372
0.000161427
0.000161448
0.000161364
0.000161386
0.000138159
0.000137903
0.0001609
0.000160922
0.000180762
0.000160977
0.000160954
0.000137864
0.000138122
0.00018141
0.000161435
0.000161453
0.000161382
0.000161399
0.000138159
0.000138115
0.000181394
0.000161437
0.000161432
0.000138152
0.000161385
0.000161374
0.00013825
0.000161539
0.000161525
0.000181791
0.000138204
0.000161626
0.000161611
0.000138246
0.000161523
0.000161546
0.00018179
0.000161625
0.000138199
0.000161604
0.000138242
0.000161527
0.000161548
0.000181714
0.000161603
0.000138205
0.000161581
0.000199213
0.000199215
0.000204078
0.000200023
0.000200023
0.000189323
0.0001883
0.000199223
0.000199227
0.000204093
0.000200033
0.000200037
0.000189332
0.000188309
0.000199223
0.000199223
0.000204089
0.000200031
0.000200036
0.000189332
0.00018831
0.000204718
0.000201628
0.000201627
0.000200831
0.00020083
0.000190344
0.000191362
0.000204713
0.000201625
0.000201625
0.000200829
0.000200831
0.000190344
0.000191361
0.000204725
0.000201635
0.00020164
0.000200838
0.000200842
0.000190353
0.000191371
0.000204715
0.000201633
0.000201639
0.000200839
0.000200837
0.000190353
0.00019137
0.000170423
0.000137228
0.000175661
0.000143609
0.000137132
0.000175522
0.000170554
0.000159995
0.000146897
0.000103404
0.000122355
0.000146939
0.000122422
0.000159866
0.000160024
0.000122488
0.000103401
0.000147065
0.000147027
0.000122421
0.000160156
0.000170341
0.000143606
0.00013704
0.000175291
0.000137136
0.000175432
0.000170223
0.000170425
0.000175662
0.000137235
0.000143608
0.000175523
0.000137138
0.000170565
0.000160005
0.000146893
0.000103406
0.000122361
0.00014697
0.000122431
0.000159873
0.000160029
0.000122497
0.000103402
0.000147093
0.000147019
0.000122427
0.000160168
0.000170351
0.000143605
0.000175292
0.000137047
0.000175433
0.000137144
0.000170227
0.000137945
0.00018091
0.000161127
0.000161109
0.00016107
0.000161056
0.000137983
0.000202419
0.000202422
0.000203203
0.000193388
0.000192377
0.000202429
0.000202432
0.000203218
0.000193397
0.000192386
0.00020243
0.000202427
0.000206573
0.000203209
0.00020322
0.000193397
0.000192386
0.000171129
0.000144024
0.000137579
0.000176517
0.000137487
0.000176378
0.000171378
0.000160658
0.000147393
0.000122617
0.00010356
0.000160465
0.000147421
0.000122679
0.000171157
0.000144022
0.000137403
0.000176162
0.000170961
0.000137493
0.000176302
0.000171162
0.000144023
0.000176518
0.000137586
0.000176379
0.000137494
0.000171364
0.000160658
0.000147378
0.000122621
0.000103563
0.000160466
0.000147451
0.000122687
0.000171149
0.000144021
0.000176162
0.00013741
0.000170975
0.000176302
0.000137501
0.000160604
0.000122748
0.000122682
0.00016081
0.000138277
0.000181836
0.000161754
0.00016173
0.000161684
0.00016167
0.000138323
0.000137952
0.000180859
0.000161159
0.000161139
0.000137996
0.000161064
0.000161055
0.000138082
0.000181311
0.000161221
0.00016121
0.000138037
0.000161312
0.000161295
0.000170449
0.000137225
0.000175604
0.000143627
0.00013715
0.000175589
0.000170516
0.000159948
0.000146906
0.000103405
0.000122362
0.000122422
0.000146942
0.000159912
0.000160069
0.000122489
0.000103403
0.000147068
0.000122429
0.00014703
0.000160104
0.000170321
0.000143603
0.000137057
0.000175355
0.000137133
0.000175376
0.000170245
0.000170434
0.000137211
0.000175597
0.000143623
0.000137138
0.000175584
0.000170498
0.000159924
0.000146874
0.000103383
0.000122344
0.000122405
0.000146911
0.000159888
0.000160046
0.000122471
0.000103379
0.000147036
0.000122411
0.00016008
0.000146999
0.000170304
0.000143599
0.000137045
0.00017535
0.00013712
0.000175371
0.000170231
0.00017071
0.000137242
0.000175801
0.000143816
0.00017065
0.000137317
0.000175817
0.000160387
0.000147316
0.000103484
0.000122618
0.000147276
0.00012256
0.000160414
0.000160254
0.000122495
0.000147151
0.000103486
0.00014719
0.000160229
0.000122555
0.000170848
0.000143838
0.000137405
0.000176022
0.000137333
0.000176017
0.000170908
0.000170695
0.00013723
0.000175796
0.000143812
0.000170635
0.000137303
0.000175812
0.000160363
0.000147283
0.000103459
0.0001226
0.000122543
0.000147244
0.000160386
0.00016023
0.000122477
0.000147119
0.000103463
0.000160206
0.000122537
0.000147158
0.000170834
0.000143834
0.000137392
0.000176016
0.00013732
0.000176011
0.00017089
0.000137951
0.000180921
0.000161114
0.00016114
0.00016108
0.000161056
0.000137989
0.000138075
0.000181249
0.000161212
0.000161234
0.000161272
0.000138037
0.000161297
0.000170411
0.000137229
0.000175659
0.000143609
0.000137131
0.000175519
0.000170552
0.000159986
0.000146871
0.000103397
0.000122349
0.00012242
0.000146947
0.000159851
0.000160007
0.000122487
0.000103392
0.000147071
0.000122416
0.000146997
0.000160149
0.000170337
0.000143607
0.000137039
0.00017529
0.000137136
0.00017543
0.000170213
0.000170408
0.000175655
0.00013722
0.000143606
0.000175516
0.000137122
0.000170541
0.00015997
0.000146874
0.000103385
0.000122338
0.000122408
0.000146912
0.000159842
0.000160001
0.000122474
0.000103383
0.000147036
0.000122405
0.000160132
0.000146997
0.000170327
0.000143604
0.000175288
0.00013703
0.000175427
0.000137127
0.000170208
0.00017076
0.000137224
0.000175733
0.00014382
0.000170595
0.00013732
0.000175872
0.000160301
0.000147306
0.000103473
0.000122616
0.000147247
0.000122547
0.00016047
0.000160316
0.000122482
0.000147118
0.000103477
0.000147189
0.00016016
0.000122551
0.000170772
0.000143822
0.000137408
0.000176089
0.000137314
0.000175951
0.000170951
0.000170752
0.00017573
0.000137215
0.000143817
0.000170595
0.000175869
0.000137311
0.000160303
0.000147279
0.000103463
0.000122604
0.000122536
0.000147242
0.00016046
0.000160298
0.000122471
0.00014712
0.000103465
0.000160159
0.000122539
0.000147159
0.000170769
0.000143819
0.000176086
0.0001374
0.000175948
0.000137305
0.000170949
0.000170413
0.00017566
0.000137225
0.00014361
0.000175522
0.000137128
0.000170551
0.000159985
0.000146875
0.000103393
0.000122347
0.000146951
0.000122415
0.000159852
0.000160009
0.000122481
0.00010339
0.000147075
0.000147
0.000122413
0.000160147
0.000170336
0.000143607
0.000175293
0.000137036
0.000175432
0.000137133
0.000170213
0.000170764
0.000137225
0.000175736
0.000143819
0.000170611
0.000137319
0.000175874
0.000160325
0.000147309
0.000103482
0.000122617
0.000160486
0.000147272
0.000122553
0.000160322
0.000122488
0.000147149
0.000103484
0.000160181
0.000147189
0.000122553
0.000170784
0.000143822
0.000137408
0.00017609
0.000170959
0.000137315
0.000175953
0.000170761
0.000175735
0.000137221
0.00014382
0.000170599
0.000175873
0.000137316
0.000160307
0.000147316
0.00010347
0.00012261
0.000122543
0.000147242
0.00016047
0.000160314
0.000122479
0.000147121
0.000103474
0.000160164
0.000122546
0.000147193
0.000170772
0.000143822
0.00017609
0.000137405
0.000175952
0.000137311
0.000170955
0.000137951
0.000180924
0.000161113
0.00016114
0.000161083
0.000161061
0.00013799
0.000138075
0.000181245
0.000161222
0.000161239
0.000161275
0.000138038
0.000161298
0.000170405
0.000175655
0.000137215
0.0001436
0.000175516
0.000137118
0.000170543
0.000159976
0.000146861
0.000103387
0.000122338
0.000146937
0.000122408
0.000159844
0.000160001
0.000122474
0.000103383
0.000147061
0.000146987
0.000122404
0.000160139
0.000170329
0.000143597
0.000175288
0.000137026
0.000175427
0.000137123
0.000170207
0.000170773
0.000175736
0.000137231
0.000143818
0.000170609
0.000175875
0.000137326
0.000160322
0.000147334
0.000103482
0.000122626
0.000160495
0.00014726
0.000122558
0.000160334
0.000122493
0.00014714
0.000103486
0.000160182
0.000147211
0.000122562
0.000170785
0.00014382
0.00017609
0.000137416
0.00017096
0.000175954
0.000137321
0.000170753
0.000175729
0.00013721
0.00014381
0.000170591
0.000175868
0.000137306
0.000160298
0.000147302
0.000103463
0.000122603
0.000122535
0.000147228
0.000160467
0.000160305
0.00012247
0.000147108
0.000103467
0.000160155
0.000122539
0.000147179
0.000170765
0.000143812
0.000176085
0.000137394
0.000175947
0.0001373
0.000170945
0.000138069
0.000181234
0.000161225
0.000161217
0.000138031
0.000161285
0.000161272
0.000160563
0.000147385
0.000122624
0.000103562
0.000122678
0.000160542
0.000147415
0.000171098
0.000144023
0.000137423
0.000176245
0.00013749
0.000171037
0.000176224
0.000160534
0.000147354
0.000122606
0.000103539
0.000160524
0.00012266
0.000147381
0.000171076
0.000144019
0.00013741
0.00017624
0.000171026
0.000137477
0.000176218
0.00016062
0.000147355
0.000122611
0.000103554
0.000122676
0.000160459
0.000147425
0.000171142
0.000144024
0.000137403
0.000176165
0.000137494
0.000170968
0.000176299
0.00016062
0.000147357
0.0001226
0.000103542
0.000160446
0.000122664
0.000147394
0.000171148
0.000144021
0.000176162
0.000137394
0.000170956
0.000176297
0.000137485
0.000171133
0.000144026
0.00017652
0.000137577
0.000176382
0.000137484
0.000171379
0.000160621
0.000147362
0.000122607
0.00010355
0.00014743
0.000160462
0.000122671
0.000171154
0.000144024
0.000176167
0.000137399
0.000176302
0.000170964
0.00013749
0.000160613
0.000122733
0.000103547
0.000147546
0.000147477
0.000122668
0.000160768
0.000171143
0.000144015
0.000176514
0.000137566
0.000176376
0.000137473
0.000171354
0.00016063
0.000147347
0.000122599
0.000103544
0.000147417
0.000160442
0.000122665
0.000171138
0.000144013
0.000176161
0.000137389
0.000176296
0.00017096
0.00013748
0.000160575
0.000122726
0.000103539
0.000147528
0.000147468
0.000122659
0.00016078
0.000138641
0.000136829
0.000138657
5.00162e-05
9.38096e-05
2.36115e-05
7.37193e-05
7.37321e-05
2.36128e-05
9.382e-05
5.00181e-05
2.01024e-05
5.00074e-05
7.60413e-05
7.6003e-05
2.01044e-05
2.36093e-05
9.72772e-05
0.000112662
7.36912e-05
4.79294e-05
0.000112491
4.79285e-05
9.73305e-05
9.72639e-05
0.000112679
7.37013e-05
4.79433e-05
4.79337e-05
0.000112515
9.73197e-05
7.88236e-05
2.14899e-05
2.14928e-05
2.14878e-05
2.14908e-05
7.88415e-05
2.36106e-05
2.01034e-05
5.001e-05
7.60534e-05
7.60095e-05
2.01055e-05
0.000119505
0.000136515
0.000129914
0.000129908
0.000129647
0.000129659
0.000119629
0.000128487
0.000122171
9.36885e-05
0.000107732
0.00010754
0.000122
0.000128674
0.000128505
0.000122177
9.37034e-05
0.000107747
0.000122031
0.000107545
0.000128681
0.00012307
0.000139444
0.000139451
0.000137266
0.000125869
0.000142568
0.000142575
0.000139719
0.000128826
0.000145655
0.000145663
0.000142114
0.000131922
0.0001487
0.000148707
0.00014437
0.000135134
0.000151694
0.000151702
0.000146683
0.000138444
0.000154632
0.000154641
0.000148874
0.000141832
0.00015751
0.00015752
0.000151043
0.00014528
0.000160326
0.000160337
0.000153121
0.000148771
0.000163077
0.000163089
0.000155147
0.00015229
0.000165762
0.000165774
0.000157107
0.000155822
0.000168381
0.000168393
0.000159035
0.000159355
0.00017093
0.000170942
0.000160909
0.000162874
0.000173409
0.000173421
0.000162694
0.000166369
0.000175816
0.000175828
0.000164453
0.00016983
0.00017815
0.000178161
0.00016611
0.000173247
0.00018041
0.00018042
0.000167711
0.000176612
0.000182593
0.000182604
0.000169274
0.000179917
0.000184701
0.000184711
0.000170779
0.000183155
0.000186731
0.000186741
0.000172221
0.000186319
0.000188684
0.000188693
0.000173598
0.000189402
0.000190558
0.000190567
0.000174928
0.0001924
0.000192354
0.000192364
0.000176209
0.000195308
0.000194072
0.000194081
0.000177434
0.000198121
0.000195712
0.00019572
0.00017858
0.000200836