/*--------------------------------*- C++ -*----------------------------------*\
| =========                 |                                                 |
| \\      /  F ield         | OpenFOAM: The Open Source CFD Toolbox           |
|  \\    /   O peration     | Version:                                        |
|   \\  /    A nd           | Website:  www.openfoam.com                      |
|    \\/     M anipulation  |                                                 |
\*---------------------------------------------------------------------------*/
FoamFile
{
    version     2.0;
    format      ascii;
    class       volScalarField;
    location    "19350.5";
    object      p;
}
// * * * * * * * * * * * * * * * * * * * * * * * * * * * * * * * * * * * * * //

dimensions      [0 2 -2 0 0 0 0];


internalField   nonuniform List<scalar> 
247096
(
1.16432e-07
1.16435e-07
1.16578e-07
1.16665e-07
1.16698e-07
1.16656e-07
1.16565e-07
1.16411e-07
1.16435e-07
1.16633e-07
1.1681e-07
1.16903e-07
1.16926e-07
1.16896e-07
1.16792e-07
1.16609e-07
1.16578e-07
1.1681e-07
1.16951e-07
1.16993e-07
1.16999e-07
1.1699e-07
1.1694e-07
1.16783e-07
1.16551e-07
1.16665e-07
1.16903e-07
1.16993e-07
1.17004e-07
1.17003e-07
1.17004e-07
1.16988e-07
1.16881e-07
1.16632e-07
1.16432e-07
1.16698e-07
1.16926e-07
1.16999e-07
1.17003e-07
1.17e-07
1.17004e-07
1.16996e-07
1.16907e-07
1.16663e-07
1.16656e-07
1.16896e-07
1.1699e-07
1.17004e-07
1.17004e-07
1.17004e-07
1.16985e-07
1.16873e-07
1.16623e-07
1.16565e-07
1.16792e-07
1.1694e-07
1.16988e-07
1.16996e-07
1.16985e-07
1.16929e-07
1.16764e-07
1.16539e-07
1.16411e-07
1.16609e-07
1.16783e-07
1.16881e-07
1.16907e-07
1.16873e-07
1.16764e-07
1.16587e-07
1.16551e-07
1.16632e-07
1.16663e-07
1.16623e-07
1.16539e-07
1.13619e-07
1.13594e-07
1.13603e-07
1.13455e-07
1.13468e-07
1.13487e-07
1.13467e-07
1.13652e-07
1.13589e-07
1.13603e-07
1.13476e-07
1.13272e-07
1.13289e-07
1.13289e-07
1.13272e-07
1.13532e-07
1.13478e-07
1.13455e-07
1.13272e-07
1.1331e-07
1.13331e-07
1.13331e-07
1.1331e-07
1.13272e-07
1.13595e-07
1.1364e-07
1.13619e-07
1.13468e-07
1.13289e-07
1.13331e-07
1.13354e-07
1.13354e-07
1.13331e-07
1.13289e-07
1.13623e-07
1.13658e-07
1.13594e-07
1.13487e-07
1.13289e-07
1.13331e-07
1.13354e-07
1.13354e-07
1.13331e-07
1.13289e-07
1.13626e-07
1.13483e-07
1.13467e-07
1.13272e-07
1.1331e-07
1.13331e-07
1.13331e-07
1.1331e-07
1.13272e-07
1.13619e-07
1.13667e-07
1.13652e-07
1.13532e-07
1.13272e-07
1.13289e-07
1.13289e-07
1.13272e-07
1.13614e-07
1.13537e-07
1.1365e-07
1.13589e-07
1.13478e-07
1.13595e-07
1.13623e-07
1.13626e-07
1.13619e-07
1.13537e-07
1.1366e-07
1.1364e-07
1.13658e-07
1.13483e-07
1.13667e-07
1.1365e-07
1.11836e-07
1.11827e-07
1.11835e-07
1.11706e-07
1.11705e-07
1.11716e-07
1.11708e-07
1.1187e-07
1.11826e-07
1.11835e-07
1.117e-07
1.11464e-07
1.11472e-07
1.11472e-07
1.11464e-07
1.11723e-07
1.11718e-07
1.11706e-07
1.11464e-07
1.11484e-07
1.11496e-07
1.11496e-07
1.11484e-07
1.11464e-07
1.11767e-07
1.11859e-07
1.11836e-07
1.11705e-07
1.11472e-07
1.11496e-07
1.1151e-07
1.1151e-07
1.11496e-07
1.11472e-07
1.11771e-07
1.11857e-07
1.11827e-07
1.11716e-07
1.11472e-07
1.11496e-07
1.1151e-07
1.1151e-07
1.11496e-07
1.11472e-07
1.1177e-07
1.11725e-07
1.11708e-07
1.11464e-07
1.11484e-07
1.11496e-07
1.11496e-07
1.11484e-07
1.11464e-07
1.11774e-07
1.11865e-07
1.11869e-07
1.11723e-07
1.11464e-07
1.11472e-07
1.11472e-07
1.11464e-07
1.11755e-07
1.11746e-07
1.1187e-07
1.11826e-07
1.11718e-07
1.11767e-07
1.11771e-07
1.11769e-07
1.11774e-07
1.11747e-07
1.11872e-07
1.11859e-07
1.11857e-07
1.11725e-07
1.11865e-07
1.1187e-07
1.10237e-07
1.10228e-07
1.10237e-07
1.10114e-07
1.10112e-07
1.1012e-07
1.10114e-07
1.10267e-07
1.1023e-07
1.10237e-07
1.10108e-07
1.09901e-07
1.09906e-07
1.09906e-07
1.09901e-07
1.10131e-07
1.10127e-07
1.10114e-07
1.09901e-07
1.09912e-07
1.09919e-07
1.09919e-07
1.09912e-07
1.09901e-07
1.10172e-07
1.1026e-07
1.10237e-07
1.10112e-07
1.09906e-07
1.09919e-07
1.09927e-07
1.09927e-07
1.09919e-07
1.09906e-07
1.10175e-07
1.10258e-07
1.10228e-07
1.1012e-07
1.09906e-07
1.09919e-07
1.09927e-07
1.09927e-07
1.09919e-07
1.09906e-07
1.10174e-07
1.10132e-07
1.10114e-07
1.09901e-07
1.09912e-07
1.09919e-07
1.09919e-07
1.09912e-07
1.09901e-07
1.10177e-07
1.10265e-07
1.10267e-07
1.10131e-07
1.09901e-07
1.09906e-07
1.09906e-07
1.09901e-07
1.10158e-07
1.10152e-07
1.10268e-07
1.1023e-07
1.10127e-07
1.10172e-07
1.10175e-07
1.10174e-07
1.10177e-07
1.10152e-07
1.10272e-07
1.1026e-07
1.10258e-07
1.10132e-07
1.10265e-07
1.10268e-07
1.08811e-07
1.08802e-07
1.0881e-07
1.08693e-07
1.0869e-07
1.08696e-07
1.08692e-07
1.08837e-07
1.08806e-07
1.0881e-07
1.08688e-07
1.08503e-07
1.08506e-07
1.08506e-07
1.08503e-07
1.0871e-07
1.08708e-07
1.08693e-07
1.08503e-07
1.0851e-07
1.08513e-07
1.08513e-07
1.0851e-07
1.08503e-07
1.08749e-07
1.08834e-07
1.08811e-07
1.0869e-07
1.08506e-07
1.08513e-07
1.08517e-07
1.08517e-07
1.08513e-07
1.08506e-07
1.0875e-07
1.08832e-07
1.08802e-07
1.08696e-07
1.08506e-07
1.08513e-07
1.08517e-07
1.08517e-07
1.08513e-07
1.08506e-07
1.08748e-07
1.08712e-07
1.08692e-07
1.08503e-07
1.0851e-07
1.08513e-07
1.08513e-07
1.0851e-07
1.08503e-07
1.08751e-07
1.08837e-07
1.08836e-07
1.0871e-07
1.08503e-07
1.08506e-07
1.08506e-07
1.08503e-07
1.08735e-07
1.0873e-07
1.08839e-07
1.08806e-07
1.08708e-07
1.08749e-07
1.0875e-07
1.08748e-07
1.08751e-07
1.0873e-07
1.08844e-07
1.08834e-07
1.08832e-07
1.08712e-07
1.08837e-07
1.08839e-07
1.0751e-07
1.07501e-07
1.07509e-07
1.07397e-07
1.07393e-07
1.07398e-07
1.07395e-07
1.07533e-07
1.07506e-07
1.07509e-07
1.0739e-07
1.07221e-07
1.07222e-07
1.07222e-07
1.07221e-07
1.07414e-07
1.07412e-07
1.07397e-07
1.07221e-07
1.07226e-07
1.07226e-07
1.07226e-07
1.07226e-07
1.07221e-07
1.07452e-07
1.07533e-07
1.0751e-07
1.07393e-07
1.07222e-07
1.07226e-07
1.07228e-07
1.07228e-07
1.07226e-07
1.07222e-07
1.07452e-07
1.0753e-07
1.07501e-07
1.07398e-07
1.07222e-07
1.07226e-07
1.07228e-07
1.07228e-07
1.07226e-07
1.07222e-07
1.07451e-07
1.07416e-07
1.07395e-07
1.07221e-07
1.07226e-07
1.07226e-07
1.07226e-07
1.07226e-07
1.07221e-07
1.07453e-07
1.07535e-07
1.07533e-07
1.07414e-07
1.07221e-07
1.07222e-07
1.07222e-07
1.07221e-07
1.07438e-07
1.07432e-07
1.07536e-07
1.07506e-07
1.07412e-07
1.07452e-07
1.07452e-07
1.07451e-07
1.07453e-07
1.07432e-07
1.07543e-07
1.07533e-07
1.0753e-07
1.07416e-07
1.07535e-07
1.07536e-07
1.06276e-07
1.06267e-07
1.06274e-07
1.06164e-07
1.0616e-07
1.06164e-07
1.06162e-07
1.06298e-07
1.06272e-07
1.06274e-07
1.06158e-07
1.05995e-07
1.05996e-07
1.05996e-07
1.05995e-07
1.06182e-07
1.0618e-07
1.06164e-07
1.05995e-07
1.05999e-07
1.05999e-07
1.05999e-07
1.05999e-07
1.05995e-07
1.06221e-07
1.06298e-07
1.06276e-07
1.0616e-07
1.05996e-07
1.05999e-07
1.05999e-07
1.05999e-07
1.05999e-07
1.05996e-07
1.0622e-07
1.06296e-07
1.06266e-07
1.06164e-07
1.05996e-07
1.05999e-07
1.05999e-07
1.05999e-07
1.05999e-07
1.05996e-07
1.06218e-07
1.06183e-07
1.06162e-07
1.05995e-07
1.05999e-07
1.05999e-07
1.05999e-07
1.05999e-07
1.05995e-07
1.0622e-07
1.063e-07
1.06298e-07
1.06182e-07
1.05995e-07
1.05996e-07
1.05996e-07
1.05995e-07
1.06206e-07
1.062e-07
1.06301e-07
1.06272e-07
1.0618e-07
1.06221e-07
1.0622e-07
1.06218e-07
1.0622e-07
1.062e-07
1.06309e-07
1.06298e-07
1.06296e-07
1.06183e-07
1.063e-07
1.06301e-07
1.05066e-07
1.05057e-07
1.05065e-07
1.04955e-07
1.04951e-07
1.04955e-07
1.04953e-07
1.05088e-07
1.05062e-07
1.05065e-07
1.04949e-07
1.04789e-07
1.04789e-07
1.04789e-07
1.04789e-07
1.04973e-07
1.04971e-07
1.04955e-07
1.04789e-07
1.04792e-07
1.04791e-07
1.04791e-07
1.04792e-07
1.04789e-07
1.05012e-07
1.05089e-07
1.05066e-07
1.04951e-07
1.04789e-07
1.04791e-07
1.04791e-07
1.04791e-07
1.04791e-07
1.04789e-07
1.05012e-07
1.05086e-07
1.05057e-07
1.04955e-07
1.04789e-07
1.04791e-07
1.04791e-07
1.04791e-07
1.04791e-07
1.04789e-07
1.0501e-07
1.04974e-07
1.04953e-07
1.04789e-07
1.04792e-07
1.04791e-07
1.04791e-07
1.04792e-07
1.04789e-07
1.05012e-07
1.05091e-07
1.05088e-07
1.04973e-07
1.04789e-07
1.04789e-07
1.04789e-07
1.04789e-07
1.04998e-07
1.04991e-07
1.05091e-07
1.05062e-07
1.04971e-07
1.05012e-07
1.05012e-07
1.0501e-07
1.05012e-07
1.04991e-07
1.05099e-07
1.05089e-07
1.05086e-07
1.04974e-07
1.05091e-07
1.05091e-07
1.03863e-07
1.03853e-07
1.03861e-07
1.03752e-07
1.03748e-07
1.03752e-07
1.03749e-07
1.03884e-07
1.03859e-07
1.03861e-07
1.03746e-07
1.03586e-07
1.03586e-07
1.03586e-07
1.03586e-07
1.03769e-07
1.03767e-07
1.03752e-07
1.03586e-07
1.03589e-07
1.03588e-07
1.03588e-07
1.03589e-07
1.03586e-07
1.03809e-07
1.03885e-07
1.03863e-07
1.03748e-07
1.03586e-07
1.03588e-07
1.03587e-07
1.03587e-07
1.03588e-07
1.03586e-07
1.03809e-07
1.03883e-07
1.03853e-07
1.03752e-07
1.03586e-07
1.03588e-07
1.03587e-07
1.03587e-07
1.03588e-07
1.03586e-07
1.03807e-07
1.03771e-07
1.03749e-07
1.03586e-07
1.03589e-07
1.03588e-07
1.03588e-07
1.03589e-07
1.03586e-07
1.03808e-07
1.03887e-07
1.03884e-07
1.03769e-07
1.03586e-07
1.03586e-07
1.03586e-07
1.03586e-07
1.03794e-07
1.03788e-07
1.03888e-07
1.03859e-07
1.03767e-07
1.03809e-07
1.03809e-07
1.03807e-07
1.03808e-07
1.03788e-07
1.03896e-07
1.03885e-07
1.03883e-07
1.03771e-07
1.03887e-07
1.03888e-07
1.0266e-07
1.02651e-07
1.02659e-07
1.02549e-07
1.02545e-07
1.02549e-07
1.02546e-07
1.02681e-07
1.02656e-07
1.02659e-07
1.02543e-07
1.02383e-07
1.02383e-07
1.02383e-07
1.02383e-07
1.02567e-07
1.02565e-07
1.02549e-07
1.02383e-07
1.02386e-07
1.02385e-07
1.02385e-07
1.02386e-07
1.02383e-07
1.02606e-07
1.02683e-07
1.0266e-07
1.02545e-07
1.02383e-07
1.02385e-07
1.02384e-07
1.02384e-07
1.02385e-07
1.02383e-07
1.02606e-07
1.0268e-07
1.02651e-07
1.02549e-07
1.02383e-07
1.02385e-07
1.02384e-07
1.02384e-07
1.02385e-07
1.02383e-07
1.02604e-07
1.02568e-07
1.02546e-07
1.02383e-07
1.02386e-07
1.02385e-07
1.02385e-07
1.02386e-07
1.02383e-07
1.02606e-07
1.02684e-07
1.02681e-07
1.02567e-07
1.02383e-07
1.02383e-07
1.02383e-07
1.02383e-07
1.02591e-07
1.02585e-07
1.02685e-07
1.02656e-07
1.02565e-07
1.02606e-07
1.02606e-07
1.02604e-07
1.02606e-07
1.02585e-07
1.02693e-07
1.02683e-07
1.0268e-07
1.02568e-07
1.02684e-07
1.02685e-07
1.01457e-07
1.01448e-07
1.01456e-07
1.01346e-07
1.01342e-07
1.01346e-07
1.01343e-07
1.01478e-07
1.01453e-07
1.01456e-07
1.0134e-07
1.0118e-07
1.0118e-07
1.0118e-07
1.0118e-07
1.01364e-07
1.01362e-07
1.01346e-07
1.0118e-07
1.01183e-07
1.01182e-07
1.01182e-07
1.01183e-07
1.0118e-07
1.01403e-07
1.0148e-07
1.01457e-07
1.01342e-07
1.0118e-07
1.01182e-07
1.01181e-07
1.01181e-07
1.01182e-07
1.0118e-07
1.01403e-07
1.01477e-07
1.01448e-07
1.01346e-07
1.0118e-07
1.01182e-07
1.01181e-07
1.01181e-07
1.01182e-07
1.0118e-07
1.01401e-07
1.01365e-07
1.01343e-07
1.0118e-07
1.01183e-07
1.01182e-07
1.01182e-07
1.01183e-07
1.0118e-07
1.01403e-07
1.01481e-07
1.01478e-07
1.01364e-07
1.0118e-07
1.0118e-07
1.0118e-07
1.0118e-07
1.01388e-07
1.01382e-07
1.01482e-07
1.01453e-07
1.01362e-07
1.01403e-07
1.01403e-07
1.01401e-07
1.01403e-07
1.01382e-07
1.0149e-07
1.0148e-07
1.01477e-07
1.01365e-07
1.01481e-07
1.01482e-07
1.00254e-07
1.00245e-07
1.00253e-07
1.00143e-07
1.00139e-07
1.00143e-07
1.0014e-07
1.00275e-07
1.0025e-07
1.00253e-07
1.00137e-07
9.99766e-08
9.99771e-08
9.99771e-08
9.99766e-08
1.00161e-07
1.00159e-07
1.00143e-07
9.99766e-08
9.99799e-08
9.99786e-08
9.99786e-08
9.99799e-08
9.99766e-08
1.002e-07
1.00276e-07
1.00254e-07
1.00139e-07
9.99771e-08
9.99786e-08
9.99779e-08
9.99779e-08
9.99786e-08
9.99771e-08
1.002e-07
1.00274e-07
1.00245e-07
1.00143e-07
9.99771e-08
9.99786e-08
9.99779e-08
9.99779e-08
9.99786e-08
9.99771e-08
1.00198e-07
1.00162e-07
1.0014e-07
9.99766e-08
9.99799e-08
9.99786e-08
9.99786e-08
9.99799e-08
9.99766e-08
1.00199e-07
1.00278e-07
1.00275e-07
1.00161e-07
9.99766e-08
9.99771e-08
9.99771e-08
9.99766e-08
1.00185e-07
1.00179e-07
1.00279e-07
1.0025e-07
1.00159e-07
1.002e-07
1.002e-07
1.00198e-07
1.00199e-07
1.00179e-07
1.00287e-07
1.00276e-07
1.00274e-07
1.00162e-07
1.00278e-07
1.00279e-07
9.90507e-08
9.90414e-08
9.90494e-08
9.89399e-08
9.89356e-08
9.89397e-08
9.89372e-08
9.90722e-08
9.90466e-08
9.90494e-08
9.89336e-08
9.87735e-08
9.8774e-08
9.8774e-08
9.87735e-08
9.89574e-08
9.89555e-08
9.89399e-08
9.87735e-08
9.87768e-08
9.87755e-08
9.87755e-08
9.87768e-08
9.87735e-08
9.89972e-08
9.90733e-08
9.90507e-08
9.89356e-08
9.8774e-08
9.87755e-08
9.87747e-08
9.87747e-08
9.87755e-08
9.8774e-08
9.89969e-08
9.90709e-08
9.90414e-08
9.89397e-08
9.8774e-08
9.87755e-08
9.87747e-08
9.87747e-08
9.87755e-08
9.8774e-08
9.89946e-08
9.89592e-08
9.89372e-08
9.87735e-08
9.87768e-08
9.87755e-08
9.87755e-08
9.87768e-08
9.87735e-08
9.89964e-08
9.90751e-08
9.90722e-08
9.89574e-08
9.87735e-08
9.8774e-08
9.8774e-08
9.87735e-08
9.89822e-08
9.89756e-08
9.90756e-08
9.90466e-08
9.89555e-08
9.89972e-08
9.89969e-08
9.89946e-08
9.89964e-08
9.89756e-08
9.90835e-08
9.90734e-08
9.90709e-08
9.89592e-08
9.90752e-08
9.90756e-08
9.78476e-08
9.78382e-08
9.78462e-08
9.77368e-08
9.77324e-08
9.77366e-08
9.7734e-08
9.78691e-08
9.78435e-08
9.78462e-08
9.77305e-08
9.75704e-08
9.75708e-08
9.75708e-08
9.75704e-08
9.77543e-08
9.77523e-08
9.77368e-08
9.75704e-08
9.75736e-08
9.75723e-08
9.75723e-08
9.75736e-08
9.75704e-08
9.77941e-08
9.78702e-08
9.78476e-08
9.77324e-08
9.75708e-08
9.75723e-08
9.75716e-08
9.75716e-08
9.75723e-08
9.75708e-08
9.77937e-08
9.78678e-08
9.78382e-08
9.77366e-08
9.75708e-08
9.75723e-08
9.75716e-08
9.75716e-08
9.75723e-08
9.75708e-08
9.77915e-08
9.7756e-08
9.7734e-08
9.75704e-08
9.75736e-08
9.75723e-08
9.75723e-08
9.75736e-08
9.75704e-08
9.77932e-08
9.7872e-08
9.78691e-08
9.77543e-08
9.75704e-08
9.75708e-08
9.75708e-08
9.75704e-08
9.7779e-08
9.77725e-08
9.78725e-08
9.78435e-08
9.77523e-08
9.77941e-08
9.77937e-08
9.77915e-08
9.77932e-08
9.77725e-08
9.78804e-08
9.78702e-08
9.78678e-08
9.7756e-08
9.7872e-08
9.78725e-08
9.66444e-08
9.66351e-08
9.66431e-08
9.65337e-08
9.65293e-08
9.65334e-08
9.65309e-08
9.66659e-08
9.66404e-08
9.66431e-08
9.65273e-08
9.63672e-08
9.63677e-08
9.63677e-08
9.63672e-08
9.65511e-08
9.65492e-08
9.65337e-08
9.63672e-08
9.63705e-08
9.63692e-08
9.63692e-08
9.63705e-08
9.63672e-08
9.65909e-08
9.66671e-08
9.66444e-08
9.65293e-08
9.63677e-08
9.63692e-08
9.63684e-08
9.63684e-08
9.63692e-08
9.63677e-08
9.65906e-08
9.66647e-08
9.66351e-08
9.65334e-08
9.63677e-08
9.63692e-08
9.63684e-08
9.63684e-08
9.63692e-08
9.63677e-08
9.65883e-08
9.65529e-08
9.65309e-08
9.63672e-08
9.63705e-08
9.63692e-08
9.63692e-08
9.63705e-08
9.63672e-08
9.65901e-08
9.66689e-08
9.66659e-08
9.65511e-08
9.63672e-08
9.63677e-08
9.63677e-08
9.63672e-08
9.65759e-08
9.65693e-08
9.66694e-08
9.66404e-08
9.65492e-08
9.65909e-08
9.65906e-08
9.65884e-08
9.65901e-08
9.65693e-08
9.66772e-08
9.66671e-08
9.66647e-08
9.65529e-08
9.66689e-08
9.66694e-08
9.54413e-08
9.5432e-08
9.544e-08
9.53305e-08
9.53261e-08
9.53303e-08
9.53278e-08
9.54628e-08
9.54372e-08
9.544e-08
9.53242e-08
9.51641e-08
9.51646e-08
9.51646e-08
9.51641e-08
9.5348e-08
9.53461e-08
9.53305e-08
9.51641e-08
9.51674e-08
9.51661e-08
9.51661e-08
9.51674e-08
9.51641e-08
9.53878e-08
9.54639e-08
9.54413e-08
9.53261e-08
9.51646e-08
9.51661e-08
9.51653e-08
9.51653e-08
9.51661e-08
9.51646e-08
9.53875e-08
9.54615e-08
9.5432e-08
9.53303e-08
9.51646e-08
9.51661e-08
9.51653e-08
9.51653e-08
9.51661e-08
9.51646e-08
9.53852e-08
9.53498e-08
9.53278e-08
9.51641e-08
9.51674e-08
9.51661e-08
9.51661e-08
9.51674e-08
9.51641e-08
9.5387e-08
9.54657e-08
9.54628e-08
9.5348e-08
9.51641e-08
9.51646e-08
9.51646e-08
9.51641e-08
9.53728e-08
9.53662e-08
9.54662e-08
9.54372e-08
9.53461e-08
9.53878e-08
9.53875e-08
9.53852e-08
9.53869e-08
9.53662e-08
9.54741e-08
9.54639e-08
9.54615e-08
9.53498e-08
9.54657e-08
9.54662e-08
9.42382e-08
9.42289e-08
9.42368e-08
9.41274e-08
9.4123e-08
9.41272e-08
9.41246e-08
9.42597e-08
9.42341e-08
9.42368e-08
9.41211e-08
9.3961e-08
9.39615e-08
9.39614e-08
9.3961e-08
9.41449e-08
9.4143e-08
9.41274e-08
9.3961e-08
9.39642e-08
9.39629e-08
9.39629e-08
9.39642e-08
9.3961e-08
9.41847e-08
9.42608e-08
9.42382e-08
9.4123e-08
9.39614e-08
9.39629e-08
9.39622e-08
9.39622e-08
9.39629e-08
9.39615e-08
9.41843e-08
9.42584e-08
9.42288e-08
9.41272e-08
9.39614e-08
9.39629e-08
9.39622e-08
9.39622e-08
9.39629e-08
9.39614e-08
9.41821e-08
9.41467e-08
9.41246e-08
9.3961e-08
9.39642e-08
9.39629e-08
9.39629e-08
9.39642e-08
9.3961e-08
9.41838e-08
9.42626e-08
9.42597e-08
9.41449e-08
9.3961e-08
9.39615e-08
9.39614e-08
9.3961e-08
9.41697e-08
9.41631e-08
9.42631e-08
9.42341e-08
9.4143e-08
9.41847e-08
9.41844e-08
9.41821e-08
9.41838e-08
9.41631e-08
9.4271e-08
9.42608e-08
9.42584e-08
9.41466e-08
9.42626e-08
9.42631e-08
9.30351e-08
9.30257e-08
9.30337e-08
9.29243e-08
9.29199e-08
9.29241e-08
9.29215e-08
9.30566e-08
9.3031e-08
9.30337e-08
9.2918e-08
9.27578e-08
9.27583e-08
9.27583e-08
9.27578e-08
9.29418e-08
9.29398e-08
9.29243e-08
9.27578e-08
9.27611e-08
9.27598e-08
9.27598e-08
9.27611e-08
9.27578e-08
9.29816e-08
9.30577e-08
9.30351e-08
9.29199e-08
9.27583e-08
9.27598e-08
9.27591e-08
9.27591e-08
9.27598e-08
9.27583e-08
9.29812e-08
9.30553e-08
9.30257e-08
9.29241e-08
9.27583e-08
9.27598e-08
9.27591e-08
9.27591e-08
9.27598e-08
9.27583e-08
9.2979e-08
9.29435e-08
9.29215e-08
9.27578e-08
9.27611e-08
9.27598e-08
9.27598e-08
9.27611e-08
9.27578e-08
9.29807e-08
9.30595e-08
9.30566e-08
9.29418e-08
9.27578e-08
9.27583e-08
9.27583e-08
9.27578e-08
9.29665e-08
9.29599e-08
9.306e-08
9.3031e-08
9.29398e-08
9.29816e-08
9.29812e-08
9.2979e-08
9.29807e-08
9.296e-08
9.30679e-08
9.30577e-08
9.30553e-08
9.29435e-08
9.30595e-08
9.306e-08
9.18319e-08
9.18226e-08
9.18306e-08
9.17211e-08
9.17168e-08
9.17209e-08
9.17184e-08
9.18534e-08
9.18278e-08
9.18306e-08
9.17148e-08
9.15547e-08
9.15552e-08
9.15552e-08
9.15547e-08
9.17386e-08
9.17367e-08
9.17211e-08
9.15547e-08
9.1558e-08
9.15567e-08
9.15567e-08
9.1558e-08
9.15547e-08
9.17784e-08
9.18546e-08
9.18319e-08
9.17168e-08
9.15552e-08
9.15567e-08
9.15559e-08
9.15559e-08
9.15567e-08
9.15552e-08
9.17781e-08
9.18522e-08
9.18226e-08
9.17209e-08
9.15552e-08
9.15567e-08
9.15559e-08
9.15559e-08
9.15567e-08
9.15552e-08
9.17758e-08
9.17404e-08
9.17184e-08
9.15547e-08
9.1558e-08
9.15567e-08
9.15567e-08
9.1558e-08
9.15547e-08
9.17776e-08
9.18564e-08
9.18534e-08
9.17386e-08
9.15547e-08
9.15552e-08
9.15552e-08
9.15547e-08
9.17634e-08
9.17568e-08
9.18568e-08
9.18278e-08
9.17367e-08
9.17784e-08
9.17781e-08
9.17758e-08
9.17776e-08
9.17568e-08
9.18647e-08
9.18546e-08
9.18522e-08
9.17404e-08
9.18564e-08
9.18569e-08
9.06288e-08
9.06195e-08
9.06274e-08
9.0518e-08
9.05136e-08
9.05178e-08
9.05152e-08
9.06503e-08
9.06247e-08
9.06274e-08
9.05117e-08
9.03516e-08
9.0352e-08
9.0352e-08
9.03516e-08
9.05355e-08
9.05335e-08
9.0518e-08
9.03516e-08
9.03548e-08
9.03535e-08
9.03535e-08
9.03548e-08
9.03516e-08
9.05753e-08
9.06514e-08
9.06288e-08
9.05136e-08
9.0352e-08
9.03535e-08
9.03528e-08
9.03528e-08
9.03535e-08
9.0352e-08
9.05749e-08
9.0649e-08
9.06194e-08
9.05178e-08
9.0352e-08
9.03535e-08
9.03528e-08
9.03528e-08
9.03535e-08
9.0352e-08
9.05727e-08
9.05372e-08
9.05152e-08
9.03516e-08
9.03548e-08
9.03535e-08
9.03535e-08
9.03548e-08
9.03516e-08
9.05744e-08
9.06532e-08
9.06503e-08
9.05355e-08
9.03516e-08
9.0352e-08
9.0352e-08
9.03516e-08
9.05603e-08
9.05537e-08
9.06537e-08
9.06247e-08
9.05336e-08
9.05753e-08
9.05749e-08
9.05727e-08
9.05744e-08
9.05537e-08
9.06616e-08
9.06514e-08
9.0649e-08
9.05372e-08
9.06532e-08
9.06537e-08
8.94256e-08
8.94163e-08
8.94243e-08
8.93149e-08
8.93105e-08
8.93146e-08
8.93121e-08
8.94471e-08
8.94216e-08
8.94243e-08
8.93085e-08
8.91484e-08
8.91489e-08
8.91489e-08
8.91484e-08
8.93323e-08
8.93304e-08
8.93149e-08
8.91484e-08
8.91517e-08
8.91504e-08
8.91504e-08
8.91517e-08
8.91484e-08
8.93721e-08
8.94483e-08
8.94256e-08
8.93105e-08
8.91489e-08
8.91504e-08
8.91497e-08
8.91497e-08
8.91504e-08
8.91489e-08
8.93718e-08
8.94459e-08
8.94163e-08
8.93146e-08
8.91489e-08
8.91504e-08
8.91497e-08
8.91497e-08
8.91504e-08
8.91489e-08
8.93696e-08
8.93341e-08
8.93121e-08
8.91484e-08
8.91517e-08
8.91504e-08
8.91504e-08
8.91517e-08
8.91484e-08
8.93713e-08
8.94501e-08
8.94471e-08
8.93323e-08
8.91484e-08
8.91489e-08
8.91489e-08
8.91484e-08
8.93571e-08
8.93505e-08
8.94506e-08
8.94216e-08
8.93304e-08
8.93721e-08
8.93718e-08
8.93696e-08
8.93713e-08
8.93505e-08
8.94585e-08
8.94483e-08
8.94459e-08
8.93341e-08
8.94501e-08
8.94506e-08
8.82225e-08
8.82132e-08
8.82212e-08
8.81117e-08
8.81074e-08
8.81115e-08
8.8109e-08
8.8244e-08
8.82184e-08
8.82212e-08
8.81054e-08
8.79453e-08
8.79458e-08
8.79458e-08
8.79453e-08
8.81292e-08
8.81273e-08
8.81117e-08
8.79453e-08
8.79486e-08
8.79473e-08
8.79473e-08
8.79486e-08
8.79453e-08
8.8169e-08
8.82451e-08
8.82225e-08
8.81074e-08
8.79458e-08
8.79473e-08
8.79465e-08
8.79465e-08
8.79473e-08
8.79458e-08
8.81687e-08
8.82427e-08
8.82132e-08
8.81115e-08
8.79458e-08
8.79473e-08
8.79465e-08
8.79465e-08
8.79473e-08
8.79458e-08
8.81664e-08
8.8131e-08
8.8109e-08
8.79453e-08
8.79486e-08
8.79473e-08
8.79473e-08
8.79486e-08
8.79453e-08
8.81682e-08
8.82469e-08
8.8244e-08
8.81292e-08
8.79453e-08
8.79458e-08
8.79458e-08
8.79453e-08
8.8154e-08
8.81474e-08
8.82474e-08
8.82184e-08
8.81273e-08
8.8169e-08
8.81687e-08
8.81664e-08
8.81682e-08
8.81474e-08
8.82553e-08
8.82452e-08
8.82427e-08
8.8131e-08
8.8247e-08
8.82474e-08
8.70194e-08
8.70101e-08
8.70181e-08
8.69086e-08
8.69043e-08
8.69084e-08
8.69059e-08
8.70409e-08
8.70153e-08
8.70181e-08
8.69023e-08
8.67422e-08
8.67427e-08
8.67427e-08
8.67422e-08
8.69261e-08
8.69242e-08
8.69086e-08
8.67422e-08
8.67455e-08
8.67442e-08
8.67442e-08
8.67455e-08
8.67422e-08
8.69659e-08
8.7042e-08
8.70194e-08
8.69043e-08
8.67427e-08
8.67442e-08
8.67434e-08
8.67434e-08
8.67442e-08
8.67427e-08
8.69656e-08
8.70396e-08
8.70101e-08
8.69084e-08
8.67427e-08
8.67442e-08
8.67434e-08
8.67434e-08
8.67442e-08
8.67427e-08
8.69633e-08
8.69279e-08
8.69059e-08
8.67422e-08
8.67455e-08
8.67442e-08
8.67442e-08
8.67455e-08
8.67422e-08
8.69651e-08
8.70438e-08
8.70409e-08
8.69261e-08
8.67422e-08
8.67427e-08
8.67427e-08
8.67422e-08
8.69509e-08
8.69443e-08
8.70443e-08
8.70153e-08
8.69242e-08
8.69659e-08
8.69656e-08
8.69633e-08
8.69651e-08
8.69443e-08
8.70522e-08
8.7042e-08
8.70396e-08
8.69279e-08
8.70438e-08
8.70443e-08
8.58163e-08
8.5807e-08
8.58149e-08
8.57055e-08
8.57011e-08
8.57053e-08
8.57027e-08
8.58378e-08
8.58122e-08
8.58149e-08
8.56992e-08
8.55391e-08
8.55395e-08
8.55395e-08
8.55391e-08
8.5723e-08
8.57211e-08
8.57055e-08
8.55391e-08
8.55423e-08
8.5541e-08
8.5541e-08
8.55423e-08
8.55391e-08
8.57628e-08
8.58389e-08
8.58163e-08
8.57011e-08
8.55395e-08
8.5541e-08
8.55403e-08
8.55403e-08
8.5541e-08
8.55395e-08
8.57624e-08
8.58365e-08
8.58069e-08
8.57053e-08
8.55395e-08
8.5541e-08
8.55403e-08
8.55403e-08
8.5541e-08
8.55395e-08
8.57602e-08
8.57247e-08
8.57027e-08
8.55391e-08
8.55423e-08
8.5541e-08
8.5541e-08
8.55423e-08
8.55391e-08
8.57619e-08
8.58407e-08
8.58378e-08
8.5723e-08
8.55391e-08
8.55395e-08
8.55395e-08
8.55391e-08
8.57478e-08
8.57412e-08
8.58412e-08
8.58122e-08
8.57211e-08
8.57628e-08
8.57625e-08
8.57602e-08
8.57619e-08
8.57412e-08
8.58491e-08
8.58389e-08
8.58365e-08
8.57247e-08
8.58407e-08
8.58412e-08
8.46131e-08
8.46038e-08
8.46118e-08
8.45024e-08
8.4498e-08
8.45021e-08
8.44996e-08
8.46346e-08
8.46091e-08
8.46118e-08
8.4496e-08
8.43359e-08
8.43364e-08
8.43364e-08
8.43359e-08
8.45198e-08
8.45179e-08
8.45024e-08
8.43359e-08
8.43392e-08
8.43379e-08
8.43379e-08
8.43392e-08
8.43359e-08
8.45596e-08
8.46358e-08
8.46131e-08
8.4498e-08
8.43364e-08
8.43379e-08
8.43371e-08
8.43371e-08
8.43379e-08
8.43364e-08
8.45593e-08
8.46334e-08
8.46038e-08
8.45021e-08
8.43364e-08
8.43379e-08
8.43371e-08
8.43371e-08
8.43379e-08
8.43364e-08
8.4557e-08
8.45216e-08
8.44996e-08
8.43359e-08
8.43392e-08
8.43379e-08
8.43379e-08
8.43392e-08
8.43359e-08
8.45588e-08
8.46376e-08
8.46346e-08
8.45198e-08
8.43359e-08
8.43364e-08
8.43364e-08
8.43359e-08
8.45446e-08
8.4538e-08
8.46381e-08
8.46091e-08
8.45179e-08
8.45596e-08
8.45593e-08
8.45571e-08
8.45588e-08
8.4538e-08
8.46459e-08
8.46358e-08
8.46334e-08
8.45216e-08
8.46376e-08
8.46381e-08
8.341e-08
8.34007e-08
8.34087e-08
8.32992e-08
8.32948e-08
8.3299e-08
8.32964e-08
8.34315e-08
8.34059e-08
8.34087e-08
8.32929e-08
8.31328e-08
8.31333e-08
8.31333e-08
8.31328e-08
8.33167e-08
8.33148e-08
8.32992e-08
8.31328e-08
8.31361e-08
8.31347e-08
8.31347e-08
8.31361e-08
8.31328e-08
8.33565e-08
8.34326e-08
8.341e-08
8.32948e-08
8.31333e-08
8.31347e-08
8.3134e-08
8.3134e-08
8.31347e-08
8.31333e-08
8.33562e-08
8.34302e-08
8.34007e-08
8.3299e-08
8.31333e-08
8.31347e-08
8.3134e-08
8.3134e-08
8.31347e-08
8.31333e-08
8.33539e-08
8.33185e-08
8.32964e-08
8.31328e-08
8.31361e-08
8.31347e-08
8.31347e-08
8.31361e-08
8.31328e-08
8.33556e-08
8.34344e-08
8.34315e-08
8.33167e-08
8.31328e-08
8.31333e-08
8.31333e-08
8.31328e-08
8.33415e-08
8.33349e-08
8.34349e-08
8.34059e-08
8.33148e-08
8.33565e-08
8.33562e-08
8.33539e-08
8.33556e-08
8.33349e-08
8.34428e-08
8.34326e-08
8.34302e-08
8.33185e-08
8.34344e-08
8.34349e-08
8.22069e-08
8.21975e-08
8.22055e-08
8.20961e-08
8.20917e-08
8.20959e-08
8.20933e-08
8.22284e-08
8.22028e-08
8.22055e-08
8.20898e-08
8.19297e-08
8.19301e-08
8.19301e-08
8.19297e-08
8.21136e-08
8.21116e-08
8.20961e-08
8.19297e-08
8.19329e-08
8.19316e-08
8.19316e-08
8.19329e-08
8.19297e-08
8.21534e-08
8.22295e-08
8.22069e-08
8.20917e-08
8.19301e-08
8.19316e-08
8.19309e-08
8.19309e-08
8.19316e-08
8.19301e-08
8.2153e-08
8.22271e-08
8.21975e-08
8.20959e-08
8.19301e-08
8.19316e-08
8.19309e-08
8.19309e-08
8.19316e-08
8.19301e-08
8.21508e-08
8.21153e-08
8.20933e-08
8.19297e-08
8.19329e-08
8.19316e-08
8.19316e-08
8.19329e-08
8.19297e-08
8.21525e-08
8.22313e-08
8.22284e-08
8.21136e-08
8.19297e-08
8.19301e-08
8.19301e-08
8.19297e-08
8.21383e-08
8.21317e-08
8.22318e-08
8.22028e-08
8.21116e-08
8.21534e-08
8.2153e-08
8.21508e-08
8.21525e-08
8.21318e-08
8.22397e-08
8.22295e-08
8.22271e-08
8.21153e-08
8.22313e-08
8.22318e-08
8.10037e-08
8.09944e-08
8.10024e-08
8.08929e-08
8.08886e-08
8.08927e-08
8.08902e-08
8.10252e-08
8.09997e-08
8.10024e-08
8.08866e-08
8.07265e-08
8.0727e-08
8.0727e-08
8.07265e-08
8.09104e-08
8.09085e-08
8.0893e-08
8.07265e-08
8.07298e-08
8.07285e-08
8.07285e-08
8.07298e-08
8.07265e-08
8.09502e-08
8.10264e-08
8.10037e-08
8.08886e-08
8.0727e-08
8.07285e-08
8.07277e-08
8.07277e-08
8.07285e-08
8.0727e-08
8.09499e-08
8.1024e-08
8.09944e-08
8.08927e-08
8.0727e-08
8.07285e-08
8.07277e-08
8.07277e-08
8.07285e-08
8.0727e-08
8.09476e-08
8.09122e-08
8.08902e-08
8.07265e-08
8.07298e-08
8.07285e-08
8.07285e-08
8.07298e-08
8.07265e-08
8.09494e-08
8.10282e-08
8.10252e-08
8.09104e-08
8.07265e-08
8.0727e-08
8.0727e-08
8.07265e-08
8.09352e-08
8.09286e-08
8.10287e-08
8.09997e-08
8.09085e-08
8.09502e-08
8.09499e-08
8.09477e-08
8.09494e-08
8.09286e-08
8.10365e-08
8.10264e-08
8.1024e-08
8.09122e-08
8.10282e-08
8.10287e-08
7.98006e-08
7.97913e-08
7.97992e-08
7.96898e-08
7.96854e-08
7.96896e-08
7.9687e-08
7.98221e-08
7.97965e-08
7.97992e-08
7.96835e-08
7.95234e-08
7.95238e-08
7.95238e-08
7.95234e-08
7.97073e-08
7.97054e-08
7.96898e-08
7.95234e-08
7.95266e-08
7.95253e-08
7.95253e-08
7.95266e-08
7.95234e-08
7.97471e-08
7.98232e-08
7.98006e-08
7.96854e-08
7.95238e-08
7.95253e-08
7.95246e-08
7.95246e-08
7.95253e-08
7.95238e-08
7.97467e-08
7.98208e-08
7.97912e-08
7.96896e-08
7.95238e-08
7.95253e-08
7.95246e-08
7.95246e-08
7.95253e-08
7.95238e-08
7.97445e-08
7.9709e-08
7.9687e-08
7.95234e-08
7.95266e-08
7.95253e-08
7.95253e-08
7.95266e-08
7.95234e-08
7.97462e-08
7.9825e-08
7.98221e-08
7.97073e-08
7.95234e-08
7.95238e-08
7.95238e-08
7.95234e-08
7.97321e-08
7.97255e-08
7.98255e-08
7.97965e-08
7.97054e-08
7.97471e-08
7.97468e-08
7.97445e-08
7.97462e-08
7.97255e-08
7.98334e-08
7.98232e-08
7.98208e-08
7.9709e-08
7.9825e-08
7.98255e-08
7.85974e-08
7.85881e-08
7.85961e-08
7.84867e-08
7.84823e-08
7.84864e-08
7.84839e-08
7.86189e-08
7.85934e-08
7.85961e-08
7.84803e-08
7.83202e-08
7.83207e-08
7.83207e-08
7.83202e-08
7.85042e-08
7.85022e-08
7.84867e-08
7.83202e-08
7.83235e-08
7.83222e-08
7.83222e-08
7.83235e-08
7.83202e-08
7.85439e-08
7.86201e-08
7.85974e-08
7.84823e-08
7.83207e-08
7.83222e-08
7.83215e-08
7.83215e-08
7.83222e-08
7.83207e-08
7.85436e-08
7.86177e-08
7.85881e-08
7.84864e-08
7.83207e-08
7.83222e-08
7.83215e-08
7.83215e-08
7.83222e-08
7.83207e-08
7.85414e-08
7.85059e-08
7.84839e-08
7.83202e-08
7.83235e-08
7.83222e-08
7.83222e-08
7.83235e-08
7.83202e-08
7.85431e-08
7.86219e-08
7.86189e-08
7.85042e-08
7.83202e-08
7.83207e-08
7.83207e-08
7.83202e-08
7.85289e-08
7.85223e-08
7.86224e-08
7.85934e-08
7.85022e-08
7.85439e-08
7.85436e-08
7.85414e-08
7.85431e-08
7.85223e-08
7.86303e-08
7.86201e-08
7.86177e-08
7.85059e-08
7.86219e-08
7.86224e-08
7.73943e-08
7.7385e-08
7.7393e-08
7.72835e-08
7.72792e-08
7.72833e-08
7.72808e-08
7.74158e-08
7.73902e-08
7.7393e-08
7.72772e-08
7.71171e-08
7.71176e-08
7.71176e-08
7.71171e-08
7.7301e-08
7.72991e-08
7.72835e-08
7.71171e-08
7.71204e-08
7.71191e-08
7.71191e-08
7.71204e-08
7.71171e-08
7.73408e-08
7.74169e-08
7.73943e-08
7.72792e-08
7.71176e-08
7.71191e-08
7.71183e-08
7.71183e-08
7.71191e-08
7.71176e-08
7.73405e-08
7.74145e-08
7.7385e-08
7.72833e-08
7.71176e-08
7.71191e-08
7.71183e-08
7.71183e-08
7.71191e-08
7.71176e-08
7.73382e-08
7.73028e-08
7.72808e-08
7.71171e-08
7.71204e-08
7.71191e-08
7.71191e-08
7.71204e-08
7.71171e-08
7.734e-08
7.74187e-08
7.74158e-08
7.7301e-08
7.71171e-08
7.71176e-08
7.71176e-08
7.71171e-08
7.73258e-08
7.73192e-08
7.74192e-08
7.73902e-08
7.72991e-08
7.73408e-08
7.73405e-08
7.73382e-08
7.734e-08
7.73192e-08
7.74271e-08
7.74169e-08
7.74145e-08
7.73028e-08
7.74188e-08
7.74192e-08
7.61912e-08
7.61818e-08
7.61898e-08
7.60804e-08
7.6076e-08
7.60802e-08
7.60776e-08
7.62126e-08
7.61871e-08
7.61898e-08
7.60741e-08
7.59139e-08
7.59144e-08
7.59144e-08
7.59139e-08
7.60979e-08
7.60959e-08
7.60804e-08
7.59139e-08
7.59172e-08
7.59159e-08
7.59159e-08
7.59172e-08
7.59139e-08
7.61377e-08
7.62138e-08
7.61912e-08
7.6076e-08
7.59144e-08
7.59159e-08
7.59152e-08
7.59152e-08
7.59159e-08
7.59144e-08
7.61373e-08
7.62114e-08
7.61818e-08
7.60802e-08
7.59144e-08
7.59159e-08
7.59152e-08
7.59152e-08
7.59159e-08
7.59144e-08
7.61351e-08
7.60996e-08
7.60776e-08
7.59139e-08
7.59172e-08
7.59159e-08
7.59159e-08
7.59172e-08
7.59139e-08
7.61368e-08
7.62156e-08
7.62127e-08
7.60979e-08
7.59139e-08
7.59144e-08
7.59144e-08
7.59139e-08
7.61226e-08
7.6116e-08