/*--------------------------------*- C++ -*----------------------------------*\
| =========                 |                                                 |
| \\      /  F ield         | OpenFOAM: The Open Source CFD Toolbox           |
|  \\    /   O peration     | Version:  2312                                  |
|   \\  /    A nd           | Website:  www.openfoam.com                      |
|    \\/     M anipulation  |                                                 |
\*---------------------------------------------------------------------------*/
FoamFile
{
    version     2.0;
    format      ascii;
    arch        "LSB;label=32;scalar=64";
    class       volScalarField;
    location    "600";
    object      k;
}
// * * * * * * * * * * * * * * * * * * * * * * * * * * * * * * * * * * * * * //

dimensions      [0 2 -2 0 0 0 0];

internalField   nonuniform List<scalar> 
43008
(
1.57102e-05
1.61152e-05
1.52905e-05
1.60656e-05
1.60662e-05
1.76018e-05
1.72587e-05
1.75167e-05
1.61146e-05
1.61148e-05
1.60672e-05
1.60674e-05
1.75165e-05
1.61154e-05
1.61149e-05
1.6068e-05
1.60676e-05
1.60672e-05
1.60666e-05
1.72626e-05
1.75167e-05
1.61151e-05
1.60678e-05
1.60678e-05
1.75286e-05
1.76119e-05
1.60657e-05
1.60658e-05
1.76118e-05
1.60664e-05
1.60662e-05
1.60651e-05
1.7613e-05
1.60663e-05
5.00979e-05
6.99056e-05
4.93373e-05
6.99389e-05
6.97738e-05
5.00983e-05
6.99062e-05
4.93361e-05
6.99396e-05
1.571e-05
1.571e-05
1.57097e-05
1.53908e-05
1.53906e-05
1.53907e-05
1.53903e-05
2.60125e-05
1.6092e-05
4.29321e-05
1.53533e-05
6.97974e-05
6.97737e-05
2.60166e-05
1.54379e-05
4.24491e-05
1.60926e-05
2.54867e-05
1.53538e-05
4.29365e-05
1.73478e-05
5.77565e-05
5.77671e-05
5.19481e-05
6.99766e-05
5.12836e-05
7.00077e-05
6.97131e-05
6.96913e-05
5.19473e-05
6.99775e-05
5.12807e-05
7.00088e-05
1.52903e-05
1.52904e-05
1.529e-05
2.76638e-05
4.38793e-05
1.51271e-05
1.6068e-05
2.71015e-05
4.43267e-05
1.50596e-05
6.97128e-05
6.96909e-05
2.76577e-05
1.51277e-05
4.38785e-05
1.60685e-05
2.71069e-05
1.50601e-05
4.43349e-05
5.83087e-05
5.83181e-05
1.77463e-05
5.85665e-05
5.85759e-05
6.97957e-05
6.97717e-05
6.97976e-05
6.97741e-05
5.7466e-05
5.74776e-05
1.7339e-05
5.77593e-05
5.77712e-05
6.97295e-05
6.97525e-05
6.9732e-05
6.97547e-05
1.74192e-05
5.81779e-05
5.81887e-05
5.79029e-05
5.79141e-05
5.00966e-05
6.99019e-05
4.93357e-05
6.99354e-05
2.60113e-05
4.24491e-05
1.54377e-05
1.6092e-05
2.54908e-05
4.29361e-05
1.53535e-05
2.601e-05
4.24492e-05
1.54375e-05
1.60922e-05
2.54884e-05
4.29383e-05
1.53533e-05
5.03444e-05
6.99741e-05
6.99419e-05
5.10577e-05
5.03429e-05
6.99706e-05
6.99383e-05
5.10562e-05
2.62884e-05
1.60786e-05
4.36491e-05
1.51982e-05
4.31773e-05
1.52741e-05
2.68248e-05
2.62872e-05
1.60788e-05
4.36488e-05
1.51981e-05
4.31787e-05
1.5274e-05
2.68217e-05
1.73382e-05
5.77661e-05
5.77599e-05
6.9772e-05
6.97319e-05
6.97546e-05
1.74201e-05
5.81843e-05
5.81782e-05
5.79104e-05
5.79032e-05
6.973e-05
6.97525e-05
2.60146e-05
4.24502e-05
1.54381e-05
1.60927e-05
2.54925e-05
4.29423e-05
1.53539e-05
5.00974e-05
6.9902e-05
4.93357e-05
6.99351e-05
2.60155e-05
1.54377e-05
4.24542e-05
1.60923e-05
2.54921e-05
1.53536e-05
4.29372e-05
5.03422e-05
6.99748e-05
6.99426e-05
5.10573e-05
2.62897e-05
1.60793e-05
4.36521e-05
1.51988e-05
4.31789e-05
1.52746e-05
2.68267e-05
5.0342e-05
6.99701e-05
6.99383e-05
5.10564e-05
2.62889e-05
1.6079e-05
1.51984e-05
4.36497e-05
1.52742e-05
4.31827e-05
2.68271e-05
5.00815e-05
6.99379e-05
2.60104e-05
1.60913e-05
1.5353e-05
4.29342e-05
5.00908e-05
6.99338e-05
2.62825e-05
1.60786e-05
4.36462e-05
1.51981e-05
4.31761e-05
1.5274e-05
2.68279e-05
5.0351e-05
6.99728e-05
6.99408e-05
5.10425e-05
2.62863e-05
1.6078e-05
1.51978e-05
4.3646e-05
1.52737e-05
4.31752e-05
2.68224e-05
5.03452e-05
6.99688e-05
6.99368e-05
5.10507e-05
5.74733e-05
5.74677e-05
1.7339e-05
5.77669e-05
5.7762e-05
6.97962e-05
6.97726e-05
6.97316e-05
6.97544e-05
1.74216e-05
5.81846e-05
5.81798e-05
5.79099e-05
5.79047e-05
6.97306e-05
6.97533e-05
2.60111e-05
1.54378e-05
4.24507e-05
1.60925e-05
2.54918e-05
1.53537e-05
4.29425e-05
5.00902e-05
6.99051e-05
4.93435e-05
6.99384e-05
5.00895e-05
6.99018e-05
4.93426e-05
6.99352e-05
2.62852e-05
1.60792e-05
1.51986e-05
4.36507e-05
1.52745e-05
4.31778e-05
2.68277e-05
2.629e-05
1.60791e-05
1.51985e-05
4.36523e-05
1.52743e-05
4.31788e-05
2.68242e-05
5.03501e-05
6.99736e-05
6.99415e-05
5.10492e-05
5.0349e-05
6.99702e-05
6.99381e-05
5.10481e-05
6.97712e-05
6.97734e-05
1.74104e-05
5.81749e-05
5.81848e-05
5.78999e-05
5.79103e-05
6.97292e-05
6.97519e-05
6.97314e-05
6.97541e-05
6.97108e-05
6.96889e-05
6.97132e-05
6.96914e-05
5.83117e-05
5.83227e-05
1.77267e-05
5.85686e-05
5.85802e-05
5.19469e-05
6.99734e-05
5.12821e-05
7.00046e-05
2.76574e-05
4.38809e-05
1.51273e-05
1.60679e-05
2.71094e-05
4.43298e-05
1.50597e-05
2.76525e-05
4.38827e-05
1.51272e-05
1.60683e-05
2.71083e-05
4.43316e-05
1.50596e-05
5.83181e-05
5.83122e-05
1.77269e-05
5.85757e-05
5.85697e-05
6.9711e-05
6.96894e-05
2.76554e-05
4.38837e-05
1.51279e-05
1.60687e-05
2.71105e-05
4.43382e-05
1.50603e-05
5.19461e-05
6.99729e-05
5.12806e-05
7.00041e-05
2.76588e-05
1.51275e-05
4.38856e-05
1.60686e-05
2.71092e-05
1.506e-05
4.43301e-05
5.19343e-05
6.99755e-05
5.12891e-05
7.00069e-05
2.76613e-05
1.51269e-05
4.38798e-05
1.60676e-05
2.71071e-05
1.50594e-05
4.43343e-05
5.19415e-05
6.99716e-05
5.12843e-05
7.00028e-05
5.83187e-05
5.83137e-05
1.77285e-05
5.85754e-05
5.85701e-05
6.97118e-05
6.969e-05
2.76569e-05
1.51276e-05
4.3884e-05
1.60688e-05
2.71104e-05
1.50601e-05
4.43327e-05
5.19391e-05
6.99764e-05
5.12889e-05
7.00076e-05
5.19379e-05
6.99729e-05
5.12878e-05
7.00042e-05
6.97104e-05
6.96887e-05
6.97126e-05
6.96908e-05
6.97446e-05
4.98493e-05
6.90325e-05
5.70705e-05
6.90246e-05
5.68513e-05
6.97558e-05
7.11548e-05
7.30005e-05
6.99211e-05
7.11508e-05
7.31125e-05
6.97438e-05
4.95923e-05
6.90181e-05
5.64678e-05
6.97332e-05
6.90244e-05
5.66931e-05
7.11312e-05
7.32608e-05
6.99238e-05
7.31541e-05
7.1135e-05
6.97954e-05
6.9776e-05
6.97452e-05
4.98475e-05
5.70676e-05
6.90338e-05
5.68472e-05
6.9026e-05
6.97564e-05
7.11548e-05
7.29979e-05
6.99217e-05
7.11508e-05
7.31062e-05
6.97445e-05
4.95931e-05
5.6464e-05
6.90195e-05
6.97339e-05
5.66905e-05
6.90257e-05
7.11312e-05
7.32531e-05
6.99245e-05
7.31503e-05
7.1135e-05
6.97953e-05
6.97757e-05
8.65062e-05
7.26166e-05
7.26105e-05
7.26157e-05
7.26097e-05
8.66083e-05
5.4482e-05
5.75364e-05
3.58105e-05
6.84888e-05
5.45482e-05
5.75477e-05
3.58321e-05
6.85008e-05
8.64622e-05
7.26392e-05
7.26332e-05
5.47195e-05
6.8537e-05
5.76851e-05
3.62408e-05
3.60999e-05
6.8503e-05
5.48349e-05
5.47887e-05
6.85492e-05
5.76956e-05
3.62621e-05
3.6118e-05
6.85146e-05
5.49029e-05
6.97966e-05
5.17274e-05
6.90959e-05
5.84334e-05
6.90781e-05
5.82365e-05
6.98091e-05
7.1075e-05
7.35706e-05
6.99909e-05
7.10716e-05
7.36616e-05
6.97953e-05
5.15116e-05
6.90614e-05
5.7912e-05
6.9783e-05
6.90759e-05
5.81138e-05
7.10516e-05
7.37814e-05
6.99935e-05
7.36985e-05
7.10549e-05
6.97114e-05
6.96929e-05
6.97972e-05
5.17244e-05
5.84303e-05
6.90968e-05
5.82322e-05
6.90793e-05
6.98096e-05
7.10755e-05
7.35677e-05
6.99919e-05
7.1072e-05
7.36572e-05
6.97959e-05
5.15109e-05
5.79075e-05
6.90627e-05
6.97836e-05
5.81106e-05
6.90768e-05
7.10521e-05
7.37773e-05
6.99944e-05
7.36926e-05
7.10554e-05
6.97111e-05
6.96926e-05
8.70519e-05
7.2526e-05
7.252e-05
7.25254e-05
7.25195e-05
8.71355e-05
5.58365e-05
3.73667e-05
6.86415e-05
5.83736e-05
5.57331e-05
3.75018e-05
6.86726e-05
5.59055e-05
3.73856e-05
6.86529e-05
5.83833e-05
5.57996e-05
3.7522e-05
6.86848e-05
8.70115e-05
7.25479e-05
7.2542e-05
8.69236e-05
7.25486e-05
7.25426e-05
5.60508e-05
6.87148e-05
5.85032e-05
3.79119e-05
3.77783e-05
6.86846e-05
5.61529e-05
5.61182e-05
6.8727e-05
5.85123e-05
3.7933e-05
3.77962e-05
6.86961e-05
5.62152e-05
6.97935e-05
6.97739e-05
6.97955e-05
6.97761e-05
8.65123e-05
7.26184e-05
7.26121e-05
7.26175e-05
7.26112e-05
8.66142e-05
5.44823e-05
3.56694e-05
6.84551e-05
5.75396e-05
5.43609e-05
6.849e-05
3.58087e-05
5.4551e-05
3.56894e-05
6.84664e-05
5.75516e-05
5.44278e-05
6.85028e-05
3.5826e-05
8.64677e-05
7.26401e-05
7.26338e-05
8.63606e-05
7.26412e-05
7.26348e-05
5.47191e-05
6.8538e-05
5.76881e-05
3.62374e-05
6.85044e-05
5.48346e-05
3.61015e-05
5.47861e-05
6.8551e-05
5.76997e-05
3.62558e-05
6.85161e-05
5.49023e-05
3.61206e-05
6.97315e-05
6.97504e-05
6.97337e-05
6.97528e-05
8.6754e-05
7.25948e-05
7.25885e-05
8.66571e-05
7.25956e-05
7.25893e-05
5.54036e-05
3.7083e-05
5.81104e-05
6.86301e-05
6.85979e-05
3.69507e-05
5.55116e-05
5.5472e-05
3.71031e-05
5.81217e-05
6.86428e-05
6.86103e-05
3.6969e-05
5.55797e-05
5.51795e-05
6.85522e-05
3.65285e-05
5.79721e-05
5.50673e-05
6.85849e-05
3.66631e-05
5.52477e-05
6.85638e-05
3.65473e-05
5.79834e-05
5.51352e-05
6.85973e-05
3.66826e-05
8.67953e-05
7.25728e-05
7.25666e-05
7.25721e-05
7.25659e-05
8.68887e-05
6.97435e-05
4.98478e-05
6.90319e-05
5.70663e-05
6.9024e-05
5.68449e-05
6.97548e-05
7.1154e-05
7.29791e-05
6.99173e-05
7.11501e-05
7.30917e-05
6.97427e-05
4.95909e-05
6.90174e-05
5.64611e-05
6.90237e-05
6.97321e-05
5.66889e-05
7.11305e-05
7.32396e-05
6.99202e-05
7.31322e-05
7.11343e-05
6.97685e-05
6.90339e-05
5.72196e-05
5.05865e-05
6.97568e-05
6.90441e-05
5.74327e-05
7.10916e-05
6.99592e-05
7.35352e-05
7.10951e-05
7.34413e-05
7.11151e-05
7.32994e-05
6.99565e-05
7.11113e-05
7.34003e-05
6.97697e-05
5.08226e-05
6.90586e-05
5.77802e-05
6.97818e-05
6.90464e-05
5.75731e-05
6.97675e-05
6.90333e-05
5.72132e-05
5.0585e-05
6.97558e-05
6.90435e-05
5.74286e-05
7.1091e-05
6.99556e-05
7.35143e-05
7.34168e-05
7.10946e-05
7.11144e-05
7.32781e-05
6.99532e-05
7.11108e-05
7.33794e-05
6.97688e-05
5.08211e-05
6.9058e-05
5.7776e-05
6.90459e-05
5.75668e-05
6.97808e-05
8.65151e-05
7.26124e-05
7.26175e-05
7.26116e-05
7.26167e-05
8.66116e-05
5.45463e-05
5.75466e-05
6.84988e-05
3.5828e-05
5.44746e-05
5.75401e-05
3.58054e-05
6.84881e-05
8.64656e-05
7.2635e-05
7.26402e-05
5.47913e-05
6.85473e-05
5.76959e-05
3.62578e-05
6.8517e-05
3.6122e-05
5.49009e-05
5.47215e-05
6.85365e-05
5.76882e-05
3.62361e-05
3.61007e-05
6.85062e-05
5.48295e-05
6.97936e-05
6.97737e-05
6.97336e-05
6.97527e-05
8.6752e-05
7.2589e-05
7.25941e-05
8.66588e-05
7.25898e-05
7.25948e-05
5.54758e-05
3.71057e-05
5.81173e-05
6.86396e-05
3.6969e-05
6.86109e-05
5.558e-05
5.54056e-05
3.70819e-05
5.81111e-05
6.86285e-05
6.86002e-05
3.69494e-05
5.55091e-05
5.52445e-05
6.85645e-05
3.65489e-05
5.79789e-05
3.66845e-05
5.51385e-05
6.85944e-05
5.51733e-05
6.85537e-05
3.6527e-05
5.79723e-05
5.50686e-05
6.85835e-05
3.66621e-05
8.67968e-05
7.25671e-05
7.25721e-05
7.25664e-05
7.25714e-05
8.68869e-05
6.97316e-05
6.97507e-05
6.9744e-05
4.98472e-05
6.90331e-05
5.70637e-05
6.90252e-05
5.68448e-05
6.97551e-05
7.11524e-05
7.29754e-05
6.99174e-05
7.11485e-05
7.30853e-05
6.97432e-05
4.95923e-05
6.90187e-05
5.64612e-05
6.9025e-05
6.97328e-05
5.66867e-05
7.11288e-05
7.32332e-05
6.99202e-05
7.31302e-05
7.11325e-05
6.97691e-05
5.72154e-05
6.90353e-05
5.05865e-05
6.97574e-05
5.74298e-05
6.90452e-05
7.10918e-05
6.99599e-05
7.35297e-05
7.10954e-05
7.3435e-05
7.11152e-05
7.3297e-05
6.99571e-05
7.11115e-05
7.33948e-05
6.97703e-05
5.08201e-05
5.77774e-05
6.90596e-05
6.97823e-05
5.75687e-05
6.90477e-05
6.97676e-05
6.90345e-05
5.72128e-05
5.05856e-05
6.97561e-05
6.90446e-05
5.74257e-05
7.10891e-05
6.99554e-05
7.35092e-05
7.34153e-05
7.10925e-05
7.11125e-05
7.32748e-05
6.99529e-05
7.11089e-05
7.33746e-05
6.97688e-05
5.08199e-05
6.9059e-05
5.77729e-05
6.90469e-05
5.75664e-05
6.97808e-05
6.97447e-05
4.98564e-05
5.70474e-05
6.90328e-05
5.68582e-05
6.90252e-05
6.97555e-05
7.11298e-05
7.32471e-05
6.99225e-05
7.31447e-05
7.11342e-05
6.97431e-05
4.98504e-05
6.90322e-05
5.70615e-05
6.90245e-05
5.68456e-05
6.97542e-05
7.11281e-05
7.32325e-05
6.99185e-05
7.3129e-05
7.11319e-05
6.97681e-05
5.72258e-05
6.90344e-05
5.05704e-05
6.97567e-05
5.74105e-05
6.90442e-05
7.10899e-05
6.9958e-05
7.3523e-05
7.34296e-05
7.10941e-05
7.11141e-05
7.32886e-05
6.99555e-05
7.11098e-05
7.33879e-05
6.97694e-05
5.08287e-05
5.77591e-05
6.90584e-05
5.75785e-05
6.90469e-05
6.97811e-05
6.97668e-05
6.90337e-05
5.72139e-05
5.05794e-05
6.97552e-05
6.90437e-05
5.74238e-05
7.10884e-05
6.99541e-05
7.3507e-05
7.34124e-05
7.1092e-05
7.11119e-05
7.32739e-05
6.99515e-05
7.11083e-05
7.33729e-05
6.97681e-05
5.08232e-05
6.9058e-05
5.77716e-05
6.90462e-05
5.75672e-05
6.978e-05
8.65093e-05
7.26123e-05
7.26178e-05
7.26114e-05
7.2617e-05
8.66104e-05
5.45501e-05
3.56896e-05
6.84647e-05
5.75474e-05
6.8501e-05
5.44277e-05
3.58287e-05
5.44819e-05
3.56665e-05
6.84549e-05
5.75421e-05
3.58136e-05
5.43612e-05
6.8491e-05
8.6464e-05
7.2634e-05
7.26396e-05
7.26349e-05
8.6359e-05
7.26405e-05
5.47862e-05
6.85493e-05
5.76951e-05
3.62574e-05
6.85142e-05
3.61208e-05
5.4904e-05
5.47197e-05
6.85391e-05
5.76898e-05
3.6242e-05
3.60988e-05
6.85044e-05
5.48368e-05
6.97941e-05
6.97745e-05
6.97334e-05
6.97524e-05
8.67506e-05
7.25888e-05
7.25944e-05
8.66541e-05
7.25895e-05
7.25951e-05
5.54706e-05
3.71043e-05
5.81176e-05
6.8641e-05
3.69698e-05
6.86084e-05
5.55814e-05
5.54031e-05
3.70877e-05
5.81123e-05
6.8631e-05
6.85982e-05
3.69468e-05
5.55137e-05
5.52493e-05
6.85621e-05
3.6548e-05
5.79792e-05
3.66836e-05
5.51337e-05
6.85957e-05
5.51821e-05
6.85522e-05
3.65262e-05
5.79742e-05
5.50666e-05
6.85855e-05
3.66671e-05
8.67921e-05
7.25668e-05
7.25724e-05
7.25661e-05
7.25717e-05
8.68851e-05
6.97323e-05
6.97514e-05
6.97448e-05
4.98551e-05
5.70648e-05
6.90328e-05
5.68507e-05
6.9025e-05
6.9756e-05
7.11546e-05
7.29934e-05
6.99205e-05
7.31024e-05
7.11507e-05
6.9744e-05
4.9585e-05
5.64673e-05
6.90185e-05
5.66875e-05
6.97334e-05
6.90247e-05
7.11311e-05
7.32503e-05
6.99234e-05
7.31468e-05
7.11348e-05
6.97432e-05
4.98542e-05
5.70631e-05
6.90323e-05
5.68451e-05
6.90245e-05
6.97543e-05
7.11525e-05
7.29818e-05
6.99173e-05
7.11487e-05
7.30825e-05
6.97425e-05
4.95843e-05
5.64617e-05
6.90179e-05
6.9732e-05
5.6686e-05
6.90241e-05
7.1129e-05
7.32302e-05
6.99201e-05
7.31345e-05
7.11327e-05
6.97687e-05
5.72188e-05
6.90343e-05
5.05784e-05
6.9757e-05
5.74273e-05
6.90444e-05
7.10917e-05
6.99586e-05
7.35264e-05
7.34311e-05
7.10952e-05
7.1115e-05
7.32936e-05
6.99562e-05
7.11114e-05
7.33922e-05
6.97699e-05
5.0828e-05
5.7775e-05
6.90588e-05
5.7572e-05
6.90469e-05
6.97819e-05
6.9767e-05
5.7213e-05
6.90337e-05
5.05774e-05
6.97553e-05
5.74252e-05
6.90438e-05
7.10894e-05
6.99554e-05
7.35047e-05
7.34215e-05
7.10928e-05
7.11128e-05
7.32799e-05
6.99528e-05
7.11093e-05
7.33729e-05
6.97682e-05
5.0827e-05
5.77724e-05
6.90582e-05
5.75662e-05
6.90463e-05
6.97801e-05
6.97927e-05
6.97731e-05
6.9795e-05
6.97754e-05
8.67482e-05
7.25931e-05
7.25872e-05
8.66525e-05
7.25939e-05
7.25879e-05
5.54059e-05
3.70861e-05
5.81077e-05
6.86289e-05
5.55127e-05
3.6949e-05
6.85969e-05
5.54735e-05
3.71059e-05
5.81174e-05
6.86412e-05
5.55812e-05
3.69679e-05
6.86083e-05
5.51788e-05
6.85507e-05
3.65273e-05
5.79691e-05
5.50678e-05
3.6666e-05
6.85835e-05
5.5247e-05
6.85622e-05
3.65457e-05
5.79793e-05
5.51358e-05
3.66856e-05
6.85957e-05
8.67904e-05
7.25712e-05
7.25652e-05
8.68828e-05
7.25705e-05
7.25645e-05
6.9731e-05
6.975e-05
6.97332e-05
6.97522e-05
6.9709e-05
6.96907e-05
6.97115e-05
6.9693e-05
8.70545e-05
7.25276e-05
7.25214e-05
7.25268e-05
7.25207e-05
8.71431e-05
5.58367e-05
3.7367e-05
6.86428e-05
5.83758e-05
5.57319e-05
6.86737e-05
3.74999e-05
5.59062e-05
3.73859e-05
6.86549e-05
5.83876e-05
5.58005e-05
6.86865e-05
3.75179e-05
8.70181e-05
7.25495e-05
7.25432e-05
8.69282e-05
7.25502e-05
7.25439e-05
5.6048e-05
6.87161e-05
5.85068e-05
3.79097e-05
6.86857e-05
5.61536e-05
3.77778e-05
5.61158e-05
6.87289e-05
5.85169e-05
3.7928e-05
6.86979e-05
5.62227e-05
3.77975e-05
6.97959e-05
5.17258e-05
6.90934e-05
5.84287e-05
6.90797e-05
5.82308e-05
6.98081e-05
7.10745e-05
7.35498e-05
6.99878e-05
7.10712e-05
7.36408e-05
6.97944e-05
5.15104e-05
6.90614e-05
5.79058e-05
6.90748e-05
6.97822e-05
5.81093e-05
7.10512e-05
7.37614e-05
6.99903e-05
7.36751e-05
7.10545e-05
8.70583e-05
7.25218e-05
7.25268e-05
7.25212e-05
7.25262e-05
8.71376e-05
5.59021e-05
3.7385e-05
6.86551e-05
5.83827e-05
6.86831e-05
5.58032e-05
3.75226e-05
5.58334e-05
3.73658e-05
6.86445e-05
5.83771e-05
3.74981e-05
5.57327e-05
6.86721e-05
8.70146e-05
7.25438e-05
7.25488e-05
7.25444e-05
8.69305e-05
7.25495e-05
5.612e-05
6.87249e-05
5.85124e-05
3.79342e-05
6.86985e-05
3.77949e-05
5.62226e-05
5.60499e-05
6.8714e-05
5.8507e-05
3.79091e-05
3.77774e-05
6.86878e-05
5.61536e-05
6.97095e-05
6.96908e-05
6.97955e-05
5.17243e-05
6.90962e-05
5.84255e-05
6.90783e-05
5.82299e-05
6.98078e-05
7.10724e-05
7.35459e-05
6.99873e-05
7.1069e-05
7.36355e-05
6.97942e-05
5.15099e-05
6.90618e-05
5.79053e-05
6.90763e-05
6.97821e-05
5.81062e-05
7.1049e-05
7.37562e-05
6.99898e-05
7.36725e-05
7.10522e-05
6.9796e-05
5.17326e-05
5.84141e-05
6.90933e-05
5.82407e-05
6.90803e-05
6.9808e-05
7.10739e-05
7.356e-05
6.999e-05
7.36503e-05
7.10698e-05
6.97945e-05
5.14967e-05
5.79166e-05
6.90623e-05
5.80934e-05
6.97826e-05
6.90751e-05
7.10497e-05
7.3772e-05
6.99923e-05
7.36857e-05
7.10537e-05
6.97949e-05
5.17282e-05
6.90928e-05
5.84246e-05
6.90798e-05
5.82306e-05
6.98071e-05
7.10719e-05
7.3545e-05
6.9986e-05
7.10685e-05
7.36339e-05
6.97935e-05
5.15045e-05
6.90616e-05
5.79059e-05
6.97813e-05
6.90747e-05
5.81048e-05
7.10485e-05
7.37542e-05
6.99884e-05
7.36698e-05
7.10518e-05
8.70523e-05
7.25215e-05
7.25271e-05
7.25209e-05
7.25264e-05
8.71377e-05
5.5907e-05
3.7387e-05
6.86533e-05
5.83834e-05
6.86847e-05
5.57993e-05
3.75184e-05
5.58393e-05
3.73654e-05
6.8643e-05
5.83779e-05
3.75023e-05
5.57323e-05
6.86745e-05
8.70139e-05
7.25435e-05
7.2549e-05
7.25441e-05
8.69254e-05
7.25497e-05
5.61169e-05
6.87269e-05
5.85132e-05
3.79315e-05
6.86963e-05
3.77979e-05
5.62173e-05
5.605e-05
6.87167e-05
5.85087e-05
3.7911e-05
3.77774e-05
6.8686e-05
5.6148e-05
6.97102e-05
6.96917e-05
6.97969e-05
5.1733e-05
5.84279e-05
6.90939e-05
5.82355e-05
6.90806e-05
6.98091e-05
7.10752e-05
7.35647e-05
6.99908e-05
7.36536e-05
7.10718e-05
6.97955e-05
5.15027e-05
5.79106e-05
6.90623e-05
5.81083e-05
6.97833e-05
6.90756e-05
7.10519e-05
7.37741e-05
6.99934e-05
7.36898e-05
7.10551e-05
6.97951e-05
5.17318e-05
5.84249e-05
6.90932e-05
5.82295e-05
6.90799e-05
6.98073e-05
7.10728e-05
7.35512e-05
6.99874e-05
7.10695e-05
7.36324e-05
6.97937e-05
5.15015e-05
5.79049e-05
6.90617e-05
6.97815e-05
5.81056e-05
6.90749e-05
7.10495e-05
7.37518e-05
6.99898e-05
7.36772e-05
7.10527e-05
6.97088e-05
6.96903e-05
6.97109e-05
6.96924e-05
1.59857e-05
1.5986e-05
1.56006e-05
1.58593e-05
1.58596e-05
1.62837e-05
1.64159e-05
3.44314e-05
1.72688e-05
2.26346e-05
2.26356e-05
1.54944e-05
1.54948e-05
1.5193e-05
1.53774e-05
1.53778e-05
1.57732e-05
1.58981e-05
3.6186e-05
2.36619e-05
2.36673e-05
1.76325e-05
3.60486e-05
2.37683e-05
2.37726e-05
3.4435e-05
2.25581e-05
2.25632e-05
1.72596e-05
3.42825e-05
2.26254e-05
2.26272e-05
3.56138e-05
1.75127e-05
2.34607e-05
2.34631e-05
2.33853e-05
2.3392e-05
3.57568e-05
3.44238e-05
1.7259e-05
2.26246e-05
2.2642e-05
3.56184e-05
1.75116e-05
2.34778e-05
2.34599e-05
2.33782e-05
2.33886e-05
3.57492e-05
3.44362e-05
2.25633e-05
2.25492e-05
1.72604e-05
2.26415e-05
3.42823e-05
2.26285e-05
3.56106e-05
1.75124e-05
2.34587e-05
2.34739e-05
2.33932e-05
2.33741e-05
3.57546e-05
3.56147e-05
1.75009e-05
2.34768e-05
2.34791e-05
3.57563e-05
2.33738e-05
2.33794e-05
3.61864e-05
2.36741e-05
2.36818e-05
1.76182e-05
3.60451e-05
2.37521e-05
2.37529e-05
3.61794e-05
2.36695e-05
2.36756e-05
1.76185e-05
2.37526e-05
3.60527e-05
2.37644e-05
3.61854e-05
2.36798e-05
2.36657e-05
1.76197e-05
2.37687e-05
3.60483e-05
2.37552e-05
1.59856e-05
1.59858e-05
1.56004e-05
1.58592e-05
1.58594e-05
1.62836e-05
1.64158e-05
1.59856e-05
1.59858e-05
1.56004e-05
1.58592e-05
1.58594e-05
1.62835e-05
1.64157e-05
1.59853e-05
1.59857e-05
1.56001e-05
1.58589e-05
1.58592e-05
1.62834e-05
1.64156e-05
1.54943e-05
1.56137e-05
1.5614e-05
1.57354e-05
1.57357e-05
1.61534e-05
1.60248e-05
1.54942e-05
1.56136e-05
1.56137e-05
1.57353e-05
1.57354e-05
1.61533e-05
1.60248e-05
1.54942e-05
1.56136e-05
1.56138e-05
1.57352e-05
1.57355e-05
1.61532e-05
1.60247e-05
1.54938e-05
1.56133e-05
1.56137e-05
1.5735e-05
1.57353e-05
1.61531e-05
1.60246e-05
1.82862e-05
2.588e-05
3.0143e-05
1.70017e-05
3.0015e-05
1.69684e-05
1.83312e-05
2.0701e-05
3.6945e-05
4.28115e-05
2.53656e-05
2.52534e-05
3.68023e-05
2.07693e-05
1.83001e-05
2.58826e-05
1.69949e-05
3.01531e-05
1.69776e-05
3.00123e-05
1.8318e-05
2.05526e-05
2.49412e-05
3.63968e-05
4.25695e-05
2.0512e-05
2.50519e-05
3.65283e-05
1.81879e-05
2.56183e-05
1.689e-05
2.95876e-05
1.81716e-05
1.6905e-05
2.97282e-05
2.07126e-05
3.69445e-05
4.28165e-05
2.53573e-05
2.52536e-05
3.68116e-05
2.0754e-05
3.47331e-05
1.73277e-05
2.29101e-05
2.29153e-05
2.28182e-05
2.28236e-05
3.48776e-05
1.54944e-05
1.54945e-05
1.51929e-05
1.53773e-05
1.53775e-05
1.57732e-05
1.58981e-05
1.54944e-05
1.54946e-05
1.5193e-05
1.53774e-05
1.53776e-05
1.57731e-05
1.5898e-05
1.54941e-05
1.54945e-05
1.51926e-05
1.53771e-05
1.53775e-05
1.5773e-05
1.58979e-05
1.88796e-05
2.75164e-05
3.18616e-05
1.74458e-05
3.17219e-05
1.73951e-05
1.89425e-05
2.14264e-05
2.6229e-05
3.80201e-05
4.39932e-05
2.1352e-05
2.63316e-05
3.81522e-05
1.87718e-05
2.72415e-05
3.12963e-05
1.72752e-05
1.87208e-05
3.14287e-05
1.73185e-05
2.15807e-05
3.85356e-05
4.42222e-05
2.66695e-05
2.65624e-05
3.84265e-05
2.16675e-05
1.88959e-05
2.75239e-05
1.74327e-05
3.18638e-05
1.74057e-05
3.17218e-05
1.89179e-05
2.14099e-05
2.62254e-05
3.80243e-05
4.39974e-05
2.13644e-05
2.63431e-05
3.81598e-05
1.87602e-05
2.72412e-05
1.72843e-05
3.12944e-05
1.87357e-05
1.73105e-05
3.14358e-05
2.15951e-05
3.85594e-05
4.42206e-05
2.66715e-05
2.6558e-05
3.84189e-05
2.16389e-05
3.64798e-05
1.77109e-05
2.40642e-05
2.40788e-05
2.39592e-05
2.39614e-05
3.66137e-05
3.47287e-05
1.73343e-05
2.28992e-05
2.29013e-05
3.48752e-05
2.28284e-05
2.28327e-05
3.53168e-05
1.74249e-05
2.31045e-05
2.31097e-05
3.51732e-05
2.31751e-05
2.31763e-05
1.83e-05
2.58866e-05
3.01493e-05
1.69907e-05
3.0018e-05
1.69777e-05
1.83161e-05
2.05466e-05
2.49423e-05
3.63951e-05
4.25706e-05
3.65378e-05
2.05181e-05
2.50452e-05
1.81857e-05
2.56143e-05
2.9592e-05
1.68898e-05
2.97239e-05
1.81716e-05
1.69019e-05
2.07173e-05
3.69489e-05
4.28154e-05
2.53573e-05
3.68099e-05
2.52562e-05
2.07507e-05
1.82874e-05
2.58853e-05
3.01444e-05
1.69904e-05
3.00144e-05
1.69772e-05
1.8332e-05
2.05688e-05
2.4956e-05
3.63869e-05
4.25737e-05
2.04993e-05
3.65323e-05
2.50419e-05
1.82003e-05
2.56133e-05
2.95895e-05
1.68895e-05
1.81585e-05
2.97201e-05
1.69017e-05
2.07009e-05
3.69428e-05
4.28167e-05
2.53594e-05
3.68022e-05
2.07698e-05
2.52693e-05
1.84568e-05
3.04446e-05
1.70711e-05
2.64156e-05
1.84389e-05
3.05759e-05
1.70863e-05
2.11431e-05
2.60058e-05
4.35313e-05
3.77607e-05
2.58974e-05
3.76218e-05
2.11802e-05
2.09579e-05
3.72185e-05
2.55777e-05
4.3295e-05
2.56815e-05
2.09257e-05
3.73536e-05
1.85837e-05
2.66966e-05
3.1004e-05
1.7191e-05
3.08725e-05
1.7175e-05
1.86033e-05
1.84732e-05
3.04409e-05
1.70708e-05
2.64132e-05
1.84277e-05
3.05716e-05
1.70863e-05
2.11263e-05
2.60044e-05
4.35317e-05
3.77561e-05
3.76148e-05
2.59123e-05
2.11999e-05
2.09822e-05
3.7211e-05
2.55892e-05
4.32974e-05
2.09095e-05
3.73464e-05
2.568e-05
1.85704e-05
2.6696e-05
3.09999e-05
1.7191e-05
3.08681e-05
1.71741e-05
1.86174e-05
3.47374e-05
1.73374e-05
2.2919e-05
2.2895e-05
2.28311e-05
2.28222e-05
3.48689e-05
3.53081e-05
1.74225e-05
2.30976e-05
2.31061e-05
2.319e-05
3.51807e-05
2.31756e-05
1.82901e-05
2.58875e-05
3.01555e-05
1.70022e-05
3.0013e-05
1.69715e-05
1.83344e-05
2.05696e-05
2.49562e-05
3.63938e-05
4.25757e-05
3.65391e-05
2.05033e-05
2.504e-05
1.8202e-05
2.56168e-05
2.95874e-05
1.6885e-05
2.97286e-05
1.81608e-05
1.69124e-05
2.07054e-05
3.69524e-05
4.28184e-05
2.53548e-05
3.68099e-05
2.527e-05
2.07708e-05
1.83002e-05
2.58871e-05
1.7002e-05
3.01493e-05
1.69715e-05
3.00182e-05
1.83182e-05
2.05542e-05
2.49446e-05
3.6398e-05
4.25725e-05
2.05128e-05
3.65272e-05
2.50512e-05
1.81875e-05
2.56172e-05
1.68849e-05
2.9593e-05
1.81716e-05
1.69119e-05
2.97222e-05
2.0714e-05
3.69376e-05
4.28202e-05
2.53725e-05
3.68087e-05
2.07553e-05
2.52631e-05
1.84755e-05
3.04391e-05
1.70657e-05
2.64177e-05
1.84301e-05
3.05811e-05
1.70987e-05
2.11314e-05
2.60001e-05
4.35353e-05
3.77642e-05
2.59149e-05
3.76212e-05
2.11999e-05
2.09843e-05
3.72175e-05
2.55894e-05
4.32976e-05
2.56786e-05
2.09141e-05
3.73544e-05
1.85737e-05
2.66974e-05
3.10088e-05
1.72048e-05
3.08665e-05
1.71678e-05
1.86197e-05
1.84591e-05
1.70653e-05
3.04439e-05
2.64187e-05
1.84389e-05
1.70983e-05
3.0576e-05
2.11403e-05
2.6017e-05
4.35351e-05
3.77506e-05
3.76211e-05
2.59053e-05
2.11856e-05
2.09659e-05
3.72192e-05
2.55788e-05
4.32985e-05
2.0922e-05
3.73478e-05
2.56851e-05
1.85837e-05
2.66964e-05
1.72046e-05
3.10036e-05
1.71675e-05
3.08713e-05
1.86056e-05
1.82857e-05
2.58841e-05
1.70007e-05
3.01488e-05
1.69676e-05
3.00076e-05
1.83295e-05
2.07026e-05
3.69362e-05
4.28123e-05
2.53513e-05
2.52637e-05
3.67995e-05
2.07632e-05
1.84715e-05
3.04411e-05
1.70625e-05
2.64162e-05
1.84258e-05
3.0571e-05
1.70975e-05
2.113e-05
2.60023e-05
4.3528e-05
3.77576e-05
2.11966e-05
2.59001e-05
3.7617e-05
2.09805e-05
3.72136e-05
2.55723e-05
4.32936e-05
2.09118e-05
2.56751e-05
3.73478e-05
1.85697e-05
2.669e-05
3.09984e-05
1.72047e-05
1.86145e-05
3.08682e-05
1.71645e-05
1.84717e-05
1.70629e-05
3.04361e-05
2.64137e-05
1.84259e-05
1.70978e-05
3.0576e-05
2.11287e-05
2.59967e-05
4.35308e-05
3.77529e-05
3.76121e-05
2.5908e-05
2.11968e-05
2.09806e-05
3.72129e-05
2.55828e-05
4.3292e-05
2.09128e-05
3.73478e-05
2.56702e-05
1.85687e-05
2.66944e-05
1.72045e-05
3.10046e-05
1.71647e-05
3.0863e-05
1.86166e-05
3.47291e-05
1.73386e-05
2.28993e-05
2.29047e-05
2.282e-05
2.28336e-05
3.48792e-05
3.53221e-05
1.74236e-05
2.31098e-05
2.30997e-05
2.31778e-05
3.51726e-05
2.3189e-05
1.83006e-05
2.58891e-05
1.69944e-05
3.01472e-05
1.69778e-05
3.0019e-05
1.83183e-05
2.05557e-05
2.49501e-05
3.64016e-05
4.25752e-05
2.50514e-05
2.05166e-05
3.65223e-05
1.81871e-05
2.56142e-05
1.68902e-05
2.95932e-05
1.69051e-05
1.81717e-05
2.97217e-05
2.07161e-05
3.69348e-05
4.28188e-05
2.53667e-05
2.52648e-05
3.68145e-05
2.07577e-05
1.8459e-05
1.70707e-05
3.04404e-05
2.6417e-05
1.84388e-05
1.70907e-05
3.05805e-05
2.11375e-05
2.60085e-05
4.35295e-05
3.77557e-05
2.11852e-05
2.58946e-05
3.7621e-05
2.09631e-05
3.72195e-05
2.5578e-05
4.32963e-05
2.09204e-05
2.56844e-05
3.73515e-05
1.8583e-05
2.66948e-05
1.71955e-05
3.10085e-05
1.86056e-05
1.7173e-05
3.08671e-05
1.84585e-05
1.70712e-05
3.0444e-05
2.64153e-05
1.84393e-05
1.70902e-05
3.05749e-05
2.11417e-05
2.60122e-05
4.35353e-05
3.77445e-05
3.76296e-05
2.5906e-05
2.11871e-05
2.0967e-05
3.72241e-05
2.55846e-05
4.32977e-05
2.09243e-05
3.73401e-05
2.5688e-05
1.85841e-05
2.66978e-05
1.71959e-05
3.10018e-05
1.71743e-05
3.0871e-05
1.86058e-05
3.53201e-05
1.74298e-05
2.30946e-05
2.30999e-05
3.51754e-05
2.31847e-05
2.31892e-05
3.64733e-05
1.77212e-05
2.40512e-05
2.40463e-05
3.66249e-05
2.39673e-05
2.39748e-05
1.88969e-05
2.75262e-05
3.18629e-05
1.74257e-05
3.17265e-05
1.74078e-05
1.89167e-05
2.14041e-05
2.62289e-05
3.80261e-05
4.39911e-05
3.81589e-05
2.13668e-05
2.63401e-05
1.87572e-05
2.72378e-05
3.13003e-05
1.72865e-05
3.14322e-05
1.87352e-05
1.73059e-05
2.16005e-05
3.85529e-05
4.4225e-05
2.66648e-05
3.84236e-05
2.65598e-05
2.16363e-05
1.88819e-05
2.75258e-05
3.18556e-05
1.74264e-05
3.17233e-05
1.74069e-05
1.89413e-05
2.14243e-05
2.62411e-05
3.80198e-05
4.3994e-05
2.13539e-05
3.81483e-05
2.63402e-05
1.87724e-05
2.72386e-05
3.12957e-05
1.7286e-05
1.87235e-05
3.14285e-05
1.73062e-05
2.15806e-05
3.85343e-05
4.42256e-05
2.66718e-05
3.84226e-05
2.16641e-05
2.65662e-05
3.64795e-05
1.77208e-05
2.40636e-05
2.4044e-05
2.39722e-05
2.3964e-05
3.66197e-05
1.8891e-05
2.75282e-05
3.18668e-05
1.7445e-05
3.17198e-05
1.73973e-05
1.89148e-05
2.14079e-05
2.62413e-05
3.80246e-05
4.39963e-05
3.81618e-05
2.1362e-05
2.63361e-05
1.87709e-05
2.72385e-05
3.1295e-05
1.72806e-05
3.14366e-05
1.87277e-05
1.7318e-05
2.15992e-05
3.85659e-05
4.42258e-05
2.66859e-05
3.84194e-05
2.65693e-05
2.16378e-05
1.88965e-05
2.7525e-05
1.74452e-05
3.18593e-05
1.73966e-05
3.17257e-05
1.89194e-05
2.14137e-05
2.62331e-05
3.80265e-05
4.39972e-05
2.13647e-05
3.81466e-05
2.634e-05
1.87595e-05
2.72415e-05
1.72797e-05
3.1299e-05
1.8735e-05
1.73182e-05
3.14321e-05
2.15972e-05
3.85381e-05
4.42272e-05
2.66804e-05
3.84248e-05
2.16401e-05
2.65679e-05
1.88802e-05
2.75211e-05
1.74452e-05
3.18641e-05
1.73941e-05
3.17164e-05
1.89426e-05
2.14285e-05
2.62364e-05
3.80168e-05
4.3993e-05
2.63277e-05
2.13529e-05
3.81541e-05
1.87725e-05
2.72387e-05
1.7277e-05
3.12907e-05
1.73168e-05
1.87218e-05
3.14322e-05
2.15777e-05
3.85528e-05
4.42206e-05
2.66615e-05
2.65677e-05
3.84119e-05
2.16682e-05
3.64779e-05
1.77219e-05
2.40561e-05
2.40681e-05
2.3956e-05
2.39735e-05
3.66102e-05
1.88974e-05
2.75256e-05
1.74319e-05
3.18594e-05
1.7406e-05
3.1724e-05
1.89203e-05
2.14143e-05
2.62363e-05
3.80311e-05
4.39967e-05
2.63472e-05
2.13664e-05
3.81451e-05
1.87605e-05
2.72393e-05
1.72861e-05
3.12979e-05
1.73106e-05
1.87359e-05
3.14318e-05
2.15986e-05
3.85526e-05
4.42262e-05
2.6681e-05
2.65657e-05
3.84234e-05
2.16413e-05
3.60233e-05
3.60197e-05
3.60197e-05
3.60085e-05
3.39295e-05
3.38856e-05
3.38856e-05
3.39585e-05
3.21568e-05
3.20023e-05
3.2002e-05
3.19435e-05
3.05325e-05
3.02214e-05
3.0221e-05
2.99756e-05
2.90296e-05
2.85446e-05
2.85441e-05
2.81073e-05
2.76309e-05
2.69765e-05
2.69758e-05
2.63749e-05
2.63254e-05
2.55194e-05
2.55185e-05
2.47918e-05
2.51052e-05
2.41726e-05
2.41715e-05
2.33633e-05
2.39645e-05
2.29375e-05
2.29364e-05
2.20891e-05
2.28988e-05
2.18131e-05
2.1812e-05
2.09701e-05
2.19046e-05
2.07968e-05
2.07958e-05
1.99963e-05
2.09786e-05
1.98857e-05
1.9885e-05
1.9163e-05
2.01158e-05
1.90778e-05
1.90773e-05
1.84692e-05
1.9315e-05
1.83698e-05
1.83695e-05
1.79093e-05
1.85752e-05
1.77585e-05
1.77584e-05
1.74783e-05
1.78938e-05
1.72424e-05
1.72424e-05
1.71663e-05
1.72685e-05
1.68205e-05
1.68206e-05
1.6982e-05
1.66972e-05
1.64919e-05
1.64922e-05
1.69395e-05
1.61786e-05
1.62566e-05
1.6257e-05
1.7032e-05
1.61147e-05
1.72516e-05
3.62976e-05
3.62919e-05
3.62919e-05
3.62976e-05
3.62919e-05
3.62919e-05
3.62908e-05
3.62908e-05
3.62908e-05
3.62908e-05
3.62919e-05
3.62919e-05
3.62977e-05
3.62919e-05
3.62919e-05
3.62977e-05
3.60086e-05
3.42657e-05
3.60197e-05
3.60197e-05