/*--------------------------------*- C++ -*----------------------------------*\
| =========                 |                                                 |
| \\      /  F ield         | OpenFOAM: The Open Source CFD Toolbox           |
|  \\    /   O peration     | Version:  2312                                  |
|   \\  /    A nd           | Website:  www.openfoam.com                      |
|    \\/     M anipulation  |                                                 |
\*---------------------------------------------------------------------------*/
FoamFile
{
    version     2.0;
    format      ascii;
    arch        "LSB;label=32;scalar=64";
    class       volVectorField;
    location    "600";
    object      U;
}
// * * * * * * * * * * * * * * * * * * * * * * * * * * * * * * * * * * * * * //

dimensions      [0 1 -1 0 0 0 0];

internalField   nonuniform List<vector> 
43008
(
(6.34854e-05 6.34969e-05 0.108289)
(5.91362e-05 -9.55311e-05 0.107557)
(6.22686e-05 6.22633e-05 0.108604)
(-9.36889e-05 5.81294e-05 0.107771)
(5.81193e-05 -9.36753e-05 0.107771)
(-0.000149599 -0.000149568 0.106584)
(0.000152373 0.000152395 0.106508)
(1.25994e-05 1.27008e-05 0.106725)
(5.93149e-05 9.54869e-05 0.107557)
(-5.94148e-05 9.56179e-05 0.107556)
(5.85775e-05 9.417e-05 0.107718)
(-5.86307e-05 9.42368e-05 0.107718)
(-1.26153e-05 1.26227e-05 0.106725)
(9.55413e-05 5.92152e-05 0.107557)
(9.55566e-05 -5.93513e-05 0.107556)
(9.41847e-05 5.84801e-05 0.107719)
(9.41526e-05 -5.85679e-05 0.107718)
(-9.41483e-05 5.84046e-05 0.107719)
(-9.40817e-05 -5.85267e-05 0.107718)
(0.000152398 -0.00015241 0.106508)
(1.26337e-05 -1.25612e-05 0.106725)
(-5.92333e-05 -9.5576e-05 0.107557)
(5.83757e-05 -9.4126e-05 0.107719)
(-5.84625e-05 -9.41774e-05 0.107719)
(-1.26968e-05 -1.25791e-05 0.106724)
(0.000149539 0.000149542 0.106585)
(5.83262e-05 9.37288e-05 0.10777)
(-5.83639e-05 9.37665e-05 0.10777)
(-0.000149579 0.000149506 0.106584)
(9.37339e-05 5.82184e-05 0.107771)
(9.36989e-05 -5.83002e-05 0.10777)
(-9.36167e-05 -5.82477e-05 0.10777)
(0.000149549 -0.000149567 0.106584)
(-5.81965e-05 -9.37243e-05 0.10777)
(2.09876e-06 2.08477e-05 0.0947506)
(-2.85456e-06 3.83122e-05 0.0840942)
(2.81916e-06 7.04727e-05 0.094794)
(-5.23024e-06 -1.21847e-06 0.0840812)
(5.88286e-06 -4.87933e-06 0.0725369)
(2.0824e-05 2.08787e-06 0.0947508)
(3.83064e-05 -2.815e-06 0.0840946)
(7.04593e-05 2.8084e-06 0.0947941)
(-1.30642e-06 -5.3641e-06 0.0840817)
(-6.35349e-05 6.34777e-05 0.108289)
(6.34561e-05 -6.35223e-05 0.108289)
(-6.35416e-05 -6.35638e-05 0.108289)
(6.25702e-05 6.25693e-05 0.108526)
(-6.26018e-05 6.25426e-05 0.108526)
(6.25234e-05 -6.25811e-05 0.108526)
(-6.26056e-05 -6.26117e-05 0.108526)
(-6.21593e-05 6.44182e-06 0.103007)
(-9.50693e-05 5.89419e-05 0.107612)
(-3.03403e-05 2.11507e-06 0.0963724)
(-0.000104313 2.10942e-05 0.108126)
(1.63738e-05 -3.45596e-06 0.072507)
(-4.75765e-06 5.94111e-06 0.0725358)
(6.29948e-06 -6.20994e-05 0.103005)
(2.12296e-05 -0.000104785 0.108055)
(3.0955e-05 -7.5281e-05 0.0963605)
(5.88842e-05 -9.50556e-05 0.107612)
(7.59605e-06 -0.000126258 0.102968)
(2.10963e-05 -0.000104369 0.108126)
(2.21285e-06 -3.01755e-05 0.0963699)
(-1.41773e-05 -1.40344e-05 0.106681)
(-1.56818e-05 2.07954e-06 0.0899645)
(2.00664e-06 -1.5619e-05 0.0899617)
(1.61524e-06 1.5298e-05 0.0943847)
(-1.90231e-06 3.52076e-05 0.0838206)
(2.34933e-06 6.36329e-05 0.0944188)
(-4.57007e-06 -3.30479e-06 0.0838165)
(-3.48545e-06 1.55931e-05 0.0723249)
(5.60827e-06 -5.20335e-06 0.0723589)
(1.52711e-05 1.62863e-06 0.094385)
(3.52002e-05 -1.96516e-06 0.0838213)
(6.3639e-05 2.32536e-06 0.094419)
(-3.33767e-06 -4.52324e-06 0.0838171)
(-6.22963e-05 6.22366e-05 0.108604)
(6.22204e-05 -6.22719e-05 0.108604)
(-6.22979e-05 -6.22969e-05 0.108604)
(-5.54051e-05 5.28994e-06 0.102756)
(-6.98648e-05 2.83371e-05 0.0960263)
(-0.000103162 2.06619e-05 0.108337)
(-9.32174e-05 5.78616e-05 0.107821)
(-0.000118571 6.60319e-06 0.102726)
(-2.56302e-05 6.68443e-07 0.0960424)
(-0.000102783 2.05215e-05 0.108405)
(1.55652e-05 -3.50722e-06 0.0723247)
(-5.17352e-06 5.748e-06 0.0723578)
(5.16184e-06 -5.53924e-05 0.102754)
(2.06703e-05 -0.000103207 0.108336)
(2.84781e-05 -6.98337e-05 0.0960271)
(5.78376e-05 -9.31964e-05 0.107821)
(6.66535e-06 -0.000118633 0.102725)
(2.05286e-05 -0.000102801 0.108405)
(7.88931e-07 -2.54706e-05 0.0960401)
(-3.43741e-05 -1.82327e-05 0.0896679)
(-1.82892e-05 -3.42931e-05 0.0896673)
(-1.12766e-05 -1.11491e-05 0.106761)
(-1.3127e-05 2.70071e-06 0.0896666)
(2.61459e-06 -1.30365e-05 0.0896636)
(3.38884e-06 1.63151e-05 0.0725068)
(-6.08538e-06 -4.79855e-06 0.0725363)
(1.62958e-05 3.34356e-06 0.0725058)
(-4.98136e-06 -6.23354e-06 0.0725357)
(1.95023e-05 3.69337e-05 0.0899755)
(3.69177e-05 1.93832e-05 0.0899727)
(1.4024e-05 1.41349e-05 0.106682)
(-2.10885e-06 1.56438e-05 0.0899658)
(1.53929e-05 -2.13641e-06 0.0899633)
(-5.61458e-06 -4.98182e-06 0.0724451)
(3.49192e-06 1.60268e-05 0.0724135)
(-5.02403e-06 -5.86404e-06 0.0724448)
(1.58835e-05 3.34654e-06 0.0724124)
(0.000151001 0.000151024 0.10655)
(-2.29058e-06 1.43491e-05 0.0898131)
(1.4233e-05 -2.37005e-06 0.089811)
(1.88473e-05 3.5703e-05 0.0898188)
(3.55386e-05 1.87992e-05 0.0898158)
(-2.17182e-06 2.08348e-05 0.0947506)
(2.73396e-06 3.82056e-05 0.0840941)
(-2.92543e-06 7.04561e-05 0.0947941)
(5.07343e-06 -1.28469e-06 0.0840814)
(6.35288e-06 6.20783e-05 0.103006)
(3.08526e-05 7.53854e-05 0.0963595)
(2.12733e-05 0.000104696 0.108055)
(5.90697e-05 9.5057e-05 0.107612)
(7.50719e-06 0.000126265 0.102968)
(2.08429e-06 3.03241e-05 0.0963696)
(2.11337e-05 0.000104298 0.108126)
(-6.36702e-06 6.2063e-05 0.103006)
(-3.09258e-05 7.52871e-05 0.0963586)
(-2.12875e-05 0.00010472 0.108055)
(-5.91749e-05 9.51642e-05 0.107611)
(-7.59061e-06 0.000126264 0.102969)
(-2.26311e-06 3.024e-05 0.0963686)
(-2.11579e-05 0.000104317 0.108126)
(2.55457e-06 6.69209e-05 0.0946022)
(-4.68307e-06 -2.42674e-06 0.0839453)
(-2.26365e-06 3.67064e-05 0.0839538)
(1.83395e-06 1.7921e-05 0.0945635)
(-2.6702e-06 6.69126e-05 0.0946024)
(4.59303e-06 -2.35892e-06 0.0839454)
(2.21889e-06 3.66523e-05 0.0839541)
(-1.93144e-06 1.79298e-05 0.0945635)
(7.05707e-06 0.000122451 0.102849)
(5.88407e-05 9.46336e-05 0.107666)
(1.44452e-06 2.77628e-05 0.096202)
(2.08512e-05 0.000103539 0.108267)
(2.96462e-05 7.26031e-05 0.0961901)
(2.09937e-05 0.000103923 0.108197)
(5.74849e-06 5.86543e-05 0.102882)
(-7.11435e-06 0.000122447 0.102849)
(-5.8899e-05 9.47022e-05 0.107665)
(-1.51446e-06 2.78631e-05 0.0962008)
(-2.08719e-05 0.000103549 0.108267)
(-2.97138e-05 7.25572e-05 0.0961896)
(-2.10135e-05 0.000103933 0.108197)
(-5.75476e-06 5.86539e-05 0.102883)
(-1.4091e-05 1.40988e-05 0.106681)
(1.93328e-06 1.55615e-05 0.0899635)
(-1.57179e-05 -2.14074e-06 0.0899675)
(4.7307e-06 -5.98693e-06 0.0725388)
(5.67812e-06 -4.84719e-06 0.0724457)
(-3.51519e-06 1.59104e-05 0.0724136)
(-0.000151068 0.000150995 0.10655)
(2.36377e-06 1.44406e-05 0.0898108)
(-1.43746e-05 -2.46953e-06 0.0898149)
(-1.88994e-05 3.55816e-05 0.0898158)
(-3.56312e-05 1.8779e-05 0.0898173)
(4.98737e-06 -5.89169e-06 0.072448)
(-1.59783e-05 3.38292e-06 0.072411)
(6.2067e-05 6.31983e-06 0.103006)
(7.53165e-05 3.08481e-05 0.0963593)
(0.000104714 2.12382e-05 0.108055)
(9.50846e-05 5.89698e-05 0.107612)
(0.00012624 7.50031e-06 0.102968)
(3.01421e-05 2.01349e-06 0.096369)
(0.000104301 2.10964e-05 0.108126)
(2.08267e-05 -2.18022e-06 0.0947507)
(3.83083e-05 2.70045e-06 0.0840944)
(7.0463e-05 -2.91735e-06 0.0947939)
(-1.17952e-06 5.18213e-06 0.0840811)
(6.2075e-05 -6.38075e-06 0.103005)
(0.000104734 -2.1308e-05 0.108055)
(7.53478e-05 -3.09323e-05 0.0963593)
(9.50772e-05 -5.9099e-05 0.107611)
(0.000126232 -7.60649e-06 0.102968)
(0.000104315 -2.11754e-05 0.108126)
(3.03211e-05 -2.09115e-06 0.0963677)
(6.69217e-05 2.54604e-06 0.0946024)
(-2.37812e-06 -4.81082e-06 0.0839459)
(3.66555e-05 -2.35386e-06 0.0839542)
(1.79252e-05 1.85147e-06 0.0945637)
(0.000122419 7.03644e-06 0.102849)
(9.46485e-05 5.87358e-05 0.107666)
(2.77406e-05 1.38737e-06 0.0962016)
(0.00010354 2.08275e-05 0.108267)
(7.25508e-05 2.96199e-05 0.0961898)
(0.000103926 2.09619e-05 0.108197)
(5.86712e-05 5.71161e-06 0.102883)
(6.69188e-05 -2.66494e-06 0.0946022)
(-2.28512e-06 4.87047e-06 0.0839451)
(3.66965e-05 2.30276e-06 0.0839539)
(1.79299e-05 -1.89775e-06 0.0945635)
(0.000122422 -7.14383e-06 0.102849)
(9.46195e-05 -5.88409e-05 0.107665)
(0.000103536 -2.08853e-05 0.108267)
(2.78731e-05 -1.34074e-06 0.0962001)
(0.000103922 -2.10305e-05 0.108197)
(7.2571e-05 -2.96527e-05 0.0961898)
(5.86864e-05 -5.76288e-06 0.102882)
(-2.09077e-05 2.29302e-06 0.0947529)
(1.19466e-06 -5.21383e-06 0.0840841)
(-6.21242e-05 -6.29177e-06 0.103006)
(-9.50336e-05 -5.90655e-05 0.107612)
(-0.000104296 -2.11966e-05 0.108126)
(-3.03538e-05 -2.07916e-06 0.0963694)
(-2.088e-05 -1.99268e-06 0.0947512)
(1.15851e-06 5.24752e-06 0.084081)
(-0.00012239 7.05921e-06 0.10285)
(-9.46157e-05 5.8673e-05 0.107666)
(-2.79175e-05 1.3718e-06 0.0962048)
(-0.000103535 2.08054e-05 0.108267)
(-7.25023e-05 2.95382e-05 0.0961905)
(-0.000103921 2.09499e-05 0.108197)
(-5.87548e-05 5.85831e-06 0.102884)
(-6.68768e-05 2.60674e-06 0.094602)
(2.3047e-06 -4.9128e-06 0.0839482)
(-3.66783e-05 -2.33605e-06 0.0839537)
(-1.80199e-05 2.03105e-06 0.0945655)
(-0.000122416 -7.07895e-06 0.10285)
(-9.45624e-05 -5.88115e-05 0.107666)
(-0.000103525 -2.09046e-05 0.108267)
(-2.79988e-05 -1.34154e-06 0.0962018)
(-0.000103903 -2.10492e-05 0.108197)
(-7.25493e-05 -2.95889e-05 0.0961894)
(-5.86981e-05 -5.66319e-06 0.102883)
(-6.69175e-05 -2.57156e-06 0.0946024)
(2.27221e-06 4.92517e-06 0.0839451)
(-3.67755e-05 2.39859e-06 0.0839533)
(-1.80019e-05 -1.72981e-06 0.0945639)
(3.69751e-05 -1.94683e-05 0.0899735)
(1.95167e-05 -3.69123e-05 0.0899754)
(1.40821e-05 -1.40237e-05 0.106681)
(1.56583e-05 2.01797e-06 0.0899619)
(-1.93347e-06 -1.55907e-05 0.0899658)
(3.48402e-06 -1.63652e-05 0.072507)
(-5.87138e-06 4.82317e-06 0.0725366)
(-4.97865e-06 5.84318e-06 0.0724447)
(1.59554e-05 -3.4902e-06 0.0724137)
(0.000151025 -0.000151045 0.10655)
(1.43324e-05 2.33706e-06 0.0898092)
(-2.24454e-06 -1.42572e-05 0.0898132)
(3.56113e-05 -1.88591e-05 0.0898168)
(1.89068e-05 -3.55277e-05 0.0898186)
(-5.75933e-06 5.04898e-06 0.0724456)
(3.52538e-06 -1.59515e-05 0.0724138)
(-6.38842e-06 -6.21216e-05 0.103006)
(-2.13113e-05 -0.000104752 0.108055)
(-3.09637e-05 -7.53787e-05 0.0963589)
(-5.89691e-05 -9.51132e-05 0.107612)
(-7.54095e-06 -0.000126237 0.102967)
(-2.11692e-05 -0.000104325 0.108126)
(-2.15995e-06 -3.02071e-05 0.0963679)
(2.14534e-06 -2.08945e-05 0.0947507)
(-2.65192e-06 -3.82671e-05 0.084095)
(2.92802e-06 -7.04639e-05 0.0947936)
(-5.07275e-06 1.29087e-06 0.0840817)
(-2.11994e-06 -2.08716e-05 0.0947509)
(2.68915e-06 -3.83045e-05 0.0840942)
(-2.84111e-06 -7.04631e-05 0.0947927)
(5.15325e-06 1.21213e-06 0.0840808)
(7.1119e-06 -0.000122439 0.102849)
(5.86378e-05 -9.45975e-05 0.107666)
(2.08142e-05 -0.000103564 0.108267)
(1.47564e-06 -2.7741e-05 0.0962023)
(2.09583e-05 -0.00010398 0.108197)
(2.96768e-05 -7.24762e-05 0.0961911)
(5.7353e-06 -5.87301e-05 0.102882)
(-7.07943e-06 -0.000122414 0.102848)
(-5.87303e-05 -9.46499e-05 0.107666)
(-2.08944e-05 -0.000103538 0.108267)
(-1.415e-06 -2.77416e-05 0.0962003)
(-2.10293e-05 -0.000103951 0.108197)
(-2.96922e-05 -7.25631e-05 0.0961897)
(-5.75902e-06 -5.8726e-05 0.102883)
(2.68667e-06 -6.6916e-05 0.0946019)
(-4.74703e-06 2.39646e-06 0.0839459)
(-2.25026e-06 -3.66514e-05 0.0839547)
(1.89185e-06 -1.79992e-05 0.0945636)
(-2.58077e-06 -6.69124e-05 0.094601)
(4.83884e-06 2.31269e-06 0.083945)
(2.3044e-06 -3.66764e-05 0.0839539)
(-1.84661e-06 -1.79745e-05 0.0945638)
(4.74075e-06 6.00346e-06 0.0725361)
(5.94786e-06 4.76458e-06 0.0725354)
(-0.000151105 -0.000151072 0.10655)
(-1.43628e-05 2.41246e-06 0.089812)
(2.32395e-06 -1.42708e-05 0.089809)
(-3.56641e-05 -1.88096e-05 0.0898171)
(-1.88727e-05 -3.55975e-05 0.0898163)
(4.97243e-06 5.89908e-06 0.072445)
(-1.60243e-05 -3.3996e-06 0.0724129)
(5.84184e-06 4.97921e-06 0.0724443)
(-3.49375e-06 -1.59532e-05 0.0724132)
(3.60019e-06 1.56602e-05 0.0723245)
(-5.72461e-06 -5.21339e-06 0.0723584)
(1.55611e-05 3.4901e-06 0.0723238)
(-5.2539e-06 -5.69949e-06 0.0723581)
(1.82953e-05 3.44612e-05 0.0896698)
(3.42766e-05 1.83092e-05 0.0896668)
(1.1163e-05 1.1282e-05 0.106762)
(-2.57259e-06 1.30592e-05 0.0896675)
(1.2995e-05 -2.55658e-06 0.0896656)
(-1.67304e-06 1.52942e-05 0.0943847)
(1.93517e-06 3.51987e-05 0.0838213)
(-2.42573e-06 6.36365e-05 0.094419)
(4.45402e-06 -3.34425e-06 0.0838166)
(5.15687e-06 5.53065e-05 0.102755)
(2.84962e-05 6.99887e-05 0.0960261)
(2.07084e-05 0.000103179 0.108337)
(5.80462e-05 9.32643e-05 0.107821)
(6.59239e-06 0.000118619 0.102725)
(7.22316e-07 2.55408e-05 0.0960396)
(2.05663e-05 0.000102801 0.108405)
(-5.16206e-06 5.53075e-05 0.102755)
(-2.84785e-05 6.99165e-05 0.0960259)
(-2.0726e-05 0.000103178 0.108337)
(-5.80859e-05 9.32791e-05 0.107821)
(-6.64348e-06 0.000118637 0.102725)
(-8.0287e-07 2.55413e-05 0.0960385)
(-2.05833e-05 0.000102798 0.108405)
(-1.81388e-05 3.42837e-05 0.0896667)
(-3.43333e-05 1.81817e-05 0.0896681)
(-1.11996e-05 1.11992e-05 0.106761)
(2.47715e-06 1.30465e-05 0.0896656)
(-1.3133e-05 -2.7425e-06 0.0896694)
(-1.5551e-05 3.38914e-06 0.0723221)
(5.21274e-06 -5.78972e-06 0.0723611)
(5.53366e-05 5.11878e-06 0.102755)
(6.98996e-05 2.84796e-05 0.0960258)
(0.000103169 2.06913e-05 0.108337)
(9.32567e-05 5.7943e-05 0.107821)
(0.0001186 6.56778e-06 0.102724)
(2.54642e-05 7.58341e-07 0.0960395)
(0.00010278 2.05453e-05 0.108405)
(1.52626e-05 -1.64931e-06 0.0943847)
(3.52284e-05 1.98977e-06 0.0838209)
(6.3644e-05 -2.39963e-06 0.0944188)
(-3.23055e-06 4.61093e-06 0.0838161)
(5.53476e-05 -5.16399e-06 0.102755)
(0.000103158 -2.07352e-05 0.108337)
(6.99244e-05 -2.84589e-05 0.0960256)
(9.32222e-05 -5.80103e-05 0.107821)
(0.000118611 -6.65944e-06 0.102724)
(0.000102777 -2.05917e-05 0.108405)
(2.55715e-05 -6.47276e-07 0.0960379)
(-1.53581e-05 1.79784e-06 0.0943864)
(-3.52055e-05 -2.02172e-06 0.0838205)
(-6.36123e-05 2.3658e-06 0.0944185)
(3.27743e-06 -4.64205e-06 0.0838191)
(-5.53367e-05 -5.06447e-06 0.102755)
(-0.000103148 -2.07467e-05 0.108337)
(-6.99294e-05 -2.83872e-05 0.0960253)
(-9.3137e-05 -5.79586e-05 0.107821)
(-0.000118585 -6.57492e-06 0.102725)
(-0.000102776 -2.06048e-05 0.108405)
(-2.57179e-05 -6.3873e-07 0.0960396)
(-1.53474e-05 -1.48201e-06 0.094385)
(-3.53088e-05 2.07418e-06 0.0838203)
(-6.36473e-05 -2.31882e-06 0.0944189)
(3.25115e-06 4.66026e-06 0.0838162)
(3.43197e-05 -1.8272e-05 0.0896676)
(1.83229e-05 -3.42307e-05 0.0896694)
(1.11801e-05 -1.11042e-05 0.106761)
(1.30994e-05 2.61536e-06 0.0896637)
(-2.5384e-06 -1.30301e-05 0.0896678)
(3.54744e-06 -1.55626e-05 0.0723249)
(-5.66573e-06 5.24266e-06 0.0723587)
(-5.15781e-06 -5.5387e-05 0.102755)
(-2.07452e-05 -0.000103187 0.108336)
(-2.84909e-05 -6.98889e-05 0.0960257)
(-5.79155e-05 -9.32437e-05 0.107821)
(-6.57738e-06 -0.000118586 0.102724)
(-2.06011e-05 -0.000102778 0.108405)
(-7.13418e-07 -2.54354e-05 0.0960381)
(1.66822e-06 -1.53476e-05 0.0943849)
(-1.92463e-06 -3.51866e-05 0.0838217)
(2.44723e-06 -6.3627e-05 0.0944185)
(-4.4948e-06 3.35393e-06 0.0838171)
(-1.58967e-06 -1.53105e-05 0.0943851)
(1.98553e-06 -3.52153e-05 0.0838209)
(-2.33013e-06 -6.36224e-05 0.0944177)
(4.58991e-06 3.24688e-06 0.0838161)
(-1.56224e-05 -3.42587e-06 0.072324)
(5.17735e-06 5.79275e-06 0.0723582)
(-3.5123e-06 -1.55678e-05 0.0723243)
(5.75251e-06 5.16696e-06 0.0723574)
(-1.15854e-06 1.33313e-05 0.0780378)
(2.6747e-06 6.86582e-05 0.0946971)
(2.16684e-07 -1.0282e-05 0.0799116)
(4.18574e-06 1.39331e-05 0.0928156)
(7.58623e-08 8.38767e-06 0.079852)
(6.41172e-06 5.91582e-05 0.0927529)
(1.56511e-07 -6.15242e-06 0.0781083)
(2.30729e-06 -6.67669e-06 0.069421)
(5.32151e-06 3.91986e-05 0.088075)
(-5.61537e-06 -6.28201e-07 0.084152)
(8.60426e-07 1.24794e-05 0.0693264)
(3.68901e-06 3.65886e-06 0.0881436)
(-1.04619e-07 -6.25317e-06 0.0781569)
(2.23517e-06 2.23968e-05 0.0948474)
(-1.26736e-08 8.16428e-06 0.0799007)
(6.64347e-06 6.06843e-05 0.092843)
(-1.39164e-06 1.32515e-05 0.0780866)
(1.38692e-07 -1.05149e-05 0.07996)
(4.38663e-06 1.52208e-05 0.0929052)
(8.87736e-07 1.2362e-05 0.0692831)
(3.63545e-06 2.91703e-06 0.0880642)
(-2.55794e-06 3.75157e-05 0.084023)
(5.26783e-06 3.82614e-05 0.0879951)
(2.38078e-06 -6.71253e-06 0.0693774)
(5.95915e-06 -4.76323e-06 0.0725842)
(-3.43819e-06 1.61187e-05 0.0724593)
(1.33369e-05 -1.07342e-06 0.0780386)
(6.86625e-05 2.67625e-06 0.0946972)
(1.3914e-05 4.16763e-06 0.0928159)
(-1.02827e-05 2.35371e-07 0.0799124)
(5.91676e-05 6.43427e-06 0.0927533)
(8.38524e-06 1.16436e-07 0.0798526)
(-6.17207e-06 1.32521e-07 0.0781092)
(-6.73891e-06 2.34913e-06 0.0694219)
(3.91771e-05 5.39519e-06 0.0880755)
(-6.45476e-07 -5.35376e-06 0.0841524)
(1.25013e-05 9.09925e-07 0.0693274)
(3.56484e-06 3.77323e-06 0.0881441)
(-6.26369e-06 -8.29893e-08 0.0781578)
(2.23761e-05 2.23051e-06 0.0948475)
(6.06707e-05 6.64403e-06 0.0928433)
(8.16483e-06 1.60317e-08 0.0799013)
(1.32609e-05 -1.34834e-06 0.0780873)
(1.52059e-05 4.40146e-06 0.0929055)
(-1.05176e-05 1.61774e-07 0.0799608)
(1.24038e-05 9.76846e-07 0.0692842)
(2.8457e-06 3.60306e-06 0.0880649)
(3.74502e-05 -2.66283e-06 0.0840235)
(3.82641e-05 5.24244e-06 0.0879958)
(-6.79558e-06 2.36306e-06 0.0693784)
(-4.63426e-06 6.00062e-06 0.072583)
(1.61597e-05 -3.47629e-06 0.0724598)
(-2.75809e-05 -2.74998e-05 0.0856508)
(-4.39696e-07 6.3306e-06 0.0695837)
(6.24665e-06 -3.70914e-07 0.069577)
(-1.00846e-05 -1.19675e-05 0.0695012)
(-1.20167e-05 -1.0052e-05 0.069495)
(-8.54249e-06 -8.4442e-06 0.0857041)
(-1.61938e-05 -2.08611e-05 0.0946916)
(-1.63752e-05 1.91253e-06 0.0900437)
(-3.28722e-05 -3.54289e-05 0.10001)
(-1.24918e-05 7.05804e-06 0.0834761)
(-2.0902e-05 -1.60931e-05 0.0946829)
(1.83575e-06 -1.63405e-05 0.0900409)
(-3.53941e-05 -3.28531e-05 0.100006)
(6.98662e-06 -1.24166e-05 0.08347)
(-9.01822e-06 -8.90439e-06 0.0857765)
(-6.10659e-07 6.32667e-06 0.0696321)
(6.2351e-06 -5.32114e-07 0.0696254)
(-6.92603e-05 -4.42445e-05 0.0945369)
(-1.20156e-05 6.9457e-06 0.0834102)
(-3.63341e-05 -1.91105e-05 0.0898945)
(-3.17011e-05 -3.41631e-05 0.0999312)
(-9.96556e-05 -6.26641e-05 0.0998519)
(-3.08334e-05 -5.71273e-06 0.0833397)
(-1.53775e-05 -1.99384e-05 0.094608)
(-4.43214e-05 -6.91902e-05 0.0945291)
(6.87642e-06 -1.19234e-05 0.083404)
(-1.91796e-05 -3.62867e-05 0.0898936)
(-3.41197e-05 -3.16595e-05 0.099927)
(-6.27171e-05 -9.96295e-05 0.0998488)
(-5.79248e-06 -3.08488e-05 0.0833354)
(-1.99504e-05 -1.52687e-05 0.0945993)
(-2.71345e-07 1.35877e-05 0.0778564)
(2.22463e-06 6.21003e-05 0.0943303)
(3.93699e-07 -9.1512e-06 0.0797342)
(3.40797e-06 9.47603e-06 0.0924792)
(3.36837e-07 9.42012e-06 0.079674)
(5.70932e-06 5.37486e-05 0.0924154)
(7.88997e-07 -5.8191e-06 0.0779269)
(2.42722e-06 -6.99474e-06 0.0692531)
(4.9253e-06 3.57789e-05 0.0877687)
(-4.61172e-06 -2.80164e-06 0.08388)
(1.03508e-06 1.19858e-05 0.0691597)
(3.21705e-06 9.8833e-07 0.087839)
(6.97911e-07 -5.89361e-06 0.0779703)
(1.7567e-06 1.65846e-05 0.094473)
(3.10726e-07 9.14139e-06 0.0797162)
(5.881e-06 5.50194e-05 0.0924964)
(-4.89075e-07 1.3521e-05 0.0778997)
(4.01276e-07 -9.44801e-06 0.0797763)
(3.63552e-06 1.05239e-05 0.09256)
(1.17614e-06 1.20018e-05 0.0691211)
(3.02101e-06 4.02872e-07 0.0877681)
(-1.84389e-06 3.45547e-05 0.0837569)
(4.78839e-06 3.51127e-05 0.0876975)
(2.42603e-06 -7.01975e-06 0.0692139)
(5.69533e-06 -5.10521e-06 0.0724015)
(-3.66344e-06 1.54993e-05 0.0722817)
(1.35778e-05 -2.53985e-07 0.0778572)
(6.20931e-05 2.22048e-06 0.0943305)
(9.47129e-06 3.42975e-06 0.0924798)
(-9.14109e-06 4.36706e-07 0.079735)
(5.3736e-05 5.70537e-06 0.0924159)
(9.42927e-06 3.61696e-07 0.0796746)
(-5.82444e-06 8.35074e-07 0.0779278)
(-6.96659e-06 2.49877e-06 0.0692544)
(3.5813e-05 4.96929e-06 0.0877697)
(-2.86266e-06 -4.65594e-06 0.0838807)
(1.21042e-05 1.18598e-06 0.0691612)
(9.24425e-07 3.23753e-06 0.0878399)
(-5.91061e-06 6.96807e-07 0.0779713)
(1.65651e-05 1.7351e-06 0.0944733)
(5.50127e-05 5.87471e-06 0.092497)
(9.1564e-06 3.16539e-07 0.0797168)
(1.35298e-05 -4.24561e-07 0.0779006)
(1.04969e-05 3.60731e-06 0.0925606)
(-9.44028e-06 4.01797e-07 0.0797772)
(1.20078e-05 1.24138e-06 0.0691222)
(3.60972e-07 3.09441e-06 0.087769)
(3.45219e-05 -1.81801e-06 0.0837574)
(3.50582e-05 4.85042e-06 0.0876985)
(-7.01842e-06 2.51271e-06 0.0692151)
(-5.07915e-06 5.7978e-06 0.0724007)
(1.53806e-05 -3.50979e-06 0.0722818)
(-2.55966e-05 -2.55327e-05 0.0853785)
(2.28812e-07 6.25617e-06 0.0694008)
(6.21513e-06 2.62285e-07 0.0693942)
(-9.46866e-06 -1.16832e-05 0.0693187)
(-1.16835e-05 -9.47033e-06 0.0693125)
(-6.79389e-06 -6.71336e-06 0.0854335)
(-1.30363e-05 -1.73816e-05 0.0943685)
(-9.53906e-05 -5.89392e-05 0.099621)
(-2.94236e-05 -5.93694e-06 0.0831504)
(-1.37249e-05 2.56457e-06 0.0897384)
(-6.61288e-05 -4.14653e-05 0.0942968)
(-2.83961e-05 -3.06443e-05 0.0996999)
(-1.05871e-05 6.59402e-06 0.0832212)
(-1.73517e-05 -1.28802e-05 0.0943597)
(-5.89785e-05 -9.52952e-05 0.099618)
(-5.99493e-06 -2.94198e-05 0.0831462)
(2.46734e-06 -1.3643e-05 0.0897354)
(-4.15365e-05 -6.60545e-05 0.0942891)
(-3.05381e-05 -2.82844e-05 0.0996955)
(6.54372e-06 -1.04903e-05 0.0832151)
(-7.20916e-06 -7.11954e-06 0.0854984)
(-9.62176e-06 -1.17467e-05 0.0693628)
(-1.1764e-05 -9.6114e-06 0.0693566)
(-2.60706e-05 -2.60043e-05 0.0854438)
(6.99924e-08 6.27791e-06 0.0694449)
(6.22624e-06 1.1493e-07 0.0694383)
(-6.516e-05 -4.06153e-05 0.0942204)
(-1.01234e-05 6.4901e-06 0.083161)
(-3.37577e-05 -1.79592e-05 0.089596)
(-2.73457e-05 -2.95164e-05 0.0996244)
(-9.40078e-05 -5.77523e-05 0.0995456)
(-2.89444e-05 -5.99623e-06 0.0830902)
(-1.22706e-05 -1.65569e-05 0.0942922)
(-4.06807e-05 -6.50712e-05 0.0942127)
(6.45715e-06 -1.00273e-05 0.083155)
(-1.80071e-05 -3.36729e-05 0.0895954)
(-2.93961e-05 -2.72076e-05 0.09962)
(-5.77884e-05 -9.39078e-05 0.0995427)
(-6.0471e-06 -2.89536e-05 0.083086)
(-1.65565e-05 -1.21397e-05 0.0942834)
(-6.30188e-06 -4.86941e-06 0.0725836)
(3.38138e-06 1.61433e-05 0.0724593)
(-4.53828e-06 -6.0108e-06 0.0725831)
(1.61216e-05 3.31961e-06 0.0724588)
(2.74346e-05 2.75234e-05 0.0856508)
(-6.28521e-06 4.24185e-07 0.0695846)
(2.89202e-07 -6.16853e-06 0.0695777)
(1.19003e-05 1.00477e-05 0.0695014)
(1.00248e-05 1.19878e-05 0.0694947)
(8.37928e-06 8.51597e-06 0.0857055)
(2.07879e-05 1.60342e-05 0.0946929)
(6.40138e-05 0.000101101 0.0999311)
(5.74968e-06 3.13228e-05 0.0834075)
(-2.00188e-06 1.61926e-05 0.0900449)
(4.51803e-05 7.03256e-05 0.0946213)
(-7.13992e-06 1.2371e-05 0.0834778)
(3.53332e-05 3.2781e-05 0.100011)
(1.61059e-05 2.07363e-05 0.0946847)
(0.000100972 6.39112e-05 0.0999268)
(3.12332e-05 5.59183e-06 0.0834012)
(1.63682e-05 -1.94741e-06 0.0900427)
(7.01599e-05 4.52134e-05 0.0946125)
(1.24105e-05 -7.1579e-06 0.0834718)
(3.27688e-05 3.53048e-05 0.100007)
(8.79119e-06 8.75579e-06 0.085778)
(1.21479e-05 1.04084e-05 0.0695503)
(1.01153e-05 1.21086e-05 0.0695434)
(2.79221e-05 2.81579e-05 0.0857239)
(-6.39829e-06 3.98519e-07 0.0696334)
(4.14433e-07 -6.549e-06 0.0696263)
(4.41928e-05 6.92194e-05 0.0945374)
(-6.8717e-06 1.19662e-05 0.0834117)
(1.90968e-05 3.63279e-05 0.089896)
(3.4104e-05 3.16733e-05 0.0999321)
(5.65535e-06 3.08224e-05 0.083341)
(1.99458e-05 1.53338e-05 0.0946093)
(6.26652e-05 9.96831e-05 0.0998526)
(6.90947e-05 4.42443e-05 0.0945288)
(1.18355e-05 -6.8115e-06 0.0834058)
(3.61593e-05 1.90959e-05 0.0898934)
(3.15481e-05 3.40773e-05 0.0999287)
(3.07775e-05 5.78983e-06 0.0833352)
(1.52074e-05 1.99347e-05 0.0946011)
(9.94573e-05 6.26021e-05 0.0998484)
(3.5328e-06 1.58042e-05 0.0723684)
(-6.02838e-06 -4.95557e-06 0.0724903)
(1.57523e-05 3.45179e-06 0.0723677)
(-4.90743e-06 -5.94132e-06 0.0724897)
(7.97118e-06 8.02289e-06 0.0856351)
(1.18889e-05 9.98171e-06 0.0694543)
(9.88274e-06 1.20183e-05 0.0694475)
(2.69604e-05 2.7102e-05 0.08558)
(-6.26607e-06 2.23212e-07 0.0695374)
(1.70094e-07 -6.26582e-06 0.0695304)
(4.23914e-05 6.72121e-05 0.0943758)
(3.17553e-05 2.94635e-05 0.0997771)
(1.85535e-05 3.50592e-05 0.0897433)
(-6.66861e-06 1.10616e-05 0.0832843)
(5.90365e-06 2.99292e-05 0.0832137)
(6.01909e-05 9.68499e-05 0.0996982)
(1.82059e-05 1.37978e-05 0.0944477)
(6.70571e-05 4.24623e-05 0.094367)
(2.93742e-05 3.17319e-05 0.0997738)
(3.49194e-05 1.85381e-05 0.0897405)
(1.0936e-05 -6.64121e-06 0.0832785)
(2.98582e-05 5.9786e-06 0.0832075)
(9.66491e-05 6.01633e-05 0.0996938)
(1.36695e-05 1.82004e-05 0.0944396)
(1.90638e-05 1.45172e-05 0.0945276)
(5.84936e-06 3.03898e-05 0.0832766)
(6.14214e-05 9.82628e-05 0.0997751)
(-2.25504e-06 1.49143e-05 0.0898884)
(4.32916e-05 6.82219e-05 0.0944556)
(-6.73888e-06 1.14739e-05 0.0833473)
(3.28935e-05 3.05244e-05 0.0998542)
(1.44742e-05 1.90424e-05 0.0945195)
(3.02985e-05 5.89371e-06 0.0832704)
(9.80798e-05 6.13884e-05 0.0997707)
(1.49114e-05 -2.25046e-06 0.0898862)
(6.80512e-05 4.33679e-05 0.094447)
(1.14406e-05 -6.74723e-06 0.0833414)
(3.04873e-05 3.28874e-05 0.0998509)
(2.64945e-05 2.66036e-05 0.0855111)
(-6.3962e-06 7.32326e-08 0.0694912)
(-2.14709e-08 -6.26521e-06 0.0694842)
(1.18273e-05 9.81739e-06 0.0694084)
(9.77244e-06 1.19206e-05 0.0694015)
(7.48212e-06 7.59774e-06 0.0855666)
(8.78492e-07 1.33212e-05 0.0780376)
(-2.80736e-06 6.86514e-05 0.0946972)
(-3.43586e-07 -1.02937e-05 0.0799115)
(-4.26311e-06 1.39002e-05 0.0928152)
(-2.61349e-07 8.37469e-06 0.079852)
(-6.57076e-06 5.91474e-05 0.0927539)
(-2.86261e-07 -6.18461e-06 0.0781078)
(-2.46535e-06 -6.74788e-06 0.0694232)
(-5.47923e-06 3.9125e-05 0.0880767)
(5.29076e-06 -6.79213e-07 0.0841521)
(-9.84059e-07 1.24372e-05 0.0693296)
(-3.89332e-06 3.58429e-06 0.0881439)
(-5.60312e-08 -6.26693e-06 0.0781564)
(-2.31041e-06 2.23784e-05 0.0948473)
(-1.52416e-07 8.15502e-06 0.0799007)
(-6.75007e-06 6.06537e-05 0.0928439)
(-2.76021e-07 -1.0526e-05 0.0799599)
(1.23399e-06 1.32332e-05 0.0780863)
(-4.49321e-06 1.52006e-05 0.0929048)
(-1.13433e-06 1.24375e-05 0.0692863)
(-3.74532e-06 2.85829e-06 0.0880647)
(2.42929e-06 3.7463e-05 0.0840232)
(-5.44056e-06 3.82932e-05 0.087997)
(-2.52073e-06 -6.77057e-06 0.0693799)
(3.47892e-07 -6.0698e-06 0.078061)
(1.5144e-07 8.62745e-06 0.0798051)
(6.21863e-06 5.76995e-05 0.0926652)
(1.96495e-06 1.93608e-05 0.094656)
(-9.34939e-07 1.33927e-05 0.0779905)
(2.61841e-07 -1.00244e-05 0.0798649)
(3.96442e-06 1.27073e-05 0.0927282)
(9.69404e-07 1.21522e-05 0.0692002)
(-1.99802e-06 3.59219e-05 0.0838865)
(3.31918e-06 1.32646e-06 0.0879119)
(2.17556e-06 -7.20405e-06 0.0692935)
(5.09389e-06 3.6474e-05 0.0878422)
(2.41186e-06 -6.75199e-06 0.0693351)
(5.19277e-06 3.73651e-05 0.0879176)
(-5.03849e-06 -1.80138e-06 0.0840124)
(9.44733e-07 1.22113e-05 0.069241)
(3.50269e-06 2.29199e-06 0.0879872)
(-7.67356e-07 1.34458e-05 0.0779445)
(2.42732e-06 6.52439e-05 0.0945095)
(2.91273e-07 -9.75474e-06 0.0798199)
(3.71964e-06 1.1536e-05 0.092643)
(3.01041e-07 -6.04384e-06 0.078015)
(1.97724e-07 8.89178e-06 0.0797599)
(5.98661e-06 5.62936e-05 0.0925797)
(-4.62964e-07 -6.107e-06 0.0780605)
(-3.17252e-07 8.62117e-06 0.0798052)
(-6.34524e-06 5.76894e-05 0.0926662)
(-2.04348e-06 1.93556e-05 0.094656)
(7.07628e-07 1.33696e-05 0.0779903)
(-4.01634e-07 -1.00295e-05 0.0798649)
(-4.05875e-06 1.26835e-05 0.0927278)
(-1.21886e-06 1.21762e-05 0.0692032)
(2.02926e-06 3.59282e-05 0.0838868)
(-3.53098e-06 1.5166e-06 0.0879126)
(-5.19417e-06 3.65778e-05 0.0878441)
(-2.59545e-06 -6.93497e-06 0.0692961)
(-2.54017e-06 -6.86465e-06 0.0693374)
(-5.29901e-06 3.73814e-05 0.0879195)
(4.88306e-06 -1.86169e-06 0.0840124)
(-1.14995e-06 1.22743e-05 0.0692442)
(-3.6004e-06 2.17165e-06 0.0879876)
(4.95907e-07 1.34412e-05 0.0779444)
(-2.54317e-06 6.52429e-05 0.0945097)
(-4.72902e-07 -9.75674e-06 0.0798199)
(-3.88315e-06 1.15482e-05 0.0926428)
(-3.71683e-07 8.88571e-06 0.07976)
(-6.15749e-06 5.6306e-05 0.0925807)
(-6.62469e-07 -6.0106e-06 0.0780146)
(-2.76174e-05 2.74793e-05 0.0856512)
(6.20612e-06 2.75432e-07 0.0695784)
(-4.76762e-07 -6.40605e-06 0.0695839)
(-1.20981e-05 1.00458e-05 0.0694954)
(-1.00863e-05 1.19404e-05 0.069501)
(-8.58232e-06 8.33034e-06 0.0857052)
(-2.09396e-05 1.60389e-05 0.0946841)
(1.77116e-06 1.62652e-05 0.0900426)
(6.90353e-06 1.23692e-05 0.0834716)
(-3.54837e-05 3.27882e-05 0.100007)
(-1.62165e-05 2.07899e-05 0.0946933)
(-1.64154e-05 -1.95604e-06 0.0900465)
(-3.2937e-05 3.53256e-05 0.100012)
(-1.25062e-05 -7.13613e-06 0.0834778)
(-9.05711e-06 8.80339e-06 0.0857776)
(6.18132e-06 4.44277e-07 0.0696268)
(-6.517e-07 -6.40314e-06 0.0696323)
(-4.43648e-05 6.91288e-05 0.0945287)
(6.78418e-06 1.19099e-05 0.0834059)
(-1.91903e-05 3.62521e-05 0.089893)
(-3.42326e-05 3.16154e-05 0.099928)
(-5.86573e-06 3.077e-05 0.0833347)
(-6.27069e-05 9.95728e-05 0.0998483)
(-2.00141e-05 1.52202e-05 0.0946006)
(-6.92588e-05 4.4225e-05 0.0945377)
(-1.20362e-05 -7.02514e-06 0.0834119)
(-3.62888e-05 1.91003e-05 0.0898949)
(-3.1767e-05 3.4054e-05 0.0999333)
(-9.95985e-05 6.26456e-05 0.0998527)
(-3.08104e-05 5.72131e-06 0.0833406)
(-1.53878e-05 1.98624e-05 0.0946096)
(4.61041e-06 -6.0481e-06 0.0725858)
(-1.61758e-05 3.37966e-06 0.0724574)
(-3.52854e-06 1.57619e-05 0.0723686)
(5.79986e-06 -4.97335e-06 0.0724905)
(-8.12344e-06 7.80895e-06 0.0856347)
(-1.20104e-05 9.90746e-06 0.0694482)
(-9.94821e-06 1.18493e-05 0.0694538)
(-2.71113e-05 2.69706e-05 0.0855803)
(6.24463e-06 6.18451e-08 0.0695312)
(-3.26476e-07 -6.4144e-06 0.0695366)
(-4.24888e-05 6.70083e-05 0.0943668)
(-3.1796e-05 2.93576e-05 0.099773)
(-1.85769e-05 3.49643e-05 0.0897403)
(6.6833e-06 1.0973e-05 0.0832788)
(-6.01716e-05 9.67003e-05 0.0996936)
(-5.97354e-06 2.98251e-05 0.0832069)
(-1.82172e-05 1.35789e-05 0.0944391)
(-6.71685e-05 4.23216e-05 0.094376)
(-2.95287e-05 3.16409e-05 0.0997783)
(-3.49488e-05 1.8469e-05 0.0897418)
(-1.10788e-05 -6.82225e-06 0.0832844)
(-2.98898e-05 5.84469e-06 0.0832129)
(-9.67504e-05 6.01111e-05 0.0996981)
(-1.38069e-05 1.80727e-05 0.094448)
(-1.91155e-05 1.44012e-05 0.0945189)
(-5.93234e-06 3.02947e-05 0.08327)
(-6.14374e-05 9.8121e-05 0.0997706)
(2.12621e-06 1.4924e-05 0.0898861)
(-3.30138e-05 3.04824e-05 0.0998501)
(-4.34133e-05 6.80608e-05 0.0944468)
(6.72485e-06 1.14241e-05 0.0833416)
(-1.45983e-05 1.89492e-05 0.0945278)
(-3.03526e-05 5.79525e-06 0.083276)
(-9.81827e-05 6.13832e-05 0.099775)
(-1.50388e-05 -2.29975e-06 0.0898904)
(-6.82082e-05 4.32722e-05 0.094456)