/*--------------------------------*- C++ -*----------------------------------*\
| =========                 |                                                 |
| \\      /  F ield         | OpenFOAM: The Open Source CFD Toolbox           |
|  \\    /   O peration     | Version:  2312                                  |
|   \\  /    A nd           | Website:  www.openfoam.com                      |
|    \\/     M anipulation  |                                                 |
\*---------------------------------------------------------------------------*/
FoamFile
{
    version     2.0;
    format      ascii;
    arch        "LSB;label=32;scalar=64";
    class       volScalarField;
    location    "450";
    object      k;
}
// * * * * * * * * * * * * * * * * * * * * * * * * * * * * * * * * * * * * * //

dimensions      [0 2 -2 0 0 0 0];

internalField   nonuniform List<scalar> 
43168
(
3.91944e-05
5.15787e-05
5.15822e-05
5.36723e-05
5.36205e-05
5.15252e-05
5.15202e-05
5.36095e-05
5.15225e-05
5.15236e-05
5.15244e-05
5.15246e-05
5.36248e-05
5.15279e-05
5.15223e-05
5.36122e-05
5.36606e-05
5.15795e-05
5.15746e-05
5.36679e-05
5.15769e-05
5.15779e-05
5.15788e-05
5.3663e-05
5.15766e-05
7.34438e-05
7.34445e-05
3.90991e-05
3.90985e-05
3.91033e-05
3.91022e-05
6.86294e-05
7.34753e-05
6.86065e-05
7.34997e-05
7.12227e-05
7.12476e-05
6.86272e-05
7.34768e-05
6.86065e-05
7.35012e-05
3.91935e-05
3.91986e-05
3.91971e-05
6.07206e-05
6.48327e-05
4.69225e-05
5.16306e-05
6.06858e-05
6.48569e-05
4.69889e-05
7.1224e-05
7.12485e-05
6.0722e-05
4.69253e-05
6.48327e-05
5.16342e-05
6.06834e-05
4.69916e-05
6.48575e-05
6.99673e-05
6.99756e-05
5.36957e-05
6.99826e-05
6.99904e-05
7.11936e-05
7.11965e-05
5.3535e-05
6.99378e-05
6.99459e-05
7.12202e-05
7.1195e-05
7.12231e-05
7.1198e-05
5.3573e-05
6.99627e-05
6.99707e-05
6.99465e-05
6.99542e-05
5.14135e-05
6.47953e-05
6.85791e-05
7.34722e-05
7.34471e-05
6.86039e-05
6.85773e-05
7.34686e-05
7.34438e-05
6.86018e-05
6.06373e-05
5.14703e-05
6.4827e-05
4.68528e-05
6.48006e-05
4.67832e-05
6.06784e-05
6.06353e-05
5.14637e-05
6.48225e-05
4.68502e-05
6.47967e-05
4.67803e-05
6.06764e-05
7.12215e-05
7.11961e-05
5.35836e-05
6.99627e-05
6.99633e-05
6.99462e-05
7.12213e-05
5.14108e-05
6.47968e-05
6.85795e-05
7.34734e-05
7.34498e-05
6.86014e-05
6.06386e-05
5.14677e-05
6.48285e-05
4.68521e-05
6.48025e-05
4.67824e-05
6.06755e-05
6.8578e-05
7.34683e-05
7.34456e-05
6.85998e-05
6.06373e-05
5.14687e-05
4.68528e-05
6.48246e-05
4.67831e-05
6.47989e-05
6.06741e-05
6.48273e-05
4.68533e-05
6.06756e-05
7.34714e-05
6.85994e-05
4.68541e-05
6.48237e-05
6.06757e-05
7.34687e-05
6.86004e-05
7.12224e-05
7.11974e-05
5.35781e-05
6.99653e-05
6.99623e-05
6.99497e-05
6.99466e-05
7.12209e-05
7.11959e-05
6.06357e-05
5.14729e-05
4.68563e-05
6.48277e-05
4.67868e-05
6.48015e-05
6.06771e-05
6.06336e-05
5.14676e-05
4.68543e-05
6.48261e-05
4.67847e-05
6.47997e-05
6.06746e-05
6.85758e-05
7.34725e-05
7.34477e-05
6.85999e-05
6.85726e-05
7.34707e-05
7.34458e-05
6.85963e-05
5.35791e-05
6.99583e-05
6.99667e-05
6.99511e-05
7.12211e-05
7.12238e-05
7.11987e-05
7.12216e-05
7.12464e-05
7.12245e-05
7.12493e-05
6.99709e-05
6.99788e-05
5.36985e-05
6.99865e-05
6.99939e-05
7.12477e-05
7.12506e-05
5.37508e-05
6.99941e-05
7.00023e-05
6.86277e-05
7.34719e-05
6.86045e-05
7.34962e-05
6.07236e-05
6.48322e-05
4.69218e-05
5.16315e-05
6.06846e-05
6.48568e-05
4.69881e-05
6.07217e-05
6.4828e-05
4.69192e-05
5.16265e-05
6.06827e-05
6.48523e-05
4.69855e-05
6.86319e-05
7.35028e-05
6.863e-05
7.34993e-05
6.07293e-05
5.16832e-05
6.48615e-05
4.70539e-05
6.07273e-05
5.16782e-05
6.48574e-05
4.70514e-05
6.99706e-05
6.99721e-05
5.3697e-05
6.99863e-05
6.99867e-05
7.12228e-05
7.12474e-05
7.12487e-05
5.37468e-05
6.99938e-05
6.99951e-05
7.12488e-05
6.0721e-05
6.48337e-05
4.69211e-05
5.16289e-05
6.06859e-05
6.48583e-05
4.69875e-05
6.86258e-05
7.34734e-05
6.8605e-05
7.34959e-05
6.07197e-05
4.69218e-05
6.48302e-05
5.16299e-05
6.06846e-05
4.69882e-05
6.48543e-05
6.86318e-05
7.35044e-05
6.07303e-05
5.16806e-05
6.48633e-05
4.70534e-05
6.86304e-05
7.3501e-05
6.07291e-05
5.16816e-05
4.70541e-05
6.48597e-05
6.86253e-05
7.34762e-05
6.86044e-05
7.34986e-05
6.07208e-05
4.6923e-05
6.4829e-05
5.16309e-05
6.06857e-05
4.69894e-05
6.48534e-05
6.86263e-05
7.34733e-05
6.86055e-05
7.34958e-05
6.07301e-05
5.16823e-05
6.4862e-05
4.70546e-05
6.863e-05
7.35036e-05
6.07301e-05
5.16826e-05
4.70552e-05
6.48584e-05
6.8631e-05
7.35009e-05
6.99743e-05
6.99713e-05
5.37019e-05
6.9989e-05
6.99861e-05
7.12224e-05
7.12471e-05
7.12501e-05
5.37462e-05
6.99976e-05
6.99947e-05
7.12485e-05
6.07197e-05
4.69232e-05
6.4831e-05
5.16286e-05
6.06812e-05
4.69894e-05
6.48559e-05
6.86257e-05
7.34758e-05
6.86031e-05
7.35002e-05
6.86221e-05
7.3474e-05
6.85999e-05
7.34984e-05
6.07279e-05
5.16858e-05
4.70574e-05
6.48621e-05
6.07258e-05
5.16804e-05
4.70552e-05
6.48605e-05
6.86286e-05
7.35033e-05
6.86254e-05
7.35014e-05
7.12226e-05
7.12473e-05
7.12253e-05
7.125e-05
5.37531e-05
6.99902e-05
6.99989e-05
7.12487e-05
7.12514e-05
7.16832e-05
7.97902e-05
7.34327e-05
7.97825e-05
7.16975e-05
7.34357e-05
7.19042e-05
6.86192e-05
7.16874e-05
7.16525e-05
7.16756e-05
7.16421e-05
7.19174e-05
7.17365e-05
7.9818e-05
7.34861e-05
7.17223e-05
7.98253e-05
7.19037e-05
6.86169e-05
7.16619e-05
7.16306e-05
7.18902e-05
7.16735e-05
7.1641e-05
7.17352e-05
7.98364e-05
7.34891e-05
7.98293e-05
7.17493e-05
7.12346e-05
7.12358e-05
7.19063e-05
6.86195e-05
7.16488e-05
7.16859e-05
7.16416e-05
7.16771e-05
7.19153e-05
7.17365e-05
7.98157e-05
7.34876e-05
7.17224e-05
7.98227e-05
7.19017e-05
6.86147e-05
7.16299e-05
7.16632e-05
7.18927e-05
7.16373e-05
7.16721e-05
7.17352e-05
7.98337e-05
7.34907e-05
7.9827e-05
7.17493e-05
7.12355e-05
7.12371e-05
9.50336e-05
7.35522e-05
7.35455e-05
7.35389e-05
7.35323e-05
9.5036e-05
7.41983e-05
6.52877e-05
7.33028e-05
6.99706e-05
7.41936e-05
6.52987e-05
7.33115e-05
7.4246e-05
6.52955e-05
7.33125e-05
6.99787e-05
7.42414e-05
6.53071e-05
7.33211e-05
9.50232e-05
7.35268e-05
7.35202e-05
9.50207e-05
7.35401e-05
7.35335e-05
7.42075e-05
7.3325e-05
6.99788e-05
6.53167e-05
6.53062e-05
7.33155e-05
7.42119e-05
7.42551e-05
7.33341e-05
6.99874e-05
6.53251e-05
6.5314e-05
7.33257e-05
7.42594e-05
7.11816e-05
7.11846e-05
9.49848e-05
7.35032e-05
7.34964e-05
7.34896e-05
7.34829e-05
9.49879e-05
7.41518e-05
7.32732e-05
6.99337e-05
6.52428e-05
7.3261e-05
7.41568e-05
6.52318e-05
7.41978e-05
7.32824e-05
6.99415e-05
6.52503e-05
7.32703e-05
7.42028e-05
6.5238e-05
7.12084e-05
7.12069e-05
7.12113e-05
7.12098e-05
9.50012e-05
7.3502e-05
7.34952e-05
9.49984e-05
7.35155e-05
7.35087e-05
7.41815e-05
6.52816e-05
6.99586e-05
7.33003e-05
7.32883e-05
6.52714e-05
7.41862e-05
7.42274e-05
6.52892e-05
6.99665e-05
7.33096e-05
7.32975e-05
6.52777e-05
7.42321e-05
7.41718e-05
7.32749e-05
6.52519e-05
6.99504e-05
7.4167e-05
7.32868e-05
6.52623e-05
7.42178e-05
7.32842e-05
6.52582e-05
6.99584e-05
7.42129e-05
7.3296e-05
6.527e-05
9.50116e-05
7.35278e-05
7.3521e-05
7.35143e-05
7.35075e-05
9.50143e-05
7.18755e-05
7.16332e-05
7.16052e-05
6.859e-05
7.18626e-05
7.1645e-05
7.16162e-05
7.17094e-05
7.34612e-05
7.98139e-05
7.17236e-05
7.98062e-05
7.17106e-05
7.97945e-05
7.34579e-05
7.16964e-05
7.98022e-05
7.18768e-05
6.85929e-05
7.16596e-05
7.16291e-05
7.18896e-05
7.16475e-05
7.16179e-05
7.18729e-05
7.16326e-05
7.15998e-05
6.85883e-05
7.18638e-05
7.16447e-05
7.16108e-05
7.17087e-05
7.34578e-05
7.97954e-05
7.97875e-05
7.17229e-05
7.17099e-05
7.97759e-05
7.34545e-05
7.16957e-05
7.97837e-05
7.18777e-05
6.85911e-05
7.16589e-05
7.16233e-05
7.1647e-05
7.16124e-05
7.1887e-05
7.12094e-05
7.12082e-05
7.42289e-05
6.52857e-05
6.99585e-05
7.33079e-05
6.52747e-05
7.32959e-05
7.4232e-05
7.4182e-05
6.52825e-05
6.99602e-05
7.32995e-05
7.3291e-05
6.52716e-05
7.41851e-05
6.52554e-05
6.99503e-05
6.52664e-05
9.50099e-05
7.35216e-05
7.35282e-05
7.35082e-05
7.35145e-05
9.50115e-05
7.12096e-05
7.18743e-05
7.1605e-05
7.16348e-05
6.8588e-05
7.18654e-05
7.16127e-05
7.16437e-05
7.17095e-05
7.34635e-05
7.98113e-05
7.17237e-05
7.98041e-05
7.17107e-05
7.97925e-05
7.34591e-05
7.16965e-05
7.97996e-05
7.18786e-05
6.85929e-05
7.16252e-05
7.1658e-05
7.18883e-05
7.16173e-05
7.16487e-05
7.18731e-05
7.16342e-05
7.16e-05
6.85865e-05
7.18641e-05
7.16431e-05
7.16078e-05
7.17076e-05
7.34595e-05
7.97921e-05
7.9785e-05
7.17218e-05
7.17088e-05
7.97731e-05
7.34544e-05
7.16946e-05
7.97805e-05
7.18773e-05
6.85915e-05
7.16572e-05
7.16202e-05
7.16482e-05
7.16124e-05
7.18869e-05
7.17076e-05
7.34619e-05
7.98042e-05
7.98005e-05
7.17224e-05
7.18757e-05
6.85911e-05
7.16206e-05
7.16583e-05
7.1613e-05
7.16462e-05
7.18879e-05
7.17083e-05
7.34589e-05
7.97915e-05
7.97843e-05
7.17225e-05
7.18768e-05
6.85922e-05
7.16573e-05
7.16208e-05
7.16483e-05
7.16131e-05
7.18884e-05
7.12107e-05
7.12091e-05
9.49964e-05
7.34953e-05
7.35015e-05
9.49941e-05
7.35087e-05
7.35149e-05
7.42283e-05
6.52883e-05
6.99622e-05
7.33064e-05
6.52759e-05
7.32978e-05
7.42328e-05
7.41805e-05
6.52829e-05
6.99592e-05
7.32983e-05
7.32897e-05
6.52713e-05
7.41851e-05
7.42185e-05
7.32845e-05
6.52563e-05
6.9953e-05
6.52688e-05
7.42136e-05
7.3293e-05
7.41708e-05
7.32765e-05
6.52515e-05
6.99499e-05
7.41659e-05
7.32849e-05
6.52636e-05
9.50072e-05
7.3521e-05
7.35271e-05
7.35076e-05
7.35138e-05
9.50096e-05
7.12092e-05
7.12077e-05
7.18759e-05
7.16027e-05
7.16336e-05
6.85864e-05
7.18622e-05
7.1614e-05
7.16427e-05
7.17092e-05
7.34617e-05
7.98092e-05
7.98017e-05
7.17234e-05
7.17104e-05
7.97898e-05
7.34585e-05
7.16962e-05
7.97975e-05
7.18767e-05
6.85897e-05
7.16264e-05
7.16567e-05
7.16155e-05
7.16476e-05
7.18891e-05
7.18718e-05
7.15955e-05
7.16327e-05
6.85828e-05
7.18626e-05
7.16061e-05
7.16417e-05
7.17088e-05
7.34599e-05
7.9793e-05
7.97857e-05
7.1723e-05
7.171e-05
7.97738e-05
7.34567e-05
7.16957e-05
7.97813e-05
7.18769e-05
6.85865e-05
7.16185e-05
7.16557e-05
7.16084e-05
7.16467e-05
7.1886e-05
9.49971e-05
7.35157e-05
7.3509e-05
7.41795e-05
6.528e-05
6.99551e-05
7.32981e-05
7.41841e-05
6.52686e-05
7.32893e-05
7.42273e-05
6.52884e-05
6.99634e-05
7.33077e-05
7.42318e-05
6.52764e-05
7.32989e-05
7.41698e-05
6.9946e-05
6.52606e-05
7.32845e-05
7.42174e-05
6.52567e-05
6.99544e-05
6.52691e-05
7.32941e-05
9.50076e-05
7.3528e-05
7.35213e-05
9.50102e-05
7.35146e-05
7.3508e-05
7.12094e-05
7.12079e-05
7.12121e-05
7.12105e-05
7.12333e-05
7.12347e-05
7.12362e-05
7.12377e-05
9.50374e-05
7.3552e-05
7.35452e-05
7.35387e-05
7.35318e-05
9.50397e-05
7.42002e-05
6.52904e-05
7.3302e-05
6.99748e-05
7.41958e-05
7.33138e-05
6.53e-05
7.42461e-05
6.52966e-05
7.33112e-05
6.99825e-05
7.42416e-05
7.3323e-05
6.53077e-05
9.50271e-05
7.35265e-05
7.35197e-05
9.50247e-05
7.354e-05
7.35331e-05
7.42094e-05
7.3327e-05
6.99826e-05
6.5318e-05
7.33152e-05
7.42137e-05
6.53086e-05
7.42552e-05
7.33362e-05
6.99907e-05
6.53257e-05
7.33245e-05
7.42596e-05
6.53149e-05
7.12593e-05
7.12622e-05
9.50521e-05
7.35507e-05
7.35439e-05
9.505e-05
7.3564e-05
7.35571e-05
7.42268e-05
7.33284e-05
6.53264e-05
6.99979e-05
7.42226e-05
7.334e-05
6.53355e-05
7.42727e-05
7.33377e-05
6.53327e-05
7.00053e-05
7.42685e-05
7.33491e-05
6.53431e-05
7.19057e-05
6.86174e-05
7.1687e-05
7.16469e-05
7.16751e-05
7.16364e-05
7.19146e-05
7.17358e-05
7.97992e-05
7.34825e-05
7.17217e-05
7.98067e-05
7.1901e-05
6.8615e-05
7.16613e-05
7.16247e-05
7.1673e-05
7.18916e-05
7.16353e-05
7.17345e-05
7.98179e-05
7.34857e-05
7.98104e-05
7.17485e-05
7.19308e-05
7.16897e-05
7.16538e-05
6.86417e-05
7.19178e-05
7.17013e-05
7.16639e-05
7.17619e-05
7.98403e-05
7.35133e-05
7.17479e-05
7.98473e-05
7.1928e-05
7.16893e-05
7.16481e-05
6.86399e-05
7.1919e-05
7.17009e-05
7.16582e-05
7.17612e-05
7.98215e-05
7.35098e-05
7.17472e-05
7.98287e-05
9.5035e-05
7.35457e-05
7.3552e-05
7.35324e-05
7.35388e-05
9.50369e-05
7.42458e-05
6.52937e-05
7.33096e-05
6.99746e-05
7.33213e-05
7.42426e-05
6.53043e-05
7.41991e-05
6.52904e-05
7.33043e-05
6.99751e-05
6.53011e-05
7.4196e-05
7.3313e-05
9.50242e-05
7.35203e-05
7.35269e-05
7.35337e-05
9.50224e-05
7.35401e-05
7.42562e-05
7.33345e-05
6.99823e-05
6.53223e-05
7.33229e-05
6.53121e-05
7.42595e-05
7.42097e-05
7.33261e-05
6.99837e-05
6.5319e-05
6.53087e-05
7.33177e-05
7.42126e-05
7.12344e-05
7.12359e-05
7.12605e-05
9.50493e-05
7.35443e-05
7.35506e-05
9.50475e-05
7.35576e-05
7.35638e-05
7.42729e-05
7.3336e-05
6.53298e-05
6.99976e-05
6.53396e-05
7.4269e-05
7.33475e-05
7.42257e-05
7.33308e-05
6.53265e-05
6.9998e-05
7.4223e-05
7.33392e-05
6.53365e-05
7.12603e-05
7.19052e-05
6.8618e-05
7.16854e-05
7.16441e-05
7.16766e-05
7.16369e-05
7.19141e-05
7.17346e-05
7.97964e-05
7.34823e-05
7.17205e-05
7.98036e-05
7.19006e-05
6.86133e-05
7.16625e-05
7.16249e-05
7.16716e-05
7.18914e-05
7.16326e-05
7.17333e-05
7.98147e-05
7.34873e-05
7.98078e-05
7.17474e-05
7.19287e-05
7.16531e-05
7.1691e-05
6.86396e-05
7.19199e-05
7.16603e-05
7.17e-05
7.17619e-05
7.9838e-05
7.35148e-05
7.17479e-05
7.98446e-05
7.19274e-05
7.16904e-05
7.16483e-05
6.86381e-05
7.19186e-05
7.16994e-05
7.16556e-05
7.17601e-05
7.98189e-05
7.35096e-05
7.17461e-05
7.98256e-05
7.1903e-05
6.86175e-05
7.16444e-05
7.16865e-05
7.16373e-05
7.16745e-05
7.19153e-05
7.17352e-05
7.98122e-05
7.3485e-05
7.98153e-05
7.17205e-05
7.19021e-05
6.86127e-05
7.16252e-05
7.16606e-05
7.16327e-05
7.18891e-05
7.16725e-05
7.17333e-05
7.98262e-05
7.34899e-05
7.98235e-05
7.1748e-05
7.19036e-05
6.86186e-05
7.16855e-05
7.16446e-05
7.16766e-05
7.16374e-05
7.19162e-05
7.17354e-05
7.97958e-05
7.34822e-05
7.17212e-05
7.98029e-05
7.19029e-05
6.86138e-05
7.16624e-05
7.16254e-05
7.18899e-05
7.16717e-05
7.16331e-05
7.1734e-05
7.98138e-05
7.34871e-05
7.98072e-05
7.17481e-05
7.19289e-05
7.16488e-05
7.16887e-05
6.86376e-05
7.19164e-05
7.16558e-05
7.17005e-05
7.17606e-05
7.98346e-05
7.35122e-05
7.1746e-05
7.98371e-05
7.19298e-05
7.16905e-05
7.16489e-05
6.86386e-05
7.19169e-05
7.16995e-05
7.16561e-05
7.17607e-05
7.98182e-05
7.35095e-05
7.17467e-05
7.98248e-05
9.5033e-05
7.35452e-05
7.35513e-05
7.35319e-05
7.35381e-05
9.50351e-05
7.42468e-05
6.5295e-05
7.33112e-05
6.99773e-05
7.332e-05
7.42424e-05
6.53068e-05
7.41992e-05
6.52904e-05
7.33031e-05
6.99745e-05
6.53015e-05
7.41948e-05
7.33118e-05
9.50225e-05
7.35198e-05
7.3526e-05
7.35331e-05
9.50203e-05
7.35393e-05
7.42562e-05
7.33332e-05
6.99861e-05
6.53246e-05
7.33246e-05
6.53134e-05
7.42604e-05
7.42085e-05
7.3325e-05
6.99832e-05
6.53194e-05
6.53087e-05
7.33165e-05
7.42128e-05
7.12341e-05
7.12355e-05
7.12615e-05
9.50475e-05
7.35439e-05
7.35501e-05
9.50456e-05
7.35572e-05
7.35633e-05
7.42736e-05
7.33378e-05
6.53311e-05
7.00004e-05
6.53419e-05
7.42694e-05
7.33465e-05
7.42259e-05
7.33298e-05
6.53264e-05
6.99977e-05
7.42218e-05
7.33381e-05
6.53368e-05
7.126e-05
7.19039e-05
6.86159e-05
7.16501e-05
7.16847e-05
7.16396e-05
7.16759e-05
7.19169e-05
7.17362e-05
7.98131e-05
7.34865e-05
7.98206e-05
7.17221e-05
7.19035e-05
6.8613e-05
7.1628e-05
7.16618e-05
7.16385e-05
7.18901e-05
7.1671e-05
7.17349e-05
7.98317e-05
7.34897e-05
7.98245e-05
7.17489e-05
7.19024e-05
6.86128e-05
7.16423e-05
7.16838e-05
7.16325e-05
7.16749e-05
7.19148e-05
7.17358e-05
7.97972e-05
7.34847e-05
7.17217e-05
7.98043e-05
7.19007e-05
6.86094e-05
7.16207e-05
7.16608e-05
7.18899e-05
7.16307e-05
7.167e-05
7.17345e-05
7.98155e-05
7.34878e-05
7.98085e-05
7.17486e-05
7.19304e-05
7.16514e-05
7.16897e-05
6.86379e-05
7.19173e-05
7.16615e-05
7.16987e-05
7.17616e-05
7.98355e-05
7.35137e-05
7.17476e-05
7.98425e-05
7.19285e-05
7.16443e-05
7.16887e-05
6.86344e-05
7.19156e-05
7.16538e-05
7.16977e-05
7.17612e-05
7.98196e-05
7.35119e-05
7.17472e-05
7.98264e-05
7.12343e-05
7.12357e-05
7.12369e-05
7.12384e-05
9.50484e-05
7.3551e-05
7.35443e-05
9.50462e-05
7.35642e-05
7.35575e-05
7.42251e-05
7.33281e-05
6.5324e-05
6.99939e-05
7.42208e-05
6.53342e-05
7.33385e-05
7.42727e-05
7.3339e-05
6.53319e-05
7.00022e-05
7.42685e-05
6.53426e-05
7.33474e-05
7.12602e-05
7.12629e-05
3.89041e-05
3.22682e-05
3.22658e-05
3.92872e-05
3.23846e-05
3.23825e-05
2.34442e-05
2.33004e-05
6.59934e-05
5.95669e-05
5.95685e-05
5.36556e-05
6.59892e-05
5.95659e-05
5.95666e-05
6.59695e-05
5.36184e-05
5.95394e-05
5.95401e-05
5.9536e-05
5.95364e-05
6.59753e-05
6.59701e-05
5.36261e-05
5.9534e-05
5.95369e-05
5.9535e-05
5.954e-05
6.59739e-05
6.59696e-05
5.36222e-05
5.95403e-05
5.95423e-05
5.95361e-05
5.95385e-05
6.59751e-05
6.59688e-05
5.36277e-05
5.9536e-05
5.9537e-05
6.59731e-05
5.95366e-05
5.95382e-05
6.59945e-05
5.95656e-05
5.95657e-05
5.36587e-05
6.59902e-05
5.95678e-05
5.9569e-05
6.59941e-05
5.95651e-05
5.9569e-05
5.36528e-05
5.95671e-05
6.59905e-05
5.95639e-05
6.5995e-05
5.95652e-05
5.95677e-05
5.36649e-05
5.95708e-05
6.59898e-05
5.95688e-05
3.90027e-05
3.21492e-05
3.21468e-05
3.20292e-05
3.20266e-05
2.30091e-05
2.31551e-05
3.90025e-05
3.21486e-05
3.21484e-05
3.20287e-05
3.20285e-05
2.30096e-05
2.31557e-05
3.90069e-05
3.21523e-05
3.21522e-05
3.2032e-05
3.20323e-05
2.30131e-05
2.31592e-05
3.90059e-05
3.21538e-05
3.21516e-05
3.20333e-05
3.20318e-05
2.3014e-05
2.316e-05
3.22675e-05
3.22672e-05
3.92861e-05
3.23839e-05
3.23838e-05
2.34448e-05
2.33009e-05
3.22713e-05
3.22711e-05
3.92915e-05
3.2388e-05
3.23877e-05
2.34483e-05
2.33044e-05
3.22724e-05
3.22705e-05
3.929e-05
3.23891e-05
3.23869e-05
2.34491e-05
2.33052e-05
3.93791e-05
3.25002e-05
3.24981e-05
2.35874e-05
3.9378e-05
3.24995e-05
3.24991e-05
2.35879e-05
3.93833e-05
3.25036e-05
3.25032e-05
2.35914e-05
3.93819e-05
3.25044e-05
3.25025e-05
2.35921e-05
5.644e-05
6.07085e-05
6.24043e-05
5.51636e-05
6.23936e-05
5.51785e-05
5.64286e-05
5.74779e-05
6.04505e-05
6.42511e-05
6.48424e-05
5.74902e-05
6.04487e-05
6.42607e-05
5.63952e-05
6.06985e-05
6.23732e-05
5.51415e-05
5.64065e-05
6.23844e-05
5.51269e-05
5.75189e-05
6.4278e-05
6.48476e-05
6.04723e-05
6.04738e-05
6.42691e-05
5.75067e-05
5.64383e-05
6.07059e-05
5.51711e-05
6.24088e-05
5.51687e-05
6.23928e-05
5.64319e-05
5.7485e-05
6.04485e-05
6.42517e-05
6.48428e-05
5.74833e-05
6.04529e-05
6.42632e-05
5.63982e-05
6.06998e-05
5.51317e-05
6.23729e-05
5.64045e-05
5.51338e-05
6.2389e-05
5.75127e-05
6.42807e-05
6.48477e-05
6.04762e-05
6.04721e-05
6.42694e-05
5.75139e-05
6.60092e-05
5.37126e-05
5.95941e-05
5.95948e-05
5.95959e-05
5.95975e-05
6.60131e-05
6.59266e-05
5.3532e-05
5.94792e-05
5.94793e-05
6.5933e-05
5.94746e-05
5.94746e-05
6.59546e-05
5.35765e-05
5.95046e-05
5.95049e-05
6.59483e-05
5.95089e-05
5.95094e-05
5.73887e-05
6.42078e-05
6.47841e-05
6.03776e-05
6.41953e-05
6.03713e-05
5.73916e-05
5.63291e-05
6.23311e-05
5.50557e-05
6.06548e-05
5.63352e-05
6.2348e-05
5.5057e-05
5.74527e-05
6.04281e-05
6.48165e-05
6.4246e-05
6.04217e-05
6.42342e-05
5.74543e-05
5.74234e-05
6.42151e-05
6.03958e-05
6.48112e-05
6.04017e-05
5.74215e-05
6.4227e-05
5.63707e-05
6.06613e-05
6.23695e-05
5.50958e-05
6.23529e-05
5.50933e-05
5.63642e-05
5.63235e-05
6.23254e-05
5.50533e-05
6.06529e-05
5.63297e-05
6.23427e-05
5.50548e-05
5.74462e-05
6.04234e-05
6.48124e-05
6.42375e-05
6.42255e-05
6.04174e-05
5.74478e-05
5.7417e-05
6.42068e-05
6.03914e-05
6.48069e-05
5.74148e-05
6.42187e-05
6.03979e-05
5.63652e-05
6.06593e-05
6.23642e-05
5.50935e-05
6.23472e-05
5.50909e-05
5.63587e-05
5.35675e-05
5.95057e-05
5.95046e-05
6.4786e-05
6.03742e-05
6.03743e-05
5.63238e-05
6.23316e-05
5.50658e-05
6.06522e-05
5.63368e-05
6.23435e-05
5.50514e-05
5.74563e-05
6.04248e-05
6.48184e-05
6.42436e-05
6.04249e-05
6.42339e-05
5.74445e-05
5.7413e-05
6.4215e-05
6.03999e-05
6.48128e-05
6.04004e-05
5.7426e-05
6.4225e-05
5.63725e-05
6.06623e-05
6.23648e-05
5.50889e-05
6.2353e-05
5.51034e-05
5.63596e-05
5.63217e-05
5.50648e-05
6.23279e-05
6.06508e-05
5.63344e-05
5.50504e-05
6.23398e-05
5.74505e-05
6.04245e-05
6.48147e-05
6.42364e-05
6.42265e-05
6.04232e-05
5.74449e-05
5.74108e-05
6.42077e-05
6.03968e-05
6.48088e-05
5.74221e-05
6.42179e-05
6.03974e-05
5.63701e-05
6.0661e-05
5.50879e-05
6.23612e-05
5.51024e-05
6.23493e-05
5.63575e-05
5.74585e-05
6.04241e-05
6.48172e-05
6.42426e-05
5.7447e-05
6.04252e-05
6.42325e-05
5.63724e-05
6.06624e-05
6.23637e-05
5.50896e-05
5.63612e-05
6.23518e-05
5.51047e-05
5.74554e-05
6.04223e-05
6.48135e-05
6.42372e-05
6.42275e-05
6.04215e-05
5.74442e-05
5.63724e-05
6.06625e-05
5.50909e-05
6.23625e-05
5.51054e-05
6.23509e-05
5.63608e-05
6.59545e-05
5.3581e-05
5.95053e-05
5.95075e-05
5.95097e-05
6.59484e-05
5.95119e-05
5.63292e-05
5.50559e-05
6.23291e-05
6.06533e-05
5.63341e-05
5.50594e-05
6.23465e-05
5.74531e-05
6.04286e-05
6.48173e-05
6.42452e-05
5.74537e-05
6.04241e-05
6.4233e-05
5.74241e-05
6.42138e-05
6.03988e-05
6.4812e-05
5.7422e-05
6.04037e-05
6.42262e-05
5.63693e-05
6.06601e-05
5.50974e-05
6.23686e-05
5.63638e-05
5.50948e-05
6.23513e-05
5.63252e-05
5.50556e-05
6.23237e-05
6.0651e-05
5.63299e-05
5.50588e-05
6.23407e-05
5.74474e-05
6.0426e-05
6.48156e-05
6.42378e-05
6.4226e-05
6.04214e-05
5.74481e-05
5.74183e-05
6.4207e-05
6.03959e-05
6.48104e-05
5.74162e-05
6.42189e-05
6.04008e-05
5.63651e-05
6.06578e-05
5.50966e-05
6.23622e-05
5.5094e-05
6.23457e-05
5.636e-05
6.5952e-05
5.35693e-05
5.95068e-05
5.95055e-05
5.95067e-05
6.60102e-05
5.37042e-05
5.95958e-05
5.9597e-05
6.60139e-05
5.95958e-05
5.95961e-05
6.60331e-05
5.37377e-05
5.96255e-05
5.96255e-05
6.60298e-05
5.96247e-05
5.96245e-05
5.64388e-05
6.07072e-05
6.24101e-05
5.51706e-05
6.23943e-05
5.51682e-05
5.6432e-05
5.74848e-05
6.04478e-05
6.4253e-05
6.48421e-05
6.4264e-05
5.74833e-05
6.04511e-05
5.63983e-05
6.07013e-05
6.23742e-05
5.51304e-05
6.23902e-05
5.64053e-05
5.51329e-05
5.75126e-05
6.42816e-05
6.4847e-05
6.04745e-05
6.42707e-05
6.04708e-05
5.75141e-05
5.64335e-05
6.07052e-05
6.24048e-05
5.51684e-05
6.23885e-05
5.5166e-05
5.64266e-05
5.74779e-05
6.04424e-05
6.42442e-05
6.48376e-05
5.74765e-05
6.42557e-05
6.04473e-05
5.63929e-05
6.06994e-05
6.23685e-05
5.51281e-05
5.63999e-05
6.23849e-05
5.51306e-05
5.75058e-05
6.42732e-05
6.48429e-05
6.04708e-05
6.4262e-05
5.75072e-05
6.0466e-05
5.6464e-05
6.24142e-05
5.52039e-05
6.07449e-05
5.64713e-05
6.24294e-05
5.52055e-05
5.75429e-05
6.4288e-05
6.04937e-05
6.48709e-05
6.04973e-05
5.75418e-05
6.42984e-05
5.64587e-05
6.24085e-05
5.52017e-05
6.0743e-05
5.64661e-05
6.24241e-05
5.52033e-05
5.75355e-05
6.42793e-05
6.04892e-05
6.48663e-05
5.75347e-05
6.42902e-05
6.04933e-05
6.60103e-05
5.37063e-05
5.95927e-05
5.95958e-05
5.95975e-05
5.95942e-05
6.60136e-05
6.60328e-05
5.37386e-05
5.96225e-05
5.96256e-05
5.96211e-05
6.60296e-05
5.96241e-05
5.64397e-05
6.07088e-05
6.24057e-05
5.51631e-05
6.23949e-05
5.51783e-05
5.64272e-05
5.74745e-05
6.04493e-05
6.42522e-05
6.48436e-05
6.42617e-05
5.74865e-05
6.04509e-05
5.63944e-05
6.0699e-05
6.23745e-05
5.51401e-05
6.2386e-05
5.64066e-05
5.51265e-05
5.75166e-05
6.42792e-05
6.48488e-05
6.04733e-05
6.42703e-05
6.04725e-05
5.75044e-05
5.64373e-05
6.07074e-05
5.5162e-05
6.24022e-05
5.51772e-05
6.23912e-05
5.64253e-05
5.74748e-05
6.04465e-05
6.42448e-05
6.48397e-05
5.74801e-05
6.42546e-05
6.0448e-05
5.63924e-05
6.06976e-05
5.51392e-05
6.23708e-05
5.64042e-05
5.51256e-05
6.23824e-05
5.75102e-05
6.4272e-05
6.48452e-05
6.04711e-05
6.42628e-05
5.75049e-05
6.047e-05
5.64602e-05
6.24146e-05
5.52119e-05
6.07424e-05
5.64722e-05
6.24252e-05
5.51985e-05
5.75332e-05
6.42875e-05
6.04956e-05
6.48724e-05
6.04961e-05
5.75459e-05
6.42962e-05
5.64582e-05
5.5211e-05
6.24109e-05
6.07411e-05
5.64698e-05
5.51976e-05
6.24217e-05
5.75341e-05
6.42802e-05
6.04926e-05
6.48685e-05
5.7539e-05
6.4289e-05
6.04928e-05
5.64391e-05
6.07086e-05
5.51636e-05
6.24034e-05
5.51788e-05
6.23926e-05
5.64275e-05
5.74731e-05
6.04454e-05
6.42457e-05
6.48387e-05
6.04464e-05
5.74851e-05
6.42553e-05
5.63944e-05
6.06988e-05
5.51408e-05
6.2372e-05
5.51273e-05
5.64059e-05
6.23837e-05
5.75153e-05
6.42727e-05
6.48439e-05
6.047e-05
6.04692e-05
6.42639e-05
5.75032e-05
5.64609e-05
6.24133e-05
5.52123e-05
6.07421e-05
5.64724e-05
6.24239e-05
5.51979e-05
5.75353e-05
6.42862e-05
6.04966e-05
6.48711e-05
5.75479e-05
6.04956e-05
6.4295e-05
5.646e-05
5.52129e-05
6.24122e-05
6.07422e-05
5.64715e-05
5.51982e-05
6.24229e-05
5.75318e-05
6.42811e-05
6.0492e-05
6.48675e-05
5.75445e-05
6.42897e-05
6.04926e-05
6.60099e-05
5.37034e-05
5.95965e-05
5.95989e-05
5.95969e-05
5.95942e-05
6.60149e-05
6.60338e-05
5.37428e-05
5.96224e-05
5.96254e-05
5.96244e-05
6.60289e-05
5.9627e-05
5.64343e-05
6.07037e-05
5.51702e-05
6.2403e-05
5.51679e-05
6.23873e-05
5.6428e-05
5.74788e-05
6.04454e-05
6.42447e-05
6.48412e-05
6.04497e-05
5.74772e-05
6.42559e-05
5.63942e-05
6.06975e-05
5.51304e-05
6.23671e-05
5.51329e-05
5.64003e-05
6.2383e-05
5.75069e-05
6.42735e-05
6.4846e-05
6.04732e-05
6.04693e-05
6.42624e-05
5.75084e-05
5.64637e-05
5.52034e-05
6.24128e-05
6.07433e-05
5.64709e-05
5.52052e-05
6.24282e-05
5.75408e-05
6.42867e-05
6.04948e-05
6.48717e-05
5.75411e-05
6.04985e-05
6.42976e-05
5.646e-05
5.52032e-05
6.24073e-05
6.07411e-05
5.6467e-05
5.52047e-05
6.24225e-05
5.75373e-05
6.42798e-05
6.04924e-05
6.48701e-05
5.75362e-05
6.42904e-05
6.0496e-05
6.60322e-05
5.37376e-05
5.96246e-05
5.96261e-05
6.60287e-05
5.96222e-05
5.96229e-05
3.95569e-05
5.17807e-05
5.17842e-05
5.38264e-05
3.98924e-05
5.19619e-05
5.19655e-05
5.39689e-05
4.02012e-05
5.21227e-05
5.21265e-05
5.40953e-05
4.04839e-05
5.22638e-05
5.22676e-05
5.42065e-05
4.0741e-05
5.23856e-05
5.23893e-05
5.43026e-05
4.09734e-05
5.24887e-05
5.24925e-05
5.43836e-05
4.1182e-05
5.25738e-05
5.25776e-05
5.44499e-05
4.13675e-05
5.26416e-05
5.26453e-05
5.45019e-05
4.15308e-05
5.26926e-05
5.26962e-05
5.45402e-05
4.16728e-05
5.27275e-05
5.2731e-05
5.45654e-05
4.17943e-05
5.27471e-05
5.27503e-05
5.45798e-05
4.18964e-05
5.27521e-05
5.27548e-05
5.4581e-05
4.19796e-05
5.27451e-05
5.27473e-05
5.45686e-05
4.20457e-05
5.27257e-05
5.27273e-05
5.45458e-05
4.20962e-05
5.26953e-05
5.2696e-05
5.45149e-05
4.21321e-05
5.26551e-05
5.26551e-05
5.44774e-05
4.21552e-05
5.26064e-05
5.26061e-05
5.44319e-05
4.21658e-05
5.25507e-05
5.25508e-05
5.43799e-05
4.21405e-05
5.24812e-05
5.24823e-05
5.4315e-05
4.38358e-05
5.05763e-05
5.05783e-05
5.39528e-05
5.37802e-05
5.17325e-05
5.17274e-05
5.37785e-05
5.173e-05
5.17309e-05
5.17316e-05
5.17318e-05
5.37818e-05
5.17351e-05
5.17296e-05
5.37789e-05
5.38278e-05
5.3929e-05
5.17817e-05
5.17766e-05
5.19189e-05
5.19135e-05
5.38242e-05
5.39273e-05
5.17792e-05
5.17801e-05
5.19165e-05
5.19172e-05
5.1781e-05
5.19177e-05
5.19179e-05
5.38259e-05
5.39299e-05
5.17788e-05
5.19212e-05
5.19158e-05
5.39276e-05
5.39703e-05
5.40603e-05
5.19631e-05
5.19577e-05
5.20847e-05
5.20791e-05
5.39668e-05
5.40584e-05
5.19607e-05
5.19614e-05
5.20824e-05
5.20829e-05
5.19621e-05
5.20833e-05
5.20834e-05
5.39699e-05
5.40614e-05
5.196e-05
5.2087e-05
5.20815e-05
5.40592e-05
5.40979e-05
5.41747e-05
5.21242e-05
5.21186e-05
5.22303e-05
5.22247e-05
5.40942e-05
5.41731e-05
5.21219e-05
5.21224e-05
5.22281e-05
5.22286e-05
5.21229e-05
5.22289e-05
5.2229e-05
5.40972e-05
5.41759e-05
5.2121e-05
5.22327e-05
5.22271e-05
5.41741e-05
5.42091e-05
5.42736e-05
5.22652e-05
5.22596e-05
5.23564e-05
5.2351e-05
5.4206e-05
5.42716e-05
5.2263e-05
5.22635e-05
5.23543e-05
5.23549e-05
5.22639e-05
5.23552e-05
5.23552e-05
5.42088e-05
5.42742e-05
5.2262e-05
5.23589e-05
5.23534e-05
5.42731e-05
5.43047e-05
5.43574e-05
5.23868e-05
5.23814e-05
5.24639e-05
5.24586e-05
5.43022e-05
5.43555e-05
5.23847e-05
5.23853e-05
5.24618e-05
5.24624e-05
5.23856e-05
5.24627e-05
5.24627e-05
5.43049e-05
5.43581e-05
5.23838e-05
5.24665e-05
5.24609e-05
5.43567e-05
5.43852e-05
5.44263e-05
5.24898e-05
5.24846e-05
5.25531e-05
5.25479e-05
5.43832e-05
5.44246e-05
5.24878e-05
5.24884e-05
5.25511e-05
5.25518e-05
5.24887e-05
5.2552e-05
5.2552e-05
5.43861e-05
5.44273e-05
5.24869e-05
5.25558e-05
5.25503e-05
5.44257e-05
5.44512e-05
5.44809e-05
5.25749e-05
5.25697e-05
5.26249e-05
5.26197e-05
5.44495e-05
5.44791e-05
5.25729e-05
5.25735e-05
5.26228e-05
5.26234e-05
5.25738e-05
5.26237e-05
5.26238e-05
5.44521e-05
5.44816e-05
5.25722e-05
5.26275e-05
5.26222e-05
5.44804e-05
5.45029e-05
5.45217e-05
5.26427e-05
5.26376e-05
5.26799e-05
5.26747e-05
5.45012e-05
5.45198e-05
5.26406e-05
5.26412e-05
5.26778e-05
5.26781e-05
5.26416e-05
5.26787e-05
5.26788e-05
5.45037e-05
5.45221e-05
5.26401e-05
5.26823e-05
5.26773e-05
5.45212e-05
5.4541e-05
5.45495e-05
5.26939e-05
5.26887e-05
5.27191e-05
5.27139e-05
5.45392e-05
5.45471e-05
5.26917e-05
5.26919e-05
5.27168e-05
5.27168e-05
5.26927e-05
5.27177e-05
5.27179e-05
5.45414e-05
5.45489e-05
5.26913e-05
5.27212e-05
5.27166e-05
5.45492e-05
5.4566e-05
5.45668e-05
5.2729e-05
5.27238e-05
5.27434e-05
5.27382e-05
5.45648e-05
5.45605e-05
5.27267e-05
5.27266e-05
5.27409e-05
5.27406e-05
5.27278e-05
5.27418e-05
5.27422e-05
5.45671e-05
5.45633e-05
5.27265e-05
5.27451e-05
5.27409e-05
5.45667e-05
5.45804e-05
5.45702e-05
5.27487e-05
5.27436e-05
5.27535e-05
5.27484e-05
5.4584e-05
5.45653e-05
5.27462e-05
5.27457e-05
5.27508e-05
5.27501e-05
5.27475e-05
5.27518e-05
5.27523e-05
5.45843e-05
5.45661e-05
5.27463e-05
5.27548e-05
5.27511e-05
5.45693e-05
5.45813e-05
5.45587e-05
5.27538e-05
5.27488e-05
5.27488e-05
5.27439e-05
5.4583e-05
5.45546e-05
5.27509e-05
5.275e-05
5.27456e-05
5.27445e-05
5.27525e-05
5.27471e-05
5.27476e-05
5.45839e-05
5.45519e-05
5.27514e-05
5.27495e-05
5.27465e-05
5.45584e-05
5.45686e-05
5.45371e-05
5.27468e-05
5.27419e-05
5.27312e-05
5.27267e-05
5.4571e-05
5.45319e-05
5.27436e-05
5.27423e-05
5.27276e-05
5.27263e-05
5.27457e-05
5.27296e-05
5.27303e-05
5.45716e-05
5.45312e-05
5.27445e-05
5.27315e-05
5.27291e-05
5.45373e-05
5.45455e-05
5.45059e-05
5.27274e-05
5.27228e-05
5.27022e-05
5.2698e-05
5.4548e-05
5.45028e-05
5.27237e-05
5.27221e-05
5.2698e-05
5.26968e-05
5.27265e-05
5.27006e-05
5.27016e-05
5.45473e-05
5.45022e-05
5.27253e-05
5.27021e-05
5.27003e-05
5.45068e-05
5.45173e-05
5.4466e-05
5.26968e-05
5.26926e-05
5.26629e-05
5.2659e-05
5.45159e-05
5.44658e-05
5.26926e-05
5.26906e-05
5.26582e-05
5.26574e-05
5.26963e-05
5.26615e-05
5.26629e-05
5.45148e-05
5.44645e-05
5.2695e-05
5.26628e-05
5.26614e-05
5.44689e-05
5.44768e-05
5.44207e-05
5.26562e-05
5.26525e-05
5.26148e-05
5.26111e-05
5.44769e-05
5.44209e-05
5.26515e-05
5.26496e-05
5.26098e-05
5.26093e-05
5.26562e-05
5.26136e-05
5.26154e-05
5.44756e-05
5.44195e-05
5.26547e-05
5.26149e-05
5.26138e-05
5.44241e-05
5.44308e-05
5.43699e-05
5.26072e-05
5.26037e-05
5.25594e-05
5.25559e-05
5.44308e-05
5.43708e-05
5.26022e-05
5.26004e-05
5.25544e-05
5.25543e-05
5.26077e-05
5.25585e-05
5.25607e-05
5.44298e-05
5.43688e-05
5.26061e-05
5.25598e-05
5.2559e-05
5.43738e-05