/*--------------------------------*- C++ -*----------------------------------*\
| =========                 |                                                 |
| \\      /  F ield         | OpenFOAM: The Open Source CFD Toolbox           |
|  \\    /   O peration     | Version:  2312                                  |
|   \\  /    A nd           | Website:  www.openfoam.com                      |
|    \\/     M anipulation  |                                                 |
\*---------------------------------------------------------------------------*/
FoamFile
{
    version     2.0;
    format      ascii;
    arch        "LSB;label=32;scalar=64";
    class       volScalarField;
    location    "450";
    object      nut;
}
// * * * * * * * * * * * * * * * * * * * * * * * * * * * * * * * * * * * * * //

dimensions      [0 2 -1 0 0 0 0];

internalField   nonuniform List<scalar> 
43168
(
0.000208362
0.000201473
0.000201482
0.000182513
0.000182437
0.000201135
0.000201115
0.000182367
0.000201146
0.000201124
0.000201148
0.000201128
0.000182457
0.000201157
0.000201136
0.000182371
0.000182439
0.00020146
0.000201439
0.000182496
0.00020147
0.000201448
0.000201452
0.000182444
0.000201461
5.07474e-05
5.07402e-05
0.000207771
0.000207763
0.000207777
0.00020777
9.995e-05
5.07563e-05
9.98941e-05
5.07668e-05
2.38966e-05
2.39009e-05
9.99421e-05
5.07511e-05
9.98934e-05
5.07617e-05
0.000208354
0.000208368
0.000208362
0.000144486
0.000103663
0.000211327
0.000201788
0.000144326
0.000103733
0.000211743
2.38958e-05
2.38999e-05
0.000144492
0.000211329
0.000103664
0.000201797
0.000144311
0.000211749
0.000103735
7.79291e-05
7.79235e-05
0.000182795
7.79504e-05
7.79436e-05
2.38941e-05
2.3892e-05
0.000182012
7.79069e-05
7.79003e-05
2.38986e-05
2.38943e-05
2.38965e-05
2.38923e-05
0.000181991
7.79343e-05
7.79276e-05
7.79106e-05
7.79039e-05
0.000200476
0.000103601
9.98411e-05
5.07572e-05
5.07466e-05
9.99015e-05
9.98372e-05
5.07515e-05
5.07411e-05
9.98969e-05
0.000144131
0.000200809
0.000103671
0.000210894
0.000103596
0.000210463
0.00014432
0.000144126
0.00020079
0.000103646
0.000210885
0.000103572
0.000210454
0.000144314
2.38965e-05
2.38922e-05
0.000182072
7.79141e-05
7.79314e-05
7.78886e-05
2.38977e-05
0.000200486
0.00010359
9.98414e-05
5.07514e-05
5.0744e-05
9.98927e-05
0.000144138
0.000200819
0.00010366
0.000210893
0.000103587
0.000210461
0.000144304
9.98385e-05
5.0746e-05
5.07404e-05
9.98896e-05
0.000144136
0.000200797
0.000210891
0.00010365
0.000210459
0.000103578
0.000144302
0.000103667
0.000210894
0.000144305
5.07517e-05
9.98854e-05
0.000210895
0.000103658
0.000144307
5.07481e-05
9.98906e-05
2.38955e-05
2.38914e-05
0.000182017
7.79178e-05
7.79313e-05
7.78968e-05
7.791e-05
2.38977e-05
2.38935e-05
0.00014412
0.000200831
0.0002109
0.000103669
0.000210468
0.000103595
0.000144311
0.000144114
0.00020081
0.000210893
0.000103652
0.000210461
0.000103576
0.000144303
9.98266e-05
5.07533e-05
5.07425e-05
9.98863e-05
9.98168e-05
5.07478e-05
5.07368e-05
9.98766e-05
0.000182033
7.79232e-05
7.79179e-05
7.78966e-05
2.38964e-05
2.38953e-05
2.38911e-05
2.38988e-05
2.3903e-05
2.38967e-05
2.39009e-05
7.79374e-05
7.79311e-05
0.000182825
7.79602e-05
7.7952e-05
2.39031e-05
2.39011e-05
0.000182917
7.79624e-05
7.79568e-05
9.99465e-05
5.07507e-05
9.98899e-05
5.07611e-05
0.000144502
0.000103666
0.000211324
0.000201775
0.00014432
0.000103737
0.000211743
0.000144497
0.000103641
0.000211315
0.000201755
0.000144315
0.000103712
0.000211734
9.99431e-05
5.07658e-05
9.99393e-05
5.07601e-05
0.000144502
0.00020209
0.000103731
0.000212162
0.000144497
0.00020207
0.000103707
0.000212153
7.79153e-05
7.79371e-05
0.000182819
7.79397e-05
7.79575e-05
2.3898e-05
2.39021e-05
2.3901e-05
0.000182895
7.79403e-05
7.79624e-05
2.39024e-05
0.000144488
0.000103656
0.000211323
0.000201786
0.000144327
0.000103727
0.000211742
9.99397e-05
5.07497e-05
9.98905e-05
5.07555e-05
0.000144486
0.000211321
0.000103647
0.000201763
0.000144324
0.00021174
0.000103716
9.99422e-05
5.07608e-05
0.000144507
0.000202101
0.000103722
0.000212161
9.99396e-05
5.07593e-05
0.000144505
0.000202078
0.000212159
0.000103713
9.99353e-05
5.0755e-05
9.98838e-05
5.07605e-05
0.000144489
0.000211325
0.000103654
0.000201768
0.000144327
0.000211744
0.000103724
9.99404e-05
5.0751e-05
9.9891e-05
5.07566e-05
0.000144506
0.000202104
0.000103729
0.000212165
9.99334e-05
5.07643e-05
0.000144508
0.000202083
0.000212163
0.000103719
9.99403e-05
5.07606e-05
7.79237e-05
7.7937e-05
0.000182839
7.79436e-05
7.79573e-05
2.3898e-05
2.39021e-05
2.39002e-05
0.000182876
7.79489e-05
7.7962e-05
2.39023e-05
0.000144485
0.000211322
0.000103646
0.000201777
0.000144304
0.000211742
0.000103718
9.9936e-05
5.07526e-05
9.98795e-05
5.07629e-05
9.99265e-05
5.0747e-05
9.98697e-05
5.07574e-05
0.000144492
0.000202112
0.000212167
0.000103729
0.000144486
0.000202092
0.00021216
0.000103712
9.9929e-05
5.0762e-05
9.99192e-05
5.07564e-05
2.38967e-05
2.39008e-05
2.38956e-05
2.38997e-05
0.000182926
7.79531e-05
7.79486e-05
2.3901e-05
2.38999e-05
2.03161e-05
7.90832e-05
5.07412e-05
7.90654e-05
2.03181e-05
5.07395e-05
3.67242e-05
9.99184e-05
4.10737e-05
9.45466e-05
4.10677e-05
9.45167e-05
3.6731e-05
2.03236e-05
7.90963e-05
5.0762e-05
2.03216e-05
7.91135e-05
3.67274e-05
9.9926e-05
4.1064e-05
9.44983e-05
3.67205e-05
4.10696e-05
9.4528e-05
2.03235e-05
7.91229e-05
5.07612e-05
7.91059e-05
2.03255e-05
2.38987e-05
2.38989e-05
3.67281e-05
9.99184e-05
9.45367e-05
4.10704e-05
9.45164e-05
4.10705e-05
3.6727e-05
2.0324e-05
7.90918e-05
5.07567e-05
2.0322e-05
7.91084e-05
3.67238e-05
9.99183e-05
9.44972e-05
4.10663e-05
3.67246e-05
9.45183e-05
4.10665e-05
2.03238e-05
7.91176e-05
5.07561e-05
7.91014e-05
2.03258e-05
2.38977e-05
2.3898e-05
8.15148e-05
2.17176e-05
2.17143e-05
2.17156e-05
2.17124e-05
8.1522e-05
0.000105294
0.000128908
4.86663e-05
7.79372e-05
0.000105272
0.00012896
4.86665e-05
0.000105299
0.000128888
4.86559e-05
7.79311e-05
0.000105278
0.000128943
4.86557e-05
8.15138e-05
2.17138e-05
2.17106e-05
8.15065e-05
2.17158e-05
2.17125e-05
0.000105298
4.86718e-05
7.79411e-05
0.00012902
0.000128969
4.86691e-05
0.000105319
0.000105304
4.86599e-05
7.79363e-05
0.000129003
0.00012895
4.86602e-05
0.000105325
2.3892e-05
2.389e-05
8.14862e-05
2.17108e-05
2.17074e-05
2.17087e-05
2.17054e-05
8.14945e-05
0.000105195
4.86592e-05
7.78964e-05
0.00012878
4.86515e-05
0.000105219
0.000128728
0.000105197
4.86466e-05
7.78898e-05
0.000128761
4.8639e-05
0.00010522
0.000128703
2.38965e-05
2.38963e-05
2.38945e-05
2.38943e-05
8.15033e-05
2.17106e-05
2.17073e-05
8.14954e-05
2.17126e-05
2.17093e-05
0.000105252
0.000128907
7.79238e-05
4.86681e-05
4.86607e-05
0.000128858
0.000105275
0.000105253
0.000128888
7.79174e-05
4.86555e-05
4.86481e-05
0.000128833
0.000105276
0.000105248
4.86564e-05
0.000128794
7.79208e-05
0.000105224
4.86634e-05
0.000128844
0.000105249
4.86438e-05
0.000128769
7.79139e-05
0.000105226
4.86508e-05
0.000128825
8.15041e-05
2.17144e-05
2.17111e-05
2.17124e-05
2.17091e-05
8.15119e-05
3.67198e-05
4.10558e-05
9.44563e-05
9.98744e-05
3.67136e-05
4.10615e-05
9.44874e-05
2.03198e-05
5.07513e-05
7.91039e-05
2.03218e-05
7.9086e-05
2.032e-05
7.90758e-05
5.0752e-05
2.0318e-05
7.90937e-05
3.67176e-05
9.98677e-05
4.10659e-05
9.4509e-05
3.67234e-05
4.106e-05
9.44773e-05
3.67151e-05
4.10555e-05
9.44446e-05
9.98708e-05
3.67161e-05
4.10615e-05
9.44754e-05
2.03191e-05
5.07457e-05
7.90814e-05
7.90634e-05
2.03211e-05
2.03193e-05
7.90536e-05
5.07465e-05
2.03173e-05
7.90713e-05
3.67194e-05
9.98638e-05
4.10656e-05
9.44959e-05
4.10598e-05
9.44654e-05
3.67189e-05
2.38944e-05
2.38943e-05
0.000105255
0.000128876
7.7902e-05
4.8655e-05
0.000128824
4.86477e-05
0.000105273
0.000105251
0.000128908
7.7924e-05
4.86628e-05
4.86634e-05
0.000128856
0.00010527
0.00012876
7.79003e-05
0.000128813
8.14995e-05
2.17108e-05
2.17139e-05
2.17089e-05
2.17119e-05
8.15062e-05
2.38961e-05
3.67176e-05
9.44564e-05
4.10586e-05
9.9867e-05
3.67172e-05
9.4478e-05
4.10584e-05
2.03202e-05
5.07477e-05
7.90987e-05
2.03222e-05
7.90818e-05
2.03204e-05
7.9072e-05
5.07457e-05
2.03183e-05
7.90886e-05
3.67207e-05
9.98669e-05
9.44985e-05
4.10622e-05
3.67206e-05
9.44763e-05
4.1062e-05
3.67158e-05
4.10583e-05
9.44465e-05
9.98641e-05
3.67152e-05
4.10581e-05
9.44683e-05
2.03192e-05
5.07451e-05
7.90784e-05
7.90617e-05
2.03212e-05
2.03194e-05
7.90514e-05
5.07413e-05
2.03174e-05
7.90685e-05
3.6719e-05
9.98643e-05
4.1062e-05
9.44883e-05
4.10619e-05
9.44668e-05
3.67186e-05
2.03203e-05
5.07495e-05
7.9089e-05
7.9077e-05
2.03224e-05
3.67179e-05
9.98582e-05
9.44877e-05
4.10645e-05
9.44628e-05
4.10584e-05
3.67232e-05
2.03195e-05
5.07451e-05
7.90789e-05
7.90621e-05
2.03215e-05
3.67172e-05
9.98654e-05
4.10626e-05
9.44907e-05
4.10626e-05
9.44689e-05
3.67218e-05
2.38936e-05
2.38933e-05
8.14992e-05
2.17075e-05
2.17107e-05
8.14919e-05
2.17095e-05
2.17127e-05
0.000105256
0.000128883
7.79105e-05
4.86521e-05
0.000128827
4.86524e-05
0.000105277
0.000105253
0.000128911
7.79239e-05
4.86645e-05
4.8665e-05
0.000128857
0.000105274
0.00010525
4.86483e-05
0.000128762
7.79043e-05
0.000128819
0.000105228
4.86478e-05
0.000105247
4.86609e-05
0.000128792
7.79178e-05
0.000105225
4.86603e-05
0.000128847
8.15005e-05
2.17113e-05
2.17145e-05
2.17093e-05
2.17126e-05
8.15078e-05
2.38957e-05
2.38955e-05
3.67206e-05
9.44503e-05
4.10582e-05
9.98605e-05
3.67137e-05
9.44819e-05
4.10579e-05
2.03208e-05
5.07475e-05
7.90992e-05
7.90819e-05
2.03228e-05
2.0321e-05
7.90715e-05
5.07484e-05
2.03189e-05
7.90892e-05
3.67183e-05
9.98537e-05
9.45023e-05
4.10616e-05
9.44717e-05
4.10617e-05
3.67236e-05
3.67136e-05
9.44317e-05
4.10578e-05
9.98509e-05
3.67147e-05
9.44629e-05
4.10573e-05
2.03189e-05
5.0742e-05
7.90769e-05
7.90598e-05
2.0321e-05
2.03191e-05
7.90494e-05
5.07428e-05
2.03171e-05
7.90669e-05
3.67184e-05
9.98438e-05
9.44832e-05
4.1061e-05
9.4453e-05
4.10613e-05
3.67181e-05
8.14969e-05
2.17122e-05
2.17089e-05
0.000105245
0.000128898
7.79158e-05
4.86616e-05
0.000105266
0.000128845
4.86619e-05
0.000105251
0.000128881
7.79102e-05
4.86511e-05
0.000105272
0.000128825
4.86514e-05
0.00010524
7.79103e-05
0.000128836
4.86574e-05
0.000105245
0.00012876
7.79045e-05
0.000128817
4.86467e-05
8.14977e-05
2.1714e-05
2.17107e-05
8.15053e-05
2.1712e-05
2.17088e-05
2.38945e-05
2.38942e-05
2.38934e-05
2.38931e-05
2.39008e-05
2.3901e-05
2.38987e-05
2.38989e-05
8.15209e-05
2.1718e-05
2.17147e-05
2.1716e-05
2.17127e-05
8.15281e-05
0.000105302
0.00012892
4.86656e-05
7.79476e-05
0.000105279
4.86726e-05
0.000128968
0.000105303
0.000128896
4.86531e-05
7.79402e-05
0.00010528
4.866e-05
0.000128949
8.15202e-05
2.17142e-05
2.17109e-05
8.15127e-05
2.17162e-05
2.17129e-05
0.000105305
4.86771e-05
7.795e-05
0.000129028
4.86699e-05
0.000105327
0.000128981
0.000105306
4.86644e-05
7.79441e-05
0.000129009
4.86573e-05
0.000105328
0.000128957
2.39051e-05
2.3903e-05
8.15359e-05
2.17178e-05
2.17144e-05
8.15288e-05
2.17197e-05
2.17164e-05
0.000105353
4.86742e-05
0.000129041
7.79724e-05
0.00010533
4.86813e-05
0.000129087
0.000105354
4.86617e-05
0.000129016
7.79643e-05
0.000105332
4.86685e-05
0.000129068
3.67266e-05
9.99146e-05
4.10736e-05
9.45342e-05
4.10676e-05
9.45047e-05
3.67259e-05
2.0323e-05
7.90737e-05
5.07563e-05
2.0321e-05
7.90911e-05
3.67222e-05
9.99221e-05
4.10638e-05
9.44859e-05
4.10694e-05
3.67228e-05
9.45154e-05
2.03228e-05
7.91004e-05
5.07554e-05
7.90832e-05
2.03248e-05
3.67343e-05
4.10721e-05
9.45361e-05
9.99737e-05
3.67278e-05
4.10776e-05
9.45651e-05
2.03273e-05
7.9115e-05
5.07712e-05
2.03253e-05
7.91318e-05
3.67292e-05
4.10719e-05
9.4524e-05
9.99702e-05
3.67299e-05
4.10776e-05
9.45526e-05
2.03266e-05
7.90925e-05
5.07657e-05
2.03246e-05
7.91093e-05
8.15165e-05
2.17146e-05
2.17177e-05
2.17126e-05
2.17157e-05
8.15231e-05
0.000105299
0.000128886
4.86527e-05
7.7927e-05
4.86595e-05
0.000105282
0.000128937
0.000105297
0.000128918
4.86676e-05
7.79448e-05
0.00012897
0.000105279
4.86677e-05
8.15147e-05
2.17109e-05
2.1714e-05
2.17128e-05
8.15081e-05
2.17159e-05
0.000105308
4.8664e-05
7.7928e-05
0.000128997
4.86569e-05
0.000128947
0.000105326
0.000105305
4.8672e-05
7.795e-05
0.00012903
0.000128979
4.86725e-05
0.000105323
2.38999e-05
2.39002e-05
2.39031e-05
8.15312e-05
2.17144e-05
2.17175e-05
8.15246e-05
2.17164e-05
2.17194e-05
0.000105352
4.86612e-05
0.000129006
7.79517e-05
0.000129055
0.000105332
4.86682e-05
0.000105348
4.86769e-05
0.000129038
7.79699e-05
0.00010533
4.86764e-05
0.000129088
2.39043e-05
3.67263e-05
9.99158e-05
4.10702e-05
9.45274e-05
4.10703e-05
9.4507e-05
3.67253e-05
2.0323e-05
7.90715e-05
5.07508e-05
2.0321e-05
7.90882e-05
3.67219e-05
9.99157e-05
4.10661e-05
9.44875e-05
4.10664e-05
3.67226e-05
9.45089e-05
2.03228e-05
7.90975e-05
5.07545e-05
7.90812e-05
2.03248e-05
3.67305e-05
9.4535e-05
4.10742e-05
9.99661e-05
3.67315e-05
9.45556e-05
4.10745e-05
2.03276e-05
7.91107e-05
5.07662e-05
2.03256e-05
7.91266e-05
3.67286e-05
4.10739e-05
9.45257e-05
9.99634e-05
3.67297e-05
4.10742e-05
9.45464e-05
2.03266e-05
7.90905e-05
5.07604e-05
2.03246e-05
7.91066e-05
3.67248e-05
9.99094e-05
9.45266e-05
4.10726e-05
9.45029e-05
4.10665e-05
3.673e-05
2.03242e-05
7.90871e-05
5.07559e-05
7.90981e-05
2.03221e-05
3.6727e-05
9.99111e-05
9.44829e-05
4.10628e-05
9.45079e-05
3.67211e-05
4.10685e-05
2.03239e-05
7.9107e-05
5.07595e-05
7.90969e-05
2.0326e-05
3.67233e-05
9.99165e-05
4.10707e-05
9.45297e-05
4.10707e-05
9.45087e-05
3.67292e-05
2.03233e-05
7.90719e-05
5.07521e-05
2.03213e-05
7.90886e-05
3.6726e-05
9.99165e-05
4.10663e-05
9.44889e-05
3.672e-05
4.10669e-05
9.45111e-05
2.03231e-05
7.90977e-05
5.07557e-05
7.90817e-05
2.03251e-05
3.67337e-05
9.45216e-05
4.10708e-05
9.99591e-05
3.67281e-05
9.45452e-05
4.10766e-05
2.03278e-05
7.91063e-05
5.07654e-05
2.03257e-05
7.91162e-05
3.6733e-05
4.10744e-05
9.45274e-05
9.99641e-05
3.67266e-05
4.10747e-05
9.45484e-05
2.03269e-05
7.9091e-05
5.07614e-05
2.03249e-05
7.91067e-05
8.15173e-05
2.17149e-05
2.17181e-05
2.17129e-05
2.17161e-05
8.15243e-05
0.000105304
0.00012889
4.86566e-05
7.7931e-05
4.86567e-05
0.000105283
0.000128944
0.000105301
0.00012892
4.8669e-05
7.79449e-05
0.000128973
0.00010528
4.86689e-05
8.15162e-05
2.17111e-05
2.17144e-05
2.17131e-05
8.15091e-05
2.17163e-05
0.000105309
4.8661e-05
7.79365e-05
0.000129003
4.8661e-05
0.000128951
0.00010533
0.000105306
4.86731e-05
7.79497e-05
0.000129032
0.00012898
4.86735e-05
0.000105327
2.38999e-05
2.39002e-05
2.3902e-05
8.15321e-05
2.17147e-05
2.17179e-05
8.15252e-05
2.17166e-05
2.17199e-05
0.000105355
4.86651e-05
0.00012901
7.79559e-05
0.000129061
0.000105334
4.86664e-05
0.000105353
4.86779e-05
0.00012904
7.79699e-05
0.000105331
4.86777e-05
0.000129091
2.39043e-05
3.67247e-05
9.99044e-05
9.45408e-05
4.10697e-05
9.45111e-05
4.10699e-05
3.67312e-05
2.03246e-05
7.90916e-05
5.07581e-05
7.91089e-05
2.03226e-05
3.67278e-05
9.99116e-05
9.44923e-05
4.10656e-05
9.4522e-05
3.67212e-05
4.10659e-05
2.03244e-05
7.91183e-05
5.07573e-05
7.91013e-05
2.03264e-05
3.6722e-05
9.98947e-05
9.45222e-05
4.10691e-05
9.44924e-05
4.10694e-05
3.67276e-05
2.03228e-05
7.90696e-05
5.07526e-05
2.03208e-05
7.90866e-05
3.67232e-05
9.99019e-05
9.44733e-05
4.10651e-05
3.672e-05
9.45031e-05
4.10653e-05
2.03226e-05
7.9096e-05
5.07518e-05
7.90792e-05
2.03246e-05
3.67347e-05
9.45306e-05
4.10735e-05
9.99596e-05
3.67282e-05
9.45595e-05
4.10737e-05
2.03282e-05
7.91105e-05
5.07672e-05
2.03262e-05
7.91272e-05
3.67315e-05
9.45118e-05
4.10731e-05
9.995e-05
3.67252e-05
9.45409e-05
4.10731e-05
2.03264e-05
7.90885e-05
5.0762e-05
2.03244e-05
7.9105e-05
2.38986e-05
2.38989e-05
2.38975e-05
2.38978e-05
8.15298e-05
2.17174e-05
2.17141e-05
8.15229e-05
2.17193e-05
2.17161e-05
0.000105345
4.86724e-05
0.000129029
7.79625e-05
0.000105323
0.000129079
4.86774e-05
0.00010535
4.86647e-05
0.000129009
7.79568e-05
0.00010533
0.000129061
4.86646e-05
2.3903e-05
2.39019e-05
0.000206569
0.000205525
0.000205525
0.000208946
0.000206285
0.000206286
0.000197399
0.000196402
0.000138543
0.00016212
0.00016211
0.000182593
0.000138509
0.000162175
0.000162161
0.000138439
0.000182224
0.00016205
0.000162039
0.000161972
0.000161957
0.00013848
0.000138439
0.000182288
0.000162013
0.000162035
0.000161959
0.000161992
0.000138473
0.00013844
0.00018224
0.000162043
0.000162062
0.000161959
0.00016198
0.00013848
0.000138434
0.000182284
0.000162033
0.000162019
0.000138468
0.000161976
0.000161965
0.00013855
0.000162113
0.000162097
0.000182624
0.000138515
0.000162186
0.000162176
0.000138546
0.000162101
0.000162129
0.000182587
0.000162179
0.000138514
0.000162155
0.000138552
0.000162097
0.000162119
0.000182657
0.000162197
0.000138514
0.000162178
0.000207173
0.000204759
0.000204759
0.000203985
0.000203985
0.000194397
0.000195403
0.00020717
0.000204756
0.00020476
0.000203984
0.000203989
0.000194398
0.000195405
0.00020718
0.000204766
0.00020477
0.000203992
0.000203997
0.000194406
0.000195413
0.000207174
0.000204768
0.000204769
0.000203995
0.000203996
0.000194407
0.000195414
0.000205522
0.000205526
0.000208937
0.000206282
0.000206285
0.0001974
0.000196402
0.000205533
0.000205536
0.000208952
0.000206293
0.000206296
0.000197408
0.00019641
0.000205534
0.000205535
0.000208945
0.000206294
0.000206294
0.000197409
0.000196411
0.000209524
0.000207038
0.000207039
0.000198388
0.000209515
0.000207035
0.000207038
0.000198388
0.00020953
0.000207046
0.000207049
0.000198396
0.000209524
0.000207046
0.000207048
0.000198397
0.000171955
0.000144418
0.000137881
0.000177247
0.000137823
0.000177245
0.000172016
0.000161158
0.000147833
0.000122855
0.000103701
0.000161135
0.000147862
0.000122908
0.000171841
0.000144396
0.000137745
0.000177049
0.000171784
0.000137806
0.000177054
0.00016127
0.000122961
0.000103696
0.000147967
0.000147935
0.000122911
0.000161292
0.00017187
0.000144402
0.00017731
0.000137899
0.000177162
0.000137809
0.000172066
0.000161227
0.000147821
0.000122855
0.000103703
0.000161049
0.000147881
0.000122916
0.000171877
0.000144402
0.000176968
0.000137737
0.000171695
0.000177105
0.000137825
0.00016118
0.00012297
0.000103697
0.000147984
0.000147924
0.00012291
0.000161357
0.000138582
0.000182717
0.00016231
0.000162296
0.000162259
0.000162249
0.000138616
0.000138283
0.000181793
0.000161769
0.000161753
0.000138326
0.000161684
0.000161667
0.000138405
0.000182214
0.000161823
0.000161808
0.000138362
0.000161907
0.000161893
0.000160599
0.000122747
0.000103559
0.00014756
0.000122681
0.000147493
0.000160787
0.00017153
0.000137583
0.000176578
0.000144226
0.000171343
0.000137672
0.0001767
0.000160905
0.000147776
0.000103631
0.000122863
0.000147707
0.0001228
0.000161076
0.000160937
0.000122741
0.000147596
0.000103636
0.000147662
0.000160761
0.000122804
0.00017152
0.000144227
0.000137752
0.000176907
0.000137664
0.000176775
0.000171711
0.000171511
0.000137567
0.00017657
0.000144221
0.000171319
0.000137656
0.000176693
0.000160876
0.00014774
0.000103606
0.000122843
0.00012278
0.000147673
0.000161052
0.000160909
0.000122723
0.000147561
0.000103612
0.000160731
0.000122785
0.00014763
0.000171498
0.000144221
0.000137737
0.000176899
0.000137648
0.000176767
0.000171692
0.000182162
0.00016182
0.000161876
0.00010355
0.000147522
0.000147487
0.000171461
0.000137587
0.000176654
0.000144212
0.000171414
0.000137652
0.000176661
0.000160969
0.00014774
0.000103622
0.000122849
0.000147703
0.000122797
0.000160999
0.000160849
0.000122739
0.000147595
0.000103626
0.000147634
0.00016083
0.000122793
0.000171607
0.000144232
0.000137731
0.000176854
0.000137667
0.000176847
0.000171648
0.00017146
0.000176651
0.000137579
0.000144209
0.000171405
0.000176658
0.000137644
0.000160949
0.00014774
0.000103613
0.000122838
0.000122786
0.000147698
0.000161008
0.000160846
0.000122729
0.000147584
0.000103616
0.000160819
0.000122782
0.000147623
0.000171593
0.000144229
0.000176852
0.000137723
0.000176845
0.000137659
0.000171644
0.000160988
0.000147754
0.000103628
0.000122853
0.000161012
0.000147724
0.000122798
0.000171606
0.000144232
0.00013773
0.000176858
0.000171665
0.000137665
0.000176856
0.000160975
0.000147749
0.00010362
0.000122846
0.000122793
0.000147708
0.000161002
0.000171606
0.000144234
0.000176867
0.000137729
0.00017686
0.000137665
0.000171663
0.000138405
0.000182236
0.000161813
0.000161834
0.000161899
0.000138363
0.000161919
0.000171531
0.000176572
0.000137574
0.000144215
0.000171311
0.000176711
0.000137664
0.000160911
0.000147775
0.00010363
0.000122861
0.000161069
0.000147715
0.000122797
0.000160935
0.000122739
0.000147607
0.000103634
0.000160766
0.000147667
0.000122803
0.000171508
0.000144217
0.000176911
0.000137747
0.000171694
0.000176776
0.000137657
0.00017153
0.000176577
0.000137558
0.000144209
0.000171287
0.000176714
0.000137647
0.000160887
0.000147744
0.000103612
0.000122841
0.000122779
0.000147684
0.000161045
0.000160912
0.000122721
0.000147574
0.000103617
0.000160749
0.000122783
0.000147635
0.000171485
0.000144211
0.000176913
0.000137728
0.000176778
0.00013764
0.000171692
0.000138391
0.000182157
0.000161817
0.000161889
0.000161876
0.000138589
0.000182666
0.00016232
0.000162311
0.000138622
0.00016226
0.000162244
0.000138695
0.000183025
0.000162405
0.000162387
0.000138663
0.000162461
0.000162444
0.000171883
0.000144411
0.000137906
0.000177309
0.000137813
0.000177169
0.000172071
0.000161228
0.000147821
0.000122857
0.000103704
0.000122918
0.000161048
0.000147875
0.000171892
0.000144412
0.000137743
0.000176969
0.000137831
0.000171708
0.000177103
0.000161177
0.000122972
0.000103699
0.000147979
0.000122912
0.000147921
0.000161359
0.000171862
0.000144406
0.000137891
0.000177302
0.000137799
0.000177161
0.000172052
0.000161202
0.000147781
0.000122837
0.00010368
0.000161022
0.000122898
0.000147844
0.000171873
0.000144406
0.000137728
0.000176961
0.000171687
0.000137815
0.000177095
0.00016115
0.000122952
0.000103674
0.000147948
0.000122892
0.000161333
0.000147884
0.000172251
0.000137892
0.000177357
0.00014459
0.000172058
0.000137983
0.000177503
0.000161497
0.000122966
0.000148023
0.000103769
0.00014808
0.000161322
0.000123025
0.000172232
0.000137877
0.000177349
0.000144584
0.000172038
0.000137967
0.000177496
0.000161468
0.000122946
0.000147988
0.000103744
0.000161294
0.000123005
0.000148048
0.000138587
0.000182687
0.000162294
0.000162317
0.000162265
0.00016224
0.000138619
0.000138691
0.000183036
0.000162378
0.000162402
0.000162433
0.00013866
0.000162455
0.000171944
0.00014442
0.000137881
0.000177244
0.000137824
0.000177244
0.000171997
0.000161138
0.000147809
0.000122853
0.000103694
0.000122905
0.000161109
0.000147854
0.000171828
0.000144399
0.000137747
0.000177039
0.000137809
0.000171773
0.000177051
0.000161248
0.000122959
0.00010369
0.000147952
0.000122909
0.00014791
0.000161274
0.00017194
0.000144417
0.00017724
0.000137875
0.000177241
0.000137817
0.000171995
0.000161148
0.000147798
0.000122842
0.000103684
0.000161088
0.000122894
0.000147842
0.000171825
0.000144397
0.000177038
0.00013774
0.000171767
0.00017705
0.000137803
0.000161227
0.000122947
0.000103681
0.000147944
0.000122898
0.000161288
0.000147901
0.00017218
0.000137901
0.000177423
0.000144576
0.000172118
0.000137958
0.000177432
0.000161413
0.000122962
0.000148012
0.000103758
0.000148054
0.000161389
0.000123011
0.000172176
0.000177421
0.000137894
0.000144573
0.000172112
0.00017743
0.00013795
0.000161428
0.000122952
0.000148001
0.000103748
0.000161362
0.000123001
0.00014804
0.000171952
0.00014442
0.000177247
0.000137879
0.000177248
0.000137822
0.000172012
0.000161139
0.000147811
0.000122848
0.000103691
0.000147854
0.000161116
0.000122901
0.00017184
0.0001444
0.000177045
0.000137744
0.000177057
0.000171782
0.000137807
0.000161256
0.000122955
0.000103687
0.000147958
0.000147915
0.000122905
0.00016128
0.000172191
0.000137898
0.000177426
0.000144574
0.000172127
0.000137956
0.000177427
0.000161429
0.000122964
0.000148036
0.000103765
0.000161406
0.000148071
0.000123014
0.000172189
0.000177431
0.000137899
0.000144576
0.000172124
0.00017743
0.000137955
0.000161418
0.000122958
0.000148016
0.000103755
0.000161394
0.000123008
0.000148058
0.000138588
0.00018265
0.00016231
0.000162332
0.000162259
0.000162236
0.000138626
0.000138697
0.000183052
0.000162373
0.000162398
0.000162447
0.000138659
0.00016247
0.000171864
0.000144396
0.00017731
0.000137885
0.000177164
0.00013779
0.000172059
0.000161201
0.000147788
0.000122836
0.000103685
0.000147847
0.000161033
0.000122897
0.000171875
0.000144395
0.000176967
0.00013772
0.000177105
0.000171685
0.000137807
0.000161161
0.000122951
0.000103679
0.000147951
0.000147893
0.000122891
0.000161336
0.000172244
0.000177339
0.000137886
0.000144579
0.000172051
0.000177498
0.000137976
0.000161485
0.000122964
0.000148025
0.000103767
0.000161321
0.000148083
0.000123023
0.000172236
0.000177347
0.000137869
0.000144573
0.000172041
0.000177501
0.00013796
0.000161475
0.000122945
0.000147995
0.00010375
0.000161303
0.000123004
0.000148053
0.000138687
0.000183015
0.000162398
0.000162388
0.000138655
0.000162447
0.000162433
0.000210658
0.000202715
0.000202722
0.000183301
0.000212847
0.000203879
0.000203887
0.000184064
0.000214926
0.000204967
0.000204975
0.000184749
0.000216896
0.000205978
0.000205987
0.000185384
0.000218757
0.000206917
0.000206926
0.000185983
0.00022051
0.000207776
0.000207784
0.000186528
0.000222157
0.000208563
0.000208572
0.000187019
0.0002237
0.00020928
0.000209288
0.000187456
0.000225141
0.000209928
0.000209935
0.000187842
0.000226485
0.000210507
0.000210514
0.00018818
0.000227731
0.000211018
0.000211024
0.000188479
0.000228875
0.000211462
0.000211467
0.000188727
0.000229911
0.000211858
0.000211862
0.000188926
0.000230859
0.000212198
0.000212197
0.00018908
0.000231723
0.000212484
0.000212478
0.000189196
0.000232502
0.000212719
0.000212707
0.000189284
0.000233207
0.000212908
0.000212892
0.000189334
0.000233837
0.000213051
0.000213043
0.000189351
0.000234509
0.000213334
0.000213329
0.000189361
0.000234258
0.00021393
0.000213928
0.000193854
0.000183252
0.000202396
0.000202375
0.000183246
0.000202407
0.000202384
0.000202409
0.000202388
0.000183255
0.000202417
0.000202398
0.000183235
0.000183319
0.000184049
0.000202702
0.00020268
0.00020358
0.000203557
0.000183298
0.000184043
0.000202713
0.000202689
0.000203591
0.000203566
0.000202694
0.000203591
0.00020357
0.000183296
0.000184047
0.000202703
0.0002036
0.00020358
0.000184031
0.00018408
0.000184766
0.000203867
0.000203844
0.000204685
0.000204661
0.000184061
0.000184783
0.000203879
0.000203853
0.000204698
0.000204671
0.000203857
0.000204696
0.000204674
0.000184069
0.00018479
0.000203868
0.000204705
0.000204685
0.000184773
0.000184794
0.00018543
0.000204956
0.000204932
0.000205713
0.000205689
0.000184751
0.00018546
0.000204968
0.000204941
0.000205726
0.000205699
0.000204944
0.000205724
0.000205701
0.000184757
0.000185466
0.000204955
0.000205733
0.000205712
0.000185454
0.000185449
0.000186044
0.000205967
0.000205944
0.000206664
0.000206641
0.000185397
0.000186071
0.00020598
0.000205953
0.000206677
0.00020665
0.000205955
0.000206676
0.000206652
0.000185402
0.000186075
0.000205967
0.000206685
0.000206664
0.000186067
0.000186047
0.000186602
0.000206905
0.000206882
0.000207544
0.000207521
0.000185998
0.000186621
0.000206918
0.000206891
0.000207558
0.000207531
0.000206893
0.000207557
0.000207533
0.000186003
0.000186596
0.000206905
0.000207566
0.000207545
0.000186624
0.000186589
0.000187106
0.000207764
0.000207741
0.000208352
0.00020833
0.000186575
0.000187099
0.000207777
0.00020775
0.000208366
0.000208339
0.000207751
0.000208366
0.000208341
0.000186587
0.000187104
0.000207764
0.000208375
0.000208353
0.000187128
0.000187077
0.000187557
0.00020855
0.000208528
0.000209089
0.000209067
0.00018707
0.000187549
0.000208564
0.000208537
0.000209103
0.000209075
0.000208538
0.000209102
0.000209078
0.000187075
0.000187553
0.000208552
0.000209111
0.000209091
0.000187579
0.000187514
0.000187956
0.000209267
0.000209245
0.000209756
0.000209734
0.000187505
0.000187947
0.00020928
0.000209252
0.00020977
0.000209741
0.000209255
0.000209769
0.000209744
0.000187509
0.000187951
0.000209268
0.000209778
0.000209758
0.000187978
0.000187899
0.000188307
0.000209915
0.000209892
0.000210357
0.000210335
0.00018789
0.000188295
0.000209928
0.000209899
0.000210371
0.000210341
0.000209902
0.00021037
0.000210345
0.000187894
0.000188297
0.000209916
0.000210378
0.000210359
0.00018833
0.000188235
0.000188648
0.000210494
0.000210471
0.000210896
0.000210874
0.000188231
0.000188584
0.000210507
0.000210476
0.000210909
0.000210878
0.000210481
0.000210908
0.000210884
0.000188236
0.000188595
0.000210495
0.000210916
0.000210898
0.000188648
0.000188498
0.000188918
0.000211005
0.000210982
0.000211375
0.000211352
0.000188563
0.000188851
0.000211018
0.000210986
0.000211388
0.000211356
0.000210992
0.000211387
0.000211362
0.000188557
0.00018885
0.000211007
0.000211394
0.000211377
0.000188899
0.000188749
0.000189093
0.000211449
0.000211427
0.000211782
0.00021176
0.00018879
0.000189054
0.000211461
0.000211428
0.000211795
0.000211761
0.000211437
0.000211795
0.00021177
0.00018879
0.000189032
0.000211452
0.0002118
0.000211785
0.000189084
0.000188951
0.000189245
0.000211845
0.000211823
0.00021213
0.000212109
0.000188968
0.000189206
0.000211857
0.000211823
0.000212142
0.000212108
0.000211834
0.000212143
0.000212118
0.00018897
0.000189201
0.000211849
0.000212147
0.000212133
0.000189231
0.000189098
0.000189357
0.000212183
0.000212162
0.000212423
0.000212403
0.000189116
0.000189334
0.000212194
0.000212157
0.000212432
0.0002124
0.000212173
0.000212434
0.000212411
0.00018911
0.000189331
0.000212188
0.00021244
0.000212425
0.000189345
0.000189234
0.00018943
0.000212467
0.000212446
0.000212664
0.000212645
0.000189222
0.000189425
0.000212476
0.000212437
0.000212672
0.000212641
0.000212459
0.000212674
0.000212652
0.000189216
0.000189418
0.000212474
0.000212682
0.000212666
0.000189428
0.000189303
0.000189481
0.000212698
0.000212681
0.000212858
0.00021284
0.0001893
0.000189478
0.000212706
0.000212666
0.000212865
0.000212835
0.000212694
0.000212866
0.000212846
0.000189293
0.00018947
0.000212708
0.000212876
0.00021286
0.000189479
0.000189352
0.000189504
0.000212884
0.000212868
0.000213012
0.00021299
0.000189346
0.000189506
0.000212891
0.00021285
0.000213017
0.000212988
0.000212883
0.000213019
0.000212999
0.000189341
0.000189489
0.000212897
0.000213027
0.000213012
0.000189503
0.000189361
0.000189529