/*--------------------------------*- C++ -*----------------------------------*\
| =========                 |                                                 |
| \\      /  F ield         | OpenFOAM: The Open Source CFD Toolbox           |
|  \\    /   O peration     | Version:  2312                                  |
|   \\  /    A nd           | Website:  www.openfoam.com                      |
|    \\/     M anipulation  |                                                 |
\*---------------------------------------------------------------------------*/
FoamFile
{
    version     2.0;
    format      ascii;
    arch        "LSB;label=32;scalar=64";
    class       surfaceScalarField;
    location    "450";
    object      phi;
}
// * * * * * * * * * * * * * * * * * * * * * * * * * * * * * * * * * * * * * //

dimensions      [0 3 -1 0 0 0 0];

oriented        oriented;

internalField   nonuniform List<scalar> 
125280
(
1.24217e-07
1.18812e-07
-0.00118378
-7.70922e-08
-7.7121e-08
0.0011837
-0.00113203
-1.19882e-06
-1.13322e-07
-8.98287e-08
0.00113205
-2.39364e-07
1.23827e-06
2.74658e-07
9.11185e-07
-2.14929e-07
-8.55044e-07
2.69038e-07
-0.00113194
-1.1935e-06
-1.24659e-07
-4.49138e-08
0.00113191
-2.36706e-07
1.2355e-06
2.74609e-07
9.1128e-07
-2.14961e-07
-8.52383e-07
2.69032e-07
-0.000270074
1.22478e-06
1.18817e-06
-1.97889e-07
-2.00631e-07
0.00026806
-1.28038e-06
-1.2385e-06
0.000270144
-0.000268111
2.38967e-07
2.46808e-07
0.00113153
-1.23695e-07
-0.00113155
-4.46748e-08
-1.2357e-06
2.77276e-07
-2.42191e-07
-8.5527e-07
2.66229e-07
-2.12335e-07
9.13982e-07
1.27782e-06
0.0011316
5.84056e-08
-0.00113178
-6.73889e-08
-1.2308e-06
2.80057e-07
-2.39677e-07
-8.6042e-07
2.63574e-07
-2.14998e-07
9.13738e-07
-1.21671e-06
0.000270124
-0.00026811
2.3393e-07
2.46622e-07
0.00113253
-1.24007e-07
-0.00113255
-5.03997e-08
-1.19377e-06
2.74806e-07
-2.36827e-07
-8.5778e-07
2.69108e-07
-2.15056e-07
9.16595e-07
1.27242e-06
0.00113147
-1.17813e-07
-0.00113149
-5.60332e-08
-1.22772e-06
2.80155e-07
-2.42275e-07
-8.57797e-07
2.66246e-07
-2.15081e-07
9.16477e-07
-6.71224e-08
-2.22323e-07
-1.25772e-06
2.71978e-07
-2.44993e-07
-8.57916e-07
2.6635e-07
9.08587e-07
-2.17686e-07
-0.00113182
1.27213e-06
0.0011311
-1.00966e-07
-5.02784e-08
-1.22215e-06
2.80001e-07
-2.39489e-07
-8.55041e-07
2.66259e-07
-2.14947e-07
9.08439e-07
-0.00113114
-1.2382e-06
0.000270105
-0.000268083
2.41711e-07
2.46671e-07
-1.24178e-07
-0.00113198
-3.33873e-08
-1.19358e-06
2.7465e-07
-2.36739e-07
-8.52405e-07
2.69071e-07
9.11289e-07
-2.14983e-07
1.2303e-06
0.00113206
-1.23869e-07
-0.00113204
-8.41363e-08
-1.1936e-06
2.74811e-07
-2.39497e-07
-8.54943e-07
2.69056e-07
-2.14974e-07
9.13786e-07
-0.000268058
2.38909e-07
2.46791e-07
1.23565e-06
1.19371e-06
-1.95411e-07
-2.03212e-07
0.000268114
-5.05507e-08
0.00113151
-2.394e-07
1.28032e-06
2.77234e-07
9.13906e-07
-2.12256e-07
-8.55204e-07
2.66197e-07
-1.23304e-06
-1.1294e-07
-5.07115e-08
0.00113157
-2.4231e-07
1.27771e-06
2.80077e-07
9.1641e-07
-2.14981e-07
-8.5766e-07
2.68906e-07
-2.03241e-07
-2.00541e-07
0.000268096
-5.06326e-08
0.0011325
-2.36788e-07
1.23844e-06
2.7477e-07
9.16571e-07
-2.15023e-07
-8.5773e-07
2.69085e-07
-1.22765e-06
-1.18391e-07
-5.06526e-08
0.00113144
-2.42228e-07
1.27238e-06
2.80108e-07
9.16458e-07
-2.12323e-07
-8.57769e-07
2.66215e-07
-1.24474e-07
-5.05155e-08
0.00113108
-2.39403e-07
1.26942e-06
2.77214e-07
9.08417e-07
-2.12204e-07
2.63521e-07
-8.49647e-07
-1.98179e-07
-2.0308e-07
0.000268085
-1.24416e-07
-6.76663e-08
0.00113206
-2.36707e-07
1.23295e-06
2.74738e-07
9.13714e-07
-2.14954e-07
2.6901e-07
-8.54856e-07
6.85107e-09
-4.36118e-08
0.000193706
3.32553e-09
-0.000193673
6.88905e-09
-4.36287e-08
0.000193689
-0.000193655
-0.00118389
-7.05789e-08
-7.64596e-08
0.00118346
-0.00118305
-1.58024e-07
-2.56347e-07
0.00118334
-0.00118345
-8.81417e-08
-5.31392e-08
0.00118328
-0.00118331
-9.95616e-08
-1.00058e-07
-1.05115e-10
-7.00733e-08
0.000229498
-0.00022946
2.98651e-08
1.9691e-09
-0.000193745
-4.8913e-09
2.26224e-08
-4.00005e-09
0.000193732
-0.000229459
8.59751e-11
2.85642e-08
0.00022944
-1.11029e-08
1.22329e-09
6.9339e-09
-4.34348e-08
0.000193785
3.20301e-09
-0.000193751
-9.80696e-05
4.93536e-09
1.36818e-08
9.8051e-05
-6.92212e-09
-2.19159e-08
9.80901e-05
-9.80612e-05
-7.01044e-08
-1.591e-10
0.000229485
-0.000229447
2.15637e-09
2.98757e-08
-0.000193728
-4.9109e-09
2.26245e-08
-3.97125e-09
0.000193714
-0.000229446
2.85957e-08
1.77075e-10
0.000229428
9.67728e-10
-1.1125e-08
6.97513e-09
-4.34475e-08
0.000193767
3.18396e-09
-0.000193734
-8.8797e-08
-1.23686e-07
0.00118344
-7.71686e-08
-6.54105e-08
0.00118324
-8.29726e-08
-9.48559e-08
0.00118321
6.99489e-08
-1.69989e-09
0.000250298
-0.000250178
4.02007e-09
-1.93057e-07
-0.000245595
-1.20519e-08
-2.26052e-08
6.63891e-08
3.96453e-09
0.000245559
0.00115197
-0.00115206
-1.27608e-08
-1.33696e-07
1.00607e-06
-7.53315e-07
-9.35401e-07
8.28468e-07
-5.65349e-08
1.24092e-06
0.00113203
-1.2505e-07
-8.52277e-07
2.68971e-07
-2.1491e-07
9.11194e-07
-1.19608e-06
2.74618e-07
-2.36592e-07
-0.000250274
-2.84483e-08
9.51714e-10
0.000250167
2.73622e-09
1.31773e-07
2.32787e-08
4.34176e-08
0.000245633
-1.67479e-08
-0.000245578
-1.04739e-07
-9.69707e-09
0.00115193
-1.52081e-07
-9.32464e-07
8.25788e-07
-7.53131e-07
1.00339e-06
-9.80626e-05
4.934e-09
1.1365e-08
9.80463e-05
-6.98312e-09
-1.95385e-08
9.80831e-05
-9.80566e-05
-6.63108e-10
6.99552e-08
0.000250288
-0.000250168
-1.93066e-07
3.84511e-09
0.0011518
-0.00115185
1.36205e-08
-1.50984e-07
1.00613e-06
-7.56035e-07
-9.32666e-07
8.28488e-07
-0.000245584
-1.20424e-08
-2.25898e-08
6.39844e-08
3.98795e-09
0.000245551
-5.06424e-08
1.23544e-06
0.00113189
-1.24996e-07
-8.52352e-07
2.68987e-07
-2.14937e-07
9.11241e-07
-1.19076e-06
2.74567e-07
-2.36674e-07
-0.000250261
1.25101e-09
-2.84756e-08
0.000250154
1.31792e-07
1.85407e-09
9.55704e-11
0.00115175
-1.51914e-07
-9.32524e-07
8.28512e-07
-7.53165e-07
1.00614e-06
2.31444e-08
4.34477e-08
0.000245622
-1.66859e-08
-0.00024557
-1.02341e-07
-0.000278333
1.213e-08
-1.14178e-08
2.27039e-08
-6.78067e-09
0.000278317
-0.000278255
1.20606e-08
-1.13967e-08
2.27105e-08
-7.23926e-09
0.000278239
-1.26939e-06
-1.2329e-06
0.000270079
-0.000268062
2.41337e-07
2.44051e-07
-2.31953e-08
1.96085e-08
0.000278383
1.01262e-08
-0.000278339
-5.05661e-08
-2.32729e-08
1.95373e-08
0.000278306
1.07189e-08
-0.000278264
-4.82551e-08
-1.98536e-08
9.80694e-05
-9.80427e-05
-1.9794e-08
9.80583e-05
-9.80317e-05
0.00027014
-1.28043e-06
-1.24126e-06
-0.000268104
2.39088e-07
2.46943e-07
0.000278329
-2.3137e-08
1.25604e-08
-0.000278288
-5.07997e-08
0.000278261
-2.08602e-08
1.00746e-08
-0.00027822
-5.0787e-08
-1.97496e-08
-6.89049e-09
9.80901e-05
-9.80634e-05
1.13904e-08
4.94501e-09
9.80531e-05
-1.96931e-08
-6.92674e-09
9.8079e-05
-9.80523e-05
1.13602e-08
4.96146e-09
9.8042e-05
1.23576e-06
1.19654e-06
0.000268106
-1.9546e-07
-2.03251e-07
-2.31381e-08
0.00027838
-5.06765e-08
-0.000278338
1.26045e-08
-2.08615e-08
0.000278312
-5.06732e-08
-0.00027827
1.01179e-08
1.20686e-08
-9.38925e-09
2.49573e-08
0.000278313
9.71487e-09
-6.73918e-09
2.49158e-08
0.000278245
0.00113157
-1.22615e-07
-1.23586e-06
2.77384e-07
-2.39538e-07
-8.55411e-07
2.68993e-07
-2.15119e-07
9.14021e-07
-4.4251e-08
0.000245558
-1.66995e-08
-0.000245504
-1.04907e-07
4.06923e-11
2.8596e-08
-1.11003e-08
9.92996e-10
0.000229401
-0.000229419
-4.35276e-08
-0.000193712
3.26972e-09
2.25816e-08
-3.93877e-09
0.000193692
-9.46842e-11
-7.01552e-08
-0.00022942
2.99281e-08
1.97142e-09
2.85938e-08
-1.10929e-08
9.40266e-10
0.000229361
-0.000229379
-4.57312e-08
6.89175e-09
0.000193684
-0.000193648
3.41689e-09
2.47588e-08
-4.98511e-09
-4.00036e-09
0.000193629
-0.000193644
-7.01633e-08
0.000229418
-0.00022938
2.99298e-08
2.1281e-09
8.12775e-10
2.68354e-09
1.32008e-07
0.000250151
-0.000250258
-5.57349e-08
-1.23207e-07
1.2804e-06
-2.39475e-07
2.80064e-07
9.13975e-07
-2.12326e-07
2.6628e-07
-8.55355e-07
0.000245597
-1.04784e-07
-0.000245542
-1.67059e-08
-0.00115235
1.35814e-09
0.00115231
-1.49679e-07
-9.35695e-07
8.3126e-07
-7.56259e-07
1.009e-06
3.989e-09
6.63865e-08
0.000245523
4.62272e-10
-1.54314e-07
1.00892e-06
-7.56471e-07
-9.35896e-07
8.31194e-07
-0.0011524
-8.26369e-10
0.000250285
-0.000250164
3.11952e-09
-1.93178e-07
1.44508e-09
1.32016e-07
0.000250126
-0.00025023
-3.32007e-08
-1.23857e-06
-3.10647e-07
9.19154e-07
-2.09659e-07
-8.55114e-07
2.68949e-07
1.28089e-06
-2.44995e-07
2.80246e-07
-0.00113164
2.30711e-08
0.000245492
-1.04748e-07
-0.000245437
-1.90272e-08
-0.00115232
0.00115224
-1.26511e-07
-9.43658e-07
8.31234e-07
-7.58966e-07
1.01146e-06
-1.20696e-08
6.38067e-09
6.63541e-08
0.000245418
-0.000245454
-1.83411e-07
1.01691e-06
-7.5644e-07
-9.3834e-07
8.33918e-07
-0.00115233
0.000250257
-0.00025014
4.74647e-09
-1.93192e-07
-2.20098e-08
-9.80407e-05
1.36177e-08
9.80304e-05
-9.8049e-05
0.000268108
-1.87878e-07
-0.000270125
1.17193e-06
-2.05735e-07
0.000278251
-4.83423e-08
-0.000278213
1.06144e-08
1.96571e-08
-2.32659e-08
0.000278394
-4.83896e-08
-0.000278353
1.06661e-08
2.26045e-08
0.000278188
-0.000278201
-7.44021e-09
-6.9968e-09
9.80856e-05
-9.8059e-05
0.00113257
-1.22906e-07
-1.19664e-06
2.7488e-07
-2.36914e-07
2.69184e-07
-2.15147e-07
0.000245524
-0.000245467
-1.02594e-07
2.86253e-08
1.79823e-10
9.5097e-10
-1.11145e-08
0.000229388
-4.35348e-08
-0.000193695
3.25368e-09
2.25762e-08
-3.90338e-09
0.000193675
-7.01709e-08
-1.47998e-10
-0.000229408
2.14791e-09
2.99361e-08
1.68814e-09
1.92601e-09
1.32022e-07
0.000250144
-5.01996e-08
-1.23519e-07
1.24123e-06
-2.36869e-07
2.74842e-07
9.16596e-07
-2.1509e-07
2.69158e-07
-8.57809e-07
0.000245562
-1.02482e-07
-0.000245505
-1.92062e-08
-0.00115219
-3.89799e-09
0.00115215
-1.49658e-07
-9.3823e-07
8.3122e-07
-7.56246e-07
1.01151e-06
6.47319e-09
6.40238e-08
0.000245486
3.68495e-09
-1.42672e-07
1.01144e-06
-7.5644e-07
-9.38377e-07
8.31154e-07
-1.66539e-09
0.000250278
-0.000250157
4.04538e-09
-1.93192e-07
2.86292e-08
-1.11134e-08
9.51073e-10
0.000229349
-4.34479e-08
6.95207e-09
0.00019367
-0.000193637
3.18696e-09
2.25493e-08
-4.96916e-09
-3.91264e-09
0.000193617
-7.01511e-08
0.000229406
-0.000229368
2.9924e-08
2.20678e-09
1.32047e-07
1.65774e-09
0.000250117
-5.0217e-08
-1.22781e-06
-1.1728e-07
9.16472e-07
-2.15119e-07
-8.57861e-07
2.68973e-07
1.27246e-06
-2.42317e-07
2.80218e-07
-0.00115214
0.00115207
-1.43731e-07
-9.3826e-07
8.31221e-07
-7.56287e-07
1.01149e-06
2.32503e-08
0.000245476
-9.99277e-08
-0.000245426
-1.67758e-08
-1.36707e-07
1.01146e-06
-7.56486e-07
-9.38419e-07
8.31153e-07
-1.21317e-08
3.9769e-09
6.40362e-08
0.000245407
0.000250248
-0.000250131
-1.93178e-07
4.36098e-09
4.35032e-08
-1.02409e-07
-0.000245542
-1.6782e-08
-3.94678e-08
-7.95863e-08
-9.41124e-07
8.28396e-07
1.00601e-06
-7.58971e-07
-0.00115229
7.00102e-08
-2.01342e-09
-0.000250153
4.48814e-09
-1.93077e-07
0.000193732
-0.000193698
3.10847e-09
-2.06133e-10
0.000229442
-0.000229406
2.08373e-09
3.19746e-08
0.00115195
-1.2667e-07
-9.35487e-07
8.25698e-07
-7.56222e-07
1.00329e-06
-0.00115205
4.35106e-08
2.32296e-08
0.000245517
-9.99487e-08
-0.000245467
-1.67272e-08
7.00645e-08
0.000250244
-0.000250125
-1.9569e-07
4.06574e-09
6.90972e-09
0.000193676
-0.000193642
3.25942e-09
0.000229405
-0.000229367
2.98733e-08
1.98417e-09
-1.9628e-08
-9.80361e-05
1.13102e-08
9.80257e-05
1.19636e-06
0.000268081
-1.98244e-07
-2.03161e-07
0.00027825
-4.6047e-08
-0.000278211
1.05664e-08
1.97054e-08
-2.31485e-08
0.000278386
-4.83719e-08
-0.000278344
1.05513e-08
-7.30183e-09
2.0402e-08
0.000278186
-1.13316e-08
9.71592e-09
-7.30258e-09
2.25895e-08
0.000278322
-6.90641e-09
9.80854e-05
-9.80588e-05
4.96993e-09
9.80484e-05
1.68077e-09
-2.85307e-08
1.31972e-07
1.83976e-09
0.000250128
-4.44491e-08
-1.23679e-07
1.23824e-06
-2.39545e-07
2.74694e-07
9.11329e-07
-2.15032e-07
-8.52524e-07
2.69118e-07
-0.00115191
2.26581e-08
-1.49925e-07
-9.32775e-07
8.28472e-07
1.00611e-06
-7.5072e-07
4.35432e-08
-1.02466e-07
-0.000245532
-1.66921e-08
5.79503e-08
-1.43087e-07
1.00605e-06
-7.53671e-07
-9.33002e-07
8.25668e-07
-2.25581e-08
4.03407e-09
6.40079e-08
0.00024551
-2.59065e-10
7.00348e-08
-0.000250141
-1.93116e-07
3.3607e-09
-2.84707e-08
1.31963e-07
2.20037e-09
0.000250103
-2.49686e-07
-1.26844e-06
-1.01028e-07
9.11039e-07
-2.15032e-07
-8.55094e-07
2.69123e-07
1.20329e-06
-2.53287e-07
2.72099e-07
-0.00115183
0.00115176
-1.43975e-07
-9.35331e-07
8.28381e-07
-7.50732e-07
1.00853e-06
4.35197e-08
2.32807e-08
0.000245482
-1.02458e-07
-0.000245429
-1.68044e-08
-1.01518e-07
1.00574e-06
-7.53701e-07
-9.35647e-07
8.25571e-07
-2.25602e-08
-1.20955e-08
4.01731e-09
6.40002e-08
0.00024541
6.99614e-08
0.000250234
-0.000250116
-1.93068e-07
5.77709e-09
3.4046e-10
7.97196e-10
-1.31847e-08
0.000229378
0.000193727
-0.000193694
3.28978e-09
-3.88353e-09
0.000193674
4.08681e-11
0.000229434
-0.000229398
1.81355e-09
3.19735e-08
1.14748e-09
-1.5267e-08
0.000229341
6.98508e-09
0.000193668
-0.000193634
3.16398e-09
-4.98708e-09
-3.86263e-09
0.000193615
0.000229394
-0.00022936
2.45414e-09
3.40574e-08
0.000268069
-2.03334e-07
1.22543e-06
-2.10911e-07
1.97122e-08
-4.83847e-08
-0.000278291
1.00825e-08
1.96394e-08
-4.83695e-08
-0.000278214
1.06771e-08
-1.1326e-08
2.26475e-08
0.000278189
-7.29606e-09
9.80656e-05
-9.80389e-05
9.80617e-05
-9.80351e-05
9.80248e-05
1.14529e-08
9.80737e-05
-1.96416e-08
9.81106e-05
-9.8084e-05
1.14227e-08
9.80626e-05
-1.958e-08
9.80994e-05
-9.80729e-05
1.20331e-08
2.50112e-08
-9.32792e-09
0.000278364
9.68087e-09
2.49723e-08
-6.6773e-09
0.000278295
0.000270149
-1.28027e-06
-1.23839e-06
-0.000268116
2.38806e-07
2.46653e-07
0.00027843
-2.31391e-08
1.2648e-08
-0.000278389
-5.05474e-08
0.000278362
-2.08625e-08
1.0161e-08
-0.00027832
-5.05421e-08
1.1525e-08
4.83611e-09
9.80942e-05
1.14968e-08
4.85538e-09
9.80831e-05
1.23555e-06
1.1936e-06
0.000268119
-1.95383e-07
-2.03185e-07
1.20025e-08
-9.26961e-09
2.5083e-08
0.000278414
9.64735e-09
-6.6194e-09
2.50454e-08
0.000278346
-7.00778e-08
0.000229458
-0.00022942
2.98655e-08
2.12031e-09
2.48037e-08
-4.06621e-09
0.000193668
2.85643e-08
0.0002294
-1.11003e-08
9.50357e-10
-4.56368e-08
0.000193723
3.36581e-09
-0.000193688
-8.49246e-10
0.000250313
-0.000250192
3.1125e-09
-1.93135e-07
6.63937e-08
3.95304e-09
0.000245561
0.00115225
7.43834e-09
-1.50805e-07
1.009e-06
-7.56122e-07
-9.35579e-07
8.3127e-07
-4.50651e-08
0.00113148
-1.24588e-07
-1.23559e-06
2.77188e-07
-2.39372e-07
-8.55158e-07
2.66157e-07
-2.12244e-07
9.1389e-07
9.47194e-10
0.000250178
2.70286e-09
1.31843e-07
0.000245635
-1.66975e-08
-0.00024558
-1.04669e-07
-1.72072e-09
0.00115221
-1.51759e-07
-9.3543e-07
8.31312e-07
-7.55977e-07
1.00903e-06
0.000250285
-0.000250167
4.73472e-09
-1.93144e-07
-1.20427e-08
6.63926e-08
3.90051e-09
0.000245459
0.0011522
-1.45148e-07
1.01148e-06
-7.56093e-07
-9.38049e-07
8.31247e-07
-5.64048e-08
0.00113155
1.27771e-06
-1.24646e-07
-8.60275e-07
2.68874e-07
9.19062e-07
-2.14961e-07
-1.23031e-06
2.80032e-07
-2.3953e-07
0.000250153
1.46844e-09
1.31844e-07
0.00024553
2.30644e-08
-1.65726e-08
-0.000245478
-1.04676e-07
0.00115214
-1.5182e-07
-9.40628e-07
8.31285e-07
-7.55948e-07
1.01422e-06
6.48734e-11
2.85512e-08
-1.11138e-08
1.2319e-09
0.000229479
2.26777e-08
-4.07273e-09
0.000193771
2.8553e-08
-1.11116e-08
9.56227e-10
0.000229439
2.48496e-08
-4.88868e-09
-4.12456e-09
0.000193707
8.66392e-10
2.95329e-09
1.31711e-07
0.000250206
-5.08985e-08
-1.25041e-07
1.28023e-06
-2.39342e-07
2.77149e-07
9.1387e-07
-2.12211e-07
2.66125e-07
-8.55112e-07
0.00113146
3.92514e-09
6.64146e-08
0.000245599
4.52793e-09
-1.52812e-07
1.00903e-06
-7.55834e-07
-9.35329e-07
8.31329e-07
0.00115216
1.23026e-09
1.31715e-07
0.000250181
-5.09422e-08
-1.23297e-06
-1.25074e-07
9.19049e-07
-2.1493e-07
-8.60231e-07
2.68841e-07
1.27766e-06
-2.4222e-07
2.79998e-07
0.00113153
-1.20186e-08
3.88574e-09
6.64041e-08
0.000245497
-1.52847e-07
1.01424e-06
-7.55803e-07
-9.40516e-07
8.31311e-07
0.0011521
2.26563e-08
-7.40083e-09
0.000278238
-1.14626e-08
2.27393e-08
-7.19851e-09
0.000278378
0.000270134
-0.000268101
2.41577e-07
2.43906e-07
0.000278302
1.06471e-08
-0.000278263
-4.82388e-08
1.95559e-08
0.000278447
1.02244e-08
-0.000278403
-5.05747e-08
4.93542e-09
9.80692e-05
9.81061e-05
-7.03648e-09
-9.80795e-05
1.37412e-08
9.80714e-05
1.19605e-06
0.000268104
-1.9802e-07
-2.00482e-07
-7.34874e-09
2.27131e-08
0.000278288
-1.15197e-08
1.20209e-08
-6.62824e-09
2.50918e-08
0.000278428
4.88125e-09
9.80897e-05
-1.68294e-09
0.000250305
-0.000250185
4.05834e-09
-1.93154e-07
6.40298e-08
6.44838e-09
0.000245524
0.00115209
3.31695e-09
-1.45001e-07
1.01153e-06
-7.56084e-07
-9.38115e-07
8.31251e-07
-5.07585e-08
0.00113248
-1.24904e-07
-1.19365e-06
2.74728e-07
-2.36764e-07
-8.57664e-07
2.6904e-07
-2.15007e-07
9.16533e-07
1.68222e-09
0.000250171
1.9471e-09
1.31854e-07
0.000245601
-1.92013e-08
-0.000245543
-1.02369e-07
-3.94035e-09
0.00115204
-1.45974e-07
-9.37959e-07
8.31283e-07
-7.55944e-07
1.01155e-06
-7.00858e-08
0.000229445
-0.000229408
2.98643e-08
2.19502e-09
2.25994e-08
-3.95913e-09
0.000193656
2.85975e-08
0.000229388
-1.11235e-08
9.64756e-10
-4.33679e-08
0.000193709
3.1376e-09
-0.000193676
0.000250275
-0.000250158
-1.93139e-07
4.34497e-09
0.00115203
-1.50739e-07
1.01153e-06
-7.56127e-07
-9.38133e-07
8.31247e-07
-1.21244e-08
6.16272e-08
3.99951e-09
0.000245445
-5.08137e-08
0.00113142
1.27232e-06
-1.24481e-07
-8.57716e-07
2.6617e-07
9.16408e-07
-2.12302e-07
-1.22759e-06
2.80064e-07
-2.42199e-07
0.000250144
1.31877e-07
1.67881e-09
0.00115197
-1.45875e-07
-9.37993e-07
8.31278e-07
-7.55987e-07
1.01154e-06
0.000245514
2.32427e-08
-1.67658e-08
-0.000245464
-9.9827e-08
2.85802e-08
1.71199e-10
9.86498e-10
-1.11298e-08
0.000229467
2.26794e-08
-4.04472e-09
0.000193753
1.68173e-09
1.96786e-09
1.34323e-07
0.000250196
-5.09619e-08
-1.25353e-07
1.23836e-06
-2.36729e-07
2.74689e-07
9.16522e-07
-2.14975e-07
2.69014e-07
-8.57642e-07
0.00113246
6.41469e-09
6.40511e-08
0.000245562
3.47336e-09
-1.52859e-07
1.01156e-06
-7.55799e-07
-9.37866e-07
8.31298e-07
0.00115199
2.85861e-08
-1.11294e-08
9.71918e-10
0.000229427
2.26427e-08
-4.8916e-09
-4.00123e-09
0.000193695
1.34352e-07
1.69109e-09
0.00025017
-5.09766e-08
-1.22754e-06
-1.24912e-07
9.16385e-07
-2.12277e-07
-8.57694e-07
2.66122e-07
1.27227e-06
-2.42177e-07
2.80021e-07
0.0011314
-1.5276e-07
1.01156e-06
-7.55845e-07
-9.37883e-07
8.31294e-07
0.00115193
-1.21098e-08
3.99037e-09
6.16468e-08
0.000245484
-1.12693e-10
0.000229481
-0.000229445
2.08639e-09
3.19179e-08
-3.88191e-09
0.000193718
-1.30554e-10
0.000229425
1.29621e-09
-1.31652e-08
0.000193771
3.05336e-09
-0.000193738
6.99983e-08
0.000250269
-0.000250152
-1.93075e-07
4.06705e-09
0.00115189
-1.45344e-07
1.00335e-06
-7.50574e-07
8.25757e-07
-9.29908e-07
-2.25951e-08
6.3966e-08
3.98468e-09
0.000245484
-4.51054e-08
0.00113105
-1.19116e-07
-1.22472e-06
2.77171e-07
-2.39347e-07
-8.49593e-07
2.63466e-07
-2.09448e-07
9.08372e-07
-2.85112e-08
0.000250138
1.34376e-07
1.2113e-09
0.00115183
-1.46202e-07
-9.32453e-07
8.28525e-07
-7.5316e-07
1.00608e-06
4.34084e-08
0.000245555
-1.67009e-08
-0.0002455
-1.04652e-07
0.000229444
-0.000229406
2.98226e-08
1.98745e-09
-4.91612e-09
-3.9496e-09
0.000193662
0.000229386
-1.10853e-08
9.08079e-10
0.000193715
6.94678e-09
3.1975e-09
-0.000193681
-2.84223e-08
1.42087e-09
2.26359e-09
1.31616e-07
0.000250192
-5.67649e-08
-1.25471e-07
1.24087e-06
-2.36569e-07
2.74573e-07
9.11181e-07
-2.14898e-07
-8.52306e-07
2.68923e-07
0.00113202
-2.26473e-08
3.92654e-09
6.6403e-08
0.000245597
1.51005e-09
-1.53043e-07
1.00609e-06
-7.50249e-07
-9.29684e-07
8.28538e-07
0.00115187
-5.12674e-12
1.30972e-09
-1.31706e-08
0.000229465
-3.94572e-09
0.000193757
-2.84812e-08
1.31654e-07
1.7089e-09
0.000250165
-5.08907e-08
-1.22466e-06
-1.30928e-07
9.08347e-07
-2.09428e-07
-8.49575e-07
2.63431e-07
1.26935e-06
-2.39319e-07
2.77136e-07
0.00113103
-1.58832e-07
1.00609e-06
-7.53018e-07
-9.32357e-07
8.28558e-07
0.00115179
-2.26311e-08
-1.20596e-08
3.96451e-09
6.63518e-08
0.000245519
-1.10873e-08
9.20118e-10
0.000229426
-4.86405e-09
-4.01065e-09
0.000193701
2.04366e-08
-7.25944e-09
0.000278236
-1.14159e-08
2.2697e-08
-9.83173e-09
0.000278372
0.000270108
-0.000268088
2.41565e-07
2.46526e-07
0.0002783
1.05927e-08
-0.000278261
-4.59331e-08
1.95997e-08
0.000278436
1.32045e-08
-0.000278397
-4.82766e-08
4.90763e-09
9.80691e-05
9.81058e-05
-6.9445e-09
-9.80793e-05
1.14243e-08
9.80668e-05
1.19071e-06
0.000268091
-1.98152e-07
-2.03066e-07
-7.21212e-09
2.04975e-08
0.000278286
-1.1478e-08
1.20105e-08
-9.76525e-09
2.27557e-08
0.000278422
4.86315e-09
9.80895e-05
6.98859e-08
0.000250261
-0.000250144
-1.93032e-07
5.29334e-09
0.00115172
-1.50951e-07
1.00852e-06
-7.5602e-07
8.28415e-07
-9.35148e-07
-2.2589e-08
6.39852e-08
3.98764e-09
0.000245448
-5.10152e-08
0.00113204
-1.24866e-07
-1.18812e-06
2.74686e-07
-2.36695e-07
-8.54796e-07
2.68958e-07
-2.14939e-07
9.13675e-07
-2.84223e-08
0.00025013
1.31786e-07
1.25263e-09
0.00115167
-1.51893e-07
-9.34979e-07
8.28454e-07
-7.53132e-07
1.00854e-06
4.34247e-08
0.00024552
-1.67913e-08
-0.000245468
-1.02334e-07
-9.26006e-11
0.000229473
-0.000229437
2.25721e-09
3.19146e-08
-3.9539e-09
0.000193713
3.13379e-10
0.000229417
8.1562e-10
-1.31792e-08
0.000193766
3.22923e-09
-0.000193733
0.000229433
-0.0002294
2.45995e-09
3.39971e-08
-4.92799e-09
-3.92801e-09
0.000193654
0.00022938
9.41151e-10
-1.52675e-08
0.000193707
7.01938e-09
3.11e-09
-0.000193674
8.89755e-10
-2.84608e-08
1.31662e-07
2.11717e-09
0.000250182
-5.0818e-08
-1.25439e-07
1.2354e-06
-2.36646e-07
2.74528e-07
9.11205e-07
-2.14914e-07
-8.52314e-07
2.68953e-07
0.00113188
5.1505e-09
-1.52971e-07
1.00613e-06
-7.53021e-07
-9.32436e-07
8.28532e-07
0.0011517
-2.26484e-08
3.96883e-09
6.40073e-08
0.000245589
-2.84066e-08
1.31649e-07
7.86551e-10
0.000250158
-5.11722e-08
-1.18807e-06
-1.25328e-07
9.1359e-07
-2.14923e-07
-8.54766e-07
2.68939e-07
1.23285e-06
-2.36673e-07
2.74642e-07
0.00113202
-1.52945e-07
1.00855e-06
-7.5299e-07
-9.34873e-07
8.28477e-07
0.00115163
-2.26435e-08
-1.2041e-08
3.96884e-09
6.40163e-08
0.000245487
2.06402e-10
8.29961e-10
-1.31907e-08
0.000229457
-4.01436e-09
0.000193752
7.30364e-10
-1.5276e-08
0.000229419
-4.882e-09
-3.98618e-09
0.000193693
9.80492e-05
9.8086e-05
-9.80595e-05
9.80454e-05
9.80822e-05
-9.80556e-05
0.000268065
-1.97867e-07
-2.00594e-07
-1.14792e-08
-6.71795e-09
2.50608e-08
0.000278365
-1.1461e-08
-7.18629e-09
2.27655e-08
0.000278289
9.80697e-05
9.80658e-05
1.70343e-08
7.92966e-05
2.53802e-11
-0.000263322
2.42505e-08
0.000263367
-6.15753e-08
-4.39614e-09
-3.90781e-09
-4.9723e-09
2.25773e-08
3.32094e-08
-9.26116e-10
7.93223e-05
-1.48138e-09
-4.99095e-09
2.25656e-08
-8.49287e-10
1.23782e-08
0.000143482
-0.000143494
6.19073e-11
-1.1106e-08
1.00105e-09
-0.000229478
-7.17497e-11
2.85586e-08
-0.000171201
-2.82775e-10
-3.08607e-11
0.000171231
-0.000223512
2.87828e-08
4.42842e-09
0.000223552
-7.15838e-08
-0.000171213
-2.17893e-11
-0.000223532
9.83598e-10
3.29249e-08
1.53909e-09
0.000143509
-7.93225e-05
-2.41123e-08
-1.52324e-09
7.93482e-05
-1.70999e-08
0.000263399
-9.68119e-10
-0.000263418
3.32675e-08
3.24044e-09
0.000193765
6.90897e-09
-4.34831e-08
-3.72624e-11
-7.93396e-05
-4.42072e-09
0.000263444
-6.14025e-08
-0.000143467
2.912e-10
-2.88051e-08
2.98923e-08
2.19018e-09
5.30726e-11
-7.01111e-08
8.40965e-10
0.000171182
-0.000171194
-1.14293e-11
-1.23753e-08
0.000223492
-0.000223512
3.29405e-08
-0.000143478
-2.07467e-11
-7.16132e-08
1.7128e-08
7.93311e-05
-0.000263425
2.40665e-08
0.00026347
-6.13468e-08
-4.03676e-09
-4.86491e-09
2.26495e-08
3.32944e-08
7.93567e-05
9.80799e-05
-6.90266e-09
-2.19646e-08
4.91278e-09
1.37079e-08
1.24093e-08
-8.30046e-10
0.00014348
-0.000143492
3.06925e-11
7.48915e-10
-1.11265e-08
-0.000229465
2.60491e-11
2.85929e-08
-0.000223502
2.87833e-08
4.41176e-09
0.000223542
-7.15937e-08
-0.000171197
-3.09384e-10
8.95858e-12
0.000171228
-0.000223522
9.50701e-10
3.2963e-08
-0.000171209
9.36203e-14
1.52491e-09
0.000143507
-7.93241e-05
-2.41221e-08
-1.51298e-09
7.93497e-05
-1.70812e-08
0.000263395
-9.34409e-10
-0.000263414
3.32683e-08
3.21955e-09
0.000193748
6.95081e-09
-4.34966e-08
-2.79914e-12
-7.93412e-05
-4.40068e-09
0.000263439
-6.14426e-08
-0.000143465
-2.88141e-08
3.18713e-10
2.37096e-09
2.9911e-08
-5.86383e-12
-7.01434e-08
-1.24108e-08
0.000223482
-0.000223502
3.29812e-08
8.18926e-10
0.000171179
-0.000171191
1.05985e-11
-0.000143477
-7.16324e-08
2.20171e-11
1.71105e-08
7.93326e-05
-0.00026342
2.40763e-08
0.000263465
-6.13782e-08
-4.00853e-09
-4.88308e-09
2.26496e-08
3.32903e-08
7.93582e-05
9.80729e-05
-6.96684e-09
-1.95849e-08
4.91466e-09
1.13913e-08
-7.01095e-09
-7.07098e-09
0.000213852
-0.000213858
1.01482e-08
1.01079e-08
-8.05863e-05
-1.21604e-08
-1.20305e-08
8.06105e-05
-8.05748e-05
-1.2128e-08
-1.20789e-08
8.0599e-05
-8.06027e-05
9.37907e-09
-8.05912e-05
9.33764e-09
-2.47257e-08
-2.4819e-08
0.000213877
-0.000221986
-3.59631e-08
3.298e-08
2.47602e-08
0.000222021
-5.70497e-08
-1.57941e-08
0.000250743
-0.000250798
6.1178e-08
3.18991e-08
1.63289e-08
0.000183126
-9.39484e-09
-0.00018314
-4.83252e-08
1.01023e-08
0.000278358
1.96656e-08
-2.32272e-08
-1.01352e-08
-0.000222004
2.89019e-08
0.000250811
-9.70717e-08
-5.48701e-08
1.20286e-08
0.000183157
-0.000221917
-3.60726e-08
3.10069e-08
2.4853e-08
0.000221957
-5.9463e-08
-1.57866e-08
0.000250631
-0.000250688
6.36224e-08
3.18856e-08
1.43931e-08
0.000183074
-9.34662e-09
-0.000183086
-4.83113e-08
1.06998e-08
0.00027828
1.95867e-08
-2.32802e-08
-1.00892e-08
-0.00022194
3.13177e-08
0.000250703
-1.0195e-07
-5.50033e-08
1.20805e-08
0.000183104
-0.000213833
1.21885e-08
1.21533e-08
6.9981e-09
8.05785e-05
-8.05949e-05
7.06243e-09
8.0567e-05
-8.05834e-05
-0.000213839
1.57946e-08
-1.63603e-08
0.000222
3.12457e-08
-0.000183143
-3.29256e-08
0.000183174
2.50301e-08
-6.74349e-09
-1.14466e-08
1.20674e-08
-0.000250759
3.59295e-08
0.000250827
-9.94731e-08
-5.48577e-08
6.11955e-08
3.18647e-08
0.000222038
-5.92945e-08
1.57952e-08
-1.44222e-08
0.000221934
3.1353e-08
-0.000183091
-3.09536e-08
0.000183121
2.27382e-08
-7.21183e-09
-1.143e-08
1.20487e-08
-0.000250646
3.60469e-08
0.000250719
-1.01886e-07
-5.49867e-08
6.36367e-08
3.18845e-08
0.000221974
-5.93922e-08
1.13578e-08
1.13288e-08
-7.00749e-09
-7.07485e-09
0.0002138
1.22738e-08
1.01669e-08
-8.05624e-05
-1.23007e-08
-1.19791e-08
8.05867e-05
-8.0549e-05
-1.223e-08
-1.20804e-08
8.05733e-05
9.39516e-09
9.36037e-09
-2.70062e-08
-2.50645e-08
0.000213827
-1.64838e-08
0.000221965
1.82177e-08
2.8958e-08
-0.000183087
-3.33598e-08
0.000183121
-9.42229e-09
2.49407e-08
1.20967e-08
3.84354e-08
-0.000250746
0.000250808
-9.96596e-08
-5.23442e-08
0.000222001
-5.73691e-08
6.1109e-08
2.94099e-08
-1.63029e-08
0.000221899
1.5738e-08
3.35093e-08
-0.000183034
-3.31429e-08
0.000183065
-6.76899e-09
2.48963e-08
9.73834e-09
3.60775e-08
-0.000250638
0.000250706
-1.02163e-07
-5.24299e-08
0.000221939
-6.19303e-08
6.35663e-08
2.93912e-08
-9.80798e-05
1.142e-08
4.91813e-09
-1.98037e-08
-6.86636e-09
-9.80687e-05
1.13914e-08
4.93477e-09
-1.97461e-08
-6.90668e-09
-0.000213819
1.22823e-08
1.2213e-08
-2.69798e-08
-2.50372e-08
0.000213846
7.0145e-09
8.05703e-05
9.38445e-09
7.08204e-09
8.05569e-05
9.35128e-09
1.22812e-08
1.01761e-08
-1.19761e-08
8.05946e-05
-1.20778e-08
8.05811e-05
-1.65268e-08
1.82185e-08
0.000221999
-0.000222018
-1.22969e-08
2.89965e-08
-0.000250779
3.83919e-08
0.000250839
-9.70539e-08
-5.23301e-08
-9.36079e-09
2.49844e-08
-0.000278355
1.20579e-08
-0.000183122
-3.32645e-08
1.19791e-08
0.000183156
-0.000183139
-9.36917e-09
-0.000250826
5.87155e-08
3.19135e-08
2.69436e-08
0.000222035
-5.72352e-08
-1.63467e-08
1.5738e-08
0.000221934
-0.000221956
-1.01853e-08
3.35472e-08
-0.000250669
3.60359e-08
0.000250736
-1.02033e-07
-5.2417e-08
-6.70647e-09
2.49428e-08
-0.000278287
9.701e-09
-0.000183069
-3.30456e-08
1.20806e-08
0.0001831
-0.000183083
-9.33273e-09
-0.000250721
6.35752e-08
2.93645e-08
2.50037e-08
0.000221973
-6.17932e-08
-0.000221982
3.33122e-08
-3.84148e-08
-5.73057e-08
1.65036e-08
0.000183105
-1.82082e-08
0.000250764
5.86349e-08
2.93767e-08
1.25808e-08
-5.07391e-08
-2.31365e-08
2.8975e-08
-9.71999e-08
-5.48774e-08
-0.000221917
3.30949e-08
-3.60573e-08
-6.18638e-08
1.63245e-08
0.000183052
-1.57377e-08
0.000250653
6.35644e-08
2.93749e-08
1.00943e-08
-5.07325e-08
-2.08616e-08
3.35292e-08
-1.021e-07
-5.24218e-08
-7.02323e-09
-7.09327e-09
0.000213838
-8.05782e-05
-1.22555e-08
8.06024e-05
-8.05647e-05
-1.21849e-08
8.0589e-05
0.000213866
-0.000143436
3.00645e-10
-2.88623e-08
1.50042e-09
0.000143463
8.23859e-10
0.000171146
-1.93762e-11
-0.000171158
-1.23813e-08
0.000223451
9.38183e-10
3.29562e-08
-0.000223472
2.99506e-08
2.19119e-09
0.000229439
2.16967e-11
-7.01843e-08
-8.09001e-12
-0.000143447
0.000171176
-2.4984e-11
4.40071e-09
0.000223492
-7.16864e-08
7.93139e-05
1.70752e-08
-7.9331e-05
-1.21036e-11
-3.9722e-09
-0.000193726
2.26064e-08
2.41643e-08
-0.000263373
-4.41481e-09
-6.14641e-08
-1.50869e-09
-0.000263393
-9.5578e-10
3.32406e-08
-7.93053e-05
-2.42012e-08
-1.70564e-08
0.000263348
3.32163e-08
3.30098e-09
-4.35677e-08
-6.15193e-08
0.000143451
-8.33453e-10
1.23756e-08
-1.10906e-08
9.99091e-10
-7.42626e-11
2.85643e-08
-2.92176e-10
-0.000171164
-2.98283e-11
2.88322e-08
-0.000223471
-7.16587e-08
-2.15051e-11
3.29393e-08
-0.000143366
3.48337e-10
-2.88357e-08
1.44726e-09
0.000143393
7.87134e-10
0.000171111
-0.000171123
-1.2364e-08
0.000223353
-1.15297e-09
3.04775e-08
-0.000223369
2.99537e-08
2.12539e-09
0.000229399
-7.01896e-08
-2.24437e-11
-0.000143378
0.000171141
6.39944e-09
0.000223389
-6.92119e-08
1.70498e-08
7.9272e-05
-7.9289e-05
3.04615e-12
-4.03697e-09
-0.000193664
-4.95155e-09
2.47703e-08
-0.00026324
2.41902e-08
-6.40664e-09
0.000263285
-5.89718e-08
-0.000263259
1.13396e-09
3.07194e-08
-1.46387e-09
7.92976e-05
-7.92634e-05
-2.42326e-08
-1.70319e-08
0.000263214
3.06947e-08
-0.000263233
3.44376e-09
6.87546e-09
-4.5772e-08
-7.92804e-05
-5.90237e-08
-7.98007e-10
1.23593e-08
0.000143382
-1.10913e-08
9.48472e-10
2.85626e-08
-0.000171129
-3.39969e-10
0.00017116
-0.000223373
2.88177e-08
0.000223409
-6.91846e-08
3.04585e-08
0.000143409
-9.80593e-05
1.36522e-08
-2.20517e-08
1.5867e-08
-1.45999e-08
0.00022191
-1.45831e-08
3.3716e-08
-0.00022193
-0.000250615
3.84768e-08
0.00025068
-9.72036e-08
-5.48725e-08
2.26366e-08
-7.42255e-09
-0.000278226