/*--------------------------------*- C++ -*----------------------------------*\
| =========                 |                                                 |
| \\      /  F ield         | OpenFOAM: The Open Source CFD Toolbox           |
|  \\    /   O peration     | Version:  2312                                  |
|   \\  /    A nd           | Website:  www.openfoam.com                      |
|    \\/     M anipulation  |                                                 |
\*---------------------------------------------------------------------------*/
FoamFile
{
    version     2.0;
    format      ascii;
    arch        "LSB;label=32;scalar=64";
    class       surfaceScalarField;
    location    "50";
    object      phi;
}
// * * * * * * * * * * * * * * * * * * * * * * * * * * * * * * * * * * * * * //

dimensions      [0 3 -1 0 0 0 0];

oriented        oriented;

internalField   nonuniform List<scalar> 
125567
(
-6.98496e-08
-1.78967e-10
-0.000248181
3.80078e-11
3.02991e-08
-8.15653e-09
-1.97747e-08
-0.000103747
1.2518e-06
-2.11582e-10
3.0668e-07
-3.11471e-07
-1.24563e-06
3.0321e-07
-3.01862e-07
-0.00110468
-1.90693e-09
-9.47375e-07
9.47747e-07
2.86916e-08
4.81954e-08
-0.000263028
-1.28939e-07
-1.38685e-08
-1.75177e-09
-0.000262393
-1.36308e-09
-1.94944e-07
-3.61528e-09
-4.54272e-09
-1.01769e-06
8.32691e-07
-8.32202e-07
1.02005e-06
-0.00110135
-6.98224e-08
-0.00024814
3.01462e-08
2.03261e-10
-4.8261e-08
5.77481e-09
-0.000208209
-0.000262366
-1.94998e-07
-9.16253e-10
3.59429e-09
1.28315e-06
-6.88191e-09
-9.52593e-07
3.06819e-07
9.53226e-07
-3.11348e-07
-1.27962e-06
3.06077e-07
-3.07329e-07
-0.00110422
-1.00041e-08
-1.0175e-06
8.32799e-07
-8.32177e-07
1.01976e-06
-0.0011013
3.16165e-08
-1.4296e-08
-0.000262919
-1.29008e-07
-0.000268898
2.48473e-07
2.53275e-07
1.59819e-08
-0.000300348
-4.7399e-08
2.00145e-08
1.6119e-08
-0.000300493
-4.93645e-08
-8.79784e-09
-0.000103776
-0.000208272
5.2196e-09
3.06285e-08
-3.89376e-10
0.000153687
-5.94743e-10
-0.000153717
-4.97557e-10
-3.02393e-08
1.91768e-10
6.91056e-08
-0.00024822
-0.000242332
3.02662e-08
1.46402e-09
-7.42381e-08
-0.000184349
-1.28736e-09
-5.31019e-11
-9.37667e-10
7.24703e-08
-0.000242374
-1.85276e-12
-0.00018438
5.09647e-10
3.02141e-08
8.34201e-05
-8.34509e-05
-0.000285516
2.86692e-08
-6.72272e-08
6.66739e-08
-0.000285561
9.32375e-09
2.19212e-08
-0.000103778
-6.31314e-10
3.07733e-08
0.000153596
3.40818e-11
-0.000153626
-3.0269e-08
1.53409e-10
6.91373e-08
-0.000248179
-0.00018431
-1.12177e-09
-0.000242233
3.03027e-08
1.56755e-09
-7.18533e-08
-0.00018434
-3.16353e-10
6.99318e-08
-0.000242271
1.17691e-09
2.93341e-08
8.33726e-05
-8.34019e-05
-0.000285374
2.9314e-08
-6.4426e-08
-7.02897e-09
5.05523e-08
-0.000208243
6.42543e-08
-0.000285416
-1.17011e-08
-1.16927e-08
0.000232759
2.76123e-08
2.53366e-08
-0.000232789
-8.55797e-05
-1.14615e-08
-1.61726e-08
-8.56043e-05
-1.15287e-08
-1.60944e-08
1.57075e-08
-8.56071e-05
1.57014e-08
-8.56317e-05
-2.61001e-08
-2.40224e-08
-3.4838e-08
3.25968e-08
0.000239252
6.81277e-08
-0.00023929
-0.000196306
-3.43068e-08
-1.69534e-08
4.78913e-08
3.10186e-08
-0.000300388
-0.000265692
3.00984e-08
-4.80906e-08
-1.0437e-07
-0.000196342
5.07528e-08
1.03623e-07
-0.000265766
-6.94495e-08
3.24345e-08
-3.46886e-08
0.000239341
7.04004e-08
-0.000239384
-0.000196394
-3.43346e-08
5.07121e-08
-1.6633e-08
-2.18671e-08
2.8404e-08
-0.000300534
-0.000265871
3.03298e-08
-4.52794e-08
-1.04179e-07
4.80908e-08
1.038e-07
-0.000265939
-0.00019643
-7.16704e-08
8.88731e-09
-0.000103806
5.06143e-08
-0.000208306
-7.34637e-09
1.70708e-09
-0.00111173
-1.10943e-08
-1.51733e-09
-0.00110639
-2.68133e-08
-0.00111095
-2.7142e-08
1.32485e-07
-0.000263093
1.15933e-08
-0.000270487
-1.50598e-08
-0.000270635
1.69614e-08
-2.1697e-07
5.30494e-09
0.000269408
-1.67093e-08
-0.000270197
3.63032e-10
1.93983e-07
4.90126e-10
-0.000262519
-0.00026334
-2.1965e-07
1.05163e-09
-0.000268235
2.21076e-09
-6.68995e-09
5.86135e-10
-0.000263484
3.9464e-09
-0.000268872
1.61089e-08
-2.07584e-07
0.000270927
-0.000271667
-0.000267008
-2.08921e-07
-0.000267134
1.40013e-09
-2.13926e-07
0.000269339
-3.73773e-09
-0.00027014
1.93914e-07
1.65036e-09
-0.000262492
-0.000268218
6.3553e-10
-0.000263255
-2.19685e-07
6.73023e-10
-0.000268851
6.95013e-10
-0.000263398
2.82538e-09
-2.04749e-07
0.000270826
-1.70351e-08
-0.000271561
-0.000266897
-2.11482e-07
1.15024e-08
1.29937e-07
-0.000262979
-1.52018e-08
-0.00027038
-0.000267025
-0.000270528
1.26324e-07
1.29116e-07
0.000255899
-0.000256016
-2.49863e-07
-2.44767e-07
-0.000270929
-0.000267711
1.30686e-07
-0.000267347
1.27955e-07
-0.000267669
-0.00026803
1.02341e-09
1.19617e-09
-1.27202e-09
-1.08202e-09
0.00110678
-0.00110678
-1.24845e-06
-1.26081e-09
-7.84701e-10
0.00110479
-3.0206e-07
1.25153e-06
3.00055e-07
9.48107e-07
-3.11748e-07
3.06995e-07
-9.48003e-07
-0.00110478
-1.24572e-06
-1.09705e-09
4.22333e-09
0.00110466
-2.99198e-07
1.24893e-06
3.00132e-07
9.47785e-07
-3.11796e-07
3.07066e-07
-9.48163e-07
-0.00110466
1.27682e-06
1.24056e-06
-2.4484e-07
-2.47603e-07
0.000268872
-0.000270897
7.20526e-10
7.81764e-09
-0.00110679
-1.55277e-09
-1.45616e-09
-0.00110478
-1.24824e-06
-3.58866e-10
1.39599e-08
-3.01658e-07
1.25164e-06
3.00256e-07
9.48217e-07
-3.11302e-07
-9.4732e-07
3.06887e-07
-0.00110466
-1.24592e-06
-8.64118e-10
-1.30566e-08
-3.02205e-07
1.24903e-06
3.00161e-07
9.48265e-07
-3.11617e-07
-9.47694e-07
3.07021e-07
-0.000270896
1.27924e-06
1.23489e-06
-2.39382e-07
-2.49915e-07
0.000268871
1.2876e-06
1.24589e-06
-2.42128e-07
-2.50132e-07
0.000268925
-0.000270966
-1.29112e-06
-1.24949e-06
0.000270967
-0.000268925
2.45239e-07
2.53183e-07
4.05272e-09
0.00110426
-3.04737e-07
1.29068e-06
3.02848e-07
9.5077e-07
-3.09064e-07
3.0424e-07
-9.5062e-07
-0.00110426
-1.28523e-06
-1.15365e-09
4.10628e-09
0.00110433
-3.07749e-07
1.28807e-06
3.05544e-07
9.56335e-07
-3.11785e-07
3.06829e-07
-9.55507e-07
-0.00110433
0.00110427
-5.63678e-10
-0.00110427
3.85176e-09
-1.28764e-06
3.03014e-07
-3.04763e-07
-9.50376e-07
3.04154e-07
-3.0889e-07
9.50654e-07
1.28593e-06
0.00110434
-5.64248e-10
-0.00110433
3.77708e-09
-1.28518e-06
3.02999e-07
-3.07729e-07
-9.55107e-07
3.06846e-07
-3.11468e-07
9.53229e-07
-2.45026e-07
-2.47438e-07
0.000268909
-0.00027095
-1.25202e-06
0.000270948
-0.000268909
2.48068e-07
2.50368e-07
4.05531e-09
0.00110523
-3.02121e-07
1.24896e-06
3.00179e-07
9.53563e-07
-3.11916e-07
3.07232e-07
-9.53201e-07
-0.00110523
-1.2798e-06
-9.75892e-10
4.40029e-09
0.00110422
-3.0771e-07
1.28282e-06
3.05531e-07
9.53385e-07
-3.09092e-07
3.04253e-07
-9.53282e-07
-0.00110421
0.00110523
-1.10757e-09
-0.00110523
3.97611e-09
-1.24584e-06
3.00464e-07
-3.02108e-07
-9.53142e-07
3.07202e-07
-3.11779e-07
9.53389e-07
1.28317e-06
0.00110422
-7.24248e-09
-0.00110422
3.89591e-09
-1.27993e-06
3.05874e-07
-3.07809e-07
-9.52667e-07
3.0435e-07
-3.08989e-07
9.53674e-07
-7.6786e-10
4.09751e-09
0.00110385
-3.04728e-07
1.27997e-06
3.02918e-07
9.45334e-07
-3.06349e-07
3.01371e-07
-9.45058e-07
-0.00110385
-8.19543e-10
-0.00110479
9.09775e-09
-1.24842e-06
3.00311e-07
-3.02088e-07
-9.47357e-07
3.07002e-07
9.48108e-07
-3.11575e-07
1.28011e-06
0.00110385
-2.41635e-10
-0.00110385
3.61129e-09
-1.27695e-06
3.02905e-07
-3.0476e-07
-9.44191e-07
3.04268e-07
-3.06054e-07
9.45386e-07
-2.45099e-07
-2.50066e-07
0.000268895
-0.000270926
-1.24903e-06
0.000270929
-0.000268898
2.48067e-07
2.53045e-07
-1.32267e-09
3.86815e-09
0.0011048
-3.02153e-07
1.24351e-06
3.00231e-07
9.50841e-07
-3.11754e-07
3.07061e-07
-9.50069e-07
-0.0011048
-4.95268e-10
-0.00110466
-1.23128e-09
-1.24331e-06
3.00196e-07
-3.02187e-07
-9.4759e-07
3.07029e-07
9.4827e-07
-3.11798e-07
1.24371e-06
0.00110479
-3.89614e-10
-0.0011048
1.94089e-08
-1.2406e-06
3.00303e-07
-3.02187e-07
-9.50044e-07
3.07039e-07
-3.11433e-07
9.50499e-07
-0.000268871
2.47741e-07
2.50719e-07
1.28751e-06
1.24565e-06
-2.41978e-07
-2.50031e-07
0.000268926
-1.2288e-09
-3.04613e-07
1.29068e-06
3.02813e-07
9.50555e-07
-3.11531e-07
-9.5038e-07
3.06871e-07
-1.28238e-06
-2.87101e-10
8.97582e-09
-3.04695e-07
1.28551e-06
3.02999e-07
9.53313e-07
-3.11313e-07
-9.52749e-07
3.06755e-07
-2.44828e-07
-2.47292e-07
0.00026891
3.76055e-09
-3.0185e-07
1.24911e-06
3.00247e-07
9.53652e-07
-3.11665e-07
-9.53266e-07
3.0728e-07
-1.27989e-06
-7.32213e-09
3.89508e-09
-3.07696e-07
1.28309e-06
3.05911e-07
9.5411e-07
-3.08913e-07
-9.52947e-07
3.07101e-07
-2.39052e-08
9.20663e-09
0.00110386
-3.0741e-07
1.27988e-06
3.05638e-07
9.48232e-07
-3.08642e-07
3.06948e-07
-9.44633e-07
-2.4499e-07
-2.50036e-07
0.000268898
1.3734e-10
3.49017e-08
0.00110474
-2.96373e-07
1.24885e-06
3.00319e-07
9.50735e-07
-3.11429e-07
3.06804e-07
-9.50221e-07
-1.2321e-10
-6.99575e-08
0.000248234
3.03004e-08
1.25621e-10
-0.000248194
-8.00443e-09
5.0406e-08
0.000208293
-7.91409e-09
-0.000208327
9.06901e-09
-4.8504e-08
0.000208328
5.24212e-09
-0.000208293
-1.29809e-10
6.98079e-08
0.000248194
-3.0578e-08
7.0297e-10
-0.000248234
7.43607e-09
2.41169e-08
0.000103762
-0.000103794
-9.31771e-09
-2.28208e-08
0.000103794
-0.000103762
-6.99918e-08
-2.71223e-10
0.000248219
1.64946e-10
3.04278e-08
-0.00024818
-8.06189e-09
5.04012e-08
0.000208272
-7.87443e-09
-0.000208306
9.23109e-09
-4.87474e-08
0.000208307
5.03025e-09
-0.000208272
6.96631e-08
2.08261e-10
0.00024818
5.70439e-10
-3.03437e-08
-0.00024822
-1.23192e-09
-1.06857e-09
0.00110657
-0.00110657
-1.17646e-09
-1.24951e-09
0.00110636
-0.00110636
-1.40393e-09
-1.26469e-09
0.00110634
-0.00110634
-0.00110679
-6.06737e-09
5.34984e-09
0.00110657
-0.00110658
-1.4822e-09
5.07174e-09
0.00110637
-0.00110637
-1.53774e-09
-6.32065e-09
0.00110633
-0.00110634
-1.69426e-09
1.00437e-08
6.95231e-08
-1.48924e-09
0.000262518
-1.69593e-09
-1.9496e-07
-0.000262389
-3.09845e-08
-5.07839e-08
1.35319e-07
0.000263037
1.47486e-08
-0.000263105
0.00110122
3.56222e-09
1.48422e-09
1.01461e-06
-8.26952e-07
8.30177e-07
-1.01018e-06
-0.00110123
8.59493e-09
1.25185e-06
0.00110478
-1.11927e-09
-9.47569e-07
3.07079e-07
-3.11877e-07
9.48195e-07
-1.2485e-06
3.00604e-07
-3.02e-07
3.12058e-08
4.83322e-08
0.000263105
-1.62456e-08
-0.000263037
-1.31447e-07
-3.27138e-09
0.00110123
1.40894e-09
-1.01275e-06
8.27453e-07
-8.29863e-07
1.01189e-06
-6.97389e-08
1.58715e-09
0.000262389
2.0041e-09
1.94289e-07
-0.000262517
7.70226e-09
2.14935e-08
0.000103757
-0.000103786
-9.15058e-09
-2.03295e-08
0.000103786
-0.000103757
-6.94503e-10
6.98097e-08
0.000262508
-1.95084e-07
-1.98224e-09
-0.00026238
0.00110106
3.26578e-09
1.23063e-09
1.01449e-06
-8.29626e-07
8.30153e-07
-1.01285e-06
-0.00110107
-3.03224e-08
-5.0457e-08
1.3272e-07
0.00026303
1.11707e-08
-0.000263093
3.50189e-09
1.24656e-06
0.00110466
-9.79542e-10
-9.48103e-07
3.07144e-07
-3.11973e-07
9.47891e-07
-1.24319e-06
3.00616e-07
-3.02028e-07
-4.29743e-09
0.00110107
1.17874e-09
-1.01288e-06
8.30234e-07
-8.29954e-07
1.01443e-06
3.15598e-08
4.83561e-08
0.000263093
-1.38568e-08
-0.00026303
-1.2907e-07
9.72189e-10
-6.93785e-08
0.00026238
1.94233e-07
1.78764e-09
-0.000262507
3.1031e-08
-2.17453e-08
5.38014e-08
0.000300422
-1.52342e-08
-0.00030047
3.12265e-08
-2.10984e-08
5.14308e-08
0.000300353
-1.59728e-08
-0.000300398
-1.28019e-06
-1.2437e-06
0.000270897
-0.000268872
2.4775e-07
2.50714e-07
-3.13532e-08
2.03369e-08
0.00030047
1.62065e-08
-0.000300423
-5.19295e-08
-3.16014e-08
2.02595e-08
0.000300399
1.66971e-08
-0.000300354
-4.97159e-08
-0.000208327
-8.54163e-09
5.03151e-08
-7.43168e-09
0.000208293
-0.000248235
2.73303e-10
6.9336e-08
0.000248195
-3.00946e-08
2.77429e-10
-0.00010379
8.7282e-09
2.37342e-08
0.000103757
-0.000208307
-8.96081e-09
5.0993e-08
-7.09556e-09
0.000208272
-0.00024822
6.93082e-08
4.86999e-10
0.000248181
-1.59355e-10
-3.02958e-08
1.00132e-08
2.13203e-08
-1.66345e-09
-2.18148e-08
3.15781e-08
2.60271e-08
0.00110625
6.95387e-08
-8.14087e-10
-0.000262391
-2.29395e-09
-1.94888e-07
-0.000263103
-3.11496e-08
-5.02224e-08
1.35158e-07
1.18519e-08
0.000263037
0.00110123
-0.00110122
1.27246e-08
-4.78667e-09
1.01461e-06
-8.29554e-07
-1.01265e-06
8.3021e-07
-0.000262517
-6.92017e-08
1.76704e-09
0.000262389
1.9204e-09
1.94081e-07
2.28443e-08
-2.13783e-08
-1.01255e-06
8.32719e-07
-8.29592e-07
1.01724e-06
-0.000103783
9.24462e-09
2.26324e-08
0.000103751
-2.05036e-09
6.99646e-08
-0.000262381
-1.94918e-07
-1.18944e-09
0.00110108
-0.00110108
-2.11456e-08
8.98438e-10
1.01477e-06
-8.29572e-07
-1.0127e-06
8.30031e-07
-0.000263093
-3.09362e-08
-5.05037e-08
1.3271e-07
1.17341e-08
0.00026303
-0.000262509
2.26726e-10
-6.91279e-08
0.000262381
1.93987e-07
2.08526e-09
-5.56357e-08
-5.029e-09
-1.01213e-06
8.29976e-07
-8.26759e-07
1.01454e-06
-0.00030047
3.10435e-08
-2.12144e-08
5.11344e-08
-1.54504e-08
0.000300425
-0.0003004
3.07627e-08
-2.04602e-08
5.08613e-08
-1.59946e-08
0.000300354
-1.27533e-06
-1.31833e-06
-0.00026889
2.61087e-07
2.48338e-07
-3.12517e-08
1.99859e-08
1.63064e-08
-0.000300428
-4.97928e-08
-3.18944e-08
2.11258e-08
1.64364e-08
-0.000300354
-4.95391e-08
2.13728e-08
0.000103787
-0.000103817
-2.06957e-08
0.000103817
-0.000103787
2.1318e-08
0.000103774
-0.000103803
-2.0824e-08
0.000103803
-0.000103773
3.09388e-08
5.3615e-08
0.000300481
-1.83283e-08
-0.000300526
2.84376e-08
5.36312e-08
0.000300406
-1.55335e-08
-0.000300451
0.000270966
-1.29103e-06
-1.24937e-06
-0.000268924
2.45307e-07
2.53206e-07
0.000300525
-3.14809e-08
1.89011e-08
-0.000300482
-5.1895e-08
0.00030045
-2.91948e-08
1.62545e-08
-0.000300406
-5.19478e-08
-2.01345e-08
-8.16553e-09
0.000103813
-0.000103785
2.18164e-08
8.13294e-09
0.000103787
-1.94588e-08
-7.51448e-09
0.000103799
-0.000103772
2.18128e-08
8.21904e-09
0.000103773
1.28788e-06
1.24605e-06
0.000268924
-2.42093e-07
-2.50194e-07
-3.10977e-08
0.000300527
-5.18281e-08
-0.000300482
1.81942e-08
-2.90354e-08
0.000300452
-5.20425e-08
-0.000300407
1.57355e-08
3.10051e-08
-1.81971e-08
5.33679e-08
0.000300481
2.84089e-08
-1.52912e-08
5.34578e-08
0.000300406
-6.96618e-08
0.000248191
3.00247e-08
3.01806e-10
-0.000248152
5.33069e-08
0.000208224
-8.44431e-09
-0.000208262
-5.06117e-08
0.000208259
5.46002e-09
-0.000208223
6.9975e-08
0.000248152
-3.08193e-08
4.1244e-11
-0.000248191
-8.14809e-10
0.00026253
-2.53245e-09
-1.95061e-07
-0.000262402
1.35419e-07
0.000263042
1.14894e-08
-0.000263108
0.0011015
3.3669e-09
1.35294e-09
1.01739e-06
-8.32422e-07
8.32948e-07
-1.01569e-06
-0.0011015
3.76904e-09
0.00110426
-7.6302e-10
-1.28771e-06
3.03165e-07
-3.04662e-07
-9.50641e-07
3.04348e-07
-3.09143e-07
9.50624e-07
0.000263108
-1.38111e-08
-0.000263042
-1.31616e-07
-3.58436e-09
0.0011015
1.34683e-09
-1.01551e-06
8.3302e-07
-8.32518e-07
1.01731e-06
9.40881e-10
0.000262402
2.76948e-09
1.94302e-07
-0.00026253
0.000262501
-4.28501e-10
-1.94978e-07
-0.000262376
-3.11909e-08
1.35404e-07
0.00026293
1.22237e-08
-0.000262993
0.00110144
1.30584e-09
1.02282e-06
-8.32504e-07
8.32762e-07
-1.02077e-06
-0.00110144
3.5941e-09
0.00110433
1.28844e-06
-1.00481e-09
-9.55288e-07
3.06965e-07
9.56487e-07
-3.11843e-07
-1.2853e-06
3.05938e-07
-3.07716e-07
0.000262993
3.07841e-08
-1.31766e-08
-0.00026293
-1.31284e-07
0.00110144
1.36126e-09
-1.02066e-06
8.32889e-07
-8.32557e-07
1.02283e-06
0.000262376
1.21083e-09
1.94363e-07
-0.000262501
1.52309e-10
6.90748e-08
-3.02508e-08
4.45548e-10
0.000248195
-4.81993e-08
-0.000208293
5.95313e-09
5.06677e-08
-7.851e-09
0.000208293
-7.97406e-11
-6.93865e-08
-0.000248195
3.0248e-08
-2.32803e-10
6.93971e-08
-3.0559e-08
3.48453e-10
0.000248152
-5.05793e-08
8.3556e-09
0.000208258
-0.000208222
6.03571e-09
5.28216e-08
-8.04137e-09
-7.56324e-09
0.000208222
-6.9269e-08
0.000248191
-0.000248152
3.00004e-08
3.20544e-10
9.45818e-10
2.71577e-09
1.93928e-07
0.000262402
-5.71345e-10
-1.06865e-09
1.29063e-06
-3.04753e-07
3.02841e-07
9.50887e-07
-3.09181e-07
3.04315e-07
-9.50774e-07
0.000263108
-1.31218e-07
-0.000263042
-1.37848e-08
-0.00110149
-4.48558e-09
0.0011015
1.26605e-09
-1.01527e-06
8.33422e-07
-8.32158e-07
1.01744e-06
1.19479e-08
1.35226e-07
0.000263042
3.29271e-09
1.367e-09
1.01758e-06
-8.32403e-07
-1.01559e-06
8.33001e-07
-8.54565e-10
0.00026253
-0.000262401
-2.39344e-09
-1.94809e-07
1.30291e-09
1.93982e-07
0.000262376
4.04318e-09
-1.28551e-06
-1.06429e-09
9.56466e-07
-3.11865e-07
-9.55264e-07
3.06937e-07
1.2881e-06
-3.07871e-07
3.05622e-07
3.08366e-08
0.000262994
-1.31009e-07
-0.000262931
-1.37584e-08
-0.00110144
0.00110144
1.40552e-09
-1.02053e-06
8.33466e-07
-8.32191e-07
1.0199e-06
-3.14163e-08
1.20257e-08
1.35207e-07
0.00026293
1.33381e-09
1.02298e-06
-8.32446e-07
-1.02077e-06
8.33104e-07
0.000262501
-0.000262376
-8.00824e-10
-1.94876e-07
5.11767e-08
0.000300343
-1.63899e-08
-0.000300385
-2.13453e-08
5.36655e-08
0.000300494
-1.57023e-08
-0.000300542
0.000270951
-0.000268909
2.48046e-07
2.50495e-07
0.000300385
1.61598e-08
-0.000300344
-4.93106e-08
2.03924e-08
0.000300542
1.57445e-08
-0.000300495
-5.18436e-08
7.88841e-09
0.000103782
-0.000103811
0.000103812
-9.46943e-09
-0.000103782
-2.24357e-08
-0.000103759
2.4581e-08
0.000103761
1.2487e-06
0.000268909
-2.45074e-07
-2.47508e-07
0.000300386
-4.90257e-08
-0.000300345
1.58673e-08
2.05443e-08
-3.09896e-08
0.000300541
-5.15698e-08
-0.000300494
1.52038e-08
-1.59818e-08
5.0984e-08
0.000300343
-2.19387e-08
3.12466e-08
-1.52426e-08
5.34673e-08
0.000300494
-9.27273e-09
0.000103811
-0.000103781
7.87886e-09
0.000103782
-1.73479e-09
0.000262523
-1.84443e-09
-1.97739e-07
-0.000262392
1.32916e-07
0.000263001
1.41534e-08
-0.000263069
0.00110134
3.50396e-09
1.54831e-09
1.02007e-06
-8.32438e-07
8.32789e-07
-1.01834e-06
-0.00110134
3.8256e-09
0.00110523
-1.11157e-09
-1.24596e-06
3.00534e-07
-3.02146e-07
-9.53245e-07
3.07376e-07
-3.11989e-07
9.53506e-07
0.000263069
-1.68174e-08
-0.000263001
-1.29187e-07
-3.30794e-09
0.00110134
1.11942e-09
-1.01822e-06
8.3305e-07
-8.32568e-07
1.02009e-06
1.76271e-09
0.000262392
1.87787e-09
1.96931e-07
-0.000262523
-6.97928e-08
0.000248178
3.02353e-08
2.06066e-10
-0.000248139
5.06901e-08
0.000208211
-8.32089e-09
-0.000208246
-4.81045e-08
0.000208245
5.04183e-09
-0.000208211
6.96772e-08
0.000248138
-3.04197e-08
2.51679e-10
-0.000248178
0.000262492
-1.97636e-07
-1.13565e-09
-0.000262365
0.00110129
1.53895e-09
1.02011e-06
-8.32456e-07
8.32782e-07
-1.01816e-06
-0.00110128
-3.07665e-08
1.30277e-07
0.000262916
1.16911e-08
-0.000262977
3.65722e-09
0.00110422
1.2832e-06
-9.13655e-10
-9.53156e-07
3.04366e-07
9.53586e-07
-3.0922e-07
-1.27994e-06
3.0594e-07
-3.07729e-07
0.00110129
1.17616e-09
-1.01804e-06
8.32967e-07
-8.32592e-07
1.02012e-06
0.000262977
3.15159e-08
-1.37282e-08
-0.000262916
-1.26374e-07
0.000262365
1.96983e-07
1.46379e-09
-0.000262492
6.91705e-08
1.52487e-10
5.35654e-10
-3.02375e-08
0.00024818
-4.77064e-08
-0.000208273
6.31235e-09
5.04582e-08
-7.76475e-09
0.000208272
-6.96174e-08
-5.95933e-11
-0.000248181
-1.79803e-10
3.03644e-08
1.77453e-09
1.95338e-09
1.94032e-07
0.000262394
3.73565e-09
-6.06115e-10
1.24906e-06
-3.02151e-07
3.00309e-07
9.53731e-07
-3.12108e-07
3.07296e-07
-9.53461e-07
0.00026307
-1.28809e-07
-0.000263001
-1.64266e-08
-0.00110134
-2.83541e-09
0.00110134
-4.73034e-09
-1.01812e-06
8.33204e-07
-8.32311e-07
1.01989e-06
1.42064e-08
1.32839e-07
0.000263001
3.64025e-09
1.93566e-09
1.02018e-06
-8.32509e-07
-1.01836e-06
8.32771e-07
-1.49737e-09
0.000262523
-0.000262394
-1.82481e-09
-1.94686e-07
6.93928e-08
-3.05278e-08
1.34245e-10
0.000248139
-4.8242e-08
8.73114e-09
0.000208243
-0.000208209
5.69469e-09
5.0798e-08
-8.06365e-09
-7.90862e-09
0.00020821
-6.93975e-08
0.000248178
-0.000248139
3.00632e-08
4.1035e-10
1.94109e-07
1.69284e-09
0.000262367
4.2619e-09
-1.28007e-06
-5.98349e-10
9.54024e-07
-3.09241e-07
-9.53039e-07
3.0436e-07
1.28272e-06
-3.07788e-07
3.05585e-07
-0.00110129
0.00110129
-4.41469e-09
-1.01806e-06
8.33238e-07
-8.32269e-07
1.02009e-06
3.12594e-08
0.000262977
-1.26328e-07
-0.000262917
-1.38083e-08
1.94013e-09
1.02032e-06
-8.32522e-07
-1.01824e-06
8.32804e-07
-3.13652e-08
1.21366e-08
1.30274e-07
0.000262917
0.000262492
-0.000262367
-1.94804e-07
-8.68404e-10
1.69645e-10
0.000248213
1.89214e-10
3.22569e-08
-0.000248176
0.000208281
-7.97293e-09
-0.000208316
0.000208314
4.89489e-09
-0.00020828
-4.32664e-11
0.000248176
5.15244e-10
-3.27474e-08
-0.000248213
6.94587e-08
0.000262481
-1.92093e-07
-6.29326e-10
-0.000262359
0.00110115
1.62466e-09
1.01457e-06
-8.29758e-07
8.30007e-07
-1.01281e-06
-0.00110114
-5.08643e-08
1.35493e-07
0.000262952
1.20081e-08
-0.000263018
3.40869e-09
0.00110385
3.70416e-09
-1.27692e-06
3.03216e-07
-3.04533e-07
-9.4477e-07
3.01544e-07
-3.06413e-07
9.4559e-07
0.00110114
6.10609e-09
-1.01258e-06
8.30093e-07
-8.29847e-07
1.01466e-06
4.81451e-08
0.000263018
-1.35316e-08
-0.000262952
-1.3139e-07
-6.99572e-08
0.000262359
1.91696e-07
1.3103e-09
-0.00026248
0.000248175
2.99009e-08
5.16815e-10
-0.000248136
-7.56773e-09
0.000208218
-8.38741e-09
-0.000208253
0.000208251
9.52029e-09
4.89405e-09
-0.000208217
0.000248136
-3.0691e-08
8.46624e-11
-0.000248175
-6.92659e-08
1.71695e-09
2.17894e-09
1.9403e-07
0.000262389
-1.20021e-09
-1.02486e-09
1.25154e-06
-3.02085e-07
3.00156e-07
9.48363e-07
-3.11917e-07
-9.47695e-07
3.07051e-07
4.82542e-08
-1.31219e-07
-0.000263037
-1.36158e-08
-0.00110122
-4.09738e-10
1.3145e-09
-1.01268e-06
8.30473e-07
1.01472e-06
-8.2963e-07
-5.04415e-08
1.4578e-08
1.35303e-07
0.000263037
4.11817e-09
1.53534e-09
1.01475e-06
-8.26981e-07
-1.01011e-06
8.30323e-07
6.92809e-08
-1.28304e-09
-0.000262389
-2.06036e-09
-1.94786e-07
1.04767e-10
3.7534e-10
-3.27402e-08
0.000248176
0.000208313
-0.000208279
5.20462e-09
-7.8017e-09
0.000208279
3.44483e-10
0.000248213
-0.000248176
-4.39452e-10
3.22959e-08
-6.94939e-08
1.91459e-07
1.5379e-09
0.000262359
4.04735e-09
-1.27697e-06
-7.42991e-09
9.45892e-07
-3.06308e-07
-9.44526e-07
3.01649e-07
1.27979e-06
-3.04651e-07
3.02816e-07
-0.00110115
0.00110115
1.52588e-09
-1.01256e-06
8.30354e-07
-8.29542e-07
1.01442e-06
4.85506e-08
3.14557e-08
0.000263018
-1.29002e-07
-0.000262955
-1.39555e-08
-4.02716e-09
1.0148e-06
-8.2974e-07
-1.01261e-06
8.29997e-07
-5.0731e-08
-3.11191e-08
1.20115e-08
1.35266e-07
0.000262952
6.92903e-08
0.000262484
-0.000262359
-1.9467e-07
-9.56626e-10
-3.07539e-08
1.95802e-10
0.000248136
9.03308e-09
0.000208249
-0.000208215
5.47067e-09
-7.79697e-09
-7.99504e-09
0.000208216
0.000248176
-0.000248137
3.00277e-08
4.8497e-10
4.85226e-08
0.000300341
-1.54964e-08
-0.000300384
-2.12469e-08
5.0929e-08
0.00030049
-1.81363e-08
-0.000300531
0.000270926
-0.000268898
2.48096e-07
2.53193e-07
0.000300383
1.65693e-08
-0.000300342
-4.71628e-08
2.05537e-08
0.000300531
1.94701e-08
-0.00030049
-4.94648e-08
7.9393e-09
0.000103782
-0.000103811
0.000103811
-9.22661e-09
-0.000103782
-1.99578e-08
-0.000103755
2.20897e-08
0.000103756
1.24337e-06
0.000268898
-2.45198e-07
-2.50107e-07
0.000300385
-4.71768e-08
-0.000300343
1.64525e-08
2.01576e-08
-3.12454e-08
0.000300532
-4.9677e-08
-0.00030049
1.92367e-08
-1.58851e-08
4.84409e-08
0.000300342
-2.17802e-08
3.09699e-08
-1.85235e-08
5.08897e-08
0.000300489
-8.56082e-09
0.000103809
-0.000103781
7.91668e-09
0.000103782
6.95401e-08
0.000262477
-1.94917e-07
-3.34994e-10
-0.000262352
0.001101
1.32072e-09
1.01715e-06
-8.29631e-07
8.29859e-07
-1.01504e-06
-0.00110099
-5.04541e-08
1.32759e-07
0.000262921
1.21021e-08
-0.000262984
3.29254e-09
0.0011048
-1.30281e-09
-1.24068e-06
3.00446e-07
-3.01949e-07
-9.49761e-07
3.07279e-07
-3.11834e-07
9.50794e-07
0.00110099
1.02601e-09
-1.01499e-06
8.30098e-07
-8.29844e-07
1.01716e-06
4.86232e-08
0.000262984
-1.41093e-08
-0.000262921
-1.29098e-07
-6.94303e-08
0.000262351
1.9417e-07
7.25274e-10
-0.000262476
1.31461e-10
0.000248205
1.52372e-10
3.27357e-08
-0.000248168
0.000208273
-8.35972e-09
-0.000208307
0.000208307
5.00271e-09
-0.000208273
3.10345e-10
0.000248168
-9.85132e-11
-3.23095e-08
-0.000248206
0.000248165
6.46127e-10
3.47806e-08
-0.00024813
-7.28623e-09
0.000208201
-8.34778e-09
-0.000208235
0.000208235
8.73774e-09
5.68854e-09
-0.000208201
0.00024813
1.28862e-10
-3.47903e-08
-0.000248165
9.06154e-10
-6.91444e-08
1.94058e-07
1.5789e-09
0.000262381
4.06542e-09
-8.81908e-10
1.24601e-06
-3.02002e-07
3.00111e-07
9.48465e-07
-3.11944e-07
-9.4793e-07
3.07179e-07
-0.00110107
-1.22373e-08
1.02094e-09
-1.0127e-06
8.30369e-07
1.01469e-06
-8.29517e-07
4.82016e-08
-1.28902e-07
-0.00026303
-1.38097e-08
5.56622e-10
1.28979e-09
1.01485e-06
-8.29771e-07
-1.01281e-06
8.30192e-07
-5.06125e-08
1.19244e-08
1.32757e-07
0.00026303
-1.22903e-09
6.92868e-08
-0.00026238
-1.94793e-07
-1.44509e-09
-6.89082e-08
1.9376e-07
4.87054e-10
0.000262352
3.77906e-09
-1.24064e-06
-8.02153e-10
9.50763e-07
-3.11661e-07
-9.4995e-07
3.07348e-07
1.24341e-06
-3.02023e-07
3.00148e-07
-0.00110099
0.00110099
7.81135e-10
-1.01496e-06
8.30439e-07
-8.29269e-07
1.01704e-06
4.87122e-08
3.18344e-08
0.000262984
-1.29191e-07
-0.000262921
-1.44047e-08
1.41454e-09
1.01709e-06
-8.29555e-07
-1.01511e-06
8.30123e-07
-5.01454e-08
-3.09774e-08
1.15743e-08
1.32508e-07
0.000262921
6.93945e-08
0.000262478
-0.000262353
-1.94833e-07
-9.24205e-10
5.23159e-10
-3.61252e-10
-3.23247e-08
0.000248168
0.000208306
-0.000208272
5.79351e-09
-8.08609e-09
0.000208273
-2.48559e-10
0.000248204
-0.000248168
3.53847e-10
3.24664e-08
2.59485e-10
-3.44488e-08
0.00024813
8.89198e-09
0.000208235
-0.000208201
5.44159e-09
-8.35576e-09
-7.34066e-09
0.0002082
0.000248164
-0.00024813
4.9443e-10
3.49353e-08
0.000103762
-0.000103791
0.000103791
-0.000103762
0.000103742
-0.00010377
0.00010377
-0.000103741
0.000268872
-2.44727e-07
-2.4741e-07
2.03639e-08
-4.94124e-08
-0.000300425
1.59295e-08
2.08146e-08
-4.96366e-08
-0.000300355
1.64871e-08
-2.21097e-08
-1.50817e-08
5.33963e-08
0.000300422
-2.17359e-08
-1.57633e-08
5.08217e-08
0.000300354
0.000103791
-0.000103761
0.000103762
0.000103769
-0.000103739
0.00010374
2.13148e-08
0.000103784
2.22103e-08
0.000103768
3.0805e-08
5.35841e-08
-1.86914e-08
0.000300483
2.82781e-08
5.34605e-08
-1.56638e-08
0.000300409
5.25722e-08
-7.35442e-09
0.000208222
6.93243e-08
0.000248152
-3.02419e-08
1.74134e-10
1.35282e-07
1.10957e-08
0.000263043
1.52566e-09
1.31276e-09
1.01729e-06
-8.32258e-07
-1.0153e-06
8.32543e-07
9.94952e-10
0.000262402
2.40632e-09
1.94034e-07
-3.07695e-08
1.35085e-07
1.11877e-08
0.000262931
1.38748e-09
1.02009e-06
-8.32224e-07
-1.01769e-06
8.32697e-07
0.000262376
1.42253e-09
1.94121e-07
5.08268e-08
-1.68246e-08
0.000300345
-2.09812e-08
5.37639e-08
-1.62042e-08
0.000300493
7.91276e-09
1.32876e-07
1.42261e-08
0.000263002
3.80212e-09
-3.88355e-09
1.02029e-06
-8.32488e-07
-1.01838e-06
8.32802e-07
2.00814e-09
0.000262394
1.70073e-09
1.94213e-07
5.08446e-08
-7.16775e-09
0.000208209
6.92752e-08
0.000248139
-3.05406e-08
3.68378e-10
-3.93848e-09
1.02047e-06
-8.32382e-07
-1.01808e-06
8.32732e-07
-3.11534e-08
1.30112e-07
1.17675e-08
0.000262918
0.000262367
1.94049e-07
1.92856e-09
3.76192e-10
-0.000248177
3.22233e-08
-7.78169e-09
0.000208278
2.39131e-10
0.000248176
2.8292e-10
-3.26608e-08
6.96789e-08
-0.000262359
-1.97677e-07
-5.45258e-10
0.00110118
-1.58564e-08
1.01484e-06
-8.26825e-07
8.29982e-07
-1.00986e-06
-5.03119e-08
1.29795e-07
1.44262e-08
0.000262955
9.57106e-09
-2.2844e-07
-1.28482e-06
3.00691e-07
-3.09792e-07
-9.4171e-07
3.09571e-07
-3.05646e-07
9.50584e-07
-6.92171e-08
0.000262359
1.93978e-07
1.80106e-09
-4.78896e-08
-1.00932e-06
8.32766e-07
-8.29402e-07
1.01708e-06
4.81133e-08
-1.62336e-08
-0.000262955
-1.3144e-07
-0.000248138
2.99652e-08
4.84043e-10
-8.08891e-09
-7.85569e-09
0.000208215
0.000248137
-3.05235e-08
2.2012e-10
9.22477e-09
4.96402e-09
-0.000208215
4.81283e-08
-1.63322e-08
0.000300344
-2.2006e-08
5.10029e-08
-1.62401e-08
0.000300488
8.82072e-09
0.000103778
6.99647e-08
-0.000262353
-1.94827e-07
-1.93853e-09
0.00110101
-4.94409e-09
1.01739e-06
-8.29513e-07
8.30033e-07
-1.0151e-06
-4.97953e-08
1.32193e-07
1.11973e-08
0.000262921
1.94867e-07
-2.15792e-08
-1.20817e-06
3.09196e-07
-2.93335e-07
-9.47118e-07
3.06707e-07
-3.11335e-07
9.50295e-07
-6.86765e-08
0.000262353
1.93868e-07
4.86846e-11
-4.39092e-08
-1.01192e-06
8.30135e-07
-8.26621e-07
1.01693e-06
4.89478e-08
-1.47094e-08
-0.000262921
-1.29001e-07
-3.07502e-10
-0.000248168
3.95269e-10
3.25497e-08
-7.33036e-09
0.000208272
1.48788e-10
0.000248167
2.04224e-10
-3.24284e-08
-0.00024813
-2.79631e-11
3.48908e-08
-8.13529e-09
-7.9776e-09
0.000208202
0.00024813
1.1886e-10
-3.43713e-08
9.46072e-09
4.60125e-09
-0.000208203
0.000103761
-0.000103761
0.000103741
-0.000103743
-1.33998e-09
3.02112e-08
0.000153689
6.91123e-10
-0.000153719
-0.000184353
-6.3611e-10
-3.41688e-10
0.000184384
-0.000242344
3.04372e-08
1.59328e-09
0.000242386
-7.41444e-08
-3.03621e-08
4.03145e-10
-0.000248234
-1.67616e-10
6.92972e-08
-0.000184384
-5.73841e-10
-8.83852e-11
-0.000242386
7.25265e-08
1.0571e-09
0.000153718
-2.92908e-08
-8.34165e-05
8.34471e-05
-1.344e-09
5.27938e-09
0.000208327
8.88058e-09
-4.86486e-08
0.000285525
-2.93648e-08
2.2057e-11
6.70073e-08
-0.00028557
0.00028557
-1.89357e-09
-6.72585e-08
9.58664e-12
-8.34458e-05
2.96283e-08
8.34182e-05
-0.000285524
2.94927e-08
0.000285569
-6.7313e-08
-8.10493e-09
-8.19679e-09
5.02878e-08
6.73609e-08
8.34487e-05
5.22794e-10
-3.06068e-08
-0.00015369
3.02441e-08
3.00697e-10
-6.63211e-11
-6.97843e-08
0.000184353
1.87546e-09
-7.87046e-10
-0.000184384
0.000242344
-3.00245e-08
7.3135e-08
-0.000242386
-6.78461e-10
-7.40166e-08
-0.000153718
0.000103794
-9.23591e-09
-2.2247e-08
7.63052e-09
2.42801e-08
3.01462e-08
-1.31925e-09
0.000153687
6.12906e-10
-0.000153717
-0.000242332
3.07103e-08
1.77635e-09
0.000242374
-7.43287e-08
-0.000184349
-7.11143e-10
-3.16377e-10
0.00018438
3.83655e-10
-3.0333e-08
-0.000248219
-1.20791e-10
6.93387e-08
-8.20695e-11
-0.000242374
7.25065e-08
-0.00018438
-4.48064e-10
1.31674e-09
0.000153716
-2.93412e-08
-8.34182e-05
8.34489e-05
-1.34523e-09
5.20286e-09
0.000208306
8.94536e-09
-4.87131e-08
0.000285518
-2.92073e-08
8.98151e-11
6.70576e-08
-0.000285564
0.000285563
-1.90468e-09
-6.71862e-08
3.24663e-11
-8.34474e-05
2.93633e-08
8.34201e-05
-0.000285517
2.98248e-08
0.000285561
-6.69803e-08
-7.92727e-09
-8.2313e-09
5.02453e-08
6.7009e-08
8.34513e-05
-3.07118e-08
6.22864e-10
-0.000153688
2.17261e-10
3.03864e-08
-2.88111e-11
-6.98287e-08
0.000242333
-2.99385e-08
7.31142e-08
-0.000242375
0.000184349
1.7325e-09
-3.01104e-10
-0.00018438
-7.41289e-08
-3.98791e-10
-0.000153716
0.000103786
-9.19887e-09
-1.99313e-08
7.80872e-09
2.16927e-08
-1.20468e-08
-1.20994e-08