/*--------------------------------*- C++ -*----------------------------------*\
| =========                 |                                                 |
| \\      /  F ield         | OpenFOAM: The Open Source CFD Toolbox           |
|  \\    /   O peration     | Version:                                        |
|   \\  /    A nd           | Website:  www.openfoam.com                      |
|    \\/     M anipulation  |                                                 |
\*---------------------------------------------------------------------------*/
FoamFile
{
    version     2.0;
    format      ascii;
    class       volScalarField;
    location    "31350.5";
    object      p;
}
// * * * * * * * * * * * * * * * * * * * * * * * * * * * * * * * * * * * * * //

dimensions      [0 2 -2 0 0 0 0];


internalField   nonuniform List<scalar> 
247096
(
1.09556e-07
1.09559e-07
1.09703e-07
1.09789e-07
1.09822e-07
1.0978e-07
1.09689e-07
1.09535e-07
1.09559e-07
1.09757e-07
1.09935e-07
1.10027e-07
1.1005e-07
1.1002e-07
1.09916e-07
1.09733e-07
1.09703e-07
1.09934e-07
1.10075e-07
1.10117e-07
1.10123e-07
1.10114e-07
1.10064e-07
1.09907e-07
1.09675e-07
1.09789e-07
1.10027e-07
1.10117e-07
1.10128e-07
1.10127e-07
1.10128e-07
1.10112e-07
1.10005e-07
1.09756e-07
1.09556e-07
1.09822e-07
1.1005e-07
1.10123e-07
1.10127e-07
1.10123e-07
1.10128e-07
1.1012e-07
1.10031e-07
1.09787e-07
1.0978e-07
1.1002e-07
1.10114e-07
1.10128e-07
1.10128e-07
1.10128e-07
1.10109e-07
1.09997e-07
1.09747e-07
1.09689e-07
1.09916e-07
1.10064e-07
1.10112e-07
1.1012e-07
1.10109e-07
1.10053e-07
1.09888e-07
1.09663e-07
1.09535e-07
1.09733e-07
1.09907e-07
1.10005e-07
1.10031e-07
1.09997e-07
1.09888e-07
1.09711e-07
1.09675e-07
1.09756e-07
1.09787e-07
1.09747e-07
1.09663e-07
1.06743e-07
1.06718e-07
1.06727e-07
1.06578e-07
1.06591e-07
1.0661e-07
1.0659e-07
1.06776e-07
1.06714e-07
1.06727e-07
1.06599e-07
1.06395e-07
1.06412e-07
1.06412e-07
1.06395e-07
1.06656e-07
1.06602e-07
1.06578e-07
1.06395e-07
1.06432e-07
1.06453e-07
1.06453e-07
1.06432e-07
1.06395e-07
1.06719e-07
1.06765e-07
1.06743e-07
1.06591e-07
1.06412e-07
1.06453e-07
1.06477e-07
1.06477e-07
1.06453e-07
1.06412e-07
1.06747e-07
1.06783e-07
1.06718e-07
1.0661e-07
1.06412e-07
1.06453e-07
1.06477e-07
1.06477e-07
1.06453e-07
1.06412e-07
1.0675e-07
1.06607e-07
1.0659e-07
1.06395e-07
1.06432e-07
1.06453e-07
1.06453e-07
1.06432e-07
1.06395e-07
1.06743e-07
1.06792e-07
1.06776e-07
1.06656e-07
1.06395e-07
1.06412e-07
1.06412e-07
1.06395e-07
1.06737e-07
1.06661e-07
1.06775e-07
1.06714e-07
1.06602e-07
1.06719e-07
1.06747e-07
1.06749e-07
1.06743e-07
1.06661e-07
1.06785e-07
1.06765e-07
1.06783e-07
1.06607e-07
1.06792e-07
1.06775e-07
1.04966e-07
1.04957e-07
1.04966e-07
1.04836e-07
1.04835e-07
1.04845e-07
1.04837e-07
1.05e-07
1.04957e-07
1.04966e-07
1.0483e-07
1.04597e-07
1.04605e-07
1.04605e-07
1.04597e-07
1.04854e-07
1.04848e-07
1.04836e-07
1.04597e-07
1.04617e-07
1.04628e-07
1.04628e-07
1.04617e-07
1.04597e-07
1.04898e-07
1.0499e-07
1.04966e-07
1.04835e-07
1.04605e-07
1.04628e-07
1.04641e-07
1.04641e-07
1.04628e-07
1.04605e-07
1.04903e-07
1.04988e-07
1.04957e-07
1.04845e-07
1.04605e-07
1.04628e-07
1.04641e-07
1.04641e-07
1.04628e-07
1.04605e-07
1.04901e-07
1.04855e-07
1.04837e-07
1.04597e-07
1.04617e-07
1.04628e-07
1.04628e-07
1.04617e-07
1.04597e-07
1.04905e-07
1.04996e-07
1.05e-07
1.04854e-07
1.04597e-07
1.04605e-07
1.04605e-07
1.04597e-07
1.04886e-07
1.04877e-07
1.05e-07
1.04957e-07
1.04848e-07
1.04898e-07
1.04903e-07
1.04901e-07
1.04905e-07
1.04877e-07
1.05003e-07
1.0499e-07
1.04988e-07
1.04855e-07
1.04996e-07
1.05e-07
1.03367e-07
1.03358e-07
1.03367e-07
1.03243e-07
1.03242e-07
1.03251e-07
1.03244e-07
1.03398e-07
1.0336e-07
1.03367e-07
1.03239e-07
1.03031e-07
1.03037e-07
1.03037e-07
1.03031e-07
1.03263e-07
1.03257e-07
1.03243e-07
1.03031e-07
1.03043e-07
1.03049e-07
1.03049e-07
1.03043e-07
1.03031e-07
1.03304e-07
1.0339e-07
1.03367e-07
1.03242e-07
1.03037e-07
1.03049e-07
1.03056e-07
1.03056e-07
1.03049e-07
1.03037e-07
1.03308e-07
1.03389e-07
1.03358e-07
1.03251e-07
1.03037e-07
1.03049e-07
1.03056e-07
1.03056e-07
1.03049e-07
1.03037e-07
1.03307e-07
1.03262e-07
1.03244e-07
1.03031e-07
1.03043e-07
1.03049e-07
1.03049e-07
1.03043e-07
1.03031e-07
1.0331e-07
1.03395e-07
1.03398e-07
1.03263e-07
1.03031e-07
1.03037e-07
1.03037e-07
1.03031e-07
1.03292e-07
1.03283e-07
1.03399e-07
1.0336e-07
1.03257e-07
1.03304e-07
1.03308e-07
1.03307e-07
1.0331e-07
1.03283e-07
1.03403e-07
1.0339e-07
1.03389e-07
1.03262e-07
1.03395e-07
1.03399e-07
1.01903e-07
1.01895e-07
1.01903e-07
1.01785e-07
1.01783e-07
1.0179e-07
1.01786e-07
1.01931e-07
1.01897e-07
1.01903e-07
1.01781e-07
1.01589e-07
1.01592e-07
1.01592e-07
1.01589e-07
1.01804e-07
1.01799e-07
1.01785e-07
1.01589e-07
1.01597e-07
1.016e-07
1.016e-07
1.01597e-07
1.01589e-07
1.01843e-07
1.01926e-07
1.01903e-07
1.01783e-07
1.01592e-07
1.016e-07
1.01604e-07
1.01604e-07
1.016e-07
1.01592e-07
1.01845e-07
1.01924e-07
1.01895e-07
1.0179e-07
1.01592e-07
1.016e-07
1.01604e-07
1.01604e-07
1.016e-07
1.01592e-07
1.01844e-07
1.01804e-07
1.01786e-07
1.01589e-07
1.01597e-07
1.016e-07
1.016e-07
1.01597e-07
1.01589e-07
1.01847e-07
1.0193e-07
1.01931e-07
1.01804e-07
1.01589e-07
1.01592e-07
1.01592e-07
1.01589e-07
1.01831e-07
1.01824e-07
1.01932e-07
1.01897e-07
1.01799e-07
1.01843e-07
1.01845e-07
1.01844e-07
1.01847e-07
1.01824e-07
1.01937e-07
1.01926e-07
1.01924e-07
1.01804e-07
1.0193e-07
1.01932e-07
1.00533e-07
1.00525e-07
1.00533e-07
1.0042e-07
1.00417e-07
1.00423e-07
1.00419e-07
1.00558e-07
1.00528e-07
1.00533e-07
1.00415e-07
1.00234e-07
1.00236e-07
1.00236e-07
1.00234e-07
1.00437e-07
1.00434e-07
1.0042e-07
1.00234e-07
1.00239e-07
1.00241e-07
1.00241e-07
1.00239e-07
1.00234e-07
1.00475e-07
1.00556e-07
1.00533e-07
1.00417e-07
1.00236e-07
1.00241e-07
1.00244e-07
1.00244e-07
1.00241e-07
1.00236e-07
1.00476e-07
1.00554e-07
1.00525e-07
1.00423e-07
1.00236e-07
1.00241e-07
1.00244e-07
1.00244e-07
1.00241e-07
1.00236e-07
1.00475e-07
1.00438e-07
1.00419e-07
1.00234e-07
1.00239e-07
1.00241e-07
1.00241e-07
1.00239e-07
1.00234e-07
1.00478e-07
1.00559e-07
1.00558e-07
1.00437e-07
1.00234e-07
1.00236e-07
1.00236e-07
1.00234e-07
1.00462e-07
1.00456e-07
1.00561e-07
1.00528e-07
1.00434e-07
1.00475e-07
1.00476e-07
1.00475e-07
1.00478e-07
1.00456e-07
1.00566e-07
1.00556e-07
1.00554e-07
1.00438e-07
1.00559e-07
1.00561e-07
9.92354e-08
9.92269e-08
9.92345e-08
9.91253e-08
9.91222e-08
9.91276e-08
9.91242e-08
9.92585e-08
9.92303e-08
9.92345e-08
9.91199e-08
9.8948e-08
9.89496e-08
9.89496e-08
9.8948e-08
9.91419e-08
9.91395e-08
9.91253e-08
9.8948e-08
9.89519e-08
9.8953e-08
9.8953e-08
9.89519e-08
9.8948e-08
9.91786e-08
9.92571e-08
9.92353e-08
9.91222e-08
9.89496e-08
9.8953e-08
9.89548e-08
9.89548e-08
9.8953e-08
9.89496e-08
9.91793e-08
9.92552e-08
9.92269e-08
9.91275e-08
9.89496e-08
9.8953e-08
9.89548e-08
9.89548e-08
9.8953e-08
9.89496e-08
9.91775e-08
9.91435e-08
9.91242e-08
9.8948e-08
9.89519e-08
9.8953e-08
9.8953e-08
9.89519e-08
9.8948e-08
9.91806e-08
9.926e-08
9.92585e-08
9.91419e-08
9.8948e-08
9.89496e-08
9.89496e-08
9.8948e-08
9.91655e-08
9.91606e-08
9.92611e-08
9.92303e-08
9.91395e-08
9.91786e-08
9.91793e-08
9.91775e-08
9.91806e-08
9.91606e-08
9.92666e-08
9.92571e-08
9.92552e-08
9.91435e-08
9.926e-08
9.92611e-08
9.79977e-08
9.79893e-08
9.79966e-08
9.78904e-08
9.7887e-08
9.78917e-08
9.78888e-08
9.80195e-08
9.7993e-08
9.79966e-08
9.78846e-08
9.77207e-08
9.77218e-08
9.77218e-08
9.77207e-08
9.79064e-08
9.79046e-08
9.78904e-08
9.77207e-08
9.77239e-08
9.77244e-08
9.77244e-08
9.77239e-08
9.77207e-08
9.79427e-08
9.80191e-08
9.79977e-08
9.7887e-08
9.77218e-08
9.77244e-08
9.77256e-08
9.77256e-08
9.77244e-08
9.77218e-08
9.79429e-08
9.80172e-08
9.79893e-08
9.78917e-08
9.77218e-08
9.77244e-08
9.77256e-08
9.77256e-08
9.77244e-08
9.77218e-08
9.79411e-08
9.79084e-08
9.78888e-08
9.77207e-08
9.77239e-08
9.77244e-08
9.77244e-08
9.77239e-08
9.77207e-08
9.79438e-08
9.80217e-08
9.80195e-08
9.79064e-08
9.77207e-08
9.77218e-08
9.77218e-08
9.77207e-08
9.79294e-08
9.79246e-08
9.80224e-08
9.7993e-08
9.79046e-08
9.79427e-08
9.79429e-08
9.79411e-08
9.79438e-08
9.79246e-08
9.80283e-08
9.80191e-08
9.80172e-08
9.79084e-08
9.80217e-08
9.80224e-08
9.68085e-08
9.68002e-08
9.68074e-08
9.67034e-08
9.66996e-08
9.67038e-08
9.67013e-08
9.68294e-08
9.68042e-08
9.68074e-08
9.66972e-08
9.65397e-08
9.65405e-08
9.65405e-08
9.65397e-08
9.6719e-08
9.67176e-08
9.67034e-08
9.65397e-08
9.65425e-08
9.65425e-08
9.65425e-08
9.65425e-08
9.65397e-08
9.67553e-08
9.68297e-08
9.68085e-08
9.66996e-08
9.65405e-08
9.65425e-08
9.65431e-08
9.65431e-08
9.65425e-08
9.65405e-08
9.67551e-08
9.68278e-08
9.68001e-08
9.67038e-08
9.65405e-08
9.65425e-08
9.65431e-08
9.65431e-08
9.65425e-08
9.65405e-08
9.67533e-08
9.67212e-08
9.67013e-08
9.65397e-08
9.65425e-08
9.65425e-08
9.65425e-08
9.65425e-08
9.65397e-08
9.67556e-08
9.6832e-08
9.68294e-08
9.6719e-08
9.65397e-08
9.65405e-08
9.65405e-08
9.65397e-08
9.67418e-08
9.67368e-08
9.68324e-08
9.68042e-08
9.67175e-08
9.67553e-08
9.67551e-08
9.67533e-08
9.67556e-08
9.67368e-08
9.68387e-08
9.68297e-08
9.68278e-08
9.67212e-08
9.6832e-08
9.68324e-08
9.56529e-08
9.56445e-08
9.56517e-08
9.55492e-08
9.55452e-08
9.55491e-08
9.55468e-08
9.56733e-08
9.56489e-08
9.56517e-08
9.55429e-08
9.53896e-08
9.53902e-08
9.53902e-08
9.53896e-08
9.55648e-08
9.55634e-08
9.55492e-08
9.53896e-08
9.53922e-08
9.53918e-08
9.53918e-08
9.53922e-08
9.53896e-08
9.56012e-08
9.56741e-08
9.56529e-08
9.55452e-08
9.53902e-08
9.53918e-08
9.53919e-08
9.53919e-08
9.53918e-08
9.53902e-08
9.56008e-08
9.56722e-08
9.56445e-08
9.55491e-08
9.53902e-08
9.53918e-08
9.53919e-08
9.53919e-08
9.53918e-08
9.53902e-08
9.55989e-08
9.55669e-08
9.55468e-08
9.53896e-08
9.53922e-08
9.53918e-08
9.53918e-08
9.53922e-08
9.53896e-08
9.56009e-08
9.56762e-08
9.56733e-08
9.55647e-08
9.53895e-08
9.53902e-08
9.53902e-08
9.53895e-08
9.55874e-08
9.55822e-08
9.56764e-08
9.56489e-08
9.55634e-08
9.56011e-08
9.56008e-08
9.55989e-08
9.56009e-08
9.55822e-08
9.5683e-08
9.56741e-08
9.56721e-08
9.55669e-08
9.56761e-08
9.56764e-08
9.45167e-08
9.45083e-08
9.45156e-08
9.44138e-08
9.44097e-08
9.44134e-08
9.44111e-08
9.45367e-08
9.45127e-08
9.45153e-08
9.44073e-08
9.42563e-08
9.42568e-08
9.42568e-08
9.42563e-08
9.44292e-08
9.44286e-08
9.44136e-08
9.42562e-08
9.42589e-08
9.42582e-08
9.42582e-08
9.4259e-08
9.42563e-08
9.44661e-08
9.4538e-08
9.45167e-08
9.44096e-08
9.42568e-08
9.42581e-08
9.42579e-08
9.42579e-08
9.42582e-08
9.42568e-08
9.44655e-08
9.4536e-08
9.45083e-08
9.44134e-08
9.42568e-08
9.42581e-08
9.42579e-08
9.42579e-08
9.42582e-08
9.42568e-08
9.44635e-08
9.44315e-08
9.44111e-08
9.42563e-08
9.42589e-08
9.42581e-08
9.42581e-08
9.42589e-08
9.42563e-08
9.44654e-08
9.45398e-08
9.45369e-08
9.44293e-08
9.42562e-08
9.42568e-08
9.42568e-08
9.42562e-08
9.4452e-08
9.44468e-08
9.454e-08
9.45128e-08
9.44273e-08
9.44657e-08
9.44654e-08
9.44634e-08
9.44652e-08
9.44463e-08
9.45467e-08
9.45377e-08
9.45358e-08
9.44313e-08
9.45397e-08
9.45398e-08
9.33898e-08
9.33813e-08
9.33886e-08
9.32872e-08
9.3283e-08
9.32867e-08
9.32845e-08
9.34098e-08
9.33859e-08
9.33883e-08
9.32806e-08
9.31306e-08
9.31311e-08
9.31311e-08
9.31306e-08
9.33027e-08
9.33008e-08
9.32869e-08
9.31305e-08
9.31334e-08
9.31323e-08
9.31323e-08
9.31334e-08
9.31305e-08
9.33393e-08
9.34108e-08
9.33897e-08
9.32828e-08
9.3131e-08
9.31323e-08
9.31319e-08
9.31319e-08
9.31323e-08
9.3131e-08
9.33389e-08
9.34089e-08
9.33812e-08
9.32866e-08
9.3131e-08
9.31323e-08
9.31319e-08
9.31319e-08
9.31323e-08
9.3131e-08
9.33369e-08
9.33047e-08
9.32844e-08
9.31305e-08
9.31333e-08
9.31323e-08
9.31323e-08
9.31333e-08
9.31306e-08
9.33387e-08
9.34128e-08
9.34098e-08
9.33027e-08
9.31305e-08
9.3131e-08
9.3131e-08
9.31305e-08
9.33253e-08
9.33201e-08
9.34129e-08
9.33859e-08
9.33007e-08
9.33392e-08
9.33388e-08
9.33368e-08
9.33385e-08
9.33196e-08
9.34197e-08
9.34107e-08
9.34088e-08
9.33046e-08
9.34126e-08
9.34127e-08
9.22665e-08
9.22581e-08
9.22653e-08
9.2164e-08
9.21598e-08
9.21635e-08
9.21613e-08
9.22865e-08
9.22627e-08
9.2265e-08
9.21574e-08
9.20077e-08
9.20082e-08
9.20082e-08
9.20077e-08
9.21796e-08
9.21776e-08
9.21638e-08
9.20077e-08
9.20106e-08
9.20095e-08
9.20095e-08
9.20106e-08
9.20077e-08
9.22163e-08
9.22875e-08
9.22664e-08
9.21597e-08
9.20082e-08
9.20094e-08
9.20089e-08
9.20089e-08
9.20094e-08
9.20082e-08
9.22158e-08
9.22856e-08
9.22579e-08
9.21634e-08
9.20082e-08
9.20094e-08
9.20089e-08
9.20089e-08
9.20094e-08
9.20082e-08
9.22138e-08
9.21816e-08
9.21612e-08
9.20077e-08
9.20105e-08
9.20094e-08
9.20094e-08
9.20105e-08
9.20077e-08
9.22155e-08
9.22895e-08
9.22864e-08
9.21795e-08
9.20076e-08
9.20081e-08
9.20081e-08
9.20076e-08
9.22022e-08
9.21969e-08
9.22896e-08
9.22626e-08
9.21776e-08
9.22162e-08
9.22157e-08
9.22137e-08
9.22154e-08
9.21964e-08
9.22964e-08
9.22874e-08
9.22855e-08
9.21814e-08
9.22893e-08
9.22893e-08
9.11444e-08
9.1136e-08
9.11433e-08
9.1042e-08
9.10378e-08
9.10414e-08
9.10392e-08
9.11642e-08
9.11404e-08
9.1143e-08
9.10354e-08
9.08859e-08
9.08863e-08
9.08863e-08
9.08858e-08
9.10574e-08
9.10567e-08
9.10418e-08
9.08858e-08
9.08887e-08
9.08876e-08
9.08876e-08
9.08888e-08
9.08859e-08
9.10945e-08
9.11656e-08
9.11443e-08
9.10377e-08
9.08863e-08
9.08875e-08
9.0887e-08
9.0887e-08
9.08876e-08
9.08863e-08
9.10939e-08
9.11636e-08
9.11359e-08
9.10414e-08
9.08863e-08
9.08875e-08
9.08869e-08
9.08869e-08
9.08876e-08
9.08863e-08
9.10919e-08
9.10596e-08
9.10392e-08
9.08858e-08
9.08887e-08
9.08875e-08
9.08875e-08
9.08887e-08
9.08858e-08
9.10935e-08
9.11674e-08
9.11644e-08
9.10575e-08
9.08858e-08
9.08862e-08
9.08862e-08
9.08858e-08
9.10802e-08
9.10749e-08
9.11676e-08
9.11405e-08
9.10556e-08
9.10942e-08
9.10938e-08
9.10917e-08
9.10934e-08
9.10744e-08
9.11744e-08
9.11654e-08
9.11634e-08
9.10594e-08
9.11673e-08
9.11673e-08
9.00228e-08
9.00144e-08
9.00216e-08
8.99204e-08
8.99161e-08
8.99198e-08
8.99176e-08
9.00428e-08
9.0019e-08
9.00213e-08
8.99138e-08
8.97643e-08
8.97647e-08
8.97647e-08
8.97643e-08
8.99359e-08
8.9934e-08
8.99201e-08
8.97642e-08
8.97671e-08
8.9766e-08
8.9766e-08
8.97671e-08
8.97642e-08
8.99727e-08
9.00438e-08
9.00227e-08
8.9916e-08
8.97646e-08
8.9766e-08
8.97653e-08
8.97653e-08
8.9766e-08
8.97647e-08
8.99722e-08
9.00419e-08
9.00143e-08
8.99197e-08
8.97647e-08
8.97659e-08
8.97653e-08
8.97653e-08
8.9766e-08
8.97647e-08
8.99702e-08
8.99379e-08
8.99175e-08
8.97642e-08
8.97671e-08
8.97659e-08
8.97659e-08
8.97671e-08
8.97643e-08
8.99719e-08
9.00458e-08
9.00427e-08
8.99359e-08
8.97642e-08
8.97646e-08
8.97646e-08
8.97642e-08
8.99586e-08
8.99532e-08
9.00459e-08
9.00189e-08
8.99339e-08
8.99726e-08
8.99722e-08
8.99701e-08
8.99717e-08
8.99528e-08
9.00527e-08
9.00437e-08
9.00418e-08
8.99378e-08
9.00456e-08
9.00457e-08
8.89013e-08
8.88928e-08
8.89001e-08
8.87988e-08
8.87946e-08
8.87983e-08
8.87961e-08
8.89213e-08
8.88974e-08
8.88998e-08
8.87923e-08
8.86428e-08
8.86432e-08
8.86432e-08
8.86428e-08
8.88144e-08
8.88125e-08
8.87986e-08
8.86427e-08
8.86456e-08
8.86445e-08
8.86445e-08
8.86456e-08
8.86427e-08
8.88511e-08
8.89223e-08
8.89011e-08
8.87945e-08
8.86431e-08
8.86444e-08
8.86438e-08
8.86438e-08
8.86444e-08
8.86431e-08
8.88507e-08
8.89204e-08
8.88927e-08
8.87982e-08
8.86431e-08
8.86444e-08
8.86438e-08
8.86438e-08
8.86444e-08
8.86431e-08
8.88487e-08
8.88164e-08
8.8796e-08
8.86427e-08
8.86455e-08
8.86444e-08
8.86444e-08
8.86456e-08
8.86427e-08
8.88503e-08
8.89242e-08
8.89212e-08
8.88143e-08
8.86427e-08
8.86431e-08
8.86431e-08
8.86427e-08
8.8837e-08
8.88317e-08
8.89243e-08
8.88974e-08
8.88124e-08
8.88511e-08
8.88506e-08
8.88486e-08
8.88502e-08
8.88313e-08
8.89312e-08
8.89222e-08
8.89203e-08
8.88163e-08
8.89241e-08
8.89241e-08
8.77797e-08
8.77713e-08
8.77785e-08
8.76773e-08
8.76731e-08
8.76767e-08
8.76745e-08
8.77995e-08
8.77757e-08
8.77783e-08
8.76707e-08
8.75212e-08
8.75216e-08
8.75216e-08
8.75212e-08
8.76927e-08
8.7692e-08
8.76771e-08
8.75212e-08
8.75241e-08
8.75229e-08
8.7523e-08
8.75241e-08
8.75213e-08
8.77298e-08
8.78009e-08
8.77796e-08
8.76729e-08
8.75216e-08
8.75229e-08
8.75223e-08
8.75223e-08
8.7523e-08
8.75217e-08
8.77293e-08
8.77989e-08
8.77711e-08
8.76766e-08
8.75216e-08
8.75229e-08
8.75223e-08
8.75223e-08
8.7523e-08
8.75217e-08
8.77272e-08
8.76949e-08
8.76744e-08
8.75212e-08
8.75241e-08
8.75229e-08
8.7523e-08
8.75241e-08
8.75212e-08
8.77288e-08
8.78027e-08
8.77994e-08
8.76927e-08
8.75212e-08
8.75216e-08
8.75216e-08
8.75213e-08
8.77156e-08
8.77098e-08
8.78027e-08
8.77757e-08
8.7692e-08
8.77298e-08
8.77293e-08
8.77272e-08
8.77289e-08
8.77103e-08
8.78097e-08
8.78009e-08
8.77989e-08
8.76949e-08
8.78027e-08
8.78029e-08
8.66582e-08
8.66498e-08
8.6657e-08
8.65558e-08
8.65516e-08
8.65552e-08
8.6553e-08
8.6678e-08
8.66542e-08
8.66568e-08
8.65492e-08
8.63998e-08
8.64002e-08
8.64002e-08
8.63997e-08
8.65713e-08
8.65706e-08
8.65556e-08
8.63997e-08
8.64026e-08
8.64015e-08
8.64015e-08
8.64026e-08
8.63998e-08
8.66084e-08
8.66795e-08
8.66581e-08
8.65514e-08
8.64001e-08
8.64014e-08
8.64008e-08
8.64008e-08
8.64015e-08
8.64002e-08
8.66078e-08
8.66775e-08
8.66496e-08
8.65551e-08
8.64001e-08
8.64014e-08
8.64008e-08
8.64008e-08
8.64015e-08
8.64002e-08
8.66057e-08
8.65735e-08
8.65529e-08
8.63997e-08
8.64026e-08
8.64014e-08
8.64015e-08
8.64026e-08
8.63998e-08
8.66074e-08
8.66813e-08
8.66779e-08
8.65712e-08
8.63997e-08
8.64001e-08
8.64001e-08
8.63997e-08
8.65941e-08
8.65888e-08
8.66814e-08
8.66542e-08
8.65705e-08
8.66083e-08
8.66077e-08
8.66056e-08
8.66073e-08
8.65883e-08
8.66882e-08
8.66794e-08
8.66774e-08
8.65734e-08
8.66812e-08
8.66812e-08
8.55367e-08
8.55283e-08
8.55356e-08
8.54343e-08
8.54301e-08
8.54337e-08
8.54315e-08
8.55565e-08
8.55328e-08
8.55353e-08
8.54278e-08
8.52783e-08
8.52787e-08
8.52787e-08
8.52783e-08
8.54498e-08
8.54491e-08
8.54341e-08
8.52782e-08
8.52811e-08
8.528e-08
8.528e-08
8.52811e-08
8.52783e-08
8.54869e-08
8.5558e-08
8.55366e-08
8.543e-08
8.52787e-08
8.528e-08
8.52793e-08
8.52793e-08
8.528e-08
8.52787e-08
8.54863e-08
8.5556e-08
8.55282e-08
8.54337e-08
8.52787e-08
8.528e-08
8.52793e-08
8.52793e-08
8.528e-08
8.52787e-08
8.54843e-08
8.5452e-08
8.54315e-08
8.52783e-08
8.52811e-08
8.528e-08
8.528e-08
8.52811e-08
8.52783e-08
8.54859e-08
8.55598e-08
8.55567e-08
8.54499e-08
8.52782e-08
8.52786e-08
8.52786e-08
8.52782e-08
8.54726e-08
8.54673e-08
8.55599e-08
8.55329e-08
8.54479e-08
8.54866e-08
8.54862e-08
8.54841e-08
8.54857e-08
8.54668e-08
8.55667e-08
8.55577e-08
8.55558e-08
8.54518e-08
8.55596e-08
8.55597e-08
8.44153e-08
8.44069e-08
8.44141e-08
8.43129e-08
8.43087e-08
8.43123e-08
8.43101e-08
8.44353e-08
8.44115e-08
8.44139e-08
8.43063e-08
8.41568e-08
8.41572e-08
8.41572e-08
8.41568e-08
8.43285e-08
8.43265e-08
8.43127e-08
8.41568e-08
8.41597e-08
8.41585e-08
8.41585e-08
8.41597e-08
8.41568e-08
8.43652e-08
8.44364e-08
8.44152e-08
8.43085e-08
8.41572e-08
8.41585e-08
8.41579e-08
8.41579e-08
8.41585e-08
8.41572e-08
8.43648e-08
8.44345e-08
8.44068e-08
8.43122e-08
8.41572e-08
8.41585e-08
8.41579e-08
8.41579e-08
8.41585e-08
8.41572e-08
8.43628e-08
8.43305e-08
8.43101e-08
8.41568e-08
8.41596e-08
8.41585e-08
8.41585e-08
8.41596e-08
8.41568e-08
8.43644e-08
8.44383e-08
8.44352e-08
8.43284e-08
8.41567e-08
8.41572e-08
8.41572e-08
8.41568e-08
8.43511e-08
8.43458e-08
8.44384e-08
8.44114e-08
8.43265e-08
8.43651e-08
8.43647e-08
8.43626e-08
8.43643e-08
8.43453e-08
8.44453e-08
8.44363e-08
8.44343e-08
8.43303e-08
8.44381e-08
8.44382e-08
8.32938e-08
8.32854e-08
8.32927e-08
8.31914e-08
8.31872e-08
8.31908e-08
8.31886e-08
8.33136e-08
8.32898e-08
8.32924e-08
8.31849e-08
8.30354e-08
8.30358e-08
8.30358e-08
8.30353e-08
8.32069e-08
8.32062e-08
8.31912e-08
8.30353e-08
8.30382e-08
8.30371e-08
8.30371e-08
8.30382e-08
8.30354e-08
8.3244e-08
8.33151e-08
8.32937e-08
8.31871e-08
8.30357e-08
8.30371e-08
8.30364e-08
8.30364e-08
8.30371e-08
8.30358e-08
8.32434e-08
8.33131e-08
8.32853e-08
8.31908e-08
8.30357e-08
8.3037e-08
8.30364e-08
8.30364e-08
8.30371e-08
8.30358e-08
8.32413e-08
8.32091e-08
8.31886e-08
8.30353e-08
8.30382e-08
8.3037e-08
8.3037e-08
8.30382e-08
8.30354e-08
8.3243e-08
8.33169e-08
8.33138e-08
8.32069e-08
8.30353e-08
8.30357e-08
8.30357e-08
8.30353e-08
8.32296e-08
8.32243e-08
8.3317e-08
8.329e-08
8.3205e-08
8.32437e-08
8.32432e-08
8.32412e-08
8.32428e-08
8.32239e-08
8.33238e-08
8.33148e-08
8.33129e-08
8.32089e-08
8.33167e-08
8.33167e-08
8.21723e-08
8.21639e-08
8.21712e-08
8.20699e-08
8.20657e-08
8.20693e-08
8.20671e-08
8.21921e-08
8.21684e-08
8.21709e-08
8.20634e-08
8.19139e-08
8.19143e-08
8.19143e-08
8.19139e-08
8.20854e-08
8.20847e-08
8.20697e-08
8.19139e-08
8.19167e-08
8.19156e-08
8.19156e-08
8.19167e-08
8.19139e-08
8.21225e-08
8.21936e-08
8.21723e-08
8.20656e-08
8.19143e-08
8.19156e-08
8.19149e-08
8.1915e-08
8.19156e-08
8.19143e-08
8.2122e-08
8.21916e-08
8.21639e-08
8.20693e-08
8.19143e-08
8.19156e-08
8.19149e-08
8.19149e-08
8.19156e-08
8.19143e-08
8.21199e-08
8.20876e-08
8.20672e-08
8.19139e-08
8.19167e-08
8.19156e-08
8.19156e-08
8.19167e-08
8.19139e-08
8.21215e-08
8.21954e-08
8.21923e-08
8.20855e-08
8.19138e-08
8.19142e-08
8.19142e-08
8.19138e-08
8.21082e-08
8.21029e-08
8.21955e-08
8.21685e-08
8.20835e-08
8.21222e-08
8.21218e-08
8.21197e-08
8.21213e-08
8.21024e-08
8.22024e-08
8.21933e-08
8.21914e-08
8.20874e-08
8.21952e-08
8.21953e-08
8.10509e-08
8.10424e-08
8.10497e-08
8.09484e-08
8.09442e-08
8.09479e-08
8.09456e-08
8.10707e-08
8.10469e-08
8.10495e-08
8.09419e-08
8.07924e-08
8.07928e-08
8.07928e-08
8.07924e-08
8.09639e-08
8.09632e-08
8.09483e-08
8.07924e-08
8.07953e-08
8.07941e-08
8.07941e-08
8.07953e-08
8.07925e-08
8.10011e-08
8.10721e-08
8.10508e-08
8.09442e-08
8.07928e-08
8.07941e-08
8.07935e-08
8.07935e-08
8.07942e-08
8.07929e-08
8.10005e-08
8.10702e-08
8.10424e-08
8.09479e-08
8.07928e-08
8.07941e-08
8.07935e-08
8.07935e-08
8.07942e-08
8.07929e-08
8.09984e-08
8.09662e-08
8.09457e-08
8.07924e-08
8.07952e-08
8.07941e-08
8.07941e-08
8.07953e-08
8.07925e-08
8.10001e-08
8.1074e-08
8.10709e-08
8.0964e-08
8.07924e-08
8.07928e-08
8.07928e-08
8.07924e-08
8.09867e-08
8.09814e-08
8.10741e-08
8.10471e-08
8.09621e-08
8.10007e-08
8.10003e-08
8.09983e-08
8.09999e-08
8.0981e-08
8.10809e-08
8.10719e-08
8.107e-08
8.0966e-08
8.10738e-08
8.10738e-08
7.99293e-08
7.99209e-08
7.9928e-08
7.98268e-08
7.98227e-08
7.98264e-08
7.98241e-08
7.99492e-08
7.99254e-08
7.99283e-08
7.98205e-08
7.96709e-08
7.96714e-08
7.96714e-08
7.9671e-08
7.98425e-08
7.98418e-08
7.9827e-08
7.9671e-08
7.96738e-08
7.96727e-08
7.96727e-08
7.96738e-08
7.9671e-08
7.98796e-08
7.99507e-08
7.99294e-08
7.98228e-08
7.96714e-08
7.96727e-08
7.9672e-08
7.9672e-08
7.96727e-08
7.96714e-08
7.9879e-08
7.99487e-08
7.9921e-08
7.98264e-08
7.96714e-08
7.96727e-08
7.9672e-08
7.9672e-08
7.96727e-08
7.96714e-08
7.9877e-08
7.98447e-08
7.98243e-08
7.9671e-08
7.96738e-08
7.96727e-08
7.96727e-08
7.96738e-08
7.9671e-08
7.98786e-08
7.99525e-08
7.99494e-08
7.98426e-08
7.96709e-08
7.96713e-08
7.96713e-08
7.96709e-08
7.98653e-08
7.986e-08
7.99526e-08
7.99256e-08
7.98407e-08
7.98793e-08
7.98789e-08
7.98768e-08
7.98784e-08
7.98595e-08
7.99594e-08
7.99504e-08
7.99485e-08
7.98445e-08
7.99523e-08
7.99524e-08
7.8808e-08
7.87995e-08
7.88068e-08
7.87055e-08
7.87013e-08
7.87049e-08
7.87027e-08
7.88278e-08
7.8804e-08
7.88065e-08
7.8699e-08
7.85495e-08
7.85499e-08
7.85499e-08
7.85495e-08
7.8721e-08
7.87203e-08
7.87054e-08
7.85495e-08
7.85524e-08
7.85512e-08
7.85512e-08
7.85524e-08
7.85496e-08
7.87581e-08
7.88292e-08
7.88079e-08
7.87012e-08
7.85499e-08
7.85512e-08
7.85506e-08
7.85506e-08
7.85513e-08
7.855e-08
7.87576e-08
7.88273e-08
7.87994e-08
7.87049e-08
7.85499e-08
7.85512e-08
7.85506e-08
7.85506e-08
7.85513e-08
7.855e-08
7.87555e-08
7.87232e-08
7.87027e-08
7.85495e-08
7.85524e-08
7.85512e-08
7.85512e-08
7.85524e-08
7.85496e-08
7.87572e-08
7.88311e-08
7.88277e-08
7.8721e-08
7.85495e-08
7.85499e-08
7.85499e-08
7.85495e-08
7.87439e-08
7.87385e-08
7.88312e-08
7.8804e-08
7.87203e-08
7.87581e-08
7.87575e-08
7.87554e-08
7.8757e-08
7.87381e-08
7.8838e-08
7.88292e-08
7.88272e-08
7.87231e-08
7.88309e-08
7.8831e-08
7.76865e-08
7.76781e-08
7.76854e-08
7.75841e-08
7.75799e-08
7.75835e-08
7.75813e-08
7.77063e-08
7.76826e-08
7.76851e-08
7.75776e-08
7.74281e-08
7.74285e-08
7.74285e-08
7.74281e-08
7.75996e-08
7.75989e-08
7.75839e-08
7.7428e-08
7.74309e-08
7.74298e-08
7.74298e-08
7.74309e-08
7.74281e-08
7.76367e-08
7.77077e-08
7.76864e-08
7.75798e-08
7.74285e-08
7.74298e-08
7.74291e-08
7.74291e-08
7.74298e-08
7.74285e-08
7.76361e-08
7.77057e-08
7.7678e-08
7.75834e-08
7.74285e-08
7.74298e-08
7.74291e-08
7.74291e-08
7.74298e-08
7.74285e-08
7.7634e-08
7.76017e-08
7.75812e-08
7.74281e-08
7.74309e-08
7.74298e-08
7.74298e-08
7.74309e-08
7.74281e-08
7.76356e-08
7.77095e-08
7.77063e-08
7.75995e-08
7.74281e-08
7.74285e-08
7.74285e-08
7.74281e-08
7.76224e-08
7.76166e-08
7.77095e-08
7.76825e-08
7.75988e-08
7.76367e-08
7.76361e-08
7.7634e-08
7.76357e-08
7.76171e-08
7.77166e-08
7.77077e-08
7.77058e-08
7.76018e-08
7.77096e-08
7.77097e-08
7.65651e-08
7.65567e-08
7.6564e-08
7.64627e-08
7.64585e-08
7.64621e-08
7.646e-08
7.65851e-08
7.65613e-08
7.65637e-08
7.64562e-08
7.63067e-08
7.63071e-08
7.63071e-08
7.63067e-08
7.64783e-08
7.64763e-08
7.64625e-08
7.63066e-08
7.63095e-08
7.63084e-08
7.63084e-08
7.63095e-08
7.63066e-08
7.6515e-08
7.65861e-08
7.6565e-08
7.64584e-08
7.6307e-08
7.63084e-08
7.63077e-08
7.63077e-08
7.63084e-08
7.6307e-08
7.65146e-08
7.65842e-08
7.65566e-08
7.64621e-08
7.6307e-08
7.63084e-08
7.63077e-08
7.63077e-08
7.63083e-08
7.6307e-08
7.65125e-08
7.64802e-08
7.64599e-08
7.63067e-08
7.63095e-08
7.63083e-08
7.63083e-08
7.63095e-08
7.63066e-08
7.65141e-08
7.6588e-08
7.65851e-08
7.64782e-08
7.63066e-08
7.6307e-08
7.6307e-08
7.63066e-08
7.65009e-08
7.64952e-08
7.6588e-08
7.65613e-08
7.64763e-08
7.6515e-08
7.65146e-08
7.65126e-08
7.65142e-08
7.64956e-08
7.65951e-08
7.65862e-08
7.65842e-08
7.64803e-08
7.65881e-08
7.65882e-08
7.54437e-08
7.54353e-08
7.54425e-08
7.53413e-08
7.53371e-08
7.53407e-08
7.53385e-08
7.54637e-08
7.54399e-08
7.54423e-08
7.53347e-08
7.51852e-08
7.51857e-08
7.51856e-08
7.51852e-08
7.53568e-08
7.53549e-08
7.53411e-08
7.51852e-08
7.51881e-08
7.51869e-08
7.51869e-08
7.51881e-08
7.51852e-08
7.53936e-08
7.54647e-08
7.54436e-08
7.53369e-08
7.51856e-08
7.51869e-08
7.51863e-08
7.51863e-08
7.51869e-08
7.51856e-08
7.53932e-08
7.54628e-08
7.54352e-08
7.53406e-08
7.51856e-08
7.51869e-08
7.51863e-08
7.51863e-08
7.51869e-08
7.51856e-08
7.53911e-08
7.53589e-08
7.53385e-08
7.51852e-08
7.5188e-08
7.51869e-08
7.51869e-08
7.5188e-08
7.51852e-08
7.53928e-08
7.54667e-08
7.54637e-08
7.53568e-08
7.51852e-08
7.51856e-08
7.51856e-08
7.51852e-08
7.53795e-08
7.53742e-08
7.54668e-08
7.54398e-08
7.53549e-08
7.53935e-08
7.53931e-08
7.53911e-08
7.53927e-08
7.53737e-08
7.54737e-08
7.54647e-08
7.54628e-08
7.53588e-08
7.54666e-08
7.54666e-08
7.43222e-08
7.43138e-08
7.43211e-08
7.42198e-08
7.42156e-08
7.42192e-08
7.4217e-08
7.4342e-08
7.43183e-08
7.43208e-08
7.42133e-08
7.40638e-08
7.40642e-08
7.40642e-08
7.40638e-08
7.42353e-08
7.42346e-08
7.42196e-08
7.40638e-08
7.40666e-08
7.40655e-08
7.40655e-08
7.40666e-08
7.40638e-08
7.42724e-08
7.43435e-08
7.43222e-08
7.42155e-08
7.40642e-08
7.40655e-08
7.40648e-08
7.40648e-08
7.40655e-08
7.40642e-08
7.42718e-08
7.43415e-08
7.43138e-08
7.42192e-08
7.40642e-08
7.40655e-08
7.40648e-08
7.40648e-08
7.40655e-08
7.40642e-08
7.42697e-08
7.42375e-08
7.4217e-08
7.40638e-08
7.40666e-08
7.40655e-08
7.40655e-08
7.40666e-08
7.40638e-08
7.42714e-08
7.43453e-08
7.43422e-08
7.42354e-08
7.40638e-08
7.40642e-08
7.40642e-08
7.40638e-08
7.42581e-08
7.42528e-08
7.43454e-08
7.43184e-08
7.42335e-08
7.42721e-08
7.42717e-08
7.42696e-08
7.42713e-08
7.42523e-08
7.43522e-08
7.43433e-08
7.43413e-08
7.42374e-08
7.43452e-08
7.43452e-08
7.32007e-08
7.31923e-08
7.31994e-08
7.30982e-08
7.3094e-08
7.30977e-08
7.30955e-08
7.32206e-08
7.31968e-08
7.31996e-08
7.30919e-08
7.29423e-08
7.29427e-08
7.29427e-08
7.29423e-08
7.31138e-08
7.31131e-08
7.30984e-08
7.29424e-08
7.29452e-08
7.2944e-08
7.2944e-08
7.29452e-08
7.29424e-08
7.31509e-08
7.3222e-08
7.32008e-08
7.30941e-08
7.29428e-08
7.29441e-08
7.29434e-08
7.29434e-08
7.29441e-08
7.29428e-08
7.31504e-08
7.322e-08
7.31923e-08
7.30978e-08
7.29427e-08
7.29441e-08
7.29434e-08
7.29434e-08
7.29441e-08
7.29428e-08
7.31483e-08
7.3116e-08
7.30955e-08
7.29423e-08
7.29452e-08
7.29441e-08
7.29441e-08
7.29452e-08
7.29423e-08
7.31499e-08
7.32238e-08
7.32206e-08
7.31138e-08
7.29424e-08
7.29428e-08
7.29428e-08
7.29424e-08
7.31367e-08
7.31309e-08
7.32238e-08
7.31968e-08
7.31131e-08
7.31509e-08
7.31504e-08
7.31483e-08
7.315e-08
7.31314e-08
7.32308e-08
7.3222e-08
7.322e-08
7.3116e-08
7.32239e-08
7.3224e-08
7.20793e-08
7.20708e-08
7.20779e-08
7.19768e-08
7.19726e-08
7.19763e-08
7.19741e-08
7.20991e-08
7.20754e-08
7.20782e-08
7.19704e-08
7.18209e-08
7.18213e-08
7.18213e-08
7.18209e-08
7.19924e-08
7.19917e-08
7.19769e-08
7.18209e-08
7.18238e-08
7.18226e-08
7.18226e-08
7.18238e-08
7.18209e-08
7.20295e-08
7.21006e-08
7.20793e-08
7.19727e-08
7.18213e-08
7.18226e-08
7.1822e-08
7.1822e-08
7.18226e-08
7.18213e-08
7.20289e-08
7.20986e-08
7.20709e-08
7.19763e-08
7.18213e-08
7.18226e-08
7.1822e-08
7.1822e-08
7.18226e-08
7.18213e-08
7.20268e-08
7.19945e-08
7.19741e-08
7.18209e-08
7.18238e-08
7.18226e-08
7.18226e-08
7.18238e-08
7.18209e-08
7.20284e-08
7.21023e-08
7.20991e-08
7.19924e-08
7.18209e-08
7.18213e-08
7.18213e-08
7.18209e-08
7.20152e-08
7.20095e-08
7.21023e-08
7.20754e-08
7.19917e-08
7.20295e-08
7.20289e-08
7.20269e-08
7.20285e-08
7.20099e-08
7.21094e-08
7.21006e-08
7.20986e-08
7.19946e-08
7.21024e-08
7.21025e-08
7.0958e-08
7.09495e-08
7.09568e-08
7.08555e-08
7.08513e-08
7.0855e-08
7.08528e-08
7.09779e-08
7.09541e-08
7.09565e-08
7.0849e-08
7.06995e-08
7.06999e-08
7.06999e-08
7.06995e-08
7.08711e-08
7.08692e-08
7.08554e-08
7.06995e-08
7.07023e-08
7.07012e-08
7.07012e-08
7.07023e-08
7.06995e-08
7.09079e-08
7.0979e-08
7.09579e-08
7.08512e-08
7.06999e-08
7.07012e-08
7.07006e-08
7.07006e-08
7.07012e-08
7.06999e-08
7.09075e-08
7.09771e-08
7.09495e-08
7.08549e-08
7.06999e-08
7.07012e-08
7.07005e-08
7.07006e-08
7.07012e-08
7.06999e-08
7.09054e-08
7.08731e-08
7.08528e-08
7.06995e-08
7.07023e-08
7.07012e-08
7.07012e-08
7.07023e-08
7.06995e-08
7.09071e-08
7.0981e-08
7.09779e-08
7.08711e-08
7.06994e-08
7.06999e-08
7.06999e-08
7.06995e-08
7.08938e-08