/*--------------------------------*- C++ -*----------------------------------*\
| =========                 |                                                 |
| \\      /  F ield         | OpenFOAM: The Open Source CFD Toolbox           |
|  \\    /   O peration     | Version:  2312                                  |
|   \\  /    A nd           | Website:  www.openfoam.com                      |
|    \\/     M anipulation  |                                                 |
\*---------------------------------------------------------------------------*/
FoamFile
{
    version     2.0;
    format      ascii;
    arch        "LSB;label=32;scalar=64";
    class       volScalarField;
    location    "375";
    object      k;
}
// * * * * * * * * * * * * * * * * * * * * * * * * * * * * * * * * * * * * * //

dimensions      [0 2 -2 0 0 0 0];

internalField   nonuniform List<scalar> 
43208
(
3.95039e-05
5.18278e-05
5.18295e-05
5.38706e-05
3.96126e-05
5.18481e-05
5.18522e-05
5.38962e-05
4.01688e-05
5.2242e-05
5.22453e-05
5.42196e-05
4.04056e-05
5.22947e-05
5.22951e-05
5.42228e-05
4.06783e-05
5.2438e-05
5.24441e-05
5.44264e-05
4.07486e-05
5.23423e-05
5.23471e-05
5.40693e-05
4.16312e-05
5.34198e-05
5.34201e-05
5.56655e-05
4.10756e-05
5.1576e-05
5.15891e-05
5.30616e-05
4.01515e-05
5.0916e-05
5.09147e-05
5.24132e-05
4.44169e-05
5.72794e-05
5.7282e-05
5.98307e-05
4.58497e-05
5.68239e-05
5.68319e-05
5.78562e-05
3.79967e-05
4.61179e-05
4.61203e-05
4.71139e-05
3.43907e-05
4.46278e-05
4.46317e-05
4.68454e-05
4.16122e-05
5.5509e-05
5.55153e-05
5.7796e-05
5.08036e-05
6.17555e-05
6.17578e-05
6.38205e-05
5.14987e-05
6.04545e-05
6.04545e-05
6.12795e-05
4.30285e-05
5.14278e-05
5.14303e-05
5.29381e-05
3.69617e-05
4.703e-05
4.70336e-05
4.89549e-05
3.55097e-05
4.64723e-05
4.64759e-05
4.88108e-05
3.70179e-05
4.80053e-05
4.80078e-05
5.03205e-05
4.02708e-05
4.69454e-05
4.69478e-05
5.05731e-05
5.38546e-05
5.18171e-05
5.1812e-05
5.38531e-05
5.18141e-05
5.18128e-05
5.18149e-05
5.18149e-05
5.38523e-05
5.18167e-05
5.18131e-05
5.38532e-05
5.38723e-05
5.38355e-05
5.1831e-05
5.18255e-05
5.18295e-05
5.18236e-05
5.38703e-05
5.3832e-05
5.18279e-05
5.18257e-05
5.18264e-05
5.18248e-05
5.1828e-05
5.18263e-05
5.18267e-05
5.38695e-05
5.38362e-05
5.18264e-05
5.18288e-05
5.18251e-05
5.38339e-05
5.38963e-05
5.41891e-05
5.18497e-05
5.1844e-05
5.21887e-05
5.2184e-05
5.38944e-05
5.41894e-05
5.18471e-05
5.18481e-05
5.21871e-05
5.21908e-05
5.18488e-05
5.21901e-05
5.2191e-05
5.39008e-05
5.41921e-05
5.18466e-05
5.2195e-05
5.21885e-05
5.41912e-05
5.42183e-05
5.41796e-05
5.22426e-05
5.22377e-05
5.22748e-05
5.22696e-05
5.42179e-05
5.41766e-05
5.22405e-05
5.22412e-05
5.2272e-05
5.22697e-05
5.22429e-05
5.22724e-05
5.22723e-05
5.42194e-05
5.41741e-05
5.22409e-05
5.22737e-05
5.22708e-05
5.41758e-05
5.42276e-05
5.44275e-05
5.22968e-05
5.22918e-05
5.24459e-05
5.24403e-05
5.42255e-05
5.44268e-05
5.22936e-05
5.22911e-05
5.24439e-05
5.24469e-05
5.22932e-05
5.24459e-05
5.24464e-05
5.42233e-05
5.44342e-05
5.22914e-05
5.24512e-05
5.24439e-05
5.44286e-05
5.44244e-05
5.40394e-05
5.24383e-05
5.24324e-05
5.23183e-05
5.23118e-05
5.44228e-05
5.40346e-05
5.24365e-05
5.24398e-05
5.2317e-05
5.23181e-05
5.24393e-05
5.23164e-05
5.23196e-05
5.44313e-05
5.40394e-05
5.24371e-05
5.23227e-05
5.23184e-05
5.40412e-05
5.40686e-05
5.55533e-05
5.23438e-05
5.23378e-05
5.32935e-05
5.32911e-05
5.40647e-05
5.55565e-05
5.23423e-05
5.23427e-05
5.32903e-05
5.32893e-05
5.23444e-05
5.3295e-05
5.32903e-05
5.40675e-05
5.55513e-05
5.23429e-05
5.32924e-05
5.32871e-05
5.55487e-05
5.56691e-05
5.36056e-05
5.34191e-05
5.34162e-05
5.25662e-05
5.25583e-05
5.56714e-05
5.35972e-05
5.34162e-05
5.34166e-05
5.25654e-05
5.25707e-05
5.34168e-05
5.25618e-05
5.25688e-05
5.56688e-05
5.36151e-05
5.34144e-05
5.25785e-05
5.2572e-05
5.36121e-05
5.30553e-05
5.18787e-05
5.15793e-05
5.15712e-05
5.06854e-05
5.06784e-05
5.30477e-05
5.18771e-05
5.15784e-05
5.15814e-05
5.06835e-05
5.06818e-05
5.15813e-05
5.06844e-05
5.0685e-05
5.30628e-05
5.1873e-05
5.15833e-05
5.06865e-05
5.06823e-05
5.18745e-05
5.24228e-05
5.91521e-05
5.09166e-05
5.09103e-05
5.60785e-05
5.60756e-05
5.24243e-05
5.91523e-05
5.09141e-05
5.09114e-05
5.60745e-05
5.6075e-05
5.09152e-05
5.60779e-05
5.60763e-05
5.24112e-05
5.9152e-05
5.09108e-05
5.60758e-05
5.60708e-05
5.91505e-05
5.98319e-05
5.92076e-05
5.72806e-05
5.72779e-05
5.77733e-05
5.77713e-05
5.98322e-05
5.92094e-05
5.72771e-05
5.728e-05
5.77711e-05
5.7776e-05
5.72798e-05
5.77744e-05
5.77746e-05
5.9834e-05
5.92182e-05
5.72767e-05
5.77812e-05
5.77745e-05
5.9213e-05
5.78488e-05
4.80084e-05
5.682e-05
5.6818e-05
4.80243e-05
4.80191e-05
5.7851e-05
4.80064e-05
5.68192e-05
5.68239e-05
4.80249e-05
4.80224e-05
5.68226e-05
4.80277e-05
4.80239e-05
5.78589e-05
4.80071e-05
5.68247e-05
4.8031e-05
4.80258e-05
4.80064e-05
4.71156e-05
4.59505e-05
4.61163e-05
4.61099e-05
4.44003e-05
4.43923e-05
4.71129e-05
4.59432e-05
4.61162e-05
4.61124e-05
4.43987e-05
4.43951e-05
4.61142e-05
4.43958e-05
4.43961e-05
4.71128e-05
4.59451e-05
4.61148e-05
4.43989e-05
4.43946e-05
4.59434e-05
4.68519e-05
5.62668e-05
4.4634e-05
4.46258e-05
5.25696e-05
5.25633e-05
4.68435e-05
5.62622e-05
4.46316e-05
4.4629e-05
5.25645e-05
5.25693e-05
4.46296e-05
5.25608e-05
5.25683e-05
4.68473e-05
5.62682e-05
4.46274e-05
5.25683e-05
5.25634e-05
5.62667e-05
5.77977e-05
6.34415e-05
5.55153e-05
5.55104e-05
6.10175e-05
6.10154e-05
5.77946e-05
6.34436e-05
5.5511e-05
5.55157e-05
6.10149e-05
6.10189e-05
5.55156e-05
6.10197e-05
6.10202e-05
5.77997e-05
6.34458e-05
5.55114e-05
6.10228e-05
6.10174e-05
6.34441e-05
6.38186e-05
6.23803e-05
6.17524e-05
6.17507e-05
6.17174e-05
6.17157e-05
6.38212e-05
6.23829e-05
6.17502e-05
6.17538e-05
6.17162e-05
6.17179e-05
6.17553e-05
6.17223e-05
6.17196e-05
6.38228e-05
6.23825e-05
6.17527e-05
6.17235e-05
6.17181e-05
6.2381e-05
6.12775e-05
5.38363e-05
6.04481e-05
6.04459e-05
5.33302e-05
5.33254e-05
6.12798e-05
5.38344e-05
6.04482e-05
6.04469e-05
5.333e-05
5.3327e-05
6.04489e-05
5.33319e-05
5.33293e-05
6.1279e-05
5.38354e-05
6.04489e-05
5.33339e-05
5.333e-05
5.38356e-05
5.29375e-05
4.9164e-05
5.14263e-05
5.14211e-05
4.76551e-05
4.76497e-05
5.29355e-05
4.91611e-05
5.14258e-05
5.14229e-05
4.76533e-05
4.76521e-05
5.14253e-05
4.76539e-05
4.76539e-05
5.29364e-05
4.91633e-05
5.14258e-05
4.76573e-05
4.76532e-05
4.91629e-05
4.89557e-05
4.86316e-05
4.70311e-05
4.70259e-05
4.64381e-05
4.64334e-05
4.8953e-05
4.86297e-05
4.70291e-05
4.70285e-05
4.64357e-05
4.64364e-05
4.703e-05
4.64366e-05
4.64374e-05
4.89552e-05
4.86324e-05
4.70289e-05
4.64403e-05
4.64355e-05
4.86309e-05
4.88115e-05
5.01052e-05
4.64738e-05
4.64692e-05
4.76059e-05
4.76023e-05
4.88098e-05
5.01044e-05
4.64712e-05
4.64723e-05
4.76034e-05
4.7605e-05
4.64732e-05
4.76053e-05
4.76059e-05
4.88124e-05
5.01063e-05
4.64711e-05
4.76081e-05
4.76033e-05
5.01054e-05
5.03211e-05
5.07195e-05
4.80054e-05
4.80017e-05
4.74063e-05
4.74024e-05
5.03202e-05
5.07181e-05
4.80036e-05
4.80044e-05
4.74065e-05
4.7405e-05
4.80054e-05
4.74075e-05
4.74056e-05
5.03219e-05
5.07198e-05
4.80035e-05
4.74097e-05
4.74058e-05
5.07188e-05
5.05738e-05
4.69442e-05
4.69403e-05
5.05723e-05
4.69444e-05
4.69429e-05
4.02699e-05
4.02726e-05
4.02714e-05
4.69438e-05
5.05742e-05
4.69442e-05
6.86783e-05
7.34725e-05
7.12118e-05
7.34742e-05
3.94105e-05
3.94094e-05
3.94134e-05
3.9413e-05
6.08001e-05
5.16838e-05
6.49316e-05
4.69614e-05
6.86018e-05
7.34787e-05
6.86419e-05
7.35147e-05
7.12306e-05
7.12726e-05
6.86015e-05
7.34805e-05
6.86406e-05
7.35162e-05
3.95023e-05
3.95047e-05
3.95052e-05
3.95853e-05
3.95832e-05
3.95846e-05
3.95856e-05
6.07658e-05
6.48556e-05
4.7212e-05
5.18276e-05
6.08005e-05
6.48304e-05
4.72265e-05
7.12323e-05
7.12743e-05
6.07676e-05
4.72146e-05
6.48576e-05
5.18294e-05
6.08021e-05
4.72291e-05
6.48328e-05
6.99301e-05
6.99391e-05
5.3827e-05
6.99301e-05
6.9938e-05
6.8801e-05
7.35872e-05
6.86938e-05
7.3602e-05
7.13187e-05
7.13286e-05
6.88005e-05
7.35888e-05
6.8694e-05
7.36037e-05
3.96108e-05
3.96147e-05
3.96142e-05
4.00181e-05
4.00172e-05
4.00281e-05
4.00238e-05
6.09609e-05
6.4992e-05
4.72472e-05
5.1942e-05
6.08026e-05
6.50805e-05
4.73104e-05
7.132e-05
7.13291e-05
6.09586e-05
4.72503e-05
6.49911e-05
5.19499e-05
6.07992e-05
4.73143e-05
6.50799e-05
7.0137e-05
7.01443e-05
5.40344e-05
7.0175e-05
7.01833e-05
6.87249e-05
7.35927e-05
6.87956e-05
7.36135e-05
7.13313e-05
7.13692e-05
6.87219e-05
7.35942e-05
6.87936e-05
7.36148e-05
4.01679e-05
4.0176e-05
4.01732e-05
4.03838e-05
4.03833e-05
4.03841e-05
4.03854e-05
6.09765e-05
6.50139e-05
4.7713e-05
5.22604e-05
6.10199e-05
6.49508e-05
4.77657e-05
7.13314e-05
7.13699e-05
6.09805e-05
4.77164e-05
6.50156e-05
5.22628e-05
6.10217e-05
4.77686e-05
6.49508e-05
7.00342e-05
7.00443e-05
5.41891e-05
6.99966e-05
7.00064e-05
6.88886e-05
7.36943e-05
6.87643e-05
7.37035e-05
7.14264e-05
7.14267e-05
6.88888e-05
7.36959e-05
6.87619e-05
7.37055e-05
4.04052e-05
4.04058e-05
4.04069e-05
4.06143e-05
4.06128e-05
4.06188e-05
4.06166e-05
6.10999e-05
6.5089e-05
4.7806e-05
5.2366e-05
6.09525e-05
6.52214e-05
4.78395e-05
7.14295e-05
7.14295e-05
6.10932e-05
4.78081e-05
6.50839e-05
5.23661e-05
6.09508e-05
4.78403e-05
6.52196e-05
7.02505e-05
7.02575e-05
5.43378e-05
7.03406e-05
7.03477e-05
6.84971e-05
7.36121e-05
6.87751e-05
7.36205e-05
7.13748e-05
7.14298e-05
6.84989e-05
7.36142e-05
6.87786e-05
7.36222e-05
4.06762e-05
4.06841e-05
4.06813e-05
4.07236e-05
4.07211e-05
4.07299e-05
4.07273e-05
6.08264e-05
6.50162e-05
4.80002e-05
5.2388e-05
6.11165e-05
6.47121e-05
4.79966e-05
7.1376e-05
7.14289e-05
6.08371e-05
4.80043e-05
6.50276e-05
5.23959e-05
6.1117e-05
4.80012e-05
6.4722e-05
6.99556e-05
6.99655e-05
5.41783e-05
6.96985e-05
6.9708e-05
6.94521e-05
7.39626e-05
6.85989e-05
7.41071e-05
7.16633e-05
7.17148e-05
6.94461e-05
7.39635e-05
6.85929e-05
7.41086e-05
4.07464e-05
4.07544e-05
4.07521e-05
4.14478e-05
4.14486e-05
4.145e-05
4.14496e-05
6.14776e-05
6.48776e-05
4.79771e-05
5.25113e-05
6.06959e-05
6.57887e-05
4.80595e-05
7.16622e-05
7.17148e-05
6.14611e-05
4.79818e-05
6.4862e-05
5.25098e-05
6.06996e-05
4.80616e-05
6.57717e-05
7.02624e-05
7.02675e-05
5.46045e-05
7.10694e-05
7.10761e-05
6.89114e-05
7.373e-05
7.00273e-05
7.32145e-05
7.13782e-05
7.11158e-05
6.89182e-05
7.37329e-05
7.00251e-05
7.32171e-05
4.16316e-05
4.16345e-05
4.16335e-05
4.15357e-05
4.15346e-05
4.15406e-05
4.15391e-05
6.19816e-05
6.63835e-05
4.88808e-05
5.34146e-05
6.23919e-05
6.53131e-05
4.89069e-05
7.13822e-05
7.11168e-05
6.20041e-05
4.88816e-05
6.63809e-05
5.34164e-05
6.2386e-05
4.89089e-05
6.53417e-05
7.13446e-05
7.13571e-05
5.55963e-05
6.97585e-05
6.97747e-05
6.59098e-05
7.2998e-05
6.62792e-05
7.36055e-05
7.11909e-05
7.16674e-05
6.59084e-05
7.29994e-05
6.62807e-05
7.36061e-05
4.10728e-05
4.10815e-05
4.10798e-05
4.01391e-05
4.01369e-05
4.01419e-05
4.01412e-05
5.79476e-05
6.26527e-05
4.76909e-05
5.0948e-05
5.87968e-05
6.22004e-05
4.70649e-05
7.11905e-05
7.16637e-05
5.79451e-05
4.77026e-05
6.26618e-05
5.09556e-05
5.88109e-05
4.70715e-05
6.21962e-05
6.76388e-05
6.76468e-05
5.19331e-05
6.75445e-05
6.75481e-05
7.19036e-05
7.50944e-05
6.92853e-05
7.56144e-05
7.25022e-05
7.26948e-05
7.19005e-05
7.50955e-05
6.928e-05
7.56158e-05
4.01493e-05
4.01539e-05
4.01534e-05
4.29473e-05
4.29477e-05
4.2948e-05
4.29471e-05
6.35844e-05
6.51902e-05
4.68057e-05
5.19913e-05
6.03521e-05
6.78313e-05
4.73827e-05
7.2502e-05
7.26949e-05
6.35712e-05
4.6805e-05
6.51708e-05
5.19802e-05
6.03224e-05
4.73767e-05
6.78239e-05
7.10201e-05
7.10238e-05
5.53064e-05
7.32224e-05
7.32294e-05
7.33579e-05
7.51384e-05
7.41944e-05
7.3967e-05
7.21404e-05
7.13761e-05
7.33594e-05
7.51405e-05
7.41935e-05
7.39693e-05
4.44179e-05
4.44207e-05
4.4419e-05
4.59806e-05
4.59813e-05
4.59873e-05
4.59848e-05
6.7152e-05
7.04052e-05
5.23806e-05
5.78522e-05
6.70492e-05
7.0163e-05
5.30794e-05
7.21426e-05
7.13759e-05
6.71643e-05
5.23824e-05
7.04125e-05
5.78575e-05
6.70568e-05
5.30843e-05
7.01748e-05
7.49917e-05
7.5002e-05
6.05951e-05
7.38283e-05
7.38412e-05
6.4107e-05
7.20341e-05
6.72826e-05
7.15309e-05
7.03146e-05
7.01529e-05
6.41076e-05
7.20363e-05
6.72835e-05
7.15328e-05
4.58506e-05
4.58567e-05
4.58542e-05
4.02849e-05
4.02847e-05
4.02903e-05
4.02888e-05
5.70494e-05
6.44744e-05
5.26805e-05
5.39859e-05
6.13084e-05
6.10668e-05
5.07518e-05
7.03144e-05
7.01517e-05
5.70484e-05
5.26876e-05
6.44774e-05
5.39942e-05
6.13136e-05
5.07594e-05
6.10651e-05
6.86401e-05
6.86514e-05
5.33668e-05
6.60153e-05
6.60254e-05
6.22243e-05
7.18816e-05
6.17942e-05
7.27224e-05
7.0605e-05
7.1269e-05
6.22232e-05
7.1883e-05
6.17937e-05
7.27234e-05
3.79943e-05
3.79993e-05
3.7998e-05
3.45247e-05
3.45207e-05
3.45257e-05
3.45243e-05
5.25096e-05
5.81448e-05
4.27491e-05
4.49674e-05
5.28368e-05
5.8108e-05
4.14072e-05
7.0606e-05
7.12676e-05
5.25075e-05
4.27517e-05
5.81418e-05
4.49697e-05
5.28332e-05
4.14095e-05
5.8107e-05
6.42033e-05
6.42116e-05
4.56893e-05
6.4692e-05
6.46989e-05
6.87032e-05
7.4509e-05
6.59427e-05
7.55545e-05
7.24217e-05
7.30757e-05
6.87018e-05
7.45098e-05
6.5941e-05
7.55553e-05
3.43862e-05
3.43915e-05
3.43901e-05
3.78777e-05
3.78728e-05
3.78826e-05
3.78799e-05
5.95559e-05
6.15935e-05
4.06375e-05
4.58654e-05
5.61589e-05
6.43924e-05
4.12982e-05
7.24229e-05
7.30747e-05
5.95592e-05
4.06408e-05
6.15971e-05
4.58721e-05
5.61616e-05
4.13027e-05
6.43966e-05
6.78817e-05
6.78881e-05
5.02985e-05
7.01946e-05
7.02008e-05
7.46543e-05
7.67416e-05
7.2897e-05
7.69607e-05
7.36956e-05
7.37588e-05
7.4653e-05
7.67428e-05
7.28954e-05
7.69623e-05
4.16106e-05
4.16194e-05
4.16171e-05
4.9467e-05
4.94682e-05
4.94737e-05
4.94725e-05
6.75996e-05
6.88757e-05
5.0542e-05
5.79199e-05
6.51445e-05
7.08275e-05
5.31565e-05
7.36956e-05
7.37583e-05
6.75987e-05
5.05473e-05
6.88776e-05
5.79248e-05
6.51453e-05
5.31605e-05
7.08276e-05
7.38383e-05
7.3845e-05
6.08606e-05
7.54041e-05
7.54113e-05
7.44475e-05
7.631e-05
7.55683e-05
7.54447e-05
7.31565e-05
7.25924e-05
7.44474e-05
7.63122e-05
7.55673e-05
7.5447e-05
5.08059e-05
5.08107e-05
5.08096e-05
5.18158e-05
5.18179e-05
5.18215e-05
5.18206e-05
6.90185e-05
7.21582e-05
5.74362e-05
6.20342e-05
6.93912e-05
7.14477e-05
5.7799e-05
7.31559e-05
7.25909e-05
6.90153e-05
5.74379e-05
7.21561e-05
6.20361e-05
6.93883e-05
5.78003e-05
7.14446e-05
7.62643e-05
7.62726e-05
6.40901e-05
7.51495e-05
7.51591e-05
6.88788e-05
7.3902e-05
7.09544e-05
7.32402e-05
7.15633e-05
7.1203e-05
6.88783e-05
7.39041e-05
7.09537e-05
7.32421e-05
5.15005e-05
5.15037e-05
5.15029e-05
4.5288e-05
4.52874e-05
4.52901e-05
4.52897e-05
6.22249e-05
6.79828e-05
5.68284e-05
5.79564e-05
6.50429e-05
6.5602e-05
5.45896e-05
7.15634e-05
7.12028e-05
6.22256e-05
5.68292e-05
6.79817e-05
5.79569e-05
6.50419e-05
5.45904e-05
6.56022e-05
7.21953e-05
7.22059e-05
5.80147e-05
7.02757e-05
7.02861e-05
6.54388e-05
7.25944e-05
6.62857e-05
7.25155e-05
7.08361e-05
7.08304e-05
6.54378e-05
7.25959e-05
6.62844e-05
7.25169e-05
4.30263e-05
4.30295e-05
4.3029e-05
3.79741e-05
3.79721e-05
3.79765e-05
3.79756e-05
5.69209e-05
6.28219e-05
4.77503e-05
4.98291e-05
5.83618e-05
6.16781e-05
4.60331e-05
7.08355e-05
7.08298e-05
5.69222e-05
4.77531e-05
6.28228e-05
4.9832e-05
5.83631e-05
4.60362e-05
6.16791e-05
6.82249e-05
6.82345e-05
5.08459e-05
6.74206e-05
6.74294e-05
6.51371e-05
7.26327e-05
6.497e-05
7.28538e-05
7.09474e-05
7.11361e-05
6.51362e-05
7.26341e-05
6.4969e-05
7.28552e-05
3.69593e-05
3.69639e-05
3.6963e-05
3.55656e-05
3.55643e-05
3.55691e-05
3.55677e-05
5.57638e-05
6.11123e-05
4.29813e-05
4.66461e-05
5.58344e-05
6.11254e-05
4.25308e-05
7.09473e-05
7.11362e-05
5.57646e-05
4.29846e-05
6.11133e-05
4.66498e-05
5.58353e-05
4.2534e-05
6.11265e-05
6.71607e-05
6.71689e-05
4.85688e-05
6.72583e-05
6.72663e-05
6.61757e-05
7.31707e-05
6.57432e-05
7.33862e-05
7.1363e-05
7.15316e-05
6.61746e-05
7.31721e-05
6.57423e-05
7.33877e-05
3.55085e-05
3.55132e-05
3.55118e-05
3.63773e-05
3.63777e-05
3.63814e-05
3.63803e-05
5.68075e-05
6.17788e-05
4.22363e-05
4.66723e-05
5.63826e-05
6.20948e-05
4.23399e-05
7.13626e-05
7.1531e-05
5.6808e-05
4.22393e-05
6.17797e-05
4.66757e-05
5.63832e-05
4.23426e-05
6.20953e-05
6.78763e-05
6.78846e-05
4.9294e-05
6.81391e-05
6.81474e-05
6.67527e-05
7.35246e-05
6.65924e-05
7.36511e-05
7.1631e-05
7.17516e-05
6.67522e-05
7.35261e-05
6.65915e-05
7.36525e-05
3.70179e-05
3.70216e-05
3.70204e-05
3.98572e-05
3.98562e-05
3.98592e-05
3.9858e-05
5.76527e-05
6.26896e-05
4.37083e-05
4.8194e-05
5.75113e-05
6.26622e-05
4.39215e-05
7.16301e-05
7.1751e-05
5.76516e-05
4.37102e-05
6.26891e-05
4.81966e-05
5.75107e-05
4.39234e-05
6.26615e-05
6.85766e-05
6.8585e-05
5.06121e-05
6.85976e-05
6.8606e-05
6.28413e-05
7.33361e-05
6.65995e-05
7.42694e-05
7.15794e-05
6.56999e-05
6.28411e-05
7.33374e-05
6.65989e-05
7.42706e-05
2.79363e-05
3.4418e-05
3.44181e-05
4.10038e-05
2.70471e-05
3.51191e-05
3.51195e-05
5.77602e-05
6.26857e-05
4.23412e-05
4.62148e-05
5.76445e-05
6.46461e-05
4.1384e-05
7.15788e-05
6.56988e-05
5.77595e-05
4.23429e-05
6.26853e-05
4.62175e-05
5.76435e-05
4.13857e-05
6.46461e-05
6.82578e-05
6.82658e-05
5.01779e-05
6.92383e-05
6.92454e-05
7.12108e-05
7.12139e-05
5.37831e-05
7.00371e-05
7.00454e-05
7.1226e-05
7.12097e-05
7.1229e-05
7.12129e-05
5.3838e-05
6.99502e-05
6.99588e-05
7.00189e-05
7.00278e-05
6.86768e-05
7.3469e-05
6.08013e-05
5.16829e-05
6.4931e-05
4.69587e-05
6.07996e-05
5.16784e-05
6.49277e-05
4.69564e-05
6.86771e-05
7.34756e-05
7.34721e-05
6.86649e-05
6.86755e-05
7.34718e-05
7.34687e-05
6.86633e-05
6.08068e-05
5.17707e-05
6.48872e-05
4.71689e-05
6.49286e-05
4.70822e-05
6.08124e-05
6.08052e-05
5.17661e-05
6.48814e-05
4.71666e-05
6.49254e-05
4.70799e-05
6.08107e-05
5.37827e-05
7.0037e-05
7.00387e-05
7.12114e-05
7.12267e-05
7.12104e-05
5.38373e-05
6.99472e-05
6.99479e-05
7.00181e-05
7.00191e-05
7.12267e-05
7.12103e-05
5.16805e-05
6.49325e-05
6.86747e-05
7.34774e-05
7.34739e-05
6.86629e-05
6.08048e-05
5.1768e-05
6.48898e-05
4.71673e-05
6.49301e-05
4.70816e-05
6.081e-05
6.8673e-05
7.34723e-05
7.34685e-05
6.8661e-05
6.08032e-05
5.17683e-05
4.71674e-05
6.4882e-05
4.70823e-05
6.49243e-05
6.08082e-05
6.86747e-05
7.34706e-05
6.07998e-05
4.6962e-05
6.86751e-05
6.08049e-05
5.177e-05
6.48832e-05
4.71678e-05
6.49286e-05
4.7083e-05
6.08085e-05
6.86735e-05
7.34741e-05
7.347e-05
6.86579e-05
6.08046e-05
5.17699e-05
4.71685e-05
6.4882e-05
4.70838e-05
6.49243e-05
6.08086e-05
6.86737e-05
7.34721e-05
7.34683e-05
6.86596e-05
7.12281e-05
7.12115e-05
5.38369e-05
6.995e-05
6.9947e-05
7.0019e-05
7.00152e-05
7.12268e-05
7.121e-05
6.08053e-05
5.17722e-05
4.71703e-05
6.48847e-05
4.70855e-05
6.4927e-05
6.08098e-05
6.08033e-05
5.17676e-05
4.71682e-05
6.48864e-05
4.7083e-05
6.49271e-05
6.08077e-05
6.8674e-05
7.34759e-05
7.3472e-05
6.86602e-05
6.86715e-05
7.3474e-05
7.34705e-05
6.86568e-05
5.38369e-05
6.9945e-05
6.99544e-05
7.00142e-05
7.00241e-05
7.12266e-05
7.12102e-05
7.12293e-05
7.12133e-05
7.123e-05
7.12713e-05
7.1233e-05
7.12742e-05
6.99353e-05
6.99435e-05
5.38295e-05
6.99349e-05
6.99426e-05
7.13164e-05
7.12788e-05
7.13194e-05
7.12817e-05
5.3839e-05
7.01075e-05
7.01154e-05
6.99653e-05
6.9972e-05
6.85999e-05
7.34748e-05
6.86402e-05
7.35108e-05
6.07702e-05
6.48596e-05
4.72147e-05
5.1831e-05
6.08048e-05
6.48329e-05
4.723e-05
6.07684e-05
6.48543e-05
4.72124e-05
5.18254e-05
6.08031e-05
6.48272e-05
4.72277e-05
6.85962e-05
7.358e-05
7.35264e-05
6.86606e-05
6.85943e-05
7.35768e-05
7.35226e-05
6.86587e-05
6.07532e-05
5.1828e-05
6.49458e-05
4.72349e-05
6.48344e-05
4.72323e-05
6.07709e-05
6.07514e-05
5.18222e-05
6.49415e-05
4.72325e-05
6.48288e-05
4.723e-05
6.07689e-05
6.99329e-05
6.99327e-05
5.38252e-05
6.99325e-05
6.99336e-05
7.12308e-05
7.12731e-05
7.13179e-05
7.128e-05
5.38347e-05
7.01083e-05
7.0113e-05
6.99646e-05
6.99664e-05
7.13181e-05
7.12807e-05
6.07691e-05
6.48617e-05
4.72125e-05
5.18279e-05
6.08026e-05
6.48348e-05
4.72274e-05
6.85999e-05
7.34757e-05
6.86386e-05
7.35127e-05
6.07673e-05
4.7212e-05
6.48546e-05
5.18255e-05
6.08007e-05
4.72267e-05
6.48295e-05
6.85961e-05
7.35816e-05
7.3528e-05
6.86611e-05
6.07528e-05
5.18249e-05
6.49476e-05
4.72326e-05
6.48361e-05
4.72297e-05
6.07714e-05
6.85946e-05
7.3578e-05
7.35248e-05
6.86605e-05
6.07512e-05
5.18227e-05
4.72322e-05
6.49484e-05
4.7229e-05
6.48316e-05
6.07705e-05
6.85976e-05
7.34779e-05
6.86336e-05
7.35167e-05
6.07662e-05
4.72129e-05
6.48545e-05
5.18279e-05
6.08007e-05
4.72274e-05
6.48284e-05
6.85988e-05
7.34753e-05
6.86359e-05
7.35121e-05
6.07506e-05
5.18245e-05
6.49522e-05
4.7232e-05
6.48328e-05
4.72288e-05
6.07747e-05
6.85939e-05
7.35816e-05
7.35292e-05
6.86683e-05
6.07507e-05
5.18249e-05
4.72328e-05
6.49455e-05
4.72297e-05
6.48303e-05
6.07737e-05
6.85946e-05
7.35776e-05
7.35242e-05
6.86665e-05
6.99356e-05
6.99328e-05
5.38259e-05
6.99374e-05
6.99352e-05
7.1231e-05
7.1273e-05
7.1319e-05
7.1282e-05
5.38358e-05
7.01149e-05
7.01124e-05
6.9971e-05
6.99692e-05
7.13175e-05
7.12806e-05
6.07652e-05
4.72129e-05
6.48583e-05
5.18264e-05
6.08001e-05
4.72276e-05
6.48313e-05
6.85983e-05
7.34792e-05
6.86365e-05
7.35161e-05
6.85945e-05
7.34771e-05
6.86327e-05
7.35133e-05
6.07516e-05
5.18266e-05
4.72347e-05
6.49518e-05
4.72315e-05
6.48351e-05
6.07722e-05
6.07491e-05
5.18234e-05
4.7233e-05
6.49457e-05
4.72299e-05
6.48328e-05
6.07693e-05
6.85936e-05
7.35814e-05
7.35282e-05
6.86624e-05
6.85902e-05
7.35789e-05
7.35252e-05
6.86593e-05
7.12306e-05
7.12722e-05
7.12334e-05
7.12747e-05
5.38366e-05
7.01054e-05
7.01124e-05
6.99611e-05
6.99676e-05
7.13173e-05
7.12798e-05
7.13202e-05
7.12823e-05
7.13175e-05
7.13274e-05
7.13206e-05
7.13304e-05
7.01389e-05
7.01468e-05
5.40315e-05
7.01763e-05
7.01849e-05
7.13295e-05
7.13246e-05
7.13323e-05
7.13276e-05
5.41277e-05
7.00737e-05
7.00817e-05
7.01733e-05
7.01819e-05
6.87996e-05
7.35841e-05
6.86921e-05
7.35989e-05
6.09559e-05
6.49853e-05
4.72485e-05
5.19387e-05
6.07965e-05
6.50759e-05
4.73063e-05
6.09543e-05
6.49823e-05
4.72459e-05
5.19335e-05
6.07945e-05
6.50729e-05
4.73036e-05
6.88099e-05
7.35946e-05
7.3601e-05
6.88168e-05
6.88084e-05
7.35911e-05
7.35979e-05
6.88154e-05
6.09798e-05
5.20862e-05
6.50584e-05
4.76097e-05
6.50811e-05
4.74615e-05
6.10256e-05
6.09782e-05
5.20816e-05
6.50537e-05
4.76073e-05
6.50782e-05
4.74588e-05
6.1024e-05
7.01411e-05
7.01445e-05
5.40324e-05
7.01775e-05
7.01813e-05
7.13191e-05
7.13282e-05
7.13305e-05
7.13255e-05
5.41289e-05
7.00708e-05
7.00705e-05
7.01742e-05
7.01775e-05
7.13295e-05
7.13251e-05
6.09565e-05
6.49869e-05
4.72471e-05
5.19375e-05
6.07973e-05
6.50782e-05
4.7308e-05
6.87994e-05
7.35851e-05
6.86934e-05
7.35989e-05
6.0956e-05
4.72474e-05
6.4988e-05
5.19455e-05
6.07966e-05
4.73106e-05
6.50771e-05
6.88091e-05
7.35961e-05
7.36027e-05
6.88154e-05
6.09801e-05
5.20851e-05
6.50609e-05
4.76121e-05
6.50833e-05
4.74656e-05
6.10245e-05
6.88078e-05
7.35899e-05
7.35977e-05
6.88137e-05
6.09794e-05
5.20921e-05
4.76145e-05
6.50547e-05
4.74695e-05
6.50816e-05
6.10231e-05
6.88016e-05
7.35883e-05
6.87015e-05
7.3601e-05
6.09602e-05
4.72481e-05
6.49854e-05
5.19431e-05
6.08011e-05
4.73113e-05
6.50758e-05
6.88021e-05
7.35848e-05
6.86994e-05
7.35988e-05
6.09838e-05
5.20895e-05
6.5056e-05
4.76145e-05
6.50849e-05
4.74694e-05
6.10245e-05
6.88101e-05
7.35915e-05
7.35995e-05
6.88129e-05
6.09831e-05
5.20906e-05
4.76154e-05
6.50556e-05
4.74704e-05
6.50808e-05
6.10245e-05
6.88103e-05
7.35898e-05
7.35976e-05
6.88139e-05
7.01463e-05
7.01434e-05
5.404e-05
7.01825e-05
7.01791e-05
7.13185e-05
7.13276e-05
7.13302e-05
7.13261e-05
5.41351e-05
7.00716e-05
7.00688e-05
7.01787e-05
7.01753e-05
7.13289e-05
7.13246e-05
6.09559e-05
4.7248e-05
6.49854e-05
5.19397e-05
6.07966e-05
4.73104e-05
6.50772e-05
6.87999e-05
7.35884e-05
6.86962e-05
7.36024e-05
6.87966e-05
7.35862e-05
6.86938e-05
7.3601e-05
6.09822e-05
5.20964e-05
4.76183e-05
6.50576e-05
4.74738e-05
6.50844e-05
6.10258e-05
6.09798e-05
5.20875e-05
4.76146e-05
6.50596e-05
4.74691e-05
6.50824e-05
6.10238e-05
6.8809e-05
7.35934e-05
7.36012e-05
6.88148e-05
6.88062e-05
7.35928e-05
7.35999e-05
6.88118e-05
7.13184e-05
7.1328e-05
7.13214e-05
7.13311e-05
5.41309e-05
7.00688e-05
7.00789e-05
7.01719e-05
7.01804e-05
7.13293e-05
7.13251e-05
7.13325e-05
7.13283e-05
7.13306e-05
7.13681e-05
7.13334e-05
7.13709e-05
7.00406e-05
7.00479e-05
5.41913e-05
7.0005e-05
7.00119e-05
7.14248e-05
7.13765e-05
7.14278e-05
7.13794e-05
5.41993e-05
7.01969e-05
7.02045e-05
7.00108e-05
7.00176e-05
6.87234e-05
7.35892e-05
6.87941e-05
7.36099e-05
6.09844e-05
6.50185e-05
4.77111e-05
5.22622e-05
6.10217e-05
6.49561e-05
4.77659e-05
6.09828e-05
6.50137e-05
4.77089e-05
5.22571e-05
6.10201e-05
6.4951e-05
4.77637e-05
6.87078e-05
7.36844e-05
7.36253e-05
6.87271e-05
6.87062e-05
7.3681e-05
7.36216e-05
6.87254e-05
6.09555e-05
5.22677e-05
6.50245e-05
4.77955e-05
6.49502e-05
4.77874e-05
6.0943e-05
6.09538e-05
5.22626e-05
6.50213e-05
4.77933e-05
6.49455e-05
4.77852e-05
6.09413e-05
7.00385e-05
7.00362e-05
5.41879e-05
7.00028e-05
7.00008e-05
7.13307e-05
7.13695e-05
7.14258e-05
7.13775e-05
5.41958e-05
7.01973e-05
7.02026e-05
7.00093e-05
7.00076e-05
7.1427e-05
7.13782e-05
6.09815e-05
6.50205e-05
4.77119e-05
5.22598e-05
6.10204e-05
6.49574e-05
4.77654e-05
6.87195e-05
7.3588e-05
6.87915e-05
7.36094e-05
6.09792e-05
4.77131e-05
6.50124e-05
5.22587e-05
6.10189e-05
4.77657e-05
6.49477e-05
6.87045e-05
7.36859e-05
7.36266e-05
6.87241e-05
6.09518e-05
5.22652e-05
6.50249e-05
4.77938e-05
6.49511e-05
4.77861e-05
6.09391e-05
6.87022e-05
7.36825e-05
7.36218e-05
6.87223e-05
6.09494e-05
5.22633e-05
4.77934e-05
6.50192e-05
4.77858e-05
6.49415e-05
6.09369e-05
6.87151e-05
7.35901e-05
6.87874e-05
7.36135e-05
6.09769e-05
4.7714e-05
6.50136e-05
5.22611e-05
6.10199e-05
4.77666e-05
6.49483e-05
6.87161e-05
7.35878e-05
6.87889e-05
7.36089e-05
6.09467e-05
5.22655e-05
6.50275e-05
4.77935e-05
6.49453e-05
4.77857e-05
6.09367e-05
6.86995e-05
7.36868e-05
7.36263e-05
6.87237e-05
6.09468e-05
5.2266e-05
4.77943e-05
6.50168e-05
4.77867e-05
6.4942e-05
6.09362e-05
6.86997e-05
7.3682e-05
7.36212e-05
6.87235e-05
7.00371e-05
7.00345e-05
5.41862e-05
7.00002e-05
6.99978e-05
7.13301e-05
7.13687e-05
7.14284e-05
7.13787e-05
5.41939e-05
7.01999e-05
7.01975e-05
7.00063e-05
7.0004e-05
7.14271e-05
7.13774e-05
6.09787e-05
4.77136e-05
6.50184e-05
5.22595e-05
6.10198e-05
4.77666e-05
6.49534e-05
6.87189e-05
7.35915e-05
6.87922e-05
7.36128e-05
6.87159e-05
7.35907e-05
6.87895e-05
7.36109e-05
6.09502e-05
5.22674e-05
4.77961e-05
6.50221e-05
4.77886e-05
6.49447e-05
6.09371e-05
6.09485e-05
5.22645e-05
4.77945e-05
6.50183e-05
4.77869e-05
6.49467e-05
6.09352e-05
6.87019e-05
7.36859e-05
7.36251e-05
6.872e-05
6.86995e-05
7.36824e-05
7.36227e-05
6.87165e-05
7.13303e-05
7.1368e-05
7.13335e-05
7.13708e-05
5.41969e-05
7.019e-05
7.01972e-05
7.0002e-05
7.00114e-05
7.14258e-05
7.13765e-05
7.14284e-05
7.13793e-05
7.14257e-05
7.14259e-05
7.14288e-05
7.1429e-05
7.02563e-05
7.02638e-05
5.43407e-05
7.03431e-05
7.03513e-05
7.13803e-05
7.14128e-05
7.13831e-05
7.14159e-05
5.44136e-05
7.00878e-05
7.00966e-05
7.0343e-05
7.03511e-05
6.88869e-05
7.36909e-05
6.87626e-05
7.37e-05
6.10939e-05
6.5084e-05
4.78079e-05
5.23666e-05
6.09565e-05
6.52141e-05
4.78406e-05
6.10921e-05
6.50814e-05
4.78057e-05
5.23619e-05
6.09548e-05
6.52104e-05
4.78384e-05
6.89002e-05
7.36296e-05
7.36941e-05
6.88753e-05
6.88985e-05
7.36256e-05
7.36904e-05
6.88735e-05
6.11185e-05
5.24291e-05
6.51523e-05
4.79812e-05
6.52234e-05
4.79211e-05
6.11398e-05
6.11167e-05
5.24239e-05
6.51455e-05
4.79786e-05
6.52197e-05
4.79188e-05
6.1138e-05
7.02579e-05
7.02627e-05
5.43408e-05
7.03435e-05
7.03498e-05
7.14278e-05
7.14271e-05
7.1381e-05
7.14134e-05
5.44139e-05
7.0082e-05
7.00834e-05
7.03431e-05
7.03491e-05
7.13796e-05
7.14131e-05
6.10935e-05
6.50844e-05
4.78059e-05
5.23632e-05
6.09529e-05
6.52161e-05
4.7838e-05
6.8888e-05
7.36929e-05
6.87607e-05
7.37026e-05
6.10928e-05
4.78055e-05
6.50811e-05
5.23622e-05
6.09509e-05
4.78378e-05
6.52168e-05
6.89008e-05
7.36319e-05
7.36963e-05
6.88775e-05
6.1119e-05
5.24266e-05
6.51558e-05
4.79812e-05
6.52255e-05
4.79191e-05
6.11417e-05
6.89001e-05
7.36275e-05
7.36932e-05
6.88767e-05
6.11184e-05
5.24285e-05
4.79825e-05
6.51575e-05
4.79198e-05
6.52268e-05
6.11414e-05
6.88937e-05
7.36967e-05
6.87664e-05
7.3705e-05
6.10987e-05
4.78065e-05
6.50785e-05
5.23626e-05
6.09515e-05
4.78393e-05
6.52135e-05
6.88939e-05
7.36923e-05
6.8765e-05
7.37021e-05
6.1126e-05
5.24291e-05
6.5153e-05
4.79832e-05
6.52306e-05
4.7922e-05
6.11476e-05
6.89063e-05
7.36272e-05
7.36941e-05
6.88797e-05
6.11247e-05
5.24281e-05
4.79836e-05
6.51557e-05
4.79216e-05
6.52237e-05
6.11469e-05
6.89062e-05
7.36271e-05
7.36927e-05
6.88801e-05
7.02615e-05
7.0259e-05
5.43427e-05
7.0352e-05
7.03495e-05
7.14282e-05
7.14282e-05
7.13821e-05
7.1416e-05
5.44187e-05
7.00959e-05
7.0094e-05
7.03521e-05
7.03496e-05
7.13811e-05
7.14148e-05
6.10899e-05
4.78063e-05
6.50785e-05
5.236e-05
6.09486e-05
4.7838e-05
6.52126e-05
6.88866e-05
7.36964e-05
6.87593e-05
7.37063e-05
6.88823e-05
7.36927e-05
6.87564e-05
7.3703e-05
6.11195e-05
5.24326e-05
4.79858e-05
6.51612e-05
4.79225e-05
6.52297e-05
6.11441e-05
6.11163e-05
5.24254e-05
4.79825e-05
6.51578e-05
4.79193e-05
6.52227e-05
6.1141e-05
6.88997e-05
7.36317e-05
7.36971e-05
6.88798e-05
6.88957e-05
7.36308e-05
7.36945e-05
6.88766e-05
7.14269e-05
7.14274e-05
7.14296e-05
7.14303e-05
5.44126e-05
7.009e-05
7.00998e-05
7.03408e-05
7.0348e-05
7.13813e-05
7.14144e-05
7.13846e-05
7.14175e-05
7.13745e-05
7.14284e-05
7.13772e-05
7.1431e-05
6.99547e-05
6.99624e-05
5.41744e-05
6.9701e-05
6.97078e-05
7.16252e-05
7.14551e-05
7.16279e-05
7.14577e-05
5.41363e-05
6.99649e-05
6.99704e-05
6.96766e-05
6.96831e-05
6.84952e-05
7.3608e-05
6.87732e-05
7.36168e-05
6.08283e-05
6.50193e-05
4.79982e-05
5.23895e-05
6.11096e-05
6.47184e-05
4.79947e-05
6.08263e-05
6.5012e-05
4.79955e-05
5.23828e-05
6.11077e-05
6.47106e-05
4.79919e-05
6.84401e-05
7.38842e-05
7.3659e-05
6.84497e-05
6.84381e-05
7.38819e-05
7.36557e-05
6.84479e-05
6.07396e-05
5.23309e-05
6.46897e-05
4.79659e-05
6.46625e-05
4.79752e-05
6.06667e-05
6.07375e-05
5.23242e-05
6.4685e-05
4.79631e-05
6.46556e-05
4.79724e-05
6.06646e-05
6.99494e-05
6.99482e-05
5.41688e-05
6.96948e-05
6.9694e-05
7.13739e-05
7.14292e-05
7.16284e-05
7.14563e-05
5.41305e-05
6.9968e-05
6.99718e-05
6.96713e-05
6.96704e-05
7.16279e-05
7.14563e-05
6.08311e-05
6.50225e-05
4.79992e-05
5.23882e-05
6.11125e-05
6.47212e-05
4.7996e-05
6.84973e-05
7.36094e-05
6.87776e-05
7.36164e-05
6.083e-05
4.80008e-05
6.5023e-05
5.23913e-05
6.11122e-05
4.79975e-05