/*--------------------------------*- C++ -*----------------------------------*\
| =========                 |                                                 |
| \\      /  F ield         | OpenFOAM: The Open Source CFD Toolbox           |
|  \\    /   O peration     | Version:  2312                                  |
|   \\  /    A nd           | Website:  www.openfoam.com                      |
|    \\/     M anipulation  |                                                 |
\*---------------------------------------------------------------------------*/
FoamFile
{
    version     2.0;
    format      ascii;
    arch        "LSB;label=32;scalar=64";
    class       volScalarField;
    location    "375";
    object      nut;
}
// * * * * * * * * * * * * * * * * * * * * * * * * * * * * * * * * * * * * * //

dimensions      [0 2 -1 0 0 0 0];

internalField   nonuniform List<scalar> 
43208
(
0.000210513
0.000202721
0.000202718
0.000183362
0.000210242
0.000202428
0.000202436
0.000183149
0.000214442
0.000205257
0.000205269
0.000185125
0.000215934
0.000205492
0.000205473
0.00018498
0.000218371
0.000207142
0.000207167
0.000186793
0.000217306
0.000205258
0.000205297
0.000183437
0.00022555
0.000213574
0.000213541
0.000193312
0.000225191
0.00020617
0.000206263
0.000184066
0.000208355
0.000191895
0.000191891
0.000170041
0.000243182
0.000234392
0.000234387
0.000210194
0.000282627
0.000256677
0.000256723
0.000220043
0.00021439
0.000182184
0.000182184
0.000161336
0.000165207
0.000157539
0.000157544
0.000145558
0.000205519
0.000215866
0.000215897
0.00019338
0.000298584
0.000264589
0.000264594
0.000230276
0.000341112
0.000278194
0.000278177
0.000231849
0.000269776
0.000221051
0.000221055
0.000192383
0.000210012
0.000192141
0.000192151
0.000171716
0.000194298
0.000187823
0.000187832
0.000169529
0.000206326
0.000198117
0.000198122
0.000177044
0.000223181
0.000203833
0.00020384
0.000184531
0.000183449
0.000202601
0.000202581
0.000183447
0.00020261
0.000202573
0.000202607
0.000202582
0.000183433
0.000202606
0.000202595
0.000183431
0.000183381
0.000183113
0.000202722
0.0002027
0.000202482
0.000202456
0.000183375
0.00018309
0.00020273
0.000202685
0.000202488
0.000202435
0.000202697
0.00020247
0.000202447
0.000183362
0.000183099
0.000202711
0.000202467
0.000202463
0.000183087
0.000183167
0.000185108
0.000202428
0.000202401
0.000204803
0.000204785
0.000183151
0.000185114
0.000202436
0.000202404
0.000204822
0.000204823
0.000202406
0.000204835
0.000204817
0.000183176
0.00018513
0.000202418
0.000204858
0.000204825
0.000185112
0.000185125
0.000185021
0.000205239
0.000205219
0.000205407
0.000205386
0.000185127
0.000185003
0.000205254
0.000205235
0.000205417
0.000205369
0.000205239
0.000205409
0.000205385
0.000185136
0.000184977
0.000205251
0.000205402
0.000205401
0.00018499
0.000185019
0.000186948
0.00020549
0.00020547
0.000206915
0.000206892
0.000185006
0.000186949
0.000205496
0.000205441
0.000206927
0.000206913
0.000205455
0.000206934
0.000206904
0.000184978
0.000186975
0.000205469
0.000206948
0.000206912
0.000186933
0.000186801
0.000184068
0.000207123
0.000207097
0.00020593
0.000205893
0.000186797
0.000184034
0.000207138
0.000207131
0.000205951
0.000205936
0.00020712
0.000205931
0.000205937
0.000186832
0.000184071
0.000207129
0.000205975
0.000205957
0.000184075
0.000183432
0.000192342
0.000205257
0.000205221
0.000211768
0.000211765
0.000183399
0.000192367
0.000205278
0.000205258
0.000211775
0.000211732
0.000205263
0.000211799
0.000211739
0.000183429
0.00019231
0.000205283
0.000211759
0.000211741
0.000192295
0.000193354
0.000187786
0.000213544
0.000213541
0.000213351
0.000213311
0.000193375
0.00018774
0.000213551
0.000213514
0.000213374
0.000213389
0.000213517
0.000213338
0.000213363
0.00019333
0.000187844
0.00021352
0.00021345
0.000213416
0.000187816
0.000184036
0.000169874
0.000206176
0.000206134
0.000194476
0.000194435
0.000183993
0.000169858
0.0002062
0.000206201
0.000194495
0.000194465
0.000206188
0.000194481
0.000194474
0.000184082
0.000169852
0.000206233
0.000194514
0.000194497
0.000169852
0.000170097
0.000205639
0.000191883
0.000191846
0.000224383
0.000224367
0.000170101
0.000205635
0.000191897
0.000191853
0.000224386
0.000224343
0.000191871
0.000224395
0.000224354
0.000170035
0.000205615
0.000191877
0.000224354
0.000224337
0.000205606
0.000210225
0.000226782
0.000234386
0.00023437
0.000256147
0.000256141
0.000210221
0.000226792
0.000234392
0.000234366
0.000256159
0.000256159
0.000234365
0.000256163
0.000256143
0.000210213
0.000226836
0.000234366
0.000256195
0.000256162
0.000226798
0.000220013
0.000167395
0.000256636
0.000256636
0.000196748
0.000196732
0.000220025
0.000167396
0.00025666
0.000256667
0.000196778
0.000196741
0.00025665
0.000196801
0.000196749
0.000220068
0.000167393
0.000256689
0.000196809
0.000196786
0.000167384
0.000161344
0.000144048
0.000182144
0.00018212
0.000161581
0.000161546
0.000161341
0.00014402
0.000182168
0.000182123
0.000161598
0.000161547
0.000182132
0.000161588
0.000161553
0.000161333
0.000144017
0.000182159
0.000161587
0.00016157
0.000144004
0.000145598
0.000186408
0.000157544
0.000157506
0.00019735
0.000197313
0.000145562
0.000186379
0.000157557
0.00015751
0.000197346
0.00019734
0.000157513
0.000197309
0.000197331
0.000145569
0.000186403
0.000157525
0.000197346
0.000197326
0.000186392
0.000193406
0.000227381
0.000215893
0.000215862
0.000256927
0.000256914
0.000193383
0.000227384
0.000215894
0.000215886
0.000256942
0.000256926
0.000215883
0.000256959
0.000256934
0.000193403
0.00022739
0.000215883
0.000256968
0.000256944
0.000227375
0.000230284
0.00023807
0.000264553
0.000264543
0.000281959
0.000281954
0.000230291
0.000238083
0.00026457
0.000264551
0.000281983
0.000281957
0.000264561
0.000282016
0.000281963
0.000230294
0.000238075
0.000264572
0.000282011
0.00028198
0.000238051
0.000231858
0.000197945
0.000278126
0.000278118
0.000233422
0.000233397
0.000231869
0.000197937
0.000278162
0.000278111
0.000233453
0.000233396
0.000278118
0.000233455
0.000233404
0.000231861
0.000197934
0.000278147
0.000233454
0.000233436
0.000197924
0.000192393
0.000173237
0.000221022
0.000220994
0.000196305
0.000196277
0.000192384
0.000173223
0.000221049
0.000220995
0.000196321
0.000196281
0.000221003
0.000196317
0.000196289
0.000192382
0.000173226
0.000221033
0.000196327
0.000196309
0.00017322
0.000171731
0.00016912
0.000192128
0.000192102
0.000187936
0.000187912
0.000171718
0.000169111
0.000192142
0.000192106
0.000187945
0.000187919
0.000192114
0.000187946
0.000187924
0.000171722
0.000169116
0.000192131
0.000187955
0.000187935
0.000169104
0.000169544
0.000176118
0.000187812
0.000187788
0.000195043
0.000195027
0.000169536
0.000176114
0.000187821
0.000187795
0.000195053
0.000195031
0.0001878
0.00019506
0.000195036
0.000169541
0.000176116
0.000187811
0.000195064
0.000195042
0.000176106
0.00017706
0.000182632
0.000198096
0.000198078
0.00020332
0.000203301
0.000177055
0.000182622
0.000198111
0.000198084
0.000203332
0.000203309
0.000198089
0.000203332
0.00020331
0.000177057
0.000182628
0.000198102
0.000203338
0.000203321
0.000182618
0.000184548
0.000203824
0.000203806
0.000184537
0.000203835
0.000203814
0.000223174
0.000223182
0.000223174
0.000203815
0.000184542
0.000203823
0.000100082
5.07567e-05
2.3895e-05
5.07517e-05
0.000209766
0.000209759
0.000209767
0.000209765
0.000144671
0.000201612
0.000103926
0.000211019
9.99353e-05
5.07586e-05
0.000100042
5.07705e-05
2.3898e-05
2.39049e-05
9.99323e-05
5.07536e-05
0.000100037
5.07655e-05
0.000210499
0.000210489
0.000210498
0.000210433
0.000210414
0.000210379
0.000210398
0.000144674
0.000103764
0.000213037
0.000202714
0.000144792
0.000103675
0.000213088
2.38971e-05
2.3904e-05
0.000144681
0.00021304
0.000103768
0.00020271
0.000144796
0.000213093
0.000103681
7.79078e-05
7.79037e-05
0.00018334
7.78566e-05
7.78508e-05
0.0001003
5.07959e-05
0.000100035
5.08014e-05
2.39128e-05
2.39146e-05
0.000100297
5.07908e-05
0.000100034
5.07964e-05
0.000210226
0.000210211
0.000210218
0.00021314
0.000213132
0.00021321
0.000213171
0.000145269
0.00010396
0.000212614
0.00020299
0.0001446
0.000104234
0.000212901
2.39119e-05
2.39135e-05
0.000145257
0.000212617
0.000103958
0.000203031
0.000144587
0.000212913
0.000104232
7.81503e-05
7.81431e-05
0.000184088
7.82409e-05
7.82347e-05
0.000100179
5.07982e-05
0.000100349
5.08047e-05
2.39149e-05
2.39211e-05
0.000100171
5.07931e-05
0.000100344
5.07995e-05
0.000214432
0.000214487
0.000214461
0.000215981
0.000215978
0.000215948
0.000215967
0.000145552
0.000104134
0.00021619
0.000205414
0.000145671
0.000103962
0.00021664
2.39138e-05
2.392e-05
0.000145568
0.000216201
0.000104139
0.000205419
0.000145673
0.00021665
0.000103963
7.80367e-05
7.8034e-05
0.000185262
7.79353e-05
7.79323e-05
0.00010048
5.08327e-05
0.000100154
5.08366e-05
2.39309e-05
2.39312e-05
0.000100477
5.08277e-05
0.000100145
5.08317e-05
0.000215934
0.000215895
0.000215914
0.000217719
0.000217712
0.000217721
0.000217707
0.000145895
0.000104147
0.000216668
0.000206032
0.000145243
0.000104558
0.00021689
2.39303e-05
2.39305e-05
0.000145868
0.000216666
0.000104133
0.00020601
0.000145243
0.000216874
0.000104551
7.82574e-05
7.82502e-05
0.000185856
7.84574e-05
7.84497e-05
9.9804e-05
5.08053e-05
0.000100475
5.08064e-05
2.39223e-05
2.39307e-05
9.98067e-05
5.08005e-05
0.000100481
5.08014e-05
0.000218357
0.000218388
0.000218369
0.000217917
0.000217882
0.000217958
0.000217932
0.000145471
0.000104369
0.000218596
0.000206853
0.00014654
0.00010356
0.000218679
2.39214e-05
2.39294e-05
0.000145508
0.000218607
0.000104393
0.000206897
0.000146527
0.0002187
0.000103585
7.80026e-05
7.79998e-05
0.000185699
7.74977e-05
7.74945e-05
0.000101161
5.09218e-05
9.9365e-05
5.09749e-05
2.39697e-05
2.39794e-05
0.000101146
5.09165e-05
9.9352e-05
5.09698e-05
0.000217277
0.000217335
0.000217314
0.000223345
0.000223355
0.000223323
0.000223327
0.000146312
0.000103109
0.000217593
0.000205837
0.000143781
0.000105295
0.000217535
2.39683e-05
2.39783e-05
0.000146252
0.000217631
0.000103079
0.00020582
0.000143818
0.000217544
0.000105253
7.78861e-05
7.78762e-05
0.00018602
7.92177e-05
7.92089e-05
0.000101841
5.08543e-05
0.000103236
5.06749e-05
2.39256e-05
2.38803e-05
0.000101853
5.08497e-05
0.000103222
5.06702e-05
0.000225558
0.000225538
0.000225537
0.000229329
0.000229322
0.000229349
0.000229337
0.000152546
0.000107796
0.000225028
0.000215858
0.000151385
0.000106452
0.000227042
2.39251e-05
2.38794e-05
0.000152613
0.000225002
0.000107767
0.000215822
0.000151329
0.000227013
0.000106517
8.0498e-05
8.04951e-05
0.000196912
7.84014e-05
7.84082e-05
9.41415e-05
5.05882e-05
9.59296e-05
5.07879e-05
2.38886e-05
2.39665e-05
9.41411e-05
5.05832e-05
9.59326e-05
5.07825e-05
0.000225166
0.000225228
0.000225213
0.000212494
0.000212471
0.000212501
0.000212498
0.00013575
9.98308e-05
0.000221043
0.000201128
0.000140664
9.76528e-05
0.000215332
2.38874e-05
2.39647e-05
0.000135776
0.000221141
9.98617e-05
0.000201182
0.000140735
0.000215389
9.76611e-05
7.4706e-05
7.47029e-05
0.00017639
7.36608e-05
7.36526e-05
0.000104392
5.13008e-05
9.91734e-05
5.1487e-05
2.41076e-05
2.41424e-05
0.000104383
5.12955e-05
9.91601e-05
5.14818e-05
0.000208332
0.000208351
0.000208352
0.000227762
0.00022776
0.00022772
0.000227721
0.000149784
0.000101999
0.000204631
0.000196185
0.000138869
0.000107805
0.000205679
2.41064e-05
2.41413e-05
0.00014972
0.00020463
0.000101952
0.000196098
0.000138756
0.000205621
0.00010778
7.79259e-05
7.79136e-05
0.000183332
8.12022e-05
8.11936e-05
0.000111151
5.13456e-05
0.000110398
5.09516e-05
2.40561e-05
2.39299e-05
0.000111151
5.13407e-05
0.000110392
5.09468e-05
0.000243185
0.000243169
0.000243161
0.000274404
0.000274405
0.000274429
0.000274407
0.000171557
0.000115082
0.000246949
0.000241568
0.000165382
0.000117456
0.000255929
2.40553e-05
2.39287e-05
0.000171596
0.000246932
0.000115093
0.000241581
0.000165394
0.000255938
0.000117482
8.48313e-05
8.48257e-05
0.000221408
8.45967e-05
8.45956e-05
9.35457e-05
5.02719e-05
0.000100041
5.00854e-05
2.37471e-05
2.37167e-05
9.35446e-05
5.02671e-05
0.00010004
5.00806e-05
0.000282637
0.000282664
0.000282643
0.000238482
0.000238493
0.000238512
0.000238504
0.000140726
0.000106499
0.00027785
0.00023941
0.000155836
9.89007e-05
0.000266801
2.37459e-05
2.37154e-05
0.000140725
0.000277894
0.00010651
0.000239461
0.000155861
0.000266856
9.88974e-05
7.76162e-05
7.76154e-05
0.000198877
7.3594e-05
7.35922e-05
8.75196e-05
5.01918e-05
8.79484e-05
5.04783e-05
2.37882e-05
2.38982e-05
8.75156e-05
5.01868e-05
8.79456e-05
5.04731e-05
0.000214381
0.000214389
0.000214385
0.00017323
0.000173207
0.000173211
0.000173207
0.000119335
9.12078e-05
0.000197865
0.000172916
0.000123317
8.96732e-05
0.000185272
2.37872e-05
2.38968e-05
0.000119322
0.000197867
9.12004e-05
0.000172915
0.000123302
0.000185271
8.9666e-05
7.01977e-05
7.01947e-05
0.000150743
7.00773e-05
7.00716e-05
9.82254e-05
5.10929e-05
9.34249e-05
5.14529e-05
2.40909e-05
2.42006e-05
9.82206e-05
5.10875e-05
9.34202e-05
5.14475e-05
0.000165175
0.000165184
0.000165178
0.00017575
0.000175705
0.00017576
0.000175741
0.000136871
9.52144e-05
0.000164281
0.00016012
0.000127136
0.000100491
0.00016306
2.409e-05
2.41993e-05
0.000136881
0.000164283
9.52221e-05
0.000160145
0.000127143
0.000163075
0.000100499
7.37289e-05
7.3723e-05
0.000158981
7.6671e-05
7.66631e-05
0.000109655
5.18654e-05
0.000106009
5.19468e-05
2.43064e-05
2.4319e-05
0.00010965
5.18601e-05
0.000106004
5.19416e-05
0.000205496
0.000205547
0.00020553
0.000282108
0.000282111
0.000282132
0.000282126
0.000163856
0.000109519
0.000223812
0.000232445
0.000154766
0.000114011
0.000245209
2.43052e-05
2.43178e-05
0.000163855
0.00022384
0.000109525
0.000232468
0.000154771
0.000245228
0.000114012
8.15531e-05
8.15452e-05
0.000210658
8.39753e-05
8.39667e-05
0.000111239
5.17411e-05
0.000112467
5.14511e-05
2.42241e-05
2.41313e-05
0.000111236
5.17361e-05
0.000112463
5.14462e-05
0.0002986
0.000298614
0.000298609
0.00033403
0.000334048
0.000334048
0.000334043
0.000175101
0.000118047
0.000288761
0.000271557
0.000172928
0.000118125
0.000298839
2.42229e-05
2.41299e-05
0.000175087
0.000288756
0.000118044
0.000271559
0.00017292
0.000298833
0.000118117
8.60163e-05
8.60086e-05
0.00023826
8.51656e-05
8.51595e-05
0.000101537
5.09198e-05
0.000105239
5.06872e-05
2.39583e-05
2.38967e-05
0.000101534
5.09149e-05
0.000105235
5.06823e-05
0.000341137
0.000341131
0.000341125
0.000291505
0.000291497
0.000291486
0.000291483
0.00015556
0.000111661
0.000313604
0.000262954
0.000164262
0.000107102
0.000298347
2.39572e-05
2.38955e-05
0.000155559
0.000313583
0.000111659
0.000262942
0.000164256
0.000298328
0.000107101
8.14584e-05
8.14553e-05
0.000218639
7.89416e-05
7.89385e-05
9.49852e-05
5.0456e-05
9.66467e-05
5.04255e-05
2.38325e-05
2.38308e-05
9.4981e-05
5.0451e-05
9.66422e-05
5.04204e-05
0.000269752
0.000269748
0.000269745
0.000220188
0.000220166
0.000220177
0.000220172
0.000137933
0.000101249
0.000244102
0.000210632
0.000142773
9.8813e-05
0.00023006
2.38313e-05
2.38296e-05
0.000137935
0.000244107
0.000101251
0.000210639
0.000142776
0.000230069
9.88144e-05
7.60009e-05
7.59981e-05
0.000182466
7.4771e-05
7.47671e-05
9.39928e-05
5.04628e-05
9.388e-05
5.05384e-05
2.38493e-05
2.38807e-05
9.3989e-05
5.04577e-05
9.38758e-05
5.05333e-05
0.000209987
0.000210001
0.000209995
0.000195419
0.000195407
0.000195422
0.000195415
0.000133377
9.73074e-05
0.000204693
0.000189542
0.000133875
9.72062e-05
0.000200919
2.38482e-05
2.38796e-05
0.000133378
0.000204704
9.73089e-05
0.000189552
0.000133876
0.000200929
9.72076e-05
7.42101e-05
7.42054e-05
0.000169605
7.42158e-05
7.42106e-05
9.57091e-05
5.06486e-05
9.49802e-05
5.07241e-05
2.39189e-05
2.39477e-05
9.57054e-05
5.06435e-05
9.49765e-05
5.07188e-05
0.000194286
0.000194302
0.000194296
0.000200028
0.000200033
0.00020004
0.000200034
0.000136279
9.82331e-05
0.000198046
0.000188701
0.000134939
9.8909e-05
0.00019853
2.39177e-05
2.39464e-05
0.000136279
0.000198055
9.8235e-05
0.000188708
0.00013494
0.000198536
9.89096e-05
7.48647e-05
7.486e-05
0.000171945
7.51566e-05
7.51517e-05
9.67059e-05
5.07784e-05
9.64012e-05
5.08511e-05
2.39665e-05
2.39985e-05
9.67055e-05
5.07729e-05
9.64001e-05
5.08455e-05
0.000206329
0.000206337
0.00020633
0.000222364
0.000222358
0.000222367
0.00022236
0.000139236
9.9915e-05
0.000210518
0.000199456
0.000138511
0.000100077
0.00021288
2.39655e-05
2.39978e-05
0.000139231
0.000210517
9.99138e-05
0.000199461
0.000138508
0.000212883
0.000100075
7.56049e-05
7.56014e-05
0.00017904
7.55748e-05
7.55694e-05
0.00010496
5.49423e-05
9.7345e-05
8.64676e-05
2.70059e-05
4.57484e-05
0.000104958
5.49377e-05
9.7343e-05
8.64681e-05
0.000238684
0.000231166
0.000231176
0.00022449
0.000223444
0.000236371
0.000236378
0.000144392
0.000102341
0.000218822
0.000205674
0.000140712
0.000105669
0.000221163
2.70046e-05
4.57439e-05
0.000144387
0.000218823
0.00010234
0.000205681
0.000140708
0.000221165
0.000105666
7.58338e-05
7.58262e-05
0.000188557
8.35093e-05
8.35138e-05
2.38971e-05
2.38951e-05
0.000182922
7.80961e-05
7.80895e-05
2.38995e-05
2.38969e-05
2.38974e-05
2.38949e-05
0.000183052
7.7955e-05
7.79496e-05
7.80656e-05
7.80612e-05
0.000100079
5.07511e-05
0.000144676
0.000201584
0.000103926
0.000210997
0.000144672
0.000201567
0.000103906
0.00021099
0.000100084
5.07577e-05
5.07566e-05
0.000100095
0.000100081
5.07519e-05
5.0751e-05
0.000100092
0.000144705
0.000202236
0.000103866
0.000212687
0.000103921
0.000211968
0.000144832
0.000144701
0.000202219
0.000103838
0.000212681
0.000103899
0.000211961
0.000144828
0.00018292
7.80766e-05
7.80985e-05
2.38962e-05
2.38973e-05
2.38947e-05
0.000183049
7.79302e-05
7.79503e-05
7.8043e-05
7.80664e-05
2.38986e-05
2.3896e-05
0.000201597
0.000103915
0.000100077
5.07527e-05
5.07516e-05
0.000100088
0.000144696
0.000202246
0.000103858
0.00021268
0.00010391
0.000211969
0.00014482
0.000100074
5.07485e-05
5.07474e-05
0.000100084
0.000144692
0.000202223
0.000212674
0.000103839
0.000211969
0.000103897
0.000144816
0.000100072
5.07522e-05
0.000144672
0.000211016
0.000100075
0.000144697
0.000202254
0.000103854
0.00021268
0.00010392
0.000211979
0.000144817
0.000100071
5.07532e-05
5.0752e-05
0.000100077
0.000144699
0.000202228
0.000212677
0.000103849
0.000211974
0.000103905
0.000144818
0.000100077
5.07497e-05
5.07485e-05
0.000100082
2.38964e-05
2.38938e-05
0.000183041
7.79343e-05
7.79472e-05
7.80478e-05
7.80586e-05
2.38987e-05
2.3896e-05
0.000144694
0.000202256
0.000212681
0.000103856
0.000211979
0.000103914
0.000144818
0.000144687
0.000202237
0.000212676
0.000103847
0.000211969
0.000103899
0.000144813
0.000100069
5.07537e-05
5.07526e-05
0.000100081
0.00010006
5.07482e-05
5.07472e-05
0.000100072
0.000183035
7.79436e-05
7.79401e-05
7.80557e-05
7.8053e-05
2.38973e-05
2.38947e-05
2.38962e-05
2.38937e-05
2.39001e-05
2.39069e-05
2.38981e-05
2.39049e-05
7.7919e-05
7.79133e-05
0.000183368
7.78689e-05
7.78611e-05
2.39147e-05
2.39082e-05
2.39126e-05
2.39061e-05
0.000183147
7.81111e-05
7.81036e-05
7.78821e-05
7.78738e-05
9.99316e-05
5.07528e-05
0.000100039
5.07647e-05
0.000144699
0.000103777
0.00021306
0.000202719
0.000144812
0.000103688
0.000213124
0.000144694
0.00010375
0.000213054
0.000202695
0.000144808
0.000103661
0.000213117
9.99008e-05
5.07932e-05
5.07744e-05
9.99757e-05
9.98971e-05
5.07877e-05
5.07687e-05
9.99717e-05
0.000144589
0.000202643
0.000103878
0.000212794
0.000103644
0.000212995
0.000144535
0.000144584
0.000202617
0.000103854
0.000212786
0.000103615
0.000212988
0.000144529
7.78939e-05
7.79138e-05
0.000183346
7.78454e-05
7.78619e-05
2.38993e-05
2.39063e-05
2.39127e-05
2.39061e-05
0.000183123
7.80921e-05
7.81163e-05
7.78592e-05
7.788e-05
2.3914e-05
2.39075e-05
0.000144692
0.000103769
0.000213047
0.000202726
0.0001448
0.000103678
0.000213107
9.99289e-05
5.07496e-05
0.000100033
5.07618e-05
0.000144687
0.000213035
0.000103751
0.000202678
0.000144796
0.000213091
0.000103662
9.98981e-05
5.07882e-05
5.07694e-05
9.99745e-05
0.000144583
0.00020265
0.000103868
0.000212774
0.000103634
0.000212976
0.000144534
9.98948e-05
5.07846e-05
5.07659e-05
9.99736e-05
0.000144579
0.000202599
0.000212758
0.000103867
0.000212959
0.000103619
0.000144532
9.9919e-05
5.07544e-05
0.000100016
5.07672e-05
0.000144678
0.000213035
0.00010376
0.00020269
0.000144795
0.000213088
0.000103671
9.9925e-05
5.07507e-05
0.000100026
5.07628e-05
0.000144567
0.000202634
0.000103888
0.000212755
0.000103631
0.000212957
0.00014454
9.9882e-05
5.07899e-05
5.07715e-05
9.99896e-05
0.000144571
0.000202611
0.000212755
0.000103871
0.000212955
0.000103626
0.000144538
9.98907e-05
5.07857e-05
5.07669e-05
9.99866e-05
7.78997e-05
7.79124e-05
0.000183337
7.7849e-05
7.78636e-05
2.38993e-05
2.39062e-05
2.39117e-05
2.39053e-05
0.000183111
7.81015e-05
7.8116e-05
7.78699e-05
7.78845e-05
2.39139e-05
2.39075e-05
0.000144675
0.000213038
0.000103757
0.000202706
0.00014479
0.000213094
0.000103666
9.9921e-05
5.07548e-05
0.000100022
5.0767e-05
9.9911e-05
5.07492e-05
0.000100009
5.07611e-05
0.000144573
0.000202631
0.000212758
0.000103887
0.000212959
0.000103637
0.000144531
0.000144566
0.000202627
0.000212759
0.000103859
0.000212961
0.000103622
0.000144523
9.98838e-05
5.07897e-05
5.07711e-05
9.99756e-05
9.98723e-05
5.0784e-05
5.07651e-05
9.99695e-05
2.38979e-05
2.39048e-05
2.38969e-05
2.39037e-05
0.000183118
7.81032e-05
7.80954e-05
7.78714e-05
7.78634e-05
2.39126e-05
2.39061e-05
2.39115e-05
2.3905e-05
2.39149e-05
2.39167e-05
2.39129e-05
2.39146e-05
7.81573e-05
7.81504e-05
0.000184087
7.82462e-05
7.82402e-05
2.3917e-05
2.39162e-05
2.39149e-05
2.39142e-05
0.000184461
7.81173e-05
7.81109e-05
7.82506e-05
7.82456e-05
0.000100296
5.07903e-05
0.000100031
5.07959e-05
0.000145251
0.000103948
0.000212638
0.000202951
0.000144586
0.000104226
0.000212878
0.000145247
0.000103926
0.000212629
0.000202927
0.00014458
0.000104205
0.000212867
0.000100323
5.0799e-05
5.08011e-05
0.000100388
0.000100319
5.07933e-05
5.07956e-05
0.000100385
0.000145349
0.000204016
0.000104264
0.000215292
0.00010424
0.000214062
0.000145668
0.000145345
0.000203997
0.000104239
0.000215283
0.000104218
0.000214051
0.000145664
7.81395e-05
7.81639e-05
0.000184089
7.82288e-05
7.82535e-05
2.39142e-05
2.39158e-05
2.39149e-05
2.39141e-05
0.000184466
7.80927e-05
7.8112e-05
7.82312e-05
7.82584e-05
2.3916e-05
2.39153e-05
0.000145253
0.000103938
0.000212625
0.00020297
0.000144586
0.000104216
0.000212891
0.000100295
5.07871e-05
0.000100033
5.07923e-05
0.000145253
0.000212614
0.000103939
0.000202996
0.000144585
0.000212901
0.000104214
0.000100319
5.07939e-05
5.07961e-05
0.000100384
0.000145349
0.000204037
0.000104257
0.000215317
0.000104231
0.0002141
0.000145664
0.000100317
5.07894e-05
5.0792e-05
0.000100382
0.000145349
0.00020406
0.000215332
0.000104246
0.000214125
0.000104228
0.000145663
0.000100298
5.07924e-05
0.000100045
5.07972e-05
0.000145268
0.000212612
0.000103942
0.000202972
0.000144598
0.0002129
0.00010422
0.000100302
5.07883e-05
0.000100046
5.07936e-05
0.000145364
0.000204059
0.000104259
0.000215333
0.000104247
0.000214126
0.000145669
0.000100318
5.0794e-05
5.07967e-05
0.000100382
0.000145363
0.000204042
0.000215332
0.000104256
0.000214125
0.000104234
0.000145669
0.000100323
5.07906e-05
5.07932e-05
0.000100385
7.81494e-05
7.81626e-05
0.000184127
7.82374e-05
7.82502e-05
2.39141e-05
2.39157e-05
2.39137e-05
2.39131e-05
0.000184497
7.80961e-05
7.81097e-05
7.82428e-05
7.82547e-05
2.39159e-05
2.39153e-05
0.000145249
0.000212613
0.00010393
0.000202974
0.000144578
0.000212894
0.00010421
0.000100292
5.07923e-05
0.000100032
5.07975e-05
0.000100283
5.07866e-05
0.000100023
5.07922e-05
0.000145354
0.000204096
0.000215346
0.000104263
0.000214142
0.000104245
0.000145668
0.000145346
0.000204045
0.000215327
0.000104252
0.000214115
0.000104225
0.000145662
0.000100314
5.07946e-05
5.07972e-05
0.000100382
0.000100304
5.07895e-05
5.07919e-05
0.000100373
2.39128e-05
2.39145e-05
2.39117e-05
2.39135e-05
0.000184466
7.81078e-05
7.81049e-05
7.82462e-05
7.82405e-05
2.39146e-05
2.3914e-05
2.39137e-05
2.3913e-05
2.39171e-05
2.39231e-05
2.3915e-05
2.39211e-05
7.80484e-05
7.80412e-05
0.000185282
7.79511e-05
7.79422e-05
2.39328e-05
2.39245e-05
2.39308e-05
2.39225e-05
0.000185111
7.8177e-05
7.8169e-05
7.79116e-05
7.79032e-05
0.000100176
5.07925e-05
0.000100346
5.0799e-05
0.000145583
0.000104146
0.000216172
0.000205404
0.000145674
0.000103978
0.000216643
0.000145579
0.000104119
0.000216165
0.000205384
0.00014567
0.000103952
0.000216636
0.000100124
5.08291e-05
5.08086e-05
0.000100087
0.000100121
5.08235e-05
5.08028e-05
0.000100084
0.000145435
0.000205433
0.000104024
0.000216716
0.000103925
0.000216777
0.000145274
0.000145431
0.000205412
0.000104004
0.000216711
0.000103898
0.000216771
0.00014527
7.80235e-05
7.8041e-05
0.000185266
7.79266e-05
7.79407e-05
2.39161e-05
2.39224e-05
2.39307e-05
2.39224e-05
0.000185094
7.81577e-05
7.81819e-05
7.78868e-05
7.79011e-05
2.39322e-05
2.39238e-05
0.000145573
0.000104138
0.000216185
0.000205418
0.00014567
0.000103967
0.000216645
0.000100167
5.07886e-05
0.00010034
5.07952e-05
0.000145568
0.00021619
0.000104121
0.000205385
0.000145668
0.000216642
0.000103945
0.000100115
5.0824e-05
5.08034e-05
0.000100078
0.000145421
0.000205446
0.000104009
0.000216708
0.000103914
0.000216774
0.000145256
0.000100111
5.08204e-05
5.07993e-05
0.000100074
0.000145415
0.000205406
0.000216697
0.000103991
0.000216766
0.00010389
0.000145249
0.000100153
5.07934e-05
0.000100327
5.08007e-05
0.000145557
0.000216189
0.000104132
0.000205395
0.000145673
0.00021664
0.000103956
0.000100159
5.07897e-05
0.000100336
5.07963e-05
0.000145398
0.000205439
0.000104022
0.000216693
0.000103907
0.000216762
0.000145237
0.000100099
5.0826e-05
5.0805e-05
0.000100072
0.000145401
0.000205419
0.000216694
0.000103997
0.000216762
0.000103901
0.000145237
0.000100105
5.08215e-05
5.08004e-05
0.000100073
7.80254e-05
7.80386e-05
0.000185253
7.79227e-05
7.79375e-05
2.3916e-05
2.39223e-05
2.393e-05
2.39215e-05
0.000185078
7.81583e-05
7.81727e-05
7.78829e-05
7.78968e-05
2.39322e-05
2.39237e-05
0.000145563
0.000216189
0.000104131
0.00020541
0.000145666
0.000216644
0.000103956
0.000100162
5.07938e-05
0.000100335
5.08004e-05
0.000100153
5.07886e-05
0.000100324
5.07949e-05
0.000145413
0.000205439
0.0002167
0.000104009
0.000216772
0.000103908
0.000145246
0.000145409
0.000205435
0.000216702
0.00010399
0.000216771
0.000103902
0.000145243
0.000100105
5.08256e-05
5.08045e-05
0.000100067
0.000100096
5.08195e-05
5.07988e-05
0.000100061
2.39147e-05
2.39208e-05
2.39138e-05
2.39198e-05
0.000185091
7.81611e-05
7.8154e-05
7.78954e-05
7.78926e-05
2.39307e-05
2.39222e-05
2.39296e-05
2.39212e-05
2.39331e-05
2.39333e-05
2.3931e-05
2.39313e-05
7.82713e-05
7.82639e-05
0.000185889
7.84672e-05
7.84596e-05
2.39257e-05
2.39313e-05
2.39236e-05
2.39292e-05
0.000186176
7.82338e-05
7.82283e-05
7.85063e-05
7.84995e-05
0.000100477
5.08271e-05
0.00010015
5.08309e-05
0.000145882
0.000104142
0.000216693
0.00020602
0.000145274
0.000104545
0.000216912
0.000145878
0.000104121
0.000216688
0.000206003
0.00014527
0.000104524
0.000216906
0.000100524
5.08119e-05
5.0834e-05
0.000100671
0.000100521
5.0806e-05
5.08282e-05
0.000100667
0.000146014
0.000206557
0.000104709
0.000218237
0.000104597
0.000217633
0.000146506
0.000146009
0.000206537
0.000104682
0.000218228
0.000104575
0.000217627
0.000146501
7.82524e-05
7.82786e-05
0.00018589
7.84481e-05
7.84757e-05
2.39324e-05
2.39326e-05
2.39235e-05
2.39291e-05
0.000186179
7.82063e-05
7.82271e-05
7.84857e-05
7.85172e-05
2.39246e-05
2.39304e-05
0.000145875
0.000104128
0.000216678
0.000206023
0.000145255
0.000104534
0.000216888
0.000100476
5.08242e-05
0.000100142
5.08282e-05
0.000145874
0.000216664
0.000104115
0.000205977
0.000145249
0.000216874
0.000104533
0.000100522
5.08071e-05
5.08291e-05
0.000100672
0.000146009
0.000206567
0.000104703
0.000218234
0.000104588
0.000217614
0.000146508
0.000100521
5.08032e-05
5.08256e-05
0.000100671
0.000146009
0.000206543
0.000218234
0.000104708
0.000217608
0.000104588
0.000146509
0.000100484
5.08297e-05
0.000100147
5.08332e-05
0.000145892
0.000216664
0.00010412
0.000205979
0.000145243
0.00021688
0.000104536
0.000100488
5.08253e-05
0.000100149
5.08293e-05
0.000146033
0.000206575
0.000104713
0.000218243
0.000104612
0.00021763
0.000146538
0.000100529
5.08072e-05
5.08301e-05
0.000100682
0.00014603
0.000206538
0.000218236
0.000104712
0.000217616
0.00010459
0.000146534
0.000100534
5.08043e-05
5.08267e-05
0.000100683
7.82572e-05
7.82708e-05
0.000185882
7.84587e-05
7.84732e-05
2.39325e-05
2.39328e-05
2.39226e-05
2.39284e-05
0.000186189
7.82279e-05
7.82426e-05
7.84994e-05
7.8513e-05
2.39249e-05
2.39307e-05
0.000145858
0.000216667
0.00010411
0.000205988
0.000145237
0.000216871
0.000104521
0.000100468
5.08294e-05
0.000100133
5.08335e-05
0.000100456
5.08233e-05
0.000100124
5.08275e-05
0.000146005
0.000206577
0.000218241
0.000104726
0.00021761
0.000104605
0.000146509
0.000145994
0.000206546
0.000218227
0.000104701
0.000217597
0.000104575
0.000146498
0.000100513
5.08086e-05
5.0831e-05
0.000100672
0.000100501
5.08034e-05
5.08252e-05
0.000100664
2.3931e-05
2.39313e-05
2.39299e-05
2.39302e-05
0.000186154
7.82337e-05
7.82301e-05
7.84965e-05
7.84888e-05
2.39236e-05
2.39292e-05
2.39226e-05
2.39282e-05
2.39245e-05
2.39327e-05
2.39224e-05
2.39306e-05
7.80042e-05
7.79976e-05
0.00018569
7.75048e-05
7.74956e-05
2.39653e-05
2.3937e-05
2.39632e-05
2.39349e-05
0.000185159
7.74725e-05
7.74608e-05
7.74e-05
7.73911e-05
9.98001e-05
5.07995e-05
0.000100471
5.08006e-05
0.000145476
0.000104375
0.000218585
0.000206844
0.000146511
0.000103577
0.000218667
0.00014547
0.000104343
0.000218574
0.00020681
0.000146506
0.000103545
0.000218656
9.96282e-05
5.08944e-05
5.08182e-05
9.9216e-05
9.96242e-05
5.08891e-05
5.08126e-05
9.9212e-05
0.000145041
0.000206347
0.000102885
0.000218206
0.000103369
0.000218484
0.000144084
0.000145035
0.000206312
0.000102859
0.000218193
0.000103337
0.000218472
0.000144078
7.79749e-05
7.79938e-05
0.00018566
7.74745e-05
7.7491e-05
2.39234e-05
2.39319e-05
2.39636e-05
2.39349e-05
0.000185125
7.74566e-05
7.74784e-05
7.73678e-05
7.73856e-05
2.39648e-05
2.39362e-05
0.000145487
0.00010437
0.000218593
0.000206863
0.000146518
0.00010357
0.000218681
9.9804e-05
5.07964e-05
0.000100479
5.07971e-05
0.000145486
0.000218596
0.000104373
0.000206859