/*--------------------------------*- C++ -*----------------------------------*\
| =========                 |                                                 |
| \\      /  F ield         | OpenFOAM: The Open Source CFD Toolbox           |
|  \\    /   O peration     | Version:  2312                                  |
|   \\  /    A nd           | Website:  www.openfoam.com                      |
|    \\/     M anipulation  |                                                 |
\*---------------------------------------------------------------------------*/
FoamFile
{
    version     2.0;
    format      ascii;
    arch        "LSB;label=32;scalar=64";
    class       volScalarField;
    location    "375";
    object      p;
}
// * * * * * * * * * * * * * * * * * * * * * * * * * * * * * * * * * * * * * //

dimensions      [0 2 -2 0 0 0 0];

internalField   nonuniform List<scalar> 
43208
(
0.00070885
0.000708789
0.00070879
0.000710795
0.000673388
0.000673351
0.00067335
0.000675381
0.000637843
0.000637743
0.000637742
0.000639738
0.000602347
0.000602311
0.000602314
0.000604347
0.000566564
0.000566484
0.00056648
0.000568491
0.000531571
0.000531565
0.000531565
0.000533564
0.000495094
0.000495001
0.000495004
0.000497061
0.000459349
0.000459476
0.000459465
0.000461458
0.000426649
0.000427036
0.000427039
0.000429033
0.000390071
0.000389402
0.0003894
0.000391318
0.000349714
0.000349429
0.000349425
0.000351691
0.000313789
0.000314906
0.000314907
0.000317286
0.00028268
0.00028325
0.000283244
0.000285215
0.000253229
0.000251455
0.000251444
0.00025263
0.000217604
0.000216826
0.000216824
0.000218519
0.000176003
0.000176188
0.000176185
0.000178726
0.000134432
0.000135637
0.000135635
0.000138403
9.69347e-05
9.7467e-05
9.74683e-05
9.98158e-05
6.31102e-05
6.31459e-05
6.31451e-05
6.50609e-05
3.15706e-05
3.0687e-05
3.06827e-05
3.23231e-05
9.75029e-06
5.93779e-06
5.9335e-06
4.49027e-06
0.000715604
0.000717644
0.000717645
0.000715604
0.000717645
0.000717646
0.000717645
0.000717645
0.000715604
0.000717646
0.000717645
0.000715604
0.000710794
0.000680212
0.000708788
0.000708788
0.000682234
0.000682234
0.000710794
0.000680212
0.000708789
0.00070879
0.000682234
0.000682234
0.000708789
0.000682234
0.000682234
0.000710795
0.000680212
0.000708789
0.000682234
0.000682234
0.000680212
0.000675381
0.000644556
0.000673352
0.000673352
0.000646611
0.000646611
0.000675381
0.000644555
0.000673351
0.00067335
0.00064661
0.000646609
0.000673351
0.00064661
0.000646609
0.00067538
0.000644554
0.000673351
0.000646609
0.000646609
0.000644554
0.000639739
0.000609181
0.000637743
0.000637743
0.000611209
0.000611209
0.000639738
0.000609182
0.000637743
0.000637742
0.000611209
0.000611211
0.000637742
0.00061121
0.00061121
0.000639738
0.000609184
0.000637742
0.000611212
0.000611211
0.000609182
0.000604344
0.00057334
0.000602311
0.00060231
0.000575396
0.000575396
0.000604345
0.000573339
0.000602311
0.000602314
0.000575396
0.000575395
0.000602313
0.000575395
0.000575396
0.000604348
0.000573338
0.000602314
0.000575394
0.000575395
0.000573339
0.000568492
0.000538296
0.000566484
0.000566485
0.000540277
0.000540278
0.000568491
0.000538298
0.000566483
0.000566481
0.000540276
0.000540276
0.000566482
0.000540278
0.000540276
0.000568489
0.000538294
0.000566482
0.000540275
0.000540276
0.000538294
0.000533566
0.000502121
0.000531564
0.000531565
0.000504289
0.000504288
0.000533568
0.00050212
0.000531565
0.000531564
0.00050429
0.000504293
0.000531563
0.000504289
0.000504292
0.000533565
0.000502125
0.000531564
0.000504294
0.000504293
0.000502124
0.000497058
0.000465968
0.000495001
0.000495001
0.000467775
0.000467779
0.000497057
0.000465974
0.000495002
0.000495003
0.000467772
0.00046777
0.000495003
0.00046778
0.000467775
0.000497061
0.000465964
0.000495004
0.000467769
0.000467772
0.000465967
0.000461456
0.000433519
0.000459471
0.000459475
0.000435223
0.000435231
0.000461463
0.000433528
0.000459467
0.000459465
0.000435216
0.000435218
0.000459472
0.00043523
0.000435229
0.000461453
0.000433523
0.000459469
0.000435227
0.000435232
0.000433529
0.000429023
0.000396614
0.000427031
0.000427037
0.00039916
0.000399163
0.00042903
0.000396618
0.000427027
0.000427032
0.000399159
0.000399161
0.000427038
0.000399163
0.000399163
0.000429029
0.000396615
0.000427041
0.000399162
0.000399162
0.000396617
0.000391315
0.000356815
0.0003894
0.000389401
0.000359161
0.000359161
0.000391318
0.000356814
0.0003894
0.0003894
0.000359161
0.000359158
0.000389401
0.000359162
0.000359158
0.000391316
0.000356811
0.000389401
0.000359156
0.000359157
0.000356809
0.000351698
0.000321888
0.000349431
0.000349431
0.000323248
0.000323244
0.000351696
0.000321883
0.000349432
0.000349426
0.000323247
0.000323246
0.000349426
0.000323242
0.000323241
0.000351693
0.000321884
0.000349427
0.000323243
0.00032324
0.00032188
0.000317294
0.000289467
0.000314913
0.000314909
0.000290905
0.000290894
0.00031729
0.000289447
0.000314911
0.000314909
0.000290901
0.000290896
0.000314905
0.000290888
0.000290888
0.000317291
0.000289444
0.000314904
0.000290885
0.000290879
0.000289435
0.000285303
0.00025702
0.000283274
0.000283262
0.000259564
0.00025955
0.000285231
0.000257003
0.000283271
0.000283257
0.000259561
0.000259538
0.000283241
0.000259535
0.000259514
0.000285228
0.000256991
0.000283235
0.000259522
0.000259511
0.000256975
0.000252666
0.000223547
0.000251474
0.000251464
0.000226043
0.000226037
0.000252652
0.000223542
0.000251473
0.000251458
0.000226042
0.000226033
0.000251439
0.000226034
0.000226029
0.000252642
0.000223538
0.000251437
0.000226033
0.000226029
0.000223536
0.000218527
0.00018426
0.00021683
0.000216828
0.000186545
0.000186547
0.000218523
0.000184262
0.000216831
0.000216823
0.000186547
0.000186541
0.000216823
0.000186553
0.000186548
0.000218519
0.000184258
0.000216824
0.000186547
0.000186549
0.000184261
0.000178724
0.000143884
0.000176185
0.000176186
0.000145669
0.00014567
0.000178725
0.000143887
0.000176184
0.000176182
0.000145666
0.00014567
0.000176187
0.000145669
0.000145671
0.000178723
0.000143885
0.000176186
0.000145668
0.000145669
0.000143886
0.000138401
0.000104797
0.000135638
0.000135637
0.000106644
0.000106642
0.000138402
0.000104795
0.000135635
0.000135636
0.000106643
0.000106644
0.00013564
0.000106642
0.000106644
0.0001384
0.000104796
0.000135636
0.000106643
0.000106643
0.000104796
9.98141e-05
6.95089e-05
9.74708e-05
9.74684e-05
7.14117e-05
7.14096e-05
9.98125e-05
6.9508e-05
9.74685e-05
9.7471e-05
7.14095e-05
7.14097e-05
9.74712e-05
7.14106e-05
7.141e-05
9.98153e-05
6.95092e-05
9.74709e-05
7.14109e-05
7.14091e-05
6.95077e-05
6.50615e-05
3.65598e-05
6.31466e-05
6.31454e-05
3.86982e-05
3.86989e-05
6.50607e-05
3.6561e-05
6.31455e-05
6.31447e-05
3.86996e-05
3.86965e-05
6.31454e-05
3.8699e-05
3.86964e-05
6.50615e-05
3.65574e-05
6.31436e-05
3.86975e-05
3.8697e-05
3.65574e-05
3.23249e-05
5.89815e-06
3.06846e-05
3.06841e-05
7.60023e-06
7.60019e-06
3.23262e-05
5.89946e-06
3.0687e-05
3.06802e-05
7.59956e-06
7.5943e-06
3.06816e-05
7.60048e-06
7.59595e-06
3.23217e-05
5.89419e-06
3.06838e-05
7.59548e-06
7.5961e-06
5.89636e-06
4.49371e-06
5.93814e-06
5.93774e-06
4.49433e-06
5.9373e-06
5.93292e-06
9.75067e-06
9.74742e-06
9.74797e-06
5.93361e-06
4.48963e-06
5.93312e-06
0.000733173
0.000733182
0.000733188
0.000733182
0.000717729
0.000717729
0.000717729
0.000717729
0.000733224
0.000735397
0.000733198
0.000735438
0.000697777
0.000711035
0.000711009
0.000697782
0.000711038
0.00069778
0.000697777
0.000711035
0.00071101
0.000697782
0.000708851
0.000708851
0.00070885
0.000682252
0.000682252
0.000682252
0.000682252
0.000697813
0.000710984
0.000708809
0.000699941
0.000710934
0.000697799
0.000699957
0.000711039
0.00069778
0.000697812
0.000708809
0.000710983
0.000699942
0.000710933
0.000699957
0.000697799
0.00071103
0.00071103
0.000697917
0.000697769
0.000697769
0.000662174
0.000675517
0.000675526
0.000662177
0.000675515
0.000662184
0.000662172
0.000675516
0.000675525
0.000662176
0.000673387
0.000673389
0.000673389
0.000646729
0.000646729
0.000646726
0.000646727
0.000662233
0.000675482
0.000673367
0.000664432
0.000675492
0.000662197
0.000664467
0.000675513
0.000662183
0.000662234
0.000673367
0.000675484
0.00066443
0.000675492
0.000664467
0.000662197
0.000675511
0.000675512
0.000662364
0.000662172
0.000662172
0.000626746
0.000639995
0.00063996
0.000626759
0.000640003
0.000626757
0.000626747
0.000639995
0.00063996
0.000626759
0.000637843
0.000637841
0.000637841
0.000611246
0.000611246
0.000611248
0.000611248
0.00062677
0.000639935
0.000637769
0.000628902
0.000639881
0.000626768
0.00062892
0.000640004
0.000626759
0.000626769
0.000637768
0.000639934
0.000628902
0.00063988
0.000628919
0.000626767
0.000639991
0.00063999
0.000626866
0.000626738
0.000626737
0.000591078
0.00060448
0.000604501
0.000591071
0.000604461
0.000591071
0.000591078
0.00060448
0.000604502
0.000591071
0.000602346
0.000602349
0.000602349
0.000575466
0.000575465
0.000575465
0.000575465
0.000591152
0.000604453
0.00060233
0.000593345
0.000604474
0.000591099
0.00059338
0.000604462
0.00059107
0.000591156
0.000602332
0.000604457
0.000593348
0.000604476
0.000593382
0.000591101
0.00060446
0.000604461
0.000591291
0.000591065
0.000591066
0.000555671
0.000568859
0.000568781
0.000555711
0.000568893
0.000555729
0.000555669
0.000568857
0.000568778
0.00055571
0.000566565
0.000566562
0.000566562
0.000540314
0.000540315
0.000540313
0.000540314
0.000555634
0.000568762
0.000566505
0.000557693
0.00056865
0.000555691
0.000557699
0.00056889
0.000555728
0.000555629
0.000566503
0.000568757
0.000557687
0.000568649
0.000557695
0.000555686
0.000568866
0.000568865
0.000555681
0.000555698
0.000555697
0.000520032
0.000533536
0.000533647
0.000519937
0.000533488
0.000519908
0.000520038
0.000533538
0.00053365
0.00051994
0.000531572
0.000531571
0.000531571
0.000504389
0.000504388
0.000504392
0.000504391
0.000520289
0.000533611
0.000531559
0.000522702
0.000533702
0.000520066
0.000522738
0.000533495
0.000519912
0.000520297
0.000531559
0.000533619
0.000522708
0.000533702
0.000522747
0.000520075
0.000533535
0.000533536
0.000520586
0.000519939
0.000519941
0.000483793
0.000497147
0.000497092
0.000484048
0.000497183
0.000484076
0.000483789
0.000497147
0.000497093
0.000484044
0.000495094
0.000495095
0.000495095
0.000467811
0.000467815
0.000467808
0.000467811
0.000483416
0.000497068
0.000495039
0.000485647
0.000497095
0.000483764
0.000485732
0.000497179
0.000484066
0.000483405
0.000495041
0.000497069
0.00048565
0.000497098
0.000485733
0.000483753
0.000497136
0.000497136
0.000483428
0.000483966
0.000483964
0.000449858
0.000462547
0.00046245
0.000449829
0.000462541
0.000449815
0.000449852
0.000462545
0.000462446
0.000449827
0.000459354
0.000459345
0.000459349
0.000434872
0.000434892
0.00043487
0.000434886
0.000449748
0.000462348
0.000459354
0.000451317
0.000462031
0.000449844
0.000451251
0.000462539
0.000449813
0.000449747
0.000459344
0.000462345
0.00045131
0.000462024
0.000451245
0.000449845
0.00046248
0.000462479
0.000449575
0.000449824
0.000449825
0.000414241
0.000427719
0.000427946
0.000414019
0.000427728
0.000414035
0.000414239
0.000427717
0.000427941
0.000414017
0.000426659
0.000426651
0.000426658
0.000399989
0.000399991
0.000399994
0.000399994
0.000414881
0.000428057
0.000427059
0.000418188
0.000428491
0.000414393
0.000418421
0.000427725
0.000414033
0.000414882
0.000427067
0.00042806
0.000418191
0.000428502
0.000418426
0.000414388
0.000427878
0.000427878
0.000415773
0.000414168
0.000414166
0.000376698
0.000390806
0.000390806
0.000376957
0.00039077
0.000376935
0.000376695
0.0003908
0.000390803
0.000376954
0.000390073
0.000390072
0.000390073
0.000360047
0.000360047
0.000360044
0.000360044
0.000376497
0.000390879
0.000389598
0.00037953
0.000391058
0.000376635
0.000379665
0.000390762
0.000376928
0.000376491
0.000389595
0.000390867
0.000379525
0.000391053
0.000379662
0.000376627
0.00039082
0.000390816
0.000376827
0.000376729
0.000376726
0.000340646
0.000354276
0.000353996
0.000340821
0.000354244
0.000340832
0.000340648
0.000354278
0.000353995
0.000340825
0.000349713
0.00034971
0.00034971
0.000321946
0.000321942
0.000321942
0.000321939
0.000339906
0.000353753
0.00034933
0.000340322
0.000353052
0.000340483
0.000339819
0.000354246
0.000340852
0.000339903
0.000349321
0.000353748
0.000340318
0.000353047
0.000339814
0.00034048
0.000354052
0.000354052
0.00033897
0.000340708
0.000340706
0.000305111
0.000318194
0.000318127
0.000305068
0.000318259
0.000305134
0.000305136
0.000318198
0.000318134
0.000305075
0.000313785
0.000313785
0.000313782
0.000290131
0.000290123
0.000290117
0.000290112
0.00030518
0.000318058
0.000314585
0.000306665
0.000317824
0.000305196
0.000306489
0.00031827
0.000305137
0.000305175
0.000314584
0.000318061
0.000306665
0.000317823
0.00030649
0.000305195
0.000318215
0.000318216
0.000305227
0.000305195
0.000305196
0.000271905
0.000284021
0.0002841
0.000271788
0.000284084
0.000271802
0.000271899
0.000284023
0.000284101
0.000271785
0.000282665
0.000282658
0.000282645
0.000261266
0.000261241
0.000261226
0.000261203
0.000272375
0.000284224
0.000283168
0.000275541
0.000284422
0.000272053
0.000275637
0.000284078
0.000271793
0.000272366
0.000283162
0.000284217
0.000275529
0.000284416
0.000275626
0.000272042
0.00028415
0.000284149
0.000273227
0.000271857
0.000271855
0.000240114
0.000251902
0.00025202
0.000239995
0.000251858
0.000239921
0.000240109
0.000251898
0.000252014
0.000239991
0.000253215
0.000253206
0.000253193
0.000227013
0.000227008
0.000227005
0.000227002
0.000240465
0.000252093
0.000251941
0.000243274
0.000252365
0.000240185
0.000243741
0.000251849
0.000239914
0.000240462
0.000251933
0.000252085
0.000243265
0.000252359
0.000243735
0.000240179
0.000251895
0.000251895
0.000240768
0.000239938
0.000239945
0.000204652
0.00021861
0.000218628
0.000204732
0.000218485
0.000204602
0.000204646
0.000218606
0.000218622
0.000204732
0.000217601
0.000217599
0.000217598
0.000187064
0.00018706
0.000187061
0.000187059
0.000204505
0.000218599
0.000217128
0.000207136
0.000218705
0.000204578
0.000207366
0.000218477
0.000204596
0.000204497
0.000217124
0.000218605
0.000207133
0.000218697
0.000207359
0.000204576
0.000218482
0.000218482
0.000204512
0.000204541
0.000204539
0.000164861
0.000180114
0.000180019
0.000164939
0.000180097
0.000164929
0.00016486
0.000180112
0.000180016
0.000164938
0.000176002
0.000176001
0.000176002
0.000144437
0.000144438
0.000144438
0.000144439
0.000164554
0.000179884
0.000175971
0.000165977
0.000179576
0.000164799
0.00016554
0.000180094
0.000164927
0.000164551
0.000175965
0.00017988
0.000165975
0.00017957
0.000165538
0.000164795
0.000180037
0.000180034
0.000164165
0.000164902
0.000164901
0.000124019
0.000139155
0.000139095
0.000124068
0.00013923
0.00012413
0.000124018
0.000139156
0.000139095
0.000124068
0.000134432
0.000134432
0.000134433
0.000105928
0.000105927
0.000105928
0.000105928
0.000123914
0.000139014
0.000135269
0.000125749
0.000138798
0.000124052
0.000125448
0.000139228
0.00012413
0.000123914
0.000135269
0.000139013
0.000125748
0.000138796
0.000125448
0.000124054
0.000139194
0.000139197
0.000123928
0.000124161
0.000124163
8.65459e-05
0.000100067
0.000100042
8.66051e-05
0.000100203
8.66064e-05
8.65541e-05
0.000100068
0.000100046
8.66063e-05
9.69336e-05
9.69349e-05
9.69351e-05
7.12746e-05
7.12758e-05
7.12741e-05
7.12731e-05
8.65523e-05
9.99798e-05
9.72973e-05
8.85344e-05
9.99155e-05
8.66158e-05
8.83897e-05
0.000100209
8.66138e-05
8.65429e-05
9.72972e-05
9.99789e-05
8.85365e-05
9.99154e-05
8.83909e-05
8.66213e-05
0.00010015
0.000100152
8.66604e-05
8.66762e-05
8.66764e-05
5.27889e-05
6.51982e-05
6.51583e-05
5.28579e-05
6.5324e-05
5.27017e-05
5.27896e-05
6.51991e-05
6.51636e-05
5.28579e-05
6.31107e-05
6.311e-05
6.31089e-05
3.93661e-05
3.93656e-05
3.93634e-05
3.93637e-05
5.28244e-05
6.51067e-05
6.30461e-05
5.49733e-05
6.50862e-05
5.29099e-05
5.49632e-05
6.53277e-05
5.27021e-05
5.28236e-05
6.30458e-05
6.51073e-05
5.49709e-05
6.50866e-05
5.49621e-05
5.29098e-05
6.51564e-05
6.51556e-05
5.29203e-05
5.28705e-05
5.28694e-05
1.90956e-05
3.19286e-05
3.20398e-05
1.85981e-05
3.22861e-05
1.80337e-05
1.90846e-05
3.19292e-05
3.20322e-05
1.8581e-05
3.15702e-05
3.15668e-05
3.15675e-05
1.19957e-05
1.19961e-05
1.19922e-05
1.19929e-05
1.95143e-05
3.19031e-05
3.09969e-05
2.29347e-05
3.22046e-05
1.90594e-05
2.33717e-05
3.228e-05
1.80262e-05
1.9511e-05
3.09939e-05
3.18991e-05
2.29295e-05
3.22014e-05
2.3368e-05
1.90526e-05
3.17754e-05
3.17749e-05
2.04467e-05
1.88879e-05
1.88832e-05
3.52918e-06
3.96168e-06
3.36479e-06
5.38596e-08
1.17391e-06
-3.63578e-06
3.53854e-06
3.95457e-06
3.35455e-06
4.75013e-08
2.30722e-06
8.57243e-06
8.57031e-06
4.36975e-06
6.84074e-06
3.47084e-06
3.47067e-06
2.77566e-06
3.32669e-06
4.40341e-06
2.38639e-06
4.41987e-06
5.62764e-06
1.19057e-06
1.13765e-06
-3.63998e-06
2.77128e-06
4.40127e-06
3.32175e-06
2.38481e-06
4.41702e-06
1.18893e-06
5.61313e-06
7.59811e-08
7.86354e-08
1.57517e-06
3.63671e-06
3.61694e-06
0.000733188
0.000733188
0.00073334
0.000733172
0.000733172
0.000715487
0.000728734
0.000715487
0.000728734
0.000728517
0.00071547
0.00071547
0.000728723
0.000728724
0.000733173
0.000733182
0.000733224
0.000735397
0.000733198
0.000735439
0.000733224
0.000735397
0.000733198
0.000735439
0.000728711
0.000715481
0.000728728
0.00071546
0.000728711
0.000715481
0.000728728
0.00071546
0.000728651
0.000726513
0.000715487
0.000717669
0.00072868
0.000726545
0.000715494
0.000728651
0.000726513
0.000715487
0.000717669
0.00072868
0.000726545
0.000715494
0.00073334
0.000733172
0.000733172
0.000733188
0.000715488
0.000728734
0.000728517
0.000715471
0.000715472
0.000728723
0.000728724
0.000715489
0.000728735
0.000735398
0.000733198
0.000728712
0.000715481
0.000728728
0.000715462
0.000728652
0.000726513
0.000715487
0.00071767
0.00072868
0.000726545
0.000715495
0.000728712
0.000715482
0.000728729
0.000715462
0.000728652
0.000726514
0.00071767
0.000715489
0.000726545
0.000728681
0.000715495
0.000733174
0.000733183
0.000733224
0.000735438
0.000733174
0.000728651
0.000726513
0.000715489
0.000717669
0.00072868
0.000726545
0.000715495
0.000728712
0.000715483
0.00072873
0.000715463
0.000728651
0.000726513
0.000717669
0.000715488
0.000726545
0.00072868
0.000715495
0.000728712
0.000715482
0.000728729
0.000715462
0.000715488
0.000728735
0.000728518
0.000715471
0.000715471
0.000728725
0.000728725
0.000715488
0.000728735
0.000728651
0.000726514
0.000717669
0.000715488
0.000726545
0.000728681
0.000715495
0.000728651
0.000726513
0.000717669
0.000715487
0.000726545
0.00072868
0.000715495
0.000728712
0.000715482
0.000728729
0.000715462
0.000728711
0.000715482
0.000728728
0.000715462
0.000728518
0.000715471
0.000715471
0.000728724
0.000728723
0.000715488
0.000728734
0.000715488
0.000728733
0.000711037
0.00069778
0.000711038
0.00069778
0.000711028
0.000711029
0.000697917
0.000697768
0.000697768
0.000679995
0.000693314
0.000679994
0.000693314
0.000693112
0.000679987
0.000679986
0.000693315
0.000693316
0.000697777
0.000711035
0.000711009
0.000697782
0.00069781
0.000710981
0.000708808
0.00069994
0.000710932
0.000697798
0.000699955
0.000697811
0.000710982
0.000708808
0.000699941
0.000710932
0.000697799
0.000699956
0.00069332
0.000679997
0.000693323
0.000680019
0.00069332
0.000679997
0.000693324
0.000680019
0.000693251
0.00069109
0.000680032
0.000682241
0.000693284
0.000691101
0.000680085
0.000693251
0.00069109
0.000680032
0.000682241
0.000693284
0.000691101
0.000680085
0.000711029
0.00071103
0.000697917
0.000697768
0.000697769
0.000711039
0.00069778
0.000679994
0.000693314
0.000693112
0.000679986
0.000679984
0.000693315
0.000693315
0.000679992
0.000693313
0.000697811
0.000710982
0.000708809
0.00069994
0.000710933
0.000697798
0.000699956
0.000697777
0.000711036
0.00071101
0.000697782
0.000697811
0.000708809
0.000710983
0.000699942
0.000710933
0.000699957
0.000697799
0.00069332
0.000679997
0.000693323
0.000680018
0.000693251
0.00069109
0.000680031
0.000682241
0.000693284
0.000691101
0.000680084
0.000693319
0.000679995
0.000693323
0.000680017
0.000693251
0.000691091
0.000682241
0.000680029
0.000691102
0.000693284
0.000680084
0.000697778
0.000711037
0.000711011
0.000697782
0.000697812
0.000708809
0.000710983
0.000699942
0.000710934
0.000699957
0.000697799
0.000697778
0.000711036
0.000711011
0.000697782
0.000693253
0.000691091
0.000680029
0.000682242
0.000693284
0.000691102
0.000680084
0.00069332
0.000679994
0.000693322
0.000680016
0.000693253
0.000691091
0.000682242
0.00068003
0.000691102
0.000693285
0.000680084
0.00069332
0.000679995
0.000693323
0.000680016
0.00071103
0.00071103
0.000697918
0.000697768
0.000697768
0.000711039
0.00069778
0.000679992
0.000693313
0.000693113
0.000679984
0.000679984
0.000693315
0.000693314
0.000679992
0.000693313
0.000697812
0.000708809
0.000710982
0.000699941
0.000710933
0.000699957
0.000697799
0.000697778
0.000711036
0.00071101
0.000697782
0.000697779
0.000711036
0.00071101
0.000697783
0.000693252
0.000691091
0.000682242
0.000680029
0.000691102
0.000693285
0.000680084
0.000693252
0.000691091
0.000682242
0.000680031
0.000691102
0.000693285
0.000680084
0.00069332
0.000679995
0.000693323
0.000680017
0.000693319
0.000679996
0.000693324
0.000680018
0.000711038
0.000697781
0.000711038
0.000697781
0.000693113
0.000679985
0.000679985
0.000693316
0.000693316
0.000679993
0.000693314
0.000679994
0.000693315
0.000675516
0.000662185
0.000675515
0.000662184
0.000675513
0.000675513
0.000662367
0.000662174
0.000662173
0.000644451
0.000657715
0.000644451
0.000657714
0.000657516
0.000644431
0.000644431
0.000657709
0.000657709
0.000662174
0.000675516
0.000675526
0.000662177
0.000662237
0.000675487
0.000673367
0.000664434
0.000675495
0.000662199
0.000664469
0.000662237
0.000675486
0.000673367
0.000664434
0.000675495
0.000662199
0.000664469
0.000657691
0.000644438
0.000657707
0.000644412
0.000657691
0.000644438
0.000657706
0.000644412
0.000657641
0.00065551
0.000644439
0.000646647
0.000657664
0.000655552
0.000644446
0.000657641
0.000655509
0.000644439
0.000646647
0.000657663
0.000655552
0.000644446
0.000675512
0.000675511
0.000662366
0.000662174
0.000662173
0.000675513
0.000662184
0.000644451
0.000657715
0.000657516
0.000644432
0.000644433
0.000657709
0.000657708
0.000644453
0.000657714
0.000662235
0.000675485
0.000673367
0.000664433
0.000675493
0.000662198
0.000664468
0.000662172
0.000675514
0.000675525
0.000662175
0.000662235
0.000673366
0.000675484
0.000664431
0.000675493
0.000664467
0.000662197
0.00065769
0.000644437
0.000657706
0.000644412
0.00065764
0.000655509
0.000644439
0.000646646
0.000657663
0.000655551
0.000644446
0.00065769
0.000644439
0.000657706
0.000644412
0.000657639
0.000655507
0.000646645
0.000644439
0.00065555
0.000657662
0.000644446
0.000662172
0.000675514
0.000675522
0.000662176
0.000662233
0.000673367
0.000675484
0.000664432
0.000675492
0.000664467
0.000662197
0.000662172
0.000675515
0.000675523
0.000662175
0.000657638
0.000655508
0.00064444
0.000646645
0.000657663
0.00065555
0.000644446
0.00065769
0.00064444
0.000657707
0.000644413
0.000657638
0.000655508
0.000646645
0.000644439
0.00065555
0.000657662
0.000644445
0.00065769
0.000644438
0.000657705
0.000644413
0.00067551
0.00067551
0.000662364
0.000662172
0.000662172
0.000675513
0.000662183
0.000644452
0.000657714
0.000657514
0.000644433
0.000644432
0.000657708
0.000657708
0.000644452
0.000657713
0.000662234
0.000673367
0.000675485
0.000664432
0.000675492
0.000664467
0.000662197
0.000662171
0.000675514
0.000675523
0.000662175
0.000662172
0.000675515
0.000675523
0.000662175
0.000657638
0.000655507
0.000646644
0.000644439
0.00065555
0.000657662
0.000644445
0.000657638
0.000655507
0.000646644
0.000644438
0.00065555
0.000657662
0.000644445
0.000657689
0.000644438
0.000657705
0.000644412
0.000657689
0.000644437
0.000657705
0.000644412
0.000675513
0.000662183
0.000675514
0.000662182
0.000657515
0.000644431
0.000644431
0.000657707
0.000657707
0.000644452
0.000657713
0.000644451
0.000657712
0.000640002
0.000626757
0.000640002
0.000626757
0.00063999
0.00063999
0.000626866
0.000626736
0.000626736
0.000608956
0.000622297
0.000608956
0.000622298
0.000622067
0.000608949
0.000608949
0.000622289
0.000622289
0.000626746
0.000639995
0.00063996
0.000626759
0.000626768
0.000639933
0.00063777
0.000628901
0.000639881
0.000626765
0.000628919
0.000626768
0.000639933
0.00063777
0.000628901
0.000639881
0.000626766
0.000628919
0.000622297
0.000608976
0.000622307
0.000609002
0.000622297
0.000608975
0.000622307
0.000609002
0.000622216
0.000620063
0.000609013
0.00061122
0.000622257
0.000620076
0.000609064
0.000622216
0.000620064
0.000609013
0.00061122
0.000622257
0.000620076
0.000609065
0.000639991
0.000639992
0.000626867
0.000626737
0.000626737
0.000640004
0.000626758
0.000608955
0.000622297
0.000622067
0.000608948
0.000608947
0.000622289
0.00062229
0.000608953
0.000622298
0.000626768
0.000639933
0.000637769
0.000628901
0.00063988
0.000626766
0.000628919
0.000626747
0.000639996
0.00063996
0.000626761
0.000626769
0.000637768
0.000639934
0.000628902
0.00063988
0.000628919
0.000626767
0.000622298
0.000608976
0.000622308
0.000609004
0.000622217
0.000620064
0.000609014
0.000611221
0.000622258
0.000620077
0.000609066
0.000622298
0.000608977
0.000622309
0.000609004
0.000622217
0.000620065
0.000611222
0.000609015
0.000620077
0.000622259
0.000609067
0.000626749
0.000639998
0.000639961
0.000626761
0.00062677
0.000637769
0.000639934
0.000628901
0.00063988
0.000628919
0.000626767
0.000626749
0.000639996
0.000639961
0.000626761
0.000622219
0.000620064
0.000609012
0.000611221
0.000622259
0.000620077
0.000609067
0.000622298
0.000608973
0.000622308
0.000609003
0.000622218
0.000620065
0.000611222
0.000609014
0.000620077
0.000622259
0.000609067
0.000622299
0.000608975
0.000622309
0.000609002
0.000639992
0.000639992
0.000626867
0.000626738
0.000626738
0.000640004
0.000626759
0.000608956
0.000622299
0.000622068
0.000608949
0.000608949
0.000622291
0.000622291
0.000608956
0.000622299
0.000626769
0.000637768
0.000639932
0.000628901
0.000639879
0.000628919
0.000626767
0.000626748
0.000639996
0.000639959
0.000626761
0.000626748
0.000639995
0.000639959
0.00062676
0.000622218
0.000620065
0.000611222
0.000609016
0.000620077
0.000622259
0.000609068
0.000622218
0.000620065
0.000611222
0.000609017
0.000620077
0.000622258
0.000609068
0.000622298
0.000608978
0.00062231
0.000609005
0.000622298
0.000608979
0.000622309
0.000609006
0.000640003
0.000626759
0.000640002
0.000626759
0.000622068
0.000608951
0.000608951
0.000622291
0.000622291
0.000608957
0.0006223
0.000608958
0.0006223
0.000604462
0.000591071
0.000604463
0.000591072
0.00060446
0.00060446
0.00059129
0.000591066
0.000591066
0.000573323
0.000586578
0.000573323
0.000586578
0.000586407
0.000573289
0.000573289
0.000586578
0.000586578
0.000591078
0.000604479
0.000604501
0.000591071
0.000591154
0.000604455
0.000602328
0.000593345
0.000604473
0.000591101
0.000593379
0.000591154
0.000604455
0.000602328
0.000593345
0.000604473
0.000591101
0.000593378
0.000586564
0.000573279
0.000586572
0.00057322
0.000586564
0.000573279
0.000586571
0.000573221
0.000586525
0.000584362
0.000573252
0.000575419
0.000586538
0.000584394
0.000573232
0.000586525
0.000584361
0.000573253
0.000575419
0.000586537
0.000584394
0.000573232
0.000604458
0.000604458
0.00059129
0.000591066
0.000591065
0.00060446
0.00059107
0.000573325
0.000586577
0.000586407
0.000573291
0.000573291
0.000586578
0.000586577
0.000573326
0.000586577
0.000591155
0.000604456
0.00060233
0.000593346
0.000604475
0.000591102
0.00059338
0.000591078
0.00060448
0.000604502
0.00059107
0.000591155
0.000602331
0.000604456
0.000593348
0.000604475
0.000593381
0.000591101
0.000586563
0.000573276
0.000586571
0.000573218
0.000586525
0.000584362
0.00057325
0.000575419
0.000586538
0.000584395
0.00057323
0.000586563
0.000573276
0.000586571
0.000573218
0.000586525
0.000584362
0.000575418
0.000573249
0.000584395
0.000586537
0.000573231
0.000591076
0.000604476
0.000604499
0.000591069
0.000591153
0.00060233
0.000604456
0.000593347
0.000604474
0.00059338
0.0005911
0.000591076
0.000604479
0.0006045
0.00059107
0.000586523
0.000584361
0.000573253
0.000575418
0.000586536
0.000584394
0.000573229
0.000586561
0.000573281
0.00058657
0.000573219
0.000586523
0.000584362
0.000575418
0.000573249
0.000584394
0.000586536
0.000573229
0.000586561
0.000573276
0.00058657
0.000573218
0.000604459
0.00060446
0.000591292
0.000591065
0.000591065
0.000604462
0.00059107
0.000573322
0.000586576
0.000586408
0.000573287
0.000573287
0.000586577
0.000586577
0.000573321
0.000586576
0.000591156
0.000602331
0.000604458
0.000593348
0.000604476
0.000593382
0.000591102
0.000591079
0.000604481
0.000604503
0.00059107
0.000591079
0.000604482
0.000604503
0.000591071
0.000586526
0.000584362
0.000575418
0.000573248
0.000584395
0.000586536
0.00057323
0.000586526
0.000584362
0.000575419
0.000573248
0.000584395
0.000586537
0.000573231
0.000586563
0.000573275
0.00058657
0.000573217
0.000586563
0.000573273
0.000586571
0.000573217
0.000604462
0.00059107
0.000604464
0.000591071
0.000586408
0.000573285
0.000573285
0.000586577
0.000586577
0.000573321
0.000586576
0.00057332
0.000586576
0.000568892
0.000555729
0.000568891
0.000555727
0.000568869
0.000568868
0.000555685
0.000555699
0.000555697
0.000538028
0.000551316
0.000538028
0.000551315
0.000550954
0.000538064
0.000538063
0.000551296
0.000551295
0.000555671
0.000568859
0.000568781
0.000555712
0.000555633
0.00056876
0.000566506
0.000557692
0.000568652
0.00055569
0.0005577
0.000555634
0.000568761
0.000566506
0.000557693
0.000568652
0.000555691
0.0005577
0.00055127
0.000538073
0.000551303
0.000538138
0.00055127
0.000538072
0.000551304
0.000538138
0.000551142
0.000548981
0.000538162
0.000540283
0.000551231
0.000548983
0.000538207
0.000551142
0.000548982
0.000538163
0.000540283
0.000551232
0.000548984
0.000538207
0.00056887
0.000568871
0.000555686
0.0005557
0.0005557
0.000568894
0.000555729
0.000538026
0.000551316
0.000550955
0.000538062
0.000538061
0.000551297
0.000551297
0.000538024
0.000551316
0.000555631
0.000568759
0.000566504
0.000557691
0.00056865
0.000555689
0.000557697
0.000555669
0.000568856
0.000568778
0.00055571
0.000555631
0.000566504
0.000568757