/*--------------------------------*- C++ -*----------------------------------*\
| =========                 |                                                 |
| \\      /  F ield         | OpenFOAM: The Open Source CFD Toolbox           |
|  \\    /   O peration     | Version:  2312                                  |
|   \\  /    A nd           | Website:  www.openfoam.com                      |
|    \\/     M anipulation  |                                                 |
\*---------------------------------------------------------------------------*/
FoamFile
{
    version     2.0;
    format      ascii;
    arch        "LSB;label=32;scalar=64";
    class       surfaceScalarField;
    location    "375";
    object      phi;
}
// * * * * * * * * * * * * * * * * * * * * * * * * * * * * * * * * * * * * * //

dimensions      [0 3 -1 0 0 0 0];

oriented        oriented;

internalField   nonuniform List<scalar> 
125400
(
1.39213e-07
1.39072e-07
-0.00118378
-9.20422e-08
-9.26346e-08
0.00118369
-0.00113209
-1.18344e-06
-1.38799e-07
-5.62204e-08
0.00113208
-2.04969e-07
1.2296e-06
2.43733e-07
8.86682e-07
-1.78136e-07
-8.23059e-07
2.35763e-07
-0.00113196
-1.18112e-06
-1.39053e-07
-4.91783e-08
0.00113194
-2.02576e-07
1.22645e-06
2.40681e-07
8.86847e-07
-1.78003e-07
-8.22825e-07
2.35863e-07
-0.000270056
1.21227e-06
1.17572e-06
-1.92444e-07
-1.94823e-07
0.000268056
1.02112e-07
1.02081e-07
-0.00118345
-5.89122e-08
-5.98521e-08
0.00118336
-0.00113199
-1.18622e-06
-1.01968e-07
-5.25282e-08
0.00113196
-2.06334e-07
1.22758e-06
2.4275e-07
8.82024e-07
-1.82698e-07
-8.27982e-07
2.31569e-07
-0.00113185
-1.18301e-06
-1.01404e-07
-4.83285e-08
0.00113182
-2.03098e-07
1.22527e-06
2.40418e-07
8.81638e-07
-1.82922e-07
-8.28225e-07
2.31331e-07
-0.00027006
1.21508e-06
1.17769e-06
-1.9355e-07
-1.96635e-07
0.000268058
1.79963e-07
1.81642e-07
-0.00118302
-1.20861e-07
-1.18993e-07
0.0011829
-0.00113191
-1.17918e-06
-1.82306e-07
-6.65539e-08
0.00113192
-2.01815e-07
1.23274e-06
2.46029e-07
8.92913e-07
-1.71769e-07
-8.16305e-07
2.41565e-07
-0.00113178
-1.17671e-06
-1.8302e-07
-6.07582e-08
0.00113178
-1.99379e-07
1.22969e-06
2.42961e-07
8.93196e-07
-1.71519e-07
-8.16039e-07
2.4185e-07
-0.000270075
1.2076e-06
1.1714e-06
-1.89405e-07
-1.91522e-07
0.000268077
7.02831e-08
6.83364e-08
-0.00118266
-4.64067e-08
-4.84154e-08
0.00118262
-0.00113189
-1.19022e-06
-6.73237e-08
-4.4101e-08
0.00113187
-2.09747e-07
1.22231e-06
2.38698e-07
8.72153e-07
-1.90858e-07
-8.35944e-07
2.22109e-07
-0.00113175
-1.18755e-06
-6.71147e-08
-3.66512e-08
0.00113173
-2.06953e-07
1.21949e-06
2.35991e-07
8.72005e-07
-1.90922e-07
-8.3583e-07
2.21912e-07
-0.000270097
1.21983e-06
1.18209e-06
-1.98059e-07
-2.01356e-07
0.000268095
2.1804e-07
2.20395e-07
-0.00118236
-1.36731e-07
-1.36732e-07
0.00118219
-0.0011318
-1.17147e-06
-2.22244e-07
-8.71365e-08
0.0011318
-1.95325e-07
1.2412e-06
2.52461e-07
9.04521e-07
-1.63087e-07
-8.07431e-07
2.5225e-07
-0.00113166
-1.16856e-06
-2.20491e-07
-8.42524e-08
0.00113166
-1.9235e-07
1.23862e-06
2.49927e-07
9.04119e-07
-1.63416e-07
-8.07901e-07
2.52044e-07
-0.000270105
1.19935e-06
1.1635e-06
-1.82286e-07
-1.84147e-07
0.000268108
6.24726e-08
6.38835e-08
-0.00118175
-4.96204e-08
-4.55518e-08
0.00118172
-0.00113173
-1.19399e-06
-6.03773e-08
-1.96707e-08
0.00113168
-2.12564e-07
1.21441e-06
2.33386e-07
8.72997e-07
-1.82927e-07
-8.29416e-07
2.24966e-07
-0.0011316
-1.19097e-06
-6.56695e-08
-1.43683e-08
0.00113155
-2.09641e-07
1.21183e-06
2.30703e-07
8.73839e-07
-1.82032e-07
-8.28303e-07
2.25667e-07
-0.000270127
1.22287e-06
1.18559e-06
-1.98695e-07
-2.01729e-07
0.000268119
9.63642e-08
9.22812e-08
-0.00118176
-4.3458e-08
-5.06142e-08
0.00118167
-0.00113154
-1.18748e-06
-9.6522e-08
-6.49897e-08
0.0011316
-2.09963e-07
1.22813e-06
2.39071e-07
8.69129e-07
-2.03131e-07
-8.4389e-07
2.11696e-07
-0.0011314
-1.18539e-06
-8.86328e-08
-5.57493e-08
0.00113145
-2.07762e-07
1.2247e-06
2.35752e-07
8.67943e-07
-2.04015e-07
-8.44998e-07
2.10748e-07
-0.000270095
1.21746e-06
1.17984e-06
-2.02631e-07
-2.05731e-07
0.000268107
4.53683e-07
4.60491e-07
-0.00118097
-3.49427e-07
-3.42174e-07
0.00118075
-0.00113203
-1.14453e-06
-4.56259e-07
-1.66697e-07
0.0011321
-1.72691e-07
1.26691e-06
2.77193e-07
9.40792e-07
-1.3123e-07
-7.70274e-07
2.87721e-07
-0.00113189
-1.14132e-06
-4.64118e-07
-1.66095e-07
0.00113196
-1.69499e-07
1.26467e-06
2.74915e-07
9.41909e-07
-1.30318e-07
-7.69068e-07
2.88577e-07
-0.00027028
1.17132e-06
1.13657e-06
-1.61519e-07
-1.62627e-07
0.000268296
-5.50453e-08
-5.8875e-08
-0.00118037
1.24191e-07
1.21522e-07
0.00118023
-0.00113131
-1.16298e-06
5.62443e-08
-6.14251e-08
0.00113085
-1.70749e-07
1.24608e-06
2.7285e-07
9.1669e-07
-1.25336e-07
-7.87585e-07
2.81436e-07
-0.00113119
-1.16005e-06
5.88648e-08
-5.36865e-08
0.00113072
-1.67924e-07
1.24346e-06
2.7015e-07
9.16129e-07
-1.2575e-07
-7.8804e-07
2.8108e-07
-0.000270134
1.19346e-06
1.15404e-06
-1.44493e-07
-1.49026e-07
0.00026808
2.14148e-07
2.13594e-07
-0.00117965
-1.23919e-07
-1.27509e-07
0.00117948
-0.00113028
-1.20618e-06
-2.13496e-07
-3.00803e-08
0.00113059
-2.37393e-07
1.198e-06
2.01138e-07
8.50299e-07
-2.13044e-07
-8.48594e-07
1.84887e-07
-0.00113014
-1.20386e-06
-2.10119e-07
-2.35852e-08
0.00113045
-2.34986e-07
1.19484e-06
1.98062e-07
8.50011e-07
-2.13286e-07
-8.4885e-07
1.84673e-07
-0.000269986
1.23502e-06
1.19883e-06
-2.37269e-07
-2.39329e-07
0.000268029
2.48834e-07
2.52009e-07
-0.00117947
-4.05304e-07
-4.01946e-07
0.00117977
-0.00113285
-1.25211e-06
-2.50532e-07
2.41378e-09
0.0011337
-2.88243e-07
1.15756e-06
1.62385e-07
7.68588e-07
-3.11221e-07
-9.441e-07
1.07261e-07
-0.00113272
-1.24899e-06
-2.539e-07
5.29425e-09
0.00113356
-2.85196e-07
1.15516e-06
1.59954e-07
7.68975e-07
-3.10859e-07
-9.43564e-07
1.07633e-07
-0.000270655
1.28003e-06
1.24385e-06
-3.01131e-07
-3.03544e-07
0.000268735
-4.83946e-07
-4.86288e-07
-0.00118128
3.03342e-07
3.02337e-07
0.00118164
-0.0011344
-1.2131e-06
4.83486e-07
6.94874e-08
0.00113382
-2.1676e-07
1.21622e-06
2.45192e-07
8.59277e-07
-2.12887e-07
-8.72896e-07
2.22716e-07
-0.00113427
-1.21041e-06
4.84494e-07
7.6806e-08
0.00113368
-2.14148e-07
1.21336e-06
2.42283e-07
8.59062e-07
-2.13016e-07
-8.72998e-07
2.22587e-07
-0.000270793
1.24257e-06
1.20457e-06
-1.79891e-07
-1.83289e-07
0.000268709
2.97954e-07
2.97696e-07
-0.00118079
2.381e-07
2.36523e-07
0.00117972
-0.00113032
-1.03748e-06
-2.97077e-07
-2.33292e-07
0.00112913
-5.73266e-08
1.37415e-06
3.84647e-07
1.11784e-06
5.62498e-08
-5.87317e-07
4.66025e-07
-0.00113018
-1.03501e-06
-2.95602e-07
-2.26822e-07
0.00112899
-5.47328e-08
1.37108e-06
3.81663e-07
1.11751e-06
5.59924e-08
-5.87541e-07
4.65729e-07
-0.000269849
1.06665e-06
1.02988e-06
-2.44378e-09
-4.41883e-09
0.000267759
1.54471e-06
1.54786e-06
-0.00117577
-1.05867e-06
-1.05854e-06
0.00117479
-0.00112768
-9.95389e-07
-1.54593e-06
-5.47391e-07
0.00112793
-3.90381e-08
1.38728e-06
3.83581e-07
1.12571e-06
7.55722e-08
-5.50738e-07
4.61613e-07
-0.00112755
-9.92624e-07
-1.54652e-06
-5.4292e-07
0.00112779
-3.60963e-08
1.38456e-06
3.80917e-07
1.12571e-06
7.55612e-08
-5.50647e-07
4.61602e-07
-0.000269636
1.02392e-06
9.87266e-07
-3.93277e-08
-4.16512e-08
0.000267706
7.42251e-07
7.43028e-07
-0.0011735
-7.74675e-07
-7.75972e-07
0.00117357
-0.00112989
-1.16902e-06
-7.44244e-07
-2.61414e-07
0.00113082
-2.05584e-07
1.22171e-06
2.24458e-07
8.53451e-07
-2.01617e-07
-8.32144e-07
1.89374e-07
-0.00112976
-1.16627e-06
-7.44124e-07
-2.55961e-07
0.00113068
-2.02786e-07
1.21896e-06
2.21747e-07
8.5339e-07
-2.01613e-07
-8.32084e-07
1.89326e-07
-0.000270394
1.19783e-06
1.16071e-06
-2.33686e-07
-2.36572e-07
0.000268506
-6.33232e-07
-6.34002e-07
-0.00117513
1.84679e-07
1.84188e-07
0.00117603
-0.00113358
-1.37058e-06
6.3327e-07
3.09751e-07
0.00113425
-3.82467e-07
1.04651e-06
6.94997e-08
6.11934e-07
-4.50336e-07
-1.1067e-06
-3.17234e-08
-0.00113344
-1.36784e-06
6.3388e-07
3.15646e-07
0.0011341
-3.7974e-07
1.04373e-06
6.66231e-08
6.11884e-07
-4.50316e-07
-1.10666e-06
-3.17013e-08
-0.000271185
1.39955e-06
1.36277e-06
-3.94499e-07
-3.97222e-07
0.000269214
-1.19067e-06
-1.19123e-06
-0.00117888
8.53758e-07
8.55576e-07
0.00117955
-0.00113467
-1.35692e-06
1.19264e-06
4.28049e-07
0.00113436
-3.59476e-07
1.08026e-06
1.04988e-07
6.70129e-07
-4.01731e-07
-1.06546e-06
2.26793e-08
-0.00113453
-1.35416e-06
1.19216e-06
4.33347e-07
0.00113421
-3.56669e-07
1.07748e-06
1.02206e-07
6.70178e-07
-4.01645e-07
-1.0653e-06
2.27892e-08
-0.000271118
1.38556e-06
1.34907e-06
-3.28005e-07
-3.30522e-07
0.000269042
-3.56812e-07
-3.56775e-07
-0.00118014
5.09791e-07
5.11575e-07
0.00117984
-0.00113262
-1.20926e-06
3.57384e-07
1.26554e-07
0.00113203
-2.24605e-07
1.21428e-06
2.27155e-07
8.82449e-07
-1.77688e-07
-8.31988e-07
2.30746e-07
-0.00113249
-1.20643e-06
3.56881e-07
1.31853e-07
0.00113188
-2.21784e-07
1.21157e-06
2.27198e-07
8.82481e-07
-1.77702e-07
-8.31911e-07
2.30769e-07
-0.000270537
1.23797e-06
1.20097e-06
-1.83772e-07
-1.86525e-07
0.000268468
7.71608e-07
7.83811e-07
-0.00117813
-4.09134e-07
-4.09954e-07
0.0011774
-0.00113075
-1.07513e-06
-7.78681e-07
-2.9716e-07
0.00113064
-1.02284e-07
1.32781e-06
3.24216e-07
1.02251e-06
-6.61143e-09
-6.53032e-07
3.51963e-07
-0.00113061
-1.07242e-06
-7.78538e-07
-3.02416e-07
0.0011305
-1.02304e-07
1.32497e-06
3.24206e-07
1.01983e-06
-6.67211e-09
-6.50418e-07
3.54531e-07
-0.000270257
1.10678e-06
1.06144e-06
-8.42528e-08
-8.70691e-08
0.00026826
2.20654e-06
2.20858e-06
-0.00117561
-1.76252e-06
-1.75392e-06
0.00117471
-0.00113131
-9.35904e-07
-2.21445e-06
-9.62843e-07
0.00113209
2.15643e-08
1.55682e-06
4.56311e-07
1.2302e-06
1.01186e-07
-5.20525e-07
4.896e-07
-0.00113119
-9.30443e-07
-2.2198e-06
-9.73803e-07
0.00113198
2.15714e-08
1.5567e-06
4.59026e-07
1.22749e-06
1.0117e-07
-5.1793e-07
4.89575e-07
-0.000270603
9.67697e-07
9.22278e-07
2.30309e-08
1.77271e-08
0.000268673
5.58825e-06
5.58345e-06
-0.00028905
-3.98624e-06
-3.9862e-06
0.000285851
-0.000281045
5.04167e-06
-5.58035e-06
6.17642e-06
-3.94192e-06
0.000279349
-0.000281034
-5.57746e-06
5.03893e-06
-3.94208e-06
6.17376e-06
0.000279341
-0.000273088
-5.03802e-06
-5.04414e-06
5.53251e-06
5.51756e-06
0.00027212
-1.26978e-06
-1.22778e-06
0.000270127
-0.000268106
2.34633e-07
2.42204e-07
0.00113154
-1.45968e-07
-0.00113155
-5.18213e-08
-1.22309e-06
2.46621e-07
-2.07588e-07
-8.25552e-07
2.34013e-07
-1.74909e-07
8.90113e-07
1.26715e-06
0.00113161
-1.46677e-07
-0.00113162
-5.15861e-08
-1.22047e-06
2.49353e-07
-2.10442e-07
-8.30576e-07
2.36884e-07
-1.77457e-07
8.95507e-07
-1.23053e-06
0.000270112
-0.000268091
2.37567e-07
2.39446e-07
0.00113254
-1.45594e-07
-0.00113255
-5.31337e-08
-1.18045e-06
2.44339e-07
-2.04682e-07
-8.28221e-07
2.36784e-07
-1.77735e-07
8.92696e-07
1.2617e-06
0.00113148
-1.45847e-07
-0.00113149
-5.12453e-08
-1.21497e-06
2.49385e-07
-2.10371e-07
-8.28049e-07
2.34084e-07
-1.74859e-07
8.9272e-07
-1.46669e-07
-0.00113211
-4.72513e-08
-1.1828e-06
2.44461e-07
-2.0442e-07
-8.22697e-07
2.3679e-07
8.87405e-07
-1.7756e-07
1.25911e-06
0.00113111
-1.46058e-07
-0.00113112
-5.28679e-08
-1.21179e-06
2.46942e-07
-2.0723e-07
-8.20017e-07
2.31272e-07
-1.72252e-07
8.84475e-07
-1.2273e-06
0.000270085
-0.000268075
2.37235e-07
2.42058e-07
-1.46538e-07
-0.00113197
-5.11181e-08
-1.18049e-06
2.41264e-07
-2.02113e-07
-8.22591e-07
2.36856e-07
8.87434e-07
-1.77472e-07
1.22205e-06
0.0011321
-1.4632e-07
-0.00113211
-5.28268e-08
-1.17504e-06
2.44151e-07
-2.04778e-07
-8.25155e-07
2.36889e-07
-1.77556e-07
8.89969e-07
-0.000268052
2.36985e-07
2.39915e-07
1.22359e-06
1.18112e-06
-1.89833e-07
-1.97622e-07
0.00026811
-1.26661e-06
-1.22421e-06
0.000270131
-0.000268112
2.32182e-07
2.40033e-07
-5.03043e-08
0.00113152
-2.07957e-07
1.26905e-06
2.46112e-07
8.89619e-07
-1.75354e-07
-8.25689e-07
2.33116e-07
-1.2212e-06
-1.40006e-07
-4.89516e-08
0.00113159
-2.11001e-07
1.26619e-06
2.48673e-07
8.95008e-07
-1.77901e-07
-8.30694e-07
2.35963e-07
0.00113144
-9.90868e-08
-0.00113147
-4.46538e-08
-1.2263e-06
2.44906e-07
-2.09341e-07
-8.30614e-07
2.28e-07
-1.80289e-07
8.84223e-07
1.26405e-06
0.00113151
-9.82413e-08
-0.00113154
-4.46933e-08
-1.22379e-06
2.47828e-07
-2.12139e-07
-8.35955e-07
2.30475e-07
-1.83207e-07
8.89252e-07
-1.92314e-07
-1.95109e-07
0.000268095
-1.22647e-06
0.000270116
-0.000268097
2.34657e-07
2.3741e-07
-5.11086e-08
0.00113253
-2.05224e-07
1.22686e-06
2.43657e-07
8.92311e-07
-1.78069e-07
-8.28264e-07
2.35992e-07
-1.21565e-06
-1.38591e-07
-4.88777e-08
0.00113146
-2.10894e-07
1.26079e-06
2.4873e-07
8.92177e-07
-1.75365e-07
-8.2824e-07
2.33111e-07
0.00113244
-9.92732e-08
-0.00113247
-4.44439e-08
-1.18413e-06
2.42282e-07
-2.06849e-07
-8.33125e-07
2.30869e-07
-1.82953e-07
8.86914e-07
1.25838e-06
0.00113137
-9.81492e-08
-0.00113141
-4.44023e-08
-1.21845e-06
2.47612e-07
-2.12271e-07
-8.33367e-07
2.27796e-07
-1.80527e-07
8.86581e-07
-1.38856e-07
-5.12837e-08
0.00113109
-2.07619e-07
1.25835e-06
2.46376e-07
8.83964e-07
-1.72702e-07
2.30379e-07
-8.20187e-07
-9.75874e-08
-0.00113203
-3.86926e-08
-1.18687e-06
2.41901e-07
-2.07045e-07
-8.27972e-07
2.30698e-07
8.81429e-07
-1.83074e-07
1.2552e-06
0.00113101
-9.83419e-08
-0.00113104
-4.33244e-08
-1.21565e-06
2.4447e-07
-2.09688e-07
-8.25061e-07
2.25294e-07
-1.77577e-07
8.78625e-07
-1.92677e-07
-1.97588e-07
0.000268079
-1.2241e-06
0.000270089
-0.000268081
2.34971e-07
2.39753e-07
-1.40011e-07
-5.05097e-08
0.00113209
-2.05306e-07
1.22114e-06
2.43504e-07
8.89573e-07
-1.77881e-07
2.36095e-07
-8.252e-07
-9.76845e-08
-0.00113189
-4.54758e-08
-1.18381e-06
2.39615e-07
-2.03852e-07
-8.28023e-07
2.30531e-07
8.81197e-07
-1.83202e-07
1.21871e-06
0.001132
-9.85593e-08
-0.00113203
-4.42197e-08
-1.17852e-06
2.42321e-07
-2.06725e-07
-8.30332e-07
2.30663e-07
-1.83057e-07
8.83889e-07
-0.000268058
2.34755e-07
2.37133e-07
1.22562e-06
1.18339e-06
-1.9117e-07
-1.98811e-07
0.000268112
-1.27291e-06
-1.23049e-06
0.000270145
-0.000268123
2.36835e-07
2.44679e-07
-4.68328e-08
0.00113141
-2.08659e-07
1.26767e-06
2.45662e-07
8.84576e-07
-1.80099e-07
-8.30869e-07
2.28695e-07
-1.22277e-06
-1.01005e-07
-4.83329e-08
0.00113147
-2.11192e-07
1.26544e-06
2.48818e-07
8.89577e-07
-1.83051e-07
-8.36275e-07
2.31175e-07
0.00113136
-1.69859e-07
-0.00113136
-6.20028e-08
-1.2193e-06
2.48963e-07
-2.04562e-07
-8.21244e-07
2.37955e-07
-1.7074e-07
8.94301e-07
1.27042e-06
0.00113143
-1.70484e-07
-0.00113143
-6.25294e-08
-1.2165e-06
2.51739e-07
-2.0733e-07
-8.26289e-07
2.40858e-07
-1.73274e-07
8.99697e-07
-1.94126e-07
-1.95922e-07
0.000268097
-1.23326e-06
0.00027013
-0.000268109
2.39791e-07
2.41996e-07
-4.67715e-08
0.00113241
-2.06108e-07
1.22534e-06
2.43103e-07
8.87214e-07
-1.82848e-07
-8.33441e-07
2.31483e-07
-1.21755e-06
-1.01722e-07
-4.781e-08
0.00113134
-2.11404e-07
1.25966e-06
2.48547e-07
8.86983e-07
-1.80286e-07
-8.33603e-07
2.28564e-07
0.00113236
-1.70909e-07
-0.00113237
-6.10531e-08
-1.17711e-06
2.46288e-07
-2.02072e-07
-8.23747e-07
2.40861e-07
-1.73423e-07
8.97054e-07
1.26506e-06
0.0011313
-1.71015e-07
-0.0011313
-6.33823e-08
-1.21097e-06
2.51928e-07
-2.07148e-07
-8.23652e-07
2.38184e-07
-1.70576e-07
8.9705e-07
-1.01952e-07
-4.52685e-08
0.00113098
-2.09082e-07
1.25621e-06
2.4522e-07
8.79031e-07
-1.7737e-07
2.26001e-07
-8.25252e-07
-1.73236e-07
-0.00113192
-5.58578e-08
-1.17944e-06
2.4648e-07
-2.01763e-07
-8.17951e-07
2.41046e-07
8.92023e-07
-1.73061e-07
1.26225e-06
0.00113093
-1.71185e-07
-0.00113094
-6.35119e-08
-1.20805e-06
2.49342e-07
-2.04199e-07
-8.15568e-07
2.35294e-07
-1.67996e-07
8.88807e-07
-1.93846e-07
-1.98739e-07
0.000268081
-1.2303e-06
0.000270104
-0.000268093
2.39616e-07
2.44679e-07
-1.00858e-07
-4.70301e-08
0.00113197
-2.05934e-07
1.21991e-06
2.43173e-07
8.84103e-07
-1.8302e-07
2.31234e-07
-8.30743e-07
-1.72627e-07
-0.00113178
-6.15307e-08
-1.17683e-06
2.43464e-07
-1.99221e-07
-8.18077e-07
2.41071e-07
8.91905e-07
-1.73078e-07
1.22494e-06
0.00113192
-1.7133e-07
-0.00113192
-6.21083e-08
-1.17148e-06
2.46219e-07
-2.02017e-07
-8.20788e-07
2.40926e-07
-1.73315e-07
8.94263e-07
-0.000268069
2.39272e-07
2.42397e-07
1.21906e-06
1.17693e-06
-1.86831e-07
-1.94414e-07
0.00026813
-1.26261e-06
-1.22088e-06
0.000270167
-0.000268147
2.2799e-07
2.3536e-07
-6.22364e-08
0.00113136
-2.04608e-07
1.27239e-06
2.48534e-07
8.95556e-07
-1.6922e-07
-8.19281e-07
2.38746e-07
-1.21663e-06
-1.80995e-07
-6.10158e-08
0.00113143
-2.07702e-07
1.26952e-06
2.51007e-07
9.01e-07
-1.71698e-07
-8.24244e-07
2.41662e-07
0.00113134
-9.97319e-08
-0.00113135
-3.83379e-08
-1.22836e-06
2.41292e-07
-2.11791e-07
-8.32333e-07
2.2353e-07
-1.8278e-07
8.8043e-07
1.25987e-06
0.0011314
-9.92965e-08
-0.00113142
-3.78102e-08
-1.22605e-06
2.44116e-07
-2.14728e-07
-8.37627e-07
2.26036e-07
-1.8566e-07
8.85499e-07
-1.89263e-07
-1.91894e-07
0.000268116
-1.22329e-06
0.000270152
-0.000268132
2.30604e-07
2.32584e-07
-6.09892e-08
0.00113236
-2.02169e-07
1.22992e-06
2.45844e-07
8.98387e-07
-1.71818e-07
-8.21701e-07
2.41712e-07
-1.21089e-06
-1.81136e-07
-6.23533e-08
0.0011313
-2.07375e-07
1.26436e-06
2.51307e-07
8.98351e-07
-1.69017e-07
-8.21623e-07
2.38966e-07
0.00113234
-9.93609e-08
-0.00113235
-4.07933e-08
-1.18559e-06
2.39348e-07
-2.08669e-07
-8.34981e-07
2.26262e-07
-1.85592e-07
8.82958e-07
1.2543e-06
0.00113127
-9.91011e-08
-0.00113129
-3.6659e-08
-1.22054e-06
2.43936e-07
-2.14772e-07
-8.34862e-07
2.23484e-07
-1.82799e-07
8.82956e-07
-1.81005e-07
-6.43033e-08
0.00113093
-2.04091e-07
1.2619e-06
2.49012e-07
8.90008e-07
-1.66507e-07
2.36053e-07
-8.1365e-07
-9.67021e-08
-0.00113191
-3.47663e-08
-1.18819e-06
2.39086e-07
-2.08732e-07
-8.30117e-07
2.2586e-07
8.77142e-07
-1.85946e-07
1.25153e-06
0.00113091
-9.89055e-08
-0.00113092
-3.78089e-08
-1.21734e-06
2.41143e-07
-2.11809e-07
-8.26801e-07
2.2088e-07
-1.80023e-07
8.74796e-07
-1.89543e-07
-1.94227e-07
0.0002681
-1.22041e-06
0.000270125
-0.000268116
2.30598e-07
2.35083e-07
-1.83086e-07
-6.15738e-08
0.00113192
-2.02197e-07
1.22429e-06
2.45705e-07
8.95747e-07
-1.71559e-07
2.41926e-07
-8.18583e-07
-9.84668e-08
-0.00113177
-3.89804e-08
-1.18559e-06
2.36323e-07
-2.06021e-07
-8.29585e-07
2.261e-07
8.77457e-07
-1.85577e-07
1.21516e-06
0.0011319
-1.00142e-07
-0.00113192
-3.9555e-08
-1.18018e-06
2.39197e-07
-2.08743e-07
-8.31855e-07
2.26329e-07
-1.85386e-07
8.80247e-07
-0.000268094
2.30438e-07
2.32727e-07
1.23053e-06
1.18753e-06
-1.95557e-07
-2.03699e-07
0.000268148
-1.27646e-06
-1.23356e-06
0.000270176
-0.000268155
2.40411e-07
2.48763e-07
-3.46404e-08
0.00113131
-2.12907e-07
1.26152e-06
2.40838e-07
8.75227e-07
-1.87907e-07
-8.38286e-07
2.19514e-07
-1.22777e-06
-6.94046e-08
-3.6265e-08
0.00113138
-2.15441e-07
1.25925e-06
2.4404e-07
8.80234e-07
-1.9085e-07
-8.43679e-07
2.21996e-07
0.00113125
-1.57195e-07
-0.00113127
-7.08333e-08
-1.21738e-06
2.5255e-07
-2.01879e-07
-8.24074e-07
2.37839e-07
-1.73073e-07
8.93946e-07
1.27418e-06
0.00113132
-1.57771e-07
-0.00113134
-7.23591e-08
-1.21436e-06
2.55462e-07
-2.04474e-07
-8.29091e-07
2.40812e-07
-1.75569e-07
8.99402e-07
-1.98395e-07
-2.00891e-07
0.000268133
-1.23627e-06
0.000270161
-0.00026814
2.43312e-07
2.46241e-07
-3.84256e-08
0.00113232
-2.09621e-07
1.21996e-06
2.38981e-07
8.77617e-07
-1.90836e-07
-8.41095e-07
2.22144e-07
-1.2226e-06
-6.87747e-08
-3.3706e-08
0.00113125
-2.15751e-07
1.25335e-06
2.43628e-07
8.77574e-07
-1.88091e-07
-8.4101e-07
2.19331e-07
0.00113225
-1.56836e-07
-0.00113227
-6.9325e-08
-1.17549e-06
2.49297e-07
-1.9982e-07
-8.26515e-07
2.40935e-07
-1.756e-07
8.96804e-07
1.26845e-06
0.00113119
-1.56022e-07
-0.0011312
-7.22872e-08
-1.20923e-06
2.55395e-07
-2.0459e-07
-8.26856e-07
2.37702e-07
-1.73278e-07
8.96315e-07
-6.91238e-08
-3.2862e-08
0.00113088
-2.13204e-07
1.25016e-06
2.40453e-07
8.69595e-07
-1.85168e-07
2.16833e-07
-8.32756e-07
-1.60269e-07
-0.00113183
-6.45327e-08
-1.17789e-06
2.49386e-07
-1.99623e-07
-8.20476e-07
2.41342e-07
8.92062e-07
-1.7503e-07
1.26527e-06
0.00113082
-1.5694e-07
-0.00113084
-7.03679e-08
-1.20666e-06
2.5244e-07
-2.02025e-07
-8.1851e-07
2.35012e-07
-1.70463e-07
8.88316e-07
-1.98426e-07
-2.03668e-07
0.000268117
-1.23355e-06
0.000270134
-0.000268124
2.43324e-07
2.48575e-07
-6.75929e-08
-3.70767e-08
0.00113188
-2.09649e-07
1.21429e-06
2.38881e-07
8.74639e-07
-1.90889e-07
2.21957e-07
-8.38208e-07
-1.56246e-07
-0.00113168
-7.09229e-08
-1.17512e-06
2.46717e-07
-1.96774e-07
-8.21376e-07
2.40638e-07
8.91122e-07
-1.75766e-07
1.22804e-06
0.00113181
-1.54676e-07
-0.00113182
-6.99919e-08
-1.16988e-06
2.49296e-07
-1.9972e-07
-8.24023e-07
2.4057e-07
-1.75918e-07
8.93534e-07
-0.0002681
2.42912e-07
2.46076e-07
1.21041e-06
1.16917e-06
-1.7983e-07
-1.8672e-07
0.000268163
-1.26546e-06
-1.22298e-06
0.000270197
-0.00026818
2.31777e-07
2.39493e-07
-8.61007e-08
0.00113124
-1.97079e-07
1.2819e-06
2.56072e-07
9.06477e-07
-1.61114e-07
-8.11039e-07
2.48854e-07
-1.20792e-06
-2.19183e-07
-8.47141e-08
0.00113131
-2.002e-07
1.27904e-06
2.58457e-07
9.12041e-07
-1.63488e-07
-8.15901e-07
2.51892e-07
0.00113118
-1.63422e-07
-0.00113122
-4.6773e-08
-1.22102e-06
2.43831e-07
-2.06135e-07
-8.12567e-07
2.41366e-07
-1.62164e-07
8.96735e-07
1.26214e-06
0.00113125
-1.62885e-07
-0.00113128
-4.26296e-08
-1.21924e-06
2.46108e-07
-2.09635e-07
-8.17822e-07
2.4382e-07
-1.65027e-07
9.01793e-07
-1.82305e-07
-1.8412e-07
0.000268148
-1.22536e-06
0.000270181
-0.000268164
2.34376e-07
2.36307e-07
-8.11949e-08
0.00113224
-1.95594e-07
1.23841e-06
2.52328e-07
9.09653e-07
-1.63363e-07
-8.13167e-07
2.5219e-07
-1.20231e-06
-2.18323e-07
-8.74679e-08
0.00113118
-1.9988e-07
1.27383e-06
2.58814e-07
9.09074e-07
-1.61106e-07
-8.13618e-07
2.48949e-07
0.00113218
-1.67851e-07
-0.00113222
-4.37589e-08
-1.17917e-06
2.41337e-07
-2.0377e-07
-8.14782e-07
2.44292e-07
-1.64698e-07
8.99649e-07
1.2574e-06
0.00113112
-1.67224e-07
-0.00113116
-4.6362e-08
-1.21295e-06
2.46581e-07
-2.09012e-07
-8.1454e-07
2.41921e-07
-1.61649e-07
8.99907e-07
-2.18384e-07
-8.73754e-08
0.00113081
-1.96898e-07
1.27107e-06
2.56282e-07
9.00871e-07
-1.58483e-07
2.46091e-07
-8.0547e-07
-1.63246e-07
-0.00113177
-3.7126e-08
-1.18179e-06
2.41076e-07
-2.03822e-07
-8.10097e-07
2.43617e-07
8.93573e-07
-1.65249e-07
1.2549e-06
0.00113075
-1.65106e-07
-0.00113079
-4.87923e-08
-1.20953e-06
2.44111e-07
-2.0575e-07
-8.06789e-07
2.38972e-07
-1.59213e-07
8.91396e-07
-1.82294e-07
-1.86662e-07
0.000268132
-1.22306e-06
0.000270156
-0.00026815
2.34722e-07
2.39402e-07
-2.19934e-07
-8.25972e-08
0.0011318
-1.95447e-07
1.23294e-06
2.52376e-07
9.06698e-07
-1.63425e-07
2.52138e-07
-8.10421e-07
-1.70179e-07
-0.00113164
-4.53584e-08
-1.17857e-06
2.38687e-07
-2.00681e-07
-8.08874e-07
2.4471e-07
8.94747e-07
-1.64191e-07
1.21754e-06
0.00113175
-1.71562e-07
-0.00113178
-4.45301e-08
-1.17347e-06
2.41363e-07
-2.03648e-07
-8.11226e-07
2.44791e-07
-1.64134e-07
8.97417e-07
-0.000268126
2.34364e-07
2.3722e-07
1.23403e-06
1.19123e-06
-1.96274e-07
-2.04395e-07
0.000268172
-1.2531e-06
-1.212e-06
0.000270166
-0.000268142
2.16936e-07
2.23954e-07
-1.35852e-08
0.00113113
-2.15715e-07
1.25366e-06
2.35304e-07
8.76441e-07
-1.79546e-07
-8.3153e-07
2.22884e-07
-1.23175e-06
-6.1181e-08
-1.23488e-08
0.00113119
-2.18647e-07
1.25096e-06
2.38206e-07
8.81308e-07
-1.82631e-07
-8.37025e-07
2.25202e-07
0.00113099
1.83384e-08
-0.001131
-1.05727e-08
-1.24028e-06
2.31689e-07
-2.21275e-07
-8.59848e-07
1.96817e-07
-2.08142e-07
8.54943e-07
1.25141e-06
0.00113106
1.87425e-08
-0.00113107
-1.56942e-08
-1.23677e-06
2.35255e-07
-2.23286e-07
-8.65172e-07
1.99509e-07
-2.1095e-07
8.60097e-07
-1.9913e-07
-2.01945e-07
0.000268156
-1.21456e-06
0.000270151
-0.000268127
2.19651e-07
2.21853e-07
-1.52489e-08
0.00113213
-2.12404e-07
1.21215e-06
2.33717e-07
8.78873e-07
-1.82514e-07
-8.34176e-07
2.25393e-07
-1.22597e-06
-6.50755e-08
-1.24886e-08
0.00113107
-2.18544e-07
1.24555e-06
2.38074e-07
8.79393e-07
-1.79169e-07
-8.33605e-07
2.23185e-07
0.00113199
2.40815e-08
-0.00113201
-1.80156e-08
-1.19661e-06
2.30137e-07
-2.1747e-07
-8.63088e-07
1.99187e-07
-2.11451e-07
8.57012e-07
1.24481e-06
0.00113092
2.24171e-08
-0.00113094
-9.12424e-09
-1.2324e-06
2.344e-07
-2.24125e-07
-8.62947e-07
1.96289e-07
-2.08669e-07
8.56912e-07
-6.38372e-08
-1.35924e-08
0.0011307
-2.15649e-07
1.24268e-06
2.35213e-07
8.71103e-07
-1.76537e-07
2.2044e-07
-8.2569e-07
1.99397e-08
-0.00113156
-1.31593e-08
-1.19917e-06
2.30124e-07
-2.17403e-07
-8.57116e-07
1.99604e-07
8.52259e-07
-2.10924e-07
1.24146e-06
0.00113056
1.95188e-08
-0.00113058
-6.94855e-09
-1.22993e-06
2.31233e-07
-2.21731e-07
-8.5436e-07
1.93892e-07
-2.05593e-07
8.49206e-07
-1.98955e-07
-2.04242e-07
0.000268142
-1.21111e-06
0.000270124
-0.000268111
2.19249e-07
2.23695e-07
-6.63401e-08
-1.49702e-08
0.0011317
-2.12346e-07
1.20662e-06
2.33652e-07
8.76366e-07
-1.82111e-07
2.25613e-07
-8.30796e-07
2.71668e-08
-0.00113142
-1.3694e-08
-1.19705e-06
2.26755e-07
-2.15199e-07
-8.58162e-07
1.9872e-07
8.51016e-07
-2.11736e-07
1.20618e-06
0.00113155
2.83698e-08
-0.00113157
-1.60403e-08
-1.19125e-06
2.29862e-07
-2.1762e-07
-8.60813e-07
1.98656e-07
-2.11899e-07
8.53438e-07
-0.000268088
2.19258e-07
2.21008e-07
1.22801e-06
1.18514e-06
-1.99945e-07
-2.07992e-07
0.000268161
-1.30315e-06
-1.25918e-06
0.000270351
-0.000268313
2.57808e-07
2.66823e-07
-5.43726e-08
0.00113104
-2.13203e-07
1.26734e-06
2.41343e-07
8.71541e-07
-2.0071e-07
-8.46914e-07
2.08548e-07
-1.22477e-06
-9.70667e-08
-5.78761e-08
0.00113111
-2.1557e-07
1.26526e-06
2.44473e-07
8.76945e-07
-2.03263e-07
-8.52001e-07
2.11501e-07
0.00113147
-4.72998e-07
-0.00113132
-1.67739e-07
-1.18725e-06
2.71609e-07
-1.82488e-07
-7.81439e-07
2.70233e-07
-1.42232e-07
9.3554e-07
1.29969e-06
0.00113154
-4.74656e-07
-0.00113139
-1.6345e-07
-1.18553e-06
2.7367e-07
-1.86132e-07
-7.86282e-07
2.73156e-07
-1.44676e-07
9.41054e-07
-2.0253e-07
-2.04881e-07
0.000268146
-1.26208e-06
0.000270336
-0.000268299
2.60849e-07
2.63484e-07
-5.81241e-08
0.00113204
-2.10259e-07
1.22533e-06
2.38856e-07
8.74033e-07
-2.03607e-07
-8.49785e-07
2.11348e-07
-1.22014e-06
-9.18686e-08
-5.36835e-08
0.00113097
-2.16075e-07
1.25906e-06
2.44056e-07
8.73472e-07
-2.01294e-07
-8.50099e-07
2.07976e-07
0.00113247
-4.79157e-07
-0.00113232
-1.59271e-07
-1.14664e-06
2.67595e-07
-1.81463e-07
-7.83107e-07
2.73825e-07
-1.4414e-07
9.39048e-07
1.29541e-06
0.00113141
-4.75116e-07
-0.00113125
-1.70502e-07
-1.17888e-06
2.74614e-07
-1.85068e-07
-7.8376e-07
2.70542e-07
-1.42012e-07
9.38402e-07
-9.43436e-08
-5.22013e-08
0.00113061
-2.13422e-07
1.25598e-06
2.41167e-07
8.65616e-07
-1.98352e-07
2.05423e-07
-8.41605e-07
-4.7609e-07
-0.00113188
-1.54426e-07
-1.14878e-06
2.67777e-07
-1.81083e-07
-7.78222e-07
2.73356e-07
9.33167e-07
-1.44505e-07
1.29298e-06
0.00113104
-4.72071e-07
-0.00113089
-1.72312e-07
-1.17545e-06
2.72282e-07
-1.81727e-07
-7.76143e-07
2.67422e-07
-1.39693e-07
9.29713e-07
-2.03003e-07
-2.08006e-07
0.000268129
-1.25957e-06
0.000270309
-0.000268282
2.60943e-07
2.6682e-07
-8.79478e-08
-5.6634e-08
0.0011316
-2.10457e-07
1.21946e-06
2.38535e-07
8.70493e-07
-2.04043e-07
2.10824e-07
-8.47529e-07
-4.80854e-07
-0.00113173
-1.6438e-07
-1.14583e-06
2.65297e-07
-1.78079e-07
-7.77403e-07
2.73996e-07
9.33971e-07
-1.43868e-07
1.25353e-06
0.00113203
-4.82078e-07
-0.00113187
-1.60778e-07
-1.14119e-06
2.67489e-07
-1.81498e-07
-7.79705e-07
2.74184e-07
-1.43699e-07
9.36696e-07
-0.000268258
2.60187e-07
2.64802e-07
1.18309e-06
1.14218e-06
-1.59e-07
-1.65661e-07
0.00026835
-1.29469e-06
-1.25378e-06
0.000270203
-0.000268232
2.85803e-07
2.92494e-07
-1.68805e-07
0.00113154
-1.74277e-07
1.30779e-06
2.80762e-07
9.43412e-07
-1.28716e-07
-7.73255e-07
2.84846e-07
-1.18128e-06
-4.54451e-07
-1.64656e-07
0.00113161
-1.77737e-07
1.30451e-06
2.83058e-07
9.48711e-07
-1.31382e-07
-7.783e-07
2.87535e-07
0.00113076
-4.38894e-08
-0.00113118
-8.6482e-08
-1.19319e-06
2.83657e-07
-1.66786e-07
-7.80216e-07
2.90402e-07
-1.14907e-07
9.30257e-07
1.29276e-06
0.00113083
-4.20518e-08
-0.00113124
-8.87276e-08
-1.19002e-06
2.87085e-07
-1.6904e-07
-7.85749e-07
2.92751e-07
-1.18015e-07
9.35123e-07
-1.61467e-07
-1.63529e-07
0.000268335
-1.25571e-06
0.000270187
-0.000268217
2.88106e-07
2.903e-07
-1.61112e-07
0.00113254
-1.7284e-07
1.26429e-06
2.77289e-07
9.46722e-07
-1.30818e-07
-7.75055e-07
2.88185e-07
-1.17462e-06
-4.57666e-07
-1.71772e-07
0.00113148
-1.76832e-07
1.30014e-06
2.83813e-07
9.46509e-07
-1.28245e-07
-7.75322e-07
2.85368e-07
0.00113177
-4.28726e-08
-0.00113218
-9.08134e-08
-1.14967e-06
2.82521e-07
-1.62867e-07
-7.83277e-07
2.92604e-07
-1.18291e-07
9.32354e-07
1.28668e-06
0.00113071
-4.52301e-08
-0.00113112
-8.61213e-08
-1.185e-06
2.8637e-07
-1.69654e-07
-7.82486e-07
2.90555e-07
-1.14751e-07
9.3305e-07
-4.53964e-07
-1.73355e-07
0.00113111
-1.73646e-07
1.29752e-06
2.81266e-07
9.37845e-07
-1.25928e-07
2.8228e-07
-7.67722e-07
-4.34056e-08
-0.00113173
-8.35979e-08
-1.15277e-06
2.81833e-07
-1.63425e-07
-7.77634e-07
2.92826e-07
9.27337e-07
-1.17978e-07
1.28322e-06
0.00113034
-4.61957e-08
-0.00113075
-8.48799e-08
-1.18255e-06
2.83055e-07
-1.67301e-07
-7.74131e-07
2.88133e-07
-1.11696e-07
9.25174e-07
-1.61333e-07
-1.65384e-07
0.00026832
-1.25334e-06
0.000270163
-0.000268204
2.88504e-07
2.92308e-07
-4.65018e-07
-1.63103e-07
0.0011321
-1.72747e-07
1.25881e-06
2.77331e-07
9.44504e-07
-1.30289e-07
2.8861e-07
-7.71479e-07
-4.4949e-08
-0.0011316
-8.86065e-08
-1.1496e-06
2.79322e-07
-1.60362e-07
-7.77539e-07
2.92704e-07
9.27133e-07
-1.17967e-07
1.24857e-06
0.00113133
-4.38914e-08
-0.00113175
-9.14979e-08
-1.14375e-06
2.82696e-07
-1.6259e-07
-7.8025e-07
2.92529e-07
-1.18235e-07
9.2948e-07
-0.00026818
2.8862e-07
2.89512e-07
1.2038e-06
1.15991e-06
-1.4231e-07
-1.5111e-07
0.000268132
-1.24652e-06
-1.20432e-06
0.000270057
-0.000268013
1.99465e-07
2.07318e-07
-5.08562e-08
0.00113029
-1.74451e-07
1.28477e-06
2.74461e-07
9.19652e-07
-1.2231e-07
-7.90159e-07
2.78996e-07
-1.20045e-06
5.71025e-08
-5.42165e-08
0.00113036
-1.76609e-07
1.28293e-06
2.77894e-07
9.24568e-07
-1.25334e-07
-7.95668e-07
2.81445e-07
0.00112973
-9.41156e-08
-0.00112969
-6.35313e-09
-1.23633e-06
2.18381e-07
-2.24743e-07
-8.34159e-07
2.09628e-07
-1.83364e-07
8.69647e-07
1.24373e-06
0.00112979
-9.43427e-08
-0.00112976
-6.33059e-09
-1.23383e-06
2.20941e-07
-2.27751e-07
-8.39194e-07
2.12564e-07
-1.85878e-07
8.75034e-07
-1.45366e-07
-1.47925e-07
0.000268117
-1.20717e-06
0.000270042
-0.000267998
2.02489e-07
2.04391e-07
-5.7681e-08
0.00113129
-1.70283e-07
1.24408e-06
2.73429e-07
9.21634e-07
-1.25798e-07