/*--------------------------------*- C++ -*----------------------------------*\
| =========                 |                                                 |
| \\      /  F ield         | OpenFOAM: The Open Source CFD Toolbox           |
|  \\    /   O peration     | Version:  2312                                  |
|   \\  /    A nd           | Website:  www.openfoam.com                      |
|    \\/     M anipulation  |                                                 |
\*---------------------------------------------------------------------------*/
FoamFile
{
    version     2.0;
    format      ascii;
    arch        "LSB;label=32;scalar=64";
    class       volVectorField;
    location    "375";
    object      U;
}
// * * * * * * * * * * * * * * * * * * * * * * * * * * * * * * * * * * * * * //

dimensions      [0 1 -1 0 0 0 0];

internalField   nonuniform List<vector> 
43208
(
(-1.28004e-05 -1.28525e-05 0.112443)
(1.24237e-05 -6.43514e-06 0.107486)
(-6.27004e-06 1.24758e-05 0.107485)
(-2.60817e-05 -2.5958e-05 0.104202)
(-8.62656e-06 -8.6621e-06 0.112412)
(9.90367e-06 -5.67224e-06 0.107475)
(-5.85878e-06 9.82007e-06 0.107474)
(-2.67012e-05 -2.68714e-05 0.104203)
(-1.66251e-05 -1.64471e-05 0.112369)
(1.63807e-05 -7.92822e-06 0.107469)
(-7.83108e-06 1.64528e-05 0.107468)
(-2.45494e-05 -2.43139e-05 0.10421)
(-6.49732e-06 -6.71437e-06 0.112339)
(5.81613e-06 -4.35786e-06 0.107466)
(-4.28997e-06 5.80798e-06 0.107465)
(-2.83102e-05 -2.85723e-05 0.104219)
(-1.92601e-05 -1.91242e-05 0.112306)
(2.07909e-05 -1.05408e-05 0.107459)
(-1.06905e-05 2.06369e-05 0.107457)
(-2.16661e-05 -2.13384e-05 0.104223)
(-6.54548e-06 -6.27622e-06 0.112251)
(5.14223e-06 -1.77512e-06 0.10745)
(-1.81847e-06 5.55484e-06 0.107449)
(-2.90806e-05 -2.91707e-05 0.104231)
(-6.79925e-06 -7.37046e-06 0.112254)
(1.01287e-05 -7.39253e-06 0.107435)
(-7.11695e-06 9.54323e-06 0.107433)
(-2.84561e-05 -2.8726e-05 0.104222)
(-4.69602e-05 -4.62584e-05 0.11217)
(3.65055e-05 -2.04089e-05 0.107487)
(-2.07077e-05 3.71394e-05 0.107486)
(-1.2815e-05 -1.20467e-05 0.104294)
(1.56303e-05 1.5306e-05 0.112118)
(6.25387e-06 -7.65128e-06 0.107389)
(-7.62838e-06 6.0175e-06 0.107389)
(-1.32322e-05 -1.40751e-05 0.104227)
(-1.90248e-05 -1.92335e-05 0.112046)
(1.95004e-05 -4.65432e-06 0.107322)
(-4.50823e-06 1.93014e-05 0.10732)
(-3.77973e-05 -3.7571e-05 0.104191)
(-4.71151e-05 -4.6773e-05 0.112049)
(-2.90929e-06 3.56018e-06 0.107604)
(3.41438e-06 -2.66577e-06 0.107603)
(-6.00609e-05 -5.98499e-05 0.104451)
(4.66437e-05 4.64825e-05 0.112233)
(-4.06938e-05 1.34001e-05 0.107688)
(1.34787e-05 -4.07763e-05 0.107687)
(-3.04297e-05 -3.07698e-05 0.104468)
(1.56452e-05 1.55271e-05 0.112124)
(7.29704e-05 -3.72494e-05 0.107257)
(-3.71304e-05 7.28464e-05 0.107255)
(3.9775e-05 3.98745e-05 0.104109)
(-0.00014121 -0.000141066 0.111635)
(0.000139539 -7.18928e-05 0.107073)
(-7.19388e-05 0.000139569 0.107072)
(4.17818e-05 4.18869e-05 0.104068)
(-9.47995e-05 -9.4827e-05 0.111471)
(4.10065e-05 -2.97559e-05 0.107319)
(-2.97599e-05 4.09913e-05 0.107318)
(-3.03446e-05 -3.04249e-05 0.10437)
(3.29851e-05 3.2929e-05 0.11167)
(-8.29083e-05 4.48753e-05 0.107665)
(4.48865e-05 -8.29351e-05 0.107664)
(-0.00010122 -0.000101203 0.104651)
(0.000114253 0.000114331 0.112028)
(-0.000102031 5.73085e-05 0.107721)
(5.72923e-05 -0.000101996 0.10772)
(-8.57686e-05 -8.56416e-05 0.104598)
(5.75373e-05 5.76183e-05 0.112105)
(-7.79416e-06 1.32932e-05 0.107506)
(1.32561e-05 -7.78086e-06 0.107505)
(-2.86787e-05 -2.87025e-05 0.104377)
(-5.9481e-05 -5.95205e-05 0.111894)
(7.84831e-05 -4.19446e-05 0.107342)
(-4.19351e-05 7.84501e-05 0.107341)
(1.54702e-05 1.53651e-05 0.104296)
(-0.000100982 -0.000101043 0.111692)
(9.0237e-05 -5.83194e-05 0.107375)
(-5.83002e-05 9.02384e-05 0.107374)
(2.66724e-05 2.67485e-05 0.104452)
(-7.701e-05 -7.69448e-05 0.111003)
(8.75502e-05 -4.49188e-05 0.107884)
(-4.49862e-05 8.75477e-05 0.107883)
(6.21889e-05 6.2205e-05 0.105103)
(-4.4314e-05 -4.44037e-05 0.104314)
(-6.58201e-06 -1.32398e-05 0.107485)
(6.56045e-06 -1.33208e-05 0.107485)
(4.43078e-05 -4.44884e-05 0.104315)
(-1.31936e-05 -6.72485e-06 0.107486)
(-1.32287e-05 6.56999e-06 0.107483)
(1.32626e-05 -6.771e-06 0.107487)
(1.32226e-05 6.72011e-06 0.107484)
(-4.43209e-05 4.43303e-05 0.104314)
(-6.57982e-06 1.32686e-05 0.107486)
(6.67417e-06 1.3264e-05 0.107486)
(4.43448e-05 4.44329e-05 0.104314)
(2.60717e-05 2.60188e-05 0.104202)
(-4.31886e-05 -4.31391e-05 0.104316)
(-6.31221e-06 -1.24816e-05 0.107484)
(6.19665e-06 -1.25652e-05 0.107483)
(-5.51168e-06 -9.47415e-06 0.107476)
(5.52116e-06 -9.38255e-06 0.107476)
(-2.61377e-05 2.59168e-05 0.104202)
(4.3215e-05 -4.30307e-05 0.104316)
(-1.24781e-05 -6.39203e-06 0.107485)
(-1.24499e-05 6.22715e-06 0.107482)
(-9.50391e-06 -5.48561e-06 0.107478)
(-9.4047e-06 5.46603e-06 0.107474)
(1.24428e-05 6.44289e-06 0.107483)
(9.39105e-06 -5.40874e-06 0.107478)
(9.45748e-06 5.35871e-06 0.107475)
(2.60726e-05 -2.61172e-05 0.104201)
(-4.31652e-05 4.31426e-05 0.104315)
(6.33143e-06 1.2561e-05 0.107484)
(-5.56732e-06 9.38826e-06 0.107477)
(5.50762e-06 9.44007e-06 0.107477)
(4.31752e-05 4.30462e-05 0.104315)
(2.67123e-05 2.67459e-05 0.104204)
(-4.53754e-05 -4.53271e-05 0.10432)
(-5.76329e-06 -9.86862e-06 0.107473)
(5.89853e-06 -9.75449e-06 0.107472)
(-7.88856e-06 -1.57762e-05 0.107467)
(7.93023e-06 -1.58519e-05 0.107467)
(-2.66397e-05 2.68534e-05 0.104204)
(4.54134e-05 -4.54167e-05 0.104321)
(-9.87172e-06 -5.75733e-06 0.107474)
(-9.82193e-06 5.80948e-06 0.107471)
(-1.58309e-05 -7.82209e-06 0.107469)
(-1.58534e-05 8.00462e-06 0.107466)
(9.89191e-06 5.58231e-06 0.107472)
(1.60298e-05 -7.89523e-06 0.107469)
(1.58593e-05 8.03988e-06 0.107466)
(2.66965e-05 -2.6744e-05 0.104203)
(-4.53249e-05 4.54497e-05 0.10432)
(5.81396e-06 9.76711e-06 0.107474)
(-7.85085e-06 1.59661e-05 0.107468)
(7.87797e-06 1.5875e-05 0.107468)
(4.53191e-05 4.54895e-05 0.104319)
(2.44638e-05 2.45211e-05 0.104211)
(-4.14124e-05 -4.15906e-05 0.104329)
(-7.93559e-06 -1.62553e-05 0.107467)
(7.82658e-06 -1.63648e-05 0.107467)
(-4.61611e-06 -8.2295e-06 0.107466)
(4.56718e-06 -8.16643e-06 0.107465)
(-2.45129e-05 2.44008e-05 0.104211)
(4.13684e-05 -4.15451e-05 0.104329)
(-1.63467e-05 -7.85361e-06 0.107468)
(-1.63304e-05 7.95113e-06 0.107466)
(-8.16842e-06 -4.88068e-06 0.107467)
(-8.1919e-06 4.51299e-06 0.107464)
(1.62998e-05 8.15032e-06 0.107466)
(7.9448e-06 -4.84384e-06 0.107468)
(8.18561e-06 4.59714e-06 0.107465)
(2.45094e-05 -2.44419e-05 0.10421)
(-4.15121e-05 4.13541e-05 0.104328)
(7.86401e-06 1.64704e-05 0.107468)
(-4.76421e-06 8.13103e-06 0.107467)
(4.80536e-06 8.2344e-06 0.107467)
(4.15519e-05 4.13842e-05 0.104328)
(2.84857e-05 2.8276e-05 0.104219)
(-4.67221e-05 -4.64811e-05 0.104331)
(-4.04653e-06 -6.03225e-06 0.107464)
(4.18008e-06 -5.92764e-06 0.107463)
(-8.96629e-06 -1.52777e-05 0.107457)
(9.08617e-06 -1.5349e-05 0.107457)
(-2.84601e-05 2.83284e-05 0.104219)
(4.68332e-05 -4.65406e-05 0.104332)
(-5.8806e-06 -4.40091e-06 0.107465)
(-5.92742e-06 4.00391e-06 0.107462)
(-1.53382e-05 -8.76283e-06 0.107459)
(-1.5201e-05 9.0432e-06 0.107456)
(5.97977e-06 3.90232e-06 0.107463)
(1.56167e-05 -8.81716e-06 0.107459)
(1.52733e-05 8.89742e-06 0.107456)
(2.83409e-05 -2.85515e-05 0.104218)
(-4.65401e-05 4.67355e-05 0.10433)
(4.33403e-06 5.82026e-06 0.107465)
(-8.87536e-06 1.52607e-05 0.107458)
(8.81133e-06 1.51734e-05 0.107458)
(4.64977e-05 4.66598e-05 0.10433)
(2.1341e-05 2.16855e-05 0.104223)
(-4.24903e-05 -4.24533e-05 0.10434)
(-1.09628e-05 -2.04107e-05 0.107456)
(1.08401e-05 -2.05391e-05 0.107456)
(-5.78063e-06 -1.41918e-05 0.107452)
(5.45124e-06 -1.41466e-05 0.107452)
(-2.13496e-05 2.15904e-05 0.104224)
(4.22646e-05 -4.24057e-05 0.10434)
(-2.06524e-05 -1.04767e-05 0.107458)
(-2.04429e-05 1.10142e-05 0.107455)
(-1.44095e-05 -5.62424e-06 0.107454)
(-1.44645e-05 5.76019e-06 0.107451)
(2.04375e-05 1.10528e-05 0.107456)
(1.40697e-05 -5.55641e-06 0.107454)
(1.43218e-05 5.97031e-06 0.107452)
(2.15657e-05 -2.13611e-05 0.104223)
(-4.25493e-05 4.2514e-05 0.104339)
(1.056e-05 2.06305e-05 0.107457)
(-5.75057e-06 1.46359e-05 0.107454)
(5.68242e-06 1.47044e-05 0.107453)
(4.24957e-05 4.26336e-05 0.104339)
(2.92411e-05 2.91031e-05 0.10423)
(-3.74656e-05 -3.7829e-05 0.104325)
(-1.59693e-06 -5.40496e-06 0.107448)
(1.52324e-06 -5.27408e-06 0.107447)
(-1.59274e-06 -8.33525e-08 0.107431)
(2.01558e-06 -4.07572e-08 0.107431)
(-2.93773e-05 2.91603e-05 0.10423)
(3.77575e-05 -3.78238e-05 0.104325)
(-5.37825e-06 -1.86908e-06 0.10745)
(-5.57838e-06 1.55127e-06 0.107447)
(2.94712e-07 -2.21134e-06 0.107433)
(2.18761e-07 1.49885e-06 0.107429)
(5.52221e-06 1.61235e-06 0.107448)
(2.70346e-08 -2.2331e-06 0.107433)
(4.08315e-09 1.30208e-06 0.10743)
(2.90567e-05 -2.9248e-05 0.10423)
(-3.7617e-05 3.74124e-05 0.104324)
(1.8773e-06 5.55396e-06 0.107449)
(-1.90331e-06 -5.41757e-07 0.107432)
(2.09731e-06 -6.25167e-07 0.107432)
(3.77659e-05 3.72676e-05 0.104324)
(2.85679e-05 2.83732e-05 0.104222)
(-5.47518e-05 -5.41694e-05 0.104397)
(-7.03962e-06 -1.00282e-05 0.107432)
(7.30355e-06 -1.00883e-05 0.107432)
(-2.11074e-05 -3.88275e-05 0.107473)
(2.07359e-05 -3.89728e-05 0.107473)
(-2.83546e-05 2.83121e-05 0.104223)
(5.44643e-05 -5.43083e-05 0.104398)
(-9.83322e-06 -7.29225e-06 0.107434)
(-9.71262e-06 6.98183e-06 0.107431)
(-3.93073e-05 -2.03879e-05 0.107474)
(-3.8993e-05 2.1297e-05 0.107471)
(9.87777e-06 6.88098e-06 0.107432)
(3.90444e-05 -2.05115e-05 0.107475)
(3.87402e-05 2.15024e-05 0.107472)
(2.85291e-05 -2.86568e-05 0.104221)
(-5.43422e-05 5.48495e-05 0.104396)
(7.18154e-06 9.51872e-06 0.107433)
(-2.0711e-05 3.94712e-05 0.107473)
(2.04105e-05 3.95726e-05 0.107473)
(5.41198e-05 5.50205e-05 0.104396)
(1.2294e-05 1.27933e-05 0.104294)
(-5.7226e-05 -5.76969e-05 0.104348)
(-2.09704e-05 -3.63795e-05 0.107485)
(2.06371e-05 -3.64294e-05 0.107484)
(-1.17478e-05 -1.18192e-05 0.107432)
(1.19872e-05 -1.1645e-05 0.107432)
(-1.25634e-05 1.26869e-05 0.104295)
(5.74799e-05 -5.74867e-05 0.104349)
(-3.68229e-05 -2.03821e-05 0.107486)
(-3.66722e-05 2.12021e-05 0.107483)
(-1.16174e-05 -1.22383e-05 0.107434)
(-1.19255e-05 1.17632e-05 0.107432)
(3.63981e-05 2.13455e-05 0.107484)
(1.1723e-05 -1.20092e-05 0.107434)
(1.20375e-05 1.15581e-05 0.107432)
(1.26004e-05 -1.22084e-05 0.104294)
(-5.76408e-05 5.72486e-05 0.104349)
(2.0471e-05 3.7186e-05 0.107485)
(-1.20975e-05 1.17588e-05 0.107434)
(1.23585e-05 1.16455e-05 0.107434)
(5.78347e-05 5.70551e-05 0.104348)
(1.38642e-05 1.33522e-05 0.104227)
(-3.37863e-05 -3.37597e-05 0.104271)
(-7.20981e-06 -6.358e-06 0.107387)
(7.52301e-06 -6.1982e-06 0.107386)
(-2.13272e-06 -1.52179e-05 0.107304)
(2.10161e-06 -1.52762e-05 0.107303)
(-1.36099e-05 1.35296e-05 0.104227)
(3.36959e-05 -3.3885e-05 0.104271)
(-6.0361e-06 -7.86803e-06 0.107388)
(-6.3217e-06 7.11633e-06 0.107386)
(-1.51276e-05 -2.28579e-06 0.107305)
(-1.49942e-05 1.89666e-06 0.107302)
(6.53895e-06 6.90438e-06 0.107386)
(1.51901e-05 -2.36836e-06 0.107306)
(1.51122e-05 2.00779e-06 0.107303)
(1.34192e-05 -1.39192e-05 0.104227)
(-3.37194e-05 3.36347e-05 0.10427)
(7.95144e-06 5.92917e-06 0.107388)
(-2.15675e-06 1.48324e-05 0.107304)
(2.15774e-06 1.49329e-05 0.107304)
(3.36765e-05 3.3749e-05 0.10427)
(3.75753e-05 3.77042e-05 0.104191)
(-1.02877e-05 -1.00889e-05 0.104527)
(-4.60186e-06 -1.94884e-05 0.10732)
(4.42574e-06 -1.95859e-05 0.10732)
(3.62377e-07 -8.82486e-06 0.107514)
(-5.175e-07 -8.84944e-06 0.107513)
(-3.77327e-05 3.75342e-05 0.104192)
(1.02603e-05 -1.01015e-05 0.104527)
(-1.95516e-05 -4.49384e-06 0.107321)
(-1.93101e-05 4.41146e-06 0.107318)
(-9.06285e-06 7.23578e-07 0.107515)
(-8.92021e-06 -2.63837e-07 0.107512)
(1.93294e-05 4.59934e-06 0.107319)
(8.90819e-06 6.08433e-07 0.107515)
(8.78451e-06 -1.90931e-07 0.107513)
(3.7687e-05 -3.77337e-05 0.10419)
(-1.02203e-05 1.04302e-05 0.104526)
(4.36214e-06 1.94288e-05 0.10732)
(5.00962e-07 9.13006e-06 0.107514)
(-6.95953e-07 9.12662e-06 0.107514)
(1.0089e-05 1.04194e-05 0.104526)
(5.9924e-05 6.00707e-05 0.104451)
(-3.11644e-05 -3.1433e-05 0.104617)
(3.35441e-06 3.01204e-06 0.107602)
(-3.38375e-06 3.03953e-06 0.107602)
(1.43487e-05 4.43256e-05 0.107721)
(-1.40993e-05 4.44273e-05 0.107721)
(-5.9928e-05 6.00988e-05 0.104451)
(3.13794e-05 -3.12612e-05 0.104618)
(2.85087e-06 3.57394e-06 0.107603)
(2.87154e-06 -3.20139e-06 0.1076)
(4.44407e-05 1.40378e-05 0.107722)
(4.42827e-05 -1.42518e-05 0.10772)
(-2.96147e-06 -3.22242e-06 0.107601)
(-4.425e-05 1.41807e-05 0.107723)
(-4.41701e-05 -1.43954e-05 0.10772)
(5.9987e-05 -5.98066e-05 0.10445)
(-3.1301e-05 3.12661e-05 0.104617)
(-3.50049e-06 -2.75181e-06 0.107603)
(1.41813e-05 -4.42549e-05 0.107722)
(-1.39517e-05 -4.4357e-05 0.107722)
(3.14769e-05 3.11197e-05 0.104617)
(3.07208e-05 3.04542e-05 0.104468)
(-9.8331e-05 -9.83667e-05 0.104255)
(1.36594e-05 4.0706e-05 0.107686)
(-1.34334e-05 4.07712e-05 0.107685)
(-2.109e-05 -3.69518e-05 0.107377)
(2.102e-05 -3.7009e-05 0.107377)
(-3.05417e-05 3.05726e-05 0.104468)
(9.82667e-05 -9.84808e-05 0.104255)
(4.08773e-05 1.32879e-05 0.107687)
(4.0711e-05 -1.363e-05 0.107685)
(-3.6905e-05 -2.11984e-05 0.107379)
(-3.69122e-05 2.09574e-05 0.107375)
(-4.05832e-05 -1.37323e-05 0.107685)
(3.69119e-05 -2.12921e-05 0.107379)
(3.69315e-05 2.10686e-05 0.107377)
(3.05694e-05 -3.06727e-05 0.104468)
(-9.83354e-05 9.82075e-05 0.104254)
(-1.3251e-05 -4.08205e-05 0.107687)
(-2.1144e-05 3.67682e-05 0.107378)
(2.11259e-05 3.68948e-05 0.107378)
(9.83182e-05 9.83658e-05 0.104254)
(-3.98348e-05 -3.98225e-05 0.104109)
(-0.000110477 -0.000110367 0.104129)
(-3.71398e-05 -7.29827e-05 0.107254)
(3.70068e-05 -7.30558e-05 0.107254)
(-6.90224e-05 -0.000142045 0.107061)
(6.89436e-05 -0.000142024 0.10706)
(3.97332e-05 -3.99734e-05 0.104109)
(0.000110419 -0.000110386 0.104129)
(-7.30266e-05 -3.71344e-05 0.107256)
(-7.29398e-05 3.70034e-05 0.107253)
(-0.000142178 -6.88846e-05 0.107062)
(-0.000142 6.90272e-05 0.107059)
(7.2921e-05 3.7143e-05 0.107254)
(0.000142044 -6.8867e-05 0.107063)
(0.000141954 6.90471e-05 0.10706)
(-3.9838e-05 3.96744e-05 0.104108)
(-0.000110351 0.000110428 0.104128)
(3.70521e-05 7.29898e-05 0.107255)
(-6.88913e-05 0.000142047 0.107061)
(6.88526e-05 0.000142103 0.107061)
(0.000110344 0.000110471 0.104128)
(-4.1891e-05 -4.17904e-05 0.104068)
(-4.77781e-05 -4.78016e-05 0.104406)
(-7.20453e-05 -0.000139514 0.107071)
(7.20346e-05 -0.000139453 0.107071)
(-4.75821e-05 -7.27393e-05 0.107232)
(4.77195e-05 -7.26662e-05 0.107232)
(4.18341e-05 -4.18023e-05 0.104068)
(4.78557e-05 -4.77636e-05 0.104406)
(-0.000139633 -7.19532e-05 0.107073)
(-0.000139465 7.21038e-05 0.10707)
(-7.27566e-05 -4.76652e-05 0.107234)
(-7.26912e-05 4.76986e-05 0.107231)
(0.00013945 7.20793e-05 0.107071)
(7.28351e-05 -4.75823e-05 0.107234)
(7.27895e-05 4.76308e-05 0.107232)
(-4.17863e-05 4.18408e-05 0.104067)
(-4.77573e-05 4.78336e-05 0.104405)
(7.19535e-05 0.000139572 0.107072)
(-4.76009e-05 7.28479e-05 0.107233)
(4.77314e-05 7.27719e-05 0.107233)
(4.78405e-05 4.7775e-05 0.104405)
(3.04186e-05 3.03736e-05 0.10437)
(2.59837e-05 2.59963e-05 0.104733)
(-2.97077e-05 -4.0902e-05 0.107317)
(2.98379e-05 -4.08528e-05 0.107317)
(3.15095e-05 5.83828e-05 0.107587)
(-3.15242e-05 5.83159e-05 0.107587)
(-3.03633e-05 3.0396e-05 0.10437)
(-2.6008e-05 2.59403e-05 0.104733)
(-4.08886e-05 -2.98108e-05 0.107319)
(-4.0864e-05 2.97974e-05 0.107316)
(5.838e-05 3.14579e-05 0.107588)
(5.83654e-05 -3.15713e-05 0.107586)
(4.09881e-05 2.97458e-05 0.107317)
(-5.83219e-05 3.13987e-05 0.107589)
(-5.83298e-05 -3.15304e-05 0.107587)
(3.03965e-05 -3.03937e-05 0.104369)
(2.5938e-05 -2.60236e-05 0.104732)
(2.9874e-05 4.09276e-05 0.107318)
(3.14117e-05 -5.83604e-05 0.107588)
(-3.14581e-05 -5.83541e-05 0.107588)
(-2.60141e-05 -2.60111e-05 0.104732)
(0.000101166 0.000101181 0.104651)
(2.00333e-05 2.01046e-05 0.104736)
(4.49803e-05 8.29388e-05 0.107663)
(-4.50693e-05 8.28514e-05 0.107663)
(6.22081e-05 0.000114293 0.10774)
(-6.2418e-05 0.000114222 0.107739)
(-0.000101234 0.000101104 0.104652)
(-2.01079e-05 2.0052e-05 0.104737)
(8.29124e-05 4.49632e-05 0.107665)
(8.29058e-05 -4.5095e-05 0.107662)
(0.000114219 6.22969e-05 0.107741)
(0.000114244 -6.23688e-05 0.107738)
(-8.29232e-05 -4.50137e-05 0.107663)
(-0.000114337 6.21939e-05 0.107742)
(-0.000114349 -6.22296e-05 0.107739)
(0.000101104 -0.000101251 0.104651)
(2.00424e-05 -2.0091e-05 0.104736)
(-4.49926e-05 -8.29042e-05 0.107664)
(6.21851e-05 -0.000114313 0.107741)
(-6.23542e-05 -0.000114236 0.107741)
(-2.01441e-05 -2.0024e-05 0.104736)
(8.56308e-05 8.57193e-05 0.104598)
(-3.18816e-05 -3.18744e-05 0.104512)
(5.72919e-05 0.000101965 0.107719)
(-5.7481e-05 0.000101936 0.107718)
(2.94523e-05 3.8522e-05 0.107567)
(-2.94549e-05 3.85592e-05 0.107566)
(-8.57457e-05 8.56718e-05 0.104598)
(3.19164e-05 -3.18221e-05 0.104512)
(0.000101909 5.73844e-05 0.10772)
(0.000101929 -5.74213e-05 0.107717)
(3.84851e-05 2.94824e-05 0.107568)
(3.85372e-05 -2.94242e-05 0.107565)
(-0.000102009 -5.72953e-05 0.107718)
(-3.8543e-05 2.94939e-05 0.107569)
(-3.85496e-05 -2.94367e-05 0.107566)
(8.56836e-05 -8.57224e-05 0.104597)
(-3.18367e-05 3.19161e-05 0.104511)
(-5.74348e-05 -0.000101927 0.10772)
(2.94564e-05 -3.8518e-05 0.107568)
(-2.94669e-05 -3.851e-05 0.107568)
(3.18772e-05 3.18729e-05 0.104511)
(2.86903e-05 2.86734e-05 0.104377)
(-7.29846e-05 -7.30691e-05 0.104376)
(1.32546e-05 7.79565e-06 0.107504)
(-1.31961e-05 7.85142e-06 0.107503)
(-2.57117e-05 -5.70319e-05 0.107372)
(2.58517e-05 -5.69923e-05 0.107372)
(-2.86445e-05 2.87316e-05 0.104377)
(7.30893e-05 -7.30022e-05 0.104377)
(7.77398e-06 1.32434e-05 0.107505)
(7.83209e-06 -1.31807e-05 0.107502)
(-5.7044e-05 -2.58231e-05 0.107374)
(-5.69725e-05 2.58134e-05 0.107371)
(-7.81494e-06 -1.32446e-05 0.107503)
(5.70828e-05 -2.57243e-05 0.107374)
(5.70519e-05 2.57255e-05 0.107372)
(2.87026e-05 -2.86589e-05 0.104376)
(-7.29844e-05 7.30351e-05 0.104376)
(-1.32209e-05 -7.79336e-06 0.107505)
(-2.57393e-05 5.70899e-05 0.107373)
(2.58399e-05 5.70261e-05 0.107373)
(7.30728e-05 7.29358e-05 0.104376)
(-1.54116e-05 -1.54691e-05 0.104296)
(-6.85027e-05 -6.85391e-05 0.104425)
(-4.19146e-05 -7.84318e-05 0.10734)
(4.20392e-05 -7.83577e-05 0.10734)
(-4.6314e-05 -7.94729e-05 0.107378)
(4.6377e-05 -7.94769e-05 0.107378)
(1.54854e-05 -1.54117e-05 0.104296)
(6.85025e-05 -6.85421e-05 0.104426)
(-7.8419e-05 -4.20163e-05 0.107342)
(-7.8324e-05 4.19977e-05 0.107339)
(-7.95036e-05 -4.63961e-05 0.10738)
(-7.94465e-05 4.63461e-05 0.107377)
(7.8453e-05 4.19337e-05 0.10734)
(7.9531e-05 -4.63705e-05 0.10738)
(7.95068e-05 4.63477e-05 0.107378)
(-1.53872e-05 1.54306e-05 0.104296)
(-6.85348e-05 6.85016e-05 0.104425)
(4.20346e-05 7.84025e-05 0.107341)
(-4.63536e-05 7.9554e-05 0.107379)
(4.63961e-05 7.9513e-05 0.107379)
(6.85409e-05 6.84949e-05 0.104425)
(-2.67522e-05 -2.66435e-05 0.104452)
(-6.4084e-05 -6.39997e-05 0.104767)
(-5.82502e-05 -9.01545e-05 0.107373)
(5.82961e-05 -9.0154e-05 0.107373)
(-5.4411e-05 -0.000100092 0.107726)
(5.44162e-05 -0.000100132 0.107726)
(2.67721e-05 -2.66813e-05 0.104452)
(6.4056e-05 -6.39887e-05 0.104767)
(-9.02036e-05 -5.83303e-05 0.107374)
(-9.01289e-05 5.82679e-05 0.107372)
(-0.00010026 -5.43516e-05 0.107727)
(-0.000100193 5.44163e-05 0.107725)
(9.01783e-05 5.82804e-05 0.107373)
(0.00010021 -5.43338e-05 0.107727)
(0.000100153 5.43983e-05 0.107725)
(-2.66681e-05 2.67394e-05 0.104451)
(-6.40319e-05 6.40482e-05 0.104766)
(5.83382e-05 9.02204e-05 0.107374)
(-5.43893e-05 0.000100206 0.107726)
(5.43806e-05 0.000100235 0.107726)
(6.40112e-05 6.40287e-05 0.104767)
(-6.22652e-05 -6.21829e-05 0.105103)
(-4.50176e-05 -8.74337e-05 0.107882)
(4.50244e-05 -8.74733e-05 0.107882)
(6.22312e-05 -6.21631e-05 0.105103)
(-8.76068e-05 -4.49401e-05 0.107883)
(-8.75584e-05 4.50236e-05 0.107882)
(7.70444e-05 -7.69492e-05 0.111003)
(-7.7022e-05 7.70521e-05 0.111002)
(7.70329e-05 7.70431e-05 0.111003)
(8.75075e-05 4.49964e-05 0.107882)
(-6.22289e-05 6.22237e-05 0.105102)
(4.49731e-05 8.75842e-05 0.107883)
(-1.49989e-07 -1.12703e-05 0.0914219)
(-8.99634e-07 -7.72335e-06 0.0822861)
(2.43953e-06 -2.83413e-06 0.0716053)
(-7.73145e-06 -9.28294e-07 0.0822868)
(-1.32448e-05 -1.32977e-05 0.112452)
(1.33798e-05 -1.3345e-05 0.112452)
(-1.32931e-05 1.33526e-05 0.112451)
(1.3342e-05 1.33131e-05 0.112451)
(2.07118e-05 -4.14063e-07 0.0985726)
(1.27479e-05 -6.44587e-06 0.107489)
(1.53779e-05 -4.34186e-06 0.0930643)
(1.4522e-05 -2.99579e-06 0.109907)
(-4.74531e-07 -1.30268e-05 0.0914541)
(-1.20907e-07 4.63921e-06 0.0822696)
(-3.81589e-07 8.43024e-08 0.0914139)
(-2.03137e-06 -8.50408e-06 0.0823199)
(-7.17548e-07 2.3406e-06 0.0715856)
(2.77414e-06 -3.58003e-06 0.0716395)
(-1.30287e-05 -4.21083e-07 0.0914542)
(4.64974e-06 -1.00123e-07 0.0822705)
(8.20123e-08 -3.44901e-07 0.0914139)
(-8.4899e-06 -2.01877e-06 0.0823206)
(1.28097e-05 -1.29106e-05 0.112443)
(-1.27745e-05 1.2808e-05 0.112442)
(1.28353e-05 1.28958e-05 0.112442)
(-8.56693e-06 -8.58787e-06 0.112419)
(8.37856e-06 -8.52969e-06 0.112419)
(-8.48295e-06 8.39413e-06 0.112418)
(8.46976e-06 8.50523e-06 0.112418)
(2.22176e-05 -5.16954e-07 0.0985976)
(-3.19942e-06 7.51675e-07 0.0930381)
(1.63388e-05 -2.80546e-06 0.109895)
(1.11379e-05 -5.90697e-06 0.107484)
(-5.00429e-07 -3.72153e-07 0.0985415)
(1.63866e-05 -6.56668e-06 0.0930929)
(1.50775e-05 -2.6831e-06 0.109891)
(2.42159e-06 -7.67451e-07 0.0715877)
(-3.65367e-06 2.81015e-06 0.0716374)
(-6.5482e-07 2.22554e-05 0.0985974)
(-2.70656e-06 1.63659e-05 0.109894)
(7.21997e-07 -3.20885e-06 0.0930381)
(-5.83898e-06 1.12186e-05 0.107483)
(-4.11526e-07 -4.8482e-07 0.0985411)
(-2.64294e-06 1.51801e-05 0.10989)
(-6.65918e-06 1.63201e-05 0.093092)
(1.26188e-07 -1.21377e-06 0.0875906)
(-1.19327e-06 1.31971e-07 0.0875899)
(4.35993e-05 4.37081e-05 0.104316)
(7.03056e-06 6.27252e-06 0.0876352)
(6.34163e-06 7.00712e-06 0.0876338)
(-5.06822e-08 -1.08826e-05 0.0914843)
(1.13247e-06 4.04157e-06 0.0823098)
(-2.34518e-07 8.10808e-07 0.0914433)
(-5.84746e-07 -7.67242e-06 0.0823561)
(-1.61735e-06 2.26076e-06 0.0716229)
(2.39745e-06 -2.63372e-06 0.0716681)
(-1.08723e-05 -7.89847e-08 0.0914844)
(4.03982e-06 1.15224e-06 0.0823106)
(8.35519e-07 -2.40044e-07 0.0914433)
(-7.68846e-06 -5.67186e-07 0.0823568)
(8.57932e-06 -8.57875e-06 0.112412)
(-8.62897e-06 8.55136e-06 0.112411)
(8.60812e-06 8.51121e-06 0.112411)
(-1.51002e-05 -1.49997e-05 0.112381)
(1.53342e-05 -1.50379e-05 0.112381)
(-1.51443e-05 1.52941e-05 0.11238)
(1.51703e-05 1.51411e-05 0.11238)
(2.02224e-05 -4.12847e-07 0.098613)
(-3.64717e-06 8.46762e-07 0.0930657)
(1.10841e-05 -2.90968e-06 0.109877)
(1.16449e-05 -6.30362e-06 0.107472)
(-1.94039e-06 -7.73604e-07 0.0985586)
(1.52772e-05 -3.74498e-06 0.093122)
(1.23235e-05 -3.12535e-06 0.10987)
(2.34513e-06 -1.67907e-06 0.0716249)
(-2.68266e-06 2.46802e-06 0.0716657)
(-3.63032e-07 2.01395e-05 0.0986125)
(-2.98041e-06 1.10794e-05 0.109876)
(8.13242e-07 -3.66802e-06 0.0930658)
(-6.43958e-06 1.15063e-05 0.107471)
(-7.54291e-07 -1.99872e-06 0.0985584)
(-3.17992e-06 1.2185e-05 0.109869)
(-3.64069e-06 1.53095e-05 0.093121)
(-5.35519e-07 -2.32493e-06 0.0876252)
(-2.33491e-06 -5.06391e-07 0.0876244)
(4.43278e-05 4.41795e-05 0.104315)
(6.32067e-06 4.2723e-06 0.0876682)
(4.16525e-06 6.38584e-06 0.0876666)
(-5.90649e-07 -1.30158e-05 0.0915199)
(-7.40971e-07 5.39156e-06 0.0823372)
(-3.68058e-07 2.38666e-07 0.0914788)
(-3.06493e-06 -7.8635e-06 0.0823864)
(3.1195e-07 2.97132e-06 0.0716445)
(3.81061e-06 -3.23703e-06 0.0716988)
(-1.30534e-05 -5.9124e-07 0.0915201)
(5.39986e-06 -7.56355e-07 0.082338)
(2.26856e-07 -3.80214e-07 0.0914789)
(-7.88532e-06 -3.0814e-06 0.0823871)
(1.67172e-05 -1.65227e-05 0.112369)
(-1.6594e-05 1.67843e-05 0.112368)
(1.66032e-05 1.6773e-05 0.112368)
(-9.92012e-06 -9.94497e-06 0.112343)
(9.66211e-06 -9.93259e-06 0.112343)
(-9.87341e-06 9.80252e-06 0.112342)
(9.84343e-06 1.0004e-05 0.112342)
(2.32338e-05 -5.18653e-07 0.098646)
(-3.04913e-06 1.08272e-06 0.0930989)
(2.10564e-05 -3.2388e-06 0.109855)
(1.47297e-05 -7.19722e-06 0.107469)
(4.16242e-07 -2.65312e-07 0.0985861)
(1.62487e-05 -7.42488e-06 0.093155)
(2.08678e-05 -2.97922e-06 0.109851)
(3.07736e-06 3.0353e-07 0.0716463)
(-3.29995e-06 3.91206e-06 0.0716965)
(-5.31989e-07 2.3341e-05 0.0986458)
(-3.30008e-06 2.0982e-05 0.109853)
(1.21818e-06 -2.97828e-06 0.0930988)
(-7.08962e-06 1.49367e-05 0.107468)
(-2.70255e-07 4.09969e-07 0.0985856)
(-3.00545e-06 2.09812e-05 0.109851)
(-7.40161e-06 1.62885e-05 0.0931541)
(-3.02901e-07 -8.71264e-07 0.0876555)
(-9.31214e-07 -2.51973e-07 0.0876547)
(4.40742e-05 4.4313e-05 0.104325)
(6.64498e-06 7.37072e-06 0.0877009)
(7.45358e-06 6.61265e-06 0.0876995)
(1.04583e-07 -9.07268e-06 0.0915437)
(1.67174e-06 3.35683e-06 0.0823757)
(-3.6696e-07 1.48149e-06 0.0915061)
(1.74726e-06 -8.41548e-06 0.0824203)
(-2.71677e-06 1.52447e-06 0.0716844)
(-5.40371e-08 -3.335e-06 0.0717259)
(-9.06657e-06 2.33808e-07 0.0915438)
(3.31273e-06 1.74932e-06 0.0823765)
(1.45632e-06 -2.97153e-07 0.0915061)
(-8.45901e-06 1.86431e-06 0.082421)
(6.38338e-06 -6.66325e-06 0.112339)
(-6.54885e-06 6.35253e-06 0.112338)
(6.56136e-06 6.42809e-06 0.112338)
(-1.30391e-05 -1.32064e-05 0.112319)
(1.33963e-05 -1.32398e-05 0.11232)
(-1.30703e-05 1.30167e-05 0.112318)
(1.31731e-05 1.28168e-05 0.112318)
(1.70079e-05 -5.04055e-07 0.0986565)
(-5.04145e-06 -4.06645e-07 0.0931257)
(7.68882e-06 -2.64189e-06 0.109846)
(6.46344e-06 -4.90901e-06 0.107463)
(-3.67088e-06 -1.04003e-06 0.0986078)
(1.36987e-05 -2.30626e-06 0.0931786)
(5.98015e-06 -2.93906e-06 0.109842)
(1.60266e-06 -2.75188e-06 0.0716868)
(-3.41343e-06 -7.42123e-09 0.071724)
(-6.01697e-07 1.69112e-05 0.0986564)
(-2.37771e-06 7.89042e-06 0.109845)
(-6.48707e-07 -5.10227e-06 0.0931259)
(-4.85666e-06 6.23332e-06 0.107462)
(-9.74109e-07 -3.60111e-06 0.098608)
(-2.66836e-06 5.89903e-06 0.109841)
(-2.4941e-06 1.36068e-05 0.0931777)
(-1.14082e-06 -2.37014e-06 0.0876906)
(-2.26696e-06 -1.1688e-06 0.08769)
(4.1985e-05 4.16466e-05 0.104328)
(6.04583e-06 1.98712e-06 0.0877315)
(1.90119e-06 6.11398e-06 0.0877301)
(-4.99247e-07 -1.81921e-05 0.0915885)
(2.90565e-07 5.7977e-06 0.0823957)
(3.29467e-08 -5.46212e-07 0.0915411)
(-5.00209e-06 -7.91861e-06 0.0824502)
(-3.36954e-07 3.36902e-06 0.0716913)
(5.90617e-06 -2.87087e-06 0.0717538)
(-1.81668e-05 -5.67733e-07 0.0915888)
(5.834e-06 3.08721e-07 0.0823967)
(-5.04544e-07 1.21777e-07 0.0915412)
(-7.86541e-06 -5.11353e-06 0.082451)
(1.94677e-05 -1.92035e-05 0.112306)
(-1.91448e-05 1.93033e-05 0.112304)
(1.91701e-05 1.92076e-05 0.112304)
(-1.62975e-05 -1.5743e-05 0.112257)
(1.57988e-05 -1.56928e-05 0.112257)
(-1.61729e-05 1.65134e-05 0.112256)
(1.59228e-05 1.6694e-05 0.112256)
(2.9267e-05 -2.26342e-08 0.0986944)
(-1.45744e-06 4.75114e-06 0.0931558)
(2.38535e-05 -4.36576e-06 0.109822)
(2.31235e-05 -1.0798e-05 0.107458)
(1.70572e-06 2.49563e-07 0.0986286)
(2.14942e-05 -7.29784e-06 0.0932161)
(2.90322e-05 -4.25829e-06 0.109814)
(3.44086e-06 -4.75149e-07 0.0716932)
(-2.91635e-06 5.90475e-06 0.071751)
(-1.64307e-07 2.93273e-05 0.0986937)
(-4.70913e-06 2.34991e-05 0.10982)
(4.88354e-06 -1.45902e-06 0.0931557)
(-1.10255e-05 2.32868e-05 0.107457)
(-4.4119e-08 1.54193e-06 0.0986277)
(-4.76993e-06 2.90222e-05 0.109813)
(-7.04496e-06 2.15228e-05 0.0932153)
(1.88689e-06 -2.73446e-06 0.0877144)
(-2.94279e-06 1.99488e-06 0.0877135)
(4.85178e-05 4.91157e-05 0.104338)
(1.04307e-05 9.6835e-06 0.0877616)
(9.67207e-06 1.03955e-05 0.08776)
(-4.24078e-07 -6.36753e-06 0.0916164)
(-2.83795e-06 6.30908e-07 0.0824695)
(-1.31033e-06 -4.33838e-06 0.0915809)
(-2.48429e-07 -8.45937e-06 0.0825248)
(1.54981e-06 1.13713e-06 0.0717797)
(2.25542e-06 -2.31199e-06 0.0718266)
(-6.4257e-06 -5.0924e-07 0.0916167)
(6.39373e-07 -2.97296e-06 0.0824704)
(-4.39235e-06 -1.5618e-06 0.0915812)
(-8.51759e-06 -2.47527e-07 0.0825256)
(6.13569e-06 -6.16575e-06 0.112251)
(-6.59065e-06 6.69843e-06 0.11225)
(6.4156e-06 6.81742e-06 0.11225)
(4.04495e-06 3.37371e-06 0.112257)
(-3.61101e-06 3.40334e-06 0.112257)
(3.81346e-06 -4.35173e-06 0.112256)
(-3.51512e-06 -4.48548e-06 0.112256)
(1.53397e-05 -1.33385e-06 0.0987001)
(5.15778e-07 -8.58741e-06 0.0931909)
(9.8617e-06 -9.53924e-07 0.109803)
(-2.08858e-06 7.55411e-07 0.107443)
(3.47358e-06 -1.50148e-06 0.0986608)
(1.15875e-05 -7.75899e-06 0.0932423)
(-1.317e-06 -1.53888e-07 0.109801)
(1.26579e-06 1.60598e-06 0.0717811)
(-2.34027e-06 2.4605e-06 0.0718241)
(-1.01157e-06 1.53645e-05 0.0987006)
(-9.2334e-07 1.04835e-05 0.109802)
(-8.61984e-06 6.33811e-07 0.0931915)
(8.80725e-07 -2.02443e-06 0.107443)
(-1.13777e-06 3.69917e-06 0.0986613)
(2.36777e-07 -1.05818e-06 0.1098)
(-7.91191e-06 1.16679e-05 0.0932417)
(-9.62013e-07 4.57171e-06 0.0877648)
(4.8325e-06 -1.08439e-06 0.0877642)
(3.66299e-05 3.59731e-05 0.104329)
(3.85731e-08 4.19557e-06 0.0878139)
(4.30948e-06 6.51275e-08 0.0878127)
(4.82102e-07 -1.12267e-06 0.0916463)
(4.75071e-06 1.49484e-05 0.0824546)
(8.08737e-07 2.03968e-05 0.0916035)
(-8.38371e-07 2.35971e-06 0.082449)
(-3.17491e-06 9.13868e-06 0.0717191)
(2.35684e-06 8.29183e-07 0.0717129)
(-1.07386e-06 7.47764e-07 0.0916464)
(1.48899e-05 4.8995e-06 0.0824556)
(2.04169e-05 1.08268e-06 0.0916034)
(2.37813e-06 -7.68404e-07 0.0824498)
(7.28072e-06 -7.43629e-06 0.112254)
(-6.87215e-06 6.43134e-06 0.112253)
(7.16037e-06 6.32816e-06 0.112253)
(-4.73167e-05 -4.67753e-05 0.112193)
(4.70453e-05 -4.69437e-05 0.112193)
(-4.70057e-05 4.74819e-05 0.112192)
(4.67133e-05 4.76026e-05 0.112192)
(1.28177e-05 9.81161e-07 0.0987535)
(-2.20884e-05 1.52651e-05 0.0932157)
(9.75232e-06 -3.56375e-06 0.109792)
(2.28616e-05 -1.28002e-05 0.107443)
(-1.74929e-05 -8.06679e-08 0.0986682)
(1.39166e-06 7.20302e-06 0.0932786)
(2.81512e-05 -5.92308e-06 0.109787)
(9.18456e-06 -3.20879e-06 0.0717215)
(7.17588e-07 2.34091e-06 0.0717104)
(4.80886e-07 1.27289e-05 0.0987522)
(-3.16633e-06 8.9284e-06 0.10979)
(1.52007e-05 -2.21107e-05 0.0932155)
(-1.26711e-05 2.2527e-05 0.107441)
(-2.65017e-07 -1.77019e-05 0.0986673)
(-5.90291e-06 2.75381e-05 0.109785)
(7.36748e-06 1.28764e-06 0.0932776)
(-1.10821e-05 -1.33101e-05 0.0877843)
(-1.36071e-05 -1.08857e-05 0.0877837)
(4.70043e-05 4.74824e-05 0.104351)
(1.85225e-06 -1.84738e-06 0.0878085)
(-2.08085e-06 1.91565e-06 0.087807)
(-2.13953e-06 -5.06669e-05 0.091673)
(-1.79148e-06 -2.22388e-06 0.0824359)
(-1.55343e-06 -2.34467e-05 0.0916308)
(-2.6205e-06 -2.73655e-05 0.0825643)