/*--------------------------------*- C++ -*----------------------------------*\
| =========                 |                                                 |
| \\      /  F ield         | OpenFOAM: The Open Source CFD Toolbox           |
|  \\    /   O peration     | Version:  2312                                  |
|   \\  /    A nd           | Website:  www.openfoam.com                      |
|    \\/     M anipulation  |                                                 |
\*---------------------------------------------------------------------------*/
FoamFile
{
    version     2.0;
    format      ascii;
    arch        "LSB;label=32;scalar=64";
    class       volScalarField;
    location    "375";
    object      epsilon;
}
// * * * * * * * * * * * * * * * * * * * * * * * * * * * * * * * * * * * * * //

dimensions      [0 2 -3 0 0 0 0];

internalField   nonuniform List<scalar> 
42973
(
3.26836e-07
8.74475e-07
1.15967e-06
3.43029e-07
8.97994e-07
8.98157e-07
1.17908e-06
3.59434e-07
9.20526e-07
9.20633e-07
1.19754e-06
3.75975e-07
9.41948e-07
9.42098e-07
1.21505e-06
3.92612e-07
9.62423e-07
9.62574e-07
1.23173e-06
4.09254e-07
9.81894e-07
9.82023e-07
1.24755e-06
4.25784e-07
1.00033e-06
1.00047e-06
1.26253e-06
4.42159e-07
1.01779e-06
1.01792e-06
1.27672e-06
4.5831e-07
1.03426e-06
1.03441e-06
1.29013e-06
4.74139e-07
1.04979e-06
1.04991e-06
1.3028e-06
4.89633e-07
1.06436e-06
1.06451e-06
1.31474e-06
5.04699e-07
1.07805e-06
1.07817e-06
1.32598e-06
5.19299e-07
1.09079e-06
1.09094e-06
1.3365e-06
5.33439e-07
1.10279e-06
1.10291e-06
1.34645e-06
5.46972e-07
1.11376e-06
1.11389e-06
1.3556e-06
5.60045e-07
1.12418e-06
1.12431e-06
1.36434e-06
5.72376e-07
1.13352e-06
1.13365e-06
1.37224e-06
5.84294e-07
1.1424e-06
1.14252e-06
1.37981e-06
5.95338e-07
1.15031e-06
1.1504e-06
1.38648e-06
6.05985e-07
1.15759e-06
1.15777e-06
1.39305e-06
6.15877e-07
1.16437e-06
1.16439e-06
1.39858e-06
6.24964e-07
1.1699e-06
1.1701e-06
1.40389e-06
6.33999e-07
1.17591e-06
1.17598e-06
1.40893e-06
6.4125e-07
1.17951e-06
1.17963e-06
1.41237e-06
6.49523e-07
1.185e-06
1.18511e-06
1.41741e-06
6.55118e-07
1.18675e-06
1.18687e-06
1.41891e-06
6.62302e-07
1.19178e-06
1.19185e-06
1.42395e-06
1.15951e-06
1.17345e-06
8.74619e-07
8.7459e-07
8.92388e-07
8.92299e-07
1.15954e-06
1.17341e-06
8.74404e-07
8.92178e-07
8.92449e-07
8.74733e-07
8.92193e-07
8.92468e-07
1.17356e-06
8.74524e-07
8.92365e-07
8.92269e-07
1.17359e-06
1.17896e-06
1.19212e-06
8.98188e-07
8.981e-07
9.15153e-07
9.15102e-07
1.17892e-06
1.19214e-06
8.97979e-07
8.98243e-07
9.14938e-07
9.15194e-07
8.98265e-07
9.15006e-07
9.15238e-07
1.17907e-06
1.19221e-06
8.98062e-07
9.15118e-07
9.15035e-07
1.19226e-06
1.1974e-06
1.20981e-06
9.20667e-07
9.2062e-07
9.36848e-07
9.36768e-07
1.19743e-06
1.2098e-06
9.20451e-07
9.20709e-07
9.36635e-07
9.36891e-07
9.2076e-07
9.36683e-07
9.36938e-07
1.19749e-06
1.2099e-06
9.20552e-07
9.36824e-07
9.36738e-07
1.20996e-06
1.21491e-06
1.22668e-06
9.42122e-07
9.42033e-07
9.57563e-07
9.5747e-07
1.21489e-06
1.22665e-06
9.4191e-07
9.42166e-07
9.57353e-07
9.57612e-07
9.4221e-07
9.57393e-07
9.57649e-07
1.21501e-06
1.22678e-06
9.42006e-07
9.57553e-07
9.57452e-07
1.22682e-06
1.23159e-06
1.24269e-06
9.62589e-07
9.62499e-07
9.77286e-07
9.77197e-07
1.23157e-06
1.24267e-06
9.62378e-07
9.62634e-07
9.77072e-07
9.77314e-07
9.62675e-07
9.77128e-07
9.77365e-07
1.2317e-06
1.24278e-06
9.62474e-07
9.77261e-07
9.77165e-07
1.24283e-06
1.24742e-06
1.25783e-06
9.82049e-07
9.81961e-07
9.95965e-07
9.9587e-07
1.24741e-06
1.25781e-06
9.81835e-07
9.82077e-07
9.95754e-07
9.95998e-07
9.82131e-07
9.95809e-07
9.96047e-07
1.24751e-06
1.25792e-06
9.81927e-07
9.95951e-07
9.9585e-07
1.25797e-06
1.2624e-06
1.27219e-06
1.00049e-06
1.00039e-06
1.01367e-06
1.01357e-06
1.26238e-06
1.27217e-06
1.00027e-06
1.00052e-06
1.01346e-06
1.01369e-06
1.00057e-06
1.01352e-06
1.01375e-06
1.26249e-06
1.27228e-06
1.00037e-06
1.01365e-06
1.01355e-06
1.27233e-06
1.27659e-06
1.28577e-06
1.01794e-06
1.01784e-06
1.03039e-06
1.03028e-06
1.27658e-06
1.28575e-06
1.01773e-06
1.01796e-06
1.03018e-06
1.03042e-06
1.01802e-06
1.03023e-06
1.03046e-06
1.27668e-06
1.28586e-06
1.01782e-06
1.03038e-06
1.03027e-06
1.2859e-06
1.29001e-06
1.29859e-06
1.03442e-06
1.03431e-06
1.04613e-06
1.04604e-06
1.28999e-06
1.29857e-06
1.03421e-06
1.03444e-06
1.04592e-06
1.04615e-06
1.03449e-06
1.046e-06
1.04621e-06
1.2901e-06
1.29867e-06
1.0343e-06
1.04612e-06
1.04602e-06
1.29872e-06
1.30267e-06
1.31069e-06
1.04993e-06
1.04983e-06
1.06096e-06
1.06084e-06
1.30266e-06
1.31066e-06
1.04972e-06
1.04994e-06
1.06076e-06
1.06099e-06
1.05e-06
1.06081e-06
1.06102e-06
1.30275e-06
1.31078e-06
1.04981e-06
1.06095e-06
1.06084e-06
1.31081e-06
1.31463e-06
1.32205e-06
1.06452e-06
1.0644e-06
1.07485e-06
1.07475e-06
1.3146e-06
1.32204e-06
1.06431e-06
1.06454e-06
1.07464e-06
1.07486e-06
1.06459e-06
1.07472e-06
1.07492e-06
1.31472e-06
1.32214e-06
1.0644e-06
1.07484e-06
1.07473e-06
1.3222e-06
1.32585e-06
1.33276e-06
1.07819e-06
1.07809e-06
1.08785e-06
1.08772e-06
1.32584e-06
1.33272e-06
1.07798e-06
1.0782e-06
1.08765e-06
1.08785e-06
1.07825e-06
1.08769e-06
1.08789e-06
1.32593e-06
1.33283e-06
1.07806e-06
1.08783e-06
1.08771e-06
1.33285e-06
1.33641e-06
1.34277e-06
1.09095e-06
1.09082e-06
1.09999e-06
1.09989e-06
1.33637e-06
1.34277e-06
1.09075e-06
1.09096e-06
1.09979e-06
1.10002e-06
1.09102e-06
1.09988e-06
1.10008e-06
1.33648e-06
1.34287e-06
1.09083e-06
1.1e-06
1.09989e-06
1.34293e-06
1.34631e-06
1.35215e-06
1.10291e-06
1.10281e-06
1.11125e-06
1.11112e-06
1.34631e-06
1.35211e-06
1.1027e-06
1.10293e-06
1.11105e-06
1.11124e-06
1.10298e-06
1.1111e-06
1.11128e-06
1.3464e-06
1.3522e-06
1.10279e-06
1.11122e-06
1.1111e-06
1.35222e-06
1.35552e-06
1.36091e-06
1.11392e-06
1.11378e-06
1.12178e-06
1.12167e-06
1.35548e-06
1.3609e-06
1.11372e-06
1.11391e-06
1.12158e-06
1.12179e-06
1.11396e-06
1.12166e-06
1.12184e-06
1.35558e-06
1.36099e-06
1.11377e-06
1.12178e-06
1.12167e-06
1.36105e-06
1.36421e-06
1.36902e-06
1.1243e-06
1.1242e-06
1.13137e-06
1.13126e-06
1.36421e-06
1.36902e-06
1.12409e-06
1.12431e-06
1.13117e-06
1.13137e-06
1.12437e-06
1.13126e-06
1.13143e-06
1.3643e-06
1.3691e-06
1.12419e-06
1.13135e-06
1.13124e-06
1.36913e-06
1.37215e-06
1.37667e-06
1.13368e-06
1.13354e-06
1.14045e-06
1.14031e-06
1.37213e-06
1.3766e-06
1.13348e-06
1.13367e-06
1.14026e-06
1.14047e-06
1.13371e-06
1.1403e-06
1.14049e-06
1.37222e-06
1.37673e-06
1.13353e-06
1.14046e-06
1.14033e-06
1.37676e-06
1.37971e-06
1.38342e-06
1.14251e-06
1.14241e-06
1.14838e-06
1.14832e-06
1.37967e-06
1.3835e-06
1.14231e-06
1.14253e-06
1.14817e-06
1.14836e-06
1.14259e-06
1.14832e-06
1.14845e-06
1.37978e-06
1.3835e-06
1.14241e-06
1.14835e-06
1.14825e-06
1.38357e-06
1.38637e-06
1.39023e-06
1.15044e-06
1.15033e-06
1.15617e-06
1.15597e-06
1.38642e-06
1.39008e-06
1.15024e-06
1.15042e-06
1.15599e-06
1.15619e-06
1.15046e-06
1.15595e-06
1.15617e-06
1.38644e-06
1.39029e-06
1.15028e-06
1.15617e-06
1.15602e-06
1.39026e-06
1.39298e-06
1.39563e-06
1.15774e-06
1.1576e-06
1.16264e-06
1.16262e-06
1.39285e-06
1.39575e-06
1.15756e-06
1.15777e-06
1.16243e-06
1.16263e-06
1.1578e-06
1.16265e-06
1.16276e-06
1.39306e-06
1.39573e-06
1.15764e-06
1.16264e-06
1.16255e-06
1.39582e-06
1.39843e-06
1.40136e-06
1.16442e-06
1.16436e-06
1.16885e-06
1.16866e-06
1.39855e-06
1.40123e-06
1.16421e-06
1.1644e-06
1.16867e-06
1.16884e-06
1.16449e-06
1.16863e-06
1.16882e-06
1.3985e-06
1.4014e-06
1.16429e-06
1.16882e-06
1.16867e-06
1.40138e-06
1.40386e-06
1.40612e-06
1.1701e-06
1.16992e-06
1.17459e-06
1.17451e-06
1.40372e-06
1.40615e-06
1.16992e-06
1.17012e-06
1.17439e-06
1.1746e-06
1.1701e-06
1.17452e-06
1.17467e-06
1.40392e-06
1.40622e-06
1.16996e-06
1.1746e-06
1.17449e-06
1.40627e-06
1.40878e-06
1.41006e-06
1.17598e-06
1.17591e-06
1.17863e-06
1.17851e-06
1.40883e-06
1.41004e-06
1.17578e-06
1.17598e-06
1.17844e-06
1.17862e-06
1.17607e-06
1.17851e-06
1.17866e-06
1.40887e-06
1.41011e-06
1.17588e-06
1.17861e-06
1.17849e-06
1.41014e-06
1.4123e-06
1.41477e-06
1.17964e-06
1.17952e-06
1.18404e-06
1.18392e-06
1.41227e-06
1.41474e-06
1.17946e-06
1.17964e-06
1.18385e-06
1.18404e-06
1.17967e-06
1.18392e-06
1.18408e-06
1.41235e-06
1.41483e-06
1.1795e-06
1.18403e-06
1.18391e-06
1.41485e-06
1.41732e-06
1.41694e-06
1.18513e-06
1.18501e-06
1.18633e-06
1.18622e-06
1.4173e-06
1.41692e-06
1.18494e-06
1.18512e-06
1.18614e-06
1.18633e-06
1.18517e-06
1.18621e-06
1.18637e-06
1.41738e-06
1.41701e-06
1.185e-06
1.18632e-06
1.18621e-06
1.41705e-06
1.41881e-06
1.42118e-06
1.18686e-06
1.18675e-06
1.19067e-06
1.19056e-06
1.41879e-06
1.42118e-06
1.18667e-06
1.18687e-06
1.19049e-06
1.1907e-06
1.18691e-06
1.19058e-06
1.19073e-06
1.41888e-06
1.42127e-06
1.18674e-06
1.19069e-06
1.19056e-06
1.42128e-06
1.42387e-06
1.19189e-06
1.19178e-06
1.42387e-06
1.1917e-06
1.19186e-06
1.1919e-06
1.42394e-06
1.19174e-06
4.09736e-06
9.16487e-06
4.09422e-06
9.17181e-06
1.84334e-05
1.84436e-05
4.09744e-06
9.16617e-06
4.09427e-06
9.17312e-06
3.26862e-07
3.26944e-07
3.38952e-07
3.38955e-07
3.39057e-07
3.39053e-07
2.11723e-06
3.47872e-06
5.68238e-07
8.80433e-07
2.11152e-06
3.48206e-06
5.74165e-07
1.84452e-05
2.11729e-06
5.68357e-07
8.8057e-07
2.11155e-06
5.74245e-07
3.48221e-06
5.46413e-06
5.46584e-06
1.1639e-06
5.46714e-06
5.46887e-06
4.10513e-06
9.18137e-06
4.10199e-06
9.18831e-06
1.8456e-05
1.84667e-05
4.1052e-06
9.18268e-06
4.10207e-06
9.18962e-06
3.43029e-07
3.43135e-07
3.43129e-07
3.55322e-07
3.55343e-07
3.5543e-07
3.55428e-07
2.13114e-06
3.48983e-06
5.91726e-07
9.03736e-07
2.12568e-06
3.49312e-06
5.976e-07
1.84575e-05
1.84679e-05
2.1312e-06
5.9188e-07
3.4899e-06
9.03883e-07
2.12576e-06
5.97698e-07
3.49319e-06
5.47357e-06
5.47528e-06
1.18306e-06
5.47654e-06
5.47826e-06
4.11268e-06
9.19783e-06
4.10962e-06
9.20486e-06
1.84793e-05
1.84901e-05
4.11275e-06
9.19913e-06
4.10967e-06
9.20617e-06
3.59459e-07
3.59542e-07
3.59545e-07
3.71826e-07
3.71841e-07
3.71941e-07
3.71945e-07
2.14428e-06
3.50052e-06
6.14904e-07
9.25974e-07
2.13917e-06
3.50356e-06
6.20654e-07
1.84807e-05
1.84915e-05
2.14433e-06
6.15029e-07
3.50048e-06
9.26091e-07
2.1392e-06
6.20731e-07
3.50363e-06
5.48272e-06
5.48443e-06
1.20122e-06
5.48564e-06
5.48737e-06
4.12017e-06
9.21457e-06
4.11712e-06
9.22169e-06
1.85032e-05
1.85145e-05
4.12025e-06
9.21589e-06
4.11719e-06
9.22302e-06
3.75982e-07
3.76092e-07
3.76094e-07
3.88448e-07
3.88449e-07
3.88571e-07
3.88569e-07
2.15674e-06
3.51064e-06
6.37576e-07
9.47156e-07
2.15188e-06
3.51362e-06
6.43205e-07
1.85048e-05
1.8516e-05
2.15681e-06
6.37722e-07
3.51068e-06
9.47315e-07
2.15193e-06
6.43307e-07
3.51375e-06
5.49182e-06
5.49353e-06
1.21849e-06
5.49474e-06
5.49646e-06
4.12756e-06
9.23147e-06
4.12456e-06
9.23864e-06
1.8528e-05
1.85395e-05
4.12763e-06
9.23279e-06
4.12463e-06
9.23996e-06
3.92613e-07
3.92736e-07
3.92735e-07
4.05103e-07
4.05109e-07
4.05221e-07
4.05222e-07
2.16858e-06
3.5205e-06
6.59757e-07
9.67391e-07
2.16398e-06
3.52337e-06
6.6525e-07
1.85295e-05
1.85409e-05
2.16864e-06
6.59909e-07
3.52054e-06
9.67536e-07
2.16404e-06
6.6535e-07
3.52345e-06
5.50085e-06
5.50256e-06
1.23493e-06
5.50372e-06
5.50544e-06
4.13476e-06
9.24843e-06
4.13185e-06
9.25558e-06
1.85533e-05
1.85649e-05
4.13482e-06
9.24975e-06
4.13191e-06
9.25691e-06
4.09261e-07
4.09371e-07
4.09375e-07
4.2166e-07
4.21669e-07
4.21785e-07
4.21786e-07
2.17975e-06
3.52996e-06
6.81334e-07
9.86594e-07
2.17543e-06
3.53265e-06
6.86647e-07
1.85548e-05
1.85663e-05
2.1798e-06
6.81469e-07
3.52996e-06
9.86727e-07
2.17547e-06
6.86736e-07
3.53273e-06
5.50969e-06
5.5114e-06
1.2505e-06
5.51248e-06
5.51421e-06
4.14182e-06
9.2654e-06
4.13895e-06
9.27259e-06
1.8579e-05
1.85908e-05
4.14188e-06
9.26674e-06
4.13902e-06
9.27392e-06
4.25789e-07
4.2591e-07
4.2591e-07
4.38088e-07
4.38092e-07
4.38211e-07
4.38214e-07
2.1903e-06
3.53898e-06
7.02181e-07
1.00478e-06
2.18623e-06
3.54158e-06
7.07314e-07
1.85805e-05
1.85922e-05
2.19036e-06
7.02326e-07
3.539e-06
1.00493e-06
2.18628e-06
7.07414e-07
3.54166e-06
5.51839e-06
5.5201e-06
1.26525e-06
5.52115e-06
5.52288e-06
4.14872e-06
9.28242e-06
4.14593e-06
9.28958e-06
1.86051e-05
1.8617e-05
4.14878e-06
9.28375e-06
4.14599e-06
9.29092e-06
4.42165e-07
4.42284e-07
4.42287e-07
4.54297e-07
4.54298e-07
4.54427e-07
4.54419e-07
2.20028e-06
3.54761e-06
7.22288e-07
1.022e-06
2.19645e-06
3.55011e-06
7.27223e-07
1.86066e-05
1.86184e-05
2.20032e-06
7.22426e-07
3.54767e-06
1.02213e-06
2.19649e-06
7.27317e-07
3.55021e-06
5.52693e-06
5.52864e-06
1.27921e-06
5.52962e-06
5.53136e-06
4.15545e-06
9.29939e-06
4.15272e-06
9.30655e-06
1.86315e-05
1.86436e-05
4.15551e-06
9.30073e-06
4.15279e-06
9.30789e-06
4.58306e-07
4.5844e-07
4.58432e-07
4.70208e-07
4.70217e-07
4.70338e-07
4.70341e-07
2.20966e-06
3.55588e-06
7.41595e-07
1.03823e-06
2.20607e-06
3.5583e-06
7.46321e-07
1.8633e-05
1.8645e-05
2.20972e-06
7.41742e-07
3.55599e-06
1.03837e-06
2.20612e-06
7.46425e-07
3.55841e-06
5.53531e-06
5.53703e-06
1.29241e-06
5.53797e-06
5.5397e-06
4.16204e-06
9.31633e-06
4.15937e-06
9.32345e-06
1.86582e-05
1.86703e-05
4.16209e-06
9.31766e-06
4.15942e-06
9.32479e-06
4.74148e-07
4.74268e-07
4.74269e-07
4.85806e-07
4.85795e-07
4.85935e-07
4.85921e-07
2.21851e-06
3.56388e-06
7.60069e-07
1.05352e-06
2.21514e-06
3.56618e-06
7.64576e-07
1.86597e-05
1.86717e-05
2.21856e-06
7.60197e-07
3.56393e-06
1.05365e-06
2.21518e-06
7.64671e-07
3.56625e-06
5.54353e-06
5.54524e-06
1.30485e-06
5.54611e-06
5.54784e-06
4.16841e-06
9.33318e-06
4.16584e-06
9.34023e-06
1.8685e-05
1.86972e-05
4.16847e-06
9.33453e-06
4.16592e-06
9.34157e-06
4.89619e-07
4.89766e-07
4.89758e-07
5.00963e-07
5.00976e-07
5.01101e-07
5.01102e-07
2.22683e-06
3.57151e-06
7.77643e-07
1.06787e-06
2.22368e-06
3.5737e-06
7.81924e-07
1.86866e-05
1.86986e-05
2.22688e-06
7.77786e-07
3.5716e-06
1.06801e-06
2.22373e-06
7.82032e-07
3.57378e-06
5.55161e-06
5.55333e-06
1.3166e-06
5.55414e-06
5.55588e-06
4.17468e-06
9.34989e-06
4.17215e-06
9.35694e-06
1.87121e-05
1.87242e-05
4.17472e-06
9.35123e-06
4.17218e-06
9.35828e-06
5.04708e-07
5.04832e-07
5.04824e-07
5.15704e-07
5.15688e-07
5.15828e-07
5.15812e-07
2.23465e-06
3.57885e-06
7.94333e-07
1.08133e-06
2.2317e-06
3.58091e-06
7.98374e-07
1.87135e-05
1.87256e-05
2.23469e-06
7.94452e-07
3.57883e-06
1.08145e-06
2.23173e-06
7.98473e-07
3.58093e-06
5.55941e-06
5.56113e-06
1.3276e-06
5.56182e-06
5.56356e-06
4.18065e-06
9.36648e-06
4.17825e-06
9.3734e-06
1.8739e-05
1.87513e-05
4.18073e-06
9.36784e-06
4.17833e-06
9.37476e-06
5.19284e-07
5.19428e-07
5.19422e-07
5.29945e-07
5.29952e-07
5.3009e-07
5.30085e-07
2.24197e-06
3.58574e-06
8.10048e-07
1.09387e-06
2.23922e-06
3.58772e-06
8.13867e-07
1.87406e-05
1.87527e-05
2.24202e-06
8.10179e-07
3.5858e-06
1.09401e-06
2.23927e-06
8.13975e-07
3.58778e-06
5.56712e-06
5.56884e-06
1.33797e-06
5.5696e-06
5.57133e-06
4.18658e-06
9.38292e-06
4.18423e-06
9.38979e-06
1.87662e-05
1.87782e-05
4.18662e-06
9.38426e-06
4.18425e-06
9.39113e-06
5.33444e-07
5.33583e-07
5.33569e-07
5.43651e-07
5.43644e-07
5.43777e-07
5.43765e-07
2.24886e-06
3.59251e-06
8.24912e-07
1.10563e-06
2.24633e-06
3.59432e-06
8.28491e-07
1.87676e-05
1.87796e-05
2.2489e-06
8.25038e-07
3.59249e-06
1.10575e-06
2.24636e-06
8.28591e-07
3.59433e-06
5.57465e-06
5.57637e-06
1.34768e-06
5.57685e-06
5.5786e-06
4.19207e-06
9.39902e-06
4.18985e-06
9.40581e-06
1.87929e-05
1.88052e-05
4.19215e-06
9.40038e-06
4.18991e-06
9.40717e-06
5.46958e-07
5.47095e-07
5.47087e-07
5.56823e-07
5.56814e-07
5.56961e-07
5.56947e-07
2.25517e-06
3.5986e-06
8.38712e-07
1.11642e-06
2.25283e-06
3.60038e-06
8.42052e-07
1.87944e-05
1.88066e-05
2.25521e-06
8.38831e-07
3.59861e-06
1.11654e-06
2.25286e-06
8.42155e-07
3.6004e-06
5.58174e-06
5.58346e-06
1.35667e-06
5.58413e-06
5.58586e-06
4.19765e-06
9.41519e-06
4.19553e-06
9.42178e-06
1.88202e-05
1.8832e-05
4.19769e-06
9.41652e-06
4.19554e-06
9.42312e-06
5.60046e-07
5.60191e-07
5.60178e-07
5.69341e-07
5.69355e-07
5.69475e-07
5.69469e-07
2.26123e-06
3.60485e-06
8.51773e-07
1.12663e-06
2.25908e-06
3.60645e-06
8.54895e-07
1.88216e-05
1.88334e-05
2.26128e-06
8.51901e-07
3.60484e-06
1.12673e-06
2.25912e-06
8.54988e-07
3.60645e-06
5.58911e-06
5.59086e-06
1.36523e-06
5.59117e-06
5.59291e-06
4.20267e-06
9.43063e-06
4.20059e-06
9.43732e-06
1.88464e-05
1.88586e-05
4.20278e-06
9.43202e-06
4.20067e-06
9.43871e-06
5.72363e-07
5.72498e-07
5.72486e-07
5.81421e-07
5.8138e-07
5.81561e-07
5.8153e-07
2.26657e-06
3.61022e-06
8.63695e-07
1.13581e-06
2.26464e-06
3.61178e-06
8.66602e-07
1.88479e-05
1.886e-05
2.26663e-06
8.6381e-07
3.61021e-06
1.13596e-06
2.26465e-06
8.66722e-07
3.61185e-06
5.59563e-06
5.59734e-06
1.37295e-06
5.59787e-06
5.59963e-06
4.2076e-06
9.44627e-06
4.20587e-06
9.45235e-06
1.88732e-05
1.88849e-05
4.20758e-06
9.4476e-06
4.20588e-06
9.45366e-06
5.84288e-07
5.84444e-07
5.84428e-07
5.92527e-07
5.92577e-07
5.92653e-07
5.92665e-07
2.27172e-06
3.6158e-06
8.74974e-07
1.14441e-06
2.27001e-06
3.61712e-06
8.77588e-07
1.88746e-05
1.8886e-05
2.27172e-06
8.75103e-07
3.61585e-06
1.14447e-06
2.27008e-06
8.77651e-07
3.61704e-06
5.60259e-06
5.60433e-06
1.3803e-06
5.60437e-06
5.60605e-06
4.21251e-06
9.46113e-06
4.21039e-06
9.46796e-06
1.88992e-05
1.89113e-05
4.21266e-06
9.46253e-06
4.21042e-06
9.46941e-06
5.95343e-07
5.95455e-07
5.95446e-07
6.03534e-07
6.03457e-07
6.03671e-07
6.0362e-07
2.2763e-06
3.62062e-06
8.85142e-07
1.1523e-06
2.27465e-06
3.62209e-06
8.87684e-07
1.89007e-05
1.8913e-05
2.27639e-06
8.85233e-07
3.62048e-06
1.15246e-06
2.27459e-06
8.87811e-07
3.62222e-06
5.60865e-06
5.61036e-06
1.38695e-06
5.61098e-06
5.61282e-06
4.2164e-06
9.47604e-06
4.21524e-06
9.48138e-06
1.89249e-05
1.89362e-05
4.2164e-06
9.47741e-06
4.21534e-06
9.48266e-06
6.05945e-07
6.06133e-07
6.06102e-07
6.13315e-07
6.13379e-07
6.13458e-07
6.13476e-07
2.28039e-06
3.62541e-06
8.94582e-07
1.15922e-06
2.2792e-06
3.62637e-06
8.96737e-07
1.89265e-05
1.89371e-05
2.28039e-06
8.94747e-07
3.62561e-06
1.15931e-06
2.27937e-06
8.96827e-07
3.62632e-06
5.61512e-06
5.61688e-06
1.39309e-06
5.61651e-06
5.61814e-06
4.22122e-06
9.49023e-06
4.21918e-06
9.49692e-06
1.89511e-05
1.89624e-05
4.2213e-06
9.49156e-06
4.21911e-06
9.49834e-06
6.15918e-07
6.16004e-07
6.16013e-07
6.22861e-07
6.22803e-07
6.22974e-07
6.22934e-07
2.28438e-06
3.62988e-06
9.03279e-07
1.16597e-06
2.28299e-06
3.63116e-06
9.05372e-07
1.89522e-05
1.89641e-05
2.2844e-06
9.03323e-07
3.62959e-06
1.16604e-06
2.28284e-06
9.05433e-07
3.63118e-06
5.62096e-06
5.62264e-06
1.39878e-06
5.62312e-06
5.62494e-06
4.22437e-06
9.50407e-06
4.22332e-06
9.50955e-06
1.89749e-05
1.89871e-05
4.22446e-06
9.50549e-06
4.22346e-06
9.5109e-06
6.24908e-07
6.25095e-07
6.2505e-07
6.31754e-07
6.31764e-07
6.31903e-07
6.31891e-07
2.28732e-06
3.63346e-06
9.1074e-07
1.17133e-06
2.28649e-06
3.63438e-06
9.12581e-07
1.89766e-05
1.89881e-05
2.28743e-06
9.10917e-07
3.6337e-06
1.1715e-06
2.28667e-06
9.12727e-07
3.63449e-06
5.62605e-06
5.62785e-06
1.40366e-06
5.62789e-06
5.62961e-06
4.22868e-06
9.51841e-06
4.22747e-06
9.52331e-06
1.90011e-05
1.90101e-05
4.22871e-06
9.51974e-06
4.22746e-06
9.5247e-06
6.34015e-07
6.34135e-07
6.34135e-07
6.39485e-07
6.39483e-07
6.39611e-07
6.39595e-07
2.29086e-06
3.6383e-06
9.1832e-07
1.17697e-06
2.28999e-06
3.63878e-06
9.19889e-07
1.90025e-05
1.90116e-05
2.29084e-06
9.18399e-07
3.63816e-06
1.17703e-06
2.28995e-06
9.19942e-07
3.63873e-06
5.6331e-06
5.6348e-06
1.40867e-06
5.63351e-06
5.63525e-06
4.23109e-06
9.52943e-06
4.22941e-06
9.53667e-06
1.90231e-05
1.90374e-05
4.23117e-06
9.5308e-06
4.22947e-06
9.53802e-06
6.4124e-07
6.41381e-07
6.41353e-07
6.47518e-07
6.47502e-07
6.47646e-07
6.47626e-07
2.29254e-06
3.63963e-06
9.23634e-07
1.18088e-06
2.29168e-06
3.64141e-06
9.25234e-07
1.90245e-05
1.90387e-05
2.29257e-06
9.23744e-07
3.63965e-06
1.181e-06
2.29171e-06
9.25335e-07
3.64143e-06
5.63533e-06
5.63704e-06
1.41202e-06
5.63941e-06
5.64115e-06
4.23506e-06
9.54494e-06
4.23498e-06
9.54767e-06
1.90487e-05
1.90554e-05
4.23511e-06
9.54632e-06
4.23502e-06
9.54906e-06
6.49505e-07
6.49639e-07
6.49629e-07
6.53854e-07
6.53846e-07
6.53981e-07
6.53958e-07
2.29578e-06
3.64543e-06
9.30392e-07
1.18563e-06
2.29558e-06
3.64483e-06
9.31522e-07
1.90502e-05
1.90568e-05
2.29583e-06
9.30503e-07
3.64544e-06
1.18573e-06
2.29562e-06
9.31618e-07
3.64488e-06
5.64361e-06
5.64537e-06
1.41665e-06
5.6427e-06
5.64449e-06
4.23609e-06
9.55296e-06
4.23454e-06
9.56119e-06
1.90684e-05
1.90847e-05
4.23618e-06
9.55434e-06
4.23461e-06
9.56254e-06
6.55115e-07
6.55267e-07
6.55235e-07
6.60343e-07
6.6034e-07
6.60507e-07
6.60484e-07
2.29593e-06
3.64462e-06
9.33638e-07
1.18773e-06
2.29527e-06
3.64668e-06
9.34793e-07
1.90699e-05
1.9086e-05
2.2959e-06
9.33754e-07
3.64466e-06
1.18784e-06
2.29529e-06
9.3488e-07
3.64667e-06
5.64356e-06
5.64524e-06
1.41835e-06
5.64893e-06
5.65062e-06
9.57045e-06
4.24131e-06
1.90959e-05
4.24157e-06
9.57182e-06
4.24133e-06
6.62292e-07
6.62412e-07
6.62397e-07
3.65197e-06
9.3948e-07
2.29953e-06
1.90973e-05
1.91015e-05
2.29975e-06
9.39553e-07
3.65191e-06
1.19253e-06
2.29953e-06
9.4068e-07
3.65118e-06
5.65466e-06
5.65644e-06
1.42329e-06
5.65297e-06
5.65479e-06
1.84313e-05
1.84416e-05
1.84343e-05
1.84447e-05
5.46399e-06
5.46573e-06
1.16372e-06
5.46707e-06
5.46887e-06
1.8453e-05
1.84426e-05
1.84561e-05
1.84457e-05
1.16933e-06
5.47188e-06
5.47369e-06
5.46884e-06
5.47059e-06
4.09731e-06
9.16506e-06
4.09418e-06
9.17189e-06
2.11716e-06
3.4785e-06
5.68241e-07
8.80593e-07
2.11145e-06
3.48198e-06
5.74135e-07
2.11711e-06
3.47899e-06
5.68221e-07
8.80544e-07
2.11141e-06
3.48233e-06
5.74108e-07
4.09809e-06
9.1801e-06
9.1731e-06
4.10126e-06
4.09803e-06
9.18016e-06
9.17317e-06
4.10121e-06
2.1186e-06
8.86519e-07
3.48761e-06
5.85893e-07
3.48416e-06
5.8002e-07
2.12422e-06
2.11855e-06
8.86447e-07
3.48789e-06
5.85853e-07
3.48453e-06
5.79986e-07
2.12416e-06
5.46557e-06
5.46421e-06
1.16374e-06
5.4684e-06
5.46703e-06
1.84314e-05
1.84417e-05
1.84551e-05
1.84445e-05
1.16933e-06
5.47316e-06
5.47178e-06
5.47023e-06
5.46887e-06
1.84532e-05
1.84426e-05
2.1172e-06
3.47902e-06
5.68219e-07
8.8038e-07
2.11147e-06
3.48253e-06
5.74114e-07
4.09739e-06
9.17276e-06
2.11715e-06
8.80657e-07
5.74191e-07
3.48253e-06
4.09816e-06
9.18141e-06
9.17441e-06
4.10136e-06
2.11865e-06
8.86308e-07
3.48817e-06
5.85881e-07
3.48469e-06
5.80004e-07
2.12427e-06
4.09811e-06
9.181e-06
9.17404e-06
4.1013e-06
2.11861e-06
8.86585e-07
5.85957e-07
3.48813e-06
5.80081e-07
3.48468e-06
2.12422e-06
4.09725e-06
9.1653e-06
4.0947e-06
9.17214e-06
2.11721e-06
5.68339e-07
3.47869e-06
8.80698e-07
2.1115e-06
5.74231e-07
3.48212e-06
4.09736e-06
9.16549e-06
4.09432e-06
9.17237e-06
2.11867e-06
8.86337e-07
3.48762e-06
5.8591e-07
3.48427e-06
5.80005e-07
2.12426e-06
4.09854e-06
9.18041e-06
9.17342e-06
4.10114e-06
2.11865e-06
8.86613e-07
5.85981e-07
3.48768e-06
5.80113e-07
3.48427e-06
2.12425e-06
4.09817e-06
9.18063e-06
9.17364e-06
4.10124e-06
1.16383e-06
5.46876e-06
5.46734e-06
1.84427e-05
1.84565e-05
1.84461e-05
1.16944e-06
5.4735e-06
5.47207e-06
5.47045e-06
5.46908e-06
1.84541e-05
1.84437e-05
2.1172e-06
5.68322e-07
3.47915e-06
8.80496e-07
2.11156e-06
5.74204e-07
3.48261e-06
4.09733e-06
4.0947e-06
9.17269e-06
4.09724e-06
9.1662e-06
4.09467e-06
9.17309e-06
2.11874e-06
8.86496e-07
5.86011e-07
3.48781e-06
5.80148e-07
3.48438e-06
2.12435e-06
2.11874e-06
8.86408e-07
5.85963e-07
3.48817e-06
5.80103e-07
3.48474e-06
2.12425e-06
4.09858e-06
9.18092e-06
9.17396e-06
4.10123e-06
4.09854e-06
9.18134e-06
9.17436e-06
4.10113e-06
1.84333e-05
1.84435e-05
1.84355e-05
1.84457e-05
1.16948e-06
5.47189e-06
5.47362e-06
5.46883e-06
5.47054e-06
1.84549e-05
1.84445e-05
1.84571e-05
1.84467e-05
1.8454e-05
1.84645e-05
1.84571e-05
1.84676e-05
5.47358e-06
5.47533e-06
1.18294e-06
5.47648e-06
5.47828e-06
1.84761e-05
1.84655e-05
1.84792e-05
1.84686e-05
1.18832e-06
5.48101e-06
5.48281e-06
5.47814e-06
5.47988e-06
4.10508e-06
9.18146e-06
4.10192e-06
9.18847e-06
2.1311e-06
3.48974e-06
5.91749e-07
9.03916e-07
2.12563e-06
3.49303e-06
5.97582e-07
2.13104e-06
3.49009e-06
5.91708e-07
9.03839e-07
2.12558e-06
3.49339e-06
5.97543e-07
4.10584e-06
9.19654e-06
9.18958e-06
4.10893e-06
4.10578e-06
9.19673e-06
9.18976e-06
4.10888e-06
2.13247e-06
9.09571e-07
3.49828e-06
6.09165e-07
3.49509e-06
6.03389e-07
2.13776e-06
2.13242e-06
9.0951e-07
3.4987e-06
6.09134e-07
3.49553e-06
6.03355e-07
2.13771e-06
5.475e-06
5.47364e-06
1.1829e-06
5.4779e-06
5.47653e-06
1.84541e-05
1.84648e-05
1.84783e-05
1.84676e-05
1.18831e-06
5.48249e-06
5.48112e-06
5.47971e-06
5.47835e-06
1.84764e-05
1.84657e-05
2.13113e-06
3.49027e-06
5.91739e-07
9.03706e-07
2.12569e-06
3.49358e-06
5.97571e-07
4.10513e-06
9.18227e-06
4.102e-06
9.1892e-06
2.13108e-06
5.91814e-07
3.49021e-06
9.03964e-07
2.12564e-06
5.97645e-07
3.49351e-06
4.10589e-06
9.19785e-06
9.19089e-06
4.10898e-06
2.13251e-06
9.09358e-07
3.49883e-06
6.09143e-07
3.4956e-06
6.03373e-07
2.13777e-06
4.10583e-06
9.19747e-06
9.19048e-06
4.10892e-06
2.13246e-06
9.09613e-07
6.09217e-07
3.49878e-06
6.03446e-07
3.49554e-06
2.13772e-06
4.10501e-06
9.18171e-06
4.10243e-06
9.18872e-06
2.13113e-06
5.91835e-07
3.48981e-06
9.03991e-07
2.12566e-06
5.97667e-07
3.49313e-06
4.10511e-06
9.1819e-06
4.10205e-06
9.18888e-06
2.13253e-06
9.09409e-07
3.49844e-06
6.09193e-07
3.49527e-06
6.03374e-07
2.13782e-06
4.10629e-06
9.19699e-06
9.19002e-06
4.10883e-06
2.1325e-06
9.09651e-07
6.09254e-07
3.4984e-06
6.03476e-07
3.4952e-06
2.1378e-06
4.10591e-06
9.19714e-06
9.19016e-06
4.10892e-06
5.47511e-06
5.47373e-06
1.18302e-06
5.47807e-06
5.47664e-06
1.8455e-05
1.84655e-05
1.84796e-05
1.8469e-05
1.18841e-06
5.48265e-06
5.48123e-06
5.47968e-06
5.4783e-06
1.84772e-05
1.84665e-05
2.13112e-06
5.91831e-07
3.49029e-06
9.03792e-07
2.12575e-06
5.97649e-07
3.49361e-06
4.10507e-06
9.18219e-06
4.10247e-06
9.18912e-06
4.10498e-06
9.18262e-06
4.10242e-06
9.18959e-06
2.13258e-06
9.09531e-07
6.09273e-07
3.49847e-06
6.03514e-07
3.49524e-06
2.13786e-06
2.13257e-06
9.09445e-07
6.09227e-07
3.49888e-06
6.03466e-07
3.49566e-06
2.13778e-06
4.1063e-06
9.19739e-06
9.1904e-06
4.10887e-06
4.10626e-06
9.19784e-06
9.19086e-06
4.10878e-06
1.84559e-05
1.84664e-05
1.84581e-05
1.84686e-05
1.18844e-06
5.48109e-06
5.48282e-06
5.47817e-06
5.47988e-06
1.84781e-05
1.84674e-05
1.84803e-05
1.84696e-05
1.84771e-05
1.8488e-05
1.84802e-05
1.84911e-05
5.48266e-06
5.48441e-06
1.20107e-06
5.48554e-06
5.48734e-06
1.85001e-05
1.84891e-05
1.85032e-05
1.84922e-05
1.20625e-06
5.49011e-06
5.49192e-06
5.4872e-06
5.48895e-06
4.11263e-06
9.19801e-06
4.10958e-06
9.20498e-06
2.14422e-06
3.5003e-06
6.14908e-07
9.26119e-07
2.1391e-06
3.50344e-06
6.20621e-07
2.14417e-06
3.50077e-06
6.14879e-07
9.26064e-07
2.13905e-06
3.50382e-06
6.20589e-07
4.11337e-06
9.21326e-06
9.20616e-06
4.11643e-06
4.11332e-06
9.21334e-06
9.20628e-06
4.11638e-06
2.14553e-06
9.31513e-07
3.50853e-06
6.31962e-07
3.50543e-06
6.26305e-07
2.15052e-06
2.14548e-06
9.31447e-07
3.50887e-06
6.31922e-07
3.50585e-06
6.2627e-07
2.15047e-06
5.48424e-06
5.48288e-06
1.20109e-06
5.48695e-06
5.48558e-06
1.84773e-05
1.84882e-05
1.85022e-05
1.84911e-05
1.20627e-06
5.49147e-06
5.4901e-06
5.4887e-06
5.48734e-06
1.85003e-05
1.84892e-05
2.14424e-06
3.50082e-06
6.14883e-07
9.25904e-07
2.13912e-06
3.50399e-06
6.20594e-07
4.11269e-06
9.19876e-06
4.10961e-06
9.20578e-06
2.14419e-06
6.14957e-07
3.50078e-06
9.26162e-07
2.13907e-06
6.20669e-07
3.50395e-06
4.11344e-06
9.21458e-06
9.20747e-06
4.11651e-06
2.14556e-06
9.31299e-07
3.50909e-06
6.3194e-07
3.50595e-06
6.2628e-07
2.15056e-06
4.11338e-06
9.21418e-06
9.20708e-06
4.11644e-06
2.14552e-06
9.31556e-07
6.32015e-07
3.50903e-06
6.26355e-07
3.50591e-06
2.15051e-06
4.11259e-06
9.19827e-06
4.11009e-06
9.20524e-06
2.14426e-06
6.15002e-07
3.50042e-06
9.26214e-07
2.13914e-06
6.20717e-07
3.50357e-06
4.11268e-06
9.19842e-06
4.1097e-06
9.20546e-06
2.1456e-06
9.31358e-07
3.50861e-06
6.31989e-07
3.5056e-06
6.263e-07
2.15058e-06
4.11383e-06
9.21361e-06
9.20655e-06
4.11633e-06
2.14557e-06
9.31608e-07
6.32059e-07
3.50865e-06
6.26404e-07
3.50556e-06
2.15057e-06
4.11345e-06
9.21385e-06
9.20676e-06
4.11643e-06
5.48424e-06
5.48287e-06
1.20116e-06
5.48717e-06
5.48575e-06
1.84782e-05
1.84891e-05
1.85036e-05
1.84926e-05
1.20635e-06
5.49173e-06
5.49031e-06
5.48876e-06
5.48739e-06
1.85012e-05
1.84902e-05
2.14425e-06
6.14984e-07
3.50088e-06
9.2601e-07
2.13919e-06
6.20686e-07
3.50405e-06
4.11265e-06
9.19868e-06
4.11009e-06
9.20571e-06
4.11256e-06
9.19913e-06
4.11004e-06
9.20617e-06
2.14565e-06
9.31484e-07
6.3208e-07
3.50872e-06
6.26432e-07
3.50561e-06
2.15065e-06
2.14563e-06
9.31402e-07
6.32032e-07
3.50914e-06
6.26386e-07
3.50603e-06
2.15057e-06
4.11385e-06
9.2141e-06
9.20701e-06
4.1164e-06
4.11381e-06
9.21456e-06
9.20747e-06
4.11631e-06
1.84791e-05
1.849e-05
1.84814e-05
1.84922e-05
1.2064e-06
5.49019e-06
5.49192e-06
5.48727e-06
5.48898e-06
1.85021e-05
1.84911e-05
1.85043e-05
1.84933e-05
1.85012e-05
1.85124e-05
1.85044e-05
1.85155e-05
5.49178e-06
5.49353e-06
1.21835e-06
5.49465e-06
5.49646e-06
1.85248e-05
1.85135e-05
1.85279e-05
1.85167e-05
1.22336e-06
5.49915e-06
5.50095e-06
5.4963e-06
5.49805e-06
4.12011e-06
9.21466e-06
4.11706e-06
9.22179e-06
2.15668e-06
3.5105e-06
6.37589e-07
9.47332e-07
2.15181e-06
3.51355e-06
6.43184e-07
2.15662e-06
3.51089e-06
6.37546e-07
9.47237e-07
2.15176e-06
3.51387e-06
6.43138e-07
4.12085e-06
9.23015e-06
9.22301e-06
4.12388e-06
4.12079e-06
9.23026e-06
9.22312e-06
4.12382e-06
2.15794e-06
9.52478e-07
3.51845e-06
6.54274e-07
3.51548e-06
6.48746e-07
2.16268e-06
2.15789e-06
9.52384e-07
3.51878e-06
6.54227e-07
3.51586e-06
6.48699e-07
2.16262e-06
5.49324e-06
5.49188e-06
1.21832e-06
5.49601e-06
5.49464e-06
1.85013e-05
1.85126e-05
1.85269e-05
1.85156e-05
1.22333e-06
5.50053e-06
5.49916e-06
5.49777e-06
5.4964e-06
1.8525e-05
1.85137e-05
2.15672e-06
3.51103e-06
6.3757e-07
9.47121e-07
2.15185e-06
3.5141e-06
6.43166e-07
4.12019e-06
9.2155e-06
4.11713e-06
9.22264e-06
2.15667e-06
6.37644e-07
3.51098e-06
9.47379e-07
2.15181e-06
6.43242e-07
3.51407e-06
4.12093e-06
9.23147e-06
9.22433e-06
4.12395e-06
2.15799e-06
9.52268e-07
3.519e-06
6.54257e-07
3.516e-06
6.48729e-07
2.16272e-06
4.12087e-06
9.23109e-06
9.22396e-06
4.12389e-06
2.15794e-06
9.52527e-07
6.54333e-07
3.51897e-06
6.48805e-07
3.51598e-06
2.16267e-06
4.12006e-06
9.21493e-06
4.11757e-06
9.22206e-06
2.15672e-06
6.37686e-07
3.51062e-06
9.47417e-07
2.15185e-06
6.43279e-07
3.51366e-06
4.12017e-06
9.21516e-06
4.1172e-06
9.22229e-06
2.15801e-06
9.52304e-07