/*--------------------------------*- C++ -*----------------------------------*\
| =========                 |                                                 |
| \\      /  F ield         | OpenFOAM: The Open Source CFD Toolbox           |
|  \\    /   O peration     | Version:  2312                                  |
|   \\  /    A nd           | Website:  www.openfoam.com                      |
|    \\/     M anipulation  |                                                 |
\*---------------------------------------------------------------------------*/
FoamFile
{
    version     2.0;
    format      ascii;
    arch        "LSB;label=32;scalar=64";
    class       volScalarField;
    location    "375";
    object      k;
}
// * * * * * * * * * * * * * * * * * * * * * * * * * * * * * * * * * * * * * //

dimensions      [0 2 -2 0 0 0 0];

internalField   nonuniform List<scalar> 
42973
(
2.11991e-05
3.69026e-05
4.21286e-05
2.1962e-05
3.78068e-05
3.78134e-05
4.28502e-05
2.27467e-05
3.86926e-05
3.86955e-05
4.35503e-05
2.35402e-05
3.95428e-05
3.95465e-05
4.42212e-05
2.43454e-05
4.0367e-05
4.03728e-05
4.4871e-05
2.516e-05
4.11669e-05
4.1171e-05
4.5498e-05
2.59741e-05
4.19342e-05
4.19385e-05
4.60991e-05
2.6789e-05
4.26737e-05
4.26779e-05
4.66784e-05
2.75986e-05
4.33841e-05
4.3389e-05
4.72337e-05
2.83999e-05
4.40656e-05
4.4069e-05
4.7767e-05
2.91947e-05
4.47183e-05
4.47237e-05
4.82773e-05
2.9971e-05
4.53441e-05
4.53474e-05
4.87674e-05
3.07375e-05
4.5938e-05
4.59425e-05
4.92308e-05
3.1482e-05
4.65102e-05
4.65144e-05
4.96815e-05
3.22109e-05
4.70476e-05
4.70509e-05
5.01005e-05
3.29157e-05
4.75659e-05
4.7571e-05
5.05081e-05
3.35962e-05
4.80481e-05
4.80487e-05
5.08883e-05
3.42701e-05
4.85198e-05
4.85296e-05
5.12582e-05
3.48742e-05
4.89385e-05
4.89331e-05
5.15854e-05
3.55271e-05
4.93671e-05
4.93808e-05
5.19343e-05
3.60659e-05
4.97404e-05
4.97357e-05
5.221e-05
3.6651e-05
5.00949e-05
5.01025e-05
5.25127e-05
3.71718e-05
5.04647e-05
5.04682e-05
5.27817e-05
3.766e-05
5.07097e-05
5.07118e-05
5.30012e-05
3.81439e-05
5.10865e-05
5.10906e-05
5.32846e-05
3.86029e-05
5.12779e-05
5.12809e-05
5.34393e-05
3.89437e-05
5.15605e-05
5.1565e-05
5.36746e-05
4.21266e-05
4.26856e-05
3.69034e-05
3.69024e-05
3.75857e-05
3.75817e-05
4.21273e-05
4.26844e-05
3.68984e-05
3.7581e-05
3.75865e-05
3.69068e-05
3.75821e-05
3.75883e-05
4.26889e-05
3.69013e-05
3.75877e-05
3.75833e-05
4.26884e-05
4.28486e-05
4.33935e-05
3.78116e-05
3.78062e-05
3.84773e-05
3.84735e-05
4.28459e-05
4.33923e-05
3.7807e-05
3.78123e-05
3.84727e-05
3.84771e-05
3.78134e-05
3.84741e-05
3.84785e-05
4.28518e-05
4.33946e-05
3.78085e-05
3.84784e-05
3.84737e-05
4.33946e-05
4.35491e-05
4.40684e-05
3.86945e-05
3.86918e-05
3.93347e-05
3.93319e-05
4.3549e-05
4.40687e-05
3.86897e-05
3.86942e-05
3.93299e-05
3.93343e-05
3.86961e-05
3.93329e-05
3.93371e-05
4.35502e-05
4.40704e-05
3.86911e-05
3.9336e-05
3.93323e-05
4.4071e-05
4.42189e-05
4.47238e-05
3.95452e-05
3.95416e-05
4.01666e-05
4.01617e-05
4.42185e-05
4.47215e-05
3.95405e-05
3.95449e-05
4.01621e-05
4.0167e-05
3.95475e-05
4.01629e-05
4.01687e-05
4.42207e-05
4.47263e-05
3.95426e-05
4.01688e-05
4.01642e-05
4.47257e-05
4.48692e-05
4.53563e-05
4.03704e-05
4.03656e-05
4.09729e-05
4.09684e-05
4.4867e-05
4.53549e-05
4.0366e-05
4.0371e-05
4.09684e-05
4.09726e-05
4.03726e-05
4.09698e-05
4.09745e-05
4.48718e-05
4.5358e-05
4.03681e-05
4.09746e-05
4.09701e-05
4.53579e-05
4.54966e-05
4.59626e-05
4.11698e-05
4.11653e-05
4.17474e-05
4.17433e-05
4.54954e-05
4.59616e-05
4.11652e-05
4.11691e-05
4.1743e-05
4.17469e-05
4.11713e-05
4.1745e-05
4.17492e-05
4.54982e-05
4.59642e-05
4.11667e-05
4.17491e-05
4.17448e-05
4.59644e-05
4.60974e-05
4.65469e-05
4.19367e-05
4.19324e-05
4.24944e-05
4.24896e-05
4.60963e-05
4.65453e-05
4.19323e-05
4.19364e-05
4.24901e-05
4.24938e-05
4.19385e-05
4.24914e-05
4.2496e-05
4.60992e-05
4.65487e-05
4.19341e-05
4.24962e-05
4.24918e-05
4.65487e-05
4.66768e-05
4.71075e-05
4.26763e-05
4.26717e-05
4.32117e-05
4.32072e-05
4.66753e-05
4.71062e-05
4.26719e-05
4.26754e-05
4.32074e-05
4.32111e-05
4.2678e-05
4.32091e-05
4.32129e-05
4.66784e-05
4.71091e-05
4.26736e-05
4.32136e-05
4.32088e-05
4.71089e-05
4.72324e-05
4.76455e-05
4.3387e-05
4.33821e-05
4.38998e-05
4.3895e-05
4.7231e-05
4.7644e-05
4.33829e-05
4.33866e-05
4.38957e-05
4.38991e-05
4.33879e-05
4.38975e-05
4.39017e-05
4.72342e-05
4.76471e-05
4.33839e-05
4.39019e-05
4.38977e-05
4.76472e-05
4.77654e-05
4.81617e-05
4.40672e-05
4.4063e-05
4.45615e-05
4.45564e-05
4.77642e-05
4.81602e-05
4.40629e-05
4.40661e-05
4.45574e-05
4.45603e-05
4.40693e-05
4.45584e-05
4.4561e-05
4.77667e-05
4.8163e-05
4.40651e-05
4.45628e-05
4.45573e-05
4.81622e-05
4.82773e-05
4.86542e-05
4.4722e-05
4.47161e-05
4.51909e-05
4.51863e-05
4.82752e-05
4.86527e-05
4.47182e-05
4.47212e-05
4.5187e-05
4.51907e-05
4.47216e-05
4.51894e-05
4.51941e-05
4.82787e-05
4.86563e-05
4.4718e-05
4.51939e-05
4.51903e-05
4.8657e-05
4.87645e-05
4.91271e-05
4.53448e-05
4.53411e-05
4.57965e-05
4.57911e-05
4.87638e-05
4.91254e-05
4.53407e-05
4.53442e-05
4.57925e-05
4.57945e-05
4.53476e-05
4.57932e-05
4.57943e-05
4.87665e-05
4.91274e-05
4.53437e-05
4.57971e-05
4.57908e-05
4.91254e-05
4.92329e-05
4.95756e-05
4.59419e-05
4.59355e-05
4.63695e-05
4.63646e-05
4.92304e-05
4.9574e-05
4.59382e-05
4.59399e-05
4.63659e-05
4.63693e-05
4.59402e-05
4.6368e-05
4.63726e-05
4.92331e-05
4.95778e-05
4.59367e-05
4.63726e-05
4.63692e-05
4.95791e-05
4.96776e-05
5.00067e-05
4.65108e-05
4.65069e-05
4.69205e-05
4.69157e-05
4.9677e-05
5.00056e-05
4.65071e-05
4.6511e-05
4.69166e-05
4.69191e-05
4.65137e-05
4.69186e-05
4.69196e-05
4.96802e-05
5.00077e-05
4.65104e-05
4.69221e-05
4.69161e-05
5.00055e-05
5.01025e-05
5.04118e-05
4.70502e-05
4.70444e-05
4.7438e-05
4.74315e-05
5.01004e-05
5.0409e-05
4.70464e-05
4.70481e-05
4.74346e-05
4.74362e-05
4.70491e-05
4.74346e-05
4.74379e-05
5.01027e-05
5.04123e-05
4.70454e-05
4.74394e-05
4.7435e-05
5.04129e-05
5.05065e-05
5.08017e-05
4.75685e-05
4.75629e-05
4.7933e-05
4.79307e-05
5.05047e-05
5.08028e-05
4.7565e-05
4.75674e-05
4.79289e-05
4.79324e-05
4.75689e-05
4.79346e-05
4.79353e-05
5.05078e-05
5.0804e-05
4.75663e-05
4.7936e-05
4.79313e-05
5.08033e-05
5.08872e-05
5.11724e-05
4.80469e-05
4.8044e-05
4.84088e-05
4.83987e-05
5.0888e-05
5.11658e-05
4.8043e-05
4.80456e-05
4.84066e-05
4.84072e-05
4.80485e-05
4.84013e-05
4.84051e-05
5.0889e-05
5.1172e-05
4.80442e-05
4.84101e-05
4.84038e-05
5.11699e-05
5.12605e-05
5.15048e-05
4.85269e-05
4.85172e-05
4.88273e-05
4.88287e-05
5.12537e-05
5.15106e-05
4.85245e-05
4.85261e-05
4.88224e-05
4.88259e-05
4.85244e-05
4.8834e-05
4.8833e-05
5.12606e-05
5.15075e-05
4.85233e-05
4.88303e-05
4.88277e-05
5.15098e-05
5.15806e-05
5.18611e-05
4.89317e-05
4.89333e-05
4.92819e-05
4.92699e-05
5.15879e-05
5.18511e-05
4.89269e-05
4.89292e-05
4.92801e-05
4.928e-05
4.89359e-05
4.92714e-05
4.92749e-05
5.15828e-05
5.18598e-05
4.89303e-05
4.92823e-05
4.92746e-05
5.18548e-05
5.194e-05
5.21329e-05
4.93789e-05
4.93656e-05
4.96281e-05
4.96279e-05
5.19283e-05
5.21367e-05
4.93772e-05
4.93781e-05
4.96242e-05
4.96284e-05
4.93729e-05
4.9634e-05
4.96346e-05
5.19397e-05
5.21366e-05
4.93731e-05
4.96334e-05
4.96302e-05
5.21387e-05
5.22031e-05
5.24556e-05
4.97317e-05
4.9734e-05
5.00338e-05
5.00263e-05
5.22116e-05
5.24502e-05
4.97274e-05
4.97308e-05
5.00306e-05
5.00296e-05
4.97384e-05
5.00289e-05
5.00295e-05
5.22066e-05
5.24535e-05
4.97331e-05
5.00323e-05
5.00269e-05
5.2451e-05
5.2518e-05
5.27008e-05
5.0103e-05
5.00928e-05
5.03508e-05
5.03453e-05
5.25101e-05
5.26987e-05
5.01005e-05
5.00998e-05
5.03484e-05
5.03518e-05
5.00974e-05
5.03495e-05
5.03516e-05
5.25163e-05
5.27039e-05
5.0096e-05
5.03561e-05
5.03499e-05
5.2702e-05
5.27789e-05
5.29619e-05
5.04636e-05
5.04601e-05
5.06775e-05
5.06733e-05
5.27799e-05
5.29618e-05
5.04606e-05
5.04638e-05
5.06742e-05
5.06745e-05
5.04659e-05
5.06775e-05
5.06779e-05
5.27823e-05
5.29619e-05
5.04633e-05
5.06784e-05
5.06748e-05
5.29624e-05
5.30016e-05
5.31953e-05
5.07105e-05
5.07056e-05
5.09681e-05
5.09622e-05
5.30005e-05
5.31928e-05
5.07077e-05
5.07081e-05
5.09654e-05
5.09675e-05
5.071e-05
5.09669e-05
5.09672e-05
5.30014e-05
5.31966e-05
5.07071e-05
5.09712e-05
5.09646e-05
5.31937e-05
5.32857e-05
5.34184e-05
5.10881e-05
5.10824e-05
5.12705e-05
5.12652e-05
5.32834e-05
5.34165e-05
5.10852e-05
5.10867e-05
5.12674e-05
5.12664e-05
5.10873e-05
5.12676e-05
5.1269e-05
5.32869e-05
5.34178e-05
5.10848e-05
5.12704e-05
5.12675e-05
5.34185e-05
5.34392e-05
5.35731e-05
5.12807e-05
5.12755e-05
5.1423e-05
5.14177e-05
5.34372e-05
5.35723e-05
5.12777e-05
5.12769e-05
5.14214e-05
5.14283e-05
5.12794e-05
5.14257e-05
5.14265e-05
5.34388e-05
5.35781e-05
5.12778e-05
5.14323e-05
5.14229e-05
5.35736e-05
5.36743e-05
5.15584e-05
5.15536e-05
5.36739e-05
5.15564e-05
5.1561e-05
5.15605e-05
5.36785e-05
5.15573e-05
6.4857e-05
7.13742e-05
6.47592e-05
7.14103e-05
6.95441e-05
6.95699e-05
6.48562e-05
7.13757e-05
6.4758e-05
7.14118e-05
2.12006e-05
2.12032e-05
2.17685e-05
2.17692e-05
2.17724e-05
2.17729e-05
5.36074e-05
6.02739e-05
2.92587e-05
3.71306e-05
5.34095e-05
6.03947e-05
2.95045e-05
6.95716e-05
5.36077e-05
2.92605e-05
3.71321e-05
5.34095e-05
2.95059e-05
6.03976e-05
6.69548e-05
6.69631e-05
4.2328e-05
6.70293e-05
6.70377e-05
6.50867e-05
7.14599e-05
6.499e-05
7.14959e-05
6.96011e-05
6.96279e-05
6.50861e-05
7.14615e-05
6.49898e-05
7.14974e-05
2.19617e-05
2.1966e-05
2.19661e-05
2.25496e-05
2.25491e-05
2.25541e-05
2.2553e-05
5.40734e-05
6.05628e-05
3.02387e-05
3.80306e-05
5.38817e-05
6.06827e-05
3.04844e-05
6.96025e-05
6.96288e-05
5.40752e-05
3.02435e-05
6.05681e-05
3.80373e-05
5.38836e-05
3.04891e-05
6.06861e-05
6.71331e-05
6.71415e-05
4.3045e-05
6.72065e-05
6.72149e-05
6.53072e-05
7.15453e-05
6.52148e-05
7.15817e-05
6.96595e-05
6.96867e-05
6.53063e-05
7.15468e-05
6.52137e-05
7.15832e-05
2.2747e-05
2.27511e-05
2.27502e-05
2.33406e-05
2.33422e-05
2.33448e-05
2.33453e-05
5.45208e-05
6.08454e-05
3.12179e-05
3.89081e-05
5.43384e-05
6.09578e-05
3.14607e-05
6.96609e-05
6.96881e-05
5.45212e-05
3.12214e-05
6.08467e-05
3.89107e-05
5.43387e-05
3.14631e-05
6.09601e-05
6.73047e-05
6.73129e-05
4.37359e-05
6.7375e-05
6.73833e-05
6.55213e-05
7.1632e-05
6.5431e-05
7.1669e-05
6.97197e-05
6.9748e-05
6.55208e-05
7.16336e-05
6.54304e-05
7.16705e-05
2.35414e-05
2.35446e-05
2.35451e-05
2.41433e-05
2.4143e-05
2.41482e-05
2.41481e-05
5.49479e-05
6.11115e-05
3.21806e-05
3.97509e-05
5.47726e-05
6.12211e-05
3.24192e-05
6.97215e-05
6.97495e-05
5.49491e-05
3.2184e-05
6.11144e-05
3.97557e-05
5.47734e-05
3.24226e-05
6.1225e-05
6.7471e-05
6.74793e-05
4.4401e-05
6.75399e-05
6.75483e-05
6.57297e-05
7.17196e-05
6.56419e-05
7.17567e-05
6.97821e-05
6.98109e-05
6.5729e-05
7.17212e-05
6.56414e-05
7.17583e-05
2.43449e-05
2.43505e-05
2.43504e-05
2.49557e-05
2.49552e-05
2.4961e-05
2.49605e-05
5.53599e-05
6.1371e-05
3.31283e-05
4.05695e-05
5.51909e-05
6.1477e-05
3.33635e-05
6.97836e-05
6.98121e-05
5.53611e-05
3.31332e-05
6.13747e-05
4.05754e-05
5.51922e-05
3.33681e-05
6.14802e-05
6.76336e-05
6.76418e-05
4.50447e-05
6.77004e-05
6.77087e-05
6.59305e-05
7.18074e-05
6.58463e-05
7.18444e-05
6.98454e-05
6.98746e-05
6.59297e-05
7.1809e-05
6.58455e-05
7.1846e-05
2.51595e-05
2.51648e-05
2.51645e-05
2.57706e-05
2.57709e-05
2.57751e-05
2.57755e-05
5.57548e-05
6.16212e-05
3.40616e-05
4.13615e-05
5.55933e-05
6.17221e-05
3.42914e-05
6.9847e-05
6.98759e-05
5.57554e-05
3.40656e-05
6.16237e-05
4.13655e-05
5.55939e-05
3.42947e-05
6.17249e-05
6.77908e-05
6.7799e-05
4.56645e-05
6.78547e-05
6.7863e-05
6.61246e-05
7.18952e-05
6.60429e-05
7.19324e-05
6.99099e-05
6.99395e-05
6.6124e-05
7.18969e-05
6.60422e-05
7.1934e-05
2.59744e-05
2.5979e-05
2.59792e-05
2.65859e-05
2.65854e-05
2.65907e-05
2.65906e-05
5.61324e-05
6.18597e-05
3.497e-05
4.21215e-05
5.59774e-05
6.19572e-05
3.51937e-05
6.99115e-05
6.99409e-05
5.61334e-05
3.49739e-05
6.18625e-05
4.21264e-05
5.59782e-05
3.51976e-05
6.19603e-05
6.79422e-05
6.79505e-05
4.62593e-05
6.80047e-05
6.8013e-05
6.63126e-05
7.19833e-05
6.62335e-05
7.20203e-05
6.99754e-05
7.00053e-05
6.63117e-05
7.19849e-05
6.62326e-05
7.20219e-05
2.67886e-05
2.67936e-05
2.67939e-05
2.7396e-05
2.73964e-05
2.74011e-05
2.74011e-05
5.64952e-05
6.209e-05
3.58548e-05
4.28539e-05
5.63465e-05
6.21839e-05
3.60721e-05
6.9977e-05
7.00066e-05
5.64958e-05
3.58587e-05
6.20927e-05
4.28579e-05
5.63472e-05
3.60753e-05
6.21862e-05
6.80892e-05
6.80974e-05
4.68316e-05
6.81492e-05
6.81575e-05
6.64936e-05
7.20709e-05
6.64173e-05
7.21079e-05
7.00416e-05
7.00718e-05
6.64929e-05
7.20726e-05
6.64166e-05
7.21095e-05
2.75985e-05
2.76038e-05
2.76032e-05
2.82012e-05
2.82003e-05
2.82062e-05
2.82062e-05
5.68422e-05
6.23109e-05
3.67128e-05
4.35569e-05
5.66999e-05
6.24012e-05
3.69228e-05
7.00432e-05
7.00731e-05
5.68433e-05
3.67171e-05
6.23134e-05
4.35623e-05
5.67007e-05
3.69272e-05
6.24036e-05
6.8231e-05
6.82393e-05
4.73809e-05
6.82893e-05
6.82977e-05
6.66689e-05
7.21584e-05
6.6595e-05
7.21952e-05
7.01085e-05
7.01388e-05
6.66678e-05
7.216e-05
6.65939e-05
7.21968e-05
2.83999e-05
2.84049e-05
2.84056e-05
2.8997e-05
2.8997e-05
2.90016e-05
2.90006e-05
5.71752e-05
6.25237e-05
3.75416e-05
4.4232e-05
5.70385e-05
6.26103e-05
3.77449e-05
7.011e-05
7.01402e-05
5.71756e-05
3.7545e-05
6.25248e-05
4.4235e-05
5.70391e-05
3.77476e-05
6.2611e-05
6.83682e-05
6.83764e-05
4.79074e-05
6.8424e-05
6.84324e-05
6.68372e-05
7.22454e-05
6.67666e-05
7.22818e-05
7.01757e-05
7.02062e-05
6.68367e-05
7.22471e-05
6.67659e-05
7.22834e-05
2.91934e-05
2.91992e-05
2.91976e-05
2.97777e-05
2.97771e-05
2.97835e-05
2.97842e-05
5.74936e-05
6.27272e-05
3.83408e-05
4.48764e-05
5.73632e-05
6.28097e-05
3.85352e-05
7.01774e-05
7.02074e-05
5.74949e-05
3.83453e-05
6.27289e-05
4.48823e-05
5.7364e-05
3.854e-05
6.28116e-05
6.85006e-05
6.85089e-05
4.84122e-05
6.85553e-05
6.85636e-05
6.70004e-05
7.23317e-05
6.69311e-05
7.2368e-05
7.02433e-05
7.02738e-05
6.69989e-05
7.23332e-05
6.69299e-05
7.23696e-05
2.99718e-05
2.9977e-05
2.9978e-05
3.05488e-05
3.0548e-05
3.05529e-05
3.05509e-05
5.77985e-05
6.29221e-05
3.91097e-05
4.54966e-05
5.76731e-05
6.30019e-05
3.92974e-05
7.02447e-05
7.0275e-05
5.77984e-05
3.91129e-05
6.29221e-05
4.54995e-05
5.76736e-05
3.93003e-05
6.30013e-05
6.86281e-05
6.86363e-05
4.88946e-05
6.86789e-05
6.86873e-05
6.71554e-05
7.24172e-05
6.70907e-05
7.24528e-05
7.03107e-05
7.03414e-05
6.7155e-05
7.24189e-05
6.709e-05
7.24545e-05
3.07355e-05
3.07412e-05
3.07393e-05
3.12958e-05
3.12952e-05
3.1301e-05
3.13019e-05
5.80878e-05
6.31073e-05
3.98438e-05
4.60816e-05
5.79693e-05
6.31822e-05
4.00218e-05
7.03124e-05
7.03427e-05
5.8089e-05
3.98478e-05
6.31083e-05
4.60865e-05
5.79701e-05
4.00257e-05
6.31836e-05
6.87496e-05
6.87581e-05
4.93534e-05
6.88016e-05
6.88099e-05
6.73073e-05
7.25019e-05
6.72427e-05
7.25373e-05
7.03788e-05
7.04088e-05
6.73059e-05
7.25035e-05
6.72417e-05
7.25389e-05
3.14821e-05
3.14879e-05
3.14883e-05
3.20331e-05
3.20329e-05
3.20384e-05
3.20369e-05
5.83674e-05
6.32868e-05
4.05495e-05
4.665e-05
5.82526e-05
6.33597e-05
4.07224e-05
7.03801e-05
7.041e-05
5.83677e-05
4.05536e-05
6.32866e-05
4.6654e-05
5.8253e-05
4.07264e-05
6.33594e-05
6.88703e-05
6.88786e-05
4.97976e-05
6.89163e-05
6.89248e-05
6.74471e-05
7.25848e-05
6.73887e-05
7.26198e-05
7.04454e-05
7.04763e-05
6.74466e-05
7.25865e-05
6.73877e-05
7.26214e-05
3.22104e-05
3.22156e-05
3.22147e-05
3.27376e-05
3.27354e-05
3.27412e-05
3.27407e-05
5.86257e-05
6.34524e-05
4.12197e-05
4.71753e-05
5.85201e-05
6.35195e-05
4.13788e-05
7.0447e-05
7.04775e-05
5.86261e-05
4.12226e-05
6.34527e-05
4.71787e-05
5.85208e-05
4.13815e-05
6.35198e-05
6.89788e-05
6.89871e-05
5.02078e-05
6.90264e-05
6.90346e-05
6.75892e-05
7.2668e-05
6.75291e-05
7.27019e-05
7.05137e-05
7.05432e-05
6.75874e-05
7.26695e-05
6.75279e-05
7.27035e-05
3.29131e-05
3.29199e-05
3.29188e-05
3.34336e-05
3.34358e-05
3.344e-05
3.34401e-05
5.88813e-05
6.36168e-05
4.18586e-05
4.76945e-05
5.87756e-05
6.3684e-05
4.20182e-05
7.0515e-05
7.05444e-05
5.88823e-05
4.18637e-05
6.36167e-05
4.76992e-05
5.87761e-05
4.20233e-05
6.3684e-05
6.90925e-05
6.9101e-05
5.0616e-05
6.91358e-05
6.91444e-05
6.77128e-05
7.27474e-05
6.76601e-05
7.27818e-05
7.05791e-05
7.06095e-05
6.7713e-05
7.27493e-05
6.76593e-05
7.27836e-05
3.35993e-05
3.36019e-05
3.36026e-05
3.40979e-05
3.40924e-05
3.41011e-05
3.40985e-05
5.911e-05
6.37654e-05
4.24634e-05
4.81623e-05
5.90174e-05
6.3825e-05
4.26052e-05
7.05807e-05
7.06109e-05
5.91096e-05
4.24639e-05
6.37648e-05
4.81645e-05
5.90173e-05
4.26062e-05
6.38253e-05
6.91906e-05
6.91985e-05
5.09816e-05
6.92333e-05
6.92417e-05
6.78413e-05
7.28279e-05
6.77899e-05
7.28591e-05
7.06461e-05
7.06751e-05
6.7839e-05
7.28293e-05
6.77892e-05
7.28605e-05
3.4263e-05
3.42744e-05
3.42709e-05
3.47286e-05
3.47336e-05
3.4735e-05
3.47368e-05
5.9339e-05
6.39129e-05
4.30461e-05
4.86308e-05
5.92449e-05
6.39715e-05
4.31865e-05
7.06473e-05
7.06757e-05
5.93411e-05
4.30551e-05
6.39157e-05
4.86378e-05
5.92475e-05
4.3194e-05
6.39715e-05
6.92954e-05
6.93044e-05
5.13525e-05
6.93328e-05
6.93406e-05
6.79544e-05
7.29042e-05
6.79005e-05
7.29393e-05
7.0711e-05
7.0741e-05
6.79542e-05
7.2906e-05
6.78979e-05
7.29413e-05
3.48812e-05
3.48793e-05
3.48822e-05
3.53703e-05
3.53644e-05
3.53732e-05
3.53697e-05
5.95401e-05
6.40433e-05
4.35709e-05
4.905e-05
5.94557e-05
6.41012e-05
4.3706e-05
7.07125e-05
7.07431e-05
5.95372e-05
4.35667e-05
6.40375e-05
4.90478e-05
5.94515e-05
4.37035e-05
6.41003e-05
6.93802e-05
6.93874e-05
5.16736e-05
6.94242e-05
6.94335e-05
6.80629e-05
7.29808e-05
6.80272e-05
7.30082e-05
7.0775e-05
7.0803e-05
6.80621e-05
7.29825e-05
6.80288e-05
7.30095e-05
3.55181e-05
3.55308e-05
3.55259e-05
3.59215e-05
3.59231e-05
3.59282e-05
3.59285e-05
5.97411e-05
6.41784e-05
4.41051e-05
4.94532e-05
5.96644e-05
6.42219e-05
4.42175e-05
7.07768e-05
7.08033e-05
5.97466e-05
4.41165e-05
6.41869e-05
4.94648e-05
5.96717e-05
4.4228e-05
6.42246e-05
6.94813e-05
6.94913e-05
5.20063e-05
6.95075e-05
6.95147e-05
6.8169e-05
7.30536e-05
6.81119e-05
7.30879e-05
7.08403e-05
7.08684e-05
6.81668e-05
7.3055e-05
6.81077e-05
7.30899e-05
3.6071e-05
3.60727e-05
3.60746e-05
3.65271e-05
3.65266e-05
3.65294e-05
3.65293e-05
5.9921e-05
6.42892e-05
4.45667e-05
4.98495e-05
5.98384e-05
6.43496e-05
4.46981e-05
7.08408e-05
7.08705e-05
5.99148e-05
4.45644e-05
6.42802e-05
4.98447e-05
5.98317e-05
4.46946e-05
6.43452e-05
6.95532e-05
6.95594e-05
5.22984e-05
6.95997e-05
6.96086e-05
6.82535e-05
7.31247e-05
6.82291e-05
7.31527e-05
7.08996e-05
7.09299e-05
6.82541e-05
7.31266e-05
6.82304e-05
7.31542e-05
3.66473e-05
3.66527e-05
3.66511e-05
3.70165e-05
3.70134e-05
3.7023e-05
3.70198e-05
6.00801e-05
6.44036e-05
4.50234e-05
5.01611e-05
6.00262e-05
6.44338e-05
4.511e-05
7.09017e-05
7.09301e-05
6.00862e-05
4.50285e-05
6.44103e-05
5.01709e-05
6.00312e-05
4.51177e-05
6.44387e-05
6.96353e-05
6.96453e-05
5.25659e-05
6.96564e-05
6.96649e-05
6.83639e-05
7.31981e-05
6.83112e-05
7.32234e-05
7.09649e-05
7.09874e-05
6.83618e-05
7.31996e-05
6.83092e-05
7.32251e-05
3.71706e-05
3.71786e-05
3.71765e-05
3.75744e-05
3.75749e-05
3.75778e-05
3.75786e-05
6.02631e-05
6.45208e-05
4.54567e-05
5.05663e-05
6.01771e-05
6.4571e-05
4.55847e-05
7.09661e-05
7.09888e-05
6.02603e-05
4.54614e-05
6.45172e-05
5.05676e-05
6.01764e-05
4.55869e-05
6.45689e-05
6.9733e-05
6.97403e-05
5.28689e-05
6.97517e-05
6.97599e-05
6.83994e-05
7.32546e-05
6.83817e-05
7.32915e-05
7.10196e-05
7.1055e-05
6.8399e-05
7.32563e-05
6.83808e-05
7.32931e-05
3.76599e-05
3.76632e-05
3.76635e-05
3.79864e-05
3.79854e-05
3.79923e-05
3.79896e-05
6.0349e-05
6.4575e-05
4.58141e-05
5.07619e-05
6.03218e-05
6.46083e-05
4.58729e-05
7.10208e-05
7.1056e-05
6.0349e-05
4.58155e-05
6.45752e-05
5.07652e-05
6.03212e-05
4.58754e-05
6.46088e-05
6.97467e-05
6.97552e-05
5.3032e-05
6.98015e-05
6.98093e-05
6.85277e-05
7.33342e-05
6.84949e-05
7.33483e-05
7.10834e-05
7.11002e-05
6.85264e-05
7.33359e-05
6.84937e-05
7.335e-05
3.81428e-05
3.81492e-05
3.81471e-05
3.85374e-05
3.85354e-05
3.85403e-05
3.85408e-05
6.05592e-05
6.47332e-05
4.62235e-05
5.11826e-05
6.04725e-05
6.4749e-05
4.63529e-05
7.10848e-05
7.11014e-05
6.056e-05
4.6227e-05
6.47333e-05
5.1186e-05
6.04727e-05
4.63563e-05
6.47495e-05
6.98875e-05
6.98961e-05
5.33622e-05
6.98831e-05
6.98923e-05
6.85147e-05
7.33751e-05
6.85152e-05
7.3417e-05
7.11323e-05
7.11726e-05
6.85146e-05
7.33768e-05
6.85144e-05
7.34185e-05
3.86009e-05
3.86038e-05
3.86037e-05
3.88102e-05
3.88099e-05
3.88172e-05
3.88142e-05
6.05697e-05
6.47203e-05
4.6522e-05
5.12922e-05
6.0567e-05
6.47418e-05
4.65441e-05
7.11337e-05
7.11736e-05
6.05699e-05
4.65257e-05
6.47218e-05
5.12956e-05
6.05679e-05
4.65479e-05
6.47422e-05
6.98476e-05
6.9856e-05
5.34373e-05
6.99102e-05
6.99168e-05
7.34649e-05
6.86357e-05
7.12009e-05
6.86763e-05
7.34665e-05
6.86345e-05
3.89437e-05
3.89536e-05
3.89509e-05
6.49045e-05
4.68186e-05
6.07007e-05
7.12021e-05
7.12126e-05
6.08001e-05
4.68228e-05
6.49029e-05
5.16855e-05
6.06984e-05
4.69622e-05
6.49303e-05
7.00311e-05
7.00393e-05
5.37821e-05
7.00327e-05
7.00419e-05
6.95432e-05
6.95693e-05
6.95461e-05
6.95722e-05
6.69565e-05
6.69648e-05
4.23237e-05
6.70321e-05
6.70407e-05
6.9598e-05
6.95717e-05
6.96009e-05
6.95746e-05
4.24875e-05
6.71235e-05
6.71321e-05
6.70469e-05
6.70554e-05
6.48556e-05
7.13711e-05
6.47579e-05
7.14065e-05
5.36073e-05
6.02737e-05
2.92569e-05
3.71312e-05
5.34099e-05
6.03955e-05
2.95018e-05
5.36061e-05
6.02726e-05
2.92559e-05
3.71303e-05
5.34085e-05
6.03932e-05
2.9501e-05
6.48746e-05
7.14533e-05
7.14169e-05
6.49725e-05
6.48732e-05
7.14494e-05
7.14131e-05
6.49708e-05
5.36477e-05
3.73587e-05
6.05429e-05
2.99924e-05
6.04196e-05
2.97469e-05
5.38425e-05
5.36465e-05
3.73565e-05
6.05374e-05
2.99906e-05
6.04168e-05
2.97458e-05
5.38408e-05
6.69587e-05
6.69554e-05
4.23261e-05
6.70319e-05
6.70287e-05
6.95423e-05
6.95682e-05
6.95987e-05
6.95722e-05
4.24894e-05
6.71211e-05
6.71178e-05
6.70463e-05
6.70431e-05
6.9597e-05
6.95704e-05
5.36063e-05
6.02757e-05
2.92554e-05
3.71262e-05
5.34089e-05
6.03977e-05
2.95002e-05
6.4855e-05
7.14077e-05
5.36052e-05
3.71309e-05
2.95019e-05
6.03954e-05
6.48739e-05
7.14549e-05
7.14185e-05
6.49724e-05
5.36469e-05
3.73538e-05
6.05453e-05
2.99913e-05
6.04217e-05
2.97454e-05
5.38425e-05
6.48727e-05
7.14504e-05
7.14143e-05
6.49711e-05
5.36459e-05
3.73592e-05
2.99934e-05
6.05426e-05
2.97474e-05
6.04195e-05
5.38416e-05
6.48553e-05
7.1373e-05
6.47575e-05
7.14085e-05
5.36074e-05
2.9261e-05
6.02724e-05
3.7135e-05
5.34093e-05
2.95063e-05
6.03945e-05
6.48559e-05
7.13711e-05
6.4758e-05
7.14068e-05
5.36479e-05
3.7357e-05
6.0539e-05
2.99941e-05
6.04185e-05
2.97488e-05
5.38418e-05
6.48728e-05
7.14514e-05
7.14152e-05
6.49701e-05
5.36478e-05
3.73622e-05
2.99965e-05
6.05394e-05
2.97514e-05
6.04182e-05
5.38421e-05
6.48734e-05
7.14497e-05
7.14134e-05
6.49708e-05
4.23252e-05
6.7037e-05
6.70338e-05
6.95703e-05
6.96001e-05
6.95741e-05
4.24899e-05
6.71274e-05
6.71241e-05
6.70517e-05
6.70486e-05
6.95987e-05
6.95727e-05
5.36061e-05
2.92592e-05
6.02746e-05
3.71298e-05
5.34082e-05
2.95044e-05
6.03969e-05
6.48557e-05
6.47573e-05
7.14111e-05
6.48541e-05
7.13728e-05
6.47559e-05
7.14085e-05
5.36483e-05
3.73603e-05
2.99973e-05
6.05448e-05
2.97516e-05
6.04218e-05
5.38437e-05
5.36469e-05
3.73569e-05
2.99952e-05
6.0542e-05
2.97498e-05
6.04205e-05
5.38417e-05
6.48734e-05
7.14538e-05
7.14177e-05
6.49714e-05
6.48718e-05
7.14514e-05
7.14151e-05
6.49696e-05
6.95439e-05
6.95696e-05
6.95465e-05
6.95722e-05
4.24917e-05
6.71188e-05
6.71273e-05
6.70435e-05
6.7052e-05
6.95983e-05
6.9572e-05
6.9601e-05
6.95747e-05
6.96005e-05
6.96268e-05
6.96033e-05
6.96296e-05
6.71377e-05
6.71462e-05
4.30444e-05
6.72104e-05
6.72189e-05
6.9656e-05
6.96292e-05
6.96588e-05
6.96321e-05
4.32039e-05
6.72948e-05
6.73032e-05
6.72241e-05
6.72324e-05
6.5085e-05
7.14561e-05
6.49883e-05
7.14925e-05
5.40746e-05
6.05666e-05
3.02381e-05
3.80357e-05
5.38825e-05
6.06857e-05
3.04837e-05
5.40727e-05
6.05611e-05
3.02358e-05
3.803e-05
5.38807e-05
6.06812e-05
3.04811e-05
6.51037e-05
7.15386e-05
7.15025e-05
6.51981e-05
6.51022e-05
7.15353e-05
7.14992e-05
6.51968e-05
5.41136e-05
3.82577e-05
6.08235e-05
3.09734e-05
6.07084e-05
3.07289e-05
5.43008e-05
5.41118e-05
3.82527e-05
6.08212e-05
3.09714e-05
6.07044e-05
3.07265e-05
5.42993e-05
6.71356e-05
6.71323e-05
4.30405e-05
6.72099e-05
6.72067e-05
6.95993e-05
6.96262e-05
6.96571e-05
6.96302e-05
4.32004e-05
6.72961e-05
6.72929e-05
6.72241e-05
6.72209e-05
6.96554e-05
6.96285e-05
5.40747e-05
6.05689e-05
3.02374e-05
3.80313e-05
5.38827e-05
6.0688e-05
3.04834e-05
6.50847e-05
7.1457e-05
6.49885e-05
7.1493e-05
5.40735e-05
3.02395e-05
6.05659e-05
3.80361e-05
5.38817e-05
3.04854e-05
6.0684e-05
6.51031e-05
7.15401e-05
7.1504e-05
6.51971e-05
5.41136e-05
3.82532e-05
6.08256e-05
3.09729e-05
6.07105e-05
3.07287e-05
5.43e-05
6.51016e-05
7.15359e-05
7.14996e-05
6.51957e-05
5.41124e-05
3.82577e-05
3.09748e-05
6.08221e-05
3.07306e-05
6.07065e-05
5.42988e-05
6.50843e-05
7.14582e-05
6.49877e-05
7.14946e-05
5.40736e-05
3.02419e-05
6.0563e-05
3.8037e-05
5.38819e-05
3.04871e-05
6.06825e-05
6.50849e-05
7.14563e-05
6.49883e-05
7.14925e-05
5.41126e-05
3.82534e-05
6.08229e-05
3.09745e-05
6.07061e-05
3.07292e-05
5.43002e-05
6.51015e-05
7.15374e-05
7.15013e-05
6.51962e-05
5.41126e-05
3.82588e-05
3.09766e-05
6.0821e-05
3.07322e-05
6.07054e-05
5.43001e-05
6.51021e-05
7.15353e-05
7.14991e-05
6.51966e-05
6.71413e-05
6.7138e-05
4.30465e-05
6.72133e-05
6.721e-05
6.96012e-05
6.96275e-05
6.96582e-05
6.96314e-05
4.32055e-05
6.72985e-05
6.72953e-05
6.72269e-05
6.72237e-05
6.96569e-05
6.963e-05
5.40733e-05
3.02411e-05
6.05654e-05
3.80323e-05
5.38819e-05
3.04866e-05
6.0685e-05
6.5085e-05
7.14604e-05
6.49889e-05
7.14963e-05
6.50833e-05
7.1458e-05
6.49872e-05
7.14942e-05
5.41141e-05
3.82589e-05
3.09784e-05
6.08244e-05
3.07343e-05
6.07087e-05
5.43008e-05
5.41125e-05
3.8254e-05
3.09759e-05
6.08232e-05
3.07318e-05
6.07077e-05
5.4299e-05
6.51021e-05
7.15392e-05
7.1503e-05
6.51962e-05
6.51005e-05
7.1537e-05
7.15008e-05
6.51946e-05
6.96008e-05
6.96273e-05
6.96034e-05
6.96298e-05
4.32043e-05
6.72913e-05
6.72995e-05
6.72202e-05
6.72285e-05
6.96566e-05
6.96298e-05
6.96592e-05
6.96324e-05
6.96586e-05
6.96858e-05
6.96615e-05
6.96887e-05
6.73083e-05
6.73166e-05
4.37339e-05
6.7378e-05
6.73865e-05
6.97163e-05
6.96886e-05
6.97192e-05
6.96915e-05
4.38864e-05
6.74612e-05
6.74697e-05
6.73914e-05
6.73997e-05
6.53058e-05
7.1542e-05
6.52134e-05
7.15781e-05
5.45211e-05
6.08457e-05
3.12168e-05
3.89094e-05
5.43387e-05
6.09586e-05
3.14588e-05
5.45197e-05
6.08436e-05
3.12152e-05
3.89073e-05
5.43373e-05
6.0956e-05
3.14575e-05
6.53235e-05
7.16252e-05
7.15884e-05
6.54148e-05
6.53221e-05
7.16215e-05
7.15849e-05
6.54133e-05
5.45581e-05
3.91227e-05
6.10919e-05
3.19398e-05
6.09803e-05
3.16997e-05
5.47365e-05
5.45567e-05
3.91205e-05
6.1088e-05
3.19383e-05
6.09777e-05
3.16984e-05
5.4735e-05
6.73096e-05
6.73065e-05
4.37351e-05
6.73785e-05
6.73754e-05
6.96578e-05
6.9685e-05
6.97171e-05
6.96892e-05
4.38878e-05
6.74605e-05
6.74574e-05
6.73918e-05
6.73887e-05
6.97154e-05
6.96875e-05
5.45201e-05
6.08476e-05
3.12159e-05
3.89046e-05
5.4338e-05
6.09607e-05
3.14575e-05
6.5305e-05
7.15425e-05
6.52124e-05
7.1579e-05
5.4519e-05
3.12178e-05
6.08443e-05
3.89091e-05
5.43368e-05
3.14594e-05
6.09577e-05
6.53227e-05
7.16268e-05
7.159e-05
6.54142e-05
5.45572e-05
3.91179e-05
6.10941e-05
3.19383e-05
6.09823e-05
3.16982e-05
5.47359e-05
6.53213e-05
7.16225e-05
7.15857e-05
6.54128e-05
5.45561e-05
3.91224e-05
3.19402e-05
6.10906e-05
3.17001e-05
6.09793e-05
5.47348e-05
6.53054e-05
7.15441e-05
6.5213e-05
7.15802e-05
5.45207e-05
3.12202e-05
6.08432e-05
3.89115e-05
5.43381e-05
3.14624e-05
6.09564e-05
6.53059e-05
7.1542e-05
6.52133e-05
7.15785e-05
5.4558e-05
3.91216e-05
6.10899e-05
3.19419e-05
6.09796e-05
3.17014e-05
5.47362e-05
6.53218e-05
7.16236e-05
7.1587e-05
6.54128e-05
5.45577e-05
3.91252e-05
3.19438e-05
6.10896e-05
3.17037e-05
6.09782e-05
5.47362e-05
6.53223e-05
7.16219e-05
7.15852e-05
6.54134e-05
6.73119e-05
6.73088e-05
4.37356e-05
6.73818e-05
6.73787e-05
6.96595e-05
6.96867e-05
6.97186e-05
6.96908e-05
4.38884e-05
6.74646e-05
6.74614e-05
6.7395e-05
6.73919e-05
6.97172e-05
6.96894e-05
5.45193e-05
3.1219e-05
6.08453e-05
3.89066e-05
5.43371e-05
3.14609e-05
6.09586e-05
6.53056e-05
7.15459e-05
6.5213e-05
7.15823e-05
6.53039e-05
7.15436e-05
6.52114e-05
7.15801e-05
5.45583e-05
3.91239e-05
3.19443e-05
6.1093e-05
3.17041e-05
6.09818e-05
5.4737e-05
5.45566e-05
3.91201e-05
3.19422e-05
6.10921e-05
3.1702e-05
6.09804e-05
5.47353e-05
6.53221e-05
7.16259e-05
7.15891e-05
6.54134e-05
6.53205e-05
7.16236e-05
7.15869e-05
6.54118e-05
6.96592e-05
6.96864e-05
6.96618e-05
6.96891e-05
4.38886e-05
6.74578e-05
6.74662e-05
6.73883e-05
6.73966e-05
6.97169e-05
6.96892e-05
6.97195e-05
6.96918e-05
6.97192e-05
6.97472e-05
6.97221e-05
6.97501e-05
6.74746e-05
6.74829e-05
4.43989e-05
6.75436e-05
6.7552e-05
6.97784e-05
6.97501e-05
6.97813e-05
6.9753e-05
4.45471e-05
6.76241e-05
6.76324e-05
6.75566e-05
6.75649e-05
6.55197e-05
7.16283e-05
6.54295e-05
7.16652e-05
5.49485e-05
6.11134e-05
3.21792e-05
3.97541e-05
5.47729e-05
6.12236e-05
3.24178e-05
5.49468e-05
6.11096e-05
3.21775e-05
3.97498e-05
5.47713e-05
6.12192e-05
3.24157e-05
6.55373e-05
7.17128e-05
7.16758e-05
6.56262e-05
6.55357e-05
7.17091e-05
7.16721e-05
6.56246e-05
5.49841e-05
3.99612e-05
6.13522e-05
3.28919e-05
6.12447e-05
3.26553e-05
5.51564e-05
5.49824e-05
3.99565e-05
6.13481e-05
3.28895e-05
6.12405e-05
3.26531e-05
5.51547e-05
6.74739e-05
6.74708e-05
4.43972e-05
6.75425e-05
6.75394e-05
6.9718e-05
6.97463e-05
6.97793e-05
6.97507e-05
4.4545e-05
6.76233e-05
6.76203e-05
6.75557e-05
6.75526e-05
6.97776e-05
6.9749e-05
5.49482e-05
6.11155e-05
3.21779e-05
3.97495e-05
5.47724e-05
6.12258e-05
3.24167e-05
6.55195e-05
7.16293e-05
6.5429e-05
7.16663e-05
5.4947e-05
3.21799e-05
6.1112e-05
3.97539e-05
5.47713e-05
3.24187e-05
6.12226e-05
6.55368e-05
7.17144e-05
7.16774e-05
6.56257e-05
5.49839e-05
3.99567e-05
6.13545e-05
3.28911e-05
6.12468e-05
3.26544e-05
5.51563e-05
6.55354e-05
7.17101e-05
7.16732e-05
6.56244e-05
5.49828e-05
3.99613e-05
3.28932e-05
6.13517e-05
3.26565e-05
6.12437e-05
5.51552e-05
6.55192e-05
7.16304e-05
6.54291e-05
7.16673e-05
5.4948e-05
3.21833e-05
6.11111e-05
3.97562e-05
5.47725e-05
3.24216e-05
6.12209e-05
6.55198e-05
7.16287e-05
6.54296e-05
7.16657e-05
5.49836e-05
3.99577e-05
6.13501e-05
3.2893e-05
6.12424e-05
3.26561e-05