/*--------------------------------*- C++ -*----------------------------------*\
| =========                 |                                                 |
| \\      /  F ield         | OpenFOAM: The Open Source CFD Toolbox           |
|  \\    /   O peration     | Version:  2312                                  |
|   \\  /    A nd           | Website:  www.openfoam.com                      |
|    \\/     M anipulation  |                                                 |
\*---------------------------------------------------------------------------*/
FoamFile
{
    version     2.0;
    format      ascii;
    arch        "LSB;label=32;scalar=64";
    class       volScalarField;
    location    "375";
    object      nut;
}
// * * * * * * * * * * * * * * * * * * * * * * * * * * * * * * * * * * * * * //

dimensions      [0 2 -1 0 0 0 0];

internalField   nonuniform List<scalar> 
42973
(
0.000123751
0.000140155
0.00013774
0.000126548
0.000143255
0.000143279
0.000140153
0.000129557
0.000146373
0.000146378
0.00014254
0.000132649
0.0001494
0.000149404
0.000144847
0.000135867
0.000152381
0.000152401
0.000147116
0.00013921
0.000155337
0.000155348
0.000149337
0.000142604
0.000158211
0.000158221
0.00015149
0.000146076
0.00016103
0.00016104
0.000153595
0.000149575
0.000163785
0.000163799
0.000155636
0.000153098
0.000166472
0.000166478
0.000157623
0.000156668
0.000169093
0.000169109
0.000159547
0.000160181
0.00017165
0.000171656
0.000161423
0.000163742
0.000174118
0.000174129
0.00016321
0.000167217
0.000176542
0.000176554
0.000164984
0.000170719
0.000178865
0.00017887
0.000166646
0.000174111
0.000181133
0.000181152
0.000168284
0.000177477
0.000183301
0.000183286
0.000169842
0.000180901
0.000185465
0.00018552
0.000171376
0.00018386
0.000187382
0.000187327
0.000172735
0.000187456
0.000189481
0.000189556
0.000174255
0.000190082
0.000191237
0.000191197
0.000175413
0.000193446
0.000193055
0.00019308
0.000176782
0.000196147
0.000194914
0.00019493
0.00017796
0.000199056
0.00019621
0.000196207
0.000179005
0.000201604
0.000198215
0.000198228
0.000180281
0.000204722
0.000199408
0.000199412
0.000181138
0.000206092
0.000200762
0.000200785
0.00018209
0.000137746
0.000139746
0.000140138
0.000140135
0.000142473
0.000142457
0.000137747
0.000139743
0.000140135
0.000142471
0.00014247
0.000140146
0.000142478
0.00014248
0.000139754
0.000140138
0.000142492
0.000142474
0.000139748
0.000140157
0.000142158
0.00014326
0.000143234
0.000145599
0.000145578
0.000140145
0.000142148
0.000143259
0.000143256
0.000145598
0.000145591
0.000143262
0.000145598
0.000145595
0.000140166
0.000142155
0.000143257
0.000145613
0.000145591
0.000142148
0.000142548
0.000144471
0.000146365
0.000146353
0.000148636
0.000148628
0.000142545
0.000144474
0.000146364
0.000146356
0.000148634
0.000148626
0.000146363
0.000148649
0.00014864
0.000142545
0.000144473
0.000146358
0.00014865
0.000148635
0.00014447
0.000144849
0.000146754
0.000149391
0.000149378
0.000151637
0.000151615
0.000144848
0.000146742
0.000149389
0.000149381
0.000151637
0.000151632
0.000149394
0.000151636
0.000151639
0.000144849
0.000146758
0.000149389
0.000151656
0.000151636
0.000146749
0.00014712
0.000148989
0.00015238
0.000152358
0.000154602
0.000154581
0.000147108
0.000148982
0.00015238
0.000152377
0.000154602
0.000154595
0.000152383
0.000154603
0.000154601
0.000147125
0.00014899
0.000152381
0.000154619
0.0001546
0.000148984
0.000149344
0.000151158
0.000155334
0.000155314
0.000157492
0.000157476
0.000149337
0.000151153
0.000155334
0.000155324
0.000157491
0.000157482
0.000155332
0.000157498
0.000157492
0.000149343
0.000151157
0.00015533
0.000157506
0.00015749
0.000151152
0.000151496
0.000153275
0.000158205
0.000158188
0.000160328
0.000160308
0.000151491
0.000153267
0.000158205
0.000158197
0.000160329
0.000160319
0.000158205
0.00016033
0.000160328
0.000151496
0.000153276
0.000158204
0.000160344
0.000160327
0.00015327
0.000153601
0.000155332
0.000161026
0.000161006
0.000163096
0.000163079
0.000153593
0.000155325
0.000161026
0.000161015
0.000163097
0.000163088
0.000161026
0.000163102
0.000163094
0.000153601
0.000155331
0.000161025
0.000163112
0.000163094
0.000155325
0.000155643
0.000157332
0.000163782
0.000163762
0.000165798
0.000165778
0.000155636
0.000157324
0.000163784
0.000163775
0.000165801
0.00016579
0.000163777
0.000165803
0.0001658
0.000155644
0.000157332
0.000163778
0.000165816
0.000165801
0.000157326
0.000157628
0.000159275
0.000166461
0.000166446
0.000168446
0.000168427
0.000157622
0.000159268
0.000166462
0.000166451
0.000168448
0.000168434
0.000166466
0.000168448
0.000168433
0.000157627
0.000159272
0.000166465
0.000168458
0.000168435
0.000159263
0.000159561
0.000161151
0.000169096
0.00016907
0.000171
0.000170981
0.000159551
0.000161143
0.000169099
0.000169086
0.000171004
0.000170997
0.000169081
0.000171009
0.000171012
0.000159559
0.000161155
0.000169084
0.000171025
0.000171014
0.000161153
0.000161419
0.00016298
0.000171633
0.000171621
0.000173516
0.000173495
0.000161415
0.000162973
0.000171636
0.000171628
0.000173518
0.000173499
0.000171645
0.000173516
0.000173492
0.000161423
0.000162974
0.000171646
0.000173523
0.000173495
0.000162958
0.000163235
0.000164731
0.000174123
0.000174095
0.000175921
0.000175899
0.000163223
0.000164721
0.000174127
0.000174106
0.000175926
0.000175915
0.000174099
0.000175928
0.000175931
0.000163228
0.000164734
0.000174103
0.000175943
0.000175935
0.000164735
0.000164975
0.000166447
0.000176527
0.000176513
0.000178302
0.000178286
0.000164971
0.000166443
0.000176531
0.000176525
0.000178305
0.000178292
0.000176538
0.000178311
0.000178289
0.000164981
0.000166446
0.000176543
0.000178319
0.000178293
0.000166429
0.000166669
0.000168065
0.000178859
0.000178837
0.000180546
0.000180514
0.00016666
0.000168048
0.000178863
0.000178845
0.000180553
0.00018053
0.000178844
0.00018054
0.000180535
0.000166664
0.000168058
0.000178846
0.000180556
0.000180541
0.000168055
0.00016829
0.000169663
0.000181134
0.000181107
0.00018277
0.000182771
0.000168277
0.000169672
0.000181141
0.000181123
0.000182771
0.000182766
0.000181126
0.000182801
0.000182779
0.000168287
0.000169669
0.000181135
0.000182797
0.00018278
0.000169661
0.000169847
0.000171192
0.000183267
0.000183267
0.000184933
0.000184879
0.000169855
0.000171157
0.000183269
0.000183258
0.000184947
0.000184918
0.000183274
0.0001849
0.000184898
0.00016985
0.000171182
0.000183271
0.000184942
0.000184914
0.000171164
0.000171404
0.000172577
0.000185502
0.000185444
0.000186846
0.000186867
0.000171363
0.000172606
0.000185516
0.000185493
0.000186843
0.000186838
0.00018547
0.000186906
0.000186878
0.000171395
0.000172585
0.000185491
0.000186874
0.00018687
0.000172592
0.000172717
0.000174117
0.00018731
0.00018734
0.000189059
0.000188999
0.00017276
0.000174069
0.000187305
0.000187294
0.000189074
0.000189041
0.000187338
0.000189014
0.000189005
0.000172724
0.000174101
0.000187325
0.000189061
0.000189026
0.00017407
0.000174302
0.000175265
0.000189545
0.000189468
0.000190656
0.000190659
0.000174239
0.000175275
0.000189563
0.000189535
0.000190662
0.00019066
0.00018949
0.000190702
0.000190687
0.00017429
0.000175278
0.000189518
0.000190698
0.000190688
0.00017528
0.000175386
0.000176716
0.000191161
0.000191188
0.000192758
0.000192732
0.000175428
0.000176696
0.000191162
0.000191158
0.000192763
0.000192726
0.000191201
0.000192755
0.000192729
0.0001754
0.000176697
0.000191193
0.00019275
0.000192733
0.000176682
0.000176821
0.000177768
0.000193085
0.000193035
0.000194255
0.000194225
0.000176785
0.00017775
0.000193095
0.000193057
0.000194269
0.00019426
0.000193041
0.000194255
0.000194246
0.000176803
0.000177776
0.000193054
0.000194293
0.000194263
0.000177757
0.000177959
0.000179033
0.000194894
0.000194879
0.000196108
0.000196095
0.00017796
0.000179035
0.000194904
0.000194896
0.000196114
0.000196086
0.000194898
0.000196127
0.000196106
0.000177971
0.000179026
0.000194909
0.000196118
0.000196111
0.000179026
0.000179016
0.000180013
0.000196195
0.000196178
0.000197457
0.000197432
0.000179013
0.00018
0.000196204
0.000196176
0.000197468
0.000197453
0.000196187
0.000197468
0.000197444
0.000179008
0.000180014
0.000196193
0.000197483
0.000197452
0.000179991
0.0001803
0.000181248
0.000198205
0.00019818
0.000199422
0.000199399
0.000180288
0.000181237
0.000198215
0.000198197
0.000199429
0.00019939
0.000198193
0.000199419
0.000199403
0.0001803
0.000181235
0.000198201
0.000199423
0.000199419
0.000181234
0.00018115
0.000181755
0.000199412
0.00019939
0.000199878
0.000199856
0.000181139
0.00018175
0.00019942
0.00019938
0.000199897
0.000199914
0.000199393
0.000199915
0.000199895
0.000181138
0.000181777
0.00019941
0.000199948
0.000199896
0.000181746
0.000182098
0.000200727
0.000200708
0.000182096
0.000200743
0.000200752
0.000200741
0.000182118
0.000200744
9.23958e-05
5.00264e-05
9.21879e-05
5.0039e-05
2.36134e-05
2.36178e-05
9.23917e-05
5.00214e-05
9.21834e-05
5.0034e-05
0.000123758
0.000123757
0.000125824
0.00012583
0.00012583
0.000125837
0.000122159
9.39899e-05
0.000135588
0.000140932
0.000121586
9.42766e-05
0.000136452
2.3617e-05
0.000122156
0.000135577
0.000140921
0.000121584
0.000136446
9.42816e-05
7.38389e-05
7.38341e-05
0.000138542
7.39624e-05
7.39577e-05
9.28752e-05
5.00564e-05
9.26706e-05
5.0069e-05
2.36231e-05
2.36276e-05
9.28722e-05
5.00514e-05
9.26682e-05
5.0064e-05
0.000126545
0.000126555
0.000126558
0.000128795
0.000128782
0.000128807
0.000128795
0.00012348
9.45911e-05
0.000139075
0.000144034
0.000122921
9.48766e-05
0.000139955
2.36222e-05
2.36267e-05
0.000123485
0.000139082
9.46058e-05
0.000144062
0.000122926
0.000139975
9.48854e-05
7.41045e-05
7.40999e-05
0.000140955
7.42265e-05
7.42216e-05
9.33339e-05
5.00863e-05
9.31393e-05
5.0099e-05
2.3633e-05
2.36376e-05
9.33299e-05
5.00813e-05
9.31351e-05
5.00941e-05
0.000129552
0.000129568
0.000129557
0.000131864
0.000131877
0.000131871
0.000131875
0.000124763
9.51842e-05
0.00014264
0.000147138
0.000124225
9.54535e-05
0.000143526
2.36321e-05
2.36367e-05
0.000124761
0.000142644
9.51893e-05
0.000147138
0.000124225
0.00014353
9.54586e-05
7.43597e-05
7.43547e-05
0.000143317
7.44753e-05
7.44703e-05
9.37763e-05
5.01166e-05
9.35872e-05
5.01296e-05
2.36432e-05
2.3648e-05
9.37731e-05
5.01117e-05
9.35836e-05
5.01246e-05
0.00013266
0.000132658
0.000132662
0.000135053
0.000135049
0.000135065
0.000135064
0.000125993
9.5742e-05
0.000146184
0.000150146
0.000125473
9.60042e-05
0.000147061
2.36424e-05
2.36471e-05
0.000125995
0.000146181
9.575e-05
0.000150157
0.000125474
0.000147069
9.60127e-05
7.46038e-05
7.4599e-05
0.000145615
7.47166e-05
7.47116e-05
9.42046e-05
5.01473e-05
9.40216e-05
5.01603e-05
2.36538e-05
2.36587e-05
9.42011e-05
5.01423e-05
9.40184e-05
5.01553e-05
0.00013586
0.00013588
0.00013588
0.000138362
0.000138354
0.00013838
0.000138374
0.000127191
9.62861e-05
0.000149712
0.000153123
0.000126685
9.65407e-05
0.000150592
2.36529e-05
2.36578e-05
0.000127193
0.000149722
9.62968e-05
0.000153144
0.000126688
0.000150611
9.65484e-05
7.48407e-05
7.48357e-05
0.000147872
7.49495e-05
7.49443e-05
9.46163e-05
5.0178e-05
9.44412e-05
5.01909e-05
2.36645e-05
2.36695e-05
9.46125e-05
5.0173e-05
9.44374e-05
5.01859e-05
0.000139203
0.000139224
0.000139219
0.000141752
0.000141752
0.00014176
0.000141764
0.000128351
9.6813e-05
0.000153254
0.000156062
0.000127862
9.70561e-05
0.000154128
2.36637e-05
2.36686e-05
0.000128351
0.00015326
9.68209e-05
0.000156071
0.000127863
0.000154137
9.70626e-05
7.50683e-05
7.50631e-05
0.000150077
7.51718e-05
7.51666e-05
9.5012e-05
5.02086e-05
9.48427e-05
5.02216e-05
2.36754e-05
2.36805e-05
9.50085e-05
5.02037e-05
9.48391e-05
5.02167e-05
0.000142606
0.000142616
0.000142618
0.000145206
0.000145199
0.000145217
0.000145215
0.000129469
9.73151e-05
0.000156742
0.00015892
0.000128995
9.75505e-05
0.000157602
2.36746e-05
2.36796e-05
0.00012947
0.000156745
9.73235e-05
0.000158934
0.000128996
0.000157614
9.7558e-05
7.52851e-05
7.52802e-05
0.000152217
7.53859e-05
7.53808e-05
9.53939e-05
5.02394e-05
9.52306e-05
5.02523e-05
2.36865e-05
2.36916e-05
9.53899e-05
5.02344e-05
9.52267e-05
5.02473e-05
0.000146069
0.000146084
0.000146086
0.000148688
0.000148692
0.000148701
0.000148703
0.000130554
9.78027e-05
0.000160187
0.000161724
0.000130094
9.80295e-05
0.000161034
2.36857e-05
2.36907e-05
0.000130554
0.000160191
9.78093e-05
0.000161732
0.000130094
0.000161042
9.80342e-05
7.54945e-05
7.54893e-05
0.000154305
7.55907e-05
7.55855e-05
9.576e-05
5.027e-05
9.56032e-05
5.02829e-05
2.36977e-05
2.37028e-05
9.57565e-05
5.0265e-05
9.55996e-05
5.02779e-05
0.000149575
0.000149588
0.000149584
0.000152225
0.000152213
0.000152238
0.000152237
0.000131601
9.82706e-05
0.000163572
0.000164461
0.000131156
9.84887e-05
0.000164402
2.36969e-05
2.37019e-05
0.000131603
0.000163578
9.82754e-05
0.00016448
0.000131157
0.000164418
9.84932e-05
7.56943e-05
7.56894e-05
0.000156333
7.57876e-05
7.57823e-05
9.61131e-05
5.03005e-05
9.59616e-05
5.03133e-05
2.3709e-05
2.37142e-05
9.61087e-05
5.02955e-05
9.59575e-05
5.03083e-05
0.000153095
0.000153111
0.000153118
0.000155771
0.000155774
0.000155778
0.000155773
0.000132616
9.87209e-05
0.000166884
0.000167136
0.000132184
9.89306e-05
0.000167702
2.37082e-05
2.37133e-05
0.000132615
0.000166887
9.87231e-05
0.000167139
0.000132184
0.000167705
9.89309e-05
7.58865e-05
7.58813e-05
0.000158302
7.59752e-05
7.59699e-05
9.64514e-05
5.03308e-05
9.63071e-05
5.03434e-05
2.37204e-05
2.37255e-05
9.64485e-05
5.03258e-05
9.63035e-05
5.03385e-05
0.000156658
0.000156673
0.000156659
0.000159301
0.000159291
0.000159319
0.000159326
0.000133596
9.91523e-05
0.000170132
0.000169731
0.000133179
9.93524e-05
0.00017092
2.37196e-05
2.37246e-05
0.000133599
0.00017014
9.9155e-05
0.000169753
0.00013318
0.000170939
9.93562e-05
7.60698e-05
7.60647e-05
0.000160214
7.61565e-05
7.61512e-05
9.67775e-05
5.03608e-05
9.66361e-05
5.03735e-05
2.37318e-05
2.3737e-05
9.67722e-05
5.03558e-05
9.66318e-05
5.03685e-05
0.000160187
0.000160203
0.000160217
0.000162866
0.000162862
0.000162871
0.000162854
0.000134544
9.95649e-05
0.000173304
0.000172283
0.000134138
9.97599e-05
0.000174086
2.37309e-05
2.37361e-05
0.000134542
0.000173307
9.95652e-05
0.000172286
0.000134139
0.00017409
9.97575e-05
7.62461e-05
7.62408e-05
0.000162068
7.6326e-05
7.63207e-05
9.70869e-05
5.03906e-05
9.69555e-05
5.0403e-05
2.37432e-05
2.37484e-05
9.70841e-05
5.03856e-05
9.69517e-05
5.0398e-05
0.000163726
0.000163742
0.000163723
0.000166335
0.000166327
0.000166345
0.000166356
0.000135451
9.99591e-05
0.000176382
0.000174716
0.000135065
0.000100141
0.000177126
2.37424e-05
2.37475e-05
0.000135454
0.000176388
9.99606e-05
0.000174731
0.000135065
0.000177137
0.000100144
7.64105e-05
7.64055e-05
0.000163844
7.64919e-05
7.64865e-05
9.73887e-05
5.042e-05
9.72563e-05
5.04323e-05
2.37547e-05
2.37598e-05
9.73834e-05
5.0415e-05
9.72527e-05
5.04273e-05
0.000167217
0.000167235
0.000167244
0.000169871
0.000169871
0.000169889
0.000169877
0.000136339
0.000100339
0.000179393
0.000177147
0.000135956
0.00010052
0.000180144
2.37538e-05
2.37589e-05
0.000136338
0.000179402
0.000100339
0.000177159
0.000135957
0.000180159
0.000100519
7.65754e-05
7.657e-05
0.000165605
7.66474e-05
7.66423e-05
9.76652e-05
5.04488e-05
9.7548e-05
5.0461e-05
2.37659e-05
2.37711e-05
9.76621e-05
5.04439e-05
9.75437e-05
5.0456e-05
0.000170719
0.000170731
0.000170724
0.000173229
0.000173208
0.000173224
0.000173223
0.000137164
0.000100694
0.000182322
0.000179409
0.000136812
0.000100858
0.000183004
2.37651e-05
2.37702e-05
0.000137163
0.000182322
0.000100695
0.000179415
0.000136813
0.000183005
0.000100858
7.67193e-05
7.67141e-05
0.000167229
7.67924e-05
7.67867e-05
9.7947e-05
5.04777e-05
9.78221e-05
5.04895e-05
2.37775e-05
2.37824e-05
9.79408e-05
5.04727e-05
9.78184e-05
5.04845e-05
0.000174083
0.00017411
0.000174103
0.000176699
0.000176719
0.000176726
0.000176729
0.000137992
0.000101041
0.000185135
0.000181718
0.000137627
0.00010121
0.000185868
2.37765e-05
2.37815e-05
0.000137993
0.000185152
0.000101041
0.000181738
0.000137627
0.000185893
0.00010121
7.68708e-05
7.68658e-05
0.000168893
7.6939e-05
7.6934e-05
9.81882e-05
5.05053e-05
9.80838e-05
5.05173e-05
2.37885e-05
2.37936e-05
9.81861e-05
5.05004e-05
9.80797e-05
5.05123e-05
0.000177514
0.000177499
0.00017751
0.000179973
0.000179927
0.000179964
0.000179945
0.000138738
0.000101363
0.000187893
0.000183802
0.000138422
0.000101509
0.000188516
2.37876e-05
2.37927e-05
0.000138732
0.000187873
0.000101361
0.000183795
0.00013842
0.000188499
0.000101508
7.69995e-05
7.69936e-05
0.000170379
7.70636e-05
7.70581e-05
9.84456e-05
5.05333e-05
9.83367e-05
5.05441e-05
2.37998e-05
2.38047e-05
9.84393e-05
5.05282e-05
9.83346e-05
5.0539e-05
0.000180828
0.0001809
0.000180868
0.000183194
0.00018323
0.000183221
0.000183237
0.000139498
0.000101675
0.000190596
0.000185987
0.000139161
0.000101824
0.000191271
2.37989e-05
2.38036e-05
0.000139508
0.000190648
0.000101683
0.000186032
0.000139169
0.000191323
0.000101827
7.71369e-05
7.7133e-05
0.000171946
7.71958e-05
7.71899e-05
9.8659e-05
5.05597e-05
9.85521e-05
5.05718e-05
2.38107e-05
2.38157e-05
9.86547e-05
5.05547e-05
9.85439e-05
5.0567e-05
0.000183933
0.000183877
0.000183911
0.00018656
0.000186521
0.000186549
0.000186527
0.000140163
0.000101955
0.000193029
0.000187912
0.000139867
0.000102098
0.000193672
2.38098e-05
2.3815e-05
0.000140143
0.000192972
0.00010194
0.000187869
0.000139851
0.000193622
0.000102091
7.72423e-05
7.72346e-05
0.000173268
7.73081e-05
7.73035e-05
9.8883e-05
5.05864e-05
9.88064e-05
5.05958e-05
2.38215e-05
2.38262e-05
9.88809e-05
5.05814e-05
9.88088e-05
5.05907e-05
0.000187374
0.000187449
0.000187407
0.000189351
0.000189348
0.000189378
0.000189376
0.000140857
0.00010225
0.000195704
0.000189874
0.000140569
0.000102362
0.00019623
2.38207e-05
2.38251e-05
0.000140883
0.000195769
0.000102271
0.000189949
0.000140593
0.000196304
0.000102372
7.73783e-05
7.73763e-05
0.000174733
7.74175e-05
7.74111e-05
9.90785e-05
5.06114e-05
9.89602e-05
5.06234e-05
2.38324e-05
2.38372e-05
9.90699e-05
5.06063e-05
9.89495e-05
5.06185e-05
0.000190124
0.000190115
0.000190132
0.000192789
0.000192801
0.000192778
0.000192789
0.00014146
0.000102477
0.000197898
0.000191813
0.000141156
0.000102633
0.000198607
2.38314e-05
2.38364e-05
0.000141429
0.000197867
0.000102457
0.000191764
0.000141133
0.000198562
0.000102619
7.7458e-05
7.74486e-05
0.000175982
7.75316e-05
7.75265e-05
9.925e-05
5.06362e-05
9.92035e-05
5.06458e-05
2.38424e-05
2.38475e-05
9.92496e-05
5.06313e-05
9.92042e-05
5.06408e-05
0.000193424
0.000193423
0.00019342
0.000195203
0.000195167
0.000195225
0.000195194
0.000142029
0.000102741
0.00020032
0.000193329
0.000141826
0.000102811
0.000200686
2.38417e-05
2.38464e-05
0.000142051
0.000200326
0.000102755
0.000193377
0.000141838
0.000200722
0.000102824
7.75707e-05
7.75682e-05
0.00017717
7.75924e-05
7.75876e-05
9.94699e-05
5.06615e-05
9.93449e-05
5.06704e-05
2.38534e-05
2.38572e-05
9.94629e-05
5.06565e-05
9.93394e-05
5.06654e-05
0.000196129
0.000196176
0.000196154
0.0001987
0.000198706
0.000198696
0.00019871
0.000142675
0.000102978
0.000202509
0.000195523
0.000142322
0.000103124
0.000203303
2.38525e-05
2.38563e-05
0.000142663
0.000202533
0.00010297
0.000195523
0.000142321
0.000203312
0.000103119
7.76912e-05
7.76839e-05
0.000178581
7.77272e-05
7.77216e-05
9.95164e-05
5.0681e-05
9.95045e-05
5.06937e-05
2.38626e-05
2.38685e-05
9.95135e-05
5.0676e-05
9.95004e-05
5.06886e-05
0.000199058
0.000199049
0.000199061
0.000200562
0.000200556
0.000200583
0.000200561
0.000142977
0.000103113
0.000204522
0.000196387
0.000142902
0.000103169
0.000204693
2.38616e-05
2.38675e-05
0.000142975
0.000204511
0.000103113
0.000196393
0.000142897
0.000204693
0.00010317
7.76911e-05
7.76863e-05
0.000179258
7.77568e-05
7.77502e-05
9.97965e-05
5.07088e-05
9.97028e-05
5.07137e-05
2.38734e-05
2.38762e-05
9.97915e-05
5.07038e-05
9.96984e-05
5.07087e-05
0.000201597
0.000201623
0.000201604
0.000204422
0.000204403
0.000204413
0.000204425
0.000143771
0.000103454
0.000206682
0.000198856
0.000143372
0.000103521
0.000207589
2.38725e-05
2.38753e-05
0.000143772
0.000206688
0.000103454
0.000198865
0.000143371
0.000207597
0.000103522
7.78906e-05
7.78854e-05
0.000180903
7.78932e-05
7.78891e-05
9.97346e-05
5.07227e-05
9.97723e-05
5.07368e-05
2.38814e-05
2.38882e-05
9.97319e-05
5.07177e-05
9.97682e-05
5.07318e-05
0.000204702
0.000204684
0.000204693
0.000205288
0.000205286
0.000205312
0.000205287
0.000143812
0.000103436
0.000208632
0.000199354
0.000143841
0.000103446
0.000208572
2.38806e-05
2.38872e-05
0.000143814
0.000208639
0.00010344
0.000199363
0.000143843
0.000208587
0.000103448
7.78023e-05
7.77977e-05
0.000181196
7.78677e-05
7.78591e-05
5.07539e-05
9.99637e-05
2.38931e-05
0.000100076
5.07488e-05
9.99597e-05
0.000206095
0.000206162
0.000206138
0.000103816
0.000209986
0.000144209
2.38922e-05
2.3894e-05
0.000144667
0.000210008
0.000103813
0.000201609
0.000144197
0.000211007
0.000103921
7.8058e-05
7.80519e-05
0.000182904
7.80851e-05
7.80802e-05
2.36155e-05
2.36199e-05
2.36135e-05
2.36179e-05
7.38445e-05
7.38393e-05
0.000138535
7.39697e-05
7.39641e-05
2.36248e-05
2.36203e-05
2.36228e-05
2.36183e-05
0.00013894
7.41063e-05
7.41008e-05
7.39784e-05
7.39733e-05
9.2393e-05
5.00209e-05
9.21853e-05
5.00333e-05
0.000122162
9.39954e-05
0.000135571
0.000140911
0.000121592
9.42814e-05
0.000136435
0.000122159
9.39787e-05
0.000135566
0.000140912
0.000121588
9.42646e-05
0.000136434
9.24295e-05
5.00541e-05
5.00413e-05
9.2637e-05
9.24267e-05
5.00483e-05
5.00356e-05
9.26334e-05
0.000122263
0.000141689
9.45889e-05
0.00013818
9.42974e-05
0.000137304
0.000122827
0.00012226
0.000141684
9.45642e-05
0.000138173
9.42788e-05
0.000137302
0.000122823
7.3828e-05
7.38391e-05
0.000138548
7.39511e-05
7.39626e-05
2.36147e-05
2.36191e-05
2.36227e-05
2.36182e-05
0.000138953
7.40835e-05
7.40949e-05
7.39581e-05
7.39695e-05
2.3624e-05
2.36195e-05
0.000122155
9.39875e-05
0.000135563
0.000140908
0.000121586
9.42732e-05
0.000136425
9.23894e-05
5.00302e-05
0.000122153
0.000140899
0.000136423
9.42662e-05
9.24259e-05
5.00491e-05
5.00364e-05
9.26345e-05
0.000122257
0.000141686
9.45813e-05
0.000138173
9.42896e-05
0.000137294
0.000122824
9.24236e-05
5.00452e-05
5.00325e-05
9.26321e-05
0.000122255
0.000141683
0.000138174
9.4574e-05
0.000137294
9.4283e-05
0.000122823
9.23933e-05
5.00223e-05
9.21725e-05
5.00348e-05
0.00012216
0.000135586
9.39863e-05
0.000140923
0.000121587
0.000136453
9.42745e-05
9.23927e-05
5.00186e-05
9.21822e-05
5.00311e-05
0.00012226
0.000141705
9.45764e-05
0.000138192
9.42909e-05
0.000137325
0.000122821
9.24143e-05
5.00498e-05
5.00371e-05
9.2633e-05
0.000122261
0.000141701
0.000138197
9.45761e-05
0.000137324
9.42901e-05
0.000122823
9.24243e-05
5.00461e-05
5.00334e-05
9.26327e-05
0.000138532
7.39576e-05
7.39697e-05
2.36192e-05
2.36218e-05
2.36174e-05
0.000138942
7.4093e-05
7.41051e-05
7.39672e-05
7.39787e-05
2.3624e-05
2.36196e-05
0.000122155
0.000135573
9.39805e-05
0.000140916
0.000121578
0.000136442
9.42687e-05
9.23928e-05
9.21717e-05
5.00353e-05
9.23903e-05
5.00171e-05
9.21685e-05
5.00296e-05
0.000122258
0.000141705
0.000138198
9.45896e-05
0.000137317
9.42984e-05
0.000122825
0.000122252
0.000141693
0.00013819
9.45708e-05
0.000137311
9.42845e-05
0.000122822
9.2415e-05
5.00503e-05
5.00377e-05
9.26345e-05
9.24114e-05
5.00446e-05
5.0032e-05
9.26316e-05
2.36134e-05
2.36177e-05
2.36123e-05
2.36167e-05
0.000138949
7.40957e-05
7.4091e-05
7.39711e-05
7.39665e-05
2.36226e-05
2.36181e-05
2.36215e-05
2.36171e-05
2.36252e-05
2.36297e-05
2.36232e-05
2.36277e-05
7.41147e-05
7.41097e-05
0.000140966
7.42359e-05
7.42303e-05
2.36346e-05
2.36301e-05
2.36326e-05
2.36281e-05
0.000141369
7.43611e-05
7.43552e-05
7.42436e-05
7.42384e-05
9.28717e-05
5.00507e-05
9.26671e-05
5.00634e-05
0.000123488
9.46053e-05
0.000139064
0.000144045
0.000122928
9.48883e-05
0.000139952
0.000123483
9.45789e-05
0.000139052
0.000144014
0.000122923
9.48645e-05
0.000139938
9.29079e-05
5.0084e-05
5.00713e-05
9.31074e-05
9.29046e-05
5.00784e-05
5.00658e-05
9.31045e-05
0.000123587
0.000144825
9.51767e-05
0.000141738
9.49034e-05
0.000140845
0.000124136
0.000123582
0.000144797
9.51581e-05
0.000141726
9.48791e-05
0.00014083
0.000124132
7.40907e-05
7.41019e-05
0.000140945
7.42156e-05
7.4227e-05
2.36244e-05
2.36289e-05
2.36326e-05
2.3628e-05
0.000141348
7.43436e-05
7.43552e-05
7.42225e-05
7.42338e-05
2.36339e-05
2.36293e-05
0.000123487
9.45981e-05
0.00013906
0.000144045
0.000122925
9.48807e-05
0.000139952
9.28695e-05
5.00475e-05
9.26658e-05
5.00601e-05
0.000123484
0.000139061
9.45904e-05
0.00014404
0.000122923
0.000139953
9.48701e-05
9.29048e-05
5.0079e-05
5.00663e-05
9.31033e-05
0.000123585
0.000144825
9.51685e-05
0.000141739
9.48961e-05
0.000140846
0.000124131
9.29021e-05
5.00751e-05
5.00624e-05
9.31007e-05
0.000123582
0.000144819
0.000141739
9.51587e-05
0.000140847
9.48852e-05
0.000124129
9.28711e-05
5.00521e-05
9.26539e-05
5.00649e-05
0.000123482
0.000139079
9.45921e-05
0.000144043
0.000122923
0.000139964
9.48756e-05
9.28706e-05
5.00485e-05
9.26642e-05
5.00611e-05
0.000123579
0.000144818
9.51705e-05
0.000141741
9.48912e-05
0.000140851
0.000124129
9.28914e-05
5.00799e-05
5.00672e-05
9.3104e-05
0.000123581
0.000144821
0.000141746
9.51655e-05
0.000140855
9.4891e-05
0.00012413
9.29015e-05
5.00761e-05
5.00635e-05
9.31032e-05
7.41018e-05
7.41134e-05
0.00014097
7.42208e-05
7.42328e-05
2.36244e-05
2.36289e-05
2.36317e-05
2.36271e-05
0.000141369
7.43469e-05
7.43592e-05
7.42291e-05
7.42405e-05
2.36339e-05
2.36293e-05
0.000123481
0.000139072
9.45869e-05
0.000144039
0.000122918
0.000139963
9.48702e-05
9.28717e-05
5.00526e-05
9.26564e-05
5.00652e-05
9.2869e-05
5.0047e-05
9.26524e-05
5.00596e-05
0.000123583
0.00014484
0.000141758
9.51745e-05
0.000140865
9.49004e-05
0.00012413
0.000123576
0.000144817
0.000141746
9.51596e-05
0.000140853
9.48857e-05
0.000124126
9.28927e-05
5.00802e-05
5.00675e-05
9.31032e-05
9.28891e-05
5.00746e-05
5.00619e-05
9.31005e-05
2.3623e-05
2.36275e-05
2.3622e-05
2.36264e-05
0.000141357
7.4352e-05
7.43469e-05
7.42347e-05
7.42298e-05
2.36325e-05
2.36279e-05
2.36314e-05
2.36269e-05
2.36351e-05
2.36397e-05
2.36331e-05
2.36377e-05
7.43683e-05
7.43629e-05
0.000143322
7.44835e-05
7.44777e-05
2.36449e-05
2.36402e-05
2.36429e-05
2.36381e-05
0.000143703
7.46053e-05
7.45995e-05
7.44904e-05
7.44851e-05
9.3331e-05
5.00808e-05
9.31364e-05
5.00934e-05
0.000124768
9.51911e-05
0.00014263
0.000147125
0.000124231
9.54592e-05
0.000143516
0.000124764
9.51719e-05
0.000142622
0.000147117
0.000124228
9.54409e-05
0.000143511
9.3365e-05
5.01143e-05
5.01014e-05
9.35565e-05
9.33621e-05
5.01086e-05
5.00958e-05
9.35533e-05
0.000124861
0.000147881
9.57378e-05
0.000145283
9.54731e-05
0.0001444
0.000125387
0.000124857
0.000147875
9.57167e-05
0.000145279
9.54535e-05
0.000144396
0.000125383
7.43499e-05
7.43614e-05
0.000143327
7.44653e-05
7.4477e-05
2.36343e-05
2.36389e-05
2.36428e-05
2.3638e-05
0.00014371
7.45853e-05
7.4597e-05
7.4471e-05
7.44825e-05
2.36441e-05
2.36393e-05
0.000124762
9.51832e-05
0.000142627
0.000147122
0.000124226
9.54509e-05
0.00014351
9.33275e-05
5.00774e-05
9.31325e-05
5.00902e-05
0.00012476
0.000142627
9.51737e-05
0.000147116
0.000124224
0.00014351
9.54426e-05
9.33611e-05
5.01093e-05
5.00964e-05
9.35529e-05
0.000124855
0.000147878
9.57298e-05
0.000145275
9.54652e-05
0.000144392
0.000125382
9.33586e-05
5.01054e-05
5.00925e-05
9.35503e-05
0.000124853
0.000147871
0.000145275
9.57202e-05
0.000144392
9.54568e-05
0.00012538
9.33309e-05
5.00822e-05
9.31235e-05
5.00949e-05
0.000124763
0.000142638
9.51799e-05
0.000147126
0.000124226
0.000143527
9.54487e-05
9.33301e-05
5.00785e-05
9.31333e-05
5.00912e-05
0.000124856
0.000147897
9.57296e-05
0.000145296
9.54661e-05
0.000144417
0.000125382
9.33496e-05
5.011e-05
5.00972e-05
9.35531e-05
0.000124856
0.000147884
0.000145298
9.57276e-05
0.000144413
9.54628e-05
0.000125383
9.33595e-05
5.01064e-05
5.00936e-05
9.35526e-05
7.4355e-05
7.43667e-05
0.000143322
7.44698e-05
7.44821e-05
2.36343e-05
2.36389e-05
2.36419e-05
2.36372e-05
0.000143704
7.45907e-05
7.4603e-05
7.44773e-05
7.44891e-05
2.36441e-05
2.36394e-05
0.000124758
0.000142632
9.51741e-05
0.00014712
0.000124219
0.00014352
9.54427e-05
9.33302e-05
5.00826e-05
9.31236e-05
5.00953e-05
9.33274e-05
5.0077e-05
9.31199e-05
5.00897e-05
0.000124855
0.000147894
0.000145297
9.57362e-05
0.000144411
9.54727e-05
0.000125382
0.000124848
0.000147879
0.00014529
9.57219e-05
0.000144402
9.54569e-05
0.000125379
9.33499e-05
5.01105e-05
5.00977e-05
9.35531e-05
9.33463e-05
5.01049e-05
5.00921e-05
9.35504e-05
2.36329e-05
2.36376e-05
2.36319e-05
2.36365e-05
0.0001437
7.45966e-05
7.45917e-05
7.44827e-05
7.44778e-05
2.36427e-05
2.3638e-05
2.36417e-05
2.3637e-05
2.36454e-05
2.36501e-05
2.36433e-05
2.36481e-05
7.46121e-05
7.46069e-05
0.000145618
7.47257e-05
7.47199e-05
2.36554e-05
2.36506e-05
2.36534e-05
2.36486e-05
0.000145991
7.48427e-05
7.48367e-05
7.47322e-05
7.47269e-05
9.3773e-05
5.01109e-05
9.3584e-05
5.01239e-05
0.000125999
9.57516e-05
0.000146168
0.000150143
0.000125479
9.60139e-05
0.000147053
0.000125995
9.57291e-05
0.000146162
0.000150125
0.000125474
9.59913e-05
0.000147045
9.38064e-05
5.01449e-05
5.01319e-05
9.3992e-05
9.3803e-05
5.01392e-05
5.01263e-05
9.39888e-05
0.000126089
0.000150892
9.62837e-05
0.00014882
9.60273e-05
0.000147937
0.000126603
0.000126085
0.000150871
9.62613e-05
0.000148809
9.60035e-05
0.000147927
0.000126598
7.45909e-05
7.46025e-05
0.00014561
7.4705e-05
7.47167e-05
2.36445e-05
2.36493e-05
2.36533e-05
2.36485e-05
0.000145981
7.48223e-05
7.48341e-05
7.47103e-05
7.47219e-05
2.36546e-05
2.36498e-05
0.000125995
9.57439e-05
0.000146161
0.000150142
0.000125474
9.60059e-05
0.000147047
9.37705e-05
5.01078e-05
9.3581e-05
5.01208e-05
0.000125993
0.000146161
9.57342e-05
0.000150134
0.000125471
0.000147048
9.59967e-05
9.38032e-05
5.01399e-05
5.0127e-05
9.3989e-05
0.000126086
0.000150891
9.62756e-05
0.000148817
9.60197e-05
0.000147933
0.0001266
9.38007e-05
5.01361e-05
5.01231e-05
9.39866e-05
0.000126083
0.000150885
0.000148818
9.62676e-05
0.000147934
9.60106e-05
0.000126598
9.37725e-05
5.01124e-05
9.35713e-05
5.01254e-05
0.000125995
0.000146183
9.57413e-05
0.000150145
0.000125475
0.000147066
9.60025e-05
9.3772e-05
5.01088e-05
9.35815e-05
5.01217e-05
0.000126083
0.000150893
9.62744e-05
0.000148824