/*--------------------------------*- C++ -*----------------------------------*\
| =========                 |                                                 |
| \\      /  F ield         | OpenFOAM: The Open Source CFD Toolbox           |
|  \\    /   O peration     | Version:  2312                                  |
|   \\  /    A nd           | Website:  www.openfoam.com                      |
|    \\/     M anipulation  |                                                 |
\*---------------------------------------------------------------------------*/
FoamFile
{
    version     2.0;
    format      ascii;
    arch        "LSB;label=32;scalar=64";
    class       volScalarField;
    location    "375";
    object      p;
}
// * * * * * * * * * * * * * * * * * * * * * * * * * * * * * * * * * * * * * //

dimensions      [0 2 -2 0 0 0 0];

internalField   nonuniform List<scalar> 
42973
(
0.00166803
0.00166795
0.00167002
0.00163206
0.00163197
0.00163197
0.00163404
0.00159616
0.00159606
0.00159606
0.00159812
0.00156033
0.00156022
0.00156022
0.00156228
0.00152456
0.00152445
0.00152445
0.00152649
0.00148884
0.00148872
0.00148872
0.00149077
0.00145317
0.00145305
0.00145305
0.00145509
0.00141755
0.00141743
0.00141743
0.00141946
0.00138198
0.00138185
0.00138185
0.00138388
0.00134644
0.00134631
0.00134631
0.00134833
0.00131093
0.0013108
0.0013108
0.00131282
0.00127545
0.00127533
0.00127533
0.00127734
0.00124
0.00123988
0.00123988
0.00124189
0.00120457
0.00120445
0.00120445
0.00120646
0.00116916
0.00116904
0.00116904
0.00117105
0.00113376
0.00113365
0.00113365
0.00113566
0.00109837
0.00109826
0.00109827
0.00110027
0.00106299
0.00106289
0.00106289
0.00106489
0.00102762
0.00102752
0.00102752
0.00102952
0.000992235
0.000992144
0.000992141
0.000994149
0.000956878
0.000956772
0.000956773
0.000958774
0.000921469
0.00092139
0.00092139
0.000923398
0.000886105
0.000886
0.000885999
0.000888001
0.000850663
0.000850599
0.0008506
0.000852609
0.000815286
0.000815175
0.000815175
0.000817177
0.000779787
0.000779742
0.000779742
0.000781755
0.000744405
0.000744293
0.000744293
0.000746296
0.00167002
0.00163886
0.00166795
0.00166795
0.00164096
0.00164096
0.00167002
0.00163886
0.00166795
0.00164096
0.00164096
0.00166795
0.00164096
0.00164096
0.00163886
0.00166795
0.00164096
0.00164096
0.00163886
0.00163404
0.00160294
0.00163197
0.00163197
0.00160503
0.00160503
0.00163404
0.00160294
0.00163197
0.00163197
0.00160503
0.00160503
0.00163197
0.00160503
0.00160503
0.00163404
0.00160294
0.00163197
0.00160503
0.00160503
0.00160294
0.00159812
0.00156709
0.00159606
0.00159606
0.00156918
0.00156918
0.00159812
0.00156709
0.00159606
0.00159606
0.00156918
0.00156918
0.00159606
0.00156918
0.00156918
0.00159812
0.00156709
0.00159606
0.00156918
0.00156918
0.00156709
0.00156228
0.0015313
0.00156022
0.00156022
0.00153338
0.00153338
0.00156228
0.0015313
0.00156022
0.00156022
0.00153338
0.00153338
0.00156022
0.00153338
0.00153338
0.00156228
0.0015313
0.00156022
0.00153338
0.00153338
0.0015313
0.00152649
0.00149557
0.00152445
0.00152445
0.00149765
0.00149765
0.00152649
0.00149557
0.00152444
0.00152444
0.00149765
0.00149765
0.00152445
0.00149765
0.00149765
0.00152649
0.00149557
0.00152445
0.00149765
0.00149765
0.00149557
0.00149076
0.00145989
0.00148872
0.00148872
0.00146197
0.00146197
0.00149076
0.00145989
0.00148872
0.00148872
0.00146197
0.00146197
0.00148872
0.00146197
0.00146197
0.00149076
0.00145989
0.00148872
0.00146197
0.00146197
0.00145989
0.00145509
0.00142426
0.00145305
0.00145305
0.00142633
0.00142633
0.00145509
0.00142426
0.00145305
0.00145305
0.00142633
0.00142633
0.00145305
0.00142633
0.00142633
0.00145509
0.00142426
0.00145305
0.00142633
0.00142633
0.00142426
0.00141946
0.00138867
0.00141743
0.00141743
0.00139074
0.00139074
0.00141946
0.00138867
0.00141743
0.00141743
0.00139074
0.00139074
0.00141743
0.00139074
0.00139074
0.00141946
0.00138867
0.00141743
0.00139074
0.00139074
0.00138867
0.00138388
0.00135313
0.00138185
0.00138185
0.00135519
0.00135519
0.00138388
0.00135313
0.00138185
0.00138185
0.00135519
0.00135519
0.00138185
0.00135519
0.00135519
0.00138388
0.00135313
0.00138185
0.00135519
0.00135519
0.00135313
0.00134833
0.00131761
0.00134631
0.00134631
0.00131968
0.00131968
0.00134833
0.00131761
0.00134631
0.00134631
0.00131968
0.00131968
0.00134631
0.00131968
0.00131968
0.00134833
0.00131761
0.00134631
0.00131968
0.00131968
0.00131761
0.00131282
0.00128213
0.0013108
0.0013108
0.00128419
0.00128419
0.00131282
0.00128213
0.0013108
0.0013108
0.00128419
0.00128419
0.0013108
0.00128419
0.00128419
0.00131282
0.00128213
0.0013108
0.00128419
0.00128419
0.00128213
0.00127734
0.00124668
0.00127533
0.00127533
0.00124874
0.00124874
0.00127734
0.00124668
0.00127533
0.00127533
0.00124874
0.00124874
0.00127533
0.00124874
0.00124874
0.00127734
0.00124668
0.00127533
0.00124874
0.00124874
0.00124668
0.00124189
0.00121125
0.00123988
0.00123988
0.00121331
0.00121331
0.00124189
0.00121125
0.00123988
0.00123988
0.00121331
0.00121331
0.00123988
0.00121331
0.00121331
0.00124189
0.00121125
0.00123988
0.00121331
0.00121331
0.00121125
0.00120646
0.00117584
0.00120445
0.00120445
0.00117789
0.00117789
0.00120646
0.00117584
0.00120445
0.00120445
0.00117789
0.00117789
0.00120445
0.00117789
0.00117789
0.00120646
0.00117584
0.00120445
0.00117789
0.00117789
0.00117584
0.00117105
0.00114044
0.00116904
0.00116904
0.0011425
0.0011425
0.00117105
0.00114044
0.00116904
0.00116904
0.0011425
0.0011425
0.00116904
0.0011425
0.0011425
0.00117105
0.00114044
0.00116904
0.0011425
0.0011425
0.00114044
0.00113565
0.00110506
0.00113365
0.00113365
0.00110711
0.00110711
0.00113566
0.00110506
0.00113365
0.00113365
0.00110711
0.00110711
0.00113365
0.00110711
0.00110711
0.00113565
0.00110506
0.00113365
0.00110711
0.00110711
0.00110506
0.00110027
0.00106968
0.00109827
0.00109826
0.00107173
0.00107173
0.00110027
0.00106968
0.00109827
0.00109827
0.00107173
0.00107173
0.00109827
0.00107173
0.00107173
0.00110027
0.00106968
0.00109827
0.00107173
0.00107173
0.00106968
0.00106489
0.00103432
0.00106289
0.00106289
0.00103636
0.00103636
0.00106489
0.00103431
0.00106289
0.00106289
0.00103636
0.00103636
0.00106289
0.00103636
0.00103636
0.00106489
0.00103432
0.00106289
0.00103636
0.00103636
0.00103431
0.00102952
0.00099894
0.00102752
0.00102752
0.00100099
0.00100099
0.00102952
0.000998942
0.00102752
0.00102752
0.00100099
0.00100099
0.00102752
0.00100099
0.00100099
0.00102952
0.000998941
0.00102752
0.00100099
0.00100099
0.000998941
0.000994146
0.000963572
0.000992141
0.000992143
0.000965618
0.000965618
0.000994149
0.000963571
0.00099214
0.000992141
0.000965618
0.000965617
0.000992144
0.000965617
0.000965617
0.000994147
0.000963571
0.000992142
0.000965616
0.000965617
0.00096357
0.000958776
0.000928193
0.000956775
0.000956773
0.000930233
0.000930232
0.000958774
0.000928193
0.000956775
0.000956774
0.000930233
0.000930234
0.000956772
0.000930232
0.000930233
0.000958775
0.000928194
0.000956773
0.000930235
0.000930234
0.000928193
0.000923396
0.000892805
0.000921389
0.000921389
0.000894854
0.000894855
0.000923397
0.000892806
0.000921389
0.00092139
0.000894853
0.000894853
0.00092139
0.000894855
0.000894855
0.000923397
0.000892804
0.00092139
0.000894853
0.000894854
0.000892805
0.000888001
0.000857409
0.000886
0.000886
0.000859442
0.000859442
0.000888001
0.000857408
0.000886
0.000885999
0.000859443
0.000859443
0.000886
0.000859442
0.000859442
0.000888
0.000857409
0.000885999
0.000859443
0.000859442
0.000857408
0.000852609
0.000821993
0.000850599
0.000850599
0.000824049
0.000824049
0.000852608
0.000821994
0.000850599
0.0008506
0.000824048
0.000824048
0.000850599
0.000824048
0.000824049
0.000852609
0.000821993
0.000850599
0.000824048
0.000824049
0.000821993
0.000817176
0.000786558
0.000815175
0.000815175
0.000788589
0.000788589
0.000817177
0.000786559
0.000815175
0.000815174
0.000788589
0.00078859
0.000815175
0.00078859
0.00078859
0.000817176
0.000786559
0.000815175
0.00078859
0.000788589
0.000786558
0.000781755
0.000751127
0.000779741
0.000779741
0.000753184
0.000753183
0.000781755
0.000751127
0.000779741
0.000779741
0.000753183
0.000753182
0.000779742
0.000753182
0.000753183
0.000781755
0.000751126
0.000779742
0.000753182
0.000753183
0.000751126
0.000746297
0.000744295
0.000744294
0.000746296
0.000744294
0.000744293
0.000744293
0.000746296
0.000744293
0.00165657
0.00167002
0.00167003
0.00165655
0.00167002
0.00165655
0.00165657
0.00167002
0.00167003
0.00165655
0.00166803
0.00166803
0.00164105
0.00164105
0.00164105
0.00164105
0.00165668
0.00167001
0.00166801
0.00165895
0.00167002
0.00165661
0.00165901
0.00165655
0.00165668
0.00166801
0.00165895
0.00167002
0.00165901
0.00165661
0.00167004
0.00167004
0.00165684
0.00165656
0.00165656
0.00162062
0.00163405
0.00163406
0.0016206
0.00163405
0.00162061
0.00162062
0.00163405
0.00163406
0.0016206
0.00163206
0.00163206
0.00163206
0.00160513
0.00160513
0.00160513
0.00160513
0.00162073
0.00163404
0.00163203
0.00162299
0.00163405
0.00162066
0.00162305
0.00163405
0.00162061
0.00162073
0.00163203
0.00163404
0.00162299
0.00163405
0.00162305
0.00162066
0.00163406
0.00163406
0.00162089
0.00162061
0.00162061
0.00158474
0.00159815
0.00159815
0.00158473
0.00159815
0.00158473
0.00158474
0.00159815
0.00159815
0.00158473
0.00159616
0.00159616
0.00159616
0.00156928
0.00156928
0.00156928
0.00156928
0.00158484
0.00159813
0.00159612
0.0015871
0.00159814
0.00158478
0.00158716
0.00159815
0.00158473
0.00158484
0.00159612
0.00159813
0.0015871
0.00159814
0.00158716
0.00158478
0.00159816
0.00159816
0.00158501
0.00158473
0.00158473
0.00154893
0.00156231
0.00156232
0.00154891
0.00156231
0.00154892
0.00154893
0.00156231
0.00156232
0.00154891
0.00156033
0.00156033
0.00156033
0.00153349
0.00153349
0.00153349
0.00153349
0.00154903
0.0015623
0.00156028
0.00155127
0.0015623
0.00154897
0.00155133
0.00156231
0.00154892
0.00154903
0.00156028
0.0015623
0.00155127
0.0015623
0.00155133
0.00154897
0.00156232
0.00156232
0.00154919
0.00154892
0.00154892
0.00151317
0.00152654
0.00152654
0.00151316
0.00152654
0.00151317
0.00151317
0.00152654
0.00152654
0.00151316
0.00152456
0.00152456
0.00152456
0.00149776
0.00149776
0.00149776
0.00149776
0.00151327
0.00152652
0.0015245
0.00151551
0.00152652
0.00151321
0.00151557
0.00152654
0.00151317
0.00151327
0.0015245
0.00152652
0.00151551
0.00152652
0.00151557
0.00151321
0.00152655
0.00152655
0.00151343
0.00151317
0.00151317
0.00147748
0.00149082
0.00149083
0.00147747
0.00149082
0.00147747
0.00147748
0.00149082
0.00149083
0.00147747
0.00148884
0.00148884
0.00148884
0.00146208
0.00146208
0.00146208
0.00146208
0.00147757
0.0014908
0.00148878
0.0014798
0.0014908
0.00147751
0.00147986
0.00149082
0.00147747
0.00147757
0.00148878
0.0014908
0.0014798
0.0014908
0.00147986
0.00147751
0.00149083
0.00149083
0.00147772
0.00147747
0.00147747
0.00144183
0.00145516
0.00145516
0.00144182
0.00145516
0.00144182
0.00144183
0.00145516
0.00145516
0.00144182
0.00145317
0.00145317
0.00145317
0.00142645
0.00142645
0.00142645
0.00142645
0.00144192
0.00145513
0.00145311
0.00144414
0.00145513
0.00144186
0.0014442
0.00145516
0.00144182
0.00144192
0.00145311
0.00145513
0.00144414
0.00145513
0.0014442
0.00144186
0.00145516
0.00145516
0.00144207
0.00144182
0.00144182
0.00140623
0.00141954
0.00141954
0.00140622
0.00141954
0.00140622
0.00140623
0.00141954
0.00141954
0.00140622
0.00141755
0.00141755
0.00141755
0.00139087
0.00139087
0.00139087
0.00139087
0.00140631
0.00141951
0.00141748
0.00140853
0.00141951
0.00140626
0.00140858
0.00141954
0.00140622
0.00140631
0.00141748
0.00141951
0.00140853
0.00141951
0.00140858
0.00140626
0.00141954
0.00141954
0.00140646
0.00140622
0.00140622
0.00137067
0.00138396
0.00138397
0.00137066
0.00138396
0.00137066
0.00137067
0.00138396
0.00138397
0.00137066
0.00138198
0.00138198
0.00138198
0.00135532
0.00135532
0.00135532
0.00135532
0.00137075
0.00138394
0.0013819
0.00137296
0.00138394
0.0013707
0.00137301
0.00138396
0.00137066
0.00137075
0.0013819
0.00138394
0.00137296
0.00138394
0.00137301
0.0013707
0.00138397
0.00138397
0.00137089
0.00137066
0.00137066
0.00133514
0.00134843
0.00134843
0.00133514
0.00134843
0.00133514
0.00133514
0.00134843
0.00134843
0.00133514
0.00134644
0.00134644
0.00134644
0.00131981
0.00131981
0.00131981
0.00131981
0.00133522
0.0013484
0.00134636
0.00133743
0.0013484
0.00133517
0.00133748
0.00134843
0.00133514
0.00133522
0.00134636
0.0013484
0.00133743
0.0013484
0.00133748
0.00133517
0.00134843
0.00134843
0.00133537
0.00133513
0.00133513
0.00129965
0.00131293
0.00131293
0.00129965
0.00131293
0.00129965
0.00129965
0.00131293
0.00131293
0.00129965
0.00131093
0.00131093
0.00131093
0.00128432
0.00128432
0.00128432
0.00128432
0.00129973
0.0013129
0.00131085
0.00130193
0.00131289
0.00129968
0.00130198
0.00131293
0.00129965
0.00129973
0.00131085
0.0013129
0.00130193
0.00131289
0.00130198
0.00129968
0.00131293
0.00131293
0.00129987
0.00129964
0.00129964
0.00126419
0.00127746
0.00127746
0.00126419
0.00127746
0.00126419
0.00126419
0.00127746
0.00127746
0.00126419
0.00127545
0.00127545
0.00127545
0.00124886
0.00124886
0.00124886
0.00124886
0.00126427
0.00127743
0.00127537
0.00126646
0.00127742
0.00126422
0.00126651
0.00127746
0.00126419
0.00126427
0.00127537
0.00127743
0.00126646
0.00127742
0.00126651
0.00126422
0.00127746
0.00127746
0.0012644
0.00126418
0.00126418
0.00122876
0.00124201
0.00124201
0.00122875
0.00124201
0.00122875
0.00122876
0.00124201
0.00124201
0.00122875
0.00124
0.00124
0.00124
0.00121343
0.00121343
0.00121343
0.00121343
0.00122883
0.00124198
0.00123992
0.00123102
0.00124197
0.00122878
0.00123106
0.00124201
0.00122875
0.00122883
0.00123992
0.00124198
0.00123102
0.00124197
0.00123106
0.00122878
0.00124201
0.00124201
0.00122896
0.00122874
0.00122874
0.00119334
0.00120659
0.00120659
0.00119333
0.00120659
0.00119334
0.00119334
0.00120659
0.00120659
0.00119333
0.00120457
0.00120457
0.00120457
0.00117801
0.00117801
0.00117801
0.00117801
0.00119341
0.00120656
0.00120449
0.0011956
0.00120655
0.00119337
0.00119564
0.00120659
0.00119334
0.00119341
0.00120449
0.00120656
0.0011956
0.00120655
0.00119564
0.00119337
0.00120659
0.00120659
0.00119354
0.00119333
0.00119333
0.00115794
0.00117119
0.00117118
0.00115794
0.00117119
0.00115794
0.00115794
0.00117119
0.00117118
0.00115794
0.00116916
0.00116916
0.00116916
0.00114261
0.00114261
0.00114261
0.00114261
0.00115801
0.00117115
0.00116908
0.00116019
0.00117114
0.00115797
0.00116023
0.00117119
0.00115794
0.00115801
0.00116908
0.00117115
0.00116019
0.00117114
0.00116023
0.00115797
0.00117119
0.00117119
0.00115814
0.00115793
0.00115793
0.00112255
0.0011358
0.00113579
0.00112255
0.00113579
0.00112255
0.00112255
0.0011358
0.00113579
0.00112255
0.00113376
0.00113376
0.00113376
0.00110722
0.00110722
0.00110722
0.00110722
0.00112262
0.00113576
0.00113369
0.0011248
0.00113575
0.00112258
0.00112484
0.00113579
0.00112255
0.00112262
0.00113369
0.00113576
0.0011248
0.00113575
0.00112484
0.00112258
0.00113579
0.00113579
0.00112275
0.00112254
0.00112254
0.00108718
0.00110042
0.00110042
0.00108718
0.00110042
0.00108718
0.00108718
0.00110042
0.00110042
0.00108718
0.00109837
0.00109837
0.00109837
0.00107184
0.00107184
0.00107184
0.00107184
0.00108724
0.00110038
0.0010983
0.00108942
0.00110037
0.00108721
0.00108946
0.00110042
0.00108718
0.00108724
0.0010983
0.00110038
0.00108942
0.00110037
0.00108946
0.00108721
0.00110042
0.00110042
0.00108737
0.00108717
0.00108717
0.00105181
0.00106504
0.00106504
0.00105181
0.00106505
0.00105181
0.00105181
0.00106504
0.00106504
0.00105181
0.001063
0.00106299
0.001063
0.00103646
0.00103646
0.00103646
0.00103646
0.00105187
0.00106501
0.00106293
0.00105404
0.00106499
0.00105183
0.00105408
0.00106504
0.00105181
0.00105187
0.00106292
0.00106501
0.00105404
0.00106499
0.00105408
0.00105183
0.00106504
0.00106504
0.001052
0.0010518
0.0010518
0.00101644
0.00102968
0.00102968
0.00101644
0.00102968
0.00101644
0.00101644
0.00102969
0.00102968
0.00101644
0.00102762
0.00102762
0.00102762
0.00100109
0.00100109
0.00100109
0.00100109
0.0010165
0.00102964
0.00102755
0.00101868
0.00102963
0.00101647
0.00101871
0.00102969
0.00101644
0.0010165
0.00102756
0.00102965
0.00101868
0.00102963
0.00101872
0.00101647
0.00102968
0.00102968
0.00101663
0.00101643
0.00101643
0.000981078
0.000994311
0.000994303
0.000981082
0.000994314
0.000981084
0.000981078
0.000994311
0.000994302
0.000981082
0.000992238
0.000992236
0.000992238
0.000965714
0.000965716
0.000965713
0.000965714
0.000981134
0.000994274
0.000992176
0.000983302
0.000994256
0.000981103
0.000983334
0.000994311
0.000981084
0.000981132
0.000992174
0.000994271
0.000983298
0.000994253
0.00098333
0.000981102
0.000994308
0.000994307
0.000981257
0.000981071
0.000981071
0.000945697
0.000958944
0.00095894
0.000945695
0.000958941
0.000945697
0.000945698
0.000958945
0.000958941
0.000945695
0.000956877
0.000956877
0.000956876
0.00093032
0.000930318
0.000930321
0.000930319
0.000945755
0.000958903
0.000956807
0.000947925
0.000958887
0.000945719
0.000947959
0.000958943
0.000945698
0.000945758
0.000956808
0.000958906
0.000947928
0.000958889
0.000947962
0.00094572
0.000958939
0.00095894
0.00094588
0.000945686
0.000945686
0.000910332
0.000923574
0.000923562
0.000910334
0.000923577
0.000910335
0.000910331
0.000923573
0.000923562
0.000910333
0.000921469
0.00092147
0.00092147
0.000894957
0.000894959
0.000894956
0.000894958
0.000910385
0.000923534
0.000921418
0.000912549
0.00092351
0.000910356
0.000912578
0.000923576
0.000910335
0.000910383
0.000921419
0.000923532
0.000912547
0.000923508
0.000912577
0.000910354
0.000923571
0.00092357
0.000910505
0.000910324
0.000910324
0.000874922
0.000888172
0.00088817
0.000874926
0.000888171
0.000874931
0.000874923
0.000888173
0.00088817
0.000874927
0.000886106
0.000886104
0.000886105
0.000859509
0.000859508
0.000859509
0.000859508
0.000874977
0.000888132
0.000886036
0.000877142
0.000888119
0.000874946
0.000877175
0.000888171
0.000874931
0.000874978
0.000886034
0.000888133
0.000877142
0.000888119
0.000877174
0.000874946
0.000888165
0.000888166
0.000875098
0.000874917
0.000874917
0.000839548
0.000852805
0.000852791
0.000839543
0.000852806
0.00083954
0.000839547
0.000852805
0.000852791
0.000839542
0.000850662
0.000850664
0.000850663
0.000824151
0.000824151
0.000824151
0.000824151
0.000839599
0.000852761
0.000850621
0.000841756
0.000852729
0.000839567
0.000841783
0.000852807
0.00083954
0.000839599
0.000850622
0.000852761
0.000841757
0.000852729
0.000841783
0.000839566
0.000852801
0.000852801
0.000839717
0.000839532
0.000839532
0.000804088
0.000817351
0.000817343
0.000804099
0.000817353
0.000804106
0.000804089
0.000817351
0.000817343
0.000804099
0.000815286
0.000815285
0.000815286
0.000788647
0.000788648
0.000788648
0.000788648
0.000804139
0.00081731
0.000815215
0.000806301
0.000817297
0.000804116
0.000806336
0.000817353
0.000804106
0.000804139
0.000815215
0.00081731
0.000806302
0.000817297
0.000806337
0.000804116
0.000817347
0.000817346
0.000804256
0.000804091
0.00080409
0.000768705
0.000781968
0.000781953
0.000768699
0.00078197
0.000768696
0.000768704
0.000781968
0.000781953
0.000768699
0.000779787
0.000779788
0.000779787
0.00075327
0.00075327
0.000753269
0.00075327
0.00076875
0.000781922
0.000779758
0.000770896
0.000781884
0.000768724
0.000770914
0.000781969
0.000768694
0.00076875
0.000779758
0.000781921
0.000770895
0.000781884
0.000770913
0.000768723
0.000781963
0.000781963
0.000768868
0.000768688
0.000768688
0.000746463
0.000746456
0.000746463
0.000733174
0.000746463
0.000746457
0.000744405
0.000744403
0.000744404
0.000746423
0.000744335
0.000746415
0.000746463
0.000733189
0.000733224
0.000744335
0.000746424
0.000735397
0.000746415
0.000735438
0.000733199
0.000746458
0.000746458
0.00073334
0.000733173
0.000733172
0.00167002
0.00165655
0.00167002
0.00165655
0.00167004
0.00167004
0.00165684
0.00165656
0.00165656
0.00163857
0.00165203
0.00163857
0.00165203
0.00165202
0.00163857
0.00163857
0.00165204
0.00165204
0.00165657
0.00167002
0.00167003
0.00165655
0.00165668
0.00167001
0.00166801
0.00165895
0.00167002
0.00165661
0.00165901
0.00165668
0.00167001
0.00166801
0.00165895
0.00167002
0.00165661
0.00165901
0.00165204
0.00163857
0.00165203
0.00163858
0.00165204
0.00163857
0.00165203
0.00163858
0.00165203
0.00164995
0.00163862
0.00164102
0.00165201
0.00165001
0.00163869
0.00165203
0.00164995
0.00163862
0.00164102
0.00165201
0.00165001
0.00163869
0.00167004
0.00167004
0.00165684
0.00165656
0.00165656
0.00167002
0.00165655
0.00163857
0.00165203
0.00165202
0.00163858
0.00163858
0.00165204
0.00165204
0.00163857
0.00165203
0.00165668
0.00167001
0.00166801
0.00165895
0.00167002
0.00165661
0.00165901
0.00165657
0.00165655
0.00165668
0.00165895
0.00165901
0.00165661
0.00165204
0.00163857
0.00165203
0.00163858
0.00165203
0.00164995
0.00163862
0.00164102
0.00165201
0.00165001
0.00163869
0.00165204
0.00163857
0.00165202
0.00163858
0.00165203
0.00164995
0.00164102
0.00163862
0.00165001
0.00165201
0.00163869
0.00165657
0.00167002
0.00167003
0.00165655
0.00165668
0.00166801
0.00167001
0.00165895
0.00167002
0.00165901
0.00165661
0.00165657
0.00167002
0.00167003
0.00165655
0.00165203
0.00164995
0.00163862
0.00164102
0.00165201
0.00165001
0.00163869
0.00165204
0.00163857
0.00165203
0.00163858
0.00165203
0.00164995
0.00164102
0.00163862
0.00165001
0.00165201
0.00163869
0.00165204
0.00163857
0.00165203
0.00163858
0.00165684
0.00165656
0.00165656
0.00165655
0.00163857
0.00165203
0.00165202
0.00163857
0.00163857
0.00165204
0.00165204
0.00163857
0.00165203
0.00165668
0.00166801
0.00167001
0.00165895
0.00167002
0.00165901
0.00165661
0.00165657
0.00167003
0.00165655
0.00165657
0.00167002
0.00167003
0.00165655
0.00165203
0.00164995
0.00164102
0.00163862
0.00165001
0.00165201
0.00163869
0.00165203
0.00164995
0.00164102
0.00163862
0.00165001
0.00165201
0.00163869
0.00165204
0.00163857
0.00165202
0.00163858
0.00165203
0.00163857
0.00165203
0.00163858
0.00167002
0.00165655
0.00167002
0.00165655
0.00165202
0.00163857
0.00163857
0.00165204
0.00165204
0.00163857
0.00165203
0.00163857
0.00165203
0.00163405
0.00162061
0.00163405
0.00162061
0.00163406
0.00163406
0.00162089
0.00162061
0.00162061
0.00160266
0.00161609
0.00160266
0.00161609
0.00161607
0.00160266
0.00160266
0.0016161
0.0016161
0.00162062
0.00163405
0.00163406
0.0016206
0.00162073
0.00163404
0.00163203
0.00162299
0.00163405
0.00162066
0.00162305
0.00162073
0.00163404
0.00163203
0.00162299
0.00163405
0.00162066
0.00162305
0.0016161
0.00160266
0.00161609
0.00160267
0.0016161
0.00160266
0.00161609
0.00160267
0.00161608
0.00161401
0.00160271
0.00160509
0.00161608
0.00161407
0.00160278
0.00161609
0.00161401
0.00160271
0.0016051
0.00161607
0.00161407
0.00160278
0.00163406
0.00163406
0.00162089
0.00162061
0.00162061
0.00163405
0.00162061
0.00160266
0.00161609
0.00161607
0.00160266
0.00160266
0.0016161
0.0016161
0.00160266
0.00161609
0.00162072
0.00163404
0.00163203
0.00162299
0.00163405
0.00162066
0.00162305
0.00162062
0.00163405
0.00163406
0.0016206
0.00162072
0.00163203
0.00163404
0.00162299
0.00163405
0.00162305
0.00162066
0.0016161
0.00160266
0.00161609
0.00160267
0.00161608
0.00161401
0.00160271
0.00160509
0.00161608
0.00161407
0.00160278
0.0016161
0.00160266
0.00161609
0.00160267
0.00161608
0.00161401
0.00160509
0.00160271
0.00161407
0.00161608
0.00160278
0.00162062
0.00163405
0.00163406
0.0016206
0.00162073
0.00163203
0.00163404
0.00162299
0.00163405
0.00162305
0.00162066
0.00162062
0.00163405
0.00163406
0.0016206
0.00161608
0.00161401
0.00160271
0.0016051
0.00161608
0.00161407
0.00160278
0.0016161
0.00160266
0.00161609
0.00160267
0.00161609
0.00161401
0.00160509
0.00160271
0.00161407
0.00161608
0.00160278
0.0016161
0.00160266
0.00161609
0.00160267
0.00163406
0.00163406
0.00162089
0.00162061
0.00162061
0.00163405
0.00162061
0.00160266
0.00161609
0.00161607
0.00160266
0.00160266
0.0016161
0.0016161
0.00160266
0.00161609
0.00162073
0.00163203
0.00163404
0.00162299
0.00163405
0.00162305
0.00162066
0.00162062
0.00163405
0.00163406
0.0016206
0.00162062
0.00163405
0.00163406
0.0016206
0.00161608
0.00161401
0.00160509
0.00160271
0.00161407
0.00161608
0.00160278
0.00161608
0.00161401
0.00160509
0.00160271
0.00161407
0.00161608
0.00160278
0.0016161
0.00160266
0.00161609
0.00160267
0.0016161
0.00160266
0.00161609
0.00160267
0.00163405
0.00162061
0.00163405
0.00162061
0.00161607
0.00160266
0.00160266
0.0016161
0.0016161
0.00160266
0.00161609
0.00160266
0.00161609
0.00159815
0.00158473
0.00159815
0.00158473
0.00159816
0.00159816
0.00158501
0.00158473
0.00158473
0.00156682
0.00158022
0.00156682
0.00158022
0.00158019
0.00156682
0.00156682
0.00158023
0.00158023
0.00158474
0.00159815
0.00159815
0.00158473
0.00158484
0.00159813
0.00159612
0.0015871
0.00159814
0.00158478
0.00158716
0.00158484
0.00159813
0.00159612
0.0015871
0.00159814
0.00158478
0.00158716
0.00158023
0.00156681
0.00158022
0.00156683
0.00158023
0.00156681
0.00158022
0.00156683
0.00158021
0.00157814
0.00156687
0.00156924
0.00158021
0.00157819
0.00156693
0.00158021
0.00157813
0.00156687
0.00156924
0.00158021
0.00157819
0.00156693
0.00159816
0.00159816
0.00158501
0.00158473
0.00158473
0.00159815
0.00158473
0.00156682
0.00158022
0.00158019
0.00156682
0.00156682
0.00158023
0.00158023
0.00156682
0.00158022
0.00158484
0.00159813
0.00159612
0.0015871
0.00159814
0.00158478
0.00158716
0.00158474
0.00159815
0.00159815
0.00158473
0.00158484
0.00159612
0.00159813
0.0015871
0.00159814
0.00158716
0.00158478
0.00158023
0.00156681
0.00158022
0.00156683
0.00158021
0.00157814
0.00156687
0.00156924
0.00158021
0.0015782
0.00156693
0.00158023
0.00156681
0.00158022
0.00156683
0.00158021
0.00157814
0.00156924
0.00156687
0.0015782
0.00158021
0.00156693
0.00158474
0.00159815
0.00159815
0.00158473
0.00158484
0.00159612
0.00159813
0.0015871
0.00159814
0.00158716
0.00158478
0.00158474
0.00159815
0.00159815
0.00158473
0.00158021
0.00157814
0.00156687
0.00156924
0.00158021
0.00157819
0.00156693
0.00158023
0.00156681
0.00158022
0.00156683
0.00158021
0.00157814
0.00156924
0.00156686
0.00157819
0.00158021
0.00156693
0.00158023
0.00156681
0.00158022
0.00156683
0.00159816
0.00159816
0.00158501
0.00158473
0.00158473
0.00159815
0.00158473
0.00156682
0.00158022
0.00158019
0.00156682
0.00156682
0.00158023
0.00158023
0.00156682
0.00158022
0.00158484
0.00159612
0.00159813
0.0015871
0.00159814
0.00158716
0.00158478
0.00158474
0.00159815
0.00159815
0.00158473
0.00158474
0.00159815
0.00159815
0.00158473
0.00158021
0.00157814
0.00156924
0.00156687
0.0015782
0.00158021
0.00156693
0.00158021
0.00157814
0.00156924
0.00156687
0.0015782
0.00158021
0.00156693
0.00158023
0.00156681
0.00158022
0.00156683
0.00158023
0.00156681
0.00158022
0.00156683
0.00159815
0.00158473
0.00159815
0.00158473
0.00158019
0.00156682
0.00156682
0.00158023
0.00158023
0.00156682
0.00158022
0.00156682
0.00158022
0.00156231
0.00154892
0.00156231
0.00154892
0.00156232
0.00156232
0.00154919
0.00154892
0.00154892
0.00153103
0.00154442
0.00153103
0.00154442
0.00154438
0.00153104
0.00153104
0.00154443
0.00154443
0.00154893
0.00156231
0.00156232
0.00154891
0.00154903
0.00156229
0.00156028
0.00155127
0.0015623
0.00154897
0.00155133
0.00154903
0.00156229
0.00156028
0.00155127
0.0015623
0.00154897
0.00155133
0.00154442
0.00153103
0.00154442
0.00153104
0.00154442
0.00153103
0.00154442
0.00153104
0.00154441
0.00154233
0.00153108
0.00153344
0.0015444
0.00154239
0.00153114
0.00154441
0.00154233
0.00153108
0.00153344
0.0015444
0.00154239
0.00153114
0.00156232
0.00156232
0.00154919
0.00154892
0.00154892
0.00156231
0.00154892
0.00153103
0.00154442
0.00154438
0.00153104
0.00153104
0.00154443
0.00154443
0.00153103
0.00154442
0.00154903
0.0015623
0.00156028
0.00155127
0.0015623
0.00154897
0.00155133
0.00154893
0.00156231
0.00156232
0.00154891
0.00154903
0.00156028
0.0015623
0.00155127
0.0015623
0.00155133
0.00154897
0.00154442
0.00153103
0.00154442
0.00153104
0.00154441
0.00154233
0.00153108
0.00153344
0.0015444
0.00154239
0.00153114
0.00154442
0.00153103
0.00154442
0.00153104
0.00154441
0.00154233
0.00153344
0.00153108
0.00154239
0.0015444
0.00153114
0.00154893
0.00156231
0.00156232
0.00154891
0.00154903
0.00156028
0.00156229
0.00155127
0.0015623
0.00155133
0.00154897
0.00154893
0.00156231
0.00156232
0.00154891
0.00154441
0.00154233
0.00153108
0.00153344
0.0015444
0.00154239
0.00153114
0.00154442
0.00153103
0.00154442
0.00153104
0.00154441
0.00154233
0.00153344
0.00153108
0.00154239
0.0015444
0.00153114
0.00154442
0.00153103
0.00154442
0.00153104
0.00156232
0.00156232
0.00154919
0.00154892
0.00154892
0.00156231
0.00154892
0.00153103
0.00154442
0.00154438
0.00153103
0.00153104
0.00154443
0.00154443
0.00153103
0.00154442
0.00154903
0.00156028
0.00156229
0.00155127
0.0015623
0.00155133
0.00154897
0.00154893
0.00156231
0.00156232
0.00154891
0.00154893
0.00156231
0.00156232
0.00154891
0.00154441
0.00154233
0.00153344
0.00153108
0.00154239
0.0015444
0.00153114
0.00154441
0.00154233
0.00153344
0.00153108
0.00154239
0.0015444
0.00153114
0.00154442
0.00153103
0.00154442
0.00153104
0.00154442
0.00153103
0.00154442
0.00153104
0.00156231
0.00154892
0.00156231
0.00154892
0.00154438
0.00153104
0.00153104
0.00154443
0.00154443
0.00153103
0.00154442
0.00153103
0.00154442
0.00152654
0.00151317
0.00152654
0.00151317
0.00152655
0.00152655
0.00151343
0.00151317
0.00151317
0.00149531
0.00150867
0.00149531
0.00150867
0.00150862
0.00149531
0.00149531
0.00150868
0.00150868
0.00151317
0.00152654
0.00152654
0.00151316
0.00151327
0.00152652
0.0015245
0.00151551
0.00152652
0.00151321
0.00151557
0.00151327
0.00152652
0.0015245
0.00151551
0.00152652
0.00151321
0.00151557
0.00150868
0.00149531
0.00150867
0.00149532
0.00150868
0.00149531
0.00150867
0.00149532
0.00150866
0.00150658
0.00149535
0.00149771
0.00150865
0.00150663
0.00149541
0.00150866
0.00150658
0.00149535
0.00149771
0.00150865
0.00150663
0.00149541
0.00152655
0.00152655
0.00151343
0.00151317
0.00151317
0.00152654
0.00151317
0.00149531
0.00150867
0.00150862
0.00149531
0.00149531
0.00150868
0.00150868
0.00149531
0.00150867
0.00151327
0.00152652
0.0015245
0.00151551
0.00152652
0.00151321
0.00151557
0.00151317
0.00152654
0.00152654
0.00151316
0.00151327
0.0015245
0.00152652
0.00151551