/*--------------------------------*- C++ -*----------------------------------*\
| =========                 |                                                 |
| \\      /  F ield         | OpenFOAM: The Open Source CFD Toolbox           |
|  \\    /   O peration     | Version:  2312                                  |
|   \\  /    A nd           | Website:  www.openfoam.com                      |
|    \\/     M anipulation  |                                                 |
\*---------------------------------------------------------------------------*/
FoamFile
{
    version     2.0;
    format      ascii;
    arch        "LSB;label=32;scalar=64";
    class       surfaceScalarField;
    location    "375";
    object      phi;
}
// * * * * * * * * * * * * * * * * * * * * * * * * * * * * * * * * * * * * * //

dimensions      [0 3 -1 0 0 0 0];

oriented        oriented;

internalField   nonuniform List<scalar> 
124041
(
-2.1869e-07
-2.18646e-07
1.91587e-07
1.91985e-07
0.00119123
-1.2474e-06
2.1893e-07
6.55858e-08
0.00114026
-2.53272e-07
1.22057e-06
2.29286e-07
8.54197e-07
-2.46797e-07
-9.00351e-07
1.99155e-07
1.27649e-06
1.23931e-06
-2.35067e-07
-2.37828e-07
0.000269439
-1.94569e-07
-1.94554e-07
-0.00119136
1.78333e-07
1.78165e-07
0.00119139
-0.00113983
-1.24207e-06
1.94202e-07
5.59559e-08
0.00113969
-2.49063e-07
1.22171e-06
2.3099e-07
8.56976e-07
-2.41158e-07
-8.94012e-07
2.02404e-07
-0.00113969
-1.23926e-06
1.94308e-07
6.14251e-08
0.00113955
-2.46241e-07
1.21898e-06
2.28272e-07
8.56911e-07
-2.41163e-07
-8.93979e-07
2.02399e-07
-0.000271338
1.27102e-06
1.23394e-06
-2.31144e-07
-2.33823e-07
0.000269298
-1.70288e-07
-1.69848e-07
-0.00119146
1.62228e-07
1.63042e-07
0.00119147
-0.00113927
-1.23702e-06
1.70249e-07
4.63875e-08
0.00113914
-2.45107e-07
1.22279e-06
2.32558e-07
8.59541e-07
-2.35872e-07
-8.88106e-07
2.05439e-07
-0.00113913
-1.23428e-06
1.69987e-07
5.19984e-08
0.001139
-2.42354e-07
1.22001e-06
2.29791e-07
8.59525e-07
-2.35843e-07
-8.88035e-07
2.05475e-07
-0.000271203
1.26599e-06
1.22895e-06
-2.27549e-07
-2.30211e-07
0.000269166
-1.47195e-07
-1.47192e-07
-0.00119149
1.48249e-07
1.4799e-07
0.00119149
-0.00113873
-1.23241e-06
1.46708e-07
3.79819e-08
0.00113861
-2.41527e-07
1.22368e-06
2.33899e-07
8.62085e-07
-2.30793e-07
-8.82433e-07
2.08398e-07
-0.0011386
-1.22969e-06
1.47085e-07
4.39267e-08
0.00113846
-2.38792e-07
1.22085e-06
2.31108e-07
8.62e-07
-2.3082e-07
-8.82414e-07
2.08364e-07
-0.000271077
1.26137e-06
1.22429e-06
-2.24213e-07
-2.26906e-07
0.000269043
-1.24686e-07
-1.24353e-07
-0.00119146
1.32971e-07
1.33149e-07
0.00119145
-0.00113821
-1.22805e-06
1.24423e-07
3.02991e-08
0.00113809
-2.38147e-07
1.2245e-06
2.35145e-07
8.64462e-07
-2.26009e-07
-8.77086e-07
2.11162e-07
-0.00113808
-1.22527e-06
1.24341e-07
3.57026e-08
0.00113795
-2.35368e-07
1.22173e-06
2.32391e-07
8.64396e-07
-2.26005e-07
-8.7705e-07
2.11156e-07
-0.00027096
1.25692e-06
1.21994e-06
-2.21131e-07
-2.23763e-07
0.000268928
-1.03029e-07
-1.02591e-07
-0.00119137
1.17747e-07
1.1831e-07
0.00119134
-0.00113772
-1.22399e-06
1.02679e-07
2.27789e-08
0.0011376
-2.35025e-07
1.22523e-06
2.3625e-07
8.66656e-07
-2.21553e-07
-8.72106e-07
2.13721e-07
-0.00113758
-1.22123e-06
1.02507e-07
2.8343e-08
0.00113746
-2.32254e-07
1.22245e-06
2.33501e-07
8.66619e-07
-2.2152e-07
-8.72043e-07
2.1374e-07
-0.000270851
1.25289e-06
1.21589e-06
-2.18303e-07
-2.20963e-07
0.000268822
-8.25029e-08
-8.22984e-08
-0.00119123
1.03428e-07
1.03393e-07
0.00119119
-0.00113725
-1.22024e-06
8.21631e-08
1.59088e-08
0.00113714
-2.32159e-07
1.22584e-06
2.37224e-07
8.68729e-07
-2.17377e-07
-8.67418e-07
2.16106e-07
-0.00113711
-1.21752e-06
8.2348e-08
2.16291e-08
0.001137
-2.2942e-07
1.22303e-06
2.34444e-07
8.6865e-07
-2.17377e-07
-8.67389e-07
2.16074e-07
-0.000270751
1.24917e-06
1.21215e-06
-2.15723e-07
-2.18396e-07
0.000268724
-6.31932e-08
-6.27724e-08
-0.00119105
8.90388e-08
8.93223e-08
0.001191
-0.0011368
-1.21675e-06
6.28349e-08
9.61948e-09
0.00113669
-2.29492e-07
1.22639e-06
2.38103e-07
8.70654e-07
-2.13465e-07
-8.63028e-07
2.18307e-07
-0.00113666
-1.21399e-06
6.27504e-08
1.51437e-08
0.00113655
-2.26721e-07
1.22362e-06
2.35351e-07
8.70611e-07
-2.13429e-07
-8.62967e-07
2.18315e-07
-0.000270658
1.24563e-06
1.20864e-06
-2.1332e-07
-2.15975e-07
0.000268633
-4.45502e-08
-4.42672e-08
-0.00119083
7.52638e-08
7.51215e-08
0.00119076
-0.00113637
-1.21348e-06
4.40393e-08
3.75977e-09
0.00113627
-2.27026e-07
1.22689e-06
2.3889e-07
8.72468e-07
-2.09792e-07
-8.58907e-07
2.20371e-07
-0.00113623
-1.21076e-06
4.41923e-08
9.30098e-09
0.00113613
-2.24274e-07
1.22409e-06
2.36124e-07
8.72382e-07
-2.09802e-07
-8.58888e-07
2.20338e-07
-0.000270574
1.24237e-06
1.20543e-06
-2.11143e-07
-2.1377e-07
0.000268551
-2.67316e-08
-2.61812e-08
-0.00119057
6.07387e-08
6.12734e-08
0.0011905
-0.00113597
-1.21051e-06
2.65109e-08
-1.40519e-09
0.00113588
-2.24799e-07
1.22727e-06
2.39523e-07
8.74122e-07
-2.06382e-07
-8.55086e-07
2.22259e-07
-0.00113583
-1.20775e-06
2.62802e-08
4.05113e-09
0.00113574
-2.22024e-07
1.22449e-06
2.36777e-07
8.74106e-07
-2.06322e-07
-8.54998e-07
2.22291e-07
-0.000270496
1.23935e-06
1.20238e-06
-2.09094e-07
-2.11755e-07
0.000268476
-1.01692e-08
-1.00061e-08
-0.00119028
4.83241e-08
4.78643e-08
0.0011902
-0.00113559
-1.20762e-06
9.64469e-09
-7.12486e-09
0.0011355
-2.22623e-07
1.22772e-06
2.40205e-07
8.75762e-07
-2.0312e-07
-8.5143e-07
2.24096e-07
-0.00113545
-1.20494e-06
9.91941e-09
-1.11045e-09
0.00113536
-2.19899e-07
1.22489e-06
2.37418e-07
8.75633e-07
-2.03168e-07
-8.51454e-07
2.24023e-07
-0.000270426
1.23658e-06
1.19966e-06
-2.073e-07
-2.09923e-07
0.000268407
5.55299e-09
6.23008e-09
-0.00118997
3.4454e-08
3.51669e-08
0.00118989
-0.00113523
-1.20522e-06
-5.83219e-09
-1.11185e-08
0.00113515
-2.2087e-07
1.22786e-06
2.40584e-07
8.77124e-07
-2.00254e-07
-8.48191e-07
2.25629e-07
-0.0011351
-1.20245e-06
-6.19046e-09
-5.44152e-09
0.00113501
-2.18087e-07
1.2251e-06
2.37841e-07
8.77117e-07
-2.00187e-07
-8.48096e-07
2.25672e-07
-0.000270363
1.23396e-06
1.19702e-06
-2.05564e-07
-2.08216e-07
0.000268346
2.03332e-08
2.0495e-08
-0.00118964
2.28409e-08
2.24695e-08
0.00118955
-0.0011349
-1.20258e-06
-2.07414e-08
-1.61444e-08
0.00113483
-2.18906e-07
1.22836e-06
2.41206e-07
8.78527e-07
-1.97458e-07
-8.45033e-07
2.27162e-07
-0.00113476
-1.19989e-06
-2.04926e-08
-1.01868e-08
0.00113468
-2.16155e-07
1.22555e-06
2.38458e-07
8.78447e-07
-1.97469e-07
-8.45015e-07
2.27132e-07
-0.000270306
1.23159e-06
1.19464e-06
-2.03994e-07
-2.06653e-07
0.000268291
3.41631e-08
3.46967e-08
-0.00118929
1.04449e-08
1.06539e-08
0.0011892
-0.00113459
-1.20049e-06
-3.45407e-08
-1.93117e-08
0.00113452
-2.17343e-07
1.2285e-06
2.41575e-07
8.79612e-07
-1.95058e-07
-8.42318e-07
2.28392e-07
-0.00113445
-1.19776e-06
-3.45378e-08
-1.35924e-08
0.00113438
-2.14615e-07
1.22569e-06
2.38776e-07
8.79537e-07
-1.95048e-07
-8.42286e-07
2.28375e-07
-0.000270256
1.22919e-06
1.19233e-06
-2.02489e-07
-2.05097e-07
0.000268242
4.67224e-08
4.69483e-08
-0.00118892
-4.44789e-10
-4.23523e-10
0.00118883
-0.0011343
-1.19836e-06
-4.71223e-08
-2.35007e-08
0.00113423
-2.15807e-07
1.22877e-06
2.41957e-07
8.80719e-07
-1.92742e-07
-8.39721e-07
2.29614e-07
-0.00113416
-1.19559e-06
-4.72416e-08
-1.78333e-08
0.00113409
-2.12993e-07
1.22604e-06
2.39262e-07
8.80686e-07
-1.92705e-07
-8.39648e-07
2.29624e-07
-0.000270211
1.2273e-06
1.1903e-06
-2.01175e-07
-2.0389e-07
0.000268199
5.76436e-08
5.81815e-08
-0.00118854
-1.02068e-08
-1.0169e-08
0.00118845
-0.00113402
-1.19644e-06
-5.78512e-08
-2.71837e-08
0.00113397
-2.14338e-07
1.22896e-06
2.42329e-07
8.81506e-07
-1.90815e-07
-8.37504e-07
2.30495e-07
-0.00113389
-1.19379e-06
-5.75557e-08
-2.13276e-08
0.00113382
-2.11662e-07
1.2261e-06
2.39496e-07
8.81405e-07
-1.90839e-07
-8.37516e-07
2.30458e-07
-0.000270173
1.22524e-06
1.18844e-06
-1.99996e-07
-2.02561e-07
0.000268161
6.82439e-08
6.81704e-08
-0.00118816
-1.9068e-08
-1.92162e-08
0.00118806
-0.00113377
-1.19467e-06
-6.88654e-08
-3.13771e-08
0.00113372
-2.1302e-07
1.22921e-06
2.42708e-07
8.82451e-07
-1.88883e-07
-8.35336e-07
2.31509e-07
-0.00113364
-1.19185e-06
-6.9099e-08
-2.56159e-08
0.00113358
-2.1018e-07
1.22651e-06
2.40019e-07
8.82429e-07
-1.8882e-07
-8.35225e-07
2.31517e-07
-0.000270139
1.22355e-06
1.18644e-06
-1.9869e-07
-2.01496e-07
0.000268129
7.67294e-08
7.78786e-08
-0.00118777
-2.86446e-08
-2.82934e-08
0.00118767
-0.00113354
-1.19319e-06
-7.66578e-08
-3.35645e-08
0.00113349
-2.1194e-07
1.22917e-06
2.42812e-07
8.82834e-07
-1.87512e-07
-8.33733e-07
2.31986e-07
-0.00113341
-1.19056e-06
-7.63692e-08
-2.82098e-08
0.00113335
-2.09259e-07
1.22632e-06
2.40014e-07
8.82727e-07
-1.87579e-07
-8.33795e-07
2.31948e-07
-0.000270111
1.22193e-06
1.18539e-06
-1.98081e-07
-2.0048e-07
0.000268103
8.58327e-08
8.50571e-08
-0.00118737
-3.46523e-08
-3.4906e-08
0.00118727
-0.00113333
-1.1916e-06
-8.66955e-08
-3.82063e-08
0.00113328
-2.10721e-07
1.22946e-06
2.43204e-07
8.83715e-07
-1.85825e-07
-8.31796e-07
2.32838e-07
-0.00113319
-1.18875e-06
-8.68734e-08
-3.19782e-08
0.00113314
-2.07893e-07
1.22674e-06
2.40471e-07
8.8369e-07
-1.85735e-07
-8.31646e-07
2.32839e-07
-0.000270088
1.22056e-06
1.1831e-06
-1.96586e-07
-1.99656e-07
0.00026808
9.345e-08
9.45636e-08
-0.00118697
-4.4198e-08
-4.45626e-08
0.00118687
-0.00113313
-1.19011e-06
-9.32868e-08
-4.09719e-08
0.00113309
-2.09564e-07
1.22977e-06
2.43595e-07
8.84142e-07
-1.84603e-07
-8.30462e-07
2.334e-07
-0.00113299
-1.18752e-06
-9.2864e-08
-3.55828e-08
0.00113295
-2.06891e-07
1.2269e-06
2.40799e-07
8.8404e-07
-1.84692e-07
-8.30526e-07
2.33343e-07
-0.000270069
1.21888e-06
1.18258e-06
-1.96273e-07
-1.98475e-07
0.000268062
9.85248e-08
9.88955e-08
-0.00118657
-4.89865e-08
-4.77567e-08
0.00118647
-0.00113295
-1.18966e-06
-9.90468e-08
-4.18436e-08
0.00113291
-2.09379e-07
1.229e-06
2.43048e-07
8.84142e-07
-1.83915e-07
-8.29502e-07
2.33338e-07
-0.00113281
-1.18675e-06
-9.97059e-08
-3.63517e-08
0.00113277
-2.06507e-07
1.22634e-06
2.40371e-07
8.84128e-07
-1.83838e-07
-8.29373e-07
2.33372e-07
-0.000270055
1.2184e-06
1.1811e-06
-1.95494e-07
-1.98519e-07
0.00026805
1.07698e-07
1.07048e-07
-0.00118617
-5.57289e-08
-5.76508e-08
0.00118607
-0.00113279
-1.18749e-06
-1.0814e-07
-4.76135e-08
0.00113275
-2.07554e-07
1.23025e-06
2.44202e-07
8.85446e-07
-1.81973e-07
-8.2751e-07
2.34689e-07
-0.00113265
-1.18486e-06
-1.07139e-07
-4.13918e-08
0.00113261
-2.04886e-07
1.22738e-06
2.41363e-07
8.85326e-07
-1.82042e-07
-8.27532e-07
2.34596e-07
-0.000270043
1.21649e-06
1.17961e-06
-1.94319e-07
-1.96916e-07
0.000268038
1.09436e-07
1.10926e-07
-0.00118576
-6.17165e-08
-6.0041e-08
0.00118566
-0.00113263
-1.1877e-06
-1.0963e-07
-4.71263e-08
0.00113261
-2.07851e-07
1.22919e-06
2.43422e-07
8.84298e-07
-1.82639e-07
-8.27985e-07
2.33595e-07
-0.0011325
-1.18494e-06
-1.1023e-07
-4.19248e-08
0.00113246
-2.05082e-07
1.22642e-06
2.40674e-07
8.84241e-07
-1.82607e-07
-8.27932e-07
2.33609e-07
-0.000270038
1.2164e-06
1.17977e-06
-1.94891e-07
-1.97404e-07
0.000268034
1.1527e-07
1.14802e-07
-0.00118537
-6.48962e-08
-6.59095e-08
0.00118527
-0.0011325
-1.18636e-06
-1.15438e-07
-4.91608e-08
0.00113247
-2.06932e-07
1.22947e-06
2.43586e-07
8.85768e-07
-1.8053e-07
-8.2576e-07
2.34864e-07
-0.00113237
-1.18359e-06
-1.15294e-07
-4.33577e-08
0.00113233
-2.04149e-07
1.22672e-06
2.40856e-07
8.85769e-07
-1.8051e-07
-8.2566e-07
2.34851e-07
-0.000270034
1.21519e-06
1.17803e-06
-1.93413e-07
-1.96268e-07
0.00026803
1.21463e-07
1.22141e-07
-0.00118497
-7.15048e-08
-7.08918e-08
0.00118487
-0.00113237
-1.1854e-06
-1.22526e-07
-5.36566e-08
0.00113235
-2.06001e-07
1.22995e-06
2.44123e-07
8.85214e-07
-1.80817e-07
-8.26096e-07
2.34586e-07
-0.00113224
-1.18265e-06
-1.22279e-07
-4.79515e-08
0.00113221
-2.0324e-07
1.22717e-06
2.4134e-07
8.85097e-07
-1.80821e-07
-8.26126e-07
2.34567e-07
-0.000270035
1.21431e-06
1.17748e-06
-1.93371e-07
-1.96002e-07
0.000268033
1.21969e-07
1.21885e-07
-0.00118458
-7.52035e-08
-7.62465e-08
0.00118448
-0.00113227
-1.18533e-06
-1.2103e-07
-5.14262e-08
0.00113225
-2.06188e-07
1.22904e-06
2.43436e-07
8.85582e-07
-1.79882e-07
-8.24954e-07
2.34733e-07
-0.00113214
-1.18275e-06
-1.21206e-07
-4.55627e-08
0.00113211
-2.03527e-07
1.22615e-06
2.40633e-07
8.85651e-07
-1.79848e-07
-8.24791e-07
2.34718e-07
-0.000270038
1.21404e-06
1.17731e-06
-1.93191e-07
-1.95718e-07
0.000268036
1.24538e-07
1.25371e-07
-0.0011842
-7.37294e-08
-7.2648e-08
-0.00113215
-1.18464e-06
-1.26212e-07
-5.6159e-08
-2.05425e-07
1.22963e-06
2.43924e-07
8.85332e-07
-1.80087e-07
-8.25136e-07
2.34485e-07
-0.00113202
-1.18162e-06
-1.26018e-07
-5.12897e-08
0.001132
-2.02466e-07
1.22705e-06
2.4128e-07
8.85153e-07
-1.80101e-07
-8.25221e-07
2.34461e-07
-0.000270042
1.21352e-06
1.17635e-06
-1.92784e-07
-1.95699e-07
0.000268041
1.28755e-06
1.2449e-06
-2.32572e-07
-2.40378e-07
0.000269494
-1.26139e-06
-1.21887e-06
0.000271409
-0.000269387
2.25168e-07
2.3297e-07
7.2109e-08
0.0011397
-2.56146e-07
1.26046e-06
2.31711e-07
8.56903e-07
-2.44153e-07
-9.03178e-07
1.96332e-07
-1.2849e-06
2.18784e-07
7.18015e-08
0.00113976
-2.5886e-07
1.25793e-06
2.34651e-07
8.62155e-07
-2.46865e-07
-9.08384e-07
1.99058e-07
0.00113927
2.00743e-07
-0.00113941
6.48487e-08
-1.28348e-06
2.33109e-07
-2.52887e-07
-8.98457e-07
1.98703e-07
-2.4001e-07
8.58943e-07
1.25883e-06
0.00113933
2.00373e-07
-0.00113948
6.40595e-08
-1.2808e-06
2.35977e-07
-2.55636e-07
-9.03581e-07
2.01488e-07
-2.42633e-07
8.64256e-07
-2.35243e-07
-2.37611e-07
0.000269478
-1.22143e-06
0.000271394
-0.000269372
2.27898e-07
2.30248e-07
7.11928e-08
0.00114071
-2.53382e-07
1.21798e-06
2.29311e-07
8.59629e-07
-2.46824e-07
-9.05701e-07
1.99258e-07
0.00114028
2.00877e-07
-0.00114042
6.39758e-08
-1.24087e-06
2.30662e-07
-2.50153e-07
-9.00981e-07
2.01672e-07
-2.42629e-07
8.61673e-07
1.25331e-06
0.00113921
2.00759e-07
-0.00113935
6.44596e-08
-1.27531e-06
2.35978e-07
-2.55593e-07
-9.00967e-07
1.98772e-07
-2.39974e-07
8.61571e-07
2.18861e-07
7.2208e-08
0.00113927
-2.56061e-07
1.24939e-06
2.31763e-07
8.51285e-07
-2.41455e-07
1.93622e-07
-8.97582e-07
2.00173e-07
-0.00113998
6.9339e-08
-1.24337e-06
2.30576e-07
-2.50095e-07
-8.95508e-07
2.01617e-07
8.56342e-07
-2.42526e-07
1.25032e-06
0.00113883
2.00353e-07
-0.00113898
6.45846e-08
-1.27238e-06
2.33122e-07
-2.52815e-07
-8.92811e-07
1.96043e-07
-2.37244e-07
8.53372e-07
-1.21866e-06
0.000271367
-0.000269356
2.27962e-07
2.32832e-07
2.18892e-07
7.13225e-08
0.00114027
-2.53321e-07
1.21236e-06
2.29287e-07
8.56731e-07
-2.46797e-07
1.99214e-07
-9.02779e-07
2.00589e-07
-0.00113983
6.4137e-08
-1.24062e-06
2.27842e-07
-2.47309e-07
-8.9553e-07
2.01594e-07
8.56234e-07
-2.42557e-07
1.21327e-06
0.00113983
2.00531e-07
-0.00113998
6.37292e-08
-1.23525e-06
2.30601e-07
-2.50106e-07
-8.98007e-07
2.01673e-07
-2.42539e-07
8.58823e-07
-0.000269332
2.2764e-07
2.30388e-07
1.28208e-06
1.23953e-06
-2.2862e-07
-2.36339e-07
0.000269353
-1.26254e-06
-1.21995e-06
0.000271274
-0.000269253
2.26483e-07
2.34332e-07
6.20085e-08
0.00113913
-2.51787e-07
1.26174e-06
2.33578e-07
8.59634e-07
-2.38611e-07
-8.96901e-07
1.99523e-07
-1.27949e-06
1.94407e-07
6.18152e-08
0.00113919
-2.54614e-07
1.2591e-06
2.36378e-07
8.64923e-07
-2.41263e-07
-9.02045e-07
2.02276e-07
0.00113871
1.7622e-07
-0.00113885
5.44442e-08
-1.27823e-06
2.34746e-07
-2.48804e-07
-8.92388e-07
2.01845e-07
-2.34576e-07
8.61613e-07
1.25987e-06
0.00113878
1.76371e-07
-0.00113891
5.48784e-08
-1.2757e-06
2.37536e-07
-2.51657e-07
-8.97569e-07
2.04558e-07
-2.37274e-07
8.6686e-07
-2.31354e-07
-2.33666e-07
0.000269337
-1.22254e-06
0.000271259
-0.000269237
2.29266e-07
2.31588e-07
6.14851e-08
0.00114014
-2.49105e-07
1.21917e-06
2.31079e-07
8.62373e-07
-2.41216e-07
-8.99412e-07
2.02501e-07
-1.27396e-06
1.94468e-07
6.18116e-08
0.00113906
-2.54539e-07
1.25361e-06
2.36392e-07
8.62254e-07
-2.38578e-07
-8.9941e-07
1.9958e-07
0.00113972
1.75746e-07
-0.00113986
5.43449e-08
-1.23576e-06
2.32227e-07
-2.46167e-07
-8.94893e-07
2.04827e-07
-2.37175e-07
8.64356e-07
1.25433e-06
0.00113865
1.75993e-07
-0.00113878
5.47979e-08
-1.27021e-06
2.37505e-07
-2.5164e-07
-8.94922e-07
2.01893e-07
-2.34568e-07
8.64218e-07
1.94273e-07
6.18924e-08
0.00113869
-2.51737e-07
1.25065e-06
2.33583e-07
8.54054e-07
-2.35864e-07
1.96844e-07
-8.91265e-07
1.7627e-07
-0.00113941
5.98649e-08
-1.23825e-06
2.32188e-07
-2.46065e-07
-8.89511e-07
2.0469e-07
8.58942e-07
-2.37165e-07
1.25146e-06
0.00113828
1.76157e-07
-0.00113841
5.45692e-08
-1.26717e-06
2.34755e-07
-2.48743e-07
-8.86765e-07
1.9917e-07
-2.31835e-07
8.56027e-07
-2.31346e-07
-2.36208e-07
0.000269322
-1.21976e-06
0.000271233
-0.000269222
2.29267e-07
2.34108e-07
1.94303e-07
6.13999e-08
0.00113969
-2.49076e-07
1.21354e-06
2.31013e-07
8.5951e-07
-2.41148e-07
2.02481e-07
-8.96451e-07
1.75965e-07
-0.00113927
5.41875e-08
-1.23549e-06
2.29417e-07
-2.4331e-07
-8.895e-07
2.0471e-07
8.58872e-07
-2.37156e-07
1.21433e-06
0.00113928
1.75759e-07
-0.00113941
5.44753e-08
-1.23017e-06
2.32164e-07
-2.46127e-07
-8.91947e-07
2.04808e-07
-2.37116e-07
8.61485e-07
-0.000269198
2.28974e-07
2.31765e-07
1.27704e-06
1.23454e-06
-2.25051e-07
-2.3275e-07
0.000269221
-1.26335e-06
-1.2209e-06
0.000271149
-0.000269128
2.27665e-07
2.35453e-07
5.2413e-08
0.00113857
-2.47889e-07
1.26274e-06
2.35076e-07
8.62242e-07
-2.33286e-07
-8.90943e-07
2.02589e-07
-1.27447e-06
1.70319e-07
5.24751e-08
0.00113864
-2.50697e-07
1.26012e-06
2.3791e-07
8.67491e-07
-2.3598e-07
-8.96125e-07
2.05306e-07
0.00113817
1.5289e-07
-0.00113831
4.65051e-08
-1.2736e-06
2.36059e-07
-2.45222e-07
-8.86705e-07
2.04775e-07
-2.29495e-07
8.64113e-07
1.26082e-06
0.00113824
1.52649e-07
-0.00113837
4.57298e-08
-1.27092e-06
2.38963e-07
-2.4795e-07
-8.91859e-07
2.07528e-07
-2.32159e-07
8.69391e-07
-2.27719e-07
-2.30053e-07
0.000269205
-1.22346e-06
0.000271133
-0.000269112
2.30414e-07
2.3277e-07
5.20924e-08
0.00113959
-2.45209e-07
1.22021e-06
2.32603e-07
8.64979e-07
-2.35892e-07
-8.93455e-07
2.05564e-07
-1.26899e-06
1.69999e-07
5.26212e-08
0.00113851
-2.50682e-07
1.25458e-06
2.37881e-07
8.64867e-07
-2.3326e-07
-8.93461e-07
2.02655e-07
0.00113918
1.52864e-07
-0.00113932
4.56974e-08
-1.23103e-06
2.33637e-07
-2.42477e-07
-8.89228e-07
2.07738e-07
-2.32113e-07
8.66838e-07
1.25524e-06
0.00113811
1.52902e-07
-0.00113824
4.62768e-08
-1.26547e-06
2.38895e-07
-2.47962e-07
-8.89227e-07
2.04821e-07
-2.29479e-07
8.66718e-07
1.70257e-07
5.25095e-08
0.00113814
-2.4783e-07
1.25166e-06
2.35084e-07
8.56654e-07
-2.30547e-07
1.99907e-07
-8.85322e-07
1.52472e-07
-0.00113887
5.09816e-08
-1.23353e-06
2.33565e-07
-2.42406e-07
-8.83792e-07
2.07672e-07
8.61488e-07
-2.32039e-07
1.2523e-06
0.00113774
1.52745e-07
-0.00113787
4.63937e-08
-1.26253e-06
2.36085e-07
-2.45143e-07
-8.81091e-07
2.02096e-07
-2.26761e-07
8.58521e-07
-2.27779e-07
-2.32661e-07
0.00026919
-1.22063e-06
0.000271107
-0.000269097
2.30413e-07
2.35285e-07
1.69884e-07
5.22262e-08
0.00113914
-2.45175e-07
1.21458e-06
2.32537e-07
8.62107e-07
-2.35832e-07
2.05539e-07
-8.90508e-07
1.5276e-07
-0.00113873
4.5934e-08
-1.23082e-06
2.30767e-07
-2.39674e-07
-8.83792e-07
2.0765e-07
8.61388e-07
-2.32051e-07
1.21529e-06
0.00113874
1.52781e-07
-0.00113887
4.55948e-08
-1.22542e-06
2.33595e-07
-2.42417e-07
-8.86289e-07
2.07712e-07
-2.32061e-07
8.6396e-07
-0.000269073
2.30163e-07
2.32893e-07
1.27244e-06
1.22989e-06
-2.21727e-07
-2.29452e-07
0.000269097
-1.26427e-06
-1.22175e-06
0.000271031
-0.000269011
2.28741e-07
2.3659e-07
4.437e-08
0.00113804
-2.44314e-07
1.26359e-06
2.36421e-07
8.64728e-07
-2.28259e-07
-8.8532e-07
2.05492e-07
-1.26978e-06
1.46961e-07
4.37415e-08
0.00113811
-2.47065e-07
1.26104e-06
2.39298e-07
8.70016e-07
-2.30913e-07
-8.90464e-07
2.08253e-07
0.00113766
1.30256e-07
-0.00113778
3.79501e-08
-1.26905e-06
2.37427e-07
-2.41683e-07
-8.81268e-07
2.07609e-07
-2.24621e-07
8.66541e-07
1.26164e-06
0.00113772
1.30173e-07
-0.00113785
3.80104e-08
-1.26648e-06
2.40231e-07
-2.44519e-07
-8.86411e-07
2.10359e-07
-2.27278e-07
8.71821e-07
-2.24426e-07
-2.26726e-07
0.000269082
-1.22431e-06
0.000271016
-0.000268995
2.31507e-07
2.33846e-07
4.36258e-08
0.00113905
-2.41589e-07
1.22112e-06
2.33978e-07
8.67459e-07
-2.30871e-07
-8.87836e-07
2.0846e-07
-1.26434e-06
1.47294e-07
4.42313e-08
0.00113798
-2.47077e-07
1.25546e-06
2.39235e-07
8.67326e-07
-2.2825e-07
-8.87852e-07
2.05533e-07
0.00113867
1.2999e-07
-0.00113879
3.76409e-08
-1.22659e-06
2.3492e-07
-2.39028e-07
-8.83761e-07
2.10591e-07
-2.27215e-07
8.69291e-07
1.25612e-06
0.00113759
1.30132e-07
-0.00113772
3.80335e-08
-1.26098e-06
2.40216e-07
-2.44475e-07
-8.83781e-07
2.07666e-07
-2.24594e-07
8.69156e-07
1.46983e-07
4.42243e-08
0.00113761
-2.4424e-07
1.25253e-06
2.36443e-07
8.59144e-07
-2.25517e-07
2.02821e-07
-8.79701e-07
1.29949e-07
-0.00113835
4.32316e-08
-1.2291e-06
2.3485e-07
-2.38962e-07
-8.78347e-07
2.10497e-07
8.63922e-07
-2.27169e-07
1.25322e-06
0.00113722
1.3006e-07
-0.00113735
3.78655e-08
-1.25799e-06
2.37448e-07
-2.41614e-07
-8.75649e-07
2.04931e-07
-2.21884e-07
8.60957e-07
-2.24491e-07
-2.29342e-07
0.000269067
-1.22154e-06
0.000270989
-0.00026898
2.3153e-07
2.3639e-07
1.47037e-07
4.35113e-08
0.00113861
-2.41533e-07
1.21552e-06
2.3393e-07
8.6459e-07
-2.3081e-07
2.08442e-07
-8.84893e-07
1.29953e-07
-0.0011382
3.76886e-08
-1.22633e-06
2.32105e-07
-2.36177e-07
-8.78358e-07
2.10487e-07
8.63819e-07
-2.27173e-07
1.21614e-06
0.00113822
1.2987e-07
-0.00113835
3.75646e-08
-1.22099e-06
2.34871e-07
-2.38978e-07
-8.8082e-07
2.10562e-07
-2.27161e-07
8.66417e-07
-0.000268956
2.31231e-07
2.34023e-07
1.26798e-06
1.22554e-06
-2.18642e-07
-2.26305e-07
0.000268983
-1.26498e-06
-1.22249e-06
0.000270923
-0.000268902
2.29657e-07
2.37481e-07
3.59554e-08
0.00113753
-2.40865e-07
1.26447e-06
2.37724e-07
8.67124e-07
-2.23448e-07
-8.79956e-07
2.08284e-07
-1.26541e-06
1.24658e-07
3.60748e-08
0.0011376
-2.43696e-07
1.26183e-06
2.40534e-07
8.72392e-07
-2.26116e-07
-8.85111e-07
2.11024e-07
0.00113716
1.08354e-07
-0.00113728
3.03841e-08
-1.26492e-06
2.38544e-07
-2.3852e-07
-8.7618e-07
2.10223e-07
-2.2007e-07
8.68788e-07
1.26236e-06
0.00113723
1.08272e-07
-0.00113735
3.04048e-08
-1.26233e-06
2.41363e-07
-2.41334e-07
-8.81342e-07
2.12961e-07
-2.2274e-07
8.74047e-07
-2.21318e-07
-2.23635e-07
0.000268967
-1.22506e-06
0.000270907
-0.000268887
2.32424e-07
2.34757e-07
3.5767e-08
0.00113854
-2.38224e-07
1.22193e-06
2.35205e-07
8.69871e-07
-2.26045e-07
-8.82451e-07
2.11261e-07
-1.25992e-06
1.24531e-07
3.60236e-08
0.00113747
-2.43661e-07
1.25631e-06
2.40507e-07
8.69729e-07
-2.23428e-07
-8.82477e-07
2.08332e-07
0.00113817
1.07876e-07
-0.00113829
3.01919e-08
-1.22248e-06
2.36055e-07
-2.35859e-07
-8.7868e-07
2.13193e-07
-2.22675e-07
8.71532e-07
1.25683e-06
0.0011371
1.08104e-07
-0.00113722
3.04278e-08
-1.25686e-06
2.41336e-07
-2.41313e-07
-8.78701e-07
2.10284e-07
-2.20046e-07
8.71401e-07
1.24514e-07
3.58571e-08
0.0011371
-2.40797e-07
1.25341e-06
2.37741e-07
8.61538e-07
-2.20713e-07
2.05606e-07
-8.74343e-07
1.07985e-07
-0.00113784
3.56174e-08
-1.22497e-06
2.35993e-07
-2.35774e-07
-8.73278e-07
2.13103e-07
8.66158e-07
-2.22636e-07
1.25394e-06
0.00113673
1.08103e-07
-0.00113685
3.03057e-08
-1.25386e-06
2.38566e-07
-2.38451e-07
-8.7055e-07
2.07563e-07
-2.17317e-07
8.63223e-07
-2.2136e-07
-2.26218e-07
0.000268952
-1.22228e-06
0.000270881
-0.000268871
2.32435e-07
2.37287e-07
1.24254e-07
3.56975e-08
0.00113809
-2.38174e-07
1.21633e-06
2.35153e-07
8.66996e-07
-2.25992e-07
2.11234e-07
-8.79513e-07
1.0781e-07
-0.0011377
3.00905e-08
-1.22222e-06
2.3324e-07
-2.33009e-07
-8.73268e-07
2.13111e-07
8.66076e-07
-2.22617e-07
1.21689e-06
0.00113772
1.0768e-07
-0.00113785
3.0143e-08
-1.21688e-06
2.36007e-07
-2.35809e-07
-8.75724e-07
2.13184e-07
-2.22602e-07
8.68678e-07
-0.000268847
2.3215e-07
2.34921e-07
1.26395e-06
1.22148e-06
-2.15817e-07
-2.23509e-07
0.000268876
-1.26556e-06
-1.22315e-06
0.000270822
-0.000268802
2.30463e-07
2.38252e-07
2.86654e-08
0.00113704
-2.37786e-07
1.26512e-06
2.38785e-07
8.69327e-07
-2.18975e-07
-8.74961e-07
2.10852e-07
-1.26136e-06
1.02919e-07
2.86379e-08
0.00113711
-2.40595e-07
1.26252e-06
2.41613e-07
8.74582e-07
-2.21649e-07
-8.80126e-07
2.13586e-07
0.00113669
8.74492e-08
-0.0011368
2.36604e-08
-1.26112e-06
2.39516e-07
-2.3563e-07
-8.71409e-07
2.12658e-07
-2.15803e-07
8.70897e-07
1.263e-06
0.00113675
8.74546e-08
-0.00113687
2.33099e-08
-1.25849e-06
2.42381e-07
-2.38399e-07
-8.76591e-07
2.15377e-07
-2.18495e-07
8.76137e-07
-2.18495e-07
-2.20827e-07
0.000268861
-1.2257e-06
0.000270807
-0.000268787
2.33211e-07
2.35556e-07
2.83386e-08
0.00113805
-2.35099e-07
1.22267e-06
2.36323e-07
8.72066e-07
-2.21587e-07
-8.77465e-07
2.13813e-07
-1.25588e-06
1.02753e-07
2.87551e-08
0.00113698
-2.40571e-07
1.25698e-06
2.41584e-07
8.71948e-07
-2.18944e-07
-8.77472e-07
2.10919e-07
0.0011377
8.72383e-08
-0.00113781
2.30899e-08
-1.21863e-06
2.37074e-07
-2.32915e-07
-8.73916e-07
2.15607e-07
-2.18428e-07
8.73635e-07
1.25743e-06
0.00113662
8.75401e-08
-0.00113674
2.36305e-08
-1.25305e-06
2.42318e-07
-2.38408e-07
-8.73958e-07
2.12678e-07
-2.15813e-07
8.73471e-07
1.02803e-07
2.8609e-08
0.00113661
-2.37717e-07
1.25408e-06
2.38804e-07
8.63758e-07
-2.16226e-07
2.08187e-07
-8.69332e-07
8.7191e-08
-0.00113737
2.85472e-08
-1.22115e-06
2.36992e-07
-2.32854e-07
-8.68521e-07
2.15528e-07
8.68261e-07
-2.18395e-07
1.2545e-06
0.00113625
8.73627e-08
-0.00113637
2.36489e-08
-1.25009e-06
2.39517e-07
-2.35582e-07
-8.65809e-07
2.09972e-07
-2.13079e-07
8.65305e-07
-2.18543e-07
-2.23412e-07
0.000268846
-1.22289e-06
0.00027078
-0.000268771
2.33204e-07
2.38063e-07
1.02411e-07
2.83331e-08
0.0011376
-2.35048e-07
1.21707e-06
2.36274e-07
8.69208e-07
-2.21518e-07
2.13798e-07
-8.74511e-07
8.73146e-08
-0.00113723
2.33193e-08
-1.21843e-06
2.34208e-07
-2.30115e-07
-8.68524e-07
2.15502e-07
8.68154e-07
-2.18387e-07
1.21754e-06
0.00113725
8.72389e-08
-0.00113737
2.30734e-08
-1.21305e-06
2.37011e-07
-2.32879e-07
-8.70995e-07
2.15571e-07
-2.18385e-07
8.70747e-07
-0.000268747
2.3294e-07
2.35676e-07
1.2602e-06
1.21773e-06
-2.13228e-07
-2.2093e-07
0.000268778
-1.26614e-06
-1.2237e-06
0.00027073
-0.00026871
2.31164e-07
2.38976e-07
2.19793e-08
0.00113657
-2.34928e-07
1.26571e-06
2.39753e-07
8.71387e-07
-2.14797e-07
-8.70276e-07
2.13222e-07
-1.25757e-06
8.24687e-08
2.16186e-08
0.00113664
-2.377e-07
1.26314e-06
2.42612e-07
8.76639e-07
-2.17476e-07
-8.75448e-07
2.15956e-07
0.00113624
6.80616e-08
-0.00113635
1.69173e-08
-1.25753e-06
2.4045e-07
-2.32882e-07
-8.66975e-07
2.14887e-07
-2.11852e-07
8.72832e-07
1.26354e-06
0.00113631
6.78376e-08
-0.00113642
1.68669e-08
-1.25493e-06
2.43279e-07
-2.35689e-07
-8.72115e-07
2.17639e-07
-2.14503e-07
8.78107e-07
-2.15911e-07
-2.18226e-07
0.000268763
-1.22627e-06
0.000270714
-0.000268695
2.33927e-07
2.36258e-07
2.14583e-08
0.00113758
-2.32229e-07
1.22328e-06
2.37295e-07
8.74128e-07
-2.17417e-07
-8.72778e-07
2.16175e-07
-1.25213e-06
8.26383e-08
2.19108e-08
0.00113651
-2.37707e-07
1.25758e-06
2.42555e-07
8.7396e-07
-2.1481e-07
-8.7283e-07
2.13243e-07
0.00113725
6.76362e-08
-0.00113736
1.66096e-08
-1.21509e-06
2.37974e-07
-2.30209e-07
-8.69457e-07
2.17855e-07
-2.14456e-07
8.75592e-07
1.25801e-06
0.00113618
6.78344e-08
-0.00113629
1.69779e-08
-1.24946e-06
2.43245e-07
-2.35665e-07
-8.69483e-07
2.14955e-07
-2.11816e-07
8.7545e-07
8.23731e-08
2.19115e-08
0.00113614
-2.3487e-07
1.25466e-06
2.39768e-07
8.65804e-07
-2.12065e-07
2.10545e-07
-8.64669e-07
6.76053e-08
-0.00113691
2.20598e-08
-1.21759e-06
2.37899e-07
-2.30135e-07
-8.64054e-07
2.17776e-07
8.70225e-07
-2.14414e-07
1.2551e-06
0.00113581
6.7872e-08
-0.00113592
1.68177e-08
-1.24647e-06
2.40462e-07
-2.32815e-07
-8.61363e-07
2.1221e-07
-2.09116e-07
8.6725e-07
-2.15984e-07
-2.20835e-07
0.000268748
-1.22349e-06
0.000270688
-0.000268679
2.3394e-07
2.38792e-07
8.22341e-08
2.1426e-08
0.00113714
-2.32185e-07
1.21768e-06
2.37242e-07
8.71255e-07
-2.17362e-07
2.16153e-07
-8.69847e-07
6.75535e-08
-0.00113677
1.66678e-08
-1.21484e-06
2.35148e-07
-2.27365e-07
-8.64045e-07
2.17777e-07
8.70138e-07
-2.1439e-07
1.21811e-06
0.0011368
6.74765e-08
-0.00113691
1.65427e-08
-1.2095e-06
2.37921e-07
-2.30157e-07
-8.66519e-07
2.17832e-07
-2.14393e-07
8.72718e-07
-0.000268655
2.33648e-07
2.36413e-07
1.25666e-06
1.21422e-06
-2.10823e-07
-2.18505e-07
0.000268688
-1.2666e-06
-1.22419e-06
0.000270645
-0.000268625
2.3175e-07
2.39562e-07
1.53366e-08
0.00113613
-2.32225e-07
1.26628e-06
2.40666e-07
8.73322e-07
-2.1088e-07
-8.65885e-07
2.15442e-07
-1.25406e-06
6.30831e-08
1.52785e-08
0.0011362
-2.35026e-07
1.26368e-06
2.43503e-07
8.78569e-07
-2.13554e-07
-8.71048e-07
2.18169e-07
0.00113581
4.90065e-08
-0.00113592
1.10842e-08
-1.25421e-06
2.41222e-07
-2.30394e-07
-8.6277e-07
2.16981e-07
-2.08114e-07
8.74676e-07
1.26402e-06
0.00113588
4.90131e-08
-0.00113598
1.0792e-08
-1.2516e-06
2.44062e-07
-2.33183e-07
-8.67944e-07
2.19727e-07
-2.10785e-07
8.7993e-07
-2.13505e-07
-2.15827e-07
0.000268673
-1.22677e-06
0.00027063
-0.00026861
2.34532e-07
2.36854e-07
1.49932e-08
0.00113714
-2.29543e-07
1.22386e-06
2.38201e-07
8.76075e-07
-2.13488e-07
-8.68372e-07
2.18405e-07
-1.24859e-06
6.30363e-08
1.54183e-08
0.00113607
-2.35012e-07
1.25815e-06
2.43458e-07
8.75923e-07
-2.10858e-07
-8.68403e-07
2.1549e-07
0.00113682
4.87519e-08
-0.00113693
1.06702e-08
-1.21178e-06
2.38746e-07
-2.27716e-07
-8.65267e-07
2.19937e-07
-2.1073e-07
8.77423e-07
1.25847e-06
0.00113575
4.91788e-08
-0.00113585
1.09984e-08
-1.24615e-06
2.44016e-07
-2.33179e-07
-8.65332e-07
2.17e-07
-2.08133e-07
8.77242e-07
6.30732e-08
1.52697e-08
0.0011357
-2.32179e-07
1.25522e-06
2.40659e-07
8.67729e-07
-2.08156e-07
2.12753e-07
-8.60286e-07
4.86056e-08
-0.00113648
1.602e-08
-1.21428e-06
2.38694e-07
-2.27633e-07
-8.5987e-07
2.19872e-07
8.72064e-07
-2.10685e-07
1.25558e-06
0.00113538
4.87815e-08
-0.00113549
1.10086e-08
-1.24317e-06
2.41252e-07
-2.30321e-07
-8.5715e-07
2.14323e-07
-2.05368e-07
8.69115e-07
-2.13554e-07
-2.1841e-07
0.000268657
-1.22396e-06
0.000270603
-0.000268595
2.34514e-07
2.39368e-07
6.26982e-08
1.49591e-08
0.00113669
-2.29506e-07
1.21825e-06
2.38135e-07
8.73187e-07
-2.13439e-07
2.18369e-07
-8.65451e-07
4.87474e-08
-0.00113634
1.077e-08
-1.21156e-06
2.35923e-07
-2.24885e-07
-8.59886e-07
2.19835e-07
8.71943e-07
-2.10693e-07
1.2186e-06
0.00113638
4.85775e-08
-0.00113648
1.06328e-08
-1.20619e-06
2.38705e-07
-2.2766e-07
-8.62325e-07
2.19935e-07
-2.10656e-07
8.74565e-07
-0.000268571