/*--------------------------------*- C++ -*----------------------------------*\
| =========                 |                                                 |
| \\      /  F ield         | OpenFOAM: The Open Source CFD Toolbox           |
|  \\    /   O peration     | Version:  2312                                  |
|   \\  /    A nd           | Website:  www.openfoam.com                      |
|    \\/     M anipulation  |                                                 |
\*---------------------------------------------------------------------------*/
FoamFile
{
    version     2.0;
    format      ascii;
    arch        "LSB;label=32;scalar=64";
    class       volVectorField;
    location    "375";
    object      U;
}
// * * * * * * * * * * * * * * * * * * * * * * * * * * * * * * * * * * * * * //

dimensions      [0 1 -1 0 0 0 0];

internalField   nonuniform List<vector> 
42973
(
(2.39517e-05 2.39669e-05 0.113152)
(-1.67857e-05 1.00915e-05 0.108269)
(-4.78916e-05 -4.79148e-05 0.104719)
(2.19954e-05 2.19822e-05 0.113168)
(-1.44268e-05 8.77095e-06 0.108214)
(8.74885e-06 -1.44242e-05 0.108213)
(-4.60127e-05 -4.60084e-05 0.104666)
(1.97889e-05 1.98401e-05 0.113177)
(-1.2153e-05 7.48503e-06 0.108161)
(7.48328e-06 -1.21448e-05 0.10816)
(-4.42825e-05 -4.42669e-05 0.104616)
(1.77616e-05 1.77385e-05 0.11318)
(-9.97943e-06 6.33741e-06 0.10811)
(6.35901e-06 -9.99926e-06 0.108109)
(-4.26662e-05 -4.26721e-05 0.104569)
(1.56307e-05 1.56448e-05 0.113176)
(-7.92045e-06 5.25654e-06 0.108062)
(5.24266e-06 -7.91693e-06 0.10806)
(-4.11643e-05 -4.11403e-05 0.104525)
(1.35319e-05 1.35663e-05 0.113167)
(-5.97341e-06 4.22502e-06 0.108015)
(4.22271e-06 -5.96725e-06 0.108014)
(-3.97726e-05 -3.97609e-05 0.104485)
(1.15428e-05 1.15358e-05 0.113153)
(-4.16904e-06 3.27734e-06 0.10797)
(3.29016e-06 -4.17975e-06 0.107969)
(-3.84917e-05 -3.849e-05 0.104448)
(9.58769e-06 9.60557e-06 0.113135)
(-2.48087e-06 2.39073e-06 0.107928)
(2.38781e-06 -2.47355e-06 0.107927)
(-3.72989e-05 -3.72878e-05 0.104414)
(7.69678e-06 7.6884e-06 0.113113)
(-8.79547e-07 1.5634e-06 0.107888)
(1.5708e-06 -8.87995e-07 0.107886)
(-3.61992e-05 -3.61784e-05 0.104383)
(5.78694e-06 5.82144e-06 0.113089)
(6.06056e-07 8.23683e-07 0.10785)
(8.1592e-07 6.24334e-07 0.107849)
(-3.51638e-05 -3.51551e-05 0.104354)
(4.06572e-06 4.03879e-06 0.113061)
(2.03214e-06 8.44594e-08 0.107814)
(9.14034e-08 2.01187e-06 0.107813)
(-3.42356e-05 -3.42145e-05 0.104329)
(2.31275e-06 2.362e-06 0.113031)
(3.29419e-06 -4.92136e-07 0.10778)
(-5.07111e-07 3.31304e-06 0.107779)
(-3.33405e-05 -3.33294e-05 0.104306)
(8.45936e-07 8.24363e-07 0.112999)
(4.39328e-06 -1.16363e-06 0.107749)
(-1.15314e-06 4.38002e-06 0.107748)
(-3.25127e-05 -3.2507e-05 0.104285)
(-6.64637e-07 -6.35441e-07 0.112966)
(5.41502e-06 -1.6704e-06 0.10772)
(-1.66396e-06 5.41066e-06 0.107718)
(-3.17228e-05 -3.16928e-05 0.104267)
(-1.97046e-06 -1.97061e-06 0.112931)
(6.35168e-06 -2.21995e-06 0.107692)
(-2.2372e-06 6.35528e-06 0.107691)
(-3.1028e-05 -3.10458e-05 0.104251)
(-3.21289e-06 -3.18165e-06 0.112895)
(7.13282e-06 -2.7283e-06 0.107667)
(-2.69902e-06 7.11097e-06 0.107665)
(-3.03928e-05 -3.03436e-05 0.104237)
(-4.31868e-06 -4.34723e-06 0.112859)
(7.91643e-06 -3.25121e-06 0.107643)
(-3.27236e-06 7.92499e-06 0.107642)
(-2.97287e-05 -2.97884e-05 0.104225)
(-5.40808e-06 -5.31546e-06 0.112821)
(8.47099e-06 -3.59268e-06 0.107621)
(-3.58224e-06 8.44986e-06 0.10762)
(-2.93601e-05 -2.92325e-05 0.104215)
(-6.23555e-06 -6.31235e-06 0.112784)
(9.17007e-06 -4.09022e-06 0.107601)
(-4.08871e-06 9.16343e-06 0.1076)
(-2.85858e-05 -2.87651e-05 0.104207)
(-7.26247e-06 -7.20422e-06 0.112745)
(9.64841e-06 -4.53738e-06 0.107583)
(-4.51891e-06 9.63818e-06 0.107581)
(-2.84257e-05 -2.82165e-05 0.104201)
(-7.86284e-06 -7.79406e-06 0.112707)
(1.00084e-05 -4.55916e-06 0.107565)
(-4.59676e-06 1.00144e-05 0.107565)
(-2.7898e-05 -2.80361e-05 0.104196)
(-8.66426e-06 -8.79297e-06 0.112669)
(1.07022e-05 -5.33892e-06 0.10755)
(-5.29203e-06 1.06559e-05 0.107549)
(-2.74184e-05 -2.74046e-05 0.104193)
(-9.30689e-06 -9.13932e-06 0.112631)
(1.06515e-05 -5.20177e-06 0.107536)
(-5.21875e-06 1.06693e-05 0.107535)
(-2.7477e-05 -2.73826e-05 0.104191)
(-9.65758e-06 -9.74529e-06 0.112593)
(1.11505e-05 -5.51508e-06 0.107523)
(-5.5167e-06 1.11409e-05 0.107522)
(-2.68481e-05 -2.69359e-05 0.10419)
(-1.05119e-05 -1.04378e-05 0.112555)
(1.15647e-05 -5.95057e-06 0.107512)
(-5.94653e-06 1.15378e-05 0.10751)
(-2.6658e-05 -2.66372e-05 0.104192)
(-1.06813e-05 -1.07462e-05 0.112518)
(1.13823e-05 -5.84776e-06 0.107502)
(-5.80858e-06 1.14076e-05 0.107501)
(-2.66412e-05 -2.65766e-05 0.104193)
(-1.08278e-05 -1.07216e-05 0.112482)
(1.1865e-05 -6.17355e-06 0.107491)
(-6.26538e-06 1.18288e-05 0.10749)
(-2.62448e-05 -2.63445e-05 0.104196)
(4.79027e-05 4.78736e-05 0.10472)
(-4.33961e-05 -4.33923e-05 0.104836)
(1.01891e-05 1.68202e-05 0.108266)
(-1.01558e-05 1.68256e-05 0.108266)
(9.17511e-06 1.50801e-05 0.108225)
(-9.13068e-06 1.5064e-05 0.108225)
(-4.78988e-05 4.78504e-05 0.10472)
(4.34112e-05 -4.33847e-05 0.104836)
(1.67799e-05 1.01126e-05 0.108268)
(1.50319e-05 9.11015e-06 0.108227)
(1.50679e-05 -9.13827e-06 0.108224)
(-1.68115e-05 -1.01733e-05 0.108265)
(-1.50061e-05 9.09494e-06 0.108227)
(-1.50495e-05 -9.14201e-06 0.108224)
(-4.33885e-05 4.34169e-05 0.104835)
(-1.01026e-05 -1.67797e-05 0.108267)
(9.09659e-06 -1.5019e-05 0.108226)
(-9.08217e-06 -1.50083e-05 0.108226)
(4.33847e-05 4.33895e-05 0.104835)
(4.59922e-05 4.59907e-05 0.104666)
(-4.37273e-05 -4.36949e-05 0.104782)
(8.81234e-06 1.44874e-05 0.108212)
(-8.81223e-06 1.44869e-05 0.108211)
(7.82436e-06 1.27583e-05 0.108172)
(-7.85925e-06 1.27705e-05 0.108171)
(-4.60108e-05 4.59874e-05 0.104666)
(4.37178e-05 -4.37071e-05 0.104783)
(1.44283e-05 8.77455e-06 0.108213)
(1.44712e-05 -8.79557e-06 0.10821)
(1.26809e-05 7.81223e-06 0.108174)
(1.27456e-05 -7.84779e-06 0.10817)
(-1.44635e-05 -8.79147e-06 0.108211)
(-1.27157e-05 7.8018e-06 0.108174)
(-1.27453e-05 -7.81627e-06 0.108171)
(4.59732e-05 -4.60099e-05 0.104665)
(-4.36917e-05 4.3704e-05 0.104782)
(-8.7591e-06 -1.4413e-05 0.108212)
(7.78499e-06 -1.27049e-05 0.108173)
(-7.80865e-06 -1.26786e-05 0.108173)
(4.36902e-05 4.37215e-05 0.104781)
(4.42569e-05 4.42674e-05 0.104616)
(-4.39591e-05 -4.39602e-05 0.104732)
(7.53831e-06 1.22035e-05 0.108159)
(-7.54406e-06 1.2208e-05 0.108158)
(6.69997e-06 1.05888e-05 0.108121)
(-6.6491e-06 1.05777e-05 0.10812)
(-4.42756e-05 4.42398e-05 0.104616)
(4.39858e-05 -4.39581e-05 0.104733)
(1.21327e-05 7.50609e-06 0.108161)
(1.21874e-05 -7.54584e-06 0.108157)
(1.05335e-05 6.63299e-06 0.108122)
(1.05853e-05 -6.6789e-06 0.108119)
(-1.21912e-05 -7.52866e-06 0.108158)
(-1.05151e-05 6.61582e-06 0.108123)
(-1.05681e-05 -6.67619e-06 0.10812)
(4.42522e-05 -4.43009e-05 0.104615)
(-4.39397e-05 4.39679e-05 0.104731)
(-7.50272e-06 -1.21305e-05 0.10816)
(6.63934e-06 -1.05314e-05 0.108122)
(-6.61368e-06 -1.05232e-05 0.108121)
(4.396e-05 4.39574e-05 0.104731)
(4.26669e-05 4.26571e-05 0.104569)
(-4.42246e-05 -4.4195e-05 0.104685)
(6.40908e-06 1.00569e-05 0.108108)
(-6.37043e-06 1.00454e-05 0.108108)
(5.55008e-06 8.49462e-06 0.108071)
(-5.56119e-06 8.48574e-06 0.108071)
(-4.26622e-05 4.26452e-05 0.104569)
(4.42204e-05 -4.41991e-05 0.104686)
(9.99808e-06 6.34964e-06 0.10811)
(1.00558e-05 -6.39661e-06 0.108107)
(8.41807e-06 5.52536e-06 0.108073)
(8.4784e-06 -5.55215e-06 0.10807)
(-1.00344e-05 -6.38404e-06 0.108107)
(-8.4265e-06 5.52354e-06 0.108073)
(-8.47556e-06 -5.5293e-06 0.10807)
(4.26598e-05 -4.26919e-05 0.104569)
(-4.41939e-05 4.42163e-05 0.104684)
(-6.33014e-06 -9.98593e-06 0.108109)
(5.50948e-06 -8.42578e-06 0.108072)
(-5.50949e-06 -8.41118e-06 0.108072)
(4.41917e-05 4.42205e-05 0.104684)
(4.11333e-05 4.11528e-05 0.104526)
(-4.44042e-05 -4.43819e-05 0.104642)
(5.27966e-06 7.98741e-06 0.108059)
(-5.29245e-06 7.98123e-06 0.108059)
(4.51296e-06 6.51361e-06 0.108024)
(-4.51792e-06 6.50226e-06 0.108023)
(-4.11562e-05 4.11339e-05 0.104526)
(4.44082e-05 -4.439e-05 0.104642)
(7.90934e-06 5.26383e-06 0.108061)
(7.97185e-06 -5.2827e-06 0.108058)
(6.43362e-06 4.4895e-06 0.108026)
(6.49745e-06 -4.51373e-06 0.108022)
(-7.96898e-06 -5.25983e-06 0.108058)
(-6.44399e-06 4.47688e-06 0.108026)
(-6.49065e-06 -4.49112e-06 0.108023)
(4.1135e-05 -4.11706e-05 0.104525)
(-4.43776e-05 4.43968e-05 0.104641)
(-5.24923e-06 -7.90254e-06 0.10806)
(4.46844e-06 -6.4383e-06 0.108025)
(-4.4743e-06 -6.42075e-06 0.108025)
(4.43802e-05 4.44028e-05 0.104641)
(3.97567e-05 3.9763e-05 0.104486)
(-4.45434e-05 -4.45397e-05 0.104602)
(4.27348e-06 6.03954e-06 0.108012)
(-4.27279e-06 6.02841e-06 0.108012)
(3.56745e-06 4.67341e-06 0.107979)
(-3.54459e-06 4.66951e-06 0.107978)
(-3.97704e-05 3.97431e-05 0.104486)
(4.45604e-05 -4.4537e-05 0.104602)
(5.96537e-06 4.2372e-06 0.108014)
(6.02308e-06 -4.27414e-06 0.108011)
(4.60831e-06 3.51395e-06 0.107981)
(4.67875e-06 -3.56167e-06 0.107977)
(-6.01811e-06 -4.25382e-06 0.108011)
(-4.60878e-06 3.51093e-06 0.107981)
(-4.66063e-06 -3.5548e-06 0.107978)
(3.97498e-05 -3.97901e-05 0.104485)
(-4.45185e-05 4.45409e-05 0.104601)
(-4.22435e-06 -5.95377e-06 0.108013)
(3.5213e-06 -4.61844e-06 0.10798)
(-3.50431e-06 -4.60752e-06 0.10798)
(4.45321e-05 4.45345e-05 0.104601)
(3.84805e-05 3.84777e-05 0.104449)
(-4.46732e-05 -4.46559e-05 0.104565)
(3.33536e-06 4.23846e-06 0.107968)
(-3.31313e-06 4.22958e-06 0.107967)
(2.64603e-06 2.96958e-06 0.107936)
(-2.6435e-06 2.94605e-06 0.107935)
(-3.84825e-05 3.84641e-05 0.104449)
(4.46801e-05 -4.46625e-05 0.104565)
(4.17106e-06 3.28797e-06 0.10797)
(4.24383e-06 -3.32909e-06 0.107966)
(2.88813e-06 2.6132e-06 0.107938)
(2.95153e-06 -2.64461e-06 0.107934)
(-4.22245e-06 -3.31739e-06 0.107967)
(-2.89319e-06 2.60597e-06 0.107938)
(-2.9528e-06 -2.62523e-06 0.107935)
(3.848e-05 -3.85117e-05 0.104448)
(-4.46518e-05 4.46717e-05 0.104564)
(-3.2757e-06 -4.16409e-06 0.107969)
(2.60196e-06 -2.88878e-06 0.107937)
(-2.59797e-06 -2.87869e-06 0.107937)
(4.46532e-05 4.46715e-05 0.104564)
(3.72794e-05 3.7286e-05 0.104414)
(-4.47655e-05 -4.47496e-05 0.104531)
(2.42616e-06 2.54908e-06 0.107925)
(-2.42121e-06 2.53565e-06 0.107925)
(1.81925e-06 1.3396e-06 0.107895)
(-1.8057e-06 1.32635e-06 0.107895)
(-3.72907e-05 3.72706e-05 0.104415)
(4.4776e-05 -4.47597e-05 0.104531)
(2.47036e-06 2.3892e-06 0.107927)
(2.53936e-06 -2.42545e-06 0.107924)
(1.2682e-06 1.78159e-06 0.107897)
(1.34725e-06 -1.81445e-06 0.107894)
(-2.53707e-06 -2.4127e-06 0.107925)
(-1.26709e-06 1.76834e-06 0.107897)
(-1.31802e-06 -1.79729e-06 0.107894)
(3.72768e-05 -3.73093e-05 0.104414)
(-4.47383e-05 4.47599e-05 0.10453)
(-2.37873e-06 -2.467e-06 0.107926)
(1.77527e-06 -1.27661e-06 0.107896)
(-1.76679e-06 -1.2541e-06 0.107896)
(4.47499e-05 4.47685e-05 0.104529)
(3.61809e-05 3.61932e-05 0.104383)
(-4.4862e-05 -4.48402e-05 0.104499)
(1.61954e-06 9.58057e-07 0.107885)
(-1.61402e-06 9.28194e-07 0.107885)
(1.01243e-06 -1.78874e-07 0.107857)
(-1.01789e-06 -1.9016e-07 0.107856)
(-3.61907e-05 3.61621e-05 0.104383)
(4.4865e-05 -4.48335e-05 0.1045)
(8.8328e-07 1.5942e-06 0.107887)
(9.52189e-07 -1.62151e-06 0.107884)
(-2.6849e-07 9.93319e-07 0.107858)
(-1.92425e-07 -1.01475e-06 0.107855)
(-9.36833e-07 -1.59501e-06 0.107884)
(2.43079e-07 1.00068e-06 0.107859)
(1.814e-07 -1.00719e-06 0.107856)
(3.61797e-05 -3.62148e-05 0.104383)
(-4.48241e-05 4.48573e-05 0.104499)
(-1.57776e-06 -8.65856e-07 0.107886)
(9.88604e-07 2.59143e-07 0.107858)
(-9.8781e-07 2.59234e-07 0.107857)
(4.48273e-05 4.48452e-05 0.104498)
(3.51374e-05 3.51447e-05 0.104355)
(-4.48761e-05 -4.48655e-05 0.104471)
(8.42294e-07 -5.52283e-07 0.107847)
(-8.33108e-07 -5.43376e-07 0.107847)
(3.39424e-07 -1.60961e-06 0.10782)
(-3.23428e-07 -1.65074e-06 0.10782)
(-3.51495e-05 3.51457e-05 0.104355)
(4.48897e-05 -4.49122e-05 0.104471)
(-6.31704e-07 8.03147e-07 0.107849)
(-5.48759e-07 -8.30908e-07 0.107846)
(-1.6637e-06 2.9425e-07 0.107822)
(-1.61246e-06 -3.41666e-07 0.107819)
(5.62791e-07 -8.31551e-07 0.107847)
(1.68944e-06 2.58048e-07 0.107823)
(1.63785e-06 -3.13819e-07 0.10782)
(3.51527e-05 -3.51652e-05 0.104354)
(-4.48685e-05 4.487e-05 0.10447)
(-7.957e-07 6.29441e-07 0.107848)
(2.77874e-07 1.67156e-06 0.107822)
(-2.8148e-07 1.69318e-06 0.107821)
(4.48668e-05 4.48848e-05 0.10447)
(3.42115e-05 3.42253e-05 0.104329)
(-4.49373e-05 -4.49139e-05 0.104445)
(1.41032e-07 -1.95045e-06 0.107812)
(-1.49204e-07 -2.00537e-06 0.107811)
(-3.64604e-07 -2.95178e-06 0.107786)
(3.49614e-07 -2.9222e-06 0.107786)
(-3.42219e-05 3.41635e-05 0.104329)
(4.49351e-05 -4.48787e-05 0.104446)
(-2.01464e-06 1.22544e-07 0.107813)
(-1.96725e-06 -1.66812e-07 0.10781)
(-3.03619e-06 -3.71294e-07 0.107788)
(-2.94523e-06 3.66853e-07 0.107785)
(1.96014e-06 -1.35173e-07 0.107811)
(2.99429e-06 -3.32131e-07 0.107789)
(2.94993e-06 3.73546e-07 0.107785)
(3.42e-05 -3.42525e-05 0.104329)
(-4.48793e-05 4.4936e-05 0.104445)
(-1.18801e-07 2.02404e-06 0.107813)
(-3.64215e-07 3.01244e-06 0.107787)
(3.82181e-07 3.01315e-06 0.107787)
(4.49042e-05 4.49201e-05 0.104444)
(3.33245e-05 3.33307e-05 0.104306)
(-4.49548e-05 -4.49551e-05 0.104422)
(-4.85313e-07 -3.24796e-06 0.107778)
(5.02406e-07 -3.21238e-06 0.107778)
(-9.20595e-07 -4.05707e-06 0.107754)
(9.44987e-07 -4.11588e-06 0.107754)
(-3.33353e-05 3.33511e-05 0.104306)
(4.49756e-05 -4.50043e-05 0.104423)
(-3.31811e-06 -5.18051e-07 0.10778)
(-3.23305e-06 5.17649e-07 0.107777)
(-4.09598e-06 -9.70276e-07 0.107756)
(-4.07378e-06 9.17373e-07 0.107753)
(3.27272e-06 5.26252e-07 0.107777)
(4.13319e-06 -1.03009e-06 0.107757)
(4.07938e-06 9.3626e-07 0.107754)
(3.33524e-05 -3.33417e-05 0.104305)
(-4.49654e-05 4.49493e-05 0.104422)
(5.45965e-07 3.32618e-06 0.107779)
(-9.97656e-07 4.11673e-06 0.107755)
(9.72859e-07 4.12987e-06 0.107755)
(4.49491e-05 4.49562e-05 0.104421)
(3.24874e-05 3.24905e-05 0.104285)
(-4.50113e-05 -4.49886e-05 0.104402)
(-1.09964e-06 -4.33621e-06 0.107747)
(1.08515e-06 -4.38625e-06 0.107746)
(-1.53926e-06 -5.12543e-06 0.107724)
(1.51391e-06 -5.08636e-06 0.107724)
(-3.24963e-05 3.24387e-05 0.104286)
(4.50061e-05 -4.49642e-05 0.104402)
(-4.38471e-06 -1.13072e-06 0.107748)
(-4.35409e-06 1.06124e-06 0.107745)
(-5.19291e-06 -1.54891e-06 0.107726)
(-5.10751e-06 1.52542e-06 0.107723)
(4.3229e-06 1.07325e-06 0.107746)
(5.15894e-06 -1.51909e-06 0.107727)
(5.13129e-06 1.55827e-06 0.107724)
(3.24651e-05 -3.25323e-05 0.104285)
(-4.49551e-05 4.50022e-05 0.104401)
(1.10816e-06 4.37587e-06 0.107748)
(-1.53399e-06 5.15872e-06 0.107725)
(1.56322e-06 5.16894e-06 0.107725)
(4.49858e-05 4.50105e-05 0.104401)
(3.17071e-05 3.17207e-05 0.104267)
(-4.49859e-05 -4.49883e-05 0.104384)
(-1.65435e-06 -5.36303e-06 0.107717)
(1.66577e-06 -5.3384e-06 0.107717)
(-2.02288e-06 -6.07779e-06 0.107697)
(2.06885e-06 -6.1035e-06 0.107696)
(-3.17185e-05 3.17203e-05 0.104267)
(4.5014e-05 -4.4998e-05 0.104384)
(-5.42489e-06 -1.66889e-06 0.107719)
(-5.34445e-06 1.6726e-06 0.107716)
(-6.1126e-06 -2.06329e-06 0.107698)
(-6.08563e-06 2.05725e-06 0.107695)
(5.39919e-06 1.71399e-06 0.107716)
(6.13338e-06 -2.08728e-06 0.107699)
(6.08124e-06 2.02792e-06 0.107696)
(3.17356e-05 -3.17318e-05 0.104266)
(-4.4987e-05 4.49985e-05 0.104383)
(1.70652e-06 5.44332e-06 0.107718)
(-2.08817e-06 6.13767e-06 0.107698)
(2.07312e-06 6.13299e-06 0.107697)
(4.49802e-05 4.49707e-05 0.104383)
(3.1017e-05 3.10113e-05 0.104251)
(-4.50022e-05 -4.49795e-05 0.104368)
(-2.17707e-06 -6.30936e-06 0.10769)
(2.19386e-06 -6.31896e-06 0.10769)
(-2.5936e-06 -6.89286e-06 0.107671)
(2.53641e-06 -6.90502e-06 0.10767)
(-3.10142e-05 3.09961e-05 0.104251)
(4.49811e-05 -4.50076e-05 0.104368)
(-6.34279e-06 -2.21825e-06 0.107692)
(-6.31994e-06 2.18236e-06 0.107688)
(-6.9486e-06 -2.6021e-06 0.107672)
(-6.90384e-06 2.5314e-06 0.107669)
(6.30178e-06 2.15181e-06 0.107689)
(6.95305e-06 -2.62072e-06 0.107673)
(6.92361e-06 2.61252e-06 0.10767)
(3.09949e-05 -3.10402e-05 0.10425)
(-4.49715e-05 4.49673e-05 0.104367)
(2.21323e-06 6.33395e-06 0.107691)
(-2.60096e-06 6.91866e-06 0.107672)
(2.60099e-06 6.9443e-06 0.107671)
(4.49745e-05 4.50154e-05 0.104367)
(3.03577e-05 3.03741e-05 0.104237)
(-4.49651e-05 -4.49975e-05 0.104354)
(-2.70137e-06 -7.09455e-06 0.107664)
(2.65594e-06 -7.10363e-06 0.107664)
(-3.05716e-06 -7.72019e-06 0.107647)
(3.14687e-06 -7.66175e-06 0.107646)
(-3.03946e-05 3.03357e-05 0.104237)
(4.50184e-05 -4.49469e-05 0.104354)
(-7.14998e-06 -2.7102e-06 0.107666)
(-7.08321e-06 2.65591e-06 0.107663)
(-7.73585e-06 -3.13154e-06 0.107648)
(-7.68698e-06 3.15178e-06 0.107645)
(7.10442e-06 2.73211e-06 0.107664)
(7.71162e-06 -3.09685e-06 0.107649)
(7.69869e-06 3.06733e-06 0.107646)
(3.03741e-05 -3.04139e-05 0.104237)
(-4.49662e-05 4.50166e-05 0.104353)
(2.70467e-06 7.1547e-06 0.107665)
(-3.12577e-06 7.7562e-06 0.107648)
(3.15527e-06 7.7345e-06 0.107647)
(4.4999e-05 4.49472e-05 0.104353)
(2.9773e-05 2.97384e-05 0.104225)
(-4.49167e-05 -4.4838e-05 0.104342)
(-3.17419e-06 -7.86671e-06 0.107641)
(3.29048e-06 -7.83289e-06 0.10764)
(-3.50816e-06 -8.25363e-06 0.107624)
(3.39432e-06 -8.35293e-06 0.107624)
(-2.97274e-05 2.97604e-05 0.104226)
(4.48615e-05 -4.49367e-05 0.104343)
(-7.86995e-06 -3.25683e-06 0.107642)
(-7.86707e-06 3.27117e-06 0.107639)
(-8.31609e-06 -3.44501e-06 0.107626)
(-8.28642e-06 3.36779e-06 0.107623)
(7.89805e-06 3.19201e-06 0.10764)
(8.36829e-06 -3.53104e-06 0.107627)
(8.28748e-06 3.52074e-06 0.107624)
(2.97366e-05 -2.97482e-05 0.104225)
(-4.48625e-05 4.48207e-05 0.104341)
(3.30444e-06 7.87844e-06 0.107642)
(-3.47871e-06 8.27266e-06 0.107625)
(3.4272e-06 8.32836e-06 0.107625)
(4.4818e-05 4.49287e-05 0.104341)
(2.92315e-05 2.93135e-05 0.104216)
(-4.49272e-05 -4.50341e-05 0.104332)
(-3.66148e-06 -8.45844e-06 0.107619)
(3.46339e-06 -8.50829e-06 0.107619)
(-3.97555e-06 -9.04177e-06 0.107604)
(4.11554e-06 -8.89231e-06 0.107603)
(-2.93339e-05 2.92287e-05 0.104216)
(4.50237e-05 -4.48973e-05 0.104333)
(-8.55759e-06 -3.56031e-06 0.107621)
(-8.4626e-06 3.49296e-06 0.107617)
(-9.0381e-06 -4.11657e-06 0.107605)
(-9.00263e-06 4.15275e-06 0.107602)
(8.41136e-06 3.64692e-06 0.107618)
(8.98505e-06 -4.00043e-06 0.107606)
(9.03507e-06 3.98682e-06 0.107603)
(2.92878e-05 -2.93616e-05 0.104215)
(-4.49672e-05 4.50513e-05 0.104331)
(3.49871e-06 8.54201e-06 0.10762)
(-4.0814e-06 9.08508e-06 0.107605)
(4.16382e-06 9.02307e-06 0.107605)
(4.50525e-05 4.49027e-05 0.104331)
(2.8756e-05 2.86237e-05 0.104207)
(-4.48231e-05 -4.47254e-05 0.104324)
(-3.91883e-06 -9.10769e-06 0.107599)
(4.20817e-06 -9.00996e-06 0.107598)
(-4.2658e-06 -9.42848e-06 0.107585)
(4.17367e-06 -9.57993e-06 0.107585)
(-2.86236e-05 2.87146e-05 0.104208)
(4.47315e-05 -4.48804e-05 0.104325)
(-9.02951e-06 -4.13892e-06 0.107601)
(-9.0684e-06 4.14939e-06 0.107597)
(-9.46447e-06 -4.21561e-06 0.107586)
(-9.4523e-06 4.1015e-06 0.107583)
(9.19423e-06 3.97268e-06 0.107598)
(9.55205e-06 -4.36946e-06 0.107587)
(9.4478e-06 4.28531e-06 0.107584)
(2.86657e-05 -2.86384e-05 0.104207)
(-4.47723e-05 4.46832e-05 0.104323)
(4.24144e-06 9.05133e-06 0.1076)
(-4.25175e-06 9.41855e-06 0.107586)
(4.17932e-06 9.48974e-06 0.107586)
(4.46807e-05 4.48407e-05 0.104323)
(2.8221e-05 2.83524e-05 0.104201)
(-4.47688e-05 -4.47991e-05 0.104318)
(-4.59535e-06 -9.65729e-06 0.10758)
(4.30586e-06 -9.7714e-06 0.10758)
(-4.7051e-06 -9.96647e-06 0.107568)
(4.6973e-06 -9.8236e-06 0.107567)
(-2.83992e-05 2.82056e-05 0.104201)
(4.48185e-05 -4.46545e-05 0.104318)
(-9.77848e-06 -4.43865e-06 0.107582)
(-9.70787e-06 4.35086e-06 0.107579)
(-1.00206e-05 -4.71141e-06 0.107569)
(-9.94142e-06 4.78359e-06 0.107566)
(9.5826e-06 4.57495e-06 0.10758)
(9.90521e-06 -4.58926e-06 0.107569)
(9.93848e-06 4.69357e-06 0.107567)
(2.82767e-05 -2.84137e-05 0.1042)
(-4.47359e-05 4.48465e-05 0.104317)
(4.34432e-06 9.76918e-06 0.107581)
(-4.71404e-06 1.00112e-05 0.107569)
(4.73436e-06 9.98793e-06 0.107568)
(4.48103e-05 4.47281e-05 0.104317)
(2.80049e-05 2.7929e-05 0.104197)
(-4.47525e-05 -4.48183e-05 0.104313)
(-4.53051e-06 -9.94821e-06 0.107564)
(4.75059e-06 -9.8254e-06 0.107563)
(-4.97686e-06 -1.04813e-05 0.107552)
(5.11248e-06 -1.05454e-05 0.107551)
(-2.78916e-05 2.80498e-05 0.104197)
(4.47927e-05 -4.48714e-05 0.104313)
(-9.92978e-06 -4.6456e-06 0.107565)
(-9.89046e-06 4.72026e-06 0.107562)
(-1.04254e-05 -5.12743e-06 0.107553)
(-1.04773e-05 5.01346e-06 0.10755)
(1.00002e-05 4.55075e-06 0.107563)
(1.05916e-05 -5.18292e-06 0.107554)
(1.05537e-05 5.02053e-06 0.107551)
(2.79906e-05 -2.79099e-05 0.104196)
(-4.48177e-05 4.47539e-05 0.104312)
(4.72646e-06 9.92426e-06 0.107564)
(-5.08575e-06 1.0486e-05 0.107553)
(5.16742e-06 1.04664e-05 0.107553)
(4.48191e-05 4.47777e-05 0.104312)
(2.74268e-05 2.73971e-05 0.104193)
(-4.45011e-05 -4.43968e-05 0.10431)
(-5.23855e-06 -1.06971e-05 0.107548)
(5.17092e-06 -1.07518e-05 0.107548)
(-5.19435e-06 -1.05014e-05 0.107537)
(5.03253e-06 -1.04971e-05 0.107537)
(-2.74675e-05 2.73238e-05 0.104193)
(4.44255e-05 -4.44294e-05 0.104311)
(-1.06821e-05 -5.30385e-06 0.107549)
(-1.07041e-05 5.15041e-06 0.107546)
(-1.06056e-05 -5.06699e-06 0.107539)
(-1.05126e-05 5.0932e-06 0.107535)
(1.07081e-05 5.25441e-06 0.107547)
(1.04827e-05 -5.10266e-06 0.107539)
(1.04426e-05 5.16729e-06 0.107536)
(2.73626e-05 -2.74982e-05 0.104192)
(-4.44154e-05 4.44408e-05 0.104309)
(5.28755e-06 1.07005e-05 0.107549)
(-5.14042e-06 1.05215e-05 0.107538)
(5.00478e-06 1.05744e-05 0.107538)
(4.43561e-05 4.44832e-05 0.104309)
(2.73691e-05 2.74418e-05 0.104192)
(-4.45937e-05 -4.46759e-05 0.104308)
(-5.2337e-06 -1.06078e-05 0.107534)
(5.19669e-06 -1.06009e-05 0.107533)
(-5.54911e-06 -1.13597e-05 0.107525)
(5.65749e-06 -1.13353e-05 0.107524)
(-2.74089e-05 2.74015e-05 0.104192)
(4.46741e-05 -4.46199e-05 0.104308)
(-1.06901e-05 -5.15687e-06 0.107536)
(-1.06199e-05 5.22705e-06 0.107532)
(-1.13253e-05 -5.68258e-06 0.107526)
(-1.13394e-05 5.63924e-06 0.107523)
(1.05826e-05 5.23216e-06 0.107533)
(1.13856e-05 -5.62529e-06 0.107527)
(1.14047e-05 5.60099e-06 0.107524)
(2.74147e-05 -2.74133e-05 0.104191)
(-4.4628e-05 4.46476e-05 0.104307)
(5.13005e-06 1.06758e-05 0.107535)
(-5.61692e-06 1.13839e-05 0.107526)
(5.74571e-06 1.1356e-05 0.107525)
(4.47078e-05 4.46046e-05 0.104307)
(2.69409e-05 2.6877e-05 0.104191)
(-4.44778e-05 -4.44506e-05 0.104308)
(-5.47098e-06 -1.1146e-05 0.107521)
(5.54552e-06 -1.11217e-05 0.107521)
(-5.79649e-06 -1.10294e-05 0.107512)
(5.79429e-06 -1.10159e-05 0.107511)
(-2.68938e-05 2.69095e-05 0.104191)
(4.44833e-05 -4.44701e-05 0.104308)
(-1.11224e-05 -5.57476e-06 0.107523)
(-1.11089e-05 5.50524e-06 0.10752)
(-1.10711e-05 -5.77145e-06 0.107513)
(-1.10361e-05 5.77623e-06 0.10751)
(1.11822e-05 5.49329e-06 0.107521)
(1.10999e-05 -5.81136e-06 0.107514)
(1.10457e-05 5.75443e-06 0.107511)
(2.69021e-05 -2.69369e-05 0.10419)
(-4.44739e-05 4.44704e-05 0.104307)
(5.63492e-06 1.11413e-05 0.107522)
(-5.84005e-06 1.10513e-05 0.107513)
(5.76269e-06 1.10447e-05 0.107513)
(4.44332e-05 4.44528e-05 0.104307)
(2.66226e-05 2.66275e-05 0.104192)
(-4.42767e-05 -4.4303e-05 0.104309)
(-5.88854e-06 -1.14903e-05 0.107509)
(5.88327e-06 -1.14863e-05 0.107509)
(-5.85377e-06 -1.18896e-05 0.107503)
(5.80752e-06 -1.19286e-05 0.107502)
(-2.66314e-05 2.6592e-05 0.104192)
(4.42601e-05 -4.43298e-05 0.104309)
(-1.15153e-05 -5.90874e-06 0.107511)
(-1.15249e-05 5.90189e-06 0.107508)
(-1.18762e-05 -5.92913e-06 0.107504)
(-1.18603e-05 5.82077e-06 0.107501)
(1.15054e-05 5.88362e-06 0.107509)
(1.18482e-05 -5.92728e-06 0.107505)
(1.18634e-05 5.93914e-06 0.107502)
(2.65903e-05 -2.66409e-05 0.104191)
(-4.42377e-05 4.42521e-05 0.104308)
(5.87325e-06 1.14967e-05 0.10751)
(-5.83656e-06 1.18866e-05 0.107504)
(5.91049e-06 1.1921e-05 0.107503)
(4.42782e-05 4.43301e-05 0.104308)
(2.66181e-05 2.66249e-05 0.104194)
(-4.42444e-05 -4.42027e-05 0.104309)
(-5.84752e-06 -1.14437e-05 0.1075)
(5.79132e-06 -1.14726e-05 0.1075)
(-6.03159e-06 -1.10071e-05 0.107491)
(6.0932e-06 -1.09329e-05 0.107491)
(-2.66606e-05 2.65863e-05 0.104194)
(4.4304e-05 -4.41369e-05 0.10431)
(-1.14634e-05 -5.84928e-06 0.107502)
(-1.1378e-05 5.77996e-06 0.107498)
(-1.10737e-05 -5.97216e-06 0.107493)
(-1.10263e-05 6.08214e-06 0.10749)
(1.14086e-05 5.89675e-06 0.107499)
(1.1093e-05 -5.94979e-06 0.107493)
(1.106e-05 5.93847e-06 0.10749)
(2.66592e-05 -2.66863e-05 0.104193)
(-4.42558e-05 4.4276e-05 0.104309)
(5.86231e-06 1.14994e-05 0.107501)
(-6.10492e-06 1.10546e-05 0.107492)
(6.02329e-06 1.10198e-05 0.107492)
(4.42399e-05 4.41579e-05 0.104309)
(2.62685e-05 2.62637e-05 0.104196)
(-6.16204e-06 -1.17414e-05 0.107489)
(6.27352e-06 -1.16747e-05 0.107488)
(-2.62037e-05 2.63114e-05 0.104196)
(-1.17615e-05 -6.19496e-06 0.10749)
(-1.17922e-05 6.26255e-06 0.107487)
(1.18105e-05 6.10113e-06 0.107488)
(2.62151e-05 -2.6239e-05 0.104195)
(6.22559e-06 1.17174e-05 0.10749)
(-6.01193e-07 -8.73316e-06 0.0910046)
(6.54367e-08 6.42735e-06 0.0815664)
(-5.74804e-07 5.84807e-06 0.0909749)
(-1.83034e-06 -7.56388e-06 0.0816094)
(-3.44482e-06 2.26478e-06 0.0708682)
(5.45958e-07 -3.85748e-06 0.0709161)
(-8.73541e-06 -5.53067e-07 0.0910047)
(6.39294e-06 8.47764e-08 0.0815671)
(5.84382e-06 -5.55699e-07 0.0909749)
(-7.609e-06 -1.7973e-06 0.08161)
(-2.40066e-05 2.39878e-05 0.113151)
(-2.40088e-05 -2.3997e-05 0.113151)
(2.2532e-05 2.25038e-05 0.113165)
(-2.24357e-05 2.24579e-05 0.113164)
(2.25295e-05 -2.25041e-05 0.113164)
(-2.24667e-05 -2.24958e-05 0.113164)
(1.00995e-05 -3.13325e-07 0.0985702)
(-1.40295e-05 2.90736e-06 0.0926073)
(-2.51033e-05 3.47041e-06 0.11083)
(-1.6182e-05 9.75003e-06 0.108255)
(-1.64159e-05 -3.14504e-07 0.0985204)
(7.72122e-06 -4.08122e-06 0.0926593)
(-2.43605e-05 3.32616e-06 0.110819)
(-3.925e-06 6.25331e-07 0.070914)
(-3.37505e-07 1.00967e-05 0.0985695)
(3.55406e-06 -2.50781e-05 0.110829)
(9.81327e-06 -1.62272e-05 0.108254)
(-2.74798e-07 -1.64155e-05 0.0985202)
(3.44036e-06 -2.437e-05 0.110819)
(-4.15601e-06 7.70892e-06 0.0926578)
(-3.59183e-06 -4.71673e-06 0.0869811)
(-4.68289e-06 -3.59471e-06 0.0869801)
(4.3211e-05 4.31921e-05 0.104863)
(4.27745e-06 3.29167e-06 0.0870186)
(3.31738e-06 4.27478e-06 0.0870169)
(-5.482e-07 -9.04583e-06 0.0909897)
(1.87042e-07 6.18232e-06 0.0815708)
(-5.8872e-07 5.35668e-06 0.0909589)
(-1.66762e-06 -7.69308e-06 0.0816145)
(-3.40293e-06 2.1827e-06 0.0708799)
(5.71302e-07 -3.87978e-06 0.0709282)
(-9.03306e-06 -5.27991e-07 0.0909897)
(6.15097e-06 2.19478e-07 0.0815716)
(5.37212e-06 -5.53786e-07 0.0909589)
(-7.72967e-06 -1.6415e-06 0.0816151)
(-2.19383e-05 2.19588e-05 0.113168)
(2.19908e-05 -2.1967e-05 0.113167)
(-2.19547e-05 -2.19676e-05 0.113167)
(2.03205e-05 2.03718e-05 0.113175)
(-2.03919e-05 2.03929e-05 0.113175)
(2.03474e-05 -2.0345e-05 0.113174)
(-2.03778e-05 -2.03297e-05 0.113174)
(1.10208e-05 -3.30437e-07 0.098532)
(-1.31223e-05 2.77462e-06 0.0925937)
(-2.22521e-05 2.97439e-06 0.110788)
(-1.3855e-05 8.45024e-06 0.1082)
(-1.51961e-05 -3.01491e-07 0.0984815)
(8.44407e-06 -4.14143e-06 0.0926464)
(-2.15575e-05 2.85855e-06 0.110776)
(2.26194e-06 -3.46384e-06 0.070882)
(-3.9561e-06 6.24351e-07 0.070926)
(-3.47628e-07 1.09951e-05 0.0985314)
(2.9831e-06 -2.22378e-05 0.110786)
(2.77006e-06 -1.3172e-05 0.0925944)
(8.41749e-06 -1.38442e-05 0.108199)
(-3.19583e-07 -1.52168e-05 0.0984813)
(2.83473e-06 -2.15463e-05 0.110775)
(-4.14781e-06 8.44826e-06 0.092645)
(-3.209e-06 -4.56337e-06 0.0869799)
(-4.54212e-06 -3.20658e-06 0.0869789)
(4.35471e-05 4.35817e-05 0.104808)
(4.6121e-06 3.35743e-06 0.0870182)
(3.38389e-06 4.60502e-06 0.0870165)
(-5.37597e-07 -9.33891e-06 0.0909786)
(2.97938e-07 5.96674e-06 0.0815782)
(-5.39642e-07 4.93283e-06 0.090947)
(-1.57664e-06 -7.80037e-06 0.0816225)
(-3.35948e-06 2.1228e-06 0.0708936)
(6.0604e-07 -3.89863e-06 0.0709423)
(-9.33966e-06 -5.09264e-07 0.0909787)
(5.93565e-06 3.19013e-07 0.0815789)
(4.93352e-06 -5.2272e-07 0.0909469)
(-7.84048e-06 -1.55195e-06 0.0816231)
(-1.98521e-05 1.98459e-05 0.113177)
(1.98064e-05 -1.98104e-05 0.113176)
(-1.9852e-05 -1.98033e-05 0.113176)
(1.82712e-05 1.82572e-05 0.113179)
(-1.82226e-05 1.82243e-05 0.113179)
(1.82683e-05 -1.8263e-05 0.113178)
(-1.82552e-05 -1.82705e-05 0.113178)
(1.1871e-05 -3.35318e-07 0.0984987)
(-1.22709e-05 2.69625e-06 0.0925841)
(-1.95483e-05 2.45533e-06 0.110743)
(-1.16018e-05 7.18571e-06 0.108148)
(-1.40917e-05 -3.28842e-07 0.0984475)
(9.1603e-06 -4.14973e-06 0.0926373)
(-1.88748e-05 2.32287e-06 0.110731)
(2.19922e-06 -3.4002e-06 0.0708958)
(-3.96822e-06 6.79705e-07 0.0709402)
(-3.36703e-07 1.18773e-05 0.098498)
(2.46993e-06 -1.95116e-05 0.110742)
(2.68045e-06 -1.22893e-05 0.0925847)
(7.19411e-06 -1.15984e-05 0.108147)
(-3.04209e-07 -1.40907e-05 0.0984472)
(2.36499e-06 -1.88562e-05 0.11073)
(-4.18868e-06 9.17692e-06 0.0926359)
(-2.84509e-06 -4.43096e-06 0.0869819)
(-4.39133e-06 -2.85044e-06 0.086981)
(4.38305e-05 4.38335e-05 0.104756)
(4.91524e-06 3.44689e-06 0.087021)
(3.48571e-06 4.90549e-06 0.0870192)
(-5.20599e-07 -9.62005e-06 0.0909713)
(3.61607e-07 5.77027e-06 0.0815884)
(-5.44512e-07 4.5095e-06 0.0909387)
(-1.49097e-06 -7.90066e-06 0.0816334)
(-3.26657e-06 2.07208e-06 0.0709095)
(6.8753e-07 -3.89981e-06 0.0709587)
(-9.6134e-06 -4.85226e-07 0.0909714)
(5.73935e-06 3.90392e-07 0.0815892)
(4.51474e-06 -5.06272e-07 0.0909387)
(-7.93715e-06 -1.46391e-06 0.081634)
(-1.76947e-05 1.77064e-05 0.113179)
(1.77631e-05 -1.77488e-05 0.113178)
(-1.77257e-05 -1.77493e-05 0.113178)
(1.61649e-05 1.61696e-05 0.113177)
(-1.6153e-05 1.61624e-05 0.113177)
(1.6167e-05 -1.61576e-05 0.113176)
(-1.61556e-05 -1.61534e-05 0.113176)
(1.27388e-05 -3.30864e-07 0.0984698)
(-1.14171e-05 2.57849e-06 0.092578)
(-1.69272e-05 2.01068e-06 0.110697)
(-9.45398e-06 6.06485e-06 0.108098)
(-1.2983e-05 -3.1092e-07 0.098418)
(9.85913e-06 -4.22744e-06 0.0926317)
(-1.62776e-05 1.91871e-06 0.110685)
(2.1499e-06 -3.31125e-06 0.0709117)
(-3.97221e-06 7.42868e-07 0.0709566)
(-3.58168e-07 1.27314e-05 0.0984691)
(2.06806e-06 -1.69181e-05 0.110696)
(2.54397e-06 -1.14615e-05 0.0925786)
(6.07255e-06 -9.46871e-06 0.108097)
(-3.1946e-07 -1.29884e-05 0.0984178)
(1.96255e-06 -1.62809e-05 0.110684)
(-4.26048e-06 9.8556e-06 0.0926304)
(-2.5166e-06 -4.25984e-06 0.086987)
(-4.22778e-06 -2.51621e-06 0.0869861)
(4.40819e-05 4.40974e-05 0.104707)
(5.19291e-06 3.55465e-06 0.0870267)
(3.58593e-06 5.18748e-06 0.087025)
(-4.85766e-07 -9.86161e-06 0.0909675)
(4.36123e-07 5.58792e-06 0.0816013)
(-5.06549e-07 4.12976e-06 0.0909341)