/*--------------------------------*- C++ -*----------------------------------*\
| =========                 |                                                 |
| \\      /  F ield         | OpenFOAM: The Open Source CFD Toolbox           |
|  \\    /   O peration     | Version:  2312                                  |
|   \\  /    A nd           | Website:  www.openfoam.com                      |
|    \\/     M anipulation  |                                                 |
\*---------------------------------------------------------------------------*/
FoamFile
{
    version     2.0;
    format      ascii;
    arch        "LSB;label=32;scalar=64";
    class       volScalarField;
    location    "600";
    object      epsilon;
}
// * * * * * * * * * * * * * * * * * * * * * * * * * * * * * * * * * * * * * //

dimensions      [0 2 -3 0 0 0 0];

internalField   nonuniform List<scalar> 
42840
(
1.31327e-07
2.40735e-07
2.40755e-07
3.83586e-07
1.29947e-07
2.5338e-07
2.53405e-07
4.12147e-07
1.29347e-07
2.6805e-07
2.68087e-07
4.43584e-07
1.2953e-07
2.84686e-07
2.84733e-07
4.7706e-07
1.3047e-07
3.03199e-07
3.03255e-07
5.11987e-07
1.32173e-07
3.23481e-07
3.23548e-07
5.48895e-07
1.34635e-07
3.45422e-07
3.45497e-07
5.8583e-07
1.37858e-07
3.68885e-07
3.68964e-07
6.23948e-07
1.41843e-07
3.93718e-07
3.93799e-07
6.62303e-07
1.46596e-07
4.19764e-07
4.19847e-07
7.00024e-07
1.52122e-07
4.46863e-07
4.46948e-07
7.36822e-07
1.58426e-07
4.74843e-07
4.74934e-07
7.72668e-07
1.65512e-07
5.0353e-07
5.03625e-07
8.07517e-07
1.73383e-07
5.32754e-07
5.32854e-07
8.41262e-07
1.82038e-07
5.62336e-07
5.62444e-07
8.73838e-07
1.91476e-07
5.92106e-07
5.9222e-07
9.05257e-07
2.01686e-07
6.21897e-07
6.22019e-07
9.3544e-07
2.12656e-07
6.51546e-07
6.51682e-07
9.64397e-07
2.24361e-07
6.80911e-07
6.81057e-07
9.92098e-07
2.36777e-07
7.0986e-07
7.1001e-07
1.01728e-06
2.4987e-07
7.38275e-07
7.38429e-07
1.04259e-06
2.63598e-07
7.66047e-07
7.66204e-07
1.067e-06
2.77913e-07
7.93081e-07
7.93234e-07
1.09035e-06
2.92758e-07
8.193e-07
8.19444e-07
1.11263e-06
3.0807e-07
8.44635e-07
8.44773e-07
1.13388e-06
3.83185e-07
4.05916e-07
2.40812e-07
2.40834e-07
2.50106e-07
2.50132e-07
3.83104e-07
4.05854e-07
2.40767e-07
2.4086e-07
2.50053e-07
2.50164e-07
2.40793e-07
2.50032e-07
2.50094e-07
3.8319e-07
4.06048e-07
2.4079e-07
2.50054e-07
2.50092e-07
4.06227e-07
4.11987e-07
4.36781e-07
2.53466e-07
2.53488e-07
2.64289e-07
2.64312e-07
4.11844e-07
4.36796e-07
2.53414e-07
2.53525e-07
2.64229e-07
2.64354e-07
2.53447e-07
2.642e-07
2.64274e-07
4.1216e-07
4.36998e-07
2.53444e-07
2.64234e-07
2.64272e-07
4.36938e-07
4.43629e-07
4.6992e-07
2.68151e-07
2.6817e-07
2.80452e-07
2.80475e-07
4.43468e-07
4.70016e-07
2.68094e-07
2.68215e-07
2.8039e-07
2.80526e-07
2.68128e-07
2.80349e-07
2.80434e-07
4.43599e-07
4.70066e-07
2.68126e-07
2.80396e-07
2.80434e-07
4.70082e-07
4.76866e-07
5.04922e-07
2.84799e-07
2.84821e-07
2.98514e-07
2.98543e-07
4.77146e-07
5.04828e-07
2.8474e-07
2.84871e-07
2.98454e-07
2.98598e-07
2.84775e-07
2.98401e-07
2.98501e-07
4.77268e-07
5.05187e-07
2.84772e-07
2.98457e-07
2.985e-07
5.04741e-07
5.12185e-07
5.40897e-07
3.03321e-07
3.03351e-07
3.18381e-07
3.18412e-07
5.1191e-07
5.40958e-07
3.0326e-07
3.03402e-07
3.18317e-07
3.18469e-07
3.03301e-07
3.18255e-07
3.18372e-07
5.12434e-07
5.4089e-07
3.03299e-07
3.18319e-07
3.18369e-07
5.40899e-07
5.48588e-07
5.78081e-07
3.23621e-07
3.23646e-07
3.39935e-07
3.39963e-07
5.48576e-07
5.7801e-07
3.23552e-07
3.23704e-07
3.39857e-07
3.40023e-07
3.23606e-07
3.39791e-07
3.39931e-07
5.48836e-07
5.77991e-07
3.23601e-07
3.39865e-07
3.39922e-07
5.77927e-07
5.86032e-07
6.15503e-07
3.45577e-07
3.456e-07
3.63047e-07
3.63071e-07
5.86075e-07
6.15402e-07
3.45496e-07
3.45661e-07
3.62951e-07
3.63131e-07
3.45567e-07
3.62886e-07
3.63046e-07
5.86205e-07
6.15345e-07
3.45553e-07
3.62964e-07
3.63024e-07
6.14976e-07
6.23646e-07
6.52989e-07
3.69048e-07
3.69075e-07
3.87562e-07
3.87588e-07
6.23802e-07
6.53061e-07
3.68955e-07
3.69135e-07
3.87456e-07
3.87648e-07
3.69045e-07
3.8739e-07
3.87568e-07
6.23522e-07
6.52966e-07
3.6902e-07
3.87469e-07
3.87531e-07
6.52437e-07
6.61138e-07
6.90126e-07
3.93891e-07
3.93918e-07
4.13333e-07
4.13354e-07
6.61261e-07
6.9002e-07
3.93784e-07
3.93978e-07
4.13208e-07
4.13416e-07
3.93898e-07
4.13147e-07
4.13338e-07
6.61399e-07
6.90295e-07
3.93856e-07
4.13228e-07
4.13289e-07
6.89005e-07
6.98663e-07
7.26695e-07
4.19945e-07
4.19972e-07
4.40189e-07
4.40211e-07
6.98747e-07
7.27113e-07
4.19825e-07
4.20032e-07
4.40056e-07
4.40272e-07
4.19954e-07
4.39997e-07
4.40202e-07
6.98601e-07
7.27421e-07
4.19898e-07
4.40079e-07
4.40134e-07
7.25691e-07
7.35367e-07
7.62964e-07
4.47049e-07
4.47072e-07
4.67973e-07
4.67989e-07
7.35196e-07
7.63411e-07
4.46922e-07
4.47137e-07
4.67826e-07
4.68056e-07
4.47067e-07
4.67773e-07
4.6799e-07
7.35141e-07
7.63587e-07
4.46993e-07
4.67862e-07
4.67904e-07
7.61643e-07
7.71041e-07
7.98233e-07
4.75036e-07
4.75053e-07
4.96505e-07
4.96516e-07
7.70873e-07
7.98551e-07
4.74897e-07
4.75122e-07
4.96352e-07
4.96592e-07
4.75056e-07
4.963e-07
4.96522e-07
7.71051e-07
7.98608e-07
4.74964e-07
4.96395e-07
4.96426e-07
7.96605e-07
8.05648e-07
8.32354e-07
5.03727e-07
5.03739e-07
5.2561e-07
5.25623e-07
8.05833e-07
8.32563e-07
5.03583e-07
5.03813e-07
5.25453e-07
5.257e-07
5.03752e-07
5.25407e-07
5.2564e-07
8.05907e-07
8.32575e-07
5.03647e-07
5.25507e-07
5.2553e-07
8.30559e-07
8.39493e-07
8.64696e-07
5.32949e-07
5.32963e-07
5.55121e-07
5.55129e-07
8.3965e-07
8.65364e-07
5.32802e-07
5.33037e-07
5.54958e-07
5.55215e-07
5.32984e-07
5.54914e-07
5.55154e-07
8.397e-07
8.65452e-07
5.32866e-07
5.55024e-07
5.5503e-07
8.633e-07
8.72495e-07
8.94976e-07
5.62538e-07
5.62544e-07
5.84868e-07
5.84867e-07
8.7227e-07
8.9693e-07
5.62379e-07
5.6262e-07
5.84689e-07
5.84955e-07
5.62572e-07
5.84655e-07
5.84898e-07
8.72356e-07
8.97042e-07
5.6244e-07
5.8477e-07
5.84763e-07
8.94906e-07
9.0505e-07
9.25556e-07
5.92316e-07
5.92311e-07
6.14677e-07
6.14663e-07
9.03672e-07
9.27302e-07
5.92144e-07
5.92392e-07
6.14488e-07
6.14755e-07
5.92347e-07
6.14455e-07
6.14702e-07
9.03778e-07
9.274e-07
5.92205e-07
6.14579e-07
6.14558e-07
9.2536e-07
9.35385e-07
9.54853e-07
6.22114e-07
6.22096e-07
6.44384e-07
6.44356e-07
9.33862e-07
9.56463e-07
6.21932e-07
6.2218e-07
6.44188e-07
6.44454e-07
6.22139e-07
6.44154e-07
6.44397e-07
9.33966e-07
9.56583e-07
6.21988e-07
6.44289e-07
6.44248e-07
9.54526e-07
9.64458e-07
9.82866e-07
6.51775e-07
6.5174e-07
6.73839e-07
6.73797e-07
9.62849e-07
9.8444e-07
6.51585e-07
6.51834e-07
6.73638e-07
6.73903e-07
6.51788e-07
6.73602e-07
6.73851e-07
9.62843e-07
9.82769e-07
6.51631e-07
6.73747e-07
6.73689e-07
9.82575e-07
9.92208e-07
1.00968e-06
6.81147e-07
6.81103e-07
7.02899e-07
7.02862e-07
9.90636e-07
1.01123e-06
6.80948e-07
6.812e-07
7.02698e-07
7.02962e-07
6.81159e-07
7.02663e-07
7.02922e-07
9.92164e-07
1.00973e-06
6.80991e-07
7.02818e-07
7.0275e-07
1.01103e-06
1.01877e-06
1.03541e-06
7.10092e-07
7.10048e-07
7.31449e-07
7.31414e-07
1.01722e-06
1.03687e-06
7.09891e-07
7.10144e-07
7.3125e-07
7.3151e-07
7.10114e-07
7.31224e-07
7.31482e-07
1.01879e-06
1.03547e-06
7.09935e-07
7.31381e-07
7.31303e-07
1.03677e-06
1.04422e-06
1.05995e-06
7.38498e-07
7.38455e-07
7.59379e-07
7.59345e-07
1.04268e-06
1.06139e-06
7.38299e-07
7.38548e-07
7.59178e-07
7.59442e-07
7.38529e-07
7.59164e-07
7.59419e-07
1.04426e-06
1.06008e-06
7.38345e-07
7.59327e-07
7.59239e-07
1.06135e-06
1.06854e-06
1.08351e-06
7.66256e-07
7.66214e-07
7.86592e-07
7.86557e-07
1.06703e-06
1.08488e-06
7.66058e-07
7.66309e-07
7.86392e-07
7.86654e-07
7.663e-07
7.8639e-07
7.86646e-07
1.0686e-06
1.08359e-06
7.66114e-07
7.8655e-07
7.86465e-07
1.08489e-06
1.09177e-06
1.10598e-06
7.93277e-07
7.93235e-07
8.13008e-07
8.12971e-07
1.09032e-06
1.10735e-06
7.93078e-07
7.9333e-07
8.12808e-07
8.13063e-07
7.93332e-07
8.12824e-07
8.13071e-07
1.09177e-06
1.10708e-06
7.93145e-07
8.1297e-07
8.12891e-07
1.10735e-06
1.11398e-06
1.12803e-06
8.19482e-07
8.1944e-07
8.38557e-07
8.38522e-07
1.11243e-06
1.12832e-06
8.19282e-07
8.1953e-07
8.38357e-07
8.38605e-07
8.19548e-07
8.38385e-07
8.38629e-07
1.11302e-06
1.12846e-06
8.19363e-07
8.38524e-07
8.38445e-07
1.12881e-06
1.13449e-06
8.44803e-07
8.44766e-07
1.13399e-06
8.44603e-07
8.44851e-07
8.44882e-07
1.13394e-06
8.44693e-07
3.75823e-06
8.92088e-06
8.92502e-06
3.73568e-06
1.84404e-05
1.84332e-05
3.75836e-06
8.92226e-06
8.92644e-06
3.73563e-06
1.31328e-07
1.31337e-07
1.31333e-07
1.30228e-07
1.30228e-07
1.30239e-07
1.30234e-07
1.24121e-06
2.86933e-06
1.59569e-07
2.43714e-07
2.88866e-06
1.60123e-07
1.21462e-06
1.84409e-05
1.84336e-05
1.24148e-06
1.59604e-07
2.86809e-06
2.4373e-07
1.60134e-07
2.89011e-06
1.2147e-06
5.17053e-06
5.17283e-06
3.91564e-07
5.17993e-06
5.18045e-06
3.81801e-06
8.93074e-06
3.80087e-06
8.93438e-06
1.84137e-05
1.84072e-05
3.8181e-06
8.93216e-06
3.80083e-06
8.93579e-06
1.29947e-07
1.29958e-07
1.29953e-07
1.29439e-07
1.29439e-07
1.29452e-07
1.29446e-07
1.32202e-06
2.9311e-06
1.62222e-07
2.56865e-07
1.29656e-06
2.94789e-06
1.63113e-07
1.84142e-05
1.84076e-05
1.32207e-06
1.6226e-07
2.92991e-06
2.56892e-07
1.29664e-06
1.63125e-07
2.94936e-06
5.19867e-06
5.2008e-06
4.21242e-07
5.2062e-06
5.20711e-06
3.86464e-06
8.93936e-06
3.85044e-06
8.94256e-06
1.83894e-05
1.83837e-05
3.86396e-06
8.94073e-06
3.85105e-06
8.94392e-06
1.29347e-07
1.2936e-07
1.29354e-07
1.29414e-07
1.29414e-07
1.29429e-07
1.29423e-07
1.39876e-06
2.98548e-06
1.66219e-07
2.72034e-07
1.37381e-06
3.00005e-06
1.67453e-07
1.83898e-05
1.8384e-05
1.39829e-06
1.6626e-07
2.98439e-06
2.72073e-07
1.37443e-06
1.67466e-07
3.00149e-06
5.22203e-06
5.22469e-06
4.53245e-07
5.22881e-06
5.22951e-06
3.8994e-06
8.94684e-06
3.88858e-06
8.94969e-06
1.83674e-05
1.83625e-05
3.89877e-06
8.94814e-06
3.88918e-06
8.95097e-06
1.29528e-07
1.29545e-07
1.29537e-07
1.30164e-07
1.30162e-07
1.30181e-07
1.30173e-07
1.46926e-06
3.03337e-06
1.71577e-07
2.89147e-07
1.44625e-06
3.04606e-06
1.73153e-07
1.83677e-05
1.83628e-05
1.46926e-06
1.71623e-07
3.03231e-06
2.89199e-07
1.44646e-06
1.73169e-07
3.04738e-06
5.24265e-06
5.24443e-06
4.8731e-07
5.24779e-06
5.24902e-06
3.92579e-06
8.95339e-06
3.91751e-06
8.95593e-06
1.83476e-05
1.83434e-05
3.92517e-06
8.95461e-06
3.91809e-06
8.95717e-06
1.30468e-07
1.30488e-07
1.3048e-07
1.31676e-07
1.31674e-07
1.31695e-07
1.31687e-07
1.53364e-06
3.07567e-06
1.78302e-07
3.08113e-07
1.51267e-06
3.08668e-06
1.80223e-07
1.83479e-05
1.83437e-05
1.53367e-06
1.78351e-07
3.0746e-06
3.08175e-07
1.5128e-06
1.8024e-07
3.08793e-06
5.25942e-06
5.26135e-06
5.2311e-07
5.26393e-06
5.26535e-06
3.94595e-06
8.95924e-06
3.93958e-06
8.96162e-06
1.833e-05
1.83265e-05
3.94535e-06
8.96045e-06
3.94014e-06
8.96283e-06
1.3217e-07
1.32192e-07
1.32184e-07
1.33948e-07
1.33945e-07
1.33968e-07
1.33962e-07
1.59128e-06
3.11308e-06
1.86396e-07
3.28822e-07
1.57339e-06
3.12266e-06
1.88661e-07
1.83303e-05
1.83268e-05
1.59136e-06
1.86452e-07
3.11206e-06
3.28894e-07
1.57343e-06
1.88682e-07
3.12386e-06
5.27408e-06
5.27595e-06
5.59388e-07
5.27784e-06
5.27931e-06
3.96139e-06
8.9647e-06
3.95661e-06
8.96704e-06
1.83144e-05
1.83118e-05
3.961e-06
8.96595e-06
3.95716e-06
8.96829e-06
1.34632e-07
1.34655e-07
1.34649e-07
1.36981e-07
1.36977e-07
1.37003e-07
1.36997e-07
1.64368e-06
3.14636e-06
1.95851e-07
3.51154e-07
1.6276e-06
3.15473e-06
1.98458e-07
1.83148e-05
1.83121e-05
1.64377e-06
1.95914e-07
3.14538e-06
3.51233e-07
1.62767e-06
1.98486e-07
3.15589e-06
5.28688e-06
5.28861e-06
5.97001e-07
5.29005e-06
5.29164e-06
3.97374e-06
8.96992e-06
3.96987e-06
8.97246e-06
1.83011e-05
1.82993e-05
3.97347e-06
8.97124e-06
3.97034e-06
8.97378e-06
1.37855e-07
1.3788e-07
1.37876e-07
1.40777e-07
1.40773e-07
1.408e-07
1.40796e-07
1.69045e-06
3.17616e-06
2.06647e-07
3.74972e-07
1.67619e-06
3.18352e-06
2.09588e-07
1.83015e-05
1.82997e-05
1.69044e-06
2.06718e-07
3.17519e-06
3.75055e-07
1.67622e-06
2.09619e-07
3.18464e-06
5.29824e-06
5.29992e-06
6.33361e-07
5.30103e-06
5.30267e-06
3.98366e-06
8.97521e-06
3.98079e-06
8.97799e-06
1.82901e-05
1.8289e-05
3.98336e-06
8.97657e-06
3.98097e-06
8.97935e-06
1.41841e-07
1.41868e-07
1.41865e-07
1.45339e-07
1.45335e-07
1.45363e-07
1.4536e-07
1.73255e-06
3.20302e-06
2.18757e-07
4.00125e-07
1.71937e-06
3.20957e-06
2.22025e-07
1.82905e-05
1.82895e-05
1.73237e-06
2.18835e-07
3.20211e-06
4.00206e-07
1.71964e-06
2.2206e-07
3.21067e-06
5.30859e-06
5.31026e-06
6.70676e-07
5.31115e-06
5.31281e-06
3.99207e-06
8.98091e-06
3.98971e-06
8.9839e-06
1.82814e-05
1.82812e-05
3.99199e-06
8.98226e-06
3.98993e-06
8.98525e-06
1.46595e-07
1.46623e-07
1.46621e-07
1.50671e-07
1.50668e-07
1.50697e-07
1.50695e-07
1.77017e-06
3.22723e-06
2.32153e-07
4.26447e-07
1.75827e-06
3.23342e-06
2.35733e-07
1.82819e-05
1.82818e-05
1.76997e-06
2.32234e-07
3.22664e-06
4.2653e-07
1.75851e-06
2.35774e-07
3.23445e-06
5.31825e-06
5.31993e-06
7.07519e-07
5.32068e-06
5.32233e-06
3.99928e-06
8.98709e-06
3.99738e-06
8.9903e-06
1.8275e-05
1.82757e-05
3.99929e-06
8.98844e-06
3.99751e-06
8.99165e-06
1.52121e-07
1.5215e-07
1.5215e-07
1.5678e-07
1.56777e-07
1.56808e-07
1.56807e-07
1.80398e-06
3.24959e-06
2.46781e-07
4.53782e-07
1.79325e-06
3.25533e-06
2.5067e-07
1.82757e-05
1.82764e-05
1.80382e-06
2.46873e-07
3.24917e-06
4.53867e-07
1.79346e-06
2.50716e-07
3.25637e-06
5.32745e-06
5.32915e-06
7.43879e-07
5.32982e-06
5.33147e-06
4.00574e-06
8.99384e-06
4.00402e-06
8.99728e-06
1.82711e-05
1.82727e-05
4.00573e-06
8.9952e-06
4.00417e-06
8.99864e-06
1.58425e-07
1.58456e-07
1.58457e-07
1.6367e-07
1.63667e-07
1.63701e-07
1.63699e-07
1.83476e-06
3.27082e-06
2.62602e-07
4.81953e-07
1.82494e-06
3.27564e-06
2.6678e-07
1.82719e-05
1.82734e-05
1.83457e-06
2.627e-07
3.27029e-06
4.82046e-07
1.8252e-06
2.6683e-07
3.2766e-06
5.3364e-06
5.33811e-06
7.79321e-07
5.33874e-06
5.34039e-06
4.01164e-06
9.00122e-06
4.01009e-06
9.00492e-06
1.82696e-05
1.8272e-05
4.01166e-06
9.00258e-06
4.01019e-06
9.0063e-06
1.65511e-07
1.65544e-07
1.65546e-07
1.71345e-07
1.7134e-07
1.71378e-07
1.71377e-07
1.86285e-06
3.28996e-06
2.79548e-07
5.10792e-07
1.85387e-06
3.29496e-06
2.83999e-07
1.82704e-05
1.82728e-05
1.86275e-06
2.79652e-07
3.28969e-06
5.1089e-07
1.85412e-06
2.84053e-07
3.29565e-06
5.34523e-06
5.34693e-06
8.13779e-07
5.34755e-06
5.34921e-06
4.01721e-06
9.0093e-06
4.0158e-06
9.0133e-06
1.82704e-05
1.82737e-05
4.0173e-06
9.01067e-06
4.01587e-06
9.01468e-06
1.73381e-07
1.73417e-07
1.73419e-07
1.79804e-07
1.798e-07
1.79842e-07
1.7984e-07
1.88886e-06
3.3084e-06
2.97553e-07
5.40119e-07
1.88054e-06
3.31311e-06
3.02256e-07
1.82713e-05
1.82745e-05
1.88879e-06
2.97661e-07
3.30818e-06
5.40224e-07
1.88073e-06
3.02316e-07
3.31358e-06
5.35403e-06
5.35571e-06
8.47087e-07
5.35637e-06
5.35802e-06
4.02273e-06
9.01815e-06
4.02134e-06
9.02247e-06
1.82736e-05
1.82776e-05
4.0228e-06
9.01951e-06
4.02141e-06
9.02383e-06
1.82036e-07
1.82075e-07
1.82078e-07
1.89045e-07
1.89041e-07
1.89087e-07
1.89086e-07
1.91302e-06
3.32588e-06
3.16535e-07
5.69766e-07
1.90535e-06
3.32999e-06
3.21473e-07
1.82745e-05
1.82785e-05
1.91306e-06
3.16656e-07
3.32535e-06
5.69878e-07
1.90551e-06
3.21545e-07
3.33106e-06
5.36284e-06
5.36453e-06
8.79273e-07
5.36521e-06
5.36687e-06
4.0283e-06
9.02779e-06
4.02688e-06
9.03243e-06
1.82789e-05
1.82837e-05
4.02839e-06
9.02914e-06
4.02693e-06
9.03378e-06
1.91472e-07
1.91515e-07
1.91519e-07
1.99063e-07
1.99058e-07
1.99107e-07
1.99106e-07
1.93582e-06
3.34279e-06
3.36427e-07
5.99558e-07
1.92855e-06
3.34708e-06
3.41579e-07
1.82799e-05
1.82847e-05
1.93581e-06
3.36556e-07
3.34223e-06
5.99676e-07
1.92874e-06
3.41659e-07
3.34739e-06
5.37171e-06
5.37342e-06
9.10311e-07
5.37413e-06
5.3758e-06
4.0341e-06
9.03822e-06
4.03256e-06
9.04317e-06
1.82864e-05
1.8292e-05
4.03413e-06
9.03957e-06
4.03263e-06
9.04452e-06
2.01681e-07
2.01728e-07
2.01731e-07
2.09842e-07
2.09835e-07
2.0989e-07
2.09888e-07
1.95731e-06
3.35843e-06
3.57139e-07
6.29327e-07
1.95045e-06
3.36216e-06
3.62482e-07
1.82874e-05
1.82929e-05
1.95738e-06
3.57276e-07
3.35801e-06
6.29454e-07
1.95065e-06
3.62571e-07
3.36312e-06
5.38069e-06
5.3824e-06
9.40095e-07
5.38313e-06
5.38481e-06
4.04011e-06
9.04967e-06
4.03849e-06
9.05442e-06
1.82958e-05
1.83022e-05
4.04014e-06
9.05077e-06
4.03854e-06
9.05603e-06
2.12646e-07
2.12701e-07
2.127e-07
2.21366e-07
2.21355e-07
2.21417e-07
2.21413e-07
1.97778e-06
3.37378e-06
3.78573e-07
6.58919e-07
1.97133e-06
3.37778e-06
3.84085e-07
1.82968e-05
1.83031e-05
1.9779e-06
3.78727e-07
3.37343e-06
6.59059e-07
1.97147e-06
3.8419e-07
3.37816e-06
5.38976e-06
5.39148e-06
9.68728e-07
5.39231e-06
5.39391e-06
4.04635e-06
9.06167e-06
4.04472e-06
9.06676e-06
1.8307e-05
1.8314e-05
4.04658e-06
9.06274e-06
4.04463e-06
9.06831e-06
2.24348e-07
2.24411e-07
2.24407e-07
2.33608e-07
2.33593e-07
2.33662e-07
2.33656e-07
1.99743e-06
3.38849e-06
4.0064e-07
6.88188e-07
1.99121e-06
3.3923e-06
4.06295e-07
1.83082e-05
1.83151e-05
1.99751e-06
4.00815e-07
3.38821e-06
6.88336e-07
1.99135e-06
4.0642e-07
3.39273e-06
5.39891e-06
5.40063e-06
9.96039e-07
5.40155e-06
5.40313e-06
4.05317e-06
9.0744e-06
4.05116e-06
9.07974e-06
1.83201e-05
1.83277e-05
4.05319e-06
9.07544e-06
4.05122e-06
9.08129e-06
2.36761e-07
2.36831e-07
2.36826e-07
2.46535e-07
2.46519e-07
2.46593e-07
2.46588e-07
2.01625e-06
3.40251e-06
4.23253e-07
7.17013e-07
2.0103e-06
3.40614e-06
4.29027e-07
1.83213e-05
1.83288e-05
2.01633e-06
4.23439e-07
3.40242e-06
7.17164e-07
2.01042e-06
4.29159e-07
3.40678e-06
5.40813e-06
5.40984e-06
1.02406e-06
5.41087e-06
5.41245e-06
4.05984e-06
9.08779e-06
4.05793e-06
9.09341e-06
1.83348e-05
1.8343e-05
4.06018e-06
9.08884e-06
4.05798e-06
9.09494e-06
2.49852e-07
2.49928e-07
2.49923e-07
2.60108e-07
2.60092e-07
2.60171e-07
2.60166e-07
2.03431e-06
3.41617e-06
4.46297e-07
7.4528e-07
2.02862e-06
3.41937e-06
4.52159e-07
1.8336e-05
1.83441e-05
2.03442e-06
4.46491e-07
3.41602e-06
7.45435e-07
2.02874e-06
4.52301e-07
3.42025e-06
5.41742e-06
5.4192e-06
1.04917e-06
5.42022e-06
5.42169e-06
4.06709e-06
9.10152e-06
4.0652e-06
9.1079e-06
1.8351e-05
1.83597e-05
4.06743e-06
9.10287e-06
4.06499e-06
9.10921e-06
2.6358e-07
2.63661e-07
2.63657e-07
2.74281e-07
2.74266e-07
2.74351e-07
2.74346e-07
2.05168e-06
3.42927e-06
4.69666e-07
7.72875e-07
2.04622e-06
3.43309e-06
4.75592e-07
1.83523e-05
1.83609e-05
2.05178e-06
4.69864e-07
3.42918e-06
7.73032e-07
2.04635e-06
4.75739e-07
3.43325e-06
5.42677e-06
5.42867e-06
1.07321e-06
5.4296e-06
5.43089e-06
4.07446e-06
9.11616e-06
4.07264e-06
9.12271e-06
1.83687e-05
1.83778e-05
4.07485e-06
9.11747e-06
4.07241e-06
9.12403e-06
2.77896e-07
2.77983e-07
2.77979e-07
2.89e-07
2.88986e-07
2.89076e-07
2.89073e-07
2.06837e-06
3.44186e-06
4.93252e-07
7.99713e-07
2.06315e-06
3.44554e-06
4.99216e-07
1.83699e-05
1.83791e-05
2.06849e-06
4.93448e-07
3.44187e-06
7.99866e-07
2.06321e-06
4.99356e-07
3.44536e-06
5.43613e-06
5.43809e-06
1.0962e-06
5.43897e-06
5.44039e-06
4.0824e-06
9.13128e-06
4.08e-06
9.13802e-06
1.83876e-05
1.83973e-05
4.08247e-06
9.13258e-06
4.07997e-06
9.13933e-06
2.92743e-07
2.92835e-07
2.92832e-07
3.04201e-07
3.04191e-07
3.04283e-07
3.04282e-07
2.08438e-06
3.4541e-06
5.16948e-07
8.25717e-07
2.07939e-06
3.45775e-06
5.22921e-07
1.83889e-05
1.83986e-05
2.08449e-06
5.17141e-07
3.45453e-06
8.25858e-07
2.07947e-06
5.23058e-07
3.45741e-06
5.44556e-06
5.4474e-06
1.11815e-06
5.44819e-06
5.44993e-06
4.09001e-06
9.14684e-06
4.08747e-06
9.15369e-06
1.84078e-05
1.8418e-05
4.09008e-06
9.14815e-06
4.0877e-06
9.15507e-06
3.08058e-07
3.08152e-07
3.08152e-07
2.09967e-06
3.46601e-06
5.4064e-07
8.50825e-07
2.09491e-06
3.46935e-06
5.46591e-07
1.84092e-05
1.84193e-05
2.09974e-06
5.40827e-07
3.46634e-06
8.50959e-07
2.095e-06
5.46725e-07
3.46905e-06
5.45507e-06
5.45668e-06
1.13883e-06
5.45749e-06
5.45901e-06
1.84376e-05
1.84304e-05
1.84407e-05
1.84335e-05
5.16989e-06
5.17179e-06
3.91353e-07
5.18002e-06
5.18195e-06
1.84171e-05
1.8424e-05
1.84202e-05
1.84271e-05
3.97146e-07
5.19401e-06
5.19557e-06
5.18482e-06
5.1867e-06
3.75898e-06
8.92124e-06
8.9254e-06
3.73507e-06
1.24126e-06
2.86795e-06
1.59592e-07
2.43785e-07
2.89004e-06
1.60128e-07
1.21466e-06
1.24119e-06
2.86844e-06
1.59589e-07
2.43812e-07
2.89052e-06
1.60124e-07
1.21464e-06
3.77037e-06
8.92989e-06
8.92598e-06
3.78996e-06
3.76971e-06
8.93026e-06
8.92636e-06
3.79078e-06
1.25612e-06
2.46883e-07
2.92044e-06
1.61457e-07
2.89992e-06
1.60755e-07
1.28208e-06
1.25604e-06
2.46906e-07
2.92098e-06
1.61453e-07
2.9004e-06
1.6075e-07
1.28209e-06
5.17159e-06
5.17105e-06
3.91497e-07
5.1814e-06
5.17836e-06
1.84381e-05
1.84309e-05
1.84199e-05
1.84268e-05
3.9733e-07
5.1952e-06
5.19341e-06
5.18627e-06
5.18595e-06
1.84175e-05
1.84244e-05
1.24147e-06
2.86844e-06
1.59602e-07
2.43737e-07
2.89051e-06
1.60138e-07
1.21458e-06
3.75832e-06
8.92168e-06
8.92585e-06
3.73559e-06
1.24136e-06
1.59616e-07
2.86982e-06
2.43838e-07
1.60152e-07
2.88928e-06
1.2147e-06
3.77026e-06
8.93131e-06
8.92738e-06
3.79009e-06
1.25603e-06
2.46835e-07
2.9209e-06
1.61467e-07
2.9004e-06
1.60764e-07
1.28227e-06
3.77024e-06
8.9307e-06
8.92681e-06
3.79006e-06
1.25609e-06
2.46935e-07
1.61482e-07
2.91981e-06
1.6078e-07
2.90169e-06
1.28217e-06
3.75822e-06
8.92137e-06
8.9255e-06
3.73583e-06
1.24137e-06
1.5958e-07
2.86815e-06
2.4377e-07
1.60117e-07
2.89019e-06
1.21452e-06
3.75904e-06
8.92127e-06
8.92546e-06
3.73491e-06
1.25605e-06
2.46804e-07
2.91909e-06
1.6145e-07
2.9012e-06
1.6073e-07
1.28204e-06
3.77055e-06
8.93031e-06
8.92646e-06
3.79003e-06
1.25601e-06
2.46865e-07
1.61446e-07
2.92063e-06
1.60742e-07
2.90008e-06
1.28204e-06
3.76963e-06
8.93034e-06
8.92641e-06
3.79075e-06
5.17284e-06
5.17156e-06
3.91507e-07
5.18033e-06
5.17914e-06
1.84388e-05
1.84315e-05
1.84203e-05
1.84273e-05
3.97252e-07
5.19511e-06
5.19295e-06
5.18755e-06
5.18604e-06
1.84182e-05
1.84251e-05
1.24139e-06
1.59609e-07
2.86978e-06
2.43769e-07
1.60138e-07
2.88921e-06
1.21467e-06
3.75833e-06
8.9217e-06
8.92585e-06
3.73593e-06
3.75828e-06
8.92194e-06
8.92614e-06
3.73586e-06
1.2562e-06
2.46825e-07
1.61463e-07
2.92053e-06
1.60766e-07
2.90007e-06
1.28225e-06
1.25617e-06
2.46861e-07
1.61466e-07
2.91974e-06
1.60771e-07
2.90165e-06
1.28221e-06
3.77066e-06
8.93068e-06
8.92682e-06
3.79013e-06
3.7706e-06
8.93101e-06
8.92708e-06
3.79007e-06
1.84393e-05
1.84321e-05
1.84413e-05
1.84341e-05
3.97465e-07
5.19367e-06
5.19541e-06
5.18473e-06
5.18752e-06
1.84189e-05
1.84257e-05
1.84208e-05
1.84277e-05
1.8411e-05
1.84045e-05
1.8414e-05
1.84075e-05
5.1985e-06
5.20012e-06
4.21055e-07
5.20649e-06
5.20839e-06
1.83924e-05
1.83985e-05
1.83954e-05
1.84015e-05
4.27403e-07
5.21809e-06
5.22e-06
5.21089e-06
5.21278e-06
3.81872e-06
8.93108e-06
3.80028e-06
8.93478e-06
1.32198e-06
2.92989e-06
1.62249e-07
2.56949e-07
1.29665e-06
2.94912e-06
1.63119e-07
1.32201e-06
2.93037e-06
1.62245e-07
2.56973e-07
1.29653e-06
2.94968e-06
1.63115e-07
3.82767e-06
8.93864e-06
8.93521e-06
3.84324e-06
3.82704e-06
8.939e-06
8.93559e-06
3.84323e-06
1.33604e-06
2.60559e-07
2.97603e-06
1.65121e-07
2.95796e-06
1.6408e-07
1.36079e-06
1.33593e-06
2.60579e-07
2.97658e-06
1.65117e-07
2.95845e-06
1.64077e-07
1.36083e-06
5.19978e-06
5.19919e-06
4.2105e-07
5.20791e-06
5.2057e-06
1.84113e-05
1.84048e-05
1.83951e-05
1.84012e-05
4.27532e-07
5.21987e-06
5.21773e-06
5.21219e-06
5.21167e-06
1.83928e-05
1.83988e-05
1.322e-06
2.93038e-06
1.62259e-07
2.56893e-07
1.29666e-06
2.94961e-06
1.63131e-07
3.818e-06
8.93155e-06
3.80084e-06
8.93524e-06
1.32208e-06
1.62277e-07
2.93154e-06
2.5701e-07
1.29665e-06
1.63146e-07
2.94846e-06
3.82766e-06
8.94002e-06
8.93661e-06
3.84246e-06
1.33615e-06
2.60502e-07
2.97655e-06
1.65134e-07
2.95847e-06
1.64091e-07
1.36065e-06
3.8276e-06
8.93944e-06
8.93605e-06
3.8424e-06
1.33604e-06
2.60619e-07
1.65149e-07
2.97543e-06
1.64109e-07
2.95962e-06
1.36075e-06
3.818e-06
8.93119e-06
3.80107e-06
8.93484e-06
1.32199e-06
1.62237e-07
2.93005e-06
2.56935e-07
1.29659e-06
1.63108e-07
2.94928e-06
3.81868e-06
8.93116e-06
3.80026e-06
8.93491e-06
1.33602e-06
2.60467e-07
2.97471e-06
1.65113e-07
2.95916e-06
1.64052e-07
1.36127e-06
3.82781e-06
8.93904e-06
8.93568e-06
3.84324e-06
1.33601e-06
2.60539e-07
1.65109e-07
2.97617e-06
1.64067e-07
2.95812e-06
1.36061e-06
3.82703e-06
8.93915e-06
8.9357e-06
3.84319e-06
5.20056e-06
5.19969e-06
4.21182e-07
5.20788e-06
5.20641e-06
1.8412e-05
1.84055e-05
1.83955e-05
1.84017e-05
4.27532e-07
5.21916e-06
5.21763e-06
5.21286e-06
5.21153e-06
1.83933e-05
1.83995e-05
1.32206e-06
1.62266e-07
2.93148e-06
2.56936e-07
1.2967e-06
1.63128e-07
2.94843e-06
3.81809e-06
8.93152e-06
3.80117e-06
8.9352e-06
3.81803e-06
8.93185e-06
3.80111e-06
8.93557e-06
1.3362e-06
2.60497e-07
1.65126e-07
2.97616e-06
1.64092e-07
2.9581e-06
1.36074e-06
1.33611e-06
2.60536e-07
1.65131e-07
2.97544e-06
1.64097e-07
2.95958e-06
1.36077e-06
3.82787e-06
8.93937e-06
8.93601e-06
3.84255e-06
3.82783e-06
8.9398e-06
8.93635e-06
3.84249e-06
1.84127e-05
1.84063e-05
1.84147e-05
1.84081e-05
4.27621e-07
5.2181e-06
5.21917e-06
5.21045e-06
5.2131e-06
1.83942e-05
1.84003e-05
1.8396e-05
1.84022e-05
1.83866e-05
1.83809e-05
1.83896e-05
1.83838e-05
5.22207e-06
5.22395e-06
4.53042e-07
5.22885e-06
5.23063e-06
1.837e-05
1.83753e-05
1.83729e-05
1.83783e-05
4.5976e-07
5.23883e-06
5.24068e-06
5.23276e-06
5.23436e-06
3.86456e-06
8.93971e-06
3.85044e-06
8.94296e-06
1.39816e-06
2.98434e-06
1.66249e-07
2.72131e-07
1.37426e-06
3.00124e-06
1.67459e-07
1.39815e-06
2.98485e-06
1.66245e-07
2.72153e-07
1.3742e-06
3.00179e-06
1.67455e-07
3.87087e-06
8.94627e-06
8.94326e-06
3.88317e-06
3.87085e-06
8.94659e-06
8.94365e-06
3.88316e-06
1.41113e-06
2.76234e-07
3.02495e-06
1.70141e-07
3.00903e-06
1.68759e-07
1.43419e-06
1.41113e-06
2.76254e-07
3.02549e-06
1.70137e-07
3.00954e-06
1.68756e-07
1.43409e-06
5.22389e-06
5.22292e-06
4.52942e-07
5.23045e-06
5.22849e-06
1.83869e-05
1.83813e-05
1.83728e-05
1.83781e-05
4.59682e-07
5.24022e-06
5.23853e-06
5.23433e-06
5.23308e-06
1.83704e-05
1.83756e-05
1.39812e-06
2.98486e-06
1.66262e-07
2.72071e-07
1.37442e-06
3.00181e-06
1.67472e-07
3.86443e-06
8.94016e-06
3.85102e-06
8.94338e-06
1.39816e-06
1.66281e-07
2.98594e-06
2.722e-07
1.37431e-06
1.6749e-07
3.00062e-06
3.87146e-06
8.94759e-06
8.94461e-06
3.88241e-06
1.41125e-06
2.76174e-07
3.02555e-06
1.70154e-07
3.00957e-06
1.68772e-07
1.4341e-06
3.87086e-06
8.947e-06
8.94407e-06
3.88311e-06
1.41121e-06
2.76301e-07
1.70173e-07
3.02438e-06
1.68792e-07
3.01064e-06
1.43408e-06
3.86468e-06
8.93977e-06
3.85069e-06
8.94301e-06
1.39802e-06
1.66236e-07
2.98448e-06
2.72116e-07
1.37433e-06
1.67447e-07
3.00138e-06
3.86454e-06
8.93988e-06
3.85045e-06
8.94317e-06
1.41072e-06
2.76128e-07
3.0237e-06
1.70132e-07
3.01014e-06
1.68729e-07
1.43469e-06
3.87098e-06
8.94662e-06
8.94369e-06
3.88325e-06
1.41124e-06
2.76212e-07
1.70128e-07
3.02513e-06
1.68746e-07
3.00918e-06
1.43406e-06
3.87086e-06
8.94694e-06
8.94385e-06
3.88315e-06
5.22442e-06
5.22312e-06
4.53161e-07
5.22962e-06
5.22894e-06
1.83875e-05
1.83817e-05
1.83731e-05
1.83785e-05
4.6017e-07
5.24001e-06
5.23844e-06
5.2348e-06
5.2332e-06
1.83708e-05
1.83762e-05
1.39801e-06
1.66267e-07
2.98591e-06
2.72115e-07
1.37439e-06
1.6747e-07
3.00065e-06
3.86391e-06
8.94009e-06
3.85126e-06
8.94331e-06
3.86385e-06
8.94051e-06
3.85124e-06
8.94376e-06
1.41129e-06
2.76171e-07
1.70147e-07
3.02509e-06
1.68772e-07
3.00917e-06
1.43458e-06
1.41132e-06
2.7621e-07
1.70152e-07
3.02441e-06
1.68778e-07
3.01064e-06
1.43408e-06
3.87161e-06
8.94696e-06
8.944e-06
3.88246e-06
3.8716e-06
8.94743e-06
8.94442e-06
3.88243e-06
1.83885e-05
1.83828e-05
1.83903e-05
1.83845e-05
4.6e-07
5.23873e-06
5.24008e-06
5.2327e-06
5.23494e-06
1.83719e-05
1.83772e-05
1.83736e-05
1.8379e-05
1.83646e-05
1.83597e-05
1.83675e-05
1.83626e-05
5.24225e-06
5.24421e-06
4.87222e-07
5.24772e-06
5.24966e-06
1.83499e-05
1.83544e-05
1.83527e-05
1.83573e-05
4.94498e-07
5.2561e-06
5.25803e-06
5.25125e-06
5.25302e-06
3.89935e-06
8.9472e-06
3.88861e-06
8.9501e-06
1.46864e-06
3.03227e-06
1.71609e-07
2.89255e-07
1.4467e-06
3.04716e-06
1.7316e-07
1.46865e-06
3.03278e-06
1.71606e-07
2.8928e-07
1.44667e-06
3.0477e-06
1.73157e-07
3.90411e-06
8.9529e-06
8.95025e-06
3.91344e-06
3.9041e-06
8.95328e-06
8.95066e-06
3.91343e-06
1.48066e-06
2.93832e-07
3.06811e-06
1.76523e-07
3.05403e-06
1.74802e-07
1.50222e-06
1.48062e-06
2.93856e-07
3.06865e-06
1.76523e-07
3.05456e-06
1.74799e-07
1.50168e-06
5.24376e-06
5.2427e-06
4.87176e-07
5.24942e-06
5.24734e-06
1.83648e-05
1.836e-05
1.83527e-05
1.83573e-05
4.94337e-07
5.2578e-06
5.25583e-06
5.25272e-06
5.2516e-06
1.83502e-05
1.83546e-05
1.46863e-06
3.03282e-06
1.71625e-07
2.89194e-07
1.44675e-06
3.04776e-06
1.73176e-07
3.89929e-06
8.94763e-06
3.8886e-06
8.9505e-06
1.46869e-06
1.71644e-07
3.03383e-06
2.89332e-07
1.44672e-06
1.73193e-07
3.04657e-06
3.90468e-06
8.95415e-06
8.95151e-06
3.9127e-06
1.48074e-06
2.9377e-07
3.06868e-06
1.76544e-07
3.05456e-06
1.74819e-07
1.50155e-06
3.90408e-06
8.95375e-06
8.95103e-06
3.91338e-06
1.48065e-06
2.93907e-07
1.76561e-07
3.06758e-06
1.74838e-07
3.05558e-06
1.50162e-06
3.89944e-06
8.94721e-06
3.88872e-06
8.95005e-06
1.46869e-06
1.71596e-07
3.03243e-06
2.8924e-07
1.4467e-06
1.73148e-07
3.04735e-06
3.89935e-06
8.9474e-06
3.88863e-06
8.95034e-06
1.48023e-06
2.93714e-07
3.06693e-06
1.76517e-07
3.05512e-06
1.74769e-07
1.50224e-06
3.90422e-06
8.95321e-06
8.9506e-06
3.9135e-06
1.48064e-06
2.9381e-07
1.76514e-07
3.06831e-06
1.7479e-07
3.05421e-06
1.50167e-06
3.90411e-06
8.95353e-06
8.95089e-06
3.91344e-06
5.24424e-06
5.24291e-06
4.87185e-07
5.2492e-06
5.2475e-06
1.83654e-05
1.83605e-05
1.8353e-05
1.83576e-05
4.94191e-07
5.25731e-06
5.25601e-06
5.25295e-06
5.25171e-06
1.83506e-05
1.83552e-05
1.46867e-06
1.71631e-07
3.03384e-06
2.89237e-07
1.4468e-06
1.73174e-07
3.04662e-06
3.89869e-06
8.94754e-06
3.88937e-06
8.9504e-06
3.89866e-06
8.948e-06
3.88936e-06
8.95087e-06
1.48038e-06
2.93765e-07
1.76532e-07
3.06822e-06
1.74817e-07
3.05415e-06
1.50226e-06
1.48068e-06
2.93808e-07
1.76542e-07
3.06762e-06
1.74826e-07
3.05563e-06
1.5017e-06
3.90481e-06
8.95357e-06
8.95094e-06
3.91274e-06
3.90481e-06
8.95405e-06
8.9514e-06
3.91272e-06
1.83665e-05
1.83616e-05
1.83683e-05
1.83633e-05
4.94352e-07
5.25618e-06
5.25754e-06
5.25114e-06
5.25319e-06
1.83518e-05
1.83564e-05
1.83535e-05
1.83581e-05
1.83448e-05
1.83406e-05
1.83476e-05
1.83434e-05
5.25925e-06
5.26121e-06
5.23033e-07
5.26392e-06
5.26575e-06
1.83319e-05
1.83357e-05
1.83347e-05
1.83385e-05
5.30389e-07
5.27111e-06
5.27294e-06
5.26695e-06
5.26875e-06
3.92574e-06
8.95376e-06
3.91756e-06