/*--------------------------------*- C++ -*----------------------------------*\
| =========                 |                                                 |
| \\      /  F ield         | OpenFOAM: The Open Source CFD Toolbox           |
|  \\    /   O peration     | Version:  2312                                  |
|   \\  /    A nd           | Website:  www.openfoam.com                      |
|    \\/     M anipulation  |                                                 |
\*---------------------------------------------------------------------------*/
FoamFile
{
    version     2.0;
    format      ascii;
    arch        "LSB;label=32;scalar=64";
    class       volScalarField;
    location    "600";
    object      k;
}
// * * * * * * * * * * * * * * * * * * * * * * * * * * * * * * * * * * * * * //

dimensions      [0 2 -2 0 0 0 0];

internalField   nonuniform List<scalar> 
42840
(
1.45937e-05
1.62406e-05
1.62414e-05
1.86729e-05
1.4315e-05
1.64632e-05
1.64641e-05
1.9368e-05
1.40822e-05
1.67727e-05
1.67739e-05
2.01579e-05
1.38948e-05
1.71661e-05
1.71677e-05
2.10302e-05
1.37525e-05
1.764e-05
1.7642e-05
2.1971e-05
1.36553e-05
1.81903e-05
1.81926e-05
2.29649e-05
1.36031e-05
1.88125e-05
1.88151e-05
2.3999e-05
1.35966e-05
1.95017e-05
1.95045e-05
2.50601e-05
1.36344e-05
2.02524e-05
2.02555e-05
2.61374e-05
1.37182e-05
2.10591e-05
2.10624e-05
2.72213e-05
1.3848e-05
2.19154e-05
2.19189e-05
2.82846e-05
1.40239e-05
2.2815e-05
2.28186e-05
2.93527e-05
1.42462e-05
2.37512e-05
2.37547e-05
3.03852e-05
1.45147e-05
2.47178e-05
2.47217e-05
3.14088e-05
1.48294e-05
2.57087e-05
2.57131e-05
3.24215e-05
1.51901e-05
2.67177e-05
2.67224e-05
3.34034e-05
1.55962e-05
2.77383e-05
2.77434e-05
3.43634e-05
1.60467e-05
2.87647e-05
2.87707e-05
3.53012e-05
1.65405e-05
2.97927e-05
2.97989e-05
3.62147e-05
1.70761e-05
3.08181e-05
3.08247e-05
3.71138e-05
1.76518e-05
3.18366e-05
3.18433e-05
3.79895e-05
1.82652e-05
3.28438e-05
3.285e-05
3.88302e-05
1.8914e-05
3.3836e-05
3.38417e-05
3.9661e-05
1.95952e-05
3.48101e-05
3.48155e-05
4.04477e-05
2.03057e-05
3.57636e-05
3.57686e-05
4.12159e-05
1.86869e-05
1.9219e-05
1.62411e-05
1.62409e-05
1.63999e-05
1.63997e-05
1.86857e-05
1.92161e-05
1.62415e-05
1.6242e-05
1.64001e-05
1.6401e-05
1.62406e-05
1.63991e-05
1.63995e-05
1.86876e-05
1.92191e-05
1.62416e-05
1.64002e-05
1.64005e-05
1.92399e-05
1.93868e-05
1.99901e-05
1.6464e-05
1.64638e-05
1.66883e-05
1.6688e-05
1.93848e-05
1.9989e-05
1.64642e-05
1.64651e-05
1.66883e-05
1.66896e-05
1.64636e-05
1.66872e-05
1.66879e-05
1.93869e-05
1.99912e-05
1.64644e-05
1.66886e-05
1.66888e-05
2.00137e-05
2.01798e-05
2.08461e-05
1.67739e-05
1.67736e-05
1.70614e-05
1.70612e-05
2.01775e-05
2.08445e-05
1.67739e-05
1.67751e-05
1.70614e-05
1.70628e-05
1.67734e-05
1.70601e-05
1.70611e-05
2.01797e-05
2.08459e-05
1.67741e-05
1.70617e-05
1.7062e-05
2.08718e-05
2.10538e-05
2.17721e-05
1.71677e-05
1.71674e-05
1.75159e-05
1.75158e-05
2.10511e-05
2.17716e-05
1.71677e-05
1.71691e-05
1.7516e-05
1.75175e-05
1.71673e-05
1.75143e-05
1.75157e-05
2.10537e-05
2.17717e-05
1.7168e-05
1.75163e-05
1.75166e-05
2.17995e-05
2.19958e-05
2.27541e-05
1.76419e-05
1.76417e-05
1.80477e-05
1.80479e-05
2.19934e-05
2.27545e-05
1.7642e-05
1.76435e-05
1.80479e-05
1.80497e-05
1.76416e-05
1.80459e-05
1.80478e-05
2.19959e-05
2.27553e-05
1.76424e-05
1.80483e-05
1.80487e-05
2.27841e-05
2.29919e-05
2.37797e-05
1.81925e-05
1.81925e-05
1.86529e-05
1.86528e-05
2.29903e-05
2.37793e-05
1.81926e-05
1.81944e-05
1.86527e-05
1.8655e-05
1.81925e-05
1.86505e-05
1.86531e-05
2.29918e-05
2.3781e-05
1.81932e-05
1.86534e-05
1.86538e-05
2.3811e-05
2.40275e-05
2.48344e-05
1.88153e-05
1.8815e-05
1.93264e-05
1.9326e-05
2.40263e-05
2.48337e-05
1.88149e-05
1.88172e-05
1.93258e-05
1.93285e-05
1.88154e-05
1.93234e-05
1.93267e-05
2.40281e-05
2.48351e-05
1.88158e-05
1.93266e-05
1.9327e-05
2.48673e-05
2.50906e-05
2.59069e-05
1.9505e-05
1.95046e-05
2.00628e-05
2.00623e-05
2.5089e-05
2.59046e-05
1.95042e-05
1.9507e-05
2.00617e-05
2.00649e-05
1.95052e-05
2.00593e-05
2.00631e-05
2.5091e-05
2.59067e-05
1.95053e-05
2.00627e-05
2.0063e-05
2.5938e-05
2.61683e-05
2.69834e-05
2.02561e-05
2.02557e-05
2.08566e-05
2.0856e-05
2.61669e-05
2.70163e-05
2.02549e-05
2.02582e-05
2.0855e-05
2.08585e-05
2.02566e-05
2.08527e-05
2.08568e-05
2.61688e-05
2.69988e-05
2.02562e-05
2.08561e-05
2.08562e-05
2.7003e-05
2.72543e-05
2.8059e-05
2.10632e-05
2.10627e-05
2.17015e-05
2.17005e-05
2.72154e-05
2.80548e-05
2.10617e-05
2.10653e-05
2.16994e-05
2.17033e-05
2.10637e-05
2.1697e-05
2.17016e-05
2.72433e-05
2.80459e-05
2.10628e-05
2.17007e-05
2.17004e-05
2.80701e-05
2.83086e-05
2.91065e-05
2.192e-05
2.19191e-05
2.25913e-05
2.259e-05
2.82993e-05
2.91008e-05
2.1918e-05
2.19219e-05
2.2589e-05
2.25928e-05
2.19204e-05
2.25866e-05
2.25914e-05
2.83188e-05
2.90994e-05
2.19189e-05
2.25903e-05
2.25896e-05
2.91332e-05
2.93618e-05
3.01417e-05
2.28198e-05
2.28187e-05
2.35193e-05
2.35178e-05
2.93582e-05
3.01456e-05
2.28176e-05
2.28215e-05
2.35168e-05
2.35204e-05
2.28203e-05
2.35142e-05
2.35195e-05
2.93701e-05
3.01725e-05
2.28182e-05
2.3518e-05
2.35171e-05
3.01734e-05
3.04127e-05
3.11784e-05
2.37564e-05
2.3755e-05
2.44789e-05
2.44774e-05
3.04126e-05
3.11949e-05
2.3754e-05
2.37575e-05
2.44764e-05
2.44801e-05
2.37569e-05
2.44739e-05
2.44796e-05
3.03809e-05
3.11999e-05
2.37543e-05
2.44777e-05
2.44767e-05
3.1204e-05
3.14264e-05
3.21843e-05
2.47229e-05
2.47217e-05
2.54644e-05
2.54628e-05
3.14253e-05
3.21854e-05
2.47205e-05
2.47244e-05
2.54616e-05
2.5466e-05
2.4724e-05
2.54592e-05
2.54652e-05
3.14157e-05
3.21883e-05
2.47209e-05
2.54636e-05
2.54619e-05
3.22104e-05
3.24355e-05
3.31687e-05
2.5714e-05
2.57126e-05
2.64697e-05
2.64677e-05
3.24342e-05
3.31708e-05
2.57112e-05
2.57155e-05
2.64664e-05
2.64711e-05
2.57151e-05
2.64642e-05
2.64704e-05
3.24417e-05
3.31898e-05
2.57115e-05
2.64691e-05
2.64666e-05
3.3195e-05
3.34276e-05
3.41376e-05
2.67231e-05
2.67212e-05
2.74882e-05
2.74857e-05
3.34125e-05
3.41362e-05
2.67199e-05
2.67245e-05
2.74846e-05
2.74894e-05
2.67242e-05
2.74826e-05
2.74889e-05
3.34177e-05
3.41442e-05
2.67202e-05
2.74877e-05
2.74847e-05
3.41655e-05
3.43856e-05
3.5109e-05
2.7744e-05
2.77416e-05
2.8514e-05
2.85112e-05
3.43784e-05
3.50764e-05
2.77405e-05
2.77452e-05
2.85103e-05
2.85151e-05
2.7745e-05
2.8508e-05
2.85149e-05
3.43842e-05
3.50832e-05
2.77407e-05
2.85138e-05
2.85105e-05
3.51077e-05
3.53061e-05
3.60311e-05
2.8771e-05
2.87681e-05
2.9542e-05
2.95391e-05
3.53101e-05
3.60108e-05
2.87673e-05
2.87722e-05
2.95382e-05
2.9543e-05
2.8772e-05
2.95359e-05
2.95431e-05
3.53163e-05
3.60292e-05
2.87674e-05
2.95422e-05
2.95386e-05
3.60279e-05
3.62159e-05
3.69222e-05
2.9799e-05
2.97961e-05
3.05685e-05
3.05656e-05
3.6222e-05
3.69173e-05
2.97952e-05
2.97999e-05
3.05645e-05
3.05694e-05
2.98002e-05
3.05623e-05
3.05699e-05
3.62159e-05
3.69252e-05
2.97954e-05
3.05691e-05
3.05652e-05
3.69242e-05
3.71108e-05
3.77926e-05
3.08243e-05
3.08215e-05
3.15889e-05
3.1586e-05
3.71066e-05
3.77942e-05
3.08204e-05
3.08253e-05
3.15849e-05
3.15896e-05
3.0826e-05
3.1583e-05
3.15907e-05
3.71104e-05
3.77988e-05
3.08211e-05
3.15899e-05
3.1586e-05
3.77817e-05
3.79693e-05
3.86382e-05
3.18426e-05
3.18397e-05
3.25989e-05
3.2596e-05
3.79775e-05
3.86351e-05
3.18386e-05
3.18432e-05
3.25948e-05
3.25994e-05
3.18444e-05
3.25933e-05
3.26008e-05
3.7975e-05
3.86472e-05
3.18396e-05
3.25999e-05
3.25963e-05
3.86333e-05
3.88159e-05
3.94668e-05
3.28494e-05
3.28465e-05
3.35946e-05
3.35919e-05
3.88068e-05
3.9461e-05
3.28453e-05
3.28498e-05
3.35905e-05
3.35951e-05
3.28514e-05
3.35896e-05
3.3597e-05
3.88239e-05
3.94693e-05
3.28467e-05
3.35957e-05
3.35926e-05
3.94423e-05
3.96317e-05
4.02592e-05
3.3841e-05
3.38382e-05
3.4573e-05
3.45702e-05
3.96331e-05
4.0255e-05
3.38369e-05
3.38414e-05
3.45689e-05
3.45734e-05
3.38435e-05
3.45683e-05
3.45757e-05
3.9635e-05
4.0269e-05
3.38389e-05
3.45742e-05
3.45715e-05
4.02479e-05
4.04307e-05
4.10351e-05
3.48147e-05
3.48119e-05
3.55312e-05
3.55287e-05
4.04316e-05
4.1019e-05
3.48105e-05
3.48149e-05
3.55271e-05
3.55314e-05
3.48174e-05
3.55272e-05
3.55344e-05
4.04291e-05
4.10415e-05
3.48129e-05
3.55324e-05
3.553e-05
4.10333e-05
4.11905e-05
3.57675e-05
3.57649e-05
4.12094e-05
3.57634e-05
3.57677e-05
3.57706e-05
4.12017e-05
3.57661e-05
5.48463e-05
7.01002e-05
7.01256e-05
5.43674e-05
6.95614e-05
6.95431e-05
5.48463e-05
7.0102e-05
7.01275e-05
5.43652e-05
1.45935e-05
1.45938e-05
1.45934e-05
1.43803e-05
1.43801e-05
1.43805e-05
1.43801e-05
3.10592e-05
4.64296e-05
1.47087e-05
1.62878e-05
4.68061e-05
1.46747e-05
3.04936e-05
6.95609e-05
6.95427e-05
3.10581e-05
1.47093e-05
4.64275e-05
1.62888e-05
1.46752e-05
4.68096e-05
3.04997e-05
5.97058e-05
5.97141e-05
1.88915e-05
5.99067e-05
5.99149e-05
5.5948e-05
7.01519e-05
5.55442e-05
7.01746e-05
6.94941e-05
6.94778e-05
5.59484e-05
7.01539e-05
5.55428e-05
7.01765e-05
1.43148e-05
1.43152e-05
1.43148e-05
1.41361e-05
1.41359e-05
1.41364e-05
1.4136e-05
3.27292e-05
4.75426e-05
1.46021e-05
1.65324e-05
3.218e-05
4.78947e-05
1.45851e-05
6.94936e-05
6.94773e-05
3.27302e-05
1.46027e-05
4.75474e-05
1.65336e-05
3.2186e-05
1.45856e-05
4.78948e-05
6.02886e-05
6.02964e-05
1.96187e-05
6.0469e-05
6.04768e-05
5.68653e-05
7.0197e-05
5.65232e-05
7.02173e-05
6.94329e-05
6.94185e-05
5.68655e-05
7.01988e-05
5.65217e-05
7.02189e-05
1.40819e-05
1.40824e-05
1.4082e-05
1.39375e-05
1.39372e-05
1.39377e-05
1.39374e-05
3.43372e-05
4.85642e-05
1.45648e-05
1.68632e-05
3.38119e-05
4.88875e-05
1.45666e-05
6.94322e-05
6.94178e-05
3.43385e-05
1.45654e-05
4.85672e-05
1.68647e-05
3.38171e-05
1.4567e-05
4.88889e-05
6.08107e-05
6.0818e-05
2.04363e-05
6.0972e-05
6.09809e-05
5.76345e-05
7.02365e-05
5.7341e-05
7.02543e-05
6.93776e-05
6.93652e-05
5.76342e-05
7.0238e-05
5.73395e-05
7.02554e-05
1.38945e-05
1.38951e-05
1.38947e-05
1.3784e-05
1.37837e-05
1.37844e-05
1.3784e-05
3.58626e-05
4.95019e-05
1.45955e-05
1.72772e-05
3.53664e-05
4.97935e-05
1.4614e-05
6.93768e-05
6.93643e-05
3.5862e-05
1.45962e-05
4.95043e-05
1.72791e-05
3.53722e-05
1.46147e-05
4.97962e-05
6.128e-05
6.12885e-05
2.13313e-05
6.14261e-05
6.14343e-05
5.82871e-05
7.0271e-05
5.80323e-05
7.02867e-05
6.93277e-05
6.93172e-05
5.82865e-05
7.02722e-05
5.80307e-05
7.02874e-05
1.37522e-05
1.37529e-05
1.37525e-05
1.36756e-05
1.36753e-05
1.36761e-05
1.36757e-05
3.72906e-05
5.03581e-05
1.46954e-05
1.77707e-05
3.6828e-05
5.06266e-05
1.4731e-05
6.93269e-05
6.93163e-05
3.72912e-05
1.46965e-05
5.03611e-05
1.77729e-05
3.6832e-05
1.47321e-05
5.06307e-05
6.17049e-05
6.17131e-05
2.22892e-05
6.18374e-05
6.18461e-05
5.88488e-05
7.0302e-05
5.86254e-05
7.03162e-05
6.92832e-05
6.92746e-05
5.8848e-05
7.03029e-05
5.86242e-05
7.03171e-05
1.3655e-05
1.36558e-05
1.36554e-05
1.36122e-05
1.36118e-05
1.36127e-05
1.36124e-05
3.86183e-05
5.1146e-05
1.48634e-05
1.83393e-05
3.81915e-05
5.13928e-05
1.4916e-05
6.92824e-05
6.92737e-05
3.86184e-05
1.48649e-05
5.11484e-05
1.8342e-05
3.81933e-05
1.49174e-05
5.13965e-05
6.20923e-05
6.21006e-05
2.32976e-05
6.22134e-05
6.22223e-05
5.93406e-05
7.03309e-05
5.91434e-05
7.03441e-05
6.92441e-05
6.92374e-05
5.93401e-05
7.03318e-05
5.91425e-05
7.03452e-05
1.36027e-05
1.36037e-05
1.36033e-05
1.35944e-05
1.3594e-05
1.35951e-05
1.35947e-05
3.9848e-05
5.18723e-05
1.50989e-05
1.89787e-05
3.94533e-05
5.21e-05
1.51682e-05
6.92433e-05
6.92366e-05
3.98482e-05
1.51008e-05
5.18754e-05
1.89818e-05
3.94546e-05
1.51699e-05
5.21038e-05
6.2448e-05
6.2456e-05
2.43395e-05
6.256e-05
6.25688e-05
5.97793e-05
7.03595e-05
5.9603e-05
7.03714e-05
6.92105e-05
6.92059e-05
5.97789e-05
7.03606e-05
5.96018e-05
7.03729e-05
1.35962e-05
1.35973e-05
1.3597e-05
1.36206e-05
1.36202e-05
1.36214e-05
1.36211e-05
4.09851e-05
5.25438e-05
1.54008e-05
1.96838e-05
4.06202e-05
5.27569e-05
1.54865e-05
6.92099e-05
6.92053e-05
4.09887e-05
1.5403e-05
5.25475e-05
1.96871e-05
4.06192e-05
1.54885e-05
5.27603e-05
6.27776e-05
6.27859e-05
2.54056e-05
6.28823e-05
6.2891e-05
6.01763e-05
7.03877e-05
6.0016e-05
7.03999e-05
6.91827e-05
6.91802e-05
6.01768e-05
7.03893e-05
6.0015e-05
7.04015e-05
1.36339e-05
1.36352e-05
1.3635e-05
1.36931e-05
1.36926e-05
1.3694e-05
1.36937e-05
4.20423e-05
5.31711e-05
1.57678e-05
2.04492e-05
4.16953e-05
5.33677e-05
1.58695e-05
6.91823e-05
6.91797e-05
4.20459e-05
1.57703e-05
5.31744e-05
2.04525e-05
4.16941e-05
1.58717e-05
5.33718e-05
6.30862e-05
6.30946e-05
2.64719e-05
6.31848e-05
6.31936e-05
6.05406e-05
7.04176e-05
6.03931e-05
7.04306e-05
6.91608e-05
6.91604e-05
6.05411e-05
7.04192e-05
6.03923e-05
7.04322e-05
1.37178e-05
1.37191e-05
1.3719e-05
1.38114e-05
1.38109e-05
1.38123e-05
1.38121e-05
4.30234e-05
5.37566e-05
1.6198e-05
2.12688e-05
4.26925e-05
5.39416e-05
1.63153e-05
6.91605e-05
6.91601e-05
4.30273e-05
1.62008e-05
5.37604e-05
2.12725e-05
4.26918e-05
1.63177e-05
5.39459e-05
6.33773e-05
6.33857e-05
2.75449e-05
6.34705e-05
6.34796e-05
6.08784e-05
7.045e-05
6.07411e-05
7.0464e-05
6.91448e-05
6.91466e-05
6.08787e-05
7.04516e-05
6.07403e-05
7.04656e-05
1.38475e-05
1.3849e-05
1.38489e-05
1.39758e-05
1.39752e-05
1.39768e-05
1.39766e-05
4.39382e-05
5.43087e-05
1.66893e-05
2.21365e-05
4.36209e-05
5.44838e-05
1.68215e-05
6.91448e-05
6.91466e-05
4.3942e-05
1.66924e-05
5.43115e-05
2.21403e-05
4.36205e-05
1.68241e-05
5.44871e-05
6.36543e-05
6.36626e-05
2.85983e-05
6.37431e-05
6.37521e-05
6.1194e-05
7.04853e-05
6.10657e-05
7.05005e-05
6.91349e-05
6.91388e-05
6.11944e-05
7.04868e-05
6.10645e-05
7.0502e-05
1.40234e-05
1.4025e-05
1.40249e-05
1.41864e-05
1.41857e-05
1.41874e-05
1.41873e-05
4.47953e-05
5.48307e-05
1.72391e-05
2.3046e-05
4.44895e-05
5.49975e-05
1.73856e-05
6.91351e-05
6.91391e-05
4.47991e-05
1.72423e-05
5.48321e-05
2.30498e-05
4.44892e-05
1.73881e-05
5.50003e-05
6.39191e-05
6.39275e-05
2.96494e-05
6.40045e-05
6.40134e-05
6.14937e-05
7.05238e-05
6.13714e-05
7.05404e-05
6.91311e-05
6.91372e-05
6.14933e-05
7.05254e-05
6.13695e-05
7.0542e-05
1.42456e-05
1.42473e-05
1.42473e-05
1.44433e-05
1.44426e-05
1.44445e-05
1.44444e-05
4.56032e-05
5.53272e-05
1.78444e-05
2.39903e-05
4.5307e-05
5.54855e-05
1.80043e-05
6.91315e-05
6.91375e-05
4.56068e-05
1.78478e-05
5.5326e-05
2.39941e-05
4.53068e-05
1.8007e-05
5.5491e-05
6.41739e-05
6.41823e-05
3.07003e-05
6.42566e-05
6.42652e-05
6.17802e-05
7.0566e-05
6.1661e-05
7.05842e-05
6.91332e-05
6.91414e-05
6.17793e-05
7.05677e-05
6.16604e-05
7.05858e-05
1.45141e-05
1.45159e-05
1.45159e-05
1.47465e-05
1.47458e-05
1.47478e-05
1.47477e-05
4.6368e-05
5.5799e-05
1.8502e-05
2.49636e-05
4.60809e-05
5.59516e-05
1.86745e-05
6.91337e-05
6.91419e-05
4.6372e-05
1.85056e-05
5.5797e-05
2.49678e-05
4.60808e-05
1.86773e-05
5.59589e-05
6.44203e-05
6.44276e-05
3.17107e-05
6.45003e-05
6.45095e-05
6.20559e-05
7.06122e-05
6.19408e-05
7.0632e-05
6.91411e-05
6.91513e-05
6.20555e-05
7.06138e-05
6.19403e-05
7.06335e-05
1.48288e-05
1.48307e-05
1.48308e-05
1.50957e-05
1.5095e-05
1.50972e-05
1.50971e-05
4.70965e-05
5.62489e-05
1.9208e-05
2.59597e-05
4.68163e-05
5.63986e-05
1.93923e-05
6.91418e-05
6.9152e-05
4.71009e-05
1.92123e-05
5.62478e-05
2.59643e-05
4.68173e-05
1.93958e-05
5.64055e-05
6.46588e-05
6.46658e-05
3.27012e-05
6.47371e-05
6.47466e-05
6.23249e-05
7.06626e-05
6.22121e-05
7.0684e-05
6.91545e-05
6.91668e-05
6.23243e-05
7.0664e-05
6.22113e-05
7.06855e-05
1.51894e-05
1.51916e-05
1.51916e-05
1.54905e-05
1.54897e-05
1.54922e-05
1.54919e-05
4.77938e-05
5.66805e-05
1.99598e-05
2.69722e-05
4.75201e-05
5.6827e-05
2.0155e-05
6.91553e-05
6.91675e-05
4.77983e-05
1.99644e-05
5.66798e-05
2.69771e-05
4.75217e-05
2.01587e-05
5.68343e-05
6.48902e-05
6.48975e-05
3.36819e-05
6.49677e-05
6.4977e-05
6.25886e-05
7.0717e-05
6.24776e-05
7.07402e-05
6.91733e-05
6.91875e-05
6.25876e-05
7.07184e-05
6.2477e-05
7.07415e-05
1.55954e-05
1.55978e-05
1.55977e-05
1.593e-05
1.59291e-05
1.59318e-05
1.59315e-05
4.84634e-05
5.70947e-05
2.07532e-05
2.79947e-05
4.81959e-05
5.72384e-05
2.0958e-05
6.91742e-05
6.91883e-05
4.84681e-05
2.07582e-05
5.70945e-05
2.80001e-05
4.81984e-05
2.09622e-05
5.72463e-05
6.51159e-05
6.51232e-05
3.46373e-05
6.51924e-05
6.52015e-05
6.28485e-05
7.07739e-05
6.27392e-05
7.08013e-05
6.91972e-05
6.92132e-05
6.28471e-05
7.07768e-05
6.27382e-05
7.08015e-05
1.60457e-05
1.60485e-05
1.60483e-05
1.64131e-05
1.6412e-05
1.64151e-05
1.64147e-05
4.91085e-05
5.74932e-05
2.15836e-05
2.90219e-05
4.88471e-05
5.76339e-05
2.17972e-05
6.91981e-05
6.92139e-05
4.91131e-05
2.15894e-05
5.7493e-05
2.90281e-05
4.88508e-05
2.18022e-05
5.76419e-05
6.53364e-05
6.53434e-05
3.55775e-05
6.54118e-05
6.54204e-05
6.31062e-05
7.08362e-05
6.29975e-05
7.08652e-05
6.92258e-05
6.92435e-05
6.31033e-05
7.08392e-05
6.29979e-05
7.08655e-05
1.65393e-05
1.65425e-05
1.65422e-05
1.69384e-05
1.69371e-05
1.69405e-05
1.69401e-05
4.97316e-05
5.78774e-05
2.24472e-05
3.00495e-05
4.94773e-05
5.80153e-05
2.26683e-05
6.92267e-05
6.92441e-05
4.97353e-05
2.24537e-05
5.7878e-05
3.00561e-05
4.94822e-05
2.26742e-05
5.80237e-05
6.55517e-05
6.55587e-05
3.64772e-05
6.56259e-05
6.56343e-05
6.33597e-05
7.09024e-05
6.32547e-05
7.09328e-05
6.92589e-05
6.92781e-05
6.33588e-05
7.09054e-05
6.3254e-05
7.09332e-05
1.70748e-05
1.70782e-05
1.70779e-05
1.75042e-05
1.75028e-05
1.75065e-05
1.75062e-05
5.0334e-05
5.82482e-05
2.33396e-05
3.10735e-05
5.00876e-05
5.83833e-05
2.35673e-05
6.92597e-05
6.92786e-05
5.03375e-05
2.33468e-05
5.82489e-05
3.10805e-05
5.00929e-05
2.35737e-05
5.83912e-05
6.5762e-05
6.57691e-05
3.73454e-05
6.58347e-05
6.58433e-05
6.36143e-05
7.09722e-05
6.35077e-05
7.1004e-05
6.9296e-05
6.93166e-05
6.3613e-05
7.09751e-05
6.35077e-05
7.10043e-05
1.76503e-05
1.7654e-05
1.76538e-05
1.81084e-05
1.8107e-05
1.81109e-05
1.81107e-05
5.09166e-05
5.86066e-05
2.42567e-05
3.20898e-05
5.0678e-05
5.87386e-05
2.449e-05
6.92969e-05
6.93172e-05
5.09204e-05
2.42642e-05
5.86066e-05
3.20964e-05
5.0683e-05
2.44968e-05
5.8746e-05
6.59674e-05
6.59748e-05
3.81939e-05
6.60386e-05
6.60474e-05
6.3865e-05
7.10464e-05
6.37586e-05
7.1077e-05
6.93369e-05
6.93587e-05
6.38637e-05
7.10481e-05
6.376e-05
7.10785e-05
1.82638e-05
1.82677e-05
1.82675e-05
1.87486e-05
1.87473e-05
1.87514e-05
1.87512e-05
5.14803e-05
5.89525e-05
2.51953e-05
3.30935e-05
5.12498e-05
5.90814e-05
2.54334e-05
6.93379e-05
6.93595e-05
5.14842e-05
2.52029e-05
5.89521e-05
3.30998e-05
5.12544e-05
2.54403e-05
5.90877e-05
6.6168e-05
6.61754e-05
3.90408e-05
6.62374e-05
6.62465e-05
6.41122e-05
7.11224e-05
6.4008e-05
7.1154e-05
6.93812e-05
6.94044e-05
6.41117e-05
7.1124e-05
6.40089e-05
7.11556e-05
1.89126e-05
1.89168e-05
1.89167e-05
1.9422e-05
1.94208e-05
1.9425e-05
1.9425e-05
5.20248e-05
5.92863e-05
2.61518e-05
3.40813e-05
5.18022e-05
5.94122e-05
2.63936e-05
6.93823e-05
6.94053e-05
5.20283e-05
2.61591e-05
5.92858e-05
3.40872e-05
5.18049e-05
2.64001e-05
5.94177e-05
6.63641e-05
6.63716e-05
3.98539e-05
6.64315e-05
6.64408e-05
6.4356e-05
7.1201e-05
6.42561e-05
7.12336e-05
6.94289e-05
6.94534e-05
6.43561e-05
7.12026e-05
6.42548e-05
7.12352e-05
1.95939e-05
1.95982e-05
1.95982e-05
2.01255e-05
2.01243e-05
2.01287e-05
2.01288e-05
5.25494e-05
5.96086e-05
2.71214e-05
3.50504e-05
5.2335e-05
5.97312e-05
2.73657e-05
6.94301e-05
6.94544e-05
5.25518e-05
2.71283e-05
5.96074e-05
3.50559e-05
5.23371e-05
2.73718e-05
5.97355e-05
6.65554e-05
6.65628e-05
4.06423e-05
6.6621e-05
6.66301e-05
6.45956e-05
7.12818e-05
6.44966e-05
7.1316e-05
6.94798e-05
6.95054e-05
6.45952e-05
7.12834e-05
6.44971e-05
7.13168e-05
2.03045e-05
2.03089e-05
2.03091e-05
5.30527e-05
5.99195e-05
2.80989e-05
3.59984e-05
5.28478e-05
6.00384e-05
2.83443e-05
6.94811e-05
6.95065e-05
5.30546e-05
2.81054e-05
5.99182e-05
3.60033e-05
5.28497e-05
2.835e-05
6.00429e-05
6.67418e-05
6.67492e-05
4.1401e-05
6.68053e-05
6.68149e-05
6.95593e-05
6.95411e-05
6.95621e-05
6.95439e-05
5.97101e-05
5.97201e-05
1.88704e-05
5.99107e-05
5.99201e-05
6.95077e-05
6.9525e-05
6.95105e-05
6.95278e-05
1.90256e-05
6.01988e-05
6.02092e-05
6.00096e-05
6.00191e-05
5.48456e-05
7.00974e-05
7.01229e-05
5.43665e-05
3.1059e-05
4.64271e-05
1.47088e-05
1.62885e-05
4.68102e-05
1.46748e-05
3.04994e-05
3.10566e-05
4.64267e-05
1.47087e-05
1.62883e-05
4.68133e-05
1.46746e-05
3.04983e-05
5.49828e-05
7.01511e-05
7.01271e-05
5.54226e-05
5.4982e-05
7.01482e-05
7.01243e-05
5.5422e-05
3.13466e-05
1.63416e-05
4.73652e-05
1.46214e-05
4.6999e-05
1.46469e-05
3.19003e-05
3.13456e-05
1.63414e-05
4.73677e-05
1.46212e-05
4.69991e-05
1.46467e-05
3.18985e-05
5.9715e-05
5.97096e-05
1.88678e-05
5.99158e-05
5.99096e-05
6.95591e-05
6.9541e-05
6.95098e-05
6.9527e-05
1.90237e-05
6.02044e-05
6.01973e-05
6.00143e-05
6.00094e-05
6.95075e-05
6.95246e-05
3.10597e-05
4.64331e-05
1.47098e-05
1.62888e-05
4.6811e-05
1.46758e-05
3.04975e-05
5.48453e-05
7.00967e-05
7.01222e-05
5.43642e-05
3.1062e-05
1.47095e-05
4.64317e-05
1.62894e-05
1.46755e-05
4.68099e-05
3.04961e-05
5.4981e-05
7.0153e-05
7.0129e-05
5.54228e-05
3.13456e-05
1.63419e-05
4.73668e-05
1.46224e-05
4.70024e-05
1.4648e-05
3.1902e-05
5.49799e-05
7.01475e-05
7.01236e-05
5.54218e-05
3.13437e-05
1.63426e-05
1.46222e-05
4.73637e-05
1.46476e-05
4.70031e-05
3.19037e-05
5.48366e-05
7.0099e-05
7.01245e-05
5.43705e-05
3.10606e-05
1.47087e-05
4.64259e-05
1.62881e-05
1.46747e-05
4.68056e-05
3.04943e-05
5.48413e-05
7.00956e-05
7.01212e-05
5.43675e-05
3.1342e-05
1.63409e-05
4.73644e-05
1.46213e-05
4.70008e-05
1.46468e-05
3.19012e-05
5.49853e-05
7.01496e-05
7.01257e-05
5.5413e-05
3.13411e-05
1.63411e-05
1.46213e-05
4.73598e-05
1.46469e-05
4.69987e-05
3.1901e-05
5.49827e-05
7.01466e-05
7.01226e-05
5.54175e-05
5.97153e-05
5.9711e-05
1.88701e-05
5.99154e-05
5.9912e-05
6.95602e-05
6.95421e-05
6.95093e-05
6.95265e-05
1.90261e-05
6.02038e-05
6.02016e-05
6.00144e-05
6.00109e-05
6.95087e-05
6.95259e-05
3.10567e-05
1.47095e-05
4.64324e-05
1.62891e-05
1.46755e-05
4.68075e-05
3.04992e-05
5.48392e-05
7.01005e-05
7.01259e-05
5.43722e-05
5.48374e-05
7.00973e-05
7.01228e-05
5.43705e-05
3.13481e-05
1.63417e-05
1.46218e-05
4.73631e-05
1.46473e-05
4.69997e-05
3.19e-05
3.1347e-05
1.6342e-05
1.46221e-05
4.73629e-05
1.46476e-05
4.70031e-05
3.18973e-05
5.4987e-05
7.0151e-05
7.01273e-05
5.54152e-05
5.49853e-05
7.01482e-05
7.01243e-05
5.54135e-05
6.95591e-05
6.9541e-05
6.95611e-05
6.9543e-05
1.90111e-05
6.01951e-05
6.02028e-05
6.00056e-05
6.00139e-05
6.95077e-05
6.95248e-05
6.95096e-05
6.95268e-05
6.94921e-05
6.94758e-05
6.94949e-05
6.94786e-05
6.02929e-05
6.03028e-05
1.95944e-05
6.04721e-05
6.04817e-05
6.94454e-05
6.94607e-05
6.94481e-05
6.94634e-05
1.97733e-05
6.07307e-05
6.07405e-05
6.0561e-05
6.05702e-05
5.59473e-05
7.01493e-05
5.55434e-05
7.0172e-05
3.27278e-05
4.75446e-05
1.46022e-05
1.65334e-05
3.2185e-05
4.78945e-05
1.45852e-05
3.27271e-05
4.75459e-05
1.4602e-05
1.65331e-05
3.21841e-05
4.78985e-05
1.4585e-05
5.60558e-05
7.01968e-05
7.01754e-05
5.64274e-05
5.60552e-05
7.01939e-05
7.01727e-05
5.64267e-05
3.30097e-05
1.66083e-05
4.84022e-05
1.45664e-05
4.80681e-05
1.45749e-05
3.35423e-05
3.30091e-05
1.6608e-05
4.84047e-05
1.45662e-05
4.80685e-05
1.45746e-05
3.35403e-05
6.02975e-05
6.0292e-05
1.9592e-05
6.04773e-05
6.04698e-05
6.94917e-05
6.94755e-05
6.94474e-05
6.94627e-05
1.9771e-05
6.07356e-05
6.07284e-05
6.05656e-05
6.05595e-05
6.94451e-05
6.94602e-05
3.27312e-05
4.75477e-05
1.46033e-05
1.65334e-05
3.21834e-05
4.78986e-05
1.45863e-05
5.59473e-05
7.01486e-05
5.55412e-05
7.01713e-05
3.27327e-05
1.4603e-05
4.75494e-05
1.65345e-05
3.21818e-05
1.4586e-05
4.78937e-05
5.60546e-05
7.01985e-05
7.01773e-05
5.64278e-05
3.30085e-05
1.66083e-05
4.84061e-05
1.45675e-05
4.807e-05
1.4576e-05
3.35452e-05
5.60532e-05
7.01932e-05
7.01721e-05
5.64267e-05
3.30065e-05
1.66095e-05
1.45673e-05
4.8402e-05
1.45758e-05
4.80718e-05
3.35456e-05
5.59386e-05
7.01506e-05
5.55461e-05
7.01734e-05
3.27282e-05
1.46022e-05
4.75457e-05
1.6533e-05
3.21804e-05
1.45851e-05
4.78894e-05
5.59431e-05
7.01478e-05
5.55439e-05
7.01706e-05
3.30056e-05
1.66073e-05
4.84025e-05
1.45663e-05
4.80652e-05
1.45748e-05
3.35446e-05
5.60575e-05
7.01951e-05
7.0174e-05
5.64181e-05
3.30069e-05
1.66078e-05
1.45663e-05
4.84005e-05
1.45748e-05
4.80686e-05
3.35419e-05
5.60557e-05
7.01928e-05
7.01714e-05
5.64227e-05
6.02972e-05
6.0294e-05
1.95944e-05
6.0476e-05
6.04736e-05
6.9493e-05
6.94766e-05
6.94468e-05
6.94622e-05
1.97731e-05
6.0735e-05
6.07316e-05
6.05656e-05
6.05621e-05
6.9446e-05
6.94614e-05
3.2728e-05
1.4603e-05
4.75486e-05
1.6534e-05
3.21853e-05
1.4586e-05
4.7894e-05
5.59404e-05
7.01522e-05
5.55476e-05
7.01748e-05
5.59389e-05
7.01493e-05
5.5546e-05
7.01721e-05
3.30097e-05
1.66083e-05
1.45668e-05
4.84048e-05
1.45753e-05
4.80698e-05
3.35447e-05
3.3009e-05
1.66086e-05
1.45672e-05
4.84021e-05
1.45757e-05
4.80712e-05
3.35423e-05
5.60586e-05
7.01966e-05
7.01756e-05
5.64196e-05
5.60572e-05
7.01942e-05
7.01729e-05
5.64183e-05
6.94921e-05
6.94759e-05
6.9494e-05
6.94777e-05
1.97551e-05
6.07268e-05
6.07353e-05
6.05569e-05
6.05638e-05
6.94456e-05
6.94608e-05
6.94473e-05
6.94626e-05
6.94309e-05
6.94164e-05
6.94335e-05
6.9419e-05
6.08146e-05
6.08244e-05
2.04085e-05
6.09753e-05
6.09856e-05
6.9389e-05
6.94024e-05
6.93915e-05
6.9405e-05
2.06083e-05
6.12083e-05
6.12177e-05
6.10549e-05
6.10656e-05
5.68646e-05
7.01945e-05
5.65222e-05
7.02148e-05
3.43364e-05
4.85676e-05
1.45649e-05
1.68645e-05
3.38177e-05
4.88867e-05
1.45666e-05
3.43357e-05
4.85696e-05
1.45646e-05
1.68642e-05
3.38169e-05
4.88906e-05
1.45664e-05
5.69498e-05
7.02363e-05
7.02176e-05
5.72663e-05
5.69489e-05
7.0233e-05
7.0215e-05
5.72655e-05
3.46057e-05
1.69605e-05
4.93511e-05
1.45813e-05
4.90462e-05
1.45714e-05
3.51113e-05
3.46048e-05
1.69602e-05
4.93552e-05
1.45809e-05
4.90476e-05
1.45711e-05
3.51093e-05
6.08192e-05
6.08127e-05
2.04072e-05
6.09807e-05
6.09726e-05
6.94303e-05
6.94162e-05
6.93912e-05
6.94045e-05
2.06058e-05
6.12134e-05
6.12042e-05
6.10603e-05
6.10533e-05
6.93887e-05
6.94018e-05
3.43404e-05
4.85706e-05
1.45661e-05
1.68645e-05
3.3816e-05
4.88879e-05
1.45678e-05
5.68647e-05
7.01937e-05
5.65201e-05
7.02139e-05
3.43375e-05
1.45658e-05
4.85713e-05
1.68658e-05
3.38145e-05
1.45676e-05
4.88863e-05
5.69484e-05
7.02377e-05
7.02193e-05
5.72663e-05
3.46033e-05
1.69605e-05
4.93536e-05
1.45825e-05
4.9051e-05
1.45727e-05
3.51122e-05
5.69474e-05
7.02322e-05
7.02141e-05
5.72652e-05
3.46045e-05
1.69619e-05
1.45822e-05
4.93516e-05
1.45724e-05
4.90498e-05
3.51122e-05
5.68561e-05
7.01956e-05
5.65244e-05
7.02158e-05
3.43371e-05
1.45649e-05
4.85654e-05
1.68642e-05
3.3815e-05
1.45666e-05
4.88858e-05
5.6861e-05
7.01933e-05
5.65226e-05
7.02138e-05
3.4602e-05
1.69592e-05
4.9349e-05
1.45812e-05
4.90427e-05
1.45713e-05
3.51132e-05
5.69508e-05
7.02343e-05
7.02161e-05
5.72573e-05
3.46028e-05
1.696e-05
1.45812e-05
4.93512e-05
1.45714e-05
4.90443e-05
3.51122e-05
5.69494e-05
7.02328e-05
7.02141e-05
5.72623e-05
6.08187e-05
6.08157e-05
2.04086e-05
6.09806e-05
6.09759e-05
6.94313e-05
6.94168e-05
6.93903e-05
6.94038e-05
2.06079e-05
6.12123e-05
6.12085e-05
6.10599e-05
6.10566e-05
6.93893e-05
6.94028e-05
3.43375e-05
1.45658e-05
4.85709e-05
1.68651e-05
3.38163e-05
1.45675e-05
4.8887e-05
5.68575e-05
7.01971e-05
5.65249e-05
7.02172e-05
5.68562e-05
7.01947e-05
5.65235e-05
7.02149e-05
3.46057e-05
1.69605e-05
1.45818e-05
4.93523e-05
1.4572e-05
4.90461e-05
3.51101e-05
3.46041e-05
1.69608e-05
1.45823e-05
4.93519e-05
1.45724e-05
4.90498e-05
3.51098e-05
5.69509e-05
7.02359e-05
7.02175e-05
5.72583e-05
5.69497e-05
7.02339e-05
7.02153e-05
5.72573e-05
6.94311e-05
6.94167e-05
6.94327e-05
6.94183e-05
2.05882e-05
6.12051e-05
6.12134e-05
6.1051e-05
6.10597e-05
6.93895e-05
6.94028e-05
6.93909e-05
6.94043e-05
6.93754e-05
6.9363e-05
6.93779e-05
6.93654e-05
6.12834e-05
6.12939e-05
2.13008e-05
6.14294e-05
6.1439e-05
6.93384e-05
6.93498e-05
6.93406e-05
6.93522e-05
2.15179e-05
6.16406e-05
6.16494e-05
6.1501e-05
6.15112e-05
5.76336e-05
7.02337e-05
5.73399e-05
7.02518e-05
3.58614e-05
4.95034e-05
1.45957e-05
1.72788e-05
3.53719e-05
4.97958e-05
1.46141e-05
3.58624e-05
4.9505e-05
1.45955e-05
1.72785e-05
3.53711e-05
4.98007e-05
1.46137e-05
5.77004e-05
7.02708e-05
7.02544e-05
5.79736e-05
5.76994e-05
7.0268e-05
7.02519e-05
5.79726e-05
3.6115e-05
1.73951e-05
5.02216e-05
1.46639e-05
4.99418e-05
1.46371e-05
3.65886e-05
3.61124e-05
1.73948e-05
5.02257e-05
1.46638e-05
4.9943e-05
1.46368e-05
3.65901e-05
6.1289e-05
6.12812e-05
2.12996e-05
6.14347e-05
6.14251e-05
6.93747e-05
6.93626e-05
6.93406e-05
6.9352e-05
2.15152e-05
6.16456e-05
6.16354e-05
6.15067e-05
6.14982e-05
6.93379e-05
6.9349e-05
3.58644e-05
4.9508e-05
1.45969e-05
1.72788e-05
3.53706e-05
4.97984e-05
1.46153e-05
5.76331e-05
7.02326e-05
5.73383e-05
7.02509e-05
3.58643e-05
1.45967e-05
4.95064e-05
1.72802e-05
3.53698e-05
1.46151e-05
4.97955e-05
5.76989e-05
7.02717e-05
7.02557e-05
5.79732e-05
3.61125e-05
1.73951e-05
5.02238e-05
1.46654e-05
4.9946e-05
1.46384e-05
3.65913e-05
5.76976e-05
7.02671e-05
7.0251e-05
5.79719e-05
3.61117e-05
1.73966e-05
1.46651e-05
5.02216e-05
1.46382e-05
4.99445e-05
3.65908e-05
5.76257e-05
7.0235e-05
5.73413e-05
7.02522e-05
3.58625e-05
1.45957e-05
4.95014e-05
1.72785e-05
3.53686e-05
1.4614e-05
4.97954e-05
5.76306e-05
7.0234e-05
5.73403e-05
7.0251e-05
3.61105e-05
1.73933e-05
5.02195e-05
1.4664e-05
4.99398e-05
1.46369e-05
3.65902e-05
5.77002e-05
7.02686e-05
7.02526e-05
5.79651e-05
3.61119e-05
1.73946e-05
1.46641e-05
5.02221e-05
1.46372e-05
4.99402e-05
3.65895e-05
5.76995e-05
7.02675e-05
7.02511e-05
5.79699e-05
6.12881e-05
6.12844e-05
2.13012e-05
6.14341e-05
6.14296e-05
6.93757e-05
6.93632e-05
6.93396e-05
6.93512e-05
2.15181e-05
6.16446e-05
6.16399e-05
6.15059e-05
6.15021e-05
6.93384e-05
6.935e-05
3.58617e-05
1.45967e-05
4.95072e-05
1.72794e-05
3.53706e-05
1.46152e-05
4.97963e-05
5.76266e-05
7.02364e-05
5.73413e-05
7.02539e-05
5.76256e-05
7.02344e-05
5.73402e-05
7.02518e-05
3.61145e-05
1.73951e-05
1.46649e-05
5.02224e-05
1.46378e-05
4.99426e-05
3.65897e-05
3.6113e-05
1.73954e-05
1.46653e-05
5.02225e-05
1.46383e-05
4.99455e-05
3.65879e-05
5.77e-05
7.02702e-05
7.02541e-05
5.79659e-05
5.7699e-05
7.02681e-05
7.02521e-05
5.7965e-05
6.93759e-05
6.93635e-05
6.93773e-05
6.93648e-05
2.1496e-05
6.16364e-05
6.16452e-05
6.14977e-05
6.15066e-05
6.93388e-05
6.93503e-05
6.93401e-05
6.93516e-05
6.93256e-05
6.93151e-05
6.93278e-05
6.93172e-05
6.17086e-05
6.17183e-05
2.22554e-05
6.18413e-05
6.185e-05
6.92931e-05
6.93027e-05
6.92952e-05
6.93048e-05
2.24882e-05
6.20334e-05
6.20418e-05
6.19066e-05
6.19162e-05
5.82859e-05
7.02687e-05
5.80309e-05
7.02841e-05
3.72905e-05