/*--------------------------------*- C++ -*----------------------------------*\
| =========                 |                                                 |
| \\      /  F ield         | OpenFOAM: The Open Source CFD Toolbox           |
|  \\    /   O peration     | Version:  2312                                  |
|   \\  /    A nd           | Website:  www.openfoam.com                      |
|    \\/     M anipulation  |                                                 |
\*---------------------------------------------------------------------------*/
FoamFile
{
    version     2.0;
    format      ascii;
    arch        "LSB;label=32;scalar=64";
    class       volScalarField;
    location    "600";
    object      nut;
}
// * * * * * * * * * * * * * * * * * * * * * * * * * * * * * * * * * * * * * //

dimensions      [0 2 -1 0 0 0 0];

internalField   nonuniform List<scalar> 
42840
(
0.000145954
9.86066e-05
9.86079e-05
8.18095e-05
0.000141925
9.62716e-05
9.6273e-05
8.19142e-05
0.000137983
9.44565e-05
9.44569e-05
8.2444e-05
0.000134145
9.31586e-05
9.31601e-05
8.34368e-05
0.000130466
9.23662e-05
9.23697e-05
8.48562e-05
0.000126971
9.20604e-05
9.2065e-05
8.64732e-05
0.000123697
9.22114e-05
9.22174e-05
8.84823e-05
0.00012069
9.27887e-05
9.2796e-05
9.05854e-05
0.000117952
9.37586e-05
9.37677e-05
9.28348e-05
0.000115536
9.50865e-05
9.50968e-05
9.52683e-05
0.000113455
9.67309e-05
9.67437e-05
9.77192e-05
0.000111726
9.86584e-05
9.86709e-05
0.000100356
0.000110359
0.000100829
0.00010084
0.0001029
0.000109358
0.000103213
0.000103227
0.000105539
0.000108724
0.000105781
0.000105797
0.000108262
0.000108455
0.000108502
0.00010852
0.000110931
0.000108543
0.000111349
0.000111368
0.000113611
0.000108978
0.000114292
0.000114316
0.000116296
0.000109747
0.00011732
0.000117344
0.000118976
0.000110836
0.000120415
0.000120442
0.000121863
0.000112229
0.00012356
0.000123586
0.000124582
0.000113907
0.000126735
0.000126756
0.00012718
0.000115852
0.000129922
0.000129941
0.000129839
0.000118041
0.00013311
0.000133128
0.000132336
0.000120456
0.000136287
0.000136303
0.000134835
8.20178e-05
8.18967e-05
9.85814e-05
9.85707e-05
9.67837e-05
9.67705e-05
8.20246e-05
8.18845e-05
9.86047e-05
9.85726e-05
9.68062e-05
9.67739e-05
9.85831e-05
9.68031e-05
9.67837e-05
8.20231e-05
8.18709e-05
9.85959e-05
9.68074e-05
9.67956e-05
8.20123e-05
8.21049e-05
8.23397e-05
9.62488e-05
9.62375e-05
9.48394e-05
9.48275e-05
8.21168e-05
8.23274e-05
9.62702e-05
9.62393e-05
9.48608e-05
9.48303e-05
9.62506e-05
9.48589e-05
9.48398e-05
8.20714e-05
8.23082e-05
9.62613e-05
9.4862e-05
9.4851e-05
8.25043e-05
8.26142e-05
8.32282e-05
9.44341e-05
9.44241e-05
9.34147e-05
9.34041e-05
8.26259e-05
8.31982e-05
9.44545e-05
9.4426e-05
9.34354e-05
9.34052e-05
9.44367e-05
9.34338e-05
9.34169e-05
8.26192e-05
8.32005e-05
9.44462e-05
9.34363e-05
9.34265e-05
8.34045e-05
8.36583e-05
8.44924e-05
9.31384e-05
9.31276e-05
9.25e-05
9.24903e-05
8.35878e-05
8.45047e-05
9.31573e-05
9.31303e-05
9.25195e-05
9.24913e-05
9.31415e-05
9.25178e-05
9.25021e-05
8.35868e-05
8.44451e-05
9.31504e-05
9.25219e-05
9.25115e-05
8.4736e-05
8.50146e-05
8.61483e-05
9.2349e-05
9.23377e-05
9.20744e-05
9.20672e-05
8.50423e-05
8.6142e-05
9.23681e-05
9.23412e-05
9.20954e-05
9.20693e-05
9.2352e-05
9.20928e-05
9.20783e-05
8.49743e-05
8.61582e-05
9.23604e-05
9.20987e-05
9.20878e-05
8.63752e-05
8.67253e-05
8.8037e-05
9.20433e-05
9.20355e-05
9.21165e-05
9.21082e-05
8.67148e-05
8.80454e-05
9.20632e-05
9.20391e-05
9.21359e-05
9.21137e-05
9.20474e-05
9.21322e-05
9.21201e-05
8.66856e-05
8.80604e-05
9.20554e-05
9.21404e-05
9.21293e-05
8.8293e-05
8.86624e-05
9.01822e-05
9.21975e-05
9.21887e-05
9.25943e-05
9.25842e-05
8.86466e-05
9.01914e-05
9.22156e-05
9.21942e-05
9.26121e-05
9.25924e-05
9.22012e-05
9.26058e-05
9.25967e-05
8.86402e-05
9.02101e-05
9.22089e-05
9.26167e-05
9.26053e-05
9.04986e-05
9.08502e-05
9.25054e-05
9.27791e-05
9.2769e-05
9.34727e-05
9.34618e-05
9.08163e-05
9.24786e-05
9.27948e-05
9.27764e-05
9.34878e-05
9.34714e-05
9.27821e-05
9.34818e-05
9.34736e-05
9.08709e-05
9.25074e-05
9.2789e-05
9.3494e-05
9.34817e-05
9.28063e-05
9.32185e-05
9.4953e-05
9.37514e-05
9.37415e-05
9.4717e-05
9.47065e-05
9.31913e-05
9.51993e-05
9.37663e-05
9.37501e-05
9.47315e-05
9.47155e-05
9.37542e-05
9.47244e-05
9.47183e-05
9.31854e-05
9.50377e-05
9.37607e-05
9.4737e-05
9.47238e-05
9.52452e-05
9.56854e-05
9.75066e-05
9.50825e-05
9.50719e-05
9.62903e-05
9.62767e-05
9.5401e-05
9.74214e-05
9.50957e-05
9.50812e-05
9.63009e-05
9.62881e-05
9.50845e-05
9.62923e-05
9.62884e-05
9.56167e-05
9.73186e-05
9.5089e-05
9.63074e-05
9.6293e-05
9.77191e-05
9.80787e-05
9.99349e-05
9.67316e-05
9.67185e-05
9.8153e-05
9.81386e-05
9.8037e-05
9.98375e-05
9.67416e-05
9.67296e-05
9.81635e-05
9.81489e-05
9.67309e-05
9.8154e-05
9.81504e-05
9.81797e-05
9.98047e-05
9.67338e-05
9.81679e-05
9.81528e-05
0.000100293
0.00010063
0.000102435
9.86597e-05
9.86467e-05
0.000100269
0.000100254
0.000100628
0.000102421
9.86699e-05
9.86568e-05
0.000100279
0.000100261
9.866e-05
0.000100267
0.000100267
0.000100686
0.000102596
9.86605e-05
0.00010028
0.000100266
0.00010286
0.000103326
0.00010511
0.000100834
0.00010082
0.000102603
0.000102589
0.000103301
0.000105194
0.000100843
0.000100827
0.000102613
0.000102596
0.000100834
0.000102601
0.000102604
0.000103076
0.000105227
0.000100832
0.000102614
0.000102601
0.00010551
0.000105881
0.000107812
0.000103218
0.000103205
0.000105129
0.000105114
0.000105853
0.000107736
0.000103226
0.000103213
0.000105137
0.000105124
0.000103221
0.000105125
0.000105129
0.000105782
0.000107744
0.000103217
0.000105141
0.000105125
0.000108161
0.000108523
0.000110634
0.000105786
0.000105774
0.000107816
0.0001078
0.000108542
0.000110407
0.000105793
0.000105784
0.000107822
0.000107812
0.000105789
0.00010781
0.000107816
0.000108581
0.000110519
0.000105784
0.000107829
0.00010781
0.000110818
0.000111117
0.00011332
0.000108508
0.000108494
0.000110634
0.000110616
0.000111186
0.000113097
0.000108514
0.000108505
0.000110639
0.000110629
0.000108512
0.000110628
0.000110635
0.000111207
0.000113138
0.000108505
0.000110647
0.000110627
0.000113529
0.000113764
0.000116183
0.000111355
0.000111339
0.000113557
0.000113539
0.000113902
0.000115772
0.00011136
0.000111353
0.000113562
0.000113553
0.000111359
0.00011355
0.000113562
0.000113928
0.000115802
0.000111351
0.000113572
0.000113553
0.000116214
0.000116321
0.000118878
0.000114302
0.000114285
0.000116565
0.000116549
0.000116542
0.000118555
0.000114306
0.000114301
0.000116569
0.000116561
0.000114308
0.000116558
0.000116571
0.000116584
0.000118878
0.000114299
0.000116582
0.000116563
0.000118893
0.00011897
0.000121516
0.000117329
0.000117314
0.000119646
0.000119629
0.000119199
0.000121298
0.000117333
0.000117327
0.000119649
0.000119642
0.000117336
0.000119637
0.000119653
0.000118976
0.00012153
0.000117327
0.000119664
0.000119646
0.000121367
0.000121666
0.000124149
0.000120424
0.00012041
0.00012278
0.000122764
0.000121823
0.000123985
0.000120428
0.000120423
0.000122782
0.000122775
0.000120434
0.000122772
0.000122788
0.00012166
0.000124182
0.000120426
0.000122799
0.000122782
0.000123915
0.000124255
0.000126762
0.000123569
0.000123554
0.000125947
0.000125931
0.000124493
0.00012657
0.000123572
0.000123566
0.000125949
0.000125941
0.000123578
0.00012594
0.000125956
0.000124288
0.000126806
0.000123571
0.000125964
0.000125951
0.000126563
0.000126903
0.000129382
0.000126743
0.000126727
0.000129131
0.000129116
0.000127023
0.000129181
0.000126744
0.000126737
0.000129133
0.000129125
0.000126751
0.000129126
0.000129141
0.000126948
0.000129388
0.000126746
0.000129147
0.000129137
0.000129057
0.000129478
0.000131894
0.000129928
0.000129914
0.000132319
0.000132304
0.00012966
0.000131703
0.00012993
0.000129923
0.00013232
0.000132313
0.000129938
0.000132313
0.00013233
0.0001295
0.000131827
0.000129934
0.000132334
0.000132327
0.000131657
0.000132064
0.000134349
0.000133115
0.0001331
0.000135497
0.000135484
0.000132255
0.000134208
0.000133116
0.00013311
0.000135498
0.000135491
0.000133125
0.000135494
0.000135509
0.000132169
0.000134339
0.000133121
0.000135512
0.000135506
0.000134244
0.000134597
0.00013629
0.000136277
0.000134781
0.000136291
0.000136284
0.000136301
0.000134736
0.000136297
7.20369e-05
4.95762e-05
4.95891e-05
7.12114e-05
2.36161e-05
2.3613e-05
7.20341e-05
4.9571e-05
4.95839e-05
7.12066e-05
0.00014595
0.000145945
0.000145942
0.000142915
0.00014291
0.000142905
0.000142903
6.99486e-05
6.76164e-05
0.000122024
9.79686e-05
6.82576e-05
0.000121039
6.89001e-05
2.36151e-05
2.36121e-05
6.99282e-05
0.000122006
6.76395e-05
9.79746e-05
0.00012104
6.82334e-05
6.8923e-05
6.20497e-05
6.20395e-05
8.20298e-05
6.23547e-05
6.23655e-05
7.37862e-05
4.95946e-05
7.30527e-05
4.96064e-05
2.36046e-05
2.36019e-05
7.37853e-05
4.95894e-05
7.30499e-05
4.96012e-05
0.00014192
0.000141916
0.000141914
0.000138944
0.000138939
0.000138934
0.000138933
7.29247e-05
6.94029e-05
0.000118295
9.57655e-05
7.18822e-05
7.00335e-05
0.000117374
2.36037e-05
2.3601e-05
7.29262e-05
0.000118276
6.94452e-05
9.57695e-05
7.19044e-05
0.000117374
6.9999e-05
6.29246e-05
6.29152e-05
8.22342e-05
6.32102e-05
6.32155e-05
7.53056e-05
4.96105e-05
7.46767e-05
4.96214e-05
2.35942e-05
2.35918e-05
7.53196e-05
4.96054e-05
7.46611e-05
4.96161e-05
0.000137978
0.000137973
0.000137972
0.000135091
0.000135087
0.000135081
0.00013508
7.58625e-05
7.10985e-05
0.000114861
9.4081e-05
7.48951e-05
7.16986e-05
0.000114042
2.35933e-05
2.35909e-05
7.58939e-05
0.000114841
7.11333e-05
9.40839e-05
7.48848e-05
0.00011404
7.16682e-05
6.37328e-05
6.37157e-05
8.29308e-05
6.39884e-05
6.39983e-05
7.66672e-05
4.96248e-05
7.60997e-05
4.96341e-05
2.35848e-05
2.35827e-05
7.6679e-05
4.96197e-05
7.60839e-05
4.96286e-05
0.000134141
0.000134135
0.000134136
0.000131372
0.000131368
0.000131362
0.000131363
7.87822e-05
7.27046e-05
0.000111743
9.29119e-05
7.7836e-05
7.32569e-05
0.000111007
2.35839e-05
2.35818e-05
7.87794e-05
0.000111724
7.2737e-05
9.29149e-05
7.78507e-05
0.000111008
7.32333e-05
6.44658e-05
6.44616e-05
8.40369e-05
6.47102e-05
6.47123e-05
7.78861e-05
4.96372e-05
7.73699e-05
4.96453e-05
2.35764e-05
2.35746e-05
7.78968e-05
4.96322e-05
7.73542e-05
4.96395e-05
0.000130461
0.000130456
0.000130456
0.000127829
0.000127825
0.000127819
0.000127819
8.16048e-05
7.42063e-05
0.000109005
9.22443e-05
8.06962e-05
7.47324e-05
0.000108367
2.35754e-05
2.35736e-05
8.16062e-05
0.000108992
7.4241e-05
9.2249e-05
8.07071e-05
0.000108372
7.47141e-05
6.51545e-05
6.51478e-05
8.54746e-05
6.53785e-05
6.53793e-05
7.89891e-05
4.96485e-05
7.85171e-05
4.96555e-05
2.35688e-05
2.35673e-05
7.89988e-05
4.96431e-05
7.85027e-05
4.96499e-05
0.000126967
0.000126962
0.000126962
0.000124497
0.000124494
0.000124489
0.000124488
8.43494e-05
7.56267e-05
0.00010667
9.20552e-05
8.34333e-05
7.61242e-05
0.000106137
2.35678e-05
2.35663e-05
8.43457e-05
0.00010666
7.56586e-05
9.2062e-05
8.34393e-05
0.000106145
7.61056e-05
6.57919e-05
6.57861e-05
8.73274e-05
6.60016e-05
6.60021e-05
8.00017e-05
4.96592e-05
7.95668e-05
4.96648e-05
2.35622e-05
2.3561e-05
8.00082e-05
4.96535e-05
7.95534e-05
4.96595e-05
0.000123693
0.000123689
0.000123688
0.000121423
0.000121419
0.000121416
0.000121415
8.69437e-05
7.69671e-05
0.000104763
9.23159e-05
8.60715e-05
7.74385e-05
0.000104338
2.35612e-05
2.356e-05
8.69399e-05
0.000104756
7.70003e-05
9.23257e-05
8.60736e-05
0.000104347
7.7421e-05
6.63865e-05
6.63819e-05
8.93083e-05
6.65851e-05
6.65838e-05
8.09365e-05
4.96706e-05
8.05382e-05
4.96734e-05
2.35564e-05
2.35557e-05
8.09407e-05
4.96648e-05
8.05255e-05
4.96681e-05
0.000120685
0.000120683
0.000120681
0.000118606
0.000118601
0.0001186
0.000118598
8.94316e-05
7.82317e-05
0.0001033
9.29955e-05
8.85936e-05
7.86852e-05
0.000102987
2.35555e-05
2.35547e-05
8.94482e-05
0.000103294
7.82665e-05
9.30061e-05
8.85883e-05
0.000102999
7.86677e-05
6.69454e-05
6.69418e-05
9.17169e-05
6.71335e-05
6.71312e-05
8.18109e-05
4.96812e-05
8.14343e-05
4.9683e-05
2.35517e-05
2.35513e-05
8.18184e-05
4.96758e-05
8.14279e-05
4.96777e-05
0.000117946
0.000117945
0.000117944
0.000116109
0.000116104
0.000116104
0.000116102
9.18181e-05
7.94389e-05
0.000102287
9.40588e-05
9.10009e-05
7.98642e-05
0.000102086
2.35508e-05
2.35504e-05
9.18436e-05
0.000102283
7.94715e-05
9.40704e-05
9.09817e-05
0.000102098
7.98492e-05
6.74733e-05
6.74699e-05
9.40371e-05
6.76518e-05
6.76495e-05
8.263e-05
4.96918e-05
8.22763e-05
4.96936e-05
2.3548e-05
2.35479e-05
8.26329e-05
4.96865e-05
8.22697e-05
4.96883e-05
0.000115529
0.00011553
0.000115529
0.000113943
0.000113937
0.000113939
0.000113937
9.41105e-05
8.05891e-05
0.000101716
9.54688e-05
9.32955e-05
8.09894e-05
0.000101628
2.35471e-05
2.3547e-05
9.41377e-05
0.000101716
8.06154e-05
9.54836e-05
9.32794e-05
0.00010164
8.09766e-05
6.79737e-05
6.79704e-05
9.65131e-05
6.81427e-05
6.81411e-05
8.34042e-05
4.97034e-05
8.30678e-05
4.97053e-05
2.35453e-05
2.35456e-05
8.34048e-05
4.9698e-05
8.30628e-05
4.97001e-05
0.000113448
0.00011345
0.000113449
0.000112125
0.000112118
0.000112121
0.000112119
9.6315e-05
8.1687e-05
0.00010158
9.71886e-05
9.54972e-05
8.20697e-05
0.000101595
2.35444e-05
2.35447e-05
9.63404e-05
0.000101579
8.17059e-05
9.72029e-05
9.54845e-05
0.000101607
8.20531e-05
6.84508e-05
6.84469e-05
9.89509e-05
6.86114e-05
6.86094e-05
8.41353e-05
4.97158e-05
8.38187e-05
4.97182e-05
2.35436e-05
2.35442e-05
8.41365e-05
4.97105e-05
8.38124e-05
4.97129e-05
0.000111719
0.000111722
0.000111721
0.000110666
0.000110659
0.000110662
0.000110661
9.84304e-05
8.27243e-05
0.000101853
9.91811e-05
9.76134e-05
8.31061e-05
0.000101969
2.35428e-05
2.35434e-05
9.84574e-05
0.000101853
8.27418e-05
9.91952e-05
9.75984e-05
0.00010198
8.309e-05
6.89057e-05
6.89019e-05
0.000101522
6.90599e-05
6.90575e-05
8.48363e-05
4.97294e-05
8.45318e-05
4.97323e-05
2.35429e-05
2.3544e-05
8.48347e-05
4.97241e-05
8.45245e-05
4.9727e-05
0.000110351
0.000110355
0.000110354
0.000109574
0.000109566
0.00010957
0.000109569
0.000100474
8.37392e-05
0.000102515
0.000101408
9.96538e-05
8.40914e-05
0.000102726
2.35421e-05
2.35432e-05
0.000100496
0.000102516
8.37425e-05
0.00010142
9.96398e-05
0.000102737
8.40907e-05
6.93415e-05
6.93375e-05
0.000104237
6.949e-05
6.9487e-05
8.551e-05
4.97443e-05
8.52101e-05
4.97477e-05
2.35433e-05
2.35447e-05
8.55057e-05
4.9739e-05
8.5207e-05
4.97424e-05
0.00010935
0.000109355
0.000109354
0.000108849
0.00010884
0.000108845
0.000108844
0.000102443
8.46989e-05
0.000103542
0.00010384
0.000101625
8.50417e-05
0.00010384
2.35425e-05
2.35439e-05
0.000102464
0.000103544
8.46984e-05
0.000103856
0.000101614
0.000103851
8.50516e-05
6.97602e-05
6.97541e-05
0.000106838
6.9903e-05
6.99013e-05
8.61565e-05
4.97605e-05
8.58668e-05
4.97646e-05
2.35446e-05
2.35464e-05
8.61538e-05
4.97552e-05
8.58639e-05
4.97592e-05
0.000108716
0.000108722
0.000108721
0.000108489
0.000108481
0.000108487
0.000108485
0.000104352
8.56179e-05
0.000104902
0.00010645
0.000103529
8.59679e-05
0.000105282
2.35439e-05
2.35456e-05
0.000104369
0.000104909
8.56283e-05
0.000106467
0.000103525
0.000105297
8.59613e-05
7.01621e-05
7.01552e-05
0.000109458
7.03012e-05
7.02999e-05
8.67848e-05
4.97783e-05
8.65014e-05
4.97829e-05
2.35469e-05
2.3549e-05
8.67814e-05
4.97729e-05
8.64983e-05
4.97775e-05
0.000108447
0.000108454
0.000108452
0.000108488
0.00010848
0.000108487
0.000108485
0.000106199
8.64972e-05
0.000106577
0.000109205
0.000105382
8.68332e-05
0.000107033
2.35462e-05
2.35483e-05
0.000106219
0.000106585
8.65092e-05
0.000109223
0.000105379
0.000107047
8.68474e-05
7.05486e-05
7.05419e-05
0.000112162
7.06852e-05
7.06837e-05
8.73949e-05
4.97974e-05
8.71185e-05
4.98028e-05
2.35501e-05
2.35525e-05
8.73914e-05
4.97921e-05
8.71154e-05
4.97973e-05
0.000108535
0.000108543
0.000108541
0.000108838
0.000108829
0.000108838
0.000108835
0.000107997
8.73571e-05
0.000108536
0.000112077
0.000107184
8.76999e-05
0.000109058
2.35494e-05
2.35518e-05
0.000108014
0.000108547
8.73672e-05
0.000112098
0.000107184
0.000109075
8.76988e-05
7.09216e-05
7.09149e-05
0.000114857
7.10562e-05
7.10538e-05
8.79913e-05
4.98145e-05
8.77206e-05
4.98269e-05
2.35542e-05
2.35569e-05
8.79867e-05
4.98126e-05
8.77167e-05
4.98184e-05
0.000108969
0.000108979
0.000108977
0.000109525
0.000109515
0.000109526
0.000109523
0.000109743
8.81778e-05
0.000110749
0.000115043
0.000108933
8.85048e-05
0.000111331
2.35535e-05
2.35562e-05
0.000109757
0.000110763
8.81862e-05
0.000115068
0.000108942
0.000111352
8.85196e-05
7.12825e-05
7.12753e-05
0.000117596
7.14134e-05
7.14111e-05
8.85773e-05
4.98362e-05
8.83083e-05
4.9849e-05
2.35592e-05
2.35623e-05
8.85643e-05
4.98345e-05
8.83113e-05
4.98409e-05
0.000109738
0.000109749
0.000109747
0.000110535
0.000110525
0.000110537
0.000110535
0.000111439
8.89721e-05
0.000113191
0.000118089
0.000110647
8.92962e-05
0.000113826
2.35584e-05
2.35613e-05
0.000111451
0.000113208
8.89815e-05
0.000118116
0.000110661
0.00011385
8.93107e-05
7.16317e-05
7.1624e-05
0.000120229
7.17586e-05
7.1756e-05
8.91405e-05
4.98594e-05
8.88892e-05
4.98728e-05
2.35649e-05
2.35682e-05
8.91373e-05
4.98578e-05
8.88857e-05
4.98647e-05
0.000110826
0.000110838
0.000110837
0.000111853
0.000111843
0.000111856
0.000111855
0.000113089
8.97445e-05
0.000115833
0.000121198
0.000112316
9.00653e-05
0.000116514
2.3564e-05
2.35672e-05
0.0001131
0.000115853
8.97492e-05
0.000121227
0.000112333
0.000116542
9.00729e-05
7.1969e-05
7.19619e-05
0.000122572
7.20918e-05
7.20894e-05
8.97104e-05
4.98839e-05
8.94521e-05
4.98978e-05
2.35712e-05
2.35748e-05
8.96993e-05
4.98823e-05
8.9451e-05
4.98898e-05
0.000112219
0.000112232
0.000112231
0.000113462
0.000113451
0.000113465
0.000113465
0.000114695
9.04892e-05
0.000118654
0.000124353
0.000113941
9.08119e-05
0.000119379
2.35703e-05
2.35737e-05
0.000114706
0.000118676
9.04931e-05
0.000124378
0.000113957
0.000119408
9.08116e-05
7.2295e-05
7.22874e-05
0.000125137
7.24137e-05
7.24134e-05
9.02577e-05
4.99129e-05
8.99992e-05
4.99209e-05
2.35782e-05
2.35819e-05
9.02463e-05
4.99079e-05
9.00077e-05
4.99159e-05
0.000113897
0.000113911
0.00011391
0.000115342
0.000115331
0.000115346
0.000115346
0.000116256
9.12107e-05
0.000121645
0.000127532
0.000115524
9.15078e-05
0.00012241
2.35773e-05
2.35809e-05
0.000116268
0.000121666
9.12117e-05
0.000127555
0.000115538
0.000122439
9.15231e-05
7.26102e-05
7.26011e-05
0.000127819
7.27246e-05
7.27273e-05
9.07933e-05
4.99394e-05
9.05389e-05
4.99479e-05
2.35857e-05
2.35897e-05
9.07832e-05
4.99345e-05
9.05465e-05
4.9943e-05
0.000115841
0.000115856
0.000115856
0.000117472
0.000117462
0.000117477
0.000117478
0.00011777
9.1909e-05
0.000124789
0.00013072
0.000117059
9.22012e-05
0.000125589
2.35848e-05
2.35887e-05
0.000117779
0.00012481
9.19073e-05
0.00013074
0.000117069
0.000125615
9.22229e-05
7.29153e-05
7.29056e-05
0.000130405
7.30254e-05
7.30267e-05
9.13071e-05
4.99669e-05
9.10774e-05
4.99759e-05
2.35938e-05
2.3598e-05
9.13059e-05
4.99621e-05
9.10746e-05
4.99709e-05
0.000118032
0.000118047
0.000118048
0.000119832
0.000119823
0.000119838
0.00011984
0.000119234
9.25819e-05
0.000128062
0.000133905
0.000118547
9.28648e-05
0.00012889
2.35929e-05
2.35971e-05
0.000119239
0.000128079
9.25667e-05
0.000133924
0.000118552
0.000128913
9.28876e-05
7.32093e-05
7.32008e-05
0.000132953
7.33183e-05
7.33149e-05
9.18171e-05
4.99952e-05
9.15928e-05
5.00057e-05
2.36025e-05
2.36068e-05
9.18144e-05
4.99904e-05
9.15889e-05
4.99994e-05
0.000120446
0.000120462
0.000120464
0.000120645
9.32286e-05
0.000131436
0.000137078
0.000119986
9.35088e-05
0.000132285
2.36016e-05
2.36059e-05
0.000120649
0.000131451
9.32157e-05
0.000137094
0.00011999
0.000132306
9.3531e-05
7.34917e-05
7.34862e-05
0.000135458
7.3599e-05
7.35995e-05
2.36182e-05
2.36152e-05
2.36162e-05
2.36131e-05
6.20665e-05
6.20646e-05
8.18913e-05
6.23619e-05
6.23583e-05
2.36095e-05
2.36124e-05
2.36074e-05
2.36104e-05
8.20294e-05
6.27936e-05
6.27966e-05
6.25101e-05
6.25073e-05
7.20205e-05
4.95703e-05
4.95832e-05
7.12206e-05
6.99445e-05
6.76417e-05
0.000122008
9.79481e-05
6.82369e-05
0.000121037
6.89241e-05
6.99378e-05
6.7629e-05
0.000122008
9.7935e-05
6.82345e-05
0.000121038
6.89199e-05
7.21624e-05
4.95981e-05
4.95859e-05
7.29428e-05
7.21732e-05
4.9592e-05
4.95798e-05
7.29252e-05
7.04031e-05
9.73508e-05
6.91375e-05
0.000119169
6.85543e-05
0.000120108
7.1436e-05
7.0403e-05
9.73391e-05
6.91317e-05
0.000119169
6.85431e-05
0.000120108
7.14274e-05
6.20561e-05
6.20515e-05
8.18384e-05
6.23561e-05
6.23797e-05
2.36175e-05
2.36145e-05
2.36073e-05
2.36102e-05
8.19751e-05
6.2791e-05
6.27977e-05
6.25026e-05
6.2496e-05
2.36088e-05
2.36117e-05
6.99361e-05
6.76476e-05
0.000122017
9.79708e-05
6.82281e-05
0.000121046
6.89199e-05
7.20325e-05
4.95668e-05
4.95798e-05
7.12049e-05
6.99527e-05
0.000122
6.76109e-05
9.79382e-05
0.00012103
6.8254e-05
6.8907e-05
7.21601e-05
4.95929e-05
4.95808e-05
7.29408e-05
7.04042e-05
9.7373e-05
6.91313e-05
0.000119178
6.85526e-05
0.000120118
7.1433e-05
7.21574e-05
4.95886e-05
4.95764e-05
7.29386e-05
7.03915e-05
9.7342e-05
0.000119163
6.9148e-05
0.000120101
6.85242e-05
7.14461e-05
7.20114e-05
4.95718e-05
4.95849e-05
7.12167e-05
6.99457e-05
0.000122015
6.76334e-05
9.79496e-05
0.000121044
6.82202e-05
6.89086e-05
7.2008e-05
4.95676e-05
4.95805e-05
7.12265e-05
7.03867e-05
9.73738e-05
6.9167e-05
0.000119172
6.85293e-05
0.000120125
7.1442e-05
7.21657e-05
4.95937e-05
4.95813e-05
7.29162e-05
7.03847e-05
9.73521e-05
0.000119176
6.91172e-05
0.000120116
6.85496e-05
7.14417e-05
7.21766e-05
4.95893e-05
4.95772e-05
7.29142e-05
6.20419e-05
6.20483e-05
8.18563e-05
6.2368e-05
6.23753e-05
2.36174e-05
2.36144e-05
2.36064e-05
2.36093e-05
8.2012e-05
6.27907e-05
6.28123e-05
6.24871e-05
6.24983e-05
2.36088e-05
2.36116e-05
6.99269e-05
0.000122006
6.7614e-05
9.79626e-05
0.000121041
6.82488e-05
6.89225e-05
7.2016e-05
4.95721e-05
4.95849e-05
7.12191e-05
7.20123e-05
4.95662e-05
4.95789e-05
7.12163e-05
7.04052e-05
9.73754e-05
0.000119171
6.91289e-05
0.000120107
6.85527e-05
7.1425e-05
7.04021e-05
9.7364e-05
0.000119174
6.91473e-05
0.000120107
6.85254e-05
7.14154e-05
7.21681e-05
4.95937e-05
4.95816e-05
7.29199e-05
7.21648e-05
4.95879e-05
4.95758e-05
7.29166e-05
2.36159e-05
2.36129e-05
2.36147e-05
2.36117e-05
8.18384e-05
6.27901e-05
6.2785e-05
6.25028e-05
6.24865e-05
2.36072e-05
2.36101e-05
2.36061e-05
2.36089e-05
2.36068e-05
2.36041e-05
2.36048e-05
2.3602e-05
6.29356e-05
6.29368e-05
8.20665e-05
6.32133e-05
6.32102e-05
2.35989e-05
2.36015e-05
2.35968e-05
2.35994e-05
8.23309e-05
6.36132e-05
6.36106e-05
6.33456e-05
6.3342e-05
7.37707e-05
4.9589e-05
7.30622e-05
4.96005e-05
7.29205e-05
6.94372e-05
0.000118276
9.57457e-05
7.18998e-05
7.00036e-05
0.000117372
7.29161e-05
6.94299e-05
0.000118276
9.57335e-05
7.19025e-05
7.00023e-05
0.000117371
7.38837e-05
4.96141e-05
4.9603e-05
7.45633e-05
7.38944e-05
4.96081e-05
4.95971e-05
7.45615e-05
7.34017e-05
9.52769e-05
7.08494e-05
0.00011565
7.03012e-05
0.000116518
7.4411e-05
7.3405e-05
9.52657e-05
7.08435e-05
0.000115648
7.02909e-05
0.000116518
7.44003e-05
6.29298e-05
6.29255e-05
8.20479e-05
6.32068e-05
6.3218e-05
2.36061e-05
2.36033e-05
2.35967e-05
2.35993e-05
8.22866e-05
6.36018e-05
6.36128e-05
6.33395e-05
6.3333e-05
2.35982e-05
2.36007e-05
7.29346e-05
6.94348e-05
0.000118287
9.57672e-05
7.18922e-05
7.0004e-05
0.00011738
7.37845e-05
4.95854e-05
7.30456e-05
4.9597e-05
7.29369e-05
0.000118269
6.94122e-05
9.57359e-05
7.18854e-05
0.000117366
7.00171e-05
7.38809e-05
4.96089e-05
4.95979e-05
7.45795e-05
7.33905e-05
9.5298e-05
7.08484e-05
0.000115659
7.02948e-05
0.000116529
7.44316e-05
7.38782e-05
4.96047e-05
4.95936e-05
7.45776e-05
7.33876e-05
9.52682e-05
0.000115644
7.08629e-05
0.000116512
7.02729e-05
7.44279e-05
7.37616e-05
4.95902e-05
7.3054e-05
4.96022e-05
7.29223e-05
0.000118285
6.9437e-05
9.57466e-05
7.18827e-05
0.000117378
6.9985e-05
7.37601e-05
4.95864e-05
7.30638e-05
4.95979e-05
7.33845e-05
9.52988e-05
7.08816e-05
0.000115654
7.02646e-05
0.000116537
7.4395e-05
7.38854e-05
4.96096e-05
4.95983e-05
7.45388e-05
7.33909e-05
9.52777e-05
0.000115657
7.08411e-05
0.000116527
7.02989e-05
7.4419e-05
7.38958e-05
4.96057e-05
4.95946e-05
7.4552e-05
6.29198e-05
6.29236e-05
8.2042e-05
6.32045e-05
6.32173e-05
2.3606e-05
2.36033e-05
2.35958e-05
2.35984e-05
8.23048e-05
6.36092e-05
6.36207e-05
6.33314e-05
6.33401e-05
2.35981e-05
2.36007e-05
7.2917e-05
0.000118277
6.94115e-05
9.57575e-05
7.18984e-05
0.000117377
7.00187e-05
7.37645e-05
4.95907e-05
7.3056e-05
4.96021e-05
7.37617e-05
4.95848e-05
7.30529e-05
4.95963e-05
7.33929e-05
9.52998e-05
0.000115653
7.08537e-05
0.000116518
7.03029e-05
7.44244e-05
7.33951e-05
9.52881e-05
0.000115657
7.08632e-05
0.00011652
7.02721e-05
7.44119e-05
7.38874e-05
4.96098e-05
4.95988e-05
7.45563e-05
7.38843e-05
4.9604e-05
4.95931e-05
7.45536e-05
2.36045e-05
2.36018e-05
2.36033e-05
2.36007e-05
8.21376e-05
6.3605e-05
6.36097e-05
6.33425e-05
6.33246e-05
2.35967e-05
2.35992e-05
2.35955e-05
2.3598e-05
2.35964e-05
2.3594e-05
2.35944e-05
2.35919e-05
6.37405e-05
6.37382e-05
8.27423e-05
6.39948e-05
6.39945e-05
2.35893e-05
2.35916e-05
2.35872e-05
2.35895e-05
8.3137e-05
6.4362e-05
6.43588e-05
6.4114e-05
6.41169e-05
7.53055e-05
4.9605e-05
7.4674e-05
4.96156e-05
7.5892e-05
7.11357e-05
0.000114841
9.40618e-05
7.48963e-05
7.16677e-05
0.000114038
7.58894e-05
7.11295e-05
0.00011484
9.40506e-05
7.48962e-05
7.16658e-05
0.000114037
7.54082e-05
4.96277e-05
4.9618e-05
7.60071e-05
7.54062e-05
4.96212e-05
4.96121e-05
7.60053e-05
7.63784e-05
9.37226e-05
7.24634e-05
0.000112467
7.19492e-05
0.000113235
7.73625e-05
7.63742e-05
9.37119e-05
7.24624e-05
0.000112464
7.19411e-05
0.000113232
7.73591e-05
6.37279e-05
6.37261e-05
8.27502e-05
6.39866e-05
6.39933e-05
2.35956e-05
2.35932e-05
2.35872e-05
2.35894e-05
8.31309e-05
6.43555e-05
6.4357e-05
6.41062e-05
6.41068e-05
2.35886e-05
2.35908e-05
7.59115e-05
7.11321e-05
0.000114851
9.40823e-05
7.48804e-05
7.16576e-05
0.000114048
7.53082e-05
4.96014e-05
7.46573e-05
4.96121e-05
7.58965e-05
0.000114834
7.11085e-05
9.40522e-05
7.48797e-05
0.000114033
7.16815e-05
7.53929e-05
4.96223e-05
4.96128e-05
7.60221e-05
7.6361e-05
9.37427e-05
7.24564e-05
0.000112477
7.19505e-05
0.000113245
7.73711e-05
7.54021e-05
4.96177e-05
4.96085e-05
7.60054e-05
7.63685e-05
9.37146e-05
0.00011246
7.24785e-05
0.000113228
7.19212e-05
7.73725e-05
7.52806e-05
4.96062e-05
7.46752e-05
4.96168e-05
7.59022e-05
0.00011485
7.11258e-05
9.40633e-05
7.48808e-05
0.000114046
7.16616e-05
7.52964e-05
4.96024e-05
7.46752e-05
4.96131e-05
7.63842e-05
9.37436e-05
7.24868e-05
0.000112471
7.19127e-05
0.000113253
7.73437e-05
7.54086e-05
4.96229e-05
4.96134e-05
7.59818e-05
7.63598e-05
9.37245e-05
0.000112474
7.24592e-05
0.000113243
7.19403e-05
7.73733e-05
7.54074e-05
4.9619e-05
4.96097e-05
7.59968e-05
6.37205e-05
6.373e-05
8.27209e-05
6.39964e-05
6.39949e-05
2.35956e-05
2.35931e-05
2.35862e-05
2.35884e-05
8.30604e-05
6.43558e-05
6.43671e-05
6.40995e-05
6.41122e-05
2.35884e-05
2.35907e-05
7.59046e-05
0.000114843
7.1108e-05
9.40735e-05
7.48833e-05
0.000114045
7.16828e-05
7.52993e-05
4.96066e-05
7.46652e-05
4.96171e-05
7.52972e-05
4.96008e-05
7.46622e-05
4.96114e-05
7.63697e-05
9.37443e-05
0.000112471
7.24635e-05
0.000113234
7.19457e-05
7.73362e-05
7.63609e-05
9.37335e-05
0.000112475
7.24786e-05
0.000113238
7.19213e-05
7.73617e-05
7.53967e-05
4.96233e-05
4.96136e-05
7.59997e-05
7.53937e-05
4.96178e-05
4.96082e-05
7.59977e-05
2.35942e-05
2.35917e-05
2.35929e-05
2.35906e-05
8.29321e-05
6.43564e-05
6.43573e-05
6.41064e-05
6.40974e-05
2.35871e-05
2.35894e-05
2.35859e-05
2.35881e-05
2.3587e-05
2.35849e-05
2.35849e-05
2.35828e-05
6.44778e-05
6.44757e-05
8.38125e-05
6.47178e-05
6.47142e-05
2.35807e-05
2.35826e-05
2.35786e-05
2.35805e-05
8.42711e-05
6.50597e-05
6.50545e-05
6.48252e-05
6.48249e-05
7.66659e-05
4.96188e-05
7.6096e-05
4.96283e-05
7.881e-05
7.27354e-05
0.000111725
9.28938e-05
7.78362e-05
7.32372e-05
0.000111004
7.88142e-05
7.27276e-05
0.000111724
9.28835e-05
7.78342e-05
7.32387e-05
0.000111001
7.675e-05
4.96396e-05
4.96311e-05
7.72938e-05
7.67473e-05
4.96336e-05
4.96254e-05
7.72914e-05
7.92799e-05
9.26824e-05
7.39864e-05
0.000109633
7.35016e-05
0.000110308
8.02048e-05
7.92705e-05
9.2671e-05
7.39855e-05
0.000109631
7.34925e-05
0.000110306
8.02404e-05
6.44711e-05
6.44677e-05
8.38104e-05
6.47081e-05
6.47136e-05
2.35862e-05
2.35841e-05
2.35786e-05
2.35805e-05
8.42771e-05
6.50492e-05
6.50521e-05
6.48192e-05
6.48149e-05
2.35799e-05
2.35818e-05
7.88239e-05
7.27354e-05
0.000111734
9.29136e-05
7.78277e-05
7.32307e-05
0.000111013
7.66655e-05
4.96149e-05
7.6092e-05
4.96249e-05
7.88198e-05
0.000111719
7.27066e-05
9.28849e-05
7.78258e-05
0.000110998
7.32507e-05
7.67349e-05
4.96339e-05
4.96259e-05
7.73075e-05
7.92647e-05
9.27013e-05
7.39791e-05
0.000109642
7.35015e-05
0.000110317
8.02524e-05
7.67431e-05
4.96297e-05
4.9622e-05
7.72904e-05
7.92657e-05
9.26744e-05
0.000109627
7.39994e-05
0.000110302
7.34723e-05
8.02464e-05
7.6643e-05
4.96206e-05
7.60976e-05
4.96292e-05
7.8812e-05
0.000111734
7.27255e-05
9.28963e-05
7.78214e-05
0.000111011
7.32317e-05
7.66578e-05
4.96182e-05
7.60968e-05
4.96258e-05
7.92827e-05
9.27006e-05
7.40088e-05
0.000109638
7.34695e-05
0.000110325
8.0211e-05
7.67472e-05
4.96348e-05
4.96267e-05
7.72699e-05
7.92673e-05
9.2684e-05
0.000109641
7.39831e-05
0.000110317
7.34929e-05
8.02378e-05
7.67475e-05
4.96315e-05
4.9623e-05
7.72839e-05
6.44633e-05
6.44718e-05
8.38221e-05
6.47096e-05
6.4721e-05
2.35861e-05
2.3584e-05
2.35776e-05
2.35795e-05
8.43251e-05
6.50532e-05
6.50594e-05
6.48145e-05
6.48219e-05
2.35798e-05
2.35817e-05
7.88095e-05
0.000111727
7.27086e-05
9.29063e-05
7.78249e-05
0.000111012
7.3252e-05
7.66601e-05
4.96208e-05
7.6085e-05
4.96296e-05
7.66581e-05
4.96153e-05
7.60821e-05
4.9624e-05
7.92926e-05
9.27032e-05
0.000109641
7.3986e-05
0.000110309
7.35013e-05
8.02078e-05
7.92697e-05
9.26926e-05
0.000109642
7.4001e-05
0.000110311
7.34742e-05
8.02294e-05
7.67353e-05
4.96351e-05
4.96268e-05
7.72871e-05
7.67325e-05
4.96295e-05
4.96216e-05
7.72849e-05
2.35848e-05
2.35827e-05
2.35836e-05
2.35815e-05
8.41244e-05
6.505e-05
6.50518e-05
6.48198e-05
6.4813e-05
2.35785e-05
2.35805e-05
2.35773e-05
2.35792e-05
2.35785e-05
2.35767e-05
2.35764e-05
2.35746e-05
6.51643e-05
6.51606e-05
8.52286e-05
6.53868e-05
6.53825e-05
2.3573e-05
2.35746e-05
2.35708e-05
2.35725e-05
8.58135e-05
6.5704e-05
6.5699e-05
6.54875e-05
6.54851e-05
7.78841e-05