/*--------------------------------*- C++ -*----------------------------------*\
| =========                 |                                                 |
| \\      /  F ield         | OpenFOAM: The Open Source CFD Toolbox           |
|  \\    /   O peration     | Version:  2312                                  |
|   \\  /    A nd           | Website:  www.openfoam.com                      |
|    \\/     M anipulation  |                                                 |
\*---------------------------------------------------------------------------*/
FoamFile
{
    version     2.0;
    format      ascii;
    arch        "LSB;label=32;scalar=64";
    class       surfaceScalarField;
    location    "600";
    object      phi;
}
// * * * * * * * * * * * * * * * * * * * * * * * * * * * * * * * * * * * * * //

dimensions      [0 3 -1 0 0 0 0];

oriented        oriented;

internalField   nonuniform List<scalar> 
123680
(
-8.18548e-07
-8.19322e-07
4.33379e-07
4.34027e-07
0.00115006
-0.00114929
-1.50275e-06
8.1936e-07
3.99309e-07
0.00113925
-4.98822e-07
1.12946e-06
1.4721e-07
7.47149e-07
-5.44887e-07
8.45058e-08
-1.22951e-06
-0.0011388
-1.50011e-06
8.19168e-07
4.05247e-07
0.00113912
-4.96209e-07
1.12661e-06
1.44085e-07
7.47286e-07
-5.44873e-07
8.48335e-08
-1.22948e-06
-0.00113868
1.53176e-06
1.49484e-06
-4.7637e-07
-4.79281e-07
0.000274438
-0.000276509
-7.98826e-07
-7.99771e-07
-0.00115233
4.25845e-07
4.26314e-07
0.00115308
-0.0011405
-1.49422e-06
7.99336e-07
3.9e-07
0.0011409
-4.87247e-07
1.13514e-06
1.53683e-07
7.54517e-07
-5.30082e-07
-1.2137e-06
9.27491e-08
-0.00114038
-1.49158e-06
7.99437e-07
3.96185e-07
0.00114077
-4.84669e-07
1.13224e-06
1.50583e-07
7.54591e-07
-5.30139e-07
-1.21375e-06
9.29887e-08
-0.000276524
1.52325e-06
1.4862e-06
-4.63588e-07
-4.6664e-07
0.000274445
-7.79011e-07
-7.79989e-07
-0.00115528
4.18518e-07
4.18714e-07
0.001156
-0.00114201
-1.48471e-06
7.7933e-07
3.80156e-07
0.00114236
-4.75736e-07
1.14056e-06
1.60057e-07
7.61847e-07
-5.15399e-07
-1.19761e-06
1.00971e-07
-0.00114188
-1.48218e-06
7.79638e-07
3.86557e-07
0.00114222
-4.73118e-07
1.13758e-06
1.56961e-07
7.61844e-07
-5.1546e-07
-1.19766e-06
1.01115e-07
-0.000276479
1.51383e-06
1.47659e-06
-4.50412e-07
-4.53619e-07
0.000274392
-7.58152e-07
-7.59191e-07
-0.00115813
4.10411e-07
4.10511e-07
0.00115883
-0.00114331
-1.47448e-06
7.58274e-07
3.70928e-07
0.00114361
-4.6412e-07
1.1458e-06
1.66277e-07
7.69157e-07
-5.01045e-07
-1.18136e-06
1.09112e-07
-0.00114318
-1.47197e-06
7.58781e-07
3.77426e-07
0.00114348
-4.61509e-07
1.14283e-06
1.63212e-07
7.69135e-07
-5.01103e-07
-1.18146e-06
1.09139e-07
-0.000276379
1.50363e-06
1.46631e-06
-4.37247e-07
-4.40499e-07
0.000274287
-7.36872e-07
-7.37658e-07
-0.00116088
4.01983e-07
4.02223e-07
0.00116155
-0.00114442
-1.46352e-06
7.37089e-07
3.61359e-07
0.00114468
-4.52707e-07
1.15098e-06
1.72189e-07
7.76356e-07
-4.86843e-07
-1.16512e-06
1.1711e-07
-0.00114429
-1.46101e-06
7.37314e-07
3.6787e-07
0.00114454
-4.50054e-07
1.14806e-06
1.69219e-07
7.76363e-07
-4.86912e-07
-1.16518e-06
1.17184e-07
-0.000276232
1.49274e-06
1.45537e-06
-4.24118e-07
-4.27361e-07
0.000274136
-7.14952e-07
-7.15256e-07
-0.00116352
3.93141e-07
3.93609e-07
0.00116416
-0.00114534
-1.45205e-06
7.15084e-07
3.5166e-07
0.00114555
-4.41499e-07
1.15624e-06
1.78021e-07
7.83466e-07
-4.73017e-07
-1.14905e-06
1.24881e-07
-0.00114521
-1.44946e-06
7.15172e-07
3.57914e-07
0.00114541
-4.38792e-07
1.15337e-06
1.75061e-07
7.8348e-07
-4.73014e-07
-1.14908e-06
1.25042e-07
-0.000276047
1.48122e-06
1.44396e-06
-4.1118e-07
-4.14274e-07
0.000273948
-6.92439e-07
-6.92454e-07
-0.00116605
3.84102e-07
3.84965e-07
0.00116667
-0.00114608
-1.44004e-06
6.92583e-07
3.41114e-07
0.00114624
-4.30546e-07
1.1616e-06
1.83869e-07
7.90418e-07
-4.59467e-07
-1.13324e-06
1.3257e-07
-0.00114594
-1.43738e-06
6.92431e-07
3.47184e-07
0.0011461
-4.27812e-07
1.15875e-06
1.80949e-07
7.90495e-07
-4.59452e-07
-1.13322e-06
1.32769e-07
-0.000275831
1.46911e-06
1.43195e-06
-3.9832e-07
-4.01298e-07
0.00027373
-6.69239e-07
-6.6899e-07
-0.00116847
3.7491e-07
3.75988e-07
0.00116906
-0.00114663
-1.42783e-06
6.6939e-07
3.29834e-07
0.00114675
-4.19748e-07
1.16688e-06
1.89595e-07
7.97322e-07
-4.46268e-07
-1.11776e-06
1.40164e-07
-0.0011465
-1.4251e-06
6.6901e-07
3.35655e-07
0.00114661
-4.1699e-07
1.16412e-06
1.86714e-07
7.97464e-07
-4.46232e-07
-1.11763e-06
1.40409e-07
-0.000275592
1.45683e-06
1.41975e-06
-3.85821e-07
-3.88707e-07
0.00027349
-6.45377e-07
-6.45061e-07
-0.00117078
3.65604e-07
3.66728e-07
0.00117134
-0.00114702
-1.41548e-06
6.45512e-07
3.17932e-07
0.0011471
-4.09214e-07
1.17216e-06
1.95222e-07
8.039e-07
-4.33417e-07
-1.10265e-06
1.47661e-07
-0.00114689
-1.41273e-06
6.4506e-07
3.23609e-07
0.00114696
-4.06443e-07
1.16943e-06
1.92351e-07
8.04024e-07
-4.33407e-07
-1.10249e-06
1.47922e-07
-0.000275337
1.44449e-06
1.40744e-06
-3.7369e-07
-3.76542e-07
0.000273235
-6.20867e-07
-6.20526e-07
-0.00117297
3.50389e-07
3.57252e-07
0.0011735
-0.00114726
-1.40316e-06
6.20953e-07
3.05163e-07
0.0011473
-3.98962e-07
1.17745e-06
2.00713e-07
8.10386e-07
-4.20992e-07
-1.08797e-06
1.54913e-07
-0.00114712
-1.40047e-06
6.20514e-07
3.10897e-07
0.00114716
-3.96184e-07
1.1747e-06
1.97868e-07
8.10503e-07
-4.20893e-07
-1.0879e-06
1.55177e-07
-0.000275071
1.43224e-06
1.39519e-06
-3.62028e-07
-3.64891e-07
0.000272971
-5.95812e-07
-5.95751e-07
-0.00117503
3.40915e-07
3.4768e-07
0.00117554
-0.00114735
-1.3911e-06
5.96148e-07
2.91735e-07
0.00114736
-3.88957e-07
1.18256e-06
2.0614e-07
8.16575e-07
-4.08967e-07
-1.07399e-06
1.61982e-07
-0.00114722
-1.38834e-06
5.95582e-07
2.97278e-07
0.00114722
-3.86242e-07
1.17982e-06
2.03243e-07
8.16755e-07
-4.08875e-07
-1.07378e-06
1.62215e-07
-0.000274801
1.42002e-06
1.38297e-06
-3.50767e-07
-3.53616e-07
0.000272703
-5.70616e-07
-5.70591e-07
-0.00117698
3.31485e-07
3.38158e-07
0.00117745
-0.00114731
-1.37919e-06
5.70966e-07
2.77189e-07
0.00114729
-3.79297e-07
1.18744e-06
2.11389e-07
8.22557e-07
-3.97396e-07
-1.06045e-06
1.68786e-07
-0.00114718
-1.37646e-06
5.70417e-07
2.82883e-07
0.00114715
-3.76609e-07
1.18474e-06
2.08503e-07
8.22759e-07
-3.97312e-07
-1.06032e-06
1.6903e-07
-0.000274531
1.40814e-06
1.3711e-06
-3.40066e-07
-3.42949e-07
0.000272434
-5.45143e-07
-5.45267e-07
-0.00117879
3.22102e-07
3.28696e-07
0.00117923
-0.00114716
-1.36766e-06
5.45594e-07
2.61924e-07
0.00114711
-3.6999e-07
1.19217e-06
2.16448e-07
8.28254e-07
-3.8629e-07
-1.04749e-06
1.75361e-07
-0.00114703
-1.36492e-06
5.45077e-07
2.67728e-07
0.00114697
-3.6723e-07
1.18943e-06
2.13618e-07
8.28426e-07
-3.86205e-07
-1.04744e-06
1.75585e-07
-0.000274262
1.39665e-06
1.35958e-06
-3.29905e-07
-3.32808e-07
0.000272169
-5.19672e-07
-5.19677e-07
-0.00118048
3.12715e-07
3.19265e-07
0.00118089
-0.00114691
-1.35651e-06
5.19979e-07
2.46175e-07
0.00114684
-3.61008e-07
1.1967e-06
2.21318e-07
8.33751e-07
-3.7569e-07
-1.03524e-06
1.81623e-07
-0.00114678
-1.35379e-06
5.19534e-07
2.51946e-07
0.0011467
-3.58278e-07
1.1939e-06
2.1851e-07
8.33948e-07
-3.75619e-07
-1.03501e-06
1.81853e-07
-0.000273999
1.38549e-06
1.34843e-06
-3.20244e-07
-3.23167e-07
0.000271908
-4.93962e-07
-4.94067e-07
-0.00118204
3.03227e-07
3.09867e-07
0.00118241
-0.00114657
-1.34582e-06
4.94324e-07
2.29977e-07
0.00114648
-3.52404e-07
1.20087e-06
2.25983e-07
8.38992e-07
-3.65554e-07
-1.02342e-06
1.87639e-07
-0.00114644
-1.34311e-06
4.93857e-07
2.35758e-07
0.00114634
-3.49637e-07
1.19813e-06
2.23149e-07
8.39157e-07
-3.65452e-07
-1.02331e-06
1.87862e-07
-0.000273742
1.37481e-06
1.33776e-06
-3.11142e-07
-3.14052e-07
0.000271654
-4.68182e-07
-4.6818e-07
-0.00118346
2.93613e-07
3.00311e-07
0.00118381
-0.00114616
-1.33559e-06
4.68498e-07
2.13523e-07
0.00114605
-3.44164e-07
1.2048e-06
2.3042e-07
8.44108e-07
-3.55856e-07
-1.01216e-06
1.93298e-07
-0.00114603
-1.33286e-06
4.67954e-07
2.19414e-07
0.00114592
-3.41454e-07
1.20207e-06
2.27566e-07
8.44178e-07
-3.55775e-07
-1.01209e-06
1.93541e-07
-0.000273492
1.36454e-06
1.32753e-06
-3.02524e-07
-3.05435e-07
0.000271408
-4.42218e-07
-4.42205e-07
-0.00118476
2.83816e-07
2.90543e-07
0.00118507
-0.00114569
-1.32582e-06
4.42518e-07
1.97135e-07
0.00114557
-3.3639e-07
1.20842e-06
2.34538e-07
8.48802e-07
-3.46612e-07
-1.00154e-06
1.98704e-07
-0.00114556
-1.32309e-06
4.41987e-07
2.02951e-07
0.00114543
-3.33629e-07
1.20569e-06
2.31744e-07
8.48892e-07
-3.46517e-07
-1.00147e-06
1.98975e-07
-0.000273252
1.3547e-06
1.3177e-06
-2.94359e-07
-2.97255e-07
0.000271171
-4.16265e-07
-4.16288e-07
-0.00118593
2.79702e-07
2.80476e-07
0.0011862
-0.00114517
-1.31657e-06
4.16441e-07
1.80795e-07
0.00114504
-3.28927e-07
1.21176e-06
2.38455e-07
8.53271e-07
-3.37793e-07
-9.91429e-07
2.03886e-07
-0.00114504
-1.31383e-06
4.16001e-07
1.86664e-07
0.0011449
-3.26144e-07
1.20902e-06
2.35667e-07
8.53322e-07
-3.37714e-07
-9.91368e-07
2.04122e-07
-0.00027302
1.34541e-06
1.3084e-06
-2.86741e-07
-2.89609e-07
0.000270943
-3.90433e-07
-3.9029e-07
-0.00118697
2.69432e-07
2.70168e-07
0.00118721
-0.00114462
-1.30768e-06
3.90321e-07
1.64813e-07
0.00114448
-3.21917e-07
1.21495e-06
2.42109e-07
8.57464e-07
-3.29392e-07
-9.81884e-07
2.08791e-07
-0.00114448
-1.30503e-06
3.90058e-07
1.70671e-07
0.00114434
-3.19142e-07
1.21218e-06
2.39342e-07
8.57526e-07
-3.29325e-07
-9.81792e-07
2.08998e-07
-0.000272798
1.33657e-06
1.29957e-06
-2.79546e-07
-2.82439e-07
0.000270724
-3.64365e-07
-3.64392e-07
-0.00118789
2.58804e-07
2.59406e-07
0.0011881
-0.00114404
-1.29934e-06
3.64288e-07
1.49038e-07
0.00114389
-3.15212e-07
1.21784e-06
2.45558e-07
8.61495e-07
-3.21418e-07
-9.72763e-07
2.13431e-07
-0.0011439
-1.29664e-06
3.6408e-07
1.55001e-07
0.00114375
-3.12505e-07
1.21511e-06
2.42734e-07
8.61513e-07
-3.21394e-07
-9.72733e-07
2.13599e-07
-0.000272586
1.32818e-06
1.29117e-06
-2.72793e-07
-2.75686e-07
0.000270515
-3.38526e-07
-3.38589e-07
-0.00118869
2.47743e-07
2.48261e-07
0.00118887
-0.00114344
-1.29142e-06
3.38413e-07
1.33862e-07
0.00114329
-3.08942e-07
1.22051e-06
2.48773e-07
8.65258e-07
-3.13813e-07
-9.64168e-07
2.17775e-07
-0.0011433
-1.28877e-06
3.38227e-07
1.39742e-07
0.00114315
-3.06278e-07
1.21774e-06
2.45875e-07
8.65327e-07
-3.13859e-07
-9.6414e-07
2.17968e-07
-0.000272383
1.32034e-06
1.28334e-06
-2.66546e-07
-2.69428e-07
0.000270316
-3.12846e-07
-3.12953e-07
-0.00118937
2.36252e-07
2.36699e-07
0.00118952
-0.00114283
-1.28405e-06
3.1278e-07
1.19347e-07
0.00114268
-3.0302e-07
1.22289e-06
2.51695e-07
8.68839e-07
-3.06625e-07
-9.56008e-07
2.21921e-07
-0.00114269
-1.28137e-06
3.12552e-07
1.25244e-07
0.00114254
-3.00389e-07
1.22011e-06
2.48795e-07
8.6891e-07
-3.06659e-07
-9.55988e-07
2.22054e-07
-0.000272191
1.31288e-06
1.27593e-06
-2.60688e-07
-2.63561e-07
0.000270126
-2.87433e-07
-2.87547e-07
-0.00118994
2.24312e-07
2.24681e-07
0.00119007
-0.00114221
-1.27704e-06
2.87344e-07
1.0549e-07
0.00114207
-2.97553e-07
1.22508e-06
2.54307e-07
8.72279e-07
-2.99803e-07
-9.48317e-07
2.25817e-07
-0.00114208
-1.27441e-06
2.87193e-07
1.11487e-07
0.00114192
-2.94869e-07
1.22228e-06
2.51478e-07
8.72277e-07
-2.99844e-07
-9.48307e-07
2.25924e-07
-0.000272008
1.30589e-06
1.26897e-06
-2.55253e-07
-2.58102e-07
0.000269946
-2.62328e-07
-2.62368e-07
-0.00119041
2.11839e-07
2.12206e-07
0.00119051
-0.0011416
-1.27053e-06
2.62293e-07
9.25606e-08
0.00114146
-2.9238e-07
1.22703e-06
2.56744e-07
8.75408e-07
-2.93365e-07
-9.41036e-07
2.29463e-07
-0.00114147
-1.26787e-06
2.62072e-07
9.84209e-08
0.00114131
-2.89714e-07
1.22427e-06
2.53873e-07
8.75453e-07
-2.93382e-07
-9.41018e-07
2.29596e-07
-0.000271835
1.29934e-06
1.26247e-06
-2.50218e-07
-2.5305e-07
0.000269776
-2.3757e-07
-2.37568e-07
-0.00119077
1.98925e-07
1.99306e-07
0.00119085
-0.001141
-1.2644e-06
2.37478e-07
8.04783e-08
0.00114086
-2.87576e-07
1.22876e-06
2.5896e-07
8.78402e-07
-2.8721e-07
-9.34154e-07
2.32929e-07
-0.00114086
-1.26176e-06
2.37253e-07
8.63512e-08
0.00114071
-2.84942e-07
1.22604e-06
2.56108e-07
8.7847e-07
-2.8725e-07
-9.34133e-07
2.33027e-07
-0.000271671
1.29317e-06
1.25633e-06
-2.45528e-07
-2.48325e-07
0.000269616
1.54288e-06
1.5031e-06
-4.76438e-07
-4.81975e-07
0.000274496
-0.000276584
-1.17389e-06
-1.13379e-06
0.000276599
-0.000274507
1.05203e-07
1.10678e-07
4.06259e-07
0.0011387
-5.04526e-07
1.16962e-06
1.52889e-07
7.52692e-07
-5.45102e-07
8.45094e-08
-1.23515e-06
-0.00113826
-1.54041e-06
8.18504e-07
4.06572e-07
0.00113878
-5.0473e-07
1.16689e-06
1.52659e-07
7.52781e-07
-5.42124e-07
8.15174e-08
-1.23485e-06
-0.00113833
0.00113996
8.03831e-07
-0.00113955
3.99332e-07
-1.53666e-06
1.57653e-07
-4.95875e-07
-1.22339e-06
9.06957e-08
-5.33963e-07
7.582e-07
1.17121e-06
0.00114003
8.03798e-07
-0.00113963
3.99338e-07
-1.53405e-06
1.57535e-07
-4.95987e-07
-1.22308e-06
8.76959e-08
-5.3104e-07
7.5826e-07
-4.76654e-07
-4.79041e-07
0.000274477
-0.000276565
-1.13375e-06
0.00027658
-0.000274488
1.05448e-07
1.0781e-07
4.05059e-07
0.0011397
-4.99196e-07
1.12947e-06
1.47006e-07
7.52707e-07
-5.44949e-07
8.48358e-08
-1.23495e-06
-0.00113926
-1.53482e-06
8.1832e-07
4.06502e-07
0.00113866
-5.04599e-07
1.16156e-06
1.52878e-07
7.52728e-07
-5.42216e-07
8.15089e-08
-1.23486e-06
-0.00113821
0.00114096
8.04672e-07
-0.00114055
3.98012e-07
-1.49679e-06
1.51928e-07
-4.90381e-07
-1.22319e-06
9.096e-08
-5.33887e-07
7.58172e-07
1.16583e-06
0.00113991
8.04006e-07
-0.00113951
3.99405e-07
-1.52856e-06
1.57749e-07
-4.95916e-07
-1.22315e-06
8.76202e-08
-5.31109e-07
7.58162e-07
8.18453e-07
4.06258e-07
0.00113828
-5.0151e-07
1.1587e-06
1.50036e-07
7.4451e-07
-5.39276e-07
7.82706e-08
-1.22644e-06
-0.00113783
8.0428e-07
-0.0011401
4.03333e-07
-1.49638e-06
1.5206e-07
-4.90104e-07
-1.21766e-06
9.07022e-08
7.52703e-07
-5.33765e-07
1.16299e-06
0.00113953
8.03227e-07
-0.00113913
3.99259e-07
-1.52544e-06
1.5486e-07
-4.92864e-07
-1.21465e-06
8.45344e-08
-5.28192e-07
7.50041e-07
-4.76849e-07
-4.81607e-07
0.000274463
-0.00027654
-1.13085e-06
0.000276554
-0.000274474
1.05348e-07
1.107e-07
8.19131e-07
4.05194e-07
0.00113926
-4.99076e-07
1.12116e-06
1.46951e-07
7.4981e-07
-5.44887e-07
8.49087e-08
-1.23183e-06
-0.00113882
8.04402e-07
-0.00113997
3.98367e-07
-1.49383e-06
1.48953e-07
-4.87535e-07
-1.21775e-06
9.08971e-08
7.52756e-07
-5.3378e-07
1.12551e-06
0.00114052
8.0473e-07
-0.00114011
3.97757e-07
-1.48844e-06
1.51888e-07
-4.9035e-07
-1.22016e-06
9.09674e-08
-5.33787e-07
7.55237e-07
-0.000274449
1.05251e-07
1.08096e-07
1.5344e-06
1.49451e-06
-4.63662e-07
-4.69311e-07
0.000274503
-1.17934e-06
-1.13932e-06
0.000276554
-0.000274469
1.14287e-07
1.19641e-07
3.97036e-07
0.00114035
-4.92911e-07
1.1753e-06
1.5931e-07
7.60022e-07
-5.30286e-07
-1.21936e-06
9.27509e-08
-1.53188e-06
7.9882e-07
3.97057e-07
0.00114043
-4.93067e-07
1.17261e-06
1.59154e-07
7.60088e-07
-5.27356e-07
-1.21908e-06
8.97562e-08
0.00114146
7.84078e-07
-0.0011411
3.89696e-07
-1.5274e-06
1.63993e-07
-4.84434e-07
-1.20735e-06
9.88573e-08
-5.19232e-07
7.6549e-07
1.17674e-06
0.00114153
7.83925e-07
-0.00114118
3.89442e-07
-1.52473e-06
1.63991e-07
-4.84429e-07
-1.20704e-06
9.58805e-08
-5.163e-07
7.65548e-07
-4.63935e-07
-4.66325e-07
0.000274484
-1.1392e-06
0.000276535
-0.00027445
1.14448e-07
1.16882e-07
3.95616e-07
0.00114135
-4.87511e-07
1.13525e-06
1.5355e-07
7.59984e-07
-5.30206e-07
-1.2192e-06
9.29613e-08
-1.52634e-06
7.99142e-07
3.96968e-07
0.00114031
-4.931e-07
1.16723e-06
1.59338e-07
7.59996e-07
-5.27453e-07
-1.21917e-06
8.96726e-08
0.00114246
7.85033e-07
-0.00114211
3.88187e-07
-1.48743e-06
1.58368e-07
-4.78885e-07
-1.20718e-06
9.90245e-08
-5.19194e-07
7.65417e-07
1.1713e-06
0.00114141
7.84323e-07
-0.00114106
3.89647e-07
-1.51929e-06
1.64153e-07
-4.84391e-07
-1.20716e-06
9.5727e-08
-5.16472e-07
7.65404e-07
7.98177e-07
3.97041e-07
0.00113993
-4.8998e-07
1.16432e-06
1.56451e-07
7.51904e-07
-5.24472e-07
8.66754e-08
-1.21063e-06
7.84346e-07
-0.00114165
3.93563e-07
-1.48712e-06
1.5847e-07
-4.78624e-07
-1.20161e-06
9.89243e-08
7.60042e-07
-5.18987e-07
1.16837e-06
0.00114103
7.83159e-07
-0.00114068
3.89647e-07
-1.51621e-06
1.612e-07
-4.81435e-07
-1.19857e-06
9.29048e-08
-5.13341e-07
7.57382e-07
-4.64186e-07
-4.68936e-07
0.00027447
-1.13626e-06
0.000276509
-0.000274435
1.14257e-07
1.19742e-07
7.99781e-07
3.95503e-07
0.00114091
-4.87447e-07
1.12689e-06
1.53534e-07
7.57048e-07
-5.30106e-07
9.29773e-08
-1.21616e-06
7.84713e-07
-0.00114152
3.88816e-07
-1.48463e-06
1.55376e-07
-4.76111e-07
-1.20173e-06
9.90495e-08
7.60025e-07
-5.19039e-07
1.13106e-06
0.00114202
7.84971e-07
-0.00114166
3.87793e-07
-1.47901e-06
1.58418e-07
-4.78688e-07
-1.20415e-06
9.9032e-08
-5.19127e-07
7.62474e-07
-0.00027441
1.14377e-07
1.17017e-07
1.52501e-06
1.48502e-06
-4.50622e-07
-4.56293e-07
0.00027445
-1.18457e-06
-1.14458e-06
0.000276454
-0.000274376
1.22896e-07
1.28221e-07
3.8739e-07
0.0011418
-4.81497e-07
1.18067e-06
1.65592e-07
7.673e-07
-5.15607e-07
-1.20331e-06
1.00898e-07
-1.52231e-06
7.78818e-07
3.87099e-07
0.00114188
-4.81519e-07
1.1781e-06
1.65622e-07
7.67343e-07
-5.12664e-07
-1.20299e-06
9.79128e-08
0.00114276
7.63451e-07
-0.00114246
3.80537e-07
-1.51742e-06
1.70236e-07
-4.72782e-07
-1.19117e-06
1.06917e-07
-5.04825e-07
7.72771e-07
1.18202e-06
0.00114284
7.63373e-07
-0.00114253
3.80146e-07
-1.51473e-06
1.70258e-07
-4.72763e-07
-1.19088e-06
1.04014e-07
-5.01911e-07
7.72801e-07
-4.50887e-07
-4.53177e-07
0.000274432
-1.14446e-06
0.000276435
-0.000274357
1.23053e-07
1.25506e-07
3.85856e-07
0.00114281
-4.75968e-07
1.14067e-06
1.59971e-07
7.67235e-07
-5.15598e-07
-1.20318e-06
1.01022e-07
-1.51684e-06
7.79276e-07
3.87306e-07
0.00114176
-4.81487e-07
1.17262e-06
1.65728e-07
7.67233e-07
-5.12822e-07
-1.20315e-06
9.77696e-08
0.00114377
7.6447e-07
-0.00114346
3.79028e-07
-1.47743e-06
1.64649e-07
-4.67227e-07
-1.19102e-06
1.07076e-07
-5.04816e-07
7.72692e-07
1.17652e-06
0.00114272
7.63839e-07
-0.00114241
3.8037e-07
-1.50923e-06
1.70418e-07
-4.72735e-07
-1.19099e-06
1.03823e-07
-5.02045e-07
7.72667e-07
7.78091e-07
3.87406e-07
0.00114138
-4.78522e-07
1.16967e-06
1.62772e-07
7.5923e-07
-5.09709e-07
9.49931e-08
-1.19452e-06
7.6351e-07
-0.00114301
3.8436e-07
-1.47712e-06
1.64758e-07
-4.66977e-07
-1.18541e-06
1.07072e-07
7.67379e-07
-5.0459e-07
1.17359e-06
0.00114234
7.62244e-07
-0.00114203
3.80576e-07
-1.50627e-06
1.67418e-07
-4.69822e-07
-1.18235e-06
1.01161e-07
-4.98914e-07
7.64729e-07
-4.51198e-07
-4.55851e-07
0.000274417
-1.14151e-06
0.000276409
-0.000274342
1.22874e-07
1.28295e-07
7.79919e-07
3.85489e-07
0.00114237
-4.75803e-07
1.1324e-06
1.60058e-07
7.64272e-07
-5.15476e-07
1.0102e-07
-1.20009e-06
7.64052e-07
-0.00114288
3.79688e-07
-1.47455e-06
1.61668e-07
-4.64413e-07
-1.18558e-06
1.07118e-07
7.67299e-07
-5.04678e-07
1.13637e-06
0.00114333
7.6468e-07
-0.00114302
3.78357e-07
-1.46897e-06
1.6478e-07
-4.67025e-07
-1.18803e-06
1.07044e-07
-5.04687e-07
7.69685e-07
-0.000274318
1.23021e-07
1.25605e-07
1.51479e-06
1.4748e-06
-4.37494e-07
-4.43155e-07
0.000274345
-1.18978e-06
-1.14976e-06
0.000276308
-0.000274236
1.31166e-07
1.36532e-07
3.78289e-07
0.00114306
-4.69891e-07
1.18588e-06
1.71767e-07
7.74573e-07
-5.01273e-07
-1.18709e-06
1.08921e-07
-1.51208e-06
7.58032e-07
3.77921e-07
0.00114313
-4.69852e-07
1.18334e-06
1.71806e-07
7.74601e-07
-4.98358e-07
-1.18681e-06
1.05964e-07
0.00114387
7.42223e-07
-0.00114361
3.71108e-07
-1.50662e-06
1.76242e-07
-4.61289e-07
-1.17489e-06
1.14913e-07
-4.90657e-07
7.80023e-07
1.1872e-06
0.00114395
7.41959e-07
-0.00114369
3.70871e-07
-1.50398e-06
1.76239e-07
-4.61283e-07
-1.1746e-06
1.12136e-07
-4.87733e-07
7.80125e-07
-4.37729e-07
-4.40053e-07
0.000274326
-1.14965e-06
0.000276289
-0.000274217
1.31358e-07
1.3376e-07
3.76771e-07
0.00114406
-4.64358e-07
1.14589e-06
1.66177e-07
7.7452e-07
-5.01269e-07
-1.18693e-06
1.09055e-07
-1.50667e-06
7.58548e-07
3.78094e-07
0.00114301
-4.69834e-07
1.17782e-06
1.71943e-07
7.74501e-07
-4.98467e-07
-1.18692e-06
1.05811e-07
0.00114488
7.43084e-07
-0.00114462
3.69747e-07
-1.46665e-06
1.70613e-07
-4.55785e-07
-1.17468e-06
1.1516e-07
-4.90543e-07
7.79985e-07
1.18171e-06
0.00114382
7.42368e-07
-0.00114357
3.71041e-07
-1.49847e-06
1.76422e-07
-4.61249e-07
-1.17465e-06
1.11922e-07
-4.8785e-07
7.79954e-07
7.56956e-07
3.78336e-07
0.00114263
-4.66966e-07
1.17487e-06
1.68927e-07
7.66547e-07
-4.95344e-07
1.03181e-07
-1.17826e-06
7.42384e-07
-0.00114417
3.74912e-07
-1.46639e-06
1.70727e-07
-4.55514e-07
-1.16913e-06
1.15109e-07
7.74602e-07
-4.90325e-07
1.17872e-06
0.00114345
7.41072e-07
-0.00114319
3.71284e-07
-1.49557e-06
1.73387e-07
-4.58365e-07
-1.16608e-06
1.09248e-07
-4.8467e-07
7.7195e-07
-4.38048e-07
-4.42759e-07
0.000274311
-1.14674e-06
0.000276263
-0.000274202
1.31211e-07
1.36573e-07
7.59324e-07
3.76147e-07
0.00114362
-4.64163e-07
1.13767e-06
1.66304e-07
7.71516e-07
-5.0117e-07
1.09042e-07
-1.18395e-06
7.42702e-07
-0.00114403
3.70262e-07
-1.46376e-06
1.6774e-07
-4.52898e-07
-1.16929e-06
1.15159e-07
7.74571e-07
-4.90462e-07
1.14156e-06
0.00114444
7.43257e-07
-0.00114418
3.69152e-07
-1.45821e-06
1.70786e-07
-4.55551e-07
-1.17175e-06
1.15087e-07
-4.90532e-07
7.77059e-07
-0.000274177
1.31302e-07
1.33871e-07
1.50384e-06
1.46388e-06
-4.24402e-07
-4.29975e-07
0.000274194
-1.19506e-06
-1.15493e-06
0.000276123
-0.000274056
1.39055e-07
1.44646e-07
3.68728e-07
0.00114412
-4.58467e-07
1.19111e-06
1.77721e-07
7.81762e-07
-4.87131e-07
-1.17084e-06
1.1686e-07
-1.50113e-06
7.36557e-07
3.68516e-07
0.00114419
-4.58452e-07
1.18852e-06
1.77721e-07
7.81901e-07
-4.84169e-07
-1.17056e-06
1.14087e-07
0.00114479
7.20535e-07
-0.00114458
3.61295e-07
-1.49523e-06
1.82137e-07
-4.49964e-07
-1.15877e-06
1.22809e-07
-4.76665e-07
7.87088e-07
1.1924e-06
0.00114486
7.20119e-07
-0.00114465
3.61321e-07
-1.49264e-06
1.8199e-07
-4.50053e-07
-1.15838e-06
1.20057e-07
-4.73712e-07
7.87252e-07
-4.24574e-07
-4.26912e-07
0.000274176
-1.15489e-06
0.000276104
-0.000274038
1.39331e-07
1.41782e-07
3.67371e-07
0.00114513
-4.52978e-07
1.15106e-06
1.72049e-07
7.81787e-07
-4.87032e-07
-1.17062e-06
1.17168e-07
-1.49573e-06
7.3692e-07
3.68641e-07
0.00114407
-4.5841e-07
1.18303e-06
1.77898e-07
7.8177e-07
-4.84331e-07
-1.17061e-06
1.13939e-07
0.0011458
7.20847e-07
-0.00114558
3.60387e-07
-1.45536e-06
1.76452e-07
-4.44563e-07
-1.15845e-06
1.23128e-07
-4.76489e-07
7.87167e-07
1.18694e-06
0.00114474
7.2042e-07
-0.00114453
3.61139e-07
-1.48708e-06
1.8216e-07
-4.50004e-07
-1.15843e-06
1.19928e-07
-4.73829e-07
7.87165e-07
7.35706e-07
3.68941e-07
0.00114369
-4.55568e-07
1.18003e-06
1.7485e-07
7.73738e-07
-4.81178e-07
1.11251e-07
-1.16202e-06
7.20554e-07
-0.00114514
3.65337e-07
-1.45501e-06
1.7659e-07
-4.44221e-07
-1.15299e-06
1.22933e-07
7.81746e-07
-4.76422e-07
1.18398e-06
0.00114436
7.19435e-07
-0.00114415
3.61581e-07
-1.48416e-06
1.79205e-07
-4.47097e-07
-1.14999e-06
1.17152e-07
-4.70751e-07
7.79039e-07
-4.24858e-07
-4.29623e-07
0.00027416
-1.15203e-06
0.000276077
-0.000274022
1.39226e-07
1.44571e-07
7.3784e-07
3.66799e-07
0.00114468
-4.52777e-07
1.14286e-06
1.72194e-07
7.78862e-07
-4.87008e-07
1.17098e-07
-1.16769e-06
7.20762e-07
-0.001145
3.60346e-07
-1.45229e-06
1.73574e-07
-4.41595e-07
-1.1531e-06
1.23073e-07
7.81722e-07
-4.76452e-07
1.14675e-06
0.00114535
7.21148e-07
-0.00114514
3.59812e-07
-1.44686e-06
1.76551e-07
-4.44345e-07
-1.15556e-06
1.23048e-07
-4.76509e-07
7.84217e-07
-0.000273998
1.39207e-07
1.41934e-07
1.49226e-06
1.45244e-06
-4.11425e-07
-4.16823e-07
0.000274006
-1.20044e-06
-1.16022e-06
0.000275906
-0.000273845
1.46829e-07
1.5247e-07
3.58774e-07
0.00114499
-4.47188e-07
1.19642e-06
1.8364e-07
7.8883e-07
-4.73263e-07
-1.15476e-06
1.24731e-07
-1.48967e-06
7.14526e-07
3.58911e-07
0.00114506
-4.47293e-07
1.19373e-06
1.83443e-07
7.88966e-07
-4.70319e-07
-1.1544e-06
1.21954e-07
0.00114552
6.98113e-07
-0.00114536
3.50684e-07
-1.48322e-06
1.88048e-07
-4.38851e-07
-1.14288e-06
1.3052e-07
-4.63066e-07
7.94078e-07
1.19769e-06
0.0011456
6.97644e-07
-0.00114543
3.51136e-07
-1.48075e-06
1.87838e-07
-4.39098e-07
-1.14253e-06
1.27804e-07
-4.60091e-07
7.94197e-07
-4.11552e-07
-4.13903e-07
0.000273988
-1.16024e-06
0.000275888
-0.000273827
1.47163e-07
1.49522e-07
3.57805e-07
0.001146
-4.41815e-07
1.15624e-06
1.77906e-07
7.89027e-07
-4.73085e-07
-1.15435e-06
1.25078e-07
-1.48425e-06
7.14729e-07
3.58725e-07
0.00114494
-4.47239e-07
1.18827e-06
1.83599e-07
7.88958e-07
-4.7034e-07
-1.1544e-06
1.21928e-07
0.00114653
6.98202e-07
-0.00114636
3.50077e-07
-1.44348e-06
1.82253e-07
-4.33576e-07
-1.1425e-06
1.30963e-07
-4.62807e-07
7.94268e-07
1.19224e-06
0.00114547
6.97571e-07
-0.00114531
3.50896e-07
-1.47522e-06
1.88009e-07
-4.3897e-07
-1.14244e-06
1.27792e-07
-4.60107e-07
7.94242e-07
7.13844e-07
3.59188e-07
0.00114456
-4.44337e-07
1.18531e-06
1.80693e-07
7.80782e-07
-4.67355e-07
1.19083e-07
-1.14599e-06
6.98257e-07
-0.00114592
3.55043e-07
-1.44311e-06
1.82419e-07
-4.33307e-07
-1.13716e-06
1.30661e-07
7.88693e-07
-4.62803e-07
1.18936e-06
0.0011451
6.97043e-07
-0.00114493
3.51181e-07
-1.47221e-06
1.85128e-07
-4.36054e-07
-1.13414e-06
1.24885e-07
-4.57212e-07
7.86021e-07
-4.11781e-07
-4.16577e-07
0.000273972
-1.15739e-06
0.000275861
-0.000273811
1.47087e-07
1.52327e-07
7.15558e-07
3.57424e-07
0.00114555
-4.41636e-07
1.14806e-06
1.77978e-07
7.86003e-07
-4.73075e-07
1.25006e-07
-1.15155e-06
6.98161e-07
-0.00114578
3.49937e-07
-1.44042e-06
1.79484e-07
-4.30543e-07
-1.13717e-06
1.3082e-07
7.88766e-07
-4.62815e-07
1.15206e-06
0.00114609
6.98495e-07
-0.00114592
3.49622e-07
-1.43503e-06
1.82357e-07
-4.33443e-07
-1.1396e-06
1.30849e-07
-4.62836e-07
7.91299e-07
-0.000273786
1.46981e-07
1.49765e-07
1.48018e-06
1.44046e-06
-3.98576e-07
-4.03884e-07
0.000273788
-1.20579e-06
-1.16554e-06
0.000275667
-0.00027361
1.54274e-07
1.59917e-07
3.479e-07
0.00114568
-4.36136e-07
1.20181e-06
1.89516e-07
7.95825e-07
-4.59714e-07
-1.13893e-06
1.32439e-07
-1.47769e-06
6.91915e-07
3.4844e-07
0.00114575
-4.36347e-07
1.19905e-06
1.89286e-07
7.95927e-07
-4.56749e-07
-1.13859e-06
1.29703e-07
0.00114608
6.75126e-07
-0.00114596
3.39425e-07
-1.47095e-06
1.93832e-07
-4.2797e-07
-1.12726e-06
1.38143e-07
-4.49785e-07
8.00845e-07
1.20297e-06
0.00114615
6.74594e-07
-0.00114603
3.40006e-07
-1.46855e-06
1.93599e-07
-4.28229e-07
-1.12692e-06
1.35462e-07
-4.46813e-07
8.01117e-07
-3.98668e-07
-4.01046e-07
0.00027377
-1.16554e-06
0.000275649
-0.000273592
1.54582e-07
1.56932e-07
3.47392e-07
0.00114669
-4.30897e-07
1.16158e-06
1.83699e-07
7.96012e-07
-4.59447e-07
-1.13855e-06
1.32857e-07
-1.47217e-06
6.91789e-07
3.482e-07
0.00114563
-4.36254e-07
1.19361e-06
1.89465e-07
7.95968e-07
-4.56737e-07
-1.13851e-06
1.29731e-07
0.00114709
6.74914e-07
-0.00114696
3.39017e-07
-1.43127e-06
1.88014e-07
-4.22747e-07
-1.12688e-06
1.38611e-07
-4.49492e-07
8.01165e-07
1.19761e-06
0.00114603
6.74285e-07
-0.00114591
3.39642e-07
-1.46292e-06
1.93773e-07
-4.28125e-07
-1.12684e-06
1.3547e-07
-4.46782e-07
8.0116e-07
6.91357e-07
3.48463e-07
0.00114525
-4.33315e-07
1.19071e-06
1.86616e-07
7.87735e-07
-4.53873e-07
1.26787e-07
-1.13022e-06
6.75252e-07
-0.00114652
3.43927e-07
-1.43092e-06
1.88189e-07
-4.22436e-07
-1.12157e-06
1.38289e-07
7.95616e-07
-4.49523e-07
1.19473e-06
0.00114565
6.74061e-07
-0.00114553
3.39805e-07
-1.45993e-06
1.90949e-07
-4.25119e-07
-1.11859e-06
1.32535e-07
-4.4395e-07
7.92897e-07
-3.98806e-07
-4.0368e-07
0.000273754
-1.16277e-06
0.000275622
-0.000273576
1.54546e-07
1.5981e-07
6.92689e-07
3.47012e-07
0.00114624
-4.30741e-07
1.15339e-06
1.83806e-07
7.93055e-07
-4.59462e-07
1.32784e-07
-1.13567e-06
6.74931e-07
-0.00114638
3.38609e-07
-1.42815e-06
1.85275e-07
-4.19702e-07
-1.12152e-06
1.38489e-07
7.95703e-07
-4.49496e-07
1.15736e-06
0.00114664
6.75107e-07
-0.00114652
3.38573e-07
-1.42283e-06
1.88107e-07
-4.22586e-07
-1.12388e-06
1.38557e-07
-4.49445e-07
7.98301e-07
-0.000273551
1.54373e-07
1.57263e-07
1.46788e-06
1.42822e-06
-3.8603e-07
-3.91285e-07
0.000273549
-1.21103e-06
-1.17084e-06
0.000275412
-0.000273358
1.6137e-07
1.66974e-07
3.36436e-07
0.00114619
-4.25277e-07
1.20712e-06
1.95251e-07
8.02674e-07
-4.46538e-07
-1.12338e-06
1.40011e-07
-1.46546e-06
6.68681e-07
3.37162e-07
0.00114626
-4.25523e-07
1.20431e-06
1.95012e-07
8.02818e-07
-4.43543e-07
-1.1231e-06
1.37338e-07
0.00114647
6.51384e-07
-0.00114638
3.275e-07
-1.45861e-06
1.99443e-07
-4.17368e-07
-1.11205e-06
1.45629e-07
-4.36854e-07
8.07754e-07
1.20824e-06
0.00114654
6.50905e-07
-0.00114646
3.2825e-07
-1.4562e-06
1.99227e-07
-4.17639e-07
-1.11174e-06
1.42975e-07
-4.33881e-07
8.07775e-07
-3.86121e-07
-3.88516e-07
0.00027353
-1.17084e-06
0.000275393
-0.00027334
1.61673e-07
1.64006e-07
3.36139e-07
0.0011472
-4.20074e-07
1.16688e-06
1.89427e-07
8.02888e-07
-4.46238e-07
-1.12302e-06
1.40472e-07
-1.45988e-06
6.68325e-07
3.36833e-07
0.00114614
-4.25417e-07
1.19894e-06
1.95202e-07
8.02843e-07
-4.43527e-07
-1.12303e-06
1.37357e-07
0.00114748
6.51124e-07
-0.00114739
3.27186e-07
-1.41894e-06
1.93692e-07
-4.1212e-07
-1.11163e-06
1.46087e-07
-4.36554e-07
8.07853e-07
1.20287e-06
0.00114642
6.50447e-07
-0.00114633
3.27876e-07
-1.4506e-06
1.99453e-07
-4.17478e-07
-1.11168e-06
1.43003e-07
-4.33843e-07
8.07847e-07
6.68158e-07
3.36913e-07
0.00114576
-4.2245e-07
1.19607e-06
1.92393e-07
7.94602e-07
-4.40709e-07
1.34398e-07
-1.11477e-06
6.51567e-07
-0.00114695
3.32255e-07
-1.41856e-06
1.93793e-07
-4.11888e-07
-1.10647e-06
1.45817e-07
8.02294e-07
-4.36559e-07
1.20007e-06
0.00114604
6.50341e-07
-0.00114596
3.2792e-07
-1.44756e-06
1.96626e-07
-4.14482e-07
-1.10342e-06
1.4005e-07
-4.3102e-07
7.99568e-07
-3.86259e-07
-3.91085e-07
0.000273515
-1.16808e-06
0.000275367
-0.000273325
1.6169e-07
1.6684e-07
6.69104e-07
3.35746e-07
0.00114675
-4.19939e-07
1.1587e-06
1.8954e-07
7.99916e-07
-4.46186e-07
1.40445e-07
-1.12012e-06
6.51127e-07
-0.00114681
3.26684e-07
-1.41583e-06
1.90939e-07
-4.09081e-07
-1.10637e-06
1.46033e-07
8.02466e-07
-4.36554e-07
1.16272e-06
0.00114703
6.51197e-07
-0.00114695
3.26771e-07
-1.4105e-06
1.93805e-07
-4.11957e-07
-1.10882e-06
1.46057e-07
-4.365e-07
8.04962e-07
-0.0002733
1.61491e-07
1.64401e-07
1.45551e-06
1.41583e-06
-3.73853e-07
-3.79135e-07
0.000273294
-1.21623e-06
-1.1761e-06
0.000275147
-0.000273096
1.6814e-07
1.73701e-07
3.24457e-07
0.00114654
-4.14759e-07
1.21239e-06
2.00835e-07
8.09243e-07
-4.33663e-07
-1.10831e-06
1.47517e-07
-1.4531e-06
6.44878e-07
3.25157e-07
0.00114661
-4.14982e-07
1.20956e-06
2.00633e-07
8.09391e-07
-4.30681e-07
-1.10802e-06
1.44859e-07
0.0011467
6.27025e-07
-0.00114666
3.20666e-07