/*--------------------------------*- C++ -*----------------------------------*\
| =========                 |                                                 |
| \\      /  F ield         | OpenFOAM: The Open Source CFD Toolbox           |
|  \\    /   O peration     | Version:                                        |
|   \\  /    A nd           | Website:  www.openfoam.com                      |
|    \\/     M anipulation  |                                                 |
\*---------------------------------------------------------------------------*/
FoamFile
{
    version     2.0;
    format      ascii;
    class       volScalarField;
    location    "600";
    object      epsilon;
}
// * * * * * * * * * * * * * * * * * * * * * * * * * * * * * * * * * * * * * //

dimensions      [0 2 -3 0 0 0 0];


internalField   nonuniform List<scalar> 
172512
(
4.9917e-07
4.99976e-07
4.99976e-07
4.99864e-07
4.45574e-07
4.54114e-07
4.54114e-07
4.63753e-07
4.03788e-07
4.18749e-07
4.18751e-07
4.3954e-07
3.68406e-07
3.88705e-07
3.88708e-07
4.17791e-07
3.38054e-07
3.62205e-07
3.62208e-07
3.9618e-07
3.11679e-07
3.38342e-07
3.38346e-07
3.74653e-07
2.88499e-07
3.16686e-07
3.1669e-07
3.53759e-07
2.67942e-07
2.97056e-07
2.9706e-07
3.34179e-07
2.49593e-07
2.79396e-07
2.794e-07
3.16504e-07
2.33146e-07
2.637e-07
2.63704e-07
3.01174e-07
2.18372e-07
2.49974e-07
2.49978e-07
2.88501e-07
2.05094e-07
2.38219e-07
2.38223e-07
2.78702e-07
1.93174e-07
2.28434e-07
2.28438e-07
2.71884e-07
1.825e-07
2.20627e-07
2.20631e-07
2.68172e-07
1.7298e-07
2.14804e-07
2.14809e-07
2.67654e-07
1.64542e-07
2.10979e-07
2.10985e-07
2.70508e-07
1.57123e-07
2.09159e-07
2.09164e-07
2.76717e-07
1.50671e-07
2.09358e-07
2.09365e-07
2.86303e-07
1.4514e-07
2.1162e-07
2.11628e-07
2.99248e-07
1.40496e-07
2.15963e-07
2.15971e-07
3.15611e-07
1.36709e-07
2.22419e-07
2.22425e-07
3.35381e-07
1.33752e-07
2.30978e-07
2.30995e-07
3.58394e-07
1.3161e-07
2.41648e-07
2.4166e-07
3.84515e-07
1.30264e-07
2.54402e-07
2.54416e-07
4.13473e-07
1.29703e-07
2.69189e-07
2.69213e-07
4.45045e-07
1.29925e-07
2.85959e-07
2.85978e-07
4.78525e-07
1.30907e-07
3.04685e-07
3.04754e-07
5.13817e-07
1.32667e-07
3.24999e-07
3.24872e-07
5.50693e-07
1.35242e-07
3.4711e-07
3.47301e-07
5.88261e-07
1.38449e-07
3.71211e-07
3.71179e-07
6.2548e-07
1.42435e-07
3.9579e-07
3.95571e-07
6.64004e-07
1.47445e-07
4.21517e-07
4.23502e-07
7.10628e-07
1.53847e-07
4.54893e-07
4.54984e-07
7.43517e-07
1.57138e-07
4.84505e-07
4.69064e-07
7.58517e-07
1.60895e-07
4.87703e-07
5.03281e-07
8.37538e-07
1.76756e-07
5.37054e-07
5.50173e-07
8.14902e-07
1.84989e-07
5.62985e-07
5.48663e-07
7.69196e-07
1.81457e-07
5.25676e-07
5.61257e-07
1.0318e-06
1.97598e-07
7.00607e-07
6.50025e-07
1.03387e-06
2.16301e-07
7.64394e-07
6.3289e-07
8.00172e-07
2.14327e-07
5.53335e-07
5.99591e-07
9.28458e-07
2.4603e-07
5.84116e-07
7.47565e-07
1.06156e-06
2.99603e-07
8.60143e-07
8.22694e-07
1.09452e-06
3.01299e-07
8.53999e-07
8.00943e-07
1.0997e-06
2.81466e-07
7.99493e-07
7.8857e-07
1.0995e-06
2.82795e-07
8.01476e-07
8.13086e-07
1.11091e-06
3.06371e-07
8.32574e-07
8.45807e-07
1.12867e-06
3.25603e-07
8.7267e-07
8.72025e-07
1.15598e-06
3.40685e-07
8.99941e-07
8.97204e-07
1.18155e-06
3.60103e-07
9.2099e-07
9.20384e-07
1.19895e-06
3.76745e-07
9.40703e-07
9.41725e-07
1.21241e-06
3.92617e-07
9.61455e-07
9.62573e-07
1.23077e-06
4.08747e-07
9.82071e-07
9.8259e-07
1.2492e-06
4.25887e-07
1.0006e-06
1.00021e-06
1.26259e-06
4.41966e-07
1.01752e-06
1.01739e-06
1.27529e-06
4.583e-07
1.03389e-06
1.03437e-06
1.28943e-06
4.73997e-07
1.0499e-06
1.04992e-06
1.30351e-06
4.89555e-07
1.06429e-06
1.06438e-06
1.31463e-06
5.04954e-07
1.07792e-06
1.078e-06
1.32559e-06
5.18821e-07
1.09079e-06
1.09119e-06
1.33621e-06
5.33622e-07
1.10261e-06
1.10269e-06
1.34639e-06
5.47006e-07
1.11387e-06
1.11404e-06
1.35565e-06
5.59998e-07
1.12417e-06
1.12399e-06
1.36423e-06
5.72238e-07
1.13344e-06
1.13376e-06
1.37185e-06
5.84278e-07
1.14227e-06
1.14238e-06
1.37976e-06
5.95269e-07
1.15025e-06
1.15069e-06
1.38651e-06
6.06088e-07
1.15761e-06
1.15695e-06
1.39273e-06
6.15688e-07
1.16463e-06
1.16538e-06
1.39922e-06
6.24945e-07
1.16935e-06
1.16953e-06
1.40226e-06
6.34396e-07
1.1761e-06
1.17543e-06
1.41051e-06
6.4097e-07
1.18066e-06
1.18123e-06
1.41198e-06
6.48644e-07
1.18199e-06
1.18364e-06
1.41552e-06
6.56898e-07
1.19004e-06
1.18725e-06
1.42179e-06
6.61735e-07
1.18955e-06
1.19207e-06
1.42196e-06
6.65586e-07
1.19299e-06
1.19354e-06
1.4247e-06
6.73479e-07
1.19623e-06
1.19276e-06
1.42632e-06
6.76819e-07
1.19446e-06
1.19887e-06
1.43008e-06
6.79003e-07
1.19916e-06
1.19698e-06
1.42862e-06
6.83725e-07
1.19799e-06
1.19675e-06
1.4318e-06
6.86901e-07
1.19552e-06
1.19883e-06
1.42962e-06
6.8743e-07
1.19961e-06
1.19644e-06
1.43096e-06
6.90327e-07
1.19564e-06
1.19744e-06
1.43142e-06
6.91609e-07
1.19417e-06
1.19512e-06
1.42798e-06
6.92519e-07
1.19653e-06
1.1947e-06
1.43152e-06
6.93508e-07
1.19115e-06
1.19433e-06
1.4272e-06
6.92432e-07
1.18979e-06
1.1884e-06
1.4234e-06
6.92585e-07
1.18835e-06
1.18788e-06
1.42595e-06
6.93521e-07
1.1863e-06
1.18736e-06
1.424e-06
6.91865e-07
1.18216e-06
1.18332e-06
1.41853e-06
6.90107e-07
1.17903e-06
1.17971e-06
1.41792e-06
6.90117e-07
1.17928e-06
1.17612e-06
1.41651e-06
6.88389e-07
1.17218e-06
1.17356e-06
1.41057e-06
6.85873e-07
1.16738e-06
1.1722e-06
1.40902e-06
6.83989e-07
1.16863e-06
1.16384e-06
1.40736e-06
7.40731e-07
1.08011e-06
1.07819e-06
1.35508e-06
5.06203e-07
5.05586e-07
5.05585e-07
5.06203e-07
5.05585e-07
5.05585e-07
5.05986e-07
5.05986e-07
5.05986e-07
5.05987e-07
5.05587e-07
5.05586e-07
5.06203e-07
5.05587e-07
5.05585e-07
5.06203e-07
4.99865e-07
4.67264e-07
4.99977e-07
4.99979e-07
4.6414e-07
4.64148e-07
4.99865e-07
4.67263e-07
4.99979e-07
4.99979e-07
4.64144e-07
4.64149e-07
4.99977e-07
4.64135e-07
4.6414e-07
4.99864e-07
4.67266e-07
4.99978e-07
4.64135e-07
4.64144e-07
4.67268e-07
4.63753e-07
4.41544e-07
4.54119e-07
4.54127e-07
4.27004e-07
4.27013e-07
4.63753e-07
4.41543e-07
4.54123e-07
4.54129e-07
4.27004e-07
4.27015e-07
4.5412e-07
4.26996e-07
4.27006e-07
4.63753e-07
4.41549e-07
4.54123e-07
4.26998e-07
4.27007e-07
4.41555e-07
4.39534e-07
4.19396e-07
4.18757e-07
4.18766e-07
3.95844e-07
3.95853e-07
4.39537e-07
4.19399e-07
4.18757e-07
4.18769e-07
3.95839e-07
3.95856e-07
4.18761e-07
3.95834e-07
3.9585e-07
4.39538e-07
4.19404e-07
4.1876e-07
3.95836e-07
3.95845e-07
4.19413e-07
4.17775e-07
3.9773e-07
3.88717e-07
3.88725e-07
3.68571e-07
3.6858e-07
4.17779e-07
3.97735e-07
3.88711e-07
3.88729e-07
3.68562e-07
3.68583e-07
3.88723e-07
3.68558e-07
3.68578e-07
4.17783e-07
3.97741e-07
3.88716e-07
3.68561e-07
3.68569e-07
3.97751e-07
3.96161e-07
3.76141e-07
3.62219e-07
3.62226e-07
3.44105e-07
3.44112e-07
3.96166e-07
3.76146e-07
3.62208e-07
3.6223e-07
3.44092e-07
3.44116e-07
3.62226e-07
3.44091e-07
3.44113e-07
3.96172e-07
3.76153e-07
3.62216e-07
3.44094e-07
3.441e-07
3.76164e-07
3.74632e-07
3.55142e-07
3.38358e-07
3.38364e-07
3.21922e-07
3.21928e-07
3.74637e-07
3.55148e-07
3.38344e-07
3.38368e-07
3.21906e-07
3.21932e-07
3.38366e-07
3.21907e-07
3.2193e-07
3.74644e-07
3.55155e-07
3.38353e-07
3.2191e-07
3.21916e-07
3.55166e-07
3.53736e-07
3.35407e-07
3.16702e-07
3.16708e-07
3.01795e-07
3.018e-07
3.53743e-07
3.35414e-07
3.16685e-07
3.16712e-07
3.01777e-07
3.01804e-07
3.16711e-07
3.01778e-07
3.01803e-07
3.53749e-07
3.35422e-07
3.16695e-07
3.01782e-07
3.01787e-07
3.35432e-07
3.34155e-07
3.17533e-07
2.97073e-07
2.97078e-07
2.83646e-07
2.8365e-07
3.34163e-07
3.1754e-07
2.97054e-07
2.97082e-07
2.83625e-07
2.83654e-07
2.97082e-07
2.83628e-07
2.83654e-07
3.3417e-07
3.17548e-07
2.97065e-07
2.83631e-07
2.83636e-07
3.17559e-07
3.1648e-07
3.01967e-07
2.79415e-07
2.79419e-07
2.67459e-07
2.67463e-07
3.16488e-07
3.01973e-07
2.79394e-07
2.79422e-07
2.67438e-07
2.67467e-07
2.79423e-07
2.67441e-07
2.67467e-07
3.16495e-07
3.01982e-07
2.79405e-07
2.67444e-07
2.67448e-07
3.01993e-07
3.01149e-07
2.89028e-07
2.6372e-07
2.63724e-07
2.53241e-07
2.53246e-07
3.01157e-07
2.89034e-07
2.63698e-07
2.63727e-07
2.53218e-07
2.53249e-07
2.63728e-07
2.53222e-07
2.53249e-07
3.01164e-07
2.89043e-07
2.63709e-07
2.53225e-07
2.5323e-07
2.89055e-07
2.88475e-07
2.78935e-07
2.49995e-07
2.5e-07
2.40994e-07
2.41e-07
2.88484e-07
2.78941e-07
2.49972e-07
2.50002e-07
2.4097e-07
2.41003e-07
2.50003e-07
2.40974e-07
2.41002e-07
2.88491e-07
2.7895e-07
2.49983e-07
2.40977e-07
2.40982e-07
2.78962e-07
2.78675e-07
2.71814e-07
2.38241e-07
2.38247e-07
2.30717e-07
2.30723e-07
2.78684e-07
2.71821e-07
2.38216e-07
2.38249e-07
2.30691e-07
2.30726e-07
2.38248e-07
2.30694e-07
2.30724e-07
2.78692e-07
2.7183e-07
2.38228e-07
2.30697e-07
2.30703e-07
2.71843e-07
2.71855e-07
2.67847e-07
2.28458e-07
2.28464e-07
2.22415e-07
2.22423e-07
2.71865e-07
2.67856e-07
2.28432e-07
2.28467e-07
2.22389e-07
2.22427e-07
2.28465e-07
2.2239e-07
2.22423e-07
2.71872e-07
2.67867e-07
2.28444e-07
2.22394e-07
2.22402e-07
2.6788e-07
2.6814e-07
2.66962e-07
2.20653e-07
2.20662e-07
2.16096e-07
2.16107e-07
2.68153e-07
2.66975e-07
2.20626e-07
2.20664e-07
2.16068e-07
2.1611e-07
2.2066e-07
2.16069e-07
2.16104e-07
2.68161e-07
2.66984e-07
2.20639e-07
2.16073e-07
2.16083e-07
2.67001e-07
2.67615e-07
2.69136e-07
2.14832e-07
2.14844e-07
2.11769e-07
2.11787e-07
2.67631e-07
2.69151e-07
2.14804e-07
2.14846e-07
2.11743e-07
2.11788e-07
2.14841e-07
2.11742e-07
2.11778e-07
2.67639e-07
2.69162e-07
2.14819e-07
2.11747e-07
2.11759e-07
2.69179e-07
2.70465e-07
2.74645e-07
2.11006e-07
2.11025e-07
2.09443e-07
2.09468e-07
2.70483e-07
2.74662e-07
2.10982e-07
2.11027e-07
2.09419e-07
2.09468e-07
2.11015e-07
2.09415e-07
2.09452e-07
2.70493e-07
2.74674e-07
2.10997e-07
2.0942e-07
2.09436e-07
2.74694e-07
2.76668e-07
2.83528e-07
2.09185e-07
2.09212e-07
2.09162e-07
2.09191e-07
2.76691e-07
2.83549e-07
2.09163e-07
2.09212e-07
2.09138e-07
2.09191e-07
2.09196e-07
2.09131e-07
2.09171e-07
2.76699e-07
2.83562e-07
2.09181e-07
2.09137e-07
2.09157e-07
2.83582e-07
2.86252e-07
2.95785e-07
2.09391e-07
2.09421e-07
2.10889e-07
2.10925e-07
2.86279e-07
2.95809e-07
2.09367e-07
2.09422e-07
2.10864e-07
2.10924e-07
2.09399e-07
2.10855e-07
2.10898e-07
2.86288e-07
2.9582e-07
2.09386e-07
2.10861e-07
2.10887e-07
2.95845e-07
2.99185e-07
3.11445e-07
2.11657e-07
2.11692e-07
2.1471e-07
2.14754e-07
2.99216e-07
3.11473e-07
2.11632e-07
2.11693e-07
2.14685e-07
2.14754e-07
2.11666e-07
2.14674e-07
2.14723e-07
2.99225e-07
3.11491e-07
2.11654e-07
2.14682e-07
2.14713e-07
3.11522e-07
3.1554e-07
3.30543e-07
2.16001e-07
2.16044e-07
2.20652e-07
2.20697e-07
3.15568e-07
3.30569e-07
2.15976e-07
2.16045e-07
2.20623e-07
2.20696e-07
2.16012e-07
2.20609e-07
2.20657e-07
3.15587e-07
3.30579e-07
2.16002e-07
2.20614e-07
2.20648e-07
3.30597e-07
3.35336e-07
3.52866e-07
2.22469e-07
2.2251e-07
2.28699e-07
2.28739e-07
3.35353e-07
3.52883e-07
2.22437e-07
2.2251e-07
2.28663e-07
2.28749e-07
2.22472e-07
2.28642e-07
2.28702e-07
3.35365e-07
3.52923e-07
2.22461e-07
2.28656e-07
2.28693e-07
3.52945e-07
3.58325e-07
3.78339e-07
2.31039e-07
2.31079e-07
2.38854e-07
2.3889e-07
3.58335e-07
3.78344e-07
2.31001e-07
2.31091e-07
2.38812e-07
2.389e-07
2.31043e-07
2.38785e-07
2.38857e-07
3.58383e-07
3.78369e-07
2.31032e-07
2.38797e-07
2.38846e-07
3.78422e-07
3.8444e-07
4.06681e-07
2.41717e-07
2.41758e-07
2.51095e-07
2.51135e-07
3.84447e-07
4.06705e-07
2.41673e-07
2.41767e-07
2.51045e-07
2.51144e-07
2.4172e-07
2.51023e-07
2.51099e-07
3.84469e-07
4.06728e-07
2.41708e-07
2.51029e-07
2.51085e-07
4.06778e-07
4.13388e-07
4.37645e-07
2.54477e-07
2.54523e-07
2.65402e-07
2.65435e-07
4.1341e-07
4.37628e-07
2.54427e-07
2.54535e-07
2.65345e-07
2.65461e-07
2.54478e-07
2.6531e-07
2.65416e-07
4.13436e-07
4.37706e-07
2.54463e-07
2.65335e-07
2.654e-07
4.37784e-07
4.44892e-07
4.70756e-07
2.69286e-07
2.69315e-07
2.81685e-07
2.81718e-07
4.44855e-07
4.70754e-07
2.6923e-07
2.69343e-07
2.81624e-07
2.81743e-07
2.69315e-07
2.81588e-07
2.8169e-07
4.4493e-07
4.7081e-07
2.69297e-07
2.81606e-07
2.81669e-07
4.70864e-07
4.78463e-07
5.05586e-07
2.86056e-07
2.86095e-07
2.99872e-07
2.99964e-07
4.78488e-07
5.058e-07
2.85989e-07
2.86118e-07
2.99802e-07
3.00031e-07
2.86053e-07
2.99818e-07
2.99855e-07
4.78539e-07
5.05977e-07
2.86028e-07
2.9988e-07
2.99832e-07
5.05711e-07
5.13708e-07
5.42011e-07
3.04696e-07
3.04837e-07
3.19936e-07
3.19963e-07
5.13919e-07
5.41872e-07
3.04623e-07
3.0491e-07
3.19854e-07
3.19863e-07
3.04709e-07
3.19813e-07
3.19959e-07
5.14137e-07
5.41672e-07
3.04681e-07
3.19714e-07
3.19928e-07
5.42242e-07
5.50531e-07
5.79558e-07
3.25216e-07
3.25153e-07
3.41776e-07
3.4165e-07
5.50195e-07
5.79014e-07
3.25136e-07
3.25034e-07
3.41681e-07
3.41728e-07
3.25205e-07
3.41487e-07
3.41726e-07
5.49908e-07
5.79261e-07
3.25163e-07
3.41558e-07
3.41677e-07
5.79471e-07
5.88273e-07
6.16628e-07
3.47554e-07
3.47263e-07
3.64783e-07
3.65372e-07
5.87823e-07
6.17878e-07
3.4747e-07
3.47466e-07
3.64692e-07
3.65271e-07
3.47421e-07
3.65189e-07
3.65049e-07
5.88183e-07
6.17445e-07
3.47376e-07
3.6509e-07
3.6501e-07
6.16987e-07
6.25208e-07
6.54206e-07
3.70878e-07
3.71379e-07
3.89209e-07
3.89891e-07
6.26893e-07
6.55128e-07
3.70791e-07
3.71355e-07
3.89104e-07
3.89571e-07
3.70934e-07
3.89708e-07
3.89365e-07
6.26239e-07
6.5453e-07
3.70878e-07
3.89406e-07
3.89309e-07
6.54588e-07
6.63428e-07
6.97964e-07
3.95697e-07
3.95986e-07
4.16516e-07
4.15054e-07
6.63619e-07
6.91695e-07
3.9561e-07
3.95753e-07
4.16139e-07
4.15718e-07
3.95849e-07
4.14788e-07
4.17077e-07
6.6328e-07
6.95975e-07
3.95775e-07
4.15435e-07
4.16781e-07
6.99297e-07
7.08914e-07
7.47549e-07
4.24012e-07
4.2171e-07
4.49063e-07
4.45026e-07
7.01279e-07
7.40044e-07
4.23717e-07
4.23677e-07
4.4954e-07
4.48596e-07
4.25421e-07
4.45278e-07
4.4713e-07
7.07179e-07
7.42483e-07
4.25193e-07
4.48834e-07
4.47555e-07
7.38623e-07
7.55735e-07
7.58196e-07
4.56494e-07
4.54853e-07
4.69235e-07
4.81362e-07
7.53066e-07
7.89307e-07
4.56993e-07
4.55014e-07
4.68863e-07
4.67552e-07
4.52312e-07
4.8005e-07
4.62495e-07
7.48922e-07
7.53961e-07
4.5276e-07
4.66563e-07
4.62603e-07
7.51679e-07
7.59281e-07
7.62173e-07
4.71201e-07
4.86e-07
4.7912e-07
4.87291e-07
7.93615e-07
7.73038e-07
4.70332e-07
4.70215e-07
4.77662e-07
4.87568e-07
4.67614e-07
4.86947e-07
5.04469e-07
7.57664e-07
7.89794e-07
4.6685e-07
4.87949e-07
5.02605e-07
8.24115e-07
7.74447e-07
8.67575e-07
4.86817e-07
4.8752e-07
5.33806e-07
5.08812e-07
7.74193e-07
8.22181e-07
4.86052e-07
5.01816e-07
5.37215e-07
5.42016e-07
5.15707e-07
5.11799e-07
5.24118e-07
8.09603e-07
8.68992e-07
5.15074e-07
5.44337e-07
5.26538e-07
8.20221e-07
8.84737e-07
8.95196e-07
5.50104e-07
5.35279e-07
5.74933e-07
5.68972e-07
8.5677e-07
8.97162e-07
5.52999e-07
5.4869e-07
5.72298e-07
5.53373e-07
5.21899e-07
5.65566e-07
5.18529e-07
8.73483e-07
8.46726e-07
5.24805e-07
5.5066e-07
5.18455e-07
7.63471e-07
8.94516e-07
8.29165e-07
5.748e-07
5.67015e-07
5.5598e-07
5.27389e-07
8.90589e-07
7.37758e-07
5.71766e-07
5.52912e-07
5.55509e-07
5.56318e-07
5.21991e-07
5.25731e-07
6.10192e-07
8.46855e-07
8.5113e-07
5.20996e-07
5.52332e-07
6.08634e-07
9.88465e-07
8.30535e-07
9.2424e-07
5.54573e-07
5.26354e-07
5.83734e-07
6.01265e-07
7.3808e-07
1.00921e-06
5.55271e-07
5.62801e-07
5.9311e-07
6.25181e-07
6.47724e-07
6.13671e-07
6.73838e-07
8.67073e-07
9.73962e-07
6.50486e-07
6.34611e-07
6.81022e-07
1.04702e-06
9.61599e-07
9.77093e-07
6.21839e-07
6.91395e-07
6.65146e-07
7.76615e-07
1.09208e-06
1.19199e-06
6.2944e-07
6.43463e-07
6.61824e-07
6.50387e-07
6.68873e-07
7.74013e-07
6.02735e-07
9.86684e-07
9.2759e-07
6.75576e-07
6.5004e-07
5.9906e-07
8.07503e-07
9.64539e-07
8.28604e-07
6.62307e-07
7.68447e-07
6.1764e-07
5.96842e-07
1.17072e-06
7.51978e-07
6.5703e-07
6.39097e-07
6.13232e-07
5.99697e-07
5.94284e-07
5.94321e-07
6.06938e-07
9.10244e-07
8.06602e-07
5.88211e-07
5.97918e-07
5.99369e-07
8.80361e-07
8.30237e-07
1.01162e-06
6.16123e-07
5.5296e-07
6.68292e-07
5.44859e-07
7.10147e-07
7.20782e-07
6.12951e-07
6.0066e-07
6.80021e-07
6.88988e-07
6.34218e-07
5.47566e-07
7.08591e-07
8.11405e-07
1.03696e-06
6.28225e-07
6.96291e-07
7.18681e-07
1.04852e-06
1.06135e-06
1.16407e-06
7.19351e-07
5.80547e-07
8.1323e-07
8.30229e-07
8.2197e-07
1.20651e-06
7.33098e-07
7.42067e-07
8.17829e-07
8.2063e-07
7.25402e-07
8.28889e-07
7.68724e-07
1.08404e-06
1.16754e-06
7.36709e-07
8.19459e-07
7.71951e-07
1.08852e-06
1.16804e-06
1.11986e-06
8.22678e-07
8.62669e-07
8.22522e-07
8.6954e-07
1.22561e-06
1.18679e-06
8.24057e-07
8.24691e-07
8.20182e-07
8.14719e-07
7.79822e-07
8.66945e-07
7.97292e-07
1.16958e-06
1.10598e-06
7.79905e-07
8.12279e-07
7.93639e-07
1.09772e-06
1.11612e-06
1.07254e-06
8.13209e-07
8.55833e-07
7.89202e-07
8.0616e-07
1.17881e-06
1.0923e-06
8.09118e-07
8.02534e-07
7.88255e-07
7.87882e-07
7.98956e-07
8.0642e-07
8.01282e-07
1.1025e-06
1.07401e-06
7.95413e-07
7.88175e-07
7.99807e-07
1.09625e-06
1.07402e-06
1.08736e-06
7.88028e-07
7.98845e-07
7.96337e-07
7.96786e-07
1.09236e-06
1.08699e-06
7.87495e-07
7.88134e-07
7.96736e-07
8.0281e-07
8.03049e-07
7.97572e-07
8.13478e-07
1.07763e-06
1.09799e-06
8.02033e-07
8.03827e-07
8.13754e-07
1.10636e-06
1.09733e-06
1.13296e-06
8.05483e-07
8.00809e-07
8.39649e-07
8.22428e-07
1.09186e-06
1.11069e-06
8.06017e-07
8.12159e-07
8.40379e-07
8.39204e-07
8.18087e-07
8.22182e-07
8.34692e-07
1.10686e-06
1.12946e-06
8.18661e-07
8.39021e-07
8.35418e-07
1.12249e-06
1.14045e-06
1.15217e-06
8.48811e-07
8.3312e-07
8.67648e-07
8.64349e-07
1.11981e-06
1.14996e-06
8.49416e-07
8.46313e-07
8.67656e-07
8.66023e-07
8.41421e-07
8.63663e-07
8.63907e-07
1.13549e-06
1.15041e-06
8.41968e-07
8.65362e-07
8.63804e-07
1.14871e-06
1.15629e-06
1.16747e-06
8.72301e-07
8.73183e-07
8.87975e-07
8.94026e-07
1.15808e-06
1.17636e-06
8.72115e-07
8.72505e-07
8.87536e-07
8.90993e-07
8.71619e-07
8.94192e-07
8.93406e-07
1.15659e-06
1.17228e-06
8.71353e-07
8.91202e-07
8.92973e-07
1.17539e-06
1.17402e-06
1.19416e-06
8.94713e-07
8.99673e-07
9.16654e-07
9.15775e-07
1.18174e-06
1.19301e-06
8.94282e-07
8.96901e-07
9.16343e-07
9.14637e-07
8.99955e-07
9.15839e-07
9.17046e-07
1.17792e-06
1.19142e-06
8.99537e-07
9.14717e-07
9.1675e-07
1.19437e-06
1.20031e-06
1.21116e-06
9.23064e-07
9.21048e-07
9.37948e-07
9.36034e-07
1.19788e-06
1.20844e-06
9.22793e-07
9.20432e-07
9.37749e-07
9.36734e-07
9.21975e-07
9.35832e-07
9.35747e-07
1.1968e-06
1.2092e-06
9.2171e-07
9.36552e-07
9.35565e-07
1.20782e-06
1.21547e-06
1.22606e-06
9.42449e-07
9.40907e-07
9.57281e-07
9.56318e-07
1.21319e-06
1.22497e-06
9.42259e-07
9.41908e-07
9.57099e-07
9.57505e-07
9.40479e-07
9.56104e-07
9.56317e-07
1.21426e-06
1.22661e-06
9.40307e-07
9.57312e-07
9.56149e-07
1.22513e-06
1.23105e-06
1.2418e-06
9.62293e-07
9.61642e-07
9.76477e-07
9.77076e-07
1.23022e-06
1.24263e-06
9.62117e-07
9.62744e-07
9.76311e-07
9.77813e-07
9.61985e-07
9.77111e-07
9.78343e-07
1.2318e-06
1.24354e-06
9.61814e-07
9.77864e-07
9.7819e-07
1.24434e-06
1.24652e-06
1.25802e-06
9.81282e-07
9.81987e-07
9.96296e-07
9.96177e-07
1.24752e-06
1.25806e-06
9.81103e-07
9.8249e-07
9.96069e-07
9.9588e-07
9.83278e-07
9.96161e-07
9.96547e-07
1.24821e-06
1.25762e-06
9.83114e-07
9.95881e-07
9.9634e-07
1.25845e-06
1.26275e-06
1.2717e-06
1.001e-06
1.00068e-06
1.01337e-06
1.01345e-06
1.26257e-06
1.27181e-06
1.00077e-06
1.00027e-06
1.01312e-06
1.01319e-06
1.00068e-06
1.01337e-06
1.01301e-06
1.26197e-06
1.27142e-06
1.00046e-06
1.01313e-06
1.01277e-06
1.27101e-06
1.27587e-06
1.28566e-06
1.01739e-06
1.01757e-06
1.03037e-06
1.02991e-06
1.2761e-06
1.28523e-06
1.01713e-06
1.01743e-06
1.03017e-06
1.03026e-06
1.01715e-06
1.0298e-06
1.0297e-06
1.27587e-06
1.28563e-06
1.01691e-06
1.03016e-06
1.02951e-06
1.28491e-06
1.29014e-06
1.29823e-06
1.03464e-06
1.03403e-06
1.04595e-06
1.04607e-06
1.28955e-06
1.29852e-06
1.03446e-06
1.0345e-06
1.04576e-06
1.04625e-06
1.03399e-06
1.04604e-06
1.04671e-06
1.29003e-06
1.29872e-06
1.03382e-06
1.04623e-06
1.04653e-06
1.29931e-06
1.30205e-06
1.31045e-06
1.04946e-06
1.04988e-06
1.06075e-06
1.06071e-06
1.30266e-06
1.31051e-06
1.04925e-06
1.04988e-06
1.06054e-06
1.06074e-06
1.05061e-06
1.06078e-06
1.06113e-06
1.3027e-06
1.31034e-06
1.05041e-06
1.06082e-06
1.06094e-06
1.3109e-06
1.31477e-06
1.32258e-06
1.0647e-06
1.06428e-06
1.07542e-06
1.07478e-06
1.31441e-06
1.32183e-06
1.06449e-06
1.06436e-06
1.07518e-06
1.07476e-06
1.06453e-06
1.07463e-06
1.07473e-06
1.3143e-06
1.32186e-06
1.06434e-06
1.07462e-06
1.07451e-06
1.32179e-06
1.32604e-06
1.3315e-06
1.07839e-06
1.07807e-06
1.08694e-06
1.08757e-06
1.32563e-06
1.33251e-06
1.07817e-06
1.07813e-06
1.08676e-06
1.08803e-06
1.07802e-06
1.08761e-06
1.08769e-06
1.3257e-06
1.33299e-06
1.07781e-06
1.08808e-06
1.08754e-06
1.33251e-06
1.33524e-06
1.3432e-06
1.09016e-06
1.09073e-06
1.10039e-06
1.09985e-06
1.33622e-06
1.34266e-06
1.08998e-06
1.09112e-06
1.10016e-06
1.09983e-06
1.09089e-06
1.09981e-06
1.10005e-06
1.33669e-06
1.34269e-06
1.09073e-06
1.0998e-06
1.09983e-06
1.34285e-06
1.34693e-06
1.35215e-06
1.10342e-06
1.10267e-06
1.11124e-06
1.11107e-06
1.34612e-06
1.35191e-06
1.1032e-06
1.10275e-06
1.11108e-06
1.1114e-06
1.10296e-06
1.11105e-06
1.11139e-06
1.34616e-06
1.35224e-06
1.10276e-06
1.11139e-06
1.11124e-06
1.35226e-06
1.35536e-06
1.36077e-06
1.11383e-06
1.11388e-06
1.12179e-06
1.12178e-06
1.35542e-06
1.36104e-06
1.11365e-06
1.11405e-06
1.12154e-06
1.12149e-06
1.11403e-06
1.12174e-06
1.1218e-06
1.35564e-06
1.36055e-06
1.11388e-06
1.12146e-06
1.12157e-06
1.36093e-06
1.36406e-06
1.36863e-06
1.12426e-06
1.1242e-06
1.13112e-06
1.13117e-06
1.36424e-06
1.36873e-06
1.12401e-06
1.124e-06
1.13093e-06
1.13144e-06
1.12438e-06
1.13122e-06
1.13136e-06
1.3638e-06
1.36904e-06
1.12415e-06
1.13149e-06
1.13119e-06
1.36887e-06
1.37179e-06
1.37669e-06
1.13345e-06
1.13343e-06
1.14052e-06
1.14014e-06
1.37188e-06
1.37639e-06
1.13328e-06
1.13375e-06
1.1403e-06
1.14026e-06
1.13342e-06
1.14004e-06
1.1402e-06
1.37223e-06
1.37656e-06
1.13327e-06
1.14016e-06
1.14e-06
1.37643e-06
1.37975e-06
1.38318e-06
1.14264e-06
1.14234e-06
1.14823e-06
1.14832e-06
1.37947e-06
1.38339e-06
1.14241e-06
1.14245e-06
1.1481e-06
1.14879e-06
1.14268e-06
1.14845e-06
1.14888e-06
1.37966e-06
1.38382e-06
1.14246e-06
1.14891e-06
1.14877e-06
1.38391e-06
1.38608e-06
1.39034e-06
1.15015e-06
1.15016e-06
1.15629e-06
1.15586e-06
1.38625e-06
1.38986e-06
1.15004e-06
1.1506e-06
1.15602e-06
1.15529e-06
1.15039e-06
1.15571e-06
1.15553e-06
1.3866e-06
1.38914e-06
1.15031e-06
1.15514e-06
1.15528e-06
1.38951e-06
1.39326e-06
1.3954e-06
1.15816e-06
1.15776e-06
1.16263e-06
1.16292e-06
1.39284e-06
1.39615e-06
1.15785e-06
1.1571e-06
1.16244e-06
1.16347e-06
1.15776e-06
1.16302e-06
1.1637e-06
1.39201e-06
1.39674e-06
1.15747e-06
1.16355e-06
1.16353e-06
1.39688e-06
1.39779e-06
1.40059e-06
1.16389e-06
1.16448e-06
1.1683e-06
1.16836e-06
1.39876e-06
1.40056e-06
1.16373e-06
1.16524e-06
1.16813e-06
1.16857e-06
1.16492e-06
1.16841e-06
1.16762e-06
1.39966e-06
1.40089e-06
1.16478e-06
1.16861e-06
1.16746e-06
1.3996e-06
1.40374e-06
1.40775e-06
1.17018e-06
1.16942e-06
1.17556e-06
1.17413e-06
1.40298e-06
1.40605e-06
1.17004e-06
1.1696e-06
1.17542e-06
1.17392e-06
1.16908e-06
1.17396e-06
1.17522e-06
1.40309e-06
1.40546e-06
1.16896e-06
1.17372e-06
1.17511e-06
1.40761e-06
1.41003e-06
1.4087e-06
1.17671e-06
1.17618e-06
1.17834e-06
1.18024e-06
1.4092e-06
1.41149e-06
1.17649e-06
1.17552e-06
1.17791e-06
1.17989e-06
1.17697e-06
1.18037e-06
1.17944e-06
1.40835e-06
1.4114e-06
1.17678e-06
1.18007e-06
1.17903e-06
1.41037e-06
1.41043e-06
1.41296e-06
1.17896e-06
1.18057e-06
1.18215e-06
1.18109e-06
1.41335e-06
1.41126e-06
1.17858e-06
1.18113e-06
1.18234e-06
1.18331e-06
1.17966e-06
1.18111e-06
1.18181e-06
1.4139e-06
1.41417e-06
1.1793e-06
1.18322e-06
1.182e-06
1.41236e-06
1.41616e-06
1.42097e-06
1.18358e-06
1.18197e-06
1.18937e-06
1.18889e-06
1.41405e-06
1.42047e-06
1.18389e-06
1.18362e-06
1.18893e-06
1.186e-06
1.18342e-06
1.18886e-06
1.18832e-06
1.41605e-06
1.41638e-06
1.1837e-06
1.18612e-06
1.18806e-06
1.41961e-06
1.42348e-06
1.4198e-06
1.19065e-06
1.19024e-06
1.19056e-06
1.19012e-06
1.42318e-06
1.41905e-06
1.19e-06
1.18735e-06
1.19007e-06
1.19116e-06
1.18932e-06
1.18988e-06
1.19032e-06
1.41892e-06
1.42162e-06
1.18877e-06
1.19078e-06
1.18974e-06
1.42024e-06
1.421e-06
1.41827e-06
1.18967e-06
1.18958e-06
1.18938e-06
1.19014e-06
1.42035e-06
1.42085e-06
1.18956e-06
1.19215e-06
1.18965e-06
1.19319e-06
1.19052e-06
1.19053e-06
1.19188e-06
1.42421e-06
1.42457e-06
1.19036e-06
1.19366e-06
1.19264e-06
1.42268e-06
1.42188e-06
1.4289e-06
1.19037e-06
1.19231e-06
1.19729e-06
1.19667e-06
1.42505e-06
1.42903e-06
1.1908e-06
1.1931e-06
1.19641e-06
1.19268e-06
1.19243e-06
1.19641e-06
1.1945e-06
1.42621e-06
1.42142e-06
1.19297e-06
1.19265e-06
1.19346e-06
1.42406e-06
1.43109e-06
1.42699e-06
1.1978e-06
1.19653e-06
1.19676e-06
1.19454e-06
1.43032e-06
1.42271e-06
1.19688e-06
1.19284e-06
1.19663e-06
1.19782e-06
1.19545e-06
1.19446e-06
1.19702e-06
1.42309e-06
1.42911e-06
1.1941e-06
1.19768e-06
1.19709e-06
1.42812e-06
1.42844e-06
1.42529e-06
1.19613e-06
1.19452e-06
1.19547e-06
1.19772e-06
1.42431e-06
1.42955e-06
1.19643e-06
1.19889e-06
1.19586e-06
1.19813e-06
1.19699e-06
1.1978e-06
1.1966e-06
1.43228e-06
1.42848e-06
1.19741e-06
1.19811e-06
1.19695e-06
1.42708e-06
1.42707e-06
1.42843e-06
1.19553e-06
1.19901e-06
1.19826e-06
1.19893e-06
1.43283e-06
1.43024e-06
1.19577e-06
1.19694e-06
1.1969e-06
1.1961e-06
1.19667e-06
1.19918e-06
1.19886e-06
1.42963e-06
1.42601e-06
1.1968e-06
1.19628e-06
1.19778e-06
1.42962e-06
1.43137e-06
1.43163e-06
1.19923e-06
1.19774e-06
1.1993e-06
1.19576e-06
1.4313e-06
1.42421e-06
1.19836e-06
1.19652e-06
1.19944e-06
1.19918e-06
1.19897e-06
1.19549e-06
1.1974e-06
1.42888e-06
1.43131e-06
1.19818e-06
1.19894e-06
1.19775e-06
1.42822e-06
1.43294e-06
1.4265e-06
1.19843e-06
1.19581e-06
1.19634e-06
1.19898e-06
1.42602e-06
1.4321e-06
1.19902e-06
1.19911e-06
1.19608e-06
1.19668e-06
1.19683e-06
1.19902e-06
1.19693e-06
1.43302e-06
1.42705e-06
1.1972e-06
1.19668e-06
1.19683e-06
1.42831e-06
1.42805e-06
1.42916e-06
1.1963e-06
1.19938e-06
1.19733e-06
1.19733e-06
1.43488e-06
1.42858e-06
1.19584e-06
1.19631e-06
1.19675e-06
1.19698e-06
1.19782e-06
1.19763e-06
1.19818e-06
1.42856e-06
1.42938e-06
1.19722e-06
1.19723e-06
1.19757e-06
1.43013e-06
1.43135e-06
1.42797e-06
1.19739e-06
1.19561e-06
1.19571e-06
1.19405e-06
1.42946e-06
1.42398e-06
1.19714e-06
1.19738e-06
1.1962e-06
1.19634e-06
1.1974e-06
1.19384e-06
1.19483e-06
1.43167e-06
1.42803e-06
1.1972e-06
1.1961e-06
1.19509e-06
1.42627e-06
1.42939e-06
1.4277e-06
1.19508e-06
1.19434e-06
1.19496e-06
1.19653e-06
1.42715e-06
1.43199e-06
1.19526e-06
1.19525e-06
1.19441e-06
1.19427e-06
1.19475e-06
1.19667e-06
1.19573e-06
1.42934e-06
1.42662e-06
1.19484e-06
1.19435e-06
1.19519e-06
1.42954e-06
1.43008e-06
1.42771e-06
1.19526e-06
1.19639e-06
1.19455e-06
1.19242e-06
1.43379e-06
1.42388e-06
1.19459e-06
1.19458e-06
1.19442e-06
1.19503e-06
1.19578e-06
1.19235e-06
1.19367e-06
1.42934e-06
1.42937e-06
1.19522e-06
1.19499e-06
1.19373e-06
1.42599e-06
1.42891e-06
1.42135e-06
1.19321e-06
1.19129e-06
1.1893e-06
1.18996e-06
1.42509e-06
1.42296e-06
1.19355e-06
1.19445e-06
1.1892e-06
1.18943e-06
1.19231e-06
1.18987e-06
1.1894e-06
1.43062e-06
1.4214e-06
1.19259e-06
1.1894e-06
1.18935e-06
1.42178e-06
1.42283e-06
1.4225e-06
1.18869e-06
1.18986e-06
1.18822e-06
1.1887e-06
1.42538e-06
1.42388e-06
1.18838e-06
1.18839e-06
1.18779e-06
1.18763e-06
1.18907e-06
1.18881e-06
1.18903e-06
1.42277e-06
1.42174e-06
1.18883e-06
1.1877e-06
1.18862e-06
1.4239e-06
1.42478e-06
1.42381e-06
1.18833e-06
1.18822e-06
1.18803e-06
1.18663e-06
1.42531e-06
1.4213e-06
1.18798e-06
1.18778e-06
1.18802e-06
1.1878e-06
1.18904e-06
1.18668e-06
1.18761e-06
1.42416e-06
1.42327e-06
1.18871e-06
1.18784e-06
1.18767e-06
1.42269e-06
1.42525e-06
1.41815e-06
1.18759e-06
1.1863e-06
1.18394e-06
1.18367e-06
1.42285e-06
1.4178e-06
1.18759e-06
1.1874e-06
1.1837e-06
1.18432e-06
1.1868e-06
1.18337e-06
1.183e-06
1.42468e-06
1.41913e-06
1.18679e-06
1.1841e-06
1.18285e-06
1.41711e-06
1.4193e-06
1.41326e-06
1.18237e-06
1.18241e-06
1.17875e-06
1.179e-06
1.4191e-06
1.41385e-06
1.18217e-06
1.1835e-06
1.17882e-06
1.1801e-06
1.18223e-06
1.17913e-06
1.1802e-06
1.42055e-06
1.41591e-06
1.18208e-06
1.18024e-06
1.1803e-06
1.41587e-06
1.41498e-06
1.41633e-06
1.17857e-06
1.17884e-06
1.17879e-06
1.17927e-06
1.41562e-06
1.41759e-06
1.17866e-06
1.17953e-06
1.17858e-06
1.17669e-06
1.17998e-06
1.17938e-06
1.17846e-06
1.4174e-06
1.41228e-06
1.18008e-06
1.17679e-06
1.17823e-06
1.41517e-06
1.41824e-06
1.41043e-06
1.17873e-06
1.17923e-06
1.17506e-06
1.17508e-06
1.41957e-06
1.41022e-06
1.17836e-06
1.17618e-06
1.17417e-06
1.17392e-06
1.1779e-06
1.1747e-06
1.17386e-06
1.41365e-06
1.40947e-06
1.17752e-06
1.17371e-06
1.17321e-06
1.4092e-06
1.41146e-06
1.40526e-06
1.17333e-06
1.17245e-06
1.16884e-06
1.16721e-06
1.41088e-06
1.40163e-06
1.17278e-06
1.17375e-06
1.16942e-06
1.1726e-06
1.17303e-06
1.16736e-06
1.17002e-06
1.41128e-06
1.41179e-06
1.17257e-06
1.17272e-06
1.17051e-06
1.40721e-06
1.40697e-06
1.4068e-06
1.16863e-06
1.16721e-06
1.16823e-06
1.16904e-06
1.40355e-06
1.40908e-06
1.16925e-06
1.17205e-06
1.16838e-06
1.16699e-06
1.1697e-06
1.16908e-06
1.16816e-06
1.41342e-06
1.40332e-06
1.1703e-06
1.16705e-06
1.16837e-06
1.40614e-06
1.40811e-06
1.37636e-06
1.16677e-06
1.16865e-06
1.10376e-06
1.10511e-06
1.41125e-06
1.37971e-06
1.16646e-06
1.16382e-06
1.10309e-06
1.10165e-06
1.16624e-06
1.10509e-06
1.1037e-06
1.40397e-06
1.37267e-06
1.16607e-06
1.10167e-06
1.10307e-06
1.3764e-06
1.35481e-06
1.07937e-06
1.08007e-06
1.35662e-06
1.07887e-06
1.07812e-06
7.41724e-07
7.39697e-07
7.40686e-07
1.07943e-06
1.3528e-06
1.07896e-06
5.35653e-07
5.35523e-07
5.35636e-07
5.35636e-07
5.34569e-07
5.35437e-07
5.33636e-07
5.35608e-07
5.34569e-07
5.35437e-07
5.35608e-07
5.33635e-07
5.35196e-07
5.35984e-07
5.35983e-07
1.10752e-06
3.87706e-06
9.31517e-07
4.6028e-06
1.25997e-05
1.65964e-05
1.10795e-06
3.87738e-06
9.31279e-07
4.60373e-06
4.9917e-07
4.9917e-07
4.9917e-07
4.57218e-07
4.57218e-07
4.57218e-07
4.57218e-07
5.43021e-07
1.21905e-06
4.99137e-07
4.86017e-07
5.24982e-07
1.20925e-06
4.82349e-07
1.26009e-05
1.65977e-05
5.43028e-07
4.99137e-07
1.21903e-06
4.86017e-07
5.2498e-07
4.82349e-07
1.20923e-06
2.51859e-06
2.51919e-06
4.84044e-07
2.37583e-06
2.37655e-06
1.43236e-06
5.59145e-06
1.33113e-06
6.13442e-06
2.12857e-05
2.31129e-05
1.43272e-06
5.59222e-06
1.33093e-06
6.13568e-06
4.45574e-07
4.45575e-07
4.45575e-07
4.13574e-07
4.13574e-07
4.13574e-07