/*--------------------------------*- C++ -*----------------------------------*\
| =========                 |                                                 |
| \\      /  F ield         | OpenFOAM: The Open Source CFD Toolbox           |
|  \\    /   O peration     | Version:                                        |
|   \\  /    A nd           | Website:  www.openfoam.com                      |
|    \\/     M anipulation  |                                                 |
\*---------------------------------------------------------------------------*/
FoamFile
{
    version     2.0;
    format      ascii;
    class       volScalarField;
    location    "600";
    object      k;
}
// * * * * * * * * * * * * * * * * * * * * * * * * * * * * * * * * * * * * * //

dimensions      [0 2 -2 0 0 0 0];


internalField   nonuniform List<scalar> 
172512
(
3.60232e-05
3.60198e-05
3.60198e-05
3.60083e-05
3.39295e-05
3.38866e-05
3.38866e-05
3.39613e-05
3.21573e-05
3.20054e-05
3.20054e-05
3.19506e-05
3.05337e-05
3.02265e-05
3.02264e-05
2.99865e-05
2.90316e-05
2.85512e-05
2.85511e-05
2.81205e-05
2.76339e-05
2.69845e-05
2.69844e-05
2.63886e-05
2.63291e-05
2.55284e-05
2.55283e-05
2.48054e-05
2.51095e-05
2.41824e-05
2.41823e-05
2.33766e-05
2.39692e-05
2.29482e-05
2.29481e-05
2.21035e-05
2.2904e-05
2.18246e-05
2.18244e-05
2.09852e-05
2.19103e-05
2.08092e-05
2.08091e-05
2.0013e-05
2.09848e-05
1.98993e-05
1.98992e-05
1.91813e-05
2.01224e-05
1.90929e-05
1.90928e-05
1.84898e-05
1.93222e-05
1.83869e-05
1.83868e-05
1.79337e-05
1.85831e-05
1.77779e-05
1.77778e-05
1.75072e-05
1.79026e-05
1.72644e-05
1.72643e-05
1.72014e-05
1.72783e-05
1.68456e-05
1.68455e-05
1.70241e-05
1.67082e-05
1.65203e-05
1.65204e-05
1.69835e-05
1.61908e-05
1.62888e-05
1.62889e-05
1.70805e-05
1.57239e-05
1.6151e-05
1.61511e-05
1.7305e-05
1.5306e-05
1.61073e-05
1.61073e-05
1.76589e-05
1.49361e-05
1.61533e-05
1.61537e-05
1.8136e-05
1.46132e-05
1.62919e-05
1.6292e-05
1.87303e-05
1.43367e-05
1.65197e-05
1.65201e-05
1.94289e-05
1.41065e-05
1.68347e-05
1.68351e-05
2.02246e-05
1.39215e-05
1.72349e-05
1.72362e-05
2.10928e-05
1.37819e-05
1.77195e-05
1.77224e-05
2.20315e-05
1.36903e-05
1.82693e-05
1.8259e-05
2.30415e-05
1.36485e-05
1.89025e-05
1.89064e-05
2.40828e-05
1.36376e-05
1.96331e-05
1.96287e-05
2.5138e-05
1.36797e-05
2.03803e-05
2.0355e-05
2.62264e-05
1.38197e-05
2.11538e-05
2.13028e-05
2.7765e-05
1.40817e-05
2.25052e-05
2.24714e-05
2.87907e-05
1.39981e-05
2.35509e-05
2.26468e-05
2.88056e-05
1.38475e-05
2.32368e-05
2.34238e-05
3.18412e-05
1.48003e-05
2.44234e-05
2.58981e-05
3.08629e-05
1.53344e-05
2.59625e-05
2.53385e-05
2.75991e-05
1.44753e-05
2.30727e-05
2.51305e-05
3.84534e-05
1.4692e-05
3.02025e-05
2.90399e-05
4.08928e-05
1.60234e-05
3.66695e-05
2.8336e-05
2.83194e-05
1.51214e-05
2.46612e-05
2.4933e-05
3.21936e-05
1.59176e-05
2.23722e-05
3.15102e-05
3.96593e-05
2.17204e-05
3.81301e-05
3.75852e-05
4.06871e-05
2.23744e-05
4.01655e-05
3.6174e-05
4.02314e-05
1.9765e-05
3.55663e-05
3.37316e-05
3.99818e-05
1.88698e-05
3.39873e-05
3.39586e-05
4.03419e-05
1.98762e-05
3.45649e-05
3.56647e-05
4.08666e-05
2.11204e-05
3.66011e-05
3.67429e-05
4.19015e-05
2.17522e-05
3.79169e-05
3.77497e-05
4.29633e-05
2.27498e-05
3.87512e-05
3.86652e-05
4.36526e-05
2.362e-05
3.94771e-05
3.95161e-05
4.4103e-05
2.43656e-05
4.02931e-05
4.03688e-05
4.4805e-05
2.51247e-05
4.11647e-05
4.12144e-05
4.55861e-05
2.59749e-05
4.19532e-05
4.19325e-05
4.61205e-05
2.67786e-05
4.26642e-05
4.26439e-05
4.66132e-05
2.75956e-05
4.33619e-05
4.33828e-05
4.71917e-05
2.83956e-05
4.40717e-05
4.40726e-05
4.78084e-05
2.91802e-05
4.47164e-05
4.47175e-05
4.82801e-05
3.00008e-05
4.53373e-05
4.53324e-05
4.87525e-05
3.06996e-05
4.59376e-05
4.5962e-05
4.92182e-05
3.14907e-05
4.65028e-05
4.65039e-05
4.968e-05
3.22162e-05
4.70491e-05
4.70604e-05
5.01081e-05
3.2919e-05
4.75694e-05
4.75508e-05
5.05056e-05
3.35846e-05
4.80454e-05
4.80574e-05
5.08749e-05
3.4262e-05
4.85067e-05
4.85103e-05
5.12489e-05
3.4883e-05
4.89427e-05
4.89719e-05
5.16022e-05
3.55141e-05
4.93567e-05
4.93091e-05
5.18986e-05
3.60794e-05
4.97635e-05
4.9803e-05
5.22616e-05
3.66134e-05
5.00685e-05
5.00783e-05
5.24151e-05
3.72347e-05
5.04507e-05
5.04147e-05
5.2872e-05
3.76262e-05
5.08063e-05
5.08136e-05
5.29867e-05
3.80841e-05
5.09089e-05
5.10239e-05
5.31685e-05
3.8672e-05
5.14268e-05
5.12547e-05
5.35563e-05
3.90573e-05
5.15254e-05
5.16035e-05
5.36369e-05
3.92017e-05
5.16869e-05
5.18347e-05
5.38088e-05
3.98263e-05
5.2076e-05
5.18428e-05
5.39397e-05
4.01696e-05
5.20515e-05
5.22528e-05
5.42042e-05
4.02918e-05
5.23699e-05
5.23631e-05
5.42092e-05
4.06368e-05
5.25104e-05
5.23533e-05
5.44253e-05
4.10066e-05
5.24208e-05
5.26129e-05
5.44239e-05
4.10966e-05
5.27587e-05
5.26138e-05
5.45159e-05
4.13213e-05
5.27693e-05
5.27667e-05
5.46449e-05
4.15542e-05
5.26902e-05
5.28071e-05
5.45802e-05
4.16872e-05
5.29764e-05
5.28454e-05
5.47904e-05
4.18971e-05
5.28667e-05
5.29802e-05
5.47097e-05
4.18996e-05
5.28314e-05
5.28178e-05
5.45961e-05
4.19507e-05
5.29285e-05
5.28325e-05
5.47772e-05
4.22119e-05
5.29352e-05
5.29804e-05
5.48048e-05
4.22328e-05
5.28414e-05
5.29317e-05
5.46156e-05
4.2164e-05
5.27774e-05
5.28368e-05
5.46568e-05
4.2286e-05
5.29228e-05
5.2735e-05
5.46887e-05
4.23207e-05
5.27527e-05
5.2715e-05
5.44846e-05
4.22322e-05
5.24911e-05
5.27971e-05
5.44856e-05
4.2245e-05
5.27323e-05
5.26003e-05
5.45101e-05
4.39792e-05
5.08548e-05
5.05832e-05
5.4094e-05
3.62983e-05
3.62919e-05
3.62919e-05
3.62984e-05
3.62919e-05
3.62919e-05
3.62908e-05
3.62908e-05
3.62908e-05
3.62908e-05
3.62919e-05
3.62919e-05
3.62984e-05
3.62919e-05
3.62919e-05
3.62984e-05
3.60083e-05
3.42678e-05
3.60198e-05
3.60198e-05
3.43746e-05
3.43745e-05
3.60083e-05
3.42678e-05
3.60198e-05
3.60198e-05
3.43746e-05
3.43745e-05
3.60198e-05
3.43746e-05
3.43746e-05
3.60083e-05
3.42678e-05
3.60198e-05
3.43746e-05
3.43746e-05
3.42678e-05
3.39613e-05
3.2262e-05
3.38865e-05
3.38865e-05
3.24657e-05
3.24656e-05
3.39613e-05
3.2262e-05
3.38865e-05
3.38865e-05
3.24658e-05
3.24656e-05
3.38865e-05
3.24658e-05
3.24657e-05
3.39613e-05
3.2262e-05
3.38866e-05
3.24658e-05
3.24657e-05
3.22619e-05
3.19507e-05
3.02976e-05
3.20052e-05
3.20051e-05
3.06615e-05
3.06613e-05
3.19507e-05
3.02975e-05
3.20053e-05
3.20051e-05
3.06616e-05
3.06613e-05
3.20052e-05
3.06617e-05
3.06614e-05
3.19506e-05
3.02975e-05
3.20053e-05
3.06617e-05
3.06616e-05
3.02974e-05
2.99866e-05
2.84235e-05
3.02261e-05
3.0226e-05
2.89596e-05
2.89594e-05
2.99866e-05
2.84235e-05
3.02263e-05
3.02259e-05
2.89598e-05
2.89593e-05
3.02261e-05
2.896e-05
2.89595e-05
2.99865e-05
2.84233e-05
3.02263e-05
2.89599e-05
2.89597e-05
2.84232e-05
2.81207e-05
2.66722e-05
2.85508e-05
2.85506e-05
2.73652e-05
2.7365e-05
2.81207e-05
2.66721e-05
2.8551e-05
2.85505e-05
2.73656e-05
2.73649e-05
2.85507e-05
2.73657e-05
2.73651e-05
2.81206e-05
2.66719e-05
2.85509e-05
2.73657e-05
2.73655e-05
2.66718e-05
2.6389e-05
2.50647e-05
2.69839e-05
2.69836e-05
2.58814e-05
2.58812e-05
2.63889e-05
2.50646e-05
2.69842e-05
2.69835e-05
2.58819e-05
2.5881e-05
2.69838e-05
2.5882e-05
2.58813e-05
2.63888e-05
2.50644e-05
2.69841e-05
2.5882e-05
2.58817e-05
2.50642e-05
2.48059e-05
2.36112e-05
2.55277e-05
2.55274e-05
2.45077e-05
2.45074e-05
2.48058e-05
2.36111e-05
2.55282e-05
2.55273e-05
2.45082e-05
2.45072e-05
2.55276e-05
2.45084e-05
2.45075e-05
2.48056e-05
2.36109e-05
2.5528e-05
2.45083e-05
2.4508e-05
2.36106e-05
2.33771e-05
2.23115e-05
2.41816e-05
2.41813e-05
2.32454e-05
2.32451e-05
2.3377e-05
2.23114e-05
2.41822e-05
2.41812e-05
2.3246e-05
2.32449e-05
2.41815e-05
2.32463e-05
2.32453e-05
2.33768e-05
2.23112e-05
2.4182e-05
2.32462e-05
2.32459e-05
2.23109e-05
2.2104e-05
2.11676e-05
2.29472e-05
2.2947e-05
2.20942e-05
2.20939e-05
2.21039e-05
2.11675e-05
2.29479e-05
2.29468e-05
2.2095e-05
2.20937e-05
2.29471e-05
2.20952e-05
2.20941e-05
2.21037e-05
2.11672e-05
2.29477e-05
2.20951e-05
2.20948e-05
2.1167e-05
2.09859e-05
2.01706e-05
2.18235e-05
2.18232e-05
2.1052e-05
2.10517e-05
2.09858e-05
2.01705e-05
2.18243e-05
2.18231e-05
2.10528e-05
2.10515e-05
2.18234e-05
2.10531e-05
2.10519e-05
2.09855e-05
2.01702e-05
2.18241e-05
2.10529e-05
2.10527e-05
2.017e-05
2.00136e-05
1.93149e-05
2.08081e-05
2.08078e-05
2.0116e-05
2.01157e-05
2.00135e-05
1.93148e-05
2.0809e-05
2.08077e-05
2.01168e-05
2.01155e-05
2.0808e-05
2.01171e-05
2.01159e-05
2.00132e-05
1.93145e-05
2.08088e-05
2.0117e-05
2.01167e-05
1.93142e-05
1.91817e-05
1.85913e-05
1.98982e-05
1.98979e-05
1.92837e-05
1.92834e-05
1.91818e-05
1.85911e-05
1.98991e-05
1.98977e-05
1.92846e-05
1.92833e-05
1.98981e-05
1.92848e-05
1.92837e-05
1.91815e-05
1.85908e-05
1.98989e-05
1.92847e-05
1.92845e-05
1.85905e-05
1.84902e-05
1.7999e-05
1.90918e-05
1.90915e-05
1.85528e-05
1.85525e-05
1.84903e-05
1.79987e-05
1.90927e-05
1.90914e-05
1.85537e-05
1.85524e-05
1.90918e-05
1.85538e-05
1.85528e-05
1.849e-05
1.79985e-05
1.90926e-05
1.85538e-05
1.85536e-05
1.79983e-05
1.79341e-05
1.75404e-05
1.83858e-05
1.83856e-05
1.79199e-05
1.79197e-05
1.79342e-05
1.75404e-05
1.83867e-05
1.83855e-05
1.79207e-05
1.79195e-05
1.83858e-05
1.79209e-05
1.79198e-05
1.79339e-05
1.75401e-05
1.83866e-05
1.79208e-05
1.79207e-05
1.754e-05
1.75074e-05
1.72189e-05
1.77768e-05
1.77767e-05
1.73824e-05
1.73823e-05
1.75076e-05
1.72189e-05
1.77777e-05
1.77766e-05
1.73833e-05
1.73823e-05
1.77769e-05
1.73834e-05
1.73825e-05
1.75072e-05
1.72187e-05
1.77777e-05
1.73834e-05
1.73833e-05
1.72187e-05
1.72016e-05
1.70274e-05
1.72634e-05
1.72633e-05
1.69399e-05
1.69399e-05
1.72017e-05
1.70275e-05
1.72643e-05
1.72633e-05
1.69407e-05
1.69398e-05
1.72635e-05
1.69407e-05
1.694e-05
1.72015e-05
1.70273e-05
1.72643e-05
1.69407e-05
1.69407e-05
1.70274e-05
1.7024e-05
1.6974e-05
1.68446e-05
1.68448e-05
1.65911e-05
1.65912e-05
1.70243e-05
1.69742e-05
1.68454e-05
1.68446e-05
1.65918e-05
1.65911e-05
1.68448e-05
1.65919e-05
1.65913e-05
1.7024e-05
1.6974e-05
1.68455e-05
1.65919e-05
1.6592e-05
1.69741e-05
1.69833e-05
1.70446e-05
1.65196e-05
1.65197e-05
1.63359e-05
1.63361e-05
1.69835e-05
1.70448e-05
1.65203e-05
1.65197e-05
1.63365e-05
1.6336e-05
1.65198e-05
1.63365e-05
1.63362e-05
1.69834e-05
1.70447e-05
1.65205e-05
1.63365e-05
1.63369e-05
1.70449e-05
1.708e-05
1.72438e-05
1.62882e-05
1.62884e-05
1.61741e-05
1.61745e-05
1.70803e-05
1.72442e-05
1.62888e-05
1.62884e-05
1.61747e-05
1.61746e-05
1.62884e-05
1.61747e-05
1.61747e-05
1.70802e-05
1.72443e-05
1.62891e-05
1.61748e-05
1.61753e-05
1.72448e-05
1.73041e-05
1.75739e-05
1.61504e-05
1.61507e-05
1.61067e-05
1.61071e-05
1.73045e-05
1.75744e-05
1.6151e-05
1.61508e-05
1.61072e-05
1.61071e-05
1.61507e-05
1.61071e-05
1.61069e-05
1.73046e-05
1.75741e-05
1.61514e-05
1.61071e-05
1.61075e-05
1.75739e-05
1.76591e-05
1.80269e-05
1.61069e-05
1.61073e-05
1.61327e-05
1.61329e-05
1.76594e-05
1.80269e-05
1.61074e-05
1.61073e-05
1.6133e-05
1.61333e-05
1.61071e-05
1.61327e-05
1.61329e-05
1.76591e-05
1.80276e-05
1.61077e-05
1.61331e-05
1.61335e-05
1.80277e-05
1.81353e-05
1.85987e-05
1.61533e-05
1.61536e-05
1.62488e-05
1.62488e-05
1.81352e-05
1.85982e-05
1.61535e-05
1.6154e-05
1.62491e-05
1.62493e-05
1.61535e-05
1.62484e-05
1.6249e-05
1.81362e-05
1.85985e-05
1.6154e-05
1.62489e-05
1.62495e-05
1.85994e-05
1.87297e-05
1.92758e-05
1.62919e-05
1.62923e-05
1.64546e-05
1.64549e-05
1.87293e-05
1.92764e-05
1.62921e-05
1.62925e-05
1.64546e-05
1.64551e-05
1.6292e-05
1.64545e-05
1.64553e-05
1.87292e-05
1.92761e-05
1.62924e-05
1.64544e-05
1.64557e-05
1.92772e-05
1.94276e-05
2.00502e-05
1.65198e-05
1.65205e-05
1.67492e-05
1.67493e-05
1.94281e-05
2.00492e-05
1.65199e-05
1.65208e-05
1.6749e-05
1.675e-05
1.65202e-05
1.67483e-05
1.67507e-05
1.94279e-05
2.00512e-05
1.65205e-05
1.67491e-05
1.6751e-05
2.0053e-05
2.02209e-05
2.09054e-05
1.68355e-05
1.68355e-05
1.71277e-05
1.71277e-05
2.02189e-05
2.09046e-05
1.68355e-05
1.68361e-05
1.71276e-05
1.71296e-05
1.68383e-05
1.71266e-05
1.71282e-05
2.0221e-05
2.09061e-05
1.68385e-05
1.71285e-05
1.71283e-05
2.0908e-05
2.10922e-05
2.1828e-05
1.7235e-05
1.72356e-05
1.75874e-05
1.7591e-05
2.10925e-05
2.1838e-05
1.72345e-05
1.72374e-05
1.75868e-05
1.75929e-05
1.7236e-05
1.75895e-05
1.7586e-05
2.10942e-05
2.18427e-05
1.72358e-05
1.75913e-05
1.7586e-05
2.18301e-05
2.20295e-05
2.28196e-05
1.77133e-05
1.77214e-05
1.81304e-05
1.8131e-05
2.20399e-05
2.28158e-05
1.77126e-05
1.7724e-05
1.81294e-05
1.81232e-05
1.77132e-05
1.81292e-05
1.8132e-05
2.20464e-05
2.28073e-05
1.77129e-05
1.81219e-05
1.81317e-05
2.28256e-05
2.30367e-05
2.38683e-05
1.82769e-05
1.82704e-05
1.87524e-05
1.8743e-05
2.30248e-05
2.38394e-05
1.82764e-05
1.82606e-05
1.8751e-05
1.87408e-05
1.82764e-05
1.87415e-05
1.87459e-05
2.30103e-05
2.38403e-05
1.82758e-05
1.87393e-05
1.87447e-05
2.38572e-05
2.40936e-05
2.49044e-05
1.8926e-05
1.89033e-05
1.94141e-05
1.94527e-05
2.40691e-05
2.49587e-05
1.89254e-05
1.89083e-05
1.94139e-05
1.94461e-05
1.89091e-05
1.94506e-05
1.9444e-05
2.4076e-05
2.49379e-05
1.89081e-05
1.94438e-05
1.94432e-05
2.49209e-05
2.51222e-05
2.59735e-05
1.96019e-05
1.96337e-05
2.01493e-05
2.02029e-05
2.51989e-05
2.60362e-05
1.96016e-05
1.96308e-05
2.01488e-05
2.01653e-05
1.96122e-05
2.01998e-05
2.01411e-05
2.51672e-05
2.59902e-05
1.96113e-05
2.01633e-05
2.0141e-05
2.59683e-05
2.62219e-05
2.73582e-05
2.0349e-05
2.03824e-05
2.10606e-05
2.09628e-05
2.62554e-05
2.70751e-05
2.03507e-05
2.03571e-05
2.10437e-05
2.10133e-05
2.03537e-05
2.09541e-05
2.112e-05
2.62194e-05
2.7257e-05
2.03529e-05
2.10044e-05
2.11077e-05
2.74163e-05
2.76959e-05
2.91206e-05
2.13447e-05
2.11606e-05
2.23607e-05
2.20257e-05
2.73372e-05
2.86826e-05
2.13319e-05
2.13062e-05
2.23886e-05
2.22576e-05
2.14232e-05
2.20486e-05
2.21876e-05
2.75926e-05
2.8867e-05
2.14139e-05
2.22743e-05
2.22083e-05
2.8702e-05
2.93565e-05
2.91449e-05
2.26063e-05
2.24904e-05
2.27867e-05
2.35261e-05
2.91252e-05
3.05679e-05
2.26319e-05
2.24647e-05
2.27834e-05
2.26583e-05
2.23094e-05
2.34849e-05
2.24656e-05
2.90217e-05
2.88659e-05
2.23342e-05
2.26324e-05
2.24775e-05
2.87085e-05
2.90821e-05
2.85361e-05
2.27448e-05
2.35977e-05
2.26872e-05
2.3318e-05
3.06579e-05
2.93722e-05
2.27164e-05
2.26745e-05
2.26341e-05
2.29204e-05
2.25443e-05
2.33169e-05
2.39474e-05
2.88912e-05
2.96582e-05
2.25422e-05
2.29091e-05
2.38366e-05
3.13105e-05
2.88071e-05
3.27542e-05
2.27504e-05
2.32003e-05
2.4833e-05
2.34642e-05
2.93096e-05
3.03881e-05
2.27061e-05
2.33819e-05
2.49872e-05
2.55587e-05
2.44269e-05
2.35418e-05
2.4626e-05
3.03277e-05
3.31254e-05
2.4387e-05
2.56631e-05
2.46999e-05
3.12645e-05
3.35214e-05
3.41858e-05
2.57937e-05
2.42997e-05
2.68881e-05
2.61767e-05
3.16935e-05
3.4137e-05
2.59286e-05
2.58374e-05
2.68314e-05
2.58333e-05
2.4362e-05
2.60471e-05
2.33283e-05
3.32794e-05
3.18811e-05
2.44946e-05
2.57468e-05
2.33085e-05
2.75521e-05
3.40681e-05
3.05537e-05
2.68658e-05
2.61158e-05
2.52916e-05
2.34324e-05
3.39466e-05
2.64774e-05
2.67864e-05
2.55446e-05
2.52226e-05
2.52055e-05
2.33482e-05
2.33192e-05
2.66411e-05
3.17261e-05
3.11967e-05
2.33186e-05
2.50258e-05
2.64463e-05
3.64666e-05
3.04862e-05
3.35102e-05
2.49647e-05
2.30935e-05
2.54252e-05
2.50741e-05
2.62395e-05
3.5953e-05
2.50085e-05
2.52652e-05
2.56838e-05
2.77623e-05
2.92694e-05
2.54123e-05
3.18668e-05
3.16405e-05
3.61961e-05
2.92923e-05
2.81887e-05
3.22216e-05
4.1377e-05
3.49024e-05
3.65548e-05
2.68163e-05
2.96302e-05
2.93122e-05
3.6827e-05
3.95955e-05
4.72862e-05
2.72483e-05
2.86738e-05
2.92248e-05
2.90301e-05
3.17724e-05
3.67578e-05
2.71802e-05
3.67128e-05
3.46453e-05
3.21229e-05
2.91655e-05
2.71616e-05
2.93192e-05
3.58667e-05
2.91638e-05
2.92275e-05
3.67753e-05
2.63759e-05
2.88262e-05
4.69699e-05
2.90561e-05
2.90771e-05
2.84609e-05
2.60892e-05
2.50909e-05
2.57418e-05
2.85829e-05
2.50917e-05
3.36313e-05
2.80179e-05
2.55544e-05
2.50007e-05
2.48046e-05
3.02545e-05
2.91097e-05
3.61797e-05
2.60329e-05
2.47563e-05
2.73037e-05
2.16637e-05
2.61893e-05
2.26809e-05
2.58423e-05
2.49856e-05
2.75736e-05
2.77637e-05
2.56218e-05
2.17385e-05
3.07777e-05
2.8055e-05
3.71169e-05
2.53262e-05
2.80931e-05
3.11945e-05
3.90001e-05
3.82359e-05
4.4191e-05
3.00349e-05
2.22766e-05
3.64461e-05
3.51842e-05
2.61976e-05
4.48888e-05
3.06954e-05
3.11808e-05
3.6848e-05
3.71432e-05
3.19685e-05
3.51766e-05
3.42195e-05
3.91797e-05
4.45338e-05
3.255e-05
3.71521e-05
3.45526e-05
4.06406e-05
4.43538e-05
4.22153e-05
3.72378e-05
3.82232e-05
3.74306e-05
4.04311e-05
4.61673e-05
4.62808e-05
3.7461e-05
3.76421e-05
3.74181e-05
3.73336e-05
3.46052e-05
4.02901e-05
3.49058e-05
4.46238e-05
4.17083e-05
3.47649e-05
3.72103e-05
3.48124e-05
4.0232e-05
4.18501e-05
3.89507e-05
3.68941e-05
4.03007e-05
3.42483e-05
3.66683e-05
4.57828e-05
4.07206e-05
3.66794e-05
3.63123e-05
3.4117e-05
3.39736e-05
3.48669e-05
3.6641e-05
3.44971e-05
4.12575e-05
3.89363e-05
3.46573e-05
3.39623e-05
3.43422e-05
3.99259e-05
3.89187e-05
3.90854e-05
3.38139e-05
3.55564e-05
3.35562e-05
3.40456e-05
4.04299e-05
3.9299e-05
3.37258e-05
3.3718e-05
3.35151e-05
3.36712e-05
3.44571e-05
3.40887e-05
3.45653e-05
3.89526e-05
3.95325e-05
3.4326e-05
3.37073e-05
3.45407e-05
4.02244e-05
3.93849e-05
4.10996e-05
3.36393e-05
3.39469e-05
3.52478e-05
3.41121e-05
3.93399e-05
3.98816e-05
3.3614e-05
3.38957e-05
3.52995e-05
3.53298e-05
3.47107e-05
3.41325e-05
3.52139e-05
3.98353e-05
4.10063e-05
3.47149e-05
3.53481e-05
3.52621e-05
4.0702e-05
4.14083e-05
4.19431e-05
3.57482e-05
3.45724e-05
3.6654e-05
3.61748e-05
4.02007e-05
4.16407e-05
3.57976e-05
3.56686e-05
3.66737e-05
3.65065e-05
3.54437e-05
3.61429e-05
3.6313e-05
4.12004e-05
4.17958e-05
3.54885e-05
3.6475e-05
3.63276e-05
4.16666e-05
4.20382e-05
4.23724e-05
3.68181e-05
3.66285e-05
3.73105e-05
3.76523e-05
4.19484e-05
4.28379e-05
3.68264e-05
3.67694e-05
3.72976e-05
3.75022e-05
3.66379e-05
3.766e-05
3.75949e-05
4.1984e-05
4.26348e-05
3.66419e-05
3.75118e-05
3.75811e-05
4.2762e-05
4.25606e-05
4.34755e-05
3.75594e-05
3.79002e-05
3.85092e-05
3.85423e-05
4.30046e-05
4.34566e-05
3.75445e-05
3.77314e-05
3.84972e-05
3.84264e-05
3.78854e-05
3.85562e-05
3.86117e-05
4.28014e-05
4.33506e-05
3.78702e-05
3.84407e-05
3.85996e-05
4.35262e-05
4.36873e-05
4.41586e-05
3.88033e-05
3.87437e-05
3.94276e-05
3.9302e-05
4.35928e-05
4.40104e-05
3.87932e-05
3.86577e-05
3.94224e-05
3.93124e-05
3.88034e-05
3.9298e-05
3.92933e-05
4.35104e-05
4.40348e-05
3.87929e-05
3.9309e-05
3.92881e-05
4.39843e-05
4.42724e-05
4.47089e-05
3.95956e-05
3.94819e-05
4.01701e-05
4.00816e-05
4.41416e-05
4.46335e-05
3.95915e-05
3.95203e-05
4.01674e-05
4.01564e-05
3.94591e-05
4.00739e-05
4.00673e-05
4.41842e-05
4.47194e-05
3.94551e-05
4.01496e-05
4.00647e-05
4.46287e-05
4.48589e-05
4.53147e-05
4.03711e-05
4.03002e-05
4.09291e-05
4.09486e-05
4.47931e-05
4.53507e-05
4.03689e-05
4.03754e-05
4.09283e-05
4.10112e-05
4.03046e-05
4.09528e-05
4.10197e-05
4.48776e-05
4.54066e-05
4.03021e-05
4.10161e-05
4.10189e-05
4.54344e-05
4.54486e-05
4.59722e-05
4.11197e-05
4.11564e-05
4.17549e-05
4.17591e-05
4.54989e-05
4.59786e-05
4.11184e-05
4.12055e-05
4.17507e-05
4.17499e-05
4.12369e-05
4.17656e-05
4.17989e-05
4.55455e-05
4.59584e-05
4.12358e-05
4.17572e-05
4.17953e-05
4.60056e-05
4.61206e-05
4.65298e-05
4.19614e-05
4.195e-05
4.24844e-05
4.24884e-05
4.61124e-05
4.6535e-05
4.19566e-05
4.19287e-05
4.24779e-05
4.24638e-05
4.19656e-05
4.24892e-05
4.24608e-05
4.60817e-05
4.65088e-05
4.1961e-05
4.2465e-05
4.24541e-05
4.64909e-05
4.6645e-05
4.7105e-05
4.26489e-05
4.26621e-05
4.3207e-05
4.31868e-05
4.66594e-05
4.70849e-05
4.2642e-05
4.26417e-05
4.32022e-05
4.31963e-05
4.26304e-05
4.3186e-05
4.31573e-05
4.66399e-05
4.70995e-05
4.26232e-05
4.31956e-05
4.31525e-05
4.70557e-05
4.72448e-05
4.76375e-05
4.33985e-05
4.33646e-05
4.38973e-05
4.38972e-05
4.72124e-05
4.76455e-05
4.33952e-05
4.33854e-05
4.38942e-05
4.3909e-05
4.33441e-05
4.3898e-05
4.39237e-05
4.72331e-05
4.7657e-05
4.33407e-05
4.39102e-05
4.39209e-05
4.76794e-05
4.77411e-05
4.81446e-05
4.4047e-05
4.40674e-05
4.454e-05
4.45496e-05
4.77686e-05
4.81567e-05
4.4043e-05
4.40678e-05
4.45361e-05
4.45473e-05
4.41037e-05
4.45586e-05
4.45773e-05
4.77711e-05
4.81457e-05
4.41001e-05
4.45567e-05
4.45739e-05
4.81756e-05
4.82787e-05
4.86954e-05
4.4722e-05
4.47094e-05
4.52331e-05
4.51892e-05
4.82693e-05
4.86473e-05
4.47183e-05
4.47101e-05
4.52274e-05
4.51807e-05
4.47285e-05
4.51865e-05
4.51865e-05
4.82622e-05
4.86428e-05
4.47251e-05
4.51784e-05
4.51809e-05
4.86422e-05
4.87918e-05
4.90626e-05
4.53716e-05
4.53409e-05
4.57446e-05
4.57808e-05
4.87579e-05
4.91165e-05
4.5366e-05
4.53355e-05
4.57425e-05
4.58061e-05
4.53351e-05
4.57855e-05
4.57805e-05
4.87535e-05
4.91417e-05
4.53296e-05
4.58112e-05
4.57788e-05
4.911e-05
4.91668e-05
4.95994e-05
4.58886e-05
4.59305e-05
4.63848e-05
4.63669e-05
4.92251e-05
4.95764e-05
4.58865e-05
4.59546e-05
4.63797e-05
4.63646e-05
4.59314e-05
4.63701e-05
4.63692e-05
4.92522e-05
4.95735e-05
4.59299e-05
4.63677e-05
4.63643e-05
4.95778e-05
4.97148e-05
5.00106e-05
4.65389e-05
4.65014e-05
4.69243e-05
4.69056e-05
4.96738e-05
4.9992e-05
4.65341e-05
4.65026e-05
4.69228e-05
4.69258e-05
4.65106e-05
4.69087e-05
4.69258e-05
4.96699e-05
5.00123e-05
4.65058e-05
4.69286e-05
4.69244e-05
5.00115e-05
5.00969e-05
5.04128e-05
4.70486e-05
4.70456e-05
4.74438e-05
4.74445e-05
5.00949e-05
5.0425e-05
4.70469e-05
4.7057e-05
4.74383e-05
4.74236e-05
4.70559e-05
4.7446e-05
4.74384e-05
5.01109e-05
5.03948e-05
4.70545e-05
4.74254e-05
4.74335e-05
5.04111e-05
5.05078e-05
5.07806e-05
4.75697e-05
4.75671e-05
4.79159e-05
4.79236e-05
5.05144e-05
5.07896e-05
4.75635e-05
4.75481e-05
4.79119e-05
4.79298e-05
4.75701e-05
4.79306e-05
4.79326e-05
5.04847e-05
5.08018e-05
4.75644e-05
4.79369e-05
4.79291e-05
5.07958e-05
5.08675e-05
5.1178e-05
4.80339e-05
4.80394e-05
4.84089e-05
4.83888e-05
5.08772e-05
5.1159e-05
4.80312e-05
4.80515e-05
4.84049e-05
4.8396e-05
4.80373e-05
4.8387e-05
4.8381e-05
5.08934e-05
5.11655e-05
4.80352e-05
4.83941e-05
4.83774e-05
5.11499e-05
5.12657e-05
5.14976e-05
4.85255e-05
4.85075e-05
4.88279e-05
4.88332e-05
5.12454e-05
5.15096e-05
4.85206e-05
4.85113e-05
4.88275e-05
4.88587e-05
4.85138e-05
4.88437e-05
4.88675e-05
5.12511e-05
5.15328e-05
4.8509e-05
4.88688e-05
4.88675e-05
5.15372e-05
5.15737e-05
5.18632e-05
4.89305e-05
4.89322e-05
4.92732e-05
4.92506e-05
5.15858e-05
5.18364e-05
4.8932e-05
4.89617e-05
4.92676e-05
4.92184e-05
4.89537e-05
4.92481e-05
4.92237e-05
5.16085e-05
5.17992e-05
4.89556e-05
4.92159e-05
4.92188e-05
5.18059e-05
5.19474e-05
5.21374e-05
4.93826e-05
4.93612e-05
4.96502e-05
4.96608e-05
5.1921e-05
5.21668e-05
4.93741e-05
4.93137e-05
4.96462e-05
4.96801e-05
4.93461e-05
4.9667e-05
4.97077e-05
5.187e-05
5.21918e-05
4.93381e-05
4.96859e-05
4.97038e-05
5.22059e-05
5.21929e-05
5.23949e-05
4.97241e-05
4.97527e-05
4.99698e-05
4.99976e-05
5.22345e-05
5.24171e-05
4.97222e-05
4.97928e-05
4.99678e-05
5.00121e-05
4.97879e-05
5.00075e-05
4.99468e-05
5.22797e-05
5.24357e-05
4.97861e-05
5.00218e-05
4.99444e-05
5.23578e-05
5.24856e-05
5.28063e-05
5.00798e-05
5.00646e-05
5.04379e-05
5.03299e-05
5.24751e-05
5.26922e-05
5.00789e-05
5.00742e-05
5.04396e-05
5.03249e-05
5.00243e-05
5.03224e-05
5.03916e-05
5.24826e-05
5.26713e-05
5.00236e-05
5.03165e-05
5.03946e-05
5.27832e-05
5.28618e-05
5.28945e-05
5.05264e-05
5.04542e-05
5.06423e-05
5.0751e-05
5.27865e-05
5.30227e-05
5.05248e-05
5.04196e-05
5.0626e-05
5.07077e-05
5.05126e-05
5.07617e-05
5.07158e-05
5.27502e-05
5.30057e-05
5.05122e-05
5.07215e-05
5.07004e-05
5.29682e-05
5.29177e-05
5.31113e-05
5.06742e-05
5.07951e-05
5.08773e-05
5.08545e-05
5.30558e-05
5.30697e-05
5.06579e-05
5.08009e-05
5.08912e-05
5.09925e-05
5.07379e-05
5.08622e-05
5.08609e-05
5.3077e-05
5.32078e-05
5.07222e-05
5.09917e-05
5.08719e-05
5.30777e-05
5.32102e-05
5.35728e-05
5.09752e-05
5.09036e-05
5.13597e-05
5.13101e-05
5.31167e-05
5.35344e-05
5.09982e-05
5.10218e-05
5.13534e-05
5.11634e-05
5.09575e-05
5.1315e-05
5.13069e-05
5.32401e-05
5.33321e-05
5.09768e-05
5.11777e-05
5.13092e-05
5.35051e-05
5.36407e-05
5.36158e-05
5.14701e-05
5.14298e-05
5.15611e-05
5.15328e-05
5.36148e-05
5.35779e-05
5.14497e-05
5.125e-05
5.15411e-05
5.15311e-05
5.13932e-05
5.15255e-05
5.15216e-05
5.3393e-05
5.36448e-05
5.138e-05
5.15103e-05
5.1487e-05
5.36048e-05
5.36147e-05
5.35355e-05
5.15494e-05
5.15299e-05
5.15272e-05
5.1556e-05
5.3581e-05
5.36397e-05
5.1537e-05
5.16151e-05
5.15372e-05
5.17858e-05
5.15504e-05
5.15685e-05
5.16735e-05
5.37199e-05
5.38731e-05
5.1532e-05
5.18139e-05
5.17189e-05
5.3766e-05
5.36103e-05
5.41278e-05
5.15547e-05
5.16444e-05
5.20288e-05
5.20565e-05
5.37702e-05
5.41458e-05
5.15748e-05
5.18064e-05
5.2007e-05
5.18215e-05
5.17195e-05
5.20562e-05
5.18861e-05
5.38953e-05
5.37975e-05
5.17663e-05
5.18383e-05
5.18542e-05
5.38911e-05
5.419e-05
5.41593e-05
5.21397e-05
5.20847e-05
5.22095e-05
5.2062e-05
5.41591e-05
5.39402e-05
5.20996e-05
5.18335e-05
5.21905e-05
5.21313e-05
5.19625e-05
5.20524e-05
5.21685e-05
5.38107e-05
5.41727e-05
5.19076e-05
5.21107e-05
5.21506e-05
5.41632e-05
5.41666e-05
5.41064e-05
5.22014e-05
5.206e-05
5.21703e-05
5.22124e-05
5.39508e-05
5.42609e-05
5.21936e-05
5.22613e-05
5.21993e-05
5.23649e-05
5.22033e-05
5.22249e-05
5.22365e-05
5.42932e-05
5.43086e-05
5.22147e-05
5.23701e-05
5.22794e-05
5.41965e-05
5.41249e-05
5.42884e-05
5.21734e-05
5.23537e-05
5.23717e-05
5.24975e-05
5.43845e-05
5.44606e-05
5.22046e-05
5.23563e-05
5.23286e-05
5.2325e-05
5.22512e-05
5.25159e-05
5.24541e-05
5.43041e-05
5.42086e-05
5.22857e-05
5.23388e-05
5.24039e-05
5.43688e-05
5.43881e-05
5.45674e-05
5.24861e-05
5.24931e-05
5.26327e-05
5.24236e-05
5.4451e-05
5.42158e-05
5.24379e-05
5.23381e-05
5.26448e-05
5.25829e-05
5.25125e-05
5.2421e-05
5.25429e-05
5.42584e-05
5.45111e-05
5.24668e-05
5.25805e-05
5.25449e-05
5.44174e-05
5.45792e-05
5.44155e-05
5.2633e-05
5.24248e-05
5.25885e-05
5.26588e-05
5.42303e-05
5.46272e-05
5.26512e-05
5.26216e-05
5.26007e-05
5.2621e-05
5.25364e-05
5.26491e-05
5.25535e-05
5.45399e-05
5.44468e-05
5.25471e-05
5.26152e-05
5.25679e-05
5.44488e-05
5.44249e-05
5.45595e-05
5.25873e-05
5.27527e-05
5.26977e-05
5.27921e-05
5.47194e-05
5.46325e-05
5.25907e-05
5.26154e-05
5.26487e-05
5.26725e-05
5.26159e-05
5.28102e-05
5.27784e-05
5.44565e-05
5.45744e-05
5.26196e-05
5.27003e-05
5.27589e-05
5.46366e-05
5.4621e-05
5.46505e-05
5.27585e-05
5.27537e-05
5.28046e-05
5.26787e-05
5.46074e-05
5.44235e-05
5.27303e-05
5.27467e-05
5.28207e-05
5.28115e-05
5.27799e-05
5.26789e-05
5.27521e-05
5.46353e-05
5.46416e-05
5.27671e-05
5.28128e-05
5.27623e-05
5.45568e-05
5.46584e-05
5.46794e-05
5.28045e-05
5.26909e-05
5.28331e-05
5.29392e-05
5.44807e-05
5.48701e-05
5.28212e-05
5.28078e-05
5.28286e-05
5.28052e-05
5.27528e-05
5.29454e-05
5.28824e-05
5.4646e-05
5.46285e-05
5.27636e-05
5.2808e-05
5.28751e-05
5.47511e-05
5.47292e-05
5.47826e-05
5.28934e-05
5.29682e-05
5.29554e-05
5.29162e-05
5.49003e-05
5.46315e-05
5.28596e-05
5.28352e-05
5.29487e-05
5.29785e-05
5.29317e-05
5.29223e-05
5.29428e-05
5.46873e-05
5.48355e-05
5.29168e-05
5.29808e-05
5.29337e-05
5.47126e-05
5.47851e-05
5.45772e-05
5.2949e-05
5.28643e-05
5.28251e-05
5.28232e-05
5.4624e-05
5.46156e-05
5.29463e-05
5.29785e-05
5.28359e-05
5.2859e-05
5.29135e-05
5.28225e-05
5.28098e-05
5.48459e-05
5.45879e-05
5.29175e-05
5.28589e-05
5.28195e-05
5.45789e-05
5.45842e-05
5.46572e-05
5.28049e-05
5.28324e-05
5.28177e-05
5.2904e-05
5.46715e-05
5.47547e-05
5.28074e-05
5.28149e-05
5.28069e-05
5.27944e-05
5.28062e-05
5.2913e-05
5.2885e-05
5.45901e-05
5.46221e-05
5.28125e-05
5.28018e-05
5.28663e-05
5.47283e-05
5.47159e-05
5.48248e-05
5.28737e-05
5.29163e-05
5.29972e-05
5.29262e-05
5.47704e-05
5.47205e-05
5.28509e-05
5.282e-05
5.29966e-05
5.29638e-05
5.29403e-05
5.29369e-05
5.29855e-05
5.46788e-05
5.47889e-05
5.29249e-05
5.29707e-05
5.2982e-05
5.48013e-05
5.48432e-05
5.4692e-05
5.30033e-05
5.29259e-05
5.29535e-05
5.28952e-05
5.47312e-05
5.46479e-05
5.3005e-05
5.29776e-05
5.29555e-05
5.29637e-05
5.29813e-05
5.28832e-05
5.28637e-05
5.48063e-05
5.47224e-05
5.29792e-05
5.29574e-05
5.28696e-05
5.4611e-05
5.46784e-05
5.45077e-05
5.28807e-05
5.28548e-05
5.2749e-05
5.27698e-05
5.46488e-05
5.45387e-05
5.28835e-05
5.29398e-05
5.27587e-05
5.28419e-05
5.28326e-05
5.27745e-05
5.28068e-05
5.47283e-05
5.46402e-05
5.28394e-05
5.28486e-05
5.28173e-05
5.46215e-05
5.45299e-05
5.46999e-05
5.2748e-05
5.27709e-05
5.28472e-05
5.28871e-05
5.45647e-05
5.47636e-05
5.27582e-05
5.28251e-05
5.284e-05
5.27418e-05
5.2817e-05
5.29021e-05
5.28536e-05
5.46485e-05
5.45328e-05
5.28302e-05
5.2757e-05
5.28499e-05
5.46834e-05
5.47327e-05
5.45816e-05
5.28776e-05
5.29142e-05
5.28536e-05
5.2872e-05
5.47992e-05
5.46043e-05
5.28583e-05
5.27262e-05
5.28158e-05
5.27087e-05
5.28526e-05
5.28688e-05
5.27506e-05
5.45354e-05
5.44747e-05
5.28441e-05
5.2706e-05
5.27139e-05
5.44821e-05
5.45623e-05
5.43748e-05
5.27874e-05
5.27671e-05
5.25937e-05
5.24865e-05
5.45596e-05
5.41977e-05
5.27487e-05
5.27215e-05
5.26224e-05
5.27898e-05
5.27132e-05
5.24935e-05
5.26389e-05
5.45129e-05
5.46643e-05
5.26859e-05
5.27932e-05
5.26595e-05
5.44564e-05
5.43969e-05
5.44928e-05
5.25882e-05
5.2482e-05
5.26189e-05
5.26477e-05
5.42141e-05
5.45985e-05
5.26233e-05
5.27918e-05
5.26417e-05
5.26491e-05
5.26406e-05
5.26619e-05
5.26391e-05
5.4686e-05
5.44288e-05
5.26699e-05
5.26673e-05
5.26686e-05
5.45052e-05
5.4509e-05
5.42903e-05
5.26349e-05
5.2725e-05
5.1307e-05
5.14362e-05
5.46629e-05
5.4493e-05
5.26466e-05
5.25854e-05
5.12764e-05
5.11131e-05
5.26435e-05
5.14386e-05
5.12953e-05
5.43638e-05
5.40578e-05
5.2666e-05
5.11163e-05
5.12649e-05
5.42772e-05
5.40955e-05
5.07431e-05
5.08528e-05
5.4249e-05
5.07113e-05
5.05799e-05
4.40911e-05
4.38507e-05
4.3975e-05
5.07347e-05
5.39245e-05
5.07036e-05
3.73769e-05
3.73764e-05
3.73767e-05
3.73767e-05
3.73694e-05
3.73755e-05
3.73043e-05
3.73764e-05
3.73694e-05
3.73755e-05
3.73764e-05
3.73043e-05
3.73714e-05
3.72959e-05
3.72959e-05
3.58864e-05
4.08615e-05
3.66006e-05
4.51355e-05
5.51055e-05
6.48938e-05
3.5887e-05
4.08611e-05
3.66005e-05
4.51382e-05
3.60232e-05
3.60232e-05
3.60232e-05
3.44005e-05
3.44005e-05
3.44005e-05
3.44005e-05
3.52763e-05
3.56369e-05
3.60241e-05
3.53762e-05
3.60477e-05
3.42377e-05
3.53827e-05
5.51074e-05
6.48954e-05
3.52764e-05
3.60241e-05
3.56365e-05
3.53762e-05
3.60476e-05
3.53827e-05
3.42382e-05
3.65914e-05
3.65921e-05
3.52783e-05
3.40716e-05
3.40707e-05
3.39708e-05
5.13445e-05
3.46832e-05
5.46148e-05
7.65469e-05
8.08644e-05
3.39718e-05
5.1345e-05
3.46825e-05
5.46181e-05
3.39295e-05
3.39295e-05
3.39295e-05