/*--------------------------------*- C++ -*----------------------------------*\
| =========                 |                                                 |
| \\      /  F ield         | OpenFOAM: The Open Source CFD Toolbox           |
|  \\    /   O peration     | Version:                                        |
|   \\  /    A nd           | Website:  www.openfoam.com                      |
|    \\/     M anipulation  |                                                 |
\*---------------------------------------------------------------------------*/
FoamFile
{
    version     2.0;
    format      ascii;
    class       volScalarField;
    location    "600";
    object      nut;
}
// * * * * * * * * * * * * * * * * * * * * * * * * * * * * * * * * * * * * * //

dimensions      [0 2 -1 0 0 0 0];


internalField   nonuniform List<scalar> 
172512
(
0.000233969
0.000233548
0.000233548
0.000233451
0.000232529
0.00022758
0.00022758
0.000223833
0.000230487
0.000220158
0.000220157
0.000209027
0.000227758
0.000211542
0.00021154
0.000193702
0.000224387
0.000202552
0.000202549
0.000179637
0.000220505
0.000193693
0.000193689
0.000167281
0.000216258
0.000185208
0.000185204
0.000156542
0.000211776
0.000177176
0.000177171
0.000147172
0.000207165
0.000169636
0.000169632
0.000138926
0.000202505
0.000162564
0.000162559
0.000131599
0.000197852
0.000155904
0.0001559
0.000124945
0.00019324
0.000149604
0.000149599
0.000118811
0.000188648
0.000143624
0.000143619
0.000113168
0.000184117
0.000137912
0.000137907
0.000107937
0.000179673
0.000132422
0.000132417
0.000103063
0.000175305
0.000127147
0.000127143
9.84443e-05
0.000171003
0.000122107
0.000122102
9.42612e-05
0.000166752
0.000117325
0.000117321
9.06713e-05
0.000162553
0.000112841
0.000112838
8.77425e-05
0.000158379
0.000108708
0.000108705
8.5395e-05
0.00015423
0.000104982
0.000104979
8.36819e-05
0.000150112
0.000101671
0.000101668
8.25973e-05
0.00014603
9.88558e-05
9.8852e-05
8.21143e-05
0.00014201
9.65444e-05
9.6543e-05
8.2166e-05
0.00013808
9.47539e-05
9.47497e-05
8.27176e-05
0.000134253
9.34874e-05
9.34964e-05
8.36771e-05
0.000130587
9.27458e-05
9.27546e-05
8.50204e-05
0.000127148
9.24281e-05
9.23603e-05
8.67667e-05
0.000123965
9.26436e-05
9.2631e-05
8.87329e-05
0.0001209
9.3454e-05
9.34201e-05
9.09265e-05
0.000118245
9.44499e-05
9.4267e-05
9.32289e-05
0.000116575
9.55438e-05
9.64405e-05
9.76327e-05
0.000116001
0.000100207
9.98863e-05
0.000100336
0.000112228
0.000103029
9.84064e-05
9.84536e-05
0.000107262
9.96412e-05
9.81173e-05
0.000108947
0.000111534
9.99626e-05
0.000109719
0.000105199
0.0001144
0.000107755
0.000105317
8.91241e-05
0.000103925
9.11428e-05
0.00010127
0.000128978
9.83153e-05
0.00011718
0.000116762
0.00014557
0.00010683
0.00015832
0.000114181
9.02045e-05
9.60169e-05
9.89194e-05
9.33115e-05
0.000100466
9.26849e-05
7.71188e-05
0.000119535
0.000133349
0.00014172
0.000152127
0.000154539
0.000136123
0.000149536
0.000170017
0.000147039
0.000132464
0.000124913
0.000142398
0.00012986
0.000130849
0.00011332
0.000129714
0.000127645
0.000131849
0.000116054
0.000129149
0.000135347
0.000133172
0.000123298
0.000138159
0.000139335
0.000136695
0.000124997
0.000143779
0.000142948
0.0001406
0.000129351
0.000146743
0.000146189
0.000143041
0.000133277
0.000149101
0.000149234
0.000144387
0.00013609
0.000151976
0.000152371
0.000146798
0.000138992
0.000155292
0.000155585
0.000149718
0.000142579
0.000158311
0.000158217
0.000151624
0.000146025
0.000161
0.000160868
0.000153338
0.000149546
0.000163676
0.000163758
0.000155444
0.000153097
0.0001665
0.000166503
0.000157811
0.000156538
0.000169089
0.000169084
0.00015958
0.000160419
0.000171619
0.000171571
0.000161371
0.00016349
0.000174115
0.000174236
0.000163162
0.000167253
0.000176514
0.000176509
0.000164981
0.000170765
0.00017886
0.000178918
0.000166691
0.000174161
0.000181161
0.000181049
0.000168281
0.000177397
0.000183294
0.000183335
0.000169802
0.00018082
0.000185385
0.000185395
0.00017132
0.000183974
0.000187424
0.000187577
0.000172845
0.000187287
0.000189397
0.000189141
0.000174056
0.000190284
0.000191372
0.000191551
0.00017568
0.000193055
0.000192943
0.000192988
0.00017633
0.000196688
0.000194775
0.000194608
0.000178369
0.000198786
0.000196767
0.000196728
0.000178957
0.000201245
0.00019734
0.000197957
0.000179737
0.000204897
0.000200015
0.000199145
0.000181563
0.000207473
0.000200864
0.000201047
0.000182088
0.000207802
0.000201542
0.000202603
0.000182905
0.000211962
0.000204034
0.000202799
0.000183587
0.000214568
0.000204144
0.00020497
0.000184905
0.000215181
0.00020584
0.000206161
0.000185127
0.00021737
0.000207148
0.000206123
0.000186192
0.000220321
0.000206867
0.000207812
0.000186467
0.000221119
0.000208828
0.000208235
0.000186922
0.000222606
0.000209607
0.000209271
0.000187748
0.000224705
0.000209236
0.000209997
0.000187755
0.000225848
0.000211098
0.000210377
0.000188736
0.000227803
0.000211174
0.000211517
0.00018875
0.000228184
0.000211134
0.000211271
0.000188469
0.00022869
0.000212166
0.00021148
0.000189382
0.000231235
0.000212587
0.00021276
0.000189832
0.000232018
0.000212576
0.000213095
0.00018925
0.000231852
0.000212625
0.000212982
0.000189618
0.000233192
0.000213752
0.000212809
0.000190027
0.000234161
0.000213668
0.000213111
0.000189407
0.000234038
0.000212423
0.000214024
0.000189621
0.000234825
0.00021415
0.000213957
0.000190016
0.000235005
0.000215495
0.000213579
0.000194346
0.000234256
0.000234459
0.00023446
0.000234257
0.00023446
0.00023446
0.000234259
0.000234259
0.000234259
0.000234259
0.000234459
0.000234459
0.000234256
0.000234459
0.00023446
0.000234256
0.000233451
0.000226179
0.000233548
0.000233547
0.000229123
0.000229118
0.000233451
0.00022618
0.000233547
0.000233547
0.00022912
0.000229117
0.000233548
0.000229126
0.000229123
0.000233451
0.000226178
0.000233547
0.000229126
0.00022912
0.000226177
0.000223834
0.000212154
0.000227577
0.000227572
0.000222157
0.000222151
0.000223833
0.000212155
0.000227575
0.000227571
0.000222158
0.00022215
0.000227576
0.000222163
0.000222156
0.000223834
0.000212152
0.000227575
0.000222162
0.000222156
0.000212148
0.000209031
0.000196985
0.000220151
0.000220146
0.000213749
0.000213742
0.000209029
0.000196983
0.000220153
0.000220143
0.000213753
0.00021374
0.000220149
0.000213758
0.000213745
0.000209029
0.00019698
0.000220151
0.000213757
0.00021375
0.000196975
0.000193711
0.000182814
0.000211531
0.000211525
0.000204788
0.000204781
0.000193709
0.000182811
0.000211537
0.000211522
0.000204797
0.000204778
0.000211527
0.000204801
0.000204784
0.000193706
0.000182807
0.000211533
0.000204799
0.000204792
0.0001828
0.000179648
0.000170219
0.000202538
0.000202531
0.000195862
0.000195855
0.000179645
0.000170216
0.000202548
0.000202528
0.000195874
0.000195851
0.000202533
0.000195877
0.000195856
0.000179642
0.000170211
0.000202542
0.000195875
0.000195868
0.000170204
0.000167295
0.000159208
0.000193675
0.000193669
0.00018727
0.000187263
0.000167292
0.000159204
0.000193689
0.000193665
0.000187286
0.000187258
0.000193669
0.000187288
0.000187263
0.000167287
0.000159199
0.000193682
0.000187285
0.000187278
0.000159191
0.000156557
0.000149591
0.000185188
0.000185181
0.000179116
0.000179109
0.000156553
0.000149587
0.000185205
0.000185177
0.000179135
0.000179104
0.000185182
0.000179137
0.000179109
0.000156548
0.000149581
0.000185197
0.000179134
0.000179127
0.000149573
0.000147189
0.000141095
0.000177153
0.000177146
0.000171451
0.000171444
0.000147185
0.000141091
0.000177173
0.000177142
0.000171473
0.000171439
0.000177146
0.000171474
0.000171444
0.000147179
0.000141084
0.000177164
0.000171471
0.000171464
0.000141076
0.000138944
0.000133545
0.000169611
0.000169604
0.000164264
0.000164257
0.000138939
0.000133541
0.000169634
0.0001696
0.000164289
0.000164252
0.000169605
0.00016429
0.000164258
0.000138933
0.000133533
0.000169625
0.000164287
0.00016428
0.000133525
0.000131618
0.00012669
0.000162536
0.000162529
0.000157505
0.000157498
0.000131613
0.000126686
0.000162561
0.000162525
0.000157532
0.000157493
0.00016253
0.000157533
0.000157499
0.000131606
0.000126678
0.000162552
0.000157529
0.000157522
0.00012667
0.000124964
0.000120371
0.000155875
0.000155867
0.000151118
0.000151111
0.000124959
0.000120368
0.000155903
0.000155864
0.000151147
0.000151107
0.000155869
0.000151148
0.000151113
0.000124952
0.00012036
0.000155893
0.000151145
0.000151137
0.000120352
0.000118828
0.000114443
0.000149573
0.000149565
0.000145059
0.000145051
0.000118825
0.000114438
0.000149602
0.000149561
0.000145089
0.000145047
0.000149567
0.000145089
0.000145054
0.000118818
0.00011443
0.000149592
0.000145086
0.000145079
0.000114421
0.000113186
0.000108856
0.000143592
0.000143584
0.000139282
0.000139274
0.000113182
0.000108849
0.000143622
0.000143581
0.000139313
0.00013927
0.000143587
0.000139314
0.000139278
0.000113175
0.000108842
0.000143612
0.000139311
0.000139303
0.000108835
0.000107954
0.000103722
0.000137879
0.000137871
0.000133741
0.000133732
0.00010795
0.000103717
0.00013791
0.000137867
0.000133771
0.000133728
0.000137874
0.000133773
0.000133736
0.000107943
0.00010371
0.000137899
0.000133769
0.000133761
0.000103702
0.000103081
9.91475e-05
0.000132389
0.000132379
0.00012841
0.000128399
0.000103076
9.91426e-05
0.000132419
0.000132377
0.000128439
0.000128396
0.000132384
0.000128441
0.000128406
0.000103069
9.9136e-05
0.00013241
0.000128438
0.000128429
9.91291e-05
9.84621e-05
9.50095e-05
0.000127116
0.000127103
0.00012331
0.000123295
9.84567e-05
9.50049e-05
0.000127143
0.000127102
0.000123336
0.000123294
0.000127111
0.000123338
0.000123305
9.84505e-05
9.49988e-05
0.000127134
0.000123336
0.000123326
9.49924e-05
9.42777e-05
9.14561e-05
0.000122077
0.000122063
0.000118443
0.000118428
9.42724e-05
9.14517e-05
0.000122102
0.000122061
0.000118467
0.000118427
0.000122073
0.000118472
0.000118441
9.42669e-05
9.14461e-05
0.000122093
0.000118468
0.000118459
9.14403e-05
9.0686e-05
8.8398e-05
0.000117296
0.000117281
0.000113887
0.000113871
9.06795e-05
8.83923e-05
0.00011732
0.00011728
0.000113909
0.00011387
0.000117294
0.000113914
0.000113886
9.06756e-05
8.83885e-05
0.000117312
0.000113911
0.000113902
8.83832e-05
8.77562e-05
8.59265e-05
0.000112812
0.000112796
0.000109656
0.000109638
8.77503e-05
8.59228e-05
0.000112835
0.000112796
0.000109676
0.000109639
0.000112811
0.000109682
0.000109656
8.77465e-05
8.59186e-05
0.000112827
0.00010968
0.00010967
8.59152e-05
8.54051e-05
8.40914e-05
0.000108681
0.000108664
0.000105816
0.000105799
8.54016e-05
8.40897e-05
0.000108702
0.000108665
0.000105836
0.000105799
0.00010868
0.000105842
0.000105815
8.53975e-05
8.40839e-05
0.000108694
0.000105839
0.000105827
8.40773e-05
8.36955e-05
8.28849e-05
0.000104954
0.000104939
0.000102422
0.000102406
8.3694e-05
8.2881e-05
0.000104975
0.000104939
0.000102442
0.000102407
0.000104955
0.000102447
0.000102423
8.36878e-05
8.2878e-05
0.000104967
0.000102447
0.000102435
8.28735e-05
8.26067e-05
8.2286e-05
0.000101643
0.000101629
9.94844e-05
9.94687e-05
8.26039e-05
8.22802e-05
0.000101663
0.000101629
9.95049e-05
9.9471e-05
0.000101644
9.95081e-05
9.9485e-05
8.26019e-05
8.22773e-05
0.000101655
9.95094e-05
9.94959e-05
8.22744e-05
8.21249e-05
8.22267e-05
9.88273e-05
9.88162e-05
9.7046e-05
9.70347e-05
8.21199e-05
8.22268e-05
9.88475e-05
9.88145e-05
9.70655e-05
9.70331e-05
9.88275e-05
9.70732e-05
9.70535e-05
8.21145e-05
8.22202e-05
9.88375e-05
9.70701e-05
9.70633e-05
8.22193e-05
8.21718e-05
8.26719e-05
9.65166e-05
9.65079e-05
9.51321e-05
9.51218e-05
8.21713e-05
8.26666e-05
9.65372e-05
9.65071e-05
9.51505e-05
9.51192e-05
9.65215e-05
9.51551e-05
9.51446e-05
8.21648e-05
8.26685e-05
9.65303e-05
9.51546e-05
9.51532e-05
8.26688e-05
8.27158e-05
8.35534e-05
9.47289e-05
9.47183e-05
9.37299e-05
9.37183e-05
8.27065e-05
8.35472e-05
9.47481e-05
9.47154e-05
9.37492e-05
9.37309e-05
9.475e-05
9.37503e-05
9.37337e-05
8.27098e-05
8.35494e-05
9.47578e-05
9.37644e-05
9.37413e-05
8.35553e-05
8.36829e-05
8.48158e-05
9.34569e-05
9.34509e-05
9.28344e-05
9.28442e-05
8.36812e-05
8.48573e-05
9.34743e-05
9.34633e-05
9.28502e-05
9.28437e-05
9.34692e-05
9.28737e-05
9.28251e-05
8.3686e-05
8.48642e-05
9.34752e-05
9.28736e-05
9.28321e-05
8.48112e-05
8.50231e-05
8.64671e-05
9.26774e-05
9.27194e-05
9.24682e-05
9.24666e-05
8.5068e-05
8.64607e-05
9.26926e-05
9.27241e-05
9.24818e-05
9.24167e-05
9.26729e-05
9.24921e-05
9.24783e-05
8.50825e-05
8.64276e-05
9.2678e-05
9.24463e-05
9.24843e-05
8.64758e-05
8.67563e-05
8.84685e-05
9.24429e-05
9.23959e-05
9.26006e-05
9.25424e-05
8.67197e-05
8.83373e-05
9.24611e-05
9.233e-05
9.26125e-05
9.24997e-05
9.24419e-05
9.25713e-05
9.25496e-05
8.66559e-05
8.8306e-05
9.24474e-05
9.25303e-05
9.25516e-05
8.83997e-05
8.8811e-05
9.05253e-05
9.27548e-05
9.26106e-05
9.29917e-05
9.32112e-05
8.86986e-05
9.07371e-05
9.27713e-05
9.26047e-05
9.30127e-05
9.31731e-05
9.26252e-05
9.32375e-05
9.32096e-05
8.86947e-05
9.06495e-05
9.26269e-05
9.31978e-05
9.32125e-05
9.05931e-05
9.08518e-05
9.28086e-05
9.32407e-05
9.34177e-05
9.38809e-05
9.42163e-05
9.11614e-05
9.31263e-05
9.32606e-05
9.33962e-05
9.39015e-05
9.39427e-05
9.33251e-05
9.42322e-05
9.37672e-05
9.10273e-05
9.28822e-05
9.33303e-05
9.39645e-05
9.37796e-05
9.27173e-05
9.32776e-05
9.65125e-05
9.41818e-05
9.44223e-05
9.5841e-05
9.52873e-05
9.34892e-05
9.53826e-05
9.42182e-05
9.42436e-05
9.57739e-05
9.55939e-05
9.41889e-05
9.52694e-05
9.62529e-05
9.32803e-05
9.60735e-05
9.41987e-05
9.55787e-05
9.62095e-05
9.67386e-05
9.73819e-05
0.000102094
9.6704e-05
9.55618e-05
0.000100209
9.81111e-05
9.59089e-05
0.000100051
9.66552e-05
9.64314e-05
0.000100352
9.939e-05
9.70945e-05
9.8259e-05
9.90897e-05
9.6894e-05
0.000101009
9.70615e-05
9.94867e-05
9.91808e-05
0.000100379
0.000102631
0.000100829
0.000100755
0.000100084
9.95902e-05
0.000103484
0.000101379
0.000106544
0.000100873
9.98205e-05
9.96401e-05
9.88247e-05
9.90327e-05
0.000103403
9.82132e-05
0.000101217
9.94634e-05
9.91555e-05
9.88084e-05
9.82946e-05
9.86802e-05
0.000100252
9.61565e-05
9.88099e-05
0.000103121
9.66849e-05
0.000100424
0.00010659
0.000100442
9.8745e-05
9.84059e-05
9.65266e-05
9.69733e-05
9.782e-05
0.000100486
0.000102311
9.91509e-05
0.000100235
9.79619e-05
9.68022e-05
0.000101743
0.000107062
9.64384e-05
0.000111294
9.56875e-05
9.93655e-05
0.000103972
9.7386e-05
9.98648e-05
0.000101084
9.54647e-05
9.80523e-05
0.000104599
0.00010847
0.00010413
9.74593e-05
0.000104136
0.000102246
0.000113645
0.000103918
0.000108891
0.000104281
0.000107254
0.000114307
0.000117494
0.000108849
9.92801e-05
0.000113174
0.000108388
0.000105516
0.000116902
0.000109415
0.000109499
0.000113215
0.000108539
0.000102349
0.000107964
9.44576e-05
0.000114114
0.000108035
0.000102892
0.000108344
9.43103e-05
8.94869e-05
0.000116775
0.000101328
0.000113012
0.000108256
0.000103547
9.37014e-05
0.000116455
8.55223e-05
0.000112941
0.000106215
0.000103069
0.00010278
9.39914e-05
9.30906e-05
0.000104684
0.000106971
0.000102911
9.39321e-05
0.000102051
0.000103423
0.00012108
0.000100715
0.000109348
0.000101143
9.11895e-05
9.96685e-05
9.41084e-05
8.39557e-05
0.000115274
0.000101371
0.000102078
0.000100098
0.000110955
0.000119036
9.47094e-05
0.000135633
0.000103914
0.000121066
0.000118717
0.00011269
0.000137207
0.000147165
0.000114014
0.000123083
0.000104079
0.000114284
0.000116258
0.00015717
0.000129205
0.000168825
0.000106161
0.000114998
0.000116146
0.000116619
0.000135831
0.000157106
0.000110311
0.000122942
0.000116459
0.000137466
0.000117772
0.000110836
9.58082e-05
0.000120035
9.23812e-05
0.000116083
0.000158395
0.000101373
0.000125302
0.000169601
0.000101044
0.000115813
0.000114071
9.9894e-05
9.4481e-05
0.000100352
0.000123718
9.33595e-05
0.000111833
8.75899e-05
9.99171e-05
9.40813e-05
9.23874e-05
9.35755e-05
9.18576e-05
0.000116454
9.89965e-05
9.97515e-05
0.000100397
7.75222e-05
8.69245e-05
6.42333e-05
9.80575e-05
9.35389e-05
0.000100625
0.00010069
9.31584e-05
7.76719e-05
0.000120315
8.73025e-05
0.000119571
9.18896e-05
0.000102012
0.00012186
0.000130556
0.000123973
0.000150984
0.000112864
7.69314e-05
0.000147005
0.000134196
7.51466e-05
0.000150311
0.000115671
0.000117916
0.00014942
0.000151305
0.000126796
0.000134355
0.000137094
0.000127444
0.000152879
0.000129434
0.000151594
0.000139192
0.000136561
0.000151582
0.000143225
0.000151698
0.000152424
0.000153302
0.000169193
0.000156516
0.000162431
0.000153265
0.000154632
0.000153637
0.00015397
0.000138207
0.000168519
0.000137537
0.00015323
0.00014156
0.000139471
0.000153414
0.000137432
0.000132707
0.000141229
0.00012731
0.000150645
0.000170797
0.000133762
0.000150108
0.000160031
0.000136625
0.00014965
0.000147872
0.000132897
0.000131845
0.000136945
0.000149836
0.000133667
0.000138954
0.000127041
0.000135906
0.000131709
0.000132713
0.000130871
0.000126925
0.000126444
0.000130584
0.000142434
0.00012726
0.000130925
0.000134673
0.000127873
0.000129993
0.000129827
0.000126885
0.0001271
0.000133063
0.000131127
0.000132184
0.000126721
0.000128101
0.00013222
0.000127212
0.00013195
0.00013162
0.000127223
0.000134185
0.000126439
0.000129513
0.000133171
0.000127339
0.000127568
0.000128883
0.000126165
0.000127318
0.000133446
0.000133862
0.000132547
0.000127529
0.000133704
0.000129028
0.00013399
0.000132486
0.00013403
0.000133954
0.000132829
0.000135313
0.000137419
0.0001355
0.00012912
0.000139361
0.00013626
0.000129887
0.000135704
0.000135778
0.000135295
0.000139509
0.000138501
0.000134372
0.000136127
0.000137372
0.000134543
0.000136664
0.000134624
0.000138368
0.000137499
0.000136022
0.000137552
0.000138408
0.000139862
0.000138285
0.000141093
0.000142717
0.000136753
0.000140398
0.000139954
0.00013946
0.000141065
0.000142063
0.000138604
0.000142749
0.000142381
0.000137161
0.000139554
0.000138677
0.000142103
0.000142345
0.000140015
0.000138862
0.000142452
0.000141905
0.000143695
0.000145602
0.000145992
0.000140849
0.000142466
0.00014186
0.000142858
0.00014556
0.000145296
0.000143538
0.000146087
0.000146315
0.000139973
0.00014196
0.000143489
0.000145391
0.000146271
0.00014276
0.000143107
0.000144901
0.000146808
0.000146677
0.000149164
0.000148518
0.000142777
0.000144254
0.000146774
0.000146125
0.000149156
0.000148486
0.000146982
0.00014852
0.000148498
0.000142366
0.000144323
0.000146944
0.000148489
0.000148487
0.000144158
0.000145132
0.00014673
0.00014972
0.000149105
0.000151708
0.000151192
0.000144546
0.000146366
0.000149719
0.000149236
0.000151717
0.000151569
0.000149
0.000151168
0.000151085
0.000144698
0.000146733
0.000148998
0.000151549
0.000151092
0.000146314
0.000147117
0.000148823
0.000152432
0.000152
0.000154399
0.000154451
0.000146786
0.00014896
0.000152444
0.000152393
0.00015442
0.000154808
0.000151979
0.000154477
0.000154788
0.000147151
0.000149218
0.000151987
0.000154836
0.000154806
0.000149304
0.000149136
0.000151198
0.000155077
0.000155243
0.000157495
0.000157546
0.000149347
0.000151235
0.000155096
0.000155534
0.0001575
0.000157524
0.000155646
0.000157598
0.000157788
0.000149571
0.000151155
0.000155664
0.000157579
0.000157794
0.000151365
0.000151605
0.000153222
0.00015831
0.000158275
0.0001603
0.000160318
0.000151573
0.000153243
0.000158311
0.000158179
0.000160291
0.000160173
0.000158393
0.000160335
0.000160178
0.000151444
0.000153117
0.000158393
0.000160191
0.000160166
0.000153049
0.000153478
0.000155328
0.000160906
0.000160977
0.000163064
0.000162984
0.000153546
0.000155248
0.000160894
0.000160844
0.00016306
0.000163
0.000160804
0.000162995
0.000162794
0.000153444
0.000155296
0.000160788
0.000163012
0.000162788
0.000155094
0.000155709
0.000157322
0.000163834
0.000163675
0.000165808
0.000165789
0.000155567
0.000157339
0.000163837
0.000163757
0.000165816
0.00016585
0.000163526
0.000165799
0.000165887
0.000155645
0.000157391
0.000163527
0.000165862
0.000165895
0.000157468
0.000157544
0.000159191
0.000166383
0.000166471
0.000168318
0.000168396
0.000157651
0.000159263
0.000166386
0.000166473
0.000168322
0.000168374
0.000166629
0.000168453
0.00016854
0.000157663
0.000159212
0.000166633
0.000168433
0.000168544
0.000159341
0.000159553
0.00016136
0.000169067
0.000169038
0.000171229
0.000170999
0.000159535
0.000161133
0.000169071
0.000169031
0.000171223
0.000170938
0.000169143
0.000171001
0.000170985
0.000159501
0.000161099
0.000169147
0.000170943
0.000170979
0.000161104
0.000161578
0.000162705
0.000171804
0.000171623
0.000173268
0.000173441
0.000161402
0.00016294
0.000171798
0.000171574
0.00017328
0.000173559
0.000171587
0.00017347
0.000173419
0.000161365
0.000163048
0.00017158
0.00017359
0.000173431
0.000162897
0.000162939
0.000164837
0.000173845
0.000174071
0.000175974
0.000175924
0.000163207
0.000164751
0.000173858
0.000174192
0.000175972
0.000175909
0.000174053
0.000175954
0.00017591
0.000163329
0.000164727
0.000174067
0.000175939
0.000175907
0.000164736
0.000165147
0.000166472
0.000176658
0.000176493
0.000178331
0.000178218
0.000164974
0.000166379
0.000176656
0.00017649
0.000178347
0.000178317
0.000176517
0.000178244
0.00017832
0.000164942
0.000166472
0.000176513
0.000178342
0.000178334
0.000166464
0.000166651
0.000168089
0.000178862
0.00017883
0.000180589
0.000180596
0.000166631
0.000168137
0.000178877
0.00017889
0.000180586
0.000180482
0.000178884
0.000180613
0.000180547
0.000166711
0.000167996
0.000178899
0.000180502
0.000180544
0.000168057
0.000168316
0.000169572
0.000181149
0.00018114
0.00018268
0.000182732
0.000168338
0.000169618
0.000181142
0.000181027
0.000182681
0.000182735
0.000181133
0.000182777
0.00018277
0.000168194
0.000169662
0.000181126
0.000182782
0.000182771
0.000169643
0.00016976
0.000171227
0.000183204
0.000183249
0.000184922
0.00018483
0.000169814
0.000171138
0.000183212
0.000183291
0.000184928
0.000184865
0.000183236
0.000184832
0.000184762
0.000169878
0.000171159
0.000183244
0.000184868
0.000184767
0.000171071
0.000171433
0.000172559
0.000185469
0.000185381
0.000186875
0.0001869
0.000171333
0.000172614
0.00018547
0.000185392
0.000186893
0.000187019
0.000185374
0.000186959
0.000187073
0.000171347
0.000172716
0.000185373
0.000187077
0.000187089
0.000172733
0.000172706
0.000174117
0.000187348
0.000187358
0.000188971
0.000188869
0.000172767
0.000173996
0.000187377
0.000187513
0.000188973
0.000188715
0.000187485
0.000188873
0.000188717
0.000172876
0.000173837
0.000187514
0.000188721
0.00018872
0.000173836
0.000174317
0.000175324
0.000189505
0.000189406
0.000190829
0.000190862
0.000174192
0.000175428
0.00018949
0.00018915
0.000190828
0.00019092
0.000189291
0.000190894
0.000191094
0.000173953
0.000175521
0.000189276
0.000190951
0.000191092
0.0001756
0.000175397
0.000176404
0.000191189
0.000191313
0.000192354
0.00019256
0.000175556
0.000176557
0.000191201
0.000191496
0.000192368
0.000192636
0.000191511
0.000192628
0.00019229
0.000175747
0.000176641
0.000191521
0.000192704
0.000192298
0.000176279
0.000176618
0.000178274
0.000192892
0.0001929
0.000194766
0.000194168
0.000176643
0.000177719
0.000192908
0.000192945
0.000194802
0.000194164
0.000192646
0.000194139
0.000194465
0.00017668
0.000177652
0.00019266
0.000194133
0.000194505
0.000178136
0.00017836
0.000178749
0.000195258
0.000194789
0.000195884
0.000196409
0.000177957
0.000179262
0.000195283
0.00019463
0.000195829
0.000196132
0.000195109
0.00019647
0.000196269
0.00017782
0.000179158
0.000195138
0.000196209
0.000196218
0.000179036
0.000178687
0.000179675
0.000196028
0.000196695
0.000197068
0.000197069
0.00017925
0.000179609
0.000195965
0.000196647
0.000197145
0.000197769
0.000196405
0.000197126
0.000196999
0.000179324
0.000180173
0.000196343
0.000197777
0.000197052
0.000179524
0.000179937
0.00018178
0.000197589
0.000197303
0.000199604
0.000199299
0.000179573
0.000181583
0.000197715
0.000197943
0.00019963
0.000198645
0.000197479
0.000199343
0.00019937
0.000180153
0.000180734
0.000197582
0.000198736
0.000199431
0.000181494
0.00018192
0.000182222
0.000200248
0.000200003
0.000200973
0.000200826
0.000181783
0.00018206
0.000200198
0.000199091
0.000200899
0.000200637
0.000199873
0.000200809
0.000200704
0.000180823
0.000182186
0.000199863
0.000200539
0.000200533
0.000182091
0.000182061
0.000181873
0.000201031
0.000200895
0.000200907
0.000201004
0.000181916
0.000182249
0.000200953
0.000201125
0.00020094
0.000202281
0.000200896
0.000201035
0.000201626
0.000182364
0.000183359
0.000200779
0.00020242
0.000201851
0.000182874
0.000181918
0.000184537
0.000200954
0.000201326
0.000203485
0.000203806
0.000182598
0.000184642
0.000201039
0.000202456
0.000203463
0.000202647
0.000201892
0.000203848
0.000202843
0.000183299
0.000183249
0.000202165
0.000202783
0.000202769
0.000183547
0.000184678
0.000184998
0.000204265
0.000204051
0.00020499
0.000204213
0.000184566
0.000184057
0.000204108
0.000202712
0.000204863
0.000204197
0.000203279
0.000204152
0.000204625
0.000183125
0.000184815
0.000203078
0.00020406
0.000204472
0.000184879
0.00018486
0.000184857
0.000205035
0.0002042
0.000204904
0.000204849
0.000183923
0.00018536
0.000204922
0.000205032
0.000205065
0.000205978
0.000204902
0.000204934
0.000205231
0.000185227
0.000185825
0.000204921
0.000206022
0.000205507
0.000185241
0.000184754
0.000185694
0.000204918
0.000205738
0.000206008
0.000206885
0.00018578
0.000186637
0.000205122
0.000206114
0.000205904
0.000206013
0.000205333
0.000206984
0.000206554
0.000185645
0.000185463
0.000205582
0.00020609
0.000206345
0.00018609
0.000185993
0.000187189
0.000206741
0.000207054
0.000207887
0.000206849
0.000186434
0.000185746
0.000206513
0.000206042
0.000207959
0.000207514
0.000206996
0.000206874
0.000207506
0.00018543
0.000186844
0.00020677
0.000207536
0.000207462
0.000186605
0.000187098
0.000186817
0.00020804
0.00020685
0.000208051
0.000208148
0.00018561
0.000187537
0.000208081
0.000207833
0.000208193
0.000208248
0.000207554
0.000208065
0.000207672
0.000186819
0.00018696
0.000207574
0.000208203
0.000207803
0.000186808
0.000186678
0.000187457
0.000208048
0.000208822
0.000208743
0.000209492
0.000187806
0.000188035
0.000208155
0.00020827
0.000208456
0.000208604
0.000208012
0.000209583
0.000209235
0.000186829
0.000187531
0.000208144
0.000208781
0.000209185
0.000187859
0.000187592
0.00018824
0.000209215
0.000209488
0.000209875
0.000209166
0.000187747
0.000187202
0.000209035
0.000209123
0.000209916
0.000209819
0.000209382
0.000209204
0.000209612
0.000187649
0.00018817
0.000209317
0.000209872
0.000209647
0.000187819
0.000188107
0.000188475
0.000209984
0.000209211
0.000210233
0.000210802
0.000187179
0.000189223
0.000210086
0.000209981
0.000210295
0.000210133
0.000209632
0.000210827
0.000210489
0.000188028
0.000188266
0.000209701
0.000210141
0.000210528
0.000188726
0.000188504
0.000189186
0.00021066
0.000211057
0.00021128
0.000211344
0.000189194
0.000188649
0.000210509
0.000210317
0.00021125
0.000211379
0.000210873
0.000211406
0.000211335
0.000188313
0.000189332
0.000210854
0.000211405
0.000211252
0.00018893
0.000189045
0.00018861
0.000211466
0.00021113
0.000211169
0.000211037
0.000188437
0.000188661
0.000211385
0.000211483
0.000211274
0.000211417
0.000211341
0.000211048
0.00021103
0.000189238
0.000188676
0.000211324
0.000211423
0.000211116
0.000188564
0.000188461
0.00018901
0.000211116
0.000211129
0.000211303
0.000211907
0.000188726
0.000189501
0.000211192
0.000211249
0.000211293
0.000211221
0.000211059
0.00021196
0.000211698
0.000188511
0.000188868
0.000211153
0.000211268
0.000211621
0.000189316
0.000189114
0.000189996
0.00021173
0.000212093
0.000212775
0.000212455
0.00018942
0.000189608
0.00021161
0.000211399
0.000212772
0.000212549
0.000212138
0.000212532
0.000212757
0.000188939
0.000189819
0.000212073
0.000212597
0.000212717
0.000189983
0.000189931
0.000189831
0.000212903
0.000212512
0.000213158
0.000212738
0.000189476
0.000189572
0.000212916
0.000212731
0.000213217
0.000213173
0.000212869
0.000212695
0.000212604
0.000189751
0.000189911
0.000212853
0.000213162
0.00021268
0.000189409
0.000189584
0.000189207
0.000212855
0.000212639
0.000212447
0.00021257
0.000189406
0.000189342
0.000212913
0.000213126
0.000212512
0.000212951
0.000212494
0.000212583
0.00021265
0.000189762
0.000189772
0.000212575
0.000212981
0.000212718
0.000189647
0.000189131
0.00019013
0.000212472
0.000212607
0.000213232
0.000213467
0.000189286
0.000190404
0.000212537
0.00021292
0.00021321
0.00021276
0.000212772
0.000213567
0.000213343
0.000189629
0.000189512
0.00021286
0.000212865
0.000213355
0.000190171
0.000190102
0.000190101
0.000213487
0.000213692
0.000213959
0.000214104
0.000190385
0.000190288
0.000213398
0.000212727
0.000213815
0.000212994
0.000213435
0.000214149
0.000213344
0.000189346
0.000189486
0.000213436
0.000213011
0.000213166
0.000189574
0.000189827
0.000189357
0.000213739
0.000213735
0.000212988
0.000212417
0.000189887
0.000188613
0.000213524
0.000213129
0.000213115
0.000213891
0.000213192
0.000212446
0.000213138
0.000189508
0.000190493
0.000213055
0.000213898
0.000213216
0.000189663
0.000189281
0.000189972
0.000212981
0.000212381
0.000213304
0.000213389
0.000188468
0.0001904
0.000213154
0.000214008
0.000213461
0.000213775
0.000213211
0.000213497
0.00021348
0.000190424
0.000189996
0.000213339
0.000213912
0.000213681
0.000190147
0.000189907
0.000192732
0.000213701
0.000214087
0.000214644
0.000215465
0.000190557
0.000193702
0.000213852
0.000213839
0.000214519
0.000213434
0.000213867
0.000215488
0.00021456
0.000189455
0.000191598
0.000214082
0.000213457
0.000214426
0.000192634
0.000194395
0.000214696
0.000215486
0.00019524
0.000214528
0.000213565
0.000235886
0.00023396
0.000234974
0.000214615
0.000193456
0.000214445
0.000234728
0.000234779
0.000234733
0.000234733
0.00023511
0.000234806
0.000234702
0.000234742
0.00023511
0.000234806
0.000234742
0.000234702
0.00023486
0.000233567
0.000233568
0.000104653
3.87587e-05
0.000129428
3.98342e-05
2.16907e-05
2.28368e-05
0.000104616
3.87547e-05
0.00012946
3.98309e-05
0.000233969
0.000233969
0.000233969
0.000232942
0.000232942
0.000232942
0.000232942
0.000206249
9.37608e-05
0.000233996
0.000231746
0.000222768
8.72446e-05
0.000233595
2.169e-05
2.28361e-05
0.000206248
0.000233996
9.37596e-05
0.000231747
0.000222768
0.000233595
8.72484e-05
4.78456e-05
4.78363e-05
0.000231405
4.39757e-05
4.39601e-05
7.25106e-05
4.24332e-05
8.13316e-05
4.37612e-05
2.47747e-05
2.54626e-05
7.24964e-05
4.24283e-05
8.13406e-05
4.37576e-05
0.000232529
0.000232529
0.000232529
0.000231061
0.000231061