/*--------------------------------*- C++ -*----------------------------------*\
| =========                 |                                                 |
| \\      /  F ield         | OpenFOAM: The Open Source CFD Toolbox           |
|  \\    /   O peration     | Version:                                        |
|   \\  /    A nd           | Website:  www.openfoam.com                      |
|    \\/     M anipulation  |                                                 |
\*---------------------------------------------------------------------------*/
FoamFile
{
    version     2.0;
    format      ascii;
    class       volScalarField;
    location    "600";
    object      p;
}
// * * * * * * * * * * * * * * * * * * * * * * * * * * * * * * * * * * * * * //

dimensions      [0 2 -2 0 0 0 0];


internalField   nonuniform List<scalar> 
172512
(
0.00360796
0.0036084
0.0036084
0.00360832
0.00354959
0.00354991
0.00354991
0.00355272
0.00349827
0.00349828
0.00349828
0.00350104
0.00344602
0.00344601
0.00344601
0.00344874
0.00339465
0.00339466
0.00339465
0.00339736
0.00334468
0.00334469
0.00334469
0.00334735
0.00329615
0.00329617
0.00329617
0.00329879
0.00324891
0.00324894
0.00324895
0.00325153
0.00320278
0.00320282
0.00320282
0.00320537
0.00315755
0.00315759
0.00315759
0.00316011
0.00311304
0.00311308
0.00311308
0.00311558
0.00306913
0.00306917
0.00306917
0.00307165
0.00302574
0.00302578
0.00302578
0.00302823
0.00298282
0.00298286
0.00298286
0.0029853
0.00294033
0.00294035
0.00294035
0.0029428
0.00289824
0.00289826
0.00289826
0.00290069
0.00285654
0.00285655
0.00285655
0.00285898
0.0028152
0.00281521
0.0028152
0.00281762
0.00277419
0.00277419
0.00277419
0.0027766
0.00273349
0.00273348
0.00273348
0.00273589
0.00269308
0.00269307
0.00269307
0.00269547
0.00265294
0.00265292
0.00265293
0.00265532
0.00261305
0.00261303
0.00261303
0.00261542
0.0025734
0.00257338
0.00257338
0.00257576
0.00253398
0.00253395
0.00253395
0.00253632
0.00249477
0.00249475
0.00249475
0.0024971
0.00245578
0.00245575
0.00245574
0.00245808
0.00241698
0.00241695
0.00241695
0.00241927
0.00237837
0.00237835
0.00237835
0.00238064
0.00233994
0.00233991
0.0023399
0.00234219
0.00230172
0.00230167
0.00230169
0.00230396
0.00226379
0.00226371
0.0022638
0.00226596
0.00222562
0.0022258
0.00222549
0.00222777
0.00218758
0.00218747
0.00218778
0.00219029
0.00215057
0.00215046
0.00215078
0.00215237
0.00211315
0.00211342
0.00211241
0.00211444
0.0020745
0.00207365
0.00207527
0.00207823
0.00203954
0.00204034
0.00204008
0.00204132
0.00200342
0.00200442
0.00200202
0.00200347
0.00196265
0.0019609
0.00196298
0.00196676
0.00192869
0.00192835
0.0019295
0.0019307
0.00189584
0.00189767
0.0018944
0.00189602
0.00185779
0.00185669
0.00185711
0.00186003
0.00181905
0.00181851
0.00181962
0.00182184
0.00178186
0.00178223
0.00178234
0.00178419
0.00174553
0.00174573
0.00174549
0.00174749
0.00170954
0.00170961
0.00170932
0.00171149
0.00167358
0.00167351
0.00167354
0.0016756
0.00163781
0.0016376
0.00163767
0.00163966
0.00160188
0.00160174
0.00160176
0.00160375
0.00156598
0.00156591
0.0015659
0.00156794
0.00153023
0.00153015
0.00153014
0.00153216
0.00149454
0.00149441
0.0014944
0.0014964
0.00145884
0.00145872
0.00145873
0.00146072
0.00142322
0.00142309
0.0014231
0.0014251
0.00138764
0.00138752
0.00138752
0.00138952
0.0013521
0.00135197
0.00135197
0.00135395
0.0013166
0.00131645
0.00131645
0.00131844
0.00128108
0.00128098
0.00128097
0.00128296
0.00124565
0.00124552
0.00124551
0.0012475
0.0012102
0.00121009
0.00121009
0.00121206
0.00117478
0.00117467
0.00117466
0.00117664
0.00113936
0.00113925
0.00113926
0.00114123
0.00110398
0.00110386
0.00110386
0.00110584
0.00106857
0.00106848
0.00106848
0.00107045
0.0010332
0.00103309
0.00103307
0.00103505
0.000997797
0.000997714
0.00099773
0.000999693
0.000962396
0.000962292
0.000962289
0.000964253
0.000927041
0.000926928
0.000926914
0.000928912
0.000891569
0.00089153
0.000891536
0.000893469
0.00085615
0.000856019
0.000856053
0.00085803
0.000820792
0.000820736
0.000820648
0.000822664
0.000785249
0.000785132
0.000785223
0.000787147
0.000749723
0.000749706
0.000749715
0.000751685
0.000714355
0.000714274
0.000714124
0.000716173
0.000678734
0.000678589
0.000678785
0.00068068
0.000643163
0.000643203
0.000643082
0.000645091
0.000607615
0.000607541
0.0006075
0.000609549
0.000572012
0.000571814
0.000571988
0.000573862
0.000536257
0.000536368
0.000536196
0.000538261
0.000500662
0.00050053
0.000500618
0.000502596
0.0004649
0.000464785
0.000464825
0.000466786
0.000429178
0.00042925
0.000429116
0.000431177
0.000393401
0.000393238
0.000393378
0.00039531
0.000357453
0.000357472
0.000357387
0.000359424
0.000321652
0.000321619
0.000321623
0.000323641
0.000285802
0.000285712
0.000285754
0.000287724
0.000249797
0.000249766
0.000249746
0.000251745
0.000213762
0.000213748
0.000213777
0.000215808
0.000177859
0.000177846
0.000177761
0.000179805
0.000141722
0.00014167
0.000141706
0.000143692
0.00010559
0.000105519
0.00010567
0.000107646
6.95905e-05
6.96295e-05
6.94451e-05
7.15646e-05
3.41323e-05
3.35022e-05
3.34824e-05
3.54982e-05
9.02663e-06
6.04183e-06
6.2542e-06
4.76776e-06
0.00361813
0.00361719
0.00361718
0.00361813
0.00361719
0.00361718
0.00361608
0.00361608
0.00361608
0.00361608
0.00361718
0.00361718
0.00361813
0.00361719
0.00361718
0.00361812
0.00360832
0.00355916
0.0036084
0.0036084
0.0035613
0.0035613
0.00360832
0.00355916
0.0036084
0.0036084
0.0035613
0.0035613
0.0036084
0.0035613
0.0035613
0.00360832
0.00355916
0.0036084
0.0035613
0.0035613
0.00355916
0.00355272
0.00350811
0.00354991
0.00354991
0.00351148
0.00351148
0.00355272
0.00350811
0.00354991
0.00354991
0.00351148
0.00351148
0.00354991
0.00351148
0.00351148
0.00355272
0.00350811
0.00354991
0.00351148
0.00351148
0.00350811
0.00350104
0.00345573
0.00349828
0.00349828
0.00345901
0.00345901
0.00350104
0.00345573
0.00349828
0.00349828
0.00345901
0.00345901
0.00349828
0.00345901
0.00345901
0.00350104
0.00345573
0.00349828
0.00345901
0.00345901
0.00345573
0.00344874
0.00340417
0.00344601
0.00344601
0.00340738
0.00340738
0.00344874
0.00340417
0.00344601
0.00344601
0.00340738
0.00340738
0.00344601
0.00340738
0.00340738
0.00344874
0.00340417
0.00344601
0.00340738
0.00340738
0.00340417
0.00339736
0.00335395
0.00339466
0.00339466
0.00335704
0.00335704
0.00339736
0.00335394
0.00339465
0.00339466
0.00335704
0.00335704
0.00339466
0.00335704
0.00335704
0.00339736
0.00335394
0.00339466
0.00335704
0.00335704
0.00335394
0.00334735
0.00330518
0.00334469
0.00334469
0.00330817
0.00330817
0.00334735
0.00330518
0.00334469
0.00334469
0.00330817
0.00330817
0.00334469
0.00330817
0.00330817
0.00334735
0.00330518
0.00334469
0.00330817
0.00330817
0.00330518
0.00329879
0.00325775
0.00329617
0.00329617
0.00326064
0.00326064
0.00329879
0.00325775
0.00329617
0.00329617
0.00326064
0.00326064
0.00329617
0.00326064
0.00326064
0.00329879
0.00325775
0.00329617
0.00326065
0.00326064
0.00325775
0.00325153
0.00321144
0.00324894
0.00324894
0.00321425
0.00321425
0.00325153
0.00321144
0.00324894
0.00324894
0.00321425
0.00321425
0.00324894
0.00321426
0.00321425
0.00325153
0.00321144
0.00324895
0.00321426
0.00321425
0.00321144
0.00320537
0.00316607
0.00320282
0.00320282
0.00316882
0.00316882
0.00320537
0.00316606
0.00320282
0.00320281
0.00316882
0.00316882
0.00320282
0.00316882
0.00316882
0.00320537
0.00316606
0.00320282
0.00316882
0.00316882
0.00316607
0.00316012
0.00312144
0.00315759
0.00315759
0.00312415
0.00312415
0.00316011
0.00312143
0.00315759
0.00315759
0.00312415
0.00312415
0.00315759
0.00312415
0.00312415
0.00316011
0.00312143
0.00315759
0.00312415
0.00312415
0.00312144
0.00311558
0.00307742
0.00311308
0.00311308
0.0030801
0.0030801
0.00311558
0.00307742
0.00311308
0.00311308
0.0030801
0.0030801
0.00311308
0.0030801
0.0030801
0.00311558
0.00307742
0.00311308
0.0030801
0.0030801
0.00307742
0.00307165
0.00303392
0.00306917
0.00306917
0.00303658
0.00303658
0.00307165
0.00303392
0.00306917
0.00306917
0.00303658
0.00303658
0.00306917
0.00303658
0.00303658
0.00307165
0.00303392
0.00306917
0.00303658
0.00303658
0.00303392
0.00302823
0.00299092
0.00302578
0.00302578
0.00299354
0.00299354
0.00302823
0.00299093
0.00302578
0.00302578
0.00299354
0.00299354
0.00302578
0.00299354
0.00299354
0.00302823
0.00299093
0.00302578
0.00299354
0.00299354
0.00299093
0.0029853
0.00294837
0.00298285
0.00298285
0.00295094
0.00295094
0.0029853
0.00294837
0.00298285
0.00298285
0.00295094
0.00295094
0.00298285
0.00295094
0.00295096
0.0029853
0.00294837
0.00298285
0.00295094
0.00295094
0.00294837
0.0029428
0.00290622
0.00294035
0.00294035
0.00290875
0.00290874
0.00294279
0.00290622
0.00294035
0.00294035
0.00290874
0.00290875
0.00294036
0.00290874
0.00290875
0.0029428
0.00290622
0.00294035
0.00290874
0.00290874
0.00290622
0.0029007
0.00286445
0.00289826
0.00289826
0.00286694
0.00286694
0.00290069
0.00286445
0.00289826
0.00289826
0.00286694
0.00286694
0.00289826
0.00286694
0.00286695
0.00290069
0.00286445
0.00289826
0.00286694
0.00286694
0.00286445
0.00285898
0.00282305
0.00285655
0.00285655
0.00282551
0.00282551
0.00285898
0.00282305
0.00285655
0.00285655
0.00282551
0.00282551
0.00285655
0.00282551
0.00282551
0.00285898
0.00282305
0.00285655
0.00282551
0.00282551
0.00282305
0.00281762
0.00278198
0.00281521
0.00281521
0.00278441
0.00278441
0.00281762
0.00278198
0.00281521
0.0028152
0.00278441
0.00278441
0.00281521
0.00278441
0.00278441
0.00281762
0.00278198
0.00281521
0.00278441
0.00278441
0.00278198
0.0027766
0.00274123
0.00277419
0.00277419
0.00274363
0.00274363
0.0027766
0.00274123
0.00277419
0.00277419
0.00274363
0.00274363
0.00277419
0.00274363
0.00274363
0.0027766
0.00274123
0.00277419
0.00274363
0.00274363
0.00274123
0.00273589
0.00270078
0.00273348
0.00273348
0.00270315
0.00270315
0.00273589
0.00270078
0.00273348
0.00273348
0.00270315
0.00270315
0.00273348
0.00270315
0.00270315
0.00273589
0.00270078
0.00273348
0.00270315
0.00270315
0.00270078
0.00269547
0.0026606
0.00269307
0.00269307
0.00266294
0.00266294
0.00269547
0.0026606
0.00269307
0.00269307
0.00266294
0.00266294
0.00269307
0.00266294
0.00266294
0.00269547
0.0026606
0.00269307
0.00266294
0.00266294
0.0026606
0.00265532
0.00262067
0.00265293
0.00265293
0.00262298
0.00262298
0.00265532
0.00262067
0.00265292
0.00265293
0.00262298
0.00262298
0.00265292
0.00262298
0.00262298
0.00265532
0.00262067
0.00265293
0.00262298
0.00262298
0.00262067
0.00261542
0.00258098
0.00261303
0.00261303
0.00258327
0.00258327
0.00261542
0.00258098
0.00261303
0.00261303
0.00258327
0.00258327
0.00261303
0.00258327
0.00258327
0.00261542
0.00258098
0.00261303
0.00258327
0.00258327
0.00258098
0.00257575
0.00254151
0.00257338
0.00257338
0.00254379
0.00254378
0.00257576
0.00254152
0.00257337
0.00257338
0.00254379
0.00254378
0.00257338
0.00254378
0.00254379
0.00257576
0.00254151
0.00257338
0.00254378
0.00254379
0.00254152
0.00253632
0.00250227
0.00253395
0.00253395
0.00250453
0.00250453
0.00253632
0.00250227
0.00253395
0.00253395
0.00250453
0.00250453
0.00253395
0.00250453
0.00250452
0.00253632
0.00250227
0.00253395
0.00250453
0.00250452
0.00250227
0.00249709
0.00246324
0.00249474
0.00249475
0.00246548
0.00246548
0.0024971
0.00246324
0.00249474
0.00249474
0.00246548
0.00246548
0.00249474
0.00246548
0.00246548
0.0024971
0.00246324
0.00249474
0.00246548
0.00246548
0.00246324
0.00245808
0.00242441
0.00245575
0.00245575
0.00242664
0.00242663
0.00245808
0.0024244
0.00245575
0.00245574
0.00242664
0.00242663
0.00245575
0.00242663
0.00242663
0.00245808
0.0024244
0.00245575
0.00242663
0.00242663
0.0024244
0.00241927
0.00238577
0.00241696
0.00241695
0.00238799
0.00238799
0.00241927
0.00238577
0.00241696
0.00241695
0.00238798
0.00238799
0.00241695
0.00238799
0.00238798
0.00241927
0.00238576
0.00241695
0.00238799
0.00238798
0.00238577
0.00238065
0.00234728
0.00237835
0.00237835
0.00234949
0.00234951
0.00238066
0.0023473
0.00237835
0.00237835
0.00234949
0.0023495
0.00237834
0.00234952
0.0023495
0.00238065
0.00234728
0.00237834
0.0023495
0.0023495
0.00234728
0.00234218
0.00230902
0.0023399
0.00233991
0.00231121
0.0023112
0.00234219
0.00230899
0.0023399
0.0023399
0.0023112
0.0023112
0.00233991
0.0023112
0.00231122
0.00234218
0.00230901
0.00233991
0.0023112
0.00231121
0.00230903
0.00230395
0.00227107
0.00230168
0.00230167
0.00227324
0.00227316
0.00230392
0.00227102
0.00230168
0.00230168
0.00227326
0.00227328
0.0023017
0.00227317
0.00227324
0.00230395
0.00227111
0.0023017
0.00227329
0.00227326
0.00227106
0.00226602
0.00223297
0.00226378
0.00226371
0.00223524
0.00223534
0.00226599
0.00223314
0.0022638
0.0022638
0.00223523
0.00223513
0.00226373
0.00223531
0.00223502
0.00226603
0.00223284
0.00226375
0.00223509
0.002235
0.0022328
0.00222783
0.00219467
0.00222564
0.00222584
0.00219688
0.002197
0.00222803
0.00219476
0.0022256
0.00222553
0.00219681
0.00219704
0.0022255
0.00219703
0.00219734
0.00222773
0.00219493
0.00222546
0.00219708
0.00219731
0.00219527
0.00218972
0.00215788
0.00218748
0.00218741
0.00215983
0.00215944
0.00218966
0.00215748
0.00218748
0.00218772
0.00215993
0.00216011
0.00218805
0.00215948
0.0021598
0.00218996
0.00215801
0.00218805
0.00216015
0.00215991
0.00215753
0.00215298
0.00212032
0.00215073
0.00215047
0.00212277
0.00212338
0.00215274
0.00212109
0.00215082
0.00215078
0.00212265
0.00212212
0.00215021
0.00212324
0.00212165
0.00215292
0.00211975
0.0021503
0.00212198
0.00212155
0.00211935
0.00211521
0.00208169
0.00211319
0.00211359
0.00208391
0.00208333
0.00211562
0.00208084
0.00211303
0.00211256
0.00208399
0.00208428
0.00211224
0.00208336
0.00208484
0.00211468
0.00208226
0.0021121
0.0020843
0.00208495
0.00208301
0.00207654
0.00204604
0.00207425
0.00207354
0.00204774
0.00204798
0.0020758
0.00204649
0.00207441
0.00207512
0.00204794
0.00204852
0.00207602
0.00204824
0.00204925
0.00207739
0.00204685
0.00207622
0.00204883
0.00204949
0.00204669
0.00204158
0.00201118
0.00203956
0.00204021
0.00201375
0.00201542
0.00204215
0.00201235
0.00203965
0.00203991
0.00201348
0.00201232
0.00203962
0.00201503
0.00201093
0.00204217
0.00200964
0.00203971
0.002012
0.00201052
0.00200836
0.00200572
0.00196968
0.00200379
0.00200487
0.0019721
0.00197106
0.00200629
0.00196848
0.00200341
0.00200237
0.00197213
0.00197216
0.0020013
0.00197107
0.00197347
0.00200428
0.00197001
0.00200088
0.00197218
0.00197344
0.00197175
0.00196433
0.00193495
0.00196175
0.00196055
0.00193649
0.00193495
0.00196329
0.00193424
0.00196225
0.00196275
0.00193689
0.00193748
0.0019645
0.00193525
0.00193741
0.00196516
0.00193581
0.00196478
0.00193773
0.00193786
0.00193562
0.00193058
0.00190196
0.00192872
0.00192821
0.00190447
0.00190661
0.00193039
0.00190493
0.00192902
0.00192938
0.00190431
0.00190394
0.00192851
0.00190643
0.00190266
0.00193135
0.00190114
0.00192894
0.00190373
0.00190251
0.00190042
0.0018971
0.00186453
0.00189546
0.00189791
0.00186691
0.00186699
0.00189998
0.001864
0.00189514
0.00189463
0.00186671
0.00186641
0.00189427
0.00186696
0.00186738
0.00189615
0.00186417
0.00189385
0.0018664
0.00186719
0.00186515
0.00185936
0.00182654
0.00185728
0.00185664
0.0018285
0.00182768
0.0018587
0.00182567
0.00185721
0.00185704
0.00182867
0.00182885
0.00185795
0.00182781
0.00182915
0.00185917
0.001827
0.0018579
0.00182895
0.00182933
0.00182705
0.00182145
0.00178951
0.00181907
0.00181841
0.00179144
0.00179131
0.00182065
0.00178957
0.00181926
0.00181953
0.00179152
0.00179169
0.00181959
0.00179129
0.00179127
0.00182194
0.00178965
0.00181977
0.00179167
0.00179136
0.00178922
0.0017845
0.00175278
0.00178228
0.00178239
0.00175483
0.00175492
0.0017846
0.00175284
0.0017823
0.00178238
0.00175479
0.00175467
0.00178198
0.00175485
0.00175447
0.00178456
0.00175255
0.00178201
0.00175462
0.00175443
0.00175241
0.00174783
0.00171623
0.00174573
0.00174579
0.0017184
0.00171864
0.00174789
0.0017165
0.00174568
0.00174555
0.00171834
0.00171831
0.00174541
0.00171862
0.00171844
0.00174758
0.00171621
0.00174536
0.00171829
0.00171838
0.00171636
0.00171133
0.00168034
0.00170934
0.00170961
0.00168239
0.00168248
0.00171158
0.00168038
0.00170928
0.00170931
0.00168237
0.00168246
0.00170948
0.00168252
0.00168258
0.00171134
0.0016804
0.00170943
0.00168249
0.00168256
0.00168048
0.00167549
0.00164462
0.00167347
0.00167348
0.00164669
0.00164656
0.0016755
0.0016445
0.00167346
0.00167351
0.0016467
0.00164664
0.0016736
0.00164656
0.00164663
0.00167554
0.00164457
0.00167359
0.00164664
0.00164664
0.00164455
0.00163974
0.00160866
0.00163773
0.00163761
0.00161074
0.00161072
0.00163963
0.00160865
0.00163774
0.00163768
0.00161075
0.00161075
0.00163763
0.00161071
0.00161069
0.00163969
0.00160868
0.00163765
0.00161074
0.00161069
0.00160863
0.00160376
0.00157278
0.00160174
0.00160175
0.00157483
0.00157486
0.00160377
0.00157281
0.00160175
0.00160177
0.00157483
0.00157485
0.00160172
0.00157486
0.00157486
0.00160379
0.0015728
0.00160172
0.00157486
0.00157486
0.00157281
0.0015679
0.00153701
0.00156589
0.00156591
0.00153906
0.00153908
0.00156793
0.00153703
0.00156588
0.0015659
0.00153906
0.00153907
0.00156592
0.00153909
0.0015391
0.00156792
0.00153702
0.00156592
0.00153907
0.0015391
0.00153704
0.00153214
0.00150131
0.00153013
0.00153014
0.00150336
0.00150334
0.00153215
0.0015013
0.00153013
0.00153013
0.00150335
0.00150333
0.00153016
0.00150334
0.00150334
0.00153214
0.00150129
0.00153016
0.00150333
0.00150333
0.00150128
0.00149643
0.0014656
0.00149443
0.00149442
0.00146765
0.00146764
0.00149642
0.0014656
0.00149443
0.00149441
0.00146765
0.00146764
0.0014944
0.00146764
0.00146763
0.00149641
0.0014656
0.0014944
0.00146764
0.00146763
0.00146559
0.00146072
0.00142996
0.00145872
0.00145872
0.00143199
0.00143199
0.00146072
0.00142996
0.00145872
0.00145873
0.001432
0.001432
0.00145871
0.00143199
0.001432
0.00146073
0.00142997
0.00145871
0.001432
0.001432
0.00142997
0.0014251
0.00139437
0.0014231
0.00142309
0.00139641
0.00139641
0.00142509
0.00139438
0.0014231
0.0014231
0.00139641
0.00139641
0.0014231
0.00139641
0.00139642
0.0014251
0.00139438
0.0014231
0.00139641
0.00139642
0.00139439
0.0013895
0.00135883
0.00138751
0.00138752
0.00136085
0.00136086
0.00138951
0.00135883
0.00138751
0.00138752
0.00136085
0.00136085
0.00138753
0.00136086
0.00136085
0.00138951
0.00135882
0.00138753
0.00136085
0.00136085
0.00135882
0.00135396
0.00132332
0.00135197
0.00135197
0.00132535
0.00132533
0.00135396
0.00132331
0.00135197
0.00135197
0.00132535
0.00132534
0.00135196
0.00132533
0.00132532
0.00135396
0.00132331
0.00135196
0.00132533
0.00132532
0.0013233
0.00131845
0.0012878
0.00131646
0.00131646
0.00128982
0.00128983
0.00131844
0.00128782
0.00131646
0.00131646
0.00128982
0.00128984
0.00131645
0.00128984
0.00128984
0.00131844
0.00128782
0.00131645
0.00128985
0.00128984
0.00128782
0.00128294
0.00125238
0.00128095
0.00128097
0.00125439
0.00125438
0.00128295
0.00125236
0.00128096
0.00128097
0.00125439
0.00125438
0.00128098
0.00125438
0.00125439
0.00128296
0.00125236
0.00128098
0.00125438
0.00125438
0.00125236
0.00124751
0.00121692
0.00124554
0.00124552
0.00121894
0.00121894
0.0012475
0.00121693
0.00124554
0.00124552
0.00121894
0.00121895
0.00124552
0.00121894
0.00121894
0.00124749
0.00121693
0.00124552
0.00121895
0.00121894
0.00121692
0.00121206
0.0011815
0.00121008
0.00121009
0.00118352
0.00118352
0.00121206
0.00118151
0.00121008
0.00121009
0.00118351
0.00118352
0.00121008
0.00118353
0.00118352
0.00121206
0.0011815
0.00121009
0.00118352
0.00118352
0.00118151
0.00117664
0.00114609
0.00117467
0.00117467
0.00114811
0.0011481
0.00117664
0.00114609
0.00117466
0.00117466
0.00114811
0.00114811
0.00117467
0.00114811
0.00114811
0.00117664
0.0011461
0.00117467
0.00114811
0.00114811
0.00114609
0.00114123
0.00111071
0.00113926
0.00113925
0.00111272
0.00111271
0.00114123
0.0011107
0.00113926
0.00113926
0.00111272
0.00111271
0.00113925
0.00111271
0.00111271
0.00114123
0.0011107
0.00113926
0.00111271
0.00111271
0.0011107
0.00110584
0.00107531
0.00110387
0.00110387
0.00107732
0.00107732
0.00110584
0.00107531
0.00110387
0.00110386
0.00107732
0.00107733
0.00110387
0.00107733
0.00107733
0.00110583
0.00107532
0.00110386
0.00107733
0.00107733
0.00107532
0.00107044
0.00103993
0.00106847
0.00106847
0.00104194
0.00104194
0.00107044
0.00103993
0.00106847
0.00106848
0.00104194
0.00104192
0.00106848
0.00104193
0.00104192
0.00107045
0.00103991
0.00106848
0.00104192
0.00104192
0.00103991
0.00103506
0.00100454
0.0010331
0.00103309
0.00100655
0.00100656
0.00103506
0.00100455
0.0010331
0.00103308
0.00100655
0.00100656
0.00103308
0.00100656
0.00100658
0.00103505
0.00100456
0.00103308
0.00100657
0.00100658
0.00100457
0.000999668
0.000969147
0.000997694
0.000997708
0.000971147
0.00097115
0.00099968
0.000969144
0.000997697
0.000997724
0.000971148
0.000971156
0.000997723
0.000971149
0.000971129
0.000999695
0.000969143
0.000997726
0.000971155
0.00097113
0.000969126
0.000964276
0.000933789
0.000962307
0.000962296
0.000935794
0.000935762
0.000964263
0.000933766
0.000962307
0.000962294
0.000935793
0.000935753
0.000962279
0.000935757
0.000935781
0.000964261
0.000933756
0.000962278
0.000935748
0.00093578
0.000933782
0.000928907
0.000898332
0.000926942
0.000926929
0.000900341
0.000900399
0.0009289
0.00089839
0.000926941
0.000926915
0.000900335
0.000900385
0.000926951
0.000900408
0.000900375
0.000928887
0.000898384
0.00092695
0.000900394
0.000900369
0.00089836
0.000893451
0.000862929
0.000891475
0.000891524
0.000864918
0.000864874
0.000893493
0.000862876
0.000891472
0.000891528
0.000864929
0.000864928
0.000891492
0.000864868
0.000864897
0.000893498
0.000862919
0.000891489
0.000864921
0.000864908
0.000862909
0.000858045
0.000827551
0.000856073
0.000856024
0.000829556
0.00082956
0.000858
0.000827573
0.000856083
0.000856059
0.000829546
0.00082949
0.000856057
0.000829562
0.000829551
0.000858029
0.000827504
0.000856068
0.000829494
0.000829543
0.000827548
0.000822671
0.000792047
0.000820713
0.000820736
0.000794063
0.000794063
0.000822699
0.000792037
0.000820695
0.000820647
0.000794058
0.000794092
0.000820697
0.000794054
0.000794052
0.000822627
0.000792085
0.000820682
0.000794084
0.000794046
0.000792042
0.000787129
0.000756504
0.00078514
0.000785132
0.000758479
0.0007585
0.000787117
0.000756526
0.00078515
0.000785226
0.000758506
0.000758591
0.000785169
0.000758521
0.000758564
0.00078719
0.00075659
0.000785178
0.000758613
0.000758591
0.000756581
0.000751634
0.000721196
0.000749658
0.00074969
0.000723199
0.000723202
0.000751658
0.000721195
0.000749675
0.000749698
0.000723163
0.000723017
0.0007497
0.000723181
0.000723087
0.000751679
0.000721018
0.000749715
0.000722996
0.000723047
0.00072107
0.000716291
0.000685511
0.000714327
0.000714301
0.000687519
0.000687472
0.000716272
0.000685475
0.000714286
0.000714146
0.000687541
0.000687625
0.000714215
0.000687481
0.000687576
0.000716129
0.000685638
0.000714168
0.000687631
0.0006876
0.000685585
0.000680603
0.000650005
0.000678606
0.000678573
0.000651983
0.000652049
0.000680567
0.000650065
0.000678645
0.000678771
0.000652
0.000652046
0.000678692
0.000652055
0.000651993
0.000680742
0.000650014
0.000678729
0.000652043
0.000652007
0.000649997
0.000645102
0.00061446
0.000643117
0.000643203
0.000616477
0.0006165
0.000645167
0.000614473
0.000643108
0.000643084
0.000616436
0.00061635
0.000643106
0.000616499
0.00061648
0.000645071
0.000614364
0.000643094
0.000616351
0.000616442
0.000614465
0.00060955
0.000578849
0.000607585
0.000607539
0.000580848
0.000580723
0.00060953
0.000578719
0.000607559
0.000607497
0.000580885
0.000580916
0.000607584
0.000580713
0.000580785
0.000609479
0.000578918
0.000607561
0.000580907
0.000580825
0.000578792
0.00057391
0.000543109
0.000571906
0.000571827
0.000545112
0.000545234
0.000573809
0.000543244
0.000571949
0.000572001
0.000545099
0.000545117
0.000571848
0.00054524
0.000545164
0.000573986
0.000543108
0.000571888
0.000545124
0.000545153
0.000543166
0.000538189
0.000507546
0.000536208
0.000536353
0.000509546
0.000509523
0.00053833
0.000507501
0.00053618
0.00053618
0.000509528
0.000509506
0.000536295
0.000509532
0.000509564
0.00053818
0.000507521
0.000536267
0.000509516
0.000509545
0.000507548
0.000502619
0.000471766
0.000500632
0.000500531
0.000473771
0.000473682
0.000502542
0.000471679
0.000500635
0.00050062
0.000473806
0.000473815
0.000500596
0.000473664
0.000473708
0.000502607
0.000471787
0.000500598
0.000473797
0.000473742
0.000471717
0.000466815
0.000436043
0.000464815
0.000464797
0.000438052
0.000438165
0.000466773
0.000436178
0.000464832
0.000464839
0.00043802
0.000438006
0.000464789
0.000438177
0.000438109
0.000466829
0.000436013
0.000464812
0.000438018
0.000438077
0.000436102
0.000431126
0.000400321
0.000429149
0.000429238
0.000402324
0.000402236
0.00043124
0.000400218
0.000429116
0.000429105
0.000402341
0.000402357
0.000429194
0.000402233
0.000402286
0.000431097
0.000400349
0.000429162
0.00040235
0.0004023
0.000400272
0.00039535
0.000364353
0.000393335
0.000393245
0.000366367
0.000366395
0.000395261
0.000364399
0.000393364
0.000393387
0.000366373
0.000366372
0.000393293
0.000366392
0.000366374
0.000395386
0.000364355
0.000393319
0.000366373
0.000366382
0.000364368
0.000359398
0.000328577
0.000357405
0.000357471
0.000330579
0.000330603
0.00035946
0.000328598
0.000357395
0.000357383
0.000330562
0.000330547
0.00035743
0.0003306
0.000330598
0.000359389
0.00032856
0.000357421
0.000330552
0.00033058
0.000328589
0.000323631
0.000292717
0.000321629
0.000321616
0.000294723
0.000294681
0.000323634
0.00029267
0.000321624
0.000321621
0.00029474
0.000294751
0.00032164
0.000294678
0.000294702
0.000323624
0.000292736
0.000321625
0.000294748
0.000294719
0.000292692
0.000287749
0.00025674
0.000285737
0.000285717
0.000258759
0.000258776
0.000287716
0.000256757
0.000285755
0.000285759
0.000258753
0.000258749
0.000285712
0.000258769
0.000258734
0.000287764
0.000256727
0.000285725
0.000258743
0.000258729
0.000256712
0.000251762
0.000220712
0.000249753
0.000249771
0.000222715
0.000222724
0.000251777
0.000220718
0.000249747
0.00024975
0.000222719
0.000222756
0.000249741
0.000222735
0.000222778
0.000251754
0.000220752
0.000249735
0.000222767
0.000222781
0.000220775
0.000215751
0.00018482
0.000213733
0.000213734
0.000186827
0.000186827
0.000215754
0.000184825
0.00021374
0.000213765
0.000186823
0.000186773
0.000213796
0.000186826
0.000186804
0.000215785
0.000184763
0.0002138
0.000186771
0.000186798
0.000184785
0.000179853
0.0001487
0.000177846
0.000177853
0.000150734
0.000150742
0.000179862
0.000148708
0.000177835
0.000177769
0.000150711
0.000150722
0.00017779
0.000150732
0.000150704
0.000179788
0.000148699
0.000177777
0.000150711
0.000150695
0.000148677
0.000143705
0.000112551
0.000141677
0.000141675
0.000114547
0.000114502
0.000143702
0.000112494
0.000141676
0.000141712
0.000114579
0.000114674
0.000141674
0.000114513
0.000114614
0.000143722
0.000112662
0.000141673
0.000114685
0.000114645
0.000112618
0.00010759
7.6557e-05
0.000105547
0.000105505
7.85936e-05
7.86329e-05
0.000107541
7.66073e-05
0.000105583
0.000105658
7.85794e-05
7.85084e-05
0.000105611
7.86257e-05
7.85677e-05
0.000107683
7.64711e-05
0.00010564
7.85066e-05
7.85546e-05
7.65251e-05
7.16001e-05
4.03157e-05
6.9582e-05
6.96378e-05
4.24474e-05
4.2491e-05
7.16615e-05
4.03565e-05
6.95474e-05
6.94506e-05
4.24149e-05
4.23606e-05
6.9538e-05
4.24803e-05
4.24307e-05
7.15053e-05
4.0259e-05
6.95065e-05
4.23538e-05
4.24023e-05
4.03079e-05
3.54937e-05
6.42804e-06
3.35025e-05
3.3505e-05
7.97038e-06
7.88142e-06
3.55044e-05
6.32153e-06
3.34876e-05
3.34863e-05
8.00418e-06
8.10821e-06
3.35081e-05
7.88737e-06
7.98631e-06
3.54771e-05
6.54883e-06
3.34932e-05
8.11377e-06
8.01966e-06
6.44148e-06
4.76087e-06
6.12537e-06
6.03752e-06
4.65821e-06
6.15304e-06
6.25019e-06
8.95536e-06
9.11437e-06
9.03564e-06
6.13566e-06
4.8701e-06
6.16319e-06
0.003626
0.00363618
0.00363071
0.00363071
0.00365325
0.00364018
0.00366842
0.00363412
0.00365325
0.00364018
0.00363413
0.00366842
0.0036447
0.00367214
0.00367214
0.00358017
0.00360414
0.00360903
0.00357058
0.00358087
0.00357273
0.00358016
0.00360417
0.00360901
0.00357056
0.00360796
0.00360796
0.00360796
0.00356099
0.00356099
0.00356098
0.00356099
0.00357796
0.0036051
0.00360775
0.00358553
0.00360773
0.00357545
0.00358643
0.00358094
0.00357271
0.00357796
0.00360775
0.00360511
0.00358553
0.00360774
0.00358643
0.00357544
0.0036098
0.0036098
0.00358066
0.00357582
0.00357582
0.0035352
0.00355475
0.00355573
0.00353369
0.00355343
0.00353322
0.0035352
0.00355476
0.00355573
0.00353368
0.00354959
0.00354959
0.00354959
0.00351154
0.00351154
0.00351154
0.00351154
0.0035338
0.00355448
0.00354974
0.00353762
0.00355325
0.00353416
0.00353751
0.00355345
0.00353322
0.0035338
0.00354974
0.00355448
0.00353762
0.00355324
0.00353751
0.00353416
0.00355565
0.00355565
0.00353417
0.00353461
0.00353461
0.00348273
0.00350154
0.00350261
0.00348172
0.00350117
0.00348143
0.00348273
0.00350155
0.00350261
0.00348172
0.00349827
0.00349827
0.00349827
0.003459
0.003459
0.003459
0.003459
0.00348182
0.00350188
0.00349821
0.00348514
0.00350139
0.00348214
0.00348506
0.00350117
0.00348143
0.00348182
0.00349821
0.00350188
0.00348514
0.00350139
0.00348506
0.00348214
0.00350216
0.00350216
0.00348187
0.00348224
0.00348224
0.00343022
0.00344886
0.00344972
0.00342945
0.00344866
0.00342927
0.00343022
0.00344886
0.00344972
0.00342945
0.00344602
0.00344602
0.00344602
0.00340738
0.00340738
0.00340738
0.00340738
0.00342971
0.00344924
0.00344599
0.00343307
0.003449
0.00342987
0.00343305
0.00344866
0.00342927
0.00342971
0.00344598
0.00344924
0.00343307
0.003449
0.00343305
0.00342987
0.00344929
0.0034493
0.00342981
0.00342982
0.00342982
0.00337901
0.00339738
0.003398
0.00337847
0.00339722
0.00337832
0.00337901
0.00339738
0.003398
0.00337847
0.00339465
0.00339465
0.00339465
0.00335703
0.00335703
0.00335703
0.00335703
0.00337874
0.00339771
0.00339463
0.00338202
0.00339756
0.00337884
0.003382
0.00339722
0.00337832
0.00337874
0.00339463
0.00339771
0.00338202
0.00339756
0.003382
0.00337884
0.0033977
0.0033977
0.00337887
0.00337875
0.00337875
0.00332937
0.00334733
0.00334777
0.00332898
0.0033472
0.00332886
0.00332937
0.00334732
0.00334777
0.00332898
0.00334468
0.00334468
0.00334468
0.00330815
0.00330815
0.00330815
0.00330815
0.00332925
0.00334762
0.00334466
0.00333243
0.00334751
0.00332931