/*--------------------------------*- C++ -*----------------------------------*\
| =========                 |                                                 |
| \\      /  F ield         | OpenFOAM: The Open Source CFD Toolbox           |
|  \\    /   O peration     | Version:  2312                                  |
|   \\  /    A nd           | Website:  www.openfoam.com                      |
|    \\/     M anipulation  |                                                 |
\*---------------------------------------------------------------------------*/
FoamFile
{
    version     2.0;
    format      ascii;
    arch        "LSB;label=32;scalar=64";
    class       surfaceScalarField;
    location    "400";
    object      phi;
}
// * * * * * * * * * * * * * * * * * * * * * * * * * * * * * * * * * * * * * //

dimensions      [0 3 -1 0 0 0 0];

oriented        oriented;

internalField   nonuniform List<scalar> 
125280
(
1.25938e-07
1.21137e-07
-0.00118375
-7.82331e-08
-7.77893e-08
0.00118366
-0.001132
-1.1982e-06
-1.15511e-07
-9.07877e-08
0.00113202
-2.38745e-07
1.23865e-06
2.75087e-07
9.11849e-07
-2.14019e-07
-8.54122e-07
2.69735e-07
-0.00113191
-1.19274e-06
-1.26566e-07
-4.6542e-08
0.00113189
-2.35904e-07
1.23603e-06
2.75229e-07
9.11811e-07
-2.14185e-07
-8.51601e-07
2.69592e-07
-0.000270069
1.22407e-06
1.18759e-06
-1.9725e-07
-1.99864e-07
0.000268054
-1.28088e-06
-1.23878e-06
0.000270139
-0.000268106
2.39375e-07
2.47465e-07
0.0011315
-1.25426e-07
-0.00113152
-4.60521e-08
-1.23496e-06
2.77874e-07
-2.41404e-07
-8.54494e-07
2.66753e-07
-2.1157e-07
9.14506e-07
1.27827e-06
0.00113157
5.66068e-08
-0.00113175
-6.85505e-08
-1.23011e-06
2.80564e-07
-2.38978e-07
-8.59592e-07
2.6416e-07
-2.14186e-07
9.14307e-07
-1.21709e-06
0.000270119
-0.000268105
2.34432e-07
2.47212e-07
0.0011325
-1.2626e-07
-0.00113252
-5.11049e-08
-1.19325e-06
2.75123e-07
-2.36317e-07
-8.56861e-07
2.69826e-07
-2.14133e-07
9.17263e-07
1.2728e-06
0.00113144
-1.20028e-07
-0.00113146
-5.71265e-08
-1.22712e-06
2.8057e-07
-2.41682e-07
-8.57011e-07
2.66888e-07
-2.14222e-07
9.1709e-07
-6.92772e-08
-2.2325e-07
-1.25711e-06
2.72398e-07
-2.44386e-07
-8.57049e-07
2.67026e-07
9.09222e-07
-2.16804e-07
-0.0011318
1.27257e-06
0.00113107
-1.028e-07
-5.14402e-08
-1.22148e-06
2.80497e-07
-2.38808e-07
-8.54241e-07
2.66835e-07
-2.14142e-07
9.08995e-07
-0.00113111
-1.23873e-06
0.000270101
-0.000268079
2.42332e-07
2.47146e-07
-1.26028e-07
-0.00113195
-3.49592e-08
-1.19284e-06
2.7524e-07
-2.35976e-07
-8.51657e-07
2.69601e-07
9.118e-07
-2.14251e-07
1.23064e-06
0.00113203
-1.25924e-07
-0.00113201
-8.48226e-08
-1.19304e-06
2.75166e-07
-2.38946e-07
-8.54063e-07
2.69709e-07
-2.14099e-07
9.14403e-07
-0.000268053
2.39382e-07
2.47376e-07
1.23486e-06
1.19317e-06
-1.94836e-07
-2.02367e-07
0.000268108
-5.20021e-08
0.00113147
-2.3858e-07
1.28087e-06
2.77864e-07
9.14442e-07
-2.11499e-07
-8.54413e-07
2.66735e-07
-1.23232e-06
-1.14866e-07
-5.18971e-08
0.00113154
-2.41587e-07
1.27819e-06
2.8061e-07
9.16997e-07
-2.14142e-07
-8.56817e-07
2.69516e-07
-2.02572e-07
-1.9978e-07
0.000268091
-5.1316e-08
0.00113247
-2.36279e-07
1.23874e-06
2.75087e-07
9.17271e-07
-2.14063e-07
-8.56773e-07
2.6983e-07
-1.22704e-06
-1.20696e-07
-5.18256e-08
0.00113142
-2.41604e-07
1.27276e-06
2.80548e-07
9.17089e-07
-2.11449e-07
-8.5688e-07
2.66872e-07
-1.26345e-07
-5.17486e-08
0.00113105
-2.38684e-07
1.26989e-06
2.77744e-07
9.08988e-07
-2.1138e-07
2.6412e-07
-8.48803e-07
-1.97395e-07
-2.02449e-07
0.000268081
-1.26576e-07
-6.83503e-08
0.00113203
-2.36137e-07
1.23329e-06
2.75115e-07
9.14358e-07
-2.14025e-07
2.69696e-07
-8.53966e-07
7.10194e-09
-4.38279e-08
0.000193716
2.98945e-09
-0.000193682
6.74129e-09
-4.4059e-08
0.000193698
-0.000193665
-0.00118386
-7.17006e-08
-7.71647e-08
0.00118343
-0.00118302
-1.5896e-07
-2.5712e-07
0.00118332
-0.00118342
-8.90797e-08
-5.43584e-08
0.00118325
-0.00118328
-1.0052e-07
-1.00744e-07
-2.2139e-10
-7.0738e-08
0.000229504
-0.000229466
3.02264e-08
2.22892e-09
-0.000193757
-4.57366e-09
2.23097e-08
-4.38503e-09
0.000193743
-0.000229464
-7.74262e-12
2.78305e-08
0.000229446
-1.06921e-08
1.45041e-09
7.25e-09
-4.36711e-08
0.000193797
2.77266e-09
-0.000193764
-9.80772e-05
4.81822e-09
1.35177e-08
9.80588e-05
-7.01004e-09
-2.2058e-08
9.80987e-05
-9.80696e-05
-7.0807e-08
6.95756e-11
0.000229492
-0.000229454
1.98695e-09
3.02593e-08
-0.000193739
-5.08363e-09
2.20474e-08
-3.64887e-09
0.000193726
-0.000229452
2.78428e-08
3.73559e-10
0.000229434
8.26043e-10
-1.07024e-08
6.7666e-09
-4.39989e-08
0.00019378
3.54298e-09
-0.000193746
-8.97517e-08
-1.24518e-07
0.00118341
-7.81602e-08
-6.67045e-08
0.00118322
-8.40033e-08
-9.55512e-08
0.00118318
7.06523e-08
-1.59836e-09
0.000250298
-0.000250177
4.04827e-09
-1.93856e-07
-0.000245602
-1.18427e-08
-2.20982e-08
6.56157e-08
3.74957e-09
0.000245566
0.00115193
-0.00115202
-1.26398e-08
-1.35643e-07
1.00673e-06
-7.52392e-07
-9.34477e-07
8.29136e-07
-5.75631e-08
1.24132e-06
0.001132
-1.2736e-07
-8.51328e-07
2.697e-07
-2.13933e-07
9.11892e-07
-1.19544e-06
2.75061e-07
-2.35944e-07
-0.000250273
-2.7684e-08
1.03588e-09
0.000250166
2.78956e-09
1.30855e-07
2.34427e-08
4.3879e-08
0.000245641
-1.69247e-08
-0.000245586
-1.05419e-07
-9.56015e-09
0.00115189
-1.54161e-07
-9.31496e-07
8.265e-07
-7.52143e-07
1.00411e-06
-9.80698e-05
4.84519e-09
1.11469e-08
9.80538e-05
-7.06854e-09
-1.97217e-08
9.80915e-05
-9.80647e-05
-9.00805e-10
7.06165e-08
0.000250287
-0.000250167
-1.93817e-07
4.21423e-09
0.00115176
-0.00115182
1.31248e-08
-1.52822e-07
1.00674e-06
-7.55163e-07
-9.31812e-07
8.29113e-07
-0.00024559
-1.15085e-08
-2.22747e-08
6.33713e-08
3.46258e-09
0.000245557
-5.23944e-08
1.23602e-06
0.00113186
-1.27063e-07
-8.51518e-07
2.6958e-07
-2.14127e-07
9.11822e-07
-1.18996e-06
2.75211e-07
-2.35838e-07
-0.000250259
1.03361e-09
-2.77613e-08
0.000250153
1.30925e-07
2.20212e-09
-4.51791e-10
0.00115171
-1.53924e-07
-9.31618e-07
8.29182e-07
-7.52222e-07
1.00678e-06
2.36702e-08
4.37083e-08
0.000245629
-1.72193e-08
-0.000245577
-1.02851e-07
-0.000278347
1.16902e-08
-1.1321e-08
2.22166e-08
-6.46302e-09
0.000278331
-0.000278269
1.19478e-08
-1.10296e-08
2.20658e-08
-7.34133e-09
0.000278253
-1.26988e-06
-1.23325e-06
0.000270073
-0.000268056
2.41835e-07
2.44702e-07
-2.36189e-08
1.96458e-08
0.000278399
1.04536e-08
-0.000278355
-5.09925e-08
-2.33271e-08
1.98903e-08
0.000278321
1.05598e-08
-0.000278279
-4.88651e-08
-1.97851e-08
9.80758e-05
-9.80489e-05
-2.01424e-08
9.80648e-05
-9.80379e-05
0.000270135
-1.28089e-06
-1.24156e-06
-0.0002681
2.39487e-07
2.47533e-07
0.000278341
-2.35925e-08
1.29848e-08
-0.000278299
-5.10858e-08
0.000278274
-2.08429e-08
9.82527e-09
-0.000278231
-5.13287e-08
-1.96562e-08
-7.18209e-09
9.80973e-05
-9.80705e-05
1.1424e-08
4.66488e-09
9.80597e-05
-2.00881e-08
-6.75266e-09
9.80864e-05
-9.80596e-05
1.0952e-08
5.10756e-09
9.80488e-05
1.23507e-06
1.19603e-06
0.000268101
-1.94916e-07
-2.02504e-07
-2.36616e-08
0.000278394
-5.09745e-08
-0.000278352
1.30991e-08
-2.08249e-08
0.000278326
-5.12821e-08
-0.000278284
9.82299e-09
1.15499e-08
-8.91101e-09
2.45947e-08
0.000278326
9.69755e-09
-6.97704e-09
2.42835e-08
0.000278257
0.00113154
-1.24244e-07
-1.23519e-06
2.779e-07
-2.38851e-07
-8.54678e-07
2.69464e-07
-2.14434e-07
9.14502e-07
-4.54475e-08
0.000245564
-1.71216e-08
-0.000245509
-1.05325e-07
-2.75804e-11
2.7917e-08
-1.0717e-08
1.18295e-09
0.000229406
-0.000229424
-4.37596e-08
-0.000193723
2.88103e-09
2.22865e-08
-4.27358e-09
0.000193703
-1.81398e-10
-7.07615e-08
-0.000229426
3.02588e-08
2.18453e-09
2.79079e-08
-1.07085e-08
9.96693e-10
0.000229366
-0.000229384
-4.60752e-08
6.99404e-09
0.000193695
-0.000193659
3.31869e-09
2.43684e-08
-4.86083e-09
-4.10474e-09
0.000193639
-0.000193654
-7.07801e-08
0.000229424
-0.000229386
3.02722e-08
2.16654e-09
7.62485e-10
2.88454e-09
1.31194e-07
0.000250149
-0.000250256
-5.69673e-08
-1.24816e-07
1.28088e-06
-2.38745e-07
2.80624e-07
9.14463e-07
-2.11635e-07
2.66787e-07
-8.5463e-07
0.000245603
-1.05241e-07
-0.000245548
-1.71809e-08
-0.00115232
1.2329e-09
0.00115227
-1.51377e-07
-9.34842e-07
8.31855e-07
-7.55415e-07
1.00959e-06
3.51737e-09
6.58275e-08
0.000245528
3.77884e-10
-1.55893e-07
1.00948e-06
-7.55654e-07
-9.35099e-07
8.31763e-07
-0.00115237
-8.92635e-10
0.000250284
-0.000250163
3.33421e-09
-1.93864e-07
1.54636e-09
1.31194e-07
0.000250125
-0.000250229
-3.42758e-08
-1.23793e-06
-3.12393e-07
9.19698e-07
-2.089e-07
-8.54328e-07
2.69495e-07
1.28131e-06
-2.44344e-07
2.80729e-07
-0.00113161
2.3391e-08
0.000245498
-1.05289e-07
-0.000245443
-1.93324e-08
-0.00115229
0.00115221
-1.28262e-07
-9.42785e-07
8.31836e-07
-7.58114e-07
1.01207e-06
-1.17194e-08
6.04669e-09
6.57176e-08
0.000245424
-0.000245459
-1.85039e-07
1.01749e-06
-7.55616e-07
-9.37522e-07
8.34492e-07
-0.0011523
0.000250256
-0.000250138
4.82777e-09
-1.93887e-07
-2.21198e-08
-9.8048e-05
1.34825e-08
9.80372e-05
-9.80556e-05
0.000268103
-1.87267e-07
-0.00027012
1.17137e-06
-2.05045e-07
0.000278266
-4.87673e-08
-0.000278226
1.08055e-08
1.98971e-08
-2.34323e-08
0.000278408
-4.89146e-08
-0.000278367
1.06511e-08
2.21409e-08
0.0002782
-0.000278214
-7.22373e-09
-6.97477e-09
9.80932e-05
-9.80663e-05
0.00113255
-1.24898e-07
-1.19613e-06
2.75183e-07
-2.36424e-07
2.69799e-07
-2.1433e-07
0.00024553
-0.000245472
-1.03179e-07
2.79364e-08
3.39923e-10
8.47555e-10
-1.07336e-08
0.000229394
-4.4032e-08
-0.000193705
3.55746e-09
2.20634e-08
-3.63294e-09
0.000193685
-7.08059e-08
3.90787e-11
-0.000229414
2.011e-09
3.02856e-08
1.80211e-09
1.9103e-09
1.31191e-07
0.000250143
-5.08983e-08
-1.25579e-07
1.24152e-06
-2.3638e-07
2.75159e-07
9.17243e-07
-2.14233e-07
2.69819e-07
-8.56965e-07
0.000245569
-1.03156e-07
-0.000245511
-1.92225e-08
-0.00115216
-3.68863e-09
0.00115212
-1.51672e-07
-9.3733e-07
8.31877e-07
-7.55348e-07
1.01217e-06
6.41485e-09
6.32868e-08
0.000245492
3.85377e-09
-1.44504e-07
1.01209e-06
-7.55594e-07
-9.37553e-07
8.31784e-07
-1.52647e-09
0.000250277
-0.000250156
3.99112e-09
-1.93919e-07
2.79573e-08
-1.07483e-08
1.15902e-09
0.000229354
-4.37896e-08
7.02456e-09
0.000193681
-0.000193647
3.045e-09
2.21724e-08
-4.89876e-09
-4.02168e-09
0.000193627
-7.07631e-08
0.000229412
-0.000229374
3.025e-08
2.43545e-09
1.3123e-07
1.8642e-09
0.000250116
-5.12449e-08
-1.22724e-06
-1.19332e-07
9.17068e-07
-2.14337e-07
-8.57085e-07
2.69584e-07
1.27282e-06
-2.4176e-07
2.80608e-07
-0.00115211
0.00115204
-1.45731e-07
-9.37399e-07
8.31862e-07
-7.55407e-07
1.01215e-06
2.34899e-08
0.000245483
-1.00496e-07
-0.000245433
-1.70652e-08
-1.38557e-07
1.01207e-06
-7.55652e-07
-9.37611e-07
8.31771e-07
-1.18854e-08
3.69473e-09
6.33947e-08
0.000245413
0.000250247
-0.00025013
-1.93886e-07
4.5802e-09
4.39217e-08
-1.03029e-07
-0.000245549
-1.69583e-08
-3.93634e-08
-8.15366e-08
-9.4023e-07
8.29056e-07
1.00666e-06
-7.58065e-07
-0.00115226
7.06552e-08
-1.9364e-09
-0.000250153
4.53998e-09
-1.93811e-07
0.000193743
-0.00019371
3.18733e-09
-9.70973e-11
0.000229448
-0.000229412
2.06345e-09
3.23275e-08
0.00115192
-1.28495e-07
-9.34623e-07
8.26335e-07
-7.55335e-07
1.00391e-06
-0.00115202
4.38085e-08
2.36127e-08
0.000245523
-1.00469e-07
-0.000245473
-1.70954e-08
7.06962e-08
0.000250244
-0.000250124
-1.96407e-07
4.26592e-09
7.07326e-09
0.000193687
-0.000193653
3.03469e-09
0.000229411
-0.000229373
3.02187e-08
2.17705e-09
-1.97977e-08
-9.8043e-05
1.1108e-08
9.80322e-05
1.19566e-06
0.000268077
-1.97529e-07
-2.02583e-07
0.000278264
-4.65443e-08
-0.000278224
1.06049e-08
1.96787e-08
-2.3624e-08
0.000278399
-4.8722e-08
-0.000278357
1.09178e-08
-7.25357e-09
1.98733e-08
0.000278198
-1.13194e-08
9.21725e-09
-6.9191e-09
2.21932e-08
0.000278333
-7.15349e-09
9.80923e-05
-9.80654e-05
4.71924e-09
9.80546e-05
1.49741e-09
-2.78661e-08
1.31178e-07
2.14448e-09
0.000250126
-4.59101e-08
-1.25387e-07
1.23873e-06
-2.38823e-07
2.75246e-07
9.11771e-07
-2.14333e-07
-8.51778e-07
2.69607e-07
-0.00115188
2.21974e-08
-1.51716e-07
-9.31941e-07
8.29066e-07
1.0067e-06
-7.49881e-07
4.37705e-08
-1.0292e-07
-0.000245537
-1.7172e-08
5.75296e-08
-1.44731e-07
1.00658e-06
-7.52861e-07
-9.32202e-07
8.26232e-07
-2.22597e-08
3.54289e-09
6.34444e-08
0.000245515
-4.67862e-10
7.06237e-08
-0.000250139
-1.93793e-07
3.69161e-09
-2.77786e-08
1.31141e-07
2.14906e-09
0.000250102
-2.50352e-07
-1.26789e-06
-1.02963e-07
9.11623e-07
-2.14211e-07
-8.54268e-07
2.69724e-07
1.20361e-06
-2.52758e-07
2.72455e-07
-0.0011518
0.00115173
-1.45833e-07
-9.34446e-07
8.29001e-07
-7.49863e-07
1.00915e-06
4.39653e-08
2.33527e-08
0.000245488
-1.03079e-07
-0.000245435
-1.68851e-08
-1.03262e-07
1.00632e-06
-7.52865e-07
-9.34801e-07
8.26161e-07
-2.20693e-08
-1.19743e-08
3.89335e-09
6.32879e-08
0.000245416
7.05838e-08
0.000250232
-0.000250115
-1.93775e-07
5.7025e-09
1.1871e-10
1.10817e-09
-1.282e-08
0.000229383
0.000193738
-0.000193704
2.90523e-09
-4.2234e-09
0.000193684
-2.04883e-10
0.000229439
-0.000229403
2.14078e-09
3.22918e-08
1.02325e-09
-1.48789e-08
0.000229346
6.88183e-09
0.000193679
-0.000193645
3.38574e-09
-5.04997e-09
-3.67078e-09
0.000193625
0.000229399
-0.000229365
2.3061e-09
3.44055e-08
0.000268064
-2.02644e-07
1.22479e-06
-2.10315e-07
1.976e-08
-4.87823e-08
-0.000278305
1.03684e-08
1.99447e-08
-4.89121e-08
-0.000278227
1.05562e-08
-1.10096e-08
2.20701e-08
0.000278201
-7.35999e-09
9.80729e-05
-9.8046e-05
9.8069e-05
-9.80422e-05
9.80314e-05
1.1505e-08
9.80813e-05
-1.95373e-08
9.81188e-05
-9.8092e-05
1.09644e-08
9.80704e-05
-2.00317e-08
9.81079e-05
-9.80811e-05
1.14468e-08
2.46305e-08
-8.78871e-09
0.000278378
9.68111e-09
2.42674e-08
-6.9617e-09
0.00027831
0.000270143
-1.28086e-06
-1.2387e-06
-0.00026811
2.39237e-07
2.47393e-07
0.000278446
-2.37328e-08
1.32068e-08
-0.000278404
-5.08654e-08
0.000278378
-2.0804e-08
9.82105e-09
-0.000278336
-5.1228e-08
1.15855e-08
4.4856e-09
9.81027e-05
1.09782e-08
5.05701e-09
9.80919e-05
1.23465e-06
1.19302e-06
0.000268112
-1.94766e-07
-2.02236e-07
1.13478e-08
-8.67174e-09
2.46722e-08
0.00027843
9.66822e-09
-6.94726e-09
2.42536e-08
0.000278362
-7.07625e-08
0.000229464
-0.000229426
3.02462e-08
2.14839e-09
2.43692e-08
-4.14546e-09
0.00019368
2.78176e-08
0.000229406
-1.06785e-08
9.92294e-10
-4.60144e-08
0.000193736
3.29521e-09
-0.0001937
-9.37741e-10
0.000250311
-0.00025019
3.37589e-09
-1.93878e-07
6.57853e-08
3.42513e-09
0.000245567
0.00115221
7.30664e-09
-1.52527e-07
1.0096e-06
-7.55242e-07
-9.34711e-07
8.31894e-07
-4.66352e-08
0.00113144
-1.2643e-07
-1.23475e-06
2.77855e-07
-2.38502e-07
-8.54321e-07
2.66716e-07
-2.11436e-07
9.14435e-07
8.75282e-10
0.000250177
2.93766e-09
1.30961e-07
0.000245642
-1.72284e-08
-0.000245587
-1.05159e-07
-1.8656e-09
0.00115217
-1.53602e-07
-9.34528e-07
8.31961e-07
-7.55036e-07
1.00966e-06
0.000250283
-0.000250166
4.81972e-09
-1.93905e-07
-1.16717e-08
6.56894e-08
3.5592e-09
0.000245465
0.00115216
-1.46939e-07
1.01212e-06
-7.55201e-07
-9.37158e-07
8.31885e-07
-5.76355e-08
0.00113151
1.27821e-06
-1.2667e-07
-8.59378e-07
2.69515e-07
9.19677e-07
-2.14075e-07
-1.22957e-06
2.80586e-07
-2.38767e-07
0.000250152
1.55959e-09
1.30951e-07
0.000245537
2.34008e-08
-1.68855e-08
-0.000245485
-1.0527e-07
0.0011521
-1.53711e-07
-9.39691e-07
8.31952e-07
-7.5499e-07
1.01488e-06
-5.92215e-11
2.77642e-08
-1.06746e-08
1.50225e-09
0.000229486
2.23345e-08
-4.49858e-09
0.000193784
2.77461e-08
-1.06569e-08
9.81738e-10
0.000229446
2.43604e-08
-4.77811e-09
-4.17787e-09
0.00019372
7.6998e-10
3.23112e-09
1.3077e-07
0.000250204
-5.25427e-08
-1.26867e-07
1.28085e-06
-2.38441e-07
2.77849e-07
9.14417e-07
-2.11403e-07
2.6668e-07
-8.54271e-07
0.00113142
3.33524e-09
6.5759e-08
0.000245606
4.35858e-09
-1.54628e-07
1.00967e-06
-7.54896e-07
-9.34407e-07
8.31978e-07
0.00115211
1.31611e-09
1.30754e-07
0.000250179
-5.22053e-08
-1.23219e-06
-1.27134e-07
9.19669e-07
-2.14026e-07
-8.59315e-07
2.69499e-07
1.27818e-06
-2.41442e-07
2.80564e-07
0.00113149
-1.16337e-08
3.53143e-09
6.56371e-08
0.000245504
-1.54748e-07
1.01492e-06
-7.54842e-07
-9.39558e-07
8.31983e-07
0.00115205
2.2143e-08
-7.18131e-09
0.000278253
-1.11687e-08
2.21269e-08
-7.19262e-09
0.000278393
0.000270129
-0.000268096
2.42116e-07
2.44555e-07
0.000278318
1.08352e-08
-0.000278279
-4.87054e-08
1.98252e-08
0.000278464
1.01973e-08
-0.000278419
-5.11507e-08
4.9437e-09
9.80771e-05
9.81147e-05
-7.0017e-09
-9.80878e-05
1.35452e-08
9.80803e-05
1.19538e-06
0.000268098
-1.97306e-07
-1.99652e-07
-7.12688e-09
2.21483e-08
0.000278305
-1.11897e-08
1.18136e-08
-6.63606e-09
2.44188e-08
0.000278445
4.9045e-09
9.80986e-05
-1.5056e-09
0.000250305
-0.000250184
3.97365e-09
-1.93953e-07
6.3203e-08
6.40285e-09
0.000245531
0.00115206
3.5872e-09
-1.47095e-07
1.01222e-06
-7.55165e-07
-9.37165e-07
8.31939e-07
-5.14705e-08
0.00113245
-1.27429e-07
-1.19309e-06
2.75042e-07
-2.36236e-07
-8.56666e-07
2.69836e-07
-2.13978e-07
9.17292e-07
1.8313e-09
0.00025017
1.8891e-09
1.30947e-07
0.000245608
-1.91915e-08
-0.000245551
-1.03121e-07
-3.62026e-09
0.001152
-1.48252e-07
-9.36964e-07
8.3202e-07
-7.54948e-07
1.01229e-06
-7.07703e-08
0.000229453
-0.000229414
3.02432e-08
2.46317e-09
2.21756e-08
-4.09236e-09
0.000193668
2.78671e-08
0.000229394
-1.07194e-08
1.20596e-09
-4.37425e-08
0.000193722
2.97327e-09
-0.000193688
0.000250275
-0.000250158
-1.93922e-07
4.60905e-09
0.00115199
-1.52832e-07
1.0122e-06
-7.55225e-07
-9.37221e-07
8.31922e-07
-1.18303e-08
6.09126e-08
3.65869e-09
0.000245452
-5.21026e-08
0.00113139
1.27274e-06
-1.26933e-07
-8.56785e-07
2.66867e-07
9.17096e-07
-2.11369e-07
-1.22694e-06
2.80528e-07
-2.41543e-07
0.000250144
1.30991e-07
1.91362e-09
0.00115193
-1.4812e-07
-9.37029e-07
8.32002e-07
-7.55009e-07
1.01225e-06
0.000245522
2.35221e-08
-1.71052e-08
-0.000245472
-1.00446e-07
2.77566e-08
4.03713e-10
8.1199e-10
-1.06806e-08
0.000229474
2.20337e-08
-3.66947e-09
0.000193767
1.86791e-09
1.88245e-09
1.33322e-07
0.000250196
-5.16492e-08
-1.27965e-07
1.23866e-06
-2.36213e-07
2.74998e-07
9.17295e-07
-2.13916e-07
2.69831e-07
-8.56591e-07
0.00113243
6.39595e-09
6.31321e-08
0.00024557
3.84012e-09
-1.5517e-07
1.01231e-06
-7.5477e-07
-9.36829e-07
8.32043e-07
0.00115195
2.77893e-08
-1.07058e-08
1.2512e-09
0.000229435
2.21776e-08
-4.79236e-09
-4.15055e-09
0.000193709
1.33374e-07
1.97084e-09
0.000250169
-5.23475e-08
-1.22686e-06
-1.27461e-07
9.17096e-07
-2.11316e-07
-8.56718e-07
2.66865e-07
1.27271e-06
-2.41498e-07
2.80502e-07
0.00113137
-1.5506e-07
1.01229e-06
-7.54834e-07
-9.36888e-07
8.32027e-07
0.00115189
-1.17757e-08
3.60918e-09
6.08605e-08
0.000245492
1.99739e-11
0.000229488
-0.000229452
2.04724e-09
3.23048e-08
-3.78929e-09
0.00019373
-1.27022e-11
0.000229432
1.27714e-09
-1.27397e-08
0.000193784
3.1599e-09
-0.00019375
7.06891e-08
0.000250268
-0.000250151
-1.93863e-07
4.30275e-09
0.00115185
-1.47196e-07
1.00398e-06
-7.49679e-07
8.26412e-07
-9.29008e-07
-2.2202e-08
6.32847e-08
3.56514e-09
0.00024549
-4.64315e-08
0.00113101
-1.21089e-07
-1.22396e-06
2.7774e-07
-2.38574e-07
-8.48708e-07
2.64094e-07
-2.08576e-07
9.08995e-07
-2.77656e-08
0.000250137
1.33481e-07
1.42062e-09
0.00115179
-1.48159e-07
-9.31515e-07
8.29227e-07
-7.52186e-07
1.00676e-06
4.37548e-08
0.000245562
-1.71221e-08
-0.000245507
-1.05225e-07
0.000229451
-0.000229413
3.01973e-08
2.21331e-09
-4.72678e-09
-4.16777e-09
0.000193674
0.000229393
-1.06682e-08
1.11613e-09
0.000193728
7.15005e-09
2.93344e-09
-0.000193694
-2.76014e-08
1.52351e-09
2.2945e-09
1.30624e-07
0.000250191
-5.78037e-08
-1.27818e-07
1.24129e-06
-2.35908e-07
2.75024e-07
9.11909e-07
-2.13916e-07
-8.51314e-07
2.69677e-07
0.00113198
-2.20992e-08
3.71321e-09
6.55635e-08
0.000245606
1.69387e-09
-1.55121e-07
1.00683e-06
-7.49254e-07
-9.28674e-07
8.29263e-07
0.00115183
1.32186e-10
1.26883e-09
-1.27129e-08
0.000229472
-3.8295e-09
0.000193771
-2.76705e-08
1.3067e-07
1.949e-09
0.000250165
-5.22992e-08
-1.22387e-06
-1.32936e-07
9.08986e-07
-2.08536e-07
-8.48648e-07
2.64069e-07
1.26987e-06
-2.38512e-07
2.77735e-07
0.001131
-1.6082e-07
1.00679e-06
-7.5203e-07
-9.31367e-07
8.29264e-07
0.00115175
-2.22084e-08
-1.15668e-08
3.49224e-09
6.56095e-08
0.000245527
-1.06399e-08
1.15588e-09
0.000229433
-4.64894e-09
-4.26168e-09
0.000193714
1.98543e-08
-7.18841e-09
0.00027825
-1.13965e-08
2.22614e-08
-9.43102e-09
0.000278386
0.000270103
-0.000268083
2.42246e-07
2.47052e-07
0.000278316
1.06466e-08
-0.000278277
-4.64729e-08
1.95748e-08
0.000278451
1.36033e-08
-0.000278412
-4.86626e-08
4.63751e-09
9.80762e-05
9.81138e-05
-7.21593e-09
-9.8087e-05
1.1184e-08
9.80755e-05
1.18988e-06
0.000268085
-1.97296e-07
-2.02373e-07
-7.13706e-09
1.98631e-08
0.000278303
-1.14533e-08
1.14202e-08
-9.3299e-09
2.22772e-08
0.000278439
4.56464e-09
9.80978e-05
7.05751e-08
0.00025026
-0.000250142
-1.93811e-07
5.19544e-09
0.00115168
-1.52891e-07
1.00919e-06
-7.5512e-07
8.29072e-07
-9.34235e-07
-2.2047e-08
6.319e-08
3.88537e-09
0.000245455
-5.17128e-08
0.00113201
-1.27172e-07
-1.18751e-06
2.75075e-07
-2.36098e-07
-8.53826e-07
2.69692e-07
-2.13971e-07
9.14373e-07
-2.76775e-08
0.000250129
1.3089e-07
1.17698e-09
0.00115163
-1.53968e-07
-9.34007e-07
8.2915e-07
-7.52161e-07
1.00925e-06
4.39296e-08
0.000245527
-1.68601e-08
-0.000245474
-1.03032e-07
-3.79978e-10
0.000229479
-0.000229443
2.62706e-09
3.22834e-08
-4.3298e-09
0.000193724
5.86061e-11
0.000229423
1.15984e-09
-1.2784e-08
0.000193778
2.81054e-09
-0.000193745
0.000229439
-0.000229406
2.27922e-09
3.43778e-08
-5.02138e-09
-3.68553e-09
0.000193665
0.000229386
7.8923e-10
-1.48467e-08
0.000193719
6.89125e-09
3.37849e-09
-0.000193686
6.40231e-10
-2.76886e-08
1.30725e-07
2.4955e-09
0.000250181
-5.26536e-08
-1.27566e-07
1.23599e-06
-2.35788e-07
2.7519e-07
9.11809e-07
-2.14057e-07
-8.51437e-07
2.69559e-07
0.00113184
4.56275e-09
-1.55004e-07
1.0068e-06
-7.52076e-07
-9.31493e-07
8.29208e-07
0.00115166
-2.22835e-08
3.38437e-09
6.33232e-08
0.000245596
-2.75989e-08
1.30675e-07
6.81795e-10
0.000250156
-5.18684e-08
-1.18745e-06
-1.27717e-07
9.14318e-07
-2.13914e-07
-8.53755e-07
2.69705e-07
1.23321e-06
-2.36068e-07
2.75035e-07
0.00113198
-1.55078e-07
1.00928e-06
-7.52004e-07
-9.33863e-07
8.29188e-07
0.00115158
-2.20422e-08
-1.19408e-08
3.86784e-09
6.31438e-08
0.000245494
-8.5275e-11
1.2152e-09
-1.27764e-08
0.000229463
-4.42198e-09
0.000193765
5.42847e-10
-1.48237e-08
0.000229426
-5.00022e-09
-3.70084e-09
0.000193706
9.80568e-05
9.80944e-05
-9.80676e-05
9.8053e-05
9.80905e-05
-9.80637e-05
0.000268059
-1.97186e-07
-1.99747e-07
-1.13841e-08
-6.35833e-09
2.45409e-08
0.000278381
-1.10451e-08
-7.32824e-09
2.20552e-08
0.000278306
9.80784e-05
9.80744e-05
1.70315e-08
7.93014e-05
-1.55029e-10
-0.000263332
2.4207e-08
0.000263378
-6.19206e-08
-4.66789e-09
-4.21855e-09
-4.71313e-09
2.22794e-08
3.27781e-08
-1.16721e-09
7.93272e-05
-1.63984e-09
-5.11853e-09
2.2077e-08
-1.05366e-09
1.20347e-08
0.000143492
-0.000143503
2.93285e-10
-1.06793e-08
1.25639e-09
-0.000229484
-1.80733e-10
2.77878e-08
-0.000171212
-9.49714e-11
-1.56273e-10
0.000171242
-0.000223519
2.90589e-08
4.79538e-09
0.00022356
-7.2175e-08
-0.000171223
-1.42611e-10
-0.00022354
1.31086e-09
3.22449e-08
1.74293e-09
0.000143519
-7.93282e-05
-2.40473e-08
-1.71699e-09
7.9354e-05
-1.71177e-08
0.000263412
-1.27381e-09
-0.000263431
3.28032e-08
2.82427e-09
0.000193777
7.21807e-09
-4.37189e-08
-2.5724e-10
-7.93451e-05
-4.76444e-09
0.000263457
-6.1788e-08
-0.000143476
1.16808e-10
-2.90741e-08
3.02396e-08
2.42752e-09
-4.80626e-11
-7.07509e-08
1.02684e-09
0.000171193
-0.000171204
-1.16615e-10
-1.20449e-08
0.000223499
-0.000223519
3.22815e-08
-0.000143487
-1.31629e-10
-7.21871e-08
1.71462e-08
7.93371e-05
-0.000263438
2.40014e-08
0.000263484
-6.17428e-08
-4.44365e-09
-4.52444e-09
2.23093e-08
3.28081e-08
7.93629e-05
9.80879e-05
-7.00178e-09
-2.20878e-08
4.7941e-09
1.35288e-08
1.199e-08
-6.30983e-10
0.00014349
-0.000143502
-1.14012e-10
5.95867e-10
-1.06854e-08
-0.000229472
2.41792e-10
2.77964e-08
-0.00022351
2.91545e-08
4.25657e-09
0.000223551
-7.22918e-08
-0.000171208
-5.10364e-10
2.18212e-10
0.000171239
-0.000223531
8.28403e-10
3.2181e-08
-0.00017122
2.13918e-10
1.36385e-09
0.000143518
-7.93302e-05
-2.44444e-08
-1.36012e-09
7.9356e-05
-1.67072e-08
0.000263408
-8.25521e-10
-0.000263427
3.25858e-08
3.54917e-09
0.00019376
6.75841e-09
-4.40147e-08
1.25542e-10
-7.9347e-05
-4.26292e-09
0.000263454
-6.20509e-08
-0.000143474
-2.9163e-08
5.08803e-10
2.21905e-09
3.02766e-08
2.00779e-10
-7.08109e-08
-1.20084e-08
0.000223489
-0.00022351
3.22322e-08
6.3094e-10
0.000171189
-0.000171201
2.14789e-10
-0.000143486
-7.22927e-08
2.25012e-10
1.67108e-08
7.93391e-05
-0.000263435
2.44204e-08
0.00026348
-6.20244e-08
-3.65999e-09
-5.06978e-09
2.20362e-08
3.25744e-08
7.93649e-05
9.80806e-05
-7.04467e-09
-1.97627e-08
4.81857e-09
1.11631e-08
-6.98999e-09
-6.79113e-09
0.000213866
-0.000213872
9.64126e-09
9.85388e-09
-8.05931e-05
-1.214e-08
-1.22265e-08
8.06175e-05
-8.05814e-05
-1.23819e-08
-1.19945e-08
8.06058e-05
-8.06093e-05
9.15991e-09
-8.05976e-05
9.38102e-09
-2.51893e-08
-2.50187e-08
0.000213892
-0.000221994
-3.65045e-08
3.32434e-08
2.51977e-08
0.00022203
-5.74719e-08
-1.52195e-08
0.000250747
-0.000250802
6.05239e-08
3.13245e-08
1.60142e-08
0.000183138
-9.18766e-09
-0.000183151
-4.87381e-08
1.04076e-08
0.000278373
1.97088e-08
-2.36293e-08
-9.65597e-09
-0.000222012
2.83804e-08
0.000250815
-9.76071e-08
-5.54038e-08
1.22135e-08
0.00018317
-0.000221926
-3.63552e-08
3.14249e-08
2.5052e-08
0.000221966
-6.00493e-08
-1.54537e-08
0.000250634
-0.000250691
6.28348e-08
3.15468e-08
1.39206e-08
0.000183086
-9.37812e-09
-0.000183098
-4.88913e-08
1.05603e-08
0.000278295
1.99163e-08
-2.33388e-08
-9.84077e-09
-0.000221948
3.06399e-08
0.000250707
-1.0263e-07
-5.52887e-08
1.20075e-08
0.000183116
-0.000213846
1.21723e-08
1.23882e-08
6.97405e-09
8.05849e-05
-8.0601e-05
6.80325e-09
8.05732e-05
-8.05894e-05
-0.000213852
1.51873e-08
-1.60375e-08
0.00022201
3.07078e-08
-0.000183156
-3.31942e-08
0.000183188
2.45238e-08
-6.40688e-09
-1.13475e-08
1.16055e-08
-0.000250763
3.65027e-08
0.000250831
-1.00024e-07
-5.54231e-08
6.05188e-08
3.12582e-08
0.000222047
-5.97252e-08
1.54577e-08
-1.39258e-08
0.000221943
3.06376e-08
-0.000183104
-3.13935e-08
0.000183134
2.20594e-08
-7.33647e-09
-1.10375e-08
1.19459e-08
-0.00025065
3.63329e-08
0.000250723
-1.02597e-07
-5.52787e-08
6.28084e-08
3.15392e-08
0.000221983
-6.00086e-08
1.13797e-08
1.0946e-08
-7.08137e-09
-6.75824e-09
0.000213811
1.17664e-08
1.00293e-08
-8.05677e-05
-1.21998e-08
-1.22264e-08
8.05921e-05
-8.05541e-05
-1.2531e-08
-1.19263e-08
8.05785e-05
9.10803e-09
9.47355e-09
-2.74893e-08
-2.51574e-08
0.000213839
-1.62598e-08
0.000221973
1.76195e-08
2.85554e-08
-0.000183098
-3.35079e-08
0.000183132
-8.97863e-09
2.45812e-08
1.16093e-08
3.90045e-08
-0.000250749
0.000250812
-1.00076e-07
-5.28865e-08
0.000222008
-5.76749e-08
6.0585e-08
2.88328e-08
-1.58419e-08
0.000221906
1.55126e-08
3.28606e-08
-0.000183044
-3.35537e-08
0.000183075
-6.98097e-09
2.42958e-08
9.70361e-09
3.62526e-08
-0.000250641
0.000250709
-1.02796e-07
-5.26364e-08
0.000221946
-6.24988e-08
6.2837e-08
2.91338e-08
-9.80866e-05
1.1459e-08
4.61981e-09
-1.97229e-08
-7.13981e-09
-9.80756e-05
1.09564e-08
5.09462e-09
-2.01186e-08
-6.74681e-09
-0.000213831
1.21619e-08
1.25325e-08
-2.74889e-08
-2.51225e-08
0.000213859
7.10054e-09
8.0576e-05
9.08003e-09
6.73909e-09
8.05623e-05
9.47884e-09
1.17423e-08
1.00441e-08
-1.22517e-08
8.06004e-05
-1.1915e-08
8.05867e-05
-1.63094e-08
1.75416e-08
0.000222008
-0.000222026
-1.17232e-08
2.85874e-08
-0.000250783
3.90363e-08
0.000250843
-9.74868e-08
-5.29531e-08
-8.84945e-09
2.46062e-08
-0.000278367
1.14984e-08
-0.000183134
-3.34173e-08
1.22686e-08
0.000183168
-0.00018315
-9.04777e-09
-0.00025083
5.81677e-08
3.12521e-08
2.7485e-08
0.000222043
-5.75455e-08
-1.58334e-08
1.55181e-08
0.000221941
-0.000221964
-1.0056e-08
3.28242e-08
-0.000250672
3.62042e-08
0.00025074
-1.02739e-07
-5.26282e-08
-6.96584e-09
2.42729e-08
-0.0002783
9.68666e-09
-0.00018308
-3.35075e-08
1.18988e-08
0.000183111
-0.000183093
-9.47363e-09
-0.000250724
6.27676e-08
2.90991e-08
2.50822e-08
0.000221982
-6.24305e-08
-0.00022199
3.34737e-08
-3.90257e-08
-5.76205e-08
1.62851e-08
0.000183116
-1.75744e-08
0.000250767
5.80972e-08
2.87659e-08
1.30449e-08
-5.10374e-08
-2.36296e-08
2.85709e-08
-9.76292e-08
-5.54628e-08
-0.000221924
3.3538e-08
-3.62328e-08
-6.24728e-08
1.58391e-08
0.000183062
-1.55189e-08
0.000250657
6.27984e-08
2.91156e-08
9.82748e-09
-5.13138e-08
-2.08386e-08
3.28458e-08
-1.02774e-07
-5.26384e-08
-7.11907e-09
-6.72844e-09
0.000213851
-8.05842e-05
-1.2126e-08
8.06086e-05
-8.05705e-05
-1.25283e-08
8.0595e-05
0.000213879
-0.000143444
1.56296e-10
-2.91052e-08
1.66192e-09
0.000143471
9.79855e-10
0.000171155
-9.82499e-11
-0.000171166
-1.20617e-08
0.000223458
1.20229e-09
3.2343e-08
-0.000223478
3.02703e-08
2.38408e-09
0.000229444
-5.13464e-11
-7.07676e-08
1.88375e-10
-0.000143455
0.000171185
-1.09325e-10
4.69776e-09
0.000223499
-7.22113e-08
7.93193e-05
1.70855e-08
-7.93361e-05
-2.20376e-10
-4.32777e-09
-0.000193736
2.22939e-08
2.41044e-08
-0.000263385
-4.73036e-09
-6.18334e-08
-1.68985e-09
-0.000263404
-1.23801e-09
3.27915e-08
-7.93103e-05
-2.41536e-08
-1.70629e-08
0.000263359
3.27859e-08
2.93944e-09
-4.37956e-08
-6.18749e-08
0.00014346
-1.0037e-09
1.20519e-08
-1.07007e-08
1.20462e-09
-1.51999e-10
2.78681e-08
-1.35864e-10
-0.000171174
-1.26699e-10
2.90955e-08
-0.000223478
-7.22091e-08
-1.15094e-10
3.23046e-08
-0.000143374
3.61916e-10
-2.91231e-08
1.48635e-09
0.000143401
7.81135e-10
0.00017112
-0.000171132
-1.20272e-08
0.000223359
-1.00344e-09
2.98276e-08
-0.000223375
3.02834e-08
2.17229e-09
0.000229404
-7.07836e-08
3.14281e-11
-0.000143386
0.000171151
6.52838e-09
0.000223396
-6.97752e-08
1.68879e-08
7.92776e-05
-7.92944e-05
-5.03265e-11
-4.13155e-09
-0.000193675
-4.82965e-09
2.43562e-08
-0.000263253
2.42999e-08
-6.53647e-09
0.000263298
-5.94388e-08
-0.000263271
9.85885e-10
3.01753e-08
-1.49487e-09
7.93034e-05
-7.92686e-05
-2.43291e-08
-1.68795e-08
0.000263226
3.0176e-08
-0.000263245
3.3327e-09
6.98308e-09
-4.60968e-08
-7.92854e-05
-5.94686e-08
-7.8527e-10
1.2008e-08
0.00014339
-1.06904e-08
9.9893e-10
2.78545e-08
-0.000171139
-3.62628e-10
0.000171169
-0.00022338
2.91132e-08
0.000223416
-6.97691e-08
2.97834e-08
0.000143417
-9.80664e-05
1.35003e-08
-2.21483e-08
1.53436e-08
-1.42717e-08
0.000221918
-1.41559e-08
3.31863e-08
-0.000221938
-0.000250619
3.89611e-08
0.000250684
-9.77427e-08
-5.5348e-08
2.21423e-08
-7.20376e-09
-0.00027824