/*--------------------------------*- C++ -*----------------------------------*\
| =========                 |                                                 |
| \\      /  F ield         | OpenFOAM: The Open Source CFD Toolbox           |
|  \\    /   O peration     | Version:                                        |
|   \\  /    A nd           | Website:  www.openfoam.com                      |
|    \\/     M anipulation  |                                                 |
\*---------------------------------------------------------------------------*/
FoamFile
{
    version     2.0;
    format      ascii;
    class       volScalarField;
    location    "13600.5";
    object      p;
}
// * * * * * * * * * * * * * * * * * * * * * * * * * * * * * * * * * * * * * //

dimensions      [0 2 -2 0 0 0 0];


internalField   nonuniform List<scalar> 
247096
(
1.24905e-07
1.24908e-07
1.25051e-07
1.25138e-07
1.2517e-07
1.25129e-07
1.25038e-07
1.24884e-07
1.24908e-07
1.25106e-07
1.25283e-07
1.25376e-07
1.25399e-07
1.25369e-07
1.25265e-07
1.25082e-07
1.25051e-07
1.25283e-07
1.25423e-07
1.25465e-07
1.25472e-07
1.25463e-07
1.25413e-07
1.25256e-07
1.25024e-07
1.25138e-07
1.25376e-07
1.25465e-07
1.25477e-07
1.25476e-07
1.25477e-07
1.2546e-07
1.25354e-07
1.25105e-07
1.24905e-07
1.2517e-07
1.25399e-07
1.25472e-07
1.25476e-07
1.25472e-07
1.25476e-07
1.25468e-07
1.25379e-07
1.25136e-07
1.25129e-07
1.25369e-07
1.25463e-07
1.25477e-07
1.25476e-07
1.25477e-07
1.25457e-07
1.25346e-07
1.25096e-07
1.25038e-07
1.25265e-07
1.25413e-07
1.2546e-07
1.25468e-07
1.25457e-07
1.25401e-07
1.25237e-07
1.25012e-07
1.24884e-07
1.25082e-07
1.25256e-07
1.25354e-07
1.25379e-07
1.25346e-07
1.25237e-07
1.25059e-07
1.25024e-07
1.25104e-07
1.25136e-07
1.25096e-07
1.25012e-07
1.22086e-07
1.22062e-07
1.2207e-07
1.21922e-07
1.21934e-07
1.21953e-07
1.21934e-07
1.22119e-07
1.22057e-07
1.2207e-07
1.21942e-07
1.21733e-07
1.21751e-07
1.21751e-07
1.21733e-07
1.21996e-07
1.21946e-07
1.21922e-07
1.21733e-07
1.21772e-07
1.21794e-07
1.21794e-07
1.21772e-07
1.21733e-07
1.2206e-07
1.22108e-07
1.22086e-07
1.21934e-07
1.21751e-07
1.21794e-07
1.21819e-07
1.21819e-07
1.21794e-07
1.21751e-07
1.22086e-07
1.22125e-07
1.22062e-07
1.21953e-07
1.21751e-07
1.21794e-07
1.21819e-07
1.21819e-07
1.21794e-07
1.21751e-07
1.22089e-07
1.21951e-07
1.21934e-07
1.21733e-07
1.21772e-07
1.21794e-07
1.21794e-07
1.21772e-07
1.21733e-07
1.22083e-07
1.22135e-07
1.22119e-07
1.21996e-07
1.21733e-07
1.21751e-07
1.21751e-07
1.21733e-07
1.22076e-07
1.22004e-07
1.22118e-07
1.22057e-07
1.21946e-07
1.22059e-07
1.22086e-07
1.22089e-07
1.22083e-07
1.22004e-07
1.22128e-07
1.22108e-07
1.22125e-07
1.21951e-07
1.22135e-07
1.22118e-07
1.20343e-07
1.20334e-07
1.20343e-07
1.20212e-07
1.2021e-07
1.20219e-07
1.20212e-07
1.20375e-07
1.20335e-07
1.20343e-07
1.20205e-07
1.19979e-07
1.19988e-07
1.19988e-07
1.19979e-07
1.20228e-07
1.20225e-07
1.20212e-07
1.19979e-07
1.20002e-07
1.20013e-07
1.20013e-07
1.20002e-07
1.19979e-07
1.20273e-07
1.20368e-07
1.20343e-07
1.2021e-07
1.19988e-07
1.20013e-07
1.20026e-07
1.20026e-07
1.20013e-07
1.19988e-07
1.20278e-07
1.20365e-07
1.20334e-07
1.20219e-07
1.19988e-07
1.20013e-07
1.20026e-07
1.20026e-07
1.20013e-07
1.19988e-07
1.20277e-07
1.20231e-07
1.20212e-07
1.19979e-07
1.20002e-07
1.20013e-07
1.20013e-07
1.20002e-07
1.19979e-07
1.2028e-07
1.20372e-07
1.20375e-07
1.20228e-07
1.19979e-07
1.19988e-07
1.19988e-07
1.19979e-07
1.2026e-07
1.20252e-07
1.20376e-07
1.20335e-07
1.20225e-07
1.20273e-07
1.20278e-07
1.20277e-07
1.2028e-07
1.20252e-07
1.2038e-07
1.20368e-07
1.20364e-07
1.20231e-07
1.20372e-07
1.20376e-07
1.18834e-07
1.18825e-07
1.18833e-07
1.1871e-07
1.18707e-07
1.18713e-07
1.18709e-07
1.18861e-07
1.18828e-07
1.18833e-07
1.18704e-07
1.18512e-07
1.18517e-07
1.18517e-07
1.18512e-07
1.18728e-07
1.18725e-07
1.1871e-07
1.18512e-07
1.18524e-07
1.18528e-07
1.18528e-07
1.18524e-07
1.18512e-07
1.1877e-07
1.18858e-07
1.18834e-07
1.18707e-07
1.18517e-07
1.18528e-07
1.18534e-07
1.18534e-07
1.18528e-07
1.18517e-07
1.18773e-07
1.18855e-07
1.18825e-07
1.18713e-07
1.18517e-07
1.18528e-07
1.18534e-07
1.18534e-07
1.18528e-07
1.18517e-07
1.18771e-07
1.1873e-07
1.18709e-07
1.18512e-07
1.18524e-07
1.18528e-07
1.18528e-07
1.18524e-07
1.18512e-07
1.18773e-07
1.18861e-07
1.18861e-07
1.18728e-07
1.18512e-07
1.18517e-07
1.18517e-07
1.18512e-07
1.18756e-07
1.18748e-07
1.18863e-07
1.18828e-07
1.18725e-07
1.1877e-07
1.18773e-07
1.18771e-07
1.18773e-07
1.18748e-07
1.18869e-07
1.18858e-07
1.18855e-07
1.1873e-07
1.18861e-07
1.18863e-07
1.17475e-07
1.17465e-07
1.17473e-07
1.17354e-07
1.1735e-07
1.17355e-07
1.17352e-07
1.17498e-07
1.1747e-07
1.17473e-07
1.17348e-07
1.17172e-07
1.17174e-07
1.17174e-07
1.17172e-07
1.17374e-07
1.1737e-07
1.17354e-07
1.17172e-07
1.17179e-07
1.17179e-07
1.17179e-07
1.17179e-07
1.17172e-07
1.17416e-07
1.17498e-07
1.17475e-07
1.1735e-07
1.17174e-07
1.17179e-07
1.17181e-07
1.17181e-07
1.17179e-07
1.17174e-07
1.17416e-07
1.17495e-07
1.17465e-07
1.17355e-07
1.17174e-07
1.17179e-07
1.17181e-07
1.17181e-07
1.17179e-07
1.17174e-07
1.17414e-07
1.17375e-07
1.17352e-07
1.17172e-07
1.17179e-07
1.17179e-07
1.17179e-07
1.17179e-07
1.17172e-07
1.17416e-07
1.175e-07
1.17498e-07
1.17374e-07
1.17172e-07
1.17174e-07
1.17174e-07
1.17172e-07
1.17401e-07
1.17393e-07
1.17502e-07
1.1747e-07
1.1737e-07
1.17416e-07
1.17416e-07
1.17414e-07
1.17416e-07
1.17393e-07
1.1751e-07
1.17498e-07
1.17495e-07
1.17375e-07
1.175e-07
1.17502e-07
1.16167e-07
1.16156e-07
1.16165e-07
1.16047e-07
1.16043e-07
1.16048e-07
1.16045e-07
1.1619e-07
1.16162e-07
1.16165e-07
1.16042e-07
1.15869e-07
1.1587e-07
1.1587e-07
1.15869e-07
1.16067e-07
1.16064e-07
1.16047e-07
1.15869e-07
1.15874e-07
1.15873e-07
1.15873e-07
1.15874e-07
1.15869e-07
1.1611e-07
1.1619e-07
1.16167e-07
1.16043e-07
1.1587e-07
1.15873e-07
1.15873e-07
1.15873e-07
1.15873e-07
1.1587e-07
1.1611e-07
1.16187e-07
1.16156e-07
1.16048e-07
1.1587e-07
1.15873e-07
1.15873e-07
1.15873e-07
1.15873e-07
1.1587e-07
1.16108e-07
1.16068e-07
1.16045e-07
1.15869e-07
1.15874e-07
1.15873e-07
1.15873e-07
1.15874e-07
1.15869e-07
1.1611e-07
1.16192e-07
1.1619e-07
1.16067e-07
1.15869e-07
1.1587e-07
1.1587e-07
1.15869e-07
1.16095e-07
1.16086e-07
1.16193e-07
1.16162e-07
1.16064e-07
1.1611e-07
1.1611e-07
1.16108e-07
1.1611e-07
1.16086e-07
1.16202e-07
1.1619e-07
1.16187e-07
1.16068e-07
1.16192e-07
1.16193e-07
1.14868e-07
1.14858e-07
1.14867e-07
1.14749e-07
1.14745e-07
1.1475e-07
1.14747e-07
1.14891e-07
1.14864e-07
1.14867e-07
1.14743e-07
1.14571e-07
1.14572e-07
1.14572e-07
1.14571e-07
1.14769e-07
1.14766e-07
1.14749e-07
1.14571e-07
1.14575e-07
1.14574e-07
1.14574e-07
1.14575e-07
1.14571e-07
1.14812e-07
1.14892e-07
1.14868e-07
1.14745e-07
1.14572e-07
1.14574e-07
1.14573e-07
1.14573e-07
1.14574e-07
1.14572e-07
1.14812e-07
1.14889e-07
1.14858e-07
1.1475e-07
1.14572e-07
1.14574e-07
1.14573e-07
1.14573e-07
1.14574e-07
1.14572e-07
1.1481e-07
1.1477e-07
1.14747e-07
1.14571e-07
1.14575e-07
1.14574e-07
1.14574e-07
1.14575e-07
1.14571e-07
1.14812e-07
1.14894e-07
1.14891e-07
1.14769e-07
1.14571e-07
1.14572e-07
1.14572e-07
1.14571e-07
1.14797e-07
1.14788e-07
1.14895e-07
1.14864e-07
1.14766e-07
1.14812e-07
1.14812e-07
1.1481e-07
1.14812e-07
1.14788e-07
1.14904e-07
1.14892e-07
1.14889e-07
1.1477e-07
1.14894e-07
1.14895e-07
1.1357e-07
1.1356e-07
1.13569e-07
1.13451e-07
1.13446e-07
1.13451e-07
1.13448e-07
1.13593e-07
1.13566e-07
1.13569e-07
1.13445e-07
1.13273e-07
1.13273e-07
1.13273e-07
1.13273e-07
1.13471e-07
1.13468e-07
1.13451e-07
1.13273e-07
1.13276e-07
1.13275e-07
1.13275e-07
1.13276e-07
1.13273e-07
1.13514e-07
1.13594e-07
1.1357e-07
1.13446e-07
1.13273e-07
1.13275e-07
1.13274e-07
1.13274e-07
1.13275e-07
1.13273e-07
1.13514e-07
1.13591e-07
1.1356e-07
1.13451e-07
1.13273e-07
1.13275e-07
1.13274e-07
1.13274e-07
1.13275e-07
1.13273e-07
1.13511e-07
1.13472e-07
1.13448e-07
1.13273e-07
1.13276e-07
1.13275e-07
1.13275e-07
1.13276e-07
1.13273e-07
1.13513e-07
1.13595e-07
1.13593e-07
1.13471e-07
1.13273e-07
1.13273e-07
1.13273e-07
1.13273e-07
1.13498e-07
1.1349e-07
1.13597e-07
1.13566e-07
1.13468e-07
1.13514e-07
1.13514e-07
1.13511e-07
1.13513e-07
1.1349e-07
1.13605e-07
1.13594e-07
1.13591e-07
1.13472e-07
1.13595e-07
1.13597e-07
1.12271e-07
1.1226e-07
1.12269e-07
1.12151e-07
1.12147e-07
1.12152e-07
1.12149e-07
1.12294e-07
1.12266e-07
1.12269e-07
1.12145e-07
1.11973e-07
1.11974e-07
1.11974e-07
1.11973e-07
1.12171e-07
1.12168e-07
1.12151e-07
1.11973e-07
1.11977e-07
1.11975e-07
1.11975e-07
1.11977e-07
1.11973e-07
1.12215e-07
1.12295e-07
1.12271e-07
1.12147e-07
1.11974e-07
1.11975e-07
1.11974e-07
1.11974e-07
1.11975e-07
1.11974e-07
1.12214e-07
1.12291e-07
1.1226e-07
1.12152e-07
1.11974e-07
1.11975e-07
1.11974e-07
1.11974e-07
1.11975e-07
1.11974e-07
1.12212e-07
1.12172e-07
1.12149e-07
1.11973e-07
1.11977e-07
1.11975e-07
1.11975e-07
1.11977e-07
1.11973e-07
1.12214e-07
1.12296e-07
1.12294e-07
1.12171e-07
1.11973e-07
1.11974e-07
1.11974e-07
1.11973e-07
1.12199e-07
1.1219e-07
1.12297e-07
1.12266e-07
1.12168e-07
1.12215e-07
1.12214e-07
1.12212e-07
1.12214e-07
1.1219e-07
1.12306e-07
1.12295e-07
1.12291e-07
1.12172e-07
1.12296e-07
1.12297e-07
1.10971e-07
1.10961e-07
1.1097e-07
1.10852e-07
1.10847e-07
1.10852e-07
1.10849e-07
1.10994e-07
1.10967e-07
1.1097e-07
1.10846e-07
1.10673e-07
1.10674e-07
1.10674e-07
1.10673e-07
1.10872e-07
1.10869e-07
1.10852e-07
1.10673e-07
1.10677e-07
1.10676e-07
1.10676e-07
1.10677e-07
1.10673e-07
1.10915e-07
1.10995e-07
1.10971e-07
1.10847e-07
1.10674e-07
1.10676e-07
1.10675e-07
1.10675e-07
1.10676e-07
1.10674e-07
1.10915e-07
1.10992e-07
1.10961e-07
1.10852e-07
1.10674e-07
1.10676e-07
1.10675e-07
1.10675e-07
1.10676e-07
1.10674e-07
1.10912e-07
1.10873e-07
1.10849e-07
1.10673e-07
1.10677e-07
1.10676e-07
1.10676e-07
1.10677e-07
1.10673e-07
1.10914e-07
1.10996e-07
1.10994e-07
1.10872e-07
1.10673e-07
1.10674e-07
1.10674e-07
1.10673e-07
1.10899e-07
1.10891e-07
1.10998e-07
1.10967e-07
1.10869e-07
1.10915e-07
1.10915e-07
1.10912e-07
1.10914e-07
1.10891e-07
1.11007e-07
1.10995e-07
1.10992e-07
1.10873e-07
1.10996e-07
1.10998e-07
1.09671e-07
1.09661e-07
1.0967e-07
1.09552e-07
1.09548e-07
1.09552e-07
1.09549e-07
1.09694e-07
1.09667e-07
1.0967e-07
1.09546e-07
1.09374e-07
1.09374e-07
1.09374e-07
1.09374e-07
1.09572e-07
1.09569e-07
1.09552e-07
1.09374e-07
1.09378e-07
1.09376e-07
1.09376e-07
1.09378e-07
1.09374e-07
1.09615e-07
1.09695e-07
1.09671e-07
1.09548e-07
1.09374e-07
1.09376e-07
1.09375e-07
1.09375e-07
1.09376e-07
1.09374e-07
1.09615e-07
1.09692e-07
1.09661e-07
1.09552e-07
1.09374e-07
1.09376e-07
1.09375e-07
1.09375e-07
1.09376e-07
1.09374e-07
1.09613e-07
1.09573e-07
1.09549e-07
1.09374e-07
1.09378e-07
1.09376e-07
1.09376e-07
1.09378e-07
1.09374e-07
1.09615e-07
1.09697e-07
1.09694e-07
1.09572e-07
1.09374e-07
1.09374e-07
1.09374e-07
1.09374e-07
1.09599e-07
1.09591e-07
1.09698e-07
1.09667e-07
1.09569e-07
1.09615e-07
1.09615e-07
1.09613e-07
1.09615e-07
1.09591e-07
1.09707e-07
1.09695e-07
1.09692e-07
1.09573e-07
1.09697e-07
1.09698e-07
1.08372e-07
1.08362e-07
1.0837e-07
1.08252e-07
1.08248e-07
1.08253e-07
1.0825e-07
1.08395e-07
1.08367e-07
1.0837e-07
1.08247e-07
1.08074e-07
1.08075e-07
1.08075e-07
1.08074e-07
1.08273e-07
1.08269e-07
1.08252e-07
1.08074e-07
1.08078e-07
1.08076e-07
1.08076e-07
1.08078e-07
1.08074e-07
1.08316e-07
1.08396e-07
1.08372e-07
1.08248e-07
1.08075e-07
1.08076e-07
1.08076e-07
1.08076e-07
1.08076e-07
1.08075e-07
1.08316e-07
1.08392e-07
1.08362e-07
1.08253e-07
1.08075e-07
1.08076e-07
1.08076e-07
1.08076e-07
1.08076e-07
1.08075e-07
1.08313e-07
1.08274e-07
1.0825e-07
1.08074e-07
1.08078e-07
1.08076e-07
1.08076e-07
1.08078e-07
1.08074e-07
1.08315e-07
1.08397e-07
1.08395e-07
1.08273e-07
1.08074e-07
1.08075e-07
1.08075e-07
1.08074e-07
1.083e-07
1.08292e-07
1.08399e-07
1.08367e-07
1.08269e-07
1.08316e-07
1.08316e-07
1.08313e-07
1.08315e-07
1.08292e-07
1.08407e-07
1.08396e-07
1.08392e-07
1.08274e-07
1.08397e-07
1.08399e-07
1.07072e-07
1.07062e-07
1.07071e-07
1.06953e-07
1.06948e-07
1.06953e-07
1.0695e-07
1.07095e-07
1.07068e-07
1.07071e-07
1.06947e-07
1.06774e-07
1.06775e-07
1.06775e-07
1.06774e-07
1.06973e-07
1.0697e-07
1.06953e-07
1.06774e-07
1.06778e-07
1.06777e-07
1.06777e-07
1.06778e-07
1.06774e-07
1.07016e-07
1.07096e-07
1.07072e-07
1.06948e-07
1.06775e-07
1.06777e-07
1.06776e-07
1.06776e-07
1.06777e-07
1.06775e-07
1.07016e-07
1.07093e-07
1.07062e-07
1.06953e-07
1.06775e-07
1.06777e-07
1.06776e-07
1.06776e-07
1.06777e-07
1.06775e-07
1.07013e-07
1.06974e-07
1.0695e-07
1.06774e-07
1.06778e-07
1.06777e-07
1.06777e-07
1.06778e-07
1.06774e-07
1.07015e-07
1.07098e-07
1.07095e-07
1.06973e-07
1.06774e-07
1.06775e-07
1.06775e-07
1.06774e-07
1.07e-07
1.06992e-07
1.07099e-07
1.07068e-07
1.0697e-07
1.07016e-07
1.07016e-07
1.07013e-07
1.07015e-07
1.06992e-07
1.07108e-07
1.07096e-07
1.07093e-07
1.06974e-07
1.07098e-07
1.07099e-07
1.05772e-07
1.05762e-07
1.05771e-07
1.05653e-07
1.05649e-07
1.05653e-07
1.0565e-07
1.05795e-07
1.05768e-07
1.05771e-07
1.05647e-07
1.05475e-07
1.05475e-07
1.05475e-07
1.05475e-07
1.05673e-07
1.0567e-07
1.05653e-07
1.05475e-07
1.05479e-07
1.05477e-07
1.05477e-07
1.05479e-07
1.05475e-07
1.05716e-07
1.05796e-07
1.05772e-07
1.05649e-07
1.05475e-07
1.05477e-07
1.05476e-07
1.05476e-07
1.05477e-07
1.05475e-07
1.05716e-07
1.05793e-07
1.05762e-07
1.05653e-07
1.05475e-07
1.05477e-07
1.05476e-07
1.05476e-07
1.05477e-07
1.05475e-07
1.05714e-07
1.05674e-07
1.0565e-07
1.05475e-07
1.05479e-07
1.05477e-07
1.05477e-07
1.05479e-07
1.05475e-07
1.05716e-07
1.05798e-07
1.05795e-07
1.05673e-07
1.05475e-07
1.05475e-07
1.05475e-07
1.05475e-07
1.057e-07
1.05692e-07
1.05799e-07
1.05768e-07
1.0567e-07
1.05716e-07
1.05716e-07
1.05714e-07
1.05716e-07
1.05692e-07
1.05808e-07
1.05796e-07
1.05793e-07
1.05674e-07
1.05798e-07
1.05799e-07
1.04473e-07
1.04463e-07
1.04471e-07
1.04353e-07
1.04349e-07
1.04354e-07
1.04351e-07
1.04496e-07
1.04468e-07
1.04471e-07
1.04348e-07
1.04175e-07
1.04176e-07
1.04176e-07
1.04175e-07
1.04374e-07
1.0437e-07
1.04353e-07
1.04175e-07
1.04179e-07
1.04177e-07
1.04177e-07
1.04179e-07
1.04175e-07
1.04417e-07
1.04497e-07
1.04473e-07
1.04349e-07
1.04176e-07
1.04177e-07
1.04177e-07
1.04177e-07
1.04177e-07
1.04176e-07
1.04417e-07
1.04493e-07
1.04463e-07
1.04354e-07
1.04176e-07
1.04177e-07
1.04177e-07
1.04177e-07
1.04177e-07
1.04176e-07
1.04414e-07
1.04375e-07
1.04351e-07
1.04175e-07
1.04179e-07
1.04177e-07
1.04177e-07
1.04179e-07
1.04175e-07
1.04416e-07
1.04498e-07
1.04496e-07
1.04374e-07
1.04175e-07
1.04176e-07
1.04176e-07
1.04175e-07
1.04401e-07
1.04393e-07
1.045e-07
1.04468e-07
1.0437e-07
1.04417e-07
1.04417e-07
1.04414e-07
1.04416e-07
1.04393e-07
1.04508e-07
1.04497e-07
1.04493e-07
1.04375e-07
1.04498e-07
1.045e-07
1.03173e-07
1.03163e-07
1.03172e-07
1.03054e-07
1.03049e-07
1.03054e-07
1.03051e-07
1.03196e-07
1.03169e-07
1.03172e-07
1.03048e-07
1.02875e-07
1.02876e-07
1.02876e-07
1.02875e-07
1.03074e-07
1.03071e-07
1.03054e-07
1.02875e-07
1.02879e-07
1.02878e-07
1.02878e-07
1.02879e-07
1.02875e-07
1.03117e-07
1.03197e-07
1.03173e-07
1.03049e-07
1.02876e-07
1.02878e-07
1.02877e-07
1.02877e-07
1.02878e-07
1.02876e-07
1.03117e-07
1.03194e-07
1.03163e-07
1.03054e-07
1.02876e-07
1.02878e-07
1.02877e-07
1.02877e-07
1.02878e-07
1.02876e-07
1.03114e-07
1.03075e-07
1.03051e-07
1.02875e-07
1.02879e-07
1.02878e-07
1.02878e-07
1.02879e-07
1.02875e-07
1.03116e-07
1.03198e-07
1.03196e-07
1.03074e-07
1.02875e-07
1.02876e-07
1.02876e-07
1.02875e-07
1.03101e-07
1.03093e-07
1.032e-07
1.03169e-07
1.03071e-07
1.03117e-07
1.03117e-07
1.03114e-07
1.03116e-07
1.03093e-07
1.03209e-07
1.03197e-07
1.03194e-07
1.03075e-07
1.03198e-07
1.032e-07
1.01873e-07
1.01863e-07
1.01872e-07
1.01754e-07
1.0175e-07
1.01754e-07
1.01751e-07
1.01896e-07
1.01869e-07
1.01872e-07
1.01748e-07
1.01576e-07
1.01576e-07
1.01576e-07
1.01576e-07
1.01774e-07
1.01771e-07
1.01754e-07
1.01576e-07
1.0158e-07
1.01578e-07
1.01578e-07
1.0158e-07
1.01576e-07
1.01817e-07
1.01897e-07
1.01873e-07
1.0175e-07
1.01576e-07
1.01578e-07
1.01577e-07
1.01577e-07
1.01578e-07
1.01576e-07
1.01817e-07
1.01894e-07
1.01863e-07
1.01754e-07
1.01576e-07
1.01578e-07
1.01577e-07
1.01577e-07
1.01578e-07
1.01576e-07
1.01815e-07
1.01775e-07
1.01751e-07
1.01576e-07
1.0158e-07
1.01578e-07
1.01578e-07
1.0158e-07
1.01576e-07
1.01817e-07
1.01899e-07
1.01896e-07
1.01774e-07
1.01576e-07
1.01576e-07
1.01576e-07
1.01576e-07
1.01801e-07
1.01793e-07
1.019e-07
1.01869e-07
1.01771e-07
1.01817e-07
1.01817e-07
1.01815e-07
1.01817e-07
1.01793e-07
1.01909e-07
1.01897e-07
1.01894e-07
1.01775e-07
1.01899e-07
1.019e-07
1.00574e-07
1.00564e-07
1.00572e-07
1.00454e-07
1.0045e-07
1.00455e-07
1.00452e-07
1.00597e-07
1.00569e-07
1.00572e-07
1.00449e-07
1.00276e-07
1.00277e-07
1.00277e-07
1.00276e-07
1.00474e-07
1.00471e-07
1.00454e-07
1.00276e-07
1.0028e-07
1.00278e-07
1.00278e-07
1.0028e-07
1.00276e-07
1.00518e-07
1.00598e-07
1.00574e-07
1.0045e-07
1.00277e-07
1.00278e-07
1.00278e-07
1.00278e-07
1.00278e-07
1.00277e-07
1.00518e-07
1.00594e-07
1.00564e-07
1.00455e-07
1.00277e-07
1.00278e-07
1.00278e-07
1.00278e-07
1.00278e-07
1.00277e-07
1.00515e-07
1.00476e-07
1.00452e-07
1.00276e-07
1.0028e-07
1.00278e-07
1.00278e-07
1.0028e-07
1.00276e-07
1.00517e-07
1.00599e-07
1.00597e-07
1.00474e-07
1.00276e-07
1.00277e-07
1.00277e-07
1.00276e-07
1.00502e-07
1.00494e-07
1.00601e-07
1.00569e-07
1.00471e-07
1.00518e-07
1.00518e-07
1.00515e-07
1.00517e-07
1.00494e-07
1.00609e-07
1.00598e-07
1.00594e-07
1.00476e-07
1.00599e-07
1.00601e-07
9.92741e-08
9.92639e-08
9.92727e-08
9.91547e-08
9.91503e-08
9.91551e-08
9.91521e-08
9.9297e-08
9.92697e-08
9.92727e-08
9.91489e-08
9.89764e-08
9.8977e-08
9.8977e-08
9.89764e-08
9.91748e-08
9.91718e-08
9.91547e-08
9.89764e-08
9.89802e-08
9.89787e-08
9.89787e-08
9.89802e-08
9.89764e-08
9.9218e-08
9.9298e-08
9.9274e-08
9.91503e-08
9.8977e-08
9.89787e-08
9.89778e-08
9.89778e-08
9.89787e-08
9.8977e-08
9.92179e-08
9.92947e-08
9.92639e-08
9.91551e-08
9.8977e-08
9.89787e-08
9.89778e-08
9.89778e-08
9.89787e-08
9.8977e-08
9.92154e-08
9.91759e-08
9.91521e-08
9.89764e-08
9.89802e-08
9.89787e-08
9.89787e-08
9.89802e-08
9.89764e-08
9.92172e-08
9.92995e-08
9.9297e-08
9.91748e-08
9.89764e-08
9.8977e-08
9.8977e-08
9.89764e-08
9.9202e-08
9.91939e-08
9.93009e-08
9.92697e-08
9.91718e-08
9.9218e-08
9.92179e-08
9.92154e-08
9.92172e-08
9.91939e-08
9.93096e-08
9.9298e-08
9.92947e-08
9.91759e-08
9.92995e-08
9.93009e-08
9.79744e-08
9.79642e-08
9.79731e-08
9.78551e-08
9.78506e-08
9.78554e-08
9.78524e-08
9.79973e-08
9.797e-08
9.79731e-08
9.78492e-08
9.76768e-08
9.76773e-08
9.76773e-08
9.76768e-08
9.78752e-08
9.78721e-08
9.78551e-08
9.76768e-08
9.76806e-08
9.7679e-08
9.7679e-08
9.76806e-08
9.76768e-08
9.79183e-08
9.79984e-08
9.79744e-08
9.78506e-08
9.76773e-08
9.7679e-08
9.76782e-08
9.76782e-08
9.7679e-08
9.76773e-08
9.79182e-08
9.79951e-08
9.79642e-08
9.78554e-08
9.76773e-08
9.7679e-08
9.76782e-08
9.76782e-08
9.7679e-08
9.76773e-08
9.79158e-08
9.78762e-08
9.78524e-08
9.76768e-08
9.76806e-08
9.7679e-08
9.7679e-08
9.76806e-08
9.76768e-08
9.79176e-08
9.79998e-08
9.79973e-08
9.78752e-08
9.76768e-08
9.76773e-08
9.76773e-08
9.76768e-08
9.79024e-08
9.78943e-08
9.80012e-08
9.797e-08
9.78721e-08
9.79183e-08
9.79182e-08
9.79158e-08
9.79176e-08
9.78943e-08
9.80099e-08
9.79984e-08
9.79951e-08
9.78762e-08
9.79998e-08
9.80012e-08
9.66747e-08
9.66645e-08
9.66734e-08
9.65554e-08
9.65509e-08
9.65558e-08
9.65527e-08
9.66977e-08
9.66703e-08
9.66734e-08
9.65496e-08
9.63771e-08
9.63777e-08
9.63777e-08
9.63771e-08
9.65755e-08
9.65724e-08
9.65554e-08
9.63771e-08
9.63809e-08
9.63794e-08
9.63794e-08
9.63809e-08
9.63771e-08
9.66187e-08
9.66987e-08
9.66747e-08
9.65509e-08
9.63777e-08
9.63794e-08
9.63785e-08
9.63785e-08
9.63794e-08
9.63777e-08
9.66185e-08
9.66954e-08
9.66645e-08
9.65558e-08
9.63777e-08
9.63794e-08
9.63785e-08
9.63785e-08
9.63794e-08
9.63777e-08
9.66161e-08
9.65765e-08
9.65527e-08
9.63771e-08
9.63809e-08
9.63794e-08
9.63794e-08
9.63809e-08
9.63771e-08
9.66179e-08
9.67001e-08
9.66977e-08
9.65755e-08
9.63771e-08
9.63777e-08
9.63777e-08
9.63771e-08
9.66027e-08
9.65946e-08
9.67016e-08
9.66703e-08
9.65724e-08
9.66187e-08
9.66186e-08
9.66161e-08
9.66179e-08
9.65946e-08
9.67102e-08
9.66987e-08
9.66954e-08
9.65765e-08
9.67001e-08
9.67016e-08
9.53751e-08
9.53649e-08
9.53737e-08
9.52557e-08
9.52513e-08
9.52561e-08
9.52531e-08
9.5398e-08
9.53707e-08
9.53737e-08
9.52499e-08
9.50774e-08
9.5078e-08
9.5078e-08
9.50774e-08
9.52758e-08
9.52728e-08
9.52557e-08
9.50775e-08
9.50812e-08
9.50797e-08
9.50797e-08
9.50812e-08
9.50774e-08
9.5319e-08
9.5399e-08
9.5375e-08
9.52513e-08
9.5078e-08
9.50797e-08
9.50789e-08
9.50789e-08
9.50797e-08
9.5078e-08
9.53189e-08
9.53957e-08
9.53649e-08
9.52561e-08
9.5078e-08
9.50797e-08
9.50789e-08
9.50789e-08
9.50797e-08
9.5078e-08
9.53164e-08
9.52769e-08
9.52531e-08
9.50775e-08
9.50812e-08
9.50797e-08
9.50797e-08
9.50812e-08
9.50775e-08
9.53182e-08
9.54005e-08
9.5398e-08
9.52758e-08
9.50774e-08
9.5078e-08
9.5078e-08
9.50775e-08
9.53031e-08
9.52949e-08
9.54019e-08
9.53707e-08
9.52728e-08
9.5319e-08
9.53189e-08
9.53164e-08
9.53182e-08
9.52949e-08
9.54106e-08
9.5399e-08
9.53957e-08
9.52769e-08
9.54005e-08
9.54019e-08
9.40754e-08
9.40653e-08
9.40741e-08
9.39561e-08
9.39516e-08
9.39565e-08
9.39535e-08
9.40984e-08
9.40711e-08
9.40741e-08
9.39503e-08
9.37778e-08
9.37784e-08
9.37784e-08
9.37778e-08
9.39762e-08
9.39732e-08
9.39561e-08
9.37778e-08
9.37816e-08
9.37801e-08
9.37801e-08
9.37816e-08
9.37778e-08
9.40194e-08
9.40994e-08
9.40754e-08
9.39516e-08
9.37784e-08
9.37801e-08
9.37792e-08
9.37792e-08
9.37801e-08
9.37784e-08
9.40193e-08
9.40961e-08
9.40652e-08
9.39565e-08
9.37784e-08
9.37801e-08
9.37792e-08
9.37792e-08
9.37801e-08
9.37784e-08
9.40168e-08
9.39773e-08
9.39535e-08
9.37778e-08
9.37816e-08
9.37801e-08
9.37801e-08
9.37816e-08
9.37778e-08
9.40186e-08
9.41008e-08
9.40984e-08
9.39762e-08
9.37778e-08
9.37784e-08
9.37784e-08
9.37778e-08
9.40034e-08
9.39953e-08
9.41023e-08
9.40711e-08
9.39732e-08
9.40194e-08
9.40193e-08
9.40168e-08
9.40186e-08
9.39953e-08
9.4111e-08
9.40994e-08
9.40961e-08
9.39773e-08
9.41009e-08
9.41023e-08
9.27758e-08
9.27656e-08
9.27745e-08
9.26565e-08
9.2652e-08
9.26569e-08
9.26538e-08
9.27988e-08
9.27714e-08
9.27745e-08
9.26507e-08
9.24782e-08
9.24788e-08
9.24788e-08
9.24782e-08
9.26766e-08
9.26735e-08
9.26565e-08
9.24782e-08
9.2482e-08
9.24804e-08
9.24804e-08
9.2482e-08
9.24782e-08
9.27198e-08
9.27998e-08
9.27758e-08
9.2652e-08
9.24788e-08
9.24804e-08
9.24796e-08
9.24796e-08
9.24804e-08
9.24788e-08
9.27196e-08
9.27965e-08
9.27656e-08
9.26569e-08
9.24788e-08
9.24804e-08
9.24796e-08
9.24796e-08
9.24804e-08
9.24788e-08
9.27172e-08
9.26777e-08
9.26538e-08
9.24782e-08
9.2482e-08
9.24804e-08
9.24804e-08
9.2482e-08
9.24782e-08
9.2719e-08
9.28012e-08
9.27988e-08
9.26766e-08
9.24782e-08
9.24788e-08
9.24788e-08
9.24782e-08
9.27038e-08
9.26957e-08
9.28027e-08
9.27714e-08
9.26735e-08
9.27198e-08
9.27197e-08
9.27172e-08
9.2719e-08
9.26957e-08
9.28113e-08
9.27998e-08
9.27965e-08
9.26777e-08
9.28012e-08
9.28027e-08
9.14761e-08
9.1466e-08
9.14748e-08
9.13568e-08
9.13524e-08
9.13572e-08
9.13542e-08
9.14991e-08
9.14718e-08
9.14748e-08
9.1351e-08
9.11785e-08
9.11791e-08
9.11791e-08
9.11785e-08
9.13769e-08
9.13739e-08
9.13568e-08
9.11785e-08
9.11823e-08
9.11808e-08
9.11808e-08
9.11823e-08
9.11785e-08
9.14201e-08
9.15001e-08
9.14761e-08
9.13524e-08
9.11791e-08
9.11808e-08
9.11799e-08
9.11799e-08
9.11808e-08
9.11791e-08
9.142e-08
9.14968e-08
9.1466e-08
9.13572e-08
9.11791e-08
9.11808e-08
9.11799e-08
9.11799e-08
9.11808e-08
9.11791e-08
9.14175e-08
9.1378e-08
9.13542e-08
9.11785e-08
9.11823e-08
9.11808e-08
9.11808e-08
9.11823e-08
9.11785e-08
9.14193e-08
9.15016e-08
9.14991e-08
9.13769e-08
9.11785e-08
9.11791e-08
9.11791e-08
9.11785e-08
9.14041e-08
9.1396e-08
9.1503e-08
9.14718e-08
9.13739e-08
9.14201e-08
9.142e-08
9.14175e-08
9.14193e-08
9.1396e-08
9.15117e-08
9.15001e-08
9.14968e-08
9.1378e-08
9.15016e-08
9.1503e-08
9.01764e-08
9.01663e-08
9.01751e-08
9.00571e-08
9.00526e-08
9.00575e-08
9.00545e-08
9.01994e-08
9.01721e-08
9.01751e-08
9.00513e-08
8.98788e-08
8.98794e-08
8.98794e-08
8.98788e-08
9.00772e-08
9.00742e-08
9.00571e-08
8.98788e-08
8.98826e-08
8.98811e-08
8.98811e-08
8.98826e-08
8.98788e-08
9.01204e-08
9.02004e-08
9.01764e-08
9.00526e-08
8.98794e-08
8.98811e-08
8.98802e-08
8.98802e-08
8.98811e-08
8.98794e-08
9.01203e-08
9.01971e-08
9.01663e-08
9.00575e-08
8.98794e-08
8.98811e-08
8.98802e-08
8.98802e-08
8.98811e-08
8.98794e-08
9.01178e-08
9.00783e-08
9.00545e-08
8.98788e-08
8.98826e-08
8.98811e-08
8.98811e-08
8.98826e-08
8.98788e-08
9.01196e-08
9.02019e-08
9.01994e-08
9.00772e-08
8.98788e-08
8.98794e-08
8.98794e-08
8.98788e-08
9.01044e-08
9.00963e-08
9.02033e-08
9.01721e-08
9.00742e-08
9.01204e-08
9.01203e-08
9.01178e-08
9.01196e-08
9.00963e-08
9.0212e-08
9.02004e-08
9.01971e-08
9.00783e-08
9.02019e-08
9.02033e-08
8.88768e-08
8.88666e-08
8.88754e-08
8.87574e-08
8.8753e-08
8.87578e-08
8.87548e-08
8.88997e-08
8.88724e-08
8.88754e-08
8.87516e-08
8.85791e-08
8.85797e-08
8.85797e-08
8.85791e-08
8.87776e-08
8.87745e-08
8.87575e-08
8.85791e-08
8.85829e-08
8.85814e-08
8.85814e-08
8.85829e-08
8.85791e-08
8.88207e-08
8.89007e-08
8.88768e-08
8.8753e-08
8.85797e-08
8.85814e-08
8.85806e-08
8.85806e-08
8.85814e-08
8.85797e-08
8.88206e-08
8.88975e-08
8.88666e-08
8.87578e-08
8.85797e-08
8.85814e-08
8.85806e-08
8.85806e-08
8.85814e-08
8.85797e-08
8.88181e-08
8.87786e-08
8.87548e-08
8.85791e-08
8.85829e-08
8.85814e-08
8.85814e-08
8.85829e-08
8.85791e-08
8.88199e-08
8.89022e-08
8.88997e-08
8.87775e-08
8.85791e-08
8.85797e-08
8.85797e-08
8.85791e-08
8.88048e-08
8.87966e-08
8.89036e-08
8.88724e-08
8.87745e-08
8.88207e-08
8.88206e-08
8.88181e-08
8.88199e-08
8.87966e-08
8.89123e-08
8.89008e-08
8.88975e-08
8.87786e-08
8.89022e-08
8.89036e-08
8.75771e-08
8.75669e-08
8.75758e-08
8.74578e-08
8.74533e-08
8.74581e-08
8.74551e-08
8.76001e-08
8.75727e-08
8.75758e-08
8.7452e-08
8.72795e-08
8.728e-08
8.728e-08
8.72795e-08
8.74779e-08
8.74748e-08
8.74578e-08
8.72795e-08
8.72833e-08
8.72817e-08
8.72817e-08
8.72833e-08
8.72795e-08
8.75211e-08
8.76011e-08
8.75771e-08
8.74533e-08
8.728e-08
8.72817e-08
8.72809e-08
8.72809e-08
8.72817e-08
8.728e-08
8.75209e-08
8.75978e-08
8.75669e-08
8.74581e-08
8.728e-08
8.72817e-08
8.72809e-08
8.72809e-08
8.72817e-08
8.728e-08
8.75185e-08
8.74789e-08
8.74551e-08
8.72795e-08
8.72833e-08
8.72817e-08
8.72817e-08
8.72833e-08
8.72795e-08
8.75203e-08
8.76025e-08
8.76e-08
8.74779e-08
8.72795e-08
8.728e-08
8.728e-08
8.72795e-08
8.75051e-08
8.7497e-08
8.76039e-08
8.75727e-08
8.74748e-08
8.75211e-08
8.75209e-08
8.75185e-08
8.75203e-08
8.7497e-08
8.76126e-08
8.76011e-08
8.75978e-08
8.74789e-08
8.76025e-08
8.7604e-08
8.62774e-08
8.62673e-08
8.62761e-08
8.61581e-08
8.61536e-08
8.61585e-08
8.61555e-08
8.63004e-08
8.6273e-08
8.62761e-08
8.61523e-08
8.59798e-08
8.59804e-08
8.59804e-08
8.59798e-08
8.61782e-08
8.61751e-08
8.61581e-08
8.59798e-08
8.59836e-08
8.59821e-08
8.59821e-08
8.59836e-08
8.59798e-08
8.62214e-08
8.63014e-08
8.62774e-08
8.61536e-08
8.59804e-08
8.59821e-08
8.59812e-08
8.59812e-08
8.59821e-08
8.59804e-08
8.62213e-08
8.62981e-08
8.62672e-08
8.61585e-08
8.59804e-08
8.59821e-08
8.59812e-08
8.59812e-08
8.59821e-08
8.59804e-08
8.62188e-08
8.61793e-08
8.61555e-08
8.59798e-08
8.59836e-08
8.59821e-08
8.59821e-08
8.59836e-08
8.59798e-08
8.62206e-08
8.63028e-08
8.63004e-08
8.61782e-08
8.59798e-08
8.59804e-08
8.59804e-08
8.59798e-08
8.62054e-08
8.61973e-08
8.63043e-08
8.6273e-08
8.61751e-08
8.62214e-08
8.62213e-08
8.62188e-08
8.62206e-08
8.61973e-08
8.6313e-08
8.63014e-08
8.62981e-08
8.61793e-08
8.63028e-08
8.63043e-08
8.49778e-08
8.49676e-08
8.49764e-08
8.48584e-08
8.4854e-08
8.48588e-08
8.48558e-08
8.50007e-08
8.49734e-08
8.49764e-08
8.48526e-08
8.46801e-08
8.46807e-08
8.46807e-08
8.46801e-08
8.48785e-08
8.48755e-08
8.48584e-08
8.46801e-08
8.46839e-08
8.46824e-08
8.46824e-08
8.46839e-08
8.46801e-08
8.49217e-08
8.50017e-08
8.49777e-08
8.4854e-08
8.46807e-08
8.46824e-08
8.46816e-08
8.46816e-08
8.46824e-08
8.46807e-08
8.49216e-08
8.49984e-08
8.49676e-08
8.48588e-08
8.46807e-08
8.46824e-08
8.46816e-08
8.46816e-08
8.46824e-08
8.46807e-08
8.49191e-08
8.48796e-08
8.48558e-08
8.46801e-08
8.46839e-08
8.46824e-08
8.46824e-08
8.46839e-08
8.46801e-08
8.49209e-08
8.50032e-08
8.50007e-08
8.48785e-08
8.46801e-08
8.46807e-08
8.46807e-08
8.46801e-08
8.49058e-08
8.48976e-08
8.50046e-08
8.49734e-08
8.48755e-08
8.49217e-08
8.49216e-08
8.49191e-08
8.49209e-08
8.48976e-08
8.50133e-08
8.50018e-08
8.49984e-08
8.48796e-08
8.50032e-08
8.50046e-08
8.36781e-08
8.36679e-08
8.36768e-08
8.35588e-08
8.35543e-08
8.35592e-08
8.35561e-08
8.37011e-08
8.36737e-08
8.36768e-08
8.3553e-08
8.33805e-08
8.33811e-08
8.33811e-08
8.33805e-08
8.35789e-08
8.35758e-08
8.35588e-08
8.33805e-08
8.33843e-08
8.33828e-08
8.33828e-08
8.33843e-08
8.33805e-08
8.36221e-08
8.37021e-08
8.36781e-08
8.35543e-08
8.33811e-08
8.33828e-08
8.33819e-08
8.33819e-08
8.33828e-08
8.33811e-08
8.36219e-08
8.36988e-08
8.36679e-08
8.35592e-08
8.33811e-08
8.33828e-08
8.33819e-08
8.33819e-08
8.33828e-08
8.33811e-08
8.36195e-08
8.358e-08
8.35561e-08
8.33805e-08
8.33843e-08
8.33828e-08
8.33828e-08
8.33843e-08
8.33805e-08
8.36213e-08
8.37035e-08
8.37011e-08
8.35789e-08
8.33805e-08
8.33811e-08
8.33811e-08
8.33805e-08
8.36061e-08
8.3598e-08
8.3705e-08
8.36737e-08
8.35758e-08
8.36221e-08
8.3622e-08
8.36195e-08
8.36213e-08
8.3598e-08
8.37136e-08
8.37021e-08
8.36988e-08
8.358e-08
8.37035e-08
8.3705e-08
8.23785e-08
8.23683e-08
8.23771e-08
8.22591e-08
8.22547e-08
8.22595e-08
8.22565e-08
8.24014e-08
8.23741e-08
8.23771e-08
8.22533e-08
8.20808e-08
8.20814e-08
8.20814e-08
8.20808e-08
8.22792e-08
8.22762e-08
8.22591e-08
8.20808e-08
8.20846e-08
8.20831e-08
8.20831e-08
8.20846e-08
8.20808e-08
8.23224e-08
8.24024e-08
8.23785e-08
8.22547e-08
8.20814e-08
8.20831e-08
8.20823e-08
8.20823e-08
8.20831e-08
8.20814e-08
8.23223e-08
8.23991e-08
8.23683e-08
8.22595e-08
8.20814e-08
8.20831e-08
8.20823e-08
8.20823e-08
8.20831e-08
8.20814e-08
8.23198e-08
8.22803e-08
8.22565e-08
8.20808e-08
8.20846e-08
8.20831e-08
8.20831e-08
8.20846e-08
8.20808e-08
8.23216e-08
8.24039e-08
8.24014e-08
8.22792e-08
8.20808e-08
8.20814e-08
8.20814e-08
8.20808e-08