/*--------------------------------*- C++ -*----------------------------------*\
| =========                 |                                                 |
| \\      /  F ield         | OpenFOAM: The Open Source CFD Toolbox           |
|  \\    /   O peration     | Version:                                        |
|   \\  /    A nd           | Website:  www.openfoam.com                      |
|    \\/     M anipulation  |                                                 |
\*---------------------------------------------------------------------------*/
FoamFile
{
    version     2.0;
    format      ascii;
    class       volScalarField;
    location    "34600.5";
    object      p;
}
// * * * * * * * * * * * * * * * * * * * * * * * * * * * * * * * * * * * * * //

dimensions      [0 2 -2 0 0 0 0];


internalField   nonuniform List<scalar> 
247096
(
1.08763e-07
1.08766e-07
1.08909e-07
1.08996e-07
1.09028e-07
1.08987e-07
1.08896e-07
1.08742e-07
1.08766e-07
1.08964e-07
1.09141e-07
1.09234e-07
1.09257e-07
1.09227e-07
1.09123e-07
1.0894e-07
1.08909e-07
1.09141e-07
1.09282e-07
1.09323e-07
1.0933e-07
1.09321e-07
1.09271e-07
1.09114e-07
1.08882e-07
1.08996e-07
1.09234e-07
1.09323e-07
1.09335e-07
1.09334e-07
1.09335e-07
1.09319e-07
1.09212e-07
1.08963e-07
1.08763e-07
1.09028e-07
1.09257e-07
1.0933e-07
1.09334e-07
1.0933e-07
1.09334e-07
1.09327e-07
1.09237e-07
1.08994e-07
1.08987e-07
1.09227e-07
1.09321e-07
1.09335e-07
1.09334e-07
1.09335e-07
1.09316e-07
1.09204e-07
1.08954e-07
1.08896e-07
1.09123e-07
1.09271e-07
1.09319e-07
1.09327e-07
1.09316e-07
1.09259e-07
1.09095e-07
1.0887e-07
1.08742e-07
1.0894e-07
1.09114e-07
1.09212e-07
1.09237e-07
1.09204e-07
1.09095e-07
1.08918e-07
1.08882e-07
1.08963e-07
1.08994e-07
1.08954e-07
1.0887e-07
1.0595e-07
1.05925e-07
1.05934e-07
1.05785e-07
1.05798e-07
1.05817e-07
1.05797e-07
1.05983e-07
1.05921e-07
1.05934e-07
1.05805e-07
1.05602e-07
1.05619e-07
1.05619e-07
1.05602e-07
1.05863e-07
1.05809e-07
1.05785e-07
1.05602e-07
1.05639e-07
1.0566e-07
1.0566e-07
1.05639e-07
1.05602e-07
1.05926e-07
1.05972e-07
1.0595e-07
1.05798e-07
1.05619e-07
1.0566e-07
1.05684e-07
1.05684e-07
1.0566e-07
1.05619e-07
1.05954e-07
1.0599e-07
1.05925e-07
1.05817e-07
1.05619e-07
1.0566e-07
1.05684e-07
1.05684e-07
1.0566e-07
1.05619e-07
1.05956e-07
1.05813e-07
1.05797e-07
1.05602e-07
1.05639e-07
1.0566e-07
1.0566e-07
1.05639e-07
1.05602e-07
1.0595e-07
1.05999e-07
1.05983e-07
1.05863e-07
1.05602e-07
1.05619e-07
1.05619e-07
1.05602e-07
1.05944e-07
1.05868e-07
1.05982e-07
1.05921e-07
1.05809e-07
1.05926e-07
1.05954e-07
1.05956e-07
1.0595e-07
1.05868e-07
1.05992e-07
1.05972e-07
1.0599e-07
1.05813e-07
1.05999e-07
1.05982e-07
1.04172e-07
1.04164e-07
1.04172e-07
1.04042e-07
1.04041e-07
1.04051e-07
1.04043e-07
1.04206e-07
1.04163e-07
1.04172e-07
1.04036e-07
1.03803e-07
1.03811e-07
1.03811e-07
1.03803e-07
1.0406e-07
1.04054e-07
1.04042e-07
1.03803e-07
1.03823e-07
1.03834e-07
1.03834e-07
1.03823e-07
1.03803e-07
1.04104e-07
1.04196e-07
1.04172e-07
1.04041e-07
1.03811e-07
1.03834e-07
1.03847e-07
1.03847e-07
1.03834e-07
1.03811e-07
1.04109e-07
1.04194e-07
1.04164e-07
1.04051e-07
1.03811e-07
1.03834e-07
1.03847e-07
1.03847e-07
1.03834e-07
1.03811e-07
1.04107e-07
1.04061e-07
1.04043e-07
1.03803e-07
1.03823e-07
1.03834e-07
1.03834e-07
1.03823e-07
1.03803e-07
1.04111e-07
1.04202e-07
1.04206e-07
1.0406e-07
1.03803e-07
1.03811e-07
1.03811e-07
1.03803e-07
1.04092e-07
1.04083e-07
1.04207e-07
1.04163e-07
1.04054e-07
1.04104e-07
1.04109e-07
1.04107e-07
1.04111e-07
1.04083e-07
1.04209e-07
1.04196e-07
1.04194e-07
1.04061e-07
1.04202e-07
1.04207e-07
1.02572e-07
1.02563e-07
1.02572e-07
1.02448e-07
1.02447e-07
1.02455e-07
1.02449e-07
1.02603e-07
1.02565e-07
1.02572e-07
1.02444e-07
1.02236e-07
1.02242e-07
1.02242e-07
1.02236e-07
1.02468e-07
1.02462e-07
1.02448e-07
1.02236e-07
1.02248e-07
1.02254e-07
1.02254e-07
1.02248e-07
1.02236e-07
1.02509e-07
1.02596e-07
1.02572e-07
1.02447e-07
1.02242e-07
1.02254e-07
1.02261e-07
1.02261e-07
1.02254e-07
1.02242e-07
1.02513e-07
1.02594e-07
1.02564e-07
1.02455e-07
1.02242e-07
1.02254e-07
1.02261e-07
1.02261e-07
1.02254e-07
1.02242e-07
1.02512e-07
1.02467e-07
1.02449e-07
1.02236e-07
1.02248e-07
1.02254e-07
1.02254e-07
1.02248e-07
1.02236e-07
1.02515e-07
1.02601e-07
1.02603e-07
1.02468e-07
1.02236e-07
1.02242e-07
1.02242e-07
1.02236e-07
1.02497e-07
1.02488e-07
1.02604e-07
1.02565e-07
1.02462e-07
1.02509e-07
1.02513e-07
1.02512e-07
1.02515e-07
1.02488e-07
1.02608e-07
1.02596e-07
1.02594e-07
1.02467e-07
1.02601e-07
1.02604e-07
1.01111e-07
1.01102e-07
1.0111e-07
1.00992e-07
1.0099e-07
1.00997e-07
1.00992e-07
1.01138e-07
1.01105e-07
1.0111e-07
1.00988e-07
1.00797e-07
1.008e-07
1.008e-07
1.00797e-07
1.01011e-07
1.01006e-07
1.00992e-07
1.00797e-07
1.00804e-07
1.00807e-07
1.00807e-07
1.00804e-07
1.00797e-07
1.0105e-07
1.01133e-07
1.01111e-07
1.0099e-07
1.008e-07
1.00807e-07
1.00812e-07
1.00812e-07
1.00807e-07
1.008e-07
1.01052e-07
1.01132e-07
1.01102e-07
1.00997e-07
1.008e-07
1.00807e-07
1.00812e-07
1.00812e-07
1.00807e-07
1.008e-07
1.01051e-07
1.01011e-07
1.00992e-07
1.00797e-07
1.00804e-07
1.00807e-07
1.00807e-07
1.00804e-07
1.00797e-07
1.01054e-07
1.01137e-07
1.01138e-07
1.01011e-07
1.00797e-07
1.008e-07
1.008e-07
1.00797e-07
1.01038e-07
1.0103e-07
1.0114e-07
1.01105e-07
1.01006e-07
1.0105e-07
1.01052e-07
1.01051e-07
1.01054e-07
1.01031e-07
1.01145e-07
1.01133e-07
1.01131e-07
1.01011e-07
1.01137e-07
1.0114e-07
9.97445e-08
9.97359e-08
9.97439e-08
9.96308e-08
9.96283e-08
9.96344e-08
9.96303e-08
9.97695e-08
9.97392e-08
9.97439e-08
9.9626e-08
9.94459e-08
9.94481e-08
9.94481e-08
9.94459e-08
9.96488e-08
9.96451e-08
9.96308e-08
9.94459e-08
9.94511e-08
9.94528e-08
9.94528e-08
9.94511e-08
9.94459e-08
9.96863e-08
9.97668e-08
9.97445e-08
9.96283e-08
9.94481e-08
9.94528e-08
9.94554e-08
9.94554e-08
9.94528e-08
9.94481e-08
9.96876e-08
9.97648e-08
9.97359e-08
9.96344e-08
9.94481e-08
9.94528e-08
9.94554e-08
9.94554e-08
9.94528e-08
9.94481e-08
9.9686e-08
9.96494e-08
9.96303e-08
9.94459e-08
9.94511e-08
9.94528e-08
9.94528e-08
9.94511e-08
9.94459e-08
9.96891e-08
9.97701e-08
9.97695e-08
9.96488e-08
9.94459e-08
9.94481e-08
9.94481e-08
9.94459e-08
9.96738e-08
9.96676e-08
9.97718e-08
9.97392e-08
9.96451e-08
9.96863e-08
9.96876e-08
9.9686e-08
9.96892e-08
9.96677e-08
9.97771e-08
9.97668e-08
9.97648e-08
9.96494e-08
9.97701e-08
9.97718e-08
9.8446e-08
9.84375e-08
9.84451e-08
9.83358e-08
9.83329e-08
9.83383e-08
9.83348e-08
9.84694e-08
9.84409e-08
9.84452e-08
9.83306e-08
9.81586e-08
9.81603e-08
9.81603e-08
9.81586e-08
9.83529e-08
9.835e-08
9.83358e-08
9.81586e-08
9.81625e-08
9.81636e-08
9.81636e-08
9.81625e-08
9.81586e-08
9.83897e-08
9.84678e-08
9.8446e-08
9.83329e-08
9.81603e-08
9.81636e-08
9.81653e-08
9.81653e-08
9.81636e-08
9.81603e-08
9.83905e-08
9.84659e-08
9.84375e-08
9.83383e-08
9.81603e-08
9.81636e-08
9.81653e-08
9.81653e-08
9.81636e-08
9.81603e-08
9.83888e-08
9.83541e-08
9.83348e-08
9.81586e-08
9.81625e-08
9.81636e-08
9.81636e-08
9.81625e-08
9.81586e-08
9.83918e-08
9.84708e-08
9.84694e-08
9.83529e-08
9.81586e-08
9.81603e-08
9.81603e-08
9.81586e-08
9.83769e-08
9.83714e-08
9.84719e-08
9.8441e-08
9.83501e-08
9.83897e-08
9.83905e-08
9.83888e-08
9.83918e-08
9.83715e-08
9.84775e-08
9.84678e-08
9.84659e-08
9.83541e-08
9.84708e-08
9.84719e-08
9.72001e-08
9.71918e-08
9.71991e-08
9.70927e-08
9.70894e-08
9.70943e-08
9.70913e-08
9.72223e-08
9.71953e-08
9.71991e-08
9.70871e-08
9.69218e-08
9.6923e-08
9.6923e-08
9.69218e-08
9.7109e-08
9.71068e-08
9.70927e-08
9.69218e-08
9.69249e-08
9.69255e-08
9.69255e-08
9.69249e-08
9.69218e-08
9.71452e-08
9.72215e-08
9.72001e-08
9.70894e-08
9.6923e-08
9.69255e-08
9.69267e-08
9.69267e-08
9.69255e-08
9.6923e-08
9.71457e-08
9.72196e-08
9.71918e-08
9.70943e-08
9.6923e-08
9.69255e-08
9.69267e-08
9.69267e-08
9.69255e-08
9.6923e-08
9.71439e-08
9.71107e-08
9.70913e-08
9.69218e-08
9.69249e-08
9.69255e-08
9.69255e-08
9.69249e-08
9.69218e-08
9.71467e-08
9.72242e-08
9.72223e-08
9.7109e-08
9.69218e-08
9.6923e-08
9.6923e-08
9.69218e-08
9.71322e-08
9.71272e-08
9.7225e-08
9.71953e-08
9.71068e-08
9.71452e-08
9.71457e-08
9.71439e-08
9.71467e-08
9.71272e-08
9.72308e-08
9.72216e-08
9.72196e-08
9.71107e-08
9.72242e-08
9.7225e-08
9.59986e-08
9.59903e-08
9.59975e-08
9.58933e-08
9.58897e-08
9.58942e-08
9.58915e-08
9.60198e-08
9.59941e-08
9.59975e-08
9.58874e-08
9.5728e-08
9.57289e-08
9.57289e-08
9.5728e-08
9.5909e-08
9.59074e-08
9.58933e-08
9.5728e-08
9.57307e-08
9.57309e-08
9.57309e-08
9.57307e-08
9.5728e-08
9.59451e-08
9.60197e-08
9.59986e-08
9.58897e-08
9.57289e-08
9.57309e-08
9.57316e-08
9.57316e-08
9.57309e-08
9.57289e-08
9.59451e-08
9.60178e-08
9.59903e-08
9.58942e-08
9.57289e-08
9.57309e-08
9.57316e-08
9.57316e-08
9.57309e-08
9.57289e-08
9.59434e-08
9.59111e-08
9.58915e-08
9.5728e-08
9.57307e-08
9.57309e-08
9.57309e-08
9.57307e-08
9.5728e-08
9.59458e-08
9.60222e-08
9.60198e-08
9.5909e-08
9.5728e-08
9.57289e-08
9.57289e-08
9.5728e-08
9.59318e-08
9.59269e-08
9.60227e-08
9.59941e-08
9.59074e-08
9.59451e-08
9.59451e-08
9.59434e-08
9.59458e-08
9.5927e-08
9.60287e-08
9.60198e-08
9.60178e-08
9.59111e-08
9.60222e-08
9.60227e-08
9.4833e-08
9.48247e-08
9.48318e-08
9.47293e-08
9.47255e-08
9.47296e-08
9.47271e-08
9.48535e-08
9.48288e-08
9.48318e-08
9.47232e-08
9.45685e-08
9.45692e-08
9.45692e-08
9.45685e-08
9.47448e-08
9.47434e-08
9.47293e-08
9.45685e-08
9.4571e-08
9.45708e-08
9.45708e-08
9.4571e-08
9.45685e-08
9.47808e-08
9.4854e-08
9.48329e-08
9.47255e-08
9.45692e-08
9.45708e-08
9.45711e-08
9.45711e-08
9.45708e-08
9.45692e-08
9.47806e-08
9.48521e-08
9.48247e-08
9.47296e-08
9.45692e-08
9.45708e-08
9.45711e-08
9.45711e-08
9.45708e-08
9.45692e-08
9.47787e-08
9.4747e-08
9.47271e-08
9.45684e-08
9.4571e-08
9.45708e-08
9.45708e-08
9.4571e-08
9.45684e-08
9.4781e-08
9.48561e-08
9.48535e-08
9.47448e-08
9.45684e-08
9.45691e-08
9.45691e-08
9.45684e-08
9.47673e-08
9.47623e-08
9.48565e-08
9.48288e-08
9.47434e-08
9.47808e-08
9.47806e-08
9.47787e-08
9.4781e-08
9.47624e-08
9.48628e-08
9.4854e-08
9.4852e-08
9.47469e-08
9.48561e-08
9.48565e-08
9.36928e-08
9.36845e-08
9.36916e-08
9.35902e-08
9.35862e-08
9.35901e-08
9.35878e-08
9.37128e-08
9.36887e-08
9.36915e-08
9.35839e-08
9.34324e-08
9.3433e-08
9.3433e-08
9.34324e-08
9.36056e-08
9.36044e-08
9.35902e-08
9.34324e-08
9.34349e-08
9.34344e-08
9.34344e-08
9.34349e-08
9.34324e-08
9.36418e-08
9.37137e-08
9.36927e-08
9.35862e-08
9.3433e-08
9.34344e-08
9.34344e-08
9.34344e-08
9.34344e-08
9.3433e-08
9.36414e-08
9.37118e-08
9.36844e-08
9.359e-08
9.3433e-08
9.34344e-08
9.34344e-08
9.34344e-08
9.34344e-08
9.3433e-08
9.36395e-08
9.36078e-08
9.35878e-08
9.34324e-08
9.34349e-08
9.34344e-08
9.34344e-08
9.34349e-08
9.34324e-08
9.36414e-08
9.37157e-08
9.37128e-08
9.36056e-08
9.34324e-08
9.3433e-08
9.3433e-08
9.34324e-08
9.36281e-08
9.36229e-08
9.37159e-08
9.36887e-08
9.36042e-08
9.36417e-08
9.36413e-08
9.36394e-08
9.36414e-08
9.36229e-08
9.37225e-08
9.37137e-08
9.37117e-08
9.36077e-08
9.37157e-08
9.37159e-08
9.25679e-08
9.25596e-08
9.25668e-08
9.2466e-08
9.24619e-08
9.24656e-08
9.24634e-08
9.25879e-08
9.25641e-08
9.25665e-08
9.24595e-08
9.23099e-08
9.23104e-08
9.23104e-08
9.23099e-08
9.24814e-08
9.24794e-08
9.24658e-08
9.23098e-08
9.23125e-08
9.23116e-08
9.23116e-08
9.23125e-08
9.23098e-08
9.25175e-08
9.25887e-08
9.25678e-08
9.24618e-08
9.23103e-08
9.23116e-08
9.23114e-08
9.23114e-08
9.23116e-08
9.23104e-08
9.25171e-08
9.25868e-08
9.25595e-08
9.24655e-08
9.23103e-08
9.23116e-08
9.23113e-08
9.23113e-08
9.23116e-08
9.23104e-08
9.25152e-08
9.24834e-08
9.24633e-08
9.23098e-08
9.23124e-08
9.23116e-08
9.23116e-08
9.23124e-08
9.23099e-08
9.2517e-08
9.25907e-08
9.25878e-08
9.24813e-08
9.23098e-08
9.23103e-08
9.23103e-08
9.23098e-08
9.25037e-08
9.24987e-08
9.25909e-08
9.2564e-08
9.24794e-08
9.25174e-08
9.2517e-08
9.25151e-08
9.25168e-08
9.24982e-08
9.25975e-08
9.25886e-08
9.25867e-08
9.24833e-08
9.25906e-08
9.25906e-08
9.14508e-08
9.14425e-08
9.14496e-08
9.13492e-08
9.1345e-08
9.13487e-08
9.13465e-08
9.14706e-08
9.1447e-08
9.14493e-08
9.13427e-08
9.11939e-08
9.11943e-08
9.11943e-08
9.11939e-08
9.13645e-08
9.13627e-08
9.1349e-08
9.11938e-08
9.11966e-08
9.11955e-08
9.11956e-08
9.11966e-08
9.11938e-08
9.14008e-08
9.14716e-08
9.14506e-08
9.13449e-08
9.11943e-08
9.11955e-08
9.11951e-08
9.11951e-08
9.11955e-08
9.11943e-08
9.14004e-08
9.14697e-08
9.14423e-08
9.13486e-08
9.11943e-08
9.11955e-08
9.11951e-08
9.11951e-08
9.11955e-08
9.11943e-08
9.13984e-08
9.13666e-08
9.13464e-08
9.11938e-08
9.11965e-08
9.11955e-08
9.11955e-08
9.11965e-08
9.11938e-08
9.14001e-08
9.14736e-08
9.14705e-08
9.13645e-08
9.11938e-08
9.11942e-08
9.11942e-08
9.11938e-08
9.13869e-08
9.13818e-08
9.14737e-08
9.14469e-08
9.13626e-08
9.14007e-08
9.14003e-08
9.13983e-08
9.14e-08
9.13813e-08
9.14803e-08
9.14715e-08
9.14696e-08
9.13664e-08
9.14734e-08
9.14734e-08
9.0337e-08
9.03287e-08
9.03359e-08
9.02356e-08
9.02314e-08
9.0235e-08
9.02328e-08
9.03566e-08
9.03331e-08
9.03356e-08
9.0229e-08
9.00806e-08
9.00811e-08
9.0081e-08
9.00806e-08
9.02508e-08
9.02502e-08
9.02354e-08
9.00805e-08
9.00834e-08
9.00823e-08
9.00823e-08
9.00834e-08
9.00806e-08
9.02875e-08
9.0358e-08
9.03369e-08
9.02313e-08
9.0081e-08
9.00822e-08
9.00817e-08
9.00817e-08
9.00823e-08
9.0081e-08
9.02869e-08
9.03561e-08
9.03286e-08
9.02349e-08
9.0081e-08
9.00822e-08
9.00817e-08
9.00817e-08
9.00822e-08
9.0081e-08
9.02849e-08
9.0253e-08
9.02328e-08
9.00805e-08
9.00833e-08
9.00822e-08
9.00822e-08
9.00833e-08
9.00806e-08
9.02866e-08
9.03598e-08
9.03568e-08
9.02509e-08
9.00805e-08
9.0081e-08
9.0081e-08
9.00805e-08
9.02733e-08
9.02682e-08
9.03599e-08
9.03332e-08
9.0249e-08
9.02872e-08
9.02868e-08
9.02847e-08
9.02864e-08
9.02677e-08
9.03666e-08
9.03578e-08
9.03559e-08
9.02528e-08
9.03597e-08
9.03597e-08
8.92247e-08
8.92163e-08
8.92235e-08
8.91232e-08
8.91191e-08
8.91227e-08
8.91205e-08
8.92444e-08
8.92208e-08
8.92232e-08
8.91167e-08
8.89684e-08
8.89688e-08
8.89688e-08
8.89684e-08
8.91386e-08
8.91367e-08
8.9123e-08
8.89683e-08
8.89712e-08
8.897e-08
8.897e-08
8.89712e-08
8.89683e-08
8.9175e-08
8.92455e-08
8.92245e-08
8.91189e-08
8.89688e-08
8.897e-08
8.89694e-08
8.89694e-08
8.897e-08
8.89688e-08
8.91745e-08
8.92436e-08
8.92162e-08
8.91226e-08
8.89688e-08
8.897e-08
8.89694e-08
8.89694e-08
8.897e-08
8.89688e-08
8.91725e-08
8.91406e-08
8.91204e-08
8.89683e-08
8.89712e-08
8.897e-08
8.897e-08
8.89712e-08
8.89683e-08
8.91742e-08
8.92474e-08
8.92444e-08
8.91385e-08
8.89683e-08
8.89687e-08
8.89687e-08
8.89683e-08
8.9161e-08
8.91558e-08
8.92475e-08
8.92208e-08
8.91367e-08
8.91749e-08
8.91744e-08
8.91724e-08
8.9174e-08
8.91553e-08
8.92542e-08
8.92454e-08
8.92435e-08
8.91405e-08
8.92473e-08
8.92473e-08
8.81127e-08
8.81044e-08
8.81115e-08
8.80113e-08
8.80071e-08
8.80107e-08
8.80086e-08
8.81325e-08
8.81089e-08
8.81113e-08
8.80048e-08
8.78565e-08
8.78569e-08
8.78569e-08
8.78565e-08
8.80267e-08
8.80248e-08
8.80111e-08
8.78565e-08
8.78593e-08
8.78582e-08
8.78582e-08
8.78593e-08
8.78565e-08
8.80631e-08
8.81335e-08
8.81126e-08
8.8007e-08
8.78569e-08
8.78582e-08
8.78575e-08
8.78576e-08
8.78582e-08
8.78569e-08
8.80626e-08
8.81317e-08
8.81043e-08
8.80106e-08
8.78569e-08
8.78582e-08
8.78575e-08
8.78575e-08
8.78582e-08
8.78569e-08
8.80606e-08
8.80287e-08
8.80085e-08
8.78565e-08
8.78593e-08
8.78581e-08
8.78581e-08
8.78593e-08
8.78565e-08
8.80623e-08
8.81355e-08
8.81324e-08
8.80266e-08
8.78564e-08
8.78569e-08
8.78569e-08
8.78564e-08
8.80491e-08
8.80439e-08
8.81356e-08
8.81088e-08
8.80248e-08
8.8063e-08
8.80626e-08
8.80605e-08
8.80621e-08
8.80434e-08
8.81423e-08
8.81335e-08
8.81316e-08
8.80286e-08
8.81353e-08
8.81354e-08
8.70009e-08
8.69926e-08
8.69998e-08
8.68995e-08
8.68953e-08
8.68989e-08
8.68967e-08
8.70205e-08
8.6997e-08
8.69995e-08
8.6893e-08
8.67448e-08
8.67452e-08
8.67452e-08
8.67447e-08
8.69148e-08
8.69141e-08
8.68993e-08
8.67447e-08
8.67475e-08
8.67464e-08
8.67464e-08
8.67476e-08
8.67448e-08
8.69515e-08
8.70219e-08
8.70008e-08
8.68952e-08
8.67451e-08
8.67464e-08
8.67458e-08
8.67458e-08
8.67464e-08
8.67452e-08
8.69509e-08
8.702e-08
8.69924e-08
8.68988e-08
8.67451e-08
8.67464e-08
8.67458e-08
8.67458e-08
8.67464e-08
8.67452e-08
8.69489e-08
8.6917e-08
8.68966e-08
8.67447e-08
8.67475e-08
8.67464e-08
8.67464e-08
8.67476e-08
8.67447e-08
8.69505e-08
8.70237e-08
8.70204e-08
8.69147e-08
8.67447e-08
8.67452e-08
8.67452e-08
8.67448e-08
8.69373e-08
8.69317e-08
8.70236e-08
8.69969e-08
8.69141e-08
8.69515e-08
8.69509e-08
8.69489e-08
8.69505e-08
8.69322e-08
8.70305e-08
8.70219e-08
8.70199e-08
8.6917e-08
8.70237e-08
8.70238e-08
8.58892e-08
8.58809e-08
8.5888e-08
8.57878e-08
8.57836e-08
8.57872e-08
8.5785e-08
8.59088e-08
8.58853e-08
8.58878e-08
8.57813e-08
8.56331e-08
8.56335e-08
8.56335e-08
8.56331e-08
8.58031e-08
8.58024e-08
8.57876e-08
8.5633e-08
8.56358e-08
8.56347e-08
8.56348e-08
8.56359e-08
8.56331e-08
8.58398e-08
8.59103e-08
8.58891e-08
8.57835e-08
8.56334e-08
8.56347e-08
8.56341e-08
8.56341e-08
8.56348e-08
8.56335e-08
8.58393e-08
8.59083e-08
8.58807e-08
8.57871e-08
8.56334e-08
8.56347e-08
8.56341e-08
8.56341e-08
8.56348e-08
8.56335e-08
8.58372e-08
8.58053e-08
8.57849e-08
8.5633e-08
8.56358e-08
8.56347e-08
8.56347e-08
8.56359e-08
8.56331e-08
8.58389e-08
8.59121e-08
8.59087e-08
8.5803e-08
8.5633e-08
8.56334e-08
8.56334e-08
8.5633e-08
8.58257e-08
8.58205e-08
8.59121e-08
8.58852e-08
8.58024e-08
8.58398e-08
8.58392e-08
8.58371e-08
8.58387e-08
8.582e-08
8.59189e-08
8.59102e-08
8.59082e-08
8.58052e-08
8.59119e-08
8.59119e-08
8.47775e-08
8.47692e-08
8.47764e-08
8.46762e-08
8.4672e-08
8.46755e-08
8.46733e-08
8.47971e-08
8.47736e-08
8.47761e-08
8.46696e-08
8.45214e-08
8.45218e-08
8.45218e-08
8.45214e-08
8.46914e-08
8.46908e-08
8.4676e-08
8.45214e-08
8.45242e-08
8.45231e-08
8.45231e-08
8.45242e-08
8.45214e-08
8.47282e-08
8.47986e-08
8.47774e-08
8.46719e-08
8.45218e-08
8.45231e-08
8.45224e-08
8.45224e-08
8.45231e-08
8.45218e-08
8.47276e-08
8.47966e-08
8.47691e-08
8.46755e-08
8.45218e-08
8.45231e-08
8.45224e-08
8.45224e-08
8.45231e-08
8.45218e-08
8.47255e-08
8.46937e-08
8.46734e-08
8.45214e-08
8.45242e-08
8.45231e-08
8.45231e-08
8.45242e-08
8.45214e-08
8.47272e-08
8.48004e-08
8.47973e-08
8.46915e-08
8.45213e-08
8.45217e-08
8.45217e-08
8.45214e-08
8.4714e-08
8.47088e-08
8.48005e-08
8.47737e-08
8.46896e-08
8.47279e-08
8.47274e-08
8.47254e-08
8.4727e-08
8.47083e-08
8.48072e-08
8.47983e-08
8.47964e-08
8.46935e-08
8.48002e-08
8.48002e-08
8.36659e-08
8.36576e-08
8.36647e-08
8.35645e-08
8.35603e-08
8.35639e-08
8.35618e-08
8.36857e-08
8.36621e-08
8.36645e-08
8.3558e-08
8.34098e-08
8.34102e-08
8.34102e-08
8.34098e-08
8.35799e-08
8.35781e-08
8.35643e-08
8.34097e-08
8.34125e-08
8.34114e-08
8.34114e-08
8.34126e-08
8.34098e-08
8.36163e-08
8.36868e-08
8.36658e-08
8.35602e-08
8.34101e-08
8.34114e-08
8.34108e-08
8.34108e-08
8.34114e-08
8.34102e-08
8.36159e-08
8.36849e-08
8.36575e-08
8.35639e-08
8.34101e-08
8.34114e-08
8.34108e-08
8.34108e-08
8.34114e-08
8.34102e-08
8.36139e-08
8.3582e-08
8.35617e-08
8.34097e-08
8.34125e-08
8.34114e-08
8.34114e-08
8.34125e-08
8.34098e-08
8.36155e-08
8.36887e-08
8.36856e-08
8.35798e-08
8.34097e-08
8.34101e-08
8.34101e-08
8.34097e-08
8.36023e-08
8.35971e-08
8.36888e-08
8.3662e-08
8.3578e-08
8.36162e-08
8.36158e-08
8.36137e-08
8.36153e-08
8.35967e-08
8.36955e-08
8.36867e-08
8.36848e-08
8.35818e-08
8.36885e-08
8.36886e-08
8.25542e-08
8.25459e-08
8.25531e-08
8.24529e-08
8.24487e-08
8.24522e-08
8.245e-08
8.25738e-08
8.25503e-08
8.25528e-08
8.24463e-08
8.22981e-08
8.22985e-08
8.22985e-08
8.22981e-08
8.24681e-08
8.24675e-08
8.24527e-08
8.22981e-08
8.23009e-08
8.22998e-08
8.22998e-08
8.23009e-08
8.22981e-08
8.25049e-08
8.25753e-08
8.25541e-08
8.24486e-08
8.22985e-08
8.22998e-08
8.22991e-08
8.22991e-08
8.22998e-08
8.22985e-08
8.25043e-08
8.25733e-08
8.25458e-08
8.24522e-08
8.22985e-08
8.22998e-08
8.22991e-08
8.22991e-08
8.22998e-08
8.22985e-08
8.25022e-08
8.24703e-08
8.24501e-08
8.22981e-08
8.23008e-08
8.22997e-08
8.22997e-08
8.23009e-08
8.22981e-08
8.25039e-08
8.25771e-08
8.2574e-08
8.24682e-08
8.2298e-08
8.22984e-08
8.22984e-08
8.2298e-08
8.24907e-08
8.24855e-08
8.25772e-08
8.25504e-08
8.24663e-08
8.25046e-08
8.25041e-08
8.25021e-08
8.25037e-08
8.2485e-08
8.25839e-08
8.2575e-08
8.25731e-08
8.24702e-08
8.25769e-08
8.25769e-08
8.14426e-08
8.14342e-08
8.14414e-08
8.13412e-08
8.1337e-08
8.13406e-08
8.13384e-08
8.14622e-08
8.14386e-08
8.14412e-08
8.13347e-08
8.11865e-08
8.11868e-08
8.11868e-08
8.11864e-08
8.13564e-08
8.13558e-08
8.1341e-08
8.11864e-08
8.11892e-08
8.11881e-08
8.11881e-08
8.11892e-08
8.11865e-08
8.13932e-08
8.14636e-08
8.14425e-08
8.13369e-08
8.11868e-08
8.11881e-08
8.11875e-08
8.11875e-08
8.11881e-08
8.11869e-08
8.13926e-08
8.14617e-08
8.14342e-08
8.13406e-08
8.11868e-08
8.11881e-08
8.11875e-08
8.11875e-08
8.11881e-08
8.11869e-08
8.13906e-08
8.13587e-08
8.13384e-08
8.11864e-08
8.11892e-08
8.11881e-08
8.11881e-08
8.11892e-08
8.11865e-08
8.13922e-08
8.14654e-08
8.14623e-08
8.13565e-08
8.11864e-08
8.11868e-08
8.11868e-08
8.11864e-08
8.1379e-08
8.13738e-08
8.14655e-08
8.14387e-08
8.13547e-08
8.13929e-08
8.13925e-08
8.13904e-08
8.1392e-08
8.13734e-08
8.14722e-08
8.14634e-08
8.14615e-08
8.13585e-08
8.14652e-08
8.14653e-08
8.03309e-08
8.03225e-08
8.03298e-08
8.02295e-08
8.02253e-08
8.02289e-08
8.02267e-08
8.03505e-08
8.0327e-08
8.03295e-08
8.0223e-08
8.00748e-08
8.00752e-08
8.00752e-08
8.00748e-08
8.02448e-08
8.02442e-08
8.02294e-08
8.00748e-08
8.00776e-08
8.00765e-08
8.00765e-08
8.00776e-08
8.00748e-08
8.02816e-08
8.0352e-08
8.03308e-08
8.02253e-08
8.00752e-08
8.00765e-08
8.00758e-08
8.00758e-08
8.00765e-08
8.00752e-08
8.0281e-08
8.035e-08
8.03225e-08
8.02289e-08
8.00752e-08
8.00765e-08
8.00758e-08
8.00758e-08
8.00765e-08
8.00752e-08
8.02789e-08
8.0247e-08
8.02268e-08
8.00748e-08
8.00775e-08
8.00764e-08
8.00764e-08
8.00776e-08
8.00748e-08
8.02806e-08
8.03538e-08
8.03507e-08
8.02449e-08
8.00747e-08
8.00751e-08
8.00751e-08
8.00747e-08
8.02674e-08
8.02622e-08
8.03539e-08
8.03271e-08
8.0243e-08
8.02813e-08
8.02808e-08
8.02788e-08
8.02804e-08
8.02617e-08
8.03606e-08
8.03517e-08
8.03498e-08
8.02469e-08
8.03536e-08
8.03536e-08
7.92192e-08
7.92109e-08
7.92179e-08
7.91177e-08
7.91136e-08
7.91172e-08
7.9115e-08
7.92388e-08
7.92153e-08
7.92181e-08
7.91114e-08
7.89631e-08
7.89635e-08
7.89635e-08
7.89631e-08
7.91331e-08
7.91325e-08
7.91179e-08
7.89631e-08
7.89659e-08
7.89648e-08
7.89648e-08
7.89659e-08
7.89632e-08
7.91699e-08
7.92403e-08
7.92193e-08
7.91137e-08
7.89635e-08
7.89648e-08
7.89642e-08
7.89642e-08
7.89648e-08
7.89636e-08
7.91693e-08
7.92384e-08
7.92109e-08
7.91173e-08
7.89635e-08
7.89648e-08
7.89642e-08
7.89642e-08
7.89648e-08
7.89636e-08
7.91673e-08
7.91354e-08
7.91152e-08
7.89631e-08
7.89659e-08
7.89648e-08
7.89648e-08
7.89659e-08
7.89632e-08
7.9169e-08
7.92421e-08
7.9239e-08
7.91332e-08
7.89631e-08
7.89635e-08
7.89635e-08
7.89631e-08
7.91557e-08
7.91505e-08
7.92422e-08
7.92155e-08
7.91314e-08
7.91696e-08
7.91692e-08
7.91672e-08
7.91688e-08
7.91501e-08
7.92489e-08
7.92401e-08
7.92382e-08
7.91352e-08
7.9242e-08
7.9242e-08
7.81076e-08
7.80992e-08
7.81065e-08
7.80062e-08
7.8002e-08
7.80056e-08
7.80034e-08
7.81272e-08
7.81037e-08
7.81062e-08
7.79997e-08
7.78515e-08
7.78519e-08
7.78519e-08
7.78515e-08
7.80215e-08
7.80209e-08
7.8006e-08
7.78515e-08
7.78543e-08
7.78532e-08
7.78532e-08
7.78543e-08
7.78515e-08
7.80583e-08
7.81287e-08
7.81075e-08
7.80019e-08
7.78519e-08
7.78532e-08
7.78525e-08
7.78525e-08
7.78532e-08
7.78519e-08
7.80577e-08
7.81267e-08
7.80992e-08
7.80056e-08
7.78519e-08
7.78532e-08
7.78525e-08
7.78525e-08
7.78532e-08
7.78519e-08
7.80556e-08
7.80238e-08
7.80034e-08
7.78515e-08
7.78543e-08
7.78532e-08
7.78532e-08
7.78543e-08
7.78515e-08
7.80573e-08
7.81305e-08
7.81272e-08
7.80215e-08
7.78515e-08
7.78519e-08
7.78519e-08
7.78515e-08
7.80441e-08
7.80389e-08
7.81306e-08
7.81036e-08
7.80208e-08
7.80582e-08
7.80576e-08
7.80556e-08
7.80572e-08
7.80385e-08
7.81373e-08
7.81286e-08
7.81267e-08
7.80237e-08
7.81304e-08
7.81304e-08
7.6996e-08
7.69876e-08
7.69948e-08
7.68946e-08
7.68904e-08
7.6894e-08
7.68918e-08
7.70156e-08
7.6992e-08
7.69946e-08
7.68881e-08
7.67399e-08
7.67403e-08
7.67403e-08
7.67399e-08
7.69099e-08
7.69092e-08
7.68944e-08
7.67398e-08
7.67426e-08
7.67416e-08
7.67416e-08
7.67427e-08
7.67399e-08
7.69466e-08
7.7017e-08
7.69959e-08
7.68903e-08
7.67402e-08
7.67415e-08
7.67409e-08
7.67409e-08
7.67416e-08
7.67403e-08
7.6946e-08
7.7015e-08
7.69875e-08
7.68939e-08
7.67402e-08
7.67415e-08
7.67409e-08
7.67409e-08
7.67416e-08
7.67403e-08
7.69439e-08
7.6912e-08
7.68917e-08
7.67398e-08
7.67426e-08
7.67416e-08
7.67416e-08
7.67427e-08
7.67398e-08
7.69455e-08
7.70187e-08
7.70155e-08
7.69098e-08
7.67399e-08
7.67403e-08
7.67403e-08
7.67399e-08
7.69325e-08
7.69268e-08
7.70187e-08
7.6992e-08
7.69092e-08
7.69466e-08
7.6946e-08
7.6944e-08
7.69457e-08
7.69273e-08
7.70256e-08
7.7017e-08
7.70151e-08
7.69121e-08
7.70188e-08
7.70189e-08
7.58844e-08
7.58761e-08
7.58832e-08
7.5783e-08
7.57788e-08
7.57824e-08
7.57803e-08
7.59042e-08
7.58806e-08
7.5883e-08
7.57765e-08
7.56283e-08
7.56287e-08
7.56287e-08
7.56283e-08
7.57984e-08
7.57965e-08
7.57828e-08
7.56282e-08
7.5631e-08
7.56299e-08
7.56299e-08
7.5631e-08
7.56282e-08
7.58348e-08
7.59052e-08
7.58843e-08
7.57787e-08
7.56286e-08
7.56299e-08
7.56293e-08
7.56293e-08
7.56299e-08
7.56286e-08
7.58343e-08
7.59033e-08
7.5876e-08
7.57824e-08
7.56286e-08
7.56299e-08
7.56293e-08
7.56293e-08
7.56299e-08
7.56286e-08
7.58323e-08
7.58004e-08
7.57802e-08
7.56282e-08
7.5631e-08
7.56299e-08
7.56299e-08
7.5631e-08
7.56282e-08
7.58339e-08
7.59071e-08
7.59041e-08
7.57983e-08
7.56282e-08
7.56286e-08
7.56286e-08
7.56282e-08
7.58208e-08
7.58151e-08
7.59071e-08
7.58806e-08
7.57965e-08
7.58348e-08
7.58343e-08
7.58323e-08
7.5834e-08
7.58156e-08
7.5914e-08
7.59052e-08
7.59033e-08
7.58004e-08
7.59072e-08
7.59073e-08
7.47728e-08
7.47645e-08
7.47716e-08
7.46714e-08
7.46672e-08
7.46708e-08
7.46687e-08
7.47926e-08
7.4769e-08
7.47713e-08
7.46649e-08
7.45166e-08
7.4517e-08
7.4517e-08
7.45166e-08
7.46867e-08
7.46849e-08
7.46712e-08
7.45166e-08
7.45194e-08
7.45183e-08
7.45183e-08
7.45194e-08
7.45166e-08
7.47231e-08
7.47936e-08
7.47727e-08
7.46671e-08
7.4517e-08
7.45183e-08
7.45177e-08
7.45177e-08
7.45183e-08
7.4517e-08
7.47227e-08
7.47917e-08
7.47644e-08
7.46707e-08
7.4517e-08
7.45183e-08
7.45176e-08
7.45176e-08
7.45183e-08
7.4517e-08
7.47207e-08
7.46888e-08
7.46686e-08
7.45166e-08
7.45194e-08
7.45183e-08
7.45183e-08
7.45194e-08
7.45166e-08
7.47224e-08
7.47955e-08
7.47925e-08
7.46867e-08
7.45166e-08
7.4517e-08
7.4517e-08
7.45166e-08
7.47092e-08
7.4704e-08
7.47956e-08
7.47689e-08
7.46849e-08
7.47231e-08
7.47227e-08
7.47206e-08
7.47222e-08
7.47035e-08
7.48024e-08
7.47935e-08
7.47917e-08
7.46887e-08
7.47954e-08
7.47954e-08
7.36611e-08
7.36528e-08
7.366e-08
7.35597e-08
7.35555e-08
7.35591e-08
7.35569e-08
7.36807e-08
7.36571e-08
7.36597e-08
7.35532e-08
7.3405e-08
7.34054e-08
7.34054e-08
7.3405e-08
7.3575e-08
7.35743e-08
7.35596e-08
7.3405e-08
7.34078e-08
7.34067e-08
7.34067e-08
7.34078e-08
7.3405e-08
7.36117e-08
7.36821e-08
7.3661e-08
7.35555e-08
7.34054e-08
7.34067e-08
7.3406e-08
7.3406e-08
7.34067e-08
7.34054e-08
7.36112e-08
7.36802e-08
7.36527e-08
7.35591e-08
7.34054e-08
7.34067e-08
7.3406e-08
7.3406e-08
7.34067e-08
7.34054e-08
7.36091e-08
7.35772e-08
7.3557e-08
7.3405e-08
7.34078e-08
7.34067e-08
7.34067e-08
7.34078e-08
7.3405e-08
7.36108e-08
7.3684e-08
7.36809e-08
7.35751e-08
7.3405e-08
7.34054e-08
7.34054e-08
7.3405e-08
7.35976e-08
7.35924e-08
7.3684e-08
7.36573e-08
7.35732e-08
7.36115e-08
7.36111e-08
7.3609e-08
7.36106e-08
7.35919e-08
7.36908e-08
7.36819e-08
7.36801e-08
7.35771e-08
7.36838e-08
7.36838e-08
7.25494e-08
7.25411e-08
7.25481e-08
7.24479e-08
7.24438e-08
7.24474e-08
7.24452e-08
7.2569e-08
7.25455e-08
7.25483e-08
7.24416e-08
7.22933e-08
7.22937e-08
7.22937e-08
7.22933e-08
7.24633e-08
7.24627e-08
7.24481e-08
7.22934e-08
7.22962e-08
7.2295e-08
7.2295e-08
7.22962e-08
7.22934e-08
7.25001e-08
7.25705e-08
7.25495e-08
7.24439e-08
7.22938e-08
7.22951e-08
7.22944e-08
7.22944e-08
7.22951e-08
7.22938e-08
7.24995e-08
7.25685e-08
7.25411e-08
7.24475e-08
7.22938e-08
7.22951e-08
7.22944e-08
7.22944e-08
7.22951e-08
7.22938e-08
7.24974e-08
7.24655e-08
7.24453e-08
7.22934e-08
7.22962e-08
7.22951e-08
7.22951e-08
7.22962e-08
7.22934e-08
7.2499e-08
7.25722e-08
7.25691e-08
7.24634e-08
7.22934e-08
7.22938e-08
7.22938e-08
7.22934e-08
7.2486e-08
7.24803e-08
7.25722e-08
7.25455e-08
7.24627e-08
7.25001e-08
7.24996e-08
7.24975e-08
7.24992e-08
7.24808e-08
7.25792e-08
7.25705e-08
7.25686e-08
7.24656e-08
7.25724e-08
7.25724e-08
7.14378e-08
7.14295e-08
7.14365e-08
7.13363e-08
7.13322e-08
7.13358e-08
7.13337e-08
7.14574e-08
7.14339e-08
7.14367e-08
7.133e-08
7.11818e-08
7.11822e-08
7.11822e-08
7.11818e-08
7.13518e-08
7.13511e-08
7.13365e-08
7.11818e-08
7.11846e-08
7.11835e-08
7.11835e-08
7.11846e-08
7.11818e-08
7.13885e-08
7.14589e-08
7.14379e-08
7.13323e-08
7.11822e-08
7.11835e-08
7.11828e-08
7.11828e-08
7.11835e-08
7.11822e-08
7.13879e-08
7.14569e-08
7.14295e-08
7.13359e-08
7.11822e-08
7.11835e-08
7.11828e-08
7.11828e-08
7.11835e-08
7.11822e-08
7.13858e-08
7.13539e-08
7.13337e-08
7.11818e-08
7.11846e-08
7.11835e-08
7.11835e-08
7.11846e-08
7.11818e-08
7.13875e-08
7.14606e-08
7.14575e-08
7.13518e-08
7.11818e-08
7.11822e-08
7.11822e-08
7.11818e-08
7.13744e-08
7.13687e-08
7.14606e-08
7.14339e-08
7.13511e-08
7.13885e-08
7.1388e-08
7.13859e-08
7.13876e-08
7.13692e-08
7.14676e-08
7.14589e-08
7.1457e-08
7.1354e-08
7.14608e-08
7.14608e-08
7.03263e-08
7.0318e-08
7.03252e-08
7.0225e-08
7.02208e-08
7.02244e-08
7.02222e-08
7.03461e-08
7.03225e-08
7.03249e-08
7.02184e-08
7.00702e-08
7.00706e-08
7.00706e-08
7.00702e-08
7.02403e-08
7.02385e-08
7.02248e-08
7.00702e-08
7.0073e-08
7.00719e-08
7.00719e-08
7.0073e-08
7.00702e-08
7.02768e-08
7.03472e-08
7.03263e-08
7.02207e-08
7.00706e-08
7.00719e-08
7.00713e-08
7.00713e-08
7.00719e-08
7.00706e-08
7.02763e-08
7.03453e-08
7.0318e-08
7.02243e-08
7.00706e-08
7.00719e-08
7.00713e-08
7.00713e-08
7.00719e-08
7.00706e-08
7.02743e-08
7.02424e-08
7.02222e-08
7.00702e-08
7.0073e-08
7.00719e-08
7.00719e-08
7.0073e-08
7.00702e-08
7.0276e-08
7.03491e-08
7.03461e-08
7.02403e-08
7.00702e-08
7.00706e-08
7.00706e-08
7.00702e-08
7.02628e-08
7.02576e-08
7.03492e-08
7.03225e-08