/*--------------------------------*- C++ -*----------------------------------*\
| =========                 |                                                 |
| \\      /  F ield         | OpenFOAM: The Open Source CFD Toolbox           |
|  \\    /   O peration     | Version:  2312                                  |
|   \\  /    A nd           | Website:  www.openfoam.com                      |
|    \\/     M anipulation  |                                                 |
\*---------------------------------------------------------------------------*/
FoamFile
{
    version     2.0;
    format      ascii;
    arch        "LSB;label=32;scalar=64";
    class       volScalarField;
    location    "750";
    object      k;
}
// * * * * * * * * * * * * * * * * * * * * * * * * * * * * * * * * * * * * * //

dimensions      [0 2 -2 0 0 0 0];

internalField   nonuniform List<scalar> 
43211
(
3.60232e-05
3.60198e-05
3.60198e-05
3.60083e-05
3.39295e-05
3.38866e-05
3.38866e-05
3.39612e-05
3.21574e-05
3.20055e-05
3.20055e-05
3.19506e-05
3.05338e-05
3.02267e-05
3.02267e-05
2.99864e-05
2.90318e-05
2.85515e-05
2.85515e-05
2.81202e-05
2.76341e-05
2.69848e-05
2.69847e-05
2.6388e-05
2.63294e-05
2.55287e-05
2.55286e-05
2.48046e-05
2.51097e-05
2.41827e-05
2.41826e-05
2.33754e-05
2.39694e-05
2.29484e-05
2.29483e-05
2.21019e-05
2.29042e-05
2.18247e-05
2.18245e-05
2.09833e-05
2.19105e-05
2.08092e-05
2.08091e-05
2.00107e-05
2.09849e-05
1.98992e-05
1.98991e-05
1.91788e-05
2.01226e-05
1.90927e-05
1.90925e-05
1.8487e-05
1.93223e-05
1.83865e-05
1.83864e-05
1.79306e-05
1.85832e-05
1.77774e-05
1.77773e-05
1.75039e-05
1.79026e-05
1.72637e-05
1.72636e-05
1.7198e-05
1.72783e-05
1.68447e-05
1.68446e-05
1.70205e-05
1.67082e-05
1.65194e-05
1.65193e-05
1.69799e-05
1.61908e-05
1.62879e-05
1.62879e-05
1.70773e-05
1.57239e-05
1.61501e-05
1.61502e-05
1.73025e-05
1.53058e-05
1.61058e-05
1.61059e-05
1.76558e-05
3.62984e-05
3.62919e-05
3.62919e-05
3.62984e-05
3.62919e-05
3.62919e-05
3.62908e-05
3.62908e-05
3.62908e-05
3.62908e-05
3.62919e-05
3.62919e-05
3.62984e-05
3.62919e-05
3.62919e-05
3.62984e-05
3.60083e-05
3.42676e-05
3.60198e-05
3.60198e-05
3.43745e-05
3.43744e-05
3.60083e-05
3.42677e-05
3.60198e-05
3.60198e-05
3.43745e-05
3.43744e-05
3.60198e-05
3.43745e-05
3.43745e-05
3.60083e-05
3.42677e-05
3.60198e-05
3.43745e-05
3.43745e-05
3.42676e-05
3.39612e-05
3.22619e-05
3.38865e-05
3.38865e-05
3.24658e-05
3.24657e-05
3.39612e-05
3.22619e-05
3.38865e-05
3.38865e-05
3.24659e-05
3.24657e-05
3.38865e-05
3.2466e-05
3.24658e-05
3.39612e-05
3.22619e-05
3.38865e-05
3.24659e-05
3.24659e-05
3.22618e-05
3.19506e-05
3.02973e-05
3.20054e-05
3.20053e-05
3.06617e-05
3.06616e-05
3.19506e-05
3.02973e-05
3.20054e-05
3.20052e-05
3.06618e-05
3.06615e-05
3.20053e-05
3.0662e-05
3.06617e-05
3.19506e-05
3.02972e-05
3.20054e-05
3.06619e-05
3.06618e-05
3.02971e-05
2.99865e-05
2.84231e-05
3.02264e-05
3.02263e-05
2.89599e-05
2.89597e-05
2.99865e-05
2.8423e-05
3.02266e-05
3.02262e-05
2.89601e-05
2.89596e-05
3.02264e-05
2.89603e-05
2.89598e-05
2.99864e-05
2.84229e-05
3.02265e-05
2.89602e-05
2.896e-05
2.84228e-05
2.81204e-05
2.66716e-05
2.85511e-05
2.85509e-05
2.73656e-05
2.73653e-05
2.81204e-05
2.66715e-05
2.85514e-05
2.85508e-05
2.73659e-05
2.73652e-05
2.8551e-05
2.73661e-05
2.73655e-05
2.81203e-05
2.66714e-05
2.85513e-05
2.7366e-05
2.73658e-05
2.66712e-05
2.63884e-05
2.50638e-05
2.69842e-05
2.6984e-05
2.58817e-05
2.58815e-05
2.63883e-05
2.50638e-05
2.69846e-05
2.69839e-05
2.58822e-05
2.58813e-05
2.69841e-05
2.58824e-05
2.58816e-05
2.63882e-05
2.50636e-05
2.69844e-05
2.58823e-05
2.5882e-05
2.50634e-05
2.4805e-05
2.361e-05
2.5528e-05
2.55277e-05
2.45079e-05
2.45077e-05
2.48049e-05
2.36099e-05
2.55285e-05
2.55276e-05
2.45085e-05
2.45075e-05
2.55279e-05
2.45087e-05
2.45078e-05
2.48048e-05
2.36097e-05
2.55283e-05
2.45086e-05
2.45083e-05
2.36095e-05
2.33759e-05
2.231e-05
2.41819e-05
2.41816e-05
2.32456e-05
2.32453e-05
2.33758e-05
2.23099e-05
2.41825e-05
2.41814e-05
2.32462e-05
2.32451e-05
2.41817e-05
2.32465e-05
2.32455e-05
2.33756e-05
2.23096e-05
2.41823e-05
2.32464e-05
2.32461e-05
2.23094e-05
2.21024e-05
2.11657e-05
2.29475e-05
2.29472e-05
2.20943e-05
2.2094e-05
2.21024e-05
2.11656e-05
2.29481e-05
2.2947e-05
2.20951e-05
2.20939e-05
2.29473e-05
2.20953e-05
2.20942e-05
2.21021e-05
2.11653e-05
2.2948e-05
2.20952e-05
2.20949e-05
2.1165e-05
2.09839e-05
2.01684e-05
2.18237e-05
2.18234e-05
2.1052e-05
2.10517e-05
2.09838e-05
2.01683e-05
2.18244e-05
2.18232e-05
2.10528e-05
2.10515e-05
2.18236e-05
2.1053e-05
2.10519e-05
2.09835e-05
2.01679e-05
2.18242e-05
2.10529e-05
2.10527e-05
2.01677e-05
2.00113e-05
1.93123e-05
2.08081e-05
2.08078e-05
2.01158e-05
2.01156e-05
2.00112e-05
1.93122e-05
2.0809e-05
2.08077e-05
2.01167e-05
2.01154e-05
2.08081e-05
2.01169e-05
2.01158e-05
2.00109e-05
1.93119e-05
2.08088e-05
2.01168e-05
2.01166e-05
1.93116e-05
1.91793e-05
1.85882e-05
1.98981e-05
1.98978e-05
1.92834e-05
1.92832e-05
1.91793e-05
1.8588e-05
1.9899e-05
1.98977e-05
1.92843e-05
1.9283e-05
1.9898e-05
1.92845e-05
1.92834e-05
1.9179e-05
1.85877e-05
1.98988e-05
1.92844e-05
1.92842e-05
1.85875e-05
1.84874e-05
1.79956e-05
1.90915e-05
1.90913e-05
1.85524e-05
1.85522e-05
1.84875e-05
1.79955e-05
1.90925e-05
1.90912e-05
1.85533e-05
1.85521e-05
1.90915e-05
1.85535e-05
1.85524e-05
1.84872e-05
1.79952e-05
1.90923e-05
1.85534e-05
1.85532e-05
1.7995e-05
1.7931e-05
1.75371e-05
1.83854e-05
1.83852e-05
1.79193e-05
1.79191e-05
1.7931e-05
1.7537e-05
1.83863e-05
1.8385e-05
1.79202e-05
1.7919e-05
1.83854e-05
1.79203e-05
1.79193e-05
1.79307e-05
1.75368e-05
1.83862e-05
1.79203e-05
1.79202e-05
1.75367e-05
1.75042e-05
1.72155e-05
1.77763e-05
1.77762e-05
1.73818e-05
1.73817e-05
1.75043e-05
1.72156e-05
1.77772e-05
1.77761e-05
1.73826e-05
1.73816e-05
1.77763e-05
1.73827e-05
1.73818e-05
1.7504e-05
1.72153e-05
1.77771e-05
1.73827e-05
1.73826e-05
1.72153e-05
1.71982e-05
1.70239e-05
1.72627e-05
1.72627e-05
1.69391e-05
1.69391e-05
1.71983e-05
1.70239e-05
1.72636e-05
1.72626e-05
1.69399e-05
1.6939e-05
1.72628e-05
1.69399e-05
1.69392e-05
1.7198e-05
1.70238e-05
1.72636e-05
1.69399e-05
1.69399e-05
1.70238e-05
1.70205e-05
1.69704e-05
1.68438e-05
1.68438e-05
1.65901e-05
1.65902e-05
1.70207e-05
1.69706e-05
1.68446e-05
1.68437e-05
1.65908e-05
1.65902e-05
1.68439e-05
1.65909e-05
1.65902e-05
1.70204e-05
1.69705e-05
1.68447e-05
1.65909e-05
1.6591e-05
1.69705e-05
1.69797e-05
1.70414e-05
1.65186e-05
1.65187e-05
1.63349e-05
1.63351e-05
1.698e-05
1.70417e-05
1.65193e-05
1.65187e-05
1.63356e-05
1.63351e-05
1.65187e-05
1.63355e-05
1.63351e-05
1.69798e-05
1.70415e-05
1.65195e-05
1.63356e-05
1.63358e-05
1.70418e-05
1.70769e-05
1.72416e-05
1.62872e-05
1.62874e-05
1.61734e-05
1.61737e-05
1.70773e-05
1.72418e-05
1.62878e-05
1.62874e-05
1.6174e-05
1.61737e-05
1.62874e-05
1.61739e-05
1.61736e-05
1.70771e-05
1.72419e-05
1.62881e-05
1.6174e-05
1.61743e-05
1.72421e-05
1.7302e-05
1.75704e-05
1.61496e-05
1.61499e-05
1.61053e-05
1.61057e-05
1.73022e-05
1.75706e-05
1.61502e-05
1.61499e-05
1.61058e-05
1.61058e-05
1.61499e-05
1.61057e-05
1.61056e-05
1.73022e-05
1.75707e-05
1.61505e-05
1.61058e-05
1.61062e-05
1.75711e-05
1.76552e-05
1.61055e-05
1.61058e-05
1.76553e-05
1.61059e-05
1.61059e-05
1.61058e-05
1.76555e-05
1.61064e-05
3.73769e-05
3.73764e-05
3.73767e-05
3.73767e-05
3.73694e-05
3.73756e-05
3.73043e-05
3.73764e-05
3.73695e-05
3.73756e-05
3.73764e-05
3.73043e-05
3.73714e-05
3.72959e-05
3.72959e-05
3.58829e-05
4.08677e-05
3.6601e-05
4.51385e-05
5.51099e-05
6.48883e-05
3.58835e-05
4.08674e-05
3.66009e-05
4.51411e-05
3.60232e-05
3.60232e-05
3.60232e-05
3.44005e-05
3.44005e-05
3.44005e-05
3.44005e-05
3.52763e-05
3.56382e-05
3.60241e-05
3.53761e-05
3.60479e-05
3.42427e-05
3.53827e-05
5.51119e-05
6.48899e-05
3.52764e-05
3.60241e-05
3.56379e-05
3.53761e-05
3.60478e-05
3.53827e-05
3.42432e-05
3.65941e-05
3.65948e-05
3.52782e-05
3.40673e-05
3.40664e-05
3.39695e-05
5.13493e-05
3.46835e-05
5.46194e-05
7.65443e-05
8.08619e-05
3.39704e-05
5.13498e-05
3.46829e-05
5.46228e-05
3.39295e-05
3.39295e-05
3.39295e-05
3.25851e-05
3.25851e-05
3.25851e-05
3.25851e-05
3.30546e-05
3.24826e-05
3.3929e-05
3.34062e-05
3.38971e-05
3.15832e-05
3.34673e-05
7.65468e-05
8.08628e-05
3.30547e-05
3.3929e-05
3.2482e-05
3.34062e-05
3.3897e-05
3.34673e-05
3.15844e-05
3.17214e-05
3.17217e-05
3.32624e-05
3.09281e-05
3.09264e-05
3.22516e-05
5.91651e-05
3.29223e-05
6.1436e-05
8.43927e-05
8.5069e-05
3.22515e-05
5.91669e-05
3.2922e-05
6.14392e-05
3.21574e-05
3.21574e-05
3.21574e-05
3.09274e-05
3.09274e-05
3.09274e-05
3.09274e-05
3.07891e-05
3.05187e-05
3.21369e-05
3.15514e-05
3.1637e-05
2.98912e-05
3.17094e-05
8.4394e-05
8.50696e-05
3.07893e-05
3.21369e-05
3.05181e-05
3.15514e-05
3.16368e-05
3.17094e-05
2.98911e-05
3.02185e-05
3.02183e-05
3.12712e-05
3.00048e-05
3.00042e-05
3.07526e-05
6.43453e-05
3.13494e-05
6.57232e-05
8.46118e-05
8.39134e-05
3.07527e-05
6.43483e-05
3.13494e-05
6.57259e-05
3.05338e-05
3.05338e-05
3.05338e-05
2.93969e-05
2.93969e-05
2.93969e-05
2.93969e-05
2.85999e-05
2.9145e-05
3.04686e-05
2.97979e-05
2.94127e-05
2.86779e-05
3.00678e-05
8.46131e-05
8.39124e-05
2.86002e-05
3.04685e-05
2.9145e-05
2.97979e-05
2.94124e-05
3.00678e-05
2.86779e-05
2.99406e-05
2.99405e-05
2.9346e-05
3.00348e-05
3.00348e-05
2.95173e-05
6.73145e-05
2.99995e-05
6.80305e-05
8.22128e-05
8.12229e-05
2.95174e-05
6.73172e-05
2.99996e-05
6.80329e-05
2.90317e-05
2.90317e-05
2.90317e-05
2.79744e-05
2.79744e-05
2.79743e-05
2.79743e-05
2.65667e-05
2.81252e-05
2.89017e-05
2.81495e-05
2.73166e-05
2.77832e-05
2.85246e-05
8.2214e-05
8.12213e-05
2.65672e-05
2.89016e-05
2.81252e-05
2.81494e-05
2.73161e-05
2.85246e-05
2.77833e-05
3.04407e-05
3.04421e-05
2.75305e-05
3.07818e-05
3.07815e-05
2.86033e-05
6.87389e-05
2.89462e-05
6.90341e-05
7.94334e-05
7.85355e-05
2.86035e-05
6.87411e-05
2.89463e-05
6.90361e-05
2.7634e-05
2.7634e-05
2.7634e-05
2.66473e-05
2.66472e-05
2.66472e-05
2.66472e-05
2.47426e-05
2.74072e-05
2.74276e-05
2.66103e-05
2.54135e-05
2.71922e-05
2.70731e-05
7.94348e-05
7.85334e-05
2.47432e-05
2.74275e-05
2.74073e-05
2.66103e-05
2.5413e-05
2.7073e-05
2.71923e-05
3.15586e-05
3.15603e-05
2.58484e-05
3.21299e-05
3.21306e-05
2.80577e-05
6.9249e-05
2.82433e-05
6.93095e-05
7.7003e-05
7.62901e-05
2.80579e-05
6.92506e-05
2.82435e-05
6.93109e-05
2.63293e-05
2.63293e-05
2.63293e-05
2.5407e-05
2.54069e-05
2.54069e-05
2.54069e-05
2.31627e-05
2.70017e-05
2.60433e-05
2.51817e-05
2.37458e-05
2.69213e-05
2.5711e-05
7.70046e-05
7.62878e-05
2.31633e-05
2.60431e-05
2.70019e-05
2.51817e-05
2.37452e-05
2.5711e-05
2.69215e-05
3.31849e-05
3.31871e-05
2.43172e-05
3.39207e-05
3.3923e-05
2.79128e-05
6.92985e-05
2.79263e-05
6.92713e-05
7.50708e-05
7.45366e-05
2.79131e-05
6.92997e-05
2.79266e-05
6.92723e-05
2.51097e-05
2.51096e-05
2.51096e-05
2.42473e-05
2.42472e-05
2.42471e-05
2.42471e-05
2.18457e-05
2.6934e-05
2.47477e-05
2.38636e-05
2.23364e-05
2.6982e-05
2.44375e-05
7.50723e-05
7.45352e-05
2.18462e-05
2.47475e-05
2.69343e-05
2.38635e-05
2.23359e-05
2.44374e-05
2.69822e-05
3.51846e-05
3.51879e-05
2.29395e-05
3.60297e-05
3.60328e-05
2.81573e-05
6.91975e-05
2.80302e-05
6.91655e-05
7.36069e-05
7.32116e-05
2.81577e-05
6.91984e-05
2.80305e-05
6.91663e-05
2.39694e-05
2.39693e-05
2.39693e-05
2.31636e-05
2.31636e-05
2.31635e-05
2.31635e-05
2.07998e-05
2.71993e-05
2.35398e-05
2.26571e-05
2.11947e-05
2.73545e-05
2.32509e-05
7.36069e-05
7.32117e-05
2.08e-05
2.35396e-05
2.71996e-05
2.2657e-05
2.11943e-05
2.32508e-05
2.73548e-05
3.74315e-05
3.74357e-05
2.17182e-05
3.83433e-05
3.83484e-05
2.88239e-05
6.91159e-05
2.85531e-05
6.91052e-05
7.25273e-05
7.22418e-05
2.88248e-05
6.91165e-05
2.85534e-05
6.91057e-05
2.29042e-05
2.29041e-05
2.29041e-05
2.21523e-05
2.21522e-05
2.21521e-05
2.21521e-05
2.00269e-05
2.77789e-05
2.24159e-05
2.15607e-05
2.03177e-05
2.80338e-05
2.21479e-05
7.25273e-05
7.22419e-05
2.0027e-05
2.24157e-05
2.77792e-05
2.15606e-05
2.03175e-05
2.21477e-05
2.80342e-05
3.98134e-05
3.98186e-05
2.06484e-05
4.07578e-05
4.07639e-05
2.9937e-05
6.91037e-05
2.94688e-05
6.91187e-05
7.17499e-05
7.15485e-05
2.99379e-05
6.91042e-05
2.94687e-05
6.91191e-05
2.19104e-05
2.19103e-05
2.19103e-05
2.12099e-05
2.12099e-05
2.12097e-05
2.12097e-05
1.95207e-05
2.86481e-05
2.13757e-05
2.05719e-05
1.97021e-05
2.89924e-05
2.11286e-05
7.17499e-05
7.15486e-05
1.95209e-05
2.13755e-05
2.86485e-05
2.05718e-05
1.97021e-05
2.11285e-05
2.89929e-05
4.22357e-05
4.22416e-05
1.97224e-05
4.31764e-05
4.31838e-05
3.14478e-05
6.91543e-05
3.08003e-05
6.91916e-05
7.12011e-05
7.10618e-05
3.14486e-05
6.91547e-05
3.08004e-05
6.9192e-05
2.09849e-05
2.09848e-05
2.09847e-05
2.03324e-05
2.03324e-05
2.03322e-05
2.03322e-05
1.92791e-05
2.97725e-05
2.04188e-05
1.96878e-05
1.93508e-05
3.01932e-05
2.0192e-05
7.12012e-05
7.10618e-05
1.92793e-05
2.04185e-05
2.9773e-05
1.96877e-05
1.93509e-05
2.01919e-05
3.01939e-05
4.46125e-05
4.46198e-05
1.89331e-05
4.55212e-05
4.55294e-05
3.33261e-05
6.92496e-05
3.25309e-05
6.92968e-05
7.08182e-05
7.07218e-05
3.33269e-05
6.925e-05
3.25311e-05
6.92971e-05
2.01225e-05
2.01224e-05
2.01224e-05
1.95164e-05
1.95164e-05
1.95162e-05
1.95162e-05
1.92969e-05
3.11112e-05
1.95421e-05
1.89066e-05
1.92655e-05
3.15935e-05
1.9335e-05
7.08182e-05
7.07219e-05
1.92971e-05
1.95418e-05
3.11119e-05
1.89065e-05
1.92657e-05
1.93348e-05
3.15942e-05
4.68736e-05
4.68813e-05
1.82748e-05
4.7727e-05
4.77362e-05
3.5525e-05
6.93612e-05
3.46092e-05
6.94089e-05
7.05492e-05
7.04816e-05
3.55259e-05
6.93616e-05
3.46092e-05
6.94093e-05
1.93223e-05
1.93221e-05
1.93221e-05
1.87623e-05
1.87622e-05
1.87621e-05
1.87621e-05
1.95658e-05
3.26176e-05
1.87428e-05
1.82249e-05
1.94486e-05
3.31445e-05
1.85546e-05
7.05492e-05
7.04818e-05
1.95661e-05
1.87426e-05
3.26183e-05
1.82249e-05
1.94488e-05
1.85545e-05
3.31452e-05
4.89658e-05
4.8974e-05
1.77488e-05
4.97496e-05
4.97595e-05
3.79651e-05
6.94708e-05
3.69621e-05
6.95147e-05
7.03547e-05
7.0305e-05
3.7966e-05
6.94712e-05
3.69621e-05
6.95153e-05
1.85832e-05
1.8583e-05
1.8583e-05
1.80672e-05
1.80672e-05
1.8067e-05
1.8067e-05
2.00905e-05
3.42399e-05
1.80184e-05
1.76396e-05
1.98888e-05
3.47938e-05
1.78486e-05
7.03547e-05
7.03052e-05
2.00908e-05
1.80182e-05
3.42406e-05
1.76396e-05
1.9889e-05
1.78484e-05
3.47946e-05
5.08576e-05
5.08665e-05
1.73593e-05
5.15671e-05
5.15772e-05
4.05445e-05
6.95712e-05
3.94959e-05
6.96109e-05
7.02054e-05
7.01664e-05
4.05452e-05
6.95716e-05
3.94958e-05
6.96115e-05
1.79026e-05
1.79025e-05
1.79025e-05
1.7429e-05
1.7429e-05
1.74288e-05
1.74288e-05
2.08639e-05
3.59261e-05
1.73665e-05
1.71495e-05
2.05806e-05
3.64905e-05
1.72146e-05
7.02057e-05
7.01666e-05
2.08643e-05
1.73663e-05
3.59267e-05
1.71495e-05
2.0581e-05
1.72145e-05
3.64912e-05
5.25408e-05
5.25499e-05
1.71031e-05
5.31723e-05
5.31824e-05
4.31507e-05
6.96622e-05
4.21001e-05
6.96986e-05
7.00831e-05
7.00503e-05
4.31514e-05
6.96627e-05
4.20999e-05
6.96993e-05
1.72783e-05
1.72782e-05
1.72782e-05
1.68454e-05
1.68454e-05
1.68453e-05
1.68453e-05
2.18726e-05
3.7628e-05
1.67864e-05
1.67537e-05
2.15133e-05
3.81881e-05
1.66521e-05
7.00833e-05
7.00503e-05
2.18731e-05
1.67863e-05
3.76285e-05
1.67537e-05
2.15137e-05
1.6652e-05
3.81888e-05
5.40181e-05
5.40274e-05
1.698e-05
5.45762e-05
5.45861e-05
4.56733e-05
6.97461e-05
4.46629e-05
6.97802e-05
6.99764e-05
6.99472e-05
4.56739e-05
6.97467e-05
4.46628e-05
6.9781e-05
1.67081e-05
1.6708e-05
1.6708e-05
1.6315e-05
1.6315e-05
1.63149e-05
1.63149e-05
2.30952e-05
3.93039e-05
1.62758e-05
1.64515e-05
2.26679e-05
3.98476e-05
1.61585e-05
6.99766e-05
6.99472e-05
2.30958e-05
1.62756e-05
3.93044e-05
1.64515e-05
2.26685e-05
1.61584e-05
3.98483e-05
5.53076e-05
5.53171e-05
1.69896e-05
5.57952e-05
5.58049e-05
4.8022e-05
6.98252e-05
4.7084e-05
6.98576e-05
6.98795e-05
6.98527e-05
4.80224e-05
6.98259e-05
4.70838e-05
6.98585e-05
1.61908e-05
1.61907e-05
1.61908e-05
1.58357e-05
1.58357e-05
1.58356e-05
1.58357e-05
2.45003e-05
4.09203e-05
1.58331e-05
1.6243e-05
2.40167e-05
4.14385e-05
1.57327e-05
6.98796e-05
6.98527e-05
2.4501e-05
1.5833e-05
4.09208e-05
1.62431e-05
2.40173e-05
1.57326e-05
4.14392e-05
5.64299e-05
5.64393e-05
1.71257e-05
5.68541e-05
5.68637e-05
5.01325e-05
6.99004e-05
4.92905e-05
6.99313e-05
6.97899e-05
6.97649e-05
5.01327e-05
6.99012e-05
4.92902e-05
6.99322e-05
1.57239e-05
1.57238e-05
1.57239e-05
1.54057e-05
1.54057e-05
1.54056e-05
1.54057e-05
2.60481e-05
4.24529e-05
1.5458e-05
1.61281e-05
2.55222e-05
4.29395e-05
1.53744e-05
6.97897e-05
6.97648e-05
2.6049e-05
1.5458e-05
4.24533e-05
1.61282e-05
2.5523e-05
1.53744e-05
4.29402e-05
5.74064e-05
5.74157e-05
1.73907e-05
5.77765e-05
5.7786e-05
5.19727e-05
6.99713e-05
5.12391e-05
7.00001e-05
6.97059e-05
6.9683e-05
5.19726e-05
6.99722e-05
5.1239e-05
7.00011e-05
1.53058e-05
1.53058e-05
1.53058e-05
2.76935e-05
4.38867e-05
1.51504e-05
1.61089e-05
2.71407e-05
4.43384e-05
1.50835e-05
6.97059e-05
2.76945e-05
1.51504e-05
4.38827e-05
2.71416e-05
1.50835e-05
5.82588e-05
5.82681e-05
1.77826e-05
5.85833e-05
5.85928e-05
3.73714e-05
3.72958e-05
3.72959e-05
5.31077e-05
3.71932e-05
5.31099e-05
3.71933e-05
3.70971e-05
3.72392e-05
3.72387e-05
3.71762e-05
3.71762e-05
3.73695e-05
3.73756e-05
3.73042e-05
3.73764e-05
3.73695e-05
3.73756e-05
3.73042e-05
3.73764e-05
3.71731e-05
3.94089e-05
3.7168e-05
3.67245e-05
3.71731e-05
3.9409e-05
3.7168e-05
3.67242e-05
3.70969e-05
3.71056e-05
3.60251e-05
3.62911e-05
3.71635e-05
3.71112e-05
3.63053e-05
3.70969e-05
3.71056e-05
3.60253e-05
3.62911e-05
3.71635e-05
3.71112e-05
3.63053e-05
3.73714e-05
3.72958e-05
3.72959e-05
5.3109e-05
3.71932e-05
3.70971e-05
3.72392e-05
3.72382e-05
3.71762e-05
3.71762e-05
5.31102e-05
3.71932e-05
3.73695e-05
3.73756e-05
3.73042e-05
3.73764e-05
3.73695e-05
3.73756e-05
3.73764e-05
3.73043e-05
3.71731e-05
3.94096e-05
3.7168e-05
3.67245e-05
3.70969e-05
3.71056e-05
3.60249e-05
3.62911e-05
3.71635e-05
3.71112e-05
3.63053e-05
3.71731e-05
3.94095e-05
3.7168e-05
3.67243e-05
3.70969e-05
3.71056e-05
3.62911e-05
3.60247e-05
3.71112e-05
3.71635e-05
3.63053e-05
3.73769e-05
3.73764e-05
3.73767e-05
3.73767e-05
3.73769e-05
3.73764e-05
3.73767e-05
3.73767e-05
3.73769e-05
3.73764e-05
3.73767e-05
3.73767e-05
3.71135e-05
3.71094e-05
3.62924e-05
3.62924e-05
3.71126e-05
3.71126e-05
3.62946e-05
3.71135e-05
3.71094e-05
3.62924e-05
3.62924e-05
3.71126e-05
3.71126e-05
3.62946e-05
3.71135e-05
3.71094e-05
3.62924e-05
3.62924e-05
3.71126e-05
3.71126e-05
3.62946e-05
3.71135e-05
3.71094e-05
3.62924e-05
3.62924e-05
3.71126e-05
3.71126e-05
3.62946e-05
3.73694e-05
3.73756e-05
3.73764e-05
3.73043e-05
3.70969e-05
3.71056e-05
3.60247e-05
3.62911e-05
3.71635e-05
3.71112e-05
3.63052e-05
3.71731e-05
3.94098e-05
3.7168e-05
3.67245e-05
3.70969e-05
3.71056e-05
3.62911e-05
3.6025e-05
3.71112e-05
3.71635e-05
3.63052e-05
3.71731e-05
3.94095e-05
3.7168e-05
3.67243e-05
3.73714e-05
3.72959e-05
3.72959e-05
5.31106e-05
3.71933e-05
3.70971e-05
3.72384e-05
3.72384e-05
3.71762e-05
3.71762e-05
5.311e-05
3.71932e-05
3.73695e-05
3.73756e-05
3.73764e-05
3.73043e-05
3.70969e-05
3.71056e-05
3.62911e-05
3.6025e-05
3.71112e-05
3.71635e-05
3.63053e-05
3.70969e-05
3.71056e-05
3.62911e-05
3.60251e-05
3.71112e-05
3.71635e-05
3.63053e-05
3.71731e-05
3.94096e-05
3.7168e-05
3.67246e-05
3.71731e-05
3.941e-05
3.7168e-05
3.67245e-05
3.70971e-05
3.72392e-05
3.72392e-05
3.71762e-05
3.71762e-05
5.3111e-05
3.71933e-05
5.31115e-05
3.71933e-05
5.51085e-05
6.48866e-05
5.51106e-05
6.48892e-05
3.65939e-05
3.65954e-05
3.52782e-05
3.40672e-05
3.4066e-05
7.47268e-05
6.7665e-05
7.47304e-05
6.76688e-05
3.49723e-05
3.20468e-05
3.20445e-05
3.34736e-05
3.34752e-05
3.58829e-05
4.08673e-05
3.66008e-05
4.51418e-05
3.52764e-05
3.5638e-05
3.60241e-05
3.53761e-05
3.60478e-05
3.42434e-05
3.53827e-05
3.52764e-05
3.56378e-05
3.60241e-05
3.53761e-05
3.60477e-05
3.42434e-05
3.53827e-05
3.56373e-05
5.02094e-05
4.6449e-05
3.48989e-05
3.5637e-05
5.02127e-05
4.64491e-05
3.48987e-05
3.50001e-05
3.48708e-05
3.27402e-05
3.44014e-05
3.38708e-05
3.48856e-05
3.41809e-05
3.5e-05
3.48708e-05
3.27402e-05
3.44014e-05
3.38704e-05
3.48856e-05
3.41808e-05
3.65948e-05
3.65954e-05
3.52783e-05
3.40671e-05
3.40655e-05
5.51108e-05
6.48891e-05
7.47291e-05
6.76672e-05
3.49723e-05
3.20465e-05
3.20449e-05
3.34742e-05
3.34754e-05
7.47292e-05
6.76682e-05
3.52765e-05
3.5638e-05
3.60241e-05
3.53761e-05
3.60478e-05
3.42428e-05
3.53827e-05
3.58833e-05
4.08688e-05
3.66005e-05
4.51411e-05
3.52764e-05
3.60241e-05
3.56382e-05
3.53761e-05
3.60477e-05
3.53827e-05
3.42428e-05
3.56367e-05
5.02125e-05
4.64491e-05
3.48994e-05
3.5e-05
3.48708e-05
3.27391e-05
3.44014e-05
3.38709e-05
3.48856e-05
3.41809e-05
3.56363e-05
5.0213e-05
4.64511e-05
3.48991e-05
3.5e-05
3.48708e-05
3.44014e-05
3.27391e-05
3.48856e-05
3.38708e-05
3.41808e-05
3.58826e-05
4.08675e-05
3.66012e-05
4.51409e-05
3.52764e-05
3.60241e-05
3.56381e-05
3.53762e-05
3.60478e-05
3.53827e-05
3.42432e-05
3.58828e-05
4.08689e-05
3.66007e-05
4.51402e-05
3.50003e-05
3.48708e-05
3.27394e-05
3.44014e-05
3.3871e-05
3.48856e-05
3.41807e-05
3.56377e-05
5.02116e-05
4.64493e-05
3.48978e-05
3.50001e-05
3.48708e-05
3.44014e-05
3.27404e-05
3.48856e-05
3.38707e-05
3.41808e-05
3.5637e-05
5.02126e-05
4.64516e-05
3.48983e-05
3.65956e-05
3.65947e-05
3.52783e-05
3.40661e-05
3.40665e-05
5.51109e-05
6.48886e-05
7.47305e-05
6.76702e-05
3.49723e-05
3.20447e-05
3.20457e-05
3.34745e-05
3.34744e-05
7.47289e-05
6.7668e-05
3.52764e-05
3.60241e-05
3.56381e-05
3.53761e-05
3.60478e-05
3.53827e-05
3.42431e-05
3.58831e-05
4.08677e-05
3.6601e-05
4.51407e-05
3.5883e-05
4.08686e-05
3.66007e-05
4.51426e-05
3.50002e-05
3.48708e-05
3.44014e-05
3.274e-05
3.48856e-05
3.38707e-05
3.41808e-05
3.5e-05
3.48708e-05
3.44014e-05
3.27398e-05
3.48856e-05
3.38708e-05
3.41808e-05
3.56372e-05
5.02108e-05
4.64491e-05
3.48986e-05
3.56369e-05
5.02127e-05
4.64515e-05
3.48993e-05
5.51118e-05
6.48898e-05
5.51124e-05
6.48907e-05
3.49723e-05
3.20471e-05
3.20454e-05
3.34742e-05
3.34743e-05
7.47305e-05
6.76693e-05
7.47312e-05
6.76709e-05
7.65417e-05
8.08591e-05
7.65458e-05
8.08621e-05
3.17209e-05
3.17218e-05
3.32624e-05
3.09278e-05
3.0925e-05
8.40045e-05
8.18473e-05
8.40073e-05
8.18521e-05
3.29533e-05
3.03113e-05
3.03091e-05
3.07476e-05
3.07485e-05
3.39695e-05
5.13498e-05
3.46831e-05
5.46225e-05
3.30548e-05
3.24822e-05
3.3929e-05
3.34061e-05
3.38968e-05
3.15846e-05
3.34673e-05
3.30547e-05
3.2482e-05
3.3929e-05
3.34061e-05
3.38967e-05
3.15843e-05
3.34673e-05
3.37813e-05
5.83638e-05
5.55936e-05
3.30857e-05
3.37805e-05
5.83666e-05
5.55945e-05
3.30852e-05
3.27695e-05
3.29327e-05
3.06568e-05
3.2572e-05
3.13982e-05
3.30152e-05
3.19187e-05
3.27693e-05
3.29326e-05
3.06566e-05
3.2572e-05
3.13975e-05
3.30152e-05
3.19185e-05
3.17217e-05
3.17226e-05
3.32625e-05
3.09275e-05
3.09255e-05
7.65441e-05
8.08605e-05
8.40069e-05
8.18501e-05
3.29533e-05
3.03109e-05
3.03098e-05
3.07479e-05
3.07498e-05
8.40057e-05
8.18504e-05
3.30548e-05
3.24824e-05
3.3929e-05
3.34062e-05
3.38967e-05
3.15827e-05
3.34673e-05
3.39705e-05
5.13519e-05
3.46826e-05
5.4624e-05
3.30547e-05
3.3929e-05
3.24819e-05
3.34061e-05
3.38966e-05
3.34673e-05
3.15834e-05
3.37802e-05
5.83674e-05
5.55952e-05
3.30854e-05
3.27695e-05
3.29327e-05
3.06554e-05
3.2572e-05
3.13987e-05
3.30152e-05
3.19186e-05
3.37797e-05
5.83684e-05
5.55964e-05
3.3085e-05
3.27693e-05
3.29326e-05
3.2572e-05
3.06561e-05
3.30152e-05
3.13975e-05
3.19184e-05
3.39688e-05
5.13503e-05
3.46851e-05
5.46218e-05
3.30547e-05
3.3929e-05
3.24821e-05
3.34062e-05
3.38968e-05
3.34673e-05
3.15846e-05
3.397e-05
5.13516e-05
3.4684e-05
5.46234e-05
3.27699e-05
3.29328e-05
3.0656e-05
3.2572e-05
3.1399e-05
3.30153e-05
3.19185e-05
3.37829e-05
5.83669e-05
5.55947e-05
3.30835e-05
3.27695e-05
3.29327e-05
3.2572e-05
3.06568e-05
3.30152e-05
3.13977e-05
3.19185e-05
3.37808e-05
5.8368e-05
5.55961e-05
3.30853e-05
3.17215e-05
3.17218e-05
3.32624e-05
3.09259e-05
3.09267e-05
7.65444e-05
8.08613e-05
8.40078e-05
8.1852e-05
3.29533e-05
3.03105e-05
3.03101e-05
3.07476e-05
3.07483e-05
8.40062e-05
8.18501e-05
3.30547e-05
3.3929e-05
3.2482e-05
3.34062e-05
3.38967e-05
3.34673e-05
3.1584e-05
3.39695e-05
5.13507e-05
3.46843e-05
5.46216e-05
3.39702e-05
5.13534e-05
3.4683e-05
5.46236e-05
3.27697e-05
3.29328e-05
3.2572e-05
3.06567e-05
3.30152e-05
3.13981e-05
3.19186e-05
3.27694e-05
3.29328e-05
3.2572e-05
3.06566e-05
3.30152e-05
3.1398e-05
3.19185e-05
3.37823e-05
5.83666e-05
5.55946e-05
3.30838e-05
3.37803e-05
5.83692e-05
5.55973e-05
3.30853e-05
7.65456e-05
8.08626e-05
7.65475e-05
8.08634e-05
3.29533e-05
3.03117e-05
3.03108e-05
3.0748e-05
3.07478e-05
8.40074e-05
8.1851e-05
8.40082e-05
8.18525e-05
8.43904e-05
8.50671e-05
8.43942e-05
8.50698e-05
3.02182e-05
3.02177e-05
3.12714e-05
3.00045e-05
3.00035e-05
8.48435e-05
8.50717e-05
8.48454e-05
8.50742e-05
3.09593e-05
2.99295e-05
2.99286e-05
2.99697e-05
2.99687e-05
3.22511e-05
5.91657e-05
3.29218e-05
6.14381e-05
3.07893e-05
3.05181e-05
3.21369e-05
3.15513e-05
3.16366e-05
2.98912e-05
3.17094e-05
3.07891e-05
3.05178e-05
3.21369e-05
3.15511e-05
3.16364e-05
2.98908e-05
3.17094e-05
3.21121e-05
6.38686e-05
6.20684e-05
3.14721e-05
3.21116e-05
6.38701e-05
6.20694e-05
3.14717e-05
3.05135e-05
3.11034e-05
2.92404e-05
3.08756e-05
2.97792e-05
3.12891e-05
2.96796e-05
3.05132e-05
3.11033e-05
2.924e-05
3.08755e-05
2.97789e-05
3.1289e-05
2.96794e-05
3.02184e-05
3.0219e-05
3.12713e-05
3.00042e-05
3.00043e-05
8.43927e-05
8.50686e-05
8.48446e-05
8.50732e-05
3.09593e-05
2.99294e-05
2.99293e-05
2.99697e-05
2.99696e-05
8.48446e-05
8.50731e-05
3.07892e-05
3.05181e-05
3.21369e-05
3.15513e-05
3.16365e-05
2.98907e-05
3.17094e-05
3.22511e-05
5.9168e-05
3.29216e-05
6.144e-05
3.0789e-05
3.21369e-05
3.05174e-05
3.15511e-05
3.16363e-05
3.17094e-05
2.98905e-05
3.2112e-05
6.38714e-05
6.20709e-05
3.14721e-05
3.05134e-05
3.11035e-05
2.924e-05
3.08755e-05
2.97788e-05
3.12891e-05
2.96795e-05
3.21116e-05
6.3872e-05
6.20718e-05
3.14717e-05
3.05132e-05
3.11032e-05
3.08755e-05
2.92397e-05
3.1289e-05
2.97786e-05
2.96792e-05
3.225e-05
5.91663e-05
3.29249e-05
6.14387e-05
3.07891e-05
3.21369e-05
3.0518e-05
3.15512e-05
3.16366e-05
3.17094e-05
2.9891e-05
3.22514e-05
5.91674e-05
3.29222e-05
6.14396e-05
3.05139e-05
3.11036e-05
2.92404e-05
3.08756e-05
2.97793e-05
3.12891e-05
2.96794e-05
3.21138e-05
6.3871e-05
6.20703e-05
3.14717e-05
3.05135e-05
3.11034e-05
3.08755e-05
2.92402e-05
3.12891e-05
2.97791e-05
2.96793e-05
3.2112e-05
6.38715e-05
6.20711e-05
3.1472e-05
3.02179e-05
3.02188e-05
3.12713e-05
3.00038e-05
3.00036e-05
8.43925e-05
8.50685e-05
8.48451e-05
8.50739e-05
3.09593e-05
2.99292e-05
2.99291e-05
2.99693e-05
2.99699e-05
8.48444e-05
8.5073e-05
3.07891e-05
3.21369e-05
3.05179e-05
3.15513e-05
3.16364e-05
3.17094e-05
2.9891e-05
3.22506e-05
5.91663e-05
3.29242e-05
6.14384e-05
3.22513e-05
5.91688e-05
3.2922e-05
6.14408e-05
3.05136e-05
3.11036e-05
3.08756e-05
2.92403e-05
3.12891e-05
2.97792e-05
2.96796e-05
3.05132e-05
3.11035e-05
3.08755e-05
2.92402e-05
3.1289e-05
2.97791e-05
2.96794e-05
3.21131e-05
6.38706e-05
6.20703e-05
3.14726e-05
3.21119e-05
6.38726e-05
6.20726e-05
3.1472e-05
8.43934e-05
8.50694e-05
8.43944e-05
8.50699e-05
3.09593e-05
2.99298e-05
2.99295e-05
2.99699e-05
2.99697e-05
8.4845e-05
8.50737e-05
8.48452e-05
8.50741e-05
8.46115e-05
8.39121e-05
8.46132e-05
8.39131e-05
2.99403e-05
2.99394e-05
2.93463e-05
3.00344e-05
3.00337e-05
8.2624e-05
8.3549e-05
8.26243e-05
8.35499e-05
2.90385e-05
3.03187e-05
3.03186e-05
3.01069e-05
3.01063e-05
3.07522e-05
6.43463e-05
3.1349e-05
6.57243e-05
2.86002e-05
2.9145e-05
3.04685e-05
2.97976e-05
2.94124e-05
2.8678e-05
3.00678e-05
2.86e-05
2.91446e-05
3.04685e-05
2.97974e-05
2.94121e-05
2.86776e-05
3.00677e-05
3.06413e-05
6.70813e-05
6.60666e-05
3.00983e-05
3.0641e-05
6.7082e-05
6.60672e-05
3.0098e-05
2.83436e-05
2.93754e-05
2.81933e-05
2.92845e-05
2.85967e-05
2.96732e-05
2.75605e-05
2.83433e-05
2.93753e-05
2.8193e-05
2.92844e-05
2.85964e-05
2.96731e-05
2.75602e-05
2.99403e-05
2.99402e-05
2.93463e-05
3.00345e-05
3.00343e-05
8.46124e-05
8.39128e-05
8.2625e-05
8.35487e-05
2.90385e-05
3.03202e-05
3.03176e-05
3.01071e-05
3.01069e-05
8.26243e-05
8.35496e-05
2.86001e-05
2.91446e-05
3.04685e-05
2.97978e-05
2.94122e-05
2.86776e-05
3.00678e-05
3.07523e-05
6.43488e-05
3.1349e-05
6.57261e-05
2.85998e-05
3.04685e-05
2.91444e-05
2.97974e-05
2.9412e-05
3.00677e-05
2.86774e-05
3.06414e-05
6.70839e-05
6.60694e-05
3.00985e-05
2.83434e-05
2.93756e-05
2.8193e-05
2.92844e-05
2.85963e-05
2.96731e-05
2.75603e-05
3.06411e-05
6.70836e-05
6.60695e-05
3.00981e-05
2.83432e-05
2.93752e-05
2.92843e-05
2.81928e-05
2.9673e-05
2.85961e-05
2.75601e-05
3.07523e-05
6.43476e-05
3.13498e-05
6.57254e-05
2.85999e-05
3.04685e-05
2.91448e-05
2.97976e-05
2.94123e-05
3.00678e-05
2.86777e-05
3.07525e-05
6.43481e-05
3.13493e-05
6.57256e-05
2.83439e-05
2.93758e-05
2.81932e-05
2.92845e-05
2.85967e-05
2.96732e-05
2.75601e-05
3.06416e-05
6.70834e-05
6.60687e-05
3.0098e-05
2.83435e-05
2.93754e-05
2.92844e-05
2.8193e-05
2.96731e-05
2.85964e-05
2.75601e-05
3.06413e-05
6.70833e-05
6.6069e-05
3.00983e-05
2.99402e-05
2.99405e-05
2.93462e-05
3.00344e-05
3.00343e-05
8.46126e-05
8.39121e-05
8.26237e-05
8.35499e-05
2.90384e-05
3.03181e-05
3.03178e-05
3.01071e-05
3.01073e-05
8.26238e-05
8.35497e-05
2.86e-05
3.04685e-05
2.91449e-05
2.97977e-05
2.94121e-05
3.00677e-05
2.86779e-05
3.0753e-05
6.43475e-05
3.13498e-05
6.5725e-05
3.07525e-05
6.43495e-05
3.13493e-05
6.57266e-05
2.83436e-05
2.93757e-05
2.92845e-05
2.81933e-05
2.96732e-05
2.85967e-05
2.75605e-05
2.83432e-05
2.93756e-05
2.92844e-05
2.81933e-05
2.96731e-05
2.85966e-05
2.75602e-05
3.06418e-05
6.7083e-05
6.60686e-05
3.00987e-05
3.06413e-05
6.70841e-05
6.60702e-05
3.00983e-05
8.46128e-05
8.39131e-05
8.46132e-05
8.39124e-05
2.90383e-05
3.03192e-05
3.03184e-05
3.01073e-05
3.01075e-05
8.26246e-05
8.35498e-05
8.26237e-05
8.35499e-05
8.22136e-05
8.1222e-05
8.22139e-05
8.12217e-05
3.04402e-05
3.04397e-05
2.75308e-05
3.0781e-05
3.07813e-05
7.9836e-05
8.08051e-05
7.98353e-05
8.08049e-05
2.72364e-05
3.13904e-05
3.13911e-05
3.09271e-05
3.09271e-05
2.9517e-05
6.73148e-05
2.99992e-05
6.80308e-05
2.65672e-05
2.81252e-05
2.89017e-05
2.81491e-05
2.73162e-05
2.77834e-05
2.85246e-05
2.6567e-05
2.81249e-05
2.89016e-05
2.81488e-05
2.73159e-05
2.77832e-05
2.85245e-05
2.9432e-05
6.86557e-05
6.81773e-05
2.90168e-05
2.94317e-05
6.86557e-05
6.81772e-05
2.90165e-05
2.63374e-05
2.77539e-05