/*--------------------------------*- C++ -*----------------------------------*\
| =========                 |                                                 |
| \\      /  F ield         | OpenFOAM: The Open Source CFD Toolbox           |
|  \\    /   O peration     | Version:  2312                                  |
|   \\  /    A nd           | Website:  www.openfoam.com                      |
|    \\/     M anipulation  |                                                 |
\*---------------------------------------------------------------------------*/
FoamFile
{
    version     2.0;
    format      ascii;
    arch        "LSB;label=32;scalar=64";
    class       volScalarField;
    location    "750";
    object      nut;
}
// * * * * * * * * * * * * * * * * * * * * * * * * * * * * * * * * * * * * * //

dimensions      [0 2 -1 0 0 0 0];

internalField   nonuniform List<scalar> 
43211
(
0.000233969
0.000233549
0.000233549
0.00023345
0.000232529
0.000227583
0.000227583
0.000223835
0.000230489
0.000220163
0.000220162
0.00020903
0.00022776
0.000211546
0.000211544
0.0001937
0.00022439
0.000202555
0.000202552
0.00017963
0.000220508
0.000193694
0.000193691
0.000167269
0.000216261
0.00018521
0.000185206
0.000156525
0.000211779
0.000177178
0.000177173
0.000147151
0.000207168
0.000169639
0.000169635
0.000138902
0.000202509
0.000162568
0.000162563
0.000131572
0.000197856
0.000155911
0.000155906
0.000124915
0.000193244
0.000149612
0.000149607
0.000118782
0.000188654
0.000143634
0.000143629
0.000113137
0.000184124
0.000137923
0.000137919
0.000107905
0.000179681
0.000132436
0.000132432
0.000103031
0.000175315
0.000127165
0.00012716
9.8413e-05
0.000171014
0.000122126
0.000122122
9.42301e-05
0.000166765
0.000117347
0.000117343
9.06404e-05
0.000162569
0.000112865
0.000112861
8.77142e-05
0.000158398
0.000108734
0.00010873
8.53683e-05
0.000154248
0.000105005
0.000105002
8.36532e-05
0.000234257
0.000234459
0.00023446
0.000234257
0.000234459
0.000234459
0.000234259
0.000234259
0.000234259
0.000234259
0.000234458
0.000234459
0.000234257
0.000234458
0.000234459
0.000234257
0.00023345
0.00022618
0.000233549
0.000233548
0.000229126
0.000229122
0.00023345
0.00022618
0.000233548
0.000233548
0.000229124
0.000229121
0.000233549
0.000229129
0.000229127
0.00023345
0.000226179
0.000233548
0.000229129
0.000229124
0.000226178
0.000223836
0.000212153
0.00022758
0.000227575
0.000222162
0.000222156
0.000223835
0.000212153
0.000227578
0.000227574
0.000222162
0.000222155
0.000227579
0.000222168
0.000222161
0.000223836
0.00021215
0.000227578
0.000222167
0.000222161
0.000212146
0.000209033
0.000196981
0.000220156
0.00022015
0.000213753
0.000213746
0.000209032
0.000196979
0.000220157
0.000220148
0.000213758
0.000213744
0.000220154
0.000213762
0.00021375
0.000209031
0.000196976
0.000220156
0.000213761
0.000213754
0.00019697
0.000193708
0.000182805
0.000211535
0.000211528
0.000204791
0.000204784
0.000193707
0.000182802
0.000211541
0.000211526
0.0002048
0.000204781
0.000211531
0.000204804
0.000204786
0.000193704
0.000182798
0.000211537
0.000204802
0.000204795
0.000182792
0.000179641
0.000170207
0.000202541
0.000202534
0.000195864
0.000195857
0.000179639
0.000170204
0.000202551
0.000202531
0.000195876
0.000195853
0.000202536
0.000195879
0.000195858
0.000179635
0.000170199
0.000202545
0.000195877
0.000195869
0.000170192
0.000167283
0.000159191
0.000193677
0.00019367
0.000187271
0.000187264
0.00016728
0.000159187
0.000193691
0.000193666
0.000187287
0.00018726
0.000193671
0.000187289
0.000187264
0.000167275
0.000159182
0.000193684
0.000187286
0.000187279
0.000159174
0.00015654
0.00014957
0.00018519
0.000185183
0.000179118
0.000179111
0.000156537
0.000149566
0.000185206
0.000185179
0.000179137
0.000179106
0.000185183
0.000179138
0.000179111
0.000156531
0.000149559
0.000185198
0.000179135
0.000179128
0.000149552
0.000147168
0.00014107
0.000177155
0.000177148
0.000171454
0.000171447
0.000147164
0.000141066
0.000177175
0.000177144
0.000171475
0.000171442
0.000177148
0.000171477
0.000171447
0.000147158
0.000141059
0.000177166
0.000171473
0.000171466
0.000141051
0.000138919
0.000133516
0.000169614
0.000169607
0.000164268
0.000164261
0.000138915
0.000133512
0.000169637
0.000169603
0.000164292
0.000164256
0.000169608
0.000164294
0.000164262
0.000138909
0.000133505
0.000169628
0.00016429
0.000164283
0.000133497
0.00013159
0.000126659
0.000162541
0.000162534
0.000157511
0.000157503
0.000131586
0.000126656
0.000162566
0.000162529
0.000157537
0.000157498
0.000162534
0.000157538
0.000157504
0.000131579
0.000126648
0.000162556
0.000157535
0.000157528
0.00012664
0.000124934
0.000120339
0.000155881
0.000155874
0.000151126
0.000151118
0.000124929
0.000120336
0.000155909
0.00015587
0.000151154
0.000151114
0.000155875
0.000151155
0.00015112
0.000124922
0.000120328
0.000155899
0.000151152
0.000151145
0.000120319
0.000118799
0.000114408
0.000149581
0.000149573
0.000145068
0.00014506
0.000118795
0.000114402
0.00014961
0.00014957
0.000145098
0.000145056
0.000149575
0.000145099
0.000145062
0.000118788
0.000114395
0.0001496
0.000145095
0.000145088
0.000114386
0.000113154
0.000108821
0.000143602
0.000143594
0.000139294
0.000139286
0.000113151
0.000108815
0.000143632
0.00014359
0.000139324
0.000139282
0.000143596
0.000139326
0.000139289
0.000113144
0.000108808
0.000143622
0.000139322
0.000139315
0.0001088
0.000107922
0.000103689
0.00013789
0.000137882
0.000133754
0.000133745
0.000107918
0.000103684
0.000137921
0.000137879
0.000133784
0.000133741
0.000137885
0.000133786
0.000133749
0.000107911
0.000103676
0.000137911
0.000133783
0.000133775
0.000103669
0.000103049
9.91151e-05
0.000132403
0.000132394
0.000128427
0.000128416
0.000103045
9.91105e-05
0.000132434
0.000132391
0.000128456
0.000128413
0.000132398
0.000128458
0.000128422
0.000103038
9.91037e-05
0.000132424
0.000128455
0.000128447
9.9097e-05
9.84305e-05
9.4978e-05
0.000127133
0.000127121
0.000123329
0.000123315
9.84255e-05
9.49731e-05
0.000127161
0.000127119
0.000123356
0.000123314
0.000127128
0.000123359
0.000123325
9.84191e-05
9.49672e-05
0.000127152
0.000123356
0.000123347
9.49606e-05
9.42468e-05
9.14251e-05
0.000122096
0.000122082
0.000118464
0.000118449
9.4241e-05
9.14207e-05
0.000122122
0.00012208
0.000118488
0.000118448
0.000122092
0.000118492
0.00011846
9.42357e-05
9.14155e-05
0.000122113
0.000118489
0.000118479
9.14088e-05
9.06557e-05
8.83688e-05
0.000117318
0.000117303
0.00011391
0.000113894
9.06494e-05
8.83636e-05
0.000117342
0.000117302
0.000113933
0.000113894
0.000117315
0.000113938
0.000113908
9.06456e-05
8.83587e-05
0.000117333
0.000113935
0.000113925
8.83542e-05
8.77279e-05
8.59007e-05
0.000112835
0.00011282
0.000109681
0.000109664
8.77226e-05
8.58957e-05
0.000112858
0.000112819
0.000109702
0.000109665
0.000112834
0.000109707
0.00010968
8.7718e-05
8.58919e-05
0.00011285
0.000109705
0.000109694
8.58873e-05
8.53805e-05
8.40618e-05
0.000108706
0.000108689
0.000105838
0.000105822
8.53758e-05
8.40575e-05
0.000108727
0.000108689
0.000105858
0.000105822
0.000108705
0.000105864
0.000105838
8.53718e-05
8.40535e-05
0.000108719
0.000105862
0.000105851
8.40495e-05
8.3664e-05
0.000104977
0.000104961
8.36604e-05
0.000104998
0.000104962
0.000104977
8.36562e-05
0.00010499
0.000234728
0.000234779
0.000234733
0.000234733
0.000235111
0.000234805
0.000234701
0.000234742
0.000235111
0.000234806
0.000234742
0.000234701
0.000234859
0.000233567
0.000233568
0.000104728
3.87616e-05
0.000129351
3.98355e-05
2.16916e-05
2.28358e-05
0.000104691
3.87576e-05
0.000129384
3.98323e-05
0.000233969
0.000233969
0.000233969
0.000232943
0.000232943
0.000232943
0.000232943
0.000206273
9.38644e-05
0.000233996
0.00023175
0.000222758
8.7317e-05
0.000233595
2.16909e-05
2.28351e-05
0.000206271
0.000233996
9.38632e-05
0.00023175
0.000222758
0.000233595
8.73208e-05
4.78467e-05
4.78372e-05
0.000231405
4.40453e-05
4.40307e-05
7.2548e-05
4.24352e-05
8.13597e-05
4.37631e-05
2.47743e-05
2.54623e-05
7.25339e-05
4.24302e-05
8.13687e-05
4.37595e-05
0.000232529
0.000232529
0.000232529
0.000231062
0.000231062
0.000231062
0.000231062
0.000167435
7.94465e-05
0.000232049
0.000225895
0.000180159
7.45126e-05
0.000231341
2.47741e-05
2.54617e-05
0.000167434
0.000232048
7.94402e-05
0.000225894
0.000180155
0.000231341
7.45165e-05
3.91546e-05
3.91479e-05
0.000219528
3.65674e-05
3.65591e-05
5.62743e-05
4.55474e-05
6.11171e-05
4.64133e-05
2.60122e-05
2.61162e-05
5.62725e-05
4.5543e-05
6.11154e-05
4.64091e-05
0.000230489
0.000230488
0.000230488
0.000228506
0.000228506
0.000228505
0.000228505
0.000138568
6.74276e-05
0.000228606
0.000218084
0.000148027
6.35216e-05
0.000227497
2.60114e-05
2.61153e-05
0.000138568
0.000228604
6.74277e-05
0.000218083
0.000148022
0.000227497
6.35217e-05
3.32126e-05
3.32063e-05
0.000204526
3.19869e-05
3.19795e-05
4.69627e-05
4.74996e-05
4.99065e-05
4.80054e-05
2.6046e-05
2.59382e-05
4.6961e-05
4.74951e-05
4.99047e-05
4.80009e-05
0.00022776
0.000227759
0.000227759
0.000225286
0.000225285
0.000225284
0.000225284
0.00011753
5.82086e-05
0.000223682
0.000209307
0.000124581
5.54876e-05
0.000222268
2.60452e-05
2.59371e-05
0.00011753
0.000223679
5.82088e-05
0.000209305
0.000124577
0.000222268
5.54875e-05
3.06118e-05
3.06061e-05
0.000189694
3.02984e-05
3.02927e-05
4.14273e-05
4.85831e-05
4.32435e-05
4.88408e-05
2.56741e-05
2.5519e-05
4.14259e-05
4.85785e-05
4.3242e-05
4.8836e-05
0.000224389
0.000224388
0.000224387
0.000221518
0.000221517
0.000221515
0.000221515
0.000102103
5.18793e-05
0.000217733
0.000200313
0.00010737
5.00771e-05
0.000216141
2.56733e-05
2.55178e-05
0.000102104
0.000217729
5.18794e-05
0.000200311
0.000107364
0.000216139
5.00769e-05
3.01758e-05
3.01726e-05
0.000176292
3.03968e-05
3.03898e-05
3.81553e-05
4.90944e-05
3.92425e-05
4.91998e-05
2.52363e-05
2.50933e-05
3.81541e-05
4.90895e-05
3.92412e-05
4.91947e-05
0.000220507
0.000220505
0.000220504
0.000217349
0.000217348
0.000217345
0.000217345
9.04901e-05
4.77387e-05
0.000211234
0.000191532
9.44558e-05
4.66127e-05
0.000209565
2.52356e-05
2.5092e-05
9.04919e-05
0.000211229
4.77388e-05
0.000191529
9.44498e-05
0.000209563
4.66126e-05
3.09599e-05
3.09564e-05
0.000164494
3.15625e-05
3.15565e-05
3.63739e-05
4.92763e-05
3.69401e-05
4.92978e-05
2.48473e-05
2.47318e-05
3.6373e-05
4.92711e-05
3.6939e-05
4.92926e-05
0.000216259
0.000216257
0.000216256
0.000212915
0.000212913
0.00021291
0.00021291
8.15857e-05
4.51671e-05
0.000204546
0.000183155
8.46706e-05
4.45512e-05
0.000202872
2.48466e-05
2.47307e-05
8.1588e-05
0.00020454
4.51672e-05
0.000183152
8.46644e-05
0.000202869
4.45513e-05
3.25089e-05
3.25052e-05
0.000154208
3.33384e-05
3.33341e-05
3.56751e-05
4.92939e-05
3.58214e-05
4.92842e-05
2.45334e-05
2.44459e-05
3.56743e-05
4.92886e-05
3.58206e-05
4.92788e-05
0.000211777
0.000211774
0.000211773
0.000208328
0.000208326
0.000208322
0.000208321
7.46425e-05
4.37693e-05
0.000197909
0.000175245
7.7119e-05
4.35206e-05
0.000196271
2.45329e-05
2.44449e-05
7.46439e-05
0.000197901
4.37695e-05
0.000175242
7.71134e-05
0.000196268
4.35207e-05
3.45398e-05
3.45368e-05
0.000145167
3.54951e-05
3.54909e-05
3.57583e-05
4.92579e-05
3.56381e-05
4.92466e-05
2.4293e-05
2.42279e-05
3.57576e-05
4.92525e-05
3.56373e-05
4.92411e-05
0.000207166
0.000207163
0.000207161
0.000203674
0.000203672
0.000203668
0.000203667
6.91748e-05
4.32409e-05
0.000191456
0.000167829
7.12031e-05
4.32322e-05
0.000189871
2.42922e-05
2.42269e-05
6.9175e-05
0.000191448
4.32411e-05
0.000167825
7.1199e-05
0.000189867
4.32325e-05
3.68589e-05
3.68563e-05
0.000137171
3.78875e-05
3.7885e-05
3.65613e-05
4.92289e-05
3.62061e-05
4.92251e-05
2.41145e-05
2.40669e-05
3.65619e-05
4.92234e-05
3.62054e-05
4.92195e-05
0.000202507
0.000202503
0.000202501
0.000199015
0.000199013
0.000199008
0.000199007
6.48675e-05
4.33804e-05
0.000185216
0.000160866
6.65085e-05
4.3563e-05
0.000183689
2.41134e-05
2.40659e-05
6.48667e-05
0.000185207
4.33807e-05
0.000160863
6.65067e-05
0.000183685
4.35634e-05
3.93334e-05
3.93314e-05
0.000129993
4.03974e-05
4.03951e-05
3.80662e-05
4.92245e-05
3.7364e-05
4.92299e-05
2.39849e-05
2.39512e-05
3.80666e-05
4.9219e-05
3.73622e-05
4.92243e-05
0.000197854
0.000197849
0.000197848
0.000194389
0.000194387
0.000194382
0.000194381
6.15078e-05
4.40613e-05
0.000179233
0.000154304
6.27536e-05
4.44024e-05
0.000177777
2.39838e-05
2.39502e-05
6.15074e-05
0.000179223
4.40618e-05
0.0001543
6.27527e-05
0.000177773
4.44029e-05
4.18621e-05
4.18601e-05
0.00012342
4.29209e-05
4.29196e-05
4.01171e-05
4.92426e-05
3.91175e-05
4.92558e-05
2.3893e-05
2.38696e-05
4.01172e-05
4.9237e-05
3.9116e-05
4.92502e-05
0.000193242
0.000193237
0.000193236
0.0001898
0.000189797
0.000189793
0.000189791
5.90061e-05
4.5191e-05
0.00017353
0.000148087
5.98516e-05
4.56636e-05
0.00017214
2.38919e-05
2.38686e-05
5.90054e-05
0.00017352
4.51915e-05
0.000148083
5.98508e-05
0.000172136
4.56641e-05
4.43573e-05
4.43562e-05
0.00011731
4.53853e-05
4.53842e-05
4.26407e-05
4.92765e-05
4.14271e-05
4.92933e-05
2.38286e-05
2.38124e-05
4.26402e-05
4.92709e-05
4.14262e-05
4.92877e-05
0.000188651
0.000188646
0.000188645
0.000185247
0.000185244
0.000185239
0.000185238
5.72055e-05
4.6693e-05
0.00016808
0.000142181
5.77209e-05
4.72731e-05
0.000166747
2.38276e-05
2.38114e-05
5.72045e-05
0.000168069
4.66936e-05
0.000142178
5.77199e-05
0.000166743
4.72737e-05
4.67541e-05
4.67527e-05
0.000111542
4.77301e-05
4.77299e-05
4.55738e-05
4.93162e-05
4.4213e-05
4.93331e-05
2.37833e-05
2.37719e-05
4.55734e-05
4.93106e-05
4.42119e-05
4.93275e-05
0.000184121
0.000184116
0.000184114
0.000180783
0.00018078
0.000180774
0.000180773
5.60346e-05
4.84934e-05
0.000162846
0.00013653
5.63287e-05
4.91557e-05
0.000161562
2.37823e-05
2.37709e-05
5.60336e-05
0.000162835
4.8494e-05
0.000136527
5.63279e-05
0.000161558
4.91563e-05
4.90025e-05
4.90014e-05
0.000106167
4.99153e-05
4.99154e-05
4.88201e-05
4.93553e-05
4.73565e-05
4.93709e-05
2.37504e-05
2.3742e-05
4.88196e-05
4.93495e-05
4.73553e-05
4.93652e-05
0.000179678
0.000179673
0.000179671
0.000176398
0.000176395
0.00017639
0.000176388
5.55208e-05
5.05165e-05
0.000157797
0.000131095
5.55998e-05
5.12363e-05
0.000156555
2.37495e-05
2.37411e-05
5.552e-05
0.000157786
5.0517e-05
0.000131091
5.55992e-05
0.000156551
5.12368e-05
5.10743e-05
5.10738e-05
0.000101326
5.19222e-05
5.19221e-05
5.22477e-05
4.9391e-05
5.07342e-05
4.94051e-05
2.37255e-05
2.37189e-05
5.22469e-05
4.93852e-05
5.0733e-05
4.93993e-05
0.000175312
0.000175307
0.000175305
0.000172081
0.000172078
0.000172073
0.000172072
5.56457e-05
5.26894e-05
0.000152903
0.000125879
5.55158e-05
5.34438e-05
0.000151698
2.37243e-05
2.37177e-05
5.56452e-05
0.000152891
5.26899e-05
0.000125876
5.55154e-05
0.000151693
5.34443e-05
5.29648e-05
5.29644e-05
9.69685e-05
5.37425e-05
5.37421e-05
5.5717e-05
4.94233e-05
5.42067e-05
4.94362e-05
2.37046e-05
2.36992e-05
5.57162e-05
4.94175e-05
5.42052e-05
4.94305e-05
0.000171011
0.000171006
0.000171004
0.000167819
0.000167815
0.00016781
0.000167809
5.63833e-05
5.49452e-05
0.000148159
0.0001209
5.60547e-05
5.57137e-05
0.000146988
2.37037e-05
2.36981e-05
5.63832e-05
0.000148147
5.49455e-05
0.000120897
5.60546e-05
0.000146984
5.5714e-05
5.46743e-05
5.46742e-05
9.31109e-05
5.53869e-05
5.5386e-05
5.9094e-05
4.9453e-05
5.76373e-05
4.94651e-05
2.36867e-05
2.36818e-05
5.90929e-05
4.94473e-05
5.76358e-05
4.94595e-05
0.000166762
0.000166756
0.000166755
0.000163609
0.000163605
0.000163599
0.000163599
5.76916e-05
5.72251e-05
0.000143531
0.000116182
5.71806e-05
5.79903e-05
0.000142387
2.36856e-05
2.36806e-05
5.76917e-05
0.000143518
5.72254e-05
0.00011618
5.71808e-05
0.000142383
5.79906e-05
5.62194e-05
5.62192e-05
8.98067e-05
5.68666e-05
5.68652e-05
6.22729e-05
4.9481e-05
6.0906e-05
4.94923e-05
2.36705e-05
2.36659e-05
6.22714e-05
4.94753e-05
6.09044e-05
4.94869e-05
0.000162565
0.00016256
0.000162559
0.000159433
0.000159428
0.000159424
0.000159423
5.95051e-05
5.9481e-05
0.000139005
0.000111777
5.88361e-05
6.02294e-05
0.000137889
2.36692e-05
2.36646e-05
5.95055e-05
0.000138993
5.94811e-05
0.000111775
5.88365e-05
0.000137884
6.02296e-05
5.76163e-05
5.76159e-05
8.70426e-05
5.82019e-05
5.82003e-05
6.51775e-05
4.95072e-05
6.39291e-05
4.95181e-05
2.36551e-05
2.36509e-05
6.51756e-05
4.9502e-05
6.39273e-05
4.9513e-05
0.000158394
0.000158389
0.000158388
0.000155278
0.000155273
0.000155269
0.000155268
6.17408e-05
6.16763e-05
0.000134586
0.000107734
6.09429e-05
6.23988e-05
0.000133504
2.3654e-05
2.36497e-05
6.17414e-05
0.000134575
6.16762e-05
0.000107732
6.09435e-05
0.000133498
6.23991e-05
5.88796e-05
5.8879e-05
8.48892e-05
5.94114e-05
5.94097e-05
6.77721e-05
4.95327e-05
6.66568e-05
4.95429e-05
2.36407e-05
2.36367e-05
6.77697e-05
4.95272e-05
6.66552e-05
4.95374e-05
0.000154243
0.000154239
0.000154238
6.43048e-05
6.37866e-05
0.000130291
0.000104134
6.34099e-05
6.44783e-05
0.00012925
2.36398e-05
6.43055e-05
0.000130281
6.37754e-05
6.34106e-05
0.000129242
6.00255e-05
6.00248e-05
8.3368e-05
6.05108e-05
6.0509e-05
0.000234859
0.000233563
0.000233564
2.32642e-05
0.000214153
2.32631e-05
0.000214154
0.000234445
5.13553e-05
5.13405e-05
0.000229986
0.000229989
0.000235111
0.000234805
0.000234701
0.000234742
0.000235111
0.000234806
0.000234701
0.000234742
0.000234476
4.02776e-05
0.000218806
0.000148036
0.000234476
4.02761e-05
0.000218812
0.000148048
0.000233902
0.000234468
0.000100207
0.000234211
0.000233357
0.000234571
0.000228523
0.000233902
0.000234468
0.000100204
0.000234211
0.000233358
0.000234571
0.000228524
0.000234859
0.000233565
0.000233565
2.32633e-05
0.000214161
0.000234445
5.1349e-05
5.1344e-05
0.000229989
0.000229991
2.32633e-05
0.000214159
0.000235111
0.000234806
0.000234701
0.000234742
0.000235111
0.000234806
0.000234742
0.000234701
0.000234477
4.02743e-05
0.000218809
0.000147994
0.000233902
0.000234468
0.000100188
0.000234211
0.000233357
0.000234571
0.000228522
0.000234477
4.02735e-05
0.000218818
0.000147993
0.000233902
0.000234468
0.000234211
0.000100191
0.000234571
0.000233359
0.000228523
0.000234728
0.000234779
0.000234733
0.000234733
0.000234728
0.000234779
0.000234733
0.000234733
0.000234728
0.000234779
0.000234733
0.000234733
0.000234594
0.000234516
0.000234184
0.000234184
0.000234587
0.000234587
0.000234179
0.000234594
0.000234516
0.000234184
0.000234184
0.000234587
0.000234587
0.000234179
0.000234594
0.000234516
0.000234184
0.000234184
0.000234587
0.000234587
0.000234179
0.000234594
0.000234516
0.000234184
0.000234184
0.000234587
0.000234587
0.000234179
0.000235111
0.000234805
0.000234742
0.000234701
0.000233903
0.000234468
0.000100193
0.000234211
0.000233359
0.000234571
0.000228522
0.000234477
4.02744e-05
0.000218814
0.000148043
0.000233902
0.000234468
0.000234211
0.000100205
0.000234571
0.00023336
0.000228525
0.000234477
4.02733e-05
0.00021882
0.000148052
0.000234859
0.000233566
0.000233566
2.32629e-05
0.00021417
0.000234445
5.13418e-05
5.13444e-05
0.000229992
0.000229993
2.32633e-05
0.000214163
0.000235111
0.000234806
0.000234742
0.000234701
0.000233902
0.000234468
0.000234211
0.000100197
0.000234571
0.00023336
0.000228522
0.000233902
0.000234468
0.000234211
0.000100193
0.000234571
0.000233361
0.000228522
0.000234477
4.02739e-05
0.000218819
0.000148018
0.000234477
4.02723e-05
0.000218822
0.000148006
0.000234445
5.13498e-05
5.13372e-05
0.000229994
0.000229996
2.32632e-05
0.000214172
2.32623e-05
0.00021417
2.1693e-05
2.2838e-05
2.16917e-05
2.28359e-05
4.78492e-05
4.78407e-05
0.000231406
4.40467e-05
4.40314e-05
2.44823e-05
2.33085e-05
2.44804e-05
2.33066e-05
0.000229711
4.00658e-05
4.00488e-05
4.31073e-05
4.3096e-05
0.00010472
3.8759e-05
0.000129361
3.98338e-05
0.000206272
9.38699e-05
0.000233996
0.000231749
0.000222749
8.73245e-05
0.000233595
0.000206273
9.38586e-05
0.000233996
0.000231745
0.000222751
8.73114e-05
0.000233595
9.84298e-05
4.19633e-05
4.03842e-05
8.55392e-05
9.84314e-05
4.19608e-05
4.0381e-05
8.5535e-05
0.000200111
0.000230511
8.0821e-05
0.000232654
8.5735e-05
0.000233165
0.000185592
0.000200107
0.000230507
8.08083e-05
0.000232653
8.57235e-05
0.000233164
0.00018559
4.78419e-05
4.78499e-05
0.000231406
4.40357e-05
4.40433e-05
2.16921e-05
2.28369e-05
2.448e-05
2.33066e-05
0.000229711
4.00534e-05
4.00609e-05
4.30976e-05
4.31076e-05
2.44818e-05
2.3308e-05
0.000206261
9.38523e-05
0.000233996
0.000231746
0.000222756
8.73023e-05
0.000233595
0.000104689
3.87568e-05
0.000129407
3.98304e-05
0.000206261
0.000233996
9.38507e-05
0.000231745
0.000222762
0.000233595
8.73011e-05
9.84492e-05
4.19597e-05
4.03797e-05
8.55223e-05
0.00020011
0.000230509
8.08024e-05
0.000232654
8.57201e-05
0.000233165
0.000185589
9.84571e-05
4.19583e-05
4.03787e-05
8.55222e-05
0.000200109
0.000230506
0.000232653
8.08022e-05
0.000233164
8.5718e-05
0.000185586
0.000104721
3.87582e-05
0.000129365
3.98337e-05
0.000206272
0.000233996
9.38685e-05
0.000231749
0.000222762
0.000233595
8.73224e-05
0.000104722
3.87573e-05
0.000129379
3.98312e-05
0.000200112
0.000230513
8.08155e-05
0.000232654
8.57357e-05
0.000233165
0.000185597
9.8438e-05
4.19613e-05
4.03817e-05
8.55466e-05
0.000200114
0.000230511
0.000232653
8.08173e-05
0.000233165
8.5733e-05
0.000185594
9.84399e-05
4.19591e-05
4.03803e-05
8.55441e-05
4.78374e-05
4.78465e-05
0.000231406
4.40289e-05
4.40424e-05
2.16921e-05
2.28371e-05
2.44795e-05
2.33061e-05
0.000229711
4.00487e-05
4.00609e-05
4.30932e-05
4.31049e-05
2.44816e-05
2.33078e-05
0.000206264
0.000233996
9.38541e-05
0.000231747
0.000222761
0.000233595
8.73058e-05
0.00010471
3.87581e-05
0.000129377
3.98335e-05
0.000104704
3.87561e-05
0.000129395
3.98305e-05
0.000200108
0.000230513
0.000232654
8.08183e-05
0.000233165
8.57327e-05
0.000185592
0.000200111
0.000230509
0.000232653
8.08057e-05
0.000233165
8.57204e-05
0.000185585
9.84434e-05
4.19606e-05
4.0381e-05
8.5538e-05
9.84493e-05
4.19577e-05
4.03783e-05
8.55204e-05
2.16917e-05
2.28364e-05
2.16907e-05
2.2835e-05
0.000229711
4.00602e-05
4.0051e-05
4.30996e-05
4.30941e-05
2.44805e-05
2.33071e-05
2.44794e-05
2.3306e-05
2.47769e-05
2.54651e-05
2.47751e-05
2.54626e-05
3.91613e-05
3.91518e-05
0.000219532
3.65741e-05
3.65593e-05
2.59555e-05
2.56202e-05
2.59528e-05
2.56177e-05
0.000216711
3.38494e-05
3.38375e-05
3.5726e-05
3.57152e-05
7.25424e-05
4.24311e-05
8.13606e-05
4.37602e-05
0.000167437
7.94448e-05
0.000232048
0.000225891
0.000180157
7.45188e-05
0.000231341
0.000167434
7.94315e-05
0.000232047
0.000225885
0.000180152
7.4508e-05
0.00023134
6.96014e-05
4.52379e-05
4.41513e-05
6.3221e-05
6.96037e-05
4.52346e-05
4.41478e-05
6.32193e-05
0.000162832
0.00022408
6.86788e-05
0.000229617
7.31589e-05
0.00023053
0.000151861
0.000162829
0.000224074
6.86678e-05
0.000229616
7.31488e-05
0.000230529
0.000151856
3.91488e-05
3.9165e-05
0.000219533
3.65609e-05
3.65683e-05
2.47765e-05
2.54643e-05
2.59527e-05
2.56174e-05
0.00021671
3.38374e-05
3.38459e-05
3.57144e-05
3.57255e-05
2.59545e-05
2.56193e-05
0.000167434
7.94341e-05
0.000232048
0.00022589
0.00018015
7.44998e-05
0.00023134
7.25279e-05
4.24292e-05
8.13679e-05
4.37579e-05
0.000167431
0.000232047
7.94268e-05
0.000225884
0.000180148
0.00023134
7.45023e-05
6.96085e-05
4.52343e-05
4.4147e-05
6.32196e-05
0.000162826
0.000224079
6.86639e-05
0.000229616
7.31485e-05
0.00023053
0.000151854
6.96079e-05
4.52323e-05
4.41454e-05
6.32185e-05
0.000162822
0.000224072
0.000229615
6.86637e-05
0.000230529
7.31431e-05
0.000151851
7.25412e-05
4.24324e-05
8.13559e-05
4.37612e-05
0.000167435
0.000232048
7.9439e-05
0.000225891
0.000180155
0.00023134
7.45154e-05
7.25378e-05
4.24302e-05
8.13564e-05
4.37588e-05
0.000162834
0.000224085
6.86735e-05
0.000229617
7.31601e-05
0.000230531
0.000151856
6.96039e-05
4.52356e-05
4.41488e-05
6.32185e-05
0.00016283
0.000224077
0.000229616
6.86733e-05
0.00023053
7.31545e-05
0.000151856
6.96054e-05
4.52333e-05
4.41466e-05
6.32192e-05
3.91473e-05
3.91593e-05
0.00021953
3.65581e-05
3.65686e-05
2.47758e-05
2.54638e-05
2.59518e-05
2.5617e-05
0.00021671
3.38355e-05
3.3845e-05
3.57124e-05
3.57248e-05
2.59542e-05
2.5619e-05
0.000167431
0.000232048
7.94289e-05
0.000225889
0.000180152
0.00023134
7.45031e-05
7.25389e-05
4.2432e-05
8.13585e-05
4.37605e-05
7.25316e-05
4.24293e-05
8.13671e-05
4.37572e-05
0.00016283
0.000224084
0.000229617
6.8676e-05
0.000230531
7.31565e-05
0.000151855
0.000162825
0.000224078
0.000229616
6.86639e-05
0.000230529
7.31432e-05
0.000151852
6.96017e-05
4.52352e-05
4.41481e-05
6.32211e-05
6.96065e-05
4.52318e-05
4.41451e-05
6.32176e-05
2.47749e-05
2.54629e-05
2.47739e-05
2.54617e-05
0.000216709
3.38444e-05
3.38363e-05
3.57197e-05
3.57131e-05
2.5953e-05
2.56179e-05
2.59514e-05
2.56168e-05
2.6015e-05
2.61191e-05
2.60125e-05
2.61161e-05
3.32183e-05
3.32063e-05
0.000204535
3.1991e-05
3.1981e-05
2.60849e-05
2.61198e-05
2.60816e-05
2.61168e-05
0.000201268
3.08761e-05
3.08668e-05
3.15673e-05
3.15567e-05
5.62728e-05
4.55432e-05
6.11153e-05
4.64096e-05
0.000138573
6.74307e-05
0.000228604
0.000218077
0.000148026
6.35248e-05
0.000227497
0.000138569
6.74197e-05
0.000228603
0.00021807
0.000148021
6.35144e-05
0.000227495
5.4762e-05
4.73233e-05
4.66516e-05
5.10014e-05
5.47605e-05
4.73192e-05
4.66474e-05
5.10001e-05
0.000135385
0.000215939
5.91393e-05
0.000225027
6.24294e-05
0.000226302
0.000127231
0.000135381
0.000215932
5.91297e-05
0.000225025
6.24191e-05
0.0002263
0.000127229
3.32072e-05
3.32157e-05
0.000204534
3.19801e-05
3.1989e-05
2.60142e-05
2.61178e-05
2.60818e-05
2.61169e-05
0.000201267
3.08664e-05
3.08748e-05
3.15568e-05
3.15653e-05
2.60834e-05
2.61185e-05
0.000138568
6.74192e-05
0.000228603
0.000218079
0.000148019
6.35131e-05
0.000227496
5.62715e-05
4.55411e-05
6.11143e-05
4.64072e-05
0.000138565
0.000228602
6.74164e-05
0.000218068
0.000148017
0.000227494
6.35103e-05
5.47601e-05
4.73188e-05
4.66471e-05
5.09996e-05
0.000135379
0.000215942
5.91285e-05
0.000225026
6.24178e-05
0.000226301
0.000127226
5.47591e-05
4.73168e-05
4.66452e-05
5.09987e-05
0.000135377
0.00021593
0.000225023
5.91257e-05
0.000226299
6.24152e-05
0.000127224
5.62674e-05
4.55443e-05
6.11189e-05
4.64105e-05
0.000138568
0.000228604
6.74247e-05
0.000218074
0.000148022
0.000227496
6.3519e-05
5.62724e-05
4.5542e-05
6.11159e-05
4.64082e-05
0.000135385
0.000215947
5.91361e-05
0.000225027
6.24258e-05
0.000226304
0.000127227
5.47626e-05
4.73202e-05
4.66484e-05
5.0999e-05
0.000135382
0.000215935
0.000225026
5.91333e-05
0.000226301
6.24229e-05
0.000127226
5.47604e-05
4.73178e-05
4.66461e-05
5.09997e-05
3.32054e-05
3.32172e-05
0.000204531
3.19787e-05
3.19879e-05
2.60138e-05
2.61178e-05
2.60808e-05
2.6116e-05
0.000201265
3.08653e-05
3.08745e-05
3.15555e-05
3.15654e-05
2.60834e-05
2.61185e-05
0.000138565
0.000228603
6.74157e-05
0.000218077
0.000148017
0.000227495
6.35103e-05
5.62695e-05
4.5544e-05
6.11168e-05
4.64103e-05
5.62708e-05
4.55406e-05
6.11137e-05
4.64067e-05
0.00013538
0.000215945
0.000225027
5.91361e-05
0.000226302
6.24261e-05
0.000127227
0.000135376
0.000215939
0.000225024
5.91256e-05
0.0002263
6.24151e-05
0.000127224
5.476e-05
4.732e-05
4.66483e-05
5.09992e-05
5.47586e-05
4.73162e-05
4.66447e-05
5.09982e-05
2.60125e-05
2.61165e-05
2.6011e-05
2.61149e-05
0.000201262
3.08723e-05
3.08661e-05
3.15624e-05
3.15564e-05
2.6082e-05
2.61172e-05
2.60804e-05
2.61156e-05
2.60492e-05
2.59413e-05
2.60459e-05
2.59379e-05
3.06159e-05
3.06064e-05
0.000189706
3.03018e-05
3.02931e-05
2.57415e-05
2.58852e-05
2.5738e-05
2.58817e-05
0.000186474
3.01688e-05
3.01614e-05
3.02031e-05
3.01942e-05
4.69616e-05
4.74953e-05
4.99053e-05
4.80011e-05
0.000117535
5.82124e-05
0.00022368
0.000209296
0.000124582
5.54906e-05
0.000222269
0.000117533
5.82026e-05
0.000223678
0.000209289
0.000124579
5.5482e-05
0.000222266
4.61542e-05
4.84989e-05
4.81307e-05
4.38422e-05
4.61532e-05
4.84944e-05
4.81262e-05
4.38412e-05
0.000115356
0.000207046
5.25008e-05
0.000219286
5.4728e-05
0.000220802
0.000109263
0.000115353
0.000207039
5.24929e-05
0.000219284
5.47188e-05
0.000220799
0.000109262
3.06063e-05
3.06144e-05
0.000189704
3.02928e-05
3.03007e-05
2.60477e-05
2.59398e-05
2.57383e-05
2.58818e-05
0.000186472
3.01629e-05
3.01658e-05
3.0194e-05
3.02018e-05
2.57399e-05
2.58836e-05
0.000117531
5.82013e-05
0.000223678
0.000209303
0.000124577
5.54806e-05
0.000222267
4.69602e-05
4.74931e-05
4.99037e-05
4.79986e-05
0.000117529
0.000223676
5.81989e-05
0.000209286
0.000124575
0.000222264
5.54781e-05
4.61525e-05
4.84942e-05
4.81261e-05
4.38406e-05
0.000115351
0.000207053
5.24915e-05
0.000219285
5.47177e-05
0.0002208
0.000109259
4.61517e-05
4.84918e-05
4.81239e-05
4.38398e-05
0.00011535
0.000207036
0.000219281
5.24891e-05
0.000220797
5.47154e-05
0.000109257
4.6961e-05
4.74964e-05
4.99033e-05
4.80023e-05
0.00011753
0.000223678
5.82057e-05
0.000209292
0.000124579
0.000222267
5.54848e-05
4.69611e-05
4.7494e-05
4.99048e-05
4.79996e-05
0.000115356
0.000207058
5.24978e-05
0.000219286
5.47243e-05
0.000220804
0.000109257
4.61509e-05
4.84956e-05
4.81274e-05
4.38406e-05
0.000115353
0.000207041
0.000219284
5.24952e-05
0.0002208
5.47215e-05
0.000109258
4.61527e-05
4.84928e-05
4.81248e-05
4.38407e-05
3.06053e-05
3.06144e-05
0.0001897
3.02919e-05
3.03008e-05
2.60477e-05
2.59397e-05
2.57371e-05
2.5881e-05
0.000186468
3.01577e-05
3.01661e-05
3.01934e-05
3.0202e-05
2.57398e-05
2.58836e-05
0.000117528
0.000223677
5.81986e-05
0.000209298
0.000124574
0.000222265
5.54778e-05
4.69607e-05
4.74963e-05
4.99044e-05
4.8002e-05
4.69598e-05
4.74925e-05
4.99033e-05
4.7998e-05
0.000115351
0.000207055
0.000219285
5.24977e-05
0.000220801
5.47244e-05
0.000109258
0.000115348
0.000207048
0.000219282
5.24888e-05
0.000220798
5.47151e-05
0.000109256
4.61523e-05
4.84954e-05
4.81273e-05
4.38403e-05
4.61514e-05
4.84911e-05
4.81233e-05
4.38395e-05
2.60463e-05
2.59384e-05
2.60447e-05
2.59366e-05
0.000186464
3.0166e-05
3.01583e-05
3.01995e-05
3.01941e-05
2.57385e-05
2.58822e-05
2.57367e-05
2.58806e-05
2.56775e-05
2.55221e-05
2.5674e-05
2.55186e-05
3.01792e-05
3.01705e-05
0.000176307
3.03991e-05
3.0392e-05
2.53035e-05
2.54566e-05
2.52998e-05
2.5453e-05
0.000173248
3.08836e-05
3.0877e-05
3.04516e-05
3.04436e-05
4.14266e-05
4.85785e-05
4.32426e-05
4.88362e-05
0.000102109
5.18828e-05
0.000217731
0.000200299
0.00010737
5.00801e-05
0.000216141
0.000102108
5.18744e-05
0.000217728
0.000200292
0.000107367
5.00728e-05
0.000216138
4.09848e-05
4.90647e-05
4.88935e-05
3.9568e-05
4.09841e-05
4.90599e-05
4.88886e-05
3.95674e-05