/*--------------------------------*- C++ -*----------------------------------*\
| =========                 |                                                 |
| \\      /  F ield         | OpenFOAM: The Open Source CFD Toolbox           |
|  \\    /   O peration     | Version:  2312                                  |
|   \\  /    A nd           | Website:  www.openfoam.com                      |
|    \\/     M anipulation  |                                                 |
\*---------------------------------------------------------------------------*/
FoamFile
{
    version     2.0;
    format      ascii;
    arch        "LSB;label=32;scalar=64";
    class       volScalarField;
    location    "750";
    object      p;
}
// * * * * * * * * * * * * * * * * * * * * * * * * * * * * * * * * * * * * * //

dimensions      [0 2 -2 0 0 0 0];

internalField   nonuniform List<scalar> 
43211
(
0.00360781
0.00360822
0.00360822
0.00360812
0.00354995
0.0035501
0.0035501
0.00355279
0.00349837
0.00349837
0.00349837
0.00350115
0.00344611
0.00344611
0.00344611
0.00344888
0.00339473
0.00339474
0.00339474
0.00339749
0.00334476
0.00334477
0.00334477
0.00334749
0.00329623
0.00329625
0.00329625
0.00329893
0.003249
0.00324904
0.00324903
0.00325167
0.00320287
0.00320289
0.00320289
0.00320552
0.00315764
0.00315766
0.00315766
0.00316026
0.00311313
0.00311315
0.00311315
0.00311572
0.00306922
0.00306924
0.00306924
0.00307179
0.00302583
0.00302585
0.00302585
0.00302836
0.0029829
0.00298292
0.00298292
0.00298542
0.0029404
0.00294041
0.00294041
0.00294291
0.00289831
0.00289832
0.00289832
0.00290081
0.00285661
0.0028566
0.0028566
0.00285908
0.00281526
0.00281525
0.00281525
0.00281772
0.00277425
0.00277423
0.00277423
0.0027767
0.00273355
0.00273352
0.00273353
0.00273598
0.00269314
0.00269311
0.00269311
0.00269556
0.00361798
0.00361705
0.00361705
0.00361798
0.00361705
0.00361705
0.00361596
0.00361596
0.00361596
0.00361596
0.00361705
0.00361705
0.00361798
0.00361705
0.00361705
0.00361798
0.00360812
0.00355918
0.00360822
0.00360822
0.00356155
0.00356155
0.00360812
0.00355918
0.00360822
0.00360822
0.00356155
0.00356155
0.00360822
0.00356155
0.00356155
0.00360812
0.00355918
0.00360822
0.00356155
0.00356155
0.00355918
0.00355279
0.0035081
0.0035501
0.0035501
0.00351157
0.00351157
0.00355279
0.0035081
0.0035501
0.0035501
0.00351157
0.00351157
0.0035501
0.00351157
0.00351157
0.00355279
0.0035081
0.0035501
0.00351157
0.00351157
0.0035081
0.00350115
0.00345575
0.00349837
0.00349837
0.00345911
0.00345911
0.00350115
0.00345575
0.00349837
0.00349837
0.00345911
0.00345911
0.00349837
0.00345911
0.00345911
0.00350115
0.00345575
0.00349837
0.00345911
0.00345911
0.00345575
0.00344888
0.0034042
0.00344611
0.00344611
0.00340747
0.00340747
0.00344888
0.0034042
0.00344611
0.00344611
0.00340747
0.00340747
0.00344611
0.00340747
0.00340747
0.00344888
0.0034042
0.00344611
0.00340747
0.00340747
0.0034042
0.00339749
0.00335399
0.00339474
0.00339474
0.00335712
0.00335712
0.00339749
0.00335399
0.00339474
0.00339474
0.00335712
0.00335712
0.00339474
0.00335712
0.00335712
0.00339749
0.00335399
0.00339474
0.00335712
0.00335712
0.00335399
0.00334749
0.00330523
0.00334477
0.00334477
0.00330825
0.00330825
0.00334749
0.00330523
0.00334477
0.00334477
0.00330825
0.00330825
0.00334477
0.00330825
0.00330825
0.00334749
0.00330523
0.00334477
0.00330825
0.00330825
0.00330523
0.00329893
0.00325781
0.00329625
0.00329625
0.00326072
0.00326072
0.00329893
0.0032578
0.00329625
0.00329625
0.00326072
0.00326072
0.00329625
0.00326072
0.00326072
0.00329893
0.0032578
0.00329625
0.00326072
0.00326072
0.0032578
0.00325167
0.00321151
0.00324902
0.00324902
0.00321433
0.00321433
0.00325167
0.0032115
0.00324903
0.00324902
0.00321433
0.00321433
0.00324903
0.00321433
0.00321433
0.00325167
0.00321151
0.00324903
0.00321434
0.00321433
0.00321151
0.00320552
0.00316613
0.00320289
0.00320289
0.0031689
0.0031689
0.00320551
0.00316613
0.00320289
0.00320289
0.0031689
0.0031689
0.00320289
0.0031689
0.0031689
0.00320552
0.00316613
0.0032029
0.0031689
0.0031689
0.00316613
0.00316026
0.0031215
0.00315767
0.00315766
0.00312422
0.00312423
0.00316025
0.0031215
0.00315767
0.00315766
0.00312422
0.00312423
0.00315766
0.00312423
0.00312423
0.00316025
0.0031215
0.00315766
0.00312423
0.00312422
0.0031215
0.00311572
0.00307749
0.00311316
0.00311315
0.00308017
0.00308017
0.00311572
0.00307749
0.00311316
0.00311315
0.00308017
0.00308017
0.00311315
0.00308017
0.00308017
0.00311572
0.00307749
0.00311315
0.00308017
0.00308017
0.00307749
0.00307179
0.003034
0.00306924
0.00306924
0.00303665
0.00303665
0.00307178
0.00303399
0.00306924
0.00306924
0.00303665
0.00303665
0.00306924
0.00303665
0.00303665
0.00307178
0.00303399
0.00306924
0.00303665
0.00303665
0.003034
0.00302836
0.00299098
0.00302585
0.00302585
0.00299361
0.00299361
0.00302836
0.00299099
0.00302585
0.00302585
0.00299361
0.00299361
0.00302585
0.00299361
0.00299361
0.00302836
0.00299099
0.00302585
0.00299361
0.00299361
0.00299098
0.00298542
0.00294843
0.00298292
0.00298292
0.002951
0.002951
0.00298542
0.00294843
0.00298292
0.00298292
0.002951
0.002951
0.00298292
0.002951
0.002951
0.00298542
0.00294843
0.00298292
0.002951
0.002951
0.00294843
0.00294291
0.00290627
0.00294041
0.00294041
0.00290881
0.0029088
0.00294291
0.00290627
0.00294042
0.00294041
0.0029088
0.0029088
0.00294041
0.0029088
0.00290881
0.00294291
0.00290627
0.00294041
0.0029088
0.0029088
0.00290627
0.00290081
0.0028645
0.00289832
0.00289832
0.002867
0.002867
0.00290081
0.0028645
0.00289832
0.00289832
0.002867
0.002867
0.00289832
0.002867
0.002867
0.00290081
0.0028645
0.00289832
0.002867
0.002867
0.0028645
0.00285908
0.00282309
0.0028566
0.0028566
0.00282556
0.00282556
0.00285908
0.00282309
0.0028566
0.0028566
0.00282556
0.00282556
0.0028566
0.00282556
0.00282556
0.00285908
0.00282309
0.0028566
0.00282556
0.00282556
0.00282309
0.00281772
0.00278203
0.00281525
0.00281525
0.00278446
0.00278446
0.00281772
0.00278203
0.00281525
0.00281525
0.00278446
0.00278446
0.00281525
0.00278446
0.00278446
0.00281772
0.00278203
0.00281525
0.00278446
0.00278446
0.00278203
0.0027767
0.00274127
0.00277423
0.00277423
0.00274367
0.00274367
0.0027767
0.00274127
0.00277423
0.00277423
0.00274367
0.00274367
0.00277423
0.00274367
0.00274367
0.0027767
0.00274127
0.00277423
0.00274367
0.00274367
0.00274127
0.00273598
0.00270082
0.00273352
0.00273352
0.00270319
0.00270318
0.00273598
0.00270082
0.00273352
0.00273353
0.00270319
0.00270318
0.00273353
0.00270318
0.00270318
0.00273598
0.00270082
0.00273352
0.00270318
0.00270318
0.00270082
0.00269556
0.00269311
0.00269311
0.00269556
0.00269311
0.00269311
0.00269311
0.00269556
0.0026931
0.003626
0.00363624
0.00363073
0.00363074
0.00365334
0.00364025
0.0036687
0.00363415
0.00365334
0.00364025
0.00363415
0.0036687
0.00364477
0.00367242
0.00367242
0.00358042
0.00360009
0.00360923
0.00357255
0.00357379
0.00357609
0.0035804
0.00360012
0.00360921
0.00357254
0.00360781
0.00360781
0.00360781
0.00356135
0.00356135
0.00356135
0.00356135
0.00357789
0.0036043
0.00360767
0.00358542
0.00360712
0.00357677
0.00358635
0.00357386
0.00357607
0.00357789
0.00360767
0.00360431
0.00358541
0.00360712
0.00358635
0.00357677
0.00361015
0.00361016
0.00358071
0.00357648
0.00357648
0.00353521
0.00355425
0.00355563
0.00353374
0.00355314
0.00353328
0.00353521
0.00355426
0.00355564
0.00353373
0.00354995
0.00354995
0.00354995
0.00351164
0.00351164
0.00351164
0.00351164
0.00353382
0.00355436
0.00354984
0.00353774
0.00355318
0.00353435
0.00353756
0.00355315
0.00353329
0.00353382
0.00354984
0.00355436
0.00353774
0.00355318
0.00353756
0.00353435
0.00355535
0.00355536
0.00353409
0.00353465
0.00353465
0.0034828
0.00350162
0.00350269
0.00348177
0.00350125
0.00348149
0.0034828
0.00350162
0.00350269
0.00348177
0.00349837
0.00349837
0.00349837
0.0034591
0.0034591
0.0034591
0.0034591
0.00348189
0.00350202
0.00349826
0.00348523
0.00350145
0.00348226
0.00348513
0.00350125
0.00348149
0.00348189
0.00349826
0.00350202
0.00348523
0.00350145
0.00348513
0.00348226
0.00350226
0.00350226
0.00348187
0.00348232
0.00348232
0.0034303
0.00344895
0.00344981
0.00342953
0.00344874
0.00342935
0.0034303
0.00344895
0.00344981
0.00342953
0.00344611
0.00344611
0.00344611
0.00340746
0.00340746
0.00340746
0.00340746
0.00342979
0.00344936
0.00344607
0.00343316
0.00344907
0.00342998
0.00343312
0.00344874
0.00342935
0.00342979
0.00344607
0.00344936
0.00343316
0.00344907
0.00343312
0.00342998
0.0034494
0.0034494
0.00342984
0.00342992
0.00342992
0.0033791
0.00339746
0.00339809
0.00337855
0.00339731
0.00337841
0.0033791
0.00339746
0.00339809
0.00337855
0.00339473
0.00339473
0.00339473
0.00335711
0.00335711
0.00335711
0.00335711
0.00337883
0.00339781
0.00339471
0.00338211
0.00339763
0.00337894
0.00338208
0.00339731
0.00337841
0.00337883
0.00339471
0.00339781
0.00338211
0.00339763
0.00338208
0.00337894
0.00339779
0.00339779
0.00337891
0.00337885
0.00337885
0.00332946
0.00334741
0.00334786
0.00332906
0.00334729
0.00332895
0.00332946
0.0033474
0.00334786
0.00332906
0.00334476
0.00334476
0.00334476
0.00330824
0.00330824
0.00330824
0.00330824
0.00332934
0.00334771
0.00334474
0.00333251
0.00334759
0.00332941
0.00333248
0.00334729
0.00332895
0.00332934
0.00334474
0.00334771
0.00333251
0.00334759
0.00333248
0.00332941
0.00334769
0.00334769
0.00332943
0.00332932
0.00332932
0.00328128
0.00329883
0.00329916
0.003281
0.00329874
0.00328089
0.00328128
0.00329883
0.00329916
0.00328101
0.00329623
0.00329623
0.00329623
0.0032607
0.0032607
0.0032607
0.0032607
0.00328126
0.0032991
0.00329622
0.00328433
0.003299
0.00328132
0.0032843
0.00329873
0.0032809
0.00328126
0.00329622
0.0032991
0.00328433
0.003299
0.0032843
0.00328132
0.00329909
0.00329909
0.00328136
0.00328124
0.00328124
0.00323439
0.00325158
0.00325181
0.00323419
0.00325148
0.00323409
0.00323439
0.00325158
0.00325181
0.00323419
0.00324901
0.003249
0.00324901
0.00321431
0.00321431
0.00321432
0.00321431
0.00323443
0.00325181
0.00324899
0.0032374
0.00325173
0.00323448
0.00323736
0.00325148
0.0032341
0.00323443
0.00324899
0.00325181
0.0032374
0.00325173
0.00323736
0.00323449
0.00325181
0.00325181
0.00323453
0.0032344
0.0032344
0.00318856
0.00320542
0.0032056
0.0031884
0.00320534
0.00318831
0.00318856
0.00320542
0.0032056
0.0031884
0.00320287
0.00320287
0.00320287
0.00316888
0.00316888
0.00316888
0.00316888
0.00318863
0.00320564
0.00320286
0.00319151
0.00320557
0.00318868
0.00319148
0.00320534
0.00318831
0.00318863
0.00320286
0.00320564
0.00319151
0.00320557
0.00319148
0.00318868
0.00320564
0.00320564
0.00318871
0.00318859
0.00318859
0.00314357
0.00316017
0.00316032
0.00314343
0.00316009
0.00314335
0.00314357
0.00316017
0.00316032
0.00314343
0.00315764
0.00315764
0.00315764
0.0031242
0.0031242
0.0031242
0.0031242
0.00314367
0.00316037
0.00315763
0.00314648
0.00316031
0.00314371
0.00314645
0.00316009
0.00314335
0.00314367
0.00315763
0.00316037
0.00314648
0.00316031
0.00314645
0.00314371
0.00316036
0.00316036
0.00314373
0.00314361
0.00314361
0.00309926
0.00311564
0.00311577
0.00309913
0.00311556
0.00309905
0.00309926
0.00311564
0.00311577
0.00309913
0.00311313
0.00311313
0.00311313
0.00308015
0.00308015
0.00308015
0.00308015
0.00309938
0.00311583
0.00311313
0.00310213
0.00311578
0.00309941
0.0031021
0.00311556
0.00309905
0.00309938
0.00311313
0.00311583
0.00310213
0.00311578
0.0031021
0.00309941
0.00311582
0.00311582
0.00309942
0.0030993
0.0030993
0.00305552
0.0030717
0.00307183
0.0030554
0.00307162
0.00305532
0.00305552
0.0030717
0.00307183
0.0030554
0.00306922
0.00306922
0.00306922
0.00303663
0.00303663
0.00303663
0.00303663
0.00305567
0.00307189
0.00306922
0.00305835
0.00307186
0.00305568
0.00305833
0.00307162
0.00305532
0.00305567
0.00306922
0.00307189
0.00305835
0.00307186
0.00305833
0.00305568
0.00307186
0.00307186
0.00305568
0.00305555
0.00305555
0.00301228
0.00302828
0.0030284
0.00301215
0.00302821
0.00301208
0.00301228
0.00302828
0.0030284
0.00301215
0.00302583
0.00302583
0.00302583
0.00299359
0.00299359
0.00299359
0.00299359
0.00301244
0.00302846
0.00302583
0.00301507
0.00302846
0.00301243
0.00301506
0.00302821
0.00301208
0.00301244
0.00302583
0.00302846
0.00301507
0.00302846
0.00301506
0.00301243
0.00302843
0.00302843
0.00301242
0.00301229
0.00301229
0.00296949
0.00298532
0.00298545
0.00296936
0.00298525
0.0029693
0.00296949
0.00298532
0.00298545
0.00296936
0.0029829
0.0029829
0.0029829
0.00295099
0.00295099
0.00295099
0.00295099
0.00296967
0.00298549
0.00298291
0.00297225
0.00298551
0.00296963
0.00297224
0.00298525
0.00296929
0.00296967
0.00298291
0.00298549
0.00297225
0.00298551
0.00297224
0.00296963
0.00298545
0.00298545
0.00296966
0.00296948
0.00296948
0.00292712
0.00294279
0.00294292
0.00292699
0.00294273
0.00292693
0.00292711
0.00294279
0.00294292
0.00292699
0.0029404
0.0029404
0.0029404
0.0029088
0.0029088
0.0029088
0.0029088
0.00292733
0.00294296
0.00294041
0.00292985
0.00294301
0.00292725
0.00292985
0.00294273
0.00292693
0.00292733
0.00294041
0.00294296
0.00292985
0.00294301
0.00292985
0.00292725
0.00294292
0.00294292
0.0029273
0.0029271
0.0029271
0.00288514
0.00290068
0.0029008
0.00288502
0.00290063
0.00288498
0.00288514
0.00290068
0.0029008
0.00288502
0.00289831
0.00289831
0.00289831
0.002867
0.002867
0.002867
0.002867
0.00288538
0.00290084
0.00289832
0.00288785
0.00290091
0.00288528
0.00288786
0.00290063
0.00288497
0.00288538
0.00289832
0.00290084
0.00288785
0.00290091
0.00288786
0.00288528
0.00290079
0.00290079
0.00288534
0.00288512
0.00288512
0.00284354
0.00285895
0.00285906
0.00284343
0.0028589
0.00284339
0.00284355
0.00285895
0.00285906
0.00284343
0.00285661
0.00285661
0.00285661
0.00282556
0.00282556
0.00282556
0.00282556
0.0028438
0.00285909
0.00285662
0.00284623
0.00285919
0.00284367
0.00284625
0.0028589
0.00284339
0.0028438
0.00285662
0.00285909
0.00284623
0.00285919
0.00284626
0.00284367
0.00285905
0.00285905
0.00284375
0.00284352
0.00284352
0.0028023
0.00281758
0.00281769
0.00280219
0.00281754
0.00280216
0.0028023
0.00281758
0.00281769
0.00280219
0.00281526
0.00281526
0.00281526
0.00278447
0.00278447
0.00278447
0.00278447
0.00280257
0.00281771
0.00281528
0.00280497
0.00281783
0.00280242
0.00280499
0.00281754
0.00280216
0.00280257
0.00281528
0.00281771
0.00280497
0.00281783
0.00280499
0.00280242
0.00281767
0.00281767
0.00280252
0.00280227
0.00280227
0.00276138
0.00277656
0.00277665
0.00276127
0.00277652
0.00276125
0.00276138
0.00277655
0.00277665
0.00276128
0.00277425
0.00277425
0.00277425
0.00274369
0.0027437
0.0027437
0.0027437
0.00276166
0.00277667
0.00277426
0.00276403
0.00277679
0.0027615
0.00276406
0.00277652
0.00276125
0.00276166
0.00277426
0.00277667
0.00276403
0.00277679
0.00276406
0.0027615
0.00277663
0.00277663
0.00276161
0.00276135
0.00276135
0.00272077
0.00273583
0.00273592
0.00272068
0.0027358
0.00272065
0.00272077
0.00273583
0.00273592
0.00272068
0.00273355
0.00273355
0.00273355
0.00270322
0.00270322
0.00270322
0.00270322
0.00272104
0.00273593
0.00273356
0.00272339
0.00273606
0.00272088
0.00272343
0.0027358
0.00272065
0.00272104
0.00273356
0.00273593
0.00272339
0.00273606
0.00272343
0.00272088
0.00273591
0.00273591
0.00272101
0.00272074
0.00272074
0.00268044
0.00269541
0.00269549
0.00268035
0.00269538
0.00268032
0.00268044
0.00269541
0.00269549
0.00268035
0.00269314
0.00269314
0.00269314
0.00268071
0.00269549
0.00269314
0.00268304
0.00269562
0.00268054
0.00268307
0.00269538
0.00268071
0.00269314
0.00269549
0.00269562
0.00268307
0.00269547
0.00269547
0.00268069
0.0026804
0.0026804
0.00364476
0.00367241
0.00367242
0.00363623
0.00367194
0.00363624
0.00367193
0.00364173
0.00362806
0.00362809
0.00366722
0.00366722
0.00365332
0.00364025
0.00366869
0.00363415
0.00365332
0.00364024
0.00366869
0.00363415
0.00365797
0.00362832
0.00366907
0.00362316
0.00365796
0.00362836
0.00366907
0.00362316
0.00364918
0.00363784
0.00361955
0.00361537
0.00366397
0.00363237
0.00362009
0.00364918
0.00363784
0.00361955
0.00361537
0.00366396
0.00363237
0.00362009
0.00364476
0.00367241
0.00367243
0.00363625
0.00367194
0.00364172
0.00362807
0.00362808
0.00366721
0.00366723
0.00363624
0.00367195
0.00365333
0.00364025
0.00366869
0.00363415
0.00365333
0.00364025
0.00363415
0.00366869
0.00365798
0.00362832
0.00366907
0.00362317
0.00364919
0.00363784
0.00361956
0.00361537
0.00366397
0.00363237
0.0036201
0.00365798
0.00362837
0.00366907
0.00362316
0.00364919
0.00363784
0.00361537
0.00361956
0.00363237
0.00366397
0.0036201
0.003626
0.00363624
0.00363073
0.00363074
0.003626
0.00363625
0.00363074
0.00363074
0.003626
0.00363625
0.00363074
0.00363074
0.00362474
0.00363427
0.00361418
0.00361418
0.00362918
0.00362918
0.00361216
0.00362474
0.00363427
0.00361418
0.00361418
0.00362918
0.00362918
0.00361216
0.00362474
0.00363428
0.00361418
0.00361418
0.00362918
0.00362919
0.00361216
0.00362474
0.00363428
0.00361418
0.00361418
0.00362918
0.00362918
0.00361216
0.00365334
0.00364025
0.00363415
0.0036687
0.0036492
0.00363784
0.00361955
0.00361537
0.00366398
0.00363237
0.00362009
0.00365799
0.0036283
0.00366908
0.00362316
0.0036492
0.00363784
0.00361537
0.00361955
0.00363237
0.00366397
0.00362009
0.00365799
0.00362835
0.00366907
0.00362315
0.00364477
0.00367242
0.00367242
0.00363629
0.00367193
0.00364173
0.00362809
0.00362809
0.00366722
0.00366722
0.00363622
0.00367194
0.00365333
0.00364025
0.00363415
0.0036687
0.0036492
0.00363784
0.00361537
0.00361956
0.00363237
0.00366398
0.00362009
0.0036492
0.00363784
0.00361537
0.00361956
0.00363237
0.00366397
0.00362009
0.00365799
0.0036283
0.00366908
0.00362316
0.00365798
0.00362832
0.00366907
0.00362315
0.00364173
0.00362808
0.00362808
0.00366722
0.00366722
0.00363624
0.00367193
0.00363623
0.00367194
0.00357373
0.00357608
0.00357392
0.00357604
0.00361011
0.00361016
0.0035807
0.00357649
0.00357648
0.0035597
0.00357586
0.00355973
0.00357583
0.00357469
0.00356234
0.00356236
0.0035748
0.00357479
0.00358042
0.00360014
0.00360923
0.00357256
0.0035779
0.00360429
0.00360767
0.00358542
0.00360713
0.00357678
0.00358636
0.00357791
0.00360429
0.00360767
0.00358542
0.00360712
0.00357678
0.00358636
0.00357606
0.00356145
0.00357358
0.00356224
0.00357606
0.00356146
0.00357357
0.00356224
0.00357312
0.00357268
0.00356118
0.00356142
0.00357416
0.0035731
0.00355956
0.00357313
0.00357268
0.00356118
0.00356142
0.00357416
0.0035731
0.00355956
0.00361012
0.00361016
0.00358071
0.00357649
0.00357649
0.0035739
0.00357606
0.00355972
0.00357586
0.00357469
0.00356234
0.00356235
0.00357481
0.00357479
0.00355973
0.00357582
0.00357788
0.00360431
0.00360767
0.00358542
0.00360713
0.00357677
0.00358635
0.0035804
0.00360012
0.00360921
0.00357254
0.00357789
0.00360767
0.00360429
0.00358542
0.00360712
0.00358635
0.00357676
0.00357605
0.00356146
0.00357355
0.00356224
0.00357312
0.00357268
0.00356119
0.00356142
0.00357415
0.0035731
0.00355956
0.00357605
0.00356146
0.00357356
0.00356224
0.00357312
0.00357267
0.00356142
0.00356118
0.0035731
0.00357415
0.00355956
0.00358041
0.0036001
0.0036092
0.00357254
0.00357789
0.00360767
0.00360429
0.00358542
0.00360711
0.00358635
0.00357677
0.00358041
0.00360012
0.0036092
0.00357254
0.00357312
0.00357268
0.00356119
0.00356142
0.00357416
0.0035731
0.00355956
0.00357606
0.00356146
0.00357356
0.00356224
0.00357313
0.00357268
0.00356142
0.00356119
0.0035731
0.00357415
0.00355956
0.00357606
0.00356146
0.00357356
0.00356224
0.00361014
0.00361017
0.0035807
0.00357647
0.00357647
0.00357394
0.00357605
0.00355973
0.00357584
0.00357469
0.00356235
0.00356235
0.00357479
0.00357478
0.00355973
0.00357582
0.00357789
0.00360767
0.0036043
0.00358542
0.00360712
0.00358635
0.00357677
0.00358041
0.00360011
0.00360921
0.00357254
0.00358041
0.00360012
0.0036092
0.00357253
0.00357312
0.00357268
0.00356142
0.00356119
0.0035731
0.00357415
0.00355956
0.00357313
0.00357268
0.00356142
0.00356119
0.0035731
0.00357415
0.00355956
0.00357606
0.00356146
0.00357356
0.00356224
0.00357606
0.00356146
0.00357356
0.00356224
0.0035739
0.00357606
0.00357392
0.00357605
0.00357469
0.00356235
0.00356235
0.0035748
0.0035748
0.00355972
0.00357586
0.00355973
0.00357583
0.00355314
0.00353329
0.00355317
0.00353327
0.00355535
0.00355536
0.00353409
0.00353466
0.00353465
0.0035078
0.00352685
0.0035078
0.00352683
0.00352723
0.00350887
0.00350887
0.00352818
0.00352818
0.00353521
0.00355425
0.00355563
0.00353374
0.00353382
0.00355436
0.00354983
0.00353774
0.00355318
0.00353435
0.00353756
0.00353382
0.00355435
0.00354983
0.00353774
0.00355318
0.00353435
0.00353756
0.00352867
0.00350821
0.00352735
0.00350932
0.00352867
0.00350821
0.00352735
0.00350932
0.00352726
0.00352476
0.00350869
0.00351146
0.00352788
0.00352465
0.00350814
0.00352726
0.00352476
0.00350869
0.00351146
0.00352788
0.00352465
0.00350814
0.00355535
0.00355536
0.00353409
0.00353466
0.00353466
0.00355315
0.00353328
0.0035078
0.00352685
0.00352723
0.00350888
0.00350888
0.00352819
0.00352818
0.0035078
0.00352684
0.00353382
0.00355437
0.00354984
0.00353774
0.00355318
0.00353434
0.00353756
0.00353521
0.00355426
0.00355564
0.00353374
0.00353382
0.00354984
0.00355436
0.00353774
0.00355318
0.00353756
0.00353435
0.00352867
0.00350821
0.00352734
0.00350932
0.00352726
0.00352476
0.00350869
0.00351146
0.00352788
0.00352465
0.00350814
0.00352867
0.00350821
0.00352735
0.00350932
0.00352726
0.00352477
0.00351146
0.00350869
0.00352465
0.00352788
0.00350814
0.00353521
0.00355426
0.00355563
0.00353373
0.00353382
0.00354984
0.00355436
0.00353774
0.00355318
0.00353756
0.00353435
0.00353521
0.00355426
0.00355564
0.00353374
0.00352726
0.00352476
0.00350869
0.00351146
0.00352788
0.00352465
0.00350814
0.00352867
0.00350821
0.00352734
0.00350932
0.00352726
0.00352476
0.00351146
0.00350868
0.00352465
0.00352788
0.00350814
0.00352867
0.00350821
0.00352735
0.00350932
0.00355536
0.00355536
0.00353409
0.00353466
0.00353466
0.00355316
0.00353328
0.0035078
0.00352685
0.00352724
0.00350888
0.00350888
0.00352819
0.00352818
0.0035078
0.00352684
0.00353382
0.00354984
0.00355436
0.00353774
0.00355318
0.00353756
0.00353434
0.00353521
0.00355425
0.00355563
0.00353373
0.00353521
0.00355425
0.00355563
0.00353373
0.00352726
0.00352476
0.00351146
0.00350869
0.00352465
0.00352788
0.00350814
0.00352726
0.00352476
0.00351146
0.00350869
0.00352465
0.00352788
0.00350814
0.00352867
0.00350821
0.00352734
0.00350932
0.00352867
0.00350821
0.00352734
0.00350932
0.00355315
0.00353328
0.00355315
0.00353328
0.00352724
0.00350888
0.00350888
0.00352818
0.00352818
0.0035078
0.00352685
0.0035078
0.00352684
0.00350125
0.00348149
0.00350126
0.00348149
0.00350226
0.00350226
0.00348187
0.00348232
0.00348232
0.00345528
0.00347487
0.00345528
0.00347487
0.00347493
0.00345596
0.00345596
0.00347567
0.00347567
0.0034828
0.00350162
0.00350269
0.00348177
0.00348189
0.00350202
0.00349826
0.00348523
0.00350145
0.00348226
0.00348513
0.00348189
0.00350202
0.00349826
0.00348523
0.00350145
0.00348225
0.00348513
0.00347612
0.0034555
0.00347513
0.0034564
0.00347612
0.0034555
0.00347513
0.0034564
0.00347518
0.00347215
0.00345598
0.00345905
0.00347556
0.00347207
0.00345572
0.00347518
0.00347215
0.00345598
0.00345905
0.00347556
0.00347207
0.00345572
0.00350226
0.00350226
0.00348187
0.00348232
0.00348232
0.00350125
0.00348149
0.00345528
0.00347487
0.00347493
0.00345596
0.00345596
0.00347567
0.00347567
0.00345528
0.00347487
0.00348189
0.00350202
0.00349826
0.00348523
0.00350145
0.00348226
0.00348513
0.0034828
0.00350162
0.00350269
0.00348177
0.00348189
0.00349826
0.00350202
0.00348523
0.00350145
0.00348513
0.00348225
0.00347612
0.0034555
0.00347513
0.0034564
0.00347518
0.00347215
0.00345598
0.00345905
0.00347556
0.00347207
0.00345572
0.00347612
0.0034555
0.00347513
0.0034564
0.00347518
0.00347215
0.00345905
0.00345598
0.00347207
0.00347556
0.00345572
0.0034828
0.00350162
0.00350269
0.00348177
0.00348189
0.00349826
0.00350202
0.00348523
0.00350145
0.00348513
0.00348226
0.0034828
0.00350162
0.00350269
0.00348177
0.00347518
0.00347215
0.00345598
0.00345905
0.00347556
0.00347207
0.00345572
0.00347612
0.0034555
0.00347513
0.0034564
0.00347518
0.00347215
0.00345905
0.00345598
0.00347207
0.00347556
0.00345572
0.00347612
0.0034555
0.00347513
0.0034564
0.00350226
0.00350226
0.00348187
0.00348232
0.00348232
0.00350125
0.00348149
0.00345528
0.00347487
0.00347493
0.00345596
0.00345596
0.00347567
0.00347567
0.00345528
0.00347487
0.00348189
0.00349826
0.00350202
0.00348523
0.00350145
0.00348513
0.00348226
0.0034828
0.00350162
0.00350269
0.00348177
0.0034828
0.00350162
0.00350269
0.00348177
0.00347518
0.00347215
0.00345905
0.00345598
0.00347207
0.00347556
0.00345572
0.00347518
0.00347215
0.00345905
0.00345598
0.00347207
0.00347556
0.00345572
0.00347612
0.0034555
0.00347513
0.0034564
0.00347612
0.0034555
0.00347513
0.0034564
0.00350125
0.00348149
0.00350125
0.00348149
0.00347493
0.00345596
0.00345596
0.00347567
0.00347567
0.00345528
0.00347487
0.00345528
0.00347487
0.00344874
0.00342935
0.00344874
0.00342935
0.0034494
0.0034494
0.00342984
0.00342992
0.00342992
0.0034037
0.00342288
0.0034037
0.00342288
0.00342304
0.00340419
0.00340419
0.00342343
0.00342343
0.0034303
0.00344895
0.00344981
0.00342953
0.00342979
0.00344936
0.00344606
0.00343316
0.00344907
0.00342998
0.00343312
0.00342979
0.00344936
0.00344607
0.00343316
0.00344907
0.00342998
0.00343312
0.00342379
0.00340386
0.00342305
0.00340451
0.00342379
0.00340386
0.00342305
0.00340451
0.00342321
0.00342028
0.00340427
0.00340743
0.00342342
0.00342024
0.00340414
0.00342321
0.00342028
0.00340427
0.00340743
0.00342342
0.00342024
0.00340414
0.0034494
0.0034494
0.00342984
0.00342992
0.00342992
0.00344874
0.00342935
0.0034037
0.00342288
0.00342304
0.00340419
0.00340419
0.00342343
0.00342343
0.0034037
0.00342288
0.00342979
0.00344936
0.00344607
0.00343316
0.00344907
0.00342998
0.00343312
0.0034303
0.00344895
0.00344981
0.00342953
0.00342979
0.00344606
0.00344936
0.00343316
0.00344907
0.00343312
0.00342998
0.00342379
0.00340386
0.00342305
0.00340451
0.00342321
0.00342028
0.00340427
0.00340743
0.00342342
0.00342024
0.00340414
0.00342379
0.00340386
0.00342305
0.00340451
0.00342321
0.00342028
0.00340743
0.00340427
0.00342024
0.00342342
0.00340414
0.0034303
0.00344895
0.00344981
0.00342953
0.00342979
0.00344607
0.00344936
0.00343316
0.00344907
0.00343312
0.00342998
0.0034303
0.00344895
0.00344981
0.00342953
0.00342321
0.00342028
0.00340428
0.00340743
0.00342342
0.00342024
0.00340414
0.00342379
0.00340386
0.00342305
0.00340451
0.00342321
0.00342028
0.00340743
0.00340427
0.00342024
0.00342342
0.00340414
0.00342379
0.00340386
0.00342305
0.00340451
0.0034494
0.0034494
0.00342984
0.00342992
0.00342992
0.00344874
0.00342935
0.0034037
0.00342288
0.00342304
0.00340419
0.00340419
0.00342343
0.00342343
0.0034037
0.00342288
0.00342979
0.00344607
0.00344936
0.00343316
0.00344907
0.00343312
0.00342998
0.0034303
0.00344895
0.00344981
0.00342953
0.0034303
0.00344895
0.00344981
0.00342953
0.00342321
0.00342028
0.00340743
0.00340428
0.00342024
0.00342342
0.00340414
0.00342321
0.00342028
0.00340743
0.00340427
0.00342024
0.00342342
0.00340414
0.00342379
0.00340386
0.00342305
0.00340451
0.00342379
0.00340386
0.00342305
0.00340451
0.00344874
0.00342935
0.00344874
0.00342935
0.00342304
0.00340419
0.00340419
0.00342343
0.00342343
0.0034037
0.00342288
0.0034037
0.00342288
0.00339731
0.00337841
0.00339731
0.00337841
0.00339779
0.00339779
0.00337891
0.00337885
0.00337885
0.00335349
0.00337211
0.00335349
0.00337211
0.0033723
0.00335389
0.00335389
0.00337255
0.00337255
0.0033791
0.00339746
0.00339809
0.00337855
0.00337883
0.00339781
0.00339471
0.00338211
0.00339764
0.00337894
0.00338208
0.00337883
0.00339781
0.00339471
0.00338211
0.00339764
0.00337894
0.00338208
0.00337278
0.00335362
0.00337224
0.00335409
0.00337278
0.00335362
0.00337224
0.00335409
0.00337242
0.00336957
0.00335398
0.0033571
0.00337256
0.00336954
0.0033539
0.00337242
0.00336957
0.00335398
0.0033571
0.00337256
0.00336954
0.0033539
0.00339779
0.00339779
0.00337891
0.00337885
0.00337885
0.00339731
0.00337841
0.00335349
0.00337211
0.0033723
0.00335389
0.00335389
0.00337255
0.00337255
0.00335349
0.00337211
0.00337883
0.00339781
0.00339471
0.00338211
0.00339764
0.00337894
0.00338208
0.0033791
0.00339746
0.00339809
0.00337855
0.00337883
0.00339471
0.00339781
0.00338211
0.00339764
0.00338208
0.00337894
0.00337278
0.00335362
0.00337224
0.00335409
0.00337242
0.00336957
0.00335398
0.0033571
0.00337256
0.00336954
0.0033539
0.00337278
0.00335362
0.00337224
0.00335409
0.00337242
0.00336957
0.0033571
0.00335398
0.00336954
0.00337256
0.0033539
0.0033791
0.00339746
0.00339809
0.00337855
0.00337883
0.00339471
0.00339781
0.00338211
0.00339763
0.00338208
0.00337894
0.0033791
0.00339746
0.00339809
0.00337855
0.00337242
0.00336957
0.00335398
0.0033571
0.00337256
0.00336954
0.0033539
0.00337278
0.00335362
0.00337224
0.00335409
0.00337242
0.00336957
0.0033571
0.00335398
0.00336954
0.00337256
0.0033539
0.00337278
0.00335362
0.00337224
0.00335409
0.00339779
0.00339779
0.00337891
0.00337885
0.00337885
0.00339731
0.00337841
0.00335349
0.00337211
0.0033723
0.00335389
0.00335389
0.00337255
0.00337255
0.00335349
0.00337211
0.00337883
0.00339471
0.00339781
0.00338211
0.00339764
0.00338208
0.00337894
0.0033791
0.00339746
0.00339809
0.00337855
0.0033791
0.00339746
0.00339809
0.00337855
0.00337242
0.00336957
0.0033571
0.00335398
0.00336954
0.00337256
0.0033539
0.00337242
0.00336957
0.0033571
0.00335398
0.00336954
0.00337256
0.0033539
0.00337278
0.00335362
0.00337224
0.00335409
0.00337278
0.00335362
0.00337224
0.00335409
0.00339731
0.00337841
0.00339731
0.00337841
0.0033723
0.00335389
0.00335389
0.00337255
0.00337255
0.00335349
0.00337211
0.00335349
0.00337211
0.00334729
0.00332895
0.00334729
0.00332895
0.00334769
0.00334769
0.00332943
0.00332933
0.00332932
0.00330477
0.00332284
0.00330476
0.00332284
0.00332304
0.00330512
0.00330511
0.00332321
0.00332321
0.00332946
0.00334741
0.00334786
0.00332906
0.00332934
0.00334771
0.00334474
0.00333251
0.00334759
0.00332941
0.00333248
0.00332934
0.00334771
0.00334474
0.00333251
0.00334759
0.00332941
0.00333248
0.00332333
0.00330487
0.00332295
0.0033052
0.00332333
0.00330487
0.00332294
0.0033052
0.00332312
0.00332034
0.0033052
0.00330822
0.00332322
0.00332031
0.00330513
0.00332312
0.00332034
0.0033052
0.00330822
0.00332322
0.00332031