/*--------------------------------*- C++ -*----------------------------------*\
| =========                 |                                                 |
| \\      /  F ield         | OpenFOAM: The Open Source CFD Toolbox           |
|  \\    /   O peration     | Version:  2312                                  |
|   \\  /    A nd           | Website:  www.openfoam.com                      |
|    \\/     M anipulation  |                                                 |
\*---------------------------------------------------------------------------*/
FoamFile
{
    version     2.0;
    format      ascii;
    arch        "LSB;label=32;scalar=64";
    class       surfaceScalarField;
    location    "750";
    object      phi;
}
// * * * * * * * * * * * * * * * * * * * * * * * * * * * * * * * * * * * * * //

dimensions      [0 3 -1 0 0 0 0];

oriented        oriented;

internalField   nonuniform List<scalar> 
125397
(
-0.000260899
-3.9613e-06
-3.95675e-06
3.15348e-06
3.16137e-06
0.000262502
-0.00026147
-3.75459e-06
3.95647e-06
-4.51671e-06
2.97044e-06
0.000262815
-0.000261463
-3.75972e-06
3.95644e-06
2.97055e-06
-4.51425e-06
0.00026281
-0.000261159
3.75112e-06
3.7597e-06
-4.23388e-06
-4.22708e-06
0.000262109
-1.77522e-06
-1.77684e-06
-0.00106079
1.0049e-06
1.00629e-06
0.00106233
-0.00106272
-1.63876e-06
1.77644e-06
8.94162e-07
0.00106396
-6.7296e-07
7.67579e-07
-1.60631e-07
3.55205e-07
-8.26683e-07
-1.42935e-06
-3.07213e-07
-0.00106261
-1.63871e-06
1.78165e-06
8.94108e-07
0.00106384
-6.75566e-07
7.67577e-07
-1.58098e-07
3.55248e-07
-8.2923e-07
-1.42933e-06
-3.07137e-07
-0.000261524
1.66599e-06
1.62854e-06
-7.37847e-07
-7.43506e-07
0.000259711
-1.36169e-06
-1.36256e-06
-0.00106652
6.83536e-07
6.7935e-07
0.00106788
-0.00106786
-1.55987e-06
1.36252e-06
6.99535e-07
0.0010692
-6.24568e-07
8.38045e-07
-1.04533e-07
4.25828e-07
-7.7978e-07
-1.35553e-06
-2.42492e-07
-0.00106774
-1.55463e-06
1.36251e-06
6.94458e-07
0.00106909
-6.24589e-07
8.32708e-07
-1.04572e-07
4.25865e-07
-7.79745e-07
-1.35289e-06
-2.42454e-07
-0.000262743
1.59e-06
1.54696e-06
-6.75238e-07
-6.78272e-07
0.00026096
-1.34152e-06
-1.34252e-06
-0.00107199
6.64339e-07
6.65368e-07
0.00107334
-0.00107321
-1.55674e-06
1.34241e-06
6.66564e-07
0.00107453
-6.21069e-07
8.62601e-07
-8.25175e-08
4.38686e-07
-7.82688e-07
-1.3691e-06
-2.18201e-07
-0.00107309
-1.5541e-06
1.34232e-06
6.71904e-07
0.0010744
-6.18418e-07
8.59916e-07
-8.50293e-08
4.38676e-07
-7.82656e-07
-1.36905e-06
-2.18172e-07
-0.000264021
1.58436e-06
1.54898e-06
-6.65792e-07
-6.68838e-07
0.000262223
-1.29588e-06
-1.29683e-06
-0.00107734
6.42083e-07
6.43119e-07
0.00107864
-0.00107838
-1.54822e-06
1.29672e-06
6.31887e-07
0.00107964
-6.08185e-07
8.90788e-07
-5.69367e-08
4.60786e-07
-7.71032e-07
-1.37135e-06
-1.86568e-07
-0.00107826
-1.54556e-06
1.29662e-06
6.3726e-07
0.00107952
-6.0551e-07
8.88073e-07
-5.94576e-08
4.60778e-07
-7.71008e-07
-1.37132e-06
-1.86535e-07
-0.00026524
1.57597e-06
1.54042e-06
-6.48463e-07
-6.51514e-07
0.000263424
-1.24883e-06
-1.24966e-06
-0.00108249
6.20562e-07
6.2163e-07
0.00108375
-0.00108332
-1.53971e-06
1.24949e-06
6.01633e-07
0.00108452
-5.9579e-07
9.16561e-07
-3.44646e-08
4.84886e-07
-7.5682e-07
-1.36904e-06
-1.56047e-07
-0.0010832
-1.5371e-06
1.24938e-06
6.0703e-07
0.00108439
-5.93208e-07
9.13861e-07
-3.68421e-08
4.84882e-07
-7.56771e-07
-1.369e-06
-1.56027e-07
-0.000266386
1.5676e-06
1.53189e-06
-6.31373e-07
-6.34425e-07
0.000264552
-1.20496e-06
-1.20556e-06
-0.00108744
6.01157e-07
6.02279e-07
0.00108865
-0.001088
-1.53301e-06
1.20541e-06
5.77459e-07
0.00108914
-5.86053e-07
9.39311e-07
-1.61548e-08
5.09579e-07
-7.43063e-07
-1.36499e-06
-1.28007e-07
-0.00108788
-1.5303e-06
1.2052e-06
5.82765e-07
0.00108902
-5.83207e-07
9.36645e-07
-1.83351e-08
5.0951e-07
-7.43053e-07
-1.36498e-06
-1.28026e-07
-0.000267457
1.56117e-06
1.5253e-06
-6.16977e-07
-6.20033e-07
0.000265608
-1.16606e-06
-1.16726e-06
-0.0010922
5.84779e-07
5.8585e-07
0.00109336
-0.00109245
-1.52856e-06
1.16721e-06
5.59071e-07
0.00109354
-5.79641e-07
9.59524e-07
-1.82879e-09
5.33583e-07
-7.30845e-07
-1.36093e-06
-1.03182e-07
-0.00109233
-1.52586e-06
1.16704e-06
5.64555e-07
0.00109341
-5.7677e-07
9.56718e-07
-3.71384e-09
5.33517e-07
-7.30858e-07
-1.36093e-06
-1.03162e-07
-0.00026846
1.55691e-06
1.52081e-06
-6.05089e-07
-6.08173e-07
0.000266595
-1.13246e-06
-1.13361e-06
-0.00109679
5.70771e-07
5.71548e-07
0.00109791
-0.0010967
-1.52721e-06
1.13362e-06
5.45052e-07
0.00109773
-5.76262e-07
9.76279e-07
1.6119e-08
5.56087e-07
-7.20452e-07
-1.35779e-06
-8.15832e-08
-0.00109658
-1.52444e-06
1.13364e-06
5.50523e-07
0.00109761
-5.73359e-07
9.73573e-07
1.30228e-08
5.56104e-07
-7.20382e-07
-1.3577e-06
-8.14988e-08
-0.0002694
1.55548e-06
1.51928e-06
-5.96559e-07
-5.9958e-07
0.000267521
-1.10401e-06
-1.10498e-06
-0.00110123
5.59127e-07
5.5988e-07
0.00110232
-0.00110075
-1.5274e-06
1.1049e-06
5.34049e-07
0.00110174
-5.74226e-07
9.91495e-07
3.06867e-08
5.77363e-07
-7.11038e-07
-1.35516e-06
-6.27652e-08
-0.00110063
-1.52468e-06
1.10484e-06
5.39511e-07
0.00110162
-5.71496e-07
9.88838e-07
2.79557e-08
5.77386e-07
-7.10929e-07
-1.35501e-06
-6.27271e-08
-0.000270281
1.55587e-06
1.51953e-06
-5.89976e-07
-5.93037e-07
0.000268389
-1.07926e-06
-1.08014e-06
-0.00110555
5.4926e-07
5.50022e-07
0.00110661
-0.00110464
-1.52857e-06
1.07994e-06
5.24724e-07
0.00110559
-5.73374e-07
1.0057e-06
4.30579e-08
5.97422e-07
-7.01811e-07
-1.35243e-06
-4.65202e-08
-0.00110452
-1.52584e-06
1.07983e-06
5.30183e-07
0.00110546
-5.70771e-07
1.00308e-06
4.05781e-08
5.97475e-07
-7.01644e-07
-1.35225e-06
-4.64696e-08
-0.000271109
1.55718e-06
1.52071e-06
-5.84626e-07
-5.87713e-07
0.000269203
-1.05654e-06
-1.05739e-06
-0.00110975
5.40206e-07
5.40946e-07
0.00111078
-0.00110837
-1.53015e-06
1.05718e-06
5.15661e-07
0.00110928
-5.73194e-07
1.01944e-06
5.45021e-08
6.16141e-07
-6.91792e-07
-1.34886e-06
-3.24848e-08
-0.00110824
-1.52745e-06
1.05714e-06
5.21228e-07
0.00110915
-5.70711e-07
1.01674e-06
5.16419e-08
6.16263e-07
-6.91667e-07
-1.34872e-06
-3.23613e-08
-0.000271884
1.5588e-06
1.52221e-06
-5.79795e-07
-5.82921e-07
0.000269965
-1.03477e-06
-1.03566e-06
-0.00111384
5.31372e-07
5.32121e-07
0.00111484
-0.00111194
-1.53161e-06
1.03561e-06
5.06242e-07
0.00111282
-5.72332e-07
1.03288e-06
6.4672e-08
6.33324e-07
-6.80638e-07
-1.34423e-06
-2.02846e-08
-0.00111182
-1.5289e-06
1.03556e-06
5.11855e-07
0.00111269
-5.6963e-07
1.0301e-06
6.16258e-08
6.33391e-07
-6.8059e-07
-1.34416e-06
-2.01877e-08
-0.000272607
1.5603e-06
1.52358e-06
-5.75109e-07
-5.78271e-07
0.000270676
-1.01382e-06
-1.01464e-06
-0.00111783
5.22733e-07
5.23497e-07
0.00111881
-0.00111537
-1.53316e-06
1.01469e-06
4.96165e-07
0.00111621
-5.69764e-07
1.0456e-06
7.38812e-08
6.48961e-07
-6.67975e-07
-1.33807e-06
-9.67641e-09
-0.00111525
-1.53037e-06
1.01462e-06
5.01669e-07
0.00111608
-5.66898e-07
1.04281e-06
7.09541e-08
6.4898e-07
-6.67944e-07
-1.33802e-06
-9.6166e-09
-0.000273276
1.56186e-06
1.52505e-06
-5.70261e-07
-5.73274e-07
0.000271332
-9.9297e-07
-9.93726e-07
-0.00112172
5.13855e-07
5.14636e-07
0.00112268
-0.00111865
-1.5335e-06
9.93665e-07
4.85765e-07
0.00111945
-5.65585e-07
1.05854e-06
8.25483e-08
6.62776e-07
-6.53914e-07
-1.33032e-06
-1.23118e-09
-0.00111853
-1.53076e-06
9.93503e-07
4.91181e-07
0.00111932
-5.62861e-07
1.05581e-06
7.97245e-08
6.62879e-07
-6.53795e-07
-1.33018e-06
-1.09913e-09
-0.000273891
1.5624e-06
1.52551e-06
-5.62896e-07
-5.6595e-07
0.000271932
-9.72139e-07
-9.72309e-07
-0.00112552
5.04773e-07
5.05343e-07
0.00112645
-0.00112177
-1.53339e-06
9.72387e-07
4.7302e-07
0.00112254
-5.60271e-07
1.07076e-06
9.01668e-08
6.74909e-07
-6.38866e-07
-1.32133e-06
1.06069e-08
-0.00112165
-1.53061e-06
9.72203e-07
4.78551e-07
0.00112241
-5.57406e-07
1.06795e-06
8.72761e-08
6.74954e-07
-6.38823e-07
-1.32126e-06
1.07301e-08
-0.000274447
1.56214e-06
1.52526e-06
-5.55158e-07
-5.5828e-07
0.000272473
-9.50539e-07
-9.51262e-07
-0.00112922
4.95146e-07
4.95792e-07
0.00113013
-0.00112474
-1.5324e-06
9.51117e-07
4.61321e-07
0.00112546
-5.52835e-07
1.0822e-06
9.7485e-08
6.85273e-07
-6.22842e-07
-1.31093e-06
2.02537e-08
-0.00112462
-1.52968e-06
9.50964e-07
4.6694e-07
0.00112533
-5.50114e-07
1.07935e-06
9.4464e-08
6.85388e-07
-6.22766e-07
-1.31082e-06
2.043e-08
-0.000274941
1.56118e-06
1.52429e-06
-5.4683e-07
-5.49852e-07
0.000272952
-9.28787e-07
-9.29499e-07
-0.00113283
4.8492e-07
4.85592e-07
0.00113372
-0.00112755
-1.5304e-06
9.29439e-07
4.55824e-07
0.00112822
-5.43651e-07
1.09273e-06
1.04248e-07
6.94348e-07
-6.06166e-07
-1.29927e-06
2.87568e-08
-0.00112742
-1.52768e-06
9.29448e-07
4.55973e-07
0.00112809
-5.40904e-07
1.0899e-06
1.01308e-07
6.9445e-07
-6.06109e-07
-1.29913e-06
2.8871e-08
-0.00027537
1.55935e-06
1.52235e-06
-5.37703e-07
-5.40718e-07
0.000273367
-9.07456e-07
-9.07866e-07
-0.00113635
4.74907e-07
4.75676e-07
0.00113721
-0.00113018
-1.52738e-06
9.07827e-07
4.45268e-07
0.00113081
-5.33146e-07
1.10233e-06
1.1054e-07
7.02711e-07
-5.89101e-07
-1.28599e-06
3.63266e-08
-0.00113005
-1.52462e-06
9.07747e-07
4.4537e-07
0.00113068
-5.30358e-07
1.09952e-06
1.07626e-07
7.02732e-07
-5.8903e-07
-1.28596e-06
3.64977e-08
-0.000275731
1.5564e-06
1.51931e-06
-5.2765e-07
-5.30664e-07
0.000273714
-8.86253e-07
-8.86779e-07
-0.00113977
4.65294e-07
4.66089e-07
0.00114061
-0.00113263
-1.5232e-06
8.86848e-07
4.29451e-07
0.00113322
-5.21587e-07
1.11089e-06
1.16277e-07
7.10262e-07
-5.71991e-07
-1.2714e-06
4.3208e-08
-0.0011325
-1.52043e-06
8.86783e-07
4.3503e-07
0.00113309
-5.18847e-07
1.10812e-06
1.1337e-07
7.10271e-07
-5.71931e-07
-1.27134e-06
4.33672e-08
-0.000276022
1.55227e-06
1.51511e-06
-5.16723e-07
-5.19726e-07
0.000273991
-8.6579e-07
-8.66333e-07
-0.0011431
4.56267e-07
4.5701e-07
0.00114392
-0.0011349
-1.51774e-06
8.66113e-07
4.19848e-07
0.00113545
-5.09432e-07
1.11853e-06
1.2151e-07
7.17314e-07
-5.54969e-07
-1.25561e-06
4.96692e-08
-0.00113478
-1.51494e-06
8.66075e-07
4.25502e-07
-5.06731e-07
1.11577e-06
1.18555e-07
7.17302e-07
-5.54921e-07
-1.25559e-06
4.98222e-08
-0.000276242
1.54685e-06
1.50965e-06
-5.0493e-07
-5.07919e-07
0.000274198
4.90981e-06
4.92067e-06
0.00026121
-0.00025962
-5.71645e-06
-5.70448e-06
5.15733e-06
0.000261468
-0.000259454
-6.14602e-06
3.88445e-06
-4.91472e-06
5.15191e-06
0.00026146
-0.000259438
-6.15054e-06
3.89181e-06
4.91009e-06
0.00026119
-0.000259594
-5.68962e-06
-5.73059e-06
5.15008e-06
0.000261506
-0.000259471
-6.15091e-06
3.88688e-06
5.14946e-06
-4.91216e-06
0.000261455
-0.000259431
3.88921e-06
-6.15058e-06
-0.000258103
3.75434e-06
3.7568e-06
-5.14732e-06
0.000260876
-0.000258087
3.75666e-06
3.75406e-06
-5.14478e-06
0.000260871
-0.000258082
3.75413e-06
3.75161e-06
-5.15174e-06
-5.14198e-06
0.00026085
-0.000258062
3.75141e-06
3.75395e-06
-0.000259446
-6.1406e-06
3.87908e-06
-4.90669e-06
0.000261417
-0.000259408
3.88141e-06
-6.13515e-06
4.90502e-06
0.000261185
-0.000259589
-5.68715e-06
-5.72542e-06
-0.000259444
3.87661e-06
-6.13554e-06
-4.91511e-06
0.000261458
-0.000259431
3.88662e-06
-6.14021e-06
-0.000259577
-5.70818e-06
-5.69616e-06
3.75171e-06
3.76017e-06
-4.23714e-06
-4.23274e-06
0.000262168
-7.40751e-07
-6.99434e-07
0.000261591
-0.000259518
-3.17628e-07
-3.15309e-07
-4.52471e-06
2.9707e-06
0.000262812
-3.75668e-06
3.96099e-06
-4.52929e-06
2.98067e-06
0.000262804
0.00106222
2.37803e-06
-0.00106122
1.14834e-06
-1.80474e-06
-2.01957e-07
-7.51061e-07
-1.56153e-06
-3.53139e-07
-8.96966e-07
2.94732e-07
7.35544e-07
0.00106231
2.37272e-06
-0.00106129
1.14813e-06
-1.79978e-06
-2.04593e-07
-7.51343e-07
-1.56122e-06
-3.50303e-07
-8.99209e-07
2.94738e-07
-4.23143e-06
-4.23261e-06
0.000262143
-7.01941e-07
0.000261575
-0.000259502
-3.20487e-07
-3.15089e-07
-4.52969e-06
2.97318e-06
0.000262866
-3.75674e-06
3.96364e-06
2.98321e-06
-4.52934e-06
0.000262794
0.00106314
2.38535e-06
-0.00106211
1.12664e-06
-1.76747e-06
-2.07152e-07
-7.51601e-07
-1.56156e-06
-3.50534e-07
-8.9953e-07
2.94595e-07
7.35575e-07
0.00106219
2.38236e-06
-0.0010612
1.1583e-06
-1.79969e-06
-2.02025e-07
-7.51241e-07
-1.56111e-06
-3.50123e-07
-8.98939e-07
2.92155e-07
3.95824e-06
2.9779e-06
-4.51897e-06
0.000262751
2.37975e-06
-0.0010617
1.13697e-06
-1.76977e-06
-2.06953e-07
-7.48609e-07
-1.55616e-06
-3.5058e-07
2.89285e-07
-8.99454e-07
7.3277e-07
0.00106183
2.38238e-06
-0.00106084
1.15844e-06
-1.79679e-06
-2.01936e-07
-7.50972e-07
-1.55581e-06
-3.52757e-07
-8.96402e-07
2.86763e-07
-4.23411e-06
-4.23006e-06
0.000262132
-6.96759e-07
0.00026156
-0.000259492
-3.2036e-07
-3.15073e-07
3.95629e-06
2.97544e-06
-4.52407e-06
0.00026281
2.38994e-06
-0.0010616
1.14707e-06
-1.76704e-06
-2.06815e-07
-7.48426e-07
-1.55623e-06
-3.48032e-07
2.89343e-07
-8.9941e-07
6.88818e-07
0.00106275
2.3901e-06
-0.00106174
1.14177e-06
-1.75945e-06
-2.07077e-07
-7.48808e-07
-1.55327e-06
-3.52849e-07
-8.96689e-07
2.86583e-07
-0.000259467
-3.20306e-07
-3.15302e-07
1.67396e-06
1.63907e-06
-7.35227e-07
-7.4104e-07
0.000259754
-8.72258e-07
-8.3102e-07
0.000262808
-0.000260684
-2.15144e-07
-2.04943e-07
8.95331e-07
0.00106346
-6.78205e-07
8.0625e-07
-1.55788e-07
3.63291e-07
-8.26636e-07
-1.43476e-06
-3.04685e-07
-1.67411e-06
1.77994e-06
9.05425e-07
0.00106353
-6.81065e-07
8.0634e-07
-1.53323e-07
3.66085e-07
-8.31552e-07
-1.43697e-06
-3.01873e-07
0.00106736
1.37355e-06
-0.00106603
7.10111e-07
-1.59941e-06
-1.02842e-07
-6.30726e-07
-1.35519e-06
-2.50077e-07
-7.75533e-07
4.2794e-07
8.64416e-07
0.00106744
1.37322e-06
-0.0010661
7.04807e-07
-1.59437e-06
-1.05372e-07
-6.2831e-07
-1.35751e-06
-2.44875e-07
-7.77924e-07
4.30532e-07
-7.38309e-07
-7.40448e-07
0.000259741
-8.33486e-07
0.000262787
-0.000260672
-2.10086e-07
-2.07463e-07
8.99426e-07
0.00106437
-6.76046e-07
7.67699e-07
-1.58331e-07
3.63146e-07
-8.29406e-07
-1.43469e-06
-3.02236e-07
-1.66886e-06
1.77965e-06
9.0544e-07
0.00106342
-6.8101e-07
7.98483e-07
-1.5332e-07
3.60699e-07
-8.26236e-07
-1.43171e-06
-3.06729e-07
0.00106828
1.37446e-06
-0.00106696
7.14324e-07
-1.55639e-06
-1.07733e-07
-6.23078e-07
-1.35259e-06
-2.4756e-07
-7.75675e-07
4.25136e-07
8.61791e-07
0.00106732
1.37308e-06
-0.00106599
7.04865e-07
-1.58909e-06
-1.07825e-07
-6.2828e-07
-1.35234e-06
-2.47323e-07
-7.75237e-07
4.25167e-07
1.77465e-06
9.05533e-07
0.00106305
-6.80764e-07
7.98304e-07
-1.5324e-07
3.57933e-07
-8.26241e-07
-3.0436e-07
-1.42637e-06
1.37956e-06
-0.00106653
7.03872e-07
-1.56133e-06
-1.07636e-07
-6.25441e-07
-1.35255e-06
-2.501e-07
4.25056e-07
-7.75591e-07
8.64259e-07
0.00106695
1.37316e-06
-0.00106563
7.09974e-07
-1.58876e-06
-1.0523e-07
-6.27978e-07
-1.34961e-06
-2.44898e-07
-7.75168e-07
4.25106e-07
-7.38241e-07
-7.37865e-07
0.000259729
-8.30793e-07
0.000262769
-0.000260656
-2.1275e-07
-2.07404e-07
1.7766e-06
8.9923e-07
0.00106398
-6.75885e-07
7.5704e-07
-1.60784e-07
3.57826e-07
-8.26524e-07
-3.0448e-07
-1.42909e-06
1.37443e-06
-0.00106641
7.09188e-07
-1.55872e-06
-1.07649e-07
-6.2543e-07
-1.34728e-06
-2.50062e-07
4.19761e-07
-7.75541e-07
8.20268e-07
0.00106789
1.37949e-06
-0.00106656
7.09026e-07
-1.54847e-06
-1.12692e-07
-6.23045e-07
-1.34957e-06
-2.47394e-07
-7.78023e-07
4.22346e-07
-0.000260636
-2.1268e-07
-2.10211e-07
1.59537e-06
1.55751e-06
-6.72601e-07
-6.80864e-07
0.000261008
-8.97117e-07
-8.55641e-07
0.000264091
-0.000261961
-1.90191e-07
-1.87791e-07
7.00518e-07
0.00106869
-6.29841e-07
8.76875e-07
-9.97185e-08
4.28704e-07
-7.79699e-07
-1.35827e-06
-2.4247e-07
-1.59292e-06
1.36658e-06
6.95227e-07
0.00106877
-6.30103e-07
8.74276e-07
-9.98375e-08
4.31312e-07
-7.79502e-07
-1.35793e-06
-2.42233e-07
0.0010727
1.35093e-06
-0.00107138
6.8123e-07
-1.59912e-06
-8.42909e-08
-6.29015e-07
-1.37247e-06
-2.25745e-07
-7.84284e-07
4.39424e-07
8.918e-07
0.00107278
1.35064e-06
-0.00107146
6.81121e-07
-1.59408e-06
-8.6913e-08
-6.26532e-07
-1.37217e-06
-2.28075e-07
-7.81474e-07
4.39377e-07
-6.78257e-07
-6.82987e-07
0.000260995
-8.55455e-07
0.000264073
-0.000261951
-1.90414e-07
-1.8514e-07
6.94311e-07
0.00106963
-6.2751e-07
8.35549e-07
-1.0469e-07
4.31194e-07
-7.79891e-07
-1.35822e-06
-2.42418e-07
-1.59027e-06
1.36643e-06
7.00579e-07
0.00106865
-6.30032e-07
8.71649e-07
-9.98252e-08
4.31309e-07
-7.79495e-07
-1.35799e-06
-2.44674e-07
0.00107364
1.35195e-06
-0.00107231
6.80213e-07
-1.55851e-06
-8.92255e-08
-6.24005e-07
-1.37244e-06
-2.23224e-07
-7.87111e-07
4.39305e-07
8.86509e-07
0.00107266
1.35064e-06
-0.00107134
6.81249e-07
-1.58877e-06
-8.44097e-08
-6.29153e-07
-1.37221e-06
-2.28003e-07
-7.81476e-07
4.39436e-07
1.36124e-06
7.0041e-07
0.0010683
-6.29742e-07
8.66206e-07
-1.02166e-07
4.23191e-07
-7.79394e-07
-2.47214e-07
-1.35262e-06
1.35183e-06
-0.00107188
6.85475e-07
-1.55828e-06
-8.90986e-08
-6.23699e-07
-1.36709e-06
-2.25782e-07
4.33952e-07
-7.84367e-07
8.83745e-07
0.0010723
1.35055e-06
-0.00107098
6.81067e-07
-1.58587e-06
-8.67234e-08
-6.2621e-07
-1.3642e-06
-2.30574e-07
-7.7876e-07
4.31237e-07
-6.75703e-07
-6.80348e-07
0.00026098
-8.52769e-07
0.00026405
-0.000261935
-1.90368e-07
-1.85153e-07
1.36768e-06
6.99483e-07
0.00106922
-6.22118e-07
8.27414e-07
-1.07163e-07
4.23091e-07
-7.76994e-07
-2.44761e-07
-1.34997e-06
1.35176e-06
-0.00107176
6.80305e-07
-1.55563e-06
-9.16212e-08
-6.21027e-07
-1.36707e-06
-2.2575e-07
4.33905e-07
-7.84342e-07
8.47486e-07
0.00107323
1.35181e-06
-0.0010719
6.80176e-07
-1.55054e-06
-8.92292e-08
-6.23905e-07
-1.36944e-06
-2.25548e-07
-7.84222e-07
4.3654e-07
-0.000261912
-1.90378e-07
-1.87816e-07
1.59764e-06
1.55697e-06
-6.65755e-07
-6.68905e-07
0.000262272
-9.25768e-07
-8.84122e-07
0.000265311
-0.000263179
-1.62061e-07
-1.59603e-07
6.72837e-07
0.00107402
-6.26392e-07
9.04291e-07
-7.77637e-08
4.44214e-07
-7.82605e-07
-1.37446e-06
-2.18147e-07
-1.5926e-06
1.34123e-06
6.72707e-07
0.0010741
-6.23902e-07
8.98983e-07
-8.03342e-08
4.44149e-07
-7.79805e-07
-1.37417e-06
-2.20507e-07
0.00107788
1.30764e-06
-0.00107661
6.46536e-07
-1.59149e-06
-5.83463e-08
-6.16802e-07
-1.3768e-06
-1.94406e-07
-7.74324e-07
4.6054e-07
9.20463e-07
0.00107796
1.30739e-06
-0.00107669
6.46442e-07
-1.58645e-06
-6.08635e-08
-6.14325e-07
-1.3765e-06
-1.96801e-07
-7.71525e-07
4.60473e-07
-6.66298e-07
-6.71021e-07
0.000262261
-8.83961e-07
0.000265293
-0.000263169
-1.6219e-07
-1.56895e-07
6.71816e-07
0.00107495
-6.21375e-07
8.62771e-07
-8.26885e-08
4.44108e-07
-7.85434e-07
-1.37442e-06
-2.1562e-07
-1.58729e-06
1.34125e-06
6.72837e-07
0.00107398
-6.26551e-07
8.93691e-07
-7.78218e-08
4.44221e-07
-7.79799e-07
-1.37419e-06
-2.20435e-07
0.00107882
1.30861e-06
-0.00107754
6.45522e-07
-1.55068e-06
-6.32388e-08
-6.11768e-07
-1.37676e-06
-1.91879e-07
-7.77174e-07
4.60431e-07
9.15138e-07
0.00107784
1.30741e-06
-0.00107657
6.46549e-07
-1.58114e-06
-5.8383e-08
-6.16991e-07
-1.37651e-06
-1.96712e-07
-7.71522e-07
4.60566e-07
1.34114e-06
6.72667e-07
0.00107362
-6.23558e-07
8.90902e-07
-8.01832e-08
4.36011e-07
-7.771e-07
-2.22995e-07
-1.36619e-06
1.30848e-06
-0.00107712
6.50795e-07
-1.55047e-06
-6.3051e-08
-6.11504e-07
-1.37138e-06
-1.94454e-07
4.55047e-07
-7.74388e-07
9.12345e-07
0.00107748
1.30728e-06
-0.0010762
6.46386e-07
-1.57817e-06
-6.07249e-08
-6.13978e-07
-1.36849e-06
-1.99299e-07
-7.68819e-07
4.52307e-07
-6.66336e-07
-6.71032e-07
0.000262246
-8.81262e-07
0.000265269
-0.000263154
-1.62143e-07
-1.5692e-07
1.34239e-06
6.71753e-07
0.00107454
-6.21248e-07
8.54607e-07
-8.26833e-08
4.41277e-07
-7.82556e-07
-2.17958e-07
-1.37138e-06
1.30839e-06
-0.00107699
6.45609e-07
-1.54782e-06
-6.55621e-08
-6.08848e-07
-1.37137e-06
-1.94425e-07
4.54995e-07
-7.74364e-07
8.75945e-07
0.0010784
1.30846e-06
-0.00107713
6.45467e-07
-1.54267e-06
-6.32106e-08
-6.11664e-07
-1.37369e-06
-1.94238e-07
-7.74276e-07
4.57595e-07
-0.00026313
-1.62209e-07
-1.59609e-07
1.58929e-06
1.54843e-06
-6.48397e-07
-6.51529e-07
0.000263473
-9.52364e-07
-9.10551e-07
0.000266456
-0.000264326
-1.34835e-07
-1.32306e-07
6.38168e-07
0.00107913
-6.13503e-07
9.32676e-07
-5.21618e-08
4.66313e-07
-7.70947e-07
-1.37674e-06
-1.86542e-07
-1.58423e-06
1.29566e-06
6.38087e-07
0.00107921
-6.10997e-07
9.27332e-07
-5.47217e-08
4.66273e-07
-7.68163e-07
-1.37645e-06
-1.86425e-07
0.00108281
1.26049e-06
-0.0010816
6.15013e-07
-1.583e-06
-3.50256e-08
-6.04193e-07
-1.37528e-06
-1.63456e-07
-7.60307e-07
4.84299e-07
9.46966e-07
0.00108288
1.26033e-06
-0.00108167
6.14987e-07
-1.57787e-06
-3.52617e-08
-6.04302e-07
-1.37499e-06
-1.63299e-07
-7.60193e-07
4.84292e-07
-6.48962e-07
-6.53702e-07
0.000263463
-9.10305e-07
0.000266438
-0.000264316
-1.35131e-07
-1.29835e-07
6.37155e-07
0.00108007
-6.08464e-07
8.9099e-07
-5.7039e-08
4.66213e-07
-7.73799e-07
-1.37669e-06
-1.84012e-07
-1.57891e-06
1.29567e-06
6.38179e-07
0.00107909
-6.13657e-07
9.21982e-07
-5.22937e-08
4.66356e-07
-7.68171e-07
-1.37646e-06
-1.88831e-07
0.00108375
1.26137e-06
-0.00108254
6.14028e-07
-1.54202e-06
-3.98532e-08
-5.99147e-07
-1.37524e-06
-1.60922e-07
-7.63172e-07
4.842e-07
9.41546e-07
0.00108277
1.26029e-06
-0.00108156
6.15027e-07
-1.57254e-06
-3.53172e-08
-6.04202e-07
-1.37503e-06
-1.65733e-07
-7.57563e-07
4.84357e-07
1.29553e-06
6.38019e-07
0.00107873
-6.10692e-07
9.19226e-07
-5.45677e-08
4.58088e-07
-7.65453e-07
-1.91423e-07
-1.36843e-06
1.26124e-06
-0.00108211
6.19316e-07
-1.54176e-06
-3.98947e-08
-5.98804e-07
-1.36987e-06
-1.63457e-07
4.78828e-07
-7.604e-07
9.38857e-07
0.0010824
1.26012e-06
-0.0010812
6.14884e-07
-1.56965e-06
-3.74276e-08
-6.01396e-07
-1.36694e-06
-1.68364e-07
-7.54816e-07
4.76054e-07
-6.48993e-07
-6.53715e-07
0.000263447
-9.07541e-07
0.000266415
-0.0002643
-1.35166e-07
-1.29932e-07
1.29669e-06
6.37096e-07
0.00107966
-6.08374e-07
8.82793e-07
-5.70468e-08
4.63392e-07
-7.70912e-07
-1.86351e-07
-1.37364e-06
1.26114e-06
-0.00108199
6.14106e-07
-1.53907e-06
-4.24143e-08
-5.96045e-07
-1.36987e-06
-1.63427e-07
4.78756e-07
-7.60395e-07
9.0233e-07
0.00108334
1.26121e-06
-0.00108213
6.13967e-07
-1.53398e-06
-3.98756e-08
-5.9907e-07
-1.37215e-06
-1.63278e-07
-7.60278e-07
4.81372e-07
-0.000264277
-1.3502e-07
-1.32378e-07
1.581e-06
1.53997e-06
-6.31394e-07
-6.34497e-07
0.000264601
-9.76148e-07
-9.34153e-07
0.000267528
-0.0002654
-1.10387e-07
-1.07765e-07
6.07996e-07
0.001084
-6.01155e-07
9.58465e-07
-2.99998e-08
4.90493e-07
-7.56729e-07
-1.37448e-06
-1.55965e-07
-1.57586e-06
1.24861e-06
6.07886e-07
0.00108408
-6.01281e-07
9.53259e-07
-2.98491e-08
4.90417e-07
-7.56613e-07
-1.37415e-06
-1.55876e-07
0.00108749
1.21535e-06
-0.00108634
5.89184e-07
-1.57587e-06
-1.55551e-08
-5.93508e-07
-1.37146e-06
-1.34784e-07
-7.46334e-07
5.08928e-07
9.70906e-07
0.00108757
1.2152e-06
-0.00108642
5.89132e-07
-1.57088e-06
-1.55248e-08
-5.94082e-07
-1.37106e-06
-1.34654e-07
-7.4607e-07
5.08972e-07
-6.31842e-07
-6.36627e-07
0.000264591
-9.34082e-07
0.00026751
-0.00026539
-1.10353e-07
-1.04998e-07
6.07004e-07
0.00108495
-5.96106e-07
9.16613e-07
-3.48031e-08
4.90405e-07
-7.59595e-07
-1.37443e-06
-1.53421e-07
-1.57061e-06
1.24857e-06
6.07928e-07
0.00108396
-6.01366e-07
9.47897e-07
-2.97815e-08
4.90486e-07
-7.53947e-07
-1.37415e-06
-1.58336e-07
0.00108844
1.21603e-06
-0.00108729
5.88213e-07
-1.53474e-06
-2.02495e-08
-5.88466e-07
-1.37139e-06
-1.32197e-07
-7.49152e-07
5.08858e-07
9.65383e-07
0.00108745
1.21514e-06
-0.0010863
5.89187e-07
-1.56561e-06
-1.57343e-08
-5.94114e-07
-1.37108e-06
-1.37006e-07
-7.43383e-07
5.09113e-07
1.24842e-06
6.07816e-07
0.0010836
-5.98289e-07
9.44956e-07
-3.23583e-08
4.82223e-07
-7.51246e-07
-1.6087e-07
-1.36614e-06
1.21591e-06
-0.00108686
5.93527e-07
-1.53463e-06
-2.00418e-08
-5.88601e-07
-1.36594e-06
-1.34781e-07
5.035e-07
-7.46254e-07
9.62671e-07
0.00108708
1.21485e-06
-0.00108594
5.8899e-07
-1.56251e-06
-1.76839e-08
-5.90791e-07
-1.36303e-06
-1.39701e-07
-7.40754e-07
5.00661e-07
-6.32012e-07
-6.36763e-07
0.000264576
-9.31244e-07
0.000267486
-0.000265374
-1.10529e-07
-1.05278e-07
1.24949e-06
6.06905e-07
0.00108453
-5.9596e-07
9.08399e-07
-3.47928e-08
4.87547e-07
-7.56709e-07
-1.5578e-07
-1.37136e-06
1.2158e-06
-0.00108673
5.88273e-07
-1.532e-06
-2.26357e-08
-5.85948e-07
-1.36592e-06
-1.34707e-07
5.03472e-07
-7.46222e-07
9.26019e-07
0.00108802
1.21583e-06
-0.00108687
5.88079e-07
-1.52667e-06
-2.00549e-08
-5.88451e-07
-1.36826e-06
-1.34603e-07
-7.46224e-07
5.06011e-07
-0.00026535
-1.10336e-07
-1.07651e-07
1.57463e-06
1.53345e-06
-6.17042e-07
-6.20105e-07
0.000265657
-9.97016e-07
-9.5495e-07
0.000268532
-0.000266401
-9.16828e-08
-8.64157e-08
5.83839e-07
0.00108862
-5.91822e-07
9.81656e-07
-1.14026e-08
5.15175e-07
-7.42922e-07
-1.37038e-06
-1.28045e-07
-1.56929e-06
1.20476e-06
5.83726e-07
0.0010887
-5.91526e-07
9.76187e-07
-1.16883e-08
5.15106e-07
-7.42907e-07
-1.37014e-06
-1.27885e-07
0.00109194
1.17541e-06
-0.00109085
5.69341e-07
-1.57104e-06
-6.53314e-10
-5.8609e-07
-1.36734e-06
-1.09075e-07
-7.3371e-07
5.33227e-07
9.91908e-07
0.00109202
1.17524e-06
-0.00109092
5.69287e-07
-1.56592e-06
-2.12434e-10
-5.86441e-07
-1.36693e-06
-1.09087e-07
-7.33521e-07
5.33136e-07
-6.17125e-07
-6.21893e-07
0.000265647
-9.55003e-07
0.000268513
-0.000266394
-8.8636e-08
-8.32824e-08
5.8283e-07
0.00108957
-5.86777e-07
9.39622e-07
-1.60238e-08
5.15104e-07
-7.45733e-07
-1.3703e-06
-1.25467e-07
-1.56394e-06
1.20461e-06
5.83682e-07
0.00108858
-5.91372e-07
9.70816e-07
-1.15278e-08
5.1517e-07
-7.40226e-07
-1.37013e-06
-1.3031e-07
0.00109289
1.1763e-06
-0.0010918
5.6851e-07
-1.52963e-06
-4.82243e-09
-5.80997e-07
-1.36731e-06
-1.06539e-07
-7.36586e-07
5.33116e-07
9.86426e-07
0.0010919
1.17525e-06
-0.00109081
5.69357e-07
-1.56072e-06
-3.08074e-10
-5.86655e-07
-1.36694e-06
-1.11483e-07
-7.30824e-07
5.33267e-07
1.20445e-06
5.83608e-07
0.00108822
-5.88923e-07
9.67972e-07
-1.38798e-08
5.0694e-07
-7.37381e-07
-1.32868e-07
-1.36201e-06
1.17614e-06
-0.00109137
5.73832e-07
-1.52944e-06
-4.33246e-09
-5.80916e-07
-1.36181e-06
-1.09233e-07
5.27621e-07
-7.33727e-07
9.83502e-07
0.00109153
1.17509e-06
-0.00109044
5.69346e-07
-1.55754e-06
-2.58712e-09
-5.83175e-07
-1.35894e-06
-1.14065e-07
-7.28225e-07
5.24857e-07
-6.17073e-07
-6.21865e-07
0.000265631
-9.52202e-07
0.000268489
-0.000266378
-8.86919e-08
-8.34494e-08
1.2054e-06
5.82705e-07
0.00108916
-5.86587e-07
9.3129e-07
-1.6222e-08
5.12277e-07
-7.4285e-07
-1.27774e-07
-1.36724e-06
1.17599e-06
-0.00109124
5.68557e-07
-1.52688e-06
-6.57219e-09
-5.7843e-07
-1.36179e-06
-1.09197e-07
5.27604e-07
-7.3367e-07
9.46749e-07
0.00109247
1.17605e-06
-0.00109138
5.68452e-07
-1.52152e-06
-4.63546e-09
-5.80811e-07
-1.36418e-06
-1.08971e-07
-7.33698e-07
5.30217e-07
-0.000266354
-8.89631e-08
-8.62655e-08
1.57037e-06
1.5288e-06
-6.02346e-07
-6.07964e-07
0.000266643
-1.01465e-06
-9.72434e-07
0.000269472
-0.000267342
-7.38228e-08
-6.83503e-08
5.64957e-07
0.00109302
-5.852e-07
1.00198e-06
5.13435e-09
5.39025e-07
-7.30775e-07
-1.36634e-06
-1.03322e-07
-1.56517e-06
1.166e-06
5.6499e-07
0.0010931
-5.85286e-07
9.96445e-07
4.3316e-09
5.3909e-07
-7.30673e-07
-1.36609e-06
-1.03072e-07
0.00109618
1.14037e-06
-0.00109514
5.54389e-07
-1.5691e-06
1.80579e-08
-5.82345e-07
-1.36144e-06
-8.68516e-08
-7.22996e-07
5.53327e-07
1.00944e-06
0.00109626
1.14014e-06
-0.00109522
5.54229e-07
-1.56383e-06
1.84518e-08
-5.82428e-07
-1.36373e-06
-8.6817e-08
-7.22863e-07
5.55894e-07
-6.05407e-07
-6.10182e-07
0.000266635
-9.72394e-07
0.000269453
-0.000267335
-7.08755e-08
-6.53569e-08
5.64395e-07
0.00109397
-5.79954e-07
9.59891e-07
-1.45312e-09
5.39006e-07
-7.33595e-07
-1.36625e-06
-1.00713e-07
-1.55983e-06
1.16598e-06
5.65005e-07
0.00109298
-5.85109e-07
9.90957e-07
4.334e-09
5.39136e-07
-7.28079e-07
-1.36614e-06
-1.05512e-07
0.00109714
1.14165e-06
-0.00109609
5.53589e-07
-1.52756e-06
1.18854e-08
-5.77081e-07
-1.36393e-06
-8.41373e-08
-7.25745e-07
5.56069e-07
1.00409e-06
0.00109614
1.14007e-06
-0.0010951
5.5414e-07
-1.55849e-06
1.84134e-08
-5.82555e-07
-1.36373e-06
-8.92004e-08
-7.2017e-07
5.56014e-07
1.16596e-06
5.65076e-07
0.00109261
-5.82427e-07
9.88355e-07
1.0142e-09
5.30833e-07
-7.25209e-07
-1.08132e-07
-1.35792e-06
1.14147e-06
-0.00109566
5.58771e-07
-1.52725e-06
1.24921e-08
-5.76763e-07
-1.35843e-06
-8.68173e-08
5.50513e-07
-7.22932e-07
1.00113e-06
0.00109577
1.14015e-06
-0.00109473
5.54188e-07
-1.55543e-06
1.5243e-08
-5.79283e-07
-1.35564e-06
-9.17525e-08
-7.17475e-07
5.47655e-07
-6.05367e-07
-6.1016e-07
0.000266619
-9.69709e-07
0.000269429
-0.000267319
-7.08338e-08
-6.52968e-08
1.16706e-06
5.64326e-07
0.00109355
-5.80014e-07
9.51587e-07
-1.65521e-09
5.36228e-07
-7.3067e-07
-1.03011e-07
-1.36315e-06
1.14155e-06
-0.00109553
5.53578e-07
-1.52457e-06
9.19409e-09
-5.74109e-07
-1.35833e-06
-8.66905e-08
5.50594e-07
-7.22788e-07
9.64263e-07
0.00109672
1.14138e-06
-0.00109567
5.53334e-07
-1.51928e-06
1.21127e-08
-5.76826e-07
-1.3608e-06
-8.65717e-08
-7.22875e-07
5.53132e-07
-0.000267295
-7.10162e-08
-6.81998e-08
1.569e-06
1.52741e-06
-5.93823e-07
-5.99429e-07
0.000267568
-1.03033e-06
-9.87979e-07
0.000270353
-0.000268225
-5.79775e-08
-5.24787e-08
5.51257e-07
0.00109721
-5.81749e-07
1.01884e-06
2.24646e-08
5.58789e-07
-7.20479e-07
-1.36065e-06
-8.17777e-08
-1.56384e-06
1.13238e-06
5.51267e-07
0.00109729
-5.81926e-07
1.01335e-06
2.1984e-08
5.61499e-07
-7.20395e-07
-1.36307e-06
-8.15823e-08
0.00110023
1.11072e-06
-0.00109924
5.43027e-07
-1.56923e-06
3.31555e-08
-5.8023e-07
-1.35872e-06
-6.73493e-08
-7.13373e-07
5.74936e-07
1.02505e-06
0.00110031
1.11058e-06
-0.00109931
5.4286e-07
-1.56407e-06
3.31863e-08
-5.80637e-07
-1.36369e-06
-6.71896e-08
-7.13185e-07
5.804e-07
-5.97008e-07
-6.01778e-07
0.000267561
-9.87916e-07
0.000270332
-0.000268217
-5.51666e-08
-4.6915e-08
5.50394e-07
0.00109817
-5.7648e-07
9.76587e-07
1.64202e-08
5.61533e-07
-7.23214e-07
-1.36313e-06
-7.90682e-08
-1.5584e-06
1.1323e-06
5.51157e-07
0.00109717
-5.81808e-07
1.00797e-06
2.2042e-08
5.61528e-07
-7.17776e-07
-1.36312e-06
-8.40269e-08
0.00110119
1.11173e-06
-0.0011002
5.42055e-07
-1.52754e-06
2.7221e-08
-5.74948e-07
-1.36124e-06
-6.71273e-08
-7.13449e-07
5.77654e-07
1.01958e-06
0.00110019
1.11056e-06
-0.0010992
5.48293e-07
-1.55869e-06
3.29025e-08
-5.80654e-07
-1.36107e-06
-6.95607e-08
-7.10551e-07
5.7775e-07
1.13232e-06
5.51162e-07
0.0010968
-5.79002e-07
1.00517e-06
1.9165e-08
5.53252e-07
-7.14904e-07
-8.65561e-08
-1.35487e-06
1.11164e-06
-0.00109976
5.47343e-07
-1.52733e-06
2.74818e-08
-5.74982e-07
-1.35567e-06
-6.72059e-08
5.7225e-07
-7.13233e-07
1.01684e-06
0.00109982
1.11043e-06
-0.00109883
5.42785e-07
-1.55561e-06
3.06844e-08
-5.77475e-07
-1.35285e-06
-7.22313e-08