/*--------------------------------*- C++ -*----------------------------------*\
| =========                 |                                                 |
| \\      /  F ield         | OpenFOAM: The Open Source CFD Toolbox           |
|  \\    /   O peration     | Version:  2312                                  |
|   \\  /    A nd           | Website:  www.openfoam.com                      |
|    \\/     M anipulation  |                                                 |
\*---------------------------------------------------------------------------*/
FoamFile
{
    version     2.0;
    format      ascii;
    arch        "LSB;label=32;scalar=64";
    class       volVectorField;
    location    "750";
    object      U;
}
// * * * * * * * * * * * * * * * * * * * * * * * * * * * * * * * * * * * * * //

dimensions      [0 1 -1 0 0 0 0];

internalField   nonuniform List<vector> 
43211
(
(0.000124338 0.000124328 0.100289)
(-0.000176456 0.000135325 0.100342)
(0.000135361 -0.000176471 0.100342)
(-0.000213132 -0.000213088 0.100397)
(9.66601e-05 9.66637e-05 0.100853)
(-0.00016402 0.000100732 0.100938)
(0.000100708 -0.000164024 0.100938)
(-0.000204355 -0.000204422 0.100966)
(9.47162e-05 9.47326e-05 0.101372)
(-0.000155627 9.38669e-05 0.10145)
(9.38653e-05 -0.000155628 0.101451)
(-0.000201898 -0.000201965 0.101471)
(9.37218e-05 9.37429e-05 0.101892)
(-0.000152277 9.06047e-05 0.101958)
(9.06136e-05 -0.000152288 0.101958)
(-0.000199356 -0.000199401 0.101964)
(9.10117e-05 9.10379e-05 0.102398)
(-0.000146336 8.58945e-05 0.102447)
(8.59104e-05 -0.000146349 0.102447)
(-0.000193847 -0.000193885 0.102432)
(8.81168e-05 8.8151e-05 0.102885)
(-0.000140679 8.18754e-05 0.102912)
(8.18916e-05 -0.00014069 0.102912)
(-0.000188423 -0.000188458 0.102871)
(8.53236e-05 8.53742e-05 0.103353)
(-0.000135541 7.86474e-05 0.103354)
(7.86608e-05 -0.000135551 0.103354)
(-0.000183948 -0.000183981 0.103281)
(8.28702e-05 8.29001e-05 0.103803)
(-0.0001311 7.61456e-05 0.103774)
(7.61834e-05 -0.000131113 0.103774)
(-0.000180426 -0.000180492 0.103664)
(8.0676e-05 8.06539e-05 0.104237)
(-0.000127366 7.44206e-05 0.104175)
(7.44086e-05 -0.000127364 0.104175)
(-0.000178337 -0.000178359 0.104023)
(7.87761e-05 7.87704e-05 0.104658)
(-0.000124134 7.30605e-05 0.104558)
(7.30543e-05 -0.000124135 0.104558)
(-0.00017713 -0.000177163 0.104359)
(7.71471e-05 7.71493e-05 0.105066)
(-0.000121302 7.18965e-05 0.104925)
(7.18928e-05 -0.000121304 0.104925)
(-0.000176445 -0.000176485 0.104673)
(7.56487e-05 7.56548e-05 0.105464)
(-0.000118744 7.07697e-05 0.105277)
(7.07673e-05 -0.000118744 0.105277)
(-0.000175995 -0.000176039 0.104967)
(7.41951e-05 7.42023e-05 0.105851)
(-0.000116304 6.95754e-05 0.105615)
(6.9583e-05 -0.000116307 0.105615)
(-0.000175649 -0.000175706 0.10524)
(7.27868e-05 7.27884e-05 0.106229)
(-0.000113912 6.83517e-05 0.105939)
(6.83372e-05 -0.000113917 0.105939)
(-0.000175403 -0.000175428 0.105491)
(7.13953e-05 7.13772e-05 0.106597)
(-0.000111601 6.72866e-05 0.106248)
(6.72643e-05 -0.000111601 0.106248)
(-0.000174556 -0.000174578 0.10572)
(6.993e-05 6.99643e-05 0.106957)
(-0.000109505 6.62498e-05 0.106543)
(6.62466e-05 -0.000109506 0.106543)
(-0.000173501 -0.000173507 0.105926)
(6.84036e-05 6.84485e-05 0.107308)
(-0.000107477 6.51878e-05 0.106822)
(6.5188e-05 -0.000107488 0.106822)
(-0.0001722 -0.000172161 0.106108)
(6.68872e-05 6.69202e-05 0.107649)
(-0.000105446 6.40956e-05 0.107086)
(6.40958e-05 -0.00010547 0.107086)
(-0.000170527 -0.000170495 0.106264)
(6.53938e-05 6.54242e-05 0.107982)
(-0.000103572 6.30244e-05 0.107334)
(6.30181e-05 -0.000103569 0.107334)
(-0.000168367 -0.000168346 0.106394)
(6.38436e-05 6.3875e-05 0.108306)
(-0.000101612 6.19593e-05 0.107565)
(6.19613e-05 -0.000101609 0.107565)
(-0.000165701 -0.000165684 0.106497)
(6.23301e-05 6.23495e-05 0.108622)
(-9.9574e-05 6.09188e-05 0.107779)
(6.09267e-05 -9.95776e-05 0.107779)
(-0.00016246 -0.000162441 0.106572)
(0.000156341 0.000156374 0.100285)
(0.000129521 0.000155306 0.100244)
(-0.000129516 0.000155234 0.100244)
(-0.000156361 0.000156285 0.100285)
(0.00015531 0.000129491 0.100244)
(0.000155278 -0.00012951 0.100244)
(0.00012195 0.000121931 0.100218)
(-0.000121955 0.000121888 0.100218)
(0.000121921 -0.000121956 0.100218)
(-0.000121932 -0.000121927 0.100218)
(-0.000155324 0.000129447 0.100244)
(-0.000155295 -0.000129479 0.100244)
(0.000156312 -0.000156375 0.100285)
(0.000129478 -0.000155329 0.100244)
(-0.000129483 -0.000155283 0.100244)
(-0.000156348 -0.00015631 0.100285)
(0.000213128 0.000213184 0.100397)
(0.000116038 0.000115983 0.100892)
(0.000135403 0.000176451 0.100342)
(-0.000135397 0.000176378 0.100342)
(9.66211e-05 0.000156908 0.100824)
(-9.66487e-05 0.000156909 0.100824)
(-0.000213158 0.000213064 0.100397)
(-0.000116028 0.000115994 0.100892)
(0.000176452 0.000135377 0.100342)
(0.000176422 -0.000135394 0.100342)
(0.000156842 9.66452e-05 0.100824)
(0.00015684 -9.66269e-05 0.100824)
(-0.000176432 -0.000135363 0.100342)
(-0.000156843 9.66363e-05 0.100824)
(-0.000156863 -9.66478e-05 0.100824)
(0.000213097 -0.00021318 0.100397)
(0.000115967 -0.000116014 0.100892)
(-0.000135363 -0.000176424 0.100342)
(9.65975e-05 -0.000156842 0.100824)
(-9.66337e-05 -0.000156845 0.100824)
(-0.000116003 -0.000116032 0.100892)
(0.000204424 0.000204322 0.100966)
(0.000105434 0.000105331 0.101395)
(0.000100733 0.000164076 0.100938)
(-0.000100747 0.000164063 0.100938)
(9.43566e-05 0.000156089 0.101321)
(-9.43976e-05 0.000156091 0.101321)
(-0.000204428 0.000204315 0.100966)
(-0.000105427 0.000105364 0.101395)
(0.000164029 0.00010076 0.100938)
(0.00016403 -0.00010074 0.100938)
(0.000156031 9.4397e-05 0.101321)
(0.00015607 -9.4395e-05 0.101321)
(-0.000164042 -0.000100742 0.100938)
(-0.00015604 9.43681e-05 0.101321)
(-0.00015607 -9.43753e-05 0.101321)
(0.00020431 -0.000204412 0.100966)
(0.000105381 -0.000105406 0.101395)
(-0.000100742 -0.000164019 0.100938)
(9.43649e-05 -0.000156043 0.101321)
(-9.43899e-05 -0.000156029 0.101321)
(-0.000105391 -0.000105421 0.101395)
(0.000201961 0.00020183 0.101471)
(9.70361e-05 9.69783e-05 0.101893)
(9.38553e-05 0.000155676 0.10145)
(-9.38907e-05 0.000155674 0.10145)
(9.1766e-05 0.000153689 0.101833)
(-9.18031e-05 0.000153695 0.101833)
(-0.000201985 0.00020185 0.101471)
(-9.70702e-05 9.70268e-05 0.101893)
(0.000155619 9.38958e-05 0.101451)
(0.000155662 -9.3896e-05 0.101451)
(0.000153641 9.17975e-05 0.101833)
(0.000153693 -9.17907e-05 0.101833)
(-0.000155661 -9.38767e-05 0.101451)
(-0.000153643 9.177e-05 0.101833)
(-0.000153682 -9.1779e-05 0.101833)
(0.000201877 -0.000201961 0.101471)
(9.70212e-05 -9.70693e-05 0.101893)
(-9.3895e-05 -0.000155626 0.101451)
(9.17755e-05 -0.000153654 0.101833)
(-9.17864e-05 -0.000153643 0.101833)
(-9.70395e-05 -9.70476e-05 0.101893)
(0.000199384 0.000199292 0.101964)
(8.63063e-05 8.62634e-05 0.102366)
(9.06036e-05 0.000152321 0.101958)
(-9.06399e-05 0.000152328 0.101958)
(8.70206e-05 0.000147847 0.102327)
(-8.70537e-05 0.00014785 0.102327)
(-0.000199435 0.000199312 0.101964)
(-8.63271e-05 8.62974e-05 0.102366)
(0.000152274 9.06323e-05 0.101958)
(0.000152328 -9.06249e-05 0.101958)
(0.000147807 8.70462e-05 0.102327)
(0.000147856 -8.7034e-05 0.102327)
(-0.000152315 -9.0616e-05 0.101958)
(-0.000147805 8.7019e-05 0.102327)
(-0.000147842 -8.70316e-05 0.102327)
(0.000199322 -0.000199436 0.101964)
(8.62893e-05 -8.63342e-05 0.102366)
(-9.0622e-05 -0.000152278 0.101958)
(8.70318e-05 -0.000147817 0.102327)
(-8.70364e-05 -0.000147809 0.102327)
(-8.63162e-05 -8.63153e-05 0.102366)
(0.00019385 0.000193772 0.102432)
(7.62608e-05 7.6235e-05 0.102812)
(8.58973e-05 0.000146378 0.102447)
(-8.59287e-05 0.000146377 0.102447)
(8.28124e-05 0.0001421 0.102798)
(-8.28287e-05 0.000142093 0.102798)
(-0.000193913 0.000193803 0.102432)
(-7.633e-05 7.63046e-05 0.102812)
(0.000146337 8.59213e-05 0.102447)
(0.000146387 -8.591e-05 0.102447)
(0.000142064 8.28361e-05 0.102798)
(0.000142112 -8.28206e-05 0.102798)
(-0.000146373 -8.5907e-05 0.102447)
(-0.000142059 8.28123e-05 0.102798)
(-0.000142095 -8.28202e-05 0.102798)
(0.00019381 -0.000193921 0.102432)
(7.63249e-05 -7.63684e-05 0.102812)
(-8.59125e-05 -0.00014634 0.102447)
(8.283e-05 -0.000142074 0.102798)
(-8.28258e-05 -0.000142063 0.102798)
(-7.62924e-05 -7.62873e-05 0.102812)
(0.000188434 0.000188374 0.102871)
(6.72584e-05 6.72516e-05 0.10323)
(8.18808e-05 0.00014072 0.102912)
(-8.18896e-05 0.00014071 0.102912)
(7.93674e-05 0.000136806 0.103246)
(-7.93665e-05 0.000136792 0.103246)
(-0.000188473 0.000188367 0.102871)
(-6.72498e-05 6.72376e-05 0.10323)
(0.000140681 8.19026e-05 0.102912)
(0.000140728 -8.1879e-05 0.102912)
(0.000136765 7.94004e-05 0.103246)
(0.000136803 -7.93569e-05 0.103246)
(-0.000140714 -8.18853e-05 0.102912)
(-0.000136755 7.93711e-05 0.103246)
(-0.00013679 -7.93712e-05 0.103246)
(0.000188415 -0.000188525 0.102871)
(6.72977e-05 -6.73395e-05 0.10323)
(-8.18928e-05 -0.000140683 0.102912)
(7.93827e-05 -0.000136766 0.103246)
(-7.93804e-05 -0.00013676 0.103246)
(-6.72489e-05 -6.7241e-05 0.10323)
(0.000183955 0.000183908 0.103281)
(5.93643e-05 5.93243e-05 0.103621)
(7.86316e-05 0.000135583 0.103354)
(-7.86449e-05 0.000135579 0.103354)
(7.66822e-05 0.000132169 0.103671)
(-7.66869e-05 0.000132163 0.103671)
(-0.000183899 0.000183803 0.103281)
(-5.9265e-05 5.92389e-05 0.103621)
(0.000135538 7.8661e-05 0.103354)
(0.000135587 -7.86305e-05 0.103354)
(0.000132149 7.67314e-05 0.103671)
(0.000132183 -7.66767e-05 0.103671)
(-0.000135567 -7.86327e-05 0.103354)
(-0.000132142 7.67055e-05 0.103671)
(-0.000132171 -7.67076e-05 0.103671)
(0.000183794 -0.000183909 0.103281)
(5.9273e-05 -5.93301e-05 0.103621)
(-7.86458e-05 -0.000135538 0.103354)
(7.67248e-05 -0.000132153 0.103671)
(-7.67223e-05 -0.000132145 0.103671)
(-5.9336e-05 -5.93362e-05 0.103621)
(0.000180417 0.000180297 0.103664)
(5.27896e-05 5.28234e-05 0.103988)
(7.61504e-05 0.000131131 0.103774)
(-7.61553e-05 0.000131124 0.103774)
(7.48931e-05 0.000128284 0.104076)
(-7.48944e-05 0.000128281 0.104076)
(-0.000180451 0.000180302 0.103664)
(-5.2736e-05 5.2784e-05 0.103988)
(0.0001311 7.61691e-05 0.103774)
(0.000131149 -7.61499e-05 0.103774)
(0.00012825 7.48397e-05 0.104077)
(0.000128299 -7.48826e-05 0.104076)
(-0.00013112 -7.61354e-05 0.103774)
(-0.000128246 7.48055e-05 0.104077)
(-0.00012828 -7.48686e-05 0.104076)
(0.0001803 -0.000180479 0.103664)
(5.27695e-05 -5.26991e-05 0.103988)
(-7.61493e-05 -0.000131093 0.103774)
(7.47832e-05 -0.000128239 0.104077)
(-7.48292e-05 -0.000128245 0.104077)
(-5.27919e-05 -5.27516e-05 0.103988)
(0.000178299 0.00017826 0.104023)
(4.69977e-05 4.7024e-05 0.104333)
(7.45059e-05 0.000127402 0.104175)
(-7.45062e-05 0.000127398 0.104175)
(7.34702e-05 0.000124943 0.104464)
(-7.34441e-05 0.000124931 0.104464)
(-0.000178373 0.0001783 0.104023)
(-4.70034e-05 4.70236e-05 0.104333)
(0.000127366 7.44549e-05 0.104175)
(0.000127424 -7.4508e-05 0.104175)
(0.000124916 7.34279e-05 0.104464)
(0.000124959 -7.34576e-05 0.104464)
(-0.000127396 -7.44805e-05 0.104175)
(-0.000124894 7.3371e-05 0.104464)
(-0.000124938 -7.34398e-05 0.104464)
(0.00017828 -0.000178335 0.104023)
(4.70544e-05 -4.70075e-05 0.104333)
(-7.44407e-05 -0.000127361 0.104175)
(7.33632e-05 -0.000124894 0.104464)
(-7.33992e-05 -0.0001249 0.104464)
(-4.69587e-05 -4.69313e-05 0.104333)
(0.000177153 0.000177109 0.104359)
(4.16071e-05 4.16315e-05 0.104657)
(7.31438e-05 0.00012417 0.104558)
(-7.31321e-05 0.00012417 0.104558)
(7.2277e-05 0.00012203 0.104834)
(-7.22359e-05 0.000122011 0.104834)
(-0.000177143 0.000177048 0.104359)
(-4.1626e-05 4.1638e-05 0.104657)
(0.000124139 7.31051e-05 0.104558)
(0.000124202 -7.31467e-05 0.104558)
(0.000121999 7.22407e-05 0.104834)
(0.000122042 -7.22548e-05 0.104834)
(-0.000124168 -7.31228e-05 0.104558)
(-0.00012197 7.21695e-05 0.104834)
(-0.000122019 -7.22363e-05 0.104834)
(0.000177058 -0.000177131 0.104359)
(4.16924e-05 -4.16588e-05 0.104657)
(-7.30838e-05 -0.000124132 0.104558)
(7.21644e-05 -0.000121969 0.104834)
(-7.2196e-05 -0.000121979 0.104834)
(-4.15472e-05 -4.15258e-05 0.104657)
(0.000176533 0.000176489 0.104673)
(3.64348e-05 3.64409e-05 0.104962)
(7.19778e-05 0.000121336 0.104925)
(-7.19616e-05 0.000121343 0.104925)
(7.11417e-05 0.000119409 0.10519)
(-7.11062e-05 0.000119399 0.10519)
(-0.00017644 0.000176341 0.104673)
(-3.65442e-05 3.65375e-05 0.104962)
(0.000121304 7.19449e-05 0.104925)
(0.000121379 -7.19817e-05 0.104925)
(0.000119386 7.11108e-05 0.10519)
(0.000119439 -7.11288e-05 0.10519)
(-0.000121341 -7.19585e-05 0.104925)
(-0.000119358 7.10452e-05 0.10519)
(-0.000119409 -7.11137e-05 0.10519)
(0.000176355 -0.000176436 0.104673)
(3.65619e-05 -3.65451e-05 0.104962)
(-7.19201e-05 -0.000121301 0.104925)
(7.1042e-05 -0.00011936 0.10519)
(-7.10721e-05 -0.000119367 0.10519)
(-3.64673e-05 -3.64509e-05 0.104962)
(0.000176059 0.000175997 0.104967)
(3.14596e-05 3.14491e-05 0.105247)
(7.08514e-05 0.000118775 0.105277)
(-7.08265e-05 0.000118785 0.105277)
(6.99804e-05 0.000116953 0.105532)
(-6.99352e-05 0.000116948 0.105532)
(-0.000176045 0.000175928 0.104967)
(-3.16024e-05 3.15648e-05 0.105247)
(0.000118749 7.0825e-05 0.105277)
(0.000118824 -7.08526e-05 0.105277)
(0.000116926 6.99567e-05 0.105532)
(0.000116992 -6.99664e-05 0.105532)
(-0.000118787 -7.08331e-05 0.105277)
(-0.000116906 6.98894e-05 0.105532)
(-0.000116955 -6.99578e-05 0.105532)
(0.000175964 -0.000176064 0.104967)
(3.15433e-05 -3.15485e-05 0.105247)
(-7.07949e-05 -0.000118744 0.105277)
(6.98883e-05 -0.000116909 0.105532)
(-6.99165e-05 -0.000116908 0.105532)
(-3.15186e-05 -3.15118e-05 0.105246)
(0.000175647 0.000175561 0.10524)
(2.66221e-05 2.66223e-05 0.105512)
(6.96758e-05 0.000116361 0.105615)
(-6.96059e-05 0.000116344 0.105615)
(6.87208e-05 0.000114595 0.105859)
(-6.87234e-05 0.000114562 0.105859)
(-0.000175815 0.000175647 0.10524)
(-2.65534e-05 2.66667e-05 0.105512)
(0.000116323 6.96573e-05 0.105615)
(0.00011639 -6.96565e-05 0.105615)
(0.000114537 6.87006e-05 0.105859)
(0.000114608 -6.87224e-05 0.105859)
(-0.000116354 -6.96449e-05 0.105615)
(-0.000114501 6.86427e-05 0.105859)
(-0.000114574 -6.86874e-05 0.105859)
(0.000175656 -0.000175787 0.10524)
(2.66457e-05 -2.65727e-05 0.105512)
(-6.96093e-05 -0.000116307 0.105615)
(6.86254e-05 -0.000114509 0.105859)
(-6.86443e-05 -0.000114516 0.105859)
(-2.66766e-05 -2.66455e-05 0.105511)
(0.000175353 0.000175288 0.105491)
(2.14975e-05 2.15518e-05 0.105756)
(6.8433e-05 0.000114011 0.105938)
(-6.84513e-05 0.000113972 0.105938)
(6.76318e-05 0.000112278 0.106172)
(-6.76565e-05 0.000112238 0.106172)
(-0.000175368 0.000175356 0.105491)
(-2.13496e-05 2.14714e-05 0.105756)
(0.000113939 6.83849e-05 0.105939)
(0.00011402 -6.84506e-05 0.105938)
(0.000112195 6.75601e-05 0.106172)
(0.000112283 -6.76501e-05 0.106172)
(-0.000113981 -6.84035e-05 0.105938)
(-0.000112169 6.75493e-05 0.106172)
(-0.000112254 -6.7611e-05 0.106172)
(0.000175361 -0.000175408 0.105491)
(2.14947e-05 -2.14131e-05 0.105756)
(-6.83452e-05 -0.000113919 0.105938)
(6.75258e-05 -0.00011217 0.106172)
(-6.75414e-05 -0.000112175 0.106172)
(-2.14901e-05 -2.14489e-05 0.105755)
(0.000174586 0.000174554 0.10572)
(1.64894e-05 1.65587e-05 0.105978)
(6.73631e-05 0.000111705 0.106248)
(-6.7396e-05 0.000111666 0.106248)
(6.65684e-05 0.000110027 0.10647)
(-6.66151e-05 0.00011008 0.10647)
(-0.000174469 0.000174449 0.10572)
(-1.64474e-05 1.65586e-05 0.105978)
(0.000111612 6.72906e-05 0.106248)
(0.000111716 -6.7388e-05 0.106248)
(0.000110026 6.65281e-05 0.106471)
(0.000110071 -6.66013e-05 0.10647)
(-0.000111681 -6.73472e-05 0.106248)
(-0.000110008 6.65118e-05 0.10647)
(-0.000109996 -6.65397e-05 0.10647)
(0.000174479 -0.000174534 0.10572)
(1.6535e-05 -1.64452e-05 0.105978)
(-6.72776e-05 -0.0001116 0.106248)
(6.65014e-05 -0.000110013 0.10647)
(-6.65043e-05 -0.000110005 0.10647)
(-1.65511e-05 -1.6492e-05 0.105977)
(0.000173454 0.00017344 0.105927)
(1.18294e-05 1.1937e-05 0.106176)
(6.63157e-05 0.000109503 0.106543)
(-6.6355e-05 0.000109574 0.106542)
(6.55281e-05 0.000107998 0.106754)
(-6.55746e-05 0.000108064 0.106754)
(-0.000173502 0.000173478 0.105926)
(-1.18373e-05 1.1943e-05 0.106177)
(0.000109522 6.62873e-05 0.106543)
(0.000109567 -6.6341e-05 0.106542)
(0.000108015 6.54969e-05 0.106754)
(0.000108071 -6.55564e-05 0.106754)
(-0.000109468 -6.62815e-05 0.106542)
(-0.000107985 6.5472e-05 0.106754)
(-0.000107961 -6.54902e-05 0.106754)
(0.000173478 -0.000173522 0.105926)
(1.19487e-05 -1.18396e-05 0.106176)
(-6.62576e-05 -0.000109504 0.106543)
(6.54641e-05 -0.000107996 0.106754)
(-6.54664e-05 -0.000107982 0.106754)
(-1.19373e-05 -1.18265e-05 0.106176)
(0.000172164 0.000172186 0.106108)
(7.61884e-06 7.70267e-06 0.10635)
(6.52571e-05 0.000107488 0.106822)
(-6.52908e-05 0.000107541 0.106822)
(6.44559e-05 0.000105976 0.107022)
(-6.44709e-05 0.000106006 0.107021)
(-0.00017218 0.000172147 0.106108)
(-7.56111e-06 7.65499e-06 0.10635)
(0.000107504 6.52198e-05 0.106822)
(0.000107564 -6.52813e-05 0.106822)
(0.000105984 6.44063e-05 0.107022)
(0.000106047 -6.44667e-05 0.107021)
(-0.000107451 -6.5219e-05 0.106822)
(-0.000105943 6.43663e-05 0.107022)
(-0.000105927 -6.44198e-05 0.107021)
(0.000172193 -0.000172221 0.106108)
(7.67696e-06 -7.58276e-06 0.10635)
(-6.51909e-05 -0.00010748 0.106822)
(6.43654e-05 -0.000105979 0.107022)
(-6.43814e-05 -0.000105955 0.107022)
(-7.68801e-06 -7.58723e-06 0.10635)
(0.000170501 0.000170506 0.106264)
(3.70677e-06 3.78496e-06 0.106499)
(6.41829e-05 0.000105497 0.107086)
(-6.4199e-05 0.000105526 0.107086)
(6.33804e-05 0.000104108 0.107274)
(-6.33961e-05 0.000104128 0.107273)
(-0.000170477 0.000170437 0.106264)
(-3.66721e-06 3.75023e-06 0.106499)
(0.000105488 6.41343e-05 0.107086)
(0.000105538 -6.41988e-05 0.107086)
(0.00010406 6.33262e-05 0.107274)
(0.000104106 -6.33903e-05 0.107273)
(-0.000105446 -6.41468e-05 0.107086)
(-0.000104038 6.32862e-05 0.107274)
(-0.000104055 -6.33439e-05 0.107273)
(0.000170478 -0.000170521 0.106264)
(3.76073e-06 -3.67613e-06 0.106498)
(-6.41072e-05 -0.000105456 0.107086)
(6.3286e-05 -0.00010404 0.107274)
(-6.32986e-05 -0.000104052 0.107274)
(-3.7722e-06 -3.68125e-06 0.106498)
(0.000168336 0.000168335 0.106394)
(1.8055e-07 2.501e-07 0.10662)
(6.31164e-05 0.000103639 0.107334)
(-6.31373e-05 0.00010366 0.107334)
(6.2309e-05 0.00010215 0.107509)
(-6.23423e-05 0.000102194 0.107509)
(-0.000168334 0.000168286 0.106394)
(-1.86958e-07 2.63683e-07 0.10662)
(0.000103582 6.30605e-05 0.107334)
(0.000103634 -6.31233e-05 0.107334)
(0.000102112 6.22501e-05 0.107509)
(0.000102168 -6.23298e-05 0.107508)
(-0.000103584 -6.30808e-05 0.107334)
(-0.000102104 6.22284e-05 0.107509)
(-0.000102124 -6.22882e-05 0.107509)
(0.000168314 -0.000168366 0.106394)
(2.51622e-07 -1.75082e-07 0.106619)
(-6.30342e-05 -0.00010358 0.107334)
(6.22268e-05 -0.000102107 0.107509)
(-6.22375e-05 -0.000102122 0.107509)
(-2.6198e-07 -1.77026e-07 0.106619)
(0.000165656 0.000165643 0.106497)
(-2.9417e-06 -2.88599e-06 0.106713)
(6.20382e-05 0.000101656 0.107565)
(-6.20793e-05 0.000101704 0.107565)
(6.12917e-05 0.000100181 0.107727)
(-6.1301e-05 0.00010019 0.107726)
(-0.000165682 0.000165635 0.106497)
(2.96985e-06 -2.88663e-06 0.106713)
(0.000101618 6.19819e-05 0.107565)
(0.000101677 -6.2065e-05 0.107565)
(0.000100127 6.12261e-05 0.107727)
(0.000100169 -6.1287e-05 0.107726)
(-0.000101633 -6.20258e-05 0.107565)
(-0.000100088 6.11759e-05 0.107727)
(-0.000100117 -6.12448e-05 0.107726)
(0.000165644 -0.000165703 0.106497)
(-2.91621e-06 2.98111e-06 0.106713)
(-6.1976e-05 -0.000101634 0.107565)
(6.11837e-05 -0.000100095 0.107727)
(-6.11969e-05 -0.00010012 0.107727)
(2.88652e-06 2.97385e-06 0.106712)
(0.000162446 0.000162424 0.106572)
(6.10583e-05 9.96745e-05 0.107778)
(-6.10492e-05 9.96765e-05 0.107778)
(-0.000162438 0.000162398 0.106572)
(9.96187e-05 6.0988e-05 0.107779)
(9.96564e-05 -6.10297e-05 0.107778)
(-9.96045e-05 -6.09953e-05 0.107778)
(0.000162387 -0.00016246 0.106572)
(-6.09485e-05 -9.96088e-05 0.107779)
(1.24742e-06 1.245e-06 0.0999994)
(1.5979e-05 1.59736e-05 0.100001)
(1.53636e-06 1.37707e-05 0.0999998)
(1.37772e-05 1.53427e-06 0.0999998)
(-4.86826e-05 5.70119e-06 0.100008)
(-2.19191e-05 1.8301e-05 0.1)
(-0.000127869 6.03104e-05 0.100058)
(-1.76785e-05 1.76072e-06 0.0999985)
(5.69988e-06 -4.8669e-05 0.100008)
(1.83057e-05 -2.19165e-05 0.1)
(1.76231e-06 -1.76769e-05 0.0999985)
(6.03141e-05 -0.000127822 0.100058)
(-2.50341e-05 -2.50362e-05 0.100004)
(-0.000134778 -8.09387e-05 0.100055)
(-8.09381e-05 -0.000134727 0.100055)
(-3.43504e-05 0.000137154 0.100737)
(0.000175651 0.000388782 0.099425)
(2.2669e-06 0.000302181 0.100525)
(-8.50053e-05 0.000245498 0.0991603)
(-0.000303142 0.00083705 0.0977804)
(-0.000128458 0.0003057 0.0957324)
(0.000136991 -3.44147e-05 0.100737)
(0.000388952 0.000175045 0.099425)
(0.000302799 2.1973e-06 0.100526)
(0.000245613 -8.46959e-05 0.0991604)
(-0.000124339 0.000124283 0.100289)
(0.000124321 -0.000124344 0.100289)
(-0.000124326 -0.000124314 0.100289)
(9.51812e-05 9.51884e-05 0.100737)
(-9.51776e-05 9.51838e-05 0.100737)
(9.51658e-05 -9.51805e-05 0.100737)
(-9.51766e-05 -9.51915e-05 0.100737)
(-0.000285846 6.32185e-06 0.100768)
(-0.000389992 0.000227405 0.100533)
(-0.000157429 2.29445e-05 0.100284)
(-0.000160586 0.000101568 0.100585)
(-0.000350157 1.58155e-05 0.100488)
(-0.000153284 0.000198693 0.100753)
(-0.000159143 3.57045e-05 0.100524)
(0.000835859 -0.000301526 0.0977796)
(0.000305588 -0.000128423 0.0957326)
(6.30091e-06 -0.000285888 0.100768)
(2.29664e-05 -0.000157433 0.100284)
(0.000227474 -0.000389909 0.100533)
(0.000101585 -0.000160598 0.100585)
(1.58402e-05 -0.000350155 0.100488)
(3.57257e-05 -0.000159159 0.100524)
(0.000198708 -0.000153367 0.100753)
(-0.000369947 -0.000141099 0.100368)
(-0.000141128 -0.00036972 0.100368)
(-0.000118328 -0.000118306 0.100671)
(9.90618e-06 -8.01591e-05 0.100603)
(-8.02022e-05 9.83713e-06 0.100603)
(-1.65246e-05 0.000197745 0.100866)
(-5.55067e-05 0.000289398 0.0983218)
(-2.02271e-05 0.000209177 0.100778)
(-4.54242e-05 0.00027184 0.0979437)
(-0.000150566 0.000314317 0.0926229)
(-0.000136983 0.000273551 0.0909987)
(0.000197751 -1.65529e-05 0.100866)
(0.000289468 -5.52191e-05 0.0983218)
(0.000209232 -2.02765e-05 0.100779)
(0.000271909 -4.51925e-05 0.0979436)
(-9.66594e-05 9.66471e-05 0.100853)
(9.66413e-05 -9.66663e-05 0.100853)
(-9.66582e-05 -9.66756e-05 0.100853)
(9.52283e-05 9.52398e-05 0.101239)
(-9.52362e-05 9.52156e-05 0.101239)
(9.52278e-05 -9.52476e-05 0.101239)
(-9.52451e-05 -9.52482e-05 0.101239)
(-0.00026399 1.33313e-05 0.101152)
(-0.00022065 0.0002139 0.100819)
(-0.000170561 3.22029e-05 0.100893)
(-0.000161593 9.8792e-05 0.101062)
(-0.000300765 1.4174e-05 0.100978)
(-0.000183816 0.000197296 0.100943)
(-0.000170737 3.2993e-05 0.101016)
(0.000314058 -0.000150433 0.0926226)
(0.000273447 -0.000136956 0.0909982)
(1.33075e-05 -0.000264 0.101151)
(3.21967e-05 -0.000170565 0.100893)
(0.000213895 -0.000220666 0.100819)
(9.87705e-05 -0.000161596 0.101062)
(1.41521e-05 -0.000300798 0.100978)
(3.2991e-05 -0.000170739 0.101016)
(0.000197297 -0.000183785 0.100943)
(-8.41819e-05 -9.74935e-05 0.100439)
(-9.73156e-05 -8.41456e-05 0.100439)
(-0.000112314 -0.000112365 0.101142)
(-8.67067e-05 -8.23952e-05 0.100429)
(-8.23474e-05 -8.66536e-05 0.100428)
(-9.42144e-06 0.000210246 0.100957)
(-2.2628e-05 0.000281954 0.0971375)
(-1.16453e-05 0.000229818 0.100903)
(-1.29366e-05 0.000257297 0.0967128)
(-0.000116972 0.000226242 0.0883851)
(-9.64833e-05 0.000187591 0.0870655)
(0.000210263 -9.46675e-06 0.100957)
(0.000281967 -2.25221e-05 0.0971374)
(0.000229833 -1.16989e-05 0.100903)
(0.000257303 -1.28344e-05 0.0967124)
(-9.47291e-05 9.47122e-05 0.101372)
(9.47228e-05 -9.47407e-05 0.101372)
(-9.47378e-05 -9.4738e-05 0.101372)
(9.42257e-05 9.42463e-05 0.101763)
(-9.42426e-05 9.42228e-05 0.101763)
(9.42377e-05 -9.42498e-05 0.101763)
(-9.42457e-05 -9.42514e-05 0.101763)
(-0.000250972 1.22276e-05 0.10158)
(-0.000222841 0.000189896 0.101028)
(-0.000167237 3.31037e-05 0.101409)
(-0.000155407 9.34922e-05 0.101579)
(-0.000289912 1.21095e-05 0.101414)
(-0.000182639 0.000168787 0.101123)
(-0.00016755 3.30787e-05 0.101539)
(0.000226134 -0.000116975 0.0883851)
(0.000187503 -9.64892e-05 0.0870645)
(1.22204e-05 -0.000250958 0.10158)
(3.31092e-05 -0.000167231 0.101409)
(0.000189882 -0.00022284 0.101028)
(9.34864e-05 -0.000155412 0.101579)
(1.21244e-05 -0.000289948 0.101414)
(3.30837e-05 -0.000167556 0.101539)
(0.000168804 -0.000182621 0.101123)
(-0.00011629 -9.1084e-05 0.100182)
(-9.1035e-05 -0.000116245 0.100182)
(-0.00010187 -0.000101886 0.101647)
(-0.000112287 -7.19675e-05 0.100086)
(-7.19237e-05 -0.000112239 0.100085)
(-7.03261e-06 0.00020978 0.100952)
(4.92755e-06 0.00025854 0.0958584)
(-7.931e-06 0.000236002 0.100928)
(9.66688e-06 0.00022991 0.0954232)
(-7.6891e-05 0.00015031 0.0849764)
(-5.8705e-05 0.000119177 0.0839658)
(0.000209792 -7.0681e-06 0.100952)
(0.000258545 5.01325e-06 0.0958581)
(0.000236018 -7.96912e-06 0.100928)
(0.000229909 9.74175e-06 0.0954228)
(-9.37394e-05 9.37177e-05 0.101892)
(9.37351e-05 -9.37424e-05 0.101892)
(-9.37416e-05 -9.37472e-05 0.101892)
(9.17137e-05 9.17382e-05 0.102273)
(-9.17316e-05 9.17143e-05 0.102273)
(9.17328e-05 -9.17289e-05 0.102273)
(-9.17355e-05 -9.1737e-05 0.102273)
(-0.000238338 1.11573e-05 0.101978)
(-0.000220258 0.000162383 0.101142)
(-0.000165451 3.23911e-05 0.101924)
(-0.000150803 8.93951e-05 0.102082)
(-0.000282532 1.10039e-05 0.101822)
(-0.000175223 0.000140771 0.101213)
(-0.000163982 3.20298e-05 0.102051)
(0.000150239 -7.69136e-05 0.0849765)
(0.000119111 -5.87216e-05 0.0839646)
(1.11431e-05 -0.000238314 0.101978)
(3.2389e-05 -0.000165453 0.101924)
(0.000162373 -0.000220235 0.101142)
(8.94054e-05 -0.000150815 0.102082)
(1.10076e-05 -0.000282557 0.101822)
(3.20246e-05 -0.000163995 0.102051)
(0.000140805 -0.000175197 0.101213)
(-0.000133433 -7.90875e-05 0.0997183)
(-7.90608e-05 -0.000133401 0.0997184)
(-9.16425e-05 -9.16453e-05 0.102133)
(-0.000124084 -5.98798e-05 0.0995702)
(-5.98503e-05 -0.000124051 0.0995688)
(-6.4944e-06 0.000201937 0.100851)
(1.85162e-05 0.000227151 0.0945617)
(-6.90489e-06 0.000231014 0.100853)
(1.82336e-05 0.000197663 0.0941438)
(-4.49834e-05 9.55965e-05 0.0823415)
(-3.07895e-05 7.21769e-05 0.0815918)
(0.000201948 -6.52019e-06 0.100851)
(0.000227146 1.85824e-05 0.0945613)
(0.00023103 -6.93223e-06 0.100853)
(0.000197651 1.8287e-05 0.0941433)
(-9.10315e-05 9.10161e-05 0.102398)
(9.1034e-05 -9.10266e-05 0.102398)
(-9.10352e-05 -9.10348e-05 0.102398)
(8.8847e-05 8.88786e-05 0.102765)
(-8.88657e-05 8.88676e-05 0.102765)
(8.88761e-05 -8.88585e-05 0.102765)
(-8.88732e-05 -8.88681e-05 0.102765)
(-0.000223308 1.02654e-05 0.102335)
(-0.000211211 0.000137184 0.101161)
(-0.000159105 3.09069e-05 0.102425)
(-0.000144892 8.48227e-05 0.102565)
(-0.000270771 9.89729e-06 0.102189)
(-0.000164366 0.00011672 0.101213)
(-0.000157399 3.05424e-05 0.102547)
(9.5556e-05 -4.5017e-05 0.0823419)
(7.2114e-05 -3.08048e-05 0.0815903)
(1.0248e-05 -0.000223282 0.102335)
(3.08993e-05 -0.000159109 0.102425)
(0.000137169 -0.000211201 0.101161)
(8.4838e-05 -0.000144905 0.102565)
(9.90081e-06 -0.000270795 0.10219)
(3.05325e-05 -0.000157411 0.102547)
(0.000116738 -0.000164359 0.101212)
(-0.000138278 -6.83252e-05 0.0991139)
(-6.83136e-05 -0.000138259 0.0991139)
(-8.12034e-05 -8.12003e-05 0.102593)
(-0.00012593 -5.05289e-05 0.0989317)
(-5.05117e-05 -0.000125904 0.0989298)
(-6.17412e-06 0.000190295 0.100664)
(2.01878e-05 0.00019473 0.0933124)
(-6.70416e-06 0.000220815 0.100689)
(1.68567e-05 0.000165862 0.092928)
(-2.37585e-05 6.01937e-05 0.0803348)
(-1.30101e-05 4.24776e-05 0.0797852)
(0.0001903 -6.1962e-06 0.100664)
(0.000194719 2.02406e-05 0.0933119)
(0.000220827 -6.72611e-06 0.100689)
(0.000165846 1.68876e-05 0.0929273)
(-8.81319e-05 8.81387e-05 0.102885)
(8.81445e-05 -8.81226e-05 0.102885)
(-8.81435e-05 -8.81361e-05 0.102885)
(8.59909e-05 8.60377e-05 0.103238)
(-8.60064e-05 8.60319e-05 0.103238)
(8.60326e-05 -8.59975e-05 0.103238)
(-8.60203e-05 -8.60063e-05 0.103238)
(-0.000207578 9.73302e-06 0.10265)
(-0.00019973 0.000116398 0.101097)
(-0.000152235 2.9516e-05 0.102905)
(-0.000139326 8.0988e-05 0.103025)
(-0.000257228 9.16327e-06 0.102514)
(-0.000152297 9.72367e-05 0.101131)
(-0.000150508 2.9206e-05 0.103021)
(6.01802e-05 -2.37968e-05 0.0803355)
(4.2427e-05 -1.30187e-05 0.0797835)
(9.71678e-06 -0.000207547 0.10265)
(2.95047e-05 -0.00015224 0.102905)
(0.000116391 -0.000199686 0.101097)
(8.10038e-05 -0.00013934 0.103025)
(9.17239e-06 -0.000257251 0.102514)
(2.91947e-05 -0.000150521 0.103021)
(9.72524e-05 -0.000152225 0.101131)
(-0.000135598 -6.05197e-05 0.0984167)
(-6.05181e-05 -0.000135588 0.0984166)
(-7.16228e-05 -7.1616e-05 0.103024)
(-0.000121875 -4.39962e-05 0.0982129)
(-4.39866e-05 -0.000121842 0.0982107)
(-5.04935e-06 0.000176639 0.100404)
(1.54413e-05 0.000164864 0.0921481)
(-5.9076e-06 0.000207857 0.100449)
(1.05482e-05 0.000137196 0.0918043)
(-1.1132e-05 3.87231e-05 0.0788035)
(-2.73652e-06 2.47724e-05 0.0784019)
(0.000176639 -5.06435e-06 0.100404)
(0.00016483 1.53582e-05 0.0921475)
(0.000207865 -5.92758e-06 0.100449)
(0.000137174 1.05923e-05 0.0918035)
(-8.53397e-05 8.53687e-05 0.103353)
(8.53638e-05 -8.53225e-05 0.103353)
(-8.53586e-05 -8.53418e-05 0.103353)
(8.3451e-05 8.34992e-05 0.103692)
(-8.34655e-05 8.34937e-05 0.103692)
(8.34979e-05 -8.34509e-05 0.103692)
(-8.34867e-05 -8.34666e-05 0.103692)
(-0.000192244 9.57264e-06 0.102924)
(-0.000187473 9.97032e-05 0.100959)
(-0.000145549 2.83928e-05 0.103363)
(-0.000134358 7.79544e-05 0.103461)
(-0.000243393 8.77799e-06 0.102796)
(-0.000140359 8.1613e-05 0.10098)
(-0.000143966 2.81581e-05 0.103475)
(3.86509e-05 -1.11105e-05 0.0788048)
(2.45771e-05 -2.58159e-06 0.0783997)
(9.55752e-06 -0.000192211 0.102923)
(2.83736e-05 -0.000145555 0.103363)
(9.96834e-05 -0.00018752 0.100959)
(7.7962e-05 -0.000134368 0.103461)
(8.78804e-06 -0.00024342 0.102796)
(2.81415e-05 -0.000143979 0.103475)
(8.16461e-05 -0.000140296 0.100979)
(-0.000128559 -5.50054e-05 0.0976625)
(-5.50075e-05 -0.000128543 0.0976622)
(-6.31645e-05 -6.31577e-05 0.103428)
(-0.000114109 -3.90942e-05 0.0974483)
(-3.9096e-05 -0.000114088 0.0974458)
(-3.22349e-06 0.000162339 0.100086)
(7.6819e-06 0.000139191 0.0910847)
(-4.32181e-06 0.000193528 0.100147)