/*--------------------------------*- C++ -*----------------------------------*\
| =========                 |                                                 |
| \\      /  F ield         | OpenFOAM: The Open Source CFD Toolbox           |
|  \\    /   O peration     | Version:  2312                                  |
|   \\  /    A nd           | Website:  www.openfoam.com                      |
|    \\/     M anipulation  |                                                 |
\*---------------------------------------------------------------------------*/
FoamFile
{
    version     2.0;
    format      ascii;
    arch        "LSB;label=32;scalar=64";
    class       volScalarField;
    location    "1000";
    object      nut;
}
// * * * * * * * * * * * * * * * * * * * * * * * * * * * * * * * * * * * * * //

dimensions      [0 2 -1 0 0 0 0];

internalField   nonuniform List<scalar> 
172512
(
0.000208364
0.000201475
0.000201485
0.000182436
0.000182391
0.000201138
0.000201118
0.000182418
0.000201148
0.000201125
0.000201149
0.000201128
0.000182464
0.00020116
0.000201138
0.000182442
0.000182493
0.000201462
0.000201442
0.000182448
0.000201473
0.00020145
0.000201453
0.000182452
0.000201463
5.07455e-05
9.98388e-05
5.07421e-05
0.000207771
0.000207763
0.000207778
0.000207769
2.38911e-05
0.0002005
0.000103599
9.99456e-05
5.07587e-05
9.98969e-05
5.07644e-05
2.38967e-05
2.39008e-05
9.99419e-05
5.07512e-05
9.98932e-05
5.07617e-05
0.000208355
0.000208371
0.000208362
0.000144485
0.000103664
0.000211327
0.00020179
0.000144325
0.000103733
0.000211742
2.38957e-05
2.38999e-05
0.000144484
0.000211333
0.000103666
0.000201801
0.000144323
0.000211752
0.000103736
7.79283e-05
7.79229e-05
0.000182847
7.79509e-05
7.79453e-05
2.3894e-05
2.3892e-05
0.000181949
7.79055e-05
7.78996e-05
2.38985e-05
2.38943e-05
2.38965e-05
2.38923e-05
0.000182081
7.7933e-05
7.79271e-05
7.79119e-05
7.79053e-05
0.000200477
0.0001036
9.98446e-05
5.0755e-05
5.07487e-05
9.98964e-05
9.98411e-05
5.07493e-05
5.07433e-05
9.98926e-05
0.00014414
0.000200812
0.00010367
0.000210895
0.000103595
0.000210464
0.000144308
0.000144136
0.000200793
0.000103647
0.000210887
0.000103572
0.000210457
0.000144304
2.38964e-05
2.38923e-05
0.000182001
7.79124e-05
7.79334e-05
7.78907e-05
2.38978e-05
0.000144113
0.000200488
0.00010359
0.000210022
9.9836e-05
5.07387e-05
0.00014411
0.000200464
0.00021002
0.00010358
9.98413e-05
5.07521e-05
5.07417e-05
9.98925e-05
0.000144139
0.000200822
0.00010366
0.000210895
0.000103586
0.000210463
0.000144305
9.98382e-05
5.07481e-05
5.07374e-05
9.98892e-05
0.000144136
0.000200799
0.000210893
0.00010365
0.000210461
0.000103575
0.000144302
0.000103668
0.000210893
0.000144304
5.07511e-05
9.98854e-05
0.000210893
0.000103658
0.000144306
5.07493e-05
9.98902e-05
0.000182019
7.7891e-05
7.7906e-05
2.38933e-05
2.38955e-05
2.38912e-05
0.000182022
7.79188e-05
7.79333e-05
7.78955e-05
7.79086e-05
2.38978e-05
2.38935e-05
5.0744e-05
0.000144137
0.000200835
0.000210904
0.00010367
0.000210473
0.000103596
0.000144302
0.000144129
0.000200811
0.000210895
0.000103651
0.000210463
0.000103578
0.000144294
9.98313e-05
5.07535e-05
5.07427e-05
9.98838e-05
9.98202e-05
5.07477e-05
5.07368e-05
9.98745e-05
0.000181996
7.79251e-05
7.79197e-05
7.78958e-05
2.38964e-05
2.38953e-05
2.3891e-05
2.38988e-05
2.39029e-05
2.38967e-05
2.39009e-05
7.79386e-05
7.79322e-05
0.000182844
7.79589e-05
7.79528e-05
2.39032e-05
2.39011e-05
0.000182909
7.79639e-05
7.79575e-05
9.99425e-05
5.0753e-05
9.98935e-05
5.07588e-05
0.000144491
0.000103665
0.000211325
0.000201778
0.000144329
0.000103737
0.000211744
0.000144487
0.000103641
0.000211318
0.000201757
0.000144325
0.000103713
0.000211736
9.99456e-05
5.07681e-05
9.99424e-05
5.07626e-05
0.000144509
0.000202093
0.000103731
0.000212163
0.000144505
0.000202072
0.000103707
0.000212155
7.79175e-05
7.79364e-05
0.000182845
7.79379e-05
7.79594e-05
2.3898e-05
2.39021e-05
2.39011e-05
0.000182877
7.79427e-05
7.79619e-05
2.39024e-05
0.000144489
0.000103656
0.000211325
0.000201789
0.000144327
0.000103727
0.000211744
9.99393e-05
5.07474e-05
9.98902e-05
5.07577e-05
0.000144486
0.000211323
0.000103645
0.000201765
0.000144325
0.000211742
0.000103717
9.9942e-05
5.07607e-05
0.000144507
0.000202104
0.000103722
0.000212163
9.99392e-05
5.07568e-05
0.000144505
0.00020208
0.000212161
0.000103711
9.99351e-05
5.07546e-05
9.98842e-05
5.07605e-05
0.000144488
0.000211324
0.000103653
0.000201768
0.000144326
0.000211742
0.000103724
9.994e-05
5.07485e-05
9.98906e-05
5.07588e-05
0.000144505
0.000202106
0.00010373
0.000212165
9.99335e-05
5.07643e-05
0.000144507
0.000202083
0.000212162
0.000103719
9.99399e-05
5.07579e-05
7.79225e-05
7.79363e-05
0.00018286
7.79448e-05
7.79592e-05
2.38979e-05
2.39021e-05
2.39001e-05
0.000182882
7.79476e-05
7.79615e-05
2.39023e-05
0.000144478
0.000211324
0.000103647
0.000201778
0.000144317
0.000211743
0.000103717
9.99337e-05
5.07527e-05
9.98832e-05
5.07611e-05
9.99246e-05
5.07469e-05
9.98722e-05
5.07573e-05
0.000144504
0.000202116
0.000212171
0.000103732
0.000144496
0.000202093
0.000212162
0.000103713
9.99321e-05
5.07646e-05
9.99214e-05
5.07563e-05
2.38966e-05
2.39008e-05
2.38955e-05
2.38997e-05
0.000182864
7.79533e-05
7.79482e-05
2.39009e-05
2.38999e-05
2.03161e-05
7.90828e-05
5.07447e-05
7.90648e-05
2.03181e-05
3.67136e-05
9.9813e-05
9.44559e-05
4.10537e-05
9.44338e-05
4.10542e-05
3.67125e-05
2.03165e-05
7.90784e-05
5.07358e-05
7.90607e-05
2.03185e-05
2.3889e-05
3.67281e-05
9.99218e-05
4.10709e-05
9.45455e-05
4.1071e-05
9.4516e-05
3.67271e-05
2.03236e-05
7.90958e-05
5.07597e-05
2.03216e-05
7.9113e-05
3.67237e-05
9.99219e-05
4.10668e-05
9.44973e-05
3.67246e-05
4.10671e-05
9.45267e-05
2.03234e-05
7.91225e-05
5.07633e-05
7.91053e-05
2.03254e-05
2.38986e-05
2.38989e-05
3.6728e-05
9.99182e-05
9.45367e-05
4.10703e-05
9.45163e-05
4.10704e-05
3.6727e-05
2.0324e-05
7.90917e-05
5.07569e-05
2.0322e-05
7.91085e-05
3.67238e-05
9.99181e-05
9.44972e-05
4.10662e-05
3.67246e-05
9.45183e-05
4.10665e-05
2.03238e-05
7.91177e-05
5.07561e-05
7.91013e-05
2.03258e-05
2.38977e-05
2.38979e-05
8.15161e-05
2.17175e-05
2.17143e-05
2.17156e-05
2.17124e-05
8.15221e-05
0.000105293
0.000128909
4.86664e-05
7.79384e-05
0.000105275
0.000128961
4.86661e-05
0.000105298
0.00012889
4.86559e-05
7.79327e-05
0.000105281
0.000128945
4.86557e-05
8.15138e-05
2.17138e-05
2.17106e-05
8.15078e-05
2.17158e-05
2.17125e-05
0.000105301
4.86704e-05
7.7941e-05
0.000129022
0.00012897
4.86707e-05
0.000105319
0.000105307
4.86599e-05
7.79359e-05
0.000129004
0.000128951
4.86602e-05
0.000105325
2.38921e-05
2.389e-05
8.14873e-05
2.17107e-05
2.17074e-05
2.17088e-05
2.17055e-05
8.1494e-05
0.000105199
4.86555e-05
7.78976e-05
0.000128781
4.86562e-05
0.000105217
0.000128729
0.0001052
4.86434e-05
7.78911e-05
0.000128762
4.86446e-05
0.000105219
0.000128705
2.38966e-05
2.38963e-05
2.38945e-05
2.38942e-05
8.15029e-05
2.17106e-05
2.17073e-05
8.14964e-05
2.17126e-05
2.17093e-05
0.000105255
0.000128908
7.79255e-05
4.86646e-05
4.86652e-05
0.000128859
0.000105273
0.000105256
0.00012889
7.79189e-05
4.8652e-05
4.86526e-05
0.000128835
0.000105275
0.000105245
4.86606e-05
0.000128795
7.79198e-05
0.000105227
4.86605e-05
0.000128845
0.000105247
4.86476e-05
0.00012877
7.79135e-05
0.000105228
4.86478e-05
0.000128826
8.15052e-05
2.17144e-05
2.17111e-05
2.17124e-05
2.17091e-05
8.15116e-05
3.67166e-05
4.10586e-05
9.44559e-05
9.98706e-05
3.67176e-05
4.1059e-05
9.44863e-05
2.03198e-05
5.07539e-05
7.91033e-05
2.03218e-05
7.90859e-05
2.03199e-05
7.90755e-05
5.07504e-05
2.03179e-05
7.90931e-05
3.67207e-05
9.98705e-05
4.10627e-05
9.45076e-05
3.67205e-05
4.10626e-05
9.4477e-05
3.67187e-05
4.10585e-05
9.44444e-05
9.98671e-05
3.67119e-05
4.10589e-05
9.44755e-05
2.03191e-05
5.07483e-05
7.90813e-05
7.90638e-05
2.03211e-05
2.03193e-05
7.90534e-05
5.07446e-05
2.03173e-05
7.90711e-05
3.67159e-05
9.98672e-05
4.10627e-05
9.4496e-05
4.10625e-05
9.4465e-05
3.67222e-05
2.38945e-05
2.38942e-05
0.000105254
0.000128877
7.79045e-05
4.86516e-05
0.000128825
4.86521e-05
0.000105275
0.00010525
0.00012891
7.79227e-05
4.86663e-05
4.86589e-05
0.000128857
0.000105273
0.000128761
7.7899e-05
0.000128814
8.14995e-05
2.17108e-05
2.17139e-05
2.17089e-05
2.17119e-05
8.1507e-05
2.38961e-05
3.67079e-05
9.98101e-05
4.10536e-05
9.44462e-05
4.1054e-05
9.44237e-05
3.67154e-05
2.03155e-05
7.90578e-05
5.07325e-05
7.90404e-05
2.03175e-05
3.67176e-05
9.44563e-05
4.10586e-05
9.98668e-05
3.67171e-05
9.4478e-05
4.10584e-05
2.03202e-05
5.07463e-05
7.90988e-05
2.03222e-05
7.90817e-05
2.03203e-05
7.90712e-05
5.07469e-05
2.03183e-05
7.90888e-05
3.67207e-05
9.98668e-05
9.44985e-05
4.10622e-05
3.67206e-05
9.44762e-05
4.1062e-05
3.67184e-05
4.10583e-05
9.4446e-05
9.98638e-05
3.67112e-05
4.10581e-05
9.44681e-05
2.03192e-05
5.07423e-05
7.90784e-05
7.90612e-05
2.03212e-05
2.03194e-05
7.90509e-05
5.07432e-05
2.03173e-05
7.90683e-05
3.67153e-05
9.98639e-05
4.1062e-05
9.44882e-05
4.10618e-05
9.44661e-05
3.67217e-05
2.03203e-05
5.07504e-05
7.9088e-05
7.90785e-05
2.03223e-05
3.67207e-05
9.98587e-05
9.4488e-05
4.10616e-05
9.44637e-05
4.10618e-05
3.67203e-05
2.03194e-05
5.07435e-05
7.90786e-05
7.90618e-05
2.03214e-05
3.67192e-05
9.98651e-05
4.10625e-05
9.44901e-05
4.10625e-05
9.44687e-05
3.67193e-05
8.14833e-05
2.17077e-05
2.17109e-05
2.17057e-05
2.17089e-05
8.149e-05
0.0001052
4.86468e-05
7.78813e-05
0.000128754
4.86391e-05
0.000128696
0.000105218
0.000105197
4.86595e-05
7.78943e-05
0.000128784
0.000128727
4.86516e-05
0.000105216
2.38912e-05
2.38935e-05
2.38933e-05
8.1499e-05
2.17075e-05
2.17107e-05
8.14924e-05
2.17095e-05
2.17127e-05
0.000105258
0.000128882
7.7909e-05
4.86555e-05
0.000128827
4.86483e-05
0.000105275
0.000105255
0.000128913
7.7923e-05
4.86681e-05
4.86608e-05
0.000128859
0.000105273
0.000105247
4.86435e-05
0.000128762
7.79051e-05
0.000128819
0.000105229
4.86508e-05
0.000105245
4.86561e-05
0.000128793
7.79196e-05
0.000105227
4.86634e-05
0.000128849
8.15012e-05
2.17113e-05
2.17145e-05
2.17093e-05
2.17126e-05
8.15077e-05
2.38957e-05
2.38955e-05
5.07377e-05
3.67166e-05
9.44573e-05
4.1058e-05
9.98585e-05
3.67178e-05
9.44787e-05
4.10576e-05
2.03208e-05
5.07477e-05
7.90994e-05
7.90828e-05
2.03228e-05
2.0321e-05
7.90726e-05
5.07485e-05
2.0319e-05
7.90894e-05
3.67214e-05
9.9857e-05
9.44987e-05
4.10615e-05
9.44772e-05
4.10616e-05
3.6721e-05
3.67146e-05
9.44364e-05
4.10575e-05
9.9849e-05
3.6715e-05
9.44596e-05
4.1057e-05
2.03189e-05
5.07419e-05
7.90767e-05
7.90596e-05
2.03209e-05
2.03191e-05
7.90494e-05
5.07427e-05
2.03171e-05
7.90666e-05
3.67178e-05
9.98461e-05
9.44796e-05
4.10609e-05
9.44566e-05
4.10611e-05
3.67185e-05
8.14965e-05
2.17122e-05
2.17089e-05
0.000105248
0.0001289
7.7915e-05
4.86615e-05
0.000105266
0.000128847
4.86619e-05
0.000105254
0.000128883
7.79096e-05
4.86511e-05
0.000105272
0.000128827
4.86514e-05
0.000105239
7.7912e-05
0.000128838
4.86574e-05
0.000105244
0.000128762
7.79059e-05
0.000128819
4.86467e-05
8.14993e-05
2.1714e-05
2.17107e-05
8.15053e-05
2.1712e-05
2.17088e-05
2.38944e-05
2.38942e-05
2.38933e-05
2.38931e-05
2.39007e-05
2.3901e-05
2.38987e-05
2.38989e-05
8.1522e-05
2.1718e-05
2.17146e-05
2.1716e-05
2.17127e-05
8.15282e-05
0.0001053
0.000128922
4.86692e-05
7.79463e-05
0.000105283
4.8669e-05
0.00012897
0.000105302
0.000128897
4.86566e-05
7.79401e-05
0.000105283
4.86565e-05
0.000128951
8.152e-05
2.17142e-05
2.17109e-05
8.15137e-05
2.17162e-05
2.17129e-05
0.000105309
4.86733e-05
7.79515e-05
0.00012903
4.86738e-05
0.000105326
0.000128983
0.00010531
4.86607e-05
7.79451e-05
0.000129011
4.86612e-05
0.000105328
0.000128959
2.3905e-05
2.3903e-05
8.15361e-05
2.17178e-05
2.17145e-05
8.15299e-05
2.17197e-05
2.17164e-05
0.000105351
4.86783e-05
0.000129042
7.79712e-05
0.000105334
4.86778e-05
0.000129088
0.000105353
4.86656e-05
0.000129018
7.79649e-05
0.000105335
4.86652e-05
0.00012907
3.67229e-05
9.99186e-05
4.10708e-05
9.45344e-05
4.10709e-05
9.45045e-05
3.67293e-05
2.03229e-05
7.90737e-05
5.07541e-05
2.03209e-05
7.90911e-05
3.67261e-05
9.99187e-05
4.10667e-05
9.44857e-05
4.10671e-05
3.67194e-05
9.45156e-05
2.03227e-05
7.91005e-05
5.07578e-05
7.90832e-05
2.03247e-05
3.67305e-05
4.10747e-05
9.45355e-05
9.99696e-05
3.67314e-05
4.1075e-05
9.45639e-05
2.03272e-05
7.91146e-05
5.07693e-05
2.03252e-05
7.91315e-05
3.67328e-05
4.10746e-05
9.4524e-05
9.99662e-05
3.67263e-05
4.10748e-05
9.4553e-05
2.03265e-05
7.90925e-05
5.07635e-05
2.03245e-05
7.91095e-05
8.15168e-05
2.17146e-05
2.17177e-05
2.17126e-05
2.17157e-05
8.15239e-05
0.000105302
0.000128887
4.86561e-05
7.79253e-05
4.86561e-05
0.000105281
0.000128939
0.000105301
0.00012892
4.86641e-05
7.79465e-05
0.000128972
0.000105278
4.86712e-05
8.15155e-05
2.17109e-05
2.1714e-05
2.17128e-05
8.15083e-05
2.17159e-05
0.000105307
4.86603e-05
7.79304e-05
0.000128998
4.86607e-05
0.000128949
0.000105328
0.000105304
4.86757e-05
7.79494e-05
0.000129032
0.000128981
4.86685e-05
0.000105326
2.39e-05
2.39002e-05
2.3903e-05
8.1532e-05
2.17144e-05
2.17175e-05
8.15251e-05
2.17164e-05
2.17194e-05
0.000105353
4.86652e-05
0.000129008
7.79501e-05
0.000129057
0.000105332
4.86648e-05
0.000105352
4.86729e-05
0.00012904
7.79716e-05
0.00010533
4.86799e-05
0.00012909
2.39043e-05
3.67225e-05
9.99154e-05
4.10702e-05
9.45272e-05
4.10702e-05
9.45064e-05
3.67288e-05
2.0323e-05
7.90711e-05
5.07529e-05
2.0321e-05
7.90881e-05
3.67255e-05
9.99154e-05
4.1066e-05
9.44869e-05
4.10664e-05
3.67192e-05
9.45087e-05
2.03228e-05
7.90975e-05
5.07521e-05
7.90807e-05
2.03248e-05
3.67304e-05
9.4535e-05
4.10741e-05
9.99659e-05
3.67314e-05
9.45556e-05
4.10745e-05
2.03276e-05
7.91105e-05
5.07662e-05
2.03256e-05
7.91267e-05
3.67324e-05
4.10739e-05
9.45251e-05
9.99631e-05
3.6726e-05
4.10742e-05
9.45461e-05
2.03266e-05
7.90901e-05
5.07623e-05
2.03246e-05
7.91065e-05
3.67275e-05
9.99097e-05
9.45268e-05
4.10696e-05
9.45036e-05
4.107e-05
3.67267e-05
2.03242e-05
7.90883e-05
5.07559e-05
7.90979e-05
2.03221e-05
3.67245e-05
9.99111e-05
9.44836e-05
4.10655e-05
9.45083e-05
3.67241e-05
4.10659e-05
2.03239e-05
7.91073e-05
5.07595e-05
7.90978e-05
2.0326e-05
3.67268e-05
9.99161e-05
4.10705e-05
9.45291e-05
4.10707e-05
9.45086e-05
3.67258e-05
2.03232e-05
7.90717e-05
5.0754e-05
2.03212e-05
7.90882e-05
3.67222e-05
9.99161e-05
4.10662e-05
9.44887e-05
3.67229e-05
4.10668e-05
9.45106e-05
2.0323e-05
7.90976e-05
5.07532e-05
7.90813e-05
2.0325e-05
3.67303e-05
9.45221e-05
4.10736e-05
9.99588e-05
3.67313e-05
9.45453e-05
4.10737e-05
2.03278e-05
7.9107e-05
5.07653e-05
2.03257e-05
7.91165e-05
3.67291e-05
4.10743e-05
9.45271e-05
9.99637e-05
3.67301e-05
4.10745e-05
9.45477e-05
2.03268e-05
7.90906e-05
5.07634e-05
2.03248e-05
7.91066e-05
8.15179e-05
2.17149e-05
2.17181e-05
2.17129e-05
2.17161e-05
8.15244e-05
0.000105302
0.00012889
4.86531e-05
7.79321e-05
4.86599e-05
0.000105285
0.000128944
0.0001053
0.000128921
4.86654e-05
7.79465e-05
0.000128974
0.000105282
4.86723e-05
8.15162e-05
2.17111e-05
2.17144e-05
2.17131e-05
8.15097e-05
2.17163e-05
0.000105311
4.86644e-05
7.79352e-05
0.000129004
4.86575e-05
0.000128951
0.000105328
0.000105309
4.86768e-05
7.79492e-05
0.000129034
0.000128983
4.86698e-05
0.000105326
2.39e-05
2.39002e-05
2.39021e-05
8.15323e-05
2.17147e-05
2.17179e-05
8.15259e-05
2.17166e-05
2.17199e-05
0.000105354
4.86618e-05
0.000129011
7.79571e-05
0.000129063
0.000105337
4.86686e-05
0.000105352
4.86741e-05
0.000129042
7.79713e-05
0.000105334
4.8681e-05
0.000129093
2.39043e-05
3.67286e-05
9.99084e-05
9.45374e-05
4.10696e-05
9.45172e-05
4.107e-05
3.67276e-05
2.03246e-05
7.90925e-05
5.07578e-05
7.91091e-05
2.03227e-05
3.67241e-05
9.99098e-05
9.44978e-05
4.10657e-05
9.45191e-05
3.67248e-05
4.10659e-05
2.03245e-05
7.91183e-05
5.07595e-05
7.91022e-05
2.03265e-05
3.67256e-05
9.98976e-05
9.45186e-05
4.1069e-05
9.44968e-05
4.10695e-05
3.67245e-05
2.03227e-05
7.90694e-05
5.07525e-05
2.03207e-05
7.90864e-05
3.6721e-05
9.99005e-05
9.44771e-05
4.10652e-05
3.67217e-05
9.45001e-05
4.10653e-05
2.03225e-05
7.90957e-05
5.07517e-05
7.90791e-05
2.03245e-05
3.67309e-05
9.45357e-05
4.10736e-05
9.99574e-05
3.6732e-05
9.45561e-05
4.10736e-05
2.03282e-05
7.91115e-05
5.07656e-05
2.03263e-05
7.91274e-05
3.67279e-05
9.45154e-05
4.10731e-05
9.99482e-05
3.67289e-05
9.45373e-05
4.1073e-05
2.03263e-05
7.90884e-05
5.07619e-05
2.03243e-05
7.91048e-05
2.38986e-05
2.38988e-05
2.38975e-05
2.38977e-05
8.15301e-05
2.17174e-05
2.17141e-05
8.1524e-05
2.17193e-05
2.17161e-05
0.000105344
4.86752e-05
0.00012903
7.79629e-05
0.000105326
0.00012908
4.86749e-05
0.00010535
4.86647e-05
0.000129011
7.79574e-05
0.000105333
0.000129063
4.86645e-05
2.39029e-05
2.39019e-05
0.00020657
0.000203205
0.000205526
0.000205526
0.000208946
0.000206284
0.000206285
0.000197396
0.000196401
0.000138549
0.000162107
0.000162096
0.000182634
0.000138507
0.000162188
0.000162179
0.000138445
0.000182306
0.000162043
0.000162028
0.000161996
0.000161983
0.000138478
0.000138437
0.000182232
0.000162029
0.000162054
0.000161949
0.000161972
0.000138479
0.000138441
0.000182245
0.000162046
0.000162069
0.000161962
0.000161984
0.000138482
0.000138434
0.000182225
0.000162049
0.000162039
0.000138473
0.000161965
0.000161954
0.000138554
0.000162134
0.000162121
0.000182627
0.000138521
0.000162188
0.000162172
0.000138553
0.00016209
0.000162116
0.000182633
0.000162194
0.000138512
0.000162168
0.000138558
0.000162101
0.000162123
0.000182667
0.000162207
0.000138514
0.000162185
0.000206576
0.000203213
0.000207175
0.000204758
0.000204758
0.000203987
0.000203986
0.000194396
0.0001954
0.000207172
0.000204756
0.000204757
0.000203985
0.000203988
0.000194397
0.0001954
0.000207182
0.000204766
0.00020477
0.000203994
0.000203999
0.000194405
0.000195409
0.000207174
0.000204765
0.000204767
0.000203993
0.000203996
0.000194405
0.000195409
0.000103559
0.000147541
0.000147515
0.000205523
0.000205525
0.000208937
0.000206281
0.000206283
0.000197396
0.000196401
0.000205534
0.000205538
0.000208953
0.000206292
0.000206296
0.000197404
0.000196409
0.000205532
0.000205534
0.000208944
0.00020629
0.000206292
0.000197404
0.000196409
0.000209526
0.000207039
0.00020704
0.000198387
0.000209517
0.000207036
0.000207038
0.000198387
0.000209532
0.000207047
0.000207051
0.000198396
0.000209523
0.000207045
0.000207047
0.000198395
0.000171951
0.000144417
0.000137881
0.000177243
0.000137823
0.000177242
0.000172013
0.000161156
0.000147826
0.000122856
0.000103701
0.000161132
0.000147865
0.000122907
0.000171837
0.000144396
0.000137745
0.000177046
0.000171779
0.000137806
0.000177053
0.000161264
0.000122961
0.000103698
0.000147971
0.00014793
0.000122911
0.000161295
0.000171945
0.000144416
0.00017724
0.000137887
0.000177238
0.00013783
0.000172005
0.000161175
0.000147834
0.000122863
0.000103703
0.000161114
0.000147872
0.000122914
0.000171834
0.000144395
0.000177037
0.000137754
0.000171773
0.000177047
0.000137814
0.000161252
0.000122967
0.000103699
0.000147975
0.000147937
0.000122918
0.000161316
0.000138581
0.000182654
0.000162326
0.000162316
0.000162247
0.000162235
0.000138622
0.000138291
0.000181871
0.000161752
0.000161736
0.000138325
0.000161709
0.000161693
0.000138402
0.000182166
0.000161852
0.000161838
0.000138369
0.000161899
0.000161885
0.000160592
0.000122746
0.000103559
0.000147559
0.00012268
0.000147492
0.000160785
0.000171521
0.000137582
0.000176575
0.000144215
0.000171347
0.00013767
0.000176674
0.000160898
0.000147772
0.000103631
0.000122861
0.000147712
0.000122798
0.00016108
0.000160939
0.00012274
0.000147596
0.000103635
0.000147661
0.000160757
0.000122803
0.000171529
0.000144234
0.00013775
0.000176892
0.000137662
0.000176786
0.000171705
0.000171517
0.000137568
0.000176568
0.000144211
0.000171314
0.000137657
0.000176671
0.000160887
0.00014774
0.000103607
0.000122843
0.00012278
0.000147681
0.000161046
0.000160909
0.000122723
0.000147565
0.000103612
0.000160731
0.000122785
0.000147631
0.000171494
0.00014423
0.000137738
0.000176886
0.000137649
0.00017678
0.000171693
0.000182186
0.000161804
0.000161882
0.000171217
0.000144039
0.000137568
0.000176439
0.000137501
0.000176451
0.00017128
0.000160684
0.000122731
0.00010355
0.000147524
0.000122678
0.000147484
0.000160701
0.000171208
0.000144036
0.000176437
0.000137559
0.000176448
0.000137494
0.000171273
0.00016068
0.00012272
0.000103539
0.000147526
0.000122667
0.000160687
0.000147459
0.00017147
0.000137588
0.000176656
0.000144213
0.000171411
0.000137652
0.000176663
0.000160955
0.00014774
0.000103623
0.000122849
0.000147707
0.000122796
0.000161017
0.000160857
0.000122739
0.000147588
0.000103626
0.000147628
0.00016083
0.000122793
0.000171598
0.000144233
0.000137731
0.000176857
0.000137667
0.00017685
0.00017165
0.00017146
0.000176654
0.00013758
0.00014421
0.000171411
0.000176661
0.000137644
0.000160948
0.000147743
0.000103611
0.000122837
0.000122785
0.000147682
0.000161006
0.000160847
0.000122728
0.000147573
0.000103616
0.000160823
0.000122781
0.000147636
0.0001716
0.00014423
0.000176854
0.000137724
0.000176847
0.00013766
0.000171644
0.000160985
0.000147761
0.000103629
0.000122852
0.00016101
0.00014772
0.0001228
0.000171601
0.000144231
0.00013773
0.000176856
0.000171659
0.000137666
0.000176855
0.000160958
0.000147748
0.000103619
0.000122844
0.000122791
0.000147713
0.000161027
0.0001716
0.000144233
0.000176866
0.000137728
0.000176859
0.000137663
0.00017166
0.000138282
0.0001818
0.000161756
0.000161778
0.000161694
0.000161669
0.000138329
0.000138407
0.000182241
0.000161815
0.000161838
0.0001619
0.000138362
0.000161923
0.000171478
0.000176655
0.000137594
0.00014421
0.000171419
0.000176662
0.000137659
0.000160974
0.000147766
0.000103631
0.000122858
0.000161038
0.000147731
0.000122807
0.000160876
0.000122749
0.000147624
0.000103635
0.000160848
0.00014766
0.000122802
0.000171605
0.000144229
0.000176846
0.000137739
0.000171659
0.000176844
0.000137673
0.000171463
0.000176652
0.000137574
0.000144202
0.000171404
0.000176658
0.000137639
0.000160948
0.000147742
0.000103613
0.000122837
0.000122784
0.000147699
0.000161013
0.000160847
0.000122725
0.000147593
0.000103616
0.000160819
0.000122781
0.00014763
0.000171591
0.000144222
0.000176852
0.000137718
0.000176845
0.000137653
0.000171642
0.0001384
0.000182219
0.000161806
0.000161907
0.000161892
0.000138594
0.000182702
0.000162326
0.00016231
0.000138626
0.000162271
0.000162259
0.000138698
0.000183057
0.000162408
0.000162396
0.000138667
0.000162464
0.000162447
0.000171881
0.000144421
0.000137904
0.000177281
0.000137813
0.000177183
0.000172067
0.000161233
0.000147817
0.000122856
0.000103704
0.000122916
0.000161037
0.000147875
0.000171892
0.000144403
0.000137741
0.000176986
0.000137829
0.000171706
0.000177087
0.000161166
0.000122971
0.000103699
0.000147979
0.00012291
0.000147922
0.000161359
0.000171873
0.000144416
0.000137892
0.000177276
0.0001378
0.000177177
0.000172049
0.00016119
0.00014778
0.000122838
0.00010368
0.000161036
0.000122898
0.000147847
0.00017187
0.000144398
0.000137729
0.000176979
0.000171693
0.000137816
0.000177082
0.000161172
0.000122953
0.000103675
0.000147951
0.000122893
0.000161328
0.000147888
0.000172245
0.00013789
0.000177375
0.000144579
0.00017206
0.000137981
0.000177473
0.000161488
0.000122965
0.000148018
0.000103768
0.000148084
0.000161312
0.000123024
0.000172227
0.000137877
0.000177369
0.000144574
0.000172046
0.000137967
0.000177467
0.000161456
0.000122947
0.000147991
0.000103745
0.000161298
0.000123006
0.00014805
0.000138586
0.000182665
0.000162305
0.000162332
0.000162257
0.000162232
0.000138625
0.000138698
0.000183055
0.000162373
0.000162395
0.000162443
0.000138657
0.000162468
0.000171943
0.00014442
0.000137882
0.00017725
0.000137825
0.000177241
0.000172
0.000161157
0.000147811
0.000122853
0.000103694
0.000122905
0.00016109
0.000147851
0.00017183
0.0001444
0.000137747
0.000177041
0.000137809
0.00017177
0.000177055
0.000161231
0.000122958
0.00010369
0.000147952
0.000122908
0.000147913
0.000161295
0.000171941
0.000144417
0.000177248
0.000137876
0.000177239
0.000137818
0.000171996
0.000161145
0.000147787
0.000122841
0.000103684
0.000161085
0.000122893
0.000147847
0.000171824
0.000144397
0.000177039
0.00013774
0.000171767
0.000177053
0.000137803
0.000161227
0.000122947
0.000103679
0.000147949
0.000122897
0.000161288
0.000147895
0.000172181
0.000137901
0.000177405
0.000144576
0.000172115
0.000137958
0.000177451
0.000161434
0.000122962
0.000148015
0.000103758
0.000148056
0.000161367
0.000123011
0.000172176
0.000177403
0.000137893
0.000144573
0.000172111
0.000177448
0.000137949
0.000161425
0.000122951
0.00014799
0.000103749
0.000161359
0.000123
0.000148055
0.000171949
0.000144419
0.000177251
0.000137879
0.000177242
0.000137821
0.000172013
0.00016116
0.000147815
0.000122848
0.000103691
0.000147853
0.000161093
0.0001229
0.000171839
0.000144398
0.000177042
0.000137743
0.000177057
0.000171775
0.000137806
0.000161233
0.000122954
0.000103687
0.000147955
0.000147917
0.000122903
0.0001613
0.000172189
0.000137898
0.000177422
0.000144573
0.000172123
0.000137955
0.00017743
0.000161443
0.000122965
0.000148031
0.000103765
0.000161386
0.000148073
0.000123014
0.000172189
0.000177408
0.000137896
0.000144575
0.00017212
0.000177452
0.000137953
0.000161438
0.000122957
0.000148019
0.000103755
0.000161369
0.000123007
0.000148057
0.000138589
0.00018266
0.000162322
0.000162345
0.000162263
0.00016224
0.00013863
0.000138702
0.000183073
0.000162379
0.000162401
0.000162459
0.000138661
0.000162482
0.000171937
0.000144409
0.000177244
0.00013787
0.000177236
0.000137811
0.000171994
0.000161149
0.000147801
0.00012284
0.000103685
0.000147845
0.000161087
0.000122893
0.000171823
0.000144389
0.000177037
0.000137734
0.000177051
0.000171764
0.000137797
0.000161228
0.000122946
0.000103681
0.000147946
0.000147903
0.000122896
0.000161291
0.000172186
0.000177419
0.000137907
0.000144572
0.000172119
0.000177427
0.000137963
0.000161454
0.000122972
0.000148039
0.000103768
0.000161387
0.000148078
0.00012302
0.000172174
0.000177401
0.000137886
0.000144564
0.000172107
0.000177445
0.000137943
0.000161428
0.00012295
0.000148004
0.000103749
0.000161362
0.000122999
0.000148046
0.000138693
0.000183056
0.000162382
0.000162369
0.000138653
0.000162462
0.000162451
0.00021066
0.000202717
0.000202727
0.00018328
0.000212848
0.000203881
0.000203891
0.000184055
0.000214926
0.000204968
0.000204978
0.000184754
0.000216894
0.000205978
0.000205989
0.00018543
0.000218753
0.000206915
0.000206925
0.000186028
0.000220504
0.000207772
0.000207782
0.00018657
0.000222148
0.000208557
0.000208567
0.000187058
0.000223686
0.000209271
0.000209281
0.000187494
0.000225123
0.000209916
0.000209925
0.000187877
0.000226459
0.000210491
0.0002105
0.000188214
0.000227697
0.000210998
0.000211007
0.000188503
0.000228831
0.000211438
0.000211447
0.000188747
0.000229858
0.000211827
0.000211836
0.000188912
0.00023079
0.000212157
0.000212166
0.000189057
0.000231633
0.000212429
0.000212441
0.000189169
0.000232395
0.000212645
0.000212662
0.000189242
0.000233074
0.000212811
0.000212832
0.000189278
0.00023366
0.000212935
0.000212948
0.000189277
0.000234285
0.000213179
0.000213188
0.000189238
0.000233959
0.000213724
0.000213736
0.000193744
0.000183264
0.000202398
0.000202377
0.000183259
0.000202409
0.000202386
0.00020241
0.000202388
0.000183277
0.000202421
0.000202398
0.00018326
0.000183312
0.00018405
0.000202704
0.000202683
0.00020358
0.000203559
0.000183288
0.00018404
0.000202715
0.000202692
0.000203592
0.000203568
0.000202694
0.000203592
0.000203569
0.000183296
0.000184058
0.000202704
0.000203603
0.00020358
0.000184043
0.000184079
0.000184765
0.000203868
0.000203846
0.000204684
0.000204662
0.000184064
0.000184755
0.00020388
0.000203856
0.000204697
0.000204672
0.000203858
0.000204697
0.000204673
0.000184071
0.000184786
0.000203868
0.000204708
0.000204685
0.00018477
0.000184792
0.000185429
0.000204955
0.000204933
0.000205711
0.000205689
0.000184781
0.000185421
0.000204967
0.000204943
0.000205724
0.000205699
0.000204944
0.000205724
0.0002057
0.00018477
0.000185426
0.000204955
0.000205734
0.000205711
0.000185411
0.000185447
0.000186042
0.000205966
0.000205944
0.000206661
0.000206639
0.000185433
0.000186073
0.000205979
0.000205953
0.000206674
0.000206649
0.000205954
0.000206674
0.000206649
0.000185444
0.000186039
0.000205966
0.000206684
0.000206661
0.000186025
0.000186043
0.0001866
0.000206902
0.00020688
0.00020754
0.000207518
0.000185993
0.00018663
0.000206915
0.00020689
0.000207554
0.000207528
0.00020689
0.000207554
0.000207529
0.00018604
0.000186597
0.000206902
0.000207564
0.000207541
0.000186583
0.000186585
0.000187103
0.000207759
0.000207737
0.000208346
0.000208324
0.000186539
0.000187132
0.000207773
0.000207746
0.000208361
0.000208334
0.000207747
0.00020836
0.000208335
0.000186581
0.000187099
0.00020776
0.00020837
0.000208347
0.000187087
0.000187073
0.000187552
0.000208544
0.000208522
0.000209081
0.000209058
0.000187026
0.000187581
0.000208558
0.000208531
0.000209095
0.000209068
0.000208532
0.000209094
0.000209069
0.000187069
0.000187549
0.000208545
0.000209104
0.000209082
0.000187536
0.000187508
0.000187949
0.000209257
0.000209235
0.000209745
0.000209722
0.000187461
0.000187978
0.000209272
0.000209245
0.000209759
0.000209732
0.000209246
0.000209758
0.000209733
0.000187504
0.000187971
0.000209259
0.000209768
0.000209746
0.000187934
0.000187891
0.000188295
0.000209901
0.000209879
0.000210341
0.000210319
0.000187845
0.000188326
0.000209916
0.000209889
0.000210356
0.000210328
0.00020989
0.000210355
0.00021033
0.000187847
0.000188333
0.000209903
0.000210365
0.000210343
0.00018828
0.000188228
0.000188592
0.000210477
0.000210454
0.000210875
0.000210852
0.000188179
0.000188642
0.000210492
0.000210463
0.000210891
0.000210862
0.000210465
0.000210889
0.000210864
0.000188186
0.000188648
0.000210478
0.000210899
0.000210877
0.000188595
0.000188548
0.00018885
0.000210984
0.00021096
0.000211348
0.000211325
0.000188473
0.000188894
0.000210999
0.00021097
0.000211363
0.000211334
0.000210971
0.000211362
0.000211335
0.000188483
0.000188901
0.000210985
0.000211372
0.00021135
0.000188845
0.00018878
0.000189041
0.000211424
0.0002114
0.00021175
0.000211727
0.000188718
0.000189076
0.000211439
0.00021141
0.000211766
0.000211736
0.000211411
0.000211765
0.000211738
0.000188729
0.000189081
0.000211425
0.000211775
0.000211752
0.000189055
0.000188961
0.000189189
0.000211812
0.000211789
0.000212091
0.000212067