/*--------------------------------*- C++ -*----------------------------------*\
| =========                 |                                                 |
| \\      /  F ield         | OpenFOAM: The Open Source CFD Toolbox           |
|  \\    /   O peration     | Version:                                        |
|   \\  /    A nd           | Website:  www.openfoam.com                      |
|    \\/     M anipulation  |                                                 |
\*---------------------------------------------------------------------------*/
FoamFile
{
    version     2.0;
    format      ascii;
    class       volScalarField;
    location    "70.5";
    object      p;
}
// * * * * * * * * * * * * * * * * * * * * * * * * * * * * * * * * * * * * * //

dimensions      [0 2 -2 0 0 0 0];


internalField   nonuniform List<scalar> 
247096
(
9.76718e-07
9.76684e-07
9.76674e-07
9.76631e-07
9.76606e-07
9.76637e-07
9.76676e-07
9.76673e-07
9.76684e-07
9.7666e-07
9.76493e-07
9.76331e-07
9.76273e-07
9.76346e-07
9.76516e-07
9.76672e-07
9.76674e-07
9.76492e-07
9.762e-07
9.75978e-07
9.75905e-07
9.75999e-07
9.76235e-07
9.76526e-07
9.76675e-07
9.76631e-07
9.76331e-07
9.75978e-07
9.75727e-07
9.75645e-07
9.7575e-07
9.76019e-07
9.76375e-07
9.76652e-07
9.76717e-07
9.76605e-07
9.76273e-07
9.75904e-07
9.75645e-07
9.75561e-07
9.75669e-07
9.75946e-07
9.76321e-07
9.76632e-07
9.76637e-07
9.76346e-07
9.75999e-07
9.7575e-07
9.75669e-07
9.75773e-07
9.76039e-07
9.7639e-07
9.76656e-07
9.76675e-07
9.76516e-07
9.76235e-07
9.76019e-07
9.75946e-07
9.76039e-07
9.76269e-07
9.76548e-07
9.76674e-07
9.76673e-07
9.76672e-07
9.76526e-07
9.76375e-07
9.7632e-07
9.7639e-07
9.76548e-07
9.76681e-07
9.76675e-07
9.76652e-07
9.76632e-07
9.76656e-07
9.76673e-07
9.63082e-07
9.63015e-07
9.62777e-07
9.62017e-07
9.61969e-07
9.61941e-07
9.62008e-07
9.62843e-07
9.6286e-07
9.62776e-07
9.61661e-07
9.60306e-07
9.60311e-07
9.60311e-07
9.60306e-07
9.61833e-07
9.62221e-07
9.62017e-07
9.60306e-07
9.60311e-07
9.60325e-07
9.60325e-07
9.60311e-07
9.60306e-07
9.6231e-07
9.63095e-07
9.63082e-07
9.61969e-07
9.60312e-07
9.60325e-07
9.6034e-07
9.6034e-07
9.60325e-07
9.60311e-07
9.62342e-07
9.63009e-07
9.63015e-07
9.61941e-07
9.60312e-07
9.60325e-07
9.6034e-07
9.6034e-07
9.60325e-07
9.60311e-07
9.62322e-07
9.62362e-07
9.62008e-07
9.60306e-07
9.60311e-07
9.60325e-07
9.60325e-07
9.60311e-07
9.60306e-07
9.62331e-07
9.63168e-07
9.62843e-07
9.61833e-07
9.60306e-07
9.60311e-07
9.60311e-07
9.60306e-07
9.62107e-07
9.62296e-07
9.63049e-07
9.6286e-07
9.6222e-07
9.6231e-07
9.62342e-07
9.62322e-07
9.62331e-07
9.62296e-07
9.62975e-07
9.63094e-07
9.63009e-07
9.62362e-07
9.63168e-07
9.63048e-07
9.52745e-07
9.52706e-07
9.52557e-07
9.5176e-07
9.51696e-07
9.51666e-07
9.51749e-07
9.52626e-07
9.5266e-07
9.52557e-07
9.51392e-07
9.49995e-07
9.49997e-07
9.49997e-07
9.49995e-07
9.51548e-07
9.51967e-07
9.5176e-07
9.49995e-07
9.49997e-07
9.50004e-07
9.50004e-07
9.49997e-07
9.49995e-07
9.52024e-07
9.52839e-07
9.52745e-07
9.51696e-07
9.49997e-07
9.50004e-07
9.50012e-07
9.50012e-07
9.50004e-07
9.49997e-07
9.52034e-07
9.52721e-07
9.52706e-07
9.51666e-07
9.49997e-07
9.50004e-07
9.50011e-07
9.50012e-07
9.50004e-07
9.49997e-07
9.52014e-07
9.52093e-07
9.51749e-07
9.49995e-07
9.49997e-07
9.50004e-07
9.50004e-07
9.49997e-07
9.49995e-07
9.52036e-07
9.52874e-07
9.52625e-07
9.51548e-07
9.49995e-07
9.49997e-07
9.49997e-07
9.49995e-07
9.51808e-07
9.52037e-07
9.52822e-07
9.5266e-07
9.51967e-07
9.52024e-07
9.52034e-07
9.52014e-07
9.52036e-07
9.52037e-07
9.52779e-07
9.52839e-07
9.52721e-07
9.52093e-07
9.52874e-07
9.52822e-07
9.42468e-07
9.42429e-07
9.42279e-07
9.4148e-07
9.41416e-07
9.41386e-07
9.41471e-07
9.42349e-07
9.42383e-07
9.42279e-07
9.41113e-07
9.39707e-07
9.39708e-07
9.39708e-07
9.39707e-07
9.41266e-07
9.41688e-07
9.4148e-07
9.39707e-07
9.39709e-07
9.39712e-07
9.39712e-07
9.39709e-07
9.39707e-07
9.41742e-07
9.42562e-07
9.42468e-07
9.41416e-07
9.39708e-07
9.39712e-07
9.39715e-07
9.39715e-07
9.39712e-07
9.39708e-07
9.4175e-07
9.42443e-07
9.42429e-07
9.41386e-07
9.39708e-07
9.39712e-07
9.39715e-07
9.39715e-07
9.39712e-07
9.39708e-07
9.4173e-07
9.41814e-07
9.41471e-07
9.39707e-07
9.39709e-07
9.39712e-07
9.39712e-07
9.39709e-07
9.39707e-07
9.41754e-07
9.42597e-07
9.42349e-07
9.41266e-07
9.39707e-07
9.39708e-07
9.39708e-07
9.39707e-07
9.41525e-07
9.41757e-07
9.42545e-07
9.42383e-07
9.41688e-07
9.41742e-07
9.4175e-07
9.4173e-07
9.41754e-07
9.41758e-07
9.42502e-07
9.42562e-07
9.42443e-07
9.41814e-07
9.42597e-07
9.42545e-07
9.32184e-07
9.32145e-07
9.31995e-07
9.31196e-07
9.31132e-07
9.31101e-07
9.31186e-07
9.32065e-07
9.32099e-07
9.31995e-07
9.30828e-07
9.29421e-07
9.29422e-07
9.29422e-07
9.29421e-07
9.30982e-07
9.31404e-07
9.31196e-07
9.29421e-07
9.29423e-07
9.29424e-07
9.29424e-07
9.29423e-07
9.29421e-07
9.31457e-07
9.32278e-07
9.32184e-07
9.31131e-07
9.29422e-07
9.29424e-07
9.29425e-07
9.29425e-07
9.29424e-07
9.29422e-07
9.31465e-07
9.3216e-07
9.32145e-07
9.31101e-07
9.29422e-07
9.29424e-07
9.29425e-07
9.29425e-07
9.29424e-07
9.29422e-07
9.31445e-07
9.31531e-07
9.31186e-07
9.29421e-07
9.29423e-07
9.29424e-07
9.29424e-07
9.29423e-07
9.29421e-07
9.31469e-07
9.32313e-07
9.32065e-07
9.30982e-07
9.29421e-07
9.29422e-07
9.29422e-07
9.29421e-07
9.3124e-07
9.31474e-07
9.32262e-07
9.32099e-07
9.31404e-07
9.31457e-07
9.31465e-07
9.31444e-07
9.31469e-07
9.31474e-07
9.32219e-07
9.32278e-07
9.32159e-07
9.31531e-07
9.32313e-07
9.32262e-07
9.219e-07
9.21861e-07
9.21711e-07
9.20912e-07
9.20847e-07
9.20817e-07
9.20902e-07
9.21781e-07
9.21815e-07
9.21711e-07
9.20544e-07
9.19137e-07
9.19137e-07
9.19137e-07
9.19137e-07
9.20698e-07
9.2112e-07
9.20912e-07
9.19137e-07
9.19138e-07
9.19138e-07
9.19138e-07
9.19138e-07
9.19137e-07
9.21173e-07
9.21994e-07
9.219e-07
9.20847e-07
9.19137e-07
9.19138e-07
9.19139e-07
9.19139e-07
9.19138e-07
9.19137e-07
9.21181e-07
9.21876e-07
9.21861e-07
9.20817e-07
9.19137e-07
9.19138e-07
9.19139e-07
9.19139e-07
9.19138e-07
9.19137e-07
9.2116e-07
9.21247e-07
9.20902e-07
9.19137e-07
9.19138e-07
9.19138e-07
9.19138e-07
9.19138e-07
9.19137e-07
9.21185e-07
9.22029e-07
9.21781e-07
9.20697e-07
9.19137e-07
9.19137e-07
9.19137e-07
9.19137e-07
9.20956e-07
9.2119e-07
9.21978e-07
9.21815e-07
9.2112e-07
9.21173e-07
9.21181e-07
9.2116e-07
9.21185e-07
9.2119e-07
9.21935e-07
9.21994e-07
9.21876e-07
9.21247e-07
9.22029e-07
9.21978e-07
9.11616e-07
9.11577e-07
9.11427e-07
9.10628e-07
9.10563e-07
9.10533e-07
9.10618e-07
9.11497e-07
9.11531e-07
9.11427e-07
9.1026e-07
9.08852e-07
9.08853e-07
9.08853e-07
9.08852e-07
9.10413e-07
9.10836e-07
9.10628e-07
9.08852e-07
9.08854e-07
9.08853e-07
9.08853e-07
9.08854e-07
9.08852e-07
9.10889e-07
9.1171e-07
9.11616e-07
9.10563e-07
9.08853e-07
9.08853e-07
9.08854e-07
9.08854e-07
9.08853e-07
9.08853e-07
9.10897e-07
9.11592e-07
9.11577e-07
9.10533e-07
9.08853e-07
9.08854e-07
9.08854e-07
9.08854e-07
9.08853e-07
9.08853e-07
9.10876e-07
9.10962e-07
9.10618e-07
9.08852e-07
9.08854e-07
9.08853e-07
9.08854e-07
9.08854e-07
9.08852e-07
9.10901e-07
9.11745e-07
9.11497e-07
9.10413e-07
9.08852e-07
9.08853e-07
9.08853e-07
9.08852e-07
9.10672e-07
9.10905e-07
9.11694e-07
9.11531e-07
9.10836e-07
9.10889e-07
9.10897e-07
9.10876e-07
9.10901e-07
9.10906e-07
9.11651e-07
9.1171e-07
9.11591e-07
9.10962e-07
9.11745e-07
9.11694e-07
9.01332e-07
9.01293e-07
9.01143e-07
9.00344e-07
9.00279e-07
9.00249e-07
9.00334e-07
9.01213e-07
9.01247e-07
9.01143e-07
8.99976e-07
8.98568e-07
8.98568e-07
8.98568e-07
8.98568e-07
9.00129e-07
9.00552e-07
9.00344e-07
8.98568e-07
8.98569e-07
8.98569e-07
8.98569e-07
8.98569e-07
8.98568e-07
9.00605e-07
9.01426e-07
9.01332e-07
9.00279e-07
8.98568e-07
8.98569e-07
8.98569e-07
8.98569e-07
8.98569e-07
8.98568e-07
9.00613e-07
9.01308e-07
9.01293e-07
9.00249e-07
8.98568e-07
8.98569e-07
8.98569e-07
8.98569e-07
8.98569e-07
8.98568e-07
9.00592e-07
9.00679e-07
9.00334e-07
8.98568e-07
8.98569e-07
8.98569e-07
8.98569e-07
8.98569e-07
8.98568e-07
9.00617e-07
9.01461e-07
9.01213e-07
9.00129e-07
8.98568e-07
8.98568e-07
8.98568e-07
8.98568e-07
9.00388e-07
9.00622e-07
9.0141e-07
9.01247e-07
9.00552e-07
9.00605e-07
9.00613e-07
9.00592e-07
9.00617e-07
9.00622e-07
9.01367e-07
9.01426e-07
9.01308e-07
9.00679e-07
9.01461e-07
9.0141e-07
8.91048e-07
8.91009e-07
8.90859e-07
8.90059e-07
8.89995e-07
8.89965e-07
8.9005e-07
8.90929e-07
8.90963e-07
8.90859e-07
8.89692e-07
8.88284e-07
8.88284e-07
8.88284e-07
8.88284e-07
8.89845e-07
8.90268e-07
8.90059e-07
8.88284e-07
8.88285e-07
8.88285e-07
8.88285e-07
8.88285e-07
8.88284e-07
8.90321e-07
8.91142e-07
8.91048e-07
8.89995e-07
8.88284e-07
8.88285e-07
8.88285e-07
8.88285e-07
8.88285e-07
8.88284e-07
8.90329e-07
8.91023e-07
8.91009e-07
8.89965e-07
8.88284e-07
8.88285e-07
8.88285e-07
8.88285e-07
8.88285e-07
8.88284e-07
8.90308e-07
8.90394e-07
8.9005e-07
8.88284e-07
8.88285e-07
8.88285e-07
8.88285e-07
8.88285e-07
8.88284e-07
8.90333e-07
8.91177e-07
8.90929e-07
8.89845e-07
8.88284e-07
8.88284e-07
8.88284e-07
8.88284e-07
8.90104e-07
8.90337e-07
8.91126e-07
8.90963e-07
8.90268e-07
8.90321e-07
8.90329e-07
8.90308e-07
8.90333e-07
8.90338e-07
8.91083e-07
8.91142e-07
8.91023e-07
8.90394e-07
8.91177e-07
8.91126e-07
8.80764e-07
8.80725e-07
8.80574e-07
8.79775e-07
8.79711e-07
8.79681e-07
8.79766e-07
8.80644e-07
8.80679e-07
8.80574e-07
8.79408e-07
8.78e-07
8.78e-07
8.78e-07
8.78e-07
8.79561e-07
8.79984e-07
8.79775e-07
8.78e-07
8.78001e-07
8.78001e-07
8.78001e-07
8.78001e-07
8.78e-07
8.80037e-07
8.80858e-07
8.80764e-07
8.79711e-07
8.78e-07
8.78001e-07
8.78e-07
8.78e-07
8.78001e-07
8.78e-07
8.80045e-07
8.80739e-07
8.80725e-07
8.79681e-07
8.78e-07
8.78001e-07
8.78e-07
8.78e-07
8.78001e-07
8.78e-07
8.80024e-07
8.8011e-07
8.79766e-07
8.78e-07
8.78001e-07
8.78001e-07
8.78001e-07
8.78001e-07
8.78e-07
8.80049e-07
8.80893e-07
8.80644e-07
8.79561e-07
8.78e-07
8.78e-07
8.78e-07
8.78e-07
8.7982e-07
8.80053e-07
8.80842e-07
8.80679e-07
8.79984e-07
8.80037e-07
8.80044e-07
8.80024e-07
8.80049e-07
8.80053e-07
8.80799e-07
8.80858e-07
8.80739e-07
8.8011e-07
8.80893e-07
8.80842e-07
8.7048e-07
8.70441e-07
8.7029e-07
8.69491e-07
8.69426e-07
8.69397e-07
8.69482e-07
8.7036e-07
8.70395e-07
8.7029e-07
8.69123e-07
8.67716e-07
8.67716e-07
8.67716e-07
8.67716e-07
8.69277e-07
8.697e-07
8.69491e-07
8.67716e-07
8.67717e-07
8.67716e-07
8.67716e-07
8.67717e-07
8.67716e-07
8.69753e-07
8.70573e-07
8.7048e-07
8.69426e-07
8.67716e-07
8.67716e-07
8.67716e-07
8.67716e-07
8.67716e-07
8.67716e-07
8.6976e-07
8.70455e-07
8.70441e-07
8.69396e-07
8.67716e-07
8.67716e-07
8.67716e-07
8.67716e-07
8.67716e-07
8.67716e-07
8.6974e-07
8.69826e-07
8.69481e-07
8.67716e-07
8.67717e-07
8.67716e-07
8.67716e-07
8.67717e-07
8.67716e-07
8.69764e-07
8.70609e-07
8.7036e-07
8.69277e-07
8.67716e-07
8.67716e-07
8.67716e-07
8.67716e-07
8.69535e-07
8.69769e-07
8.70557e-07
8.70395e-07
8.697e-07
8.69753e-07
8.6976e-07
8.69739e-07
8.69764e-07
8.69769e-07
8.70515e-07
8.70574e-07
8.70455e-07
8.69826e-07
8.70609e-07
8.70558e-07
8.60196e-07
8.60157e-07
8.60006e-07
8.59207e-07
8.59142e-07
8.59112e-07
8.59197e-07
8.60076e-07
8.60111e-07
8.60006e-07
8.58839e-07
8.57432e-07
8.57432e-07
8.57432e-07
8.57432e-07
8.58993e-07
8.59415e-07
8.59207e-07
8.57432e-07
8.57433e-07
8.57432e-07
8.57432e-07
8.57433e-07
8.57432e-07
8.59469e-07
8.60289e-07
8.60195e-07
8.59142e-07
8.57432e-07
8.57432e-07
8.57432e-07
8.57432e-07
8.57432e-07
8.57432e-07
8.59476e-07
8.60171e-07
8.60156e-07
8.59112e-07
8.57432e-07
8.57432e-07
8.57432e-07
8.57432e-07
8.57432e-07
8.57432e-07
8.59455e-07
8.59542e-07
8.59197e-07
8.57432e-07
8.57433e-07
8.57432e-07
8.57432e-07
8.57433e-07
8.57432e-07
8.5948e-07
8.60324e-07
8.60076e-07
8.58993e-07
8.57432e-07
8.57432e-07
8.57432e-07
8.57432e-07
8.59251e-07
8.59485e-07
8.60273e-07
8.60111e-07
8.59415e-07
8.59469e-07
8.59476e-07
8.59455e-07
8.5948e-07
8.59485e-07
8.6023e-07
8.60289e-07
8.60171e-07
8.59542e-07
8.60324e-07
8.60273e-07
8.49912e-07
8.49872e-07
8.49722e-07
8.48923e-07
8.48858e-07
8.48828e-07
8.48913e-07
8.49792e-07
8.49826e-07
8.49722e-07
8.48555e-07
8.47147e-07
8.47148e-07
8.47148e-07
8.47147e-07
8.48709e-07
8.49131e-07
8.48923e-07
8.47147e-07
8.47149e-07
8.47148e-07
8.47148e-07
8.47149e-07
8.47147e-07
8.49185e-07
8.50005e-07
8.49911e-07
8.48858e-07
8.47148e-07
8.47148e-07
8.47148e-07
8.47148e-07
8.47148e-07
8.47148e-07
8.49192e-07
8.49887e-07
8.49872e-07
8.48828e-07
8.47148e-07
8.47148e-07
8.47148e-07
8.47148e-07
8.47148e-07
8.47148e-07
8.49171e-07
8.49258e-07
8.48913e-07
8.47147e-07
8.47149e-07
8.47148e-07
8.47148e-07
8.47149e-07
8.47147e-07
8.49196e-07
8.5004e-07
8.49792e-07
8.48709e-07
8.47147e-07
8.47148e-07
8.47148e-07
8.47147e-07
8.48967e-07
8.49201e-07
8.49989e-07
8.49827e-07
8.49131e-07
8.49185e-07
8.49192e-07
8.49171e-07
8.49196e-07
8.49201e-07
8.49946e-07
8.50005e-07
8.49887e-07
8.49258e-07
8.5004e-07
8.49989e-07
8.39627e-07
8.39588e-07
8.39438e-07
8.38639e-07
8.38574e-07
8.38544e-07
8.38629e-07
8.39508e-07
8.39542e-07
8.39438e-07
8.38271e-07
8.36863e-07
8.36864e-07
8.36864e-07
8.36863e-07
8.38425e-07
8.38847e-07
8.38639e-07
8.36863e-07
8.36865e-07
8.36864e-07
8.36864e-07
8.36865e-07
8.36863e-07
8.389e-07
8.39721e-07
8.39627e-07
8.38574e-07
8.36864e-07
8.36864e-07
8.36864e-07
8.36864e-07
8.36864e-07
8.36864e-07
8.38908e-07
8.39603e-07
8.39588e-07
8.38544e-07
8.36864e-07
8.36864e-07
8.36864e-07
8.36864e-07
8.36864e-07
8.36864e-07
8.38887e-07
8.38974e-07
8.38629e-07
8.36863e-07
8.36865e-07
8.36864e-07
8.36864e-07
8.36865e-07
8.36863e-07
8.38912e-07
8.39756e-07
8.39508e-07
8.38425e-07
8.36863e-07
8.36864e-07
8.36864e-07
8.36863e-07
8.38683e-07
8.38917e-07
8.39705e-07
8.39542e-07
8.38847e-07
8.389e-07
8.38908e-07
8.38887e-07
8.38912e-07
8.38917e-07
8.39662e-07
8.39721e-07
8.39603e-07
8.38974e-07
8.39756e-07
8.39705e-07
8.29343e-07
8.29304e-07
8.29154e-07
8.28355e-07
8.2829e-07
8.2826e-07
8.28345e-07
8.29224e-07
8.29258e-07
8.29154e-07
8.27987e-07
8.26579e-07
8.2658e-07
8.2658e-07
8.26579e-07
8.28141e-07
8.28563e-07
8.28355e-07
8.26579e-07
8.26581e-07
8.2658e-07
8.2658e-07
8.26581e-07
8.26579e-07
8.28616e-07
8.29437e-07
8.29343e-07
8.2829e-07
8.2658e-07
8.2658e-07
8.2658e-07
8.2658e-07
8.2658e-07
8.2658e-07
8.28624e-07
8.29319e-07
8.29304e-07
8.2826e-07
8.2658e-07
8.2658e-07
8.2658e-07
8.2658e-07
8.2658e-07
8.2658e-07
8.28603e-07
8.2869e-07
8.28345e-07
8.26579e-07
8.26581e-07
8.2658e-07
8.2658e-07
8.26581e-07
8.26579e-07
8.28628e-07
8.29472e-07
8.29224e-07
8.28141e-07
8.26579e-07
8.2658e-07
8.2658e-07
8.26579e-07
8.28399e-07
8.28633e-07
8.29421e-07
8.29258e-07
8.28563e-07
8.28616e-07
8.28624e-07
8.28603e-07
8.28628e-07
8.28633e-07
8.29378e-07
8.29437e-07
8.29319e-07
8.2869e-07
8.29472e-07
8.29421e-07
8.19059e-07
8.1902e-07
8.1887e-07
8.18071e-07
8.18006e-07
8.17976e-07
8.18061e-07
8.1894e-07
8.18974e-07
8.1887e-07
8.17703e-07
8.16295e-07
8.16296e-07
8.16296e-07
8.16295e-07
8.17857e-07
8.18279e-07
8.18071e-07
8.16295e-07
8.16297e-07
8.16296e-07
8.16296e-07
8.16297e-07
8.16295e-07
8.18332e-07
8.19153e-07
8.19059e-07
8.18006e-07
8.16296e-07
8.16296e-07
8.16296e-07
8.16296e-07
8.16296e-07
8.16296e-07
8.1834e-07
8.19035e-07
8.1902e-07
8.17976e-07
8.16296e-07
8.16296e-07
8.16296e-07
8.16296e-07
8.16296e-07
8.16296e-07
8.18319e-07
8.18406e-07
8.18061e-07
8.16295e-07
8.16297e-07
8.16296e-07
8.16296e-07
8.16297e-07
8.16295e-07
8.18344e-07
8.19188e-07
8.1894e-07
8.17857e-07
8.16295e-07
8.16296e-07
8.16296e-07
8.16295e-07
8.18115e-07
8.18349e-07
8.19137e-07
8.18974e-07
8.18279e-07
8.18332e-07
8.1834e-07
8.18319e-07
8.18344e-07
8.18349e-07
8.19094e-07
8.19153e-07
8.19035e-07
8.18406e-07
8.19188e-07
8.19137e-07
8.08775e-07
8.08736e-07
8.08586e-07
8.07787e-07
8.07722e-07
8.07692e-07
8.07777e-07
8.08656e-07
8.0869e-07
8.08586e-07
8.07419e-07
8.06011e-07
8.06011e-07
8.06011e-07
8.06011e-07
8.07573e-07
8.07995e-07
8.07787e-07
8.06011e-07
8.06013e-07
8.06012e-07
8.06012e-07
8.06013e-07
8.06011e-07
8.08048e-07
8.08869e-07
8.08775e-07
8.07722e-07
8.06011e-07
8.06012e-07
8.06012e-07
8.06012e-07
8.06012e-07
8.06011e-07
8.08056e-07
8.08751e-07
8.08736e-07
8.07692e-07
8.06011e-07
8.06012e-07
8.06012e-07
8.06012e-07
8.06012e-07
8.06011e-07
8.08035e-07
8.08122e-07
8.07777e-07
8.06011e-07
8.06013e-07
8.06012e-07
8.06012e-07
8.06013e-07
8.06011e-07
8.0806e-07
8.08904e-07
8.08656e-07
8.07572e-07
8.06011e-07
8.06011e-07
8.06011e-07
8.06011e-07
8.07831e-07
8.08065e-07
8.08853e-07
8.0869e-07
8.07995e-07
8.08048e-07
8.08056e-07
8.08035e-07
8.0806e-07
8.08065e-07
8.0881e-07
8.08869e-07
8.08751e-07
8.08122e-07
8.08904e-07
8.08853e-07
7.98491e-07
7.98452e-07
7.98302e-07
7.97503e-07
7.97438e-07
7.97408e-07
7.97493e-07
7.98372e-07
7.98406e-07
7.98302e-07
7.97135e-07
7.95727e-07
7.95727e-07
7.95727e-07
7.95727e-07
7.97288e-07
7.97711e-07
7.97502e-07
7.95727e-07
7.95728e-07
7.95728e-07
7.95728e-07
7.95728e-07
7.95727e-07
7.97764e-07
7.98585e-07
7.98491e-07
7.97438e-07
7.95727e-07
7.95728e-07
7.95728e-07
7.95728e-07
7.95728e-07
7.95727e-07
7.97772e-07
7.98466e-07
7.98452e-07
7.97408e-07
7.95727e-07
7.95728e-07
7.95728e-07
7.95728e-07
7.95728e-07
7.95727e-07
7.97751e-07
7.97837e-07
7.97493e-07
7.95727e-07
7.95728e-07
7.95728e-07
7.95728e-07
7.95728e-07
7.95727e-07
7.97776e-07
7.9862e-07
7.98372e-07
7.97288e-07
7.95727e-07
7.95727e-07
7.95727e-07
7.95727e-07
7.97547e-07
7.9778e-07
7.98569e-07
7.98406e-07
7.97711e-07
7.97764e-07
7.97772e-07
7.97751e-07
7.97776e-07
7.97781e-07
7.98526e-07
7.98585e-07
7.98466e-07
7.97837e-07
7.9862e-07
7.98569e-07
7.88207e-07
7.88168e-07
7.88017e-07
7.87218e-07
7.87154e-07
7.87124e-07
7.87209e-07
7.88088e-07
7.88122e-07
7.88017e-07
7.86851e-07
7.85443e-07
7.85443e-07
7.85443e-07
7.85443e-07
7.87004e-07
7.87427e-07
7.87218e-07
7.85443e-07
7.85444e-07
7.85444e-07
7.85444e-07
7.85444e-07
7.85443e-07
7.8748e-07
7.88301e-07
7.88207e-07
7.87154e-07
7.85443e-07
7.85444e-07
7.85443e-07
7.85443e-07
7.85444e-07
7.85443e-07
7.87488e-07
7.88182e-07
7.88168e-07
7.87124e-07
7.85443e-07
7.85444e-07
7.85443e-07
7.85443e-07
7.85444e-07
7.85443e-07
7.87467e-07
7.87553e-07
7.87209e-07
7.85443e-07
7.85444e-07
7.85444e-07
7.85444e-07
7.85444e-07
7.85443e-07
7.87492e-07
7.88336e-07
7.88087e-07
7.87004e-07
7.85443e-07
7.85443e-07
7.85443e-07
7.85443e-07
7.87263e-07
7.87496e-07
7.88285e-07
7.88122e-07
7.87427e-07
7.8748e-07
7.87488e-07
7.87467e-07
7.87492e-07
7.87496e-07
7.88242e-07
7.88301e-07
7.88182e-07
7.87553e-07
7.88336e-07
7.88285e-07
7.77923e-07
7.77884e-07
7.77733e-07
7.76934e-07
7.7687e-07
7.7684e-07
7.76925e-07
7.77803e-07
7.77838e-07
7.77733e-07
7.76566e-07
7.75159e-07
7.75159e-07
7.75159e-07
7.75159e-07
7.7672e-07
7.77143e-07
7.76934e-07
7.75159e-07
7.7516e-07
7.75159e-07
7.75159e-07
7.7516e-07
7.75159e-07
7.77196e-07
7.78016e-07
7.77923e-07
7.76869e-07
7.75159e-07
7.75159e-07
7.75159e-07
7.75159e-07
7.75159e-07
7.75159e-07
7.77203e-07
7.77898e-07
7.77884e-07
7.76839e-07
7.75159e-07
7.75159e-07
7.75159e-07
7.75159e-07
7.75159e-07
7.75159e-07
7.77183e-07
7.77269e-07
7.76925e-07
7.75159e-07
7.7516e-07
7.75159e-07
7.75159e-07
7.7516e-07
7.75159e-07
7.77208e-07
7.78052e-07
7.77803e-07
7.7672e-07
7.75159e-07
7.75159e-07
7.75159e-07
7.75159e-07
7.76979e-07
7.77212e-07
7.78e-07
7.77838e-07
7.77143e-07
7.77196e-07
7.77203e-07
7.77182e-07
7.77207e-07
7.77212e-07
7.77958e-07
7.78017e-07
7.77898e-07
7.77269e-07
7.78052e-07
7.78001e-07
7.67639e-07
7.676e-07
7.67449e-07
7.6665e-07
7.66585e-07
7.66555e-07
7.6664e-07
7.67519e-07
7.67554e-07
7.67449e-07
7.66282e-07
7.64875e-07
7.64875e-07
7.64875e-07
7.64875e-07
7.66436e-07
7.66858e-07
7.6665e-07
7.64875e-07
7.64876e-07
7.64875e-07
7.64875e-07
7.64876e-07
7.64875e-07
7.66912e-07
7.67732e-07
7.67639e-07
7.66585e-07
7.64875e-07
7.64875e-07
7.64875e-07
7.64875e-07
7.64875e-07
7.64875e-07
7.66919e-07
7.67614e-07
7.67599e-07
7.66555e-07
7.64875e-07
7.64875e-07
7.64875e-07
7.64875e-07
7.64875e-07
7.64875e-07
7.66898e-07
7.66985e-07
7.6664e-07
7.64875e-07
7.64876e-07
7.64875e-07
7.64875e-07
7.64876e-07
7.64875e-07
7.66923e-07
7.67768e-07
7.67519e-07
7.66436e-07
7.64875e-07
7.64875e-07
7.64875e-07
7.64875e-07
7.66694e-07
7.66928e-07
7.67716e-07
7.67554e-07
7.66858e-07
7.66912e-07
7.66919e-07
7.66898e-07
7.66923e-07
7.66928e-07
7.67673e-07
7.67732e-07
7.67614e-07
7.66985e-07
7.67767e-07
7.67716e-07
7.57355e-07
7.57316e-07
7.57165e-07
7.56366e-07
7.56301e-07
7.56271e-07
7.56356e-07
7.57235e-07
7.5727e-07
7.57165e-07
7.55998e-07
7.54591e-07
7.54591e-07
7.54591e-07
7.54591e-07
7.56152e-07
7.56574e-07
7.56366e-07
7.54591e-07
7.54592e-07
7.54591e-07
7.54591e-07
7.54592e-07
7.54591e-07
7.56628e-07
7.57448e-07
7.57354e-07
7.56301e-07
7.54591e-07
7.54591e-07
7.54591e-07
7.54591e-07
7.54591e-07
7.54591e-07
7.56635e-07
7.5733e-07
7.57315e-07
7.56271e-07
7.54591e-07
7.54591e-07
7.54591e-07
7.54591e-07
7.54591e-07
7.54591e-07
7.56614e-07
7.56701e-07
7.56356e-07
7.54591e-07
7.54592e-07
7.54591e-07
7.54591e-07
7.54592e-07
7.54591e-07
7.56639e-07
7.57483e-07
7.57235e-07
7.56152e-07
7.54591e-07
7.54591e-07
7.54591e-07
7.54591e-07
7.5641e-07
7.56644e-07
7.57432e-07
7.5727e-07
7.56574e-07
7.56628e-07
7.56635e-07
7.56614e-07
7.56639e-07
7.56644e-07
7.57389e-07
7.57448e-07
7.5733e-07
7.56701e-07
7.57483e-07
7.57432e-07
7.4707e-07
7.47031e-07
7.46881e-07
7.46082e-07
7.46017e-07
7.45987e-07
7.46072e-07
7.46951e-07
7.46986e-07
7.46881e-07
7.45714e-07
7.44306e-07
7.44307e-07
7.44307e-07
7.44306e-07
7.45868e-07
7.4629e-07
7.46082e-07
7.44306e-07
7.44308e-07
7.44307e-07
7.44307e-07
7.44308e-07
7.44306e-07
7.46344e-07
7.47164e-07
7.4707e-07
7.46017e-07
7.44307e-07
7.44307e-07
7.44307e-07
7.44307e-07
7.44307e-07
7.44307e-07
7.46351e-07
7.47046e-07
7.47031e-07
7.45987e-07
7.44307e-07
7.44307e-07
7.44307e-07
7.44307e-07
7.44307e-07
7.44307e-07
7.4633e-07
7.46417e-07
7.46072e-07
7.44306e-07
7.44308e-07
7.44307e-07
7.44307e-07
7.44308e-07
7.44306e-07
7.46355e-07
7.47199e-07
7.46951e-07
7.45868e-07
7.44306e-07
7.44307e-07
7.44307e-07
7.44306e-07
7.46126e-07
7.4636e-07
7.47148e-07
7.46986e-07
7.4629e-07
7.46344e-07
7.46351e-07
7.4633e-07
7.46355e-07
7.4636e-07
7.47105e-07
7.47164e-07
7.47046e-07
7.46417e-07
7.47199e-07
7.47148e-07
7.36786e-07
7.36747e-07
7.36597e-07
7.35798e-07
7.35733e-07
7.35703e-07
7.35788e-07
7.36667e-07
7.36701e-07
7.36597e-07
7.3543e-07
7.34022e-07
7.34023e-07
7.34023e-07
7.34022e-07
7.35584e-07
7.36006e-07
7.35798e-07
7.34022e-07
7.34024e-07
7.34023e-07
7.34023e-07
7.34024e-07
7.34022e-07
7.36059e-07
7.3688e-07
7.36786e-07
7.35733e-07
7.34023e-07
7.34023e-07
7.34023e-07
7.34023e-07
7.34023e-07
7.34023e-07
7.36067e-07
7.36762e-07
7.36747e-07
7.35703e-07
7.34023e-07
7.34023e-07
7.34023e-07
7.34023e-07
7.34023e-07
7.34023e-07
7.36046e-07
7.36133e-07
7.35788e-07
7.34022e-07
7.34024e-07
7.34023e-07
7.34023e-07
7.34024e-07
7.34022e-07
7.36071e-07
7.36915e-07
7.36667e-07
7.35584e-07
7.34022e-07
7.34023e-07
7.34023e-07
7.34022e-07
7.35842e-07
7.36076e-07
7.36864e-07
7.36701e-07
7.36006e-07
7.36059e-07
7.36067e-07
7.36046e-07
7.36071e-07
7.36076e-07
7.36821e-07
7.3688e-07
7.36762e-07
7.36133e-07
7.36915e-07
7.36864e-07
7.26502e-07
7.26463e-07
7.26313e-07
7.25514e-07
7.25449e-07
7.25419e-07
7.25504e-07
7.26383e-07
7.26417e-07
7.26313e-07
7.25146e-07
7.23738e-07
7.23738e-07
7.23738e-07
7.23738e-07
7.25299e-07
7.25722e-07
7.25514e-07
7.23738e-07
7.2374e-07
7.23739e-07
7.23739e-07
7.2374e-07
7.23738e-07
7.25775e-07
7.26596e-07
7.26502e-07
7.25449e-07
7.23738e-07
7.23739e-07
7.23739e-07
7.23739e-07
7.23739e-07
7.23738e-07
7.25783e-07
7.26478e-07
7.26463e-07
7.25419e-07
7.23738e-07
7.23739e-07
7.23739e-07
7.23739e-07
7.23739e-07
7.23738e-07
7.25762e-07
7.25849e-07
7.25504e-07
7.23738e-07
7.2374e-07
7.23739e-07
7.23739e-07
7.2374e-07
7.23738e-07
7.25787e-07
7.26631e-07
7.26383e-07
7.25299e-07
7.23738e-07
7.23738e-07
7.23738e-07
7.23738e-07
7.25558e-07
7.25792e-07
7.2658e-07
7.26417e-07
7.25722e-07
7.25775e-07
7.25783e-07
7.25762e-07
7.25787e-07
7.25792e-07
7.26537e-07
7.26596e-07
7.26478e-07
7.25849e-07
7.26631e-07
7.2658e-07
7.16218e-07
7.16179e-07
7.16029e-07
7.15229e-07
7.15165e-07
7.15135e-07
7.1522e-07
7.16099e-07
7.16133e-07
7.16029e-07
7.14862e-07
7.13454e-07
7.13454e-07
7.13454e-07
7.13454e-07
7.15015e-07
7.15438e-07
7.15229e-07
7.13454e-07
7.13455e-07
7.13455e-07
7.13455e-07
7.13455e-07
7.13454e-07
7.15491e-07
7.16312e-07
7.16218e-07
7.15165e-07
7.13454e-07
7.13455e-07
7.13454e-07
7.13454e-07
7.13455e-07
7.13454e-07
7.15499e-07
7.16193e-07
7.16179e-07
7.15135e-07
7.13454e-07
7.13455e-07
7.13454e-07
7.13454e-07
7.13455e-07
7.13454e-07
7.15478e-07
7.15564e-07
7.1522e-07
7.13454e-07
7.13455e-07
7.13455e-07
7.13455e-07
7.13455e-07
7.13454e-07
7.15503e-07
7.16347e-07
7.16099e-07
7.15015e-07
7.13454e-07
7.13454e-07
7.13454e-07
7.13454e-07
7.15274e-07
7.15507e-07
7.16296e-07
7.16133e-07
7.15438e-07
7.15491e-07
7.15499e-07
7.15478e-07
7.15503e-07
7.15508e-07
7.16253e-07
7.16312e-07
7.16193e-07
7.15564e-07
7.16347e-07
7.16296e-07
7.05934e-07
7.05895e-07
7.05744e-07
7.04945e-07
7.04881e-07
7.04851e-07
7.04936e-07
7.05814e-07
7.05849e-07
7.05744e-07
7.04578e-07
7.0317e-07
7.0317e-07
7.0317e-07
7.0317e-07
7.04731e-07
7.05154e-07
7.04945e-07
7.0317e-07
7.03171e-07
7.03171e-07
7.03171e-07
7.03171e-07
7.0317e-07
7.05207e-07
7.06028e-07
7.05934e-07
7.04881e-07
7.0317e-07
7.03171e-07
7.0317e-07
7.0317e-07
7.03171e-07
7.0317e-07
7.05214e-07
7.05909e-07
7.05895e-07
7.04851e-07
7.0317e-07
7.03171e-07
7.0317e-07
7.0317e-07
7.03171e-07
7.0317e-07
7.05194e-07
7.0528e-07
7.04936e-07
7.0317e-07
7.03171e-07
7.03171e-07
7.03171e-07
7.03171e-07
7.0317e-07
7.05219e-07
7.06063e-07
7.05814e-07
7.04731e-07
7.0317e-07
7.0317e-07
7.0317e-07
7.0317e-07
7.0499e-07
7.05223e-07
7.06012e-07
7.05849e-07
7.05154e-07
7.05207e-07
7.05214e-07
7.05194e-07
7.05219e-07
7.05223e-07
7.05969e-07
7.06028e-07
7.05909e-07
7.0528e-07
7.06063e-07
7.06012e-07
6.9565e-07
6.95611e-07
6.9546e-07
6.94661e-07
6.94596e-07
6.94566e-07
6.94651e-07
6.9553e-07
6.95565e-07
6.9546e-07
6.94293e-07
6.92886e-07
6.92886e-07
6.92886e-07
6.92886e-07
6.94447e-07
6.9487e-07
6.94661e-07
6.92886e-07
6.92887e-07
6.92886e-07
6.92886e-07
6.92887e-07
6.92886e-07
6.94923e-07
6.95743e-07
6.9565e-07
6.94596e-07
6.92886e-07
6.92886e-07
6.92886e-07
6.92886e-07
6.92886e-07
6.92886e-07
6.9493e-07
6.95625e-07
6.95611e-07
6.94566e-07
6.92886e-07
6.92886e-07
6.92886e-07
6.92886e-07
6.92886e-07
6.92886e-07
6.94909e-07
6.94996e-07
6.94651e-07
6.92886e-07
6.92887e-07
6.92886e-07
6.92886e-07
6.92887e-07
6.92886e-07
6.94934e-07
6.95779e-07
6.9553e-07
6.94447e-07
6.92886e-07
6.92886e-07
6.92886e-07
6.92886e-07
6.94705e-07
6.94939e-07
6.95727e-07
6.95565e-07
6.9487e-07
6.94923e-07
6.9493e-07
6.94909e-07
6.94934e-07
6.94939e-07
6.95684e-07
6.95743e-07
6.95625e-07
6.94996e-07
6.95779e-07
6.95727e-07
6.85366e-07
6.85327e-07
6.85176e-07
6.84377e-07
6.84312e-07
6.84282e-07
6.84367e-07
6.85246e-07
6.85281e-07
6.85176e-07
6.84009e-07
6.82602e-07
6.82602e-07
6.82602e-07
6.82602e-07
6.84163e-07
6.84585e-07
6.84377e-07
6.82602e-07
6.82603e-07
6.82602e-07
6.82602e-07
6.82603e-07
6.82602e-07
6.84639e-07
6.85459e-07
6.85366e-07
6.84312e-07
6.82602e-07
6.82602e-07
6.82602e-07
6.82602e-07
6.82602e-07
6.82602e-07
6.84646e-07
6.85341e-07
6.85326e-07
6.84282e-07
6.82602e-07
6.82602e-07
6.82602e-07
6.82602e-07
6.82602e-07
6.82602e-07
6.84625e-07
6.84712e-07
6.84367e-07
6.82602e-07
6.82603e-07
6.82602e-07
6.82602e-07
6.82603e-07
6.82602e-07
6.8465e-07
6.85494e-07
6.85246e-07
6.84163e-07
6.82602e-07
6.82602e-07
6.82602e-07
6.82602e-07
6.84421e-07
6.84655e-07
6.85443e-07
6.85281e-07
6.84585e-07
6.84639e-07
6.84646e-07
6.84625e-07
6.8465e-07
6.84655e-07
6.854e-07
6.85459e-07
6.85341e-07
6.84712e-07
6.85494e-07
6.85443e-07
6.75082e-07
6.75043e-07
6.74892e-07
6.74093e-07
6.74028e-07
6.73998e-07
6.74083e-07
6.74962e-07
6.74997e-07
6.74892e-07
6.73725e-07
6.72318e-07
6.72318e-07
6.72318e-07
6.72318e-07
6.73879e-07
6.74301e-07
6.74093e-07
6.72318e-07
6.72319e-07
6.72318e-07
6.72318e-07
6.72319e-07
6.72318e-07
6.74355e-07
6.75175e-07
6.75082e-07
6.74028e-07
6.72318e-07
6.72318e-07
6.72318e-07
6.72318e-07
6.72318e-07
6.72318e-07
6.74362e-07
6.75057e-07
6.75042e-07
6.73998e-07
6.72318e-07
6.72318e-07
6.72318e-07
6.72318e-07
6.72318e-07
6.72318e-07
6.74341e-07
6.74428e-07
6.74083e-07
6.72318e-07
6.72319e-07
6.72318e-07
6.72318e-07
6.72319e-07
6.72318e-07
6.74366e-07
6.75211e-07
6.74962e-07
6.73879e-07
6.72318e-07
6.72318e-07
6.72318e-07
6.72318e-07
6.74137e-07
6.74371e-07
6.75159e-07
6.74997e-07
6.74301e-07
6.74355e-07
6.74362e-07
6.74341e-07
6.74366e-07
6.74371e-07
6.75116e-07
6.75175e-07
6.75057e-07
6.74428e-07
6.7521e-07
6.75159e-07
6.64797e-07
6.64758e-07
6.64608e-07
6.63809e-07
6.63744e-07
6.63714e-07
6.63799e-07
6.64678e-07
6.64713e-07
6.64608e-07
6.63441e-07
6.62033e-07
6.62034e-07
6.62034e-07
6.62033e-07
6.63595e-07
6.64017e-07
6.63809e-07
6.62033e-07
6.62035e-07
6.62034e-07
6.62034e-07
6.62035e-07
6.62033e-07
6.64071e-07
6.64891e-07
6.64797e-07
6.63744e-07
6.62034e-07
6.62034e-07
6.62034e-07
6.62034e-07
6.62034e-07
6.62034e-07
6.64078e-07
6.64773e-07
6.64758e-07
6.63714e-07
6.62034e-07
6.62034e-07
6.62034e-07
6.62034e-07
6.62034e-07
6.62034e-07
6.64057e-07
6.64144e-07
6.63799e-07
6.62033e-07
6.62035e-07
6.62034e-07
6.62034e-07
6.62035e-07
6.62033e-07
6.64082e-07
6.64926e-07
6.64678e-07
6.63595e-07
6.62033e-07
6.62034e-07
6.62034e-07
6.62033e-07
6.63853e-07
6.64087e-07
6.64875e-07
6.64713e-07
6.64017e-07
6.64071e-07
6.64078e-07
6.64057e-07
6.64082e-07
6.64087e-07
6.64832e-07
6.64891e-07
6.64773e-07
6.64144e-07
6.64926e-07
6.64875e-07
6.54513e-07
6.54474e-07
6.54324e-07
6.53525e-07
6.5346e-07
6.5343e-07
6.53515e-07
6.54394e-07
6.54428e-07
6.54324e-07
6.53157e-07
6.51749e-07
6.5175e-07
6.5175e-07
6.51749e-07
6.53311e-07
6.53733e-07
6.53525e-07
6.51749e-07
6.51751e-07
6.5175e-07
6.5175e-07
6.51751e-07
6.51749e-07
6.53786e-07
6.54607e-07
6.54513e-07
6.5346e-07
6.5175e-07
6.5175e-07
6.5175e-07
6.5175e-07
6.5175e-07
6.5175e-07
6.53794e-07
6.54489e-07
6.54474e-07
6.5343e-07
6.5175e-07
6.5175e-07
6.5175e-07
6.5175e-07
6.5175e-07
6.5175e-07
6.53773e-07
6.5386e-07
6.53515e-07
6.51749e-07
6.51751e-07
6.5175e-07
6.5175e-07
6.51751e-07
6.51749e-07
6.53798e-07
6.54642e-07
6.54394e-07
6.53311e-07
6.51749e-07
6.5175e-07
6.5175e-07
6.51749e-07
6.53569e-07
6.53803e-07
6.54591e-07
6.54428e-07
6.53733e-07