/*--------------------------------*- C++ -*----------------------------------*\
| =========                 |                                                 |
| \\      /  F ield         | OpenFOAM: The Open Source CFD Toolbox           |
|  \\    /   O peration     | Version:  2312                                  |
|   \\  /    A nd           | Website:  www.openfoam.com                      |
|    \\/     M anipulation  |                                                 |
\*---------------------------------------------------------------------------*/
FoamFile
{
    version     2.0;
    format      ascii;
    arch        "LSB;label=32;scalar=64";
    class       volScalarField;
    location    "850";
    object      epsilon;
}
// * * * * * * * * * * * * * * * * * * * * * * * * * * * * * * * * * * * * * //

dimensions      [0 2 -3 0 0 0 0];

internalField   nonuniform List<scalar> 
42840
(
1.31328e-07
2.40739e-07
2.4076e-07
3.83195e-07
1.29948e-07
2.53381e-07
2.53405e-07
4.12141e-07
1.29348e-07
2.68053e-07
2.68081e-07
4.43581e-07
1.29531e-07
2.84696e-07
2.8472e-07
4.77092e-07
1.30473e-07
3.03215e-07
3.03236e-07
5.12254e-07
1.32175e-07
3.23506e-07
3.23529e-07
5.4877e-07
1.34638e-07
3.45447e-07
3.45478e-07
5.86023e-07
1.37862e-07
3.68903e-07
3.68943e-07
6.23556e-07
1.41847e-07
3.93731e-07
3.93781e-07
6.6112e-07
1.466e-07
4.19769e-07
4.19833e-07
6.98409e-07
1.52125e-07
4.46857e-07
4.46938e-07
7.35074e-07
1.58427e-07
4.74832e-07
4.74923e-07
7.70897e-07
1.65511e-07
5.03517e-07
5.0362e-07
8.0576e-07
1.7338e-07
5.32739e-07
5.32845e-07
8.39449e-07
1.82033e-07
5.62325e-07
5.62432e-07
8.72053e-07
1.91469e-07
5.92096e-07
5.92205e-07
9.03453e-07
2.01676e-07
6.2189e-07
6.22001e-07
9.33674e-07
2.12643e-07
6.51549e-07
6.51661e-07
9.62672e-07
2.24347e-07
6.80924e-07
6.81035e-07
9.90486e-07
2.36762e-07
7.09881e-07
7.09991e-07
1.01709e-06
2.49853e-07
7.38297e-07
7.38408e-07
1.04259e-06
2.63581e-07
7.66067e-07
7.66181e-07
1.06697e-06
2.77896e-07
7.93096e-07
7.93215e-07
1.09031e-06
2.92743e-07
8.19309e-07
8.19431e-07
1.1126e-06
3.08058e-07
8.44633e-07
8.44763e-07
1.13384e-06
3.84046e-07
4.05262e-07
2.40818e-07
2.40842e-07
2.50113e-07
2.50143e-07
3.83898e-07
4.05531e-07
2.4077e-07
2.40853e-07
2.50062e-07
2.50156e-07
2.40803e-07
2.50036e-07
2.50103e-07
3.83806e-07
4.05142e-07
2.40794e-07
2.50053e-07
2.50095e-07
4.0588e-07
4.12508e-07
4.35953e-07
2.53472e-07
2.53498e-07
2.64293e-07
2.64324e-07
4.12618e-07
4.36347e-07
2.53419e-07
2.53514e-07
2.64239e-07
2.64347e-07
2.53459e-07
2.64204e-07
2.64285e-07
4.12645e-07
4.35806e-07
2.53449e-07
2.64227e-07
2.64275e-07
4.3674e-07
4.43985e-07
4.68822e-07
2.68156e-07
2.68182e-07
2.80461e-07
2.80489e-07
4.44137e-07
4.68904e-07
2.68098e-07
2.68205e-07
2.80398e-07
2.80517e-07
2.68143e-07
2.80361e-07
2.80452e-07
4.44444e-07
4.69124e-07
2.6813e-07
2.80384e-07
2.80435e-07
4.69841e-07
4.78033e-07
5.04326e-07
2.84807e-07
2.84833e-07
2.9853e-07
2.98556e-07
4.78042e-07
5.04276e-07
2.84742e-07
2.84858e-07
2.98457e-07
2.98588e-07
2.84794e-07
2.98421e-07
2.98521e-07
4.77712e-07
5.04072e-07
2.84774e-07
2.98441e-07
2.98497e-07
5.04835e-07
5.12875e-07
5.40125e-07
3.03334e-07
3.03358e-07
3.18398e-07
3.18424e-07
5.1284e-07
5.39997e-07
3.0326e-07
3.03387e-07
3.18316e-07
3.18459e-07
3.03325e-07
3.18279e-07
3.18394e-07
5.12931e-07
5.40431e-07
3.03294e-07
3.183e-07
3.1836e-07
5.40807e-07
5.49255e-07
5.77073e-07
3.23636e-07
3.2366e-07
3.39953e-07
3.39979e-07
5.49232e-07
5.77211e-07
3.23552e-07
3.23693e-07
3.39861e-07
3.40016e-07
3.2363e-07
3.39819e-07
3.3995e-07
5.49334e-07
5.77531e-07
3.23591e-07
3.39845e-07
3.39908e-07
5.77747e-07
5.86546e-07
6.14592e-07
3.45591e-07
3.45616e-07
3.63061e-07
3.63084e-07
5.86431e-07
6.14927e-07
3.45498e-07
3.4565e-07
3.62957e-07
3.63121e-07
3.45587e-07
3.62908e-07
3.6306e-07
5.86593e-07
6.1464e-07
3.45538e-07
3.62945e-07
3.63011e-07
6.15401e-07
6.24137e-07
6.52185e-07
3.69063e-07
3.69086e-07
3.87575e-07
3.87601e-07
6.24077e-07
6.52475e-07
3.68961e-07
3.69122e-07
3.87461e-07
3.87637e-07
3.69064e-07
3.87409e-07
3.87576e-07
6.2422e-07
6.52242e-07
3.69006e-07
3.87453e-07
3.87521e-07
6.53201e-07
6.61661e-07
6.89652e-07
3.93901e-07
3.93929e-07
4.13341e-07
4.13361e-07
6.61765e-07
6.8966e-07
3.93791e-07
3.93965e-07
4.13216e-07
4.13405e-07
3.9391e-07
4.13157e-07
4.13349e-07
6.61833e-07
6.89337e-07
3.93846e-07
4.13213e-07
4.13282e-07
6.9075e-07
6.98951e-07
7.26251e-07
4.19953e-07
4.19978e-07
4.40193e-07
4.40216e-07
6.98938e-07
7.25887e-07
4.19835e-07
4.20018e-07
4.40059e-07
4.40262e-07
4.19971e-07
4.39995e-07
4.40211e-07
6.99329e-07
7.25812e-07
4.19897e-07
4.40068e-07
4.40136e-07
7.27526e-07
7.35582e-07
7.61837e-07
4.47056e-07
4.47077e-07
4.67967e-07
4.67994e-07
7.36081e-07
7.61639e-07
4.46927e-07
4.47121e-07
4.67826e-07
4.68045e-07
4.47077e-07
4.67765e-07
4.67994e-07
7.36518e-07
7.61861e-07
4.46996e-07
4.67852e-07
4.6791e-07
7.63481e-07
7.71782e-07
7.96551e-07
4.75034e-07
4.75056e-07
4.96497e-07
4.96523e-07
7.72438e-07
7.96796e-07
4.74899e-07
4.75108e-07
4.96343e-07
4.96578e-07
4.75063e-07
4.96288e-07
4.9653e-07
7.72606e-07
7.96904e-07
4.74971e-07
4.96387e-07
4.96438e-07
7.98514e-07
8.07147e-07
8.30619e-07
5.03724e-07
5.03746e-07
5.25608e-07
5.25627e-07
8.07433e-07
8.3081e-07
5.03575e-07
5.03801e-07
5.25437e-07
5.25688e-07
5.03759e-07
5.25393e-07
5.25632e-07
8.07527e-07
8.30862e-07
5.0366e-07
5.25499e-07
5.25535e-07
8.32392e-07
8.4111e-07
8.63513e-07
5.3295e-07
5.32966e-07
5.5512e-07
5.55135e-07
8.41259e-07
8.63614e-07
5.32784e-07
5.33021e-07
5.54934e-07
5.55195e-07
5.3298e-07
5.54905e-07
5.55144e-07
8.41287e-07
8.63652e-07
5.32874e-07
5.55013e-07
5.55037e-07
8.65164e-07
8.73775e-07
8.95146e-07
5.62535e-07
5.62548e-07
5.84861e-07
5.8487e-07
8.73882e-07
8.95224e-07
5.62355e-07
5.62597e-07
5.84664e-07
5.84931e-07
5.62563e-07
5.84644e-07
5.84884e-07
8.73896e-07
8.95246e-07
5.62448e-07
5.84756e-07
5.84768e-07
8.96713e-07
9.05196e-07
9.25539e-07
5.92308e-07
5.92312e-07
6.14661e-07
6.14665e-07
9.0527e-07
9.25599e-07
5.92117e-07
5.92363e-07
6.14459e-07
6.14727e-07
5.92335e-07
6.14446e-07
6.14689e-07
9.05288e-07
9.25676e-07
5.9221e-07
6.1456e-07
6.14559e-07
9.27108e-07
9.35387e-07
9.54778e-07
6.221e-07
6.22097e-07
6.44363e-07
6.44361e-07
9.35438e-07
9.54818e-07
6.21902e-07
6.22151e-07
6.44157e-07
6.44425e-07
6.22131e-07
6.44151e-07
6.44394e-07
9.35491e-07
9.54895e-07
6.21993e-07
6.44269e-07
6.44253e-07
9.56281e-07
9.6439e-07
9.82801e-07
6.51755e-07
6.51744e-07
6.73816e-07
6.73804e-07
9.64432e-07
9.82852e-07
6.51553e-07
6.51804e-07
6.73605e-07
6.73872e-07
6.51788e-07
6.7361e-07
6.73848e-07
9.64496e-07
9.82906e-07
6.51639e-07
6.73726e-07
6.73695e-07
9.84271e-07
9.92151e-07
1.00963e-06
6.81129e-07
6.81106e-07
7.02876e-07
7.02862e-07
9.92187e-07
1.00966e-06
6.80918e-07
6.81169e-07
7.02666e-07
7.02933e-07
6.81159e-07
7.02683e-07
7.02917e-07
9.92265e-07
1.00974e-06
6.80997e-07
7.02797e-07
7.02753e-07
1.01108e-06
1.01868e-06
1.03533e-06
7.10069e-07
7.10046e-07
7.31423e-07
7.3141e-07
1.01875e-06
1.03536e-06
7.09861e-07
7.10114e-07
7.3122e-07
7.31484e-07
7.10109e-07
7.31244e-07
7.31482e-07
1.01883e-06
1.03542e-06
7.0994e-07
7.31359e-07
7.31307e-07
1.03677e-06
1.04411e-06
1.05996e-06
7.3847e-07
7.38448e-07
7.59357e-07
7.59337e-07
1.04411e-06
1.05992e-06
7.3827e-07
7.38522e-07
7.59158e-07
7.59415e-07
7.38531e-07
7.59185e-07
7.59425e-07
1.04424e-06
1.06005e-06
7.38349e-07
7.59304e-07
7.59239e-07
1.06133e-06
1.06846e-06
1.08346e-06
7.66236e-07
7.66206e-07
7.86572e-07
7.8655e-07
1.06849e-06
1.08348e-06
7.66036e-07
7.66283e-07
7.86377e-07
7.86633e-07
7.66304e-07
7.8641e-07
7.8665e-07
1.06857e-06
1.08357e-06
7.66109e-07
7.8653e-07
7.86452e-07
1.08484e-06
1.09171e-06
1.10593e-06
7.93257e-07
7.93229e-07
8.12994e-07
8.12968e-07
1.09175e-06
1.10596e-06
7.93063e-07
7.9331e-07
8.12799e-07
8.13048e-07
7.93338e-07
8.12834e-07
8.13076e-07
1.09183e-06
1.10605e-06
7.93132e-07
8.12958e-07
8.12869e-07
1.10732e-06
1.11391e-06
1.12812e-06
8.19466e-07
8.19437e-07
8.38546e-07
8.38513e-07
1.11398e-06
1.12804e-06
8.19271e-07
8.19518e-07
8.38351e-07
8.38596e-07
8.19553e-07
8.38388e-07
8.3863e-07
1.11402e-06
1.12817e-06
8.1934e-07
8.38515e-07
8.38419e-07
1.12876e-06
1.13431e-06
8.44795e-07
8.44757e-07
1.13444e-06
8.446e-07
8.44842e-07
8.44883e-07
1.13445e-06
8.44667e-07
3.75889e-06
8.92048e-06
8.92535e-06
3.7349e-06
1.84402e-05
1.8433e-05
3.75917e-06
8.92173e-06
8.92661e-06
3.73493e-06
1.31329e-07
1.31334e-07
1.31335e-07
1.30228e-07
1.30231e-07
1.30236e-07
1.30237e-07
1.24192e-06
2.86784e-06
1.59571e-07
2.43716e-07
2.88997e-06
1.60124e-07
1.21406e-06
1.84409e-05
1.84336e-05
1.24177e-06
1.59601e-07
2.86932e-06
2.43735e-07
1.60131e-07
2.88877e-06
1.21426e-06
5.17132e-06
5.17158e-06
3.91679e-07
5.17836e-06
5.18185e-06
3.81868e-06
8.93038e-06
3.80004e-06
8.93471e-06
1.84136e-05
1.84072e-05
3.81884e-06
8.93167e-06
3.80013e-06
8.93601e-06
1.29949e-07
1.29955e-07
1.29956e-07
1.2944e-07
1.29442e-07
1.29449e-07
1.2945e-07
1.32269e-06
2.9297e-06
1.6222e-07
2.56868e-07
1.29586e-06
2.94923e-06
1.63111e-07
1.84141e-05
1.84076e-05
1.32241e-06
1.62254e-07
2.93109e-06
2.56892e-07
1.29642e-06
1.6312e-07
2.94804e-06
5.19952e-06
5.20001e-06
4.21405e-07
5.20587e-06
5.20807e-06
3.86387e-06
8.93899e-06
3.85089e-06
8.94285e-06
1.83894e-05
1.83837e-05
3.86461e-06
8.94029e-06
3.85039e-06
8.94416e-06
1.29349e-07
1.29356e-07
1.29357e-07
1.29417e-07
1.29418e-07
1.29426e-07
1.29426e-07
1.39821e-06
2.98424e-06
1.66217e-07
2.72039e-07
1.3742e-06
3.00133e-06
1.67452e-07
1.83898e-05
1.8384e-05
1.3985e-06
1.66253e-07
2.98551e-06
2.72065e-07
1.37404e-06
1.67459e-07
3.0002e-06
5.2227e-06
5.22391e-06
4.53081e-07
5.22855e-06
5.23041e-06
3.89869e-06
8.94651e-06
3.8891e-06
8.9499e-06
1.83674e-05
1.83625e-05
3.89938e-06
8.94784e-06
3.88856e-06
8.95121e-06
1.29532e-07
1.2954e-07
1.29542e-07
1.30166e-07
1.30167e-07
1.30175e-07
1.30178e-07
1.46873e-06
3.03226e-06
1.71578e-07
2.8916e-07
1.44662e-06
3.04731e-06
1.73156e-07
1.83678e-05
1.83628e-05
1.46933e-06
1.71612e-07
3.03341e-06
2.89181e-07
1.44645e-06
1.73158e-07
3.04616e-06
5.24268e-06
5.24407e-06
4.87139e-07
5.24716e-06
5.24945e-06
3.92512e-06
8.9531e-06
3.91804e-06
8.95609e-06
1.83476e-05
1.83434e-05
3.92578e-06
8.95446e-06
3.91751e-06
8.95739e-06
1.30474e-07
1.30482e-07
1.30485e-07
1.31678e-07
1.3168e-07
1.31688e-07
1.31692e-07
1.53303e-06
3.07461e-06
1.78308e-07
3.08134e-07
1.51312e-06
3.08791e-06
1.8023e-07
1.8348e-05
1.83438e-05
1.53355e-06
1.78339e-07
3.07567e-06
3.08152e-07
1.51276e-06
1.80227e-07
3.08678e-06
5.25978e-06
5.26097e-06
5.22685e-07
5.26366e-06
5.26558e-06
3.94531e-06
8.959e-06
3.94009e-06
8.96174e-06
1.83298e-05
1.83264e-05
3.94595e-06
8.96038e-06
3.93959e-06
8.963e-06
1.32177e-07
1.32185e-07
1.32189e-07
1.33952e-07
1.33953e-07
1.33962e-07
1.33966e-07
1.59136e-06
3.11206e-06
1.86405e-07
3.28849e-07
1.57339e-06
3.12384e-06
1.8867e-07
1.83303e-05
1.83269e-05
1.59167e-06
1.86439e-07
3.11308e-06
3.2887e-07
1.57329e-06
1.88668e-07
3.12279e-06
5.27423e-06
5.27565e-06
5.59254e-07
5.27774e-06
5.27956e-06
3.96129e-06
8.96453e-06
3.95711e-06
8.96713e-06
1.83142e-05
1.83116e-05
3.96159e-06
8.96591e-06
3.95663e-06
8.96835e-06
1.3464e-07
1.34649e-07
1.34654e-07
1.36985e-07
1.36986e-07
1.36996e-07
1.37001e-07
1.64395e-06
3.14536e-06
1.9586e-07
3.51181e-07
1.62737e-06
3.15584e-06
1.98467e-07
1.83148e-05
1.83122e-05
1.64398e-06
1.959e-07
3.14636e-06
3.51209e-07
1.62741e-06
1.9847e-07
3.15486e-06
5.28691e-06
5.28847e-06
5.9658e-07
5.29005e-06
5.2918e-06
3.97338e-06
8.9699e-06
3.97018e-06
8.97248e-06
1.83009e-05
1.82991e-05
3.97366e-06
8.97128e-06
3.97015e-06
8.97368e-06
1.37863e-07
1.37874e-07
1.37879e-07
1.40781e-07
1.40781e-07
1.40793e-07
1.40799e-07
1.69076e-06
3.17516e-06
2.06654e-07
3.74994e-07
1.67582e-06
3.18455e-06
2.09595e-07
1.83016e-05
1.82997e-05
1.69079e-06
2.06704e-07
3.17615e-06
3.75032e-07
1.67593e-06
2.09606e-07
3.18366e-06
5.29823e-06
5.29986e-06
6.34361e-07
5.30106e-06
5.30279e-06
3.98343e-06
8.97532e-06
3.98106e-06
8.978e-06
1.82899e-05
1.82889e-05
3.98371e-06
8.97674e-06
3.98081e-06
8.97915e-06
1.41848e-07
1.41861e-07
1.41868e-07
1.45342e-07
1.45342e-07
1.45356e-07
1.45363e-07
1.7323e-06
3.20205e-06
2.18761e-07
4.00139e-07
1.71955e-06
3.21055e-06
2.2203e-07
1.82906e-05
1.82896e-05
1.73258e-06
2.18823e-07
3.20303e-06
4.00185e-07
1.7194e-06
2.22049e-07
3.20973e-06
5.30858e-06
5.31024e-06
6.72085e-07
5.31117e-06
5.31291e-06
3.99201e-06
8.98095e-06
3.98987e-06
8.98388e-06
1.82813e-05
1.82811e-05
3.99205e-06
8.98247e-06
3.98982e-06
8.98495e-06
1.46601e-07
1.46616e-07
1.46625e-07
1.50674e-07
1.50673e-07
1.5069e-07
1.50699e-07
1.76984e-06
3.22681e-06
2.3215e-07
4.26451e-07
1.75848e-06
3.23383e-06
2.35733e-07
1.8282e-05
1.82818e-05
1.77012e-06
2.32225e-07
3.22751e-06
4.26515e-07
1.75832e-06
2.35765e-07
3.23354e-06
5.31824e-06
5.31992e-06
7.09212e-07
5.32067e-06
5.32242e-06
3.9991e-06
8.98704e-06
3.99739e-06
8.99022e-06
1.8275e-05
1.82757e-05
3.9993e-06
8.98861e-06
3.99735e-06
8.99128e-06
1.52126e-07
1.52144e-07
1.52154e-07
1.56781e-07
1.5678e-07
1.56801e-07
1.5681e-07
1.80369e-06
3.24918e-06
2.46777e-07
4.53774e-07
1.79348e-06
3.2557e-06
2.50663e-07
1.82758e-05
1.82764e-05
1.80397e-06
2.46865e-07
3.25001e-06
4.53855e-07
1.79341e-06
2.50707e-07
3.25549e-06
5.32745e-06
5.32914e-06
7.45578e-07
5.3298e-06
5.33155e-06
4.00563e-06
8.99373e-06
4.00405e-06
8.99714e-06
1.82711e-05
1.82727e-05
4.00574e-06
8.99533e-06
4.00401e-06
8.99823e-06
1.58427e-07
1.58449e-07
1.5846e-07
1.6367e-07
1.63668e-07
1.63693e-07
1.63703e-07
1.83447e-06
3.26999e-06
2.62592e-07
4.81942e-07
1.82513e-06
3.27634e-06
2.66768e-07
1.82719e-05
1.82735e-05
1.83476e-06
2.62693e-07
3.27053e-06
4.82032e-07
1.82507e-06
2.66823e-07
3.27592e-06
5.3364e-06
5.33809e-06
7.81069e-07
5.33871e-06
5.34047e-06
4.01153e-06
9.00105e-06
4.01008e-06
9.00475e-06
1.82697e-05
1.82721e-05
4.01163e-06
9.00268e-06
4.01007e-06
9.00587e-06
1.65511e-07
1.65537e-07
1.65549e-07
1.71343e-07
1.7134e-07
1.71371e-07
1.7138e-07
1.8627e-06
3.28963e-06
2.79533e-07
5.10778e-07
1.85406e-06
3.29532e-06
2.83984e-07
1.82704e-05
1.82728e-05
1.86293e-06
2.79646e-07
3.29016e-06
5.10878e-07
1.85395e-06
2.84048e-07
3.29517e-06
5.34522e-06
5.34692e-06
8.15516e-07
5.34754e-06
5.3493e-06
4.01713e-06
9.00913e-06
4.01575e-06
9.01312e-06
1.82705e-05
1.82738e-05
4.01724e-06
9.01052e-06
4.01575e-06
9.01447e-06
1.7338e-07
1.7341e-07
1.73422e-07
1.798e-07
1.79798e-07
1.79834e-07
1.79842e-07
1.88871e-06
3.30809e-06
2.97535e-07
5.40107e-07
1.88069e-06
3.31361e-06
3.02239e-07
1.82713e-05
1.82745e-05
1.88896e-06
2.97659e-07
3.30846e-06
5.40213e-07
1.88064e-06
3.02315e-07
3.31328e-06
5.35401e-06
5.35571e-06
8.48866e-07
5.35636e-06
5.35812e-06
4.02265e-06
9.01797e-06
4.02125e-06
9.02229e-06
1.82737e-05
1.82778e-05
4.02276e-06
9.01933e-06
4.02129e-06
9.02365e-06
1.82034e-07
1.82067e-07
1.8208e-07
1.89039e-07
1.89039e-07
1.89078e-07
1.89087e-07
1.91293e-06
3.32556e-06
3.16527e-07
5.69753e-07
1.90551e-06
3.33087e-06
3.21467e-07
1.82744e-05
1.82785e-05
1.91317e-06
3.16659e-07
3.32595e-06
5.69863e-07
1.90551e-06
3.21548e-07
3.33029e-06
5.36285e-06
5.36454e-06
8.81052e-07
5.36523e-06
5.36699e-06
4.02824e-06
9.02762e-06
4.0268e-06
9.03226e-06
1.8279e-05
1.82839e-05
4.02838e-06
9.02897e-06
4.02682e-06
9.03362e-06
1.9147e-07
1.91506e-07
1.91519e-07
1.99054e-07
1.99055e-07
1.99097e-07
1.99106e-07
1.93573e-06
3.34225e-06
3.36418e-07
5.99545e-07
1.9287e-06
3.34712e-06
3.41573e-07
1.82798e-05
1.82846e-05
1.93591e-06
3.3656e-07
3.34278e-06
5.99656e-07
1.92867e-06
3.41662e-07
3.34718e-06
5.37176e-06
5.37342e-06
9.12059e-07
5.3742e-06
5.37594e-06
4.03395e-06
9.03808e-06
4.03247e-06
9.04304e-06
1.82865e-05
1.82921e-05
4.03415e-06
9.03943e-06
4.03249e-06
9.0444e-06
2.01677e-07
2.01717e-07
2.01731e-07
2.09831e-07
2.09833e-07
2.09878e-07
2.09889e-07
1.9573e-06
3.35834e-06
3.57134e-07
6.29317e-07
1.95061e-06
3.36291e-06
3.6248e-07
1.82872e-05
1.82928e-05
1.95744e-06
3.5728e-07
3.35878e-06
6.29432e-07
1.95064e-06
3.62575e-07
3.3625e-06
5.38076e-06
5.3824e-06
9.41842e-07
5.38326e-06
5.38498e-06
4.04001e-06
9.04933e-06
4.03844e-06
9.0546e-06
1.8296e-05
1.83023e-05
4.04021e-06
9.05068e-06
4.03836e-06
9.05596e-06
2.12643e-07
2.12687e-07
2.12701e-07
2.21352e-07
2.21354e-07
2.21402e-07
2.21415e-07
1.97785e-06
3.37344e-06
3.78582e-07
6.58917e-07
1.97144e-06
3.37815e-06
3.84098e-07
1.82967e-05
1.83029e-05
1.97795e-06
3.78732e-07
3.37377e-06
6.59034e-07
1.97144e-06
3.84194e-07
3.37776e-06
5.38984e-06
5.39146e-06
9.7041e-07
5.39239e-06
5.39411e-06
4.04627e-06
9.06139e-06
4.04466e-06
9.067e-06
1.83072e-05
1.83141e-05
4.04656e-06
9.06269e-06
4.04465e-06
9.06828e-06
2.24347e-07
2.24395e-07
2.2441e-07
2.33592e-07
2.33595e-07
2.33645e-07
2.33659e-07
1.99743e-06
3.3882e-06
4.00669e-07
6.882e-07
1.99134e-06
3.39264e-06
4.06327e-07
1.8308e-05
1.83149e-05
1.99755e-06
4.00819e-07
3.38844e-06
6.88315e-07
1.99134e-06
4.06423e-07
3.39224e-06
5.39899e-06
5.4006e-06
9.97819e-07
5.40159e-06
5.40334e-06
4.05298e-06
9.07417e-06
4.05117e-06
9.07984e-06
1.83202e-05
1.83278e-05
4.05326e-06
9.07544e-06
4.05116e-06
9.08131e-06
2.36763e-07
2.36815e-07
2.36829e-07
2.46518e-07
2.46522e-07
2.46576e-07
2.46591e-07
2.01625e-06
3.40233e-06
4.23291e-07
7.17032e-07
2.01041e-06
3.40664e-06
4.29066e-07
1.83211e-05
1.83287e-05
2.01638e-06
4.23439e-07
3.40262e-06
7.17148e-07
2.01042e-06
4.2916e-07
3.40634e-06
5.40822e-06
5.40982e-06
1.02404e-06
5.41086e-06
5.41263e-06
4.05992e-06
9.08788e-06
4.05809e-06
9.09351e-06
1.83349e-05
1.8343e-05
4.06022e-06
9.0889e-06
4.05813e-06
9.09503e-06
2.49855e-07
2.49911e-07
2.49927e-07
2.60091e-07
2.60096e-07
2.60154e-07
2.6017e-07
2.03434e-06
3.416e-06
4.46344e-07
7.45296e-07
2.02872e-06
3.42012e-06
4.52206e-07
1.83359e-05
1.8344e-05
2.03445e-06
4.4649e-07
3.41628e-06
7.45412e-07
2.02874e-06
4.52299e-07
3.41983e-06
5.41753e-06
5.41918e-06
1.04915e-06
5.4202e-06
5.42195e-06
4.06719e-06
9.10195e-06
4.06529e-06
9.10782e-06
1.83511e-05
1.83597e-05
4.06744e-06
9.1032e-06
4.06522e-06
9.10908e-06
2.63584e-07
2.63644e-07
2.63661e-07
2.74264e-07
2.74271e-07
2.74333e-07
2.7435e-07
2.05174e-06
3.42902e-06
4.69715e-07
7.72889e-07
2.04629e-06
3.43312e-06
4.75641e-07
1.83523e-05
1.83609e-05
2.05182e-06
4.69865e-07
3.42946e-06
7.73009e-07
2.04635e-06
4.75737e-07
3.43286e-06
5.42694e-06
5.42843e-06
1.07318e-06
5.42942e-06
5.43132e-06
4.07474e-06
9.11656e-06
4.07264e-06
9.12265e-06
1.83686e-05
1.83778e-05
4.07491e-06
9.11786e-06
4.07245e-06
9.12393e-06
2.77901e-07
2.77965e-07
2.77982e-07
2.88984e-07
2.88992e-07
2.89057e-07
2.89076e-07
2.06839e-06
3.44188e-06
4.93298e-07
7.99723e-07
2.0632e-06
3.44563e-06
4.99259e-07
1.837e-05
1.83792e-05
2.06849e-06
4.93452e-07
3.44216e-06
7.99845e-07
2.06325e-06
4.99361e-07
3.44544e-06
5.43639e-06
5.43781e-06
1.09618e-06
5.43896e-06
5.44068e-06
4.08219e-06
9.13167e-06
4.08029e-06
9.13796e-06
1.83876e-05
1.83973e-05
4.0826e-06
9.13299e-06
4.08008e-06
9.13926e-06
2.92749e-07
2.92817e-07
2.92836e-07
3.04188e-07
3.04196e-07
3.04267e-07
3.04286e-07
2.08439e-06
3.45425e-06
5.1699e-07
8.25724e-07
2.07945e-06
3.45768e-06
5.22961e-07
1.83891e-05
1.83987e-05
2.0845e-06
5.17146e-07
3.45459e-06
8.25848e-07
2.07948e-06
5.23067e-07
3.45744e-06
5.44578e-06
5.44713e-06
1.11811e-06
5.44822e-06
5.45003e-06
4.09014e-06
9.14721e-06
4.0878e-06
9.15379e-06
1.84078e-05
1.8418e-05
4.09025e-06
9.14854e-06
4.08766e-06
9.15497e-06
3.08063e-07
3.08137e-07
3.08155e-07
2.09966e-06
3.46588e-06
5.40676e-07
8.50821e-07
2.09497e-06
3.4694e-06
5.46622e-07
1.84093e-05
1.84194e-05
2.09976e-06
5.40834e-07
3.46617e-06
8.50951e-07
2.09501e-06
5.46736e-07
3.46917e-06
5.45512e-06
5.45656e-06
1.13879e-06
5.45749e-06
5.45934e-06
1.84377e-05
1.84304e-05
1.84404e-05
1.84332e-05
5.17118e-06
5.17306e-06
3.90698e-07
5.17949e-06
5.18058e-06
1.84172e-05
1.8424e-05
1.842e-05
1.84268e-05
3.97785e-07
5.19363e-06
5.19532e-06
5.18541e-06
5.18779e-06
3.75786e-06
8.92078e-06
8.92565e-06
3.73552e-06
1.24196e-06
2.86918e-06
1.59599e-07
2.43789e-07
2.88866e-06
1.60134e-07
1.21412e-06
1.24188e-06
2.86971e-06
1.59597e-07
2.43819e-07
2.88914e-06
1.60133e-07
1.21395e-06
3.76953e-06
8.93022e-06
8.92562e-06
3.79079e-06
3.77024e-06
8.9305e-06
8.92593e-06
3.78984e-06
1.25548e-06
2.4689e-07
2.9192e-06
1.61463e-07
2.90107e-06
1.60761e-07
1.28259e-06
1.25545e-06
2.46915e-07
2.9197e-06
1.6146e-07
2.90159e-06
1.60759e-07
1.28249e-06
5.17283e-06
5.16982e-06
3.90512e-07
5.18023e-06
5.17977e-06
1.84383e-05
1.84311e-05
1.84198e-05
1.84266e-05
3.98078e-07
5.19449e-06
5.19371e-06
5.18743e-06
5.18502e-06
1.84179e-05
1.84246e-05
1.24214e-06
2.86971e-06
1.59598e-07
2.43739e-07
2.88921e-06
1.60135e-07
1.21418e-06
3.7591e-06
8.92137e-06
8.92624e-06
3.735e-06
1.24186e-06
1.59606e-07
2.86857e-06
2.43828e-07
1.60141e-07
2.89066e-06
1.21433e-06
3.76961e-06
8.9315e-06
8.92689e-06
3.79097e-06
1.25547e-06
2.4684e-07
2.91974e-06
1.61464e-07
2.90161e-06
1.60762e-07
1.28283e-06
3.76956e-06
8.93105e-06
8.92649e-06
3.79086e-06
1.2556e-06
2.46929e-07
1.61472e-07
2.92108e-06
1.60769e-07
2.90054e-06
1.28287e-06
3.75909e-06
8.92104e-06
8.92594e-06
3.7351e-06
1.24167e-06
1.59588e-07
2.86939e-06
2.43784e-07
1.60125e-07
2.88882e-06
1.21412e-06
3.75795e-06
8.92086e-06
8.92575e-06
3.73569e-06
1.25542e-06
2.46806e-07
2.92042e-06
1.61449e-07
2.89987e-06
1.60729e-07
1.28298e-06
3.7697e-06
8.93077e-06
8.92619e-06
3.79085e-06
1.25563e-06
2.46872e-07
1.61453e-07
2.91935e-06
1.6075e-07
2.90129e-06
1.28252e-06
3.77032e-06
8.93059e-06
8.92601e-06
3.78992e-06
5.17156e-06
5.1702e-06
3.90697e-07
5.1817e-06
5.18006e-06
1.84384e-05
1.84312e-05
1.84204e-05
1.84272e-05
3.9783e-07
5.19564e-06
5.19396e-06
5.18647e-06
5.1848e-06
1.84179e-05
1.84247e-05
1.24187e-06
1.59608e-07
2.86858e-06
2.43776e-07
1.60138e-07
2.89069e-06
1.21424e-06
3.75921e-06
8.92119e-06
8.92607e-06
3.73522e-06
3.75926e-06
8.92158e-06
8.92645e-06
3.73522e-06
1.25581e-06
2.46827e-07
1.61457e-07
2.91923e-06
1.60763e-07
2.90118e-06
1.28253e-06
1.25566e-06
2.46864e-07
1.61467e-07
2.92111e-06
1.6077e-07
2.90055e-06
1.28282e-06
3.76985e-06
8.93089e-06
8.92632e-06
3.79095e-06
3.76984e-06
8.93128e-06
8.92672e-06
3.79099e-06
1.8439e-05
1.84319e-05
1.84413e-05
1.84341e-05
3.97089e-07
5.19259e-06
5.19551e-06
5.18573e-06
5.18639e-06
1.84186e-05
1.84254e-05
1.84208e-05
1.84277e-05
1.8411e-05
1.84045e-05
1.84138e-05
1.84074e-05
5.19895e-06
5.20083e-06
4.20217e-07
5.20545e-06
5.20753e-06
1.83925e-05
1.83985e-05
1.83953e-05
1.84014e-05
4.27973e-07
5.21819e-06
5.21961e-06
5.21175e-06
5.21336e-06
3.81785e-06
8.93072e-06
3.80073e-06
8.93506e-06
1.32231e-06
2.93094e-06
1.62255e-07
2.56952e-07
1.29615e-06
2.94785e-06
1.63126e-07
1.32231e-06
2.93144e-06
1.62254e-07
2.56983e-07
1.29615e-06
2.94837e-06
1.63122e-07
3.82693e-06
8.93894e-06
8.93487e-06
3.84221e-06
3.82747e-06
8.93927e-06
8.93522e-06
3.84237e-06
1.33572e-06
2.60564e-07
2.97483e-06
1.65128e-07
2.95904e-06
1.64087e-07
1.36097e-06
1.33562e-06
2.60589e-07
2.97536e-06
1.65125e-07
2.95953e-06
1.64085e-07
1.36099e-06
5.20087e-06
5.19853e-06
4.20222e-07
5.20706e-06
5.20642e-06
1.84116e-05
1.84052e-05
1.83952e-05
1.84012e-05
4.27918e-07
5.21971e-06
5.21821e-06
5.21315e-06
5.21082e-06
1.8393e-05
1.83991e-05
1.32274e-06
2.93146e-06
1.62258e-07
2.569e-07
1.29608e-06
2.94837e-06
1.63128e-07
3.81878e-06
8.93125e-06
3.80015e-06
8.93558e-06
1.3225e-06
1.62266e-07
2.93051e-06
2.57002e-07
1.29604e-06
1.63136e-07
2.94976e-06
3.82699e-06
8.94023e-06
8.93618e-06
3.84328e-06
1.33554e-06
2.60511e-07
2.97537e-06
1.65133e-07
2.95956e-06
1.64091e-07
1.36132e-06
3.82697e-06
8.93977e-06
8.93573e-06
3.84323e-06
1.33561e-06
2.60612e-07
1.6514e-07
2.97667e-06
1.641e-07
2.95857e-06
1.36131e-06
3.81877e-06
8.93097e-06
3.80031e-06
8.93534e-06
1.32233e-06
1.62245e-07
2.93114e-06
2.5695e-07
1.2962e-06
1.63115e-07
2.94804e-06
3.81792e-06
8.9308e-06
3.80084e-06
8.93516e-06
1.33546e-06
2.60467e-07
2.976e-06
1.65111e-07
2.95791e-06
1.64051e-07
1.36052e-06
3.82718e-06
8.93949e-06
8.93547e-06
3.84226e-06
1.33568e-06
2.60549e-07
1.65118e-07
2.97501e-06
1.64076e-07
2.95922e-06
1.36121e-06
3.82758e-06
8.93935e-06
8.93528e-06
3.84242e-06
5.20017e-06
5.1991e-06
4.20231e-07
5.20821e-06
5.20643e-06
1.84117e-05
1.84052e-05
1.83955e-05
1.84017e-05
4.2818e-07
5.21973e-06
5.2183e-06
5.21254e-06
5.21073e-06
1.83931e-05
1.83992e-05
1.32244e-06
1.62266e-07
2.93052e-06
2.5694e-07
1.29616e-06
1.6313e-07
2.94981e-06
3.81886e-06
8.9311e-06
3.80044e-06
8.93544e-06
3.81888e-06
8.93149e-06
3.80044e-06
8.93583e-06
1.3359e-06
2.60495e-07
1.65119e-07
2.97485e-06
1.64086e-07
2.95915e-06
1.36122e-06
1.3358e-06
2.60539e-07
1.65133e-07
2.97671e-06
1.64099e-07
2.95857e-06
1.36117e-06
3.82722e-06
8.93962e-06
8.93558e-06
3.84334e-06
3.82723e-06
8.94004e-06
8.93599e-06
3.84335e-06
1.84124e-05
1.84059e-05
1.84146e-05
1.84081e-05
4.27544e-07
5.21786e-06
5.22001e-06
5.21146e-06
5.2122e-06
1.83939e-05
1.83999e-05
1.8396e-05
1.84021e-05
1.83867e-05
1.83809e-05
1.83895e-05
1.83838e-05
5.22271e-06
5.22458e-06
4.52587e-07
5.22817e-06
5.23029e-06
1.837e-05
1.83754e-05
1.83729e-05
1.83783e-05
4.60566e-07
5.23831e-06
5.2404e-06
5.2333e-06
5.23495e-06
3.86377e-06
8.93937e-06
3.85091e-06
8.94324e-06
1.39835e-06
2.98537e-06
1.66256e-07
2.72135e-07
1.37402e-06
3.00003e-06
1.67467e-07
1.3983e-06
2.98585e-06
1.66253e-07
2.72164e-07
1.37393e-06
3.00057e-06
1.67462e-07
3.87137e-06
8.94649e-06
8.94292e-06
3.88231e-06
3.8713e-06
8.94683e-06
8.94328e-06
3.88237e-06
1.4109e-06
2.76242e-07
3.02381e-06
1.7015e-07
3.01008e-06
1.68767e-07
1.43456e-06
1.4109e-06
2.76266e-07
3.02432e-06
1.70144e-07
3.01056e-06
1.68764e-07
1.43434e-06
5.22421e-06
5.22256e-06
4.52223e-07
5.23003e-06
5.22885e-06
1.83872e-05
1.83816e-05
1.83728e-05
1.83781e-05
4.60567e-07
5.23974e-06
5.23872e-06
5.23457e-06
5.23299e-06
1.83706e-05
1.83758e-05
1.39877e-06
2.98587e-06
1.66262e-07
2.72075e-07
1.37383e-06
3.00056e-06
1.67472e-07
3.86454e-06
8.93986e-06
3.8504e-06
8.94373e-06
1.39868e-06
1.6627e-07
2.98494e-06
2.72191e-07
1.37384e-06
1.6748e-07
3.00189e-06
3.87086e-06
8.94778e-06
8.94423e-06
3.88317e-06
1.41075e-06
2.76182e-07
3.02433e-06
1.70156e-07
3.01058e-06
1.68774e-07
1.43474e-06
3.87083e-06
8.94721e-06
8.94377e-06
3.88314e-06
1.41075e-06
2.76293e-07
1.70164e-07
3.02559e-06
1.68782e-07
3.00963e-06
1.43471e-06
3.86388e-06
8.93965e-06
3.85113e-06
8.94327e-06
1.39847e-06
1.66246e-07
2.98557e-06
2.7213e-07
1.37385e-06
1.67457e-07
3.00019e-06
3.86381e-06
8.93945e-06
3.851e-06
8.94332e-06
1.41116e-06
2.76134e-07
3.02495e-06
1.70133e-07
3.00906e-06
1.68729e-07
1.43421e-06
3.87162e-06
8.94688e-06
8.94346e-06
3.88245e-06
1.41085e-06
2.76227e-07
1.7014e-07
3.02399e-06
1.68757e-07
3.01028e-06
1.43457e-06
3.87139e-06
8.94695e-06
8.94339e-06
3.88241e-06
5.22369e-06
5.22285e-06
4.52695e-07
5.23048e-06
5.22899e-06
1.83873e-05
1.83816e-05
1.83731e-05
1.83785e-05
4.60737e-07
5.24028e-06
5.23886e-06
5.23437e-06
5.2328e-06
1.83707e-05
1.8376e-05
1.39837e-06
1.66268e-07
2.98494e-06
2.72117e-07
1.3741e-06
1.67472e-07
3.00191e-06
3.86466e-06
8.93972e-06
3.85061e-06
8.94358e-06
3.86467e-06
8.94013e-06
3.85063e-06
8.94399e-06
1.41103e-06
2.76161e-07
1.70137e-07
3.02381e-06
1.68765e-07
3.01017e-06
1.43465e-06
1.41107e-06
2.76211e-07
1.70154e-07
3.0256e-06
1.6878e-07
3.00962e-06
1.43449e-06
3.87101e-06
8.94716e-06
8.94363e-06
3.88326e-06
3.87103e-06
8.9476e-06
8.94405e-06
3.88326e-06
1.83881e-05
1.83824e-05
1.83902e-05
1.83845e-05
4.59923e-07
5.23861e-06
5.24032e-06
5.23313e-06
5.23405e-06
1.83716e-05
1.83769e-05
1.83735e-05
1.83789e-05
1.83646e-05
1.83597e-05
1.83675e-05
1.83626e-05
5.24271e-06
5.24448e-06
4.86031e-07
5.2474e-06
5.24908e-06
1.83499e-05
1.83545e-05
1.83528e-05
1.83574e-05
4.9547e-07
5.25593e-06
5.25796e-06
5.25151e-06
5.25343e-06
3.89861e-06
8.94694e-06
3.8891e-06
8.9503e-06
1.4691e-06
3.03326e-06
1.71618e-07
2.89264e-07
1.4463e-06
3.046e-06
1.73171e-07
1.46884e-06
3.03377e-06
1.71615e-07
2.89294e-07
1.44641e-06
3.04653e-06
1.73164e-07
3.90461e-06
8.95306e-06
8.94993e-06
3.91262e-06
3.90456e-06
8.95342e-06
8.95032e-06
3.9127e-06
1.48026e-06
2.93844e-07
3.06702e-06
1.76538e-07
3.05504e-06
1.74812e-07
1.50205e-06
1.48039e-06
2.93867e-07
3.06755e-06
1.76531e-07
3.05554e-06
1.74808e-07
1.50184e-06
5.24438e-06
5.24261e-06
4.86676e-07
5.24893e-06
5.24769e-06
1.8365e-05
1.83601e-05
1.83526e-05
1.83572e-05
4.94981e-07
5.25744e-06
5.25618e-06
5.25315e-06
5.25129e-06
1.83502e-05
1.83547e-05
1.46903e-06
3.03379e-06
1.71626e-07
2.89196e-07
1.44626e-06
3.04651e-06
1.73176e-07
3.89931e-06
8.94731e-06
3.88859e-06
8.95079e-06
1.46918e-06
1.71635e-07
3.03287e-06
2.89321e-07
1.44623e-06
1.73186e-07
3.04779e-06
3.9041e-06
8.95436e-06
8.95125e-06
3.91342e-06
1.48037e-06
2.93774e-07
3.06754e-06
1.76543e-07
3.05557e-06
1.74819e-07
1.50194e-06
3.90408e-06
8.95391e-06
8.95081e-06
3.9134e-06
1.48026e-06
2.93896e-07
1.76554e-07
3.06873e-06
1.7483e-07
3.05462e-06
1.50198e-06
3.89869e-06
8.94697e-06
3.88939e-06
8.95038e-06
1.4691e-06
1.71609e-07
3.03349e-06
2.89262e-07
1.44633e-06
1.7316e-07
3.04619e-06
3.89864e-06
8.94707e-06
3.88917e-06
8.95034e-06
1.48065e-06
2.93728e-07
3.06818e-06
1.76522e-07
3.05413e-06
1.74774e-07
1.50161e-06
3.90485e-06
8.95345e-06
8.95043e-06
3.91274e-06
1.48031e-06
2.93829e-07
1.76528e-07
3.06721e-06
1.74803e-07
3.05526e-06
1.50203e-06
3.90464e-06
8.9535e-06
8.95047e-06
3.91272e-06
5.24376e-06
5.24252e-06
4.86095e-07
5.24944e-06
5.24796e-06
1.83653e-05
1.83604e-05
1.8353e-05
1.83576e-05
4.95228e-07
5.25785e-06
5.25632e-06
5.25273e-06
5.25128e-06
1.83506e-05
1.83552e-05
1.46906e-06
1.71631e-07
3.03286e-06
2.89242e-07
1.44651e-06
1.73174e-07
3.04779e-06
3.89945e-06
8.94726e-06
3.88874e-06
8.95063e-06
3.89945e-06
8.94769e-06
3.88877e-06
8.95103e-06
1.48034e-06
2.93751e-07
1.76521e-07
3.06702e-06
1.74807e-07
3.05513e-06
1.50233e-06
1.48041e-06
2.93805e-07
1.76539e-07
3.06872e-06
1.74823e-07
3.05461e-06
1.50216e-06
3.90423e-06
8.95374e-06
8.95065e-06
3.91352e-06
3.90425e-06
8.95416e-06
8.9511e-06
3.91353e-06
1.83662e-05
1.83613e-05
1.83682e-05
1.83632e-05
4.94078e-07
5.2558e-06
5.25792e-06
5.25155e-06
5.25269e-06
1.83515e-05
1.8356e-05
1.83534e-05
1.8358e-05
1.83449e-05
1.83407e-05
1.83477e-05
1.83435e-05
5.25961e-06
5.26144e-06
5.21766e-07
5.26376e-06
5.26545e-06
1.83319e-05
1.83358e-05
1.83348e-05
1.83386e-05
5.30938e-07
5.27099e-06
5.27276e-06
5.26713e-06
5.26906e-06