/*--------------------------------*- C++ -*----------------------------------*\
| =========                 |                                                 |
| \\      /  F ield         | OpenFOAM: The Open Source CFD Toolbox           |
|  \\    /   O peration     | Version:  2312                                  |
|   \\  /    A nd           | Website:  www.openfoam.com                      |
|    \\/     M anipulation  |                                                 |
\*---------------------------------------------------------------------------*/
FoamFile
{
    version     2.0;
    format      ascii;
    arch        "LSB;label=32;scalar=64";
    class       volScalarField;
    location    "850";
    object      nut;
}
// * * * * * * * * * * * * * * * * * * * * * * * * * * * * * * * * * * * * * //

dimensions      [0 2 -1 0 0 0 0];

internalField   nonuniform List<scalar> 
42840
(
0.000145951
9.86084e-05
9.86017e-05
8.2015e-05
0.000141923
9.62745e-05
9.62682e-05
8.20724e-05
0.000137981
9.44592e-05
9.44525e-05
8.26208e-05
0.000134144
9.3161e-05
9.31555e-05
8.36225e-05
0.000130464
9.23703e-05
9.23639e-05
8.50103e-05
0.00012697
9.2062e-05
9.20571e-05
8.66996e-05
0.000123697
9.22135e-05
9.22097e-05
8.86763e-05
0.00012069
9.27916e-05
9.27908e-05
9.08781e-05
0.000117952
9.37612e-05
9.37632e-05
9.32524e-05
0.000115536
9.50884e-05
9.50941e-05
9.56067e-05
0.000113456
9.67339e-05
9.67406e-05
9.81416e-05
0.000111726
9.86583e-05
9.86673e-05
0.000100661
0.000110358
0.000100829
0.000100838
0.000103331
0.000109357
0.000103214
0.000103223
0.000105889
0.000108723
0.000105783
0.000105792
0.000108619
0.000108453
0.000108504
0.000108513
0.000111252
0.00010854
0.00011135
0.00011136
0.000113954
0.000108975
0.000114297
0.000114308
0.000116587
0.000109744
0.000117325
0.000117336
0.000119285
0.000110833
0.000120422
0.000120432
0.000121986
0.000112225
0.000123565
0.000123576
0.000124566
0.000113904
0.00012674
0.000126749
0.000127232
0.000115849
0.000129928
0.000129936
0.000129791
0.000118039
0.000133116
0.000133124
0.000132369
0.000120454
0.000136292
0.000136301
0.000134831
8.16948e-05
8.22061e-05
9.85799e-05
9.85703e-05
9.678e-05
9.67707e-05
8.17272e-05
8.21365e-05
9.86003e-05
9.85676e-05
9.68007e-05
9.67693e-05
9.85815e-05
9.68052e-05
9.67834e-05
8.17538e-05
8.22154e-05
9.85923e-05
9.68033e-05
9.67937e-05
8.19138e-05
8.1873e-05
8.27074e-05
9.62472e-05
9.62386e-05
9.48371e-05
9.48296e-05
8.1848e-05
8.26139e-05
9.62683e-05
9.62365e-05
9.48586e-05
9.48263e-05
9.62501e-05
9.48617e-05
9.4842e-05
8.18532e-05
8.27101e-05
9.6259e-05
9.48584e-05
9.48505e-05
8.23521e-05
8.24139e-05
8.36417e-05
9.44335e-05
9.44262e-05
9.34131e-05
9.34055e-05
8.23778e-05
8.36107e-05
9.44552e-05
9.44235e-05
9.34342e-05
9.34026e-05
9.44381e-05
9.34355e-05
9.34189e-05
8.23282e-05
8.35647e-05
9.44455e-05
9.34317e-05
9.34261e-05
8.32347e-05
8.33117e-05
8.48135e-05
9.31388e-05
9.31303e-05
9.24983e-05
9.24908e-05
8.3301e-05
8.48115e-05
9.31593e-05
9.31292e-05
9.25179e-05
9.24884e-05
9.31437e-05
9.25198e-05
9.25058e-05
8.33645e-05
8.48417e-05
9.315e-05
9.2515e-05
9.25118e-05
8.45102e-05
8.47472e-05
8.65141e-05
9.23496e-05
9.23411e-05
9.20757e-05
9.20672e-05
8.47463e-05
8.65125e-05
9.23685e-05
9.23401e-05
9.20933e-05
9.20652e-05
9.23553e-05
9.20946e-05
9.20835e-05
8.47315e-05
8.64432e-05
9.23615e-05
9.20901e-05
9.20892e-05
8.61725e-05
8.64557e-05
8.84349e-05
9.20454e-05
9.20356e-05
9.21188e-05
9.21095e-05
8.64525e-05
8.84008e-05
9.20627e-05
9.20354e-05
9.21347e-05
9.2108e-05
9.2052e-05
9.21347e-05
9.21272e-05
8.64386e-05
8.8348e-05
9.20574e-05
9.21317e-05
9.21321e-05
8.80996e-05
8.84136e-05
9.05587e-05
9.21998e-05
9.21903e-05
9.25968e-05
9.25882e-05
8.84279e-05
9.05031e-05
9.22155e-05
9.21903e-05
9.26115e-05
9.2588e-05
9.22076e-05
9.26101e-05
9.26056e-05
8.84087e-05
9.05507e-05
9.22125e-05
9.26095e-05
9.26091e-05
9.02017e-05
9.05968e-05
9.28602e-05
9.27813e-05
9.27722e-05
9.34745e-05
9.34648e-05
9.06043e-05
9.2809e-05
9.27951e-05
9.27724e-05
9.3488e-05
9.3466e-05
9.27887e-05
9.34849e-05
9.34845e-05
9.05897e-05
9.28565e-05
9.2793e-05
9.34878e-05
9.3486e-05
9.24594e-05
9.29569e-05
9.5275e-05
9.37538e-05
9.37443e-05
9.4718e-05
9.47098e-05
9.29347e-05
9.5264e-05
9.37667e-05
9.37459e-05
9.47308e-05
9.47113e-05
9.37628e-05
9.47274e-05
9.47285e-05
9.29329e-05
9.52493e-05
9.37653e-05
9.47327e-05
9.47309e-05
9.49093e-05
9.54491e-05
9.76849e-05
9.50824e-05
9.50743e-05
9.62885e-05
9.62803e-05
9.54421e-05
9.77212e-05
9.50946e-05
9.50791e-05
9.63004e-05
9.62838e-05
9.50924e-05
9.62958e-05
9.62994e-05
9.54343e-05
9.77861e-05
9.50945e-05
9.63033e-05
9.63008e-05
9.72443e-05
9.7959e-05
0.000100241
9.67288e-05
9.67225e-05
9.81503e-05
9.81423e-05
9.78795e-05
0.000100246
9.67406e-05
9.67272e-05
9.81595e-05
9.81443e-05
9.67392e-05
9.81545e-05
9.81596e-05
9.78046e-05
0.000100274
9.67393e-05
9.81631e-05
9.81596e-05
9.98893e-05
0.000100425
0.000102908
9.86565e-05
9.86509e-05
0.000100265
0.000100257
0.000100318
0.000102841
9.86653e-05
9.86537e-05
0.000100272
0.000100257
9.86669e-05
0.000100266
0.000100275
0.00010029
0.000102789
9.86665e-05
0.000100275
0.000100274
0.000102443
0.00010295
0.000105478
0.000100829
0.000100824
0.000102601
0.000102593
0.000102946
0.000105444
0.000100835
0.000100825
0.000102605
0.000102592
0.000100841
0.0001026
0.000102608
0.000102876
0.000105457
0.000100839
0.000102609
0.000102607
0.000105126
0.000105598
0.000108145
0.000103214
0.000103209
0.000105127
0.000105118
0.00010559
0.000108126
0.000103218
0.00010321
0.000105129
0.000105118
0.000103223
0.000105126
0.000105134
0.000105579
0.000108127
0.000103222
0.000105135
0.000105133
0.000107738
0.000108257
0.000110828
0.000105783
0.000105778
0.000107812
0.000107803
0.000108249
0.000110802
0.000105786
0.000105778
0.000107813
0.000107804
0.000105793
0.000107812
0.00010782
0.000108269
0.000110761
0.000105792
0.000107823
0.000107818
0.00011043
0.00011098
0.000113462
0.000108504
0.000108499
0.000110628
0.00011062
0.000110922
0.000113457
0.000108505
0.000108498
0.000110629
0.00011062
0.000108514
0.000110629
0.000110638
0.000110925
0.00011347
0.000108512
0.00011064
0.000110636
0.000113131
0.000113623
0.00011619
0.00011135
0.000111344
0.000113553
0.000113543
0.000113622
0.00011618
0.00011135
0.000111344
0.000113554
0.000113545
0.000111362
0.000113553
0.000113565
0.000113586
0.000116148
0.000111359
0.000113565
0.000113561
0.000115858
0.000116287
0.000118839
0.000114298
0.00011429
0.000116563
0.000116552
0.000116324
0.00011884
0.000114298
0.000114292
0.000116563
0.000116554
0.000114311
0.000116562
0.000116574
0.000116245
0.00011882
0.000114306
0.000116574
0.000116569
0.000118498
0.000118965
0.000121527
0.000117326
0.000117318
0.000119644
0.000119632
0.000118967
0.000121479
0.000117327
0.00011732
0.000119645
0.000119636
0.000117338
0.000119643
0.000119655
0.000118976
0.000121486
0.000117333
0.000119655
0.000119651
0.000121151
0.000121633
0.000124126
0.000120424
0.000120414
0.000122778
0.000122764
0.000121587
0.000123966
0.000120425
0.000120417
0.00012278
0.000122769
0.000120435
0.000122777
0.00012279
0.000121649
0.000124127
0.00012043
0.000122789
0.000122785
0.000123917
0.000124309
0.000126781
0.000123568
0.000123555
0.000125946
0.000125931
0.000124353
0.000126768
0.000123569
0.000123561
0.000125947
0.000125938
0.00012358
0.000125945
0.000125958
0.000124248
0.000126787
0.000123574
0.000125955
0.000125952
0.000126418
0.000126912
0.00012934
0.000126741
0.000126727
0.00012913
0.000129115
0.000126884
0.000129349
0.000126743
0.000126734
0.000129132
0.000129122
0.000126753
0.000129131
0.000129144
0.000126939
0.000129347
0.000126746
0.000129141
0.000129136
0.000129076
0.00012946
0.000131916
0.000129928
0.000129913
0.000132318
0.000132303
0.000129512
0.000131911
0.000129929
0.00012992
0.000132319
0.00013231
0.000129941
0.000132319
0.000132332
0.000129464
0.0001319
0.000129933
0.000132328
0.000132325
0.000131652
0.000132027
0.000134345
0.000133115
0.0001331
0.000135498
0.000135483
0.000132048
0.00013434
0.000133116
0.000133105
0.000135499
0.000135489
0.000133128
0.000135499
0.000135512
0.000132048
0.000134247
0.000133121
0.000135509
0.000135505
0.000134173
0.000134682
0.000136291
0.000136275
0.000134666
0.000136292
0.000136281
0.000136303
0.00013477
0.000136296
7.202e-05
4.9581e-05
4.95848e-05
7.12214e-05
2.3616e-05
2.36129e-05
7.20178e-05
4.95755e-05
4.95793e-05
7.12196e-05
0.00014595
0.000145943
0.00014594
0.000142911
0.00014291
0.000142902
0.0001429
6.98819e-05
6.76431e-05
0.000122027
9.7972e-05
6.82192e-05
0.000121043
6.89486e-05
2.36152e-05
2.3612e-05
6.9924e-05
0.000122002
6.76201e-05
9.79686e-05
0.000121036
6.82567e-05
6.89327e-05
6.20383e-05
6.20575e-05
8.18196e-05
6.23719e-05
6.23507e-05
7.37702e-05
4.95992e-05
7.30653e-05
4.96022e-05
2.36046e-05
2.36018e-05
7.37696e-05
4.95938e-05
7.30619e-05
4.95968e-05
0.000141921
0.000141913
0.000141911
0.000138941
0.00013894
0.000138931
0.00013893
7.28764e-05
6.94422e-05
0.000118301
9.57686e-05
7.19301e-05
6.99872e-05
0.00011738
2.36038e-05
2.36009e-05
7.29142e-05
0.000118272
6.94177e-05
9.57645e-05
7.19011e-05
0.00011737
7.00237e-05
6.29139e-05
6.29272e-05
8.20187e-05
6.32103e-05
6.32052e-05
7.53184e-05
4.96151e-05
7.46655e-05
4.96173e-05
2.35943e-05
2.35918e-05
7.53055e-05
4.96097e-05
7.46729e-05
4.9612e-05
0.000137979
0.000137971
0.00013797
0.000135088
0.000135087
0.000135078
0.000135079
7.58775e-05
7.11409e-05
0.000114867
9.40846e-05
7.4888e-05
7.16553e-05
0.000114047
2.35933e-05
2.35908e-05
7.589e-05
0.000114837
7.11155e-05
9.40797e-05
7.48939e-05
0.000114038
7.16866e-05
6.37258e-05
6.37272e-05
8.2764e-05
6.39902e-05
6.39867e-05
7.66792e-05
4.96286e-05
7.60877e-05
4.96308e-05
2.35848e-05
2.35827e-05
7.66656e-05
4.96231e-05
7.60948e-05
4.96256e-05
0.000134142
0.000134134
0.000134133
0.000131371
0.000131369
0.000131361
0.000131361
7.87987e-05
7.27354e-05
0.000111748
9.29148e-05
7.78296e-05
7.32221e-05
0.000111012
2.35839e-05
2.35817e-05
7.8787e-05
0.000111722
7.27138e-05
9.29109e-05
7.78292e-05
0.000111004
7.32553e-05
6.4467e-05
6.4466e-05
8.38495e-05
6.47173e-05
6.47051e-05
7.78981e-05
4.96404e-05
7.73582e-05
4.96426e-05
2.35764e-05
2.35746e-05
7.78839e-05
4.96347e-05
7.73648e-05
4.96375e-05
0.000130462
0.000130454
0.000130455
0.000127827
0.000127825
0.000127817
0.000127818
8.16297e-05
7.42406e-05
0.000109009
9.22477e-05
8.06829e-05
7.47008e-05
0.000108371
2.35754e-05
2.35736e-05
8.16117e-05
0.000108986
7.42192e-05
9.22429e-05
8.06969e-05
0.000108367
7.47335e-05
6.51514e-05
6.51531e-05
8.53298e-05
6.53813e-05
6.53741e-05
7.90012e-05
4.96509e-05
7.85061e-05
4.96533e-05
2.35688e-05
2.35673e-05
7.89858e-05
4.96451e-05
7.85129e-05
4.96485e-05
0.000126967
0.000126959
0.000126961
0.000124497
0.000124493
0.000124487
0.000124489
8.43389e-05
7.56563e-05
0.000106674
9.20578e-05
8.3434e-05
7.60939e-05
0.000106141
2.35678e-05
2.35664e-05
8.43324e-05
0.000106654
7.5638e-05
9.20546e-05
8.34378e-05
0.00010614
7.61269e-05
6.57906e-05
6.57899e-05
8.71236e-05
6.60028e-05
6.59981e-05
8.00032e-05
4.96609e-05
7.95562e-05
4.96635e-05
2.35621e-05
2.35609e-05
7.99947e-05
4.96548e-05
7.95636e-05
4.96588e-05
0.000123693
0.000123686
0.000123689
0.000121423
0.000121419
0.000121414
0.000121416
8.69253e-05
7.69946e-05
0.000104766
9.23198e-05
8.60829e-05
7.74101e-05
0.000104342
2.35612e-05
2.356e-05
8.69293e-05
0.000104751
7.69789e-05
9.2319e-05
8.60883e-05
0.000104342
7.7442e-05
6.6387e-05
6.63851e-05
8.91483e-05
6.6585e-05
6.6581e-05
8.09446e-05
4.96706e-05
8.05314e-05
4.96734e-05
2.35564e-05
2.35556e-05
8.09344e-05
4.96643e-05
8.05286e-05
4.9669e-05
0.000120686
0.00012068
0.000120682
0.000118606
0.000118602
0.000118597
0.0001186
8.94132e-05
7.8261e-05
0.000103303
9.29998e-05
8.86116e-05
7.8655e-05
0.000102991
2.35555e-05
2.35547e-05
8.94306e-05
0.000103291
7.82472e-05
9.30012e-05
8.86028e-05
0.000102993
7.86897e-05
6.69467e-05
6.6944e-05
9.13376e-05
6.71332e-05
6.71296e-05
8.18176e-05
4.96808e-05
8.14268e-05
4.96834e-05
2.35516e-05
2.35512e-05
8.18065e-05
4.96738e-05
8.14314e-05
4.96797e-05
0.000117947
0.000117943
0.000117946
0.000116109
0.000116105
0.000116102
0.000116105
9.18288e-05
7.9461e-05
0.00010229
9.40621e-05
9.09905e-05
7.98394e-05
0.000102089
2.35508e-05
2.35504e-05
9.18346e-05
0.000102279
7.94503e-05
9.40672e-05
9.09947e-05
0.000102094
7.98732e-05
6.74742e-05
6.74717e-05
9.37437e-05
6.76511e-05
6.76481e-05
8.26331e-05
4.96917e-05
8.22717e-05
4.96938e-05
2.35479e-05
2.35478e-05
8.26263e-05
4.96833e-05
8.22706e-05
4.96911e-05
0.000115531
0.000115528
0.000115531
0.000113943
0.00011394
0.000113937
0.00011394
9.41243e-05
8.05965e-05
0.000101718
9.54732e-05
9.32817e-05
8.09771e-05
0.000101628
2.35471e-05
2.3547e-05
9.41319e-05
0.000101712
8.05952e-05
9.54807e-05
9.32893e-05
0.000101635
8.10009e-05
6.79745e-05
6.7972e-05
9.60684e-05
6.81426e-05
6.814e-05
8.34082e-05
4.97033e-05
8.30658e-05
4.97053e-05
2.35452e-05
2.35455e-05
8.33996e-05
4.96943e-05
8.30641e-05
4.97031e-05
0.000113451
0.000113449
0.000113452
0.000112125
0.000112122
0.000112119
0.000112123
9.63263e-05
8.16944e-05
0.000101578
9.71921e-05
9.54819e-05
8.20594e-05
0.000101594
2.35444e-05
2.35447e-05
9.63346e-05
0.000101573
8.16858e-05
9.72e-05
9.54865e-05
0.000101601
8.20757e-05
6.84506e-05
6.84481e-05
9.85647e-05
6.86114e-05
6.86086e-05
8.41383e-05
4.97156e-05
8.38143e-05
4.9718e-05
2.35436e-05
2.35442e-05
8.41311e-05
4.97067e-05
8.3813e-05
4.97159e-05
0.000111722
0.000111721
0.000111724
0.000110666
0.000110663
0.000110661
0.000110665
9.84416e-05
8.27443e-05
0.00010185
9.91816e-05
9.76005e-05
8.30853e-05
0.000101965
2.35428e-05
2.35434e-05
9.84504e-05
0.000101847
8.27398e-05
9.91901e-05
9.76056e-05
0.000101975
8.311e-05
6.89053e-05
6.89028e-05
0.000101133
6.90595e-05
6.90567e-05
8.48374e-05
4.97291e-05
8.45263e-05
4.9732e-05
2.35429e-05
2.3544e-05
8.48297e-05
4.97202e-05
8.45259e-05
4.97299e-05
0.000110355
0.000110354
0.000110358
0.000109573
0.00010957
0.000109569
0.000109572
0.000100478
8.37446e-05
0.000102512
0.000101408
9.96411e-05
8.40815e-05
0.000102721
2.35422e-05
2.35432e-05
0.00010049
0.000102513
8.37309e-05
0.000101418
9.96504e-05
0.000102734
8.41007e-05
6.93409e-05
6.93385e-05
0.000103782
6.94891e-05
6.94869e-05
8.5508e-05
4.97439e-05
8.52087e-05
4.97474e-05
2.35433e-05
2.35447e-05
8.55009e-05
4.9738e-05
8.52088e-05
4.97422e-05
0.000109354
0.000109353
0.000109357
0.000108847
0.000108844
0.000108844
0.000108848
0.00010245
8.4707e-05
0.000103538
0.000103842
0.000101615
8.50298e-05
0.000103836
2.35425e-05
2.35439e-05
0.000102461
0.000103542
8.46932e-05
0.000103852
0.000101622
0.00010385
8.50591e-05
6.97595e-05
6.97553e-05
0.000106413
6.99023e-05
6.99013e-05
8.61558e-05
4.97602e-05
8.58648e-05
4.97643e-05
2.35447e-05
2.35464e-05
8.61481e-05
4.97548e-05
8.58644e-05
4.9759e-05
0.00010872
0.000108721
0.000108724
0.000108487
0.000108484
0.000108485
0.000108489
0.000104361
8.56277e-05
0.000104902
0.000106453
0.000103524
8.59471e-05
0.000105281
2.35439e-05
2.35456e-05
0.000104369
0.000104908
8.56138e-05
0.000106462
0.000103528
0.000105297
8.59835e-05
7.01617e-05
7.01566e-05
0.000109193
7.03012e-05
7.02999e-05
8.67822e-05
4.97779e-05
8.65005e-05
4.97826e-05
2.3547e-05
2.35491e-05
8.67745e-05
4.97726e-05
8.64995e-05
4.97773e-05
0.00010845
0.000108452
0.000108456
0.000108486
0.000108483
0.000108485
0.000108489
0.00010621
8.65123e-05
0.000106579
0.000109207
0.000105379
8.68354e-05
0.000107033
2.35462e-05
2.35482e-05
0.00010622
0.000106587
8.64961e-05
0.000109217
0.000105386
0.000107049
8.68532e-05
7.0549e-05
7.05435e-05
0.000111812
7.06857e-05
7.06837e-05
8.73945e-05
4.97971e-05
8.71183e-05
4.98024e-05
2.35502e-05
2.35526e-05
8.73855e-05
4.97918e-05
8.71182e-05
4.97971e-05
0.000108537
0.00010854
0.000108544
0.000108835
0.000108831
0.000108834
0.000108839
0.000108006
8.73624e-05
0.00010854
0.00011208
0.000107183
8.76846e-05
0.000109061
2.35494e-05
2.35517e-05
0.000108016
0.000108549
8.73454e-05
0.000112091
0.000107187
0.000109077
8.77154e-05
7.09227e-05
7.09169e-05
0.000114488
7.10564e-05
7.10538e-05
8.79909e-05
4.98177e-05
8.77195e-05
4.98237e-05
2.35542e-05
2.3557e-05
8.79819e-05
4.98124e-05
8.7722e-05
4.98183e-05
0.000108972
0.000108975
0.00010898
0.000109521
0.000109518
0.000109522
0.000109527
0.000109752
8.81908e-05
0.000110755
0.000115049
0.000108941
8.85008e-05
0.000111337
2.35534e-05
2.35561e-05
0.000109761
0.000110764
8.81784e-05
0.000115061
0.000108948
0.000111353
8.85319e-05
7.12835e-05
7.12776e-05
0.000117214
7.1414e-05
7.14109e-05
8.85776e-05
4.98395e-05
8.83077e-05
4.98459e-05
2.35592e-05
2.35624e-05
8.85649e-05
4.98344e-05
8.83114e-05
4.98409e-05
0.00010974
0.000109744
0.00010975
0.000110531
0.000110528
0.000110532
0.000110539
0.00011145
8.8985e-05
0.000113199
0.000118095
0.000110654
8.92926e-05
0.000113835
2.35583e-05
2.35612e-05
0.000111457
0.000113209
8.89756e-05
0.000118108
0.000110664
0.000113851
8.93246e-05
7.16321e-05
7.16263e-05
0.000119805
7.17592e-05
7.17555e-05
8.91492e-05
4.98626e-05
8.88843e-05
4.98721e-05
2.3565e-05
2.35682e-05
8.91366e-05
4.98577e-05
8.88894e-05
4.98648e-05
0.000110829
0.000110834
0.00011084
0.00011185
0.000111846
0.000111851
0.000111858
0.000113101
8.97545e-05
0.000115845
0.000121206
0.000112325
9.00563e-05
0.000116528
2.35639e-05
2.35671e-05
0.000113105
0.000115854
8.97445e-05
0.000121218
0.000112331
0.000116542
9.0086e-05
7.19692e-05
7.19635e-05
0.000122586
7.20928e-05
7.20883e-05
8.97105e-05
4.9884e-05
8.94498e-05
4.98979e-05
2.35713e-05
2.35748e-05
8.96988e-05
4.98822e-05
8.94512e-05
4.98899e-05
0.000112222
0.000112227
0.000112234
0.000113459
0.000113455
0.000113461
0.000113468
0.000114706
9.04971e-05
0.000118667
0.000124357
0.000113951
9.07953e-05
0.000119393
2.35703e-05
2.35737e-05
0.00011471
0.000118676
9.04864e-05
0.000124369
0.000113956
0.000119407
9.08224e-05
7.22952e-05
7.22883e-05
0.000125173
7.24154e-05
7.24104e-05
9.02596e-05
4.99098e-05
9.00024e-05
4.99241e-05
2.35782e-05
2.35819e-05
9.02493e-05
4.99047e-05
9.0007e-05
4.9919e-05
0.0001139
0.000113906
0.000113914
0.000115339
0.000115335
0.000115341
0.000115349
0.000116264
9.12198e-05
0.000121659
0.000127537
0.000115535
9.15089e-05
0.000122425
2.35773e-05
2.35809e-05
0.00011627
0.000121666
9.12053e-05
0.000127547
0.000115537
0.000122437
9.15353e-05
7.26095e-05
7.26044e-05
0.000127855
7.27289e-05
7.27213e-05
9.07946e-05
4.99365e-05
9.0546e-05
4.99512e-05
2.35858e-05
2.35897e-05
9.07876e-05
4.99315e-05
9.05514e-05
4.99462e-05
0.000115845
0.000115851
0.00011586
0.000117469
0.000117466
0.000117473
0.000117482
0.000117777
9.19103e-05
0.000124801
0.000130725
0.000117065
9.2199e-05
0.000125601
2.35849e-05
2.35887e-05
0.000117785
0.000124811
9.19006e-05
0.000130736
0.000117073
0.000125617
9.2223e-05
7.29129e-05
7.29088e-05
0.00013034
7.30271e-05
7.30219e-05
9.13221e-05
4.99641e-05
9.10714e-05
4.99791e-05
2.35939e-05
2.3598e-05
9.13074e-05
4.99591e-05
9.10788e-05
4.99741e-05
0.000118035
0.000118042
0.000118051
0.00011983
0.000119826
0.000119834
0.000119844
0.00011924
9.25782e-05
0.000128073
0.000133911
0.00011855
9.28658e-05
0.000128902
2.3593e-05
2.35971e-05
0.000119247
0.000128084
9.25689e-05
0.00013392
0.000118557
0.000128918
9.28916e-05
7.32069e-05
7.32031e-05
0.000132957
7.33186e-05
7.33129e-05
9.18219e-05
4.99926e-05
9.1591e-05
5.00065e-05
2.36025e-05
2.36068e-05
9.18149e-05
4.99876e-05
9.15965e-05
5.00028e-05
0.00012045
0.000120458
0.000120468
0.000120651
9.32308e-05
0.000131445
0.000137083
0.000119982
9.35058e-05
0.000132295
2.36016e-05
2.3606e-05
0.000120659
0.000131457
9.32258e-05
0.000137093
0.000119994
0.000132313
9.35319e-05
7.34914e-05
7.34862e-05
0.000135447
7.35996e-05
7.35935e-05
2.36183e-05
2.36151e-05
2.3616e-05
2.36129e-05
6.20509e-05
6.20492e-05
8.21942e-05
6.23665e-05
6.23754e-05
2.36095e-05
2.36124e-05
2.36073e-05
2.36103e-05
8.17605e-05
6.2798e-05
6.27991e-05
6.2504e-05
6.24947e-05
7.20372e-05
4.95748e-05
4.95786e-05
7.12068e-05
6.9908e-05
6.76207e-05
0.000122009
9.79463e-05
6.82616e-05
0.000121038
6.89356e-05
6.99043e-05
6.76167e-05
0.000122006
9.79356e-05
6.82524e-05
0.000121036
6.89429e-05
7.21744e-05
4.95938e-05
4.95903e-05
7.29234e-05
7.21576e-05
4.95878e-05
4.95842e-05
7.29379e-05
7.04289e-05
9.73483e-05
6.9161e-05
0.00011917
6.85333e-05
0.00012011
7.1417e-05
7.04263e-05
9.73393e-05
6.91501e-05
0.000119168
6.8528e-05
0.000120107
7.14163e-05
6.20405e-05
6.20646e-05
8.22237e-05
6.23679e-05
6.23623e-05
2.36176e-05
2.36145e-05
2.36072e-05
2.36102e-05
8.16965e-05
6.2798e-05
6.27962e-05
6.24895e-05
6.25043e-05
2.36089e-05
2.36118e-05
6.98891e-05
6.76181e-05
0.000122015
9.79675e-05
6.82598e-05
0.000121044
6.89512e-05
7.20169e-05
4.95717e-05
4.95755e-05
7.12162e-05
6.99032e-05
0.000121997
6.76323e-05
9.79348e-05
0.000121028
6.82286e-05
6.89402e-05
7.21716e-05
4.95884e-05
4.95848e-05
7.29224e-05
7.04425e-05
9.73685e-05
6.9156e-05
0.000119176
6.85301e-05
0.000120115
7.13861e-05
7.21701e-05
4.95846e-05
4.95811e-05
7.29219e-05
7.04304e-05
9.73366e-05
0.000119159
6.91265e-05
0.000120098
6.85425e-05
7.1386e-05
7.19921e-05
4.95768e-05
4.95802e-05
7.12278e-05
6.99032e-05
0.000122015
6.76127e-05
9.79456e-05
0.000121043
6.82527e-05
6.89485e-05
7.20268e-05
4.95723e-05
4.95761e-05
7.1209e-05
7.04322e-05
9.73757e-05
6.91197e-05
0.000119177
6.8554e-05
0.00012013
7.13724e-05
7.21801e-05
4.95894e-05
4.95863e-05
7.28991e-05
7.04263e-05
9.73523e-05
0.000119175
6.91499e-05
0.000120115
6.85252e-05
7.14015e-05
7.21616e-05
4.95853e-05
4.95818e-05
7.29289e-05
6.20568e-05
6.20629e-05
8.21891e-05
6.2351e-05
6.2362e-05
2.36174e-05
2.36141e-05
2.36064e-05
2.36094e-05
8.1759e-05
6.2784e-05
6.27938e-05
6.24997e-05
6.25108e-05
2.36085e-05
2.36115e-05
6.99112e-05
0.000122003
6.76356e-05
9.7957e-05
0.000121038
6.82308e-05
6.89252e-05
7.19976e-05
4.95765e-05
4.95803e-05
7.12305e-05
7.19953e-05
4.95708e-05
4.95748e-05
7.12296e-05
7.041e-05
9.73703e-05
0.000119168
6.91592e-05
0.000120102
6.85322e-05
7.14183e-05
7.04177e-05
9.73616e-05
0.00011917
6.91254e-05
0.000120105
6.85433e-05
7.1404e-05
7.21816e-05
4.95895e-05
4.9586e-05
7.29031e-05
7.2181e-05
4.95839e-05
4.95802e-05
7.2901e-05
2.36158e-05
2.36127e-05
2.36148e-05
2.36116e-05
8.20478e-05
6.28015e-05
6.27867e-05
6.24899e-05
6.2503e-05
2.36071e-05
2.361e-05
2.3606e-05
2.3609e-05
2.36068e-05
2.36041e-05
2.36047e-05
2.36019e-05
6.29307e-05
6.29289e-05
8.24232e-05
6.32265e-05
6.32216e-05
2.35989e-05
2.36015e-05
2.35968e-05
2.35994e-05
8.20815e-05
6.36132e-05
6.36169e-05
6.33372e-05
6.33368e-05
7.37828e-05
4.95928e-05
7.30481e-05
4.95962e-05
7.29125e-05
6.94214e-05
0.000118279
9.57433e-05
7.19148e-05
7.00287e-05
0.000117373
7.29083e-05
6.94161e-05
0.000118275
9.57348e-05
7.19083e-05
7.00218e-05
0.000117371
7.38953e-05
4.96101e-05
4.96074e-05
7.45806e-05
7.38815e-05
4.96041e-05
4.96013e-05
7.45744e-05
7.34109e-05
9.52748e-05
7.08722e-05
0.000115651
7.02844e-05
0.00011652
7.44088e-05
7.34094e-05
9.52676e-05
7.08679e-05
0.000115648
7.02766e-05
0.000116517
7.44035e-05
6.29171e-05
6.29314e-05
8.24103e-05
6.32167e-05
6.32112e-05
2.36062e-05
2.36034e-05
2.35967e-05
2.35993e-05
8.20876e-05
6.36043e-05
6.3607e-05
6.33292e-05
6.33429e-05
2.35983e-05
2.36009e-05
7.28805e-05
6.94197e-05
0.000118284
9.57646e-05
7.19352e-05
7.00344e-05
0.000117378
7.3768e-05
4.95897e-05
7.30586e-05
4.95929e-05
7.2891e-05
0.000118266
6.9428e-05
9.57326e-05
7.19314e-05
0.000117361
6.99989e-05
7.38925e-05
4.96049e-05
4.96019e-05
7.45621e-05
7.34339e-05
9.52958e-05
7.08783e-05
0.000115656
7.02738e-05
0.000116525
7.43808e-05
7.38902e-05
4.96007e-05
4.9598e-05
7.45602e-05
7.34233e-05
9.52641e-05
0.000115639
7.08391e-05
0.000116507
7.02883e-05
7.43817e-05
7.37457e-05
4.95948e-05
7.30674e-05
4.95977e-05
7.28941e-05
0.000118284
6.94099e-05
9.57453e-05
7.19207e-05
0.000117378
7.00208e-05
7.37736e-05
4.95904e-05
7.30517e-05
4.95936e-05
7.34214e-05
9.53013e-05
7.08327e-05
0.00011566
7.03017e-05
0.000116543
7.44122e-05
7.38969e-05
4.96058e-05
4.96033e-05
7.4557e-05
7.34189e-05
9.52801e-05
0.000115656
7.08629e-05
0.000116526
7.02718e-05
7.43786e-05
7.38842e-05
4.96015e-05
4.95989e-05
7.45654e-05
6.29234e-05
6.29265e-05
8.24001e-05
6.32018e-05
6.32139e-05
2.36059e-05
2.36031e-05
2.35957e-05
2.35984e-05
8.20453e-05
6.3603e-05
6.36095e-05
6.33336e-05
6.33458e-05
2.35979e-05
2.36006e-05
7.29047e-05
0.000118274
6.94306e-05
9.57549e-05
7.19123e-05
0.000117373
6.99958e-05
7.37491e-05
4.95945e-05
7.30685e-05
4.95978e-05
7.37472e-05
4.95889e-05
7.30674e-05
4.95923e-05
7.3396e-05
9.52949e-05
0.000115649
7.08683e-05
0.000116513
7.02794e-05
7.43988e-05
7.34025e-05
9.52881e-05
0.000115651
7.08408e-05
0.000116516
7.02909e-05
7.43963e-05
7.38992e-05
4.96057e-05
4.9603e-05
7.45407e-05
7.38975e-05
4.96001e-05
4.95971e-05
7.45388e-05
2.36045e-05
2.36016e-05
2.36034e-05
2.36005e-05
8.23087e-05
6.36073e-05
6.35993e-05
6.33292e-05
6.33391e-05
2.35965e-05
2.35991e-05
2.35954e-05
2.35981e-05
2.35965e-05
2.3594e-05
2.35943e-05
2.35919e-05
6.37354e-05
6.37317e-05
8.30391e-05
6.4005e-05
6.39994e-05
2.35893e-05
2.35916e-05
2.35872e-05
2.35895e-05
8.28448e-05
6.43687e-05
6.43643e-05
6.41105e-05
6.4109e-05
7.53176e-05
4.96088e-05
7.46611e-05
4.96114e-05
7.58874e-05
7.11206e-05
0.000114843
9.40605e-05
7.48974e-05
7.16944e-05
0.000114039
7.58957e-05
7.1111e-05
0.000114839
9.40531e-05
7.4897e-05
7.16881e-05
0.000114036
7.53964e-05
4.96245e-05
4.96221e-05
7.60218e-05
7.53943e-05
4.96186e-05
4.96162e-05
7.6018e-05
7.63842e-05
9.37211e-05
7.24892e-05
0.000112467
7.19315e-05
0.000113235
7.73443e-05
7.63707e-05
9.37143e-05
7.24827e-05
0.000112464
7.19239e-05
0.000113232
7.73603e-05
6.3726e-05
6.37297e-05
8.30935e-05
6.39914e-05
6.39916e-05
2.35958e-05
2.35934e-05
2.35871e-05
2.35894e-05
8.28379e-05
6.43612e-05
6.43589e-05
6.41053e-05
6.41075e-05
2.35887e-05
2.35909e-05
7.58589e-05
7.11093e-05
0.000114848
9.40822e-05
7.49233e-05
7.16979e-05
0.000114045
7.53041e-05
4.96055e-05
7.46695e-05
4.9608e-05
7.58633e-05
0.000114831
7.11268e-05
9.40496e-05
7.4916e-05
0.000114028
7.16606e-05
7.54035e-05
4.96193e-05
4.96167e-05
7.60056e-05
7.64019e-05
9.37421e-05
7.24919e-05
0.000112472
7.19219e-05
0.000113241
7.73288e-05
7.54013e-05
4.96164e-05
4.96128e-05
7.60033e-05
7.6395e-05
9.37115e-05
0.000112456
7.24561e-05
0.000113224
7.19389e-05
7.73297e-05
7.52955e-05
4.96104e-05
7.46658e-05
4.96146e-05
7.58735e-05
0.000114849
7.11096e-05
9.4065e-05
7.49144e-05
0.000114045
7.16831e-05
7.53091e-05
4.96063e-05
7.46633e-05
4.96088e-05
7.63667e-05
9.37455e-05
7.24543e-05
0.000112476
7.19486e-05
0.000113259
7.73458e-05
7.53953e-05
4.96214e-05
4.96175e-05
7.59968e-05
7.63862e-05
9.37273e-05
0.000112473
7.24808e-05
0.000113242
7.1923e-05
7.73339e-05
7.53957e-05
4.9616e-05
4.96136e-05
7.60098e-05
6.37294e-05
6.37291e-05
8.29967e-05
6.39847e-05
6.39936e-05
2.35955e-05
2.3593e-05
2.35862e-05
2.35885e-05
8.28141e-05
6.4354e-05
6.436e-05
6.41037e-05
6.41126e-05
2.35883e-05
2.35906e-05
7.58974e-05
0.000114839
7.11244e-05
9.40727e-05
7.48907e-05
0.000114041
7.16618e-05
7.52849e-05
4.96104e-05
7.46775e-05
4.96129e-05
7.52831e-05
4.96048e-05
7.46755e-05
4.96074e-05
7.63706e-05
9.37399e-05
0.000112468
7.24846e-05
0.000113229
7.19277e-05
7.73564e-05
7.63625e-05
9.37341e-05
0.00011247
7.2457e-05
0.000113231
7.19364e-05
7.73552e-05
7.54084e-05
4.96201e-05
4.96178e-05
7.59847e-05
7.54063e-05
4.96145e-05
4.96119e-05
7.59828e-05
2.35941e-05
2.35916e-05
2.3593e-05
2.35904e-05
8.31184e-05
6.43567e-05
6.43517e-05
6.41029e-05
6.41084e-05
2.3587e-05
2.35892e-05
2.35858e-05
2.35881e-05
2.3587e-05
2.35849e-05
2.35849e-05
2.35828e-05
6.44748e-05
6.44731e-05
8.42456e-05
6.47228e-05
6.47228e-05
2.35807e-05
2.35827e-05
2.35786e-05
2.35806e-05
8.39494e-05
6.50624e-05
6.50564e-05
6.48252e-05
6.48204e-05
7.6678e-05
4.96223e-05
7.6084e-05
4.96249e-05
7.87963e-05
7.27181e-05
0.000111727
9.28936e-05
7.7852e-05
7.32616e-05
0.000111003
7.88063e-05
7.27099e-05
0.000111722
9.28848e-05
7.78334e-05
7.32583e-05
0.000111
7.67388e-05
4.96371e-05
4.96348e-05
7.73086e-05
7.67361e-05
4.96311e-05
4.96289e-05
7.73039e-05
7.92904e-05
9.26811e-05
7.40116e-05
0.000109633
7.34842e-05
0.00011031
8.02258e-05
7.92789e-05
9.26734e-05
7.40055e-05
0.00010963
7.34752e-05
0.000110305
8.02315e-05
6.44647e-05
6.44686e-05
8.41179e-05
6.47144e-05
6.47132e-05
2.35863e-05
2.35842e-05
2.35785e-05
2.35805e-05
8.40255e-05
6.50525e-05
6.50516e-05
6.48151e-05
6.48194e-05
2.358e-05
2.35819e-05
7.87889e-05
7.2709e-05
0.000111732
9.2914e-05
7.7863e-05
7.32705e-05
0.000111009
7.66638e-05
4.96192e-05
7.60912e-05
4.96214e-05
7.87786e-05
0.000111715
7.27247e-05
9.28833e-05
7.78566e-05
0.000110993
7.32286e-05
7.6745e-05
4.96319e-05
4.96294e-05
7.7292e-05
7.9295e-05
9.27009e-05
7.40158e-05
0.000109639
7.34712e-05
0.000110315
8.02185e-05
7.67424e-05
4.96276e-05
4.96254e-05
7.72889e-05
7.92947e-05
9.26718e-05
0.000109624
7.39767e-05
0.000110298
7.34909e-05
8.02113e-05
7.66575e-05
4.96244e-05
7.60841e-05
4.96265e-05
7.87808e-05
0.000111733
7.27084e-05
9.28975e-05
7.78513e-05
0.00011101
7.32557e-05
7.66704e-05
4.96197e-05
7.60849e-05
4.96229e-05
7.92684e-05
9.27029e-05
7.39731e-05
0.000109642
7.34997e-05
0.000110329
8.02319e-05
7.67346e-05
4.96327e-05
4.96304e-05
7.7285e-05
7.92932e-05
9.26881e-05
0.00010964
7.40031e-05
0.000110316
7.34742e-05
8.02101e-05
7.67361e-05
4.96291e-05
4.9626e-05
7.72969e-05
6.44692e-05
6.44739e-05
8.42159e-05
6.47063e-05
6.47146e-05
2.3586e-05
2.35839e-05
2.35776e-05
2.35795e-05
8.39891e-05
6.50458e-05
6.50549e-05
6.4817e-05
6.48248e-05
2.35797e-05
2.35817e-05
7.87925e-05
0.000111724
7.27224e-05
9.29041e-05
7.7828e-05
0.000111007
7.32288e-05
7.66456e-05
4.96238e-05
7.60971e-05
4.96264e-05
7.66437e-05
4.96183e-05
7.60949e-05
4.9621e-05
7.92802e-05
9.26971e-05
0.000109637
7.40079e-05
0.000110304
7.34801e-05
8.0211e-05
7.92785e-05
9.2694e-05
0.000109639
7.39767e-05
0.000110309
7.34895e-05
8.02086e-05
7.67468e-05
4.96327e-05
4.96304e-05
7.7272e-05
7.67446e-05
4.96272e-05
4.96245e-05
7.72701e-05
2.35847e-05
2.35826e-05
2.35835e-05
2.35814e-05
8.43593e-05
6.50556e-05
6.50456e-05
6.48163e-05
6.4818e-05
2.35784e-05
2.35803e-05
2.35772e-05
2.35792e-05
2.35785e-05
2.35767e-05
2.35764e-05
2.35746e-05
6.51624e-05
6.51585e-05
8.56833e-05
6.53893e-05
6.53888e-05
2.3573e-05
2.35747e-05
2.35709e-05
2.35725e-05
8.55602e-05
6.57058e-05
6.5703e-05
6.54872e-05
6.54814e-05
7.78961e-05
4.9634e-05