/*--------------------------------*- C++ -*----------------------------------*\
| =========                 |                                                 |
| \\      /  F ield         | OpenFOAM: The Open Source CFD Toolbox           |
|  \\    /   O peration     | Version:  2312                                  |
|   \\  /    A nd           | Website:  www.openfoam.com                      |
|    \\/     M anipulation  |                                                 |
\*---------------------------------------------------------------------------*/
FoamFile
{
    version     2.0;
    format      ascii;
    arch        "LSB;label=32;scalar=64";
    class       volScalarField;
    location    "750";
    object      nut;
}
// * * * * * * * * * * * * * * * * * * * * * * * * * * * * * * * * * * * * * //

dimensions      [0 2 -1 0 0 0 0];

internalField   nonuniform List<scalar> 
43008
(
0.000158331
0.000108541
0.000154173
0.000104789
0.000104783
8.35294e-05
8.51494e-05
8.40308e-05
0.000108518
0.000108505
0.000105633
0.000105619
8.38857e-05
0.000108541
0.000108503
0.000105655
0.000105616
0.000105661
0.000105627
8.51309e-05
8.40019e-05
0.000108525
0.000105654
0.000105641
8.37617e-05
8.33855e-05
0.000104761
0.00010475
8.35208e-05
0.000104785
0.000104747
0.000104758
8.33512e-05
0.000104772
6.51286e-05
4.9512e-05
6.39723e-05
4.95176e-05
2.36523e-05
6.51432e-05
4.95071e-05
6.39619e-05
4.95129e-05
0.000158326
0.000158321
0.000158317
0.000155206
0.000155201
0.000155195
0.000155192
6.15964e-05
0.000107544
6.22962e-05
0.000133383
2.36554e-05
2.36511e-05
6.16056e-05
0.000134456
6.16302e-05
0.00010754
6.08665e-05
0.000133377
6.22964e-05
8.4598e-05
5.9322e-05
5.93215e-05
6.77452e-05
4.95376e-05
6.66965e-05
4.95423e-05
2.3642e-05
2.36381e-05
6.77458e-05
4.95319e-05
6.66796e-05
4.95372e-05
0.000154169
0.000154162
0.00015416
6.41663e-05
6.37305e-05
0.000130147
0.000103917
6.33318e-05
6.43795e-05
0.000129102
2.3641e-05
2.36371e-05
6.41599e-05
0.000130135
6.37327e-05
0.000103915
6.33328e-05
0.000129095
6.44252e-05
6.00768e-05
6.0077e-05
8.30461e-05
6.04463e-05
6.04248e-05
2.36583e-05
2.36546e-05
2.36561e-05
2.36521e-05
5.89317e-05
5.89474e-05
8.47272e-05
5.93458e-05
5.93285e-05
2.36473e-05
2.36513e-05
2.36449e-05
2.3649e-05
8.41305e-05
5.99115e-05
5.98907e-05
5.95114e-05
5.95286e-05
6.51222e-05
4.95067e-05
6.39775e-05
4.9512e-05
6.16548e-05
6.16311e-05
0.000134459
0.000107517
6.08174e-05
6.2304e-05
0.000133378
6.16297e-05
6.16297e-05
0.000134451
0.000107503
6.08472e-05
6.22957e-05
0.000133372
6.53732e-05
4.95308e-05
4.95249e-05
6.64722e-05
6.53772e-05
4.95247e-05
4.95193e-05
6.64713e-05
6.20113e-05
0.000106585
6.33518e-05
0.000131219
6.26938e-05
0.000132282
6.2919e-05
6.20444e-05
0.000106572
6.33492e-05
0.000131215
6.26915e-05
0.000132277
6.2883e-05
8.46593e-05
5.9323e-05
5.93263e-05
2.36533e-05
2.3645e-05
2.36493e-05
8.42289e-05
5.98851e-05
5.98903e-05
5.95244e-05
5.95283e-05
2.36464e-05
2.36502e-05
6.16428e-05
6.16304e-05
0.000134457
0.00010754
6.08509e-05
6.23011e-05
0.000133378
6.51188e-05
4.95031e-05
6.39743e-05
4.95089e-05
6.16543e-05
0.000134446
6.16231e-05
0.0001075
6.08459e-05
0.000133367
6.22942e-05
6.53583e-05
4.95256e-05
4.95196e-05
6.64851e-05
6.20337e-05
0.000106607
6.33509e-05
0.000131221
6.26954e-05
0.000132283
6.28738e-05
6.53759e-05
4.95216e-05
4.95156e-05
6.64637e-05
6.2027e-05
0.00010657
0.000131209
6.33379e-05
0.000132269
6.26902e-05
6.28872e-05
6.51093e-05
4.95136e-05
6.16608e-05
0.000107511
0.000133376
6.22863e-05
6.5116e-05
4.95103e-05
6.20603e-05
0.000106615
6.33518e-05
0.000131224
6.26914e-05
0.00013229
6.28407e-05
6.53776e-05
4.95262e-05
4.95201e-05
6.64512e-05
6.20087e-05
0.000106582
0.000131218
6.33919e-05
0.000132281
6.26882e-05
6.29058e-05
6.53784e-05
4.95228e-05
4.95162e-05
6.64572e-05
5.89413e-05
5.89477e-05
8.48568e-05
5.93224e-05
5.9329e-05
2.36576e-05
2.36533e-05
2.3644e-05
2.36481e-05
8.41384e-05
5.98844e-05
5.98908e-05
5.95229e-05
5.95297e-05
2.36462e-05
2.36503e-05
6.16439e-05
0.000134452
6.16247e-05
0.000107526
6.08376e-05
0.000133374
6.23017e-05
6.51013e-05
4.9508e-05
6.39989e-05
4.95139e-05
6.51017e-05
4.95022e-05
6.39947e-05
4.95082e-05
6.20554e-05
0.000106609
0.000131217
6.33479e-05
0.00013228
6.26953e-05
6.28461e-05
6.20251e-05
0.000106595
0.000131215
6.33427e-05
0.000132276
6.26906e-05
6.285e-05
6.53954e-05
4.95265e-05
4.95206e-05
6.64471e-05
6.53923e-05
4.95209e-05
4.9515e-05
6.64454e-05
2.3652e-05
2.36507e-05
8.4377e-05
5.98857e-05
5.98846e-05
5.95238e-05
5.95236e-05
2.36448e-05
2.36489e-05
2.36436e-05
2.36477e-05
2.36441e-05
2.36403e-05
2.36419e-05
2.36381e-05
6.00673e-05
6.00835e-05
8.33298e-05
6.04487e-05
6.04534e-05
6.77347e-05
4.95306e-05
6.66943e-05
4.95367e-05
6.42068e-05
6.37294e-05
0.000130137
0.000103892
6.32795e-05
6.44363e-05
0.000129097
6.41677e-05
6.3726e-05
0.000130135
0.000103877
6.33146e-05
6.44254e-05
0.000129094
6.00776e-05
6.00824e-05
8.33411e-05
6.04461e-05
6.04306e-05
2.36434e-05
2.36395e-05
6.42034e-05
6.37292e-05
0.000130139
0.000103914
6.3313e-05
6.44298e-05
0.000129099
6.77197e-05
4.95277e-05
6.66967e-05
4.9533e-05
6.41676e-05
0.000130126
6.37346e-05
0.000103875
6.33019e-05
0.000129087
6.43846e-05
6.77167e-05
4.95328e-05
6.66985e-05
4.95374e-05
6.42159e-05
0.000130137
6.3702e-05
0.000103883
6.32858e-05
0.000129097
6.44212e-05
6.7726e-05
4.95286e-05
6.66985e-05
4.95339e-05
6.00777e-05
6.00847e-05
8.34538e-05
6.04239e-05
6.04335e-05
2.36432e-05
2.36394e-05
6.41412e-05
0.000130132
6.37363e-05
0.000103901
6.33231e-05
0.000129092
6.43877e-05
6.77284e-05
4.95327e-05
6.67118e-05
4.95381e-05
6.77279e-05
4.9527e-05
6.67103e-05
4.95325e-05
2.36419e-05
2.3638e-05
2.36407e-05
2.36368e-05
3.61703e-05
6.46812e-05
4.0305e-05
6.75468e-05
4.03028e-05
6.71567e-05
3.61732e-05
2.0241e-05
6.67622e-05
4.95113e-05
2.02405e-05
6.69255e-05
3.61701e-05
6.44288e-05
4.03009e-05
6.66407e-05
3.61673e-05
4.03027e-05
6.70356e-05
2.02377e-05
6.71437e-05
4.95183e-05
6.6981e-05
2.02382e-05
2.36559e-05
2.36529e-05
3.61703e-05
6.467e-05
6.755e-05
4.03046e-05
6.715e-05
4.03023e-05
3.61732e-05
2.02414e-05
6.67482e-05
4.95065e-05
2.02409e-05
6.69296e-05
3.61701e-05
6.44405e-05
6.6634e-05
4.03004e-05
3.61674e-05
6.70384e-05
4.03023e-05
2.02381e-05
6.71485e-05
4.95133e-05
6.69714e-05
2.02386e-05
2.36548e-05
2.36517e-05
6.93158e-05
2.15791e-05
2.15759e-05
2.1579e-05
2.15758e-05
6.94735e-05
7.01586e-05
5.90291e-05
6.60128e-05
4.7038e-05
7.02044e-05
5.9028e-05
6.60126e-05
4.70274e-05
6.92614e-05
2.15824e-05
2.15792e-05
7.0522e-05
4.7054e-05
5.9236e-05
6.66544e-05
6.6479e-05
4.70476e-05
7.06595e-05
7.05659e-05
4.70442e-05
5.92357e-05
6.66715e-05
6.64984e-05
4.7039e-05
7.07063e-05
3.61839e-05
6.73242e-05
4.03208e-05
6.94456e-05
4.03209e-05
6.90782e-05
3.61869e-05
2.02298e-05
6.7612e-05
4.95368e-05
2.02294e-05
6.77496e-05
3.61834e-05
6.71099e-05
4.03143e-05
6.86203e-05
3.61803e-05
4.03168e-05
6.89928e-05
2.02265e-05
6.7939e-05
4.95429e-05
6.78031e-05
2.02269e-05
2.36415e-05
2.36385e-05
3.61838e-05
6.73138e-05
6.9443e-05
4.03205e-05
6.90724e-05
4.03201e-05
3.61868e-05
2.02301e-05
6.75987e-05
4.95317e-05
2.02296e-05
6.77527e-05
3.61834e-05
6.71254e-05
6.86126e-05
4.03135e-05
3.61803e-05
6.89926e-05
4.03166e-05
2.02268e-05
6.79386e-05
4.95376e-05
6.77952e-05
2.02273e-05
2.36405e-05
2.36376e-05
7.01211e-05
2.15656e-05
2.15624e-05
2.15655e-05
2.15623e-05
7.02603e-05
7.20914e-05
6.8423e-05
4.70951e-05
6.01605e-05
7.19493e-05
6.86079e-05
4.71002e-05
7.21588e-05
6.84297e-05
4.70866e-05
6.01582e-05
7.19922e-05
6.8624e-05
4.70904e-05
7.00737e-05
2.15689e-05
2.15657e-05
6.99282e-05
2.15689e-05
2.15658e-05
7.24245e-05
4.71138e-05
6.03415e-05
6.92657e-05
6.90634e-05
4.71099e-05
7.25528e-05
7.24542e-05
4.7104e-05
6.03448e-05
6.92724e-05
6.90736e-05
4.71011e-05
7.26161e-05
2.36581e-05
2.36549e-05
2.36555e-05
2.36526e-05
6.93225e-05
2.15797e-05
2.15765e-05
2.15796e-05
2.15764e-05
6.94772e-05
7.01603e-05
6.58219e-05
4.70318e-05
5.90537e-05
7.00262e-05
4.70417e-05
6.60285e-05
7.02063e-05
6.58225e-05
4.70212e-05
5.90365e-05
7.00641e-05
4.70306e-05
6.60408e-05
6.92637e-05
2.15829e-05
2.15797e-05
6.91065e-05
2.1583e-05
2.15798e-05
7.05243e-05
4.70581e-05
5.92245e-05
6.66766e-05
4.70488e-05
7.06589e-05
6.64739e-05
7.05671e-05
4.70469e-05
5.92417e-05
6.66903e-05
4.70384e-05
7.07056e-05
6.64739e-05
2.36477e-05
2.3651e-05
2.36455e-05
2.36485e-05
6.96832e-05
2.15762e-05
2.1573e-05
6.95326e-05
2.15765e-05
2.15731e-05
7.14986e-05
6.797e-05
5.97965e-05
4.70891e-05
4.70826e-05
6.77689e-05
7.16279e-05
7.1542e-05
6.79699e-05
5.98076e-05
4.70781e-05
4.70717e-05
6.77694e-05
7.16714e-05
7.11475e-05
4.70653e-05
6.7124e-05
5.96338e-05
7.10158e-05
4.70741e-05
6.73184e-05
7.11938e-05
4.70543e-05
6.71255e-05
5.96132e-05
7.10579e-05
4.70633e-05
6.73284e-05
6.9738e-05
2.15733e-05
2.15697e-05
2.15733e-05
2.15696e-05
6.98844e-05
3.61689e-05
6.46849e-05
4.03049e-05
6.75499e-05
4.03027e-05
6.7143e-05
3.61719e-05
2.02403e-05
6.67357e-05
4.95059e-05
2.02399e-05
6.69165e-05
3.61688e-05
6.44223e-05
4.03007e-05
6.66235e-05
4.03025e-05
3.6166e-05
6.70385e-05
2.0237e-05
6.71227e-05
4.95126e-05
6.69548e-05
2.02375e-05
3.61765e-05
4.03056e-05
6.76601e-05
6.5808e-05
3.61735e-05
4.03083e-05
6.80433e-05
2.02321e-05
4.95316e-05
6.75567e-05
2.02326e-05
6.74028e-05
2.02354e-05
6.72032e-05
4.95251e-05
2.02349e-05
6.73536e-05
3.61768e-05
6.60458e-05
4.03123e-05
6.85247e-05
3.61799e-05
4.03093e-05
6.81477e-05
3.61751e-05
4.03054e-05
6.76441e-05
6.58076e-05
3.61721e-05
4.03082e-05
6.80458e-05
2.02315e-05
4.95255e-05
6.75419e-05
6.73786e-05
2.0232e-05
2.02347e-05
6.71758e-05
4.9519e-05
2.02343e-05
6.73427e-05
3.61754e-05
6.60462e-05
4.03125e-05
6.85277e-05
4.0309e-05
6.81317e-05
3.61785e-05
6.93161e-05
2.15765e-05
2.15794e-05
2.15763e-05
2.15792e-05
6.94816e-05
7.02343e-05
5.90313e-05
4.70332e-05
6.60564e-05
7.01885e-05
5.90351e-05
6.60585e-05
4.7043e-05
6.92696e-05
2.15796e-05
2.15825e-05
7.05392e-05
4.70498e-05
5.92359e-05
6.67084e-05
4.70341e-05
6.64538e-05
7.07363e-05
7.04906e-05
4.70597e-05
5.92413e-05
6.67086e-05
6.64481e-05
4.70441e-05
7.06917e-05
2.36569e-05
2.36538e-05
2.36456e-05
2.36486e-05
6.96872e-05
2.1573e-05
2.15759e-05
6.95274e-05
2.15731e-05
2.1576e-05
7.15103e-05
6.79837e-05
5.98025e-05
4.70816e-05
6.77694e-05
4.70658e-05
7.17087e-05
7.14631e-05
6.80043e-05
5.98071e-05
4.70912e-05
4.70759e-05
6.77426e-05
7.16649e-05
7.12212e-05
4.70506e-05
6.71127e-05
5.96088e-05
6.73372e-05
7.10299e-05
4.70653e-05
7.11767e-05
4.70607e-05
6.70935e-05
5.96145e-05
7.09827e-05
4.70754e-05
6.73549e-05
6.97314e-05
2.15699e-05
2.15726e-05
2.15696e-05
2.15725e-05
6.9887e-05
2.36469e-05
2.365e-05
3.61685e-05
6.46817e-05
4.03043e-05
6.75444e-05
4.03021e-05
6.71424e-05
3.61714e-05
2.02404e-05
6.67379e-05
4.95025e-05
2.02399e-05
6.69013e-05
3.61683e-05
6.4422e-05
4.03002e-05
6.66223e-05
4.03019e-05
3.61656e-05
6.70347e-05
2.0237e-05
6.71238e-05
4.95091e-05
6.69516e-05
2.02375e-05
3.61764e-05
6.76519e-05
4.0305e-05
6.58225e-05
3.61735e-05
6.80464e-05
4.0308e-05
2.02325e-05
4.95262e-05
6.75604e-05
2.02329e-05
6.73994e-05
2.02358e-05
6.71852e-05
4.952e-05
2.02353e-05
6.73597e-05
3.61768e-05
6.603e-05
6.85276e-05
4.03121e-05
3.61799e-05
6.81395e-05
4.03087e-05
3.61747e-05
4.03049e-05
6.76435e-05
6.58032e-05
3.61716e-05
4.03076e-05
6.80394e-05
2.02314e-05
4.95224e-05
6.75344e-05
6.73779e-05
2.02318e-05
2.02347e-05
6.71734e-05
4.95159e-05
2.02342e-05
6.73291e-05
3.6175e-05
6.60453e-05
4.03116e-05
6.852e-05
4.03086e-05
6.81324e-05
3.61781e-05
3.617e-05
6.46911e-05
6.75163e-05
4.03039e-05
6.71686e-05
4.03016e-05
3.61729e-05
2.0238e-05
6.71383e-05
4.95149e-05
6.69663e-05
2.02386e-05
3.61691e-05
6.46876e-05
4.03046e-05
6.7546e-05
4.03025e-05
6.71438e-05
3.61719e-05
2.02374e-05
6.71177e-05
4.95111e-05
6.696e-05
2.02379e-05
3.61762e-05
6.76685e-05
4.03042e-05
6.5788e-05
3.61732e-05
6.80116e-05
4.03073e-05
2.02324e-05
4.95275e-05
6.75471e-05
6.73909e-05
2.02329e-05
2.02358e-05
6.71751e-05
4.95205e-05
2.02352e-05
6.73461e-05
3.61765e-05
6.6047e-05
6.84956e-05
4.03117e-05
6.8155e-05
4.03077e-05
3.61796e-05
3.61752e-05
4.03052e-05
6.76456e-05
6.57971e-05
3.61722e-05
4.0308e-05
6.80386e-05
2.02317e-05
4.95233e-05
6.75322e-05
6.73801e-05
2.02321e-05
2.0235e-05
6.71666e-05
4.9517e-05
2.02346e-05
6.73325e-05
3.61755e-05
6.6049e-05
4.03123e-05
6.85209e-05
4.03087e-05
6.81341e-05
3.61786e-05
6.93136e-05
2.15767e-05
2.15798e-05
2.15765e-05
2.15797e-05
6.94797e-05
7.02141e-05
6.58321e-05
4.70177e-05
5.90297e-05
4.70332e-05
7.00536e-05
6.60296e-05
7.01615e-05
6.5835e-05
4.70342e-05
5.90368e-05
6.60189e-05
7.00222e-05
4.70399e-05
6.9267e-05
2.15799e-05
2.1583e-05
2.15801e-05
6.90962e-05
2.15832e-05
7.05594e-05
4.70491e-05
5.92366e-05
6.66764e-05
4.70359e-05
6.6488e-05
7.07149e-05
7.05248e-05
4.70564e-05
5.92431e-05
6.66659e-05
6.64851e-05
4.70507e-05
7.06604e-05
2.36569e-05
2.36539e-05
2.36445e-05
2.36475e-05
6.96852e-05
2.15732e-05
2.15763e-05
6.95262e-05
2.15733e-05
2.15764e-05
7.15314e-05
6.79629e-05
5.9802e-05
4.70783e-05
6.77764e-05
4.70703e-05
7.16815e-05
7.14982e-05
6.79563e-05
5.98089e-05
4.70891e-05
4.7082e-05
6.77741e-05
7.16322e-05
7.12064e-05
4.70534e-05
6.71364e-05
5.96077e-05
6.73223e-05
7.10502e-05
4.70635e-05
7.11479e-05
4.70672e-05
6.71354e-05
5.96144e-05
7.10175e-05
4.70733e-05
6.73165e-05
6.97297e-05
2.15699e-05
2.15731e-05
2.15698e-05
2.1573e-05
6.98842e-05
2.36467e-05
2.36497e-05
3.61707e-05
6.47042e-05
6.75423e-05
4.03042e-05
6.71597e-05
4.03021e-05
3.61735e-05
2.0242e-05
6.67541e-05
4.95076e-05
6.69269e-05
2.02415e-05
3.61704e-05
6.44025e-05
6.66415e-05
4.03001e-05
6.70304e-05
3.61677e-05
4.03019e-05
2.02387e-05
6.7141e-05
4.9514e-05
6.69782e-05
2.02392e-05
3.61678e-05
6.47009e-05
6.75447e-05
4.03036e-05
6.71428e-05
4.03015e-05
3.61708e-05
2.02401e-05
6.67274e-05
4.95017e-05
2.02395e-05
6.69123e-05
3.61677e-05
6.44034e-05
6.66235e-05
4.02995e-05
3.61649e-05
6.70329e-05
4.03013e-05
2.02367e-05
6.71302e-05
4.95083e-05
6.69491e-05
2.02373e-05
3.61768e-05
6.76614e-05
4.03048e-05
6.57888e-05
3.61738e-05
6.80367e-05
4.03076e-05
2.02331e-05
4.95275e-05
6.75545e-05
6.73999e-05
2.02335e-05
2.02364e-05
6.71851e-05
4.9521e-05
2.02359e-05
6.73548e-05
3.61772e-05
6.60632e-05
6.85206e-05
4.03119e-05
6.81496e-05
4.03084e-05
3.61802e-05
3.61741e-05
6.76436e-05
4.03042e-05
6.5785e-05
3.6171e-05
6.80402e-05
4.0307e-05
2.02311e-05
4.95214e-05
6.75396e-05
6.73754e-05
2.02317e-05
2.02345e-05
6.71637e-05
4.95151e-05
2.02339e-05
6.7336e-05
3.61743e-05
6.60622e-05
6.85216e-05
4.03113e-05
6.81321e-05
4.03078e-05
3.61775e-05
2.36556e-05
2.36526e-05
2.36543e-05
2.36513e-05
6.96795e-05
2.15756e-05
2.15724e-05
6.95259e-05
2.15757e-05
2.15725e-05
7.14711e-05
6.79445e-05
5.98021e-05
4.70854e-05
7.16549e-05
6.77751e-05
4.70802e-05
7.15204e-05
6.79726e-05
5.9802e-05
4.70757e-05
7.16963e-05
6.77814e-05
4.70716e-05
7.11781e-05
4.70635e-05
6.71318e-05
5.96102e-05
7.1003e-05
6.73093e-05
4.70707e-05
7.12195e-05
4.70545e-05
6.7143e-05
5.96086e-05
7.10493e-05
6.73273e-05
4.7061e-05
6.97302e-05
2.15723e-05
2.15691e-05
6.98797e-05
2.15722e-05
2.15691e-05
2.36454e-05
2.36484e-05
2.36441e-05
2.36472e-05
2.36436e-05
2.36405e-05
2.36415e-05
2.36385e-05
7.01292e-05
2.15664e-05
2.15627e-05
2.15664e-05
2.15628e-05
7.0265e-05
7.20986e-05
6.84192e-05
4.70972e-05
6.01821e-05
7.19696e-05
4.71039e-05
6.86135e-05
7.21426e-05
6.84295e-05
4.70862e-05
6.01665e-05
7.20135e-05
4.70928e-05
6.86167e-05
7.00779e-05
2.15699e-05
2.15662e-05
6.99345e-05
2.157e-05
2.15663e-05
7.24282e-05
4.71174e-05
6.03376e-05
6.9247e-05
4.71127e-05
7.25516e-05
6.90661e-05
7.24724e-05
4.71063e-05
6.03466e-05
6.92648e-05
4.71018e-05
7.2595e-05
6.90747e-05
3.61823e-05
6.73244e-05
4.0325e-05
6.94481e-05
4.0317e-05
6.90629e-05
3.61856e-05
2.02291e-05
6.75824e-05
4.95311e-05
2.02287e-05
6.77332e-05
3.6182e-05
6.71146e-05
4.03133e-05
6.86035e-05
4.03179e-05
3.61788e-05
6.8996e-05
2.02258e-05
6.79221e-05
4.95371e-05
6.7778e-05
2.02263e-05
7.01228e-05
2.15633e-05
2.15659e-05
2.15631e-05
2.15658e-05
7.02685e-05
7.21638e-05
6.84151e-05
4.70828e-05
6.01601e-05
4.70971e-05
7.19795e-05
6.86364e-05
7.20996e-05
6.83914e-05
4.7092e-05
6.0166e-05
6.86356e-05
7.19385e-05
4.71061e-05
7.00815e-05
2.15665e-05
2.15691e-05
2.15666e-05
6.993e-05
2.15692e-05
7.24547e-05
4.7112e-05
6.03404e-05
6.92901e-05
4.70972e-05
6.90576e-05
7.26088e-05
7.24226e-05
4.71211e-05
6.03503e-05
6.92775e-05
6.9043e-05
4.71064e-05
7.25502e-05
2.3643e-05
2.364e-05
3.61819e-05
6.73259e-05
4.032e-05
6.94367e-05
4.03203e-05
6.90676e-05
3.61851e-05
2.0229e-05
6.75839e-05
4.95276e-05
2.02286e-05
6.77277e-05
3.61816e-05
6.71053e-05
4.03136e-05
6.86055e-05
4.0316e-05
3.61784e-05
6.89856e-05
2.02257e-05
6.79188e-05
4.95339e-05
6.77751e-05
2.02261e-05
3.61834e-05
6.73322e-05
6.94169e-05
4.03244e-05
6.90845e-05
4.03151e-05
3.61867e-05
2.02301e-05
6.75888e-05
4.95323e-05
6.7743e-05
2.02295e-05
3.61831e-05
6.70904e-05
6.8625e-05
4.03117e-05
6.89642e-05
3.61799e-05
4.03172e-05
2.02267e-05
6.79316e-05
4.95391e-05
6.7788e-05
2.02272e-05
3.61823e-05
6.73316e-05
4.0325e-05
6.94417e-05
4.03161e-05
6.90648e-05
3.61856e-05
2.02293e-05
6.75792e-05
4.95287e-05
2.02288e-05
6.77299e-05
3.61821e-05
6.71036e-05
4.03128e-05
6.86057e-05
3.61789e-05
4.03178e-05
6.89878e-05
2.0226e-05
6.79178e-05
4.95351e-05
6.77766e-05
2.02264e-05
7.012e-05
2.15632e-05
2.15664e-05
2.15631e-05
2.15663e-05
7.02669e-05
7.21559e-05
6.84342e-05
4.70857e-05
6.01598e-05
4.70934e-05
7.20051e-05
6.86155e-05
7.21243e-05
6.84212e-05
4.70968e-05
6.01665e-05
6.86402e-05
7.19643e-05
4.71039e-05
7.00769e-05
2.15665e-05
2.15696e-05
2.15666e-05
6.99298e-05
2.15697e-05
7.24586e-05
4.71074e-05
6.03453e-05
6.92463e-05
4.71005e-05
6.9077e-05
7.26158e-05
7.24161e-05
4.71181e-05
6.03516e-05
6.92766e-05
6.90524e-05
4.71119e-05
7.25883e-05
2.36428e-05
2.36398e-05
3.61841e-05
6.73391e-05
6.94398e-05
4.03247e-05
6.90787e-05
4.03159e-05
3.61873e-05
2.02307e-05
6.75999e-05
4.95327e-05
6.7752e-05
2.02302e-05
3.61837e-05
6.70974e-05
6.86205e-05
4.03126e-05
6.89881e-05
3.61806e-05
4.03174e-05
2.02273e-05
6.79413e-05
4.95389e-05
6.77945e-05
2.02278e-05
3.61813e-05
6.73367e-05
6.94419e-05
4.03241e-05
6.90648e-05
4.03152e-05
3.61846e-05
2.02288e-05
6.75758e-05
4.9527e-05
2.02283e-05
6.77361e-05
3.6181e-05
6.7096e-05
6.8604e-05
4.0312e-05
3.61778e-05
6.89891e-05
4.03169e-05
2.02255e-05
6.79269e-05
4.95333e-05
6.77714e-05
2.02259e-05
2.36414e-05
2.36384e-05
2.36401e-05
2.36372e-05
0.000180014
0.000180024
0.000157284
0.000179149
0.00017916
0.000197123
0.000197824
6.87913e-05
8.50933e-05
7.02472e-05
7.02376e-05
0.000176564
0.000176573
0.000153134
0.000175703
0.000175713
0.000194316
0.000195018
7.14952e-05
7.13556e-05
7.13579e-05
8.33952e-05
7.12708e-05
7.12795e-05
7.12597e-05
6.88319e-05
7.02929e-05
7.02888e-05
8.53379e-05
6.86595e-05
7.04002e-05
7.03929e-05
7.06335e-05
8.37471e-05
7.11212e-05
7.10726e-05
7.09658e-05
7.09406e-05
7.08043e-05
6.88936e-05
8.51474e-05
7.04409e-05
7.02843e-05
7.0583e-05
8.37751e-05
7.09767e-05
7.11907e-05
7.1066e-05
7.09264e-05
7.08677e-05
6.88052e-05
7.02503e-05
7.03743e-05
8.52943e-05
7.03129e-05
6.8678e-05
7.04745e-05
7.06486e-05
8.37235e-05
7.12024e-05
7.10216e-05
7.08872e-05
7.1042e-05
7.07899e-05
7.06096e-05
8.38787e-05
7.09859e-05
7.09533e-05
7.08523e-05
7.10395e-05
7.10506e-05
7.14874e-05
7.12666e-05
7.12552e-05
8.36966e-05
7.12964e-05
7.14446e-05
7.15322e-05
7.15044e-05
7.1323e-05
7.1203e-05
8.35254e-05
7.14644e-05
7.12405e-05
7.13926e-05
7.14585e-05
7.12047e-05
7.13373e-05
8.36631e-05
7.13498e-05
7.13164e-05
7.14143e-05
0.000180011
0.000180023
0.000157279
0.000179147
0.000179157
0.000197122
0.000197823
0.000180008
0.000180017
0.000157273
0.000179143
0.000179152
0.000197118
0.000197818
0.000180008
0.000180013
0.00015727
0.000179143
0.000179149
0.000197116
0.000197817
0.000156249
0.000177424
0.000177434
0.000178286
0.000178296
0.000196422
0.00019572
0.000156245
0.000177421
0.000177431
0.000178283
0.000178295
0.000196421
0.000195719
0.000156238
0.000177417
0.000177427
0.000178279
0.000178289
0.000196416
0.000195715
0.000156236
0.000177417
0.000177424
0.00017828
0.000178286
0.000196415
0.000195713
7.30073e-05
6.14473e-05
6.32326e-05
7.66849e-05
6.29502e-05
7.69468e-05
7.31043e-05
6.70303e-05
6.37351e-05
6.21594e-05
6.5109e-05
6.507e-05
6.36116e-05
6.68616e-05
7.30511e-05
6.1448e-05
7.67568e-05
6.31848e-05
7.68768e-05
6.30143e-05
7.30274e-05
6.67548e-05
6.46562e-05
6.29948e-05
6.17652e-05
6.68949e-05
6.46465e-05
6.31278e-05
7.32049e-05
6.10147e-05
7.7268e-05
6.23706e-05
7.3252e-05
7.71517e-05
6.25267e-05
6.69981e-05
6.37508e-05
6.21695e-05
6.50674e-05
6.50962e-05
6.3625e-05
6.68796e-05
6.93338e-05
8.47773e-05
7.04729e-05
7.04591e-05
7.05904e-05
7.05927e-05
6.94722e-05
0.000176561
0.000176573
0.000153129
0.0001757
0.00017571
0.000194315
0.000195017
0.000176556
0.000176566
0.000153123
0.000175696
0.000175706
0.00019431
0.000195012
0.000176557
0.000176563
0.00015312
0.000175695
0.000175704
0.000194309
0.000195011
7.24341e-05
6.39874e-05
6.58502e-05
7.55353e-05
6.56554e-05
7.57566e-05
7.25331e-05
6.74328e-05
6.64264e-05
6.55085e-05
6.38716e-05
6.75717e-05
6.65102e-05
6.56655e-05
7.2756e-05
6.35001e-05
6.49512e-05
7.60035e-05
7.25665e-05
6.52326e-05
7.57947e-05
6.78086e-05
6.63192e-05
6.4247e-05
6.69967e-05
6.69368e-05
6.61352e-05
6.76433e-05
7.23824e-05
6.39947e-05
7.5766e-05
6.58541e-05
7.56611e-05
6.56932e-05
7.25721e-05
6.74603e-05
6.64578e-05
6.55273e-05
6.38766e-05
6.75855e-05
6.64576e-05
6.56382e-05
7.25666e-05
6.35022e-05
7.59327e-05
6.50063e-05
7.25791e-05
7.58588e-05
6.51825e-05
6.77596e-05
6.62839e-05
6.42481e-05
6.69294e-05
6.69762e-05
6.61582e-05
6.78281e-05
7.19287e-05
8.32215e-05
7.15437e-05
7.15529e-05
7.17111e-05
7.1708e-05
7.21668e-05
6.93153e-05
8.46072e-05
7.06355e-05
7.05869e-05
6.9494e-05
7.05183e-05
7.05095e-05
7.01473e-05
8.43562e-05
7.07079e-05
7.07235e-05
6.99725e-05
7.07921e-05
7.07975e-05
7.29347e-05
6.14171e-05
6.32592e-05
7.69342e-05
6.2955e-05
7.67684e-05
7.32626e-05
6.67584e-05
6.46242e-05
6.29941e-05
6.17681e-05
6.31247e-05
6.69017e-05
6.46775e-05
7.3489e-05
6.10641e-05
6.23025e-05
7.7137e-05
6.26048e-05
7.31736e-05
7.73182e-05
6.70047e-05
6.3762e-05
6.21665e-05
6.50957e-05
6.36335e-05
6.50583e-05
6.6887e-05
7.31864e-05
6.14407e-05
6.32063e-05
7.69377e-05
6.2989e-05
7.67644e-05
7.29658e-05
6.67354e-05
6.45731e-05
6.29952e-05
6.17621e-05
6.69118e-05
6.31058e-05
6.47382e-05
7.32158e-05
6.10281e-05
6.23416e-05
7.71323e-05
7.33182e-05
6.25578e-05
7.73167e-05
6.70158e-05
6.37502e-05
6.21652e-05
6.51668e-05
6.36292e-05
6.68716e-05
6.50034e-05
7.30849e-05
6.36115e-05
7.63854e-05
6.22862e-05
7.2742e-05
6.38952e-05
7.65859e-05
6.73587e-05
6.59887e-05
6.32123e-05
6.5011e-05
6.59678e-05
6.48762e-05
6.72596e-05
6.70377e-05
6.42592e-05
6.5502e-05
6.28297e-05
6.55321e-05
6.7159e-05
6.43917e-05
7.25628e-05
6.26334e-05
6.45677e-05
7.63064e-05
6.42867e-05
7.60794e-05
7.29637e-05
7.27869e-05
6.36485e-05
7.6386e-05
6.22474e-05
7.30258e-05
6.3857e-05
7.65886e-05
6.737e-05
6.60493e-05
6.32088e-05
6.50075e-05
6.48691e-05
6.59019e-05
6.72336e-05
6.70093e-05
6.42545e-05
6.54446e-05
6.28271e-05
6.71699e-05
6.43805e-05
6.55539e-05
7.28754e-05
6.26652e-05
6.45234e-05
7.63006e-05
6.4319e-05
7.60829e-05
7.26487e-05
6.92604e-05
8.47231e-05
7.04866e-05
7.06696e-05
7.0449e-05
7.05827e-05
6.9537e-05
7.01939e-05
8.42578e-05
7.08086e-05
7.06609e-05
7.07164e-05
6.99225e-05
7.092e-05
7.31674e-05
6.14273e-05
6.31893e-05
7.66853e-05
6.30028e-05
7.69443e-05
7.29458e-05
6.67566e-05
6.45708e-05
6.29901e-05
6.17656e-05
6.31264e-05
6.69096e-05
6.47342e-05
7.31551e-05
6.10455e-05
6.23578e-05
7.7313e-05
6.25369e-05
7.33884e-05
7.70798e-05
6.70138e-05
6.37608e-05
6.21688e-05
6.51749e-05
6.36265e-05
6.50094e-05
6.68872e-05
7.29315e-05
6.1423e-05
7.66898e-05
6.32153e-05
7.69435e-05
6.29855e-05
7.32564e-05
6.67396e-05
6.46404e-05
6.29779e-05
6.1761e-05
6.68979e-05
6.31212e-05
6.46452e-05
7.34789e-05
6.1048e-05
7.73086e-05
6.23388e-05
7.31709e-05
7.70838e-05
6.25553e-05
6.70007e-05
6.37494e-05
6.2164e-05
6.50882e-05
6.36106e-05
6.68735e-05
6.50784e-05
7.28189e-05
6.36674e-05
7.65773e-05
6.2248e-05
7.30411e-05
6.38303e-05
7.63298e-05
6.73722e-05
6.61002e-05
6.32132e-05
6.50184e-05
6.58922e-05
6.48855e-05
6.72579e-05
6.70365e-05
6.42633e-05
6.54401e-05
6.28245e-05
6.55697e-05
6.71695e-05
6.43821e-05
7.2883e-05
6.26624e-05
6.45123e-05
7.60267e-05
6.43435e-05
7.62745e-05
7.26653e-05
7.30752e-05
7.6582e-05
6.36378e-05
6.22545e-05
7.27408e-05
7.63356e-05
6.38803e-05
6.73527e-05
6.59647e-05
6.32116e-05
6.50386e-05
6.4868e-05
6.59409e-05
6.72617e-05
6.70242e-05
6.42398e-05
6.55079e-05
6.28193e-05
6.7157e-05
6.44022e-05
6.55167e-05
7.25663e-05
6.26549e-05
7.60315e-05
6.45505e-05
7.62737e-05
6.42988e-05
7.29541e-05
7.31697e-05
6.14062e-05
7.66631e-05
6.31773e-05
7.69197e-05
6.30005e-05
7.29521e-05
6.70362e-05
6.37296e-05
6.21595e-05
6.50873e-05
6.50049e-05
6.36149e-05
6.68702e-05
7.29434e-05
6.36029e-05
7.658e-05
6.22106e-05
7.28154e-05
6.39038e-05
7.63402e-05
6.73739e-05
6.60341e-05
6.32084e-05
6.50165e-05
6.72403e-05
6.59537e-05
6.48723e-05
6.70231e-05
6.42575e-05
6.55014e-05
6.28273e-05
6.71736e-05
6.55556e-05
6.43898e-05
7.26335e-05
6.26853e-05
6.45537e-05
7.60351e-05
7.28566e-05
6.42744e-05
7.62701e-05
7.27444e-05
7.65788e-05
6.36612e-05
6.22824e-05
7.30029e-05
7.63407e-05
6.38425e-05
6.73701e-05
6.59996e-05
6.32002e-05
6.50197e-05
6.48677e-05
6.59072e-05
6.72309e-05
6.70178e-05
6.42517e-05
6.54792e-05
6.28361e-05
6.71783e-05
6.43866e-05
6.55624e-05
7.28543e-05
6.26314e-05
7.60371e-05
6.45044e-05
7.62663e-05
6.43277e-05
7.26282e-05
6.93366e-05
8.4588e-05
7.06789e-05
7.05393e-05
7.05655e-05
7.04223e-05
6.94741e-05
7.01428e-05
8.43731e-05
7.06327e-05
7.07964e-05
7.09607e-05
6.99947e-05
7.07439e-05
7.29294e-05
6.14183e-05
7.6765e-05
6.32122e-05
7.68729e-05
6.29727e-05
7.32586e-05
6.70456e-05
6.46484e-05
6.29019e-05
6.17604e-05
6.46514e-05
6.66833e-05
6.32066e-05
7.34761e-05
6.10447e-05
7.72638e-05
6.23026e-05
7.71509e-05
7.31824e-05
6.2571e-05
6.67699e-05
6.37965e-05
6.21651e-05
6.51002e-05
6.50864e-05
6.35467e-05
6.71588e-05
7.28497e-05
7.65189e-05
6.36644e-05
6.22149e-05
7.28906e-05
7.64002e-05
6.38532e-05
6.73528e-05
6.59523e-05
6.32131e-05
6.49961e-05
6.72579e-05
6.59633e-05
6.48913e-05
6.7029e-05
6.4261e-05
6.55233e-05
6.28299e-05
6.71553e-05
6.55255e-05
6.43843e-05
7.27217e-05
6.26859e-05
7.60947e-05
6.45229e-05
7.26778e-05
7.62046e-05
6.43277e-05
7.30768e-05
7.65135e-05
6.36225e-05
6.22295e-05
7.27411e-05
7.64073e-05
6.38723e-05
6.72247e-05
6.59944e-05
6.32104e-05
6.50532e-05
6.48377e-05
6.59434e-05
6.73955e-05
6.72412e-05
6.42072e-05
6.55111e-05
6.28188e-05
6.69491e-05
6.44108e-05
6.55348e-05
7.25644e-05
6.26654e-05
7.61035e-05
6.4561e-05
7.61976e-05
6.42919e-05
7.2956e-05
7.01792e-05
8.41656e-05
7.08196e-05
7.08195e-05
6.99698e-05
7.07193e-05
7.07044e-05
7.19504e-05
8.29883e-05
7.1775e-05
7.17636e-05
7.20991e-05
7.15555e-05
7.15288e-05
7.2324e-05
6.39609e-05
6.5911e-05
7.58188e-05
6.56574e-05
7.55737e-05
7.27872e-05
6.75899e-05
6.64525e-05
6.55212e-05
6.39146e-05
6.56836e-05
6.75495e-05
6.64539e-05
7.28822e-05
6.35483e-05
6.49645e-05
7.57909e-05
6.52384e-05
7.24457e-05
7.60199e-05
6.7708e-05
6.63116e-05
6.42199e-05
6.694e-05
6.61153e-05
6.69533e-05
6.78761e-05
7.25778e-05
6.39805e-05
6.59324e-05
7.58232e-05
6.56605e-05
7.55802e-05
7.24533e-05
6.74396e-05
6.64143e-05
6.55079e-05
6.39066e-05
6.75891e-05
6.56701e-05
6.64604e-05
7.25422e-05
6.35125e-05
6.49931e-05
7.5804e-05
7.27526e-05
6.52248e-05
7.60215e-05
6.78189e-05
6.63307e-05
6.42206e-05
6.69811e-05
6.61248e-05
6.76489e-05
6.69333e-05
7.19365e-05
8.30944e-05
7.16518e-05
7.17833e-05
7.15277e-05
7.1638e-05
7.21142e-05
7.25226e-05
6.39681e-05
6.58744e-05
7.56909e-05
6.56991e-05
7.57334e-05
7.26229e-05
6.75846e-05
6.63705e-05
6.55284e-05
6.39165e-05
6.56546e-05
6.75604e-05
6.65836e-05
7.25544e-05
6.35279e-05
6.50195e-05
7.5993e-05
6.51854e-05
7.27433e-05
7.5827e-05
6.77165e-05
6.62929e-05
6.42189e-05
6.70966e-05
6.61429e-05
6.68669e-05
6.78747e-05
7.23312e-05
6.39765e-05
7.56959e-05
6.59054e-05
7.57354e-05
6.56653e-05
7.27674e-05
6.77311e-05
6.64485e-05
6.54923e-05
6.38738e-05
6.75037e-05
6.5667e-05
6.64985e-05
7.28673e-05
6.35216e-05
7.59919e-05
6.49743e-05
7.24518e-05
7.58211e-05
6.52071e-05
6.76325e-05
6.62923e-05
6.42359e-05
6.70786e-05
6.61245e-05
6.79502e-05
6.69202e-05
7.25657e-05
6.3951e-05
7.57208e-05
6.58457e-05
7.57106e-05
6.56957e-05
7.24462e-05
6.74502e-05
6.64224e-05
6.54942e-05
6.39089e-05
6.64874e-05
6.7576e-05
6.5701e-05
7.25319e-05
6.35536e-05
7.59786e-05
6.50117e-05
7.58417e-05
7.27438e-05
6.5169e-05
6.77944e-05
6.63229e-05
6.42131e-05
6.69208e-05
6.692e-05
6.61069e-05
6.78141e-05
7.19673e-05
8.30221e-05
7.17316e-05
7.16748e-05
7.16236e-05
7.15519e-05
7.21854e-05
7.23238e-05
6.39829e-05
7.56001e-05
6.59325e-05
7.56703e-05
6.56547e-05
7.27855e-05
6.76282e-05
6.64489e-05
6.54747e-05
6.3871e-05
6.65118e-05
6.75013e-05
6.57063e-05
7.28677e-05
6.3501e-05
7.59429e-05
6.49607e-05
7.58327e-05
7.24532e-05
6.52308e-05
6.76892e-05
6.63481e-05
6.42388e-05
6.70514e-05
6.6907e-05
6.6086e-05
6.78808e-05
0.000233969
0.000233541
0.00023354
0.00023343
0.00023252
0.000227499
0.000227491
0.000223665
0.000230464
0.000220038
0.000220028
0.000208828
0.00022772
0.000211405
0.000211396
0.000193551
0.000224337
0.00020242
0.000202407
0.000179516
0.000220447
0.00019357
0.000193557
0.000167205
0.000216195
0.0001851
0.000185086
0.000156485
0.000211712
0.000177083
0.00017707
0.000147139
0.000207101
0.000169559
0.000169546
0.000138921
0.000202443
0.000162499
0.000162486
0.000131636
0.000197793
0.000155847
0.000155835
0.000124979
0.000193185
0.000149553
0.00014954
0.000118891
0.000188599
0.000143571
0.00014356
0.000113143
0.000184071
0.000137852
0.000137841
0.000107903
0.00017963
0.000132352
0.000132341
0.000102979
0.000175264
0.000127064
0.000127052
9.83328e-05
0.000170961
0.000122007
0.000121997
9.41031e-05
0.000166709
0.000117211
0.000117202
9.05099e-05
0.000162507
0.000112705
0.000112697
8.75734e-05
0.000108548
8.52608e-05
0.000234243
0.000234462
0.000234461
0.000234239
0.000234465
0.000234465
0.00023426
0.00023426
0.00023426
0.00023426
0.000234463
0.000234468
0.000234249
0.000234463
0.000234467
0.000234259
0.000233434
0.00022605
0.000233542