/*--------------------------------*- C++ -*----------------------------------*\
| =========                 |                                                 |
| \\      /  F ield         | OpenFOAM: The Open Source CFD Toolbox           |
|  \\    /   O peration     | Version:  2312                                  |
|   \\  /    A nd           | Website:  www.openfoam.com                      |
|    \\/     M anipulation  |                                                 |
\*---------------------------------------------------------------------------*/
FoamFile
{
    version     2.0;
    format      ascii;
    arch        "LSB;label=32;scalar=64";
    class       volVectorField;
    location    "750";
    object      U;
}
// * * * * * * * * * * * * * * * * * * * * * * * * * * * * * * * * * * * * * //

dimensions      [0 1 -1 0 0 0 0];

internalField   nonuniform List<vector> 
43008
(
(6.34922e-05 6.35157e-05 0.108289)
(5.9158e-05 -9.55312e-05 0.107557)
(6.2273e-05 6.22645e-05 0.108604)
(-9.37124e-05 5.81223e-05 0.107771)
(5.81271e-05 -9.36895e-05 0.107771)
(-0.000149549 -0.000149562 0.106585)
(0.000152391 0.000152392 0.106508)
(1.26276e-05 1.26885e-05 0.106725)
(5.93277e-05 9.54971e-05 0.107557)
(-5.94219e-05 9.56253e-05 0.107556)
(5.85972e-05 9.41657e-05 0.107719)
(-5.86463e-05 9.42344e-05 0.107718)
(-1.26539e-05 1.26319e-05 0.106725)
(9.55538e-05 5.92423e-05 0.107557)
(9.5562e-05 -5.9347e-05 0.107556)
(9.42009e-05 5.84992e-05 0.107719)
(9.41559e-05 -5.85698e-05 0.107718)
(-9.4173e-05 5.83977e-05 0.107719)
(-9.40554e-05 -5.85199e-05 0.107718)
(0.000152424 -0.000152423 0.106508)
(1.26279e-05 -1.2572e-05 0.106725)
(-5.92002e-05 -9.55346e-05 0.107557)
(5.83908e-05 -9.41366e-05 0.107719)
(-5.84249e-05 -9.41573e-05 0.107719)
(-1.2661e-05 -1.25813e-05 0.106724)
(0.000149573 0.000149534 0.106585)
(5.83423e-05 9.372e-05 0.10777)
(-5.83822e-05 9.37605e-05 0.10777)
(-0.000149591 0.000149485 0.106585)
(9.37487e-05 5.82293e-05 0.107771)
(9.37006e-05 -5.83022e-05 0.10777)
(-9.35912e-05 -5.82511e-05 0.10777)
(0.000149547 -0.000149567 0.106584)
(-5.81592e-05 -9.37102e-05 0.10777)
(2.05301e-06 2.08372e-05 0.0947507)
(-2.82661e-06 3.82933e-05 0.084094)
(2.77682e-06 7.04686e-05 0.094794)
(-5.19762e-06 -1.24256e-06 0.0840812)
(5.88779e-06 -4.87599e-06 0.072537)
(2.08238e-05 2.10713e-06 0.0947508)
(3.83131e-05 -2.83177e-06 0.0840948)
(7.04629e-05 2.83721e-06 0.094794)
(-1.2978e-06 -5.37937e-06 0.0840819)
(-6.35461e-05 6.34957e-05 0.108289)
(6.34759e-05 -6.35212e-05 0.108289)
(-6.35112e-05 -6.35183e-05 0.108289)
(6.25786e-05 6.25756e-05 0.108526)
(-6.26153e-05 6.25478e-05 0.108526)
(6.2538e-05 -6.25871e-05 0.108526)
(-6.25773e-05 -6.25886e-05 0.108526)
(-6.2198e-05 6.31939e-06 0.103006)
(-9.50953e-05 5.89391e-05 0.107612)
(-3.03585e-05 2.07738e-06 0.0963718)
(-0.000104336 2.10997e-05 0.108126)
(1.63749e-05 -3.44464e-06 0.0725068)
(-4.75914e-06 5.94245e-06 0.0725358)
(6.30124e-06 -6.2119e-05 0.103005)
(2.12628e-05 -0.000104775 0.108055)
(3.09447e-05 -7.53007e-05 0.0963604)
(5.89046e-05 -9.50608e-05 0.107612)
(7.59566e-06 -0.000126252 0.102968)
(2.1122e-05 -0.000104364 0.108126)
(2.20039e-06 -3.01953e-05 0.0963699)
(-1.41458e-05 -1.40234e-05 0.106681)
(-1.56214e-05 1.99251e-06 0.0899652)
(2.04458e-06 -1.56298e-05 0.0899617)
(1.55738e-06 1.52778e-05 0.094385)
(-1.87487e-06 3.51952e-05 0.0838207)
(2.28706e-06 6.36091e-05 0.0944191)
(-4.54796e-06 -3.32222e-06 0.0838166)
(-3.46453e-06 1.5604e-05 0.0723249)
(5.62932e-06 -5.18773e-06 0.0723588)
(1.52524e-05 1.64336e-06 0.094385)
(3.52086e-05 -1.98361e-06 0.0838214)
(6.36301e-05 2.34921e-06 0.094419)
(-3.32569e-06 -4.53983e-06 0.0838171)
(-6.2309e-05 6.22377e-05 0.108604)
(6.22313e-05 -6.2281e-05 0.108604)
(-6.22697e-05 -6.22824e-05 0.108604)
(-5.54316e-05 5.13147e-06 0.102755)
(-6.98692e-05 2.83125e-05 0.0960258)
(-0.000103181 2.06487e-05 0.108337)
(-9.32378e-05 5.78533e-05 0.107821)
(-0.000118585 6.44937e-06 0.102725)
(-2.56337e-05 6.63077e-07 0.0960419)
(-0.000102803 2.05045e-05 0.108405)
(1.55565e-05 -3.51846e-06 0.0723246)
(-5.18491e-06 5.73091e-06 0.0723579)
(5.14628e-06 -5.54062e-05 0.102754)
(2.06917e-05 -0.000103218 0.108337)
(2.84452e-05 -6.98544e-05 0.0960269)
(5.78409e-05 -9.32123e-05 0.107821)
(6.65337e-06 -0.000118651 0.102725)
(2.05463e-05 -0.000102815 0.108405)
(7.46826e-07 -2.5499e-05 0.0960401)
(-3.43078e-05 -1.83171e-05 0.0896684)
(-1.82538e-05 -3.43059e-05 0.0896673)
(-1.12376e-05 -1.11718e-05 0.106761)
(-1.30824e-05 2.6172e-06 0.0896671)
(2.63753e-06 -1.30538e-05 0.0896637)
(3.43245e-06 1.62985e-05 0.0725068)
(-6.04238e-06 -4.81703e-06 0.0725363)
(1.63117e-05 3.31045e-06 0.0725059)
(-4.96319e-06 -6.26589e-06 0.0725358)
(1.9557e-05 3.68942e-05 0.0899753)
(3.69508e-05 1.93596e-05 0.089973)
(1.40516e-05 1.41331e-05 0.106682)
(-2.06022e-06 1.56032e-05 0.0899657)
(1.5434e-05 -2.16372e-06 0.0899636)
(-5.56699e-06 -5.00168e-06 0.0724452)
(3.52895e-06 1.60113e-05 0.0724136)
(-5.00708e-06 -5.89549e-06 0.0724448)
(1.59021e-05 3.30802e-06 0.0724124)
(0.000151045 0.000151033 0.10655)
(-2.24695e-06 1.43031e-05 0.0898131)
(1.42775e-05 -2.40387e-06 0.0898111)
(1.89004e-05 3.5671e-05 0.0898187)
(3.55772e-05 1.87662e-05 0.089816)
(-2.22657e-06 2.08318e-05 0.0947506)
(2.72935e-06 3.82021e-05 0.0840942)
(-2.97487e-06 7.04545e-05 0.0947941)
(5.0682e-06 -1.28719e-06 0.0840815)
(6.32636e-06 6.20653e-05 0.103005)
(3.08911e-05 7.53678e-05 0.0963592)
(2.12745e-05 0.000104712 0.108055)
(5.90847e-05 9.50619e-05 0.107612)
(7.49159e-06 0.000126265 0.102968)
(2.11869e-06 3.02988e-05 0.0963694)
(2.11339e-05 0.000104308 0.108126)
(-6.39667e-06 6.2054e-05 0.103005)
(-3.09306e-05 7.52875e-05 0.0963586)
(-2.1292e-05 0.000104737 0.108055)
(-5.91844e-05 9.51683e-05 0.107611)
(-7.60882e-06 0.000126253 0.102968)
(-2.26898e-06 3.02364e-05 0.0963686)
(-2.11635e-05 0.000104328 0.108126)
(2.50483e-06 6.69158e-05 0.0946024)
(-4.64803e-06 -2.45512e-06 0.0839454)
(-2.2439e-06 3.66832e-05 0.0839537)
(1.77949e-06 1.79064e-05 0.0945636)
(-2.72509e-06 6.69048e-05 0.0946024)
(4.58617e-06 -2.35853e-06 0.0839455)
(2.22094e-06 3.66453e-05 0.0839542)
(-1.98726e-06 1.79205e-05 0.0945635)
(7.02285e-06 0.000122431 0.102849)
(5.88553e-05 9.46302e-05 0.107666)
(1.49506e-06 2.77627e-05 0.096202)
(2.08515e-05 0.000103538 0.108267)
(2.96862e-05 7.25681e-05 0.09619)
(2.09947e-05 0.000103927 0.108197)
(5.70986e-06 5.86243e-05 0.102882)
(-7.14745e-06 0.000122423 0.102849)
(-5.89096e-05 9.47009e-05 0.107665)
(-1.53467e-06 2.78904e-05 0.0962008)
(-2.08841e-05 0.000103548 0.108267)
(-2.97177e-05 7.25501e-05 0.0961896)
(-2.10227e-05 0.000103939 0.108197)
(-5.79978e-06 5.86238e-05 0.102882)
(-1.41225e-05 1.40984e-05 0.106682)
(1.93337e-06 1.55632e-05 0.0899637)
(-1.57411e-05 -2.15379e-06 0.0899674)
(4.71639e-06 -6.01052e-06 0.0725388)
(5.69035e-06 -4.83732e-06 0.0724458)
(-3.50495e-06 1.59162e-05 0.0724136)
(-0.000151089 0.000150989 0.10655)
(2.37314e-06 1.44476e-05 0.0898111)
(-1.4385e-05 -2.46965e-06 0.0898149)
(-1.88965e-05 3.55819e-05 0.089816)
(-3.56494e-05 1.8762e-05 0.0898173)
(4.9845e-06 -5.90125e-06 0.072448)
(-1.59892e-05 3.36056e-06 0.0724109)
(6.20557e-05 6.3494e-06 0.103006)
(7.53261e-05 3.08577e-05 0.0963597)
(0.00010471 2.12638e-05 0.108055)
(9.50955e-05 5.89885e-05 0.107612)
(0.00012622 7.53997e-06 0.102968)
(3.0171e-05 2.02323e-06 0.0963693)
(0.000104299 2.11196e-05 0.108126)
(2.08253e-05 -2.15575e-06 0.0947507)
(3.83195e-05 2.72098e-06 0.0840943)
(7.04661e-05 -2.88033e-06 0.094794)
(-1.1655e-06 5.19297e-06 0.0840811)
(6.20629e-05 -6.35122e-06 0.103006)
(0.000104732 -2.12926e-05 0.108055)
(7.5362e-05 -3.09066e-05 0.0963591)
(9.50831e-05 -5.90977e-05 0.107611)
(0.00012621 -7.5695e-06 0.102968)
(0.000104312 -2.11588e-05 0.108126)
(3.03232e-05 -2.06526e-06 0.0963677)
(6.69182e-05 2.56619e-06 0.0946024)
(-2.37251e-06 -4.82866e-06 0.0839461)
(3.66627e-05 -2.37823e-06 0.0839543)
(1.79212e-05 1.87098e-06 0.0945637)
(0.000122412 7.05802e-06 0.102849)
(9.46598e-05 5.87502e-05 0.107666)
(2.77953e-05 1.39671e-06 0.0962017)
(0.000103538 2.08444e-05 0.108267)
(7.25528e-05 2.96141e-05 0.09619)
(0.000103925 2.09841e-05 0.108197)
(5.86695e-05 5.75292e-06 0.102883)
(6.6916e-05 -2.64359e-06 0.0946023)
(-2.26557e-06 4.86615e-06 0.0839451)
(3.66978e-05 2.30841e-06 0.0839539)
(1.7924e-05 -1.88661e-06 0.0945635)
(0.000122417 -7.11621e-06 0.102849)
(9.46227e-05 -5.88415e-05 0.107665)
(0.000103533 -2.08781e-05 0.108267)
(2.78777e-05 -1.33767e-06 0.0962001)
(0.000103919 -2.10155e-05 0.108197)
(7.25751e-05 -2.96358e-05 0.0961896)
(5.86737e-05 -5.7363e-06 0.102883)
(-2.09407e-05 2.10992e-06 0.0947518)
(1.16002e-06 -5.24566e-06 0.0840834)
(-6.21463e-05 -6.41667e-06 0.103005)
(-9.50081e-05 -5.90369e-05 0.107612)
(-0.000104298 -2.11739e-05 0.108126)
(-3.03107e-05 -2.18345e-06 0.09637)
(-2.08821e-05 -2.20062e-06 0.0947507)
(1.24534e-06 5.11048e-06 0.0840819)
(-0.000122416 6.92764e-06 0.102849)
(-9.46383e-05 5.86671e-05 0.107666)
(-2.7921e-05 1.33401e-06 0.0962042)
(-0.000103556 2.07985e-05 0.108267)
(-7.25194e-05 2.95073e-05 0.0961899)
(-0.000103942 2.09498e-05 0.108197)
(-5.87818e-05 5.7154e-06 0.102883)
(-6.69088e-05 2.42122e-06 0.094601)
(2.28876e-06 -4.9295e-06 0.0839476)
(-3.66984e-05 -2.37518e-06 0.0839528)
(-1.80451e-05 1.84173e-06 0.0945646)
(-0.000122433 -7.20953e-06 0.102849)
(-9.45358e-05 -5.879e-05 0.107666)
(-0.000103527 -2.09007e-05 0.108267)
(-2.79482e-05 -1.45232e-06 0.0962024)
(-0.000103905 -2.10356e-05 0.108197)
(-7.24776e-05 -2.96863e-05 0.0961901)
(-5.87108e-05 -5.8165e-06 0.102882)
(-6.69245e-05 -2.78115e-06 0.094602)
(2.3555e-06 4.79159e-06 0.0839458)
(-3.66924e-05 2.25796e-06 0.0839542)
(-1.80057e-05 -1.9474e-06 0.0945634)
(3.69803e-05 -1.94543e-05 0.0899732)
(1.94833e-05 -3.69334e-05 0.0899753)
(1.40865e-05 -1.40198e-05 0.106681)
(1.56602e-05 2.01561e-06 0.0899617)
(-1.97388e-06 -1.56178e-05 0.0899657)
(3.44788e-06 -1.63831e-05 0.0725068)
(-5.91758e-06 4.79804e-06 0.0725365)
(-4.98749e-06 5.82766e-06 0.0724448)
(1.5952e-05 -3.49228e-06 0.0724136)
(0.000151035 -0.000151047 0.10655)
(1.43247e-05 2.31762e-06 0.0898091)
(-2.28969e-06 -1.42971e-05 0.0898131)
(3.5606e-05 -1.88563e-05 0.0898166)
(1.88621e-05 -3.55528e-05 0.0898184)
(-5.81319e-06 5.01914e-06 0.0724455)
(3.48236e-06 -1.59761e-05 0.0724135)
(-6.37859e-06 -6.21129e-05 0.103006)
(-2.12718e-05 -0.00010472 0.108055)
(-3.09348e-05 -7.53446e-05 0.096359)
(-5.89307e-05 -9.5079e-05 0.107612)
(-7.52763e-06 -0.000126226 0.102967)
(-2.11313e-05 -0.000104301 0.108126)
(-2.13047e-06 -3.01948e-05 0.0963681)
(2.13522e-06 -2.09145e-05 0.0947504)
(-2.6791e-06 -3.82762e-05 0.0840948)
(2.92252e-06 -7.0466e-05 0.0947934)
(-5.10742e-06 1.27124e-06 0.0840817)
(-2.12713e-06 -2.08769e-05 0.0947509)
(2.69851e-06 -3.82933e-05 0.0840944)
(-2.84403e-06 -7.04507e-05 0.0947928)
(5.16887e-06 1.21707e-06 0.0840811)
(7.11205e-06 -0.000122456 0.102849)
(5.86538e-05 -9.4605e-05 0.107666)
(2.08367e-05 -0.00010357 0.108267)
(1.43935e-06 -2.77683e-05 0.0962023)
(2.09794e-05 -0.000103981 0.108197)
(2.96568e-05 -7.25057e-05 0.096191)
(5.72872e-06 -5.87573e-05 0.102882)
(-7.07193e-06 -0.00012242 0.102848)
(-5.86875e-05 -9.46213e-05 0.107666)
(-2.08603e-05 -0.000103529 0.108267)
(-1.38461e-06 -2.77478e-05 0.0962004)
(-2.09913e-05 -0.000103935 0.108197)
(-2.9652e-05 -7.25325e-05 0.0961898)
(-5.7614e-06 -5.87381e-05 0.102883)
(2.6703e-06 -6.69201e-05 0.0946016)
(-4.79396e-06 2.36003e-06 0.0839458)
(-2.28621e-06 -3.66633e-05 0.0839545)
(1.87581e-06 -1.80247e-05 0.0945633)
(-2.59341e-06 -6.69152e-05 0.0946011)
(4.84485e-06 2.30406e-06 0.0839452)
(2.31071e-06 -3.66643e-05 0.0839541)
(-1.86532e-06 -1.79904e-05 0.0945638)
(4.7993e-06 5.89852e-06 0.0725368)
(5.96822e-06 4.75656e-06 0.0725355)
(-0.000151054 -0.000151046 0.10655)
(-1.43068e-05 2.32278e-06 0.0898125)
(2.35822e-06 -1.4285e-05 0.089809)
(-3.56016e-05 -1.89104e-05 0.0898177)
(-1.88347e-05 -3.56054e-05 0.0898163)
(5.02699e-06 5.80395e-06 0.0724456)
(-1.59659e-05 -3.50364e-06 0.0724135)
(5.85926e-06 4.97681e-06 0.0724445)
(-3.47038e-06 -1.59561e-05 0.0724133)
(3.63338e-06 1.5646e-05 0.0723246)
(-5.68741e-06 -5.22805e-06 0.0723585)
(1.55766e-05 3.44715e-06 0.0723237)
(-5.23408e-06 -5.73346e-06 0.0723579)
(1.83432e-05 3.44195e-05 0.0896698)
(3.43101e-05 1.82628e-05 0.0896669)
(1.1198e-05 1.12708e-05 0.106762)
(-2.52661e-06 1.30217e-05 0.0896676)
(1.30415e-05 -2.58375e-06 0.0896656)
(-1.73742e-06 1.5261e-05 0.0943849)
(1.93769e-06 3.52195e-05 0.0838213)
(-2.49222e-06 6.36127e-05 0.0944191)
(4.45644e-06 -3.33587e-06 0.0838165)
(5.11181e-06 5.52859e-05 0.102755)
(2.85123e-05 6.99009e-05 0.096026)
(2.07055e-05 0.000103173 0.108337)
(5.80665e-05 9.32511e-05 0.107821)
(6.56079e-06 0.000118607 0.102725)
(7.55762e-07 2.55005e-05 0.0960399)
(2.05643e-05 0.000102791 0.108405)
(-5.20652e-06 5.52807e-05 0.102755)
(-2.84629e-05 6.98651e-05 0.0960258)
(-2.074e-05 0.000103174 0.108337)
(-5.81094e-05 9.32704e-05 0.107821)
(-6.68012e-06 0.000118607 0.102725)
(-8.11194e-07 2.55352e-05 0.0960386)
(-2.05993e-05 0.00010279 0.108405)
(-1.81324e-05 3.42852e-05 0.089667)
(-3.43397e-05 1.8177e-05 0.0896681)
(-1.12254e-05 1.11873e-05 0.106762)
(2.48834e-06 1.30683e-05 0.0896658)
(-1.31335e-05 -2.73382e-06 0.0896694)
(-1.55529e-05 3.37759e-06 0.072322)
(5.21641e-06 -5.78674e-06 0.0723611)
(5.53264e-05 5.14391e-06 0.102755)
(6.98724e-05 2.84402e-05 0.0960259)
(0.000103164 2.07016e-05 0.108337)
(9.32735e-05 5.79532e-05 0.107821)
(0.000118602 6.60017e-06 0.102724)
(2.54789e-05 7.3935e-07 0.0960396)
(0.000102776 2.05582e-05 0.108405)
(1.52621e-05 -1.63918e-06 0.0943848)
(3.52285e-05 1.98793e-06 0.0838208)
(6.36263e-05 -2.38414e-06 0.0944189)
(-3.23781e-06 4.60473e-06 0.0838162)
(5.53194e-05 -5.14011e-06 0.102755)
(0.000103155 -2.07292e-05 0.108337)
(6.99178e-05 -2.84433e-05 0.0960255)
(9.32237e-05 -5.80126e-05 0.107821)
(0.000118613 -6.6341e-06 0.102724)
(0.00010277 -2.05867e-05 0.108405)
(2.55696e-05 -6.46009e-07 0.0960378)
(-1.53842e-05 1.60689e-06 0.0943858)
(-3.52183e-05 -2.05217e-06 0.0838198)
(-6.36305e-05 2.17202e-06 0.0944176)
(3.28157e-06 -4.65756e-06 0.0838186)
(-5.53478e-05 -5.23327e-06 0.102754)
(-0.000103149 -2.07517e-05 0.108337)
(-6.98802e-05 -2.84996e-05 0.0960258)
(-9.3111e-05 -5.79665e-05 0.107821)
(-0.000118591 -6.73147e-06 0.102725)
(-0.000102778 -2.06135e-05 0.108405)
(-2.56629e-05 -7.48876e-07 0.0960401)
(-1.53587e-05 -1.70071e-06 0.0943846)
(-3.52352e-05 1.94652e-06 0.083821)
(-6.3644e-05 -2.53901e-06 0.0944185)
(3.32206e-06 4.5474e-06 0.0838167)
(3.43093e-05 -1.8282e-05 0.0896675)
(1.82809e-05 -3.42715e-05 0.0896693)
(1.11524e-05 -1.1097e-05 0.106761)
(1.30802e-05 2.5967e-06 0.0896637)
(-2.57424e-06 -1.30726e-05 0.0896677)
(3.49533e-06 -1.55812e-05 0.0723246)
(-5.71909e-06 5.21877e-06 0.0723586)
(-5.16252e-06 -5.54216e-05 0.102755)
(-2.07134e-05 -0.000103183 0.108336)
(-2.84559e-05 -6.98866e-05 0.0960258)
(-5.78753e-05 -9.3238e-05 0.107821)
(-6.5907e-06 -0.000118605 0.102724)
(-2.05733e-05 -0.000102782 0.108405)
(-6.93507e-07 -2.54516e-05 0.0960382)
(1.62654e-06 -1.53737e-05 0.0943846)
(-1.97217e-06 -3.52195e-05 0.0838215)
(2.42288e-06 -6.36282e-05 0.0944182)
(-4.54132e-06 3.32021e-06 0.0838168)
(-1.62932e-06 -1.53381e-05 0.0943851)
(1.99425e-06 -3.52181e-05 0.0838211)
(-2.35794e-06 -6.36196e-05 0.0944176)
(4.59309e-06 3.25418e-06 0.0838163)
(-1.55737e-05 -3.52358e-06 0.0723244)
(5.21752e-06 5.70679e-06 0.0723585)
(-3.49183e-06 -1.55691e-05 0.0723244)
(5.76339e-06 5.17005e-06 0.0723576)
(-1.19837e-06 1.33356e-05 0.078038)
(2.62682e-06 6.86593e-05 0.0946971)
(1.58387e-07 -1.02697e-05 0.079912)
(4.15669e-06 1.39229e-05 0.0928156)
(9.57979e-09 8.39693e-06 0.0798524)
(6.3816e-06 5.91431e-05 0.092753)
(1.18012e-07 -6.14746e-06 0.0781085)
(2.31072e-06 -6.67589e-06 0.0694211)
(5.32696e-06 3.91928e-05 0.0880748)
(-5.58605e-06 -6.45916e-07 0.0841519)
(8.58939e-07 1.24756e-05 0.0693263)
(3.69341e-06 3.64362e-06 0.0881436)
(-1.40016e-07 -6.24644e-06 0.0781571)
(2.1913e-06 2.23927e-05 0.0948473)
(-6.87621e-08 8.17666e-06 0.0799011)
(6.61829e-06 6.067e-05 0.092843)
(-1.42847e-06 1.3259e-05 0.0780867)
(7.87983e-08 -1.05026e-05 0.0799603)
(4.36214e-06 1.52109e-05 0.0929052)
(8.88577e-07 1.23589e-05 0.0692831)
(3.63937e-06 2.91059e-06 0.0880643)
(-2.52885e-06 3.74952e-05 0.0840228)
(5.27504e-06 3.82557e-05 0.0879951)
(2.37492e-06 -6.71542e-06 0.0693776)
(5.95933e-06 -4.76029e-06 0.0725843)
(-3.43212e-06 1.61217e-05 0.0724594)
(1.33362e-05 -1.06791e-06 0.0780385)
(6.86552e-05 2.69986e-06 0.0946972)
(1.39196e-05 4.18273e-06 0.092816)
(-1.02855e-05 2.4731e-07 0.0799124)
(5.91567e-05 6.45047e-06 0.0927533)
(8.38229e-06 1.30092e-07 0.0798526)
(-6.16966e-06 1.44064e-07 0.0781092)
(-6.74225e-06 2.34447e-06 0.0694219)
(3.91838e-05 5.39372e-06 0.0880756)
(-6.30736e-07 -5.37054e-06 0.0841527)
(1.25048e-05 9.08587e-07 0.0693274)
(3.58246e-06 3.77042e-06 0.0881443)
(-6.27036e-06 -7.4583e-08 0.0781578)
(2.2376e-05 2.2621e-06 0.0948475)
(6.06708e-05 6.66472e-06 0.0928433)
(8.16146e-06 3.17512e-08 0.0799013)
(1.32599e-05 -1.33484e-06 0.0780873)
(1.5207e-05 4.4235e-06 0.0929056)
(-1.05215e-05 1.75054e-07 0.0799608)
(1.24038e-05 9.66051e-07 0.0692842)
(2.84556e-06 3.5982e-06 0.088065)
(3.74562e-05 -2.68025e-06 0.0840236)
(3.82728e-05 5.23994e-06 0.0879958)
(-6.78503e-06 2.36009e-06 0.0693784)
(-4.63308e-06 6.00724e-06 0.072583)
(1.61626e-05 -3.47004e-06 0.0724596)
(-2.75281e-05 -2.75311e-05 0.0856509)
(-3.94125e-07 6.27685e-06 0.0695838)
(6.28411e-06 -4.04701e-07 0.0695771)
(-1.00343e-05 -1.20145e-05 0.0695014)
(-1.19778e-05 -1.0078e-05 0.0694951)
(-8.48737e-06 -8.48061e-06 0.0857042)
(-1.61467e-05 -2.08928e-05 0.0946919)
(-1.63152e-05 1.83059e-06 0.0900444)
(-3.28174e-05 -3.54493e-05 0.10001)
(-1.24175e-05 6.99504e-06 0.0834764)
(-2.08545e-05 -1.60837e-05 0.094683)
(1.86856e-06 -1.6336e-05 0.0900409)
(-3.53521e-05 -3.28401e-05 0.100006)
(7.01403e-06 -1.24268e-05 0.0834701)
(-8.97181e-06 -8.93575e-06 0.0857767)
(-5.61471e-07 6.27778e-06 0.0696322)
(6.27346e-06 -5.60097e-07 0.0696255)
(-6.91983e-05 -4.42682e-05 0.0945371)
(-1.1951e-05 6.8671e-06 0.0834104)
(-3.6272e-05 -1.92015e-05 0.0898951)
(-3.16489e-05 -3.41963e-05 0.0999315)
(-9.9593e-05 -6.26947e-05 0.0998521)
(-3.076e-05 -5.78076e-06 0.0833399)
(-1.53401e-05 -1.99874e-05 0.0946082)
(-4.42727e-05 -6.91852e-05 0.0945292)
(6.90067e-06 -1.1946e-05 0.0834041)
(-1.91447e-05 -3.6283e-05 0.0898936)
(-3.40773e-05 -3.16565e-05 0.0999271)
(-6.26689e-05 -9.9604e-05 0.0998487)
(-5.76073e-06 -3.08544e-05 0.0833355)
(-1.99162e-05 -1.52883e-05 0.0945994)
(-2.99513e-07 1.35913e-05 0.0778569)
(2.16882e-06 6.20631e-05 0.0943306)
(3.47689e-07 -9.16148e-06 0.0797348)
(3.38145e-06 9.45792e-06 0.0924796)
(2.90188e-07 9.44889e-06 0.0796746)
(5.68116e-06 5.37313e-05 0.0924158)
(7.63801e-07 -5.80913e-06 0.0779274)
(2.43447e-06 -6.99448e-06 0.0692535)
(4.93455e-06 3.57533e-05 0.0877689)
(-4.59071e-06 -2.82001e-06 0.0838801)
(1.0394e-06 1.19915e-05 0.0691599)
(3.21847e-06 9.70927e-07 0.0878393)
(6.78371e-07 -5.88601e-06 0.0779708)
(1.70221e-06 1.65865e-05 0.0944732)
(2.55066e-07 9.16576e-06 0.0797167)
(5.85454e-06 5.50034e-05 0.0924967)
(-5.1226e-07 1.35369e-05 0.0779001)
(3.50454e-07 -9.46528e-06 0.0797769)
(3.61477e-06 1.05208e-05 0.0925603)
(1.17178e-06 1.19955e-05 0.0691213)
(3.02177e-06 3.8671e-07 0.0877685)
(-1.81597e-06 3.45411e-05 0.0837571)
(4.78641e-06 3.51037e-05 0.0876979)
(2.42254e-06 -7.01824e-06 0.0692143)
(5.71879e-06 -5.0932e-06 0.0724016)
(-3.64949e-06 1.55171e-05 0.0722818)
(1.35764e-05 -2.43507e-07 0.0778571)
(6.20782e-05 2.24216e-06 0.0943305)
(9.45894e-06 3.43831e-06 0.0924798)
(-9.16751e-06 4.48379e-07 0.079735)
(5.37227e-05 5.716e-06 0.0924158)
(9.44717e-06 3.76778e-07 0.0796746)
(-5.82346e-06 8.38616e-07 0.0779277)
(-6.96561e-06 2.49391e-06 0.0692543)
(3.58169e-05 4.96961e-06 0.0877696)
(-2.85053e-06 -4.68487e-06 0.0838807)
(1.21059e-05 1.18044e-06 0.0691611)
(9.32024e-07 3.23445e-06 0.0878399)
(-5.91052e-06 7.07179e-07 0.0779712)
(1.65638e-05 1.7573e-06 0.0944733)
(5.49975e-05 5.89389e-06 0.0924969)
(9.16702e-06 3.3332e-07 0.0797168)
(1.3527e-05 -4.10022e-07 0.0779006)
(1.04941e-05 3.62769e-06 0.0925605)
(-9.46716e-06 4.09747e-07 0.0797771)
(1.20122e-05 1.23254e-06 0.069122)
(3.57213e-07 3.08924e-06 0.087769)
(3.45451e-05 -1.83111e-06 0.0837575)
(3.5062e-05 4.84064e-06 0.0876983)
(-7.0048e-06 2.5013e-06 0.0692149)
(-5.09034e-06 5.77711e-06 0.0724008)
(1.53688e-05 -3.52802e-06 0.0722817)
(-2.55508e-05 -2.55841e-05 0.0853786)
(2.61219e-07 6.22088e-06 0.0694009)
(6.24218e-06 2.47567e-07 0.0693942)
(-9.43424e-06 -1.1716e-05 0.0693188)
(-1.16513e-05 -9.4887e-06 0.0693125)
(-6.74114e-06 -6.75048e-06 0.0854336)
(-1.29613e-05 -1.74147e-05 0.0943686)
(-9.53198e-05 -5.89828e-05 0.0996211)
(-2.93563e-05 -6.00167e-06 0.0831506)
(-1.36873e-05 2.47597e-06 0.0897389)
(-6.60913e-05 -4.15383e-05 0.094297)
(-2.83344e-05 -3.06968e-05 0.0997002)
(-1.05263e-05 6.53701e-06 0.0832214)
(-1.73025e-05 -1.29138e-05 0.0943598)
(-5.8925e-05 -9.52937e-05 0.099618)
(-5.96099e-06 -2.94407e-05 0.0831463)
(2.50407e-06 -1.36567e-05 0.0897355)
(-4.14789e-05 -6.60741e-05 0.0942892)
(-3.04884e-05 -2.82935e-05 0.0996956)
(6.57644e-06 -1.05106e-05 0.0832152)
(-7.1523e-06 -7.16416e-06 0.0854985)
(-9.58015e-06 -1.17922e-05 0.0693629)
(-1.17243e-05 -9.63893e-06 0.0693566)
(-2.60089e-05 -2.60464e-05 0.0854439)
(1.05302e-07 6.23521e-06 0.0694451)
(6.25831e-06 8.9506e-08 0.0694384)
(-6.50993e-05 -4.06683e-05 0.0942206)
(-1.00633e-05 6.43849e-06 0.0831612)
(-3.36722e-05 -1.80278e-05 0.0895965)
(-2.7289e-05 -2.9574e-05 0.0996247)
(-9.39444e-05 -5.78034e-05 0.0995458)
(-2.88978e-05 -6.05723e-06 0.0830903)
(-1.22235e-05 -1.66138e-05 0.0942923)
(-4.06265e-05 -6.50932e-05 0.0942128)
(6.47439e-06 -1.0047e-05 0.083155)
(-1.79818e-05 -3.36885e-05 0.0895955)
(-2.93577e-05 -2.72358e-05 0.0996201)
(-5.77365e-05 -9.39133e-05 0.0995427)
(-6.02203e-06 -2.89816e-05 0.083086)
(-1.64997e-05 -1.21663e-05 0.0942835)
(-6.25741e-06 -4.88678e-06 0.0725836)
(3.42396e-06 1.61244e-05 0.0724594)
(-4.51842e-06 -6.04274e-06 0.0725833)
(1.6138e-05 3.28626e-06 0.0724589)
(2.74934e-05 2.74729e-05 0.0856509)
(-6.23395e-06 3.82236e-07 0.0695846)
(3.28741e-07 -6.21709e-06 0.0695778)
(1.19513e-05 1.00056e-05 0.0695014)
(1.00658e-05 1.19404e-05 0.0694948)
(8.44091e-06 8.46633e-06 0.0857056)
(2.08436e-05 1.59945e-05 0.0946929)
(6.40578e-05 0.00010108 0.099931)
(5.81006e-06 3.12784e-05 0.0834073)
(-1.94849e-06 1.6152e-05 0.0900449)
(4.52274e-05 7.02836e-05 0.0946213)
(-7.08261e-06 1.23267e-05 0.0834777)
(3.53723e-05 3.2748e-05 0.100011)
(1.61595e-05 2.07073e-05 0.094685)
(0.000101014 6.3915e-05 0.0999272)
(3.12782e-05 5.55305e-06 0.0834015)
(1.64044e-05 -1.97069e-06 0.090043)
(7.02058e-05 4.51787e-05 0.0946128)
(1.24518e-05 -7.20149e-06 0.0834721)
(3.28072e-05 3.53022e-05 0.100008)
(8.84977e-06 8.70558e-06 0.0857781)
(1.22005e-05 1.03645e-05 0.0695502)
(1.0155e-05 1.20633e-05 0.0695435)
(2.79767e-05 2.81053e-05 0.085724)
(-6.34669e-06 3.56795e-07 0.0696334)
(4.56806e-07 -6.59352e-06 0.0696264)
(4.42505e-05 6.91794e-05 0.0945374)
(-6.82224e-06 1.19135e-05 0.0834116)
(1.915e-05 3.62912e-05 0.0898959)
(3.41468e-05 3.16353e-05 0.099932)
(5.7078e-06 3.07755e-05 0.0833408)
(1.99991e-05 1.52924e-05 0.0946093)
(6.27073e-05 9.965e-05 0.0998526)
(6.91378e-05 4.42e-05 0.094529)
(1.18855e-05 -6.85364e-06 0.0834061)
(3.61966e-05 1.90698e-05 0.0898936)
(3.15812e-05 3.40632e-05 0.099929)
(3.08228e-05 5.74587e-06 0.0833354)
(1.52597e-05 1.98962e-05 0.0946013)
(9.9496e-05 6.25903e-05 0.0998488)
(3.57452e-06 1.57865e-05 0.0723685)
(-5.99461e-06 -4.97151e-06 0.0724904)
(1.57714e-05 3.41534e-06 0.0723676)
(-4.88379e-06 -5.98103e-06 0.0724898)
(8.03231e-06 7.97012e-06 0.0856352)
(1.19388e-05 9.94185e-06 0.0694542)
(9.92156e-06 1.19708e-05 0.0694476)
(2.70217e-05 2.7052e-05 0.08558)
(-6.21661e-06 1.84625e-07 0.0695374)
(2.11913e-07 -6.31142e-06 0.0695305)
(4.24428e-05 6.71553e-05 0.0943758)
(3.17936e-05 2.94153e-05 0.099777)
(1.86095e-05 3.50196e-05 0.0897433)
(-6.61513e-06 1.10236e-05 0.0832842)
(5.95857e-06 2.98834e-05 0.0832135)
(6.02369e-05 9.68107e-05 0.0996982)
(1.826e-05 1.37504e-05 0.0944477)
(6.71001e-05 4.24109e-05 0.0943672)
(2.94071e-05 3.17e-05 0.099774)
(3.49582e-05 1.85121e-05 0.0897406)
(1.09931e-05 -6.67656e-06 0.0832786)
(2.99039e-05 5.93985e-06 0.0832076)
(9.67056e-05 6.01448e-05 0.0996941)
(1.37206e-05 1.81573e-05 0.0944398)
(1.91271e-05 1.44791e-05 0.0945276)
(5.90015e-06 3.03408e-05 0.0832765)
(6.14717e-05 9.82299e-05 0.099775)
(-2.20511e-06 1.48843e-05 0.0898884)
(4.33566e-05 6.81865e-05 0.0944556)
(-6.6909e-06 1.14205e-05 0.0833472)
(3.29444e-05 3.04916e-05 0.0998542)
(1.45377e-05 1.90061e-05 0.0945196)
(3.03516e-05 5.85119e-06 0.0832706)
(9.81236e-05 6.1378e-05 0.099771)
(1.49531e-05 -2.27852e-06 0.0898864)
(6.81118e-05 4.33343e-05 0.0944472)
(1.14709e-05 -6.80272e-06 0.0833416)
(3.05386e-05 3.28766e-05 0.0998511)
(2.65491e-05 2.65495e-05 0.0855111)
(-6.35116e-06 3.5065e-08 0.0694911)
(1.33893e-08 -6.30978e-06 0.0694842)
(1.18746e-05 9.77923e-06 0.0694083)
(9.80969e-06 1.18783e-05 0.0694015)
(7.54359e-06 7.5512e-06 0.0855667)
(8.21298e-07 1.33152e-05 0.0780379)
(-2.85553e-06 6.86434e-05 0.0946972)
(-4.04281e-07 -1.02914e-05 0.079912)
(-4.30823e-06 1.38913e-05 0.0928152)
(-3.25728e-07 8.37814e-06 0.0798525)
(-6.61393e-06 5.91405e-05 0.0927539)
(-3.37982e-07 -6.19476e-06 0.0781081)
(-2.49016e-06 -6.75214e-06 0.0694233)
(-5.49305e-06 3.91281e-05 0.0880768)
(5.28459e-06 -6.75988e-07 0.0841522)
(-9.95719e-07 1.24247e-05 0.0693297)
(-3.90964e-06 3.58274e-06 0.0881441)
(-1.16899e-07 -6.27316e-06 0.0781567)
(-2.35965e-06 2.2374e-05 0.0948473)
(-2.26094e-07 8.15314e-06 0.0799012)
(-6.78634e-06 6.06583e-05 0.0928439)
(-3.41394e-07 -1.05255e-05 0.0799604)
(1.17153e-06 1.32288e-05 0.0780867)
(-4.53431e-06 1.51996e-05 0.0929048)
(-1.16155e-06 1.24299e-05 0.0692863)
(-3.76729e-06 2.86767e-06 0.0880648)
(2.42399e-06 3.74622e-05 0.0840233)
(-5.46312e-06 3.82944e-05 0.087997)
(-2.54153e-06 -6.78047e-06 0.0693799)
(3.24402e-07 -6.05671e-06 0.0780613)
(9.01665e-08 8.63988e-06 0.0798055)
(6.19323e-06 5.76952e-05 0.0926654)
(1.90981e-06 1.93573e-05 0.0946561)
(-9.61149e-07 1.34011e-05 0.0779908)
(2.0425e-07 -1.00173e-05 0.0798654)
(3.93984e-06 1.27043e-05 0.0927283)
(9.63856e-07 1.21425e-05 0.0692004)
(-1.96747e-06 3.59072e-05 0.0838865)
(3.31446e-06 1.31363e-06 0.0879122)
(2.16743e-06 -7.20723e-06 0.0692938)
(5.10217e-06 3.64838e-05 0.0878423)
(2.41867e-06 -6.74808e-06 0.0693353)
(5.19268e-06 3.73307e-05 0.0879176)
(-5.02274e-06 -1.82974e-06 0.0840124)
(9.55756e-07 1.22202e-05 0.0692411)
(3.50705e-06 2.26754e-06 0.0879873)
(-8.05509e-07 1.34522e-05 0.0779448)
(2.37229e-06 6.52344e-05 0.0945097)
(2.34394e-07 -9.75712e-06 0.0798204)
(3.68324e-06 1.15242e-05 0.0926432)
(2.61164e-07 -6.04533e-06 0.0780154)
(1.35244e-07 8.90338e-06 0.0797604)
(5.9569e-06 5.62868e-05 0.09258)
(-5.19209e-07 -6.11454e-06 0.0780607)
(-3.76702e-07 8.62484e-06 0.0798056)
(-6.39246e-06 5.7676e-05 0.0926661)
(-2.10084e-06 1.93514e-05 0.094656)
(6.50666e-07 1.33617e-05 0.0779906)
(-4.60749e-07 -1.0027e-05 0.0798654)
(-4.11186e-06 1.26799e-05 0.0927278)
(-1.2438e-06 1.21688e-05 0.0692032)
(2.03127e-06 3.59281e-05 0.0838868)
(-3.54992e-06 1.51152e-06 0.0879126)
(-5.21939e-06 3.65776e-05 0.087844)
(-2.60879e-06 -6.929e-06 0.069296)
(-2.56883e-06 -6.86991e-06 0.0693374)
(-5.3186e-06 3.73761e-05 0.0879194)
(4.88992e-06 -1.85825e-06 0.0840124)
(-1.179e-06 1.22725e-05 0.0692443)
(-3.6204e-06 2.1772e-06 0.0879876)
(4.4327e-07 1.34311e-05 0.0779446)
(-2.60547e-06 6.52283e-05 0.0945097)
(-5.26167e-07 -9.75215e-06 0.0798203)
(-3.92743e-06 1.15331e-05 0.0926427)
(-4.33059e-07 8.89007e-06 0.0797604)
(-6.21592e-06 5.62943e-05 0.0925807)
(-7.08232e-07 -6.01547e-06 0.0780148)
(-2.76401e-05 2.74569e-05 0.0856515)
(6.19958e-06 2.76558e-07 0.0695787)
(-4.81238e-07 -6.40937e-06 0.0695841)
(-1.21044e-05 1.00409e-05 0.0694957)
(-1.00918e-05 1.19292e-05 0.0695012)
(-8.59731e-06 8.30885e-06 0.0857055)
(-2.09595e-05 1.60139e-05 0.0946844)
(1.76945e-06 1.62571e-05 0.0900429)
(6.897e-06 1.23657e-05 0.0834719)
(-3.549e-05 3.27709e-05 0.100007)
(-1.62577e-05 2.0765e-05 0.0946935)
(-1.64435e-05 -1.98489e-06 0.0900465)
(-3.29798e-05 3.52995e-05 0.100012)
(-1.25353e-05 -7.15662e-06 0.0834781)
(-9.08532e-06 8.78202e-06 0.0857779)
(6.16982e-06 4.40378e-07 0.069627)
(-6.62933e-07 -6.41536e-06 0.0696325)
(-4.43845e-05 6.91055e-05 0.094529)
(6.78484e-06 1.18997e-05 0.0834062)
(-1.91882e-05 3.62469e-05 0.0898932)
(-3.42488e-05 3.1601e-05 0.0999283)
(-5.87057e-06 3.07677e-05 0.083335)
(-6.27214e-05 9.956e-05 0.0998485)
(-2.00326e-05 1.5201e-05 0.0946009)
(-6.93034e-05 4.42021e-05 0.094538)
(-1.20489e-05 -7.03738e-06 0.0834121)
(-3.63107e-05 1.90732e-05 0.0898948)
(-3.1816e-05 3.40368e-05 0.0999333)
(-9.96447e-05 6.26253e-05 0.0998527)
(-3.08333e-05 5.70571e-06 0.0833408)
(-1.54321e-05 1.98411e-05 0.0946098)
(4.59389e-06 -6.07885e-06 0.0725857)
(-1.61941e-05 3.35219e-06 0.0724572)
(-3.51167e-06 1.57704e-05 0.0723686)
(5.81197e-06 -4.96168e-06 0.0724906)
(-8.14188e-06 7.7984e-06 0.085635)
(-1.20145e-05 9.90931e-06 0.0694485)
(-9.95094e-06 1.18465e-05 0.069454)
(-2.71298e-05 2.69524e-05 0.0855807)
(6.24441e-06 6.64348e-08 0.0695315)
(-3.25807e-07 -6.41541e-06 0.0695368)
(-4.24929e-05 6.69823e-05 0.0943672)
(-3.18061e-05 2.93494e-05 0.0997734)
(-1.85681e-05 3.49666e-05 0.0897406)
(6.69149e-06 1.09739e-05 0.0832791)
(-6.01799e-05 9.6687e-05 0.0996939)
(-5.96878e-06 2.98346e-05 0.0832072)
(-1.82269e-05 1.35676e-05 0.0944395)
(-6.72018e-05 4.23091e-05 0.0943763)
(-2.95623e-05 3.16207e-05 0.0997783)
(-3.4963e-05 1.84551e-05 0.0897418)
(-1.10818e-05 -6.82296e-06 0.0832846)
(-2.99026e-05 5.84451e-06 0.0832131)
(-9.67929e-05 6.00975e-05 0.0996981)
(-1.38305e-05 1.80482e-05 0.0944482)
(-1.91317e-05 1.43789e-05 0.0945192)
(-5.93998e-06 3.03032e-05 0.0832704)
(-6.14554e-05 9.81142e-05 0.0997708)
(2.13004e-06 1.49239e-05 0.0898864)
(-3.30185e-05 3.04655e-05 0.0998505)
(-4.34271e-05 6.80322e-05 0.0944472)
(6.72331e-06 1.14342e-05 0.0833419)
(-1.46312e-05 1.89321e-05 0.094528)
(-3.03748e-05 5.78715e-06 0.0832763)
(-9.82096e-05 6.13546e-05 0.0997751)
(-1.50555e-05 -2.3164e-06 0.0898903)
(-6.82414e-05 4.32478e-05 0.0944563)