/*--------------------------------*- C++ -*----------------------------------*\
| =========                 |                                                 |
| \\      /  F ield         | OpenFOAM: The Open Source CFD Toolbox           |
|  \\    /   O peration     | Version:                                        |
|   \\  /    A nd           | Website:  www.openfoam.com                      |
|    \\/     M anipulation  |                                                 |
\*---------------------------------------------------------------------------*/
FoamFile
{
    version     2.0;
    format      ascii;
    class       volScalarField;
    location    "35600.5";
    object      p;
}
// * * * * * * * * * * * * * * * * * * * * * * * * * * * * * * * * * * * * * //

dimensions      [0 2 -2 0 0 0 0];


internalField   nonuniform List<scalar> 
247096
(
1.08569e-07
1.08571e-07
1.08715e-07
1.08802e-07
1.08834e-07
1.08792e-07
1.08702e-07
1.08547e-07
1.08571e-07
1.0877e-07
1.08947e-07
1.0904e-07
1.09063e-07
1.09032e-07
1.08929e-07
1.08746e-07
1.08715e-07
1.08947e-07
1.09087e-07
1.09129e-07
1.09136e-07
1.09127e-07
1.09077e-07
1.0892e-07
1.08688e-07
1.08802e-07
1.0904e-07
1.09129e-07
1.09141e-07
1.09139e-07
1.09141e-07
1.09124e-07
1.09018e-07
1.08768e-07
1.08569e-07
1.08834e-07
1.09063e-07
1.09136e-07
1.09139e-07
1.09136e-07
1.0914e-07
1.09132e-07
1.09043e-07
1.08799e-07
1.08792e-07
1.09032e-07
1.09127e-07
1.09141e-07
1.0914e-07
1.09141e-07
1.09121e-07
1.0901e-07
1.0876e-07
1.08702e-07
1.08929e-07
1.09077e-07
1.09124e-07
1.09132e-07
1.09121e-07
1.09065e-07
1.08901e-07
1.08675e-07
1.08547e-07
1.08746e-07
1.0892e-07
1.09018e-07
1.09043e-07
1.0901e-07
1.08901e-07
1.08723e-07
1.08688e-07
1.08768e-07
1.08799e-07
1.0876e-07
1.08675e-07
1.05756e-07
1.05731e-07
1.0574e-07
1.05591e-07
1.05603e-07
1.05622e-07
1.05602e-07
1.05789e-07
1.05727e-07
1.0574e-07
1.05611e-07
1.05408e-07
1.05425e-07
1.05425e-07
1.05408e-07
1.05668e-07
1.05614e-07
1.05591e-07
1.05408e-07
1.05445e-07
1.05466e-07
1.05466e-07
1.05445e-07
1.05408e-07
1.05731e-07
1.05778e-07
1.05756e-07
1.05603e-07
1.05425e-07
1.05466e-07
1.05489e-07
1.05489e-07
1.05466e-07
1.05425e-07
1.05759e-07
1.05795e-07
1.05731e-07
1.05622e-07
1.05425e-07
1.05466e-07
1.05489e-07
1.05489e-07
1.05466e-07
1.05425e-07
1.05762e-07
1.05619e-07
1.05602e-07
1.05408e-07
1.05445e-07
1.05466e-07
1.05466e-07
1.05445e-07
1.05408e-07
1.05755e-07
1.05805e-07
1.05789e-07
1.05668e-07
1.05408e-07
1.05425e-07
1.05425e-07
1.05408e-07
1.0575e-07
1.05673e-07
1.05787e-07
1.05727e-07
1.05614e-07
1.05731e-07
1.05759e-07
1.05762e-07
1.05755e-07
1.05673e-07
1.05798e-07
1.05778e-07
1.05795e-07
1.05619e-07
1.05805e-07
1.05787e-07
1.03978e-07
1.03969e-07
1.03978e-07
1.03847e-07
1.03847e-07
1.03857e-07
1.03849e-07
1.04012e-07
1.03969e-07
1.03978e-07
1.03842e-07
1.03608e-07
1.03617e-07
1.03617e-07
1.03608e-07
1.03865e-07
1.03859e-07
1.03847e-07
1.03608e-07
1.03628e-07
1.03639e-07
1.03639e-07
1.03628e-07
1.03608e-07
1.0391e-07
1.04002e-07
1.03978e-07
1.03847e-07
1.03617e-07
1.03639e-07
1.03653e-07
1.03653e-07
1.03639e-07
1.03617e-07
1.03914e-07
1.03999e-07
1.03969e-07
1.03857e-07
1.03617e-07
1.03639e-07
1.03653e-07
1.03653e-07
1.03639e-07
1.03617e-07
1.03913e-07
1.03866e-07
1.03849e-07
1.03608e-07
1.03628e-07
1.03639e-07
1.03639e-07
1.03628e-07
1.03608e-07
1.03917e-07
1.04007e-07
1.04012e-07
1.03865e-07
1.03608e-07
1.03617e-07
1.03617e-07
1.03608e-07
1.03898e-07
1.03888e-07
1.04012e-07
1.03969e-07
1.03859e-07
1.0391e-07
1.03914e-07
1.03913e-07
1.03917e-07
1.03888e-07
1.04015e-07
1.04002e-07
1.03999e-07
1.03866e-07
1.04007e-07
1.04012e-07
1.02378e-07
1.02369e-07
1.02378e-07
1.02254e-07
1.02252e-07
1.02261e-07
1.02255e-07
1.02408e-07
1.02371e-07
1.02378e-07
1.02249e-07
1.02041e-07
1.02047e-07
1.02047e-07
1.02041e-07
1.02273e-07
1.02267e-07
1.02254e-07
1.02041e-07
1.02053e-07
1.02059e-07
1.02059e-07
1.02053e-07
1.02041e-07
1.02314e-07
1.02401e-07
1.02378e-07
1.02252e-07
1.02047e-07
1.02059e-07
1.02066e-07
1.02066e-07
1.02059e-07
1.02047e-07
1.02318e-07
1.02399e-07
1.02369e-07
1.02261e-07
1.02047e-07
1.02059e-07
1.02066e-07
1.02066e-07
1.02059e-07
1.02047e-07
1.02317e-07
1.02273e-07
1.02255e-07
1.02041e-07
1.02053e-07
1.02059e-07
1.02059e-07
1.02053e-07
1.02041e-07
1.0232e-07
1.02406e-07
1.02408e-07
1.02273e-07
1.02041e-07
1.02047e-07
1.02047e-07
1.02041e-07
1.02302e-07
1.02293e-07
1.02409e-07
1.02371e-07
1.02267e-07
1.02314e-07
1.02318e-07
1.02317e-07
1.0232e-07
1.02294e-07
1.02414e-07
1.02401e-07
1.02399e-07
1.02273e-07
1.02406e-07
1.02409e-07
1.00916e-07
1.00907e-07
1.00916e-07
1.00798e-07
1.00796e-07
1.00803e-07
1.00798e-07
1.00943e-07
1.0091e-07
1.00916e-07
1.00793e-07
1.00602e-07
1.00605e-07
1.00605e-07
1.00602e-07
1.00817e-07
1.00812e-07
1.00798e-07
1.00602e-07
1.0061e-07
1.00613e-07
1.00613e-07
1.0061e-07
1.00602e-07
1.00855e-07
1.00939e-07
1.00916e-07
1.00796e-07
1.00605e-07
1.00613e-07
1.00617e-07
1.00617e-07
1.00613e-07
1.00605e-07
1.00857e-07
1.00937e-07
1.00907e-07
1.00803e-07
1.00605e-07
1.00613e-07
1.00617e-07
1.00617e-07
1.00613e-07
1.00606e-07
1.00856e-07
1.00817e-07
1.00798e-07
1.00602e-07
1.0061e-07
1.00613e-07
1.00613e-07
1.0061e-07
1.00602e-07
1.00859e-07
1.00943e-07
1.00943e-07
1.00817e-07
1.00602e-07
1.00605e-07
1.00605e-07
1.00602e-07
1.00843e-07
1.00836e-07
1.00945e-07
1.0091e-07
1.00812e-07
1.00855e-07
1.00857e-07
1.00856e-07
1.00859e-07
1.00836e-07
1.0095e-07
1.00939e-07
1.00937e-07
1.00817e-07
1.00943e-07
1.00945e-07
9.95511e-08
9.95425e-08
9.95505e-08
9.94375e-08
9.94349e-08
9.9441e-08
9.94369e-08
9.95761e-08
9.95458e-08
9.95505e-08
9.94326e-08
9.92527e-08
9.92549e-08
9.92549e-08
9.92527e-08
9.94554e-08
9.94517e-08
9.94375e-08
9.92527e-08
9.92579e-08
9.92596e-08
9.92596e-08
9.92579e-08
9.92527e-08
9.94929e-08
9.95735e-08
9.95511e-08
9.94349e-08
9.92549e-08
9.92596e-08
9.92622e-08
9.92622e-08
9.92597e-08
9.92549e-08
9.94942e-08
9.95715e-08
9.95425e-08
9.9441e-08
9.92549e-08
9.92596e-08
9.92622e-08
9.92622e-08
9.92597e-08
9.92549e-08
9.94926e-08
9.9456e-08
9.94369e-08
9.92527e-08
9.92579e-08
9.92596e-08
9.92596e-08
9.92579e-08
9.92527e-08
9.94958e-08
9.95768e-08
9.95761e-08
9.94554e-08
9.92527e-08
9.92549e-08
9.92549e-08
9.92527e-08
9.94805e-08
9.94743e-08
9.95784e-08
9.95458e-08
9.94517e-08
9.94929e-08
9.94942e-08
9.94926e-08
9.94958e-08
9.94743e-08
9.95838e-08
9.95734e-08
9.95714e-08
9.9456e-08
9.95768e-08
9.95784e-08
9.82536e-08
9.82452e-08
9.82528e-08
9.81435e-08
9.81406e-08
9.8146e-08
9.81425e-08
9.82771e-08
9.82486e-08
9.82528e-08
9.81383e-08
9.79665e-08
9.79682e-08
9.79682e-08
9.79665e-08
9.81607e-08
9.81577e-08
9.81435e-08
9.79665e-08
9.79704e-08
9.79714e-08
9.79714e-08
9.79704e-08
9.79665e-08
9.81975e-08
9.82755e-08
9.82536e-08
9.81406e-08
9.79682e-08
9.79714e-08
9.79731e-08
9.79731e-08
9.79714e-08
9.79682e-08
9.81983e-08
9.82735e-08
9.82452e-08
9.8146e-08
9.79682e-08
9.79714e-08
9.79731e-08
9.79731e-08
9.79714e-08
9.79682e-08
9.81966e-08
9.81617e-08
9.81425e-08
9.79665e-08
9.79704e-08
9.79714e-08
9.79714e-08
9.79704e-08
9.79665e-08
9.81996e-08
9.82785e-08
9.82771e-08
9.81607e-08
9.79665e-08
9.79682e-08
9.79682e-08
9.79665e-08
9.81848e-08
9.81792e-08
9.82796e-08
9.82486e-08
9.81577e-08
9.81975e-08
9.81983e-08
9.81966e-08
9.81996e-08
9.81792e-08
9.82852e-08
9.82755e-08
9.82735e-08
9.81617e-08
9.82785e-08
9.82796e-08
9.70072e-08
9.69988e-08
9.70062e-08
9.68997e-08
9.68965e-08
9.69014e-08
9.68983e-08
9.70294e-08
9.70024e-08
9.70062e-08
9.68942e-08
9.67288e-08
9.673e-08
9.673e-08
9.67288e-08
9.69161e-08
9.69138e-08
9.68997e-08
9.67288e-08
9.67319e-08
9.67325e-08
9.67325e-08
9.67319e-08
9.67288e-08
9.69524e-08
9.70286e-08
9.70072e-08
9.68965e-08
9.673e-08
9.67325e-08
9.67336e-08
9.67337e-08
9.67325e-08
9.673e-08
9.69529e-08
9.70267e-08
9.69988e-08
9.69014e-08
9.673e-08
9.67325e-08
9.67336e-08
9.67336e-08
9.67325e-08
9.673e-08
9.69511e-08
9.69177e-08
9.68983e-08
9.67288e-08
9.67319e-08
9.67325e-08
9.67325e-08
9.67319e-08
9.67288e-08
9.69539e-08
9.70313e-08
9.70294e-08
9.69161e-08
9.67288e-08
9.673e-08
9.673e-08
9.67288e-08
9.69394e-08
9.69343e-08
9.70321e-08
9.70024e-08
9.69138e-08
9.69524e-08
9.69529e-08
9.69511e-08
9.69539e-08
9.69343e-08
9.70379e-08
9.70286e-08
9.70267e-08
9.69177e-08
9.70313e-08
9.70321e-08
9.58032e-08
9.57949e-08
9.58021e-08
9.56979e-08
9.56944e-08
9.56988e-08
9.56961e-08
9.58245e-08
9.57987e-08
9.58021e-08
9.5692e-08
9.55322e-08
9.55331e-08
9.55331e-08
9.55322e-08
9.57137e-08
9.57119e-08
9.56979e-08
9.55322e-08
9.55349e-08
9.55351e-08
9.55351e-08
9.55349e-08
9.55322e-08
9.57497e-08
9.58243e-08
9.58032e-08
9.56943e-08
9.55331e-08
9.55351e-08
9.55359e-08
9.55359e-08
9.55351e-08
9.55331e-08
9.57498e-08
9.58224e-08
9.57949e-08
9.56988e-08
9.55331e-08
9.55351e-08
9.55359e-08
9.55359e-08
9.55351e-08
9.55331e-08
9.5748e-08
9.57157e-08
9.56961e-08
9.55322e-08
9.55349e-08
9.55351e-08
9.55351e-08
9.55349e-08
9.55322e-08
9.57505e-08
9.58268e-08
9.58245e-08
9.57137e-08
9.55322e-08
9.55331e-08
9.55331e-08
9.55322e-08
9.57365e-08
9.57316e-08
9.58273e-08
9.57987e-08
9.57119e-08
9.57497e-08
9.57498e-08
9.5748e-08
9.57505e-08
9.57316e-08
9.58333e-08
9.58243e-08
9.58224e-08
9.57156e-08
9.58268e-08
9.58273e-08
9.46345e-08
9.46263e-08
9.46334e-08
9.45309e-08
9.45271e-08
9.45312e-08
9.45287e-08
9.46551e-08
9.46303e-08
9.46334e-08
9.45248e-08
9.43696e-08
9.43703e-08
9.43703e-08
9.43696e-08
9.45464e-08
9.45449e-08
9.45309e-08
9.43696e-08
9.43721e-08
9.4372e-08
9.4372e-08
9.43721e-08
9.43696e-08
9.45823e-08
9.46555e-08
9.46345e-08
9.45271e-08
9.43703e-08
9.4372e-08
9.43724e-08
9.43724e-08
9.4372e-08
9.43703e-08
9.45821e-08
9.46536e-08
9.46262e-08
9.45312e-08
9.43703e-08
9.4372e-08
9.43724e-08
9.43724e-08
9.4372e-08
9.43703e-08
9.45803e-08
9.45485e-08
9.45287e-08
9.43696e-08
9.43721e-08
9.4372e-08
9.4372e-08
9.43721e-08
9.43696e-08
9.45826e-08
9.46577e-08
9.46551e-08
9.45463e-08
9.43696e-08
9.43703e-08
9.43703e-08
9.43696e-08
9.45689e-08
9.45639e-08
9.46581e-08
9.46303e-08
9.45449e-08
9.45823e-08
9.45821e-08
9.45803e-08
9.45826e-08
9.45639e-08
9.46643e-08
9.46555e-08
9.46536e-08
9.45485e-08
9.46577e-08
9.46581e-08
9.34922e-08
9.3484e-08
9.3491e-08
9.33898e-08
9.33858e-08
9.33897e-08
9.33874e-08
9.35124e-08
9.34882e-08
9.3491e-08
9.33835e-08
9.32317e-08
9.32323e-08
9.32323e-08
9.32317e-08
9.34051e-08
9.34038e-08
9.33897e-08
9.32317e-08
9.32342e-08
9.32337e-08
9.32337e-08
9.32342e-08
9.32317e-08
9.34412e-08
9.35131e-08
9.34922e-08
9.33858e-08
9.32323e-08
9.32337e-08
9.32337e-08
9.32337e-08
9.32337e-08
9.32323e-08
9.34408e-08
9.35112e-08
9.34839e-08
9.33896e-08
9.32323e-08
9.32337e-08
9.32337e-08
9.32337e-08
9.32337e-08
9.32323e-08
9.34389e-08
9.34072e-08
9.33873e-08
9.32317e-08
9.32342e-08
9.32337e-08
9.32337e-08
9.32342e-08
9.32317e-08
9.34409e-08
9.35152e-08
9.35123e-08
9.34051e-08
9.32317e-08
9.32323e-08
9.32323e-08
9.32317e-08
9.34275e-08
9.34224e-08
9.35154e-08
9.34882e-08
9.34038e-08
9.34411e-08
9.34408e-08
9.34389e-08
9.34409e-08
9.34224e-08
9.35219e-08
9.35131e-08
9.35112e-08
9.34072e-08
9.35152e-08
9.35154e-08
9.23669e-08
9.23586e-08
9.23657e-08
9.22651e-08
9.2261e-08
9.22647e-08
9.22625e-08
9.23868e-08
9.2363e-08
9.23654e-08
9.22587e-08
9.2109e-08
9.21095e-08
9.21095e-08
9.2109e-08
9.22804e-08
9.22785e-08
9.22649e-08
9.21089e-08
9.21115e-08
9.21107e-08
9.21107e-08
9.21115e-08
9.21089e-08
9.23164e-08
9.23876e-08
9.23667e-08
9.22609e-08
9.21094e-08
9.21107e-08
9.21105e-08
9.21105e-08
9.21107e-08
9.21094e-08
9.2316e-08
9.23857e-08
9.23585e-08
9.22647e-08
9.21094e-08
9.21107e-08
9.21105e-08
9.21105e-08
9.21107e-08
9.21094e-08
9.23141e-08
9.22825e-08
9.22625e-08
9.21089e-08
9.21114e-08
9.21107e-08
9.21107e-08
9.21114e-08
9.21089e-08
9.2316e-08
9.23896e-08
9.23867e-08
9.22804e-08
9.21089e-08
9.21094e-08
9.21094e-08
9.21089e-08
9.23027e-08
9.22977e-08
9.23898e-08
9.23629e-08
9.22784e-08
9.23164e-08
9.2316e-08
9.2314e-08
9.23158e-08
9.22972e-08
9.23964e-08
9.23875e-08
9.23856e-08
9.22824e-08
9.23895e-08
9.23896e-08
9.12506e-08
9.12423e-08
9.12495e-08
9.11492e-08
9.11451e-08
9.11487e-08
9.11466e-08
9.12704e-08
9.12468e-08
9.12492e-08
9.11427e-08
9.09941e-08
9.09945e-08
9.09945e-08
9.09941e-08
9.11645e-08
9.11626e-08
9.1149e-08
9.0994e-08
9.09967e-08
9.09957e-08
9.09957e-08
9.09967e-08
9.0994e-08
9.12007e-08
9.12713e-08
9.12505e-08
9.11449e-08
9.09945e-08
9.09957e-08
9.09953e-08
9.09953e-08
9.09957e-08
9.09945e-08
9.12003e-08
9.12695e-08
9.12422e-08
9.11486e-08
9.09945e-08
9.09957e-08
9.09953e-08
9.09953e-08
9.09957e-08
9.09945e-08
9.11983e-08
9.11666e-08
9.11465e-08
9.0994e-08
9.09967e-08
9.09957e-08
9.09957e-08
9.09967e-08
9.0994e-08
9.12e-08
9.12733e-08
9.12703e-08
9.11645e-08
9.0994e-08
9.09944e-08
9.09944e-08
9.0994e-08
9.11868e-08
9.11817e-08
9.12734e-08
9.12467e-08
9.11626e-08
9.12006e-08
9.12002e-08
9.11982e-08
9.11999e-08
9.11812e-08
9.12801e-08
9.12713e-08
9.12694e-08
9.11664e-08
9.12732e-08
9.12732e-08
9.01386e-08
9.01303e-08
9.01375e-08
9.00374e-08
9.00332e-08
9.00368e-08
9.00346e-08
9.01582e-08
9.01346e-08
9.01372e-08
9.00309e-08
8.98827e-08
8.98831e-08
8.98831e-08
8.98827e-08
9.00526e-08
9.0052e-08
9.00372e-08
8.98826e-08
8.98854e-08
8.98843e-08
8.98843e-08
8.98855e-08
8.98827e-08
9.00892e-08
9.01596e-08
9.01385e-08
9.00331e-08
8.98831e-08
8.98843e-08
8.98838e-08
8.98838e-08
8.98843e-08
8.98831e-08
9.00886e-08
9.01576e-08
9.01302e-08
9.00368e-08
8.98831e-08
8.98843e-08
8.98838e-08
8.98838e-08
8.98843e-08
8.98831e-08
9.00866e-08
9.00548e-08
9.00346e-08
8.98826e-08
8.98854e-08
8.98843e-08
8.98843e-08
8.98854e-08
8.98827e-08
9.00883e-08
9.01614e-08
9.01583e-08
9.00527e-08
8.98826e-08
8.9883e-08
8.9883e-08
8.98826e-08
9.00751e-08
9.00699e-08
9.01615e-08
9.01348e-08
9.00508e-08
9.00889e-08
9.00884e-08
9.00864e-08
9.00881e-08
9.00694e-08
9.01681e-08
9.01593e-08
9.01574e-08
9.00546e-08
9.01612e-08
9.01612e-08
8.90284e-08
8.90202e-08
8.90273e-08
8.89273e-08
8.89231e-08
8.89267e-08
8.89246e-08
8.90482e-08
8.90246e-08
8.9027e-08
8.89207e-08
8.87727e-08
8.87732e-08
8.87732e-08
8.87727e-08
8.89426e-08
8.89408e-08
8.89271e-08
8.87726e-08
8.87757e-08
8.87744e-08
8.87744e-08
8.87757e-08
8.87727e-08
8.89789e-08
8.90492e-08
8.90283e-08
8.8923e-08
8.87731e-08
8.87744e-08
8.87738e-08
8.87738e-08
8.87744e-08
8.87731e-08
8.89784e-08
8.90474e-08
8.902e-08
8.89266e-08
8.87731e-08
8.87743e-08
8.87738e-08
8.87738e-08
8.87744e-08
8.87731e-08
8.89764e-08
8.89446e-08
8.89245e-08
8.87727e-08
8.87756e-08
8.87743e-08
8.87743e-08
8.87756e-08
8.87727e-08
8.89781e-08
8.90512e-08
8.90481e-08
8.89425e-08
8.87726e-08
8.87731e-08
8.87731e-08
8.87726e-08
8.89649e-08
8.89598e-08
8.90512e-08
8.90246e-08
8.89407e-08
8.89788e-08
8.89784e-08
8.89763e-08
8.8978e-08
8.89593e-08
8.90579e-08
8.90491e-08
8.90472e-08
8.89445e-08
8.9051e-08
8.9051e-08
8.79189e-08
8.79106e-08
8.79177e-08
8.78178e-08
8.78136e-08
8.78172e-08
8.7815e-08
8.79386e-08
8.79151e-08
8.79175e-08
8.78112e-08
8.76633e-08
8.76637e-08
8.76637e-08
8.76633e-08
8.78331e-08
8.78312e-08
8.78175e-08
8.76632e-08
8.76661e-08
8.76649e-08
8.76649e-08
8.76661e-08
8.76632e-08
8.78694e-08
8.79397e-08
8.79188e-08
8.78135e-08
8.76636e-08
8.76649e-08
8.76643e-08
8.76643e-08
8.76649e-08
8.76637e-08
8.78689e-08
8.79378e-08
8.79105e-08
8.78171e-08
8.76636e-08
8.76649e-08
8.76643e-08
8.76643e-08
8.76649e-08
8.76637e-08
8.78669e-08
8.78351e-08
8.7815e-08
8.76632e-08
8.7666e-08
8.76649e-08
8.76649e-08
8.7666e-08
8.76633e-08
8.78686e-08
8.79416e-08
8.79386e-08
8.7833e-08
8.76632e-08
8.76636e-08
8.76636e-08
8.76632e-08
8.78554e-08
8.78502e-08
8.79417e-08
8.7915e-08
8.78312e-08
8.78693e-08
8.78689e-08
8.78668e-08
8.78685e-08
8.78498e-08
8.79484e-08
8.79396e-08
8.79377e-08
8.7835e-08
8.79415e-08
8.79415e-08
8.68095e-08
8.68012e-08
8.68084e-08
8.67084e-08
8.67042e-08
8.67078e-08
8.67056e-08
8.68291e-08
8.68056e-08
8.68081e-08
8.67019e-08
8.6554e-08
8.65544e-08
8.65544e-08
8.6554e-08
8.67236e-08
8.6723e-08
8.67082e-08
8.65539e-08
8.65567e-08
8.65556e-08
8.65556e-08
8.65568e-08
8.6554e-08
8.67603e-08
8.68305e-08
8.68094e-08
8.67041e-08
8.65543e-08
8.65556e-08
8.6555e-08
8.6555e-08
8.65557e-08
8.65544e-08
8.67597e-08
8.68286e-08
8.68011e-08
8.67077e-08
8.65543e-08
8.65556e-08
8.6555e-08
8.6555e-08
8.65557e-08
8.65544e-08
8.67576e-08
8.67258e-08
8.67055e-08
8.65539e-08
8.65567e-08
8.65556e-08
8.65556e-08
8.65568e-08
8.6554e-08
8.67592e-08
8.68322e-08
8.6829e-08
8.67236e-08
8.6554e-08
8.65544e-08
8.65544e-08
8.6554e-08
8.67461e-08
8.67405e-08
8.68322e-08
8.68055e-08
8.67229e-08
8.67602e-08
8.67597e-08
8.67576e-08
8.67593e-08
8.6741e-08
8.68391e-08
8.68305e-08
8.68285e-08
8.67258e-08
8.68323e-08
8.68324e-08
8.57003e-08
8.5692e-08
8.56991e-08
8.55992e-08
8.5595e-08
8.55986e-08
8.55964e-08
8.57198e-08
8.56964e-08
8.56989e-08
8.55927e-08
8.54448e-08
8.54452e-08
8.54451e-08
8.54447e-08
8.56144e-08
8.56138e-08
8.5599e-08
8.54447e-08
8.54475e-08
8.54464e-08
8.54464e-08
8.54475e-08
8.54448e-08
8.56511e-08
8.57213e-08
8.57002e-08
8.55949e-08
8.54451e-08
8.54464e-08
8.54458e-08
8.54458e-08
8.54464e-08
8.54452e-08
8.56505e-08
8.57194e-08
8.56919e-08
8.55985e-08
8.54451e-08
8.54464e-08
8.54458e-08
8.54458e-08
8.54464e-08
8.54452e-08
8.56484e-08
8.56166e-08
8.55963e-08
8.54447e-08
8.54475e-08
8.54464e-08
8.54464e-08
8.54475e-08
8.54448e-08
8.56501e-08
8.57231e-08
8.57198e-08
8.56143e-08
8.54447e-08
8.54451e-08
8.54451e-08
8.54447e-08
8.56369e-08
8.56317e-08
8.57232e-08
8.56963e-08
8.56137e-08
8.5651e-08
8.56504e-08
8.56483e-08
8.56499e-08
8.56313e-08
8.57299e-08
8.57212e-08
8.57193e-08
8.56165e-08
8.5723e-08
8.5723e-08
8.45911e-08
8.45828e-08
8.45899e-08
8.449e-08
8.44858e-08
8.44894e-08
8.44872e-08
8.46106e-08
8.45872e-08
8.45897e-08
8.44835e-08
8.43356e-08
8.4336e-08
8.43359e-08
8.43356e-08
8.45052e-08
8.45046e-08
8.44898e-08
8.43355e-08
8.43383e-08
8.43372e-08
8.43372e-08
8.43383e-08
8.43356e-08
8.45419e-08
8.46121e-08
8.4591e-08
8.44857e-08
8.43359e-08
8.43372e-08
8.43366e-08
8.43366e-08
8.43372e-08
8.4336e-08
8.45413e-08
8.46102e-08
8.45827e-08
8.44893e-08
8.43359e-08
8.43372e-08
8.43366e-08
8.43366e-08
8.43372e-08
8.4336e-08
8.45392e-08
8.45074e-08
8.44872e-08
8.43355e-08
8.43383e-08
8.43372e-08
8.43372e-08
8.43383e-08
8.43356e-08
8.45409e-08
8.46139e-08
8.46108e-08
8.45052e-08
8.43355e-08
8.43359e-08
8.43359e-08
8.43355e-08
8.45277e-08
8.45225e-08
8.4614e-08
8.45873e-08
8.45034e-08
8.45416e-08
8.45411e-08
8.45391e-08
8.45407e-08
8.45221e-08
8.46206e-08
8.46118e-08
8.461e-08
8.45073e-08
8.46137e-08
8.46137e-08
8.34819e-08
8.34736e-08
8.34808e-08
8.33808e-08
8.33766e-08
8.33802e-08
8.33781e-08
8.35017e-08
8.34781e-08
8.34805e-08
8.33743e-08
8.32264e-08
8.32268e-08
8.32268e-08
8.32264e-08
8.33961e-08
8.33943e-08
8.33806e-08
8.32263e-08
8.32291e-08
8.3228e-08
8.3228e-08
8.32291e-08
8.32264e-08
8.34325e-08
8.35027e-08
8.34818e-08
8.33765e-08
8.32267e-08
8.3228e-08
8.32274e-08
8.32274e-08
8.3228e-08
8.32268e-08
8.3432e-08
8.35009e-08
8.34735e-08
8.33801e-08
8.32267e-08
8.3228e-08
8.32274e-08
8.32274e-08
8.3228e-08
8.32268e-08
8.343e-08
8.33982e-08
8.3378e-08
8.32263e-08
8.32291e-08
8.3228e-08
8.3228e-08
8.32291e-08
8.32264e-08
8.34317e-08
8.35047e-08
8.35016e-08
8.33961e-08
8.32263e-08
8.32267e-08
8.32267e-08
8.32263e-08
8.34185e-08
8.34133e-08
8.35048e-08
8.34781e-08
8.33942e-08
8.34324e-08
8.34319e-08
8.34299e-08
8.34315e-08
8.34128e-08
8.35114e-08
8.35026e-08
8.35007e-08
8.3398e-08
8.35045e-08
8.35045e-08
8.23727e-08
8.23644e-08
8.23716e-08
8.22716e-08
8.22674e-08
8.2271e-08
8.22688e-08
8.23922e-08
8.23688e-08
8.23713e-08
8.22651e-08
8.21172e-08
8.21175e-08
8.21175e-08
8.21171e-08
8.22868e-08
8.22862e-08
8.22714e-08
8.21171e-08
8.21199e-08
8.21188e-08
8.21188e-08
8.21199e-08
8.21172e-08
8.23235e-08
8.23937e-08
8.23726e-08
8.22673e-08
8.21175e-08
8.21188e-08
8.21182e-08
8.21182e-08
8.21188e-08
8.21176e-08
8.23229e-08
8.23918e-08
8.23643e-08
8.22709e-08
8.21175e-08
8.21188e-08
8.21182e-08
8.21182e-08
8.21188e-08
8.21176e-08
8.23208e-08
8.2289e-08
8.22688e-08
8.21171e-08
8.21199e-08
8.21188e-08
8.21188e-08
8.21199e-08
8.21172e-08
8.23225e-08
8.23955e-08
8.23924e-08
8.22868e-08
8.21171e-08
8.21175e-08
8.21175e-08
8.21171e-08
8.23093e-08
8.23041e-08
8.23956e-08
8.23689e-08
8.2285e-08
8.23232e-08
8.23227e-08
8.23207e-08
8.23223e-08
8.23037e-08
8.24022e-08
8.23934e-08
8.23915e-08
8.22888e-08
8.23953e-08
8.23953e-08
8.12635e-08
8.12552e-08
8.12623e-08
8.11624e-08
8.11582e-08
8.11617e-08
8.11595e-08
8.1283e-08
8.12595e-08
8.12621e-08
8.11558e-08
8.10079e-08
8.10083e-08
8.10083e-08
8.10079e-08
8.11776e-08
8.1177e-08
8.11622e-08
8.10079e-08
8.10107e-08
8.10096e-08
8.10096e-08
8.10107e-08
8.1008e-08
8.12143e-08
8.12845e-08
8.12634e-08
8.11581e-08
8.10083e-08
8.10096e-08
8.1009e-08
8.1009e-08
8.10096e-08
8.10084e-08
8.12137e-08
8.12826e-08
8.12551e-08
8.11617e-08
8.10083e-08
8.10096e-08
8.1009e-08
8.1009e-08
8.10096e-08
8.10084e-08
8.12116e-08
8.11798e-08
8.11596e-08
8.10079e-08
8.10107e-08
8.10096e-08
8.10096e-08
8.10107e-08
8.1008e-08
8.12133e-08
8.12863e-08
8.12832e-08
8.11776e-08
8.10079e-08
8.10083e-08
8.10083e-08
8.10079e-08
8.12001e-08
8.11949e-08
8.12864e-08
8.12597e-08
8.11758e-08
8.1214e-08
8.12135e-08
8.12115e-08
8.12131e-08
8.11945e-08
8.1293e-08
8.12842e-08
8.12823e-08
8.11796e-08
8.12861e-08
8.12861e-08
8.01543e-08
8.01459e-08
8.01531e-08
8.00531e-08
8.0049e-08
8.00525e-08
8.00503e-08
8.01738e-08
8.01503e-08
8.01529e-08
8.00466e-08
7.98987e-08
7.98991e-08
7.98991e-08
7.98987e-08
8.00684e-08
8.00677e-08
8.0053e-08
7.98987e-08
7.99015e-08
7.99004e-08
7.99004e-08
7.99015e-08
7.98988e-08
8.01051e-08
8.01753e-08
8.01542e-08
8.00489e-08
7.98991e-08
7.99004e-08
7.98998e-08
7.98998e-08
7.99004e-08
7.98992e-08
8.01045e-08
8.01734e-08
8.01459e-08
8.00525e-08
7.98991e-08
7.99004e-08
7.98998e-08
7.98998e-08
7.99004e-08
7.98992e-08
8.01024e-08
8.00706e-08
8.00504e-08
7.98987e-08
7.99015e-08
7.99004e-08
7.99004e-08
7.99015e-08
7.98988e-08
8.01041e-08
8.01771e-08
8.0174e-08
8.00685e-08
7.98987e-08
7.98991e-08
7.98991e-08
7.98987e-08
8.00909e-08
8.00857e-08
8.01772e-08
8.01505e-08
8.00666e-08
8.01048e-08
8.01043e-08
8.01023e-08
8.01039e-08
8.00852e-08
8.01838e-08
8.0175e-08
8.01731e-08
8.00704e-08
8.01769e-08
8.01769e-08
7.9045e-08
7.90367e-08
7.90437e-08
7.89438e-08
7.89397e-08
7.89433e-08
7.89411e-08
7.90646e-08
7.90411e-08
7.90439e-08
7.89375e-08
7.87895e-08
7.87899e-08
7.87899e-08
7.87895e-08
7.89592e-08
7.89585e-08
7.8944e-08
7.87895e-08
7.87923e-08
7.87912e-08
7.87912e-08
7.87923e-08
7.87896e-08
7.89958e-08
7.90661e-08
7.90451e-08
7.89398e-08
7.87899e-08
7.87912e-08
7.87906e-08
7.87906e-08
7.87912e-08
7.879e-08
7.89953e-08
7.90642e-08
7.90368e-08
7.89434e-08
7.87899e-08
7.87912e-08
7.87906e-08
7.87906e-08
7.87912e-08
7.879e-08
7.89932e-08
7.89614e-08
7.89412e-08
7.87895e-08
7.87923e-08
7.87912e-08
7.87912e-08
7.87923e-08
7.87896e-08
7.89949e-08
7.90679e-08
7.90648e-08
7.89593e-08
7.87895e-08
7.87899e-08
7.87899e-08
7.87895e-08
7.89817e-08
7.89765e-08
7.9068e-08
7.90413e-08
7.89574e-08
7.89956e-08
7.89951e-08
7.89931e-08
7.89947e-08
7.89761e-08
7.90746e-08
7.90658e-08
7.9064e-08
7.89613e-08
7.90677e-08
7.90677e-08
7.79359e-08
7.79275e-08
7.79347e-08
7.78348e-08
7.78306e-08
7.78341e-08
7.78319e-08
7.79554e-08
7.79319e-08
7.79345e-08
7.78282e-08
7.76804e-08
7.76807e-08
7.76807e-08
7.76803e-08
7.785e-08
7.78493e-08
7.78346e-08
7.76803e-08
7.76831e-08
7.7682e-08
7.7682e-08
7.76831e-08
7.76804e-08
7.78867e-08
7.79569e-08
7.79358e-08
7.78305e-08
7.76807e-08
7.7682e-08
7.76814e-08
7.76814e-08
7.7682e-08
7.76808e-08
7.78861e-08
7.79549e-08
7.79275e-08
7.78341e-08
7.76807e-08
7.7682e-08
7.76814e-08
7.76814e-08
7.7682e-08
7.76808e-08
7.7884e-08
7.78522e-08
7.78319e-08
7.76803e-08
7.76831e-08
7.7682e-08
7.7682e-08
7.76831e-08
7.76804e-08
7.78857e-08
7.79587e-08
7.79554e-08
7.78499e-08
7.76804e-08
7.76807e-08
7.76807e-08
7.76803e-08
7.78725e-08
7.78673e-08
7.79588e-08
7.79319e-08
7.78493e-08
7.78866e-08
7.7886e-08
7.7884e-08
7.78856e-08
7.78669e-08
7.79655e-08
7.79568e-08
7.79549e-08
7.78521e-08
7.79586e-08
7.79586e-08
7.68267e-08
7.68184e-08
7.68256e-08
7.67256e-08
7.67214e-08
7.6725e-08
7.67228e-08
7.68462e-08
7.68228e-08
7.68253e-08
7.67191e-08
7.65712e-08
7.65716e-08
7.65716e-08
7.65712e-08
7.67408e-08
7.67402e-08
7.67254e-08
7.65711e-08
7.65739e-08
7.65728e-08
7.65728e-08
7.6574e-08
7.65712e-08
7.67774e-08
7.68477e-08
7.68266e-08
7.67213e-08
7.65715e-08
7.65728e-08
7.65722e-08
7.65722e-08
7.65728e-08
7.65716e-08
7.67769e-08
7.68457e-08
7.68183e-08
7.67249e-08
7.65715e-08
7.65728e-08
7.65722e-08
7.65722e-08
7.65728e-08
7.65716e-08
7.67748e-08
7.6743e-08
7.67227e-08
7.65711e-08
7.65739e-08
7.65728e-08
7.65729e-08
7.6574e-08
7.65712e-08
7.67764e-08
7.68494e-08
7.68462e-08
7.67408e-08
7.65712e-08
7.65716e-08
7.65716e-08
7.65712e-08
7.67633e-08
7.67577e-08
7.68494e-08
7.68227e-08
7.67401e-08
7.67774e-08
7.67769e-08
7.67748e-08
7.67765e-08
7.67582e-08
7.68563e-08
7.68477e-08
7.68457e-08
7.6743e-08
7.68495e-08
7.68496e-08
7.57176e-08
7.57093e-08
7.57164e-08
7.56165e-08
7.56123e-08
7.56159e-08
7.56137e-08
7.57373e-08
7.57138e-08
7.57161e-08
7.56099e-08
7.5462e-08
7.54624e-08
7.54624e-08
7.5462e-08
7.56318e-08
7.56299e-08
7.56162e-08
7.5462e-08
7.54648e-08
7.54637e-08
7.54637e-08
7.54648e-08
7.5462e-08
7.56681e-08
7.57383e-08
7.57174e-08
7.56122e-08
7.54624e-08
7.54637e-08
7.5463e-08
7.5463e-08
7.54637e-08
7.54624e-08
7.56676e-08
7.57365e-08
7.57092e-08
7.56158e-08
7.54624e-08
7.54637e-08
7.5463e-08
7.5463e-08
7.54637e-08
7.54624e-08
7.56656e-08
7.56337e-08
7.56137e-08
7.5462e-08
7.54648e-08
7.54637e-08
7.54637e-08
7.54648e-08
7.5462e-08
7.56672e-08
7.57402e-08
7.57372e-08
7.56317e-08
7.5462e-08
7.54624e-08
7.54624e-08
7.5462e-08
7.56541e-08
7.56485e-08
7.57402e-08
7.57137e-08
7.56299e-08
7.56681e-08
7.56676e-08
7.56656e-08
7.56673e-08
7.5649e-08
7.57471e-08
7.57383e-08
7.57365e-08
7.56338e-08
7.57403e-08
7.57404e-08
7.46084e-08
7.46001e-08
7.46073e-08
7.45073e-08
7.45031e-08
7.45067e-08
7.45046e-08
7.46281e-08
7.46046e-08
7.4607e-08
7.45008e-08
7.43529e-08
7.43533e-08
7.43533e-08
7.43529e-08
7.45226e-08
7.45208e-08
7.45071e-08
7.43528e-08
7.43556e-08
7.43545e-08
7.43545e-08
7.43556e-08
7.43528e-08
7.45589e-08
7.46292e-08
7.46083e-08
7.4503e-08
7.43532e-08
7.43545e-08
7.43539e-08
7.43539e-08
7.43545e-08
7.43532e-08
7.45585e-08
7.46273e-08
7.46e-08
7.45066e-08
7.43532e-08
7.43545e-08
7.43539e-08
7.43539e-08
7.43545e-08
7.43532e-08
7.45565e-08
7.45246e-08
7.45045e-08
7.43528e-08
7.43556e-08
7.43545e-08
7.43545e-08
7.43556e-08
7.43528e-08
7.45581e-08
7.46311e-08
7.46281e-08
7.45226e-08
7.43528e-08
7.43532e-08
7.43532e-08
7.43528e-08
7.4545e-08
7.45398e-08
7.46312e-08
7.46046e-08
7.45207e-08
7.45589e-08
7.45584e-08
7.45564e-08
7.4558e-08
7.45393e-08
7.46379e-08
7.46291e-08
7.46273e-08
7.45246e-08
7.4631e-08
7.4631e-08
7.34992e-08
7.34909e-08
7.34981e-08
7.33981e-08
7.33939e-08
7.33975e-08
7.33953e-08
7.35187e-08
7.34952e-08
7.34978e-08
7.33916e-08
7.32437e-08
7.32441e-08
7.3244e-08
7.32436e-08
7.34133e-08
7.34127e-08
7.33979e-08
7.32436e-08
7.32464e-08
7.32453e-08
7.32453e-08
7.32464e-08
7.32437e-08
7.345e-08
7.35202e-08
7.34991e-08
7.33938e-08
7.3244e-08
7.32453e-08
7.32447e-08
7.32447e-08
7.32453e-08
7.32441e-08
7.34494e-08
7.35182e-08
7.34909e-08
7.33975e-08
7.3244e-08
7.32453e-08
7.32447e-08
7.32447e-08
7.32453e-08
7.32441e-08
7.34473e-08
7.34155e-08
7.33953e-08
7.32437e-08
7.32464e-08
7.32453e-08
7.32453e-08
7.32464e-08
7.32437e-08
7.3449e-08
7.3522e-08
7.35189e-08
7.34134e-08
7.32436e-08
7.3244e-08
7.3244e-08
7.32436e-08
7.34358e-08
7.34306e-08
7.35221e-08
7.34954e-08
7.34116e-08
7.34497e-08
7.34493e-08
7.34472e-08
7.34488e-08
7.34302e-08
7.35288e-08
7.352e-08
7.35181e-08
7.34154e-08
7.35219e-08
7.35219e-08
7.23899e-08
7.23816e-08
7.23886e-08
7.22887e-08
7.22846e-08
7.22882e-08
7.22861e-08
7.24095e-08
7.2386e-08
7.23889e-08
7.22824e-08
7.21344e-08
7.21348e-08
7.21348e-08
7.21344e-08
7.23041e-08
7.23035e-08
7.22889e-08
7.21345e-08
7.21372e-08
7.21361e-08
7.21361e-08
7.21373e-08
7.21345e-08
7.23408e-08
7.2411e-08
7.239e-08
7.22847e-08
7.21349e-08
7.21362e-08
7.21355e-08
7.21355e-08
7.21362e-08
7.21349e-08
7.23402e-08
7.2409e-08
7.23817e-08
7.22883e-08
7.21349e-08
7.21362e-08
7.21355e-08
7.21355e-08
7.21362e-08
7.21349e-08
7.23381e-08
7.23063e-08
7.22861e-08
7.21345e-08
7.21373e-08
7.21362e-08
7.21362e-08
7.21373e-08
7.21345e-08
7.23397e-08
7.24127e-08
7.24095e-08
7.23041e-08
7.21345e-08
7.21349e-08
7.21349e-08
7.21345e-08
7.23267e-08
7.2321e-08
7.24127e-08
7.23861e-08
7.23035e-08
7.23408e-08
7.23402e-08
7.23382e-08
7.23398e-08
7.23215e-08
7.24196e-08
7.2411e-08
7.24091e-08
7.23063e-08
7.24128e-08
7.24129e-08
7.12807e-08
7.12725e-08
7.12794e-08
7.11796e-08
7.11755e-08
7.11791e-08
7.11769e-08
7.13004e-08
7.12769e-08
7.12797e-08
7.11732e-08
7.10253e-08
7.10257e-08
7.10257e-08
7.10253e-08
7.11949e-08
7.11943e-08
7.11797e-08
7.10253e-08
7.10281e-08
7.1027e-08
7.1027e-08
7.10281e-08
7.10253e-08
7.12316e-08
7.13018e-08
7.12808e-08
7.11755e-08
7.10257e-08
7.1027e-08
7.10264e-08
7.10264e-08
7.1027e-08
7.10257e-08
7.1231e-08
7.12999e-08
7.12725e-08
7.11791e-08
7.10257e-08
7.1027e-08
7.10264e-08
7.10264e-08
7.1027e-08
7.10257e-08
7.12289e-08
7.11971e-08
7.11769e-08
7.10253e-08
7.10281e-08
7.1027e-08
7.1027e-08
7.10281e-08
7.10253e-08
7.12305e-08
7.13035e-08
7.13004e-08
7.11949e-08
7.10253e-08
7.10257e-08
7.10257e-08
7.10253e-08
7.12175e-08
7.12119e-08
7.13035e-08
7.12769e-08
7.11943e-08
7.12316e-08
7.1231e-08
7.1229e-08
7.12306e-08
7.12123e-08
7.13104e-08
7.13018e-08
7.12999e-08
7.11972e-08
7.13037e-08
7.13037e-08
7.01717e-08
7.01634e-08
7.01706e-08
7.00706e-08
7.00664e-08
7.007e-08
7.00679e-08
7.01914e-08
7.01679e-08
7.01703e-08
7.00641e-08
6.99162e-08
6.99166e-08
6.99166e-08
6.99162e-08
7.00859e-08
7.00841e-08
7.00704e-08
6.99161e-08
6.99189e-08
6.99178e-08
6.99178e-08
6.99189e-08
6.99162e-08
7.01222e-08
7.01925e-08
7.01716e-08
7.00663e-08
6.99165e-08
6.99178e-08
6.99172e-08
6.99172e-08
6.99178e-08
6.99166e-08
7.01218e-08
7.01907e-08
7.01633e-08
7.00699e-08
6.99165e-08
6.99178e-08
6.99172e-08
6.99172e-08
6.99178e-08
6.99166e-08
7.01198e-08
7.0088e-08
7.00678e-08
6.99162e-08
6.99189e-08
6.99178e-08
6.99178e-08
6.99189e-08
6.99162e-08
7.01215e-08
7.01945e-08
7.01914e-08
7.00859e-08
6.99161e-08
6.99165e-08
6.99165e-08
6.99161e-08
7.01083e-08