/*--------------------------------*- C++ -*----------------------------------*\
| =========                 |                                                 |
| \\      /  F ield         | OpenFOAM: The Open Source CFD Toolbox           |
|  \\    /   O peration     | Version:  2312                                  |
|   \\  /    A nd           | Website:  www.openfoam.com                      |
|    \\/     M anipulation  |                                                 |
\*---------------------------------------------------------------------------*/
FoamFile
{
    version     2.0;
    format      ascii;
    arch        "LSB;label=32;scalar=64";
    class       volScalarField;
    location    "375";
    object      epsilon;
}
// * * * * * * * * * * * * * * * * * * * * * * * * * * * * * * * * * * * * * //

dimensions      [0 2 -3 0 0 0 0];

internalField   nonuniform List<scalar> 
43211
(
4.9917e-07
4.99974e-07
4.99974e-07
4.99867e-07
4.45574e-07
4.54107e-07
4.54107e-07
4.63745e-07
4.03788e-07
4.18744e-07
4.18746e-07
4.39534e-07
3.68405e-07
3.88705e-07
3.88708e-07
4.17793e-07
3.38054e-07
3.62209e-07
3.62212e-07
3.96187e-07
3.11679e-07
3.38348e-07
3.38352e-07
3.74663e-07
2.885e-07
3.16691e-07
3.16695e-07
3.53771e-07
2.67943e-07
2.9706e-07
2.97064e-07
3.34191e-07
2.49595e-07
2.79396e-07
2.794e-07
3.16514e-07
2.33147e-07
2.63696e-07
2.637e-07
3.0118e-07
2.18372e-07
2.49965e-07
2.49969e-07
2.88503e-07
2.05093e-07
2.38204e-07
2.38208e-07
2.78701e-07
1.93172e-07
2.28412e-07
2.28417e-07
2.71878e-07
1.82496e-07
2.20599e-07
2.20603e-07
2.68161e-07
1.72975e-07
2.1477e-07
2.14774e-07
2.67638e-07
1.64535e-07
2.10934e-07
2.10939e-07
2.70491e-07
1.57114e-07
2.09104e-07
2.0911e-07
2.76695e-07
1.50659e-07
2.09295e-07
2.09301e-07
2.8628e-07
1.45126e-07
2.1155e-07
2.11557e-07
2.99235e-07
1.40479e-07
2.15889e-07
2.15897e-07
3.15622e-07
1.3669e-07
2.2233e-07
2.2234e-07
3.35379e-07
5.06203e-07
5.05587e-07
5.05586e-07
5.06203e-07
5.05586e-07
5.05586e-07
5.05987e-07
5.05987e-07
5.05987e-07
5.05987e-07
5.05588e-07
5.05588e-07
5.06203e-07
5.05588e-07
5.05587e-07
5.06204e-07
4.99868e-07
4.67259e-07
4.99975e-07
4.99976e-07
4.6413e-07
4.64138e-07
4.99868e-07
4.67258e-07
4.99976e-07
4.99976e-07
4.64134e-07
4.64139e-07
4.99974e-07
4.64124e-07
4.64129e-07
4.99867e-07
4.67261e-07
4.99976e-07
4.64125e-07
4.64134e-07
4.67263e-07
4.63745e-07
4.41544e-07
4.54112e-07
4.5412e-07
4.26998e-07
4.27007e-07
4.63745e-07
4.41543e-07
4.54116e-07
4.54123e-07
4.26998e-07
4.27009e-07
4.54113e-07
4.2699e-07
4.27e-07
4.63745e-07
4.41549e-07
4.54116e-07
4.26992e-07
4.27001e-07
4.41556e-07
4.39527e-07
4.19399e-07
4.18753e-07
4.18761e-07
3.95843e-07
3.95852e-07
4.3953e-07
4.19402e-07
4.18752e-07
4.18764e-07
3.95838e-07
3.95855e-07
4.18757e-07
3.95833e-07
3.95848e-07
4.39531e-07
4.19407e-07
4.18755e-07
3.95835e-07
3.95843e-07
4.19415e-07
4.17778e-07
3.97737e-07
3.88717e-07
3.88725e-07
3.68574e-07
3.68582e-07
4.17781e-07
3.97742e-07
3.8871e-07
3.88728e-07
3.68564e-07
3.68585e-07
3.88722e-07
3.68561e-07
3.68581e-07
4.17786e-07
3.97748e-07
3.88716e-07
3.68564e-07
3.68571e-07
3.97758e-07
3.96168e-07
3.76152e-07
3.62222e-07
3.6223e-07
3.4411e-07
3.44117e-07
3.96173e-07
3.76158e-07
3.62212e-07
3.62234e-07
3.44097e-07
3.44121e-07
3.6223e-07
3.44096e-07
3.44118e-07
3.96178e-07
3.76165e-07
3.62219e-07
3.44099e-07
3.44106e-07
3.76175e-07
3.74642e-07
3.55155e-07
3.38363e-07
3.3837e-07
3.21928e-07
3.21933e-07
3.74647e-07
3.55162e-07
3.38349e-07
3.38374e-07
3.21911e-07
3.21937e-07
3.38371e-07
3.21912e-07
3.21936e-07
3.74654e-07
3.55169e-07
3.38358e-07
3.21915e-07
3.21921e-07
3.55179e-07
3.53748e-07
3.35421e-07
3.16708e-07
3.16714e-07
3.01799e-07
3.01804e-07
3.53755e-07
3.35428e-07
3.16691e-07
3.16717e-07
3.01781e-07
3.01808e-07
3.16716e-07
3.01783e-07
3.01807e-07
3.53761e-07
3.35436e-07
3.16701e-07
3.01786e-07
3.01791e-07
3.35446e-07
3.34168e-07
3.17545e-07
2.97077e-07
2.97082e-07
2.83646e-07
2.83651e-07
3.34175e-07
3.17552e-07
2.97058e-07
2.97085e-07
2.83626e-07
2.83655e-07
2.97085e-07
2.83629e-07
2.83654e-07
3.34182e-07
3.17559e-07
2.97068e-07
2.83632e-07
2.83637e-07
3.1757e-07
3.1649e-07
3.01977e-07
2.79415e-07
2.7942e-07
2.67455e-07
2.6746e-07
3.16498e-07
3.01982e-07
2.79394e-07
2.79422e-07
2.67434e-07
2.67463e-07
2.79423e-07
2.67437e-07
2.67463e-07
3.16505e-07
3.0199e-07
2.79405e-07
2.6744e-07
2.67444e-07
3.02001e-07
3.01156e-07
2.89032e-07
2.63715e-07
2.6372e-07
2.53233e-07
2.53237e-07
3.01164e-07
2.89039e-07
2.63693e-07
2.63723e-07
2.5321e-07
2.53241e-07
2.63723e-07
2.53213e-07
2.5324e-07
3.0117e-07
2.89048e-07
2.63704e-07
2.53216e-07
2.53221e-07
2.89059e-07
2.88478e-07
2.78936e-07
2.49986e-07
2.4999e-07
2.4098e-07
2.40985e-07
2.88487e-07
2.78941e-07
2.49962e-07
2.49993e-07
2.40956e-07
2.40989e-07
2.49993e-07
2.40959e-07
2.40987e-07
2.88493e-07
2.78951e-07
2.49974e-07
2.40962e-07
2.40967e-07
2.78964e-07
2.78674e-07
2.71811e-07
2.38226e-07
2.38231e-07
2.30696e-07
2.30702e-07
2.78682e-07
2.71819e-07
2.38201e-07
2.38234e-07
2.30671e-07
2.30706e-07
2.38233e-07
2.30673e-07
2.30703e-07
2.7869e-07
2.71827e-07
2.38213e-07
2.30677e-07
2.30683e-07
2.71839e-07
2.71849e-07
2.67836e-07
2.28436e-07
2.28443e-07
2.22389e-07
2.22397e-07
2.7186e-07
2.67847e-07
2.2841e-07
2.28445e-07
2.22362e-07
2.224e-07
2.28444e-07
2.22364e-07
2.22396e-07
2.71867e-07
2.67856e-07
2.28423e-07
2.22367e-07
2.22375e-07
2.67871e-07
2.68128e-07
2.6695e-07
2.20625e-07
2.20633e-07
2.16063e-07
2.16074e-07
2.68142e-07
2.66961e-07
2.20598e-07
2.20636e-07
2.16035e-07
2.16077e-07
2.20633e-07
2.16036e-07
2.16071e-07
2.68149e-07
2.66972e-07
2.20611e-07
2.16039e-07
2.16049e-07
2.66987e-07
2.67601e-07
2.69119e-07
2.14798e-07
2.14809e-07
2.11728e-07
2.11743e-07
2.67616e-07
2.69134e-07
2.1477e-07
2.14812e-07
2.117e-07
2.11746e-07
2.14806e-07
2.11699e-07
2.11736e-07
2.67624e-07
2.69145e-07
2.14784e-07
2.11703e-07
2.11716e-07
2.69161e-07
2.70446e-07
2.74624e-07
2.10963e-07
2.1098e-07
2.09391e-07
2.09414e-07
2.70465e-07
2.74642e-07
2.10936e-07
2.10982e-07
2.09365e-07
2.09415e-07
2.10972e-07
2.09361e-07
2.094e-07
2.70474e-07
2.74654e-07
2.10952e-07
2.09366e-07
2.09383e-07
2.74675e-07
2.76645e-07
2.83504e-07
2.09132e-07
2.09158e-07
2.09101e-07
2.0913e-07
2.76667e-07
2.83526e-07
2.09108e-07
2.09159e-07
2.09076e-07
2.0913e-07
2.09143e-07
2.0907e-07
2.0911e-07
2.76675e-07
2.83538e-07
2.09126e-07
2.09076e-07
2.09096e-07
2.83562e-07
2.86226e-07
2.95772e-07
2.09327e-07
2.09357e-07
2.10821e-07
2.10856e-07
2.86256e-07
2.95796e-07
2.09302e-07
2.09358e-07
2.10795e-07
2.10855e-07
2.09337e-07
2.10786e-07
2.1083e-07
2.86263e-07
2.95811e-07
2.09322e-07
2.10792e-07
2.10818e-07
2.95834e-07
2.99172e-07
3.11455e-07
2.11587e-07
2.11622e-07
2.1464e-07
2.14683e-07
2.99206e-07
3.11484e-07
2.11561e-07
2.11622e-07
2.14615e-07
2.14682e-07
2.11596e-07
2.14603e-07
2.14651e-07
2.99216e-07
3.11503e-07
2.11584e-07
2.1461e-07
2.1464e-07
3.11527e-07
3.15549e-07
3.30523e-07
2.15928e-07
2.1597e-07
2.20565e-07
2.2061e-07
3.15583e-07
3.3055e-07
2.15902e-07
2.15971e-07
2.20536e-07
2.20612e-07
2.15939e-07
2.20522e-07
2.20574e-07
3.15594e-07
3.30572e-07
2.15928e-07
2.2053e-07
2.20565e-07
3.30598e-07
3.35314e-07
2.22379e-07
2.22422e-07
3.35333e-07
2.22347e-07
2.22425e-07
2.22387e-07
3.35352e-07
2.22376e-07
5.35653e-07
5.35523e-07
5.35636e-07
5.35636e-07
5.34569e-07
5.35438e-07
5.33635e-07
5.35608e-07
5.34569e-07
5.35438e-07
5.35608e-07
5.33635e-07
5.35198e-07
5.35984e-07
5.35983e-07
1.10651e-06
3.87795e-06
9.32087e-07
4.60326e-06
1.26012e-05
1.65943e-05
1.10694e-06
3.87827e-06
9.31846e-07
4.60418e-06
4.9917e-07
4.9917e-07
4.9917e-07
4.57217e-07
4.57217e-07
4.57217e-07
4.57217e-07
5.4296e-07
1.2178e-06
4.99137e-07
4.86008e-07
5.2501e-07
1.20859e-06
4.82348e-07
1.26025e-05
1.65956e-05
5.42967e-07
4.99137e-07
1.21778e-06
4.86008e-07
5.25009e-07
4.82348e-07
1.20857e-06
2.51892e-06
2.51951e-06
4.84042e-07
2.37147e-06
2.37214e-06
1.43151e-06
5.59224e-06
1.3307e-06
6.13521e-06
2.12846e-05
2.31118e-05
1.43187e-06
5.593e-06
1.3305e-06
6.13646e-06
4.45574e-07
4.45574e-07
4.45575e-07
4.13573e-07
4.13573e-07
4.13574e-07
4.13574e-07
5.87299e-07
1.19528e-06
4.46483e-07
4.44622e-07
5.74002e-07
1.20483e-06
4.35743e-07
2.12863e-05
2.31128e-05
5.87309e-07
4.46484e-07
1.19533e-06
4.44623e-07
5.74008e-07
4.35743e-07
1.20486e-06
2.31294e-06
2.31338e-06
4.53586e-07
2.35426e-06
2.35453e-06
1.66354e-06
6.91687e-06
1.5961e-06
7.31891e-06
2.46419e-05
2.49387e-05
1.66359e-06
6.91797e-06
1.59612e-06
7.32033e-06
4.03788e-07
4.03789e-07
4.03789e-07
3.76731e-07
3.76731e-07
3.76732e-07
3.76733e-07
6.15706e-07
1.24319e-06
4.06598e-07
4.10825e-07
6.08546e-07
1.26593e-06
3.97781e-07
2.46435e-05
2.494e-05
6.15715e-07
4.06599e-07
1.24314e-06
4.10826e-07
6.08557e-07
3.9778e-07
1.26592e-06
2.47448e-06
2.47492e-06
4.30312e-07
2.5331e-06
2.53357e-06
1.8124e-06
7.84486e-06
1.77232e-06
8.09818e-06
2.4738e-05
2.44323e-05
1.81247e-06
7.84631e-06
1.77239e-06
8.09964e-06
3.68405e-07
3.68407e-07
3.68407e-07
3.45233e-07
3.45234e-07
3.45235e-07
3.45236e-07
6.26359e-07
1.31336e-06
3.73523e-07
3.81796e-07
6.2497e-07
1.33396e-06
3.66073e-07
2.47395e-05
2.44328e-05
6.26371e-07
3.73526e-07
1.31335e-06
3.81798e-07
6.24978e-07
3.66074e-07
1.33396e-06
2.63557e-06
2.63605e-06
4.08591e-07
2.67961e-06
2.68012e-06
1.89281e-06
8.39409e-06
1.87305e-06
8.52824e-06
2.36934e-05
2.32667e-05
1.8929e-06
8.39556e-06
1.87313e-06
8.52969e-06
3.38055e-07
3.38056e-07
3.38057e-07
3.17947e-07
3.17948e-07
3.1795e-07
3.17951e-07
6.22128e-07
1.37227e-06
3.45276e-07
3.5602e-07
6.2548e-07
1.38729e-06
3.38801e-07
2.36948e-05
2.32669e-05
6.22143e-07
3.45279e-07
1.37227e-06
3.56022e-07
6.25491e-07
3.38803e-07
1.38731e-06
2.76368e-06
2.76425e-06
3.86933e-07
2.80547e-06
2.80606e-06
1.92984e-06
8.66189e-06
1.92162e-06
8.71773e-06
2.25021e-05
2.21216e-05
1.92993e-06
8.66331e-06
1.9217e-06
8.71912e-06
3.1168e-07
3.11682e-07
3.11683e-07
2.94029e-07
2.9403e-07
2.94032e-07
2.94033e-07
6.0888e-07
1.41614e-06
3.2052e-07
3.32738e-07
6.1538e-07
1.42766e-06
3.14774e-07
2.25035e-05
2.21216e-05
6.08896e-07
3.20525e-07
1.41615e-06
3.32741e-07
6.15392e-07
3.14776e-07
1.42768e-06
2.89512e-06
2.89577e-06
3.65562e-07
2.9437e-06
2.94438e-06
1.94786e-06
8.75853e-06
1.94346e-06
8.77004e-06
2.14773e-05
2.11798e-05
1.94794e-06
8.75986e-06
1.94354e-06
8.77133e-06
2.88501e-07
2.88503e-07
2.88504e-07
2.72861e-07
2.72863e-07
2.72865e-07
2.72866e-07
5.91844e-07
1.45279e-06
2.98431e-07
3.11598e-07
5.99354e-07
1.46412e-06
2.93265e-07
2.14788e-05
2.11795e-05
5.9186e-07
2.98436e-07
1.45281e-06
3.11601e-07
5.99366e-07
2.93267e-07
1.46414e-06
3.0486e-06
3.04935e-06
3.45115e-07
3.10633e-06
3.10714e-06
1.96555e-06
8.76792e-06
1.95942e-06
8.76276e-06
2.06741e-05
2.04539e-05
1.96563e-06
8.76918e-06
1.9595e-06
8.76398e-06
2.67945e-07
2.67947e-07
2.67948e-07
2.53993e-07
2.53994e-07
2.53997e-07
2.53998e-07
5.75424e-07
1.49168e-06
2.78515e-07
2.9246e-07
5.82249e-07
1.50556e-06
2.73841e-07
2.06754e-05
2.04538e-05
5.75439e-07
2.7852e-07
1.49167e-06
2.92464e-07
5.82261e-07
2.73844e-07
1.50559e-06
3.22533e-06
3.22619e-06
3.26244e-07
3.29156e-06
3.29254e-06
1.99549e-06
8.74878e-06
1.98418e-06
8.74269e-06
2.00723e-05
1.99107e-05
1.99557e-06
8.74996e-06
1.98427e-06
8.74385e-06
2.49596e-07
2.49598e-07
2.496e-07
2.37094e-07
2.37096e-07
2.37098e-07
2.37099e-07
5.62874e-07
1.53981e-06
2.60483e-07
2.75288e-07
5.67803e-07
1.55774e-06
2.56251e-07
2.00729e-05
1.99116e-05
5.62888e-07
2.60489e-07
1.53979e-06
2.75291e-07
5.67813e-07
2.56253e-07
1.5578e-06
3.42064e-06
3.42164e-06
3.09475e-07
3.49243e-06
3.49358e-06
2.04515e-06
8.73331e-06
2.02659e-06
8.73124e-06
1.96321e-05
1.95164e-05
2.04524e-06
8.73444e-06
2.02668e-06
8.73236e-06
2.33149e-07
2.33151e-07
2.33152e-07
2.21919e-07
2.2192e-07
2.21923e-07
2.21924e-07
5.56473e-07
1.60095e-06
2.44162e-07
2.60079e-07
5.58616e-07
1.62365e-06
2.40338e-07
1.96329e-05
1.95173e-05
5.56485e-07
2.44168e-07
1.60096e-06
2.60082e-07
5.58625e-07
2.4034e-07
1.6237e-06
3.6265e-06
3.62762e-06
2.95185e-07
3.701e-06
3.7023e-06
2.11891e-06
8.731e-06
2.09176e-06
8.73381e-06
1.93173e-05
1.92361e-05
2.11901e-06
8.7321e-06
2.09185e-06
8.7349e-06
2.18374e-07
2.18376e-07
2.18377e-07
2.0828e-07
2.08282e-07
2.08284e-07
2.08285e-07
5.57578e-07
1.6764e-06
2.29439e-07
2.4684e-07
5.5671e-07
1.70374e-06
2.26001e-07
1.93182e-05
1.9237e-05
5.57587e-07
2.29445e-07
1.67645e-06
2.46843e-07
5.5672e-07
2.26003e-07
1.70378e-06
3.83481e-06
3.83605e-06
2.83648e-07
3.90921e-06
3.91068e-06
2.21866e-06
8.74058e-06
2.18261e-06
8.74765e-06
1.90961e-05
1.90402e-05
2.21875e-06
8.74167e-06
2.18272e-06
8.74873e-06
2.05095e-07
2.05097e-07
2.05098e-07
1.96031e-07
1.96032e-07
1.96035e-07
1.96036e-07
5.66915e-07
1.76531e-06
2.16235e-07
2.3557e-07
5.63073e-07
1.79677e-06
2.13167e-07
1.9097e-05
1.9041e-05
5.66934e-07
2.16241e-07
1.76533e-06
2.35573e-07
5.63085e-07
2.13169e-07
1.79686e-06
4.03804e-06
4.03945e-06
2.75015e-07
4.10937e-06
4.11095e-06
2.34414e-06
8.75865e-06
2.29899e-06
8.76762e-06
1.89424e-05
1.89036e-05
2.34427e-06
8.75974e-06
2.29909e-06
8.7687e-06
1.93174e-07
1.93176e-07
1.93177e-07
1.85052e-07
1.85054e-07
1.85056e-07
1.85057e-07
5.85839e-07
1.86566e-06
2.04489e-07
2.26272e-07
5.78724e-07
1.90029e-06
2.01777e-07
1.89432e-05
1.89045e-05
5.85864e-07
2.04496e-07
1.86573e-06
2.26275e-07
5.78739e-07
2.01779e-07
1.90034e-06
4.22938e-06
4.2309e-06
2.69471e-07
4.29529e-06
4.29698e-06
2.49236e-06
8.77986e-06
2.43819e-06
8.78888e-06
1.88345e-05
1.88074e-05
2.4925e-06
8.78095e-06
2.43825e-06
8.78997e-06
1.82498e-07
1.825e-07
1.82501e-07
1.75249e-07
1.75251e-07
1.75253e-07
1.75255e-07
6.1487e-07
1.97453e-06
1.94149e-07
2.18952e-07
6.04348e-07
2.01137e-06
1.91782e-07
1.88354e-05
1.88082e-05
6.14899e-07
1.94157e-07
1.97456e-06
2.18955e-07
6.04371e-07
1.91784e-07
2.01145e-06
4.40378e-06
4.40536e-06
2.67052e-07
4.46246e-06
4.46421e-06
2.65705e-06
8.80064e-06
2.59653e-06
8.80896e-06
1.87566e-05
1.8737e-05
2.6572e-06
8.80176e-06
2.59659e-06
8.81013e-06
1.72977e-07
1.72979e-07
1.7298e-07
1.66545e-07
1.66547e-07
1.6655e-07
1.66551e-07
6.54284e-07
2.0887e-06
1.85173e-07
2.13618e-07
6.40305e-07
2.1265e-06
1.8314e-07
1.87574e-05
1.87378e-05
6.54313e-07
1.85181e-07
2.08877e-06
2.13622e-07
6.40334e-07
1.83142e-07
2.12657e-06
4.5574e-06
4.55901e-06
2.67666e-07
4.60963e-06
4.61148e-06
2.83165e-06
8.81969e-06
2.76716e-06
8.82726e-06
1.8697e-05
1.86811e-05
2.8318e-06
8.82083e-06
2.76721e-06
8.82844e-06
1.64537e-07
1.6454e-07
1.64541e-07
1.58874e-07
1.58877e-07
1.58879e-07
1.58881e-07
7.04052e-07
2.2046e-06
1.77523e-07
2.10279e-07
6.86655e-07
2.2424e-06
1.75816e-07
1.86981e-05
1.86821e-05
7.04089e-07
1.77532e-07
2.20468e-06
2.10284e-07
6.86681e-07
1.75818e-07
2.24244e-06
4.69128e-06
4.69299e-06
2.71498e-07
4.73441e-06
4.7362e-06
3.0077e-06
8.837e-06
2.94277e-06
8.84395e-06
1.8648e-05
1.86351e-05
3.00785e-06
8.83816e-06
2.94284e-06
8.84515e-06
1.57116e-07
1.57119e-07
1.5712e-07
1.52183e-07
1.52186e-07
1.52189e-07
1.5219e-07
7.63642e-07
2.31923e-06
1.71172e-07
2.08949e-07
7.43101e-07
2.35575e-06
1.69785e-07
1.86488e-05
1.86361e-05
7.63682e-07
1.71182e-07
2.31927e-06
2.08955e-07
7.4313e-07
1.69788e-07
2.35582e-06
4.80325e-06
4.8049e-06
2.7869e-07
4.83992e-06
4.84179e-06
3.17703e-06
8.85299e-06
3.11483e-06
8.85946e-06
1.86056e-05
1.85938e-05
3.17718e-06
8.85417e-06
3.11488e-06
8.86069e-06
1.50662e-07
1.50664e-07
1.50666e-07
1.46423e-07
1.46427e-07
1.4643e-07
1.46431e-07
8.32099e-07
2.42948e-06
1.66104e-07
2.09659e-07
8.08751e-07
2.46434e-06
1.65034e-07
1.86067e-05
1.85946e-05
8.3214e-07
1.66116e-07
2.42954e-06
2.09664e-07
8.08792e-07
1.65037e-07
2.46441e-06
4.89671e-06
4.89841e-06
2.8927e-07
4.9272e-06
4.92905e-06
3.33291e-06
8.86804e-06
3.2759e-06
8.87428e-06
1.85667e-05
1.85561e-05
3.333e-06
8.86925e-06
3.27599e-06
8.87547e-06
1.45129e-07
1.45132e-07
1.45133e-07
1.4156e-07
1.41564e-07
1.41566e-07
1.41568e-07
9.0788e-07
2.5336e-06
1.6231e-07
2.12433e-07
8.82319e-07
2.56596e-06
1.61554e-07
1.85677e-05
1.8557e-05
9.07933e-07
1.62322e-07
2.53373e-06
2.1244e-07
8.82362e-07
1.61558e-07
2.56594e-06
4.97418e-06
4.97585e-06
3.03258e-07
4.99838e-06
5.00023e-06
3.47048e-06
8.88245e-06
3.4203e-06
8.88839e-06
1.85313e-05
1.85212e-05
3.47058e-06
8.88359e-06
3.42037e-06
8.88953e-06
1.40483e-07
1.40486e-07
1.40487e-07
1.3756e-07
1.37565e-07
1.37568e-07
1.37569e-07
9.89068e-07
2.62988e-06
1.5979e-07
2.17299e-07
9.61948e-07
2.65943e-06
1.59347e-07
1.85318e-05
1.85221e-05
9.89118e-07
1.59802e-07
2.62995e-06
2.17306e-07
9.62008e-07
1.59353e-07
2.65941e-06
5.03761e-06
5.0393e-06
3.20646e-07
5.05653e-06
5.05834e-06
3.58707e-06
8.89591e-06
3.54492e-06
8.90141e-06
1.8498e-05
1.84887e-05
3.58719e-06
8.89714e-06
3.54496e-06
8.90264e-06
1.36694e-07
1.36698e-07
1.36699e-07
1.07339e-06
2.71761e-06
1.58554e-07
2.24275e-07
1.04551e-06
2.74402e-06
1.58421e-07
1.84985e-05
1.07345e-06
1.58565e-07
2.71749e-06
1.04557e-06
1.58432e-07
5.08915e-06
5.09084e-06
3.41372e-07
5.10434e-06
5.10613e-06
5.35197e-07
5.35994e-07
5.35991e-07
1.09111e-05
5.81361e-07
1.09125e-05
5.81358e-07
5.28303e-07
2.43028e-06
2.43092e-06
5.40842e-07
5.40835e-07
5.34569e-07
5.35439e-07
5.33635e-07
5.35608e-07
5.34569e-07
5.35438e-07
5.33634e-07
5.35608e-07
5.30398e-07
3.47031e-06
5.68226e-07
8.19949e-07
5.30398e-07
3.47044e-06
5.68213e-07
8.1987e-07
5.29522e-07
5.28493e-07
1.16562e-06
5.06099e-07
5.32668e-07
5.28418e-07
5.191e-07
5.29522e-07
5.28493e-07
1.16566e-06
5.06099e-07
5.32665e-07
5.28418e-07
5.19098e-07
5.35197e-07
5.35989e-07
5.35988e-07
1.0912e-05
5.81341e-07
5.28303e-07
2.43059e-06
2.4307e-06
5.40836e-07
5.40831e-07
1.09126e-05
5.81344e-07
5.34569e-07
5.35438e-07
5.33635e-07
5.35608e-07
5.34569e-07
5.35438e-07
5.35608e-07
5.33635e-07
5.30397e-07
3.47071e-06
5.68221e-07
8.20183e-07
5.29521e-07
5.28493e-07
1.16582e-06
5.06099e-07
5.32666e-07
5.28418e-07
5.19105e-07
5.30398e-07
3.47076e-06
5.68197e-07
8.20179e-07
5.29522e-07
5.28493e-07
5.06099e-07
1.16578e-06
5.28418e-07
5.32662e-07
5.191e-07
5.35653e-07
5.35523e-07
5.35636e-07
5.35636e-07
5.35653e-07
5.35523e-07
5.35636e-07
5.35636e-07
5.35653e-07
5.35523e-07
5.35636e-07
5.35636e-07
5.28432e-07
5.28492e-07
5.06195e-07
5.06195e-07
5.28422e-07
5.28422e-07
5.06264e-07
5.28432e-07
5.28492e-07
5.06195e-07
5.06195e-07
5.28422e-07
5.28422e-07
5.06264e-07
5.28432e-07
5.28492e-07
5.06195e-07
5.06195e-07
5.28422e-07
5.28422e-07
5.06264e-07
5.28432e-07
5.28492e-07
5.06195e-07
5.06195e-07
5.28422e-07
5.28422e-07
5.06264e-07
5.34569e-07
5.35439e-07
5.35608e-07
5.33634e-07
5.29522e-07
5.28493e-07
1.16575e-06
5.06099e-07
5.32662e-07
5.28418e-07
5.19101e-07
5.30397e-07
3.47074e-06
5.68206e-07
8.19913e-07
5.29522e-07
5.28493e-07
5.06099e-07
1.16564e-06
5.28418e-07
5.32659e-07
5.19096e-07
5.30397e-07
3.47078e-06
5.68192e-07
8.19854e-07
5.35198e-07
5.35987e-07
5.35987e-07
1.09129e-05
5.81317e-07
5.28303e-07
2.43082e-06
2.4307e-06
5.40828e-07
5.40826e-07
1.09125e-05
5.81334e-07
5.34569e-07
5.35438e-07
5.35608e-07
5.33634e-07
5.29522e-07
5.28493e-07
5.06099e-07
1.16573e-06
5.28418e-07
5.3266e-07
5.19104e-07
5.29522e-07
5.28493e-07
5.06099e-07
1.16577e-06
5.28418e-07
5.32658e-07
5.19102e-07
5.30397e-07
3.47075e-06
5.68194e-07
8.20054e-07
5.30397e-07
3.47095e-06
5.68187e-07
8.20113e-07
5.28302e-07
2.43055e-06
2.43114e-06
5.40823e-07
5.4082e-07
1.0913e-05
5.81311e-07
1.09136e-05
5.81315e-07
1.25997e-05
1.65918e-05
1.26014e-05
1.65947e-05
2.51875e-06
2.51941e-06
4.84041e-07
2.37139e-06
2.37203e-06
2.05278e-05
1.7679e-05
2.05314e-05
1.76824e-05
4.79192e-07
2.30695e-06
2.3076e-06
2.33936e-06
2.34019e-06
1.10659e-06
3.87812e-06
9.32007e-07
4.60414e-06
5.42963e-07
1.21771e-06
4.99137e-07
4.86012e-07
5.2503e-07
1.20854e-06
4.82348e-07
5.4296e-07
1.21784e-06
4.99137e-07
4.86018e-07
5.25023e-07
1.20872e-06
4.82348e-07
1.16125e-06
5.40682e-06
4.80821e-06
1.28145e-06
1.16121e-06
5.40786e-06
4.80862e-06
1.28149e-06
5.50947e-07
4.7476e-07
1.19366e-06
4.5781e-07
1.2043e-06
4.69755e-07
5.66564e-07
5.50956e-07
4.74768e-07
1.19385e-06
4.5781e-07
1.20444e-06
4.69756e-07
5.66568e-07
2.51925e-06
2.51892e-06
4.8404e-07
2.37196e-06
2.37133e-06
1.26013e-05
1.65939e-05
2.0531e-05
1.76816e-05
4.79192e-07
2.30762e-06
2.30696e-06
2.33997e-06
2.33959e-06
2.05296e-05
1.7681e-05
5.42996e-07
1.21794e-06
4.99137e-07
4.86016e-07
5.25012e-07
1.2088e-06
4.82348e-07
1.10695e-06
3.87863e-06
9.3166e-07
4.6044e-06
5.42994e-07
4.99137e-07
1.21797e-06
4.86018e-07
5.24997e-07
4.82348e-07
1.20882e-06
1.16098e-06
5.40796e-06
4.80876e-06
1.28174e-06
5.50949e-07
4.74765e-07
1.19386e-06
4.5781e-07
1.20452e-06
4.69755e-07
5.66574e-07
1.16086e-06
5.40825e-06
4.80931e-06
1.28171e-06
5.50949e-07
4.74769e-07
4.57811e-07
1.19386e-06
4.69756e-07
1.20454e-06
5.6658e-07
1.10657e-06
3.87824e-06
9.32001e-07
4.60396e-06
5.42964e-07
4.99137e-07
1.21773e-06
4.8601e-07
5.24999e-07
4.82348e-07
1.20855e-06
1.10656e-06
3.87859e-06
9.31876e-07
4.60411e-06
5.50951e-07
4.74757e-07
1.19368e-06
4.57809e-07
1.20431e-06
4.69755e-07
5.66542e-07
1.16118e-06
5.40757e-06
4.80857e-06
1.28125e-06
5.50941e-07
4.7476e-07
4.5781e-07
1.19373e-06
4.69755e-07
1.20432e-06
5.66556e-07
1.16111e-06
5.40805e-06
4.80922e-06
1.28133e-06
2.51961e-06
2.51901e-06
4.84042e-07
2.37219e-06
2.37151e-06
1.26013e-05
1.65935e-05
2.05322e-05
1.76834e-05
4.79191e-07
2.30763e-06
2.30707e-06
2.34024e-06
2.3396e-06
2.05296e-05
1.7681e-05
5.42985e-07
4.99137e-07
1.21792e-06
4.86015e-07
5.25e-07
4.82348e-07
1.20877e-06
1.10671e-06
3.87828e-06
9.31902e-07
4.60396e-06
1.10677e-06
3.87867e-06
9.31757e-07
4.60467e-06
5.50957e-07
4.74757e-07
4.5781e-07
1.19369e-06
4.69755e-07
1.20433e-06
5.66561e-07
5.50946e-07
4.74764e-07
4.5781e-07
1.19386e-06
4.69755e-07
1.20451e-06
5.66586e-07
1.16108e-06
5.40747e-06
4.80861e-06
1.28144e-06
1.16099e-06
5.40825e-06
4.80942e-06
1.28176e-06
1.26019e-05
1.65946e-05
1.26028e-05
1.65961e-05
4.79191e-07
2.30732e-06
2.3076e-06
2.33985e-06
2.34017e-06
2.05313e-05
1.76823e-05
2.05327e-05
1.76839e-05
2.1281e-05
2.31076e-05
2.12848e-05
2.31116e-05
2.31248e-06
2.31317e-06
4.53579e-07
2.35378e-06
2.35431e-06
2.44691e-05
2.35325e-05
2.44733e-05
2.35376e-05
4.50982e-07
2.44287e-06
2.44338e-06
2.38167e-06
2.38252e-06
1.43162e-06
5.59289e-06
1.33065e-06
6.13629e-06
5.87299e-07
1.19528e-06
4.46484e-07
4.44628e-07
5.73995e-07
1.20483e-06
4.35743e-07
5.87305e-07
1.19546e-06
4.46486e-07
4.44637e-07
5.74006e-07
1.20499e-06
4.35745e-07
1.47563e-06
6.77684e-06
6.30012e-06
1.55834e-06
1.47551e-06
6.77798e-06
6.30082e-06
1.55834e-06
5.9353e-07
4.35608e-07
1.23161e-06
4.15841e-07
1.21279e-06
4.25543e-07
6.03791e-07
5.93535e-07
4.35616e-07
1.23179e-06
4.15843e-07
1.2129e-06
4.25544e-07
6.03801e-07
2.31332e-06
2.3125e-06
4.53577e-07
2.35459e-06
2.35381e-06
2.12827e-05
2.31092e-05
2.44732e-05
2.35368e-05
4.50983e-07
2.44367e-06
2.44288e-06
2.38248e-06
2.38204e-06
2.44708e-05
2.35351e-05
5.87311e-07
1.19545e-06
4.46485e-07
4.4463e-07
5.74015e-07
1.20499e-06
4.35744e-07
1.43199e-06
5.59358e-06
1.3305e-06
6.13696e-06
5.87316e-07
4.46486e-07
1.19553e-06
4.44639e-07
5.74017e-07
4.35745e-07
1.20501e-06
1.47538e-06
6.77821e-06
6.3011e-06
1.55835e-06
5.93549e-07
4.3561e-07
1.23176e-06
4.15842e-07
1.213e-06
4.25544e-07
6.03815e-07
1.47535e-06
6.77874e-06
6.3016e-06
1.55833e-06
5.93558e-07
4.35619e-07
4.15844e-07
1.23183e-06
4.25545e-07
1.213e-06
6.03821e-07
1.43159e-06
5.59282e-06
1.33088e-06
6.13599e-06
5.87303e-07
4.46485e-07
1.19536e-06
4.44628e-07
5.74003e-07
4.35744e-07
1.20489e-06
1.43175e-06
5.5934e-06
1.33079e-06
6.1367e-06
5.93538e-07
4.356e-07
1.23164e-06
4.15841e-07
1.21283e-06
4.25542e-07
6.03802e-07
1.47572e-06
6.77791e-06
6.30072e-06
1.55819e-06
5.93536e-07
4.35611e-07
4.15842e-07
1.23171e-06
4.25543e-07
1.21282e-06
6.03803e-07
1.4755e-06
6.77852e-06
6.30136e-06
1.55835e-06
2.31339e-06
2.31272e-06
4.53582e-07
2.35452e-06
2.35398e-06
2.12835e-05
2.31101e-05
2.44745e-05
2.35382e-05
4.50983e-07
2.44374e-06
2.443e-06
2.38257e-06
2.38185e-06
2.44713e-05
2.35352e-05
5.8732e-07
4.46485e-07
1.1955e-06
4.44632e-07
5.74007e-07
4.35745e-07
1.20504e-06
1.43169e-06
5.59298e-06
1.33078e-06
6.13605e-06
1.4319e-06
5.59389e-06
1.33054e-06
6.13695e-06
5.93546e-07
4.35602e-07
4.15841e-07
1.23165e-06
4.25542e-07
1.21282e-06
6.03814e-07
5.93552e-07
4.35611e-07
4.15843e-07
1.23186e-06
4.25544e-07
1.21303e-06
6.0382e-07
1.47571e-06
6.7779e-06
6.30081e-06
1.55816e-06
1.47544e-06
6.779e-06
6.30184e-06
1.55838e-06
2.12849e-05
2.31116e-05
2.12868e-05
2.31132e-05
4.50985e-07
2.4433e-06
2.44373e-06
2.38214e-06
2.38256e-06
2.44732e-05
2.35368e-05
2.44751e-05
2.35387e-05
2.46379e-05
2.49349e-05
2.46426e-05
2.49394e-05
2.47401e-06
2.47483e-06
4.30297e-07
2.53272e-06
2.53335e-06
2.48365e-05
2.49369e-05
2.48408e-05
2.49413e-05
4.28599e-07
2.61106e-06
2.61169e-06
2.56076e-06
2.56144e-06
1.66354e-06
6.91766e-06
1.5961e-06
7.32e-06
6.15693e-07
1.24308e-06
4.06599e-07
4.10834e-07
6.08533e-07
1.26586e-06
3.9778e-07
6.157e-07
1.24326e-06
4.06601e-07
4.10843e-07
6.08544e-07
1.26604e-06
3.97782e-07
1.69472e-06
7.75788e-06
7.43219e-06
1.74788e-06
1.69473e-06
7.75892e-06
7.43311e-06
1.74788e-06
6.18952e-07
4.03207e-07
1.30116e-06
3.81274e-07
1.27844e-06
3.89349e-07
6.23109e-07
6.18958e-07
4.03216e-07
1.30134e-06
3.81277e-07
1.27862e-06
3.89351e-07
6.23114e-07
2.47487e-06
2.47434e-06
4.30299e-07
2.53353e-06
2.53284e-06
2.46401e-05
2.4937e-05
2.48402e-05
2.49406e-05
4.28601e-07
2.61188e-06
2.61115e-06
2.56161e-06
2.56091e-06
2.48385e-05
2.49389e-05
6.15713e-07
1.24329e-06
4.066e-07
4.10831e-07
6.08558e-07
1.26605e-06
3.97782e-07
1.66358e-06
6.91851e-06
1.59611e-06
7.32082e-06
6.15715e-07
4.06602e-07
1.24329e-06
4.10846e-07
6.08562e-07
3.97784e-07
1.26609e-06
1.69478e-06
7.7593e-06
7.43351e-06
1.74794e-06
6.18974e-07
4.03203e-07
1.30137e-06
3.81276e-07
1.27864e-06
3.89351e-07
6.2313e-07
1.69477e-06
7.75976e-06
7.43403e-06
1.74794e-06
6.18976e-07
4.03219e-07
3.81278e-07
1.30141e-06
3.89353e-07
1.27867e-06
6.2313e-07
1.66359e-06
6.91762e-06
1.5963e-06
7.32e-06
6.15705e-07
4.066e-07
1.24319e-06
4.10838e-07
6.08547e-07
3.97782e-07
1.26596e-06
1.66358e-06
6.91825e-06
1.59612e-06
7.32057e-06
6.18967e-07
4.03197e-07
1.30123e-06
3.81275e-07
1.27852e-06
3.89348e-07
6.23126e-07
1.6949e-06
7.75895e-06
7.43315e-06
1.74792e-06
6.18963e-07
4.03212e-07
3.81276e-07
1.30128e-06
3.89351e-07
1.27856e-06
6.23123e-07
1.69477e-06
7.75949e-06
7.43373e-06
1.74793e-06
2.47493e-06
2.4742e-06
4.30304e-07
2.53359e-06
2.53282e-06
2.46403e-05
2.49369e-05
2.48413e-05
2.49419e-05
4.28604e-07
2.61193e-06
2.61114e-06
2.56166e-06
2.56095e-06
2.48385e-05
2.49389e-05
6.1572e-07
4.06601e-07
1.24334e-06
4.10835e-07
6.08562e-07
3.97783e-07
1.26613e-06
1.66358e-06
6.91767e-06
1.59629e-06
7.31995e-06
1.66362e-06
6.91879e-06
1.59616e-06
7.32109e-06
6.18976e-07
4.03199e-07
3.81275e-07
1.30123e-06
3.8935e-07
1.27851e-06
6.23135e-07
6.18981e-07
4.03208e-07
3.81277e-07
1.30145e-06
3.89352e-07
1.27872e-06
6.23138e-07
1.6949e-06
7.7589e-06
7.43316e-06
1.74801e-06
1.69481e-06
7.76002e-06
7.43429e-06
1.74798e-06
2.4642e-05
2.49387e-05
2.46441e-05
2.49405e-05
4.28609e-07
2.61144e-06
2.61192e-06
2.56121e-06
2.56165e-06
2.48401e-05
2.49406e-05
2.48418e-05
2.49424e-05
2.47347e-05
2.44286e-05
2.47388e-05
2.44324e-05
2.63517e-06
2.63583e-06
4.08572e-07
2.67924e-06
2.67988e-06
2.38683e-05
2.42702e-05
2.38717e-05
2.4274e-05
4.0698e-07
2.74223e-06
2.7429e-06
2.70101e-06
2.70169e-06
1.81239e-06
7.84583e-06
1.77232e-06
8.09921e-06
6.26342e-07
1.31327e-06
3.73525e-07
3.81807e-07
6.24952e-07
1.33389e-06
3.66073e-07
6.26344e-07
1.31346e-06
3.73527e-07
3.81816e-07
6.24956e-07
1.33406e-06
3.66075e-07
1.83082e-06
8.35042e-06
8.16172e-06
1.85967e-06
1.83082e-06
8.35141e-06
8.16264e-06
1.85967e-06
6.26773e-07
3.75098e-07
1.3626e-06
3.5197e-07
1.34483e-06
3.58896e-07
6.25664e-07
6.26775e-07
3.75106e-07
1.36277e-06
3.51972e-07
1.34502e-06
3.58898e-07
6.25664e-07
2.63599e-06
2.63528e-06
4.08576e-07
2.68006e-06
2.67932e-06
2.47367e-05
2.44305e-05
2.38718e-05
2.42732e-05
4.06984e-07
2.74304e-06
2.74231e-06
2.70184e-06
2.7011e-06
2.387e-05
2.42721e-05
6.26362e-07
1.31349e-06
3.73526e-07
3.818e-07
6.24975e-07
1.33409e-06
3.66075e-07
1.81246e-06
7.8468e-06
1.77238e-06
8.10007e-06
6.2636e-07
3.73529e-07
1.31352e-06
3.81819e-07
6.24975e-07
3.66078e-07
1.33414e-06
1.8309e-06
8.35188e-06
8.16319e-06
1.85975e-06
6.26794e-07
3.7509e-07
1.36281e-06
3.51972e-07
1.34504e-06
3.58898e-07
6.25683e-07
1.83089e-06
8.35228e-06
8.16363e-06
1.85974e-06
6.26793e-07
3.7511e-07
3.51975e-07
1.36285e-06
3.589e-07
1.34508e-06
6.2568e-07
1.81242e-06
7.84594e-06
1.77249e-06
8.09928e-06
6.26357e-07
3.73526e-07
1.3134e-06
3.81814e-07
6.24965e-07
3.66075e-07
1.334e-06
1.81245e-06
7.84648e-06
1.77237e-06
8.09979e-06
6.26791e-07
3.75085e-07
1.36266e-06
3.5197e-07
1.34491e-06
3.58894e-07
6.2568e-07
1.83098e-06
8.35149e-06
8.1628e-06
1.85969e-06
6.26787e-07
3.75105e-07
3.51972e-07
1.36271e-06
3.58897e-07
1.34496e-06
6.25678e-07
1.83088e-06
8.35198e-06
8.16331e-06
1.85973e-06
2.63605e-06
2.63532e-06
4.08581e-07
2.68012e-06
2.67931e-06
2.47367e-05
2.44302e-05
2.38721e-05
2.42747e-05
4.06989e-07
2.74313e-06
2.74231e-06
2.70189e-06
2.70115e-06
2.38697e-05
2.42721e-05
6.26371e-07
3.73528e-07
1.31357e-06
3.81806e-07
6.24982e-07
3.66077e-07
1.33419e-06
1.81252e-06
7.84595e-06
1.77245e-06
8.09924e-06
1.8125e-06
7.84705e-06
1.77242e-06
8.10031e-06
6.26802e-07
3.75088e-07
3.51972e-07
1.36267e-06
3.58897e-07
1.34491e-06
6.25695e-07
6.26804e-07
3.75096e-07
3.51974e-07
1.36291e-06
3.58899e-07
1.34513e-06
6.25694e-07
1.83095e-06
8.35148e-06
8.1628e-06
1.8598e-06
1.83093e-06
8.3525e-06
8.16388e-06
1.85978e-06
2.47382e-05
2.4432e-05
2.474e-05
2.44332e-05
4.06997e-07
2.74259e-06
2.74315e-06
2.7014e-06
2.70191e-06
2.38714e-05
2.42735e-05
2.38725e-05
2.42751e-05
2.36907e-05
2.32634e-05
2.36941e-05
2.32664e-05
2.7633e-06
2.76401e-06
3.86911e-07
2.8051e-06
2.80581e-06
2.26705e-05
2.30845e-05
2.26733e-05
2.30876e-05
3.85367e-07
2.87149e-06
2.87224e-06
2.82685e-06
2.8276e-06
1.89281e-06
8.39495e-06
1.87305e-06
8.5292e-06
6.22111e-07
1.37219e-06
3.45278e-07
3.56033e-07
6.25462e-07
1.38723e-06
3.38801e-07
6.2211e-07
1.37238e-06
3.4528e-07
3.56041e-07
6.25463e-07
1.38741e-06
3.38803e-07
1.90221e-06
8.64611e-06
8.55599e-06
1.91512e-06
1.90221e-06
8.64701e-06
8.55676e-06
1.91512e-06
6.21491e-07
3.49998e-07
1.40853e-06
3.26436e-07
1.39562e-06