/*--------------------------------*- C++ -*----------------------------------*\
| =========                 |                                                 |
| \\      /  F ield         | OpenFOAM: The Open Source CFD Toolbox           |
|  \\    /   O peration     | Version:  2312                                  |
|   \\  /    A nd           | Website:  www.openfoam.com                      |
|    \\/     M anipulation  |                                                 |
\*---------------------------------------------------------------------------*/
FoamFile
{
    version     2.0;
    format      ascii;
    arch        "LSB;label=32;scalar=64";
    class       volScalarField;
    location    "375";
    object      k;
}
// * * * * * * * * * * * * * * * * * * * * * * * * * * * * * * * * * * * * * //

dimensions      [0 2 -2 0 0 0 0];

internalField   nonuniform List<scalar> 
43211
(
3.60232e-05
3.60198e-05
3.60198e-05
3.60083e-05
3.39295e-05
3.38866e-05
3.38866e-05
3.39612e-05
3.21574e-05
3.20055e-05
3.20055e-05
3.19506e-05
3.05338e-05
3.02267e-05
3.02267e-05
2.99864e-05
2.90318e-05
2.85515e-05
2.85515e-05
2.81202e-05
2.76341e-05
2.69848e-05
2.69847e-05
2.6388e-05
2.63294e-05
2.55287e-05
2.55286e-05
2.48046e-05
2.51097e-05
2.41827e-05
2.41826e-05
2.33754e-05
2.39694e-05
2.29484e-05
2.29483e-05
2.21019e-05
2.29042e-05
2.18247e-05
2.18245e-05
2.09833e-05
2.19105e-05
2.08093e-05
2.08091e-05
2.00107e-05
2.09849e-05
1.98992e-05
1.98991e-05
1.91788e-05
2.01226e-05
1.90927e-05
1.90926e-05
1.8487e-05
1.93223e-05
1.83865e-05
1.83864e-05
1.79306e-05
1.85832e-05
1.77774e-05
1.77773e-05
1.75041e-05
1.79027e-05
1.72637e-05
1.72637e-05
1.71981e-05
1.72783e-05
1.68447e-05
1.68447e-05
1.70204e-05
1.67082e-05
1.65194e-05
1.65194e-05
1.69801e-05
1.61908e-05
1.62879e-05
1.62879e-05
1.70775e-05
1.57239e-05
1.61501e-05
1.61502e-05
1.73023e-05
1.53058e-05
1.61058e-05
1.6106e-05
1.76554e-05
3.62984e-05
3.62919e-05
3.62919e-05
3.62984e-05
3.62919e-05
3.62919e-05
3.62908e-05
3.62908e-05
3.62908e-05
3.62908e-05
3.62919e-05
3.62919e-05
3.62984e-05
3.62919e-05
3.62919e-05
3.62984e-05
3.60083e-05
3.42676e-05
3.60198e-05
3.60198e-05
3.43745e-05
3.43744e-05
3.60083e-05
3.42677e-05
3.60198e-05
3.60198e-05
3.43745e-05
3.43744e-05
3.60198e-05
3.43745e-05
3.43745e-05
3.60083e-05
3.42677e-05
3.60198e-05
3.43745e-05
3.43745e-05
3.42676e-05
3.39612e-05
3.22619e-05
3.38865e-05
3.38865e-05
3.24658e-05
3.24657e-05
3.39612e-05
3.22619e-05
3.38865e-05
3.38865e-05
3.24659e-05
3.24657e-05
3.38865e-05
3.2466e-05
3.24658e-05
3.39612e-05
3.22619e-05
3.38865e-05
3.24659e-05
3.24659e-05
3.22618e-05
3.19506e-05
3.02973e-05
3.20054e-05
3.20053e-05
3.06617e-05
3.06616e-05
3.19506e-05
3.02973e-05
3.20054e-05
3.20052e-05
3.06618e-05
3.06615e-05
3.20053e-05
3.0662e-05
3.06617e-05
3.19506e-05
3.02972e-05
3.20054e-05
3.06619e-05
3.06618e-05
3.02971e-05
2.99865e-05
2.84231e-05
3.02264e-05
3.02263e-05
2.89599e-05
2.89597e-05
2.99865e-05
2.8423e-05
3.02266e-05
3.02262e-05
2.89601e-05
2.89596e-05
3.02264e-05
2.89603e-05
2.89598e-05
2.99864e-05
2.84229e-05
3.02265e-05
2.89602e-05
2.896e-05
2.84227e-05
2.81204e-05
2.66716e-05
2.85511e-05
2.85509e-05
2.73656e-05
2.73653e-05
2.81204e-05
2.66715e-05
2.85514e-05
2.85508e-05
2.73659e-05
2.73652e-05
2.8551e-05
2.73661e-05
2.73655e-05
2.81203e-05
2.66714e-05
2.85513e-05
2.7366e-05
2.73658e-05
2.66712e-05
2.63884e-05
2.50638e-05
2.69842e-05
2.6984e-05
2.58817e-05
2.58815e-05
2.63883e-05
2.50637e-05
2.69846e-05
2.69839e-05
2.58822e-05
2.58813e-05
2.69841e-05
2.58824e-05
2.58816e-05
2.63882e-05
2.50636e-05
2.69844e-05
2.58823e-05
2.5882e-05
2.50634e-05
2.4805e-05
2.361e-05
2.5528e-05
2.55277e-05
2.45079e-05
2.45077e-05
2.48049e-05
2.36099e-05
2.55285e-05
2.55276e-05
2.45085e-05
2.45075e-05
2.55279e-05
2.45087e-05
2.45078e-05
2.48047e-05
2.36097e-05
2.55283e-05
2.45086e-05
2.45083e-05
2.36094e-05
2.33759e-05
2.231e-05
2.41819e-05
2.41816e-05
2.32456e-05
2.32453e-05
2.33758e-05
2.23099e-05
2.41824e-05
2.41814e-05
2.32462e-05
2.32451e-05
2.41817e-05
2.32465e-05
2.32455e-05
2.33756e-05
2.23096e-05
2.41823e-05
2.32464e-05
2.32461e-05
2.23094e-05
2.21025e-05
2.11657e-05
2.29475e-05
2.29472e-05
2.20943e-05
2.2094e-05
2.21024e-05
2.11656e-05
2.29481e-05
2.2947e-05
2.20951e-05
2.20939e-05
2.29473e-05
2.20953e-05
2.20942e-05
2.21021e-05
2.11653e-05
2.2948e-05
2.20952e-05
2.20949e-05
2.1165e-05
2.09839e-05
2.01683e-05
2.18237e-05
2.18234e-05
2.1052e-05
2.10517e-05
2.09838e-05
2.01683e-05
2.18244e-05
2.18232e-05
2.10528e-05
2.10515e-05
2.18236e-05
2.1053e-05
2.10519e-05
2.09835e-05
2.0168e-05
2.18243e-05
2.10529e-05
2.10527e-05
2.01677e-05
2.00113e-05
1.93123e-05
2.08081e-05
2.08079e-05
2.01158e-05
2.01156e-05
2.00112e-05
1.93122e-05
2.0809e-05
2.08077e-05
2.01167e-05
2.01154e-05
2.08081e-05
2.01169e-05
2.01158e-05
2.00109e-05
1.9312e-05
2.08088e-05
2.01168e-05
2.01166e-05
1.93117e-05
1.91793e-05
1.85882e-05
1.98981e-05
1.98978e-05
1.92834e-05
1.92832e-05
1.91794e-05
1.85881e-05
1.9899e-05
1.98977e-05
1.92843e-05
1.9283e-05
1.9898e-05
1.92845e-05
1.92834e-05
1.9179e-05
1.85877e-05
1.98988e-05
1.92844e-05
1.92842e-05
1.85875e-05
1.84873e-05
1.79957e-05
1.90916e-05
1.90913e-05
1.85524e-05
1.85522e-05
1.84874e-05
1.79956e-05
1.90925e-05
1.90912e-05
1.85534e-05
1.85521e-05
1.90915e-05
1.85535e-05
1.85524e-05
1.8487e-05
1.79953e-05
1.90923e-05
1.85534e-05
1.85533e-05
1.79951e-05
1.79311e-05
1.75371e-05
1.83854e-05
1.83852e-05
1.79193e-05
1.79192e-05
1.79312e-05
1.7537e-05
1.83863e-05
1.83851e-05
1.79202e-05
1.79191e-05
1.83854e-05
1.79203e-05
1.79193e-05
1.79309e-05
1.75367e-05
1.83862e-05
1.79203e-05
1.79202e-05
1.75367e-05
1.75044e-05
1.72156e-05
1.77763e-05
1.77762e-05
1.73818e-05
1.73817e-05
1.75045e-05
1.72157e-05
1.77772e-05
1.77761e-05
1.73827e-05
1.73816e-05
1.77764e-05
1.73828e-05
1.73818e-05
1.75041e-05
1.72155e-05
1.77772e-05
1.73827e-05
1.73827e-05
1.72155e-05
1.71983e-05
1.7024e-05
1.72627e-05
1.72627e-05
1.69391e-05
1.69391e-05
1.71984e-05
1.7024e-05
1.72636e-05
1.72626e-05
1.69399e-05
1.6939e-05
1.72628e-05
1.69399e-05
1.69391e-05
1.71981e-05
1.70238e-05
1.72636e-05
1.694e-05
1.69399e-05
1.70238e-05
1.70206e-05
1.69704e-05
1.68438e-05
1.68439e-05
1.65901e-05
1.65903e-05
1.70207e-05
1.69707e-05
1.68446e-05
1.68438e-05
1.65908e-05
1.65902e-05
1.68439e-05
1.65909e-05
1.65903e-05
1.70206e-05
1.69706e-05
1.68447e-05
1.65909e-05
1.6591e-05
1.69706e-05
1.69797e-05
1.70413e-05
1.65186e-05
1.65187e-05
1.63349e-05
1.63351e-05
1.69801e-05
1.70419e-05
1.65193e-05
1.65187e-05
1.63355e-05
1.63351e-05
1.65188e-05
1.63355e-05
1.63351e-05
1.698e-05
1.70416e-05
1.65195e-05
1.63356e-05
1.63359e-05
1.70419e-05
1.70769e-05
1.72417e-05
1.62872e-05
1.62874e-05
1.61734e-05
1.61737e-05
1.70773e-05
1.7242e-05
1.62879e-05
1.62874e-05
1.6174e-05
1.61738e-05
1.62874e-05
1.61739e-05
1.61736e-05
1.70771e-05
1.72417e-05
1.62881e-05
1.6174e-05
1.61743e-05
1.72423e-05
1.73022e-05
1.75706e-05
1.61495e-05
1.61499e-05
1.61053e-05
1.61056e-05
1.73021e-05
1.75706e-05
1.61501e-05
1.61499e-05
1.61058e-05
1.61058e-05
1.61499e-05
1.61056e-05
1.61056e-05
1.73024e-05
1.75707e-05
1.61505e-05
1.61058e-05
1.61062e-05
1.7571e-05
1.76553e-05
1.61054e-05
1.61058e-05
1.76552e-05
1.61059e-05
1.6106e-05
1.61057e-05
1.76558e-05
1.61064e-05
3.73769e-05
3.73764e-05
3.73767e-05
3.73767e-05
3.73694e-05
3.73756e-05
3.73043e-05
3.73764e-05
3.73695e-05
3.73756e-05
3.73764e-05
3.73043e-05
3.73714e-05
3.72959e-05
3.72959e-05
3.58829e-05
4.08678e-05
3.6601e-05
4.51385e-05
5.51099e-05
6.48883e-05
3.58835e-05
4.08674e-05
3.66009e-05
4.51411e-05
3.60232e-05
3.60232e-05
3.60232e-05
3.44005e-05
3.44005e-05
3.44005e-05
3.44005e-05
3.52763e-05
3.56383e-05
3.60241e-05
3.53761e-05
3.60479e-05
3.42427e-05
3.53827e-05
5.51119e-05
6.48899e-05
3.52764e-05
3.60241e-05
3.56379e-05
3.53761e-05
3.60478e-05
3.53827e-05
3.42432e-05
3.65942e-05
3.65949e-05
3.52782e-05
3.40673e-05
3.40664e-05
3.39695e-05
5.13493e-05
3.46835e-05
5.46194e-05
7.65443e-05
8.08619e-05
3.39704e-05
5.13498e-05
3.46829e-05
5.46228e-05
3.39295e-05
3.39295e-05
3.39295e-05
3.25851e-05
3.25851e-05
3.25851e-05
3.25851e-05
3.30546e-05
3.24826e-05
3.3929e-05
3.34062e-05
3.38971e-05
3.15832e-05
3.34673e-05
7.65468e-05
8.08628e-05
3.30547e-05
3.3929e-05
3.2482e-05
3.34062e-05
3.3897e-05
3.34673e-05
3.15844e-05
3.17215e-05
3.17218e-05
3.32624e-05
3.0928e-05
3.09263e-05
3.22516e-05
5.91651e-05
3.29223e-05
6.14361e-05
8.43927e-05
8.5069e-05
3.22515e-05
5.91669e-05
3.2922e-05
6.14393e-05
3.21574e-05
3.21574e-05
3.21574e-05
3.09274e-05
3.09274e-05
3.09274e-05
3.09274e-05
3.07891e-05
3.05187e-05
3.21369e-05
3.15514e-05
3.1637e-05
2.98912e-05
3.17094e-05
8.4394e-05
8.50696e-05
3.07893e-05
3.21369e-05
3.05181e-05
3.15514e-05
3.16368e-05
3.17094e-05
2.98911e-05
3.02184e-05
3.02183e-05
3.12712e-05
3.00047e-05
3.00041e-05
3.07526e-05
6.43451e-05
3.13494e-05
6.5723e-05
8.46118e-05
8.39133e-05
3.07527e-05
6.43481e-05
3.13494e-05
6.57258e-05
3.05338e-05
3.05338e-05
3.05338e-05
2.93969e-05
2.93969e-05
2.93969e-05
2.93969e-05
2.85999e-05
2.9145e-05
3.04686e-05
2.97979e-05
2.94127e-05
2.86779e-05
3.00678e-05
8.46131e-05
8.39123e-05
2.86002e-05
3.04685e-05
2.9145e-05
2.97979e-05
2.94124e-05
3.00678e-05
2.86779e-05
2.99406e-05
2.99405e-05
2.9346e-05
3.00348e-05
3.00348e-05
2.95173e-05
6.73144e-05
2.99995e-05
6.80297e-05
8.22129e-05
8.12228e-05
2.95174e-05
6.73171e-05
2.99996e-05
6.80322e-05
2.90317e-05
2.90317e-05
2.90317e-05
2.79744e-05
2.79744e-05
2.79743e-05
2.79743e-05
2.65667e-05
2.81251e-05
2.89017e-05
2.81495e-05
2.73166e-05
2.77832e-05
2.85246e-05
8.2214e-05
8.12213e-05
2.65672e-05
2.89016e-05
2.81252e-05
2.81494e-05
2.73161e-05
2.85246e-05
2.77833e-05
3.04387e-05
3.04404e-05
2.75304e-05
3.07816e-05
3.07814e-05
2.86033e-05
6.87386e-05
2.89462e-05
6.90337e-05
7.94334e-05
7.85354e-05
2.86035e-05
6.87408e-05
2.89463e-05
6.90357e-05
2.7634e-05
2.7634e-05
2.7634e-05
2.66473e-05
2.66472e-05
2.66472e-05
2.66472e-05
2.47426e-05
2.74072e-05
2.74276e-05
2.66103e-05
2.54135e-05
2.71922e-05
2.70731e-05
7.94348e-05
7.85334e-05
2.47432e-05
2.74275e-05
2.74074e-05
2.66103e-05
2.54129e-05
2.7073e-05
2.71924e-05
3.15557e-05
3.15577e-05
2.58484e-05
3.21285e-05
3.21291e-05
2.80577e-05
6.9249e-05
2.82433e-05
6.93096e-05
7.7003e-05
7.629e-05
2.80579e-05
6.92506e-05
2.82435e-05
6.9311e-05
2.63293e-05
2.63293e-05
2.63293e-05
2.5407e-05
2.54069e-05
2.54069e-05
2.54069e-05
2.31627e-05
2.70017e-05
2.60433e-05
2.51817e-05
2.37458e-05
2.69214e-05
2.5711e-05
7.70046e-05
7.62877e-05
2.31634e-05
2.60431e-05
2.70019e-05
2.51817e-05
2.37452e-05
2.5711e-05
2.69216e-05
3.31826e-05
3.31849e-05
2.43172e-05
3.39255e-05
3.39274e-05
2.79128e-05
6.92984e-05
2.79263e-05
6.92712e-05
7.50706e-05
7.45366e-05
2.79131e-05
6.92997e-05
2.79266e-05
6.92723e-05
2.51097e-05
2.51096e-05
2.51096e-05
2.42473e-05
2.42472e-05
2.42471e-05
2.42471e-05
2.18457e-05
2.6934e-05
2.47477e-05
2.38636e-05
2.23364e-05
2.69821e-05
2.44375e-05
7.50723e-05
7.4535e-05
2.18462e-05
2.47475e-05
2.69341e-05
2.38635e-05
2.23359e-05
2.44374e-05
2.69824e-05
3.51804e-05
3.51836e-05
2.29395e-05
3.60356e-05
3.60391e-05
2.81573e-05
6.91975e-05
2.80302e-05
6.91654e-05
7.36068e-05
7.32117e-05
2.81577e-05
6.91984e-05
2.80306e-05
6.91662e-05
2.39694e-05
2.39693e-05
2.39693e-05
2.31636e-05
2.31636e-05
2.31635e-05
2.31635e-05
2.07998e-05
2.71995e-05
2.35398e-05
2.26571e-05
2.11947e-05
2.73546e-05
2.32509e-05
7.36067e-05
7.32118e-05
2.08e-05
2.35396e-05
2.71995e-05
2.2657e-05
2.11943e-05
2.32508e-05
2.73551e-05
3.74247e-05
3.74289e-05
2.17182e-05
3.83496e-05
3.83546e-05
2.88229e-05
6.9116e-05
2.85531e-05
6.9105e-05
7.25272e-05
7.22419e-05
2.88239e-05
6.91166e-05
2.85535e-05
6.91056e-05
2.29042e-05
2.29041e-05
2.29041e-05
2.21523e-05
2.21522e-05
2.21521e-05
2.21521e-05
2.00269e-05
2.77789e-05
2.24159e-05
2.15607e-05
2.03177e-05
2.80339e-05
2.21479e-05
7.25271e-05
7.2242e-05
2.0027e-05
2.24157e-05
2.77792e-05
2.15606e-05
2.03175e-05
2.21477e-05
2.80344e-05
3.98079e-05
3.98128e-05
2.06484e-05
4.07635e-05
4.07699e-05
2.99324e-05
6.91038e-05
2.94686e-05
6.91186e-05
7.17498e-05
7.15486e-05
2.99341e-05
6.91042e-05
2.94687e-05
6.9119e-05
2.19104e-05
2.19103e-05
2.19103e-05
2.12099e-05
2.12099e-05
2.12097e-05
2.12097e-05
1.95208e-05
2.86482e-05
2.13757e-05
2.05719e-05
1.97021e-05
2.89924e-05
2.11286e-05
7.17498e-05
7.15487e-05
1.95208e-05
2.13755e-05
2.86488e-05
2.05718e-05
1.97021e-05
2.11285e-05
2.89928e-05
4.2233e-05
4.22388e-05
1.97225e-05
4.3182e-05
4.31898e-05
3.14443e-05
6.91543e-05
3.08003e-05
6.91916e-05
7.1201e-05
7.10619e-05
3.14456e-05
6.91547e-05
3.0801e-05
6.91919e-05
2.09849e-05
2.09848e-05
2.09847e-05
2.03324e-05
2.03324e-05
2.03322e-05
2.03322e-05
1.92791e-05
2.97726e-05
2.04188e-05
1.96878e-05
1.93508e-05
3.01932e-05
2.0192e-05
7.12012e-05
7.10619e-05
1.92792e-05
2.04185e-05
2.97729e-05
1.96877e-05
1.93508e-05
2.01919e-05
3.0194e-05
4.46125e-05
4.46196e-05
1.89332e-05
4.55254e-05
4.55337e-05
3.33271e-05
6.92496e-05
3.2529e-05
6.92968e-05
7.08184e-05
7.07217e-05
3.33278e-05
6.92499e-05
3.25294e-05
6.92972e-05
2.01225e-05
2.01224e-05
2.01224e-05
1.95164e-05
1.95164e-05
1.95162e-05
1.95162e-05
1.92969e-05
3.11115e-05
1.95421e-05
1.89066e-05
1.92655e-05
3.15934e-05
1.9335e-05
7.08184e-05
7.07218e-05
1.92971e-05
1.95418e-05
3.11122e-05
1.89066e-05
1.92656e-05
1.93348e-05
3.1594e-05
4.68761e-05
4.68839e-05
1.82749e-05
4.77277e-05
4.77369e-05
3.55259e-05
6.93613e-05
3.46102e-05
6.94088e-05
7.05493e-05
7.04815e-05
3.55268e-05
6.93617e-05
3.46101e-05
6.94092e-05
1.93223e-05
1.93222e-05
1.93221e-05
1.87623e-05
1.87622e-05
1.87621e-05
1.87621e-05
1.95658e-05
3.26175e-05
1.87428e-05
1.8225e-05
1.94486e-05
3.31446e-05
1.85546e-05
7.05493e-05
7.04816e-05
1.95661e-05
1.87426e-05
3.2618e-05
1.82249e-05
1.94489e-05
1.85545e-05
3.31455e-05
4.89682e-05
4.89764e-05
1.7749e-05
4.97453e-05
4.97551e-05
3.79622e-05
6.94709e-05
3.69637e-05
6.95147e-05
7.03544e-05
7.03054e-05
3.7963e-05
6.94712e-05
3.69637e-05
6.95153e-05
1.85832e-05
1.8583e-05
1.8583e-05
1.80672e-05
1.80672e-05
1.8067e-05
1.8067e-05
2.00905e-05
3.42401e-05
1.80184e-05
1.76396e-05
1.98888e-05
3.47936e-05
1.78486e-05
7.03544e-05
7.03054e-05
2.00908e-05
1.80182e-05
3.42408e-05
1.76396e-05
1.98891e-05
1.78484e-05
3.47944e-05
5.08517e-05
5.08606e-05
1.73593e-05
5.15751e-05
5.15855e-05
4.05467e-05
6.95711e-05
3.94929e-05
6.96109e-05
7.02059e-05
7.0166e-05
4.05478e-05
6.95716e-05
3.94926e-05
6.96116e-05
1.79026e-05
1.79025e-05
1.79025e-05
1.7429e-05
1.7429e-05
1.74288e-05
1.74288e-05
2.08639e-05
3.59256e-05
1.73665e-05
1.71496e-05
2.05806e-05
3.64909e-05
1.72146e-05
7.02061e-05
7.01662e-05
2.08644e-05
1.73663e-05
3.59265e-05
1.71495e-05
2.05809e-05
1.72145e-05
3.64914e-05
5.25469e-05
5.25564e-05
1.71032e-05
5.31673e-05
5.3177e-05
4.31498e-05
6.96621e-05
4.21022e-05
6.96986e-05
7.00826e-05
7.00507e-05
4.31501e-05
6.96626e-05
4.21024e-05
6.96994e-05
1.72783e-05
1.72782e-05
1.72782e-05
1.68454e-05
1.68454e-05
1.68453e-05
1.68453e-05
2.18726e-05
3.76284e-05
1.67865e-05
1.67537e-05
2.15133e-05
3.81878e-05
1.66521e-05
7.00828e-05
7.00508e-05
2.18731e-05
1.67863e-05
3.76289e-05
1.67537e-05
2.15138e-05
1.6652e-05
3.81884e-05
5.40199e-05
5.40291e-05
1.69802e-05
5.45726e-05
5.45828e-05
4.56738e-05
6.97462e-05
4.46619e-05
6.97801e-05
6.99767e-05
6.99471e-05
4.56749e-05
6.97468e-05
4.46612e-05
6.9781e-05
1.67081e-05
1.6708e-05
1.6708e-05
1.6315e-05
1.6315e-05
1.63149e-05
1.63149e-05
2.30952e-05
3.93034e-05
1.62758e-05
1.64515e-05
2.26679e-05
3.98479e-05
1.61585e-05
6.99771e-05
6.99468e-05
2.30959e-05
1.62756e-05
3.9304e-05
1.64516e-05
2.26684e-05
1.61584e-05
3.98487e-05
5.5305e-05
5.53148e-05
1.69897e-05
5.57976e-05
5.58072e-05
4.8021e-05
6.98252e-05
4.7085e-05
6.98576e-05
6.98795e-05
6.98528e-05
4.8021e-05
6.98259e-05
4.70853e-05
6.98585e-05
1.61908e-05
1.61907e-05
1.61908e-05
1.58357e-05
1.58357e-05
1.58357e-05
1.58357e-05
2.45002e-05
4.09199e-05
1.58331e-05
1.6243e-05
2.40168e-05
4.14388e-05
1.57327e-05
6.98794e-05
6.98526e-05
2.4501e-05
1.5833e-05
4.09214e-05
1.6243e-05
2.40174e-05
1.57326e-05
4.14387e-05
5.6426e-05
5.64351e-05
1.71257e-05
5.68582e-05
5.68681e-05
5.01336e-05
6.99003e-05
4.92894e-05
6.99315e-05
6.97901e-05
6.97648e-05
5.01329e-05
6.99011e-05
4.92898e-05
6.99323e-05
1.57239e-05
1.57238e-05
1.57239e-05
1.54057e-05
1.54057e-05
1.54056e-05
1.54057e-05
2.60482e-05
4.24523e-05
1.5458e-05
1.61282e-05
2.55221e-05
4.29403e-05
1.53744e-05
6.97893e-05
6.9765e-05
2.6049e-05
1.5458e-05
4.24538e-05
1.61282e-05
2.5523e-05
1.53744e-05
4.29394e-05
5.74075e-05
5.74165e-05
1.73908e-05
5.77773e-05
5.77872e-05
5.19728e-05
6.99713e-05
5.12394e-05
7.00001e-05
6.97062e-05
6.96828e-05
5.19726e-05
6.99722e-05
5.12391e-05
7.00011e-05
1.53059e-05
1.53058e-05
1.53058e-05
2.76936e-05
4.38868e-05
1.51504e-05
1.61089e-05
2.71406e-05
4.43388e-05
1.50835e-05
6.97056e-05
2.76945e-05
1.51504e-05
4.38825e-05
2.71416e-05
1.50835e-05
5.82642e-05
5.82736e-05
1.77827e-05
5.85791e-05
5.85884e-05
3.73714e-05
3.72958e-05
3.72959e-05
5.31077e-05
3.71932e-05
5.311e-05
3.71933e-05
3.70971e-05
3.72391e-05
3.72386e-05
3.71762e-05
3.71762e-05
3.73695e-05
3.73756e-05
3.73042e-05
3.73764e-05
3.73695e-05
3.73756e-05
3.73042e-05
3.73764e-05
3.71731e-05
3.94089e-05
3.7168e-05
3.67245e-05
3.71731e-05
3.9409e-05
3.7168e-05
3.67242e-05
3.70969e-05
3.71056e-05
3.60251e-05
3.62911e-05
3.71635e-05
3.71112e-05
3.63053e-05
3.70969e-05
3.71056e-05
3.60252e-05
3.62911e-05
3.71635e-05
3.71112e-05
3.63053e-05
3.73714e-05
3.72958e-05
3.72959e-05
5.3109e-05
3.71932e-05
3.70971e-05
3.72392e-05
3.72382e-05
3.71762e-05
3.71762e-05
5.31102e-05
3.71932e-05
3.73695e-05
3.73756e-05
3.73042e-05
3.73764e-05
3.73695e-05
3.73756e-05
3.73764e-05
3.73043e-05
3.71731e-05
3.94096e-05
3.7168e-05
3.67245e-05
3.70969e-05
3.71056e-05
3.60249e-05
3.62911e-05
3.71635e-05
3.71112e-05
3.63053e-05
3.71731e-05
3.94095e-05
3.7168e-05
3.67243e-05
3.70969e-05
3.71056e-05
3.62911e-05
3.60247e-05
3.71112e-05
3.71635e-05
3.63053e-05
3.73769e-05
3.73764e-05
3.73767e-05
3.73767e-05
3.73769e-05
3.73764e-05
3.73767e-05
3.73767e-05
3.73769e-05
3.73764e-05
3.73767e-05
3.73767e-05
3.71135e-05
3.71094e-05
3.62924e-05
3.62924e-05
3.71126e-05
3.71126e-05
3.62946e-05
3.71135e-05
3.71094e-05
3.62924e-05
3.62924e-05
3.71126e-05
3.71126e-05
3.62946e-05
3.71135e-05
3.71094e-05
3.62924e-05
3.62924e-05
3.71126e-05
3.71126e-05
3.62946e-05
3.71135e-05
3.71094e-05
3.62924e-05
3.62924e-05
3.71126e-05
3.71126e-05
3.62946e-05
3.73694e-05
3.73756e-05
3.73764e-05
3.73043e-05
3.70969e-05
3.71056e-05
3.60247e-05
3.62911e-05
3.71635e-05
3.71112e-05
3.63052e-05
3.71731e-05
3.94098e-05
3.7168e-05
3.67245e-05
3.70969e-05
3.71056e-05
3.62911e-05
3.6025e-05
3.71112e-05
3.71635e-05
3.63052e-05
3.71731e-05
3.94095e-05
3.7168e-05
3.67243e-05
3.73714e-05
3.72959e-05
3.72959e-05
5.31106e-05
3.71933e-05
3.70971e-05
3.72383e-05
3.72384e-05
3.71762e-05
3.71762e-05
5.311e-05
3.71932e-05
3.73695e-05
3.73756e-05
3.73764e-05
3.73043e-05
3.70969e-05
3.71056e-05
3.62911e-05
3.6025e-05
3.71112e-05
3.71635e-05
3.63053e-05
3.70969e-05
3.71056e-05
3.62911e-05
3.60251e-05
3.71112e-05
3.71635e-05
3.63053e-05
3.71731e-05
3.94096e-05
3.7168e-05
3.67246e-05
3.71731e-05
3.941e-05
3.7168e-05
3.67245e-05
3.70971e-05
3.72391e-05
3.72391e-05
3.71762e-05
3.71762e-05
5.3111e-05
3.71933e-05
5.31115e-05
3.71933e-05
5.51085e-05
6.48866e-05
5.51106e-05
6.48892e-05
3.6594e-05
3.65955e-05
3.52782e-05
3.40672e-05
3.40659e-05
7.47268e-05
6.7665e-05
7.47304e-05
6.76688e-05
3.49723e-05
3.20467e-05
3.20444e-05
3.34737e-05
3.34752e-05
3.58829e-05
4.08673e-05
3.66008e-05
4.51418e-05
3.52764e-05
3.5638e-05
3.60241e-05
3.53761e-05
3.60478e-05
3.42434e-05
3.53827e-05
3.52764e-05
3.56378e-05
3.60241e-05
3.53761e-05
3.60477e-05
3.42434e-05
3.53827e-05
3.56373e-05
5.02094e-05
4.6449e-05
3.48989e-05
3.5637e-05
5.02127e-05
4.64491e-05
3.48987e-05
3.50001e-05
3.48708e-05
3.27402e-05
3.44014e-05
3.38708e-05
3.48856e-05
3.41809e-05
3.5e-05
3.48708e-05
3.27402e-05
3.44014e-05
3.38705e-05
3.48856e-05
3.41808e-05
3.65948e-05
3.65954e-05
3.52782e-05
3.4067e-05
3.40655e-05
5.51108e-05
6.48891e-05
7.4729e-05
6.76673e-05
3.49723e-05
3.20464e-05
3.20448e-05
3.34743e-05
3.34755e-05
7.47292e-05
6.76682e-05
3.52765e-05
3.5638e-05
3.60241e-05
3.53761e-05
3.60478e-05
3.42428e-05
3.53827e-05
3.58833e-05
4.08688e-05
3.66005e-05
4.51411e-05
3.52764e-05
3.60241e-05
3.56382e-05
3.53761e-05
3.60477e-05
3.53827e-05
3.42428e-05
3.56367e-05
5.02125e-05
4.64491e-05
3.48994e-05
3.5e-05
3.48708e-05
3.27391e-05
3.44014e-05
3.38709e-05
3.48856e-05
3.41809e-05
3.56363e-05
5.0213e-05
4.64511e-05
3.48991e-05
3.5e-05
3.48708e-05
3.44014e-05
3.27391e-05
3.48856e-05
3.38708e-05
3.41808e-05
3.58826e-05
4.08675e-05
3.66012e-05
4.51408e-05
3.52764e-05
3.60241e-05
3.56381e-05
3.53762e-05
3.60478e-05
3.53827e-05
3.42432e-05
3.58828e-05
4.08689e-05
3.66007e-05
4.51402e-05
3.50003e-05
3.48708e-05
3.27394e-05
3.44014e-05
3.3871e-05
3.48856e-05
3.41807e-05
3.56377e-05
5.02116e-05
4.64493e-05
3.48978e-05
3.50001e-05
3.48708e-05
3.44014e-05
3.27404e-05
3.48856e-05
3.38707e-05
3.41808e-05
3.5637e-05
5.02126e-05
4.64516e-05
3.48983e-05
3.65957e-05
3.65948e-05
3.52783e-05
3.40661e-05
3.40664e-05
5.51109e-05
6.48886e-05
7.47305e-05
6.76702e-05
3.49723e-05
3.20446e-05
3.20456e-05
3.34745e-05
3.34745e-05
7.47289e-05
6.7668e-05
3.52764e-05
3.60241e-05
3.56381e-05
3.53761e-05
3.60478e-05
3.53827e-05
3.42431e-05
3.58831e-05
4.08677e-05
3.6601e-05
4.51407e-05
3.5883e-05
4.08687e-05
3.66007e-05
4.51426e-05
3.50002e-05
3.48708e-05
3.44014e-05
3.274e-05
3.48856e-05
3.38707e-05
3.41808e-05
3.5e-05
3.48708e-05
3.44014e-05
3.27398e-05
3.48856e-05
3.38708e-05
3.41808e-05
3.56372e-05
5.02108e-05
4.64491e-05
3.48986e-05
3.56369e-05
5.02127e-05
4.64515e-05
3.48993e-05
5.51118e-05
6.48898e-05
5.51124e-05
6.48907e-05
3.49723e-05
3.2047e-05
3.20453e-05
3.34742e-05
3.34744e-05
7.47305e-05
6.76693e-05
7.47312e-05
6.76709e-05
7.65417e-05
8.08591e-05
7.65458e-05
8.08621e-05
3.1721e-05
3.17219e-05
3.32624e-05
3.09277e-05
3.09249e-05
8.40044e-05
8.18473e-05
8.40073e-05
8.18521e-05
3.29533e-05
3.03112e-05
3.0309e-05
3.07477e-05
3.07485e-05
3.39695e-05
5.13498e-05
3.46831e-05
5.46225e-05
3.30548e-05
3.24822e-05
3.3929e-05
3.34061e-05
3.38968e-05
3.15846e-05
3.34673e-05
3.30547e-05
3.2482e-05
3.3929e-05
3.34061e-05
3.38967e-05
3.15843e-05
3.34673e-05
3.37813e-05
5.83638e-05
5.55936e-05
3.30857e-05
3.37805e-05
5.83666e-05
5.55945e-05
3.30852e-05
3.27695e-05
3.29327e-05
3.06568e-05
3.2572e-05
3.13982e-05
3.30152e-05
3.19187e-05
3.27693e-05
3.29326e-05
3.06566e-05
3.2572e-05
3.13975e-05
3.30152e-05
3.19185e-05
3.17218e-05
3.17227e-05
3.32625e-05
3.09275e-05
3.09255e-05
7.65442e-05
8.08605e-05
8.40069e-05
8.18502e-05
3.29533e-05
3.03109e-05
3.03097e-05
3.0748e-05
3.07499e-05
8.40057e-05
8.18504e-05
3.30548e-05
3.24824e-05
3.3929e-05
3.34062e-05
3.38967e-05
3.15827e-05
3.34673e-05
3.39705e-05
5.13519e-05
3.46826e-05
5.4624e-05
3.30547e-05
3.3929e-05
3.24819e-05
3.34061e-05
3.38966e-05
3.34673e-05
3.15834e-05
3.37802e-05
5.83674e-05
5.55952e-05
3.30854e-05
3.27695e-05
3.29327e-05
3.06554e-05
3.2572e-05
3.13987e-05
3.30152e-05
3.19186e-05
3.37797e-05
5.83684e-05
5.55964e-05
3.3085e-05
3.27693e-05
3.29326e-05
3.2572e-05
3.06561e-05
3.30152e-05
3.13975e-05
3.19184e-05
3.39688e-05
5.13503e-05
3.46851e-05
5.46218e-05
3.30547e-05
3.3929e-05
3.24821e-05
3.34062e-05
3.38968e-05
3.34673e-05
3.15846e-05
3.397e-05
5.13516e-05
3.4684e-05
5.46234e-05
3.27699e-05
3.29328e-05
3.0656e-05
3.2572e-05
3.1399e-05
3.30153e-05
3.19185e-05
3.37829e-05
5.83669e-05
5.55947e-05
3.30835e-05
3.27695e-05
3.29327e-05
3.2572e-05
3.06568e-05
3.30152e-05
3.13977e-05
3.19185e-05
3.37808e-05
5.83681e-05
5.55961e-05
3.30853e-05
3.17216e-05
3.17218e-05
3.32624e-05
3.09258e-05
3.09266e-05
7.65445e-05
8.08613e-05
8.40078e-05
8.1852e-05
3.29533e-05
3.03105e-05
3.03101e-05
3.07477e-05
3.07484e-05
8.40062e-05
8.18501e-05
3.30547e-05
3.3929e-05
3.2482e-05
3.34062e-05
3.38967e-05
3.34673e-05
3.1584e-05
3.39695e-05
5.13507e-05
3.46843e-05
5.46216e-05
3.39702e-05
5.13534e-05
3.4683e-05
5.46236e-05
3.27697e-05
3.29328e-05
3.2572e-05
3.06567e-05
3.30152e-05
3.13981e-05
3.19186e-05
3.27694e-05
3.29328e-05
3.2572e-05
3.06566e-05
3.30152e-05
3.13979e-05
3.19185e-05
3.37823e-05
5.83666e-05
5.55946e-05
3.30838e-05
3.37803e-05
5.83692e-05
5.55973e-05
3.30853e-05
7.65456e-05
8.08626e-05
7.65475e-05
8.08634e-05
3.29533e-05
3.03117e-05
3.03107e-05
3.0748e-05
3.07479e-05
8.40074e-05
8.1851e-05
8.40082e-05
8.18525e-05
8.43904e-05
8.50671e-05
8.43943e-05
8.50698e-05
3.02182e-05
3.02177e-05
3.12714e-05
3.00044e-05
3.00034e-05
8.48435e-05
8.50717e-05
8.48454e-05
8.50742e-05
3.09593e-05
2.99295e-05
2.99285e-05
2.99697e-05
2.99687e-05
3.22511e-05
5.91657e-05
3.29218e-05
6.14382e-05
3.07893e-05
3.05181e-05
3.21369e-05
3.15513e-05
3.16366e-05
2.98912e-05
3.17094e-05
3.07891e-05
3.05178e-05
3.21369e-05
3.15511e-05
3.16364e-05
2.98908e-05
3.17094e-05
3.21121e-05
6.38686e-05
6.20683e-05
3.14721e-05
3.21116e-05
6.38702e-05
6.20694e-05
3.14717e-05
3.05135e-05
3.11034e-05
2.92404e-05
3.08756e-05
2.97792e-05
3.12891e-05
2.96796e-05
3.05132e-05
3.11033e-05
2.924e-05
3.08755e-05
2.97789e-05
3.1289e-05
2.96794e-05
3.02184e-05
3.0219e-05
3.12713e-05
3.00042e-05
3.00042e-05
8.43927e-05
8.50686e-05
8.48446e-05
8.50732e-05
3.09593e-05
2.99294e-05
2.99293e-05
2.99696e-05
2.99696e-05
8.48446e-05
8.50731e-05
3.07892e-05
3.05181e-05
3.21369e-05
3.15513e-05
3.16366e-05
2.98907e-05
3.17094e-05
3.22511e-05
5.9168e-05
3.29216e-05
6.144e-05
3.0789e-05
3.21369e-05
3.05174e-05
3.15511e-05
3.16363e-05
3.17094e-05
2.98905e-05
3.2112e-05
6.38715e-05
6.20709e-05
3.14721e-05
3.05134e-05
3.11035e-05
2.924e-05
3.08755e-05
2.97788e-05
3.12891e-05
2.96795e-05
3.21116e-05
6.3872e-05
6.20718e-05
3.14717e-05
3.05132e-05
3.11032e-05
3.08755e-05
2.92397e-05
3.1289e-05
2.97786e-05
2.96793e-05
3.225e-05
5.91663e-05
3.29249e-05
6.14387e-05
3.07891e-05
3.21369e-05
3.0518e-05
3.15512e-05
3.16366e-05
3.17094e-05
2.9891e-05
3.22514e-05
5.91674e-05
3.29222e-05
6.14396e-05
3.05139e-05
3.11036e-05
2.92404e-05
3.08756e-05
2.97793e-05
3.12891e-05
2.96794e-05
3.21138e-05
6.3871e-05
6.20703e-05
3.14717e-05
3.05135e-05
3.11034e-05
3.08755e-05
2.92402e-05
3.12891e-05
2.97791e-05
2.96794e-05
3.2112e-05
6.38716e-05
6.20711e-05
3.1472e-05
3.0218e-05
3.02189e-05
3.12713e-05
3.00039e-05
3.00036e-05
8.43925e-05
8.50685e-05
8.48451e-05
8.50739e-05
3.09593e-05
2.99292e-05
2.99291e-05
2.99693e-05
2.99699e-05
8.48444e-05
8.5073e-05
3.07891e-05
3.21369e-05
3.05179e-05
3.15513e-05
3.16364e-05
3.17094e-05
2.9891e-05
3.22506e-05
5.91663e-05
3.29242e-05
6.14384e-05
3.22513e-05
5.91688e-05
3.2922e-05
6.14408e-05
3.05136e-05
3.11036e-05
3.08756e-05
2.92404e-05
3.12891e-05
2.97792e-05
2.96796e-05
3.05133e-05
3.11035e-05
3.08755e-05
2.92402e-05
3.1289e-05
2.97791e-05
2.96794e-05
3.21131e-05
6.38706e-05
6.20703e-05
3.14726e-05
3.21119e-05
6.38727e-05
6.20725e-05
3.1472e-05
8.43934e-05
8.50693e-05
8.43944e-05
8.50699e-05
3.09593e-05
2.99298e-05
2.99295e-05
2.99699e-05
2.99697e-05
8.4845e-05
8.50737e-05
8.48452e-05
8.50741e-05
8.46115e-05
8.3912e-05
8.46132e-05
8.39131e-05
2.99403e-05
2.99394e-05
2.93463e-05
3.00344e-05
3.00337e-05
8.2624e-05
8.3549e-05
8.26242e-05
8.355e-05
2.90385e-05
3.03191e-05
3.0319e-05
3.0107e-05
3.01063e-05
3.07522e-05
6.43463e-05
3.1349e-05
6.57243e-05
2.86002e-05
2.9145e-05
3.04685e-05
2.97976e-05
2.94124e-05
2.8678e-05
3.00678e-05
2.86e-05
2.91446e-05
3.04685e-05
2.97974e-05
2.94121e-05
2.86776e-05
3.00677e-05
3.06413e-05
6.70807e-05
6.60663e-05
3.00983e-05
3.0641e-05
6.70817e-05
6.6067e-05
3.0098e-05
2.83436e-05
2.93754e-05
2.81933e-05
2.92845e-05
2.85967e-05
2.96732e-05
2.75605e-05
2.83432e-05
2.93753e-05
2.8193e-05
2.92844e-05
2.85964e-05
2.96731e-05
2.75602e-05
2.99403e-05
2.99402e-05
2.93463e-05
3.00345e-05
3.00343e-05
8.46124e-05
8.39127e-05
8.2625e-05
8.35487e-05
2.90385e-05
3.03208e-05
3.0318e-05
3.01071e-05
3.01069e-05
8.26243e-05
8.35496e-05
2.86001e-05
2.91446e-05
3.04685e-05
2.97978e-05
2.94122e-05
2.86776e-05
3.00678e-05
3.07523e-05
6.43487e-05
3.1349e-05
6.5726e-05
2.85998e-05
3.04685e-05
2.91444e-05
2.97974e-05
2.9412e-05
3.00677e-05
2.86774e-05
3.06414e-05
6.70834e-05
6.60692e-05
3.00985e-05
2.83434e-05
2.93756e-05
2.8193e-05
2.92844e-05
2.85963e-05
2.96731e-05
2.75603e-05
3.06411e-05
6.70834e-05
6.60694e-05
3.00981e-05
2.83432e-05
2.93752e-05
2.92843e-05
2.81928e-05
2.9673e-05
2.85961e-05
2.75601e-05
3.07523e-05
6.43475e-05
3.13498e-05
6.57253e-05
2.85999e-05
3.04685e-05
2.91448e-05
2.97976e-05
2.94123e-05
3.00678e-05
2.86777e-05
3.07525e-05
6.4348e-05
3.13493e-05
6.57256e-05
2.83439e-05
2.93758e-05
2.81931e-05
2.92845e-05
2.85967e-05
2.96732e-05
2.75601e-05
3.06416e-05
6.70828e-05
6.60685e-05
3.0098e-05
2.83435e-05
2.93754e-05
2.92844e-05
2.8193e-05
2.96731e-05
2.85964e-05
2.75601e-05
3.06413e-05
6.70829e-05
6.60688e-05
3.00983e-05
2.99401e-05
2.99405e-05
2.93462e-05
3.00345e-05
3.00343e-05
8.46126e-05
8.39121e-05
8.26237e-05
8.35499e-05
2.90384e-05
3.03179e-05
3.03177e-05
3.01071e-05
3.01072e-05
8.26238e-05
8.35497e-05
2.86e-05
3.04685e-05
2.91449e-05
2.97977e-05
2.94121e-05
3.00677e-05
2.86779e-05
3.0753e-05
6.43475e-05
3.13498e-05
6.5725e-05
3.07525e-05
6.43494e-05
3.13492e-05
6.57266e-05
2.83435e-05
2.93757e-05
2.92845e-05
2.81932e-05
2.96732e-05
2.85967e-05
2.75605e-05
2.83432e-05
2.93756e-05
2.92844e-05
2.81933e-05
2.96731e-05
2.85966e-05
2.75602e-05
3.06418e-05
6.70827e-05
6.60684e-05
3.00987e-05
3.06413e-05
6.70838e-05
6.607e-05
3.00983e-05
8.46128e-05
8.39131e-05
8.46132e-05
8.39124e-05
2.90384e-05
3.03201e-05
3.03195e-05
3.01074e-05
3.01075e-05
8.26246e-05
8.35498e-05
8.26236e-05
8.35499e-05
8.22136e-05
8.1222e-05
8.2214e-05
8.12216e-05
3.04387e-05
3.04381e-05
2.75308e-05
3.078e-05
3.07803e-05
7.9836e-05
8.08051e-05
7.98353e-05
8.08049e-05
2.72364e-05
3.13882e-05
3.1389e-05
3.09251e-05
3.09251e-05
2.9517e-05
6.73146e-05
2.99992e-05
6.80304e-05
2.65672e-05
2.81252e-05
2.89017e-05
2.81491e-05
2.73162e-05
2.77835e-05
2.85246e-05
2.6567e-05
2.81249e-05
2.89016e-05
2.81488e-05
2.73159e-05
2.77832e-05
2.85245e-05
2.9432e-05
6.86551e-05
6.81772e-05
2.90168e-05
2.94317e-05
6.86554e-05
6.81768e-05
2.90165e-05
2.63373e-05
2.77539e-05
2.74491e-05
2.77876e-05