/*--------------------------------*- C++ -*----------------------------------*\
| =========                 |                                                 |
| \\      /  F ield         | OpenFOAM: The Open Source CFD Toolbox           |
|  \\    /   O peration     | Version:  2312                                  |
|   \\  /    A nd           | Website:  www.openfoam.com                      |
|    \\/     M anipulation  |                                                 |
\*---------------------------------------------------------------------------*/
FoamFile
{
    version     2.0;
    format      ascii;
    arch        "LSB;label=32;scalar=64";
    class       volScalarField;
    location    "375";
    object      p;
}
// * * * * * * * * * * * * * * * * * * * * * * * * * * * * * * * * * * * * * //

dimensions      [0 2 -2 0 0 0 0];

internalField   nonuniform List<scalar> 
43211
(
0.003602
0.00360241
0.00360241
0.00360231
0.00354415
0.0035443
0.0035443
0.00354698
0.00349256
0.00349257
0.00349257
0.00349535
0.00344031
0.00344031
0.00344031
0.00344307
0.00338893
0.00338894
0.00338894
0.00339169
0.00333897
0.00333898
0.00333898
0.00334169
0.00329045
0.00329046
0.00329046
0.00329314
0.00324322
0.00324325
0.00324324
0.00324589
0.0031971
0.00319711
0.00319712
0.00319974
0.00315187
0.00315189
0.00315189
0.00315448
0.00310736
0.00310738
0.00310738
0.00310995
0.00306346
0.00306347
0.00306347
0.00306602
0.00302007
0.00302009
0.00302009
0.0030226
0.00297714
0.00297716
0.00297716
0.00297966
0.00293465
0.00293466
0.00293466
0.00293716
0.00289257
0.00289258
0.00289258
0.00289507
0.00285086
0.00285085
0.00285085
0.00285334
0.00280952
0.00280952
0.00280952
0.00281198
0.00276851
0.0027685
0.0027685
0.00277096
0.00272781
0.00272779
0.00272778
0.00273025
0.00268741
0.00268737
0.00268737
0.00268982
0.00361217
0.00361124
0.00361124
0.00361217
0.00361124
0.00361124
0.00361015
0.00361015
0.00361015
0.00361015
0.00361124
0.00361124
0.00361217
0.00361124
0.00361124
0.00361217
0.00360231
0.00355337
0.00360241
0.00360241
0.00355574
0.00355574
0.00360231
0.00355337
0.00360241
0.00360241
0.00355574
0.00355574
0.00360241
0.00355574
0.00355574
0.00360231
0.00355337
0.00360241
0.00355574
0.00355574
0.00355337
0.00354698
0.0035023
0.0035443
0.00354429
0.00350576
0.00350576
0.00354698
0.0035023
0.0035443
0.0035443
0.00350576
0.00350576
0.0035443
0.00350576
0.00350576
0.00354698
0.0035023
0.0035443
0.00350576
0.00350576
0.0035023
0.00349535
0.00344995
0.00349257
0.00349257
0.00345331
0.00345331
0.00349534
0.00344995
0.00349257
0.00349257
0.00345331
0.00345331
0.00349257
0.00345331
0.00345331
0.00349535
0.00344995
0.00349257
0.00345331
0.00345331
0.00344995
0.00344307
0.0033984
0.00344031
0.00344031
0.00340167
0.00340167
0.00344307
0.0033984
0.00344031
0.00344031
0.00340167
0.00340167
0.00344031
0.00340167
0.00340167
0.00344307
0.0033984
0.00344031
0.00340167
0.00340167
0.0033984
0.00339169
0.00334819
0.00338894
0.00338894
0.00335133
0.00335133
0.00339169
0.00334819
0.00338894
0.00338894
0.00335133
0.00335133
0.00338894
0.00335133
0.00335133
0.0033917
0.00334819
0.00338894
0.00335133
0.00335133
0.00334819
0.0033417
0.00329944
0.00333898
0.00333898
0.00330246
0.00330247
0.00334169
0.00329944
0.00333898
0.00333898
0.00330246
0.00330246
0.00333898
0.00330246
0.00330246
0.00334169
0.00329944
0.00333898
0.00330246
0.00330246
0.00329944
0.00329314
0.00325202
0.00329046
0.00329046
0.00325493
0.00325494
0.00329314
0.00325202
0.00329046
0.00329046
0.00325494
0.00325494
0.00329046
0.00325494
0.00325494
0.00329314
0.00325202
0.00329046
0.00325494
0.00325494
0.00325202
0.00324589
0.00320573
0.00324324
0.00324324
0.00320855
0.00320856
0.00324589
0.00320572
0.00324324
0.00324324
0.00320855
0.00320855
0.00324324
0.00320856
0.00320855
0.00324589
0.00320573
0.00324323
0.00320855
0.00320856
0.00320572
0.00319974
0.00316036
0.00319712
0.00319711
0.00316312
0.00316313
0.00319973
0.00316035
0.00319712
0.00319712
0.00316312
0.00316313
0.00319712
0.00316313
0.00316313
0.00319974
0.00316035
0.00319712
0.00316313
0.00316313
0.00316035
0.00315449
0.00311573
0.0031519
0.00315189
0.00311845
0.00311846
0.00315448
0.00311573
0.00315189
0.00315189
0.00311845
0.00311846
0.00315189
0.00311846
0.00311846
0.00315448
0.00311573
0.00315189
0.00311846
0.00311846
0.00311573
0.00310995
0.00307172
0.00310738
0.00310738
0.00307441
0.00307441
0.00310995
0.00307172
0.00310738
0.00310738
0.00307441
0.00307441
0.00310738
0.00307441
0.00307441
0.00310995
0.00307172
0.00310738
0.00307441
0.00307441
0.00307172
0.00306602
0.00302824
0.00306347
0.00306347
0.00303089
0.00303089
0.00306602
0.00302823
0.00306347
0.00306347
0.00303089
0.00303089
0.00306347
0.00303089
0.00303089
0.00306602
0.00302823
0.00306347
0.00303089
0.00303089
0.00302823
0.0030226
0.00298522
0.00302009
0.00302009
0.00298784
0.00298784
0.00302259
0.00298523
0.00302009
0.00302009
0.00298784
0.00298784
0.00302008
0.00298784
0.00298785
0.00302259
0.00298523
0.00302008
0.00298784
0.00298785
0.00298522
0.00297966
0.00294267
0.00297716
0.00297716
0.00294525
0.00294525
0.00297967
0.00294267
0.00297716
0.00297716
0.00294525
0.00294526
0.00297716
0.00294526
0.00294525
0.00297967
0.00294267
0.00297716
0.00294526
0.00294525
0.00294267
0.00293716
0.00290052
0.00293466
0.00293464
0.00290306
0.00290305
0.00293716
0.00290053
0.00293466
0.00293465
0.00290305
0.00290305
0.00293465
0.00290305
0.00290305
0.00293716
0.00290052
0.00293465
0.00290305
0.00290304
0.00290053
0.00289506
0.00285875
0.00289258
0.00289258
0.00286125
0.00286126
0.00289507
0.00285875
0.00289257
0.00289258
0.00286125
0.00286126
0.00289258
0.00286126
0.00286126
0.00289506
0.00285875
0.00289258
0.00286126
0.00286126
0.00285876
0.00285334
0.00281736
0.00285086
0.00285085
0.00281982
0.00281981
0.00285334
0.00281735
0.00285086
0.00285085
0.00281982
0.00281981
0.00285086
0.00281981
0.00281982
0.00285334
0.00281736
0.00285086
0.00281981
0.00281982
0.00281735
0.00281199
0.00277629
0.00280952
0.00280952
0.00277873
0.00277872
0.00281199
0.00277629
0.00280952
0.00280952
0.00277873
0.00277873
0.00280951
0.00277872
0.00277872
0.00281199
0.00277629
0.00280951
0.00277873
0.00277872
0.00277629
0.00277095
0.00273554
0.00276849
0.0027685
0.00273793
0.00273793
0.00277096
0.00273554
0.00276849
0.0027685
0.00273793
0.00273794
0.0027685
0.00273794
0.00273794
0.00277096
0.00273554
0.0027685
0.00273794
0.00273794
0.00273554
0.00273025
0.00269509
0.00272779
0.00272779
0.00269745
0.00269745
0.00273025
0.00269508
0.00272779
0.00272778
0.00269745
0.00269745
0.0027278
0.00269745
0.00269745
0.00273024
0.00269508
0.00272779
0.00269745
0.00269745
0.00269508
0.00268983
0.00268737
0.00268737
0.00268982
0.00268737
0.00268737
0.00268737
0.00268982
0.00268737
0.00362019
0.00363043
0.00362492
0.00362493
0.00364753
0.00363444
0.00366289
0.00362834
0.00364753
0.00363444
0.00362834
0.00366289
0.00363896
0.00366661
0.00366661
0.00357461
0.00359429
0.00360342
0.00356674
0.00356798
0.00357028
0.00357459
0.00359431
0.0036034
0.00356673
0.003602
0.003602
0.003602
0.00355555
0.00355555
0.00355555
0.00355555
0.00357208
0.00359849
0.00360186
0.00357961
0.00360131
0.00357097
0.00358054
0.00356805
0.00357026
0.00357208
0.00360186
0.0035985
0.00357961
0.00360131
0.00358054
0.00357096
0.00360434
0.00360435
0.0035749
0.00357068
0.00357068
0.0035294
0.00354844
0.00354983
0.00352793
0.00354734
0.00352748
0.0035294
0.00354845
0.00354983
0.00352792
0.00354415
0.00354415
0.00354415
0.00350584
0.00350584
0.00350584
0.00350584
0.00352801
0.00354856
0.00354403
0.00353194
0.00354737
0.00352854
0.00353176
0.00354735
0.00352748
0.00352801
0.00354403
0.00354856
0.00353194
0.00354737
0.00353176
0.00352854
0.00354955
0.00354955
0.00352828
0.00352885
0.00352885
0.00347699
0.00349581
0.00349689
0.00347597
0.00349545
0.00347569
0.00347699
0.00349581
0.00349689
0.00347597
0.00349256
0.00349256
0.00349256
0.0034533
0.0034533
0.0034533
0.0034533
0.00347609
0.00349622
0.00349245
0.00347943
0.00349565
0.00347645
0.00347933
0.00349545
0.00347569
0.00347609
0.00349245
0.00349622
0.00347943
0.00349565
0.00347933
0.00347645
0.00349645
0.00349645
0.00347607
0.00347652
0.00347652
0.0034245
0.00344315
0.00344401
0.00342373
0.00344294
0.00342355
0.0034245
0.00344315
0.00344401
0.00342373
0.00344031
0.00344031
0.00344031
0.00340166
0.00340166
0.00340166
0.00340166
0.00342399
0.00344356
0.00344026
0.00342736
0.00344327
0.00342418
0.00342732
0.00344294
0.00342355
0.00342399
0.00344026
0.00344356
0.00342736
0.00344327
0.00342732
0.00342418
0.00344359
0.00344359
0.00342404
0.00342412
0.00342412
0.0033733
0.00339166
0.00339229
0.00337275
0.00339151
0.00337262
0.0033733
0.00339166
0.00339229
0.00337275
0.00338893
0.00338893
0.00338893
0.00335132
0.00335132
0.00335132
0.00335132
0.00337303
0.00339201
0.00338891
0.00337631
0.00339184
0.00337314
0.00337628
0.00339151
0.00337262
0.00337303
0.00338891
0.00339201
0.00337631
0.00339184
0.00337628
0.00337314
0.003392
0.003392
0.00337311
0.00337305
0.00337305
0.00332367
0.00334161
0.00334207
0.00332327
0.0033415
0.00332316
0.00332367
0.00334161
0.00334207
0.00332327
0.00333897
0.00333897
0.00333897
0.00330245
0.00330245
0.00330245
0.00330245
0.00332355
0.00334191
0.00333895
0.00332672
0.0033418
0.00332362
0.00332669
0.0033415
0.00332316
0.00332355
0.00333895
0.00334191
0.00332672
0.0033418
0.00332669
0.00332362
0.0033419
0.0033419
0.00332364
0.00332353
0.00332353
0.0032755
0.00329305
0.00329337
0.00327522
0.00329295
0.00327511
0.0032755
0.00329305
0.00329337
0.00327522
0.00329044
0.00329044
0.00329044
0.00325492
0.00325492
0.00325492
0.00325492
0.00327548
0.00329331
0.00329043
0.00327855
0.00329321
0.00327554
0.00327851
0.00329295
0.00327512
0.00327548
0.00329043
0.00329331
0.00327854
0.00329321
0.00327851
0.00327554
0.0032933
0.0032933
0.00327558
0.00327546
0.00327546
0.00322861
0.00324579
0.00324603
0.00322841
0.0032457
0.00322831
0.00322861
0.00324579
0.00324603
0.00322841
0.00324322
0.00324322
0.00324322
0.00320854
0.00320854
0.00320854
0.00320854
0.00322865
0.00324603
0.00324321
0.00323162
0.00324595
0.0032287
0.00323158
0.0032457
0.00322831
0.00322865
0.00324321
0.00324603
0.00323162
0.00324594
0.00323158
0.0032287
0.00324603
0.00324603
0.00322875
0.00322863
0.00322863
0.00318278
0.00319965
0.00319982
0.00318262
0.00319956
0.00318253
0.00318278
0.00319965
0.00319982
0.00318262
0.0031971
0.0031971
0.0031971
0.0031631
0.0031631
0.0031631
0.0031631
0.00318286
0.00319986
0.00319708
0.00318574
0.00319979
0.0031829
0.0031857
0.00319956
0.00318253
0.00318286
0.00319709
0.00319986
0.00318573
0.00319979
0.0031857
0.0031829
0.00319986
0.00319986
0.00318293
0.00318282
0.00318282
0.0031378
0.0031544
0.00315454
0.00313766
0.00315431
0.00313757
0.0031378
0.0031544
0.00315454
0.00313766
0.00315187
0.00315187
0.00315187
0.00311843
0.00311843
0.00311843
0.00311843
0.0031379
0.0031546
0.00315186
0.00314071
0.00315454
0.00313794
0.00314067
0.00315431
0.00313757
0.0031379
0.00315186
0.0031546
0.00314071
0.00315454
0.00314067
0.00313794
0.00315459
0.00315459
0.00313796
0.00313784
0.00313784
0.0030935
0.00310987
0.00311
0.00309337
0.00310979
0.00309328
0.0030935
0.00310987
0.00311
0.00309337
0.00310736
0.00310736
0.00310736
0.00307438
0.00307438
0.00307438
0.00307438
0.00309361
0.00311006
0.00310736
0.00309636
0.00311001
0.00309364
0.00309633
0.00310979
0.00309328
0.00309362
0.00310736
0.00311006
0.00309636
0.00311001
0.00309633
0.00309364
0.00311005
0.00311005
0.00309365
0.00309353
0.00309353
0.00304976
0.00306593
0.00306606
0.00304963
0.00306586
0.00304955
0.00304976
0.00306593
0.00306606
0.00304963
0.00306346
0.00306346
0.00306346
0.00303087
0.00303087
0.00303087
0.00303087
0.0030499
0.00306612
0.00306346
0.00305259
0.0030661
0.00304991
0.00305257
0.00306586
0.00304955
0.0030499
0.00306346
0.00306613
0.00305259
0.0030661
0.00305256
0.00304991
0.0030661
0.0030661
0.00304991
0.00304978
0.00304978
0.00300652
0.00302252
0.00302264
0.00300639
0.00302244
0.00300632
0.00300651
0.00302252
0.00302264
0.00300639
0.00302007
0.00302007
0.00302007
0.00298783
0.00298783
0.00298783
0.00298783
0.00300668
0.0030227
0.00302007
0.00300931
0.00302269
0.00300666
0.0030093
0.00302244
0.00300632
0.00300668
0.00302007
0.0030227
0.0030093
0.00302269
0.0030093
0.00300666
0.00302266
0.00302266
0.00300666
0.00300653
0.00300653
0.00296373
0.00297956
0.00297969
0.0029636
0.00297949
0.00296354
0.00296373
0.00297956
0.00297969
0.0029636
0.00297714
0.00297714
0.00297714
0.00294524
0.00294524
0.00294524
0.00294524
0.00296391
0.00297974
0.00297715
0.00296649
0.00297976
0.00296387
0.00296649
0.00297949
0.00296354
0.00296391
0.00297715
0.00297974
0.00296649
0.00297976
0.00296649
0.00296387
0.00297969
0.00297969
0.0029639
0.00296372
0.00296372
0.00292137
0.00293704
0.00293717
0.00292124
0.00293698
0.00292119
0.00292137
0.00293704
0.00293717
0.00292124
0.00293465
0.00293465
0.00293465
0.00290305
0.00290305
0.00290305
0.00290305
0.00292158
0.0029372
0.00293466
0.00292411
0.00293725
0.0029215
0.00292411
0.00293698
0.00292118
0.00292158
0.00293466
0.0029372
0.00292411
0.00293725
0.00292411
0.0029215
0.00293717
0.00293717
0.00292155
0.00292134
0.00292135
0.0028794
0.00289493
0.00289505
0.00287927
0.00289488
0.00287924
0.0028794
0.00289493
0.00289505
0.00287928
0.00289257
0.00289257
0.00289257
0.00286126
0.00286126
0.00286126
0.00286126
0.00287963
0.00289509
0.00289258
0.0028821
0.00289516
0.00287953
0.00288212
0.00289488
0.00287923
0.00287963
0.00289258
0.00289509
0.0028821
0.00289516
0.00288212
0.00287953
0.00289504
0.00289504
0.00287959
0.00287938
0.00287938
0.0028378
0.0028532
0.00285332
0.00283769
0.00285316
0.00283765
0.00283781
0.00285321
0.00285332
0.00283769
0.00285086
0.00285086
0.00285087
0.00281983
0.00281982
0.00281982
0.00281983
0.00283806
0.00285335
0.00285088
0.00284049
0.00285345
0.00283793
0.00284051
0.00285316
0.00283765
0.00283806
0.00285088
0.00285335
0.00284049
0.00285345
0.00284052
0.00283793
0.00285331
0.00285331
0.00283801
0.00283778
0.00283778
0.00279656
0.00281184
0.00281195
0.00279645
0.0028118
0.00279642
0.00279656
0.00281184
0.00281195
0.00279645
0.00280952
0.00280952
0.00280952
0.00277873
0.00277873
0.00277873
0.00277873
0.00279683
0.00281197
0.00280954
0.00279924
0.00281209
0.00279669
0.00279926
0.0028118
0.00279642
0.00279683
0.00280954
0.00281197
0.00279923
0.00281209
0.00279926
0.00279669
0.00281194
0.00281194
0.00279678
0.00279653
0.00279653
0.00275564
0.00277082
0.00277091
0.00275554
0.00277078
0.00275551
0.00275564
0.00277081
0.00277091
0.00275554
0.00276851
0.00276851
0.00276851
0.00273796
0.00273796
0.00273796
0.00273796
0.00275592
0.00277093
0.00276853
0.00275829
0.00277105
0.00275576
0.00275832
0.00277078
0.00275551
0.00275592
0.00276852
0.00277093
0.00275828
0.00277105
0.00275832
0.00275576
0.0027709
0.0027709
0.00275587
0.00275561
0.00275561
0.00271503
0.00273009
0.00273019
0.00271494
0.00273007
0.00271491
0.00271503
0.00273009
0.00273019
0.00271494
0.00272781
0.00272781
0.00272781
0.00269748
0.00269748
0.00269748
0.00269748
0.00271531
0.0027302
0.00272782
0.00271766
0.00273033
0.00271514
0.00271769
0.00273007
0.00271491
0.00271531
0.00272782
0.0027302
0.00271766
0.00273033
0.00271769
0.00271514
0.00273017
0.00273017
0.00271527
0.002715
0.002715
0.0026747
0.00268968
0.00268976
0.00267461
0.00268964
0.00267459
0.0026747
0.00268967
0.00268976
0.00267461
0.00268741
0.00268741
0.00268741
0.00267497
0.00268976
0.0026874
0.00267731
0.00268989
0.0026748
0.00267734
0.00268964
0.00267497
0.0026874
0.00268976
0.00268989
0.00267734
0.00268973
0.00268973
0.00267495
0.00267467
0.00267467
0.00363895
0.0036666
0.00366661
0.00363042
0.00366613
0.00363043
0.00366612
0.00363592
0.00362225
0.00362228
0.00366141
0.00366141
0.00364751
0.00363444
0.00366288
0.00362834
0.00364751
0.00363443
0.00366288
0.00362834
0.00365216
0.00362251
0.00366326
0.00361736
0.00365215
0.00362255
0.00366326
0.00361735
0.00364337
0.00363203
0.00361374
0.00360956
0.00365816
0.00362656
0.00361428
0.00364337
0.00363203
0.00361374
0.00360956
0.00365815
0.00362656
0.00361428
0.00363895
0.0036666
0.00366662
0.00363044
0.00366613
0.00363591
0.00362226
0.00362227
0.0036614
0.00366142
0.00363043
0.00366614
0.00364752
0.00363444
0.00366288
0.00362834
0.00364752
0.00363444
0.00362834
0.00366288
0.00365217
0.00362251
0.00366326
0.00361736
0.00364338
0.00363203
0.00361375
0.00360957
0.00365816
0.00362656
0.00361429
0.00365217
0.00362256
0.00366326
0.00361735
0.00364338
0.00363203
0.00360957
0.00361375
0.00362656
0.00365816
0.00361429
0.00362019
0.00363043
0.00362492
0.00362493
0.00362019
0.00363044
0.00362493
0.00362493
0.00362019
0.00363044
0.00362493
0.00362493
0.00361893
0.00362846
0.00360837
0.00360837
0.00362337
0.00362337
0.00360635
0.00361893
0.00362846
0.00360837
0.00360837
0.00362337
0.00362337
0.00360635
0.00361893
0.00362847
0.00360837
0.00360837
0.00362337
0.00362338
0.00360635
0.00361893
0.00362847
0.00360837
0.00360837
0.00362337
0.00362338
0.00360635
0.00364753
0.00363444
0.00362834
0.00366289
0.00364339
0.00363203
0.00361374
0.00360956
0.00365817
0.00362656
0.00361428
0.00365218
0.00362249
0.00366327
0.00361735
0.00364339
0.00363203
0.00360956
0.00361375
0.00362656
0.00365816
0.00361428
0.00365218
0.00362254
0.00366326
0.00361734
0.00363896
0.00366661
0.00366661
0.00363048
0.00366612
0.00363592
0.00362228
0.00362228
0.00366141
0.00366141
0.00363041
0.00366613
0.00364752
0.00363444
0.00362834
0.00366289
0.00364339
0.00363204
0.00360956
0.00361375
0.00362656
0.00365817
0.00361428
0.00364339
0.00363203
0.00360956
0.00361375
0.00362656
0.00365816
0.00361428
0.00365218
0.00362249
0.00366327
0.00361735
0.00365217
0.00362251
0.00366326
0.00361734
0.00363592
0.00362227
0.00362227
0.00366141
0.00366141
0.00363043
0.00366612
0.00363042
0.00366613
0.00356792
0.00357028
0.00356812
0.00357023
0.0036043
0.00360435
0.00357489
0.00357068
0.00357067
0.00355389
0.00357005
0.00355392
0.00357002
0.00356888
0.00355653
0.00355655
0.003569
0.00356898
0.00357461
0.00359433
0.00360342
0.00356675
0.00357209
0.00359848
0.00360186
0.00357961
0.00360132
0.00357097
0.00358055
0.0035721
0.00359848
0.00360186
0.00357961
0.00360131
0.00357097
0.00358055
0.00357025
0.00355564
0.00356777
0.00355643
0.00357026
0.00355565
0.00356776
0.00355643
0.00356732
0.00356687
0.00355538
0.00355561
0.00356836
0.00356729
0.00355375
0.00356732
0.00356687
0.00355537
0.00355561
0.00356835
0.00356729
0.00355375
0.00360431
0.00360435
0.0035749
0.00357068
0.00357068
0.00356809
0.00357026
0.00355391
0.00357005
0.00356888
0.00355654
0.00355654
0.003569
0.00356899
0.00355392
0.00357002
0.00357208
0.0035985
0.00360186
0.00357961
0.00360132
0.00357096
0.00358054
0.00357459
0.00359431
0.0036034
0.00356673
0.00357208
0.00360186
0.00359848
0.00357961
0.00360132
0.00358054
0.00357095
0.00357024
0.00355566
0.00356774
0.00355644
0.00356731
0.00356687
0.00355538
0.00355561
0.00356834
0.00356729
0.00355376
0.00357025
0.00355565
0.00356775
0.00355644
0.00356731
0.00356687
0.00355561
0.00355538
0.00356729
0.00356834
0.00355375
0.0035746
0.0035943
0.00360339
0.00356673
0.00357208
0.00360186
0.00359849
0.00357961
0.00360131
0.00358054
0.00357096
0.0035746
0.00359431
0.00360339
0.00356673
0.00356731
0.00356687
0.00355538
0.00355561
0.00356835
0.00356729
0.00355376
0.00357025
0.00355566
0.00356775
0.00355644
0.00356732
0.00356687
0.00355561
0.00355538
0.00356729
0.00356835
0.00355376
0.00357025
0.00355565
0.00356775
0.00355644
0.00360433
0.00360436
0.00357489
0.00357067
0.00357066
0.00356813
0.00357024
0.00355392
0.00357003
0.00356888
0.00355654
0.00355655
0.00356899
0.00356898
0.00355392
0.00357002
0.00357209
0.00360186
0.0035985
0.00357961
0.00360131
0.00358054
0.00357096
0.0035746
0.0035943
0.0036034
0.00356673
0.0035746
0.00359431
0.00360339
0.00356672
0.00356731
0.00356687
0.00355561
0.00355538
0.00356729
0.00356834
0.00355375
0.00356732
0.00356687
0.00355561
0.00355538
0.00356729
0.00356834
0.00355375
0.00357025
0.00355565
0.00356775
0.00355643
0.00357025
0.00355565
0.00356775
0.00355643
0.00356809
0.00357025
0.00356811
0.00357024
0.00356888
0.00355655
0.00355654
0.00356899
0.00356899
0.00355391
0.00357005
0.00355392
0.00357002
0.00354733
0.00352748
0.00354736
0.00352747
0.00354954
0.00354955
0.00352828
0.00352885
0.00352885
0.003502
0.00352104
0.003502
0.00352103
0.00352143
0.00350307
0.00350307
0.00352238
0.00352237
0.0035294
0.00354844
0.00354983
0.00352793
0.00352801
0.00354855
0.00354403
0.00353194
0.00354737
0.00352854
0.00353176
0.00352801
0.00354855
0.00354403
0.00353194
0.00354737
0.00352854
0.00353176
0.00352286
0.00350241
0.00352154
0.00350351
0.00352286
0.00350241
0.00352154
0.00350351
0.00352146
0.00351896
0.00350288
0.00350565
0.00352208
0.00351884
0.00350234
0.00352146
0.00351896
0.00350288
0.00350565
0.00352208
0.00351884
0.00350234
0.00354954
0.00354955
0.00352828
0.00352885
0.00352885
0.00354735
0.00352748
0.003502
0.00352104
0.00352143
0.00350307
0.00350307
0.00352238
0.00352238
0.003502
0.00352104
0.00352801
0.00354856
0.00354403
0.00353194
0.00354737
0.00352854
0.00353176
0.0035294
0.00354845
0.00354983
0.00352793
0.00352801
0.00354403
0.00354855
0.00353194
0.00354737
0.00353176
0.00352854
0.00352286
0.00350241
0.00352153
0.00350351
0.00352146
0.00351896
0.00350288
0.00350565
0.00352207
0.00351884
0.00350234
0.00352286
0.00350241
0.00352154
0.00350351
0.00352146
0.00351896
0.00350565
0.00350288
0.00351885
0.00352208
0.00350234
0.0035294
0.00354845
0.00354983
0.00352793
0.00352801
0.00354403
0.00354855
0.00353194
0.00354737
0.00353176
0.00352854
0.0035294
0.00354845
0.00354983
0.00352793
0.00352146
0.00351896
0.00350288
0.00350565
0.00352207
0.00351884
0.00350234
0.00352286
0.00350241
0.00352154
0.00350351
0.00352146
0.00351896
0.00350565
0.00350288
0.00351884
0.00352207
0.00350234
0.00352286
0.00350241
0.00352154
0.00350351
0.00354955
0.00354955
0.00352828
0.00352885
0.00352885
0.00354735
0.00352748
0.003502
0.00352104
0.00352143
0.00350307
0.00350307
0.00352238
0.00352238
0.003502
0.00352104
0.00352801
0.00354403
0.00354855
0.00353194
0.00354737
0.00353176
0.00352854
0.0035294
0.00354845
0.00354983
0.00352793
0.0035294
0.00354845
0.00354983
0.00352793
0.00352146
0.00351896
0.00350566
0.00350288
0.00351884
0.00352208
0.00350234
0.00352146
0.00351896
0.00350565
0.00350288
0.00351884
0.00352207
0.00350234
0.00352286
0.00350241
0.00352154
0.00350351
0.00352286
0.00350241
0.00352154
0.00350351
0.00354734
0.00352748
0.00354734
0.00352748
0.00352143
0.00350307
0.00350307
0.00352238
0.00352238
0.003502
0.00352104
0.003502
0.00352104
0.00349545
0.00347568
0.00349545
0.00347569
0.00349645
0.00349645
0.00347607
0.00347652
0.00347652
0.00344948
0.00346906
0.00344948
0.00346906
0.00346913
0.00345015
0.00345015
0.00346986
0.00346986
0.00347699
0.00349581
0.00349689
0.00347597
0.00347609
0.00349622
0.00349245
0.00347943
0.00349565
0.00347645
0.00347933
0.00347609
0.00349621
0.00349245
0.00347943
0.00349565
0.00347645
0.00347933
0.00347032
0.0034497
0.00346933
0.0034506
0.00347032
0.0034497
0.00346933
0.0034506
0.00346937
0.00346635
0.00345018
0.00345325
0.00346976
0.00346627
0.00344992
0.00346937
0.00346635
0.00345018
0.00345325
0.00346975
0.00346627
0.00344992
0.00349645
0.00349645
0.00347607
0.00347652
0.00347652
0.00349545
0.00347569
0.00344948
0.00346906
0.00346913
0.00345015
0.00345015
0.00346986
0.00346986
0.00344948
0.00346906
0.00347609
0.00349622
0.00349245
0.00347943
0.00349565
0.00347645
0.00347933
0.00347699
0.00349581
0.00349689
0.00347597
0.00347609
0.00349245
0.00349621
0.00347943
0.00349565
0.00347933
0.00347645
0.00347032
0.0034497
0.00346933
0.0034506
0.00346937
0.00346635
0.00345018
0.00345325
0.00346975
0.00346627
0.00344992
0.00347032
0.0034497
0.00346933
0.0034506
0.00346937
0.00346635
0.00345325
0.00345018
0.00346627
0.00346975
0.00344992
0.00347699
0.00349581
0.00349689
0.00347597
0.00347609
0.00349245
0.00349622
0.00347943
0.00349565
0.00347933
0.00347645
0.00347699
0.00349581
0.00349689
0.00347597
0.00346937
0.00346635
0.00345018
0.00345325
0.00346976
0.00346627
0.00344992
0.00347032
0.0034497
0.00346933
0.0034506
0.00346937
0.00346635
0.00345325
0.00345018
0.00346627
0.00346975
0.00344992
0.00347032
0.0034497
0.00346933
0.0034506
0.00349645
0.00349645
0.00347607
0.00347652
0.00347652
0.00349545
0.00347569
0.00344948
0.00346906
0.00346913
0.00345015
0.00345015
0.00346986
0.00346986
0.00344948
0.00346906
0.00347609
0.00349245
0.00349622
0.00347943
0.00349565
0.00347933
0.00347645
0.00347699
0.00349581
0.00349689
0.00347597
0.00347699
0.00349581
0.00349689
0.00347597
0.00346937
0.00346635
0.00345325
0.00345018
0.00346627
0.00346975
0.00344992
0.00346937
0.00346635
0.00345325
0.00345018
0.00346627
0.00346975
0.00344992
0.00347032
0.0034497
0.00346933
0.0034506
0.00347032
0.0034497
0.00346933
0.0034506
0.00349545
0.00347569
0.00349545
0.00347569
0.00346913
0.00345015
0.00345015
0.00346986
0.00346986
0.00344948
0.00346906
0.00344948
0.00346906
0.00344294
0.00342355
0.00344294
0.00342355
0.00344359
0.00344359
0.00342404
0.00342412
0.00342412
0.00339791
0.00341708
0.00339791
0.00341708
0.00341724
0.00339839
0.00339839
0.00341763
0.00341763
0.0034245
0.00344315
0.00344401
0.00342373
0.00342399
0.00344356
0.00344026
0.00342736
0.00344327
0.00342418
0.00342732
0.00342399
0.00344356
0.00344026
0.00342736
0.00344327
0.00342418
0.00342732
0.00341799
0.00339806
0.00341725
0.00339871
0.00341799
0.00339806
0.00341725
0.00339871
0.00341741
0.00341448
0.00339848
0.00340164
0.00341763
0.00341444
0.00339834
0.00341741
0.00341448
0.00339848
0.00340164
0.00341763
0.00341444
0.00339834
0.00344359
0.00344359
0.00342404
0.00342412
0.00342412
0.00344294
0.00342355
0.00339791
0.00341708
0.00341724
0.00339839
0.00339839
0.00341763
0.00341763
0.00339791
0.00341708
0.00342399
0.00344356
0.00344026
0.00342736
0.00344327
0.00342418
0.00342732
0.0034245
0.00344315
0.00344401
0.00342373
0.00342399
0.00344026
0.00344356
0.00342736
0.00344327
0.00342732
0.00342418
0.00341799
0.00339806
0.00341725
0.00339871
0.00341741
0.00341448
0.00339848
0.00340164
0.00341763
0.00341444
0.00339834
0.00341799
0.00339806
0.00341725
0.00339871
0.00341741
0.00341448
0.00340164
0.00339848
0.00341444
0.00341762
0.00339834
0.0034245
0.00344315
0.00344401
0.00342373
0.00342399
0.00344026
0.00344356
0.00342736
0.00344327
0.00342732
0.00342418
0.0034245
0.00344315
0.00344401
0.00342373
0.00341741
0.00341448
0.00339848
0.00340164
0.00341763
0.00341444
0.00339834
0.00341799
0.00339806
0.00341725
0.00339871
0.00341741
0.00341448
0.00340164
0.00339848
0.00341444
0.00341762
0.00339834
0.00341799
0.00339806
0.00341725
0.00339871
0.00344359
0.00344359
0.00342404
0.00342412
0.00342412
0.00344294
0.00342355
0.00339791
0.00341708
0.00341724
0.00339839
0.00339839
0.00341763
0.00341763
0.00339791
0.00341708
0.00342399
0.00344026
0.00344356
0.00342736
0.00344327
0.00342732
0.00342418
0.0034245
0.00344315
0.00344401
0.00342373
0.0034245
0.00344315
0.00344401
0.00342373
0.00341741
0.00341448
0.00340164
0.00339848
0.00341444
0.00341763
0.00339834
0.00341741
0.00341448
0.00340164
0.00339848
0.00341444
0.00341763
0.00339834
0.00341799
0.00339806
0.00341725
0.00339871
0.00341799
0.00339806
0.00341725
0.00339871
0.00344294
0.00342355
0.00344294
0.00342355
0.00341724
0.00339839
0.00339839
0.00341763
0.00341763
0.00339791
0.00341708
0.00339791
0.00341708
0.00339151
0.00337261
0.00339151
0.00337262
0.003392
0.003392
0.00337311
0.00337305
0.00337305
0.0033477
0.00336632
0.0033477
0.00336632
0.00336651
0.0033481
0.0033481
0.00336675
0.00336675
0.0033733
0.00339166
0.00339229
0.00337275
0.00337303
0.00339201
0.00338891
0.00337631
0.00339184
0.00337314
0.00337628
0.00337303
0.00339201
0.00338891
0.00337631
0.00339184
0.00337314
0.00337628
0.00336698
0.00334782
0.00336644
0.00334829
0.00336698
0.00334782
0.00336645
0.00334829
0.00336663
0.00336377
0.00334819
0.0033513
0.00336677
0.00336375
0.00334811
0.00336663
0.00336377
0.00334819
0.0033513
0.00336677
0.00336375
0.00334811
0.003392
0.003392
0.00337311
0.00337305
0.00337305
0.00339151
0.00337262
0.0033477
0.00336632
0.00336651
0.0033481
0.0033481
0.00336675
0.00336675
0.0033477
0.00336632
0.00337303
0.00339201
0.00338891
0.00337631
0.00339184
0.00337314
0.00337628
0.0033733
0.00339166
0.00339229
0.00337275
0.00337303
0.00338891
0.00339201
0.00337631
0.00339184
0.00337628
0.00337314
0.00336698
0.00334782
0.00336644
0.00334829
0.00336663
0.00336377
0.00334819
0.0033513
0.00336677
0.00336375
0.00334811
0.00336698
0.00334782
0.00336645
0.00334829
0.00336663
0.00336377
0.0033513
0.00334819
0.00336375
0.00336677
0.00334811
0.00337331
0.00339166
0.00339229
0.00337275
0.00337303
0.00338891
0.00339201
0.00337631
0.00339184
0.00337628
0.00337314
0.0033733
0.00339166
0.00339229
0.00337275
0.00336663
0.00336377
0.00334819
0.0033513
0.00336677
0.00336375
0.00334811
0.00336698
0.00334782
0.00336644
0.00334829
0.00336663
0.00336377
0.0033513
0.00334819
0.00336375
0.00336677
0.00334811
0.00336698
0.00334782
0.00336644
0.00334829
0.003392
0.003392
0.00337311
0.00337305
0.00337305
0.00339151
0.00337262
0.0033477
0.00336632
0.00336651
0.0033481
0.0033481
0.00336675
0.00336675
0.0033477
0.00336632
0.00337303
0.00338891
0.00339201
0.00337631
0.00339184
0.00337628
0.00337314
0.0033733
0.00339166
0.00339229
0.00337275
0.0033733
0.00339166
0.00339229
0.00337275
0.00336663
0.00336377
0.0033513
0.00334819
0.00336375
0.00336677
0.00334811
0.00336663
0.00336377
0.0033513
0.00334819
0.00336375
0.00336677
0.00334811
0.00336698
0.00334782
0.00336645
0.00334829
0.00336698
0.00334782
0.00336644
0.00334829
0.00339151
0.00337262
0.00339151
0.00337262
0.00336651
0.0033481
0.0033481
0.00336675
0.00336675
0.0033477
0.00336632
0.0033477
0.00336632
0.0033415
0.00332316
0.0033415
0.00332316
0.0033419
0.0033419
0.00332364
0.00332354
0.00332353
0.00329898
0.00331705
0.00329897
0.00331705
0.00331725
0.00329933
0.00329933
0.00331743
0.00331742
0.00332367
0.00334161
0.00334207
0.00332327
0.00332355
0.00334191
0.00333895
0.00332672
0.0033418
0.00332362
0.00332669
0.00332355
0.00334191
0.00333895
0.00332672
0.0033418
0.00332362
0.00332669
0.00331754
0.00329908
0.00331716
0.00329941
0.00331754
0.00329908
0.00331715
0.00329941
0.00331733
0.00331455
0.00329941
0.00330243
0.00331743
0.00331452