/*--------------------------------*- C++ -*----------------------------------*\
| =========                 |                                                 |
| \\      /  F ield         | OpenFOAM: The Open Source CFD Toolbox           |
|  \\    /   O peration     | Version:  2312                                  |
|   \\  /    A nd           | Website:  www.openfoam.com                      |
|    \\/     M anipulation  |                                                 |
\*---------------------------------------------------------------------------*/
FoamFile
{
    version     2.0;
    format      ascii;
    arch        "LSB;label=32;scalar=64";
    class       volVectorField;
    location    "375";
    object      U;
}
// * * * * * * * * * * * * * * * * * * * * * * * * * * * * * * * * * * * * * //

dimensions      [0 1 -1 0 0 0 0];

internalField   nonuniform List<vector> 
43211
(
(0.000124338 0.000124328 0.100289)
(-0.000176456 0.000135325 0.100342)
(0.000135361 -0.000176471 0.100342)
(-0.000213132 -0.000213088 0.100397)
(9.66601e-05 9.66637e-05 0.100853)
(-0.00016402 0.000100732 0.100938)
(0.000100708 -0.000164024 0.100938)
(-0.000204354 -0.000204421 0.100966)
(9.47163e-05 9.47327e-05 0.101372)
(-0.000155627 9.38671e-05 0.101451)
(9.38655e-05 -0.000155628 0.101451)
(-0.000201899 -0.000201967 0.101471)
(9.37211e-05 9.37422e-05 0.101892)
(-0.000152276 9.06036e-05 0.101958)
(9.06131e-05 -0.000152288 0.101958)
(-0.000199363 -0.000199407 0.101964)
(9.10125e-05 9.10387e-05 0.102398)
(-0.000146335 8.58926e-05 0.102447)
(8.59071e-05 -0.000146347 0.102447)
(-0.000193796 -0.000193832 0.102432)
(8.8121e-05 8.81552e-05 0.102885)
(-0.00014068 8.18773e-05 0.102912)
(8.18929e-05 -0.000140691 0.102912)
(-0.000188403 -0.000188435 0.102871)
(8.53303e-05 8.53811e-05 0.103353)
(-0.000135543 7.86502e-05 0.103354)
(7.866e-05 -0.000135551 0.103354)
(-0.00018386 -0.000183895 0.103281)
(8.28782e-05 8.29159e-05 0.103803)
(-0.000131109 7.61621e-05 0.103774)
(7.61724e-05 -0.000131105 0.103774)
(-0.000180314 -0.000180374 0.103664)
(8.06829e-05 8.06609e-05 0.104237)
(-0.000127374 7.44302e-05 0.104175)
(7.44021e-05 -0.000127355 0.104175)
(-0.000178334 -0.000178354 0.104023)
(7.87811e-05 7.87753e-05 0.104658)
(-0.000124136 7.30655e-05 0.104558)
(7.30669e-05 -0.000124138 0.104558)
(-0.000177029 -0.000177062 0.104358)
(7.71571e-05 7.71587e-05 0.105066)
(-0.000121303 7.18955e-05 0.104925)
(7.19067e-05 -0.000121317 0.104925)
(-0.000176213 -0.000176253 0.104673)
(7.56556e-05 7.56619e-05 0.105464)
(-0.000118753 7.07852e-05 0.105277)
(7.07688e-05 -0.000118742 0.105277)
(-0.000175896 -0.000175939 0.104967)
(7.41653e-05 7.41732e-05 0.105851)
(-0.000116305 6.95662e-05 0.105615)
(6.95758e-05 -0.000116313 0.105615)
(-0.000175591 -0.000175647 0.10524)
(7.27888e-05 7.27902e-05 0.106229)
(-0.000113895 6.83359e-05 0.105939)
(6.83147e-05 -0.00011389 0.105939)
(-0.000175429 -0.000175459 0.105491)
(7.13937e-05 7.13761e-05 0.106597)
(-0.00011163 6.73122e-05 0.106248)
(6.72863e-05 -0.000111627 0.106248)
(-0.00017433 -0.000174337 0.10572)
(6.99299e-05 6.99633e-05 0.106957)
(-0.000109476 6.62265e-05 0.106543)
(6.62283e-05 -0.00010949 0.106543)
(-0.000174072 -0.000174072 0.105926)
(6.84196e-05 6.84644e-05 0.107308)
(-0.000107509 6.52149e-05 0.106822)
(6.52237e-05 -0.000107528 0.106822)
(-0.000171998 -0.000171987 0.106108)
(6.68576e-05 6.68912e-05 0.107649)
(-0.000105443 6.41109e-05 0.107086)
(6.40925e-05 -0.000105458 0.107086)
(-0.000170267 -0.000170235 0.106264)
(6.53728e-05 6.54045e-05 0.107982)
(-0.000103564 6.30314e-05 0.107334)
(6.30056e-05 -0.00010358 0.107334)
(-0.00016841 -0.000168369 0.106394)
(6.38857e-05 6.39155e-05 0.108306)
(-0.000101602 6.19558e-05 0.107565)
(6.20018e-05 -0.000101636 0.107565)
(-0.000165991 -0.000165964 0.106496)
(6.23454e-05 6.23614e-05 0.108622)
(-9.95678e-05 6.09017e-05 0.107779)
(6.09738e-05 -9.96041e-05 0.107779)
(-0.000162539 -0.000162528 0.106572)
(0.000156342 0.000156374 0.100285)
(0.000129521 0.000155306 0.100244)
(-0.000129516 0.000155234 0.100244)
(-0.000156361 0.000156285 0.100285)
(0.00015531 0.000129491 0.100244)
(0.000155278 -0.00012951 0.100244)
(0.00012195 0.000121931 0.100218)
(-0.000121955 0.000121888 0.100218)
(0.000121921 -0.000121956 0.100218)
(-0.000121932 -0.000121927 0.100218)
(-0.000155324 0.000129447 0.100244)
(-0.000155295 -0.000129479 0.100244)
(0.000156313 -0.000156375 0.100285)
(0.000129478 -0.000155329 0.100244)
(-0.000129483 -0.000155283 0.100244)
(-0.000156349 -0.000156311 0.100285)
(0.000213127 0.000213184 0.100397)
(0.000116039 0.000115984 0.100892)
(0.000135403 0.000176451 0.100342)
(-0.000135397 0.000176378 0.100342)
(9.66211e-05 0.000156908 0.100824)
(-9.66488e-05 0.000156909 0.100824)
(-0.000213157 0.000213064 0.100397)
(-0.000116029 0.000115995 0.100892)
(0.000176452 0.000135377 0.100342)
(0.000176422 -0.000135394 0.100342)
(0.000156842 9.66452e-05 0.100824)
(0.00015684 -9.66269e-05 0.100824)
(-0.000176432 -0.000135363 0.100342)
(-0.000156843 9.66364e-05 0.100824)
(-0.000156863 -9.66478e-05 0.100824)
(0.000213096 -0.00021318 0.100397)
(0.000115968 -0.000116015 0.100892)
(-0.000135363 -0.000176424 0.100342)
(9.65975e-05 -0.000156842 0.100824)
(-9.66337e-05 -0.000156845 0.100824)
(-0.000116004 -0.000116033 0.100892)
(0.000204423 0.000204321 0.100966)
(0.000105434 0.000105331 0.101395)
(0.000100733 0.000164076 0.100938)
(-0.000100747 0.000164063 0.100938)
(9.43566e-05 0.000156089 0.101321)
(-9.43976e-05 0.000156091 0.101321)
(-0.000204427 0.000204315 0.100966)
(-0.000105425 0.000105362 0.101395)
(0.000164029 0.00010076 0.100938)
(0.00016403 -0.00010074 0.100938)
(0.000156032 9.4397e-05 0.101321)
(0.00015607 -9.4395e-05 0.101321)
(-0.000164042 -0.000100742 0.100938)
(-0.00015604 9.4368e-05 0.101321)
(-0.00015607 -9.43753e-05 0.101321)
(0.000204309 -0.000204412 0.100966)
(0.000105381 -0.000105407 0.101395)
(-0.000100742 -0.000164019 0.100938)
(9.43649e-05 -0.000156043 0.101321)
(-9.43899e-05 -0.000156029 0.101321)
(-0.000105389 -0.00010542 0.101395)
(0.000201963 0.000201832 0.101471)
(9.70522e-05 9.69944e-05 0.101893)
(9.38552e-05 0.000155676 0.10145)
(-9.38909e-05 0.000155674 0.10145)
(9.17666e-05 0.000153689 0.101833)
(-9.18037e-05 0.000153696 0.101833)
(-0.000201984 0.000201849 0.101471)
(-9.70693e-05 9.70262e-05 0.101893)
(0.000155619 9.38957e-05 0.101451)
(0.000155662 -9.38962e-05 0.101451)
(0.000153641 9.17982e-05 0.101833)
(0.000153693 -9.17907e-05 0.101833)
(-0.000155661 -9.38767e-05 0.101451)
(-0.000153643 9.17705e-05 0.101833)
(-0.000153682 -9.17799e-05 0.101833)
(0.000201874 -0.000201959 0.101471)
(9.70118e-05 -9.70598e-05 0.101893)
(-9.3895e-05 -0.000155626 0.101451)
(9.17755e-05 -0.000153654 0.101833)
(-9.17873e-05 -0.000153644 0.101833)
(-9.7054e-05 -9.70621e-05 0.101893)
(0.000199379 0.000199288 0.101964)
(8.62918e-05 8.62488e-05 0.102366)
(9.06031e-05 0.000152321 0.101958)
(-9.06387e-05 0.000152327 0.101958)
(8.70187e-05 0.000147846 0.102327)
(-8.70562e-05 0.000147851 0.102327)
(-0.000199454 0.000199331 0.101964)
(-8.63801e-05 8.63515e-05 0.102366)
(0.000152274 9.06318e-05 0.101958)
(0.000152327 -9.06244e-05 0.101958)
(0.000147807 8.70442e-05 0.102327)
(0.000147858 -8.70371e-05 0.102327)
(-0.000152314 -9.06149e-05 0.101958)
(-0.000147806 8.70213e-05 0.102327)
(-0.000147841 -8.70301e-05 0.102327)
(0.000199338 -0.000199452 0.101964)
(8.63424e-05 -8.63851e-05 0.102366)
(-9.06209e-05 -0.000152277 0.101958)
(8.7035e-05 -0.000147819 0.102327)
(-8.7035e-05 -0.000147808 0.102327)
(-8.63257e-05 -8.63248e-05 0.102366)
(0.000193808 0.000193731 0.102432)
(7.62068e-05 7.61806e-05 0.102812)
(8.59001e-05 0.000146379 0.102447)
(-8.59264e-05 0.000146376 0.102447)
(8.28106e-05 0.0001421 0.102798)
(-8.28281e-05 0.000142092 0.102798)
(-0.000193901 0.000193786 0.102432)
(-7.63498e-05 7.63245e-05 0.102812)
(0.000146338 8.59242e-05 0.102447)
(0.000146385 -8.59068e-05 0.102447)
(0.000142064 8.28339e-05 0.102798)
(0.000142111 -8.28201e-05 0.102798)
(-0.000146374 -8.59091e-05 0.102447)
(-0.000142059 8.28108e-05 0.102798)
(-0.000142093 -8.28169e-05 0.102798)
(0.000193815 -0.000193928 0.102432)
(7.63565e-05 -7.63997e-05 0.102812)
(-8.59144e-05 -0.000146341 0.102447)
(8.28296e-05 -0.000142073 0.102798)
(-8.28229e-05 -0.000142062 0.102798)
(-7.62464e-05 -7.62419e-05 0.102812)
(0.000188455 0.000188395 0.102871)
(6.71668e-05 6.71594e-05 0.10323)
(8.18816e-05 0.000140721 0.102912)
(-8.18907e-05 0.000140712 0.102912)
(7.93644e-05 0.000136804 0.103246)
(-7.9366e-05 0.000136791 0.103246)
(-0.000188425 0.000188306 0.102871)
(-6.72816e-05 6.72667e-05 0.10323)
(0.000140682 8.19036e-05 0.102912)
(0.00014073 -8.18809e-05 0.102912)
(0.000136763 7.93972e-05 0.103246)
(0.000136801 -7.93552e-05 0.103246)
(-0.000140717 -8.18894e-05 0.102912)
(-0.000136754 7.93691e-05 0.103246)
(-0.000136785 -7.93631e-05 0.103246)
(0.000188347 -0.00018846 0.102871)
(6.7298e-05 -6.73359e-05 0.10323)
(-8.18965e-05 -0.000140686 0.102912)
(7.93812e-05 -0.000136765 0.103246)
(-7.93729e-05 -0.000136755 0.103246)
(-6.71832e-05 -6.71719e-05 0.10323)
(0.000183974 0.000183928 0.103281)
(5.91663e-05 5.91312e-05 0.103621)
(7.86357e-05 0.000135584 0.103354)
(-7.86467e-05 0.000135581 0.103354)
(7.66777e-05 0.000132169 0.103671)
(-7.66784e-05 0.000132158 0.103671)
(-0.00018383 0.000183722 0.103281)
(-5.92194e-05 5.91811e-05 0.103621)
(0.000135539 7.86658e-05 0.103354)
(0.000135587 -7.86305e-05 0.103354)
(0.000132148 7.67255e-05 0.103671)
(0.000132188 -7.66828e-05 0.103671)
(-0.000135575 -7.86453e-05 0.103354)
(-0.000132136 7.66936e-05 0.103671)
(-0.000132162 -7.66892e-05 0.103671)
(0.000183749 -0.000183874 0.103281)
(5.92771e-05 -5.93199e-05 0.103621)
(-7.8658e-05 -0.000135545 0.103354)
(7.67337e-05 -0.000132159 0.103671)
(-7.67067e-05 -0.000132136 0.103671)
(-5.91921e-05 -5.91836e-05 0.103621)
(0.00018047 0.000180357 0.103664)
(5.26564e-05 5.26907e-05 0.103988)
(7.61527e-05 0.000131132 0.103774)
(-7.61633e-05 0.000131131 0.103774)
(7.48906e-05 0.000128285 0.104076)
(-7.48833e-05 0.000128273 0.104076)
(-0.00018032 0.000180177 0.103664)
(-5.26495e-05 5.2687e-05 0.103988)
(0.000131103 7.61825e-05 0.103774)
(0.000131142 -7.61426e-05 0.103774)
(0.000128251 7.48364e-05 0.104077)
(0.000128307 -7.48904e-05 0.104076)
(-0.000131127 -7.61467e-05 0.103774)
(-0.000128238 7.47964e-05 0.104077)
(-0.000128279 -7.48642e-05 0.104076)
(0.000180407 -0.000180584 0.103664)
(5.26756e-05 -5.26056e-05 0.103988)
(-7.61668e-05 -0.0001311 0.103774)
(7.4791e-05 -0.000128247 0.104076)
(-7.48247e-05 -0.000128244 0.104076)
(-5.26204e-05 -5.25744e-05 0.103988)
(0.00017838 0.00017834 0.104023)
(4.69949e-05 4.70227e-05 0.104332)
(7.45095e-05 0.000127403 0.104175)
(-7.45184e-05 0.000127405 0.104175)
(7.34801e-05 0.000124952 0.104464)
(-7.34442e-05 0.000124934 0.104464)
(-0.000178214 0.000178156 0.104023)
(-4.69039e-05 4.6909e-05 0.104333)
(0.000127367 7.44588e-05 0.104175)
(0.000127415 -7.45014e-05 0.104175)
(0.000124925 7.34391e-05 0.104464)
(0.000124962 -7.34551e-05 0.104464)
(-0.000127399 -7.44893e-05 0.104175)
(-0.000124896 7.33736e-05 0.104464)
(-0.00012493 -7.34279e-05 0.104464)
(0.000178417 -0.000178465 0.104023)
(4.67923e-05 -4.67518e-05 0.104333)
(-7.44493e-05 -0.000127364 0.104175)
(7.33614e-05 -0.000124897 0.104464)
(-7.33878e-05 -0.000124892 0.104464)
(-4.68282e-05 -4.6795e-05 0.104333)
(0.000177291 0.000177248 0.104359)
(4.13987e-05 4.1421e-05 0.104657)
(7.31334e-05 0.00012416 0.104558)
(-7.31393e-05 0.000124172 0.104558)
(7.2266e-05 0.000122026 0.104834)
(-7.22295e-05 0.000122004 0.104834)
(-0.000177094 0.000177016 0.104358)
(-4.15942e-05 4.15845e-05 0.104657)
(0.00012413 7.30949e-05 0.104558)
(0.000124205 -7.31588e-05 0.104558)
(0.000121996 7.22311e-05 0.104834)
(0.000122029 -7.22382e-05 0.104834)
(-0.000124173 -7.31301e-05 0.104558)
(-0.000121962 7.21614e-05 0.104834)
(-0.000122004 -7.22182e-05 0.104834)
(0.000177045 -0.000177118 0.104358)
(4.15649e-05 -4.15322e-05 0.104657)
(-7.30906e-05 -0.000124137 0.104558)
(7.2147e-05 -0.000121957 0.104834)
(-7.21793e-05 -0.000121964 0.104834)
(-4.14631e-05 -4.14355e-05 0.104657)
(0.000176445 0.000176403 0.104673)
(3.63598e-05 3.63648e-05 0.104962)
(7.19991e-05 0.00012135 0.104925)
(-7.19584e-05 0.000121343 0.104925)
(7.11474e-05 0.000119412 0.10519)
(-7.11041e-05 0.000119401 0.10519)
(-0.000176366 0.000176277 0.104673)
(-3.64272e-05 3.6402e-05 0.104962)
(0.000121318 7.19664e-05 0.104925)
(0.000121391 -7.19956e-05 0.104925)
(0.00011939 7.11148e-05 0.10519)
(0.000119451 -7.11419e-05 0.10519)
(-0.000121358 -7.19773e-05 0.104925)
(-0.000119358 7.10398e-05 0.10519)
(-0.000119405 -7.11095e-05 0.10519)
(0.000176151 -0.000176239 0.104673)
(3.651e-05 -3.6491e-05 0.104962)
(-7.19372e-05 -0.000121317 0.104925)
(7.10559e-05 -0.000119372 0.10519)
(-7.10694e-05 -0.000119363 0.10519)
(-3.6464e-05 -3.64447e-05 0.104962)
(0.000175956 0.000175891 0.104967)
(3.16904e-05 3.16828e-05 0.105247)
(7.08605e-05 0.000118781 0.105277)
(-7.08381e-05 0.000118794 0.105277)
(6.99653e-05 0.000116927 0.105532)
(-6.99268e-05 0.000116931 0.105532)
(-0.000175957 0.000175832 0.104967)
(-3.17631e-05 3.17348e-05 0.105247)
(0.000118755 7.08346e-05 0.105277)
(0.000118822 -7.0854e-05 0.105277)
(0.0001169 6.99415e-05 0.105532)
(0.000116969 -6.99511e-05 0.105532)
(-0.000118792 -7.08379e-05 0.105277)
(-0.000116889 6.98798e-05 0.105532)
(-0.00011695 -6.99545e-05 0.105532)
(0.000175947 -0.000176045 0.104967)
(3.17134e-05 -3.17161e-05 0.105247)
(-7.07981e-05 -0.000118749 0.105277)
(6.98742e-05 -0.000116886 0.105532)
(-6.99145e-05 -0.000116903 0.105532)
(-3.15653e-05 -3.15589e-05 0.105247)
(0.000175588 0.000175502 0.10524)
(2.65591e-05 2.65734e-05 0.105512)
(6.96566e-05 0.000116359 0.105615)
(-6.95991e-05 0.000116346 0.105615)
(6.8709e-05 0.000114594 0.105859)
(-6.87254e-05 0.000114566 0.105859)
(-0.000175742 0.00017557 0.10524)
(-2.66368e-05 2.67529e-05 0.105512)
(0.000116321 6.96392e-05 0.105615)
(0.000116396 -6.96503e-05 0.105615)
(0.000114536 6.86872e-05 0.105859)
(0.000114622 -6.87335e-05 0.105859)
(-0.000116357 -6.96451e-05 0.105615)
(-0.000114505 6.86427e-05 0.105859)
(-0.000114558 -6.8671e-05 0.105859)
(0.000175542 -0.000175668 0.10524)
(2.67139e-05 -2.66409e-05 0.105511)
(-6.96093e-05 -0.000116309 0.105615)
(6.86318e-05 -0.000114521 0.105859)
(-6.86266e-05 -0.0001145 0.105859)
(-2.68104e-05 -2.67797e-05 0.105511)
(0.00017541 0.000175341 0.105491)
(2.12618e-05 2.13174e-05 0.105756)
(6.84413e-05 0.000114016 0.105938)
(-6.84346e-05 0.000113956 0.105938)
(6.76206e-05 0.000112279 0.106172)
(-6.76432e-05 0.000112236 0.106172)
(-0.000175534 0.00017553 0.105491)
(-2.11076e-05 2.12308e-05 0.105756)
(0.000113943 6.83917e-05 0.105939)
(0.000113993 -6.84255e-05 0.105938)
(0.000112197 6.75479e-05 0.106172)
(0.000112273 -6.76336e-05 0.106172)
(-0.000113982 -6.83989e-05 0.105938)
(-0.000112166 6.75389e-05 0.106172)
(-0.00011227 -6.76116e-05 0.106172)
(0.00017562 -0.000175649 0.105491)
(2.12995e-05 -2.12161e-05 0.105756)
(-6.8341e-05 -0.000113919 0.105938)
(6.75119e-05 -0.000112159 0.106172)
(-6.75386e-05 -0.00011219 0.106172)
(-2.11742e-05 -2.11379e-05 0.105756)
(0.000174373 0.000174341 0.10572)
(1.66583e-05 1.67234e-05 0.105977)
(6.7389e-05 0.000111728 0.106248)
(-6.74251e-05 0.000111699 0.106248)
(6.65766e-05 0.000110032 0.10647)
(-6.6649e-05 0.000110102 0.10647)
(-0.000174206 0.000174184 0.10572)
(-1.66526e-05 1.67607e-05 0.105977)
(0.000111636 6.73176e-05 0.106248)
(0.000111742 -6.74117e-05 0.106248)
(0.000110031 6.65376e-05 0.106471)
(0.00011008 -6.66172e-05 0.10647)
(-0.000111706 -6.73797e-05 0.106248)
(-0.000110032 6.65388e-05 0.10647)
(-0.000110037 -6.66009e-05 0.10647)
(0.000174194 -0.000174252 0.10572)
(1.67491e-05 -1.6666e-05 0.105977)
(-6.73099e-05 -0.000111628 0.106248)
(6.65127e-05 -0.000110021 0.10647)
(-6.65666e-05 -0.000110046 0.10647)
(-1.68509e-05 -1.67786e-05 0.105977)
(0.000173588 0.000173586 0.105926)
(1.17078e-05 1.18132e-05 0.106176)
(6.6311e-05 0.000109501 0.106543)
(-6.63295e-05 0.000109545 0.106543)
(6.55281e-05 0.000108003 0.106754)
(-6.55475e-05 0.000108048 0.106754)
(-0.000173872 0.000173838 0.105926)
(-1.17399e-05 1.18443e-05 0.106177)
(0.000109519 6.62831e-05 0.106543)
(0.000109553 -6.63228e-05 0.106542)
(0.00010802 6.54984e-05 0.106754)
(0.000108051 -6.55124e-05 0.106754)
(-0.000109417 -6.624e-05 0.106543)
(-0.00010797 6.54433e-05 0.106754)
(-0.000107929 -6.547e-05 0.106754)
(0.000173755 -0.00017381 0.105926)
(1.17423e-05 -1.16118e-05 0.106177)
(-6.62158e-05 -0.000109449 0.106543)
(6.54181e-05 -0.000107976 0.106754)
(-6.54496e-05 -0.000107952 0.106754)
(-1.21073e-05 -1.20225e-05 0.106176)
(0.000172162 0.00017218 0.106108)
(7.82849e-06 7.91067e-06 0.10635)
(6.52527e-05 0.00010748 0.106822)
(-6.53171e-05 0.000107572 0.106822)
(6.44445e-05 0.000105958 0.107022)
(-6.44958e-05 0.000106035 0.107021)
(-0.000171827 0.000171805 0.106108)
(-7.391e-06 7.48696e-06 0.10635)
(0.000107495 6.52146e-05 0.106822)
(0.0001076 -6.53134e-05 0.106822)
(0.00010596 6.43921e-05 0.107022)
(0.000106069 -6.44891e-05 0.107021)
(-0.000107468 -6.52127e-05 0.106822)
(-0.000105975 6.43963e-05 0.107022)
(-0.000105921 -6.43851e-05 0.107022)
(0.000171788 -0.000171791 0.106108)
(7.56569e-06 -7.48719e-06 0.10635)
(-6.51831e-05 -0.000107494 0.106822)
(6.43918e-05 -0.000106004 0.107022)
(-6.43418e-05 -0.000105949 0.107022)
(-7.43157e-06 -7.33574e-06 0.10635)
(0.00017058 0.000170586 0.106264)
(3.58756e-06 3.66962e-06 0.106499)
(6.41481e-05 0.000105489 0.107086)
(-6.42225e-05 0.000105521 0.107086)
(6.33542e-05 0.000104104 0.107274)
(-6.34362e-05 0.00010415 0.107273)
(-0.000170618 0.000170578 0.106264)
(-3.74829e-06 3.82576e-06 0.106498)
(0.00010548 6.41005e-05 0.107086)
(0.000105526 -6.42027e-05 0.107086)
(0.000104056 6.33033e-05 0.107274)
(0.000104086 -6.33743e-05 0.107273)
(-0.000105478 -6.41781e-05 0.107086)
(-0.00010406 6.33192e-05 0.107274)
(-0.000104067 -6.33445e-05 0.107273)
(0.000170699 -0.000170762 0.106264)
(3.99123e-06 -3.90949e-06 0.106498)
(-6.41382e-05 -0.000105486 0.107086)
(6.32625e-05 -0.000104019 0.107274)
(-6.33023e-05 -0.000104064 0.107274)
(-3.62185e-06 -3.53029e-06 0.106498)
(0.000168041 0.000168041 0.106394)
(-8.68965e-08 -2.3462e-08 0.10662)
(6.31407e-05 0.000103662 0.107334)
(-6.31419e-05 0.000103652 0.107334)
(6.23223e-05 0.000102174 0.107509)
(-6.23737e-05 0.000102206 0.107508)
(-0.000168489 0.000168433 0.106394)
(-2.93845e-07 3.69887e-07 0.106619)
(0.000103604 6.30876e-05 0.107334)
(0.000103644 -6.31078e-05 0.107334)
(0.000102135 6.22682e-05 0.107509)
(0.000102156 -6.22859e-05 0.107509)
(-0.000103573 -6.30817e-05 0.107334)
(-0.000102117 6.22597e-05 0.107509)
(-0.000102118 -6.23108e-05 0.107508)
(0.000168288 -0.000168332 0.106394)
(2.38619e-08 5.91098e-08 0.10662)
(-6.30372e-05 -0.000103566 0.107334)
(6.21809e-05 -0.000102096 0.107509)
(-6.22634e-05 -0.000102113 0.107509)
(-4.76137e-07 -3.72596e-07 0.106619)
(0.000165662 0.000165643 0.106496)
(-2.80717e-06 -2.75364e-06 0.106713)
(6.20746e-05 0.000101661 0.107565)
(-6.20671e-05 0.000101695 0.107565)
(6.13259e-05 0.000100196 0.107727)
(-6.12939e-05 0.000100184 0.107727)
(-0.00016589 0.000165845 0.106496)
(2.80012e-06 -2.72004e-06 0.106713)
(0.00010162 6.20133e-05 0.107565)
(0.000101706 -6.20945e-05 0.107564)
(0.000100141 6.12583e-05 0.107727)
(0.000100168 -6.1257e-05 0.107726)
(-0.000101597 -6.19764e-05 0.107565)
(-0.000100081 6.11741e-05 0.107727)
(-0.000100098 -6.12394e-05 0.107727)
(0.00016534 -0.000165396 0.106497)
(-3.12387e-06 3.19038e-06 0.106713)
(-6.1924e-05 -0.000101598 0.107565)
(6.11587e-05 -0.000100092 0.107727)
(-6.11912e-05 -0.000100102 0.107727)
(2.60942e-06 2.69906e-06 0.106712)
(0.000162684 0.000162665 0.106572)
(6.10517e-05 9.96652e-05 0.107779)
(-6.10272e-05 9.96725e-05 0.107778)
(-0.000162492 0.000162451 0.106572)
(9.96104e-05 6.09761e-05 0.107779)
(9.96853e-05 -6.10716e-05 0.107778)
(-9.95932e-05 -6.09621e-05 0.107778)
(0.000162222 -0.000162298 0.106572)
(-6.09103e-05 -9.95986e-05 0.107779)
(1.24741e-06 1.245e-06 0.0999994)
(1.5979e-05 1.59737e-05 0.100001)
(1.53636e-06 1.37707e-05 0.0999998)
(1.37772e-05 1.53427e-06 0.0999998)
(-4.86826e-05 5.70119e-06 0.100008)
(-2.19192e-05 1.83012e-05 0.1)
(-0.000127869 6.03101e-05 0.100058)
(-1.76785e-05 1.76073e-06 0.0999985)
(5.69989e-06 -4.8669e-05 0.100008)
(1.83059e-05 -2.19166e-05 0.1)
(1.76231e-06 -1.76769e-05 0.0999985)
(6.03138e-05 -0.000127822 0.100058)
(-2.50344e-05 -2.50365e-05 0.100004)
(-0.000134778 -8.09382e-05 0.100055)
(-8.09376e-05 -0.000134727 0.100055)
(-3.43504e-05 0.000137154 0.100737)
(0.000175651 0.000388782 0.099425)
(2.2669e-06 0.000302181 0.100525)
(-8.50057e-05 0.000245499 0.0991603)
(-0.000303143 0.000837048 0.0977804)
(-0.000128456 0.000305701 0.0957324)
(0.000136991 -3.44147e-05 0.100737)
(0.000388952 0.000175045 0.099425)
(0.000302799 2.19721e-06 0.100526)
(0.000245614 -8.46962e-05 0.0991604)
(-0.000124339 0.000124283 0.100289)
(0.000124321 -0.000124344 0.100289)
(-0.000124326 -0.000124314 0.100289)
(9.51812e-05 9.51884e-05 0.100737)
(-9.51776e-05 9.51838e-05 0.100737)
(9.51658e-05 -9.51805e-05 0.100737)
(-9.51766e-05 -9.51915e-05 0.100737)
(-0.000285846 6.32184e-06 0.100768)
(-0.000389992 0.000227407 0.100533)
(-0.000157429 2.29445e-05 0.100284)
(-0.000160586 0.000101568 0.100585)
(-0.000350157 1.58155e-05 0.100488)
(-0.000153284 0.000198693 0.100753)
(-0.000159143 3.57045e-05 0.100524)
(0.000835858 -0.000301526 0.0977796)
(0.000305589 -0.000128422 0.0957326)
(6.30087e-06 -0.000285888 0.100768)
(2.29665e-05 -0.000157433 0.100284)
(0.000227475 -0.000389909 0.100533)
(0.000101585 -0.000160598 0.100585)
(1.58403e-05 -0.000350156 0.100488)
(3.57257e-05 -0.000159159 0.100524)
(0.000198707 -0.000153367 0.100753)
(-0.000369948 -0.000141102 0.100368)
(-0.00014113 -0.000369721 0.100368)
(-0.000118328 -0.000118307 0.100671)
(9.90773e-06 -8.01564e-05 0.100603)
(-8.01995e-05 9.83863e-06 0.100602)
(-1.65246e-05 0.000197745 0.100866)
(-5.55071e-05 0.000289398 0.0983218)
(-2.0227e-05 0.000209177 0.100778)
(-4.54251e-05 0.000271841 0.0979437)
(-0.000150567 0.000314316 0.0926229)
(-0.000136981 0.000273552 0.0909987)
(0.000197751 -1.65529e-05 0.100866)
(0.000289468 -5.52194e-05 0.0983218)
(0.000209232 -2.02764e-05 0.100779)
(0.00027191 -4.51934e-05 0.0979436)
(-9.66593e-05 9.66471e-05 0.100853)
(9.66412e-05 -9.66662e-05 0.100853)
(-9.66582e-05 -9.66756e-05 0.100853)
(9.52283e-05 9.52398e-05 0.101239)
(-9.52362e-05 9.52156e-05 0.101239)
(9.52278e-05 -9.52476e-05 0.101239)
(-9.52451e-05 -9.52481e-05 0.101239)
(-0.00026399 1.33315e-05 0.101152)
(-0.000220651 0.0002139 0.100819)
(-0.000170561 3.22029e-05 0.100893)
(-0.000161593 9.8792e-05 0.101062)
(-0.000300765 1.41741e-05 0.100978)
(-0.000183817 0.000197295 0.100943)
(-0.000170737 3.29931e-05 0.101016)
(0.000314058 -0.000150435 0.0926227)
(0.000273448 -0.000136956 0.0909982)
(1.33076e-05 -0.000264 0.101151)
(3.21967e-05 -0.000170565 0.100893)
(0.000213895 -0.000220666 0.100819)
(9.87705e-05 -0.000161596 0.101062)
(1.41521e-05 -0.000300798 0.100978)
(3.2991e-05 -0.000170739 0.101016)
(0.000197296 -0.000183785 0.100943)
(-8.41853e-05 -9.74981e-05 0.100439)
(-9.73202e-05 -8.4149e-05 0.100439)
(-0.000112314 -0.000112365 0.101142)
(-8.67086e-05 -8.23935e-05 0.100429)
(-8.23456e-05 -8.66554e-05 0.100428)
(-9.42153e-06 0.000210246 0.100957)
(-2.26244e-05 0.000281947 0.0971375)
(-1.16454e-05 0.000229817 0.100903)
(-1.29274e-05 0.000257288 0.0967127)
(-0.000116973 0.000226241 0.0883851)
(-9.64825e-05 0.000187587 0.0870655)
(0.000210262 -9.46642e-06 0.100957)
(0.000281961 -2.25184e-05 0.0971374)
(0.000229833 -1.16988e-05 0.100903)
(0.000257294 -1.28253e-05 0.0967124)
(-9.47292e-05 9.47123e-05 0.101372)
(9.47228e-05 -9.47407e-05 0.101372)
(-9.47379e-05 -9.47381e-05 0.101372)
(9.42261e-05 9.42467e-05 0.101763)
(-9.42421e-05 9.42223e-05 0.101763)
(9.42371e-05 -9.42492e-05 0.101763)
(-9.42459e-05 -9.42516e-05 0.101763)
(-0.000250972 1.22273e-05 0.10158)
(-0.000222839 0.000189898 0.101028)
(-0.000167237 3.31038e-05 0.101409)
(-0.000155407 9.34922e-05 0.101579)
(-0.000289911 1.2109e-05 0.101414)
(-0.000182643 0.000168784 0.101123)
(-0.00016755 3.30785e-05 0.101539)
(0.000226133 -0.000116974 0.0883852)
(0.000187499 -9.64846e-05 0.0870645)
(1.22204e-05 -0.000250958 0.10158)
(3.31093e-05 -0.000167231 0.101409)
(0.000189882 -0.000222843 0.101028)
(9.34863e-05 -0.000155412 0.101579)
(1.2124e-05 -0.000289948 0.101414)
(3.30836e-05 -0.000167556 0.101539)
(0.000168801 -0.000182628 0.101123)
(-0.00011628 -9.10826e-05 0.100182)
(-9.10338e-05 -0.000116235 0.100182)
(-0.000101871 -0.000101887 0.101647)
(-0.00011227 -7.19517e-05 0.100086)
(-7.19089e-05 -0.000112222 0.100085)
(-7.03401e-06 0.000209781 0.100952)
(4.90732e-06 0.000258554 0.0958585)
(-7.93124e-06 0.000236003 0.100928)
(9.66506e-06 0.000229887 0.0954232)
(-7.68965e-05 0.000150327 0.0849764)
(-5.87161e-05 0.000119198 0.0839658)
(0.000209793 -7.0696e-06 0.100952)
(0.000258558 4.99343e-06 0.0958581)
(0.000236019 -7.97017e-06 0.100928)
(0.000229886 9.74012e-06 0.0954228)
(-9.37397e-05 9.37181e-05 0.101892)
(9.37357e-05 -9.37431e-05 0.101892)
(-9.3741e-05 -9.37466e-05 0.101892)
(9.17139e-05 9.17384e-05 0.102273)
(-9.17332e-05 9.17157e-05 0.102273)
(9.17339e-05 -9.17299e-05 0.102273)
(-9.17367e-05 -9.17381e-05 0.102273)
(-0.000238332 1.11513e-05 0.101978)
(-0.000220234 0.000162392 0.101142)
(-0.000165451 3.23914e-05 0.101924)
(-0.000150804 8.93968e-05 0.102082)
(-0.00028253 1.1004e-05 0.101822)
(-0.000175189 0.000140809 0.101213)
(-0.000163982 3.20299e-05 0.102051)
(0.000150255 -7.6924e-05 0.0849765)
(0.000119124 -5.87346e-05 0.0839646)
(1.11365e-05 -0.00023831 0.101978)
(3.23897e-05 -0.000165453 0.101924)
(0.000162378 -0.000220214 0.101142)
(8.94068e-05 -0.000150816 0.102082)
(1.10064e-05 -0.000282555 0.101822)
(3.2024e-05 -0.000163995 0.102051)
(0.000140823 -0.00017518 0.101213)
(-0.000133453 -7.913e-05 0.0997183)
(-7.91013e-05 -0.000133421 0.0997184)
(-9.16718e-05 -9.16746e-05 0.102133)
(-0.000124032 -5.99293e-05 0.0995702)
(-5.9902e-05 -0.000124001 0.0995687)
(-6.50818e-06 0.000201944 0.100851)
(1.84631e-05 0.000227235 0.0945617)
(-6.90068e-06 0.000231007 0.100853)
(1.82048e-05 0.000197704 0.0941438)
(-4.4975e-05 9.558e-05 0.0823415)
(-3.07817e-05 7.22169e-05 0.0815917)
(0.000201954 -6.53772e-06 0.100851)
(0.000227228 1.85312e-05 0.0945612)
(0.000231024 -6.93094e-06 0.100853)
(0.00019769 1.82596e-05 0.0941433)
(-9.10292e-05 9.10141e-05 0.102398)
(9.10319e-05 -9.10247e-05 0.102398)
(-9.10346e-05 -9.10343e-05 0.102398)
(8.88431e-05 8.88745e-05 0.102765)
(-8.88672e-05 8.88682e-05 0.102765)
(8.88782e-05 -8.88605e-05 0.102765)
(-8.88708e-05 -8.88654e-05 0.102765)
(-0.0002233 1.02771e-05 0.102335)
(-0.00021125 0.000137069 0.101161)
(-0.000159105 3.09043e-05 0.102425)
(-0.000144892 8.48232e-05 0.102565)
(-0.000270781 9.91519e-06 0.102189)
(-0.000164314 0.000116695 0.101213)
(-0.000157399 3.05452e-05 0.102547)
(9.55506e-05 -4.50064e-05 0.082342)
(7.21472e-05 -3.07946e-05 0.0815903)
(1.02556e-05 -0.000223272 0.102335)
(3.08971e-05 -0.000159108 0.102425)
(0.000137124 -0.000211209 0.101161)
(8.48397e-05 -0.000144906 0.102565)
(9.91486e-06 -0.000270799 0.10219)
(3.05352e-05 -0.000157411 0.102547)
(0.00011678 -0.000164275 0.101212)
(-0.000138387 -6.82751e-05 0.0991139)
(-6.8261e-05 -0.00013836 0.0991139)
(-8.11719e-05 -8.11692e-05 0.102593)
(-0.000125972 -5.05646e-05 0.0989313)
(-5.05525e-05 -0.000125952 0.0989295)
(-6.19629e-06 0.000190313 0.100664)
(2.01431e-05 0.000194796 0.0933124)
(-6.68501e-06 0.000220806 0.100689)
(1.68815e-05 0.000165846 0.092928)
(-2.37617e-05 6.01326e-05 0.0803348)
(-1.30109e-05 4.25106e-05 0.0797851)
(0.000190316 -6.22312e-06 0.100664)
(0.000194783 2.0198e-05 0.0933119)
(0.000220819 -6.71303e-06 0.100689)
(0.000165827 1.69144e-05 0.0929273)
(-8.81302e-05 8.8138e-05 0.102885)
(8.81429e-05 -8.81213e-05 0.102885)
(-8.81464e-05 -8.81394e-05 0.102885)
(8.59845e-05 8.60312e-05 0.103238)
(-8.60092e-05 8.60332e-05 0.103238)
(8.60333e-05 -8.59981e-05 0.103238)
(-8.60167e-05 -8.60022e-05 0.103238)
(-0.000207575 9.75264e-06 0.10265)
(-0.000199802 0.000116288 0.101097)
(-0.000152235 2.95135e-05 0.102905)
(-0.000139326 8.09866e-05 0.103025)
(-0.00025724 9.1762e-06 0.102514)
(-0.000152267 9.71413e-05 0.101131)
(-0.000150508 2.92089e-05 0.103021)
(6.014e-05 -2.3808e-05 0.0803355)
(4.2448e-05 -1.301e-05 0.0797834)
(9.72482e-06 -0.000207539 0.10265)
(2.95025e-05 -0.00015224 0.102905)
(0.000116335 -0.000199795 0.101097)
(8.10029e-05 -0.000139339 0.103025)
(9.17932e-06 -0.000257255 0.102514)
(2.91967e-05 -0.000150521 0.103021)
(9.72856e-05 -0.000152209 0.101131)
(-0.00013567 -6.03916e-05 0.098417)
(-6.03873e-05 -0.000135658 0.0984169)
(-7.15776e-05 -7.15706e-05 0.103024)
(-0.000121901 -4.40027e-05 0.0982126)
(-4.3999e-05 -0.000121881 0.0982104)
(-5.0592e-06 0.000176653 0.100404)
(1.54064e-05 0.000164895 0.092148)
(-5.90047e-06 0.000207852 0.100449)
(1.0558e-05 0.00013724 0.0918042)
(-1.11528e-05 3.86724e-05 0.0788034)
(-2.73822e-06 2.48071e-05 0.0784019)
(0.000176652 -5.08551e-06 0.100404)
(0.000164854 1.53291e-05 0.0921475)
(0.000207864 -5.92055e-06 0.100449)
(0.000137215 1.0608e-05 0.0918035)
(-8.53366e-05 8.53669e-05 0.103353)
(8.53622e-05 -8.53213e-05 0.103353)
(-8.5362e-05 -8.53456e-05 0.103353)
(8.3441e-05 8.3489e-05 0.103692)
(-8.34654e-05 8.34919e-05 0.103692)
(8.34977e-05 -8.34486e-05 0.103692)
(-8.34856e-05 -8.34629e-05 0.103692)
(-0.000192248 9.58614e-06 0.102924)
(-0.000187537 9.97178e-05 0.100959)
(-0.000145549 2.83889e-05 0.103363)
(-0.000134357 7.79506e-05 0.103461)
(-0.000243401 8.78154e-06 0.102796)
(-0.000140315 8.15459e-05 0.10098)
(-0.000143966 2.81612e-05 0.103475)
(3.86297e-05 -1.11482e-05 0.0788048)
(2.46876e-05 -2.65464e-06 0.0783997)
(9.55721e-06 -0.000192207 0.102924)
(2.83712e-05 -0.000145555 0.103363)
(9.96904e-05 -0.000187538 0.100959)
(7.79657e-05 -0.000134371 0.103461)
(8.78241e-06 -0.00024342 0.102796)
(2.81434e-05 -0.000143979 0.103475)
(8.15846e-05 -0.000140262 0.100979)
(-0.000128627 -5.47202e-05 0.0976627)
(-5.47233e-05 -0.000128632 0.0976625)
(-6.30593e-05 -6.30426e-05 0.103429)
(-0.000114391 -3.91659e-05 0.0974474)
(-3.91539e-05 -0.00011437 0.0974449)
(-3.23146e-06 0.000162341 0.100086)
(7.71373e-06 0.000139183 0.0910846)