/*--------------------------------*- C++ -*----------------------------------*\
| =========                 |                                                 |
| \\      /  F ield         | OpenFOAM: The Open Source CFD Toolbox           |
|  \\    /   O peration     | Version:  2312                                  |
|   \\  /    A nd           | Website:  www.openfoam.com                      |
|    \\/     M anipulation  |                                                 |
\*---------------------------------------------------------------------------*/
FoamFile
{
    version     2.0;
    format      ascii;
    arch        "LSB;label=32;scalar=64";
    class       volScalarField;
    location    "650";
    object      nut;
}
// * * * * * * * * * * * * * * * * * * * * * * * * * * * * * * * * * * * * * //

dimensions      [0 2 -1 0 0 0 0];

internalField   nonuniform List<scalar> 
43008
(
0.000158329
0.000108541
0.000154172
0.00010479
0.000104784
8.35313e-05
8.5104e-05
8.40187e-05
0.000108518
0.000108504
0.000105635
0.000105619
8.38819e-05
0.00010854
0.000108503
0.000105655
0.000105618
0.000105661
0.000105627
8.50806e-05
8.4058e-05
0.000108529
0.000105654
0.000105644
8.37352e-05
8.33902e-05
0.000104762
0.000104747
8.34297e-05
0.000104783
0.000104745
0.000104756
8.33254e-05
0.000104774
6.51303e-05
4.95122e-05
6.39734e-05
4.95179e-05
2.36522e-05
6.51383e-05
4.95072e-05
6.39639e-05
4.95127e-05
0.000158326
0.000158321
0.000158316
0.000155204
0.000155201
0.000155195
0.000155191
6.15941e-05
0.000107544
6.2295e-05
0.000133384
2.36554e-05
2.36511e-05
6.15888e-05
0.000134455
6.16306e-05
0.000107537
6.08657e-05
0.000133376
6.22889e-05
8.46085e-05
5.9322e-05
5.93214e-05
6.77486e-05
4.95374e-05
6.66947e-05
4.95422e-05
2.3642e-05
2.3638e-05
6.77487e-05
4.95321e-05
6.66829e-05
4.95368e-05
0.000154168
0.000154162
0.000154159
6.41523e-05
6.37417e-05
0.000130149
0.000103916
6.33187e-05
6.43584e-05
0.000129105
2.36411e-05
2.36372e-05
6.41765e-05
0.000130136
6.37372e-05
0.00010391
6.33327e-05
0.000129095
6.44348e-05
6.00773e-05
6.00768e-05
8.30099e-05
6.04505e-05
6.04234e-05
2.36583e-05
2.36546e-05
2.36561e-05
2.3652e-05
5.89306e-05
5.89478e-05
8.47943e-05
5.93452e-05
5.93266e-05
2.36473e-05
2.36514e-05
2.36448e-05
2.36489e-05
8.41466e-05
5.99086e-05
5.98912e-05
5.95136e-05
5.95287e-05
6.51208e-05
4.95065e-05
6.39782e-05
4.95121e-05
6.16676e-05
6.1634e-05
0.000134457
0.000107516
6.08084e-05
6.22966e-05
0.000133375
6.16427e-05
6.1629e-05
0.000134452
0.000107501
6.08448e-05
6.22937e-05
0.000133372
6.53727e-05
4.95309e-05
4.95248e-05
6.64698e-05
6.53767e-05
4.95245e-05
4.95188e-05
6.64687e-05
6.20108e-05
0.000106588
6.33587e-05
0.000131217
6.26957e-05
0.000132281
6.29228e-05
6.20295e-05
0.000106574
6.33537e-05
0.000131216
6.26879e-05
0.000132277
6.28982e-05
8.46853e-05
5.93222e-05
5.93272e-05
2.36533e-05
2.36449e-05
2.36492e-05
8.4271e-05
5.98853e-05
5.98921e-05
5.95224e-05
5.95291e-05
2.36464e-05
2.36502e-05
6.16244e-05
6.16315e-05
0.000134458
0.000107538
6.0849e-05
6.22962e-05
0.000133377
6.51222e-05
4.95029e-05
6.39743e-05
4.95088e-05
6.16376e-05
0.000134446
6.16246e-05
0.0001075
6.08358e-05
0.000133366
6.22881e-05
6.5362e-05
4.95254e-05
4.95198e-05
6.64844e-05
6.20394e-05
0.000106608
6.33558e-05
0.00013122
6.26921e-05
0.000132281
6.28814e-05
6.5374e-05
4.95217e-05
4.9516e-05
6.64651e-05
6.20276e-05
0.00010657
0.000131209
6.3346e-05
0.00013227
6.26866e-05
6.28828e-05
6.50985e-05
4.95137e-05
6.16583e-05
0.00010751
0.000133378
6.22974e-05
6.51065e-05
4.95097e-05
6.20485e-05
0.000106616
6.3346e-05
0.000131227
6.26887e-05
0.000132293
6.28437e-05
6.53829e-05
4.95263e-05
4.95201e-05
6.64465e-05
6.20024e-05
0.000106582
0.000131221
6.33932e-05
0.000132283
6.2678e-05
6.29101e-05
6.53827e-05
4.95223e-05
4.95164e-05
6.64521e-05
5.89409e-05
5.89474e-05
8.47695e-05
5.93203e-05
5.93273e-05
2.36576e-05
2.36533e-05
2.3644e-05
2.36481e-05
8.41638e-05
5.9885e-05
5.98923e-05
5.95225e-05
5.95295e-05
2.36462e-05
2.36503e-05
6.16146e-05
0.000134451
6.16266e-05
0.000107525
6.08504e-05
0.000133372
6.22967e-05
6.51061e-05
4.95083e-05
6.39922e-05
4.95139e-05
6.51011e-05
4.95023e-05
6.39952e-05
4.95082e-05
6.20584e-05
0.000106609
0.000131218
6.33534e-05
0.000132279
6.26928e-05
6.28327e-05
6.20396e-05
0.000106599
0.000131217
6.33521e-05
0.000132279
6.26892e-05
6.28694e-05
6.53911e-05
4.95265e-05
4.95212e-05
6.64424e-05
6.53925e-05
4.95209e-05
4.95152e-05
6.64428e-05
2.36519e-05
2.36507e-05
8.43185e-05
5.98858e-05
5.98863e-05
5.95225e-05
5.95226e-05
2.36447e-05
2.36488e-05
2.36436e-05
2.36477e-05
2.36441e-05
2.36403e-05
2.36418e-05
2.36381e-05
6.0069e-05
6.00817e-05
8.34354e-05
6.04529e-05
6.0457e-05
6.77308e-05
4.95305e-05
6.66944e-05
4.95362e-05
6.42726e-05
6.37276e-05
0.000130137
0.00010389
6.32801e-05
6.44236e-05
0.000129096
6.41924e-05
6.37164e-05
0.000130135
0.000103874
6.32998e-05
6.44211e-05
0.000129094
6.00751e-05
6.00829e-05
8.34526e-05
6.04503e-05
6.0429e-05
2.36435e-05
2.36396e-05
6.41661e-05
6.37248e-05
0.000130138
0.000103912
6.33091e-05
6.44252e-05
0.000129098
6.77343e-05
4.95278e-05
6.66952e-05
4.95331e-05
6.41703e-05
0.000130126
6.37276e-05
0.000103875
6.33004e-05
0.000129087
6.439e-05
6.77186e-05
4.95328e-05
6.66989e-05
4.95375e-05
6.42126e-05
0.000130141
6.37037e-05
0.000103883
6.3272e-05
0.000129101
6.44361e-05
6.7734e-05
4.95286e-05
6.67006e-05
4.95339e-05
6.0076e-05
6.0083e-05
8.33234e-05
6.04234e-05
6.04305e-05
2.36432e-05
2.36393e-05
6.42097e-05
0.000130136
6.37289e-05
0.000103898
6.33041e-05
0.000129096
6.43697e-05
6.77318e-05
4.95328e-05
6.6713e-05
4.95384e-05
6.77296e-05
4.9527e-05
6.67121e-05
4.95323e-05
2.36418e-05
2.3638e-05
2.36406e-05
2.36367e-05
3.61704e-05
6.4685e-05
4.0305e-05
6.75526e-05
4.03028e-05
6.71545e-05
3.61732e-05
2.02411e-05
6.67594e-05
4.95116e-05
2.02406e-05
6.69323e-05
3.61702e-05
6.44297e-05
4.03009e-05
6.66367e-05
3.61675e-05
4.03027e-05
6.7041e-05
2.02378e-05
6.7144e-05
4.95183e-05
6.69854e-05
2.02383e-05
2.36559e-05
2.36528e-05
3.61704e-05
6.46733e-05
6.75492e-05
4.03048e-05
6.71512e-05
4.03024e-05
3.61732e-05
2.02414e-05
6.6752e-05
4.95064e-05
2.02409e-05
6.69316e-05
3.61701e-05
6.44379e-05
6.66337e-05
4.03005e-05
3.61674e-05
6.70385e-05
4.03024e-05
2.02381e-05
6.71434e-05
4.95132e-05
6.69725e-05
2.02386e-05
2.36548e-05
2.36517e-05
6.93165e-05
2.1579e-05
2.15758e-05
2.15789e-05
2.15757e-05
6.94719e-05
7.01612e-05
5.90298e-05
6.60228e-05
4.70368e-05
7.0206e-05
5.90286e-05
6.60276e-05
4.70294e-05
6.92592e-05
2.15824e-05
2.15792e-05
7.05188e-05
4.70534e-05
5.92359e-05
6.66683e-05
6.64726e-05
4.70482e-05
7.06622e-05
7.05648e-05
4.70458e-05
5.92357e-05
6.6677e-05
6.64887e-05
4.70368e-05
7.07111e-05
3.61839e-05
6.73247e-05
4.03208e-05
6.94456e-05
4.03208e-05
6.90772e-05
3.61869e-05
2.02298e-05
6.76055e-05
4.9537e-05
2.02294e-05
6.77529e-05
3.61834e-05
6.71152e-05
4.03143e-05
6.86167e-05
3.61803e-05
4.03167e-05
6.89951e-05
2.02266e-05
6.79388e-05
4.95431e-05
6.78056e-05
2.0227e-05
2.36414e-05
2.36384e-05
3.61839e-05
6.73124e-05
6.94401e-05
4.03207e-05
6.9076e-05
4.03202e-05
3.61869e-05
2.02301e-05
6.76056e-05
4.95314e-05
2.02296e-05
6.77478e-05
3.61834e-05
6.71258e-05
6.86143e-05
4.03136e-05
3.61803e-05
6.89919e-05
4.03167e-05
2.02268e-05
6.79339e-05
4.95378e-05
6.78005e-05
2.02272e-05
2.36406e-05
2.36376e-05
7.01184e-05
2.15655e-05
2.15624e-05
2.15654e-05
2.15623e-05
7.02632e-05
7.20955e-05
6.8416e-05
4.70948e-05
6.01598e-05
7.19476e-05
6.8609e-05
4.71002e-05
7.21629e-05
6.84264e-05
4.70846e-05
6.01585e-05
7.19888e-05
6.8621e-05
4.70921e-05
7.00728e-05
2.15688e-05
2.15657e-05
6.99297e-05
2.15689e-05
2.15657e-05
7.24256e-05
4.7114e-05
6.03353e-05
6.92534e-05
6.90585e-05
4.71094e-05
7.25414e-05
7.2448e-05
4.71061e-05
6.0343e-05
6.92558e-05
6.90736e-05
4.70994e-05
7.2638e-05
2.36581e-05
2.3655e-05
2.36554e-05
2.36525e-05
6.93235e-05
2.15796e-05
2.15764e-05
2.15796e-05
2.15763e-05
6.9477e-05
7.01644e-05
6.58159e-05
4.70342e-05
5.90537e-05
7.00249e-05
4.70398e-05
6.6042e-05
7.02045e-05
6.58355e-05
4.70209e-05
5.90358e-05
7.00715e-05
4.70303e-05
6.6043e-05
6.92652e-05
2.15828e-05
2.15796e-05
6.91027e-05
2.1583e-05
2.15798e-05
7.05214e-05
4.70561e-05
5.92248e-05
6.66891e-05
4.70504e-05
7.06636e-05
6.64643e-05
7.05674e-05
4.70466e-05
5.92386e-05
6.66861e-05
4.70383e-05
7.07064e-05
6.64715e-05
2.36477e-05
2.3651e-05
2.36454e-05
2.36484e-05
6.96836e-05
2.15762e-05
2.15729e-05
6.95322e-05
2.15765e-05
2.1573e-05
7.14978e-05
6.7983e-05
5.9792e-05
4.70882e-05
4.70836e-05
6.77624e-05
7.16279e-05
7.15377e-05
6.79895e-05
5.98092e-05
4.70778e-05
4.70713e-05
6.77634e-05
7.16773e-05
7.11503e-05
4.70672e-05
6.71114e-05
5.96303e-05
7.10132e-05
4.70732e-05
6.73354e-05
7.11943e-05
4.70544e-05
6.71251e-05
5.96158e-05
7.10586e-05
4.70629e-05
6.73491e-05
6.97373e-05
2.15733e-05
2.15696e-05
2.15732e-05
2.15696e-05
6.98843e-05
3.61688e-05
6.46886e-05
4.03048e-05
6.75484e-05
4.03026e-05
6.71395e-05
3.61718e-05
2.02403e-05
6.673e-05
4.95059e-05
2.02398e-05
6.69189e-05
3.61687e-05
6.44234e-05
4.03007e-05
6.66234e-05
4.03025e-05
3.61659e-05
6.70408e-05
2.02369e-05
6.71308e-05
4.95125e-05
6.69529e-05
2.02374e-05
3.61765e-05
4.03056e-05
6.76564e-05
6.58083e-05
3.61735e-05
4.03083e-05
6.80482e-05
2.02323e-05
4.95319e-05
6.75534e-05
2.02327e-05
6.74135e-05
2.02355e-05
6.71942e-05
4.95253e-05
2.0235e-05
6.73602e-05
3.61769e-05
6.60463e-05
4.03123e-05
6.85305e-05
3.61799e-05
4.03093e-05
6.81447e-05
3.6175e-05
4.03054e-05
6.76436e-05
6.58077e-05
3.6172e-05
4.03082e-05
6.80449e-05
2.02314e-05
4.95254e-05
6.75362e-05
6.73796e-05
2.02319e-05
2.02346e-05
6.71668e-05
4.9519e-05
2.02341e-05
6.73371e-05
3.61753e-05
6.60445e-05
4.03124e-05
6.85259e-05
4.0309e-05
6.81313e-05
3.61784e-05
6.93167e-05
2.15765e-05
2.15794e-05
2.15763e-05
2.15792e-05
6.94814e-05
7.0245e-05
5.90306e-05
4.70332e-05
6.60216e-05
7.01982e-05
5.90355e-05
6.60594e-05
4.70431e-05
6.92693e-05
2.15796e-05
2.15825e-05
7.05327e-05
4.70497e-05
5.9234e-05
6.66754e-05
4.7034e-05
6.64895e-05
7.07336e-05
7.049e-05
4.70598e-05
5.92428e-05
6.67004e-05
6.64537e-05
4.70442e-05
7.06809e-05
2.36569e-05
2.36538e-05
2.36456e-05
2.36485e-05
6.96872e-05
2.15729e-05
2.15759e-05
6.95271e-05
2.15731e-05
2.1576e-05
7.15096e-05
6.7978e-05
5.98031e-05
4.70815e-05
6.77774e-05
4.70658e-05
7.1702e-05
7.14689e-05
6.7989e-05
5.98099e-05
4.70913e-05
4.7076e-05
6.77516e-05
7.16573e-05
7.12298e-05
4.70506e-05
6.71343e-05
5.96099e-05
6.73389e-05
7.10287e-05
4.70651e-05
7.11827e-05
4.70609e-05
6.71027e-05
5.96172e-05
7.099e-05
4.70753e-05
6.73381e-05
6.97311e-05
2.15699e-05
2.15726e-05
2.15696e-05
2.15725e-05
6.98874e-05
2.3647e-05
2.365e-05
3.61686e-05
6.46855e-05
4.03044e-05
6.75439e-05
4.03022e-05
6.714e-05
3.61715e-05
2.02404e-05
6.67315e-05
4.95026e-05
2.02399e-05
6.69048e-05
3.61684e-05
6.44242e-05
4.03003e-05
6.66222e-05
4.0302e-05
3.61657e-05
6.70338e-05
2.02371e-05
6.71144e-05
4.95093e-05
6.6962e-05
2.02377e-05
3.61765e-05
6.76531e-05
4.03051e-05
6.58212e-05
3.61735e-05
6.80455e-05
4.03081e-05
2.02325e-05
4.95263e-05
6.75526e-05
2.02329e-05
6.74003e-05
2.02358e-05
6.7191e-05
4.95198e-05
2.02353e-05
6.73529e-05
3.61769e-05
6.60331e-05
6.85261e-05
4.03122e-05
3.61799e-05
6.81415e-05
4.03088e-05
3.61748e-05
4.0305e-05
6.76436e-05
6.58049e-05
3.61718e-05
4.03077e-05
6.80414e-05
2.02316e-05
4.95227e-05
6.75286e-05
6.73873e-05
2.02319e-05
2.02348e-05
6.71721e-05
4.95159e-05
2.02344e-05
6.73323e-05
3.61751e-05
6.60451e-05
4.03118e-05
6.85217e-05
4.03088e-05
6.81313e-05
3.61783e-05
3.617e-05
6.46944e-05
6.75162e-05
4.03037e-05
6.7165e-05
4.03014e-05
3.61729e-05
2.02381e-05
6.71338e-05
4.95149e-05
6.69669e-05
2.02386e-05
3.61687e-05
6.46964e-05
4.03044e-05
6.75437e-05
4.03022e-05
6.71417e-05
3.61717e-05
2.02372e-05
6.71212e-05
4.95107e-05
6.69543e-05
2.02377e-05
3.61762e-05
6.76693e-05
4.03041e-05
6.57822e-05
3.61731e-05
6.80116e-05
4.03072e-05
2.02325e-05
4.95276e-05
6.75461e-05
6.73937e-05
2.0233e-05
2.02359e-05
6.71809e-05
4.95206e-05
2.02353e-05
6.73486e-05
3.61765e-05
6.605e-05
6.84932e-05
4.03116e-05
6.81553e-05
4.03076e-05
3.61796e-05
3.61749e-05
4.03049e-05
6.7645e-05
6.57903e-05
3.61719e-05
4.03078e-05
6.80396e-05
2.02316e-05
4.95231e-05
6.75294e-05
6.73805e-05
2.0232e-05
2.02349e-05
6.71756e-05
4.95163e-05
2.02344e-05
6.7326e-05
3.61752e-05
6.60527e-05
4.03121e-05
6.8521e-05
4.03085e-05
6.81324e-05
3.61784e-05
6.93192e-05
2.15766e-05
2.15798e-05
2.15766e-05
2.15797e-05
6.94749e-05
7.02046e-05
6.58292e-05
4.70229e-05
5.90289e-05
4.7029e-05
7.00675e-05
6.60362e-05
7.01634e-05
6.58255e-05
4.70317e-05
5.90358e-05
6.60319e-05
7.00234e-05
4.70418e-05
6.92629e-05
2.15799e-05
2.1583e-05
2.158e-05
6.90986e-05
2.15831e-05
7.05662e-05
4.70451e-05
5.92328e-05
6.66927e-05
4.70396e-05
6.64773e-05
7.07061e-05
7.05219e-05
4.70583e-05
5.92396e-05
6.66763e-05
6.64733e-05
4.70488e-05
7.06638e-05
2.36569e-05
2.36539e-05
2.36446e-05
2.36476e-05
6.96804e-05
2.15732e-05
2.15763e-05
6.95294e-05
2.15733e-05
2.15764e-05
7.15396e-05
6.79839e-05
5.98031e-05
4.70774e-05
6.77818e-05
4.70719e-05
7.16723e-05
7.14968e-05
6.79758e-05
5.98102e-05
4.70893e-05
4.70815e-05
6.77752e-05
7.16345e-05
7.11925e-05
4.7056e-05
6.71189e-05
5.96099e-05
6.73291e-05
7.10559e-05
4.70622e-05
7.11468e-05
4.70649e-05
6.71215e-05
5.96173e-05
7.10142e-05
4.70741e-05
6.73265e-05
6.97343e-05
2.15699e-05
2.1573e-05
2.15698e-05
2.15729e-05
6.98807e-05
2.36467e-05
2.36497e-05
3.61709e-05
6.47007e-05
6.75396e-05
4.03044e-05
6.71571e-05
4.03022e-05
3.61737e-05
2.0242e-05
6.67564e-05
4.95075e-05
6.69195e-05
2.02415e-05
3.61706e-05
6.44103e-05
6.66407e-05
4.03003e-05
6.70294e-05
3.61679e-05
4.03021e-05
2.02387e-05
6.71375e-05
4.95143e-05
6.69747e-05
2.02392e-05
3.61679e-05
6.47042e-05
6.75461e-05
4.03038e-05
6.71399e-05
4.03016e-05
3.61709e-05
2.02402e-05
6.6728e-05
4.95018e-05
2.02396e-05
6.69124e-05
3.61678e-05
6.44035e-05
6.66235e-05
4.02997e-05
3.6165e-05
6.70355e-05
4.03014e-05
2.02368e-05
6.71289e-05
4.95083e-05
6.69487e-05
2.02373e-05
3.6177e-05
6.76601e-05
4.0305e-05
6.57858e-05
3.6174e-05
6.80379e-05
4.03077e-05
2.02331e-05
4.95276e-05
6.75501e-05
6.74016e-05
2.02335e-05
2.02364e-05
6.71979e-05
4.95209e-05
2.0236e-05
6.73473e-05
3.61773e-05
6.60631e-05
6.85158e-05
4.0312e-05
6.81469e-05
4.03086e-05
3.61803e-05
3.61741e-05
6.76433e-05
4.03043e-05
6.57852e-05
3.61711e-05
6.80423e-05
4.03071e-05
2.02311e-05
4.95213e-05
6.75435e-05
6.73688e-05
2.02317e-05
2.02345e-05
6.71631e-05
4.95151e-05
2.02339e-05
6.73398e-05
3.61744e-05
6.60628e-05
6.85239e-05
4.03114e-05
6.81308e-05
4.03079e-05
3.61776e-05
2.36555e-05
2.36524e-05
2.36543e-05
2.36513e-05
6.9678e-05
2.15755e-05
2.15724e-05
6.95268e-05
2.15756e-05
2.15725e-05
7.14746e-05
6.79709e-05
5.98035e-05
4.70854e-05
7.16497e-05
6.77708e-05
4.708e-05
7.15204e-05
6.79791e-05
5.98033e-05
4.70773e-05
7.16958e-05
6.77851e-05
4.7069e-05
7.11778e-05
4.70634e-05
6.71181e-05
5.96116e-05
7.10026e-05
6.73224e-05
4.70705e-05
7.12236e-05
4.7053e-05
6.71338e-05
5.96106e-05
7.10486e-05
6.73355e-05
4.70622e-05
6.97311e-05
2.15723e-05
2.15691e-05
6.98792e-05
2.15722e-05
2.1569e-05
2.36453e-05
2.36483e-05
2.36441e-05
2.36472e-05
2.36437e-05
2.36405e-05
2.36414e-05
2.36384e-05
7.01298e-05
2.15664e-05
2.15627e-05
2.15664e-05
2.15627e-05
7.02641e-05
7.20944e-05
6.84082e-05
4.70982e-05
6.01834e-05
7.19663e-05
4.7103e-05
6.86237e-05
7.21416e-05
6.84159e-05
4.70861e-05
6.01669e-05
7.20074e-05
4.70927e-05
6.86363e-05
7.0077e-05
2.15698e-05
2.15662e-05
6.99354e-05
2.15699e-05
2.15663e-05
7.24356e-05
4.71164e-05
6.03349e-05
6.92608e-05
4.71136e-05
7.25452e-05
6.90578e-05
7.24779e-05
4.71064e-05
6.0343e-05
6.92563e-05
4.71013e-05
7.258e-05
6.90644e-05
3.61822e-05
6.73239e-05
4.03249e-05
6.9448e-05
4.03169e-05
6.90612e-05
3.61855e-05
2.0229e-05
6.75807e-05
4.95308e-05
2.02286e-05
6.77347e-05
3.61819e-05
6.71153e-05
4.03132e-05
6.86045e-05
4.03178e-05
3.61787e-05
6.89927e-05
2.02257e-05
6.79217e-05
4.95373e-05
6.77769e-05
2.02262e-05
7.01213e-05
2.15633e-05
2.15659e-05
2.15631e-05
2.15658e-05
7.027e-05
7.21745e-05
6.84178e-05
4.70827e-05
6.01614e-05
4.70969e-05
7.1984e-05
6.86432e-05
7.21044e-05
6.84003e-05
4.7092e-05
6.01651e-05
6.86283e-05
7.19465e-05
4.71062e-05
7.00817e-05
2.15665e-05
2.15691e-05
2.15666e-05
6.99292e-05
2.15692e-05
7.24427e-05
4.7112e-05
6.0336e-05
6.9299e-05
4.70971e-05
6.90481e-05
7.2624e-05
7.24247e-05
4.71211e-05
6.03522e-05
6.92767e-05
6.90484e-05
4.71065e-05
7.25355e-05
2.3643e-05
2.364e-05
3.61821e-05
6.73254e-05
4.03202e-05
6.94403e-05
4.03204e-05
6.90638e-05
3.61853e-05
2.02291e-05
6.75818e-05
4.95278e-05
2.02287e-05
6.77279e-05
3.61818e-05
6.71146e-05
4.03137e-05
6.86046e-05
4.03162e-05
3.61786e-05
6.89876e-05
2.02258e-05
6.79146e-05
4.95343e-05
6.77815e-05
2.02263e-05
3.61834e-05
6.73268e-05
6.94164e-05
4.03243e-05
6.9085e-05
4.0315e-05
3.61868e-05
2.02302e-05
6.75928e-05
4.95323e-05
6.77413e-05
2.02296e-05
3.61832e-05
6.70943e-05
6.86277e-05
4.03116e-05
6.89591e-05
3.61799e-05
4.03172e-05
2.02268e-05
6.7929e-05
4.95393e-05
6.77922e-05
2.02273e-05
3.61822e-05
6.73278e-05
4.03249e-05
6.94393e-05
4.0316e-05
6.90648e-05
3.61855e-05
2.02292e-05
6.75837e-05
4.95284e-05
2.02287e-05
6.77252e-05
3.61819e-05
6.71053e-05
4.03127e-05
6.86059e-05
3.61787e-05
4.03177e-05
6.89853e-05
2.02259e-05
6.79138e-05
4.95346e-05
6.77784e-05
2.02263e-05
7.01242e-05
2.15632e-05
2.15663e-05
2.15631e-05
2.15662e-05
7.02639e-05
7.2137e-05
6.84199e-05
4.70863e-05
6.01582e-05
4.70925e-05
7.20088e-05
6.86099e-05
7.21277e-05
6.84149e-05
4.70964e-05
6.0166e-05
6.8624e-05
7.19583e-05
4.71042e-05
7.00751e-05
2.15665e-05
2.15696e-05
2.15666e-05
6.99312e-05
2.15697e-05
7.24775e-05
4.71066e-05
6.03449e-05
6.92389e-05
4.71014e-05
6.90809e-05
7.25968e-05
7.24098e-05
4.71184e-05
6.03522e-05
6.9264e-05
6.90601e-05
4.71113e-05
7.26037e-05
2.36428e-05
2.36398e-05
3.61842e-05
6.73365e-05
6.94389e-05
4.03248e-05
6.90781e-05
4.0316e-05
3.61874e-05
2.02307e-05
6.76035e-05
4.95327e-05
6.77456e-05
2.02303e-05
3.61838e-05
6.70993e-05
6.86208e-05
4.03127e-05
6.89869e-05
3.61807e-05
4.03175e-05
2.02274e-05
6.79349e-05
4.95389e-05
6.77979e-05
2.02278e-05
3.61813e-05
6.73357e-05
6.94421e-05
4.03241e-05
6.9062e-05
4.03153e-05
3.61846e-05
2.02288e-05
6.7574e-05
4.9527e-05
2.02283e-05
6.774e-05
3.6181e-05
6.70981e-05
6.86036e-05
4.0312e-05
3.61778e-05
6.89897e-05
4.03169e-05
2.02254e-05
6.79304e-05
4.95333e-05
6.7768e-05
2.02259e-05
2.36413e-05
2.36383e-05
2.36402e-05
2.36372e-05
0.000180013
0.000180023
0.000157283
0.000179148
0.000179158
0.000197122
0.000197823
6.88203e-05
8.50967e-05
7.02771e-05
7.02851e-05
0.000176563
0.000176572
0.000153133
0.000175702
0.000175712
0.000194315
0.000195017
7.15088e-05
7.13163e-05
7.1329e-05
8.33563e-05
7.12689e-05
7.13432e-05
7.13193e-05
6.88349e-05
7.0304e-05
7.02829e-05
8.52307e-05
6.86672e-05
7.03562e-05
7.03957e-05
7.06289e-05
8.37451e-05
7.10818e-05
7.11025e-05
7.10166e-05
7.09932e-05
7.08181e-05
6.89248e-05
8.51699e-05
7.04853e-05
7.02769e-05
7.0575e-05
8.38352e-05
7.09919e-05
7.11337e-05
7.10752e-05
7.09331e-05
7.08536e-05
6.88204e-05
7.01905e-05
7.03993e-05
8.53249e-05
7.0283e-05
6.86797e-05
7.05206e-05
7.06401e-05
8.36787e-05
7.11691e-05
7.10234e-05
7.09113e-05
7.10817e-05
7.08237e-05
7.06142e-05
8.39176e-05
7.10607e-05
7.10176e-05
7.0838e-05
7.10389e-05
7.10684e-05
7.14843e-05
7.12821e-05
7.12433e-05
8.3688e-05
7.1288e-05
7.13813e-05
7.15255e-05
7.15485e-05
7.13099e-05
7.1236e-05
8.35746e-05
7.14185e-05
7.1249e-05
7.1406e-05
7.1471e-05
7.12229e-05
7.13338e-05
8.364e-05
7.13136e-05
7.12894e-05
7.13445e-05
0.000180011
0.000180023
0.000157279
0.000179146
0.000179157
0.000197121
0.000197822
0.000180007
0.000180016
0.000157273
0.000179142
0.000179152
0.000197117
0.000197817
0.000180007
0.000180012
0.00015727
0.000179142
0.000179149
0.000197115
0.000197816
0.000156248
0.000177423
0.000177432
0.000178285
0.000178295
0.000196421
0.000195719
0.000156244
0.000177421
0.000177431
0.000178283
0.000178295
0.00019642
0.000195718
0.000156238
0.000177416
0.000177426
0.000178278
0.000178288
0.000196415
0.000195714
0.000156235
0.000177417
0.000177423
0.000178279
0.000178285
0.000196414
0.000195712
7.3001e-05
6.14521e-05
6.32349e-05
7.66904e-05
6.29392e-05
7.69384e-05
7.31111e-05
6.70093e-05
6.3752e-05
6.21648e-05
6.5083e-05
6.50736e-05
6.36255e-05
6.68888e-05
7.30413e-05
6.14577e-05
7.67667e-05
6.31693e-05
7.68568e-05
6.30152e-05
7.30414e-05
6.67366e-05
6.46544e-05
6.29878e-05
6.1765e-05
6.68844e-05
6.46729e-05
6.31148e-05
7.31953e-05
6.10074e-05
7.72637e-05
6.23634e-05
7.32457e-05
7.71536e-05
6.25245e-05
6.70004e-05
6.3752e-05
6.21635e-05
6.50716e-05
6.50446e-05
6.36264e-05
6.68955e-05
6.93256e-05
8.47307e-05
7.04907e-05
7.04755e-05
7.05704e-05
7.05836e-05
6.94912e-05
0.00017656
0.000176573
0.000153129
0.0001757
0.000175711
0.000194314
0.000195016
0.000176555
0.000176565
0.000153123
0.000175695
0.000175705
0.000194309
0.000195011
0.000176557
0.000176563
0.00015312
0.000175696
0.000175703
0.000194308
0.00019501
7.23676e-05
6.39874e-05
6.58553e-05
7.55261e-05
6.56514e-05
7.57573e-05
7.26061e-05
6.74464e-05
6.64627e-05
6.55076e-05
6.3862e-05
6.75616e-05
6.64614e-05
6.56574e-05
7.26987e-05
6.34967e-05
6.49533e-05
7.59961e-05
7.25461e-05
6.52188e-05
7.58031e-05
6.78175e-05
6.6332e-05
6.42483e-05
6.69203e-05
6.69446e-05
6.61138e-05
6.76317e-05
7.23901e-05
6.39889e-05
7.58802e-05
6.58708e-05
7.56021e-05
6.56937e-05
7.25819e-05
6.77337e-05
6.64538e-05
6.55238e-05
6.38737e-05
6.73417e-05
6.65065e-05
6.56466e-05
7.26144e-05
6.34999e-05
7.59115e-05
6.50136e-05
7.26068e-05
7.5909e-05
6.51912e-05
6.76076e-05
6.63189e-05
6.42309e-05
6.69363e-05
6.69269e-05
6.6131e-05
6.78207e-05
7.1935e-05
8.32036e-05
7.16578e-05
7.16549e-05
7.16266e-05
7.16274e-05
7.21566e-05
6.93094e-05
8.46696e-05
7.05865e-05
7.05878e-05
6.94927e-05
7.05149e-05
7.0493e-05
7.01546e-05
8.43536e-05
7.07267e-05
7.07147e-05
6.99767e-05
7.0802e-05
7.08144e-05
7.29247e-05
6.13934e-05
6.32533e-05
7.69086e-05
6.29549e-05
7.67337e-05
7.32613e-05
6.68877e-05
6.46594e-05
6.29966e-05
6.17647e-05
6.31279e-05
6.6848e-05
6.46467e-05
7.34623e-05
6.1079e-05
6.23185e-05
7.71486e-05
6.25878e-05
7.31516e-05
7.72895e-05
6.69387e-05
6.37613e-05
6.21614e-05
6.5076e-05
6.36204e-05
6.50567e-05
6.71172e-05
7.31671e-05
6.1418e-05
6.3195e-05
7.69068e-05
6.30002e-05
7.67405e-05
7.29802e-05
6.67714e-05
6.46192e-05
6.29791e-05
6.17633e-05
6.68822e-05
6.31201e-05
6.46744e-05
7.32199e-05
6.10466e-05
6.23398e-05
7.7155e-05
7.33121e-05
6.25478e-05
7.72852e-05
6.7002e-05
6.37554e-05
6.21559e-05
6.51265e-05
6.36164e-05
6.69117e-05
6.50231e-05
7.30644e-05
6.3616e-05
7.64006e-05
6.22762e-05
7.27449e-05
6.38966e-05
7.65746e-05
6.7181e-05
6.6007e-05
6.32229e-05
6.50379e-05
6.59849e-05
6.48779e-05
6.74726e-05
6.73051e-05
6.4262e-05
6.55182e-05
6.28415e-05
6.55549e-05
6.70121e-05
6.44159e-05
7.25971e-05
6.26365e-05
6.45767e-05
7.62795e-05
6.4288e-05
7.60757e-05
7.29126e-05
7.2794e-05
6.36481e-05
7.64051e-05
6.22517e-05
7.30221e-05
6.38592e-05
7.65666e-05
6.73581e-05
6.60355e-05
6.32183e-05
6.50248e-05
6.48911e-05
6.59374e-05
6.72609e-05
6.70619e-05
6.42397e-05
6.54628e-05
6.28364e-05
6.71567e-05
6.43927e-05
6.55921e-05
7.28785e-05
6.26608e-05
6.45268e-05
7.62758e-05
6.43153e-05
7.60909e-05
7.26736e-05
6.92403e-05
8.46866e-05
7.04655e-05
7.06765e-05
7.04255e-05
7.05872e-05
6.95515e-05
7.0233e-05
8.4278e-05
7.07966e-05
7.06698e-05
7.07629e-05
6.99101e-05
7.08671e-05
7.32287e-05
6.14406e-05
6.31707e-05
7.66697e-05
6.30215e-05
7.6931e-05
7.29301e-05
6.67482e-05
6.46236e-05
6.29846e-05
6.17687e-05
6.3119e-05
6.69022e-05
6.47085e-05
7.32052e-05
6.10237e-05
6.23711e-05
7.73195e-05
6.25243e-05
7.33282e-05
7.70641e-05
6.70188e-05
6.37553e-05
6.21592e-05
6.51055e-05
6.36312e-05
6.50078e-05
6.68996e-05
7.2918e-05
6.14215e-05
7.66827e-05
6.3228e-05
7.69367e-05
6.29702e-05
7.32545e-05
6.67443e-05
6.46132e-05
6.29839e-05
6.17589e-05
6.68763e-05
6.31096e-05
6.46785e-05
7.34537e-05
6.10368e-05
7.73099e-05
6.23419e-05
7.31497e-05
7.70791e-05
6.2553e-05
6.69917e-05
6.37422e-05
6.21549e-05
6.51126e-05
6.36072e-05
6.69077e-05
6.50406e-05
7.27619e-05
6.36763e-05
7.65804e-05
6.22256e-05
7.30113e-05
6.3831e-05
7.63394e-05
6.73788e-05
6.6044e-05
6.32237e-05
6.50234e-05
6.59077e-05
6.49128e-05
6.72573e-05
6.70408e-05
6.42533e-05
6.54749e-05
6.28391e-05
6.56289e-05
6.71785e-05
6.43938e-05
7.28886e-05
6.26747e-05
6.45121e-05
7.60323e-05
6.4343e-05
7.62853e-05
7.26633e-05
7.30654e-05
7.6584e-05
6.36235e-05
6.2241e-05
7.27389e-05
7.63475e-05
6.38727e-05
6.71958e-05
6.60236e-05
6.32215e-05
6.50063e-05
6.48829e-05
6.59704e-05
6.74846e-05
6.725e-05
6.42482e-05
6.5475e-05
6.28298e-05
6.71097e-05
6.43902e-05
6.55368e-05
7.2586e-05
6.26609e-05
7.60353e-05
6.45361e-05
7.62807e-05
6.42982e-05
7.29091e-05
7.31764e-05
6.1389e-05
7.67009e-05
6.31817e-05
7.69534e-05
6.30108e-05
7.29664e-05
6.70169e-05
6.37428e-05
6.21598e-05
6.51735e-05
6.49902e-05
6.36304e-05
6.68902e-05
7.29251e-05
6.3602e-05
7.6578e-05
6.22058e-05
7.28104e-05
6.38923e-05
7.63715e-05
6.73537e-05
6.59868e-05
6.32228e-05
6.50139e-05
6.72647e-05
6.59829e-05
6.48917e-05
6.70333e-05
6.42393e-05
6.55059e-05
6.28361e-05
6.71485e-05
6.55661e-05
6.43948e-05
7.26807e-05
6.26802e-05
6.45546e-05
7.60511e-05
7.27822e-05
6.42744e-05
7.62666e-05
7.27335e-05
7.65742e-05
6.36533e-05
6.22737e-05
7.29818e-05
7.63668e-05
6.3837e-05
6.73587e-05
6.60904e-05
6.31988e-05
6.50141e-05
6.48848e-05
6.5891e-05
6.72442e-05
6.70084e-05
6.4237e-05
6.54223e-05
6.28414e-05
6.7145e-05
6.43901e-05
6.55996e-05
7.28694e-05
6.26268e-05
7.60656e-05
6.45061e-05
7.62773e-05
6.43297e-05
7.26545e-05
6.93291e-05
8.45671e-05
7.06694e-05
7.05055e-05
7.05695e-05
7.04207e-05
6.9493e-05
7.0148e-05
8.4413e-05
7.06397e-05
7.0797e-05
7.08667e-05
6.9976e-05
7.07587e-05
7.30115e-05
6.14345e-05
7.67745e-05
6.32425e-05
7.68611e-05
6.29409e-05
7.31564e-05
6.68907e-05
6.46493e-05
6.29493e-05
6.17675e-05
6.46937e-05
6.67986e-05
6.31723e-05
7.34124e-05
6.10299e-05
7.72603e-05
6.23031e-05
7.7159e-05
7.3163e-05
6.25907e-05
6.69287e-05
6.37953e-05
6.21545e-05
6.5122e-05
6.50377e-05
6.35702e-05
6.7028e-05
7.28564e-05
7.6507e-05
6.36663e-05
6.22102e-05
7.28685e-05
7.64427e-05
6.38411e-05
6.72247e-05
6.6011e-05
6.32258e-05
6.50085e-05
6.74853e-05
6.59607e-05
6.49024e-05
6.72541e-05
6.42456e-05
6.55117e-05
6.28426e-05
6.71191e-05
6.55771e-05
6.4401e-05
7.27247e-05
6.26842e-05
7.61428e-05
6.44982e-05
7.27367e-05
7.61923e-05
6.43315e-05
7.29427e-05
7.65142e-05
6.36088e-05
6.22518e-05
7.29423e-05
7.64475e-05
6.38966e-05
6.7286e-05
6.6042e-05
6.32202e-05
6.50611e-05
6.4834e-05
6.59512e-05
6.73768e-05
6.71817e-05
6.421e-05
6.54905e-05
6.28349e-05
6.70892e-05
6.44357e-05
6.55813e-05
7.27826e-05
6.26537e-05
7.61471e-05
6.45705e-05
7.62002e-05
6.42757e-05
7.27956e-05
7.0193e-05
8.42107e-05
7.07744e-05
7.07864e-05
6.99612e-05
7.07864e-05
7.077e-05
7.19656e-05
8.2991e-05
7.16742e-05
7.18457e-05
7.20583e-05
7.15981e-05
7.15032e-05
7.23009e-05
6.39221e-05
6.58999e-05
7.58107e-05
6.56665e-05
7.55426e-05
7.28308e-05
6.75671e-05
6.64491e-05
6.55083e-05
6.39128e-05
6.56759e-05
6.74391e-05
6.64733e-05
7.28599e-05
6.35695e-05
6.49655e-05
7.58162e-05
6.52291e-05
7.25067e-05
7.59822e-05
6.77068e-05
6.62738e-05
6.42193e-05
6.69456e-05
6.61389e-05
6.69509e-05
6.78116e-05
7.25748e-05
6.39739e-05
6.5936e-05
7.57949e-05
6.56489e-05
7.55604e-05
7.2454e-05
6.74799e-05
6.64095e-05
6.54932e-05
6.39179e-05
6.75457e-05
6.56889e-05
6.6482e-05
7.25565e-05
6.35307e-05
6.49869e-05
7.5824e-05
7.27569e-05
6.52408e-05
7.59765e-05
6.78259e-05
6.63172e-05
6.42114e-05
6.68906e-05
6.61173e-05
6.7649e-05
6.69458e-05
7.19085e-05
8.30405e-05
7.16583e-05
7.17354e-05
7.15527e-05
7.15973e-05
7.21423e-05
7.25254e-05
6.39931e-05
6.58825e-05
7.57282e-05
6.57028e-05
7.57315e-05
7.26064e-05
6.75621e-05
6.63839e-05
6.55143e-05
6.39146e-05
6.56415e-05
6.75284e-05
6.66473e-05
7.25605e-05
6.35152e-05
6.50092e-05
7.59765e-05
6.52006e-05
7.27545e-05
7.58521e-05
6.77468e-05
6.62619e-05
6.42175e-05
6.7108e-05
6.61566e-05
6.68289e-05
6.78232e-05
7.22911e-05
6.39885e-05
7.57291e-05
6.5859e-05
7.57358e-05
6.56936e-05
7.28287e-05
6.77374e-05
6.64083e-05
6.5509e-05
6.38686e-05
6.73511e-05
6.56566e-05
6.64984e-05
7.28601e-05
6.3511e-05
7.59818e-05
6.49779e-05
7.24979e-05
7.58494e-05
6.51865e-05
6.75351e-05
6.63182e-05
6.4237e-05
6.70872e-05
6.61147e-05
6.80661e-05
6.68948e-05
7.25708e-05
6.39329e-05
7.57741e-05
6.58512e-05
7.57114e-05
6.57095e-05
7.24423e-05
6.74557e-05
6.63591e-05
6.54974e-05
6.39062e-05
6.65526e-05
6.75406e-05
6.56877e-05
7.25478e-05
6.35484e-05
7.59736e-05
6.50022e-05
7.58879e-05
7.27567e-05
6.51774e-05
6.77656e-05
6.63342e-05
6.42032e-05
6.70914e-05
6.68579e-05
6.61026e-05
6.79158e-05
7.19701e-05
8.29771e-05
7.16464e-05
7.16049e-05
7.16658e-05
7.16143e-05
7.21129e-05
7.24692e-05
6.39541e-05
7.5657e-05
6.5921e-05
7.56806e-05
6.56448e-05
7.26489e-05
6.75666e-05
6.64197e-05
6.54794e-05
6.38747e-05
6.65307e-05
6.74935e-05
6.56813e-05
7.26783e-05
6.35376e-05
7.59195e-05
6.49566e-05
7.58905e-05
7.2674e-05
6.52328e-05
6.77374e-05
6.62717e-05
6.42437e-05
6.70256e-05
6.69104e-05
6.61212e-05
6.78306e-05
0.000233969
0.00023354
0.000233543
0.000233422
0.000232521
0.000227485
0.000227494
0.000223669
0.000230467
0.000220032
0.00022003
0.000208833
0.000227723
0.000211403
0.000211395
0.000193561
0.00022434
0.000202416
0.000202407
0.000179512
0.00022045
0.000193568
0.000193557
0.00016719
0.000216198
0.0001851
0.000185088
0.000156464
0.000211716
0.000177086
0.000177072
0.00014712
0.000207106
0.000169563
0.000169548
0.000138887
0.000202448
0.000162502
0.000162487
0.000131595
0.000197798
0.000155848
0.000155836
0.00012498
0.000193189
0.000149551
0.00014954
0.00011884
0.000188602
0.000143568
0.00014356
0.000113136
0.000184073
0.000137848
0.000137841
0.000107902
0.000179631
0.000132348
0.000132343
0.000102978
0.000175264
0.000127061
0.000127056
9.83409e-05
0.000170961
0.000122004
0.000122001
9.41151e-05
0.000166708
0.000117208
0.000117205
9.05103e-05
0.000162505
0.000112703
0.000112698
8.75762e-05
0.000108547
8.52438e-05
0.000234259
0.000234466
0.000234468
0.000234258
0.000234466
0.000234467
0.000234259
0.00023426
0.00023426
0.000234261
0.000234467
0.00023447
0.000234252
0.000234466
0.000234471
0.000234251
0.000233429
0.000226072
0.00023354
0.00023354