/*--------------------------------*- C++ -*----------------------------------*\
| =========                 |                                                 |
| \\      /  F ield         | OpenFOAM: The Open Source CFD Toolbox           |
|  \\    /   O peration     | Version:  2312                                  |
|   \\  /    A nd           | Website:  www.openfoam.com                      |
|    \\/     M anipulation  |                                                 |
\*---------------------------------------------------------------------------*/
FoamFile
{
    version     2.0;
    format      ascii;
    arch        "LSB;label=32;scalar=64";
    class       volVectorField;
    location    "650";
    object      U;
}
// * * * * * * * * * * * * * * * * * * * * * * * * * * * * * * * * * * * * * //

dimensions      [0 1 -1 0 0 0 0];

internalField   nonuniform List<vector> 
43008
(
(6.35007e-05 6.35136e-05 0.108289)
(5.91376e-05 -9.55652e-05 0.107557)
(6.22934e-05 6.22693e-05 0.108604)
(-9.36429e-05 5.81557e-05 0.107771)
(5.81066e-05 -9.37241e-05 0.107771)
(-0.000149527 -0.000149582 0.106584)
(0.000152375 0.000152401 0.106508)
(1.26226e-05 1.26933e-05 0.106725)
(5.93234e-05 9.55007e-05 0.107557)
(-5.93875e-05 9.56456e-05 0.107556)
(5.86031e-05 9.41745e-05 0.107718)
(-5.85955e-05 9.42653e-05 0.107718)
(-1.25681e-05 1.26746e-05 0.106725)
(9.55504e-05 5.92452e-05 0.107557)
(9.55361e-05 -5.9372e-05 0.107556)
(9.42067e-05 5.84985e-05 0.107719)
(9.41363e-05 -5.85867e-05 0.107718)
(-9.41065e-05 5.84332e-05 0.107719)
(-9.40283e-05 -5.85404e-05 0.107718)
(0.000152373 -0.000152459 0.106508)
(1.25734e-05 -1.25818e-05 0.106725)
(-5.91832e-05 -9.55515e-05 0.107557)
(5.83671e-05 -9.41714e-05 0.107719)
(-5.8401e-05 -9.41764e-05 0.107719)
(-1.26271e-05 -1.25877e-05 0.106724)
(0.000149578 0.000149544 0.106584)
(5.83533e-05 9.37275e-05 0.10777)
(-5.83234e-05 9.37931e-05 0.10777)
(-0.000149511 0.000149538 0.106584)
(9.37573e-05 5.82311e-05 0.107771)
(9.3685e-05 -5.83168e-05 0.10777)
(-9.35641e-05 -5.82665e-05 0.10777)
(0.000149518 -0.0001496 0.106584)
(-5.8137e-05 -9.37275e-05 0.10777)
(2.13867e-06 2.0847e-05 0.0947507)
(-2.81058e-06 3.82823e-05 0.0840943)
(2.84887e-06 7.04731e-05 0.0947941)
(-5.17464e-06 -1.25065e-06 0.0840815)
(5.96152e-06 -4.83453e-06 0.0725368)
(2.08179e-05 2.12127e-06 0.0947512)
(3.83236e-05 -2.83489e-06 0.0840946)
(7.04526e-05 2.86077e-06 0.0947944)
(-1.26986e-06 -5.40438e-06 0.0840818)
(-6.35096e-05 6.35025e-05 0.108289)
(6.34682e-05 -6.35459e-05 0.108289)
(-6.34934e-05 -6.35406e-05 0.108289)
(6.25971e-05 6.25784e-05 0.108526)
(-6.25615e-05 6.25626e-05 0.108526)
(6.25343e-05 -6.26099e-05 0.108526)
(-6.25481e-05 -6.26082e-05 0.108526)
(-6.21345e-05 6.37459e-06 0.103006)
(-9.50391e-05 5.89667e-05 0.107612)
(-3.02809e-05 2.16132e-06 0.0963717)
(-0.00010428 2.11067e-05 0.108126)
(1.63678e-05 -3.46576e-06 0.072507)
(-4.75916e-06 5.94314e-06 0.0725361)
(6.26938e-06 -6.21427e-05 0.103006)
(2.1262e-05 -0.000104798 0.108055)
(3.08565e-05 -7.5363e-05 0.0963606)
(5.88753e-05 -9.50933e-05 0.107612)
(7.58449e-06 -0.000126273 0.102969)
(2.11252e-05 -0.000104393 0.108127)
(2.12953e-06 -3.0255e-05 0.09637)
(-1.413e-05 -1.40518e-05 0.106681)
(-1.56124e-05 1.99383e-06 0.0899647)
(2.05732e-06 -1.56378e-05 0.0899617)
(1.66454e-06 1.52932e-05 0.0943848)
(-1.83964e-06 3.51841e-05 0.0838208)
(2.39173e-06 6.36205e-05 0.094419)
(-4.52405e-06 -3.34041e-06 0.0838167)
(-3.41035e-06 1.5631e-05 0.0723247)
(5.68036e-06 -5.16071e-06 0.0723586)
(1.52655e-05 1.63373e-06 0.0943852)
(3.52345e-05 -2.01403e-06 0.0838212)
(6.36341e-05 2.34488e-06 0.0944193)
(-3.2879e-06 -4.58197e-06 0.0838169)
(-6.22532e-05 6.22543e-05 0.108604)
(6.22306e-05 -6.22996e-05 0.108604)
(-6.22429e-05 -6.23007e-05 0.108604)
(-5.53589e-05 5.20207e-06 0.102756)
(-6.98009e-05 2.8391e-05 0.0960258)
(-0.000103114 2.06608e-05 0.108337)
(-9.31659e-05 5.78897e-05 0.107821)
(-0.000118533 6.52217e-06 0.102725)
(-2.55671e-05 7.27715e-07 0.0960421)
(-0.000102734 2.0521e-05 0.108405)
(1.55706e-05 -3.49139e-06 0.072325)
(-5.17011e-06 5.76469e-06 0.0723582)
(5.10945e-06 -5.54164e-05 0.102755)
(2.06929e-05 -0.000103249 0.108337)
(2.83962e-05 -6.98917e-05 0.0960271)
(5.7822e-05 -9.32404e-05 0.107821)
(6.6228e-06 -0.000118652 0.102725)
(2.0551e-05 -0.000102844 0.108405)
(7.24448e-07 -2.5533e-05 0.0960402)
(-3.431e-05 -1.83012e-05 0.089668)
(-1.82605e-05 -3.43066e-05 0.0896672)
(-1.12199e-05 -1.11851e-05 0.106761)
(-1.30887e-05 2.64368e-06 0.0896667)
(2.61977e-06 -1.30432e-05 0.0896636)
(3.4353e-06 1.6292e-05 0.072507)
(-6.03436e-06 -4.8238e-06 0.0725364)
(1.63141e-05 3.31346e-06 0.0725055)
(-4.9493e-06 -6.27878e-06 0.0725355)
(1.95498e-05 3.69105e-05 0.0899755)
(3.69358e-05 1.93631e-05 0.0899725)
(1.40418e-05 1.41423e-05 0.106682)
(-2.0539e-06 1.56111e-05 0.0899658)
(1.54286e-05 -2.16963e-06 0.0899632)
(-5.55404e-06 -5.00904e-06 0.0724452)
(3.53939e-06 1.60017e-05 0.0724136)
(-4.98384e-06 -5.92504e-06 0.0724446)
(1.59125e-05 3.29639e-06 0.072412)
(0.000151028 0.000151034 0.10655)
(-2.22795e-06 1.43063e-05 0.0898131)
(1.42903e-05 -2.41954e-06 0.0898107)
(1.89029e-05 3.56741e-05 0.0898188)
(3.55753e-05 1.87531e-05 0.0898156)
(-2.13729e-06 2.08486e-05 0.0947506)
(2.80522e-06 3.8248e-05 0.084094)
(-2.89128e-06 7.04626e-05 0.0947941)
(5.14482e-06 -1.23386e-06 0.0840813)
(6.37041e-06 6.20705e-05 0.103005)
(3.08795e-05 7.53739e-05 0.0963595)
(2.12846e-05 0.000104713 0.108055)
(5.90827e-05 9.50677e-05 0.107612)
(7.51743e-06 0.000126272 0.102968)
(2.13207e-06 3.0307e-05 0.0963697)
(2.11517e-05 0.000104313 0.108126)
(-6.34545e-06 6.20727e-05 0.103005)
(-3.08541e-05 7.5333e-05 0.0963585)
(-2.12707e-05 0.00010474 0.108055)
(-5.91429e-05 9.51912e-05 0.107611)
(-7.57298e-06 0.000126263 0.102968)
(-2.19073e-06 3.02846e-05 0.0963684)
(-2.11352e-05 0.000104336 0.108126)
(2.59889e-06 6.69225e-05 0.0946024)
(-4.62403e-06 -2.46103e-06 0.0839455)
(-2.21351e-06 3.66679e-05 0.083954)
(1.88103e-06 1.79215e-05 0.0945635)
(-2.62975e-06 6.69147e-05 0.0946024)
(4.65861e-06 -2.30823e-06 0.0839452)
(2.28852e-06 3.6694e-05 0.0839539)
(-1.88463e-06 1.79395e-05 0.0945634)
(7.07328e-06 0.000122443 0.102849)
(5.88568e-05 9.46385e-05 0.107666)
(1.51494e-06 2.77599e-05 0.0962021)
(2.0877e-05 0.00010355 0.108267)
(2.96962e-05 7.25787e-05 0.0961902)
(2.10161e-05 0.000103937 0.108197)
(5.77244e-06 5.86455e-05 0.102882)
(-7.09571e-06 0.000122453 0.102849)
(-5.88639e-05 9.47278e-05 0.107665)
(-1.45339e-06 2.79321e-05 0.0962006)
(-2.08464e-05 0.000103565 0.108267)
(-2.96387e-05 7.25971e-05 0.0961894)
(-2.09887e-05 0.000103951 0.108197)
(-5.73163e-06 5.86481e-05 0.102882)
(-1.40541e-05 1.41438e-05 0.106681)
(2.01031e-06 1.56263e-05 0.0899636)
(-1.56661e-05 -2.06871e-06 0.0899674)
(4.75971e-06 -5.93012e-06 0.0725389)
(5.75212e-06 -4.80495e-06 0.0724456)
(-3.43749e-06 1.59487e-05 0.0724134)
(-0.00015102 0.000151039 0.10655)
(2.43749e-06 1.45039e-05 0.0898109)
(-1.43152e-05 -2.40111e-06 0.0898149)
(-1.88193e-05 3.56445e-05 0.0898158)
(-3.55775e-05 1.88463e-05 0.0898173)
(5.0216e-06 -5.83347e-06 0.0724482)
(-1.59495e-05 3.44031e-06 0.072411)
(6.2057e-05 6.37589e-06 0.103006)
(7.53273e-05 3.08616e-05 0.0963594)
(0.00010471 2.12707e-05 0.108055)
(9.50962e-05 5.8995e-05 0.107612)
(0.000126224 7.56627e-06 0.102968)
(3.01708e-05 2.01172e-06 0.0963691)
(0.000104301 2.11276e-05 0.108126)
(2.08142e-05 -2.13153e-06 0.0947511)
(3.8309e-05 2.70982e-06 0.0840946)
(7.04439e-05 -2.85642e-06 0.0947944)
(-1.17437e-06 5.19255e-06 0.0840815)
(6.20529e-05 -6.32593e-06 0.103006)
(0.000104718 -2.12955e-05 0.108055)
(7.53213e-05 -3.09334e-05 0.0963594)
(9.50569e-05 -5.91172e-05 0.107611)
(0.000126203 -7.54781e-06 0.102968)
(0.0001043 -2.11619e-05 0.108126)
(3.02929e-05 -2.08255e-06 0.0963681)
(6.69144e-05 2.58013e-06 0.0946027)
(-2.32693e-06 -4.87085e-06 0.0839459)
(3.66785e-05 -2.39535e-06 0.0839541)
(1.79256e-05 1.87195e-06 0.094564)
(0.000122421 7.08636e-06 0.102849)
(9.46616e-05 5.87529e-05 0.107666)
(2.78012e-05 1.37671e-06 0.0962016)
(0.000103548 2.085e-05 0.108267)
(7.25678e-05 2.96059e-05 0.0961898)
(0.000103929 2.09875e-05 0.108197)
(5.86716e-05 5.75616e-06 0.102883)
(6.69042e-05 -2.6198e-06 0.0946027)
(-2.26883e-06 4.87709e-06 0.0839457)
(3.66949e-05 2.32621e-06 0.0839543)
(1.79256e-05 -1.86417e-06 0.094564)
(0.000122413 -7.09248e-06 0.102849)
(9.45981e-05 -5.88624e-05 0.107665)
(0.000103528 -2.0875e-05 0.108267)
(2.78605e-05 -1.32555e-06 0.0962005)
(0.00010391 -2.10179e-05 0.108197)
(7.25498e-05 -2.96341e-05 0.0961901)
(5.86649e-05 -5.71842e-06 0.102883)
(-2.08944e-05 2.19689e-06 0.094752)
(1.21705e-06 -5.1656e-06 0.0840834)
(-6.20846e-05 -6.37651e-06 0.103006)
(-9.49859e-05 -5.90616e-05 0.107612)
(-0.000104253 -2.11889e-05 0.108126)
(-3.02992e-05 -2.18682e-06 0.0963694)
(-2.08638e-05 -2.11953e-06 0.0947506)
(1.24068e-06 5.13067e-06 0.0840812)
(-0.000122373 6.9884e-06 0.102849)
(-9.4578e-05 5.86998e-05 0.107666)
(-2.78496e-05 1.41693e-06 0.0962043)
(-0.00010349 2.08069e-05 0.108267)
(-7.24461e-05 2.95878e-05 0.0961898)
(-0.000103881 2.09556e-05 0.108197)
(-5.87175e-05 5.78337e-06 0.102883)
(-6.6867e-05 2.51475e-06 0.0946011)
(2.34387e-06 -4.86099e-06 0.0839476)
(-3.66422e-05 -2.28626e-06 0.0839529)
(-1.80044e-05 1.93567e-06 0.0945648)
(-0.000122387 -7.16516e-06 0.10285)
(-9.45117e-05 -5.88162e-05 0.107665)
(-0.000103475 -2.0907e-05 0.108267)
(-2.79413e-05 -1.44896e-06 0.0962018)
(-0.000103857 -2.10491e-05 0.108197)
(-7.24599e-05 -2.96878e-05 0.0961895)
(-5.86574e-05 -5.75336e-06 0.102883)
(-6.68966e-05 -2.69501e-06 0.094602)
(2.34143e-06 4.82064e-06 0.0839452)
(-3.66971e-05 2.27851e-06 0.0839535)
(-1.79791e-05 -1.84594e-06 0.0945635)
(3.694e-05 -1.94861e-05 0.0899734)
(1.9411e-05 -3.69767e-05 0.0899751)
(1.40532e-05 -1.40743e-05 0.106681)
(1.56353e-05 2.01318e-06 0.0899619)
(-2.01843e-06 -1.56564e-05 0.0899655)
(3.38734e-06 -1.64149e-05 0.0725068)
(-5.95909e-06 4.77676e-06 0.0725366)
(-4.97875e-06 5.85019e-06 0.0724451)
(1.59599e-05 -3.48365e-06 0.0724138)
(0.000150998 -0.000151092 0.10655)
(1.43179e-05 2.34301e-06 0.0898094)
(-2.30645e-06 -1.43137e-05 0.089813)
(3.55896e-05 -1.88506e-05 0.0898168)
(1.88121e-05 -3.55836e-05 0.0898183)
(-5.82415e-06 5.0132e-06 0.0724455)
(3.44741e-06 -1.5995e-05 0.0724136)
(-6.39987e-06 -6.21317e-05 0.103006)
(-2.12658e-05 -0.000104739 0.108055)
(-3.09236e-05 -7.53703e-05 0.0963591)
(-5.89087e-05 -9.50948e-05 0.107612)
(-7.54283e-06 -0.000126234 0.102968)
(-2.11197e-05 -0.000104321 0.108126)
(-2.12226e-06 -3.02144e-05 0.0963681)
(2.07732e-06 -2.09236e-05 0.0947511)
(-2.75976e-06 -3.83388e-05 0.0840951)
(2.85801e-06 -7.0478e-05 0.0947941)
(-5.17144e-06 1.21402e-06 0.084082)
(-2.17387e-06 -2.08788e-05 0.0947512)
(2.71023e-06 -3.83011e-05 0.0840945)
(-2.89325e-06 -7.04535e-05 0.0947931)
(5.16546e-06 1.21842e-06 0.0840812)
(7.08685e-06 -0.000122469 0.10285)
(5.86292e-05 -9.46409e-05 0.107666)
(2.08391e-05 -0.000103603 0.108267)
(1.39098e-06 -2.78109e-05 0.0962024)
(2.09827e-05 -0.000104012 0.108197)
(2.95864e-05 -7.25645e-05 0.0961911)
(5.69529e-06 -5.87716e-05 0.102882)
(-7.07949e-06 -0.000122407 0.102848)
(-5.8667e-05 -9.46383e-05 0.107666)
(-2.08438e-05 -0.000103554 0.108267)
(-1.37967e-06 -2.77528e-05 0.0962004)
(-2.09787e-05 -0.000103958 0.108197)
(-2.96473e-05 -7.25541e-05 0.0961899)
(-5.78184e-06 -5.87493e-05 0.102883)
(2.61128e-06 -6.6939e-05 0.0946023)
(-4.82712e-06 2.31856e-06 0.083946)
(-2.34401e-06 -3.67034e-05 0.0839548)
(1.81662e-06 -1.80313e-05 0.0945639)
(-2.64005e-06 -6.69216e-05 0.0946013)
(4.83604e-06 2.3112e-06 0.0839452)
(2.31358e-06 -3.66629e-05 0.0839541)
(-1.91409e-06 -1.79899e-05 0.094564)
(4.79417e-06 5.904e-06 0.0725363)
(5.97451e-06 4.75723e-06 0.0725355)
(-0.000151044 -0.000151078 0.10655)
(-1.4303e-05 2.3331e-06 0.0898121)
(2.35645e-06 -1.42833e-05 0.089809)
(-3.55973e-05 -1.89083e-05 0.0898173)
(-1.88273e-05 -3.56131e-05 0.0898163)
(5.01641e-06 5.81815e-06 0.0724452)
(-1.59735e-05 -3.49463e-06 0.072413)
(5.85022e-06 4.98345e-06 0.0724444)
(-3.46718e-06 -1.59578e-05 0.0724132)
(3.65178e-06 1.56365e-05 0.0723246)
(-5.66802e-06 -5.2402e-06 0.0723585)
(1.55928e-05 3.42171e-06 0.0723234)
(-5.20875e-06 -5.77218e-06 0.0723577)
(1.83597e-05 3.44172e-05 0.0896698)
(3.43211e-05 1.82344e-05 0.0896665)
(1.11943e-05 1.12655e-05 0.106762)
(-2.50862e-06 1.30202e-05 0.0896675)
(1.30545e-05 -2.62059e-06 0.0896653)
(-1.62533e-06 1.52947e-05 0.0943847)
(2.00251e-06 3.52641e-05 0.083821)
(-2.38395e-06 6.36335e-05 0.094419)
(4.51801e-06 -3.29216e-06 0.0838163)
(5.19169e-06 5.53011e-05 0.102755)
(2.85376e-05 6.99077e-05 0.0960261)
(2.07353e-05 0.000103187 0.108337)
(5.80817e-05 9.32614e-05 0.107821)
(6.62942e-06 0.000118615 0.102725)
(7.82783e-07 2.55114e-05 0.0960399)
(2.05954e-05 0.000102805 0.108405)
(-5.12457e-06 5.53011e-05 0.102755)
(-2.83912e-05 6.99225e-05 0.0960256)
(-2.0698e-05 0.000103192 0.108337)
(-5.80488e-05 9.33047e-05 0.107821)
(-6.6091e-06 0.000118629 0.102725)
(-7.34981e-07 2.55808e-05 0.0960384)
(-2.05555e-05 0.000102811 0.108405)
(-1.80703e-05 3.43351e-05 0.0896668)
(-3.42729e-05 1.82452e-05 0.0896682)
(-1.11332e-05 1.12231e-05 0.106762)
(2.54176e-06 1.31128e-05 0.0896656)
(-1.30788e-05 -2.68088e-06 0.0896695)
(-1.55205e-05 3.44429e-06 0.0723222)
(5.24429e-06 -5.73664e-06 0.0723613)
(5.53343e-05 5.15204e-06 0.102755)
(6.98998e-05 2.84236e-05 0.0960257)
(0.000103179 2.07073e-05 0.108337)
(9.32867e-05 5.79552e-05 0.107821)
(0.000118622 6.61017e-06 0.102725)
(2.55025e-05 7.06347e-07 0.0960393)
(0.000102793 2.05617e-05 0.108405)
(1.52627e-05 -1.62858e-06 0.0943852)
(3.52404e-05 2.01052e-06 0.0838214)
(6.36237e-05 -2.36919e-06 0.0944193)
(-3.22765e-06 4.62672e-06 0.0838168)
(5.53323e-05 -5.12835e-06 0.102755)
(0.000103154 -2.07276e-05 0.108337)
(6.99122e-05 -2.84324e-05 0.0960261)
(9.32092e-05 -5.80226e-05 0.107821)
(0.000118619 -6.6127e-06 0.102725)
(0.000102775 -2.05833e-05 0.108405)
(2.55681e-05 -6.22616e-07 0.0960384)
(-1.53438e-05 1.70301e-06 0.0943861)
(-3.51693e-05 -1.97573e-06 0.0838199)
(-6.35952e-05 2.26971e-06 0.0944178)
(3.32121e-06 -4.60182e-06 0.0838187)
(-5.53024e-05 -5.15835e-06 0.102755)
(-0.000103098 -2.07578e-05 0.108337)
(-6.98617e-05 -2.84893e-05 0.0960253)
(-9.30826e-05 -5.79795e-05 0.107821)
(-0.000118557 -6.66478e-06 0.102725)
(-0.000102723 -2.06152e-05 0.108405)
(-2.56555e-05 -7.2588e-07 0.0960396)
(-1.53333e-05 -1.59763e-06 0.0943848)
(-3.52481e-05 1.9791e-06 0.0838205)
(-6.36112e-05 -2.43805e-06 0.0944187)
(3.30014e-06 4.58703e-06 0.0838163)
(3.43077e-05 -1.82555e-05 0.0896678)
(1.82624e-05 -3.42797e-05 0.0896692)
(1.11554e-05 -1.11396e-05 0.106761)
(1.30995e-05 2.63469e-06 0.089664)
(-2.57297e-06 -1.30717e-05 0.0896676)
(3.48886e-06 -1.55872e-05 0.0723247)
(-5.71196e-06 5.22436e-06 0.0723587)
(-5.19386e-06 -5.53953e-05 0.102755)
(-2.06986e-05 -0.000103207 0.108336)
(-2.84533e-05 -6.98925e-05 0.0960258)
(-5.78567e-05 -9.32522e-05 0.107821)
(-6.60721e-06 -0.000118597 0.102724)
(-2.0558e-05 -0.000102799 0.108405)
(-6.97199e-07 -2.54481e-05 0.0960382)
(1.5733e-06 -1.53787e-05 0.0943851)
(-1.99618e-06 -3.52449e-05 0.0838218)
(2.36642e-06 -6.36341e-05 0.0944187)
(-4.55297e-06 3.29939e-06 0.0838171)
(-1.67405e-06 -1.53323e-05 0.0943852)
(1.97832e-06 -3.52089e-05 0.083821)
(-2.39951e-06 -6.3617e-05 0.0944178)
(4.57354e-06 3.26831e-06 0.0838162)
(-1.55853e-05 -3.50406e-06 0.0723241)
(5.20001e-06 5.73737e-06 0.0723582)
(-3.50318e-06 -1.55641e-05 0.0723243)
(5.74631e-06 5.18042e-06 0.0723575)
(-1.09334e-06 1.33307e-05 0.0780381)
(2.70874e-06 6.86635e-05 0.0946972)
(2.6893e-07 -1.02756e-05 0.079912)
(4.22921e-06 1.39222e-05 0.0928157)
(1.29943e-07 8.3896e-06 0.0798524)
(6.45052e-06 5.91563e-05 0.0927532)
(2.13894e-07 -6.16365e-06 0.0781086)
(2.35475e-06 -6.68586e-06 0.0694214)
(5.36305e-06 3.91765e-05 0.0880753)
(-5.56536e-06 -6.55607e-07 0.0841523)
(9.03169e-07 1.24667e-05 0.0693267)
(3.73394e-06 3.6351e-06 0.0881441)
(-4.78336e-08 -6.25346e-06 0.0781573)
(2.26322e-06 2.24e-05 0.0948474)
(4.0285e-08 8.17195e-06 0.0799011)
(6.67232e-06 6.06739e-05 0.0928432)
(-1.33758e-06 1.325e-05 0.0780869)
(1.90149e-07 -1.05099e-05 0.0799603)
(4.41828e-06 1.52181e-05 0.0929054)
(9.33116e-07 1.23504e-05 0.0692834)
(3.69182e-06 2.9167e-06 0.0880647)
(-2.50572e-06 3.74883e-05 0.0840232)
(5.31899e-06 3.82331e-05 0.0879955)
(2.43479e-06 -6.7329e-06 0.0693779)
(6.03533e-06 -4.72032e-06 0.0725841)
(-3.3596e-06 1.61579e-05 0.0724591)
(1.33317e-05 -1.07968e-06 0.0780387)
(6.86482e-05 2.71915e-06 0.0946975)
(1.3918e-05 4.1935e-06 0.0928162)
(-1.02937e-05 2.36532e-07 0.0799126)
(5.91632e-05 6.46597e-06 0.0927536)
(8.37501e-06 1.18725e-07 0.0798529)
(-6.16931e-06 1.24743e-07 0.0781093)
(-6.72639e-06 2.32853e-06 0.0694219)
(3.91883e-05 5.39066e-06 0.0880756)
(-6.17823e-07 -5.37807e-06 0.0841525)
(1.2511e-05 8.93675e-07 0.0693274)
(3.58212e-06 3.76061e-06 0.0881443)
(-6.2713e-06 -7.51098e-08 0.078158)
(2.23714e-05 2.28379e-06 0.0948479)
(6.06661e-05 6.68359e-06 0.0928436)
(8.15186e-06 3.27008e-08 0.0799016)
(1.32579e-05 -1.33578e-06 0.0780875)
(1.52054e-05 4.43829e-06 0.0929059)
(-1.05297e-05 1.71706e-07 0.079961)
(1.24024e-05 9.49383e-07 0.0692841)
(2.86869e-06 3.5831e-06 0.0880649)
(3.7476e-05 -2.70046e-06 0.0840235)
(3.83058e-05 5.228e-06 0.0879958)
(-6.78826e-06 2.33149e-06 0.0693784)
(-4.63678e-06 5.99488e-06 0.0725832)
(1.61616e-05 -3.47644e-06 0.0724599)
(-2.75119e-05 -2.75483e-05 0.0856507)
(-3.93552e-07 6.27387e-06 0.0695837)
(6.28976e-06 -4.07219e-07 0.069577)
(-1.00306e-05 -1.20208e-05 0.0695012)
(-1.19691e-05 -1.00841e-05 0.0694949)
(-8.47365e-06 -8.49405e-06 0.085704)
(-1.61346e-05 -2.09163e-05 0.0946916)
(-1.63049e-05 1.81816e-06 0.0900439)
(-3.28041e-05 -3.54734e-05 0.10001)
(-1.24128e-05 6.98165e-06 0.0834761)
(-2.0836e-05 -1.61096e-05 0.0946829)
(1.88721e-06 -1.63531e-05 0.0900409)
(-3.53332e-05 -3.2853e-05 0.100006)
(7.03322e-06 -1.24377e-05 0.08347)
(-8.95432e-06 -8.95779e-06 0.0857765)
(-5.54001e-07 6.26862e-06 0.0696321)
(6.28598e-06 -5.68955e-07 0.0696254)
(-6.91813e-05 -4.42866e-05 0.0945369)
(-1.19491e-05 6.86335e-06 0.0834102)
(-3.62589e-05 -1.92081e-05 0.0898947)
(-3.16367e-05 -3.4215e-05 0.0999312)
(-9.95862e-05 -6.27172e-05 0.0998519)
(-3.07516e-05 -5.7863e-06 0.0833396)
(-1.53235e-05 -2.00017e-05 0.094608)
(-4.4253e-05 -6.9204e-05 0.0945291)
(6.90829e-06 -1.19564e-05 0.0834041)
(-1.91336e-05 -3.62966e-05 0.0898935)
(-3.40582e-05 -3.16717e-05 0.099927)
(-6.2656e-05 -9.9628e-05 0.0998487)
(-5.74991e-06 -3.0867e-05 0.0833354)
(-1.98955e-05 -1.5306e-05 0.0945992)
(-2.11073e-07 1.35779e-05 0.0778567)
(2.27901e-06 6.20801e-05 0.0943305)
(4.51404e-07 -9.16461e-06 0.0797346)
(3.47214e-06 9.45994e-06 0.0924795)
(3.95111e-07 9.44911e-06 0.0796743)
(5.77086e-06 5.37337e-05 0.0924157)
(8.4733e-07 -5.82415e-06 0.0779272)
(2.50263e-06 -7.00578e-06 0.0692535)
(4.99983e-06 3.57721e-05 0.0877691)
(-4.56062e-06 -2.84074e-06 0.0838802)
(1.10036e-06 1.19649e-05 0.0691601)
(3.28062e-06 9.61041e-07 0.0878395)
(7.67145e-07 -5.90059e-06 0.0779706)
(1.80849e-06 1.66005e-05 0.0944731)
(3.57887e-07 9.16422e-06 0.0797165)
(5.93992e-06 5.50028e-05 0.0924967)
(-4.34593e-07 1.35123e-05 0.0779)
(4.55782e-07 -9.46663e-06 0.0797767)
(3.70131e-06 1.05163e-05 0.0925603)
(1.23939e-06 1.19867e-05 0.0691214)
(3.08213e-06 3.81618e-07 0.0877686)
(-1.78601e-06 3.45293e-05 0.0837571)
(4.8494e-06 3.50924e-05 0.087698)
(2.48991e-06 -7.03636e-06 0.0692143)
(5.77254e-06 -5.06932e-06 0.0724014)
(-3.59565e-06 1.5543e-05 0.0722815)
(1.35874e-05 -2.91414e-07 0.0778572)
(6.2086e-05 2.2313e-06 0.0943307)
(9.48157e-06 3.40953e-06 0.0924798)
(-9.16652e-06 4.09877e-07 0.0797351)
(5.3741e-05 5.69419e-06 0.0924159)
(9.45139e-06 3.42246e-07 0.0796748)
(-5.81656e-06 7.8652e-07 0.0779278)
(-6.94907e-06 2.43461e-06 0.0692541)
(3.58358e-05 4.93379e-06 0.0877695)
(-2.82517e-06 -4.71202e-06 0.0838805)
(1.21176e-05 1.12728e-06 0.0691609)
(9.50765e-07 3.19673e-06 0.0878398)
(-5.89898e-06 6.57235e-07 0.0779713)
(1.65655e-05 1.75068e-06 0.0944736)
(5.50133e-05 5.87369e-06 0.0924971)
(9.16451e-06 3.04126e-07 0.079717)
(1.35357e-05 -4.5419e-07 0.0779007)
(1.05028e-05 3.59937e-06 0.0925606)
(-9.465e-06 3.77786e-07 0.0797773)
(1.20199e-05 1.17869e-06 0.0691218)
(3.86088e-07 3.04112e-06 0.0877688)
(3.45712e-05 -1.87339e-06 0.0837573)
(3.50949e-05 4.79979e-06 0.0876982)
(-6.99392e-06 2.44251e-06 0.0692148)
(-5.07154e-06 5.80935e-06 0.0724011)
(1.53856e-05 -3.49256e-06 0.0722821)
(-2.55534e-05 -2.55687e-05 0.0853784)
(2.44969e-07 6.23773e-06 0.0694007)
(6.22731e-06 2.61553e-07 0.0693941)
(-9.4507e-06 -1.17042e-05 0.0693186)
(-1.16683e-05 -9.47766e-06 0.0693124)
(-6.75688e-06 -6.74185e-06 0.0854334)
(-1.29517e-05 -1.74178e-05 0.0943684)
(-9.52991e-05 -5.89884e-05 0.0996209)
(-2.9367e-05 -5.98508e-06 0.0831504)
(-1.36909e-05 2.48288e-06 0.0897385)
(-6.6085e-05 -4.15426e-05 0.0942968)
(-2.83284e-05 -3.07019e-05 0.0996999)
(-1.05365e-05 6.54778e-06 0.0832212)
(-1.73063e-05 -1.29219e-05 0.0943597)
(-5.8918e-05 -9.53067e-05 0.0996179)
(-5.97183e-06 -2.94418e-05 0.0831462)
(2.49313e-06 -1.36544e-05 0.0897354)
(-4.14762e-05 -6.60816e-05 0.0942891)
(-3.04754e-05 -2.82927e-05 0.0996955)
(6.56458e-06 -1.0505e-05 0.0832151)
(-7.16169e-06 -7.1617e-06 0.0854984)
(-9.5952e-06 -1.17808e-05 0.0693627)
(-1.17353e-05 -9.63073e-06 0.0693565)
(-2.60181e-05 -2.6046e-05 0.0854438)
(9.33158e-08 6.24993e-06 0.0694449)
(6.24752e-06 1.03172e-07 0.0694382)
(-6.51076e-05 -4.0673e-05 0.0942204)
(-1.00727e-05 6.46227e-06 0.083161)
(-3.36788e-05 -1.8012e-05 0.0895961)
(-2.72856e-05 -2.95736e-05 0.0996244)
(-9.39452e-05 -5.78063e-05 0.0995456)
(-2.89069e-05 -6.04302e-06 0.0830901)
(-1.22248e-05 -1.66091e-05 0.0942921)
(-4.06261e-05 -6.50954e-05 0.0942127)
(6.46184e-06 -1.00291e-05 0.0831549)
(-1.79973e-05 -3.36869e-05 0.0895954)
(-2.93533e-05 -2.72436e-05 0.09962)
(-5.77369e-05 -9.39312e-05 0.0995426)
(-6.03845e-06 -2.89685e-05 0.0830859)
(-1.65015e-05 -1.21656e-05 0.0942834)
(-6.24957e-06 -4.89352e-06 0.0725837)
(3.4307e-06 1.61176e-05 0.0724595)
(-4.51306e-06 -6.04792e-06 0.0725829)
(1.61481e-05 3.27371e-06 0.0724586)
(2.74693e-05 2.74919e-05 0.0856507)
(-6.23782e-06 3.78795e-07 0.0695845)
(3.27911e-07 -6.21357e-06 0.0695776)
(1.19457e-05 1.00084e-05 0.0695012)
(1.00646e-05 1.19502e-05 0.0694946)
(8.42312e-06 8.48377e-06 0.0857054)
(2.08221e-05 1.60309e-05 0.0946928)
(6.40322e-05 0.000101097 0.099931)
(5.79557e-06 3.12927e-05 0.0834074)
(-1.95021e-06 1.61667e-05 0.090045)
(4.52009e-05 7.03194e-05 0.0946213)
(-7.08791e-06 1.23396e-05 0.0834777)
(3.53544e-05 3.27739e-05 0.100011)
(1.61252e-05 2.07325e-05 0.0946847)
(0.000100973 6.39238e-05 0.0999268)
(3.12586e-05 5.56529e-06 0.0834011)
(1.6394e-05 -1.97278e-06 0.0900425)
(7.01602e-05 4.52045e-05 0.0946125)
(1.2435e-05 -7.19292e-06 0.0834717)
(3.27855e-05 3.53189e-05 0.100007)
(8.81722e-06 8.72389e-06 0.0857779)
(1.21836e-05 1.03702e-05 0.0695501)
(1.01422e-05 1.20765e-05 0.0695433)
(2.79471e-05 2.81364e-05 0.0857238)
(-6.35601e-06 3.61242e-07 0.0696333)
(4.5102e-07 -6.58165e-06 0.0696262)
(4.42263e-05 6.92064e-05 0.0945373)
(-6.81911e-06 1.19247e-05 0.0834116)
(1.9153e-05 3.63023e-05 0.089896)
(3.41336e-05 3.16594e-05 0.0999321)
(5.70558e-06 3.0787e-05 0.0833408)
(1.99783e-05 1.53124e-05 0.0946092)
(6.26899e-05 9.9678e-05 0.0998525)
(6.91084e-05 4.42256e-05 0.0945288)
(1.18772e-05 -6.85147e-06 0.0834057)
(3.61897e-05 1.90607e-05 0.0898932)
(3.1574e-05 3.40766e-05 0.0999287)
(3.08127e-05 5.75215e-06 0.083335)
(1.52255e-05 1.99154e-05 0.094601)
(9.94848e-05 6.26082e-05 0.0998484)
(3.58385e-06 1.57813e-05 0.0723685)
(-5.98094e-06 -4.98116e-06 0.0724904)
(1.57881e-05 3.38853e-06 0.0723673)
(-4.87095e-06 -6.00042e-06 0.0724895)
(8.02118e-06 7.97493e-06 0.0856351)
(1.19396e-05 9.93633e-06 0.0694541)
(9.92478e-06 1.19676e-05 0.0694474)
(2.70075e-05 2.70621e-05 0.0855799)
(-6.21099e-06 1.77999e-07 0.0695373)
(2.19267e-07 -6.31673e-06 0.0695303)
(4.24326e-05 6.71667e-05 0.0943757)
(3.17941e-05 2.94303e-05 0.099777)
(1.86255e-05 3.50239e-05 0.0897433)
(-6.60309e-06 1.10197e-05 0.0832841)
(5.97063e-06 2.98825e-05 0.0832135)
(6.02431e-05 9.68344e-05 0.0996981)
(1.82598e-05 1.37635e-05 0.0944476)
(6.70911e-05 4.24234e-05 0.094367)
(2.94098e-05 3.1703e-05 0.0997737)
(3.49628e-05 1.84865e-05 0.0897402)
(1.10017e-05 -6.68935e-06 0.0832784)
(2.99065e-05 5.925e-06 0.0832073)
(9.66983e-05 6.01544e-05 0.0996937)
(1.37061e-05 1.8165e-05 0.0944395)
(1.91108e-05 1.44998e-05 0.0945274)
(5.8961e-06 3.03365e-05 0.0832764)
(6.14601e-05 9.82468e-05 0.0997749)
(-2.19607e-06 1.48824e-05 0.0898885)
(4.33427e-05 6.82121e-05 0.0944555)
(-6.68701e-06 1.14168e-05 0.0833471)
(3.29431e-05 3.05072e-05 0.0998541)
(1.45177e-05 1.90185e-05 0.0945194)
(3.03452e-05 5.84414e-06 0.0832703)
(9.80972e-05 6.1375e-05 0.0997707)
(1.49541e-05 -2.301e-06 0.089886)
(6.808e-05 4.33434e-05 0.0944469)
(1.14708e-05 -6.81173e-06 0.0833413)
(3.05195e-05 3.28868e-05 0.0998508)
(2.65477e-05 2.65515e-05 0.085511)
(-6.34131e-06 2.46501e-08 0.069491)
(2.62664e-08 -6.31979e-06 0.0694841)
(1.18817e-05 9.76924e-06 0.0694082)
(9.81968e-06 1.187e-05 0.0694013)
(7.54079e-06 7.54807e-06 0.0855665)
(9.33545e-07 1.33374e-05 0.0780378)
(-2.77507e-06 6.86601e-05 0.0946972)
(-2.97792e-07 -1.02795e-05 0.0799119)
(-4.21358e-06 1.39292e-05 0.092815)
(-2.21779e-07 8.3899e-06 0.0798524)
(-6.52232e-06 5.91714e-05 0.0927537)
(-2.28071e-07 -6.16665e-06 0.0781079)
(-2.39252e-06 -6.72809e-06 0.0694229)
(-5.41392e-06 3.91644e-05 0.0880764)
(5.35931e-06 -6.22833e-07 0.084152)
(-9.22471e-07 1.24607e-05 0.0693293)
(-3.8258e-06 3.62094e-06 0.0881437)
(4.97177e-09 -6.24899e-06 0.0781566)
(-2.27341e-06 2.23868e-05 0.0948473)
(-1.01781e-07 8.16965e-06 0.0799011)
(-6.70075e-06 6.06736e-05 0.0928437)
(-2.29577e-07 -1.05134e-05 0.0799603)
(1.29002e-06 1.32472e-05 0.0780866)
(-4.43843e-06 1.52181e-05 0.0929047)
(-1.06808e-06 1.24554e-05 0.069286)
(-3.67866e-06 2.88942e-06 0.0880644)
(2.50335e-06 3.75054e-05 0.0840231)
(-5.37285e-06 3.83257e-05 0.0879966)
(-2.4454e-06 -6.75299e-06 0.0693795)
(4.24599e-07 -6.07283e-06 0.0780613)
(2.0748e-07 8.63207e-06 0.0798055)
(6.26949e-06 5.76919e-05 0.0926655)
(2.00925e-06 1.9367e-05 0.0946561)
(-8.73061e-07 1.33824e-05 0.0779908)
(3.17553e-07 -1.00181e-05 0.0798653)
(4.02434e-06 1.27034e-05 0.0927284)
(1.04181e-06 1.21443e-05 0.0692005)
(-1.94367e-06 3.58947e-05 0.0838867)
(3.37818e-06 1.32886e-06 0.0879124)
(2.23846e-06 -7.22754e-06 0.0692939)
(5.15739e-06 3.6458e-05 0.0878426)
(2.48996e-06 -6.75654e-06 0.0693355)
(5.25518e-06 3.73613e-05 0.087918)
(-4.99342e-06 -1.84596e-06 0.0840127)
(1.00548e-06 1.2187e-05 0.0692414)
(3.5655e-06 2.25502e-06 0.0879876)
(-6.99539e-07 1.34404e-05 0.0779448)
(2.4716e-06 6.52501e-05 0.0945096)
(3.43279e-07 -9.75684e-06 0.0798203)
(3.77358e-06 1.1518e-05 0.0926432)
(3.54723e-07 -6.06073e-06 0.0780153)
(2.4972e-07 8.90202e-06 0.0797603)
(6.04158e-06 5.6287e-05 0.09258)
(-4.00561e-07 -6.08761e-06 0.0780606)
(-2.71546e-07 8.63437e-06 0.0798055)
(-6.29193e-06 5.7708e-05 0.092666)
(-2.00462e-06 1.93602e-05 0.0946559)
(7.67161e-07 1.33891e-05 0.0779905)
(-3.53029e-07 -1.00134e-05 0.0798653)
(-4.00541e-06 1.2708e-05 0.0927277)
(-1.14655e-06 1.21928e-05 0.0692028)
(2.10644e-06 3.59696e-05 0.0838865)
(-3.46019e-06 1.55457e-06 0.0879123)
(-5.12908e-06 3.66054e-05 0.0878436)
(-2.50645e-06 -6.91414e-06 0.0692957)
(-2.45738e-06 -6.84607e-06 0.069337)
(-5.23496e-06 3.74282e-05 0.0879191)
(4.95251e-06 -1.81821e-06 0.0840122)
(-1.07022e-06 1.22907e-05 0.0692439)
(-3.53287e-06 2.20147e-06 0.0879873)
(5.49237e-07 1.34614e-05 0.0779445)
(-2.50302e-06 6.52486e-05 0.0945096)
(-4.16595e-07 -9.74101e-06 0.0798202)
(-3.82197e-06 1.15667e-05 0.0926426)
(-3.24059e-07 8.89988e-06 0.0797603)
(-6.11283e-06 5.63292e-05 0.0925805)
(-5.92966e-07 -5.99154e-06 0.0780147)
(-2.75391e-05 2.75483e-05 0.0856515)
(6.27202e-06 3.35505e-07 0.0695787)
(-4.21113e-07 -6.3343e-06 0.0695841)
(-1.20291e-05 1.01012e-05 0.0694957)
(-1.00273e-05 1.20067e-05 0.0695012)
(-8.50015e-06 8.39697e-06 0.0857054)
(-2.08676e-05 1.60985e-05 0.0946844)
(1.84674e-06 1.63235e-05 0.0900428)
(6.97461e-06 1.24383e-05 0.083472)
(-3.54143e-05 3.28448e-05 0.100007)
(-1.61588e-05 2.08496e-05 0.0946933)
(-1.63668e-05 -1.89708e-06 0.0900463)
(-3.28919e-05 3.53731e-05 0.100012)
(-1.24511e-05 -7.06703e-06 0.0834778)
(-8.9868e-06 8.87458e-06 0.0857779)
(6.24749e-06 5.00839e-07 0.069627)
(-5.94282e-07 -6.33707e-06 0.0696324)
(-4.4288e-05 6.91938e-05 0.094529)
(6.85967e-06 1.19683e-05 0.0834062)
(-1.91047e-05 3.63081e-05 0.0898931)
(-3.41724e-05 3.16834e-05 0.0999283)
(-5.79236e-06 3.08392e-05 0.0833351)
(-6.26363e-05 9.96292e-05 0.0998484)
(-1.9939e-05 1.52867e-05 0.0946009)
(-6.92117e-05 4.43013e-05 0.0945379)
(-1.19617e-05 -6.95563e-06 0.0834119)
(-3.62375e-05 1.91596e-05 0.0898947)
(-3.17236e-05 3.41113e-05 0.0999332)
(-9.95521e-05 6.27039e-05 0.0998525)
(-3.07492e-05 5.79434e-06 0.0833406)
(-1.53368e-05 1.99388e-05 0.0946097)
(4.63992e-06 -5.99471e-06 0.0725858)
(-1.61516e-05 3.43495e-06 0.0724573)
(-3.4459e-06 1.58017e-05 0.0723684)
(5.87451e-06 -4.93114e-06 0.0724904)
(-8.04875e-06 7.88299e-06 0.0856349)
(-1.19448e-05 9.96478e-06 0.0694485)
(-9.89385e-06 1.19171e-05 0.069454)
(-2.7036e-05 2.70419e-05 0.0855807)
(6.3101e-06 1.15315e-07 0.0695314)
(-2.69235e-07 -6.35023e-06 0.0695368)
(-4.24072e-05 6.70713e-05 0.0943671)
(-3.17297e-05 2.94281e-05 0.0997733)
(-1.84935e-05 3.50219e-05 0.0897404)
(6.75354e-06 1.103e-05 0.0832791)
(-6.01033e-05 9.67602e-05 0.0996937)
(-5.90149e-06 2.98928e-05 0.0832072)
(-1.81456e-05 1.36485e-05 0.0944394)
(-6.71034e-05 4.23965e-05 0.0943761)
(-2.94601e-05 3.16915e-05 0.0997782)
(-3.48935e-05 1.8532e-05 0.0897418)
(-1.10088e-05 -6.75932e-06 0.0832845)
(-2.98248e-05 5.91685e-06 0.083213)
(-9.66923e-05 6.01774e-05 0.099698)
(-1.37325e-05 1.81314e-05 0.0944481)
(-1.90362e-05 1.44644e-05 0.0945192)
(-5.86303e-06 3.03684e-05 0.0832704)
(-6.13634e-05 9.81754e-05 0.0997707)
(2.20359e-06 1.49799e-05 0.0898862)
(-3.29388e-05 3.05394e-05 0.0998504)
(-4.33353e-05 6.81227e-05 0.0944471)
(6.793e-06 1.14967e-05 0.0833419)
(-1.45321e-05 1.90171e-05 0.0945279)
(-3.02892e-05 5.8661e-06 0.0832761)
(-9.81184e-05 6.14338e-05 0.0997749)
(-1.49796e-05 -2.24102e-06 0.0898903)
(-6.81436e-05 4.33395e-05 0.0944561)