/*--------------------------------*- C++ -*----------------------------------*\
| =========                 |                                                 |
| \\      /  F ield         | OpenFOAM: The Open Source CFD Toolbox           |
|  \\    /   O peration     | Version:  2312                                  |
|   \\  /    A nd           | Website:  www.openfoam.com                      |
|    \\/     M anipulation  |                                                 |
\*---------------------------------------------------------------------------*/
FoamFile
{
    version     2.0;
    format      ascii;
    arch        "LSB;label=32;scalar=64";
    class       volScalarField;
    location    "625";
    object      p;
}
// * * * * * * * * * * * * * * * * * * * * * * * * * * * * * * * * * * * * * //

dimensions      [0 2 -2 0 0 0 0];

internalField   nonuniform List<scalar> 
43211
(
0.00360753
0.00360794
0.00360794
0.00360784
0.00354967
0.00354982
0.00354982
0.00355251
0.00349808
0.00349808
0.00349809
0.00350086
0.00344581
0.00344582
0.00344582
0.00344858
0.00339443
0.00339444
0.00339444
0.00339719
0.00334445
0.00334446
0.00334446
0.00334718
0.00329592
0.00329593
0.00329593
0.00329862
0.00324868
0.00324872
0.0032487
0.00325135
0.00320254
0.00320257
0.00320256
0.00320519
0.00315731
0.00315733
0.00315732
0.00315992
0.00311279
0.00311281
0.00311281
0.00311538
0.00306887
0.00306889
0.00306889
0.00307144
0.00302547
0.00302549
0.00302549
0.003028
0.00298253
0.00298255
0.00298255
0.00298505
0.00294003
0.00294004
0.00294004
0.00294254
0.00289793
0.00289793
0.00289793
0.00290042
0.00285622
0.00285621
0.00285621
0.00285869
0.00281486
0.00281486
0.00281486
0.00281733
0.00277384
0.00277383
0.00277383
0.00277629
0.00273314
0.00273312
0.00273312
0.00273557
0.00269273
0.00269269
0.00269269
0.00269514
0.0036177
0.00361678
0.00361677
0.0036177
0.00361678
0.00361678
0.00361568
0.00361568
0.00361568
0.00361568
0.00361677
0.00361677
0.0036177
0.00361678
0.00361677
0.0036177
0.00360784
0.0035589
0.00360794
0.00360794
0.00356127
0.00356127
0.00360784
0.0035589
0.00360794
0.00360794
0.00356127
0.00356127
0.00360794
0.00356127
0.00356127
0.00360784
0.0035589
0.00360794
0.00356127
0.00356127
0.0035589
0.00355251
0.00350781
0.00354982
0.00354982
0.00351128
0.00351128
0.0035525
0.00350781
0.00354982
0.00354982
0.00351128
0.00351128
0.00354982
0.00351128
0.00351128
0.00355251
0.00350781
0.00354982
0.00351128
0.00351128
0.00350782
0.00350086
0.00345546
0.00349809
0.00349809
0.00345882
0.00345882
0.00350086
0.00345546
0.00349808
0.00349809
0.00345882
0.00345882
0.00349808
0.00345882
0.00345882
0.00350086
0.00345546
0.00349808
0.00345882
0.00345882
0.00345546
0.00344858
0.0034039
0.00344582
0.00344582
0.00340717
0.00340717
0.00344858
0.0034039
0.00344582
0.00344582
0.00340717
0.00340717
0.00344582
0.00340717
0.00340717
0.00344858
0.0034039
0.00344582
0.00340717
0.00340717
0.0034039
0.00339719
0.00335368
0.00339444
0.00339444
0.00335682
0.00335682
0.00339719
0.00335368
0.00339444
0.00339444
0.00335682
0.00335682
0.00339444
0.00335682
0.00335682
0.00339719
0.00335368
0.00339444
0.00335682
0.00335682
0.00335368
0.00334718
0.00330492
0.00334446
0.00334446
0.00330794
0.00330794
0.00334718
0.00330492
0.00334446
0.00334446
0.00330793
0.00330794
0.00334446
0.00330794
0.00330794
0.00334718
0.00330492
0.00334446
0.00330794
0.00330793
0.00330492
0.00329862
0.00325749
0.00329594
0.00329593
0.0032604
0.0032604
0.00329862
0.00325748
0.00329593
0.00329593
0.0032604
0.0032604
0.00329594
0.0032604
0.0032604
0.00329861
0.00325748
0.00329593
0.0032604
0.0032604
0.00325748
0.00325135
0.00321118
0.0032487
0.0032487
0.003214
0.003214
0.00325135
0.00321118
0.0032487
0.0032487
0.00321401
0.00321401
0.00324871
0.00321401
0.003214
0.00325135
0.00321118
0.00324871
0.00321401
0.003214
0.00321118
0.00320519
0.0031658
0.00320257
0.00320256
0.00316856
0.00316856
0.00320519
0.00316579
0.00320257
0.00320256
0.00316856
0.00316856
0.00320257
0.00316856
0.00316856
0.00320519
0.00316579
0.00320257
0.00316857
0.00316856
0.0031658
0.00315992
0.00312116
0.00315733
0.00315733
0.00312388
0.00312388
0.00315992
0.00312116
0.00315733
0.00315732
0.00312388
0.00312388
0.00315733
0.00312388
0.00312388
0.00315992
0.00312116
0.00315733
0.00312388
0.00312388
0.00312116
0.00311538
0.00307714
0.00311282
0.00311281
0.00307982
0.00307982
0.00311538
0.00307713
0.00311281
0.00311281
0.00307982
0.00307982
0.00311281
0.00307982
0.00307982
0.00311537
0.00307713
0.00311281
0.00307983
0.00307982
0.00307714
0.00307144
0.00303364
0.00306889
0.00306889
0.00303629
0.0030363
0.00307143
0.00303363
0.00306889
0.00306889
0.00303629
0.00303629
0.00306889
0.0030363
0.00303629
0.00307143
0.00303364
0.00306889
0.00303629
0.00303629
0.00303364
0.003028
0.00299061
0.00302548
0.00302549
0.00299324
0.00299324
0.003028
0.00299062
0.00302548
0.00302549
0.00299324
0.00299324
0.00302548
0.00299324
0.00299324
0.003028
0.00299062
0.00302548
0.00299324
0.00299324
0.00299061
0.00298505
0.00294805
0.00298255
0.00298255
0.00295062
0.00295063
0.00298506
0.00294805
0.00298255
0.00298255
0.00295063
0.00295063
0.00298255
0.00295063
0.00295063
0.00298506
0.00294805
0.00298255
0.00295063
0.00295063
0.00294805
0.00294254
0.00290589
0.00294004
0.00294004
0.00290843
0.00290842
0.00294254
0.00290589
0.00294004
0.00294004
0.00290842
0.00290842
0.00294004
0.00290842
0.00290843
0.00294254
0.00290589
0.00294004
0.00290842
0.00290842
0.00290589
0.00290043
0.00286411
0.00289794
0.00289793
0.00286661
0.00286661
0.00290042
0.00286411
0.00289793
0.00289793
0.00286661
0.00286661
0.00289794
0.00286661
0.00286661
0.00290042
0.00286411
0.00289793
0.00286661
0.00286661
0.00286411
0.00285869
0.0028227
0.00285621
0.00285621
0.00282516
0.00282516
0.00285869
0.0028227
0.00285621
0.00285621
0.00282516
0.00282516
0.00285621
0.00282516
0.00282516
0.00285869
0.0028227
0.00285621
0.00282516
0.00282516
0.0028227
0.00281733
0.00278162
0.00281486
0.00281486
0.00278406
0.00278406
0.00281733
0.00278163
0.00281486
0.00281486
0.00278406
0.00278406
0.00281486
0.00278406
0.00278406
0.00281733
0.00278163
0.00281486
0.00278406
0.00278406
0.00278163
0.00277629
0.00274087
0.00277383
0.00277383
0.00274327
0.00274327
0.00277629
0.00274087
0.00277383
0.00277383
0.00274327
0.00274327
0.00277383
0.00274327
0.00274327
0.00277629
0.00274087
0.00277383
0.00274327
0.00274327
0.00274087
0.00273557
0.00270041
0.00273312
0.00273312
0.00270277
0.00270277
0.00273557
0.0027004
0.00273312
0.00273312
0.00270277
0.00270277
0.00273312
0.00270277
0.00270277
0.00273557
0.0027004
0.00273312
0.00270277
0.00270277
0.0027004
0.00269515
0.00269269
0.00269269
0.00269514
0.00269269
0.00269269
0.00269269
0.00269514
0.00269269
0.00362573
0.00363597
0.00363046
0.00363046
0.00365306
0.00363997
0.00366843
0.00363388
0.00365306
0.00363997
0.00363388
0.00366843
0.00364449
0.00367215
0.00367215
0.00358014
0.00359982
0.00360895
0.00357227
0.00357351
0.00357581
0.00358012
0.00359984
0.00360894
0.00357226
0.00360753
0.00360753
0.00360753
0.00356107
0.00356107
0.00356107
0.00356107
0.00357761
0.00360402
0.00360739
0.00358514
0.00360684
0.0035765
0.00358607
0.00357358
0.00357579
0.00357761
0.00360739
0.00360403
0.00358514
0.00360684
0.00358607
0.00357649
0.00360988
0.00360988
0.00358043
0.00357621
0.00357621
0.00353492
0.00355397
0.00355535
0.00353345
0.00355286
0.003533
0.00353492
0.00355398
0.00355535
0.00353345
0.00354967
0.00354967
0.00354967
0.00351136
0.00351136
0.00351136
0.00351135
0.00353354
0.00355408
0.00354955
0.00353746
0.0035529
0.00353406
0.00353728
0.00355287
0.003533
0.00353354
0.00354955
0.00355408
0.00353746
0.0035529
0.00353728
0.00353406
0.00355507
0.00355507
0.00353381
0.00353437
0.00353437
0.00348251
0.00350133
0.00350241
0.00348148
0.00350097
0.0034812
0.00348251
0.00350133
0.00350241
0.00348148
0.00349808
0.00349808
0.00349808
0.0034588
0.0034588
0.0034588
0.0034588
0.0034816
0.00350173
0.00349797
0.00348495
0.00350116
0.00348197
0.00348484
0.00350097
0.0034812
0.0034816
0.00349797
0.00350173
0.00348495
0.00350116
0.00348484
0.00348197
0.00350197
0.00350197
0.00348158
0.00348203
0.00348203
0.00343001
0.00344866
0.00344952
0.00342924
0.00344845
0.00342906
0.00343001
0.00344866
0.00344952
0.00342924
0.00344581
0.00344581
0.00344581
0.00340716
0.00340716
0.00340716
0.00340716
0.0034295
0.00344907
0.00344577
0.00343287
0.00344878
0.00342968
0.00343283
0.00344845
0.00342906
0.0034295
0.00344577
0.00344907
0.00343287
0.00344878
0.00343283
0.00342968
0.0034491
0.0034491
0.00342954
0.00342962
0.00342962
0.0033788
0.00339716
0.00339779
0.00337824
0.00339701
0.00337811
0.0033788
0.00339716
0.00339779
0.00337824
0.00339443
0.00339443
0.00339443
0.00335681
0.00335681
0.00335681
0.00335681
0.00337853
0.00339751
0.00339441
0.00338181
0.00339733
0.00337864
0.00338178
0.00339701
0.00337811
0.00337853
0.00339441
0.00339751
0.0033818
0.00339734
0.00338178
0.00337864
0.00339749
0.00339749
0.00337861
0.00337854
0.00337854
0.00332915
0.0033471
0.00334756
0.00332875
0.00334698
0.00332864
0.00332915
0.0033471
0.00334755
0.00332875
0.00334445
0.00334445
0.00334445
0.00330792
0.00330792
0.00330792
0.00330792
0.00332903
0.0033474
0.00334444
0.0033322
0.00334728
0.0033291
0.00333217
0.00334698
0.00332864
0.00332903
0.00334444
0.0033474
0.0033322
0.00334728
0.00333217
0.0033291
0.00334739
0.00334739
0.00332912
0.00332901
0.00332901
0.00328097
0.00329852
0.00329884
0.00328069
0.00329843
0.00328058
0.00328097
0.00329852
0.00329884
0.00328069
0.00329592
0.00329592
0.00329592
0.00326038
0.00326038
0.00326038
0.00326038
0.00328095
0.00329878
0.0032959
0.00328401
0.00329869
0.003281
0.00328398
0.00329842
0.00328059
0.00328095
0.0032959
0.00329878
0.00328401
0.00329869
0.00328398
0.00328101
0.00329877
0.00329878
0.00328105
0.00328092
0.00328092
0.00323407
0.00325126
0.00325149
0.00323386
0.00325116
0.00323377
0.00323407
0.00325126
0.00325149
0.00323386
0.00324868
0.00324868
0.00324868
0.00321399
0.00321399
0.00321399
0.00321399
0.00323411
0.00325149
0.00324867
0.00323707
0.00325141
0.00323416
0.00323704
0.00325116
0.00323377
0.00323411
0.00324867
0.00325149
0.00323708
0.00325141
0.00323704
0.00323416
0.00325149
0.00325149
0.00323421
0.00323408
0.00323408
0.00318822
0.0032051
0.00320527
0.00318806
0.00320501
0.00318798
0.00318822
0.0032051
0.00320527
0.00318806
0.00320254
0.00320254
0.00320255
0.00316854
0.00316854
0.00316854
0.00316854
0.0031883
0.00320531
0.00320253
0.00319118
0.00320524
0.00318834
0.00319115
0.00320501
0.00318798
0.0031883
0.00320253
0.00320531
0.00319118
0.00320524
0.00319115
0.00318835
0.00320531
0.00320531
0.00318838
0.00318826
0.00318826
0.00314323
0.00315983
0.00315998
0.00314309
0.00315975
0.00314301
0.00314323
0.00315983
0.00315998
0.00314309
0.0031573
0.0031573
0.0031573
0.00312386
0.00312386
0.00312386
0.00312386
0.00314333
0.00316004
0.0031573
0.00314614
0.00315997
0.00314337
0.00314611
0.00315975
0.00314301
0.00314333
0.0031573
0.00316003
0.00314614
0.00315997
0.00314611
0.00314337
0.00316003
0.00316003
0.00314339
0.00314327
0.00314327
0.00309892
0.00311529
0.00311543
0.00309879
0.00311521
0.00309871
0.00309892
0.00311529
0.00311543
0.00309879
0.00311279
0.00311279
0.00311279
0.0030798
0.0030798
0.0030798
0.0030798
0.00309904
0.00311549
0.00311278
0.00310178
0.00311544
0.00309906
0.00310175
0.00311521
0.00309871
0.00309904
0.00311278
0.00311549
0.00310178
0.00311544
0.00310175
0.00309906
0.00311547
0.00311547
0.00309908
0.00309895
0.00309895
0.00305517
0.00307135
0.00307148
0.00305504
0.00307127
0.00305497
0.00305517
0.00307135
0.00307148
0.00305504
0.00306887
0.00306887
0.00306887
0.00303627
0.00303627
0.00303627
0.00303627
0.00305531
0.00307154
0.00306887
0.003058
0.00307151
0.00305532
0.00305798
0.00307127
0.00305497
0.00305531
0.00306887
0.00307154
0.003058
0.00307151
0.00305797
0.00305532
0.00307151
0.00307151
0.00305532
0.00305519
0.00305519
0.00301191
0.00302792
0.00302804
0.00301179
0.00302785
0.00301172
0.00301191
0.00302792
0.00302804
0.00301179
0.00302547
0.00302547
0.00302547
0.00299323
0.00299323
0.00299323
0.00299323
0.00301208
0.0030281
0.00302547
0.00301471
0.0030281
0.00301206
0.0030147
0.00302785
0.00301172
0.00301208
0.00302547
0.0030281
0.00301471
0.0030281
0.0030147
0.00301206
0.00302807
0.00302807
0.00301206
0.00301193
0.00301193
0.00296912
0.00298495
0.00298508
0.00296899
0.00298489
0.00296893
0.00296912
0.00298495
0.00298508
0.00296899
0.00298253
0.00298253
0.00298253
0.00295062
0.00295062
0.00295062
0.00295062
0.0029693
0.00298513
0.00298254
0.00297188
0.00298515
0.00296926
0.00297188
0.00298489
0.00296892
0.0029693
0.00298254
0.00298513
0.00297188
0.00298515
0.00297188
0.00296926
0.00298509
0.00298509
0.00296929
0.00296911
0.00296911
0.00292674
0.00294242
0.00294255
0.00292661
0.00294236
0.00292656
0.00292674
0.00294242
0.00294254
0.00292661
0.00294003
0.00294003
0.00294003
0.00290842
0.00290842
0.00290842
0.00290842
0.00292695
0.00294259
0.00294004
0.00292948
0.00294263
0.00292688
0.00292948
0.00294236
0.00292656
0.00292695
0.00294004
0.00294259
0.00292948
0.00294263
0.00292948
0.00292688
0.00294254
0.00294254
0.00292692
0.00292672
0.00292672
0.00288476
0.0029003
0.00290042
0.00288464
0.00290025
0.0028846
0.00288476
0.0029003
0.00290042
0.00288464
0.00289793
0.00289793
0.00289793
0.00286661
0.00286661
0.00286661
0.00286661
0.00288499
0.00290045
0.00289794
0.00288747
0.00290053
0.00288489
0.00288748
0.00290025
0.00288459
0.00288499
0.00289794
0.00290045
0.00288747
0.00290053
0.00288748
0.00288489
0.00290041
0.00290041
0.00288495
0.00288474
0.00288474
0.00284315
0.00285856
0.00285867
0.00284304
0.00285851
0.002843
0.00284315
0.00285856
0.00285867
0.00284304
0.00285622
0.00285622
0.00285622
0.00282517
0.00282517
0.00282517
0.00282517
0.00284341
0.0028587
0.00285623
0.00284584
0.0028588
0.00284328
0.00284586
0.00285851
0.002843
0.00284341
0.00285623
0.0028587
0.00284584
0.0028588
0.00284586
0.00284328
0.00285866
0.00285866
0.00284336
0.00284313
0.00284313
0.0028019
0.00281718
0.00281729
0.00280179
0.00281715
0.00280176
0.0028019
0.00281718
0.00281729
0.00280179
0.00281486
0.00281486
0.00281486
0.00278407
0.00278407
0.00278407
0.00278407
0.00280217
0.00281731
0.00281488
0.00280457
0.00281743
0.00280202
0.0028046
0.00281715
0.00280176
0.00280217
0.00281488
0.00281732
0.00280457
0.00281743
0.0028046
0.00280202
0.00281728
0.00281728
0.00280212
0.00280187
0.00280187
0.00276098
0.00277615
0.00277625
0.00276087
0.00277611
0.00276084
0.00276098
0.00277615
0.00277625
0.00276087
0.00277384
0.00277384
0.00277384
0.00274329
0.00274329
0.00274329
0.00274329
0.00276125
0.00277626
0.00277386
0.00276362
0.00277639
0.00276109
0.00276365
0.00277611
0.00276084
0.00276125
0.00277386
0.00277626
0.00276362
0.00277639
0.00276365
0.00276109
0.00277623
0.00277623
0.00276121
0.00276095
0.00276095
0.00272036
0.00273542
0.00273552
0.00272027
0.00273539
0.00272024
0.00272036
0.00273542
0.00273552
0.00272027
0.00273314
0.00273314
0.00273314
0.00270281
0.0027028
0.0027028
0.0027028
0.00272063
0.00273553
0.00273315
0.00272298
0.00273565
0.00272047
0.00272302
0.00273539
0.00272024
0.00272063
0.00273315
0.00273553
0.00272298
0.00273565
0.00272302
0.00272047
0.0027355
0.0027355
0.0027206
0.00272033
0.00272033
0.00268002
0.002695
0.00269508
0.00267993
0.00269496
0.0026799
0.00268002
0.00269499
0.00269508
0.00267993
0.00269273
0.00269273
0.00269273
0.00268029
0.00269508
0.00269272
0.00268263
0.00269521
0.00268012
0.00268266
0.00269496
0.00268029
0.00269272
0.00269508
0.00269521
0.00268266
0.00269506
0.00269506
0.00268027
0.00267999
0.00267999
0.00364449
0.00367214
0.00367214
0.00363596
0.00367166
0.00363596
0.00367166
0.00364145
0.00362779
0.00362781
0.00366694
0.00366694
0.00365304
0.00363997
0.00366841
0.00363387
0.00365304
0.00363997
0.00366841
0.00363387
0.00365769
0.00362804
0.0036688
0.00362289
0.00365769
0.00362808
0.00366879
0.00362288
0.00364891
0.00363757
0.00361928
0.0036151
0.00366369
0.00363209
0.00361982
0.0036489
0.00363756
0.00361927
0.0036151
0.00366369
0.00363209
0.00361981
0.00364449
0.00367214
0.00367215
0.00363597
0.00367166
0.00364145
0.00362779
0.0036278
0.00366694
0.00366695
0.00363596
0.00367167
0.00365306
0.00363997
0.00366842
0.00363388
0.00365306
0.00363997
0.00363388
0.00366842
0.00365771
0.00362804
0.00366879
0.00362289
0.00364892
0.00363757
0.00361929
0.0036151
0.00366369
0.0036321
0.00361982
0.0036577
0.0036281
0.00366879
0.00362289
0.00364892
0.00363757
0.0036151
0.00361928
0.0036321
0.00366369
0.00361982
0.00362573
0.00363597
0.00363046
0.00363046
0.00362573
0.00363597
0.00363046
0.00363046
0.00362573
0.00363597
0.00363046
0.00363046
0.00362447
0.003634
0.0036139
0.0036139
0.00362891
0.00362891
0.00361189
0.00362447
0.003634
0.0036139
0.0036139
0.00362891
0.00362891
0.00361189
0.00362447
0.003634
0.0036139
0.0036139
0.00362891
0.00362891
0.00361189
0.00362447
0.003634
0.0036139
0.0036139
0.00362891
0.00362891
0.00361189
0.00365306
0.00363997
0.00363388
0.00366842
0.00364892
0.00363757
0.00361928
0.0036151
0.0036637
0.0036321
0.00361982
0.00365771
0.00362802
0.00366881
0.00362288
0.00364892
0.00363757
0.0036151
0.00361928
0.0036321
0.00366369
0.00361981
0.00365771
0.00362808
0.0036688
0.00362287
0.00364449
0.00367214
0.00367215
0.00363601
0.00367166
0.00364145
0.00362782
0.00362781
0.00366694
0.00366695
0.00363595
0.00367167
0.00365306
0.00363997
0.00363388
0.00366842
0.00364892
0.00363757
0.0036151
0.00361928
0.0036321
0.0036637
0.00361982
0.00364892
0.00363757
0.0036151
0.00361928
0.0036321
0.0036637
0.00361982
0.00365771
0.00362802
0.00366881
0.00362289
0.00365771
0.00362805
0.0036688
0.00362288
0.00364145
0.0036278
0.0036278
0.00366694
0.00366695
0.00363596
0.00367166
0.00363595
0.00367166
0.00357345
0.00357581
0.00357365
0.00357576
0.00360983
0.00360989
0.00358042
0.00357621
0.0035762
0.00355941
0.00357558
0.00355945
0.00357555
0.00357441
0.00356206
0.00356208
0.00357452
0.00357451
0.00358014
0.00359986
0.00360895
0.00357228
0.00357762
0.00360401
0.00360739
0.00358514
0.00360685
0.0035765
0.00358608
0.00357763
0.00360402
0.00360739
0.00358514
0.00360685
0.0035765
0.00358608
0.00357578
0.00356117
0.0035733
0.00356196
0.00357578
0.00356118
0.00357329
0.00356196
0.00357285
0.0035724
0.0035609
0.00356114
0.00357389
0.00357282
0.00355928
0.00357285
0.0035724
0.0035609
0.00356114
0.00357388
0.00357282
0.00355928
0.00360985
0.00360988
0.00358043
0.00357621
0.00357621
0.00357363
0.00357579
0.00355944
0.00357558
0.00357441
0.00356206
0.00356207
0.00357453
0.00357452
0.00355945
0.00357555
0.00357761
0.00360403
0.00360739
0.00358514
0.00360685
0.00357649
0.00358607
0.00358012
0.00359984
0.00360893
0.00357226
0.00357761
0.00360739
0.00360402
0.00358514
0.00360685
0.00358607
0.00357648
0.00357577
0.00356118
0.00357327
0.00356196
0.00357284
0.0035724
0.00356091
0.00356114
0.00357387
0.00357282
0.00355928
0.00357577
0.00356118
0.00357328
0.00356196
0.00357284
0.0035724
0.00356114
0.0035609
0.00357282
0.00357387
0.00355928
0.00358013
0.00359983
0.00360892
0.00357226
0.00357761
0.00360739
0.00360402
0.00358514
0.00360684
0.00358607
0.00357649
0.00358013
0.00359984
0.00360892
0.00357226
0.00357284
0.0035724
0.00356091
0.00356114
0.00357388
0.00357282
0.00355928
0.00357578
0.00356118
0.00357328
0.00356196
0.00357285
0.0035724
0.00356114
0.00356091
0.00357282
0.00357387
0.00355928
0.00357578
0.00356118
0.00357328
0.00356196
0.00360987
0.00360989
0.00358042
0.0035762
0.00357619
0.00357366
0.00357577
0.00355945
0.00357556
0.00357441
0.00356207
0.00356207
0.00357451
0.0035745
0.00355945
0.00357555
0.00357762
0.00360739
0.00360403
0.00358514
0.00360684
0.00358607
0.00357649
0.00358013
0.00359983
0.00360893
0.00357226
0.00358013
0.00359985
0.00360893
0.00357225
0.00357284
0.0035724
0.00356114
0.00356091
0.00357282
0.00357387
0.00355928
0.00357285
0.0035724
0.00356114
0.00356091
0.00357282
0.00357387
0.00355928
0.00357578
0.00356118
0.00357328
0.00356196
0.00357578
0.00356118
0.00357328
0.00356196
0.00357362
0.00357578
0.00357365
0.00357577
0.00357441
0.00356207
0.00356207
0.00357452
0.00357452
0.00355944
0.00357558
0.00355945
0.00357555
0.00355286
0.00353301
0.00355289
0.00353299
0.00355507
0.00355508
0.00353381
0.00353437
0.00353437
0.00350751
0.00352656
0.00350752
0.00352655
0.00352695
0.00350859
0.00350859
0.0035279
0.00352789
0.00353492
0.00355397
0.00355535
0.00353345
0.00353354
0.00355408
0.00354955
0.00353746
0.0035529
0.00353406
0.00353728
0.00353354
0.00355407
0.00354955
0.00353746
0.0035529
0.00353406
0.00353728
0.00352838
0.00350792
0.00352706
0.00350903
0.00352838
0.00350793
0.00352706
0.00350903
0.00352698
0.00352448
0.0035084
0.00351117
0.0035276
0.00352436
0.00350786
0.00352698
0.00352448
0.0035084
0.00351117
0.0035276
0.00352437
0.00350786
0.00355506
0.00355507
0.00353381
0.00353437
0.00353437
0.00355287
0.003533
0.00350752
0.00352656
0.00352695
0.00350859
0.00350859
0.0035279
0.0035279
0.00350752
0.00352656
0.00353354
0.00355408
0.00354955
0.00353746
0.0035529
0.00353406
0.00353728
0.00353493
0.00355398
0.00355535
0.00353345
0.00353354
0.00354955
0.00355408
0.00353746
0.0035529
0.00353728
0.00353406
0.00352838
0.00350792
0.00352706
0.00350903
0.00352698
0.00352448
0.0035084
0.00351117
0.00352759
0.00352437
0.00350786
0.00352838
0.00350793
0.00352706
0.00350903
0.00352698
0.00352448
0.00351117
0.0035084
0.00352437
0.0035276
0.00350786
0.00353492
0.00355398
0.00355535
0.00353345
0.00353354
0.00354955
0.00355408
0.00353746
0.0035529
0.00353728
0.00353406
0.00353492
0.00355397
0.00355535
0.00353345
0.00352698
0.00352448
0.0035084
0.00351117
0.0035276
0.00352437
0.00350786
0.00352838
0.00350792
0.00352706
0.00350903
0.00352698
0.00352448
0.00351117
0.0035084
0.00352437
0.0035276
0.00350786
0.00352838
0.00350793
0.00352706
0.00350903
0.00355507
0.00355508
0.00353381
0.00353437
0.00353437
0.00355288
0.003533
0.00350752
0.00352656
0.00352695
0.00350859
0.00350859
0.0035279
0.0035279
0.00350752
0.00352656
0.00353354
0.00354955
0.00355408
0.00353746
0.0035529
0.00353728
0.00353406
0.00353492
0.00355397
0.00355535
0.00353345
0.00353492
0.00355397
0.00355535
0.00353345
0.00352698
0.00352448
0.00351117
0.0035084
0.00352437
0.0035276
0.00350786
0.00352698
0.00352448
0.00351117
0.0035084
0.00352437
0.0035276
0.00350786
0.00352838
0.00350792
0.00352706
0.00350903
0.00352838
0.00350793
0.00352706
0.00350903
0.00355286
0.003533
0.00355287
0.003533
0.00352695
0.00350859
0.00350859
0.0035279
0.0035279
0.00350752
0.00352656
0.00350752
0.00352656
0.00350097
0.0034812
0.00350097
0.0034812
0.00350197
0.00350197
0.00348158
0.00348203
0.00348203
0.00345499
0.00347458
0.00345499
0.00347458
0.00347464
0.00345566
0.00345566
0.00347538
0.00347538
0.00348251
0.00350133
0.00350241
0.00348148
0.0034816
0.00350173
0.00349797
0.00348495
0.00350116
0.00348197
0.00348484
0.0034816
0.00350173
0.00349797
0.00348495
0.00350116
0.00348197
0.00348484
0.00347583
0.00345521
0.00347484
0.0034561
0.00347583
0.00345521
0.00347484
0.0034561
0.00347489
0.00347186
0.00345568
0.00345876
0.00347527
0.00347178
0.00345543
0.00347489
0.00347186
0.00345568
0.00345876
0.00347527
0.00347178
0.00345543
0.00350197
0.00350197
0.00348158
0.00348203
0.00348203
0.00350097
0.0034812
0.00345499
0.00347458
0.00347464
0.00345566
0.00345566
0.00347538
0.00347538
0.00345499
0.00347458
0.0034816
0.00350173
0.00349797
0.00348495
0.00350116
0.00348197
0.00348484
0.00348251
0.00350133
0.00350241
0.00348148
0.0034816
0.00349797
0.00350173
0.00348495
0.00350116
0.00348484
0.00348197
0.00347584
0.00345521
0.00347484
0.0034561
0.00347489
0.00347186
0.00345568
0.00345876
0.00347527
0.00347178
0.00345543
0.00347584
0.00345521
0.00347484
0.0034561
0.00347489
0.00347186
0.00345876
0.00345568
0.00347178
0.00347527
0.00345543
0.00348251
0.00350133
0.00350241
0.00348148
0.0034816
0.00349797
0.00350173
0.00348495
0.00350116
0.00348484
0.00348197
0.00348251
0.00350133
0.00350241
0.00348148
0.00347489
0.00347186
0.00345569
0.00345876
0.00347527
0.00347178
0.00345543
0.00347583
0.00345521
0.00347484
0.0034561
0.00347489
0.00347186
0.00345876
0.00345568
0.00347178
0.00347527
0.00345543
0.00347584
0.00345521
0.00347484
0.0034561
0.00350197
0.00350197
0.00348158
0.00348203
0.00348203
0.00350097
0.0034812
0.00345499
0.00347458
0.00347464
0.00345566
0.00345566
0.00347538
0.00347538
0.00345499
0.00347458
0.0034816
0.00349797
0.00350173
0.00348495
0.00350116
0.00348484
0.00348197
0.00348251
0.00350133
0.00350241
0.00348148
0.00348251
0.00350133
0.00350241
0.00348148
0.00347489
0.00347186
0.00345876
0.00345569
0.00347178
0.00347527
0.00345543
0.00347489
0.00347186
0.00345876
0.00345568
0.00347178
0.00347527
0.00345543
0.00347584
0.00345521
0.00347484
0.0034561
0.00347583
0.00345521
0.00347484
0.0034561
0.00350097
0.0034812
0.00350097
0.0034812
0.00347464
0.00345566
0.00345566
0.00347538
0.00347538
0.00345499
0.00347458
0.00345499
0.00347458
0.00344845
0.00342906
0.00344845
0.00342906
0.0034491
0.0034491
0.00342954
0.00342962
0.00342962
0.0034034
0.00342258
0.0034034
0.00342258
0.00342274
0.00340389
0.00340389
0.00342313
0.00342313
0.00343001
0.00344866
0.00344952
0.00342924
0.0034295
0.00344907
0.00344577
0.00343287
0.00344878
0.00342968
0.00343283
0.0034295
0.00344906
0.00344577
0.00343287
0.00344878
0.00342968
0.00343283
0.00342349
0.00340356
0.00342275
0.00340421
0.00342349
0.00340356
0.00342275
0.00340421
0.00342291
0.00341998
0.00340398
0.00340714
0.00342313
0.00341995
0.00340384
0.00342291
0.00341998
0.00340398
0.00340714
0.00342313
0.00341995
0.00340384
0.0034491
0.0034491
0.00342954
0.00342962
0.00342962
0.00344845
0.00342906
0.0034034
0.00342258
0.00342274
0.00340389
0.00340389
0.00342313
0.00342313
0.0034034
0.00342258
0.0034295
0.00344906
0.00344577
0.00343287
0.00344878
0.00342968
0.00343283
0.00343001
0.00344866
0.00344952
0.00342924
0.0034295
0.00344577
0.00344906
0.00343287
0.00344878
0.00343283
0.00342968
0.00342349
0.00340356
0.00342275
0.00340421
0.00342291
0.00341998
0.00340398
0.00340714
0.00342313
0.00341995
0.00340384
0.00342349
0.00340356
0.00342275
0.00340421
0.00342291
0.00341998
0.00340713
0.00340398
0.00341994
0.00342313
0.00340384
0.00343001
0.00344866
0.00344952
0.00342924
0.0034295
0.00344577
0.00344906
0.00343287
0.00344878
0.00343283
0.00342968
0.00343001
0.00344866
0.00344952
0.00342924
0.00342291
0.00341998
0.00340398
0.00340714
0.00342313
0.00341995
0.00340384
0.00342349
0.00340356
0.00342275
0.00340421
0.00342291
0.00341998
0.00340714
0.00340398
0.00341995
0.00342313
0.00340384
0.00342349
0.00340356
0.00342275
0.00340421
0.0034491
0.0034491
0.00342954
0.00342962
0.00342962
0.00344845
0.00342906
0.0034034
0.00342258
0.00342274
0.00340389
0.00340389
0.00342313
0.00342313
0.0034034
0.00342258
0.0034295
0.00344577
0.00344906
0.00343287
0.00344878
0.00343283
0.00342968
0.00343001
0.00344866
0.00344952
0.00342924
0.00343001
0.00344866
0.00344952
0.00342924
0.00342291
0.00341998
0.00340714
0.00340398
0.00341995
0.00342313
0.00340384
0.00342291
0.00341998
0.00340714
0.00340398
0.00341995
0.00342313
0.00340384
0.00342349
0.00340356
0.00342275
0.00340421
0.00342349
0.00340356
0.00342275
0.00340421
0.00344845
0.00342906
0.00344845
0.00342906
0.00342274
0.00340389
0.00340389
0.00342313
0.00342313
0.0034034
0.00342258
0.0034034
0.00342258
0.00339701
0.00337811
0.00339701
0.00337811
0.00339749
0.00339749
0.00337861
0.00337854
0.00337854
0.00335319
0.00337181
0.00335319
0.00337181
0.003372
0.00335359
0.00335359
0.00337224
0.00337224
0.0033788
0.00339716
0.00339779
0.00337824
0.00337853
0.00339751
0.00339441
0.00338181
0.00339734
0.00337864
0.00338178
0.00337853
0.00339751
0.00339441
0.00338181
0.00339734
0.00337864
0.00338178
0.00337247
0.00335331
0.00337194
0.00335378
0.00337247
0.00335331
0.00337194
0.00335378
0.00337212
0.00336927
0.00335368
0.00335679
0.00337226
0.00336924
0.0033536
0.00337212
0.00336926
0.00335368
0.00335679
0.00337226
0.00336924
0.0033536
0.00339749
0.00339749
0.00337861
0.00337854
0.00337855
0.00339701
0.00337811
0.00335319
0.00337181
0.003372
0.00335359
0.00335359
0.00337224
0.00337224
0.00335319
0.00337181
0.00337853
0.00339751
0.00339441
0.0033818
0.00339734
0.00337864
0.00338178
0.0033788
0.00339716
0.00339779
0.00337824
0.00337853
0.00339441
0.00339751
0.00338181
0.00339734
0.00338178
0.00337864
0.00337247
0.00335331
0.00337194
0.00335378
0.00337212
0.00336926
0.00335368
0.00335679
0.00337226
0.00336924
0.00335359
0.00337247
0.00335331
0.00337194
0.00335378
0.00337212
0.00336926
0.00335679
0.00335368
0.00336924
0.00337226
0.00335359
0.0033788
0.00339716
0.00339779
0.00337824
0.00337853
0.00339441
0.00339751
0.00338181
0.00339734
0.00338178
0.00337863
0.0033788
0.00339716
0.00339779
0.00337824
0.00337212
0.00336926
0.00335368
0.00335679
0.00337226
0.00336924
0.0033536
0.00337247
0.00335331
0.00337194
0.00335378
0.00337212
0.00336926
0.00335679
0.00335368
0.00336924
0.00337226
0.00335359
0.00337247
0.00335331
0.00337194
0.00335378
0.00339749
0.00339749
0.00337861
0.00337854
0.00337855
0.00339701
0.00337811
0.00335319
0.00337181
0.003372
0.00335359
0.00335359
0.00337225
0.00337224
0.00335319
0.00337181
0.00337853
0.00339441
0.00339751
0.00338181
0.00339734
0.00338178
0.00337863
0.0033788
0.00339716
0.00339779
0.00337824
0.0033788
0.00339716
0.00339779
0.00337824
0.00337212
0.00336926
0.00335679
0.00335368
0.00336924
0.00337226
0.00335359
0.00337212
0.00336926
0.00335679
0.00335368
0.00336924
0.00337226
0.00335359
0.00337247
0.00335331
0.00337194
0.00335378
0.00337247
0.00335331
0.00337194
0.00335378
0.00339701
0.00337811
0.00339701
0.00337811
0.003372
0.00335359
0.00335359
0.00337225
0.00337225
0.00335319
0.00337181
0.00335319
0.00337181
0.00334698
0.00332864
0.00334698
0.00332864
0.00334739
0.00334738
0.00332912
0.00332902
0.00332901
0.00330446
0.00332253
0.00330445
0.00332253
0.00332273
0.0033048
0.0033048
0.0033229
0.0033229
0.00332915
0.0033471
0.00334756
0.00332875
0.00332903
0.0033474
0.00334444
0.0033322
0.00334728
0.0033291
0.00333217
0.00332903
0.0033474
0.00334444
0.0033322
0.00334728
0.0033291
0.00333217
0.00332302
0.00330455
0.00332263
0.00330488
0.00332302
0.00330456
0.00332263
0.00330488
0.00332281
0.00332003
0.00330488
0.00330791
0.00332291
0.00332
0.00330482
0.00332281
0.00332002
0.00330489
0.00330791
0.00332291