/*--------------------------------*- C++ -*----------------------------------*\
| =========                 |                                                 |
| \\      /  F ield         | OpenFOAM: The Open Source CFD Toolbox           |
|  \\    /   O peration     | Version:  2312                                  |
|   \\  /    A nd           | Website:  www.openfoam.com                      |
|    \\/     M anipulation  |                                                 |
\*---------------------------------------------------------------------------*/
FoamFile
{
    version     2.0;
    format      ascii;
    arch        "LSB;label=32;scalar=64";
    class       surfaceScalarField;
    location    "625";
    object      phi;
}
// * * * * * * * * * * * * * * * * * * * * * * * * * * * * * * * * * * * * * //

dimensions      [0 3 -1 0 0 0 0];

oriented        oriented;

internalField   nonuniform List<scalar> 
125397
(
-0.000260899
-3.9613e-06
-3.95675e-06
3.15348e-06
3.16137e-06
0.000262502
-0.00026147
-3.75459e-06
3.95647e-06
-4.51671e-06
2.97044e-06
0.000262815
-0.000261463
-3.75972e-06
3.95644e-06
2.97055e-06
-4.51425e-06
0.00026281
-0.000261159
3.75112e-06
3.7597e-06
-4.23388e-06
-4.22708e-06
0.000262109
-1.77522e-06
-1.77684e-06
-0.00106079
1.0049e-06
1.00629e-06
0.00106233
-0.00106272
-1.63876e-06
1.77644e-06
8.94162e-07
0.00106396
-6.72959e-07
7.67579e-07
-1.60632e-07
3.55205e-07
-8.26682e-07
-1.42935e-06
-3.07213e-07
-0.00106261
-1.6387e-06
1.78165e-06
8.94108e-07
0.00106384
-6.75564e-07
7.67577e-07
-1.581e-07
3.55248e-07
-8.2923e-07
-1.42933e-06
-3.07137e-07
-0.000261524
1.66599e-06
1.62854e-06
-7.37846e-07
-7.43505e-07
0.000259711
-1.36169e-06
-1.36256e-06
-0.00106652
6.83536e-07
6.7935e-07
0.00106788
-0.00106786
-1.55987e-06
1.36252e-06
6.99535e-07
0.0010692
-6.24569e-07
8.38046e-07
-1.0453e-07
4.25827e-07
-7.79781e-07
-1.35553e-06
-2.42493e-07
-0.00106774
-1.55463e-06
1.3625e-06
6.94457e-07
0.00106909
-6.2459e-07
8.3271e-07
-1.04568e-07
4.25865e-07
-7.79744e-07
-1.35289e-06
-2.42454e-07
-0.000262743
1.59e-06
1.54696e-06
-6.75237e-07
-6.78271e-07
0.00026096
-1.34152e-06
-1.34252e-06
-0.00107199
6.64339e-07
6.65368e-07
0.00107334
-0.00107321
-1.55675e-06
1.34241e-06
6.66564e-07
0.00107453
-6.21073e-07
8.626e-07
-8.25231e-08
4.38695e-07
-7.82685e-07
-1.3691e-06
-2.18192e-07
-0.00107309
-1.5541e-06
1.34233e-06
6.71907e-07
0.0010744
-6.1842e-07
8.5991e-07
-8.50431e-08
4.38678e-07
-7.82657e-07
-1.36905e-06
-2.18174e-07
-0.000264021
1.58436e-06
1.54899e-06
-6.65802e-07
-6.68848e-07
0.000262223
-1.29589e-06
-1.29683e-06
-0.00107734
6.42084e-07
6.43121e-07
0.00107864
-0.00107838
-1.54819e-06
1.2967e-06
6.31867e-07
0.00107964
-6.08124e-07
8.9077e-07
-5.69395e-08
4.6085e-07
-7.71012e-07
-1.37133e-06
-1.86574e-07
-0.00107826
-1.54554e-06
1.29661e-06
6.37247e-07
0.00107952
-6.05467e-07
8.88103e-07
-5.93865e-08
4.60756e-07
-7.71034e-07
-1.37133e-06
-1.86528e-07
-0.00026524
1.57595e-06
1.5404e-06
-6.48425e-07
-6.51477e-07
0.000263424
-1.24884e-06
-1.24967e-06
-0.00108249
6.2056e-07
6.21628e-07
0.00108375
-0.00108332
-1.53972e-06
1.24951e-06
6.01655e-07
0.00108452
-5.95796e-07
9.16438e-07
-3.47228e-08
4.8498e-07
-7.56771e-07
-1.36896e-06
-1.56046e-07
-0.0010832
-1.53704e-06
1.24939e-06
6.07041e-07
0.00108439
-5.93016e-07
9.13755e-07
-3.70766e-08
4.84918e-07
-7.56798e-07
-1.36909e-06
-1.55949e-07
-0.000266385
1.5677e-06
1.53198e-06
-6.31597e-07
-6.34645e-07
0.000264552
-1.20493e-06
-1.20553e-06
-0.00108744
6.01147e-07
6.02269e-07
0.00108865
-0.001088
-1.5331e-06
1.20545e-06
5.77501e-07
0.00108914
-5.86326e-07
9.39286e-07
-1.62575e-08
5.09585e-07
-7.42975e-07
-1.36488e-06
-1.28054e-07
-0.00108788
-1.53034e-06
1.20524e-06
5.82805e-07
0.00108902
-5.8332e-07
9.36563e-07
-1.85767e-08
5.09623e-07
-7.42998e-07
-1.36502e-06
-1.27991e-07
-0.000267457
1.56123e-06
1.52536e-06
-6.171e-07
-6.20165e-07
0.000265608
-1.16604e-06
-1.16726e-06
-0.0010922
5.84776e-07
5.85845e-07
0.00109336
-0.00109245
-1.52858e-06
1.16724e-06
5.59113e-07
0.00109354
-5.7982e-07
9.59478e-07
-1.96932e-09
5.33568e-07
-7.30804e-07
-1.36089e-06
-1.0321e-07
-0.00109233
-1.52584e-06
1.16705e-06
5.64584e-07
0.00109341
-5.76798e-07
9.56625e-07
-3.92907e-09
5.33583e-07
-7.30804e-07
-1.3609e-06
-1.03206e-07
-0.00026846
1.55698e-06
1.52087e-06
-6.05215e-07
-6.08302e-07
0.000266596
-1.13244e-06
-1.13359e-06
-0.00109679
5.70764e-07
5.71542e-07
0.00109791
-0.0010967
-1.52729e-06
1.13368e-06
5.45127e-07
0.00109773
-5.76573e-07
9.76233e-07
1.59364e-08
5.56122e-07
-7.20413e-07
-1.35773e-06
-8.1615e-08
-0.00109658
-1.52446e-06
1.1337e-06
5.50608e-07
0.00109761
-5.73463e-07
9.73435e-07
1.25267e-08
5.56156e-07
-7.20294e-07
-1.35763e-06
-8.1494e-08
-0.0002694
1.55557e-06
1.51937e-06
-5.96714e-07
-5.99744e-07
0.000267521
-1.10397e-06
-1.10493e-06
-0.00110123
5.5911e-07
5.59862e-07
0.00110232
-0.00110075
-1.52754e-06
1.10503e-06
5.34218e-07
0.00110174
-5.74669e-07
9.91371e-07
3.01087e-08
5.77477e-07
-7.10963e-07
-1.35512e-06
-6.27096e-08
-0.00110063
-1.5247e-06
1.10496e-06
5.3969e-07
0.00110162
-5.71496e-07
9.88587e-07
2.7023e-08
5.77424e-07
-7.10908e-07
-1.35498e-06
-6.26499e-08
-0.000270281
1.55606e-06
1.51972e-06
-5.90361e-07
-5.93483e-07
0.000268389
-1.07921e-06
-1.0801e-06
-0.00110555
5.49246e-07
5.50004e-07
0.00110661
-0.00110464
-1.52868e-06
1.08009e-06
5.24907e-07
0.00110559
-5.73823e-07
1.00559e-06
4.24078e-08
5.97572e-07
-7.01779e-07
-1.35243e-06
-4.64351e-08
-0.00110452
-1.52584e-06
1.07996e-06
5.30351e-07
0.00110546
-5.70653e-07
1.00285e-06
3.96278e-08
5.97538e-07
-7.01733e-07
-1.35229e-06
-4.64146e-08
-0.000271108
1.55738e-06
1.52091e-06
-5.85078e-07
-5.88172e-07
0.000269203
-1.05659e-06
-1.05744e-06
-0.00110974
5.40217e-07
5.40963e-07
0.00111078
-0.00110837
-1.53012e-06
1.05728e-06
5.15733e-07
0.00110928
-5.7291e-07
1.01927e-06
5.39938e-08
6.16037e-07
-6.91929e-07
-1.34901e-06
-3.25377e-08
-0.00110824
-1.52731e-06
1.05708e-06
5.21148e-07
0.00110915
-5.70077e-07
1.01664e-06
5.15694e-08
6.1616e-07
-6.91752e-07
-1.34878e-06
-3.2507e-08
-0.000271883
1.55896e-06
1.52236e-06
-5.80089e-07
-5.83153e-07
0.000269965
-1.03489e-06
-1.03577e-06
-0.00111384
5.3141e-07
5.32164e-07
0.00111484
-0.00111194
-1.53151e-06
1.0355e-06
5.06112e-07
0.00111282
-5.71971e-07
1.03288e-06
6.50268e-08
6.33194e-07
-6.80599e-07
-1.34419e-06
-2.03872e-08
-0.00111182
-1.52882e-06
1.03545e-06
5.11671e-07
0.00111269
-5.69496e-07
1.03019e-06
6.20942e-08
6.3333e-07
-6.80492e-07
-1.34411e-06
-2.02399e-08
-0.000272607
1.5603e-06
1.52359e-06
-5.75054e-07
-5.78191e-07
0.000270676
-1.01374e-06
-1.01455e-06
-0.00111783
5.22694e-07
5.23464e-07
0.00111881
-0.00111537
-1.53327e-06
1.01479e-06
4.96278e-07
0.00111621
-5.70199e-07
1.0456e-06
7.37117e-08
6.49062e-07
-6.67888e-07
-1.33802e-06
-9.59062e-09
-0.00111525
-1.53052e-06
1.01474e-06
5.01862e-07
0.00111608
-5.67368e-07
1.04276e-06
7.058e-08
6.49143e-07
-6.67889e-07
-1.33799e-06
-9.48139e-09
-0.000273276
1.56182e-06
1.525e-06
-5.70203e-07
-5.73254e-07
0.000271332
-9.93053e-07
-9.9382e-07
-0.00112172
5.13916e-07
5.14689e-07
0.00112268
-0.00111865
-1.53348e-06
9.93619e-07
4.85782e-07
0.00111945
-5.65473e-07
1.05854e-06
8.25428e-08
6.6279e-07
-6.53952e-07
-1.33035e-06
-1.21844e-09
-0.00111853
-1.5307e-06
9.93482e-07
4.91138e-07
0.00111932
-5.62629e-07
1.05582e-06
7.98333e-08
6.62804e-07
-6.53874e-07
-1.33023e-06
-1.17536e-09
-0.000273891
1.56242e-06
1.52553e-06
-5.62935e-07
-5.65982e-07
0.000271932
-9.72179e-07
-9.72341e-07
-0.00112552
5.0478e-07
5.05366e-07
0.00112645
-0.00112177
-1.53338e-06
9.72428e-07
4.73004e-07
0.00112254
-5.6027e-07
1.07077e-06
9.01838e-08
6.74847e-07
-6.3887e-07
-1.32133e-06
1.05504e-08
-0.00112165
-1.53066e-06
9.72223e-07
4.78548e-07
0.00112241
-5.57561e-07
1.06795e-06
8.72009e-08
6.7499e-07
-6.38756e-07
-1.3212e-06
1.07664e-08
-0.000274447
1.56211e-06
1.52523e-06
-5.55095e-07
-5.58205e-07
0.000272473
-9.50495e-07
-9.51236e-07
-0.00112922
4.95139e-07
4.95768e-07
0.00113013
-0.00112474
-1.53242e-06
9.51142e-07
4.61393e-07
0.00112546
-5.52843e-07
1.08212e-06
9.73339e-08
6.85317e-07
-6.22859e-07
-1.31096e-06
2.03016e-08
-0.00112462
-1.52964e-06
9.50962e-07
4.66979e-07
0.00112533
-5.50025e-07
1.07934e-06
9.44799e-08
6.8536e-07
-6.22812e-07
-1.31087e-06
2.0403e-08
-0.000274941
1.56125e-06
1.52435e-06
-5.46918e-07
-5.49933e-07
0.000272952
-9.28745e-07
-9.29452e-07
-0.00113283
4.84885e-07
4.85562e-07
0.00113372
-0.00112755
-1.53038e-06
9.29363e-07
4.55738e-07
0.00112822
-5.43598e-07
1.09278e-06
1.04307e-07
6.94362e-07
-6.06153e-07
-1.29924e-06
2.876e-08
-0.00112742
-1.52766e-06
9.2939e-07
4.55861e-07
0.00112809
-5.4085e-07
1.08992e-06
1.01341e-07
6.94456e-07
-6.0611e-07
-1.29914e-06
2.88855e-08
-0.00027537
1.55932e-06
1.52232e-06
-5.37677e-07
-5.40686e-07
0.000273367
-9.07452e-07
-9.07862e-07
-0.00113635
4.74905e-07
4.75672e-07
0.00113721
-0.00113018
-1.5274e-06
9.07832e-07
4.45293e-07
0.00113081
-5.33185e-07
1.10233e-06
1.10518e-07
7.027e-07
-5.89103e-07
-1.28598e-06
3.63118e-08
-0.00113005
-1.52466e-06
9.07761e-07
4.45449e-07
0.00113068
-5.304e-07
1.09949e-06
1.07585e-07
7.02754e-07
-5.89015e-07
-1.28592e-06
3.64831e-08
-0.000275731
1.55645e-06
1.51936e-06
-5.27728e-07
-5.30754e-07
0.000273714
-8.86286e-07
-8.86807e-07
-0.00113977
4.65304e-07
4.66111e-07
0.00114061
-0.00113263
-1.5232e-06
8.8688e-07
4.29497e-07
0.00113322
-5.21642e-07
1.11087e-06
1.16201e-07
7.10264e-07
-5.71992e-07
-1.27142e-06
4.32346e-08
-0.0011325
-1.52044e-06
8.86825e-07
4.35052e-07
0.00113309
-5.18873e-07
1.10811e-06
1.13313e-07
7.10234e-07
-5.71949e-07
-1.27136e-06
4.33712e-08
-0.000276022
1.55229e-06
1.51513e-06
-5.16763e-07
-5.19768e-07
0.000273991
-8.65762e-07
-8.66303e-07
-0.0011431
4.56262e-07
4.57006e-07
0.00114392
-0.0011349
-1.51777e-06
8.66145e-07
4.19866e-07
0.00113545
-5.09486e-07
1.11851e-06
1.21515e-07
7.1734e-07
-5.54946e-07
-1.2556e-06
4.96822e-08
-0.00113478
-1.51495e-06
8.66108e-07
4.25515e-07
-5.06779e-07
1.11577e-06
1.18548e-07
7.17326e-07
-5.54898e-07
-1.25558e-06
4.9838e-08
-0.000276242
1.54687e-06
1.50967e-06
-5.0498e-07
-5.07975e-07
0.000274198
4.90981e-06
4.92067e-06
0.00026121
-0.00025962
-5.71645e-06
-5.70449e-06
5.15733e-06
0.000261468
-0.000259454
-6.14602e-06
3.88445e-06
-4.91472e-06
5.15191e-06
0.00026146
-0.000259438
-6.15054e-06
3.89181e-06
4.91009e-06
0.00026119
-0.000259594
-5.68962e-06
-5.73059e-06
5.15008e-06
0.000261506
-0.000259471
-6.15091e-06
3.88688e-06
5.14946e-06
-4.91216e-06
0.000261455
-0.000259431
3.88921e-06
-6.15058e-06
-0.000258103
3.75434e-06
3.7568e-06
-5.14732e-06
0.000260876
-0.000258087
3.75666e-06
3.75406e-06
-5.14478e-06
0.000260871
-0.000258082
3.75413e-06
3.75161e-06
-5.15174e-06
-5.14198e-06
0.00026085
-0.000258062
3.75141e-06
3.75395e-06
-0.000259446
-6.1406e-06
3.87908e-06
-4.90669e-06
0.000261417
-0.000259408
3.88141e-06
-6.13515e-06
4.90502e-06
0.000261185
-0.000259589
-5.68715e-06
-5.72542e-06
-0.000259444
3.87661e-06
-6.13554e-06
-4.91511e-06
0.000261458
-0.000259431
3.88662e-06
-6.14021e-06
-0.000259577
-5.70818e-06
-5.69616e-06
3.75171e-06
3.76017e-06
-4.23714e-06
-4.23274e-06
0.000262168
-7.40751e-07
-6.99434e-07
0.000261591
-0.000259518
-3.17628e-07
-3.1531e-07
-4.52471e-06
2.9707e-06
0.000262812
-3.75668e-06
3.96099e-06
-4.52929e-06
2.98067e-06
0.000262804
0.00106222
2.37803e-06
-0.00106122
1.14834e-06
-1.80474e-06
-2.01958e-07
-7.5106e-07
-1.56153e-06
-3.53139e-07
-8.96966e-07
2.94733e-07
7.35544e-07
0.00106231
2.37272e-06
-0.00106129
1.14813e-06
-1.79978e-06
-2.04593e-07
-7.51342e-07
-1.56122e-06
-3.50303e-07
-8.99209e-07
2.94738e-07
-4.23143e-06
-4.23261e-06
0.000262143
-7.01941e-07
0.000261575
-0.000259502
-3.20488e-07
-3.15089e-07
-4.52969e-06
2.97318e-06
0.000262866
-3.75674e-06
3.96364e-06
2.98321e-06
-4.52934e-06
0.000262794
0.00106314
2.38535e-06
-0.00106211
1.12664e-06
-1.76747e-06
-2.07152e-07
-7.516e-07
-1.56156e-06
-3.50535e-07
-8.9953e-07
2.94595e-07
7.35575e-07
0.00106219
2.38236e-06
-0.0010612
1.1583e-06
-1.79969e-06
-2.02026e-07
-7.5124e-07
-1.56111e-06
-3.50123e-07
-8.98939e-07
2.92155e-07
3.95824e-06
2.9779e-06
-4.51897e-06
0.000262751
2.37975e-06
-0.0010617
1.13697e-06
-1.76977e-06
-2.06954e-07
-7.48608e-07
-1.55616e-06
-3.50581e-07
2.89285e-07
-8.99454e-07
7.32769e-07
0.00106183
2.38238e-06
-0.00106084
1.15844e-06
-1.79679e-06
-2.01938e-07
-7.5097e-07
-1.55581e-06
-3.52757e-07
-8.96402e-07
2.86763e-07
-4.23411e-06
-4.23006e-06
0.000262132
-6.96759e-07
0.00026156
-0.000259492
-3.2036e-07
-3.15074e-07
3.95629e-06
2.97544e-06
-4.52407e-06
0.00026281
2.38994e-06
-0.0010616
1.14707e-06
-1.76704e-06
-2.06816e-07
-7.48425e-07
-1.55623e-06
-3.48032e-07
2.89343e-07
-8.9941e-07
6.88818e-07
0.00106275
2.3901e-06
-0.00106174
1.14177e-06
-1.75945e-06
-2.07078e-07
-7.48807e-07
-1.55327e-06
-3.52849e-07
-8.96689e-07
2.86583e-07
-0.000259467
-3.20307e-07
-3.15302e-07
1.67396e-06
1.63907e-06
-7.35227e-07
-7.41039e-07
0.000259754
-8.72258e-07
-8.31019e-07
0.000262808
-0.000260684
-2.15145e-07
-2.04943e-07
8.95331e-07
0.00106346
-6.78204e-07
8.0625e-07
-1.55788e-07
3.63291e-07
-8.26636e-07
-1.43476e-06
-3.04685e-07
-1.67411e-06
1.77994e-06
9.05425e-07
0.00106353
-6.81064e-07
8.0634e-07
-1.53324e-07
3.66085e-07
-8.31552e-07
-1.43697e-06
-3.01873e-07
0.00106736
1.37355e-06
-0.00106603
7.10111e-07
-1.59941e-06
-1.02842e-07
-6.30724e-07
-1.35519e-06
-2.50077e-07
-7.75533e-07
4.2794e-07
8.64416e-07
0.00106744
1.37322e-06
-0.0010661
7.04807e-07
-1.59437e-06
-1.05371e-07
-6.2831e-07
-1.35751e-06
-2.44875e-07
-7.77925e-07
4.30532e-07
-7.38308e-07
-7.40447e-07
0.000259741
-8.33486e-07
0.000262787
-0.000260672
-2.10086e-07
-2.07463e-07
8.99426e-07
0.00106437
-6.76045e-07
7.67699e-07
-1.58331e-07
3.63147e-07
-8.29406e-07
-1.43469e-06
-3.02235e-07
-1.66886e-06
1.77965e-06
9.0544e-07
0.00106342
-6.81008e-07
7.98482e-07
-1.53321e-07
3.60699e-07
-8.26236e-07
-1.43171e-06
-3.06729e-07
0.00106828
1.37446e-06
-0.00106696
7.14324e-07
-1.55639e-06
-1.07734e-07
-6.23077e-07
-1.35259e-06
-2.47559e-07
-7.75675e-07
4.25136e-07
8.61791e-07
0.00106732
1.37308e-06
-0.00106599
7.04865e-07
-1.58909e-06
-1.07825e-07
-6.2828e-07
-1.35234e-06
-2.47323e-07
-7.75238e-07
4.25167e-07
1.77465e-06
9.05533e-07
0.00106305
-6.80763e-07
7.98303e-07
-1.53241e-07
3.57933e-07
-8.26241e-07
-3.0436e-07
-1.42637e-06
1.37956e-06
-0.00106653
7.03872e-07
-1.56133e-06
-1.07636e-07
-6.25441e-07
-1.35255e-06
-2.50098e-07
4.25057e-07
-7.75591e-07
8.6426e-07
0.00106695
1.37316e-06
-0.00106563
7.09974e-07
-1.58876e-06
-1.05228e-07
-6.27981e-07
-1.34961e-06
-2.44897e-07
-7.75168e-07
4.25106e-07
-7.3824e-07
-7.37864e-07
0.000259729
-8.30793e-07
0.000262769
-0.000260656
-2.12751e-07
-2.07405e-07
1.7766e-06
8.9923e-07
0.00106398
-6.75884e-07
7.5704e-07
-1.60784e-07
3.57826e-07
-8.26524e-07
-3.0448e-07
-1.42909e-06
1.37443e-06
-0.00106641
7.09188e-07
-1.55872e-06
-1.07649e-07
-6.25431e-07
-1.34728e-06
-2.50063e-07
4.1976e-07
-7.75541e-07
8.20269e-07
0.00106789
1.37949e-06
-0.00106656
7.09026e-07
-1.54847e-06
-1.1269e-07
-6.23047e-07
-1.34957e-06
-2.47393e-07
-7.78024e-07
4.22346e-07
-0.000260636
-2.12679e-07
-2.10209e-07
1.59537e-06
1.55751e-06
-6.72601e-07
-6.80864e-07
0.000261008
-8.97112e-07
-8.55636e-07
0.000264091
-0.000261961
-1.902e-07
-1.878e-07
7.00518e-07
0.00106869
-6.29842e-07
8.76875e-07
-9.97183e-08
4.28703e-07
-7.79697e-07
-1.35827e-06
-2.42474e-07
-1.59292e-06
1.36658e-06
6.95227e-07
0.00106877
-6.30105e-07
8.74277e-07
-9.98356e-08
4.3131e-07
-7.79501e-07
-1.35793e-06
-2.42235e-07
0.0010727
1.35093e-06
-0.00107138
6.81231e-07
-1.59912e-06
-8.42991e-08
-6.29016e-07
-1.37247e-06
-2.25746e-07
-7.84281e-07
4.39426e-07
8.91801e-07
0.00107278
1.35064e-06
-0.00107146
6.8112e-07
-1.59408e-06
-8.69103e-08
-6.26529e-07
-1.37217e-06
-2.28078e-07
-7.81469e-07
4.39376e-07
-6.78257e-07
-6.82988e-07
0.000260995
-8.55457e-07
0.000264073
-0.000261951
-1.90409e-07
-1.85136e-07
6.94312e-07
0.00106963
-6.2751e-07
8.35549e-07
-1.0469e-07
4.31194e-07
-7.79891e-07
-1.35822e-06
-2.42421e-07
-1.59027e-06
1.36643e-06
7.00579e-07
0.00106865
-6.30033e-07
8.71651e-07
-9.98218e-08
4.31308e-07
-7.79494e-07
-1.35799e-06
-2.44675e-07
0.00107364
1.35195e-06
-0.00107231
6.80215e-07
-1.55851e-06
-8.92331e-08
-6.24006e-07
-1.37244e-06
-2.23225e-07
-7.87108e-07
4.39305e-07
8.86514e-07
0.00107266
1.35064e-06
-0.00107134
6.81248e-07
-1.58877e-06
-8.44008e-08
-6.29156e-07
-1.3722e-06
-2.28004e-07
-7.81472e-07
4.39436e-07
1.36124e-06
7.0041e-07
0.0010683
-6.29741e-07
8.66205e-07
-1.02168e-07
4.2319e-07
-7.79395e-07
-2.47216e-07
-1.35262e-06
1.35183e-06
-0.00107188
6.85475e-07
-1.55828e-06
-8.90937e-08
-6.23697e-07
-1.36708e-06
-2.25791e-07
4.33947e-07
-7.84363e-07
8.83741e-07
0.0010723
1.35055e-06
-0.00107098
6.81066e-07
-1.58586e-06
-8.67266e-08
-6.26201e-07
-1.3642e-06
-2.3058e-07
-7.78758e-07
4.31235e-07
-6.75703e-07
-6.80348e-07
0.00026098
-8.52775e-07
0.00026405
-0.000261935
-1.90356e-07
-1.85142e-07
1.36768e-06
6.99483e-07
0.00106922
-6.22118e-07
8.27412e-07
-1.07165e-07
4.2309e-07
-7.76993e-07
-2.44763e-07
-1.34997e-06
1.35176e-06
-0.00107176
6.80303e-07
-1.55563e-06
-9.16121e-08
-6.21029e-07
-1.36707e-06
-2.2575e-07
4.33905e-07
-7.8434e-07
8.47481e-07
0.00107323
1.35181e-06
-0.0010719
6.80175e-07
-1.55054e-06
-8.92332e-08
-6.23896e-07
-1.36945e-06
-2.25552e-07
-7.84219e-07
4.3654e-07
-0.000261912
-1.90385e-07
-1.87822e-07
1.59763e-06
1.55697e-06
-6.6575e-07
-6.68898e-07
0.000262272
-9.25789e-07
-8.84145e-07
0.000265311
-0.000263179
-1.62012e-07
-1.59553e-07
6.72836e-07
0.00107402
-6.26384e-07
9.04294e-07
-7.77566e-08
4.44209e-07
-7.82609e-07
-1.37446e-06
-2.18145e-07
-1.5926e-06
1.34123e-06
6.72708e-07
0.0010741
-6.23907e-07
8.98983e-07
-8.03364e-08
4.4415e-07
-7.79809e-07
-1.37417e-06
-2.20503e-07
0.00107788
1.30764e-06
-0.00107661
6.46534e-07
-1.5915e-06
-5.82994e-08
-6.16826e-07
-1.37678e-06
-1.94424e-07
-7.74323e-07
4.60536e-07
9.20447e-07
0.00107796
1.30739e-06
-0.00107669
6.4645e-07
-1.58646e-06
-6.0902e-08
-6.14342e-07
-1.37649e-06
-1.96809e-07
-7.71525e-07
4.60484e-07
-6.66305e-07
-6.71027e-07
0.000262261
-8.83955e-07
0.000265293
-0.000263169
-1.62217e-07
-1.56931e-07
6.71814e-07
0.00107495
-6.21367e-07
8.62774e-07
-8.2682e-08
4.44104e-07
-7.85437e-07
-1.37442e-06
-2.15618e-07
-1.58729e-06
1.34125e-06
6.7284e-07
0.00107398
-6.26553e-07
8.93685e-07
-7.78356e-08
4.44223e-07
-7.79801e-07
-1.37419e-06
-2.20434e-07
0.00107882
1.30861e-06
-0.00107754
6.45519e-07
-1.55069e-06
-6.31905e-08
-6.11792e-07
-1.37674e-06
-1.91897e-07
-7.77176e-07
4.60423e-07
9.15107e-07
0.00107784
1.30741e-06
-0.00107657
6.46553e-07
-1.58113e-06
-5.84437e-08
-6.16978e-07
-1.3765e-06
-1.96714e-07
-7.71517e-07
4.60565e-07
1.34114e-06
6.72667e-07
0.00107362
-6.23569e-07
8.9091e-07
-8.01714e-08
4.36012e-07
-7.77098e-07
-2.2299e-07
-1.36618e-06
1.3085e-06
-0.00107712
6.50808e-07
-1.55048e-06
-6.30786e-08
-6.11516e-07
-1.37139e-06
-1.94451e-07
4.55e-07
-7.7441e-07
9.12364e-07
0.00107748
1.30728e-06
-0.0010762
6.46389e-07
-1.57819e-06
-6.06957e-08
-6.14024e-07
-1.36848e-06
-1.99302e-07
-7.68827e-07
4.52304e-07
-6.6634e-07
-6.71035e-07
0.000262246
-8.8123e-07
0.000265269
-0.000263154
-1.62206e-07
-1.56982e-07
1.34239e-06
6.71753e-07
0.00107454
-6.21259e-07
8.54616e-07
-8.26702e-08
4.41274e-07
-7.82556e-07
-2.17954e-07
-1.37138e-06
1.3084e-06
-0.00107699
6.45613e-07
-1.54782e-06
-6.56249e-08
-6.08835e-07
-1.37137e-06
-1.94423e-07
4.55008e-07
-7.74352e-07
8.75962e-07
0.0010784
1.30846e-06
-0.00107713
6.45469e-07
-1.54269e-06
-6.31836e-08
-6.1171e-07
-1.37367e-06
-1.94245e-07
-7.74278e-07
4.576e-07
-0.00026313
-1.62168e-07
-1.59569e-07
1.58929e-06
1.54843e-06
-6.48401e-07
-6.51533e-07
0.000263473
-9.5233e-07
-9.10519e-07
0.000266456
-0.000264326
-1.34891e-07
-1.32362e-07
6.38178e-07
0.00107913
-6.13501e-07
9.32646e-07
-5.22393e-08
4.66332e-07
-7.70941e-07
-1.37677e-06
-1.86514e-07
-1.5842e-06
1.29565e-06
6.38076e-07
0.00107921
-6.10929e-07
9.27329e-07
-5.471e-08
4.6626e-07
-7.68167e-07
-1.37648e-06
-1.86411e-07
0.00108281
1.26047e-06
-0.0010816
6.14996e-07
-1.58294e-06
-3.50419e-08
-6.03984e-07
-1.37527e-06
-1.63474e-07
-7.60362e-07
4.84248e-07
9.47065e-07
0.00108288
1.2603e-06
-0.00108167
6.14967e-07
-1.57791e-06
-3.50522e-08
-6.04395e-07
-1.37491e-06
-1.63338e-07
-7.60204e-07
4.84267e-07
-6.48892e-07
-6.53632e-07
0.000263463
-9.10425e-07
0.000266438
-0.000264316
-1.34905e-07
-1.29624e-07
6.37165e-07
0.00108007
-6.08463e-07
8.9096e-07
-5.71183e-08
4.66239e-07
-7.73789e-07
-1.37672e-06
-1.83985e-07
-1.5789e-06
1.29565e-06
6.38164e-07
0.00107909
-6.13615e-07
9.22012e-07
-5.22241e-08
4.66355e-07
-7.68186e-07
-1.37648e-06
-1.88826e-07
0.00108375
1.26136e-06
-0.00108254
6.1401e-07
-1.54195e-06
-3.98668e-08
-5.98936e-07
-1.37524e-06
-1.60936e-07
-7.63234e-07
4.84135e-07
9.41614e-07
0.00108277
1.2603e-06
-0.00108156
6.15038e-07
-1.57262e-06
-3.51806e-08
-6.04425e-07
-1.37495e-06
-1.65779e-07
-7.57527e-07
4.8433e-07
1.29553e-06
6.38024e-07
0.00107873
-6.10649e-07
9.19182e-07
-5.46532e-08
4.58108e-07
-7.65445e-07
-1.91412e-07
-1.36846e-06
1.26124e-06
-0.00108211
6.19309e-07
-1.54178e-06
-3.96667e-08
-5.98883e-07
-1.36994e-06
-1.63457e-07
4.78732e-07
-7.60432e-07
9.38869e-07
0.0010824
1.26008e-06
-0.0010812
6.14847e-07
-1.56958e-06
-3.73564e-08
-6.0121e-07
-1.36692e-06
-1.68362e-07
-7.54854e-07
4.75987e-07
-6.48956e-07
-6.53683e-07
0.000263447
-9.07612e-07
0.000266415
-0.000264301
-1.35026e-07
-1.29806e-07
1.29669e-06
6.371e-07
0.00107966
-6.08328e-07
8.82751e-07
-5.71298e-08
4.63402e-07
-7.70909e-07
-1.86334e-07
-1.37368e-06
1.26115e-06
-0.00108199
6.14117e-07
-1.53915e-06
-4.22764e-08
-5.9627e-07
-1.36979e-06
-1.63488e-07
4.78752e-07
-7.60355e-07
9.02339e-07
0.00108334
1.26117e-06
-0.00108213
6.13928e-07
-1.53391e-06
-3.98074e-08
-5.98885e-07
-1.37212e-06
-1.63281e-07
-7.60311e-07
4.81333e-07
-0.000264277
-1.34967e-07
-1.32327e-07
1.58107e-06
1.54005e-06
-6.31561e-07
-6.34662e-07
0.000264602
-9.76043e-07
-9.34046e-07
0.000267528
-0.0002654
-1.1061e-07
-1.07987e-07
6.08006e-07
0.001084
-6.01391e-07
9.58532e-07
-2.99011e-08
4.90543e-07
-7.56671e-07
-1.37448e-06
-1.55965e-07
-1.57586e-06
1.24864e-06
6.07922e-07
0.00108408
-6.01272e-07
9.53156e-07
-3.00912e-08
4.90463e-07
-7.56578e-07
-1.37421e-06
-1.55833e-07
0.00108749
1.21539e-06
-0.00108634
5.89222e-07
-1.57587e-06
-1.57906e-08
-5.93446e-07
-1.37147e-06
-1.34755e-07
-7.46324e-07
5.08886e-07
9.70949e-07
0.00108757
1.21515e-06
-0.00108642
5.8908e-07
-1.5708e-06
-1.53758e-08
-5.93834e-07
-1.37105e-06
-1.34656e-07
-7.46167e-07
5.08892e-07
-6.31847e-07
-6.36623e-07
0.000264591
-9.3413e-07
0.00026751
-0.00026539
-1.10245e-07
-1.04889e-07
6.07012e-07
0.00108495
-5.96344e-07
9.16679e-07
-3.47056e-08
4.90465e-07
-7.59531e-07
-1.37442e-06
-1.53423e-07
-1.57054e-06
1.24858e-06
6.07941e-07
0.00108396
-6.01177e-07
9.47792e-07
-3.00138e-08
4.90537e-07
-7.5397e-07
-1.37423e-06
-1.58274e-07
0.00108844
1.21607e-06
-0.00108729
5.88253e-07
-1.53473e-06
-2.04909e-08
-5.88403e-07
-1.37139e-06
-1.32168e-07
-7.49142e-07
5.0883e-07
9.65487e-07
0.00108745
1.2151e-06
-0.0010863
5.89133e-07
-1.56557e-06
-1.54493e-08
-5.94043e-07
-1.37105e-06
-1.37046e-07
-7.43432e-07
5.09022e-07
1.24846e-06
6.07856e-07
0.0010836
-5.9854e-07
9.44986e-07
-3.23471e-08
4.82285e-07
-7.512e-07
-1.60895e-07
-1.36615e-06
1.21587e-06
-0.00108686
5.93479e-07
-1.53454e-06
-1.98891e-08
-5.88339e-07
-1.36605e-06
-1.34754e-07
5.03469e-07
-7.46344e-07
9.62571e-07
0.00108708
1.21484e-06
-0.00108594
5.88984e-07
-1.56242e-06
-1.78992e-08
-5.90542e-07
-1.36307e-06
-1.3962e-07
-7.40778e-07
5.00633e-07
-6.31891e-07
-6.36635e-07
0.000264576
-9.31355e-07
0.000267486
-0.000265374
-1.10278e-07
-1.05056e-07
1.24953e-06
6.06946e-07
0.00108453
-5.96211e-07
9.08431e-07
-3.47784e-08
4.87578e-07
-7.5667e-07
-1.558e-07
-1.37137e-06
1.21575e-06
-0.00108673
5.88222e-07
-1.53197e-06
-2.23425e-08
-5.85887e-07
-1.36585e-06
-1.34774e-07
5.03361e-07
-7.46259e-07
9.25918e-07
0.00108802
1.21582e-06
-0.00108687
5.88071e-07
-1.52659e-06
-2.02742e-08
-5.88204e-07
-1.36829e-06
-1.34528e-07
-7.4624e-07
5.06001e-07
-0.00026535
-1.10527e-07
-1.07847e-07
1.57463e-06
1.53345e-06
-6.17058e-07
-6.2012e-07
0.000265657
-9.9697e-07
-9.54902e-07
0.000268532
-0.000266401
-9.17604e-08
-8.64911e-08
5.83811e-07
0.00108862
-5.9185e-07
9.81734e-07
-1.12098e-08
5.15221e-07
-7.42957e-07
-1.37037e-06
-1.28068e-07
-1.56937e-06
1.20479e-06
5.83768e-07
0.0010887
-5.91786e-07
9.76163e-07
-1.17908e-08
5.15183e-07
-7.42807e-07
-1.37013e-06
-1.27909e-07
0.00109194
1.17542e-06
-0.00109085
5.69351e-07
-1.57099e-06
-8.25336e-10
-5.86012e-07
-1.3674e-06
-1.0906e-07
-7.3365e-07
5.33173e-07
9.9197e-07
0.00109202
1.17521e-06
-0.00109092
5.69232e-07
-1.56589e-06
-5.45384e-11
-5.86252e-07
-1.36697e-06
-1.09053e-07
-7.33587e-07
5.33055e-07
-6.17311e-07
-6.2207e-07
0.000265647
-9.55054e-07
0.000268513
-0.000266394
-8.85522e-08
-8.31799e-08
5.82802e-07
0.00108957
-5.86807e-07
9.39701e-07
-1.58249e-08
5.15135e-07
-7.45771e-07
-1.37029e-06
-1.25491e-07
-1.56399e-06
1.20465e-06
5.83725e-07
0.00108858
-5.91498e-07
9.7074e-07
-1.17612e-08
5.15255e-07
-7.40153e-07
-1.37013e-06
-1.30299e-07
0.00109289
1.17631e-06
-0.0010918
5.6852e-07
-1.52959e-06
-4.95928e-09
-5.8092e-07
-1.36736e-06
-1.06524e-07
-7.36525e-07
5.33061e-07
9.86534e-07
0.0010919
1.17521e-06
-0.00109081
5.69302e-07
-1.56071e-06
-3.02962e-11
-5.86583e-07
-1.36697e-06
-1.11462e-07
-7.30906e-07
5.33199e-07
1.20445e-06
5.83605e-07
0.00108822
-5.89111e-07
9.68064e-07
-1.36564e-08
5.06955e-07
-7.37379e-07
-1.32965e-07
-1.36197e-06
1.17609e-06
-0.00109137
5.73781e-07
-1.5294e-06
-4.21839e-09
-5.80718e-07
-1.36186e-06
-1.09192e-07
5.27637e-07
-7.33776e-07
9.83471e-07
0.00109153
1.17507e-06
-0.00109044
5.69324e-07
-1.55747e-06
-2.70418e-09
-5.8298e-07
-1.35901e-06
-1.14003e-07
-7.28211e-07
5.24815e-07
-6.17178e-07
-6.21999e-07
0.000265631
-9.52298e-07
0.000268489
-0.000266378
-8.85156e-08
-8.32513e-08
1.2054e-06
5.82707e-07
0.00108916
-5.86771e-07
9.31383e-07
-1.5994e-08
5.12285e-07
-7.42856e-07
-1.27864e-07
-1.36722e-06
1.17595e-06
-0.00109124
5.68509e-07
-1.52689e-06
-6.35302e-09
-5.78368e-07
-1.3618e-06
-1.09157e-07
5.27527e-07
-7.33716e-07
9.46711e-07
0.00109247
1.17603e-06
-0.00109138
5.68431e-07
-1.52146e-06
-4.76532e-09
-5.80621e-07
-1.3642e-06
-1.08916e-07
-7.3368e-07
5.30165e-07
-0.000266354
-8.90378e-08
-8.63321e-08
1.57046e-06
1.52888e-06
-6.0249e-07
-6.08104e-07
0.000266643
-1.01458e-06
-9.72365e-07
0.000269472
-0.000267342
-7.39484e-08
-6.84794e-08
5.64956e-07
0.00109302
-5.85349e-07
1.00202e-06
5.3771e-09
5.39073e-07
-7.30819e-07
-1.36626e-06
-1.03345e-07
-1.56518e-06
1.16603e-06
5.65041e-07
0.0010931
-5.85454e-07
9.96387e-07
4.10302e-09
5.39176e-07
-7.30609e-07
-1.36603e-06
-1.03097e-07
0.00109618
1.14039e-06
-0.00109514
5.544e-07
-1.56901e-06
1.77803e-08
-5.8216e-07
-1.36158e-06
-8.682e-08
-7.22996e-07
5.53322e-07
1.00951e-06
0.00109626
1.14009e-06
-0.00109522
5.54154e-07
-1.56378e-06
1.8666e-08
-5.82176e-07
-1.36381e-06
-8.67771e-08
-7.22912e-07
5.55824e-07
-6.05473e-07
-6.10238e-07
0.000266635
-9.72447e-07
0.000269453
-0.000267335
-7.07713e-08
-6.5243e-08
5.64402e-07
0.00109397
-5.80096e-07
9.59933e-07
-1.27418e-09
5.39057e-07
-7.33638e-07
-1.36617e-06
-1.00734e-07
-1.55981e-06
1.16602e-06
5.65054e-07
0.00109298
-5.8513e-07
9.90849e-07
3.92723e-09
5.39206e-07
-7.27993e-07
-1.36609e-06
-1.05518e-07
0.00109714
1.14168e-06
-0.00109609
5.53604e-07
-1.52747e-06
1.15995e-08
-5.76896e-07
-1.36407e-06
-8.41085e-08
-7.25747e-07
5.56052e-07
1.00421e-06
0.00109614
1.14002e-06
-0.0010951
5.54074e-07
-1.5585e-06
1.88566e-08
-5.82503e-07
-1.3638e-06
-8.92044e-08
-7.20238e-07
5.55961e-07
1.16597e-06
5.65092e-07
0.00109261
-5.82648e-07
9.88386e-07
1.17462e-09
5.30879e-07
-7.25216e-07
-1.08182e-07
-1.35784e-06
1.1414e-06
-0.00109566
5.58697e-07
-1.5272e-06
1.26921e-08
-5.76509e-07
-1.35848e-06
-8.67871e-08
5.50497e-07
-7.22957e-07
1.00106e-06
0.00109577
1.14015e-06
-0.00109473
5.54184e-07
-1.55535e-06
1.49313e-08
-5.79017e-07
-1.35576e-06
-9.1689e-08
-7.17464e-07
5.47645e-07
-6.05316e-07
-6.10156e-07
0.000266619
-9.69835e-07
0.000269429
-0.000267319
-7.061e-08
-6.50674e-08
1.16707e-06
5.64349e-07
0.00109355
-5.80228e-07
9.51619e-07
-1.49889e-09
5.36292e-07
-7.30676e-07
-1.03053e-07
-1.36311e-06
1.14151e-06
-0.00109553
5.53509e-07
-1.52458e-06
9.66682e-09
-5.74052e-07
-1.3584e-06
-8.66836e-08
5.50537e-07
-7.22876e-07
9.64192e-07
0.00109672
1.14139e-06
-0.00109567
5.53323e-07
-1.5192e-06
1.18004e-08
-5.76565e-07
-1.3609e-06
-8.65233e-08
-7.22874e-07
5.53077e-07
-0.000267295
-7.11828e-08
-6.83573e-08
1.56908e-06
1.52749e-06
-5.9394e-07
-5.99554e-07
0.000267569
-1.03021e-06
-9.87861e-07
0.000270353
-0.000268224
-5.82213e-08
-5.27224e-08
5.51242e-07
0.00109721
-5.81904e-07
1.01891e-06
2.27638e-08
5.58776e-07
-7.20483e-07
-1.36052e-06
-8.18125e-08
-1.56391e-06
1.13243e-06
5.5134e-07
0.00109729
-5.82236e-07
1.01329e-06
2.17874e-08
5.61569e-07
-7.20333e-07
-1.36297e-06
-8.16241e-08
0.00110023
1.11076e-06
-0.00109924
5.43048e-07
-1.56916e-06
3.27315e-08
-5.80062e-07
-1.35885e-06
-6.73171e-08
-7.13363e-07
5.74983e-07
1.02515e-06
0.00110031
1.11049e-06
-0.00109931
5.42733e-07
-1.56395e-06
3.36283e-08
-5.80219e-07
-1.3638e-06
-6.7202e-08
-7.13256e-07
5.80266e-07
-5.97189e-07
-6.01951e-07
0.000267561
-9.87998e-07
0.000270332
-0.000268217
-5.49916e-08
-4.67029e-08
5.50379e-07
0.00109817
-5.76633e-07
9.76663e-07
1.67265e-08
5.61528e-07
-7.23217e-07
-1.363e-06
-7.90994e-08
-1.55842e-06
1.13235e-06
5.51233e-07
0.00109717
-5.8191e-07
1.00783e-06
2.15656e-08
5.61583e-07
-7.17702e-07
-1.36304e-06
-8.40196e-08
0.00110119
1.11177e-06
-0.0011002
5.42082e-07
-1.52747e-06
2.67918e-08
-5.74779e-07
-1.36138e-06
-6.70997e-08
-7.13434e-07
5.77704e-07
1.0198e-06
0.00110019
1.11047e-06
-0.0010992
5.48166e-07
-1.55867e-06
3.3681e-08
-5.80621e-07
-1.36112e-06
-6.9609e-08
-7.10589e-07
5.77676e-07
1.1323e-06
5.51151e-07
0.0010968
-5.79275e-07
1.00526e-06
1.95321e-08
5.53252e-07
-7.14913e-07
-8.66255e-08
-1.35474e-06
1.11154e-06
-0.00109976
5.47217e-07
-1.52721e-06
2.79152e-08
-5.74564e-07
-1.35573e-06
-6.72276e-08
5.72149e-07
-7.13308e-07
1.01666e-06
0.00109982
1.11045e-06
-0.00109883
5.4278e-07
-1.55546e-06
3.01395e-08
-5.76859e-07
-1.35306e-06
-7.21871e-08
-7.0783e-07