/*--------------------------------*- C++ -*----------------------------------*\
| =========                 |                                                 |
| \\      /  F ield         | OpenFOAM: The Open Source CFD Toolbox           |
|  \\    /   O peration     | Version:  2312                                  |
|   \\  /    A nd           | Website:  www.openfoam.com                      |
|    \\/     M anipulation  |                                                 |
\*---------------------------------------------------------------------------*/
FoamFile
{
    version     2.0;
    format      ascii;
    arch        "LSB;label=32;scalar=64";
    class       volVectorField;
    location    "625";
    object      U;
}
// * * * * * * * * * * * * * * * * * * * * * * * * * * * * * * * * * * * * * //

dimensions      [0 1 -1 0 0 0 0];

internalField   nonuniform List<vector> 
43211
(
(0.000124338 0.000124328 0.100289)
(-0.000176456 0.000135325 0.100342)
(0.000135361 -0.000176471 0.100342)
(-0.000213132 -0.000213088 0.100397)
(9.666e-05 9.66637e-05 0.100853)
(-0.00016402 0.000100732 0.100938)
(0.000100708 -0.000164024 0.100938)
(-0.000204354 -0.000204422 0.100966)
(9.47163e-05 9.47326e-05 0.101372)
(-0.000155627 9.38669e-05 0.10145)
(9.38654e-05 -0.000155628 0.101451)
(-0.000201898 -0.000201965 0.101471)
(9.37217e-05 9.37428e-05 0.101892)
(-0.000152277 9.06047e-05 0.101958)
(9.06137e-05 -0.000152288 0.101958)
(-0.000199359 -0.000199403 0.101964)
(9.10122e-05 9.10384e-05 0.102398)
(-0.000146337 8.5896e-05 0.102447)
(8.59102e-05 -0.000146349 0.102447)
(-0.000193836 -0.000193874 0.102432)
(8.81165e-05 8.81509e-05 0.102885)
(-0.00014068 8.18787e-05 0.102912)
(8.18954e-05 -0.000140692 0.102912)
(-0.000188479 -0.000188512 0.102871)
(8.53218e-05 8.53722e-05 0.103353)
(-0.00013554 7.86461e-05 0.103354)
(7.86613e-05 -0.000135551 0.103354)
(-0.000183984 -0.00018402 0.103281)
(8.28699e-05 8.28986e-05 0.103803)
(-0.0001311 7.6146e-05 0.103774)
(7.61881e-05 -0.000131115 0.103774)
(-0.00018047 -0.00018054 0.103664)
(8.06739e-05 8.06522e-05 0.104237)
(-0.000127364 7.44182e-05 0.104175)
(7.44103e-05 -0.000127364 0.104175)
(-0.000178392 -0.000178417 0.104023)
(7.87716e-05 7.87662e-05 0.104658)
(-0.00012413 7.30582e-05 0.104558)
(7.30613e-05 -0.000124137 0.104558)
(-0.000177251 -0.000177286 0.104359)
(7.71435e-05 7.7145e-05 0.105066)
(-0.000121298 7.18949e-05 0.104925)
(7.18965e-05 -0.000121302 0.104925)
(-0.00017657 -0.000176612 0.104673)
(7.56512e-05 7.56577e-05 0.105464)
(-0.000118744 7.07715e-05 0.105277)
(7.07746e-05 -0.00011875 0.105277)
(-0.000176086 -0.000176135 0.104967)
(7.4203e-05 7.42109e-05 0.105851)
(-0.00011631 6.9583e-05 0.105615)
(6.9583e-05 -0.00011631 0.105615)
(-0.000175649 -0.000175698 0.10524)
(7.2779e-05 7.27811e-05 0.106229)
(-0.000113915 6.8354e-05 0.105939)
(6.83412e-05 -0.000113916 0.105939)
(-0.000175371 -0.000175403 0.105491)
(7.14051e-05 7.13864e-05 0.106597)
(-0.000111596 6.72857e-05 0.106248)
(6.72621e-05 -0.0001116 0.106248)
(-0.000174571 -0.00017459 0.10572)
(6.99343e-05 6.997e-05 0.106957)
(-0.00010951 6.62519e-05 0.106543)
(6.6248e-05 -0.000109507 0.106543)
(-0.000173485 -0.000173488 0.105926)
(6.84013e-05 6.8444e-05 0.107308)
(-0.000107478 6.51973e-05 0.106822)
(6.5193e-05 -0.00010749 0.106822)
(-0.000172231 -0.000172192 0.106108)
(6.68819e-05 6.69152e-05 0.107649)
(-0.000105439 6.40833e-05 0.107086)
(6.40844e-05 -0.000105463 0.107086)
(-0.000170519 -0.000170483 0.106264)
(6.53929e-05 6.54234e-05 0.107982)
(-0.00010357 6.30246e-05 0.107334)
(6.30255e-05 -0.000103573 0.107334)
(-0.000168393 -0.000168377 0.106394)
(6.3845e-05 6.38775e-05 0.108306)
(-0.000101615 6.19627e-05 0.107565)
(6.19654e-05 -0.000101612 0.107565)
(-0.000165717 -0.000165698 0.106497)
(6.23311e-05 6.23504e-05 0.108622)
(-9.95771e-05 6.0919e-05 0.107779)
(6.09261e-05 -9.95803e-05 0.107779)
(-0.000162475 -0.000162457 0.106572)
(0.000156342 0.000156374 0.100285)
(0.000129521 0.000155306 0.100244)
(-0.000129516 0.000155234 0.100244)
(-0.000156361 0.000156285 0.100285)
(0.00015531 0.000129491 0.100244)
(0.000155278 -0.00012951 0.100244)
(0.00012195 0.000121931 0.100218)
(-0.000121955 0.000121888 0.100218)
(0.000121921 -0.000121956 0.100218)
(-0.000121932 -0.000121927 0.100218)
(-0.000155324 0.000129447 0.100244)
(-0.000155295 -0.000129479 0.100244)
(0.000156313 -0.000156375 0.100285)
(0.000129478 -0.000155329 0.100244)
(-0.000129483 -0.000155283 0.100244)
(-0.000156348 -0.00015631 0.100285)
(0.000213127 0.000213184 0.100397)
(0.000116038 0.000115983 0.100892)
(0.000135403 0.000176451 0.100342)
(-0.000135397 0.000176378 0.100342)
(9.66211e-05 0.000156908 0.100824)
(-9.66487e-05 0.000156909 0.100824)
(-0.000213157 0.000213064 0.100397)
(-0.000116028 0.000115995 0.100892)
(0.000176452 0.000135377 0.100342)
(0.000176422 -0.000135394 0.100342)
(0.000156842 9.66452e-05 0.100824)
(0.00015684 -9.66268e-05 0.100824)
(-0.000176432 -0.000135363 0.100342)
(-0.000156843 9.66363e-05 0.100824)
(-0.000156863 -9.66477e-05 0.100824)
(0.000213097 -0.00021318 0.100397)
(0.000115968 -0.000116014 0.100892)
(-0.000135363 -0.000176424 0.100342)
(9.65974e-05 -0.000156842 0.100824)
(-9.66336e-05 -0.000156845 0.100824)
(-0.000116004 -0.000116032 0.100892)
(0.000204424 0.000204322 0.100966)
(0.000105434 0.000105331 0.101395)
(0.000100732 0.000164076 0.100938)
(-0.000100747 0.000164063 0.100938)
(9.43566e-05 0.000156089 0.101321)
(-9.43976e-05 0.000156091 0.101321)
(-0.000204427 0.000204315 0.100966)
(-0.000105427 0.000105364 0.101395)
(0.000164029 0.00010076 0.100938)
(0.00016403 -0.00010074 0.100938)
(0.000156032 9.4397e-05 0.101321)
(0.00015607 -9.4395e-05 0.101321)
(-0.000164042 -0.000100742 0.100938)
(-0.00015604 9.43681e-05 0.101321)
(-0.00015607 -9.43753e-05 0.101321)
(0.000204309 -0.000204412 0.100966)
(0.000105381 -0.000105406 0.101395)
(-0.000100742 -0.000164019 0.100938)
(9.43649e-05 -0.000156043 0.101321)
(-9.43899e-05 -0.000156029 0.101321)
(-0.00010539 -0.000105421 0.101395)
(0.000201961 0.00020183 0.101471)
(9.70388e-05 9.69808e-05 0.101893)
(9.38553e-05 0.000155676 0.10145)
(-9.38908e-05 0.000155674 0.10145)
(9.1766e-05 0.000153689 0.101833)
(-9.18032e-05 0.000153695 0.101833)
(-0.000201986 0.00020185 0.101471)
(-9.70697e-05 9.70258e-05 0.101893)
(0.000155619 9.38958e-05 0.101451)
(0.000155662 -9.3896e-05 0.101451)
(0.000153641 9.17976e-05 0.101833)
(0.000153693 -9.17907e-05 0.101833)
(-0.000155661 -9.38767e-05 0.101451)
(-0.000153643 9.177e-05 0.101833)
(-0.000153682 -9.17792e-05 0.101833)
(0.000201877 -0.000201961 0.101471)
(9.70183e-05 -9.70666e-05 0.101893)
(-9.3895e-05 -0.000155626 0.101451)
(9.17755e-05 -0.000153654 0.101833)
(-9.17866e-05 -0.000153643 0.101833)
(-9.70416e-05 -9.70495e-05 0.101893)
(0.000199382 0.000199291 0.101964)
(8.62949e-05 8.62518e-05 0.102366)
(9.06037e-05 0.000152321 0.101958)
(-9.06398e-05 0.000152328 0.101958)
(8.70203e-05 0.000147847 0.102327)
(-8.70535e-05 0.00014785 0.102327)
(-0.000199437 0.000199313 0.101964)
(-8.63368e-05 8.63021e-05 0.102366)
(0.000152274 9.06324e-05 0.101958)
(0.000152328 -9.06249e-05 0.101958)
(0.000147808 8.70459e-05 0.102327)
(0.000147856 -8.70344e-05 0.102327)
(-0.000152315 -9.06159e-05 0.101958)
(-0.000147804 8.70184e-05 0.102327)
(-0.000147842 -8.70306e-05 0.102327)
(0.000199324 -0.000199437 0.101964)
(8.63062e-05 -8.63506e-05 0.102366)
(-9.06218e-05 -0.000152277 0.101958)
(8.70324e-05 -0.000147817 0.102327)
(-8.70356e-05 -0.000147808 0.102327)
(-8.6308e-05 -8.63064e-05 0.102366)
(0.00019385 0.000193773 0.102432)
(7.62725e-05 7.62457e-05 0.102812)
(8.58976e-05 0.000146377 0.102447)
(-8.59296e-05 0.000146378 0.102447)
(8.28149e-05 0.000142102 0.102798)
(-8.28257e-05 0.000142091 0.102798)
(-0.000193896 0.000193786 0.102432)
(-7.6279e-05 7.62434e-05 0.102812)
(0.000146336 8.59217e-05 0.102447)
(0.000146387 -8.591e-05 0.102447)
(0.000142066 8.28383e-05 0.102798)
(0.00014211 -8.28175e-05 0.102798)
(-0.000146373 -8.59078e-05 0.102447)
(-0.000142057 8.28082e-05 0.102798)
(-0.000142096 -8.28216e-05 0.102798)
(0.0001938 -0.000193912 0.102432)
(7.62919e-05 -7.63373e-05 0.102812)
(-8.59131e-05 -0.00014634 0.102447)
(8.2827e-05 -0.000142072 0.102798)
(-8.28276e-05 -0.000142065 0.102798)
(-7.628e-05 -7.6274e-05 0.102812)
(0.000188476 0.000188417 0.102871)
(6.73136e-05 6.73075e-05 0.10323)
(8.18777e-05 0.000140718 0.102912)
(-8.18923e-05 0.000140711 0.102912)
(7.93726e-05 0.000136809 0.103246)
(-7.93665e-05 0.000136793 0.103246)
(-0.00018847 0.000188368 0.102871)
(-6.72176e-05 6.7203e-05 0.10323)
(0.000140679 8.18996e-05 0.102912)
(0.00014073 -8.18832e-05 0.102912)
(0.000136768 7.94059e-05 0.103246)
(0.000136802 -7.93535e-05 0.103246)
(-0.000140712 -8.18831e-05 0.102912)
(-0.000136755 7.93713e-05 0.103246)
(-0.000136793 -7.93762e-05 0.103246)
(0.000188377 -0.000188487 0.102871)
(6.72331e-05 -6.72792e-05 0.10323)
(-8.18903e-05 -0.000140681 0.102912)
(7.93795e-05 -0.000136765 0.103246)
(-7.93855e-05 -0.000136764 0.103246)
(-6.72963e-05 -6.7288e-05 0.10323)
(0.000183962 0.000183916 0.103281)
(5.93877e-05 5.93479e-05 0.103621)
(7.86276e-05 0.00013558 0.103354)
(-7.86439e-05 0.000135578 0.103354)
(7.66871e-05 0.000132173 0.103671)
(-7.66832e-05 0.000132162 0.103671)
(-0.000183943 0.000183852 0.103281)
(-5.9225e-05 5.92061e-05 0.103621)
(0.000135535 7.86569e-05 0.103354)
(0.000135587 -7.86312e-05 0.103354)
(0.000132153 7.67371e-05 0.103671)
(0.000132179 -7.66706e-05 0.103671)
(-0.000135564 -7.86282e-05 0.103354)
(-0.00013214 7.67028e-05 0.103671)
(-0.000132173 -7.67103e-05 0.103671)
(0.000183813 -0.000183937 0.103281)
(5.92195e-05 -5.92698e-05 0.103621)
(-7.86415e-05 -0.000135535 0.103354)
(7.67192e-05 -0.00013215 0.103671)
(-7.67247e-05 -0.000132147 0.103671)
(-5.93539e-05 -5.935e-05 0.103621)
(0.000180465 0.000180344 0.103664)
(5.28254e-05 5.28585e-05 0.103988)
(7.61469e-05 0.000131127 0.103774)
(-7.61561e-05 0.000131124 0.103774)
(7.48983e-05 0.000128288 0.104076)
(-7.48938e-05 0.000128281 0.104076)
(-0.000180463 0.000180319 0.103664)
(-5.26894e-05 5.27446e-05 0.103988)
(0.000131096 7.61639e-05 0.103774)
(0.000131151 -7.61526e-05 0.103774)
(0.000128254 7.48444e-05 0.104077)
(0.000128297 -7.48797e-05 0.104076)
(-0.000131117 -7.61322e-05 0.103774)
(-0.000128247 7.48055e-05 0.104077)
(-0.000128282 -7.48722e-05 0.104076)
(0.000180283 -0.000180468 0.103664)
(5.26961e-05 -5.26258e-05 0.103988)
(-7.61458e-05 -0.000131089 0.103774)
(7.47799e-05 -0.000128237 0.104077)
(-7.48311e-05 -0.000128247 0.104077)
(-5.28259e-05 -5.27855e-05 0.103988)
(0.000178349 0.000178307 0.104023)
(4.70634e-05 4.70886e-05 0.104333)
(7.45019e-05 0.0001274 0.104175)
(-7.45044e-05 0.000127396 0.104175)
(7.34733e-05 0.000124945 0.104464)
(-7.34485e-05 0.000124936 0.104464)
(-0.000178418 0.000178349 0.104023)
(-4.6932e-05 4.69589e-05 0.104333)
(0.000127364 7.44514e-05 0.104175)
(0.000127424 -7.45094e-05 0.104175)
(0.000124918 7.34317e-05 0.104464)
(0.000124959 -7.34552e-05 0.104464)
(-0.000127392 -7.44747e-05 0.104175)
(-0.000124899 7.33763e-05 0.104464)
(-0.000124943 -7.3448e-05 0.104464)
(0.000178287 -0.00017834 0.104023)
(4.69341e-05 -4.68842e-05 0.104333)
(-7.44365e-05 -0.000127357 0.104175)
(7.33614e-05 -0.000124894 0.104464)
(-7.34067e-05 -0.000124906 0.104464)
(-4.70445e-05 -4.70127e-05 0.104333)
(0.000177203 0.000177159 0.104359)
(4.16485e-05 4.16741e-05 0.104657)
(7.31398e-05 0.000124168 0.104558)
(-7.31314e-05 0.000124167 0.104558)
(7.22779e-05 0.000122033 0.104834)
(-7.22331e-05 0.000122012 0.104834)
(-0.000177221 0.000177129 0.104358)
(-4.15524e-05 4.15649e-05 0.104657)
(0.000124137 7.31018e-05 0.104558)
(0.000124204 -7.31538e-05 0.104558)
(0.000122002 7.22425e-05 0.104834)
(0.000122041 -7.2249e-05 0.104834)
(-0.000124161 -7.31114e-05 0.104558)
(-0.000121971 7.21675e-05 0.104834)
(-0.000122023 -7.22421e-05 0.104834)
(0.000177064 -0.00017713 0.104359)
(4.15706e-05 -4.15428e-05 0.104657)
(-7.3073e-05 -0.000124124 0.104558)
(7.21583e-05 -0.000121969 0.104834)
(-7.22017e-05 -0.000121983 0.104834)
(-4.16254e-05 -4.15979e-05 0.104657)
(0.000176576 0.000176533 0.104673)
(3.64723e-05 3.64736e-05 0.104961)
(7.19784e-05 0.000121336 0.104925)
(-7.19607e-05 0.000121338 0.104925)
(7.11502e-05 0.000119416 0.10519)
(-7.10995e-05 0.000119399 0.10519)
(-0.000176501 0.000176409 0.104673)
(-3.64406e-05 3.64375e-05 0.104962)
(0.000121304 7.19444e-05 0.104925)
(0.000121377 -7.19854e-05 0.104925)
(0.000119393 7.11186e-05 0.10519)
(0.000119431 -7.11164e-05 0.10519)
(-0.000121335 -7.19507e-05 0.104925)
(-0.000119356 7.10414e-05 0.10519)
(-0.000119419 -7.11203e-05 0.10519)
(0.000176351 -0.000176433 0.104673)
(3.64824e-05 -3.64629e-05 0.104962)
(-7.19116e-05 -0.000121295 0.104925)
(7.10319e-05 -0.000119352 0.10519)
(-7.10785e-05 -0.000119375 0.10519)
(-3.64279e-05 -3.64089e-05 0.104961)
(0.000176133 0.00017607 0.104967)
(3.14054e-05 3.13916e-05 0.105247)
(7.08456e-05 0.000118768 0.105277)
(-7.08318e-05 0.000118785 0.105277)
(6.99844e-05 0.000116959 0.105532)
(-6.99356e-05 0.000116943 0.105532)
(-0.000176015 0.000175907 0.104967)
(-3.16018e-05 3.15591e-05 0.105247)
(0.000118742 7.08209e-05 0.105277)
(0.00011883 -7.08613e-05 0.105277)
(0.000116932 6.99601e-05 0.105532)
(0.000116988 -6.99673e-05 0.105532)
(-0.00011878 -7.08287e-05 0.105277)
(-0.000116901 6.98868e-05 0.105532)
(-0.000116959 -6.99619e-05 0.105532)
(0.000175868 -0.000175968 0.104967)
(3.15816e-05 -3.15859e-05 0.105247)
(-7.07903e-05 -0.000118737 0.105277)
(6.98897e-05 -0.000116905 0.105532)
(-6.99227e-05 -0.000116912 0.105532)
(-3.14588e-05 -3.14459e-05 0.105247)
(0.000175662 0.000175573 0.10524)
(2.66096e-05 2.66079e-05 0.105512)
(6.96755e-05 0.000116361 0.105615)
(-6.9609e-05 0.000116351 0.105615)
(6.87103e-05 0.000114587 0.105859)
(-6.87281e-05 0.000114566 0.105859)
(-0.000175748 0.000175582 0.10524)
(-2.6592e-05 2.67127e-05 0.105512)
(0.000116324 6.96576e-05 0.105615)
(0.000116394 -6.96556e-05 0.105615)
(0.000114527 6.86901e-05 0.105859)
(0.000114615 -6.87297e-05 0.105859)
(-0.000116352 -6.96462e-05 0.105615)
(-0.000114507 6.8647e-05 0.105859)
(-0.000114571 -6.86869e-05 0.105859)
(0.000175611 -0.000175739 0.10524)
(2.66737e-05 -2.65982e-05 0.105511)
(-6.96088e-05 -0.000116305 0.105615)
(6.86295e-05 -0.000114516 0.105859)
(-6.86417e-05 -0.000114512 0.105859)
(-2.67099e-05 -2.66844e-05 0.105511)
(0.000175296 0.000175236 0.105491)
(2.15173e-05 2.1568e-05 0.105756)
(6.84353e-05 0.000114018 0.105938)
(-6.84584e-05 0.000113973 0.105938)
(6.76407e-05 0.000112282 0.106172)
(-6.76537e-05 0.000112236 0.106172)
(-0.000175429 0.000175418 0.105491)
(-2.13497e-05 2.14621e-05 0.105756)
(0.000113946 6.83883e-05 0.105939)
(0.000114019 -6.8455e-05 0.105938)
(0.000112203 6.75668e-05 0.106172)
(0.00011228 -6.76464e-05 0.106172)
(-0.00011399 -6.84089e-05 0.105938)
(-0.000112163 6.75449e-05 0.106172)
(-0.00011225 -6.76026e-05 0.106172)
(0.000175444 -0.00017549 0.105491)
(2.14862e-05 -2.14051e-05 0.105756)
(-6.83537e-05 -0.000113927 0.105938)
(6.75265e-05 -0.000112167 0.106172)
(-6.7536e-05 -0.000112172 0.106172)
(-2.14975e-05 -2.14453e-05 0.105755)
(0.000174631 0.000174595 0.10572)
(1.65153e-05 1.65845e-05 0.105978)
(6.73664e-05 0.000111702 0.106248)
(-6.73882e-05 0.000111663 0.106248)
(6.65785e-05 0.000110031 0.10647)
(-6.66196e-05 0.000110081 0.10647)
(-0.000174458 0.000174438 0.10572)
(-1.64519e-05 1.65645e-05 0.105978)
(0.000111611 6.72943e-05 0.106248)
(0.000111715 -6.73853e-05 0.106248)
(0.000110028 6.65394e-05 0.106471)
(0.000110073 -6.66057e-05 0.10647)
(-0.000111678 -6.73452e-05 0.106248)
(-0.000110013 6.65139e-05 0.10647)
(-0.000109998 -6.6546e-05 0.10647)
(0.000174446 -0.000174499 0.10572)
(1.65538e-05 -1.64682e-05 0.105977)
(-6.727e-05 -0.000111597 0.106248)
(6.65036e-05 -0.000110015 0.10647)
(-6.65107e-05 -0.000110006 0.10647)
(-1.655e-05 -1.64973e-05 0.105977)
(0.000173496 0.000173482 0.105926)
(1.18647e-05 1.19712e-05 0.106176)
(6.63086e-05 0.000109499 0.106543)
(-6.63601e-05 0.000109577 0.106542)
(6.55295e-05 0.000107998 0.106754)
(-6.55732e-05 0.000108069 0.106754)
(-0.000173499 0.000173471 0.105926)
(-1.17964e-05 1.19068e-05 0.106176)
(0.000109516 6.62819e-05 0.106543)
(0.000109569 -6.63426e-05 0.106542)
(0.000108015 6.54987e-05 0.106754)
(0.000108071 -6.5552e-05 0.106754)
(-0.000109467 -6.62774e-05 0.106542)
(-0.000107987 6.54747e-05 0.106754)
(-0.000107966 -6.54983e-05 0.106754)
(0.000173504 -0.000173547 0.105926)
(1.19176e-05 -1.1806e-05 0.106176)
(-6.6255e-05 -0.000109501 0.106543)
(6.54597e-05 -0.000107995 0.106754)
(-6.5472e-05 -0.000107988 0.106754)
(-1.19393e-05 -1.18259e-05 0.106176)
(0.000172167 0.000172188 0.106108)
(7.58058e-06 7.66076e-06 0.10635)
(6.52621e-05 0.00010749 0.106822)
(-6.53022e-05 0.000107546 0.106822)
(6.4445e-05 0.000105971 0.107022)
(-6.4463e-05 0.000106001 0.107021)
(-0.000172179 0.000172157 0.106108)
(-7.56714e-06 7.65543e-06 0.10635)
(0.000107506 6.5222e-05 0.106822)
(0.000107567 -6.52854e-05 0.106822)
(0.000105979 6.43941e-05 0.107022)
(0.000106044 -6.44614e-05 0.107021)
(-0.000107453 -6.52277e-05 0.106822)
(-0.000105937 6.43562e-05 0.107022)
(-0.000105921 -6.44087e-05 0.107021)
(0.000172166 -0.000172198 0.106108)
(7.66863e-06 -7.57332e-06 0.10635)
(-6.52018e-05 -0.000107483 0.106822)
(6.43624e-05 -0.000105977 0.107022)
(-6.43716e-05 -0.000105951 0.107022)
(-7.67012e-06 -7.56371e-06 0.10635)
(0.000170453 0.000170457 0.106264)
(3.71022e-06 3.79248e-06 0.106499)
(6.41741e-05 0.000105495 0.107086)
(-6.41822e-05 0.000105519 0.107086)
(6.3384e-05 0.00010411 0.107274)
(-6.34026e-05 0.000104129 0.107273)
(-0.000170472 0.000170428 0.106264)
(-3.67636e-06 3.76702e-06 0.106499)
(0.000105487 6.41264e-05 0.107086)
(0.000105533 -6.41884e-05 0.107086)
(0.000104062 6.33291e-05 0.107274)
(0.000104109 -6.33983e-05 0.107273)
(-0.000105441 -6.41383e-05 0.107086)
(-0.000104042 6.32938e-05 0.107274)
(-0.000104058 -6.33546e-05 0.107273)
(0.000170474 -0.000170517 0.106264)
(3.76844e-06 -3.68958e-06 0.106498)
(-6.40954e-05 -0.000105451 0.107086)
(6.32933e-05 -0.000104047 0.107274)
(-6.33069e-05 -0.000104057 0.107274)
(-3.80024e-06 -3.71328e-06 0.106498)
(0.000168352 0.000168353 0.106394)
(2.07138e-07 2.76241e-07 0.10662)
(6.31207e-05 0.00010364 0.107334)
(-6.31415e-05 0.000103658 0.107334)
(6.23038e-05 0.000102147 0.107509)
(-6.23443e-05 0.000102195 0.107508)
(-0.000168343 0.000168296 0.106394)
(-1.81897e-07 2.50923e-07 0.10662)
(0.000103583 6.30646e-05 0.107334)
(0.000103634 -6.31305e-05 0.107334)
(0.000102109 6.22449e-05 0.107509)
(0.000102174 -6.23357e-05 0.107508)
(-0.000103581 -6.30809e-05 0.107334)
(-0.000102107 6.22302e-05 0.107509)
(-0.000102125 -6.22912e-05 0.107508)
(0.000168327 -0.000168383 0.106394)
(2.52323e-07 -1.75033e-07 0.106619)
(-6.30377e-05 -0.00010358 0.107334)
(6.22331e-05 -0.000102113 0.107509)
(-6.22435e-05 -0.000102126 0.107509)
(-2.89382e-07 -1.98214e-07 0.106619)
(0.000165676 0.000165664 0.106497)
(-2.89941e-06 -2.84259e-06 0.106713)
(6.20326e-05 0.000101659 0.107565)
(-6.20762e-05 0.000101705 0.107565)
(6.12917e-05 0.000100178 0.107727)
(-6.1305e-05 0.000100193 0.107726)
(-0.000165687 0.000165632 0.106497)
(2.96234e-06 -2.87606e-06 0.106713)
(0.000101621 6.19774e-05 0.107565)
(0.000101681 -6.20681e-05 0.107565)
(0.000100124 6.12251e-05 0.107727)
(0.000100168 -6.128e-05 0.107726)
(-0.000101628 -6.20184e-05 0.107565)
(-0.000100093 6.11793e-05 0.107727)
(-0.000100122 -6.12446e-05 0.107726)
(0.000165645 -0.000165701 0.106497)
(-2.91365e-06 2.97808e-06 0.106713)
(-6.19666e-05 -0.000101631 0.107565)
(6.11783e-05 -0.000100091 0.107727)
(-6.11952e-05 -0.00010012 0.107727)
(2.85416e-06 2.94466e-06 0.106712)
(0.000162476 0.000162455 0.106572)
(6.10436e-05 9.96664e-05 0.107779)
(-6.10516e-05 9.96763e-05 0.107778)
(-0.000162455 0.000162415 0.106572)
(9.96105e-05 6.09742e-05 0.107779)
(9.96566e-05 -6.10302e-05 0.107778)
(-9.96011e-05 -6.09865e-05 0.107778)
(0.000162392 -0.000162468 0.106572)
(-6.09406e-05 -9.96054e-05 0.107779)
(1.24742e-06 1.245e-06 0.0999994)
(1.5979e-05 1.59736e-05 0.100001)
(1.53636e-06 1.37707e-05 0.0999998)
(1.37772e-05 1.53427e-06 0.0999998)
(-4.86826e-05 5.70119e-06 0.100008)
(-2.19191e-05 1.83011e-05 0.1)
(-0.000127869 6.03102e-05 0.100058)
(-1.76785e-05 1.76072e-06 0.0999985)
(5.69988e-06 -4.8669e-05 0.100008)
(1.83058e-05 -2.19165e-05 0.1)
(1.76231e-06 -1.76769e-05 0.0999985)
(6.03139e-05 -0.000127822 0.100058)
(-2.50342e-05 -2.50363e-05 0.100004)
(-0.000134778 -8.09385e-05 0.100055)
(-8.09378e-05 -0.000134727 0.100055)
(-3.43504e-05 0.000137154 0.100737)
(0.000175651 0.000388782 0.099425)
(2.26686e-06 0.000302181 0.100525)
(-8.50051e-05 0.000245499 0.0991603)
(-0.000303142 0.000837049 0.0977804)
(-0.000128458 0.0003057 0.0957324)
(0.000136991 -3.44149e-05 0.100737)
(0.000388952 0.000175045 0.099425)
(0.000302799 2.19714e-06 0.100526)
(0.000245612 -8.46957e-05 0.0991604)
(-0.000124339 0.000124283 0.100289)
(0.000124321 -0.000124344 0.100289)
(-0.000124326 -0.000124314 0.100289)
(9.51812e-05 9.51883e-05 0.100737)
(-9.51776e-05 9.51838e-05 0.100737)
(9.51658e-05 -9.51805e-05 0.100737)
(-9.51766e-05 -9.51915e-05 0.100737)
(-0.000285846 6.3219e-06 0.100768)
(-0.000389992 0.000227406 0.100533)
(-0.000157429 2.29445e-05 0.100284)
(-0.000160586 0.000101568 0.100585)
(-0.000350157 1.58155e-05 0.100488)
(-0.000153284 0.000198693 0.100753)
(-0.000159143 3.57045e-05 0.100524)
(0.000835858 -0.000301526 0.0977796)
(0.000305588 -0.000128423 0.0957326)
(6.30097e-06 -0.000285888 0.100768)
(2.29665e-05 -0.000157432 0.100284)
(0.000227475 -0.000389909 0.100533)
(0.000101585 -0.000160598 0.100585)
(1.58402e-05 -0.000350156 0.100488)
(3.57257e-05 -0.000159159 0.100524)
(0.000198708 -0.000153367 0.100753)
(-0.000369946 -0.000141101 0.100368)
(-0.00014113 -0.00036972 0.100368)
(-0.000118328 -0.000118306 0.100671)
(9.9063e-06 -8.01583e-05 0.100603)
(-8.02017e-05 9.83739e-06 0.100602)
(-1.65245e-05 0.000197745 0.100866)
(-5.55064e-05 0.000289398 0.0983218)
(-2.0227e-05 0.000209177 0.100778)
(-4.5425e-05 0.00027184 0.0979437)
(-0.000150567 0.000314317 0.0926229)
(-0.000136983 0.00027355 0.0909987)
(0.000197751 -1.65526e-05 0.100866)
(0.000289467 -5.52179e-05 0.0983218)
(0.000209232 -2.02763e-05 0.100779)
(0.000271908 -4.51924e-05 0.0979436)
(-9.66593e-05 9.66471e-05 0.100853)
(9.66412e-05 -9.66662e-05 0.100853)
(-9.66582e-05 -9.66756e-05 0.100853)
(9.52283e-05 9.52398e-05 0.101239)
(-9.52362e-05 9.52156e-05 0.101239)
(9.52278e-05 -9.52476e-05 0.101239)
(-9.52451e-05 -9.52482e-05 0.101239)
(-0.00026399 1.33312e-05 0.101152)
(-0.00022065 0.0002139 0.100819)
(-0.000170561 3.22029e-05 0.100893)
(-0.000161593 9.8792e-05 0.101062)
(-0.000300765 1.41739e-05 0.100978)
(-0.000183816 0.000197296 0.100943)
(-0.000170737 3.2993e-05 0.101016)
(0.000314058 -0.000150433 0.0926226)
(0.000273446 -0.000136956 0.0909982)
(1.33073e-05 -0.000264 0.101151)
(3.21967e-05 -0.000170565 0.100893)
(0.000213894 -0.000220666 0.100819)
(9.87705e-05 -0.000161596 0.101062)
(1.4152e-05 -0.000300798 0.100978)
(3.2991e-05 -0.000170739 0.101016)
(0.000197297 -0.000183786 0.100943)
(-8.41826e-05 -9.74951e-05 0.100439)
(-9.73167e-05 -8.41466e-05 0.100439)
(-0.000112314 -0.000112365 0.101142)
(-8.67066e-05 -8.23933e-05 0.100429)
(-8.23448e-05 -8.66538e-05 0.100428)
(-9.42168e-06 0.000210246 0.100957)
(-2.26285e-05 0.000281951 0.0971375)
(-1.16451e-05 0.000229818 0.100903)
(-1.2933e-05 0.000257292 0.0967128)
(-0.000116971 0.000226243 0.0883851)
(-9.64813e-05 0.000187591 0.0870655)
(0.000210263 -9.46712e-06 0.100957)
(0.000281969 -2.25239e-05 0.0971374)
(0.000229833 -1.16984e-05 0.100903)
(0.000257302 -1.28328e-05 0.0967124)
(-9.47291e-05 9.47122e-05 0.101372)
(9.47228e-05 -9.47407e-05 0.101372)
(-9.47378e-05 -9.47381e-05 0.101372)
(9.42258e-05 9.42464e-05 0.101763)
(-9.42426e-05 9.42227e-05 0.101763)
(9.42376e-05 -9.42497e-05 0.101763)
(-9.42457e-05 -9.42514e-05 0.101763)
(-0.000250972 1.22275e-05 0.10158)
(-0.000222842 0.000189895 0.101028)
(-0.000167237 3.31037e-05 0.101409)
(-0.000155407 9.34922e-05 0.101579)
(-0.000289912 1.21097e-05 0.101414)
(-0.00018264 0.000168789 0.101123)
(-0.00016755 3.30787e-05 0.101539)
(0.000226135 -0.000116975 0.0883851)
(0.000187503 -9.64876e-05 0.0870645)
(1.2221e-05 -0.000250958 0.10158)
(3.31092e-05 -0.000167231 0.101409)
(0.000189881 -0.00022284 0.101028)
(9.34864e-05 -0.000155412 0.101579)
(1.21246e-05 -0.000289948 0.101414)
(3.30838e-05 -0.000167556 0.101539)
(0.000168807 -0.000182621 0.101123)
(-0.000116288 -9.10846e-05 0.100182)
(-9.10373e-05 -0.000116243 0.100182)
(-0.000101869 -0.000101885 0.101647)
(-0.000112289 -7.1969e-05 0.100086)
(-7.19275e-05 -0.00011224 0.100085)
(-7.03302e-06 0.00020978 0.100952)
(4.91708e-06 0.000258552 0.0958584)
(-7.93146e-06 0.000236003 0.100928)
(9.65679e-06 0.000229915 0.0954232)
(-7.68921e-05 0.000150312 0.0849764)
(-5.87093e-05 0.00011917 0.0839658)
(0.000209792 -7.06751e-06 0.100952)
(0.000258553 5.00499e-06 0.0958581)
(0.000236019 -7.96938e-06 0.100928)
(0.000229916 9.73247e-06 0.0954228)
(-9.37393e-05 9.37177e-05 0.101892)
(9.37352e-05 -9.37426e-05 0.101892)
(-9.37415e-05 -9.37471e-05 0.101892)
(9.17135e-05 9.1738e-05 0.102273)
(-9.17326e-05 9.17148e-05 0.102273)
(9.17333e-05 -9.17293e-05 0.102273)
(-9.17356e-05 -9.1737e-05 0.102273)
(-0.00023834 1.11612e-05 0.101978)
(-0.000220256 0.000162381 0.101142)
(-0.000165451 3.2391e-05 0.101924)
(-0.000150803 8.93951e-05 0.102082)
(-0.000282533 1.10056e-05 0.101822)
(-0.000175235 0.000140754 0.101213)
(-0.000163982 3.20299e-05 0.102051)
(0.000150238 -7.69165e-05 0.0849765)
(0.000119104 -5.87288e-05 0.0839646)
(1.11411e-05 -0.000238313 0.101978)
(3.23892e-05 -0.000165453 0.101924)
(0.000162371 -0.000220234 0.101142)
(8.94057e-05 -0.000150815 0.102082)
(1.10069e-05 -0.000282557 0.101822)
(3.20243e-05 -0.000163995 0.102051)
(0.000140797 -0.000175192 0.101213)
(-0.000133434 -7.90839e-05 0.0997183)
(-7.90536e-05 -0.000133405 0.0997184)
(-9.16491e-05 -9.16513e-05 0.102133)
(-0.000124084 -5.9895e-05 0.0995702)
(-5.98649e-05 -0.000124052 0.0995687)
(-6.49686e-06 0.000201938 0.100851)
(1.85141e-05 0.000227165 0.0945617)
(-6.9018e-06 0.000231011 0.100853)
(1.82186e-05 0.000197719 0.0941438)
(-4.49938e-05 9.5613e-05 0.0823415)
(-3.07974e-05 7.22079e-05 0.0815917)
(0.000201947 -6.52211e-06 0.100851)
(0.00022715 1.85829e-05 0.0945612)
(0.000231027 -6.93099e-06 0.100853)
(0.000197706 1.82698e-05 0.0941432)
(-9.10303e-05 9.10156e-05 0.102398)
(9.1033e-05 -9.10258e-05 0.102398)
(-9.10356e-05 -9.10354e-05 0.102398)
(8.88466e-05 8.88779e-05 0.102765)
(-8.88653e-05 8.8866e-05 0.102765)
(8.88766e-05 -8.88589e-05 0.102765)
(-8.88714e-05 -8.8866e-05 0.102765)
(-0.000223318 1.02827e-05 0.102335)
(-0.000211204 0.000137209 0.101161)
(-0.000159105 3.09057e-05 0.102425)
(-0.00014489 8.48196e-05 0.102565)
(-0.000270772 9.88857e-06 0.102189)
(-0.000164387 0.000116649 0.101213)
(-0.000157398 3.05434e-05 0.102547)
(9.5561e-05 -4.50146e-05 0.0823419)
(7.21065e-05 -3.08019e-05 0.0815903)
(1.02557e-05 -0.00022328 0.102335)
(3.08984e-05 -0.000159109 0.102425)
(0.000137173 -0.000211231 0.101161)
(8.48365e-05 -0.000144904 0.102565)
(9.90419e-06 -0.000270797 0.10219)
(3.05335e-05 -0.000157411 0.102547)
(0.000116786 -0.000164369 0.101212)
(-0.000138239 -6.82801e-05 0.0991141)
(-6.82645e-05 -0.000138216 0.099114)
(-8.11726e-05 -8.11686e-05 0.102593)
(-0.00012584 -5.04218e-05 0.0989317)
(-5.04045e-05 -0.000125827 0.0989298)
(-6.15216e-06 0.000190289 0.100664)
(2.02003e-05 0.000194685 0.0933125)
(-6.6859e-06 0.000220807 0.100689)
(1.68579e-05 0.000165861 0.0929279)
(-2.3771e-05 6.01996e-05 0.0803348)
(-1.30357e-05 4.25151e-05 0.0797851)
(0.000190292 -6.17729e-06 0.100664)
(0.000194666 2.02596e-05 0.0933119)
(0.00022082 -6.70942e-06 0.100689)
(0.000165846 1.68878e-05 0.0929273)
(-8.81333e-05 8.8141e-05 0.102885)
(8.81453e-05 -8.81237e-05 0.102885)
(-8.81451e-05 -8.81381e-05 0.102885)
(8.59934e-05 8.60404e-05 0.103238)
(-8.60036e-05 8.60293e-05 0.103238)
(8.60297e-05 -8.59947e-05 0.103238)
(-8.60203e-05 -8.60062e-05 0.103238)
(-0.000207586 9.72521e-06 0.10265)
(-0.000199683 0.000116464 0.101097)
(-0.000152236 2.95174e-05 0.102905)
(-0.000139327 8.09876e-05 0.103025)
(-0.000257223 9.12745e-06 0.102514)
(-0.000152333 9.72025e-05 0.101131)
(-0.000150508 2.9204e-05 0.103021)
(6.0202e-05 -2.37939e-05 0.0803355)
(4.23925e-05 -1.30226e-05 0.0797834)
(9.72431e-06 -0.000207551 0.10265)
(2.95055e-05 -0.00015224 0.102905)
(0.000116323 -0.000199738 0.101097)
(8.10014e-05 -0.000139339 0.103025)
(9.16884e-06 -0.000257256 0.102514)
(2.91929e-05 -0.000150521 0.103021)
(9.72488e-05 -0.000152351 0.101131)
(-0.000135656 -6.06172e-05 0.0984169)
(-6.06098e-05 -0.000135633 0.0984168)
(-7.16552e-05 -7.1648e-05 0.103024)
(-0.000121628 -4.38723e-05 0.0982134)
(-4.38636e-05 -0.000121612 0.0982112)
(-5.02784e-06 0.000176634 0.100404)
(1.53974e-05 0.000164812 0.0921481)
(-5.90844e-06 0.000207854 0.100449)
(1.05256e-05 0.000137116 0.0918043)
(-1.11281e-05 3.87362e-05 0.0788035)
(-2.7755e-06 2.48876e-05 0.0784019)
(0.000176636 -5.04149e-06 0.100404)
(0.000164783 1.53117e-05 0.0921476)
(0.000207861 -5.92093e-06 0.100449)
(0.000137095 1.05732e-05 0.0918036)
(-8.53425e-05 8.53711e-05 0.103353)
(8.53664e-05 -8.53251e-05 0.103353)
(-8.53584e-05 -8.53415e-05 0.103353)
(8.34518e-05 8.35004e-05 0.103692)
(-8.34621e-05 8.34914e-05 0.103692)
(8.34952e-05 -8.34478e-05 0.103692)
(-8.34855e-05 -8.34655e-05 0.103692)
(-0.000192244 9.55091e-06 0.102924)
(-0.00018737 9.97015e-05 0.100959)
(-0.000145549 2.83957e-05 0.103363)
(-0.000134358 7.7954e-05 0.103461)
(-0.000243384 8.75893e-06 0.102796)
(-0.000140334 8.16103e-05 0.10098)
(-0.000143965 2.81548e-05 0.103475)
(3.87024e-05 -1.10902e-05 0.0788049)
(2.46827e-05 -2.62841e-06 0.0783997)
(9.56178e-06 -0.000192222 0.102923)
(2.83762e-05 -0.000145554 0.103363)
(9.96391e-05 -0.00018744 0.100959)
(7.79593e-05 -0.000134367 0.103461)
(8.78114e-06 -0.000243422 0.102796)
(2.81381e-05 -0.000143979 0.103475)
(8.15811e-05 -0.000140336 0.100979)
(-0.000128889 -5.52282e-05 0.0976623)
(-5.52343e-05 -0.000128884 0.097662)
(-6.32025e-05 -6.3194e-05 0.103428)
(-0.000113954 -3.90919e-05 0.0974487)
(-3.90894e-05 -0.000113955 0.0974462)
(-3.25654e-06 0.000162331 0.100086)
(7.62747e-06 0.00013916 0.0910848)
(-4.36789e-06 0.000193525 0.100147)