/*--------------------------------*- C++ -*----------------------------------*\
| =========                 |                                                 |
| \\      /  F ield         | OpenFOAM: The Open Source CFD Toolbox           |
|  \\    /   O peration     | Version:  2312                                  |
|   \\  /    A nd           | Website:  www.openfoam.com                      |
|    \\/     M anipulation  |                                                 |
\*---------------------------------------------------------------------------*/
FoamFile
{
    version     2.0;
    format      ascii;
    arch        "LSB;label=32;scalar=64";
    class       volScalarField;
    location    "500";
    object      epsilon;
}
// * * * * * * * * * * * * * * * * * * * * * * * * * * * * * * * * * * * * * //

dimensions      [0 2 -3 0 0 0 0];

internalField   nonuniform List<scalar> 
172512
(
6.63539e-07
1.18841e-06
1.18852e-06
1.42052e-06
1.41841e-06
1.18793e-06
1.18782e-06
1.41834e-06
1.18775e-06
1.18792e-06
1.18783e-06
1.18794e-06
1.41849e-06
1.18793e-06
1.18779e-06
1.41846e-06
1.42048e-06
1.18852e-06
1.18842e-06
1.42048e-06
1.18834e-06
1.18852e-06
1.18853e-06
1.42055e-06
1.18837e-06
9.56627e-06
4.23891e-06
9.56751e-06
6.62195e-07
6.62209e-07
6.62323e-07
6.62299e-07
1.90948e-05
1.18667e-06
3.64743e-06
4.2411e-06
9.57243e-06
4.24061e-06
9.57719e-06
1.91046e-05
1.91147e-05
4.24116e-06
9.57403e-06
4.2407e-06
9.5784e-06
6.63545e-07
6.63668e-07
6.63631e-07
2.29658e-06
3.64927e-06
9.37661e-07
1.18895e-06
2.29652e-06
3.64953e-06
9.38466e-07
1.91061e-05
1.9116e-05
2.29664e-06
9.37768e-07
3.64928e-06
1.18906e-06
2.29655e-06
9.38556e-07
3.64955e-06
5.65369e-06
5.65545e-06
1.41956e-06
5.65462e-06
5.65637e-06
1.90911e-05
1.90944e-05
1.4172e-06
5.65056e-06
5.65235e-06
1.91018e-05
1.90917e-05
1.91051e-05
1.9095e-05
1.4193e-06
5.6526e-06
5.65439e-06
5.65166e-06
5.65341e-06
1.18668e-06
3.64723e-06
4.23948e-06
9.57181e-06
9.56693e-06
4.24001e-06
4.23942e-06
9.57197e-06
9.56713e-06
4.23995e-06
2.2959e-06
1.18732e-06
3.64834e-06
9.36787e-07
3.64801e-06
9.35921e-07
2.29605e-06
2.29585e-06
1.18714e-06
3.64871e-06
9.36728e-07
3.64842e-06
9.35847e-07
2.296e-06
1.91041e-05
1.90939e-05
1.4193e-06
5.65405e-06
5.65287e-06
5.6532e-06
1.9103e-05
2.29546e-06
1.18649e-06
3.64779e-06
9.34973e-07
4.23884e-06
9.56707e-06
2.2954e-06
1.18666e-06
9.3501e-07
3.64769e-06
4.23958e-06
9.57304e-06
9.56853e-06
4.24007e-06
2.29596e-06
1.18715e-06
3.64889e-06
9.3677e-07
3.64855e-06
9.35904e-07
2.29607e-06
4.2395e-06
9.5726e-06
9.56816e-06
4.24e-06
2.2959e-06
1.18732e-06
9.36809e-07
3.64879e-06
9.35939e-07
3.64845e-06
2.29601e-06
3.64852e-06
9.36819e-07
2.29605e-06
9.57254e-06
4.24012e-06
9.36834e-07
3.64841e-06
2.29602e-06
9.57245e-06
4.24001e-06
1.41727e-06
5.65216e-06
5.65073e-06
1.90923e-05
1.91055e-05
1.90955e-05
1.41937e-06
5.6542e-06
5.65276e-06
5.65321e-06
5.65178e-06
1.9103e-05
1.90929e-05
9.56728e-06
2.29598e-06
1.18732e-06
9.36917e-07
3.64853e-06
9.36056e-07
3.64819e-06
2.29613e-06
2.2959e-06
1.18719e-06
9.36852e-07
3.64891e-06
9.35988e-07
3.64858e-06
2.29604e-06
4.23971e-06
9.57276e-06
9.5679e-06
4.24017e-06
4.23973e-06
9.5732e-06
9.56833e-06
4.24013e-06
1.41931e-06
5.65265e-06
5.6544e-06
5.65343e-06
1.9104e-05
1.91063e-05
1.90962e-05
1.91024e-05
1.91123e-05
1.91057e-05
1.91156e-05
5.65368e-06
5.65542e-06
1.41951e-06
5.65457e-06
5.65636e-06
1.91129e-05
1.91162e-05
1.42155e-06
5.65562e-06
5.65737e-06
4.24103e-06
9.5726e-06
4.24055e-06
9.57737e-06
2.29657e-06
3.64909e-06
9.37636e-07
1.18905e-06
2.29648e-06
3.64936e-06
9.38425e-07
2.29651e-06
3.6495e-06
9.37579e-07
1.18895e-06
2.29642e-06
3.64973e-06
9.38368e-07
4.24167e-06
9.5778e-06
4.24161e-06
9.57797e-06
2.29697e-06
1.18958e-06
3.6501e-06
9.392e-07
2.29691e-06
1.18948e-06
3.6505e-06
9.39143e-07
5.65521e-06
5.65389e-06
1.41947e-06
5.65602e-06
5.65477e-06
1.91036e-05
1.91135e-05
1.91151e-05
1.42154e-06
5.65715e-06
5.65579e-06
1.91141e-05
2.29658e-06
3.64963e-06
9.37619e-07
1.18887e-06
2.29653e-06
3.64991e-06
9.38411e-07
4.24109e-06
9.57359e-06
4.24063e-06
9.578e-06
2.29652e-06
9.37656e-07
3.64953e-06
1.18905e-06
2.29647e-06
9.38447e-07
3.64981e-06
4.24176e-06
9.57939e-06
2.29702e-06
1.1894e-06
3.65063e-06
9.39186e-07
4.24169e-06
9.57898e-06
2.29696e-06
1.18958e-06
9.39223e-07
3.65054e-06
4.2412e-06
9.57318e-06
4.24081e-06
9.57793e-06
2.29654e-06
9.37682e-07
3.64916e-06
1.18907e-06
2.29649e-06
9.38475e-07
3.64944e-06
4.24109e-06
9.5731e-06
4.24064e-06
9.57788e-06
2.29701e-06
1.18947e-06
3.65026e-06
9.39221e-07
4.24186e-06
9.57854e-06
2.29698e-06
1.18959e-06
9.39249e-07
3.65018e-06
4.2417e-06
9.57847e-06
5.65523e-06
5.65382e-06
1.41959e-06
5.65616e-06
5.65473e-06
1.91036e-05
1.91136e-05
1.91166e-05
1.42162e-06
5.65718e-06
5.65579e-06
1.91141e-05
2.29656e-06
9.37701e-07
3.64966e-06
1.18891e-06
2.29647e-06
9.38488e-07
3.64994e-06
4.24125e-06
9.5734e-06
4.24084e-06
9.57816e-06
4.24121e-06
9.57383e-06
4.24086e-06
9.5786e-06
2.29704e-06
1.18958e-06
9.3933e-07
3.65028e-06
2.29696e-06
1.18944e-06
9.39261e-07
3.65067e-06
4.2419e-06
9.57876e-06
4.24192e-06
9.5792e-06
1.91046e-05
1.91145e-05
1.91069e-05
1.91168e-05
1.4216e-06
5.65566e-06
5.65739e-06
1.91151e-05
1.91174e-05
2.27632e-05
7.24529e-06
9.56411e-06
7.2455e-06
2.277e-05
1.26559e-05
4.23898e-06
4.88461e-06
1.12474e-05
4.88472e-06
1.12453e-05
1.26587e-05
2.2763e-05
7.24531e-06
9.56579e-06
7.24554e-06
2.27698e-05
1.909e-05
1.26705e-05
4.24115e-06
1.12609e-05
4.88716e-06
1.12581e-05
4.88726e-06
1.26728e-05
2.27886e-05
7.24913e-06
9.57453e-06
2.27818e-05
7.24889e-06
1.26692e-05
4.24056e-06
1.12549e-05
4.88664e-06
1.26668e-05
1.12576e-05
4.88654e-06
2.27879e-05
7.25006e-06
9.57514e-06
7.25031e-06
2.27946e-05
1.91094e-05
1.91099e-05
1.26706e-05
4.24124e-06
4.88716e-06
1.12608e-05
4.88729e-06
1.12587e-05
1.26729e-05
2.27883e-05
7.24915e-06
9.57575e-06
2.27816e-05
7.2489e-06
1.26693e-05
4.24063e-06
4.88667e-06
1.12554e-05
1.26669e-05
4.88655e-06
1.12575e-05
2.27877e-05
7.25006e-06
9.57671e-06
7.25032e-06
2.27944e-05
1.91108e-05
1.91114e-05
9.97154e-06
2.24192e-05
2.24185e-05
2.24131e-05
2.24124e-05
9.97116e-06
4.70578e-06
2.97596e-06
9.93716e-06
5.65362e-06
4.70617e-06
2.97576e-06
9.93905e-06
4.71158e-06
2.97714e-06
9.9417e-06
5.65539e-06
4.71194e-06
2.97693e-06
9.94405e-06
9.96949e-06
2.24076e-05
2.24069e-05
9.96985e-06
2.24137e-05
2.2413e-05
4.70676e-06
9.94162e-06
5.65469e-06
2.97602e-06
2.97624e-06
9.93988e-06
4.70636e-06
4.71252e-06
9.94672e-06
5.65643e-06
2.9772e-06
2.97741e-06
9.94438e-06
4.71214e-06
1.90863e-05
1.90896e-05
9.96479e-06
2.23964e-05
2.23957e-05
2.23902e-05
2.23895e-05
9.96443e-06
4.70426e-06
9.93069e-06
5.65062e-06
2.97481e-06
9.92822e-06
4.70385e-06
2.97502e-06
4.71003e-06
9.93579e-06
5.65237e-06
2.97595e-06
9.93332e-06
4.70964e-06
2.97615e-06
1.90971e-05
1.90965e-05
1.91004e-05
1.90998e-05
9.96616e-06
2.23959e-05
2.23952e-05
9.96653e-06
2.24021e-05
2.24014e-05
4.7055e-06
2.97543e-06
5.65268e-06
9.93621e-06
9.93376e-06
2.97564e-06
4.70508e-06
4.71127e-06
2.97657e-06
5.65442e-06
9.94131e-06
9.93887e-06
2.97678e-06
4.71087e-06
4.70447e-06
9.93104e-06
2.97534e-06
5.65159e-06
4.70489e-06
9.93346e-06
2.97512e-06
4.71026e-06
9.93615e-06
2.97648e-06
5.65338e-06
4.71066e-06
9.93856e-06
2.97627e-06
9.96825e-06
2.24077e-05
2.2407e-05
2.24015e-05
2.24008e-05
9.96787e-06
1.26619e-05
1.12481e-05
4.88537e-06
4.23944e-06
1.26595e-05
1.12509e-05
4.88527e-06
2.27757e-05
9.56968e-06
7.2477e-06
2.27824e-05
7.24794e-06
2.27763e-05
7.24673e-06
9.56904e-06
2.27695e-05
7.2465e-06
1.26632e-05
4.24005e-06
1.12543e-05
4.88592e-06
1.26656e-05
1.12515e-05
4.88601e-06
1.2662e-05
1.1248e-05
4.88522e-06
4.23937e-06
1.26596e-05
1.12508e-05
4.88513e-06
2.2776e-05
9.56986e-06
7.24638e-06
7.2466e-06
2.27827e-05
2.27766e-05
7.24539e-06
9.56923e-06
2.27698e-05
7.24518e-06
1.26633e-05
4.23999e-06
1.12542e-05
4.88579e-06
1.12514e-05
4.88587e-06
1.26658e-05
1.90993e-05
1.90988e-05
4.71138e-06
2.97652e-06
5.65421e-06
9.94089e-06
2.97672e-06
9.93846e-06
4.71096e-06
4.70557e-06
2.97549e-06
5.65293e-06
9.93642e-06
9.93467e-06
2.9757e-06
4.70514e-06
2.97642e-06
5.65304e-06
2.97622e-06
9.96843e-06
2.24075e-05
2.24083e-05
2.24014e-05
2.2402e-05
9.96794e-06
1.90981e-05
1.26561e-05
4.23891e-06
1.12473e-05
4.88444e-06
1.12452e-05
4.88453e-06
1.26588e-05
2.27629e-05
7.24368e-06
9.56531e-06
7.24389e-06
2.27697e-05
1.26619e-05
4.88539e-06
1.12487e-05
4.2395e-06
1.26596e-05
4.88527e-06
1.12508e-05
2.27754e-05
9.5713e-06
7.24772e-06
2.27822e-05
7.24796e-06
2.2776e-05
7.24675e-06
9.57033e-06
2.27692e-05
7.24652e-06
1.26633e-05
4.24015e-06
4.88592e-06
1.12542e-05
1.26657e-05
4.88604e-06
1.1252e-05
1.26621e-05
1.12486e-05
4.8852e-06
4.23943e-06
1.26597e-05
1.12507e-05
4.88511e-06
2.27753e-05
9.57087e-06
7.24609e-06
7.24632e-06
2.27821e-05
2.27759e-05
7.24511e-06
9.56988e-06
2.27691e-05
7.24489e-06
1.26635e-05
4.24008e-06
1.1254e-05
4.88576e-06
1.12519e-05
4.88586e-06
1.26659e-05
2.27741e-05
9.57038e-06
7.24732e-06
7.24774e-06
2.27811e-05
1.26621e-05
4.24025e-06
4.88587e-06
1.12543e-05
4.88612e-06
1.12514e-05
1.26657e-05
2.27753e-05
9.57036e-06
7.24589e-06
7.24613e-06
2.27821e-05
1.2663e-05
4.24008e-06
1.12538e-05
4.88572e-06
1.12517e-05
4.8858e-06
1.26661e-05
9.96432e-06
2.23956e-05
2.2396e-05
2.23894e-05
2.23898e-05
9.96394e-06
4.71003e-06
9.93539e-06
5.65218e-06
2.97597e-06
9.93288e-06
2.97613e-06
4.70968e-06
4.70409e-06
9.93068e-06
5.65076e-06
2.97485e-06
2.97503e-06
9.92815e-06
4.70375e-06
1.90875e-05
1.91008e-05
1.91002e-05
9.96567e-06
2.23951e-05
2.23955e-05
9.96606e-06
2.24012e-05
2.24016e-05
4.71128e-06
2.97659e-06
5.65423e-06
9.94086e-06
2.97676e-06
9.93846e-06
4.7109e-06
4.70534e-06
2.97546e-06
5.6528e-06
9.93614e-06
9.93372e-06
2.97566e-06
4.70498e-06
4.7103e-06
9.93572e-06
2.97646e-06
5.65319e-06
2.97629e-06
4.71066e-06
9.93811e-06
4.70437e-06
9.93098e-06
2.97535e-06
5.65174e-06
4.70473e-06
9.9334e-06
2.97516e-06
9.96777e-06
2.24068e-05
2.24072e-05
2.24007e-05
2.24011e-05
9.96738e-06
1.90983e-05
1.90977e-05
9.5651e-06
1.26624e-05
4.88537e-06
1.12481e-05
4.23961e-06
1.26588e-05
4.88531e-06
1.1251e-05
2.27747e-05
9.57065e-06
7.24734e-06
7.24756e-06
2.27814e-05
2.27753e-05
7.24636e-06
9.57002e-06
2.27685e-05
7.24614e-06
1.26626e-05
4.24029e-06
4.88596e-06
1.12543e-05
4.88602e-06
1.12515e-05
1.26659e-05
1.26624e-05
4.88533e-06
1.12479e-05
4.23956e-06
1.26594e-05
4.88518e-06
1.12508e-05
2.27762e-05
9.57108e-06
7.24636e-06
7.24661e-06
2.2783e-05
2.27768e-05
7.24541e-06
9.57046e-06
2.277e-05
7.24516e-06
1.26628e-05
4.24031e-06
4.88582e-06
1.12541e-05
4.88598e-06
1.12512e-05
1.26663e-05
9.96607e-06
2.24025e-05
2.24018e-05
4.70557e-06
2.97548e-06
5.65269e-06
9.9365e-06
4.70519e-06
2.97567e-06
9.93418e-06
4.71135e-06
2.97665e-06
5.65444e-06
9.94136e-06
4.711e-06
2.97685e-06
9.93893e-06
4.70457e-06
5.6516e-06
2.97516e-06
9.93376e-06
4.71038e-06
2.97655e-06
5.65339e-06
2.97636e-06
9.93858e-06
9.96815e-06
2.24081e-05
2.24074e-05
9.96779e-06
2.2402e-05
2.24013e-05
1.90993e-05
1.90987e-05
1.91016e-05
1.9101e-05
1.91071e-05
1.91077e-05
1.91104e-05
1.9111e-05
9.97163e-06
2.24188e-05
2.2418e-05
2.24127e-05
2.24119e-05
9.97123e-06
4.70566e-06
2.97593e-06
9.93656e-06
5.6536e-06
4.7061e-06
9.93896e-06
2.97571e-06
4.71145e-06
2.97707e-06
9.94166e-06
5.65538e-06
4.71187e-06
9.94406e-06
2.97685e-06
9.96956e-06
2.24071e-05
2.24064e-05
9.96995e-06
2.24133e-05
2.24125e-05
4.70668e-06
9.94165e-06
5.65466e-06
2.97597e-06
9.93925e-06
4.70623e-06
2.9762e-06
4.71244e-06
9.94675e-06
5.6564e-06
2.97711e-06
9.94435e-06
4.71202e-06
2.97733e-06
1.91175e-05
1.91208e-05
9.97289e-06
2.24182e-05
2.24174e-05
9.9733e-06
2.24243e-05
2.24235e-05
4.70678e-06
9.94194e-06
2.97644e-06
5.65553e-06
4.70724e-06
9.94431e-06
2.97621e-06
4.71256e-06
9.94703e-06
2.97758e-06
5.65731e-06
4.713e-06
9.9494e-06
2.97735e-06
1.26707e-05
4.24109e-06
1.12608e-05
4.88705e-06
1.1258e-05
4.88712e-06
1.26731e-05
2.27889e-05
7.24778e-06
9.57469e-06
2.27821e-05
7.24757e-06
1.26695e-05
4.2405e-06
1.12547e-05
4.8865e-06
1.12575e-05
1.2667e-05
4.88643e-06
2.27883e-05
7.24874e-06
9.5753e-06
7.24896e-06
2.27949e-05
1.26764e-05
1.12614e-05
4.88786e-06
4.24161e-06
1.2674e-05
1.12641e-05
4.88776e-06
2.28007e-05
7.25147e-06
9.57985e-06
2.2794e-05
7.25121e-06
1.26766e-05
1.12613e-05
4.88773e-06
4.24155e-06
1.26742e-05
1.12641e-05
4.88764e-06
2.2801e-05
7.25013e-06
9.58002e-06
2.27943e-05
7.24989e-06
9.97162e-06
2.24183e-05
2.2419e-05
2.24122e-05
2.24129e-05
9.97121e-06
4.71154e-06
2.97701e-06
9.94125e-06
5.65505e-06
9.94364e-06
4.71192e-06
2.9768e-06
4.7057e-06
2.97598e-06
9.93735e-06
5.65382e-06
2.97576e-06
4.70612e-06
9.93909e-06
9.96957e-06
2.24067e-05
2.24075e-05
2.24128e-05
9.96999e-06
2.24135e-05
4.7125e-06
9.94633e-06
5.65619e-06
2.97707e-06
9.94395e-06
2.97728e-06
4.71211e-06
4.7067e-06
9.94176e-06
5.65485e-06
2.97602e-06
2.97625e-06
9.94004e-06
4.70627e-06
1.91083e-05
1.91089e-05
1.91198e-05
9.97284e-06
2.24177e-05
2.24184e-05
9.97326e-06
2.24238e-05
2.24244e-05
4.71265e-06
9.94664e-06
2.97753e-06
5.65698e-06
2.97731e-06
4.71305e-06
9.94898e-06
4.70682e-06
9.94273e-06
2.9765e-06
5.65571e-06
4.70727e-06
9.94444e-06
2.97626e-06
1.91187e-05
1.26708e-05
4.24117e-06
1.12606e-05
4.887e-06
1.12586e-05
4.88711e-06
1.26731e-05
2.27882e-05
7.24751e-06
9.57533e-06
2.27815e-05
7.24727e-06
1.26695e-05
4.24056e-06
1.12553e-05
4.88649e-06
1.12574e-05
1.26671e-05
4.88639e-06
2.27876e-05
7.24844e-06
9.5763e-06
7.24869e-06
2.27943e-05
1.26765e-05
4.88789e-06
1.12619e-05
4.24167e-06
1.26741e-05
4.88776e-06
1.12641e-05
2.28004e-05
7.25148e-06
9.58108e-06
2.27937e-05
7.25122e-06
1.26766e-05
1.12618e-05
4.88771e-06
4.2416e-06
1.26743e-05
1.12639e-05
4.88759e-06
2.28003e-05
7.24985e-06
9.58066e-06
2.27936e-05
7.2496e-06
1.26695e-05
4.24134e-06
4.8871e-06
1.12609e-05
4.88736e-06
1.12581e-05
1.26729e-05
2.27872e-05
7.24894e-06
9.57526e-06
7.2485e-06
2.27802e-05
1.26694e-05
4.24067e-06
4.88675e-06
1.12548e-05
4.88648e-06
1.26659e-05
1.12576e-05
2.27863e-05
7.24966e-06
9.57587e-06
7.2501e-06
2.27933e-05
1.267e-05
4.24117e-06
1.12604e-05
4.88695e-06
1.12584e-05
4.88705e-06
1.26734e-05
2.27882e-05
7.24732e-06
9.5752e-06
2.27815e-05
7.24708e-06
1.26699e-05
4.24056e-06
1.1255e-05
4.88643e-06
1.26664e-05
1.12572e-05
4.88635e-06
2.27875e-05
7.24825e-06
9.57581e-06
7.2485e-06
2.27943e-05
1.26765e-05
4.88796e-06
1.12614e-05
4.24172e-06
1.2673e-05
4.8877e-06
1.12642e-05
2.27993e-05
7.25126e-06
9.58058e-06
2.27924e-05
7.25081e-06
1.2677e-05
1.12616e-05
4.88766e-06
4.24161e-06
1.26736e-05
1.12637e-05
4.88755e-06
2.28003e-05
7.24966e-06
9.58052e-06
2.27936e-05
7.2494e-06
9.97115e-06
2.24179e-05
2.24183e-05
2.24118e-05
2.24122e-05
9.97074e-06
4.71149e-06
2.97705e-06
9.94124e-06
5.65519e-06
9.94362e-06
4.71187e-06
2.97687e-06
4.70556e-06
2.97595e-06
9.93656e-06
5.65374e-06
2.97574e-06
4.70595e-06
9.93894e-06
9.96907e-06
2.24063e-05
2.24067e-05
2.24124e-05
9.96947e-06
2.24128e-05
4.71245e-06
9.94631e-06
5.65621e-06
2.97714e-06
9.94395e-06
2.97732e-06
4.71205e-06
4.70653e-06
9.94163e-06
5.65482e-06
2.976e-06
2.97622e-06
9.93926e-06
4.70613e-06
1.91083e-05
1.91089e-05
1.91212e-05
9.9724e-06
2.24173e-05
2.24177e-05
9.97282e-06
2.24233e-05
2.24238e-05
4.7126e-06
9.94663e-06
2.97756e-06
5.65712e-06
2.97738e-06
4.71301e-06
9.94896e-06
4.70668e-06
9.94195e-06
2.97647e-06
5.6557e-06
4.70708e-06
9.94429e-06
2.97624e-06
1.91188e-05
1.26698e-05
4.24138e-06
4.8872e-06
1.12609e-05
4.88726e-06
1.12581e-05
1.26732e-05
2.27875e-05
7.24875e-06
9.57548e-06
7.24852e-06
2.27808e-05
1.26697e-05
4.24072e-06
4.88664e-06
1.12548e-05
4.88658e-06
1.26661e-05
1.12576e-05
2.27869e-05
7.24968e-06
9.5761e-06
7.24992e-06
2.27936e-05
1.26701e-05
4.2414e-06
4.88707e-06
1.12607e-05
4.88724e-06
1.12578e-05
1.26735e-05
2.27891e-05
7.24781e-06
9.57592e-06
2.27824e-05
7.24755e-06
1.26701e-05
4.24068e-06
4.88661e-06
1.12546e-05
1.26665e-05
4.88646e-06
1.12574e-05
2.27884e-05
7.24872e-06
9.57653e-06
7.24898e-06
2.27952e-05
1.26768e-05
4.88786e-06
1.12614e-05
4.24177e-06
1.26733e-05
4.88779e-06
1.12642e-05
2.27996e-05
7.25108e-06
9.58081e-06
2.2793e-05
7.25083e-06
1.26771e-05
4.88784e-06
1.12612e-05
4.24173e-06
1.26736e-05
4.88767e-06
1.1264e-05
2.28012e-05
7.25015e-06
9.58125e-06
2.27945e-05
7.24987e-06
1.91093e-05
1.91098e-05
1.91116e-05
1.91121e-05
9.97282e-06
2.24186e-05
2.24179e-05
9.97321e-06
2.24247e-05
2.2424e-05
4.70691e-06
9.94258e-06
2.97649e-06
5.65558e-06
4.70732e-06
2.97626e-06
9.9443e-06
4.71269e-06
9.94706e-06
2.97766e-06
5.65733e-06
4.71307e-06
2.97744e-06
9.94936e-06
1.91197e-05
1.9122e-05
6.59423e-07
4.50811e-07
4.55956e-07
4.55887e-07
6.64823e-07
4.5756e-07
4.57496e-07
2.50594e-07
2.48786e-07
2.82921e-06
1.96978e-06
1.97001e-06
1.41902e-06
2.82955e-06
1.96906e-06
1.96928e-06
2.82927e-06
1.4199e-06
1.96882e-06
1.96901e-06
1.96953e-06
1.96974e-06
2.82893e-06
2.82932e-06
1.41987e-06
1.9689e-06
1.96883e-06
1.96964e-06
1.96957e-06
2.82895e-06
2.82926e-06
1.41998e-06
1.96898e-06
1.96887e-06
1.9697e-06
1.9696e-06
2.82892e-06
2.82932e-06
1.41994e-06
1.96881e-06
1.96903e-06
2.82899e-06
1.96953e-06
1.96977e-06
2.82915e-06
1.96978e-06
1.96999e-06
1.41897e-06
2.8295e-06
1.96906e-06
1.96925e-06
2.82917e-06
1.9699e-06
1.96984e-06
1.41892e-06
1.96909e-06
2.82953e-06
1.96916e-06
2.82914e-06
1.96995e-06
1.96985e-06
1.41905e-06
1.96912e-06
2.82948e-06
1.96922e-06
6.59542e-07
4.50944e-07
6.60837e-07
4.54294e-07
4.54223e-07
4.52619e-07
4.52544e-07
2.45106e-07
2.46947e-07
6.60847e-07
4.54288e-07
4.54273e-07
4.52614e-07
4.52593e-07
2.45118e-07
2.46961e-07
6.60962e-07
4.54364e-07
4.54359e-07
4.52681e-07
4.52686e-07
2.45182e-07
2.47023e-07
6.60941e-07
4.544e-07
4.54338e-07
4.5271e-07
4.52668e-07
2.45198e-07
2.47039e-07
3.64762e-06
2.22352e-06
2.22404e-06
4.55948e-07
4.55929e-07
6.64821e-07
4.57552e-07
4.5754e-07
2.50607e-07
2.48799e-07
4.56028e-07
4.56019e-07
6.64954e-07
4.57637e-07
4.57627e-07
2.50669e-07
2.48862e-07
4.56054e-07
4.55999e-07
6.64917e-07
4.57665e-07
4.57604e-07
2.50684e-07
2.48877e-07
6.66094e-07
4.59155e-07
4.59093e-07
2.52399e-07
6.66091e-07
4.59146e-07
4.59126e-07
2.52412e-07
6.66222e-07
4.59233e-07
4.59219e-07
2.52475e-07
6.66188e-07
4.59255e-07
4.592e-07
2.52489e-07
1.66727e-06
2.29678e-06
2.54184e-06
1.54505e-06
2.54216e-06
1.54601e-06
1.66599e-06
1.845e-06
2.22471e-06
3.0242e-06
3.64903e-06
1.84607e-06
2.22413e-06
3.0238e-06
1.66574e-06
2.29633e-06
2.54189e-06
1.54566e-06
1.667e-06
2.54162e-06
1.54471e-06
1.84636e-06
3.02411e-06
3.64977e-06
2.2243e-06
2.22489e-06
3.02452e-06
1.8453e-06
1.66743e-06
2.29681e-06
1.54519e-06
2.54205e-06
1.54603e-06
2.54223e-06
1.66617e-06
1.84507e-06
2.22474e-06
3.02424e-06
3.64905e-06
1.84611e-06
2.22417e-06
3.02388e-06
1.6659e-06
2.29639e-06
1.54568e-06
2.54201e-06
1.66712e-06
1.54482e-06
2.54182e-06
1.84643e-06
3.0242e-06
3.64979e-06
2.22434e-06
2.22492e-06
3.02456e-06
1.84538e-06
2.82976e-06
1.42108e-06
1.96928e-06
1.9695e-06
1.97002e-06
1.97024e-06
2.82941e-06
2.82876e-06
1.41868e-06
1.96826e-06
1.96846e-06
2.82843e-06
1.96897e-06
1.96918e-06
2.82869e-06
1.41782e-06
1.96926e-06
1.96947e-06
2.82903e-06
1.96855e-06
1.96874e-06
1.84539e-06
3.02277e-06
3.64743e-06
2.22343e-06
3.02317e-06
2.22397e-06
1.84365e-06
1.66518e-06
2.54142e-06
1.54482e-06
2.29576e-06
1.66641e-06
2.54118e-06
1.54392e-06
1.84616e-06
2.2239e-06
3.64856e-06
3.02351e-06
2.22446e-06
3.02392e-06
1.84437e-06
1.84398e-06
3.02355e-06
2.22423e-06
3.64779e-06
2.22368e-06
1.84583e-06
3.02316e-06
1.66673e-06
2.2962e-06
2.54146e-06
1.54434e-06
2.5417e-06
1.54523e-06
1.66549e-06
1.66513e-06
2.54127e-06
1.54477e-06
2.2957e-06
1.66636e-06
2.54105e-06
1.54387e-06
1.84568e-06
2.2241e-06
3.64897e-06
3.02322e-06
3.02359e-06
2.22466e-06
1.8446e-06
1.84428e-06
3.02323e-06
2.22443e-06
3.64816e-06
1.84531e-06
3.02286e-06
2.22387e-06
1.66664e-06
2.29615e-06
2.54132e-06
1.54429e-06
2.54154e-06
1.54518e-06
1.66541e-06
1.41771e-06
1.96939e-06
1.96863e-06
1.66676e-06
2.29564e-06
2.5409e-06
1.54343e-06
2.54115e-06
1.54447e-06
1.66418e-06
1.84564e-06
3.02284e-06
3.64798e-06
2.22375e-06
3.02328e-06
2.22429e-06
1.84339e-06
1.66662e-06
2.29558e-06
1.5434e-06
2.54075e-06
1.54443e-06
2.54098e-06
1.66416e-06
1.8455e-06
3.02243e-06
3.64788e-06
2.22369e-06
3.02285e-06
1.84327e-06
2.22423e-06
1.66482e-06
2.54146e-06
1.54493e-06
2.29578e-06
1.66709e-06
2.5412e-06
1.54391e-06
1.84625e-06
2.22421e-06
3.6491e-06
3.02359e-06
2.22477e-06
3.02404e-06
1.8443e-06
1.84396e-06
3.02368e-06
2.22454e-06
3.64835e-06
2.224e-06
1.84606e-06
3.02324e-06
1.66723e-06
2.29626e-06
2.54146e-06
1.54429e-06
2.54174e-06
1.54533e-06
1.66516e-06
1.66476e-06
1.54489e-06
2.54128e-06
2.29572e-06
1.66694e-06
1.54387e-06
2.54106e-06
1.84608e-06
2.22417e-06
3.649e-06
3.02319e-06
3.0236e-06
2.22472e-06
1.84424e-06
1.84388e-06
3.02324e-06
2.22449e-06
3.64825e-06
1.84593e-06
3.02284e-06
2.22395e-06
1.66712e-06
2.29619e-06
1.54426e-06
2.54132e-06
1.54529e-06
2.54155e-06
1.66508e-06
1.84572e-06
2.22394e-06
3.64874e-06
3.02346e-06
1.84467e-06
2.22449e-06
3.02385e-06
1.66671e-06
2.29624e-06
2.54142e-06
1.54433e-06
1.66542e-06
2.54165e-06
1.54528e-06
1.84599e-06
2.22387e-06
3.64862e-06
3.02306e-06
3.0235e-06
2.22442e-06
1.84426e-06
1.66714e-06
2.29622e-06
1.54428e-06
2.54129e-06
1.5453e-06
2.54157e-06
1.66502e-06
2.82874e-06
1.41875e-06
1.96841e-06
1.96831e-06
1.96903e-06
1.96913e-06
2.82842e-06
2.82868e-06
1.41789e-06
1.96942e-06
1.96932e-06
1.9687e-06
2.82901e-06
1.9686e-06
1.66528e-06
1.54488e-06
2.54147e-06
2.29583e-06
1.66648e-06
1.54403e-06
2.54125e-06
1.8458e-06
2.22398e-06
3.64875e-06
3.02355e-06
1.84476e-06
2.22453e-06
3.02389e-06
1.84444e-06
3.02352e-06
2.2243e-06
3.64799e-06
1.84545e-06
2.22376e-06
3.02318e-06
1.66674e-06
2.29628e-06
1.54443e-06
2.54152e-06
1.6656e-06
1.54529e-06
2.54174e-06
1.66505e-06
1.54481e-06
2.54128e-06
2.29575e-06
1.66627e-06
1.54394e-06
2.54103e-06
1.84566e-06
2.22422e-06
3.64913e-06
3.02329e-06
3.02365e-06
2.22477e-06
1.84458e-06
1.84428e-06
3.02328e-06
2.22455e-06
3.64837e-06
1.84533e-06
3.02291e-06
2.224e-06
1.66654e-06
2.2962e-06
1.54435e-06
2.54133e-06
1.54522e-06
2.54156e-06
1.66538e-06
2.82876e-06
1.41785e-06
1.96949e-06
1.96854e-06
1.96877e-06
2.8297e-06
1.42103e-06
1.96928e-06
1.96948e-06
2.82935e-06
1.97001e-06
1.97022e-06
2.82953e-06
1.42002e-06
1.97021e-06
1.97042e-06
2.82989e-06
1.96948e-06
1.96967e-06
1.66732e-06
2.29674e-06
2.54202e-06
1.54508e-06
2.5422e-06
1.54596e-06
1.66605e-06
1.84461e-06
2.22467e-06
3.02427e-06
3.64886e-06
3.02385e-06
1.84651e-06
2.2241e-06
1.66578e-06
2.29632e-06
2.54196e-06
1.5456e-06
2.54174e-06
1.66704e-06
1.54471e-06
1.84691e-06
3.02418e-06
3.64961e-06
2.22428e-06
3.0246e-06
2.22486e-06
1.84503e-06
1.66723e-06
2.29668e-06
2.54186e-06
1.54503e-06
2.54204e-06
1.5459e-06
1.66596e-06
1.8449e-06
2.22487e-06
3.02393e-06
3.64923e-06
1.846e-06
3.02356e-06
2.22429e-06
1.66569e-06
2.29626e-06
2.5418e-06
1.54555e-06
1.66696e-06
2.54159e-06
1.54467e-06
1.8463e-06
3.02389e-06
3.65001e-06
2.22447e-06
3.02426e-06
1.84523e-06
2.22505e-06
1.66625e-06
2.54241e-06
1.54628e-06
2.2968e-06
1.66756e-06
2.54223e-06
1.54543e-06
1.84536e-06
3.0249e-06
2.22502e-06
3.64985e-06
2.22443e-06
1.8471e-06
3.02449e-06
1.66616e-06
2.54225e-06
1.54623e-06
2.29674e-06
1.66747e-06
2.54208e-06
1.54538e-06
1.8455e-06
3.02457e-06
2.22522e-06
3.65021e-06
1.84659e-06
3.0242e-06
2.22462e-06
2.82974e-06
1.42103e-06
1.96938e-06
1.96931e-06
1.97006e-06
1.97014e-06
2.82937e-06
2.82955e-06
1.41998e-06
1.97034e-06
1.97027e-06
1.96958e-06
2.82993e-06
1.96951e-06
1.66782e-06
2.29679e-06
2.54191e-06
1.54495e-06
2.54234e-06
1.5461e-06
1.66559e-06
1.8445e-06
2.22498e-06
3.02438e-06
3.64941e-06
3.02393e-06
1.84663e-06
2.22441e-06
1.66535e-06
2.29634e-06
2.54201e-06
1.54572e-06
2.54169e-06
1.66753e-06
1.54465e-06
1.847e-06
3.02425e-06
3.65014e-06
2.22458e-06
3.0247e-06
2.22516e-06
1.84495e-06
1.66773e-06
2.29672e-06
1.54492e-06
2.54179e-06
1.54606e-06
2.54209e-06
1.66552e-06
1.84445e-06
2.22492e-06
3.02394e-06
3.64931e-06
1.84646e-06
3.02353e-06
2.22437e-06
1.66529e-06
2.29628e-06
1.54568e-06
2.54182e-06
1.66743e-06
1.54462e-06
2.54155e-06
1.84681e-06
3.02385e-06
3.65005e-06
2.22454e-06
3.02426e-06
1.84486e-06
2.22511e-06
1.6658e-06
2.54252e-06
1.54649e-06
2.29681e-06
1.66802e-06
2.54209e-06
1.54523e-06
1.84524e-06
3.025e-06
2.22532e-06
3.65039e-06
2.22473e-06
1.84714e-06
3.02455e-06
1.66572e-06
1.54645e-06
2.54236e-06
2.29675e-06
1.66794e-06
1.54519e-06
2.54195e-06
1.84515e-06
3.02456e-06
2.22527e-06
3.6503e-06
1.84701e-06
3.02414e-06
2.22469e-06
1.66763e-06
2.29674e-06
1.54496e-06
2.54175e-06
1.54605e-06
2.54215e-06
1.66553e-06
1.84448e-06
2.22464e-06
3.02385e-06
3.64893e-06
2.22407e-06
1.84628e-06
3.02341e-06
1.66518e-06
2.29629e-06
1.54568e-06
2.54182e-06
1.54465e-06
1.66743e-06
2.54153e-06
1.84665e-06
3.02372e-06
3.64968e-06
2.22425e-06
2.22483e-06
3.02418e-06
1.84484e-06
1.66619e-06
2.54246e-06
1.54633e-06
2.2968e-06
1.6675e-06
2.54205e-06
1.54534e-06
1.84556e-06
3.02483e-06
2.22505e-06
3.65e-06
1.84665e-06
2.22445e-06
3.02441e-06
1.6657e-06
1.54641e-06
2.54237e-06
2.29678e-06
1.66788e-06
1.54524e-06
2.54195e-06
1.84511e-06
3.02448e-06
2.22499e-06
3.64992e-06
1.84697e-06
3.02403e-06
2.2244e-06
2.82969e-06
1.4211e-06
1.96944e-06
1.96934e-06
1.97008e-06
1.97018e-06
2.82934e-06
2.82953e-06
1.4201e-06
1.97038e-06
1.97028e-06
1.96964e-06
2.82988e-06
1.96954e-06
1.66723e-06
2.29673e-06
1.54511e-06
2.54189e-06
1.54596e-06
2.54207e-06
1.66598e-06
1.84491e-06
2.22498e-06
3.024e-06
3.64944e-06
2.22442e-06
1.84598e-06
3.02362e-06
1.66569e-06
2.29631e-06
1.5456e-06
2.54181e-06
1.54474e-06
1.66694e-06
2.54159e-06
1.84629e-06
3.02394e-06
3.65017e-06
2.22459e-06
2.22516e-06
3.02433e-06
1.84524e-06
1.66635e-06
1.54634e-06
2.54245e-06
2.29687e-06
1.66766e-06
1.54553e-06
2.54228e-06
1.84565e-06
3.02486e-06
2.22508e-06
3.65003e-06
1.84672e-06
2.22449e-06
3.0245e-06
1.66618e-06
1.54628e-06
2.54225e-06
2.29679e-06
1.66747e-06
1.54546e-06
2.54208e-06
1.84552e-06
3.02463e-06
2.22533e-06
3.65042e-06
1.84659e-06
3.02424e-06
2.22474e-06
2.82959e-06
1.42008e-06
1.97022e-06
1.97045e-06
2.82995e-06
1.96948e-06
1.9697e-06
6.68503e-07
1.1904e-06
1.19052e-06
1.42257e-06
6.72898e-07
1.1919e-06
1.19203e-06
1.42419e-06
6.76742e-07
1.19293e-06
1.19306e-06
1.42555e-06
6.80058e-07
1.19351e-06
1.19364e-06
1.42653e-06
6.82867e-07
1.19365e-06
1.19378e-06
1.427e-06
6.85193e-07
1.19342e-06
1.19354e-06
1.4271e-06
6.87057e-07
1.1928e-06
1.19292e-06
1.42686e-06
6.88483e-07
1.19181e-06
1.19193e-06
1.42595e-06
6.89493e-07
1.19048e-06
1.1906e-06
1.4251e-06
6.90105e-07
1.18884e-06
1.18896e-06
1.42394e-06
6.9035e-07
1.18691e-06
1.18703e-06
1.42251e-06
6.90268e-07
1.18471e-06
1.18483e-06
1.42082e-06
6.89889e-07
1.18226e-06
1.18238e-06
1.4189e-06
6.89218e-07
1.17959e-06
1.1797e-06
1.41679e-06
6.88282e-07
1.17671e-06
1.17682e-06
1.41441e-06
6.87099e-07
1.17366e-06
1.17375e-06
1.41185e-06
6.85696e-07
1.17045e-06
1.17053e-06
1.40913e-06
6.84102e-07
1.16707e-06
1.16719e-06
1.40624e-06
6.81173e-07
1.16234e-06
1.16246e-06
1.40264e-06
7.37624e-07
1.07587e-06
1.07595e-06
1.35215e-06
1.4205e-06
1.19005e-06
1.18994e-06
1.42047e-06
1.18987e-06
1.19005e-06
1.18994e-06
1.19006e-06
1.42059e-06
1.19005e-06
1.1899e-06
1.42057e-06
1.42252e-06
1.42219e-06
1.19052e-06
1.19041e-06
1.19167e-06
1.19156e-06
1.4225e-06
1.42216e-06
1.19034e-06
1.19052e-06
1.19149e-06
1.19167e-06
1.19053e-06
1.19156e-06
1.19169e-06
1.42259e-06
1.42228e-06
1.19037e-06
1.19168e-06
1.19153e-06
1.42226e-06
1.42413e-06
1.42343e-06
1.19202e-06
1.19191e-06
1.19282e-06
1.19271e-06
1.42411e-06
1.42337e-06
1.19184e-06
1.19202e-06
1.19264e-06
1.19282e-06
1.19204e-06
1.1927e-06
1.19283e-06
1.42421e-06
1.42366e-06
1.19188e-06
1.19282e-06
1.19268e-06
1.42348e-06
1.42548e-06
1.42422e-06
1.19306e-06
1.19294e-06
1.19351e-06
1.1934e-06
1.42549e-06
1.42419e-06
1.19288e-06
1.19306e-06
1.19334e-06
1.19352e-06
1.19307e-06
1.19339e-06
1.19353e-06
1.42542e-06
1.42459e-06
1.19291e-06
1.19351e-06
1.19338e-06
1.42429e-06
1.42645e-06
1.42473e-06
1.19364e-06
1.19352e-06
1.19378e-06
1.19367e-06
1.42641e-06
1.42476e-06
1.19346e-06
1.19364e-06
1.1936e-06
1.19379e-06
1.19365e-06
1.19366e-06
1.19379e-06
1.42625e-06
1.4251e-06
1.1935e-06
1.19378e-06
1.19364e-06
1.4248e-06
1.42691e-06
1.42488e-06
1.19378e-06
1.19367e-06
1.19361e-06
1.1935e-06
1.4267e-06
1.42512e-06
1.1936e-06
1.19378e-06
1.19344e-06
1.19362e-06
1.19379e-06
1.19349e-06
1.19363e-06
1.42671e-06
1.42524e-06
1.19364e-06
1.19361e-06
1.19348e-06
1.42495e-06
1.42701e-06
1.42468e-06
1.19354e-06
1.19343e-06
1.19306e-06
1.19294e-06
1.4267e-06
1.42493e-06
1.19336e-06
1.19355e-06
1.19289e-06
1.19307e-06
1.19356e-06
1.19293e-06
1.19307e-06
1.42681e-06
1.42504e-06
1.19341e-06
1.19305e-06
1.19292e-06
1.42475e-06
1.42677e-06
1.42415e-06
1.19292e-06
1.19281e-06
1.19213e-06
1.19202e-06
1.42646e-06
1.4244e-06
1.19274e-06
1.19293e-06
1.19196e-06
1.19214e-06
1.19293e-06
1.19201e-06
1.19215e-06
1.42657e-06
1.42451e-06
1.19279e-06
1.19213e-06
1.192e-06
1.42447e-06
1.4262e-06
1.42331e-06
1.19194e-06
1.19182e-06
1.19086e-06
1.19075e-06
1.42589e-06
1.42356e-06
1.19176e-06
1.19195e-06
1.19069e-06
1.19087e-06
1.19195e-06
1.19074e-06
1.19088e-06
1.426e-06
1.42366e-06
1.1918e-06
1.19086e-06
1.19073e-06
1.42365e-06
1.42532e-06
1.42218e-06
1.19061e-06
1.1905e-06
1.18928e-06
1.18916e-06
1.42502e-06
1.42242e-06
1.19044e-06
1.19062e-06
1.18911e-06
1.18929e-06
1.19062e-06
1.18915e-06
1.18929e-06
1.42512e-06
1.42253e-06
1.19048e-06
1.18927e-06
1.18914e-06
1.42252e-06
1.42415e-06
1.42077e-06
1.18897e-06
1.18886e-06
1.18739e-06
1.18728e-06
1.42385e-06
1.42102e-06
1.1888e-06
1.18898e-06
1.18722e-06
1.1874e-06
1.18898e-06
1.18727e-06
1.1874e-06
1.42395e-06
1.42113e-06
1.18883e-06
1.18738e-06
1.18726e-06
1.42112e-06
1.42272e-06
1.41912e-06
1.18703e-06
1.18692e-06
1.18523e-06
1.18512e-06
1.42242e-06
1.41921e-06
1.18687e-06
1.18705e-06
1.18506e-06
1.18524e-06
1.18705e-06
1.18511e-06
1.18524e-06
1.42253e-06
1.41914e-06
1.1869e-06
1.18522e-06
1.18509e-06
1.41946e-06
1.42101e-06
1.41732e-06
1.18483e-06
1.18473e-06
1.18281e-06
1.1827e-06
1.42099e-06
1.41728e-06
1.18467e-06
1.18485e-06
1.18265e-06
1.18283e-06
1.18485e-06
1.18269e-06
1.18283e-06
1.42108e-06
1.41737e-06
1.1847e-06
1.18281e-06
1.18268e-06
1.41754e-06
1.41893e-06
1.41519e-06
1.18238e-06
1.18228e-06
1.18016e-06