/*--------------------------------*- C++ -*----------------------------------*\
| =========                 |                                                 |
| \\      /  F ield         | OpenFOAM: The Open Source CFD Toolbox           |
|  \\    /   O peration     | Version:  2312                                  |
|   \\  /    A nd           | Website:  www.openfoam.com                      |
|    \\/     M anipulation  |                                                 |
\*---------------------------------------------------------------------------*/
FoamFile
{
    version     2.0;
    format      ascii;
    arch        "LSB;label=32;scalar=64";
    class       volScalarField;
    location    "500";
    object      p;
}
// * * * * * * * * * * * * * * * * * * * * * * * * * * * * * * * * * * * * * //

dimensions      [0 2 -2 0 0 0 0];

internalField   nonuniform List<scalar> 
172512
(
0.000710841
0.000710789
0.000710789
0.000712365
0.000718013
0.000719625
0.000719624
0.000718013
0.000719625
0.000719625
0.000719625
0.000719624
0.000718013
0.000719625
0.000719625
0.000718013
0.000712365
0.00071079
0.000710789
0.000712365
0.000710789
0.000710789
0.000710789
0.000712365
0.000710789
0.00073513
0.000735127
0.00073513
0.000719677
0.000719678
0.000719677
0.000719677
0.000735128
0.000737291
0.000735165
0.000699791
0.000712933
0.000712921
0.000699794
0.00071294
0.000699792
0.000699791
0.000712933
0.000712921
0.000699794
0.000710841
0.000710841
0.000710841
0.000699873
0.000712885
0.000710809
0.000701952
0.000712836
0.000699829
0.000701972
0.00071294
0.000699792
0.000699873
0.000710809
0.000712885
0.000701953
0.000712836
0.000701972
0.000699829
0.000712932
0.000712932
0.00070034
0.000699787
0.000699787
0.000735129
0.000735129
0.000735679
0.000735123
0.000735123
0.000717464
0.000730606
0.000717464
0.000730607
0.000730033
0.000717458
0.000717458
0.000730599
0.000730599
0.000737291
0.000735165
0.000730587
0.000717465
0.000730599
0.000717462
0.000730587
0.000717465
0.000730599
0.000717462
0.000730503
0.000728458
0.0007175
0.000719645
0.000730552
0.000728478
0.000717544
0.000730503
0.000728459
0.0007175
0.000719644
0.000730551
0.000728479
0.000717544
0.000717463
0.000730606
0.000730032
0.000717458
0.000717458
0.000730598
0.000717464
0.00073521
0.000737291
0.000735165
0.000737311
0.000735127
0.000735129
0.00073521
0.000737291
0.000737311
0.000735165
0.000730587
0.000717465
0.000730599
0.000717462
0.000730503
0.000728458
0.0007175
0.000719644
0.000730552
0.000728479
0.000717544
0.000730587
0.000717465
0.000730599
0.000717462
0.000730503
0.000728459
0.000719644
0.0007175
0.000728479
0.000730552
0.000717544
0.0007175
0.000719644
0.000717544
0.000717465
0.000717463
0.000719644
0.0007175
0.000717544
0.000717464
0.000717462
0.000735679
0.000735123
0.000735123
0.000735128
0.000717464
0.000730606
0.000730033
0.000717458
0.000717458
0.000730599
0.000730599
0.000717464
0.000730607
0.00073513
0.000730503
0.000728459
0.000719645
0.0007175
0.000728479
0.000730552
0.000717544
0.000730503
0.000728458
0.000719644
0.0007175
0.000728478
0.000730552
0.000717545
0.000730587
0.000717465
0.0007306
0.000717463
0.000730586
0.000717465
0.000730599
0.000717463
0.000730032
0.000717458
0.000717458
0.000730599
0.000717463
0.000717464
0.000730607
0.00071294
0.000699793
0.00071294
0.000699793
0.000712932
0.000712932
0.000700341
0.000699787
0.000699787
0.000695267
0.000695268
0.000694691
0.000695259
0.00069526
0.000699791
0.000712932
0.00071292
0.000699794
0.000699872
0.000712885
0.000710809
0.000701953
0.000712836
0.000699829
0.000701972
0.000699872
0.000712885
0.000710809
0.000701953
0.000712836
0.000699829
0.000701972
0.000695248
0.00069526
0.000695248
0.00069526
0.000695163
0.000693114
0.000695213
0.000693133
0.000695163
0.000693114
0.000695212
0.000693133
0.000712932
0.000712932
0.000700341
0.000699787
0.000699787
0.00071294
0.000699793
0.000695267
0.000694691
0.000695259
0.00069526
0.000695267
0.000699873
0.000712885
0.000710809
0.000701953
0.000712836
0.000699829
0.000701972
0.000699791
0.000712933
0.000712921
0.000699794
0.000699873
0.000710809
0.000712885
0.000701953
0.000712836
0.000701972
0.000699828
0.000695248
0.00069526
0.000695163
0.000693114
0.000695213
0.000693133
0.000695248
0.00069526
0.000695163
0.000693114
0.000693133
0.000695213
0.000699792
0.000712933
0.00071292
0.000699794
0.000699873
0.000710809
0.000712885
0.000701953
0.000712836
0.000701972
0.000699829
0.000699791
0.000712933
0.00071292
0.000699794
0.000695163
0.000693114
0.000695212
0.000693133
0.000695247
0.00069526
0.000695163
0.000693114
0.000693133
0.000695213
0.000695248
0.00069526
0.000712933
0.000712932
0.000700341
0.000699787
0.000699787
0.00071294
0.000699793
0.000695267
0.000694691
0.00069526
0.00069526
0.000695268
0.000699873
0.000710809
0.000712885
0.000701952
0.000712836
0.000701972
0.000699828
0.000699792
0.000712933
0.00071292
0.000699794
0.000699792
0.000712933
0.00071292
0.000699794
0.000695163
0.000693114
0.000693133
0.000695213
0.000695163
0.000693114
0.000693133
0.000695212
0.000695248
0.00069526
0.000695247
0.00069526
0.00071294
0.000699793
0.00071294
0.000699793
0.000694691
0.00069526
0.00069526
0.000695267
0.000695267
0.000739442
0.000735117
0.00073943
0.000739434
0.000735126
0.00073944
0.000739418
0.000735126
0.000735122
0.000739421
0.000739438
0.000735122
0.000739442
0.000735117
0.00073943
0.000739434
0.000735126
0.000739437
0.000704107
0.000704085
0.000699785
0.00069979
0.000704105
0.000704088
0.000699786
0.000708626
0.000712937
0.00070863
0.000712944
0.000708617
0.000708622
0.000708627
0.000712941
0.000712924
0.000712943
0.000708622
0.000708626
0.000704109
0.000699781
0.000704097
0.000704101
0.00069979
0.000708629
0.000704104
0.000704108
0.000704085
0.00069979
0.000699786
0.000704088
0.000704106
0.000699786
0.000708626
0.000712937
0.00070863
0.000712945
0.000708617
0.000708622
0.000708628
0.000712924
0.000712941
0.000712943
0.000708626
0.000708622
0.000704109
0.000699781
0.000704097
0.000704102
0.00069979
0.000708629
0.000704105
0.000704111
0.000699788
0.000699788
0.000704114
0.000704114
0.000699778
0.000708646
0.000712875
0.000712936
0.000708623
0.000712909
0.000708676
0.000708631
0.000708646
0.000712875
0.000712936
0.000708623
0.000712909
0.000708676
0.000708631
0.000708615
0.00071295
0.00071295
0.000712947
0.000708624
0.000708624
0.000704073
0.000699795
0.000704097
0.00069984
0.000704039
0.0007041
0.00069981
0.000704073
0.000699795
0.000704097
0.000699839
0.000704039
0.0007041
0.00069981
0.000739437
0.000739438
0.000739444
0.000735124
0.000735124
0.000739448
0.000739448
0.000735115
0.000739406
0.000735131
0.00073943
0.000735177
0.000739433
0.000735147
0.000739373
0.000739406
0.000735131
0.00073943
0.000735177
0.000739433
0.000735147
0.000739373
0.000721774
0.000726297
0.000721774
0.000726297
0.000726283
0.000730616
0.000730616
0.000730613
0.000726292
0.000726292
0.000721742
0.000717511
0.000721766
0.000717466
0.00072177
0.000721709
0.000717481
0.000721743
0.000717511
0.000721767
0.000717466
0.00072177
0.000721709
0.000717481
0.000726315
0.000730602
0.000730542
0.000726291
0.000730575
0.000726299
0.000726344
0.000726315
0.000730602
0.000730542
0.000726291
0.000730575
0.000726299
0.000726344
0.00072178
0.000717459
0.000717459
0.000721784
0.000721784
0.00071745
0.00072629
0.000730607
0.00073059
0.000726296
0.000730609
0.00072629
0.000726294
0.000721778
0.000721767
0.000717452
0.000717461
0.000721771
0.000726294
0.000730603
0.000726298
0.000730611
0.000726285
0.000721777
0.000721755
0.000717457
0.000717461
0.000717457
0.000721775
0.000721758
0.00072629
0.000730607
0.00073059
0.000726296
0.000730609
0.00072629
0.000726294
0.000721778
0.000721766
0.000717452
0.000721771
0.000717461
0.000726294
0.000730603
0.000726298
0.000730611
0.000726285
0.000721777
0.000721755
0.000717457
0.000717461
0.000721775
0.000721758
0.000717457
0.000721774
0.000726297
0.000721742
0.000717511
0.000721766
0.000717466
0.000721709
0.000721769
0.000717481
0.000721742
0.000717511
0.000721766
0.000717466
0.000721769
0.000721708
0.000717481
0.000730541
0.000726291
0.000726344
0.00072178
0.000717459
0.000717459
0.000721784
0.000721784
0.00071745
0.000721774
0.00073944
0.000739418
0.000735122
0.000735126
0.000739438
0.000739421
0.000735121
0.000739442
0.000735117
0.00073943
0.000739434
0.000735125
0.00072629
0.00073059
0.000730607
0.000726296
0.000730609
0.000726294
0.00072629
0.000721778
0.000721767
0.000717452
0.000717461
0.000721771
0.000726294
0.000730603
0.000726298
0.000730611
0.000726285
0.000721777
0.000721755
0.000717461
0.000717457
0.000717457
0.000721758
0.000721775
0.00072629
0.000730607
0.00073059
0.000726296
0.000730609
0.00072629
0.000726294
0.000721778
0.000721767
0.000717452
0.000721771
0.000717461
0.000726294
0.000730604
0.000726298
0.000730611
0.000726285
0.000721777
0.000721755
0.000717457
0.000717461
0.000721775
0.000721758
0.000717457
0.000721778
0.000721767
0.000717452
0.00072177
0.00071746
0.000721776
0.000721754
0.000717462
0.000717456
0.000721757
0.000721774
0.000717457
0.000721778
0.000721766
0.000717452
0.000721771
0.000717461
0.000721777
0.000721754
0.000717456
0.000717461
0.000721775
0.000721757
0.000717457
0.000739444
0.000735124
0.000735124
0.000739447
0.000739447
0.000735115
0.000739406
0.000735131
0.00073943
0.000735176
0.000739433
0.000739373
0.000735146
0.000739406
0.000735131
0.00073943
0.000735176
0.000739373
0.000739433
0.000735146
0.000739437
0.000721774
0.000726297
0.000726283
0.000730617
0.000730617
0.000730613
0.000726292
0.000726292
0.000721743
0.00071751
0.000721766
0.000717466
0.00072171
0.00072177
0.000717481
0.000721743
0.000717511
0.000721766
0.000717466
0.00072177
0.000721709
0.000717481
0.000726314
0.000730602
0.000730542
0.000726291
0.000726344
0.000730576
0.000726299
0.000726314
0.000730602
0.000730542
0.000726291
0.000730576
0.000726299
0.000726344
0.000721781
0.000717459
0.000717459
0.000721784
0.000721784
0.00071745
0.000721774
0.000726297
0.00073943
0.00072629
0.000730591
0.000730608
0.000726296
0.00073061
0.000726294
0.00072629
0.000721779
0.000721767
0.000717452
0.000721771
0.000717461
0.000726294
0.000730604
0.000726298
0.000730611
0.000726285
0.000721777
0.000721754
0.000717461
0.000717457
0.000721758
0.000721775
0.000717457
0.00072629
0.00073059
0.000730607
0.000726296
0.000730609
0.000726295
0.00072629
0.000721778
0.000721767
0.000717452
0.000721771
0.000717461
0.000726294
0.000730604
0.000726298
0.000730611
0.000726285
0.000721777
0.000721754
0.000717461
0.000717457
0.000721757
0.000721775
0.000717457
0.000726283
0.000726292
0.000726292
0.000721742
0.000717511
0.000721766
0.000717466
0.000717481
0.000721709
0.000721769
0.000721743
0.000717511
0.000721766
0.000717466
0.000717481
0.000721709
0.00072177
0.000726314
0.000726291
0.000726344
0.000726299
0.000726314
0.000730541
0.000726291
0.000726344
0.000726299
0.00072178
0.000717459
0.000717459
0.000717449
0.000721784
0.000721784
0.000721774
0.000726297
0.000721774
0.000726297
0.000708629
0.000704104
0.000708629
0.000704105
0.000704111
0.000699788
0.000699788
0.000704114
0.000704114
0.000699779
0.000708646
0.000712875
0.000712936
0.000708623
0.000712908
0.000708631
0.000708676
0.000708646
0.000712875
0.000712936
0.000708623
0.000712909
0.000708631
0.000708676
0.000708615
0.00071295
0.00071295
0.000712946
0.000708624
0.000708624
0.000704073
0.000699795
0.000704097
0.00069984
0.0007041
0.00069981
0.000704039
0.000704073
0.000699795
0.000704097
0.00069984
0.0007041
0.00069981
0.000704039
0.000690955
0.000690955
0.000690941
0.000695277
0.000695277
0.000695274
0.00069095
0.00069095
0.000690972
0.000695263
0.000695202
0.000690949
0.000695236
0.000690957
0.000691001
0.000690972
0.000695263
0.000695202
0.000690949
0.000695236
0.000690957
0.000691001
0.000704107
0.000704085
0.000699785
0.00069979
0.000704105
0.000704088
0.000699786
0.000708626
0.000712937
0.00070863
0.000712944
0.000708617
0.000708622
0.000708627
0.000712941
0.000712924
0.000708622
0.000712943
0.000708626
0.000704109
0.000699781
0.000704097
0.000704101
0.00069979
0.000690948
0.000695268
0.000695251
0.000690953
0.00069527
0.000690948
0.000690952
0.000690952
0.000695264
0.000690956
0.000695272
0.000690943
0.000690948
0.000695268
0.000695251
0.000690953
0.00069527
0.000690948
0.000690952
0.000690952
0.000695264
0.000690956
0.000695272
0.000690943
0.000704111
0.000699788
0.000699788
0.000704114
0.000704114
0.000699779
0.000708646
0.000712875
0.000712935
0.000708624
0.000708631
0.000712909
0.000708676
0.000708647
0.000712875
0.000712935
0.000708623
0.000708676
0.000712909
0.000708631
0.000708615
0.000712949
0.00071295
0.000708624
0.000712946
0.000708624
0.000704073
0.000699795
0.000704096
0.000699839
0.0007041
0.000704039
0.00069981
0.000704073
0.000699795
0.000704097
0.00069984
0.000704039
0.0007041
0.00069981
0.000708629
0.000704104
0.000690955
0.000690941
0.000695277
0.000695277
0.000695274
0.00069095
0.00069095
0.000690972
0.000695263
0.000695202
0.000690949
0.000691001
0.000695236
0.000690957
0.000690972
0.000695263
0.000695202
0.000690949
0.000695236
0.000690957
0.000691002
0.000690955
0.000704108
0.000704085
0.000699786
0.00069979
0.000704106
0.000704089
0.000699786
0.000708626
0.000712937
0.00070863
0.000712945
0.000708617
0.000708622
0.000708628
0.000712941
0.000712924
0.000708622
0.000712943
0.000708626
0.000704109
0.000699781
0.000704097
0.000704102
0.00069979
0.000690948
0.000695251
0.000695268
0.000690953
0.00069527
0.000690952
0.000690948
0.000690952
0.000695264
0.000690956
0.000695272
0.000690943
0.000690948
0.000695268
0.000695251
0.000690953
0.00069527
0.000690948
0.000690952
0.000690952
0.000695264
0.000690956
0.000695272
0.000690943
0.000704107
0.000704085
0.000699791
0.000699786
0.000704087
0.000704105
0.000699786
0.000708626
0.000712936
0.00070863
0.000708618
0.000712944
0.000708622
0.000708628
0.000712923
0.000712941
0.000708627
0.000712942
0.000708622
0.000704109
0.000699781
0.000704097
0.000704101
0.00069979
0.000704108
0.000704085
0.000699786
0.00069979
0.000704105
0.000704088
0.000699786
0.000708626
0.000712937
0.00070863
0.000712944
0.000708617
0.000708622
0.000708627
0.000712941
0.000712924
0.000712943
0.000708622
0.000708626
0.000704109
0.000699781
0.000704097
0.000704101
0.00069979
0.000690948
0.00069525
0.000695268
0.000690954
0.00069527
0.000690953
0.000690948
0.000690952
0.000695264
0.000690956
0.000695272
0.000690943
0.000690948
0.000695268
0.000695251
0.000690953
0.00069527
0.000690948
0.000690952
0.000690952
0.000695264
0.000690956
0.000695272
0.000690943
0.000704111
0.000699788
0.000699788
0.000704114
0.000704115
0.000699779
0.000708646
0.000712876
0.000712936
0.000708623
0.000708631
0.000712909
0.000708676
0.000708646
0.000712875
0.000712936
0.000708623
0.000708676
0.000712909
0.000708631
0.000708615
0.00071295
0.00071295
0.000708624
0.000712947
0.000708624
0.000704073
0.000699795
0.000704097
0.000699839
0.0007041
0.00070404
0.00069981
0.000704073
0.000699795
0.000704097
0.000699839
0.000704039
0.0007041
0.00069981
0.000708629
0.000704105
0.000690955
0.000690941
0.000695277
0.000695277
0.000695274
0.00069095
0.00069095
0.000690972
0.000695263
0.000695203
0.000690949
0.000691001
0.000695236
0.000690957
0.000690972
0.000695263
0.000695202
0.000690949
0.000695236
0.000690957
0.000691001
0.000690955
0.000704108
0.000704085
0.00069979
0.000699786
0.000704088
0.000704105
0.000699786
0.000708626
0.000712937
0.00070863
0.000708617
0.000712945
0.000708622
0.000708628
0.000712924
0.000712941
0.000708626
0.000712943
0.000708622
0.000704109
0.000699781
0.000704097
0.000704102
0.00069979
0.000704107
0.000704084
0.00069979
0.000699786
0.000704088
0.000704105
0.000699786
0.000708626
0.000712937
0.00070863
0.000712944
0.000708617
0.000708622
0.000708628
0.000712923
0.000712941
0.000712943
0.000708627
0.000708622
0.000704109
0.000699781
0.000704097
0.000704101
0.00069979
0.000690948
0.000695251
0.000695268
0.000690954
0.00069527
0.000690952
0.000690948
0.000690952
0.000695265
0.000690956
0.000695272
0.000690943
0.000690948
0.000695251
0.000695268
0.000690954
0.00069527
0.000690952
0.000690948
0.000690952
0.000695264
0.000690956
0.000695272
0.000690943
0.000708629
0.000704105
0.000708629
0.000704105
0.000690941
0.000695277
0.000695277
0.000695274
0.00069095
0.00069095
0.000690972
0.000695263
0.000695202
0.000690949
0.000695236
0.000691001
0.000690957
0.000690972
0.000695263
0.000695202
0.000690949
0.000695236
0.000691001
0.000690957
0.000690955
0.000690955
0.000737345
0.000737378
0.000710873
0.000710873
0.000702004
0.000702035
0.000702035
0.00070208
0.000710918
0.000708747
0.000712644
0.000712645
0.000709177
0.000712807
0.00070892
0.000708919
0.00072164
0.0007212
0.000717755
0.000717755
0.000721478
0.000721479
0.000717582
0.00072164
0.000721199
0.000717756
0.000717754
0.00072148
0.000721477
0.000717582
0.000721641
0.0007212
0.000717755
0.000717755
0.000721478
0.000721479
0.000717582
0.000721641
0.0007212
0.000717755
0.000717755
0.000717582
0.000721479
0.000721479
0.000708747
0.000712645
0.000712645
0.000709178
0.000712807
0.00070892
0.000708919
0.000708747
0.000712644
0.000712644
0.000709178
0.00070892
0.000712807
0.000708921
0.000708747
0.000712644
0.000712645
0.000709178
0.00070892
0.000712807
0.00070892
0.000737345
0.000737378
0.000728512
0.000719709
0.000719709
0.000728544
0.000728544
0.000728591
0.000719755
0.000728511
0.00071971
0.00071971
0.000728545
0.000728542
0.000728592
0.000719755
0.000728512
0.000719709
0.00071971
0.000728544
0.000728545
0.000728591
0.000719755
0.000728511
0.00071971
0.000719709
0.000728543
0.000728545
0.000728592
0.000719755
0.000739383
0.000735326
0.000739235
0.000710873
0.000710874
0.000702004
0.000702035
0.000702035
0.00070208
0.000710918
0.000710873
0.000710873
0.000702004
0.000702035
0.000702035
0.00070208
0.000710918
0.000710874
0.000710873
0.000702004
0.000702035
0.000702035
0.00070208
0.000710918
0.000693165
0.000693196
0.000693196
0.00069324
0.000693164
0.000693196
0.000693196
0.00069324
0.000693165
0.000693196
0.000693196
0.00069324
0.000693164
0.000693196
0.000693195
0.00069324
0.000703768
0.000704
0.00069987
0.000700108
0.000704005
0.000703771
0.000700113
0.000708911
0.000712736
0.000712855
0.000708665
0.000712632
0.000708826
0.000708691
0.00070895
0.000708709
0.00071284
0.000712606
0.000712604
0.000708706
0.000708944
0.000703796
0.000699855
0.00070405
0.000699989
0.0007039
0.00070402
0.000700074
0.000703768
0.000704
0.000700108
0.000699869
0.00070377
0.000704005
0.000700113
0.000708911
0.000712737
0.000712856
0.000708665
0.000712632
0.000708826
0.000708691
0.00070895
0.000708709
0.000712606
0.000712841
0.000712605
0.000708945
0.000708706
0.000703796
0.000699854
0.00070405
0.000699989
0.000703901
0.00070402
0.000700074
0.000703971
0.000703529
0.000700083
0.000700083
0.000703808
0.000703809
0.00069991
0.000739304
0.000738865
0.000735421
0.000735421
0.000735248
0.000739143
0.000739144
0.000726416
0.000726847
0.000730312
0.000730313
0.000730474
0.000726589
0.000726588
0.000739131
0.000735192
0.000739383
0.000735327
0.000739353
0.000739234
0.000735412
0.000726619
0.000730507
0.000730274
0.000726378
0.000730272
0.000726375
0.000726614
0.000721466
0.000717661
0.000721719
0.000717526
0.000721571
0.000721689
0.000717746
0.000726579
0.000730522
0.000730404
0.000726333
0.000726494
0.000730299
0.00072636
0.000721439
0.00072167
0.000717541
0.00071778
0.000721675
0.000721441
0.000717785
0.000726619
0.000730507
0.000730274
0.000726378
0.000730271
0.000726375
0.000726614
0.000721466
0.00071766
0.000721719
0.000717526
0.000721689
0.00072157
0.000717746
0.000726579
0.000730521
0.000730403
0.000726333
0.000730298
0.000726359
0.000726494
0.000721438
0.00072167
0.000717541
0.00071778
0.000721675
0.000721441
0.000717785
0.000726848
0.000730309
0.000726589
0.000739103
0.000739334
0.000735207
0.000735446
0.000739338
0.000739105
0.000735452
0.000739131
0.000735192
0.000739383
0.000735326
0.000739353
0.000739235
0.000735412
0.000739103
0.000739334
0.000735446
0.000735206
0.000739105
0.000739339
0.000735451
0.000739131
0.000735191
0.000739382
0.000735326
0.000739353
0.000735412
0.000739235
0.000726619
0.000730507
0.000730274
0.000726378
0.000730271
0.000726375
0.000726614
0.000721466
0.000717661
0.000721719
0.000717526
0.000721571
0.000721689
0.000717746
0.00072658
0.000730522
0.000730403
0.000726333
0.000726494
0.000730299
0.00072636
0.000721438
0.000721671
0.000717541
0.00071778
0.000721675
0.000721441
0.000717786
0.000726619
0.000730274
0.000730508
0.000726378
0.000730272
0.000726614
0.000726374
0.000721467
0.00071766
0.00072172
0.000717526
0.00072169
0.000721571
0.000717746
0.000726579
0.000730522
0.000730404
0.000726333
0.000730299
0.000726359
0.000726494
0.000721439
0.000721671
0.00071778
0.000717541
0.000721441
0.000721675
0.000717785
0.000721466
0.00071766
0.000721719
0.000717526
0.000717745
0.000721569
0.000721689
0.000721438
0.00072167
0.000717541
0.00071778
0.000717785
0.000721674
0.00072144
0.000721466
0.00071766
0.000721719
0.000717526
0.000721689
0.00072157
0.000717745
0.000721439
0.00072167
0.00071778
0.000717541
0.00072144
0.000721674
0.000717785
0.000739304
0.000738865
0.000735421
0.000735421
0.000739143
0.000739142
0.000735247
0.000726416
0.000726847
0.000730311
0.000730311
0.000726589
0.000730474
0.000726589
0.000726619
0.000730274
0.000730508
0.000726378
0.000730272
0.000726614
0.000726375
0.000721467
0.000717661
0.000721719
0.000717526
0.000717746
0.000721571
0.00072169
0.00072658
0.000730523
0.000730404
0.000726333
0.0007303
0.000726494
0.00072636
0.000721439
0.000721671
0.00071778
0.000717541
0.000717785
0.000721441
0.000721675
0.000726619
0.000730274
0.000730508
0.000726378
0.000730272
0.000726614
0.000726375
0.000721467
0.000717661
0.000721719
0.000717526
0.00072169
0.000721571
0.000717746
0.000726579
0.000730523
0.000730403
0.000726333
0.0007303
0.000726359
0.000726494
0.000721439
0.00072167
0.00071778
0.000717541
0.000721441
0.000721675
0.000717785
0.000726416
0.000726847
0.000730308
0.000726591
0.000726587
0.000703971
0.000703529
0.000700083
0.000700083
0.00069991
0.000703809
0.000703809
0.000691072
0.000691502
0.000694971
0.000694972
0.000695134
0.000691245
0.000691244
0.000703768
0.000704
0.00069987
0.000700108
0.000704005
0.00070377
0.000700113
0.000708911
0.000712737
0.000712855
0.000708665
0.000708691
0.000712632
0.000708825
0.00070895
0.000708709
0.00071284
0.000712606
0.000708706
0.000712604
0.000708945
0.000703796
0.000699855
0.00070405
0.000699989
0.00070402
0.000703901
0.000700074
0.000703768
0.000704
0.000699869
0.000700108
0.000704005
0.00070377
0.000700113
0.000708911
0.000712736
0.000712855
0.000708665
0.000712631
0.000708691
0.000708826
0.00070895
0.000708709
0.00071284
0.000712606
0.000712604
0.000708706
0.000708945
0.000703796
0.000699854
0.000704049
0.000699989
0.00070402
0.000700074
0.0007039
0.000691275
0.000695168
0.000694933
0.000691034
0.000694931
0.000691031
0.000691269
0.000691236
0.000695182
0.000695063
0.000690991
0.000691151
0.000694959
0.000691017
0.000691275
0.000695168
0.000694932
0.000691034
0.00069493
0.000691031
0.000691269
0.000691236
0.000695182
0.000695063
0.000690991
0.000694958
0.000691016
0.000691151
0.000703971
0.000703529
0.000700083
0.000700083
0.000703809
0.000703809
0.000699911
0.000691072
0.000691503
0.00069497
0.000694971
0.000691245
0.000695133
0.000691245
0.000703768
0.000704
0.00069987
0.000700108
0.000704005
0.00070377
0.000700114
0.000708911
0.000712736
0.000712855
0.000708665
0.000708691
0.000712632
0.000708826
0.00070895
0.000708709
0.000712841
0.000712606
0.000708706
0.000712604
0.000708945
0.000703796
0.000699855
0.00070405
0.000699989
0.00070402
0.0007039
0.000700074
0.000703769
0.000704
0.000700108
0.000699869
0.00070377
0.000704005
0.000700113
0.00070891
0.000712738
0.000712856
0.000708665
0.000712633
0.000708691
0.000708825
0.00070895
0.000708709
0.000712606
0.000712841
0.000712605
0.000708945
0.000708706
0.000703796
0.000699854
0.00070405
0.000699989
0.00070402
0.000700074
0.000703902
0.000691275
0.000695168
0.000694932
0.000691035
0.00069493
0.000691031
0.00069127
0.000691236
0.000695182
0.000695063
0.00069099
0.000691151
0.000694958
0.000691017
0.000691275
0.000694932
0.000695168
0.000691035
0.000694931
0.00069127
0.000691031
0.000691235
0.000695183
0.000695064
0.00069099
0.000694959
0.000691016
0.00069115
0.000703769
0.000704001
0.000700108
0.00069987
0.000703771
0.000704005
0.000700113
0.00070891
0.000712737
0.000712855
0.000708665
0.000708825
0.000712632
0.000708691
0.00070895
0.000708709
0.000712606
0.00071284
0.000708944
0.000712605
0.000708706
0.000703796
0.000699855
0.00070405
0.000699989
0.000703901
0.00070402
0.000700074
0.000691275
0.000695167
0.000694933
0.000691034
0.000694931
0.000691032
0.000691269
0.000691236
0.000695182
0.000695063
0.000690991
0.000694959
0.000691151
0.000691017
0.000691274
0.000694933
0.000695168
0.000691034
0.000694931
0.000691269
0.000691031
0.000691235
0.000695182
0.000695064
0.00069099
0.000694959
0.000691016
0.00069115
0.000703971
0.000703529
0.000700083
0.000700083
0.000703809
0.000703808
0.00069991
0.000691072
0.000691502
0.000694971
0.000694971
0.000691245
0.000695134
0.000691244
0.000703768
0.000704
0.000700108
0.00069987
0.00070377
0.000704005
0.000700113
0.000708911
0.000712736
0.000712855
0.000708665
0.000708826
0.000712632
0.000708691
0.00070895
0.000708709
0.000712606
0.00071284
0.000708945
0.000712604
0.000708706
0.000703796
0.000699854
0.00070405
0.000699989
0.000703901
0.00070402
0.000700074
0.000691275
0.000694933
0.000695168
0.000691034
0.000694931
0.000691269
0.000691031
0.000691235
0.000695183
0.000695063
0.000690991
0.000694959
0.000691151
0.000691016
0.000691275
0.000694933
0.000695167
0.000691035
0.000694931
0.000691269
0.000691032
0.000691236
0.000695182
0.000695063
0.00069099
0.000694959
0.000691016
0.000691151
0.000691072
0.000691502
0.000694971
0.000694972
0.000695134
0.000691245
0.000691244
0.000675481
0.000675432
0.000675433
0.000677011
0.000640094
0.000640048
0.000640048
0.000641629
0.000604679
0.000604635
0.000604635
0.000606219
0.000569233
0.000569192
0.000569192
0.000570778
0.000533755
0.000533717
0.000533717
0.000535306
0.000498245
0.000498209
0.000498209
0.000499801
0.000462701
0.000462667
0.000462667
0.000464262
0.000427122
0.000427091
0.000427091
0.000428689
0.000391509
0.00039148
0.00039148
0.00039308
0.00035586
0.000355833
0.000355833
0.000357436
0.000320175
0.00032015
0.00032015
0.000321756
0.000284453
0.000284431
0.000284431
0.000286039
0.000248696
0.000248675
0.000248675
0.000250287
0.000212903
0.000212884
0.000212884
0.000214497
0.000177073
0.000177055
0.000177055
0.000178672
0.000141205
0.000141189
0.000141189
0.000142808
0.000105297
0.000105281
0.000105281
0.000106905
6.93589e-05
6.93296e-05
6.9329e-05
7.09526e-05
3.40249e-05
3.34852e-05
3.34819e-05
3.49258e-05
1.09719e-05
7.25378e-06
7.25107e-06
5.71751e-06
0.000682662
0.000684274
0.000684274
0.000682662
0.000684274
0.000684274
0.000684274
0.000684274
0.000682662
0.000684274
0.000684274
0.000682662
0.000677011
0.000647285
0.000675432
0.000675432
0.000648897
0.000648897
0.000677011
0.000647285
0.000675432
0.000675433
0.000648897
0.000648897
0.000675432
0.000648897
0.000648897
0.000677011
0.000647284
0.000675432
0.000648897
0.000648897
0.000647284
0.000641629
0.000611878
0.000640048
0.000640048
0.000613491
0.000613491
0.000641629
0.000611878
0.000640048
0.000640048
0.000613491
0.000613491
0.000640048
0.000613491
0.000613491
0.000641629
0.000611878
0.000640048
0.000613491
0.000613491
0.000611878
0.000606219
0.000576442
0.000604635
0.000604635
0.000578056
0.000578056
0.000606219
0.000576442
0.000604635
0.000604635
0.000578056
0.000578056
0.000604635
0.000578056
0.000578056
0.000606219
0.000576442
0.000604635
0.000578056
0.000578056
0.000576442
0.000570778
0.000540974
0.000569192
0.000569192
0.000542588
0.000542589
0.000570778
0.000540974
0.000569192
0.000569192
0.000542588
0.000542588
0.000569192
0.000542588
0.000542588
0.000570778
0.000540974
0.000569192
0.000542588
0.000542588
0.000540974
0.000535306
0.000505474
0.000533717
0.000533717
0.000507089
0.000507089
0.000535306
0.000505474
0.000533717
0.000533717
0.000507089
0.000507089
0.000533717
0.000507089
0.000507089
0.000535306
0.000505473
0.000533717
0.000507089
0.000507089
0.000505473
0.000499801
0.00046994
0.000498209
0.000498209
0.000471556
0.000471556
0.000499801
0.00046994
0.000498209
0.000498209
0.000471556
0.000471556
0.000498209
0.000471556
0.000471556
0.000499801
0.000469939
0.000498209
0.000471556
0.000471556
0.000469939
0.000464262
0.000434371
0.000462667
0.000462667
0.000435988
0.000435988
0.000464262
0.000434371
0.000462667
0.000462667
0.000435988
0.000435988
0.000462667
0.000435988
0.000435988
0.000464262
0.000434371
0.000462667
0.000435988
0.000435988
0.000434371
0.000428689
0.000398768
0.000427091
0.000427091
0.000400385
0.000400385
0.000428688
0.000398768
0.000427091
0.000427091
0.000400385
0.000400386
0.000427091
0.000400385
0.000400386
0.000428688
0.000398768
0.000427091
0.000400386
0.000400386
0.000398767
0.00039308
0.000363129
0.00039148
0.00039148
0.000364747
0.000364747
0.00039308
0.000363129
0.00039148
0.00039148
0.000364747
0.000364747
0.00039148
0.000364747
0.000364747
0.00039308
0.000363129
0.00039148
0.000364747
0.000364747
0.000363128
0.000357436
0.000327454
0.000355833
0.000355833
0.000329073
0.000329073
0.000357435
0.000327454
0.000355833
0.000355833
0.000329073
0.000329073
0.000355833
0.000329073
0.000329073
0.000357436
0.000327454
0.000355833
0.000329073
0.000329073
0.000327453
0.000321755
0.000291743
0.00032015
0.00032015
0.000293363
0.000293363
0.000321755
0.000291743
0.00032015
0.00032015
0.000293363
0.000293363
0.00032015
0.000293363
0.000293363
0.000321756
0.000291743
0.00032015
0.000293363
0.000293363
0.000291742
0.000286039
0.000255996
0.000284431
0.000284431
0.000257616
0.000257616
0.000286039
0.000255996
0.000284431
0.000284431
0.000257616
0.000257616
0.000284431
0.000257616
0.000257616
0.000286039
0.000255995
0.000284431
0.000257616
0.000257616
0.000255995
0.000250286
0.000220212
0.000248675
0.000248675
0.000221833
0.000221833
0.000250286
0.000220213
0.000248675
0.000248675
0.000221833