/*--------------------------------*- C++ -*----------------------------------*\
| =========                 |                                                 |
| \\      /  F ield         | OpenFOAM: The Open Source CFD Toolbox           |
|  \\    /   O peration     | Version:  2312                                  |
|   \\  /    A nd           | Website:  www.openfoam.com                      |
|    \\/     M anipulation  |                                                 |
\*---------------------------------------------------------------------------*/
FoamFile
{
    version     2.0;
    format      ascii;
    arch        "LSB;label=32;scalar=64";
    class       volScalarField;
    location    "550";
    object      epsilon;
}
// * * * * * * * * * * * * * * * * * * * * * * * * * * * * * * * * * * * * * //

dimensions      [0 2 -3 0 0 0 0];

internalField   nonuniform List<scalar> 
43496
(
4.23892e-06
1.90948e-05
1.18667e-06
3.64744e-06
2.29547e-06
9.34971e-07
4.23885e-06
9.56705e-06
2.29541e-06
1.18666e-06
9.35007e-07
3.64768e-06
1.41722e-06
5.65216e-06
5.65074e-06
1.90923e-05
9.56712e-06
1.26551e-05
4.23895e-06
4.88463e-06
1.12478e-05
4.88468e-06
1.12448e-05
1.26591e-05
2.2763e-05
7.2453e-06
7.24552e-06
2.27698e-05
1.909e-05
1.26554e-05
4.23888e-06
1.12476e-05
4.88446e-06
1.12447e-05
4.8845e-06
1.26592e-05
2.27629e-05
7.24367e-06
9.56533e-06
7.24388e-06
2.27697e-05
9.96432e-06
2.23956e-05
2.2396e-05
2.23894e-05
2.23898e-05
9.96394e-06
4.71003e-06
9.9354e-06
5.65217e-06
2.97596e-06
9.93288e-06
2.97613e-06
4.70967e-06
4.70409e-06
9.9303e-06
5.65077e-06
2.97485e-06
2.97503e-06
9.92855e-06
4.70374e-06
1.90876e-05
9.56528e-06
4.50811e-07
6.59541e-07
4.50944e-07
3.64763e-06
2.22352e-06
2.22405e-06
1.66611e-06
2.29561e-06
2.54091e-06
1.54355e-06
2.54114e-06
1.5444e-06
1.66477e-06
1.84496e-06
3.0229e-06
3.02326e-06
1.84396e-06
1.66601e-06
2.29555e-06
1.54351e-06
2.54075e-06
1.54436e-06
2.54097e-06
1.6647e-06
1.84484e-06
3.02248e-06
3.64788e-06
2.2237e-06
3.02282e-06
1.84384e-06
2.22422e-06
2.82874e-06
1.41878e-06
1.9684e-06
1.9683e-06
1.96904e-06
1.96913e-06
2.82842e-06
6.51842e-07
1.18285e-06
1.18296e-06
1.41516e-06
6.57989e-07
1.18589e-06
1.18601e-06
1.41807e-06
1.41513e-06
1.41583e-06
1.18295e-06
1.18282e-06
1.18528e-06
1.18522e-06
1.41511e-06
1.41581e-06
1.18277e-06
1.18295e-06
1.1851e-06
1.18528e-06
1.18301e-06
1.18517e-06
1.18523e-06
1.41521e-06
1.41591e-06
1.1828e-06
1.18529e-06
1.18516e-06
1.41593e-06
1.41805e-06
1.18599e-06
1.18584e-06
1.41802e-06
1.18582e-06
1.186e-06
1.1861e-06
1.41812e-06
1.18585e-06
4.23632e-06
9.5497e-06
9.55488e-06
4.23566e-06
1.9061e-05
1.90716e-05
4.2364e-06
9.55105e-06
9.55622e-06
4.23571e-06
6.51831e-07
6.51981e-07
6.51957e-07
6.56502e-07
6.56519e-07
6.56632e-07
6.56587e-07
2.294e-06
3.64448e-06
9.29841e-07
1.18365e-06
3.64495e-06
9.30975e-07
2.29374e-06
1.90624e-05
1.90729e-05
2.29403e-06
9.29966e-07
3.64451e-06
1.18377e-06
9.3107e-07
3.645e-06
2.29377e-06
5.64523e-06
5.64697e-06
1.41449e-06
5.64633e-06
5.64808e-06
9.5615e-06
4.23827e-06
1.90832e-05
9.56267e-06
4.23833e-06
6.57977e-07
6.58125e-07
6.58109e-07
2.29548e-06
3.64701e-06
9.34061e-07
2.29533e-06
9.35034e-07
1.90846e-05
2.29551e-06
9.34192e-07
3.64705e-06
2.29535e-06
9.35124e-07
5.64959e-06
5.65135e-06
1.41718e-06
5.65059e-06
5.65238e-06
1.90587e-05
1.90692e-05
1.90619e-05
1.90724e-05
5.64521e-06
5.64694e-06
1.41439e-06
5.64626e-06
5.64802e-06
1.90802e-05
1.90699e-05
1.90835e-05
1.90731e-05
1.41665e-06
5.64844e-06
5.65021e-06
5.64743e-06
5.64916e-06
4.23627e-06
9.55011e-06
9.55488e-06
4.23563e-06
2.29396e-06
3.6443e-06
9.29821e-07
1.18376e-06
3.64478e-06
9.30935e-07
2.29364e-06
2.29389e-06
3.64473e-06
9.29753e-07
1.18368e-06
3.64516e-06
9.30889e-07
2.29362e-06
4.23699e-06
9.56052e-06
9.55556e-06
4.23762e-06
4.23696e-06
9.56066e-06
9.55597e-06
4.23756e-06
2.29448e-06
1.18454e-06
3.64604e-06
9.33046e-07
3.64561e-06
9.32015e-07
2.29472e-06
2.29446e-06
1.1844e-06
3.64641e-06
9.33002e-07
3.64603e-06
9.31945e-07
2.29468e-06
5.64676e-06
5.64538e-06
1.41436e-06
5.64774e-06
5.64647e-06
1.906e-05
1.90705e-05
1.90826e-05
1.90722e-05
1.41662e-06
5.64992e-06
5.64865e-06
5.64897e-06
5.64759e-06
1.90816e-05
1.90712e-05
2.29399e-06
3.64483e-06
9.29805e-07
1.18358e-06
3.64534e-06
9.30914e-07
2.29366e-06
4.23634e-06
9.55065e-06
9.55576e-06
4.23565e-06
2.29393e-06
9.29844e-07
3.64475e-06
1.18376e-06
9.30951e-07
3.64525e-06
2.2936e-06
4.23705e-06
9.56199e-06
9.55693e-06
4.23768e-06
2.2945e-06
1.18436e-06
3.6466e-06
9.33024e-07
3.64615e-06
9.32001e-07
2.29477e-06
4.23698e-06
9.56142e-06
9.55665e-06
4.23761e-06
2.29445e-06
1.18454e-06
9.33061e-07
3.64651e-06
9.32039e-07
3.64606e-06
2.29471e-06
4.23649e-06
9.55068e-06
9.55546e-06
4.23592e-06
2.29397e-06
9.2989e-07
3.6444e-06
1.18373e-06
9.30983e-07
3.64487e-06
2.29368e-06
4.23637e-06
9.55058e-06
9.55537e-06
4.23574e-06
2.29458e-06
1.18444e-06
3.64621e-06
9.33085e-07
3.64578e-06
9.32034e-07
2.29479e-06
4.23726e-06
9.56124e-06
9.55654e-06
4.23778e-06
2.29453e-06
1.18462e-06
9.33088e-07
3.64613e-06
9.32086e-07
3.6457e-06
2.29475e-06
4.23708e-06
9.56115e-06
9.55644e-06
4.23766e-06
5.64675e-06
5.64539e-06
1.41446e-06
5.64788e-06
5.64645e-06
1.906e-05
1.90704e-05
1.90839e-05
1.90736e-05
1.41672e-06
5.65005e-06
5.64863e-06
5.64897e-06
5.64761e-06
1.90815e-05
1.90711e-05
2.29395e-06
9.29884e-07
3.6449e-06
1.18363e-06
9.3098e-07
3.64539e-06
2.29369e-06
4.2365e-06
9.55068e-06
9.55585e-06
4.23594e-06
4.23645e-06
9.55113e-06
9.55631e-06
4.23595e-06
2.29461e-06
1.18456e-06
9.33178e-07
3.64626e-06
9.32161e-07
3.64582e-06
2.29481e-06
2.29453e-06
1.18439e-06
9.3309e-07
3.64664e-06
9.32078e-07
3.6462e-06
2.29473e-06
4.23727e-06
9.56163e-06
9.55655e-06
4.23779e-06
4.23729e-06
9.56196e-06
9.55699e-06
4.23774e-06
1.90609e-05
1.90714e-05
1.90632e-05
1.90737e-05
1.41667e-06
5.64851e-06
5.65026e-06
5.64745e-06
5.64919e-06
1.90824e-05
1.90721e-05
1.90848e-05
1.90744e-05
1.90809e-05
1.90841e-05
5.64958e-06
5.65132e-06
9.56174e-06
4.23823e-06
3.64685e-06
9.34045e-07
2.29526e-06
3.64726e-06
9.33974e-07
2.29521e-06
5.65113e-06
5.64974e-06
1.90822e-05
3.64738e-06
9.3403e-07
2.29526e-06
9.56246e-06
4.23826e-06
9.34068e-07
3.64729e-06
2.2952e-06
4.23899e-06
9.5623e-06
4.23852e-06
2.29543e-06
9.34116e-07
3.64692e-06
1.18656e-06
2.29528e-06
9.35019e-07
3.64729e-06
4.23888e-06
9.56217e-06
4.23834e-06
9.56679e-06
5.65112e-06
5.64975e-06
1.90821e-05
2.29542e-06
9.34109e-07
3.64744e-06
1.18656e-06
2.29528e-06
9.35036e-07
3.64783e-06
4.23901e-06
9.5623e-06
4.23853e-06
4.23896e-06
9.56292e-06
4.23855e-06
9.5675e-06
1.90831e-05
1.90933e-05
1.90854e-05
1.90956e-05
1.26401e-05
1.12337e-05
4.8818e-06
4.23633e-06
1.12308e-05
4.88185e-06
1.26438e-05
2.27383e-05
9.55196e-06
7.23921e-06
7.23903e-06
2.27314e-05
2.27379e-05
7.24031e-06
9.55265e-06
7.24049e-06
2.27448e-05
1.26399e-05
4.23567e-06
1.12273e-05
4.8811e-06
1.12302e-05
4.88106e-06
1.26362e-05
1.9066e-05
1.90666e-05
1.26401e-05
4.8818e-06
1.12338e-05
4.23639e-06
4.88183e-06
1.12309e-05
1.26438e-05
2.2738e-05
9.55331e-06
7.23921e-06
7.23902e-06
2.2731e-05
2.27375e-05
7.24031e-06
9.554e-06
7.2405e-06
2.27444e-05
1.26399e-05
4.23573e-06
4.88108e-06
1.12274e-05
4.88105e-06
1.12303e-05
1.26362e-05
1.90673e-05
1.9068e-05
9.95763e-06
2.2374e-05
2.23733e-05
2.23677e-05
2.23671e-05
9.95732e-06
4.70061e-06
2.97315e-06
5.64522e-06
9.91402e-06
2.97298e-06
9.91658e-06
4.70093e-06
4.7064e-06
2.97432e-06
5.64698e-06
9.91881e-06
2.97416e-06
9.92135e-06
4.7067e-06
4.70165e-06
9.9195e-06
5.64635e-06
2.97339e-06
2.97357e-06
9.91698e-06
4.70132e-06
4.70741e-06
9.92427e-06
5.64809e-06
2.97457e-06
2.97474e-06
9.92178e-06
4.70711e-06
9.95551e-06
2.23619e-05
2.23612e-05
2.23682e-05
2.23675e-05
9.95581e-06
2.27638e-05
7.24427e-06
9.56326e-06
2.2757e-05
7.24406e-06
1.26552e-05
4.23825e-06
1.12412e-05
4.88399e-06
1.26514e-05
1.12442e-05
4.88394e-06
1.9088e-05
2.27635e-05
7.24429e-06
9.56488e-06
2.27567e-05
7.24408e-06
1.26551e-05
4.23831e-06
4.884e-06
1.12415e-05
1.26515e-05
4.88395e-06
1.12443e-05
1.90894e-05
9.96472e-06
2.23969e-05
2.23962e-05
2.23907e-05
2.239e-05
9.96435e-06
4.70332e-06
2.9747e-06
9.9257e-06
5.64957e-06
4.70369e-06
2.9745e-06
9.92813e-06
4.7091e-06
2.97588e-06
9.93047e-06
5.65132e-06
4.70945e-06
2.9757e-06
9.93296e-06
9.96262e-06
2.2385e-05
2.23844e-05
9.96298e-06
2.23912e-05
2.23905e-05
4.70431e-06
9.93088e-06
5.65062e-06
2.97484e-06
2.97504e-06
9.92855e-06
4.70395e-06
4.7101e-06
9.93583e-06
5.6524e-06
2.97603e-06
2.97622e-06
9.9333e-06
4.70975e-06
1.90636e-05
1.90643e-05
1.90669e-05
1.90675e-05
9.95767e-06
2.23735e-05
2.23727e-05
2.23672e-05
2.23665e-05
9.95734e-06
4.70047e-06
2.97309e-06
5.64514e-06
9.91403e-06
9.91592e-06
2.97291e-06
4.70084e-06
4.70626e-06
2.97423e-06
5.64691e-06
9.91909e-06
9.921e-06
2.97405e-06
4.70661e-06
4.70156e-06
9.91885e-06
5.64633e-06
2.97333e-06
9.91697e-06
4.70118e-06
2.97351e-06
4.70733e-06
9.92392e-06
5.64806e-06
2.97447e-06
9.92204e-06
4.70697e-06
2.97465e-06
9.95553e-06
2.23613e-05
2.23606e-05
2.23676e-05
2.23669e-05
9.95585e-06
1.90754e-05
1.90747e-05
1.90786e-05
1.9078e-05
9.95914e-06
2.2373e-05
2.23723e-05
9.95947e-06
2.23792e-05
2.23785e-05
4.70294e-06
2.9741e-06
5.64852e-06
9.92468e-06
9.92284e-06
2.9743e-06
4.70254e-06
4.70872e-06
2.97524e-06
5.65025e-06
9.92976e-06
9.92791e-06
2.97544e-06
4.70834e-06
4.70187e-06
9.91994e-06
2.97392e-06
5.64736e-06
4.70226e-06
9.92183e-06
2.97372e-06
4.70766e-06
9.925e-06
2.97505e-06
5.64913e-06
4.70803e-06
9.92691e-06
2.97487e-06
9.96126e-06
2.2385e-05
2.23843e-05
2.23788e-05
2.23781e-05
9.96092e-06
1.26409e-05
1.12336e-05
4.88168e-06
4.2363e-06
1.12306e-05
4.88175e-06
1.26434e-05
2.27387e-05
9.55197e-06
7.2379e-06
7.23774e-06
2.27318e-05
2.27383e-05
7.23902e-06
9.55303e-06
7.23919e-06
2.27451e-05
1.26396e-05
4.2356e-06
1.12272e-05
4.881e-06
1.123e-05
4.88093e-06
1.2637e-05
1.26476e-05
1.12343e-05
4.88258e-06
4.23698e-06
1.2644e-05
1.12372e-05
4.88253e-06
2.27506e-05
9.55856e-06
7.24282e-06
2.27575e-05
7.24303e-06
2.27512e-05
7.24177e-06
9.55775e-06
2.27443e-05
7.24157e-06
1.26478e-05
4.23764e-06
1.12407e-05
4.88324e-06
1.26514e-05
1.12378e-05
4.88329e-06
1.26472e-05
1.12342e-05
4.88248e-06
4.23693e-06
1.26447e-05
1.12371e-05
4.8824e-06
2.2751e-05
9.55886e-06
7.24154e-06
7.24172e-06
2.27579e-05
2.27515e-05
7.24046e-06
9.55782e-06
2.27447e-05
7.24029e-06
1.26486e-05
4.23761e-06
1.12406e-05
4.88311e-06
1.12377e-05
4.88319e-06
1.26511e-05
9.9577e-06
2.23732e-05
2.23738e-05
2.23669e-05
2.23675e-05
9.95736e-06
4.70635e-06
2.97418e-06
5.64663e-06
9.91847e-06
9.92087e-06
2.97402e-06
4.70666e-06
4.70054e-06
2.97316e-06
5.64536e-06
9.91419e-06
2.97298e-06
9.91669e-06
4.70089e-06
4.70738e-06
9.92389e-06
5.64787e-06
2.97443e-06
9.92133e-06
2.9746e-06
4.70705e-06
4.7016e-06
9.91967e-06
5.64649e-06
2.97339e-06
2.97358e-06
9.91712e-06
4.70124e-06
9.95555e-06
2.23611e-05
2.23616e-05
2.23674e-05
2.23679e-05
9.95589e-06
1.9065e-05
1.90656e-05
1.90777e-05
1.90771e-05
9.95915e-06
2.23727e-05
2.23733e-05
9.95951e-06
2.2379e-05
2.23796e-05
4.70876e-06
2.9752e-06
5.65006e-06
9.92967e-06
2.97539e-06
9.92717e-06
4.70842e-06
4.70299e-06
2.97416e-06
5.64868e-06
9.92549e-06
9.92295e-06
2.97436e-06
4.70261e-06
4.70775e-06
9.92433e-06
2.975e-06
5.64884e-06
2.97483e-06
4.70808e-06
9.9268e-06
4.70194e-06
9.92009e-06
2.97398e-06
5.64757e-06
4.7023e-06
9.92257e-06
2.97379e-06
9.9613e-06
2.23848e-05
2.23853e-05
2.23785e-05
2.23791e-05
9.96093e-06
1.90767e-05
1.90761e-05
1.26402e-05
1.12337e-05
4.88163e-06
4.23633e-06
1.12308e-05
4.88166e-06
1.26439e-05
2.27379e-05
9.55289e-06
7.23758e-06
7.23738e-06
2.27309e-05
2.27374e-05
7.23867e-06
9.55369e-06
7.23885e-06
2.27443e-05
1.264e-05
4.23566e-06
1.12273e-05
4.88092e-06
1.12302e-05
4.88089e-06
1.26363e-05
1.26476e-05
4.88257e-06
1.12345e-05
4.23705e-06
1.2644e-05
4.88252e-06
1.12374e-05
2.27503e-05
9.55981e-06
7.24283e-06
2.27572e-05
7.24304e-06
2.27508e-05
7.24177e-06
9.55912e-06
2.27439e-05
7.24158e-06
1.26478e-05
4.23769e-06
4.88324e-06
1.12409e-05
1.26513e-05
4.88329e-06
1.1238e-05
1.26477e-05
1.12344e-05
4.88239e-06
4.23699e-06
1.26441e-05
1.12373e-05
4.88236e-06
2.27502e-05
9.55959e-06
7.2412e-06
7.24139e-06
2.27571e-05
2.27507e-05
7.24013e-06
9.55857e-06
2.27438e-05
7.23994e-06
1.26479e-05
4.23762e-06
1.12407e-05
4.88308e-06
1.12379e-05
4.88311e-06
1.26515e-05
1.26402e-05
4.88177e-06
1.12334e-05
4.2366e-06
4.88202e-06
1.12312e-05
1.26427e-05
2.27371e-05
9.55255e-06
7.23904e-06
7.23864e-06
2.27299e-05
2.27364e-05
7.23992e-06
9.55361e-06
7.24032e-06
2.27435e-05
1.26389e-05
4.23581e-06
4.88127e-06
1.12277e-05
4.88103e-06
1.123e-05
1.26363e-05
1.26402e-05
1.12333e-05
4.88164e-06
4.23642e-06
1.12311e-05
4.88169e-06
1.26438e-05
2.2738e-05
9.55246e-06
7.23743e-06
7.23725e-06
2.2731e-05
2.27375e-05
7.23852e-06
9.55351e-06
7.23872e-06
2.27444e-05
1.264e-05
4.2357e-06
1.12275e-05
4.88094e-06
1.12298e-05
4.8809e-06
1.26363e-05
1.26465e-05
4.88275e-06
1.12347e-05
4.23714e-06
1.2644e-05
4.88249e-06
1.1237e-05
2.27491e-05
9.55943e-06
7.24244e-06
7.24285e-06
2.27563e-05
2.27499e-05
7.24159e-06
9.5584e-06
2.27428e-05
7.24119e-06
1.26479e-05
4.2379e-06
4.8832e-06
1.12404e-05
4.88346e-06
1.12382e-05
1.26504e-05
1.26476e-05
1.12346e-05
4.88241e-06
4.23703e-06
1.2644e-05
1.12369e-05
4.88236e-06
2.27503e-05
9.55934e-06
7.24103e-06
7.24124e-06
2.27571e-05
2.27508e-05
7.23999e-06
9.55831e-06
2.27439e-05
7.23978e-06
1.26479e-05
4.23772e-06
1.12403e-05
4.88307e-06
1.12381e-05
4.88313e-06
1.26514e-05
9.9572e-06
2.23726e-05
2.2373e-05
2.23664e-05
2.23668e-05
9.95686e-06
4.70631e-06
2.97422e-06
5.64676e-06
9.91838e-06
9.92092e-06
2.97409e-06
4.70662e-06
4.70037e-06
2.97314e-06
5.64534e-06
9.91407e-06
2.97297e-06
9.91595e-06
4.70069e-06
4.70734e-06
9.92386e-06
5.64787e-06
2.9745e-06
9.92135e-06
2.97464e-06
4.70701e-06
4.70141e-06
9.91888e-06
5.64651e-06
2.97338e-06
2.97356e-06
9.91701e-06
4.70108e-06
9.95506e-06
2.23605e-05
2.23609e-05
2.23668e-05
2.23672e-05
9.95539e-06
1.90649e-05
1.90656e-05
1.90791e-05
1.90784e-05
9.95866e-06
2.23722e-05
2.23726e-05
9.95901e-06
2.23784e-05
2.23788e-05
4.70872e-06
2.97528e-06
5.65005e-06
9.92966e-06
2.97542e-06
9.92717e-06
4.70838e-06
4.70279e-06
2.97416e-06
5.6487e-06
9.9247e-06
9.92288e-06
2.97434e-06
4.70244e-06
4.70771e-06
9.92431e-06
2.97504e-06
5.64897e-06
2.9749e-06
4.70803e-06
9.92678e-06
4.70177e-06
9.91998e-06
2.97396e-06
5.64755e-06
4.70211e-06
9.92186e-06
2.97378e-06
9.96079e-06
2.23842e-05
2.23846e-05
2.2378e-05
2.23784e-05
9.96043e-06
1.90766e-05
1.9076e-05
1.26405e-05
4.88183e-06
1.12334e-05
4.23661e-06
4.88191e-06
1.12312e-05
1.2643e-05
2.27373e-05
9.55293e-06
7.23886e-06
7.23869e-06
2.27304e-05
2.27369e-05
7.23996e-06
9.55363e-06
7.24014e-06
2.27437e-05
1.26392e-05
4.23583e-06
4.88116e-06
1.12277e-05
4.88108e-06
1.12299e-05
1.26366e-05
1.26403e-05
4.88172e-06
1.12332e-05
4.23663e-06
4.88184e-06
1.1231e-05
1.2644e-05
2.27389e-05
9.55339e-06
7.2379e-06
7.2377e-06
2.2732e-05
2.27384e-05
7.23898e-06
9.55408e-06
7.23919e-06
2.27454e-05
1.26401e-05
4.23578e-06
4.8811e-06
1.12275e-05
4.88098e-06
1.12298e-05
1.26364e-05
1.26468e-05
4.88264e-06
1.12347e-05
4.23715e-06
1.26443e-05
4.88256e-06
1.12369e-05
2.27497e-05
9.55942e-06
7.24248e-06
7.24267e-06
2.27565e-05
2.27501e-05
7.24141e-06
9.55875e-06
2.27433e-05
7.24123e-06
1.26482e-05
4.23791e-06
4.88327e-06
1.12404e-05
4.88335e-06
1.12382e-05
1.26506e-05
1.26478e-05
4.88257e-06
1.12345e-05
4.2371e-06
1.26441e-05
4.88244e-06
1.12368e-05
2.27512e-05
9.56e-06
7.2415e-06
7.24172e-06
2.27581e-05
2.27518e-05
7.24046e-06
9.55917e-06
2.27448e-05
7.24025e-06
1.26479e-05
4.23793e-06
4.88315e-06
1.12402e-05
4.88328e-06
1.1238e-05
1.26515e-05
1.90658e-05
1.90665e-05
1.90682e-05
1.90688e-05
9.95911e-06
2.23735e-05
2.23729e-05
9.95943e-06
2.23798e-05
2.23791e-05
4.70302e-06
2.97416e-06
5.64852e-06
9.92532e-06
4.70268e-06
2.97434e-06
9.92278e-06
4.70879e-06
2.97535e-06
5.65028e-06
9.93009e-06
4.70847e-06
2.97553e-06
9.92758e-06
4.70201e-06
9.91993e-06
2.97397e-06
5.64745e-06
4.70235e-06
2.97379e-06
9.92239e-06
4.7078e-06
9.92473e-06
2.97515e-06
5.64918e-06
4.70811e-06
2.97497e-06
9.92717e-06
9.96121e-06
2.23855e-05
2.23848e-05
9.96089e-06
2.23793e-05
2.23786e-05
1.90776e-05
1.90769e-05
1.90799e-05
1.90793e-05
1.90857e-05
1.90889e-05
4.7032e-06
2.97467e-06
9.92572e-06
5.6495e-06
4.70361e-06
9.92749e-06
2.97446e-06
4.709e-06
2.9758e-06
9.9308e-06
5.65128e-06
4.70938e-06
9.93257e-06
2.9756e-06
9.96268e-06
2.23845e-05
2.23838e-05
9.96304e-06
2.23907e-05
2.239e-05
2.27642e-05
7.24296e-06
9.56345e-06
2.27574e-05
7.24278e-06
1.26547e-05
4.23818e-06
1.12412e-05
4.88389e-06
1.1244e-05
1.26523e-05
4.8838e-06
4.70907e-06
2.97575e-06
9.93015e-06
5.65096e-06
9.93245e-06
4.70943e-06
2.97556e-06
4.70328e-06
2.97472e-06
9.92583e-06
5.64972e-06
2.97454e-06
4.70365e-06
9.92845e-06
9.96269e-06
2.23842e-05
2.23848e-05
2.23905e-05
9.96307e-06
2.2391e-05
2.27634e-05
7.24264e-06
9.56428e-06
2.27566e-05
7.24244e-06
1.26553e-05
4.23824e-06
1.12413e-05
4.88382e-06
1.12442e-05
1.26518e-05
4.88377e-06
1.26554e-05
4.23913e-06
1.12473e-05
4.88485e-06
1.12452e-05
2.27626e-05
7.24409e-06
9.56403e-06
7.24367e-06
2.27555e-05
1.26542e-05
4.23839e-06
4.88416e-06
1.12417e-05
4.8839e-06
1.26516e-05
1.12439e-05
2.27618e-05
1.26555e-05
4.23895e-06
1.12471e-05
4.88441e-06
1.1245e-05
4.8845e-06
1.2659e-05
2.27634e-05
7.24249e-06
9.56399e-06
2.27566e-05
7.24227e-06
1.26552e-05
4.23828e-06
1.12416e-05
4.88382e-06
1.26517e-05
1.12438e-05
4.88375e-06
2.27629e-05
7.24349e-06
9.56501e-06
7.24372e-06
2.27697e-05
4.70903e-06
2.97578e-06
9.9301e-06
5.65111e-06
9.93253e-06
4.70938e-06
2.97563e-06
4.7031e-06
2.97469e-06
9.92567e-06
5.64972e-06
2.97451e-06
4.70344e-06
9.92754e-06
9.96219e-06
2.23837e-05
2.23841e-05
2.23899e-05
9.96256e-06
2.23903e-05
1.90869e-05
1.26557e-05
4.23914e-06
4.88463e-06
1.12472e-05
4.88473e-06
1.12451e-05
1.26581e-05
2.27628e-05
7.24392e-06
9.56443e-06
7.24372e-06
2.2756e-05
1.26544e-05
4.23841e-06
4.88405e-06
1.12416e-05
4.88396e-06
1.26519e-05
1.12439e-05
2.27623e-05
7.24494e-06
7.24515e-06
2.27691e-05
1.26557e-05
4.23916e-06
4.88453e-06
1.1247e-05
4.88467e-06
1.12449e-05
1.2659e-05
2.27644e-05
7.24297e-06
9.56474e-06
2.27575e-05
7.24274e-06
1.26553e-05
4.23836e-06
4.88399e-06
1.12415e-05
1.26518e-05
4.88385e-06
1.12437e-05
2.27638e-05
7.24396e-06
9.56576e-06
7.2442e-06
2.27707e-05
1.90879e-05
1.90885e-05
1.90902e-05
1.90908e-05
4.41763e-07
4.41702e-07
6.53432e-07
4.43656e-07
4.43584e-07
2.35635e-07
2.33705e-07
2.8269e-06
1.96715e-06
1.96737e-06
1.41373e-06
1.96646e-06
1.96669e-06
2.8272e-06
4.49138e-07
4.49071e-07
2.43237e-07
2.41364e-07
2.82817e-06
1.96865e-06
1.96888e-06
1.41661e-06
2.82851e-06
1.96793e-06
1.96816e-06
2.82684e-06
1.96713e-06
1.96735e-06
1.41362e-06
1.96645e-06
1.96664e-06
2.82715e-06
2.82817e-06
1.41736e-06
1.9676e-06
1.9678e-06
1.9683e-06
1.96851e-06
2.82785e-06
2.82686e-06
1.96726e-06
1.96719e-06
1.4136e-06
1.96648e-06
1.96655e-06
2.82718e-06
2.82821e-06
1.41734e-06
1.9677e-06
1.96763e-06
1.96842e-06
1.96835e-06
2.82787e-06
2.82684e-06
1.96731e-06
1.96722e-06
1.4137e-06
1.96652e-06
1.96661e-06
2.82714e-06
2.82816e-06
1.41743e-06
1.96776e-06
1.96766e-06
1.96847e-06
1.96838e-06
2.82784e-06
2.82822e-06
1.41739e-06
1.96761e-06
1.96784e-06
2.82792e-06
1.96831e-06
1.96854e-06
2.82815e-06
1.96865e-06
1.96886e-06
1.4165e-06
2.82848e-06
1.96793e-06
1.96813e-06
2.82816e-06
1.96876e-06
1.96869e-06
1.41648e-06
1.96796e-06
2.82851e-06
1.96804e-06
2.82814e-06
1.96881e-06
1.96872e-06
1.41658e-06
1.968e-06
2.82846e-06
1.96808e-06
4.41749e-07
4.41737e-07
6.53446e-07
4.43652e-07
4.43614e-07
2.35645e-07
2.33716e-07
4.41845e-07
4.41834e-07
6.53563e-07
4.43725e-07
4.43724e-07
2.35711e-07
2.33781e-07
4.41877e-07
4.41796e-07
6.53518e-07
4.43734e-07
4.43715e-07
2.35723e-07
2.33783e-07
6.54991e-07
4.47342e-07
4.47269e-07
4.45519e-07
4.4546e-07
2.37562e-07
2.39465e-07
6.54978e-07
4.47338e-07
4.47298e-07
4.45504e-07
4.45495e-07
2.37572e-07
2.39474e-07
6.55131e-07
4.47407e-07
4.47409e-07
4.45601e-07
4.45589e-07
2.37638e-07
2.3954e-07
6.55108e-07
4.47415e-07
4.47406e-07
4.45637e-07
4.45546e-07
2.37638e-07
2.39553e-07
1.66442e-06
2.53949e-06
1.54149e-06
2.29417e-06
2.53973e-06
1.54244e-06
1.66284e-06
1.84145e-06
2.2224e-06
3.64429e-06
3.02094e-06
2.22191e-06
3.02055e-06
1.8427e-06
1.84323e-06
3.02102e-06
3.64514e-06
2.22227e-06
2.22277e-06
3.02141e-06
1.84193e-06
1.66243e-06
2.29358e-06
2.53933e-06
1.54186e-06
2.53909e-06
1.54091e-06
1.66388e-06
1.66488e-06
1.54152e-06
2.53959e-06
2.2942e-06
1.5425e-06
2.5398e-06
1.66282e-06
1.8415e-06
2.22245e-06
3.64434e-06
3.02098e-06
2.22196e-06
3.02062e-06
1.84282e-06
1.8434e-06
3.02109e-06
3.64517e-06
2.22232e-06
2.22281e-06
3.02146e-06
1.84195e-06
1.66233e-06
2.2936e-06
1.54191e-06
2.53939e-06
1.54094e-06
2.53919e-06
1.66422e-06
2.82757e-06
1.41593e-06
1.96687e-06
1.96709e-06
1.96756e-06
1.96779e-06
2.82726e-06
4.49123e-07
4.49114e-07
4.5084e-07
2.43247e-07
2.41374e-07
4.49215e-07
4.49205e-07
4.50959e-07
2.43313e-07
2.4144e-07
4.49257e-07
4.49156e-07
6.59523e-07
4.50949e-07
4.50974e-07
2.43327e-07
2.41438e-07
1.66683e-06
2.29566e-06
2.54086e-06
1.54345e-06
2.54112e-06
1.54449e-06
1.66409e-06
1.84299e-06
2.22373e-06
3.02273e-06
3.64681e-06
1.84501e-06
2.22319e-06
3.02231e-06
1.66398e-06
2.29514e-06
2.54081e-06
1.54402e-06
1.66624e-06
2.54055e-06
1.54301e-06
1.66652e-06
2.29569e-06
1.5435e-06
2.54096e-06
1.54454e-06
2.54119e-06
1.66458e-06
1.84336e-06
2.22377e-06
3.02279e-06
3.64686e-06
1.84498e-06
2.22325e-06
3.0224e-06
1.66428e-06
2.29517e-06
1.54407e-06
2.54087e-06
1.6662e-06
1.54306e-06
2.54065e-06
1.84539e-06
3.02277e-06
3.02319e-06
1.84377e-06
2.8288e-06
1.41871e-06
1.96823e-06
1.96845e-06
1.96896e-06
1.96918e-06
2.82846e-06
2.82751e-06
1.4159e-06
1.96686e-06
1.96705e-06
2.8272e-06
1.96755e-06
1.96776e-06
2.82753e-06
1.41512e-06
1.96794e-06
1.96815e-06
2.82785e-06
1.96724e-06
1.96744e-06
1.66432e-06
2.53951e-06
1.54146e-06
2.29407e-06
2.53972e-06
1.54239e-06
1.66302e-06
1.84155e-06
2.22234e-06
3.64413e-06
3.02096e-06
3.02059e-06
2.22187e-06
1.84266e-06
1.84317e-06
3.02107e-06
3.64497e-06
2.22223e-06
3.02143e-06
2.22271e-06
1.8421e-06
1.66248e-06
2.29353e-06
2.53933e-06
1.5418e-06
2.53912e-06
1.54088e-06
1.66382e-06
1.6647e-06
2.53938e-06
1.54138e-06
2.29405e-06
2.53958e-06
1.54236e-06
1.66259e-06
1.84128e-06
2.22257e-06
3.6445e-06
3.02066e-06
3.0203e-06
2.22207e-06
1.84264e-06
1.84323e-06
3.02077e-06
3.64539e-06
2.22243e-06
3.02114e-06
1.84173e-06
2.22294e-06
1.66211e-06
2.29346e-06
2.53918e-06
1.54177e-06
2.53898e-06
1.5408e-06
1.66404e-06
1.66355e-06
2.5401e-06
1.54294e-06
2.29434e-06
1.66479e-06
2.53988e-06
1.54201e-06
1.84412e-06
2.22287e-06
3.64624e-06
3.02196e-06
2.22338e-06
3.02233e-06
1.84311e-06
1.84263e-06
3.02189e-06
2.22306e-06
3.64542e-06
2.22256e-06
1.84366e-06
3.02152e-06
1.66522e-06
2.29488e-06
2.54024e-06
1.54252e-06
2.54046e-06
1.54347e-06
1.66402e-06
1.66297e-06
2.53996e-06
1.54292e-06
2.29429e-06
1.66516e-06
2.53975e-06
1.54194e-06
1.84449e-06
2.22308e-06
3.64666e-06
3.02166e-06
3.02205e-06
2.22361e-06
1.84256e-06
1.84212e-06
3.0216e-06
2.22328e-06
3.6458e-06
1.84384e-06
3.02123e-06
2.22277e-06
1.66574e-06
2.29484e-06
2.54011e-06
1.54245e-06
2.54032e-06
1.54345e-06
1.66346e-06
2.82754e-06
1.41588e-06
1.96695e-06
1.96689e-06
1.9676e-06
1.96767e-06
2.82721e-06
2.82755e-06
1.4151e-06
1.96806e-06
1.96799e-06
1.96734e-06
2.82788e-06
1.96727e-06
1.66431e-06
2.53951e-06
1.54151e-06
2.29409e-06
2.53972e-06
1.54235e-06
1.66313e-06
1.84157e-06
2.22266e-06
3.64468e-06
3.02104e-06
3.02068e-06
2.22219e-06
1.84266e-06
1.84318e-06
3.02116e-06
3.6455e-06
2.22255e-06
3.02152e-06
2.22303e-06
1.84213e-06
1.66258e-06
2.29355e-06
2.53931e-06
1.54177e-06
2.53911e-06
1.54093e-06
1.66381e-06
1.6642e-06
1.54147e-06
2.53938e-06
2.29404e-06
1.54232e-06
2.53957e-06
1.66304e-06
1.84147e-06
2.22261e-06
3.64459e-06
3.02064e-06
3.02031e-06
2.22215e-06
1.84254e-06
1.84305e-06
3.02079e-06
3.64541e-06
2.2225e-06
3.0211e-06
1.84202e-06
2.22297e-06
1.66252e-06
2.2935e-06
1.54173e-06
2.53918e-06
1.5409e-06
2.53899e-06
1.66369e-06
1.66357e-06
2.5401e-06
1.5429e-06
2.29439e-06
1.66477e-06
2.53989e-06
1.54205e-06
1.84413e-06
2.2232e-06
3.64677e-06
3.02206e-06
2.2237e-06
3.02242e-06
1.84315e-06
1.84267e-06
3.02198e-06
2.22338e-06
3.64598e-06
2.22288e-06
1.84367e-06
3.02162e-06
1.66522e-06
2.29489e-06
2.54025e-06
1.54258e-06
2.54047e-06
1.54343e-06
1.66403e-06
1.66349e-06
1.54286e-06
2.53995e-06
2.29433e-06
1.66467e-06
1.54202e-06
2.53976e-06
1.84401e-06
2.22315e-06
3.64669e-06
3.02167e-06
3.022e-06
2.22364e-06
1.84304e-06
1.84255e-06
3.02156e-06
2.22332e-06
3.64589e-06
1.84354e-06
3.02123e-06
2.22284e-06
1.66512e-06
2.29484e-06
1.54254e-06
2.54012e-06
1.54339e-06
2.54031e-06
1.66394e-06
1.66427e-06
1.54148e-06
2.5394e-06
2.29412e-06
1.54241e-06
2.53961e-06
1.66294e-06
1.84142e-06
2.22235e-06
3.64421e-06
3.02055e-06
2.22186e-06
3.02019e-06
1.84254e-06
1.84305e-06
3.02066e-06
3.64506e-06
2.22222e-06
2.22271e-06
3.02103e-06
1.84194e-06
1.66242e-06
2.29354e-06
1.54182e-06
2.53921e-06
1.5409e-06
2.53901e-06
1.66377e-06
1.66319e-06
2.54011e-06
1.543e-06
2.29441e-06
1.665e-06
2.53986e-06
1.54203e-06
1.84435e-06
2.22291e-06
3.64641e-06
3.0219e-06
1.8427e-06
2.22343e-06
3.02231e-06
1.84234e-06
3.02187e-06
2.22311e-06
3.64559e-06
1.84377e-06
2.2226e-06
3.02147e-06
1.66566e-06
2.29496e-06
2.54022e-06
1.54254e-06
1.66362e-06
2.54047e-06
1.54353e-06
1.66344e-06
1.54296e-06
2.53999e-06
2.29437e-06
1.66474e-06
1.54202e-06
2.53977e-06
1.844e-06
2.22286e-06
3.64632e-06
3.02154e-06
3.02193e-06
2.22337e-06
1.84281e-06
1.84241e-06
3.02149e-06
2.22305e-06
3.64552e-06
1.84354e-06
3.0211e-06
2.22255e-06
1.66516e-06
2.29492e-06
1.54253e-06
2.54011e-06
1.54348e-06
2.54034e-06
1.66387e-06
2.8275e-06
1.41598e-06
1.96701e-06
1.96692e-06
1.96763e-06
1.96772e-06
2.82719e-06
2.82753e-06
1.4152e-06
1.96811e-06
1.96801e-06
1.9674e-06
2.82784e-06
1.9673e-06
1.66426e-06
1.54146e-06
2.53939e-06
2.29412e-06
1.5424e-06
2.53961e-06
1.66295e-06
1.84148e-06
2.22268e-06
3.64473e-06
3.02072e-06
2.22221e-06
3.02037e-06
1.84257e-06
1.84308e-06
3.02085e-06
3.64556e-06
2.22257e-06
2.22305e-06
3.0212e-06
1.84202e-06
1.66241e-06
2.29352e-06
1.54182e-06
2.53921e-06
1.54088e-06
2.539e-06
1.66376e-06
1.66324e-06
1.54306e-06
2.54017e-06
2.29443e-06
1.66531e-06
1.54208e-06
2.53997e-06
1.8446e-06
2.22296e-06
3.64644e-06
3.02198e-06
1.84287e-06
2.22348e-06
3.02236e-06
1.84237e-06
3.02192e-06
2.22315e-06
3.64564e-06
1.84399e-06
2.22265e-06
3.02155e-06
1.66582e-06
2.29499e-06
1.54259e-06
2.54032e-06
1.66381e-06
1.54358e-06
2.54054e-06
1.66349e-06
1.54296e-06
2.53998e-06
2.29435e-06
1.66472e-06
1.54201e-06
2.53976e-06
1.84403e-06
2.22321e-06
3.64683e-06
3.02174e-06
3.0221e-06
2.22372e-06
1.84304e-06
1.84255e-06
3.02165e-06
2.2234e-06
3.64603e-06
1.84357e-06
3.0213e-06
2.2229e-06
1.66515e-06
2.29491e-06
1.54253e-06
2.54012e-06
1.54348e-06
2.54034e-06
1.66395e-06
2.82759e-06
1.41522e-06
1.96795e-06
1.96818e-06
2.82791e-06
1.96725e-06
1.96747e-06
1.84351e-06
2.22368e-06
3.02276e-06
3.64664e-06
3.02237e-06
1.84459e-06
2.22316e-06
1.6644e-06
2.29508e-06
2.5408e-06
1.54396e-06
2.54057e-06
1.66565e-06
1.543e-06
1.84286e-06
2.22391e-06
3.02247e-06
3.64701e-06
1.84501e-06
3.02207e-06
2.22337e-06
1.66376e-06
2.29503e-06
2.54066e-06
1.54394e-06
1.66618e-06
2.54044e-06
1.54291e-06
1.84358e-06
2.22401e-06
3.02285e-06
3.64721e-06
3.02247e-06
1.84457e-06
2.22349e-06
1.66443e-06
2.29513e-06
2.54081e-06
1.54393e-06
2.54059e-06
1.66567e-06
1.54306e-06
1.84347e-06
2.22394e-06
3.02242e-06
3.64711e-06
1.84444e-06
3.02208e-06
2.22343e-06
1.66435e-06
2.29507e-06
1.54389e-06
2.54065e-06
1.66557e-06
1.54303e-06
2.54045e-06
1.66625e-06
2.29562e-06
1.54341e-06
2.54073e-06
1.54445e-06
2.54099e-06
1.66399e-06
1.84312e-06
2.22366e-06
3.02234e-06
3.64672e-06
2.22313e-06
1.84449e-06
3.02195e-06
1.66407e-06
2.2951e-06
1.54397e-06
2.54068e-06
1.543e-06
1.66554e-06
2.54044e-06
1.84512e-06
3.0223e-06
3.64751e-06
2.22338e-06
2.22393e-06
3.02274e-06
1.84324e-06
1.666e-06
2.29562e-06
1.54348e-06
2.54077e-06
1.54443e-06
2.54101e-06
1.66468e-06
1.84344e-06
2.22402e-06
3.02252e-06
3.64724e-06
2.2235e-06
1.84448e-06
3.02214e-06
1.66434e-06
2.29509e-06
1.54397e-06
2.54068e-06
1.54302e-06
1.66557e-06
2.54044e-06
1.84493e-06
3.02257e-06
3.64802e-06
2.22377e-06
2.2243e-06
3.02293e-06
1.84385e-06
8.63122e-07
1.14883e-06
8.62995e-07
9.16176e-06
3.47496e-06
1.84288e-05
5.46345e-06
5.46196e-06
1.84266e-05
3.47453e-06
9.16184e-06
2.20549e-05
9.15927e-06
7.08871e-06
7.08903e-06
2.20615e-05
1.84238e-05
4.54473e-06
2.81232e-06
5.46335e-06
9.50453e-06
2.81176e-06
9.50091e-06
4.54519e-06
4.53873e-06
2.81116e-06
5.46197e-06
9.49966e-06
9.49674e-06
2.81066e-06
4.53901e-06
9.73634e-06
2.17296e-05
2.17299e-05
2.17233e-05
2.17236e-05
9.73598e-06
1.84216e-05
2.20523e-05
9.15937e-06
7.08944e-06
7.08997e-06
2.20593e-05
2.66815e-06
1.14917e-06
1.76829e-06
1.76818e-06
1.76776e-06
1.76765e-06
2.66824e-06
1.61705e-06
2.03219e-06
3.4751e-06
2.86045e-06
2.85975e-06
2.03205e-06
1.61746e-06
1.61839e-06
2.03168e-06
3.47465e-06
2.86037e-06
2.03193e-06
2.86023e-06
1.61649e-06
3.23769e-07
8.69001e-07
8.69163e-07
1.15485e-06
3.39801e-07
8.92432e-07
8.92581e-07
1.17383e-06
3.56079e-07
9.14867e-07
9.15012e-07
1.19212e-06
3.72521e-07
9.36298e-07
9.36437e-07
1.20957e-06
3.89045e-07
9.56716e-07
9.56852e-07
1.22617e-06
4.05571e-07
9.76139e-07
9.76272e-07
1.24197e-06
4.2202e-07
9.94571e-07
9.94699e-07
1.25701e-06
4.38317e-07
1.01201e-06
1.01214e-06
1.27121e-06
4.54389e-07
1.02848e-06
1.02861e-06
1.28469e-06
4.70169e-07
1.044e-06
1.04413e-06
1.29738e-06
4.85599e-07
1.05859e-06
1.05873e-06
1.30929e-06
5.00625e-07
1.07228e-06
1.07241e-06
1.3205e-06
5.15202e-07
1.08509e-06
1.08522e-06
1.331e-06
5.29287e-07
1.09704e-06
1.09717e-06
1.34089e-06
5.42844e-07
1.10817e-06
1.10829e-06
1.35016e-06
5.55844e-07
1.11849e-06
1.11861e-06
1.35882e-06
5.68259e-07
1.12803e-06
1.12815e-06
1.36688e-06
5.8007e-07
1.13683e-06
1.13694e-06
1.37439e-06
5.91263e-07
1.14489e-06
1.145e-06
1.38132e-06
6.01826e-07
1.15225e-06
1.15236e-06
1.38768e-06
6.11754e-07
1.15893e-06
1.15904e-06
1.39351e-06
6.21043e-07
1.16495e-06
1.16505e-06
1.39882e-06
6.29692e-07
1.17033e-06
1.17043e-06
1.40362e-06
6.37704e-07
1.17509e-06
1.1752e-06