/*--------------------------------*- C++ -*----------------------------------*\
| =========                 |                                                 |
| \\      /  F ield         | OpenFOAM: The Open Source CFD Toolbox           |
|  \\    /   O peration     | Version:  2312                                  |
|   \\  /    A nd           | Website:  www.openfoam.com                      |
|    \\/     M anipulation  |                                                 |
\*---------------------------------------------------------------------------*/
FoamFile
{
    version     2.0;
    format      ascii;
    arch        "LSB;label=32;scalar=64";
    class       surfaceScalarField;
    location    "550";
    object      phi;
}
// * * * * * * * * * * * * * * * * * * * * * * * * * * * * * * * * * * * * * //

dimensions      [0 3 -1 0 0 0 0];

oriented        oriented;

internalField   nonuniform List<scalar> 
125567
(
-7.02175e-08
-1.47713e-10
-0.000229369
2.13804e-09
2.99872e-08
-6.89311e-09
-1.9754e-08
-9.80154e-05
1.24102e-06
-1.22875e-07
2.69089e-07
-2.15138e-07
-1.19368e-06
2.77514e-07
-2.36777e-07
-0.00113202
-5.5474e-08
-8.52615e-07
9.11305e-07
2.08462e-08
4.35855e-08
-0.000245491
-1.02541e-07
-1.67594e-08
-1.66061e-09
-0.00025013
4.03912e-09
-1.93208e-07
-3.22078e-09
-1.53002e-07
-9.38574e-07
8.31122e-07
-7.56624e-07
1.01143e-06
-0.00115229
-7.01974e-08
-0.000229329
2.99698e-08
2.19683e-09
-4.35526e-08
3.27467e-09
-0.000193597
-0.000250104
-1.93197e-07
4.33873e-09
-4.98459e-08
1.27245e-06
-1.28201e-07
-8.5794e-07
2.69026e-07
9.16525e-07
-2.15169e-07
-1.22791e-06
2.80206e-07
-2.42397e-07
-0.00113153
-1.5877e-07
-9.38601e-07
8.31126e-07
-7.56661e-07
1.01144e-06
-0.00115224
2.32017e-08
-1.67176e-08
-0.000245388
-1.02501e-07
-0.000268079
2.4188e-07
2.46788e-07
1.04752e-08
-0.00027816
-4.61946e-08
1.97643e-08
1.05936e-08
-0.000278297
-4.84295e-08
-6.90353e-09
-9.80381e-05
-0.000193655
3.27767e-09
1.24128e-08
-7.80868e-10
0.000143419
-6.78437e-11
-0.00014343
7.27678e-10
-1.11222e-08
2.06251e-11
2.86538e-08
-0.000229387
-0.000223422
2.88898e-08
4.35971e-09
-7.17262e-08
-0.000171124
-3.4786e-10
1.71624e-11
8.82859e-10
3.30164e-08
-0.000223442
4.60508e-12
-0.000171136
1.45385e-09
1.70021e-08
7.92981e-05
-7.93152e-05
-0.000263317
2.42775e-08
-6.16131e-08
3.32042e-08
-0.000263336
5.02588e-09
1.12594e-08
-9.80316e-05
-7.82235e-10
1.23686e-08
0.000143346
-5.44008e-11
-0.000143358
-1.11221e-08
9.27813e-10
2.86521e-08
-0.000229348
-0.000171089
-1.36887e-10
-0.000223323
2.8838e-08
4.37311e-09
-6.92418e-08
-0.000171101
9.15151e-10
3.0554e-08
-0.000223341
1.50538e-09
1.69663e-08
7.92537e-05
-7.92707e-05
-0.00026319
2.41641e-08
-5.91372e-08
-3.8553e-09
2.25506e-08
-0.000193611
3.08124e-08
-0.000263206
-6.99862e-09
-7.0461e-09
0.000213784
1.22596e-08
1.01253e-08
-0.000213792
-8.05425e-05
-1.23016e-08
-1.19826e-08
-8.05661e-05
-1.22064e-08
-1.20736e-08
9.41852e-09
-8.05589e-05
9.36423e-09
-8.05825e-05
-2.70073e-08
-2.50092e-08
-1.42924e-08
1.5816e-08
0.000221868
2.905e-08
-0.000221886
-0.000183016
-3.11846e-08
-7.38561e-09
2.03544e-08
1.22179e-08
-0.000278174
-0.000250575
3.59904e-08
-5.49338e-08
-9.97618e-08
-0.000183028
3.20067e-08
6.12279e-08
-0.000250632
-5.75384e-08
1.57593e-08
-1.43073e-08
0.000221957
3.12219e-08
-0.000221979
-0.000183098
-3.11207e-08
2.26139e-08
-7.2628e-09
-1.13525e-08
9.68329e-09
-0.00027831
-0.000250748
3.61425e-08
-5.24441e-08
-9.97438e-08
2.93633e-08
6.11904e-08
-0.000250801
-0.00018311
-5.95498e-08
4.94617e-09
-9.80544e-05
2.25724e-08
-0.000193668
-3.93829e-09
2.28316e-09
-0.00121558
-1.00027e-07
-7.51823e-08
-0.00118363
-1.03958e-07
-0.0012147
-1.17925e-07
6.40597e-08
-0.000245527
3.97897e-09
-0.000260376
-2.74274e-08
-0.000260506
7.98417e-09
-1.5306e-07
1.54164e-09
0.000265679
-1.05695e-08
-0.000266455
4.85165e-10
1.32117e-07
3.13772e-10
-0.000250235
-0.000249562
-2.11799e-07
1.03443e-08
-0.000265854
7.05643e-09
-6.60664e-09
7.76189e-10
-0.000249682
3.87433e-09
-0.000266481
2.70642e-08
-1.39129e-07
0.000264003
-0.000264719
-0.000250757
-1.86148e-07
-0.000250855
-2.24139e-09
-1.5043e-07
0.00026561
2.20712e-09
-0.000266398
1.32124e-07
1.39513e-09
-0.000250208
-0.000265837
5.56585e-09
-0.000249476
-2.1174e-07
1.03772e-08
-0.000266459
7.68153e-10
-0.000249595
1.42494e-08
-1.36668e-07
0.000263902
-8.10439e-09
-0.000264613
-0.000250651
-1.88637e-07
4.06309e-09
6.16573e-08
-0.000245419
-2.74059e-08
-0.000260269
-0.000250753
-0.000260399
7.4888e-08
7.75462e-08
0.00024288
-0.000242972
-2.0321e-07
-1.98226e-07
-0.000270099
-0.000261131
1.12497e-07
-0.000260783
1.09951e-07
-0.000261087
-0.000261433
1.1925e-07
1.19633e-07
-7.10373e-08
-7.1055e-08
0.00118445
-0.00118455
-1.19688e-06
-1.19565e-07
-5.43312e-08
0.00113224
-2.37049e-07
1.24124e-06
2.74929e-07
9.11268e-07
-2.15448e-07
2.69167e-07
-8.53095e-07
-0.00113226
-1.1942e-06
-1.19621e-07
-4.86138e-08
0.0011321
-2.34317e-07
1.2385e-06
2.74932e-07
9.11252e-07
-2.15464e-07
2.69209e-07
-8.53065e-07
-0.00113213
1.2255e-06
1.18891e-06
-1.98233e-07
-2.00951e-07
0.000268045
-0.000270061
1.21971e-07
1.28068e-07
-0.00118417
-7.43058e-08
-7.43804e-08
-0.00113216
-1.19649e-06
-1.22366e-07
-3.87849e-08
-2.36816e-07
1.24109e-06
2.74766e-07
9.11184e-07
-2.1519e-07
-8.52616e-07
2.69082e-07
-0.00113203
-1.19375e-06
-1.22295e-07
-6.6463e-08
-2.36811e-07
1.23835e-06
2.7481e-07
9.11254e-07
-2.1518e-07
-8.52688e-07
2.69118e-07
-0.000270066
1.22772e-06
1.18315e-06
-1.92868e-07
-2.03336e-07
0.000268052
1.23635e-06
1.19442e-06
-1.95724e-07
-2.03513e-07
0.000268099
-0.000270131
-1.28051e-06
-1.2386e-06
0.000270136
-0.000268103
2.392e-07
2.4708e-07
-4.85405e-08
0.00113168
-2.39798e-07
1.2806e-06
2.77518e-07
9.13967e-07
-2.12753e-07
2.66374e-07
-8.55892e-07
-0.00113171
-1.23382e-06
-1.19272e-07
-4.83787e-08
0.00113175
-2.42715e-07
1.278e-06
2.80332e-07
9.19138e-07
-2.15464e-07
2.69086e-07
-8.60995e-07
-0.00113178
0.00113161
-1.21307e-07
-0.00113164
-4.93786e-08
-1.23602e-06
2.7743e-07
-2.39599e-07
-8.55575e-07
2.6634e-07
-2.12533e-07
9.13985e-07
1.27521e-06
0.00113168
-1.21466e-07
-0.0011317
-4.93456e-08
-1.23348e-06
2.77506e-07
-2.42485e-07
-8.60647e-07
2.69056e-07
-2.15225e-07
9.1649e-07
-1.98391e-07
-2.0086e-07
0.000268084
-0.000270116
-1.24114e-06
0.000270118
-0.000268088
2.41972e-07
2.44321e-07
-4.85916e-08
0.00113269
-2.37202e-07
1.2387e-06
2.75036e-07
9.16641e-07
-2.15491e-07
2.69276e-07
-8.58398e-07
-0.00113271
-1.22839e-06
-1.19274e-07
-4.84684e-08
0.00113162
-2.42687e-07
1.27258e-06
2.80341e-07
9.16553e-07
-2.12779e-07
2.66429e-07
-8.58439e-07
-0.00113165
0.00113261
-1.217e-07
-0.00113264
-4.94115e-08
-1.19411e-06
2.74936e-07
-2.37019e-07
-8.58059e-07
2.69218e-07
-2.15269e-07
9.16646e-07
1.27251e-06
0.00113155
-1.27028e-07
-0.00113157
-4.93302e-08
-1.22808e-06
2.8025e-07
-2.42481e-07
-8.58101e-07
2.66374e-07
-2.12553e-07
9.16546e-07
-1.19483e-07
-4.84759e-08
0.00113126
-2.39793e-07
1.26969e-06
2.77492e-07
9.08466e-07
-2.09957e-07
2.63695e-07
-8.50327e-07
-0.00113128
-1.2175e-07
-0.00113219
-4.40055e-08
-1.19657e-06
2.74832e-07
-2.36854e-07
-8.52725e-07
2.69126e-07
9.11303e-07
-2.15202e-07
1.2696e-06
0.00113118
-1.21343e-07
-0.00113121
-4.93212e-08
-1.2252e-06
2.77415e-07
-2.39621e-07
-8.50038e-07
2.66316e-07
-2.09779e-07
9.08415e-07
-1.9845e-07
-2.03456e-07
0.000268068
-0.000270089
-1.23838e-06
0.000270097
-0.000268075
2.42e-07
2.46891e-07
-1.19561e-07
-4.86262e-08
0.00113225
-2.37158e-07
1.2332e-06
2.74991e-07
9.13711e-07
-2.15459e-07
2.69206e-07
-8.55466e-07
-0.00113227
-1.21632e-07
-0.00113205
-5.49885e-08
-1.19118e-06
2.74836e-07
-2.36886e-07
-8.52773e-07
2.69137e-07
9.11296e-07
-2.15243e-07
1.23307e-06
0.00113216
-1.21742e-07
-0.0011322
-3.26654e-08
-1.18859e-06
2.74859e-07
-2.36959e-07
-8.55217e-07
2.6911e-07
-2.15239e-07
9.13798e-07
-0.00026805
2.41736e-07
2.44442e-07
1.23593e-06
1.19402e-06
-1.95539e-07
-2.03321e-07
0.000268105
-5.52336e-08
-2.39577e-07
1.28049e-06
2.7742e-07
9.13934e-07
-2.152e-07
-8.55488e-07
2.68992e-07
-1.2307e-06
-1.21856e-07
-4.39653e-08
-2.39708e-07
1.27519e-06
2.77467e-07
9.16446e-07
-2.15188e-07
-8.57945e-07
2.68991e-07
-1.98222e-07
-2.00684e-07
0.00026809
-4.97023e-08
-2.36962e-07
1.23858e-06
2.74905e-07
9.16641e-07
-2.15197e-07
-8.57971e-07
2.69228e-07
-1.22799e-06
-1.27678e-07
-4.96139e-08
-2.42422e-07
1.27247e-06
2.80237e-07
9.16541e-07
-2.12487e-07
-8.58014e-07
2.69069e-07
-1.44981e-07
-4.39034e-08
0.00113117
-2.42279e-07
1.26955e-06
2.80213e-07
9.11185e-07
-2.12397e-07
2.69023e-07
-8.49908e-07
-1.98252e-07
-2.03242e-07
0.000268077
-1.22204e-07
-1.56779e-08
0.00113208
-2.31434e-07
1.23843e-06
2.74878e-07
9.13837e-07
-2.15143e-07
2.69086e-07
-8.55162e-07
-1.27204e-10
-7.02606e-08
0.000229341
3.0057e-08
1.96312e-09
-0.000229303
-5.0936e-09
2.25581e-08
0.000193573
-3.78012e-09
-0.000193587
6.7881e-09
-4.37485e-08
0.000193627
3.41982e-09
-0.000193593
4.70129e-11
2.88326e-08
0.000229284
-1.11493e-08
1.18437e-09
-0.000229303
5.15e-09
1.34545e-08
9.79677e-05
-9.79863e-05
-6.77242e-09
-2.2315e-08
9.80073e-05
-9.79782e-05
-7.02834e-08
-1.54781e-10
0.000229329
1.91121e-09
3.00699e-08
-0.000229291
-5.15199e-09
2.25248e-08
0.000193556
-3.69646e-09
-0.00019357
6.78582e-09
-4.37889e-08
0.00019361
3.45988e-09
-0.000193576
2.88305e-08
1.4659e-10
0.000229271
1.16286e-09
-1.11465e-08
-0.00022929
-7.1021e-08
-7.10469e-08
0.00118423
-0.00118432
-7.11026e-08
-7.10495e-08
0.00118399
-0.00118409
-7.10901e-08
-7.1255e-08
0.00118396
-0.00118406
-0.00118427
-7.93343e-08
-6.77073e-08
0.00118393
-0.00118404
-7.35971e-08
-6.78374e-08
0.00118371
-0.0011838
-7.36313e-08
-7.93301e-08
0.00118366
-0.00118377
-7.36148e-08
-6.21634e-08
7.01481e-08
-1.56204e-09
0.00025019
3.79922e-09
-1.93084e-07
-0.000250069
-1.22321e-08
-2.25013e-08
6.6513e-08
0.000245406
6.55416e-09
-0.000245445
0.00115237
3.64065e-09
-1.40132e-07
1.00563e-06
-7.52212e-07
8.2796e-07
-9.31445e-07
-0.00115243
-4.33817e-08
1.24121e-06
0.00113221
-1.20342e-07
-8.52925e-07
2.69161e-07
-2.15352e-07
9.11315e-07
-1.19676e-06
2.74905e-07
-2.36961e-07
2.324e-08
4.37274e-08
0.000245483
-1.91824e-08
-0.000245425
-1.05101e-07
-3.3715e-09
0.00115233
-1.41715e-07
-9.33876e-07
8.25331e-07
-7.54694e-07
1.00305e-06
-2.87134e-08
1.52261e-09
0.000250056
2.19317e-09
1.32609e-07
-0.000250164
5.16465e-09
1.1113e-08
9.79631e-05
-9.79794e-05
-6.78807e-09
-1.99791e-08
9.80004e-05
-9.79736e-05
-8.71219e-10
7.01363e-08
0.00025018
-1.93071e-07
3.87797e-09
-0.00025006
0.00115219
3.13653e-09
-1.40163e-07
1.00569e-06
-7.54985e-07
8.27957e-07
-9.34184e-07
-0.00115225
-1.21863e-08
-2.25238e-08
6.41451e-08
0.000245398
4.11689e-09
-0.000245432
-4.88491e-08
1.23576e-06
0.00113207
-1.20332e-07
-8.52975e-07
2.69175e-07
-2.15388e-07
9.113e-07
-1.19137e-06
2.74899e-07
-2.36998e-07
-4.83463e-09
0.00115215
-1.41645e-07
-9.33938e-07
8.28045e-07
-7.54745e-07
1.00577e-06
2.31938e-08
4.37425e-08
0.00024547
-1.67572e-08
-0.000245417
-1.0271e-07
7.62267e-10
-2.87494e-08
0.000250047
1.32657e-07
2.32143e-09
-0.000250154
1.22924e-08
-1.11668e-08
2.48524e-08
0.000278112
-7.03614e-09
-0.00027813
1.22881e-08
-1.11505e-08
2.25518e-08
0.000278037
-7.52287e-09
-0.000278053
-1.26967e-06
-1.23317e-06
0.000270063
-0.000268047
2.41862e-07
2.44574e-07
-2.31488e-08
2.00092e-08
0.000278181
9.93186e-09
-0.000278137
-5.10315e-08
-2.32192e-08
1.99632e-08
0.000278103
1.05145e-08
-0.000278062
-4.87127e-08
-0.000193666
-4.97021e-09
2.25951e-08
-3.92287e-09
0.000193653
-0.000229381
3.86156e-11
2.8679e-08
0.000229362
-1.11247e-08
1.20843e-09
-9.80281e-05
5.02759e-09
1.35851e-08
9.80095e-05
-0.000193649
-5.03932e-09
2.2554e-08
-3.82713e-09
0.000193636
-0.000229368
2.86717e-08
1.64935e-10
0.000229349
9.51459e-10
-1.11201e-08
-6.27519e-08
-5.11659e-08
-7.4462e-08
-9.75476e-08
-3.92298e-08
-4.53431e-08
0.00118348
7.00678e-08
-8.58697e-10
-0.000250126
3.05655e-09
-1.93131e-07
-0.000245518
-1.21283e-08
-2.25178e-08
6.64318e-08
4.01855e-09
0.000245483
0.00115217
-0.00115222
1.36608e-08
-1.51737e-07
1.00591e-06
-7.54017e-07
-9.33275e-07
8.28263e-07
-0.000250217
-2.85486e-08
1.7242e-09
0.000250109
1.97382e-09
1.32122e-07
2.56308e-08
-1.70392e-07
-9.33072e-07
8.31115e-07
-7.53796e-07
1.00878e-06
-9.80212e-05
5.05392e-09
1.12267e-08
9.8005e-05
-1.70639e-09
7.00588e-08
-0.000250114
-1.93089e-07
4.13817e-09
0.00115201
-0.00115205
-2.25806e-08
-1.45959e-07
1.00591e-06
-7.54079e-07
-9.33372e-07
8.28237e-07
-0.000245508
-1.20931e-08
-2.25482e-08
6.40478e-08
4.01149e-09
0.000245475
-0.000250207
2.76041e-10
-2.85879e-08
0.0002501
1.32176e-07
2.36654e-09
-5.79606e-08
-1.53069e-07
-9.33157e-07
8.28293e-07
-7.51163e-07
1.00593e-06
-0.000278232
1.22272e-08
-1.12979e-08
2.26265e-08
-6.91268e-09
0.000278215
-0.000278154
1.21785e-08
-1.12716e-08
2.26003e-08
-7.37522e-09
0.000278138
-1.2647e-06
-1.30803e-06
-0.000268073
2.5453e-07
2.41854e-07
-2.3181e-08
1.97932e-08
1.05297e-08
-0.000278243
-4.84763e-08
-2.32441e-08
1.97568e-08
1.06253e-08
-0.000278163
-4.85112e-08
1.12478e-08
9.79903e-05
-9.80067e-05
-2.00358e-08
9.80277e-05
-9.80008e-05
1.11697e-08
9.79793e-05
-9.79956e-05
-2.00226e-08
9.80166e-05
-9.79898e-05
1.22105e-08
2.48748e-08
0.000278161
-9.55483e-09
-0.000278177
9.88946e-09
2.48025e-08
0.000278093
-6.96961e-09
-0.00027811
0.000270133
-1.28058e-06
-1.23867e-06
-0.0002681
2.3933e-07
2.47204e-07
0.000278228
-2.31335e-08
1.25049e-08
-0.000278186
-5.10018e-08
0.00027816
-2.08157e-08
9.94409e-09
-0.000278118
-5.10226e-08
-1.99269e-08
-6.83221e-09
9.80485e-05
-9.80218e-05
1.13112e-08
5.02719e-09
9.80113e-05
-1.99166e-08
-6.83062e-09
9.80375e-05
-9.80107e-05
1.12251e-08
5.09178e-09
9.80003e-05
1.23612e-06
1.19419e-06
0.000268102
-1.95613e-07
-2.03399e-07
-2.31511e-08
0.000278279
-5.089e-08
-0.000278237
1.25541e-08
-2.08274e-08
0.000278211
-5.09127e-08
-0.000278169
9.99117e-09
1.21517e-08
-9.48269e-09
2.49068e-08
0.000278212
9.83421e-09
-6.9039e-09
2.48267e-08
0.000278144
-7.02668e-08
0.000229301
3.00572e-08
2.10678e-09
-0.000229263
2.47157e-08
0.00019351
-3.82464e-09
-0.000193526
-4.5958e-08
0.000193565
3.58596e-09
-0.00019353
2.8831e-08
0.000229244
-1.11517e-08
9.01392e-10
-0.000229262
-9.12892e-10
0.000250204
3.11056e-09
-1.93152e-07
-0.000250084
6.65423e-08
0.000245408
4.12132e-09
-0.000245444
0.00115266
3.47256e-09
-1.39959e-07
1.00859e-06
-7.57781e-07
8.3077e-07
-9.37088e-07
-0.00115271
-4.88362e-08
0.00113166
-1.19963e-07
-1.23622e-06
2.77492e-07
-2.39727e-07
-8.55768e-07
2.66359e-07
-2.12668e-07
9.13978e-07
0.000245482
-1.6707e-08
-0.000245427
-1.05059e-07
-4.03802e-09
0.00115261
-1.41483e-07
-9.36854e-07
8.30865e-07
-7.57532e-07
1.00868e-06
8.11266e-10
0.00025007
2.8925e-09
1.32698e-07
-0.000250178
0.000250177
4.71075e-09
-1.93165e-07
-0.000250059
-1.22229e-08
6.65248e-08
0.000245306
4.07808e-09
-0.00024534
0.0011526
-1.39969e-07
1.01381e-06
-7.57749e-07
8.30751e-07
-9.42254e-07
-0.00115265
-4.87539e-08
0.00113172
1.27797e-06
-1.20114e-07
-8.60846e-07
2.69082e-07
9.19157e-07
-2.1536e-07
-1.23368e-06
2.80307e-07
-2.42616e-07
0.000245378
2.30529e-08
-1.65804e-08
-0.000245325
-1.05067e-07
0.00115254
-1.41526e-07
-9.42017e-07
8.30841e-07
-7.575e-07
1.01388e-06
0.000250046
1.14205e-09
1.327e-07
-0.00025015
4.54761e-11
2.87447e-08
-1.11312e-08
1.19742e-09
0.000229323
-4.36695e-08
-0.000193633
3.35283e-09
2.25661e-08
-3.85322e-09
0.000193613
-1.38769e-10
-7.02324e-08
-0.000229342
3.00207e-08
1.97276e-09
2.87451e-08
-1.11305e-08
9.17142e-10
0.000229283
-4.58772e-08
6.82018e-09
0.000193605
-0.000193569
3.51756e-09
2.47308e-08
-5.08699e-09
-3.89712e-09
0.00019355
-7.02397e-08
0.00022934
-0.000229302
3.00136e-08
2.11772e-09
8.03746e-10
2.91266e-09
1.32442e-07
0.000250097
-5.47149e-08
-1.20701e-07
1.28054e-06
-2.39665e-07
2.77461e-07
9.13986e-07
-2.12585e-07
2.66343e-07
-8.5567e-07
0.00024552
-1.04977e-07
-0.000245465
-1.67224e-08
-0.00115255
-4.98911e-09
0.0011525
-1.44399e-07
-9.36431e-07
8.31018e-07
-7.57063e-07
1.00881e-06
4.06379e-09
6.64844e-08
0.000245446
2.986e-09
-1.43009e-07
1.00874e-06
-7.573e-07
-9.36659e-07
8.30932e-07
-9.46109e-10
0.000250231
-0.00025011
3.35865e-09
-1.93174e-07
1.16995e-09
1.32444e-07
0.000250072
-4.89921e-08
-1.23358e-06
-1.20698e-07
9.1914e-07
-2.15311e-07
-8.60765e-07
2.69048e-07
1.27794e-06
-2.4257e-07
2.80276e-07
2.30731e-08
0.000245416
-1.04979e-07
-0.000245363
-1.65915e-08
-0.00115249
0.00115244
-1.44427e-07
-9.41617e-07
8.30996e-07
-7.57028e-07
1.01128e-06
-1.21616e-08
4.01534e-09
6.64721e-08
0.000245344
-1.43021e-07
1.01393e-06
-7.57266e-07
-9.41825e-07
8.30913e-07
0.000250203
-0.000250086
4.48269e-09
-1.93192e-07
2.25051e-08
0.000278036
-7.63669e-09
-0.000278049
-1.12009e-08
2.4878e-08
0.000278176
-6.94247e-09
-0.000278195
0.000270118
-0.000268085
2.42119e-07
2.44441e-07
0.0002781
1.04727e-08
-0.000278061
-4.86818e-08
1.9969e-08
0.000278245
1.00266e-08
-0.000278201
-5.10364e-08
5.15381e-09
9.7986e-05
-9.80023e-05
9.80233e-05
-6.86284e-09
-9.79965e-05
-2.22035e-08
-9.79991e-05
1.35158e-08
9.79887e-05
1.19665e-06
0.000268087
-1.98294e-07
-2.00751e-07
0.000278151
-4.85653e-08
-0.000278112
1.0527e-08
1.98537e-08
-2.32429e-08
0.000278296
-5.09188e-08
-0.000278252
1.00793e-08
-7.55358e-09
2.25283e-08
0.000278086
-1.1247e-08
1.21763e-08
-6.87647e-09
2.48935e-08
0.000278226
-6.89776e-09
9.80442e-05
-9.80174e-05
5.09628e-09
9.8007e-05
-1.68044e-09
0.000250197
3.78399e-09
-1.95771e-07
-0.000250074
6.41462e-08
0.000245371
6.6272e-09
-0.00024541
0.00115249
3.65804e-09
-1.40076e-07
1.01114e-06
-7.5773e-07
8.30754e-07
-9.39608e-07
-0.00115255
-4.88639e-08
0.00113266
-1.20356e-07
-1.1943e-06
2.75001e-07
-2.37131e-07
-8.58271e-07
2.69262e-07
-2.15406e-07
9.16656e-07
0.000245448
-1.91852e-08
-0.00024539
-1.02777e-07
-3.62347e-09
0.00115244
-1.41578e-07
-9.39357e-07
8.30843e-07
-7.57485e-07
1.01122e-06
1.65342e-09
0.000250061
2.16026e-09
1.35278e-07
-0.000250171
-7.02644e-08
0.000229289
3.00559e-08
2.17653e-09
-0.000229251
2.24998e-08
0.000193498
-3.70196e-09
-0.000193512
-4.37186e-08
0.000193552
3.43441e-09
-0.000193518
2.88287e-08
0.000229232
-1.11433e-08
8.84208e-10
-0.00022925
0.000250167
-1.95763e-07
4.30718e-09
-0.000250048
0.00115243
-1.40041e-07
1.01117e-06
-7.57767e-07
8.30763e-07
-9.3963e-07
-0.00115248
-1.23388e-08
6.17465e-08
0.000245293
4.18935e-09
-0.000245324
-4.87771e-08
0.0011316
1.27256e-06
-1.19972e-07
-8.58311e-07
2.66412e-07
9.1656e-07
-2.12697e-07
-1.22827e-06
2.80315e-07
-2.42602e-07
0.00115237
-1.41514e-07
-9.39387e-07
8.30849e-07
-7.57521e-07
1.01123e-06
0.000245362
2.31777e-08
-1.67126e-08
-0.000245312
-1.00258e-07
0.000250034
1.35292e-07
1.59225e-09
-0.000250141
2.87371e-08
1.55671e-10
1.16692e-09
-1.11288e-08
0.00022931
-4.37133e-08
-0.000193616
3.39319e-09
2.25293e-08
-3.76192e-09
0.000193596
-7.0259e-08
-1.49004e-10
-0.00022933
2.13753e-09
3.00322e-08
1.66894e-09
2.16787e-09
1.32427e-07
0.00025009
-4.91801e-08
-1.2108e-07
1.23864e-06
-2.3707e-07
2.74975e-07
9.16661e-07
-2.15325e-07
2.69252e-07
-8.58168e-07
0.000245486
-1.02685e-07
-0.000245429
-1.92015e-08
-0.00115238
-3.43854e-09
0.00115234
-1.50332e-07
-9.3893e-07
8.30999e-07
-7.5702e-07
1.01135e-06
6.57037e-09
6.40847e-08
0.00024541
3.76105e-09
-1.43133e-07
1.01127e-06
-7.57248e-07
-9.39147e-07
8.30923e-07
-1.66914e-09
0.000250224
-0.000250103
4.0331e-09
-1.932e-07
2.87344e-08
-1.11255e-08
9.01932e-10
0.000229271
-4.36511e-08
6.84247e-09
0.000193591
-0.000193558
3.35832e-09
2.25087e-08
-5.10706e-09
-3.76764e-09
0.000193538
-7.0242e-08
0.000229328
-0.00022929
3.00198e-08
2.18862e-09
1.32443e-07
1.61653e-09
0.000250064
-4.90756e-08
-1.22817e-06
-1.20717e-07
9.16563e-07
-2.12612e-07
-8.58207e-07
2.66403e-07
1.27253e-06
-2.42539e-07
2.80286e-07
-0.00115233
0.00115228
-1.50243e-07
-9.38961e-07
8.31003e-07
-7.57055e-07
1.01135e-06
2.31976e-08
0.0002454
-1.00177e-07
-0.00024535
-1.67332e-08
-1.4309e-07
1.01129e-06
-7.57284e-07
-9.39172e-07
8.30929e-07
-1.22896e-08
4.13224e-09
6.16864e-08
0.000245331
0.000250194
-0.000250077
-1.9319e-07
4.31989e-09
-6.92942e-11
0.000229324
2.08732e-09
3.21203e-08
-0.000229288
0.00019356
-3.62841e-09
-0.000193574
0.000193613
3.29477e-09
-0.00019358
2.21812e-11
0.000229269
1.03855e-09
-1.32073e-08
-0.000229285
7.0212e-08
0.000250157
-1.90514e-07
4.52223e-09
-0.000250043
0.00115229
-1.40189e-07
1.00565e-06
-7.54969e-07
8.27986e-07
-9.341e-07
-0.00115234
-2.24843e-08
6.64506e-08
0.000245328
4.19367e-09
-0.000245364
-4.87521e-08
0.00113122
-1.14348e-07
-1.2254e-06
2.77459e-07
-2.39736e-07
-8.5023e-07
2.63657e-07
-2.09907e-07
9.08454e-07
0.00115222
-1.35804e-07
-9.33865e-07
8.28079e-07
-7.54717e-07
1.00572e-06
4.3731e-08
0.000245402
-1.66945e-08
-0.000245347
-1.05033e-07
-2.87826e-08
0.00025003
1.30048e-07
1.36885e-09
-0.000250131
0.000229287
3.00385e-08
2.17985e-09
-0.000229249
-5.14828e-09
0.000193503
-3.67644e-09
-0.000193517
0.000193557
6.78094e-09
3.444e-09
-0.000193523
0.00022923
-1.11312e-08
8.41411e-10
-0.000229248
-2.86222e-08
1.55803e-09
2.20057e-09
1.32349e-07
0.000250082
-5.49343e-08
-1.21028e-07
1.24118e-06
-2.369e-07
2.74865e-07
9.11277e-07
-2.15286e-07
-8.52871e-07
2.6914e-07
4.36443e-08
-1.0502e-07
-0.000245464
-1.6749e-08
-0.00115226
-5.46865e-10
-1.44645e-07
-9.33447e-07
8.28222e-07
1.00589e-06
-7.54212e-07
-2.25048e-08
6.50192e-09
6.64498e-08
0.000245444
4.44109e-09
-1.43204e-07
1.00577e-06
-7.5172e-07
-9.30996e-07
8.28127e-07
7.01187e-08
-1.43509e-09
-0.000250096
3.56071e-09
-1.93114e-07
3.46123e-11
1.04529e-09
-1.31856e-08
0.000229308
0.000193653
-0.00019362
3.24054e-09
-3.69131e-09
0.0001936
-2.66186e-11
0.000229363
-0.000229327
1.86993e-09
3.20743e-08
-2.86995e-08
1.29789e-07
1.39135e-09
0.000250057
-4.90877e-08
-1.22526e-06
-1.26643e-07
9.0847e-07
-2.0978e-07
-8.50076e-07
2.63667e-07
1.26964e-06
-2.39645e-07
2.77437e-07
-0.00115218
0.00115213
-1.44524e-07
-9.33445e-07
8.28229e-07
-7.5425e-07
1.00584e-06
4.36613e-08
2.31949e-08
0.00024544
-1.02561e-07
-0.000245388
-1.66898e-08
-1.49075e-07
1.00579e-06
-7.54475e-07
-9.33652e-07
8.28154e-07
-2.24978e-08
-1.22287e-08
4.13052e-09
6.63836e-08
0.000245366
7.01851e-08
0.000250187
-0.00025007
-1.93137e-07
4.30602e-09
-1.11164e-08
8.60012e-10
0.000229269
6.82808e-09
0.000193596
-0.000193563
3.37547e-09
-5.08414e-09
-3.7572e-09
0.000193543
0.000229326
-0.000229288
2.99898e-08
2.19205e-09
2.02667e-08
0.000278034
-7.56043e-09
-0.000278048
-1.12116e-08
2.25926e-08
0.00027817
-1.00325e-08
-0.000278184
0.000270091
-0.000268072
2.42128e-07
2.47018e-07
0.000278098
1.03786e-08
-0.000278059
-4.64288e-08
1.9968e-08
0.000278234
1.30942e-08
-0.000278196
-4.87264e-08
5.09872e-09
9.79859e-05
-9.80022e-05
9.80232e-05
-6.82048e-09
-9.79964e-05
-1.98668e-08
-9.79945e-05
1.11711e-08
9.79841e-05
1.19126e-06
0.000268074
-1.9834e-07
-2.03327e-07
0.000278149
-4.6317e-08
-0.00027811
1.04312e-08
1.98598e-08
-2.32132e-08
0.000278285
-4.86174e-08
-0.000278246
1.31644e-08
-7.49001e-09
2.02892e-08
0.000278085
-1.12628e-08
1.21356e-08
-9.96751e-09
2.26164e-08
0.000278221
-6.86166e-09
9.8044e-05
-9.80173e-05
5.03531e-09
9.80069e-05
7.00768e-08
0.000250153
-1.93053e-07
4.9921e-09
-0.000250036
0.00115212
-1.40127e-07
1.00811e-06
-7.54938e-07
8.27913e-07
-9.36623e-07
-0.00115217
-2.24987e-08
6.41193e-08
0.000245296
4.21024e-09
-0.000245329
-4.89231e-08
0.00113222
-1.20361e-07
-1.18879e-06
2.74957e-07
-2.37077e-07
-8.55352e-07
2.69169e-07
-2.15384e-07
9.13781e-07
0.00115207
-1.41631e-07
-9.36394e-07
8.2801e-07
-7.54684e-07
1.0082e-06
4.37463e-08
0.000245367
-1.67623e-08
-0.000245315
-1.02715e-07
-2.86865e-08
0.000250023
1.3263e-07
9.11212e-10
-0.000250127
-2.00814e-10
0.000229317
2.29332e-09
3.21081e-08
-0.000229281
0.000193556
-3.75983e-09
-0.000193569
0.000193609
3.40114e-09
-0.000193575
1.28436e-10
0.000229261
8.24064e-10
-1.32277e-08
-0.000229278
0.000229277
2.17611e-09
3.41924e-08
-0.000229243
-5.17295e-09
0.000193496
-3.63796e-09
-0.00019351
0.000193549
6.83561e-09
3.38161e-09
-0.000193516
0.000229224
8.51487e-10
-1.53081e-08
-0.000229238
6.81803e-10
-2.86608e-08
1.32395e-07
2.10693e-09
0.000250073
-4.91972e-08
-1.21053e-07
1.23573e-06
-2.36923e-07
2.74876e-07
9.11309e-07
-2.15304e-07
-8.52864e-07
2.69163e-07
-0.00115209
-1.32436e-08
-1.4452e-07
-9.33544e-07
8.28196e-07
1.00589e-06
-7.54273e-07
4.36619e-08
-1.02622e-07
-0.000245456
-1.67673e-08
2.27117e-10
-1.43204e-07
1.00582e-06
-7.54497e-07
-9.33749e-07
8.28123e-07
-2.25309e-08
4.06391e-09
6.40827e-08
0.000245436
-1.2277e-09
7.01107e-08
-0.000250087
-1.93091e-07
4.12768e-09
-2.85965e-08
1.32374e-07
6.89591e-10
0.000250049
-4.92896e-08
-1.18868e-06
-1.21035e-07
9.13779e-07
-2.15276e-07
-8.55294e-07
2.69154e-07
1.23312e-06
-2.37008e-07
2.74923e-07
-0.00115201
0.00115197
-1.44497e-07
-9.35958e-07
8.28176e-07
-7.5421e-07
1.00837e-06
4.36643e-08
2.32338e-08
0.000245405
-1.0262e-07
-0.000245353
-1.67798e-08
-1.4315e-07
1.00826e-06
-7.54453e-07
-9.36185e-07
8.28083e-07
-2.25046e-08
-1.22322e-08
4.15649e-09
6.40539e-08
0.000245334
7.00457e-08
0.000250179
-0.000250062
-1.93079e-07
4.75341e-09
9.95508e-11
8.37844e-10
-1.3208e-08
0.0002293
0.000193649
-0.000193615
3.33905e-09
-3.83025e-09
0.000193595
-3.07181e-10
0.000229356
-0.00022932
2.30451e-09
3.20673e-08
6.41147e-10
-1.52873e-08
0.000229263
6.88045e-09
0.000193589
-0.000193555
3.31012e-09
-5.10757e-09
-3.7079e-09
0.000193536
0.000229315
-0.000229282
2.1802e-09
3.41483e-08
9.79658e-05
-9.79821e-05
9.80031e-05
-9.79763e-05
9.7962e-05
-9.79783e-05
9.79993e-05
-9.79725e-05
0.000268048
-1.98124e-07
-2.00833e-07
1.9906e-08
-4.86293e-08
-0.00027819
9.99077e-09
1.98538e-08
-4.85994e-08
-0.000278113
1.05722e-08
-1.1222e-08
-6.96786e-09
2.48778e-08
0.000278162
-1.12108e-08
-7.45051e-09
2.25727e-08
0.000278087
9.80239e-05
-9.79972e-05
9.79867e-05
9.80201e-05
-9.79934e-05
9.7983e-05
1.13747e-08
9.80322e-05
1.12833e-08
9.80212e-05
1.21039e-08
2.49514e-08
-9.41427e-09
0.000278262
9.7802e-09
2.48638e-08
-6.83645e-09
0.000278194
2.47509e-08
-3.96056e-09
0.000193589
2.86772e-08
0.000229322
-1.11053e-08
9.32642e-10
6.64811e-08
4.00383e-09
0.000245484
1.33134e-09
-1.45819e-07
1.00879e-06
-7.56884e-07
-9.36251e-07
8.31074e-07
7.78936e-10
0.000250124
2.67893e-09
1.32228e-07
-1.21097e-08
6.64402e-08
3.97334e-09
0.000245382
-1.45788e-07
1.01132e-06
-7.56852e-07
-9.38713e-07
8.31057e-07
0.000250099
1.4284e-09
1.32234e-07
2.2577e-08
-7.47427e-09
0.000278137
-1.1309e-08
2.49372e-08
-6.81951e-09
0.000278277
5.0413e-09
6.4049e-08
6.52197e-09
0.000245448
4.02583e-09
-1.51744e-07
1.0114e-06
-7.56815e-07
-9.38762e-07
8.31054e-07
1.67681e-09
0.000250117
1.9366e-09
1.32203e-07
2.25378e-08
-3.8293e-09
0.000193578
2.86686e-08
0.00022931
-1.11155e-08
9.21106e-10
-1.51698e-07
1.01142e-06
-7.56852e-07
-9.3878e-07
8.3106e-07
-1.22358e-08
6.16526e-08
4.08514e-09
0.000245369
0.00025009
1.3222e-07
1.63506e-09
1.19216e-10
-0.000229366
3.20226e-08
-3.74719e-09
0.000193639
9.16456e-11
0.000229347
1.05813e-09
-1.31715e-08
7.01267e-08
-0.000250097
-1.95728e-07
4.54572e-09
0.00115211
-1.63383e-07
1.00589e-06
-7.51304e-07
8.28267e-07
-9.30541e-07
-2.25536e-08
6.15749e-08
6.51536e-09
0.000245407
-4.37921e-08
-3.60928e-07
-1.23309e-06
2.74799e-07
-2.44929e-07
-8.47237e-07
2.7166e-07
-2.09653e-07
9.13795e-07
-2.86284e-08
0.000250084
1.32147e-07
1.64734e-09
-1.99144e-07
-9.30328e-07
8.31074e-07
-7.5384e-07
1.00866e-06
4.35872e-08
-1.91396e-08
-0.000245426
-1.04892e-07
-0.000229327
2.99365e-08
2.1968e-09
-5.02322e-09
-3.83824e-09
0.000193583
0.000229308
-1.11004e-08
8.80335e-10
6.8804e-09
3.30952e-09
-0.000193602
2.03278e-08
-7.41984e-09
0.000278135
-1.13171e-08
2.26262e-08
-7.29173e-09
0.000278269
4.9731e-09
9.80277e-05
7.0003e-08
-0.00025009
-1.93096e-07
3.79695e-09
0.00115193
-1.51744e-07
1.00846e-06
-7.54014e-07
8.28233e-07
-9.35808e-07
-2.25332e-08
6.40211e-08
4.09822e-09
0.000245372
1.48708e-07
-1.44748e-07
-1.15597e-06
2.83192e-07
-2.28579e-07
-8.52315e-07
2.69109e-07
-2.15112e-07
9.13939e-07
-2.85286e-08
0.000250076
1.32148e-07
4.59399e-10
-1.94635e-07
-9.32878e-07
8.28323e-07
-7.51072e-07
1.00861e-06
4.35935e-08
-1.67767e-08
-0.000245391
-1.02544e-07
-3.49063e-10
-0.000229359
2.30955e-09
3.20167e-08
-3.90037e-09
0.000193635
-3.86389e-11
0.000229339
1.07711e-09
-1.31925e-08
-0.000229321
1.96322e-09
3.41023e-08
-5.04703e-09
-3.78445e-09
0.000193575
0.000229302
6.50433e-10
-1.52798e-08
6.92418e-09
3.2514e-09
-0.000193595
9.80076e-05
-9.8018e-05
9.80038e-05
-9.80142e-05
-7.8432e-10
1.24324e-08
0.000143358
-9.83373e-11
-0.000143369
-0.000171054
-3.23568e-10
-3.45862e-11
0.000171084
-0.000223351
2.89504e-08
4.36463e-09
0.000223391
-7.17796e-08
-1.11378e-08
9.66611e-10
-0.000229322
-1.00215e-10
2.87876e-08
-0.000171065
-2.51097e-11
8.7237e-10
-0.000223372
3.31285e-08
1.43341e-09
0.000143385
-2.44527e-08
-7.92528e-05
7.92787e-05
-1.41842e-09
3.45445e-09
0.000193607
6.76191e-09
-4.3783e-08
0.000263192
-1.69678e-08
-8.55327e-10
3.32027e-08
-0.000263211
0.000263237
-4.35197e-09
-6.17825e-08
1.21862e-10
-7.92699e-05
1.6986e-08
7.92616e-05
-0.000263218
2.44108e-08
0.000263263
-6.17417e-08
-3.81779e-09
-5.06101e-09
2.25629e-08
3.32008e-08
7.92874e-05
3.30568e-10
-2.89678e-08
-0.000143342
3.00797e-08
2.17923e-09
2.40725e-11
-7.02736e-08
0.000171035
7.75567e-10
-1.39467e-11
-0.000171047
0.000223331
-1.24448e-08
3.3178e-08
-0.000223351
-2.47892e-11
-7.17858e-08
-0.000143354
9.79968e-05
-6.74549e-09
-2.23656e-08
5.11506e-09
1.34834e-08
1.24365e-08
-7.57185e-10
0.000143356
-1.43139e-10
-0.000143368
-0.000223342
2.89718e-08
4.31863e-09
0.000223382
-7.18183e-08
-0.00017105
-3.6853e-10
1.53291e-11
0.000171081
9.4005e-10
-1.11345e-08
-0.000229309
4.67313e-12
2.87842e-08
8.24659e-10
-0.000223362
3.31406e-08
-0.000171062
-6.91778e-12
1.39761e-09
0.000143383
-2.44929e-08
-7.92544e-05
7.92803e-05
-1.38368e-09
3.49171e-09
0.00019359
6.76115e-09
-4.38213e-08
0.000263187
-1.69169e-08
-8.10356e-10
3.31741e-08
-0.000263206
0.000263232
-4.30907e-09
-6.18409e-08
1.66156e-10
-7.92715e-05
1.69328e-08
7.92632e-05
-0.000263213
2.44511e-08
0.000263258
-6.18019e-08
-3.73065e-09
-5.12157e-09
2.25253e-08
3.31682e-08
7.92891e-05
-2.89856e-08
3.72549e-10
-0.000143341
2.13093e-09
3.00921e-08
-7.59371e-12
-7.0301e-08
0.000223321
-1.24545e-08
3.3199e-08
-0.000223342
0.000171032
7.52731e-10
-9.16886e-13
-0.000171044
-7.18223e-08
2.37901e-11
-0.000143352
9.79899e-05
-6.76028e-09
-2.00316e-08
5.13684e-09
1.11403e-08
-6.97026e-09