/*--------------------------------*- C++ -*----------------------------------*\
| =========                 |                                                 |
| \\      /  F ield         | OpenFOAM: The Open Source CFD Toolbox           |
|  \\    /   O peration     | Version:  2312                                  |
|   \\  /    A nd           | Website:  www.openfoam.com                      |
|    \\/     M anipulation  |                                                 |
\*---------------------------------------------------------------------------*/
FoamFile
{
    version     2.0;
    format      ascii;
    arch        "LSB;label=32;scalar=64";
    class       volVectorField;
    location    "250";
    object      U;
}
// * * * * * * * * * * * * * * * * * * * * * * * * * * * * * * * * * * * * * //

dimensions      [0 1 -1 0 0 0 0];

internalField   nonuniform List<vector> 
43008
(
(6.34966e-05 6.34965e-05 0.108289)
(5.92174e-05 -9.55024e-05 0.107557)
(6.22756e-05 6.22544e-05 0.108604)
(-9.36719e-05 5.81593e-05 0.107771)
(5.81546e-05 -9.36573e-05 0.107771)
(-0.000149571 -0.000149579 0.106585)
(0.000152359 0.00015236 0.106508)
(1.25919e-05 1.26602e-05 0.106725)
(5.93035e-05 9.54896e-05 0.107557)
(-5.94094e-05 9.56644e-05 0.107557)
(5.85757e-05 9.41624e-05 0.107719)
(-5.86183e-05 9.42854e-05 0.107718)
(-1.2611e-05 1.26913e-05 0.106725)
(9.55617e-05 5.92067e-05 0.107557)
(9.56404e-05 -5.93569e-05 0.107557)
(9.42002e-05 5.84731e-05 0.107719)
(9.42114e-05 -5.85691e-05 0.107718)
(-9.41395e-05 5.84391e-05 0.107719)
(-9.40449e-05 -5.85198e-05 0.107719)
(0.000152486 -0.000152389 0.106508)
(1.26649e-05 -1.25395e-05 0.106725)
(-5.91824e-05 -9.55351e-05 0.107557)
(5.84273e-05 -9.41058e-05 0.107719)
(-5.84228e-05 -9.41522e-05 0.107719)
(-1.26367e-05 -1.25564e-05 0.106725)
(0.000149551 0.000149515 0.106585)
(5.83248e-05 9.37186e-05 0.10777)
(-5.83539e-05 9.38118e-05 0.10777)
(-0.000149541 0.000149542 0.106585)
(9.37464e-05 5.82086e-05 0.107771)
(9.37498e-05 -5.82996e-05 0.10777)
(-9.3581e-05 -5.82456e-05 0.10777)
(0.000149587 -0.000149553 0.106585)
(-5.81614e-05 -9.37033e-05 0.107771)
(2.1094e-06 2.08511e-05 0.0947506)
(-2.8184e-06 3.82719e-05 0.0840944)
(2.81202e-06 7.04663e-05 0.094794)
(-5.19158e-06 -1.25826e-06 0.0840816)
(5.93597e-06 -4.85195e-06 0.0725367)
(2.08258e-05 2.18174e-06 0.0947509)
(3.82923e-05 -2.81751e-06 0.0840947)
(7.04579e-05 2.90695e-06 0.0947942)
(-1.31334e-06 -5.36991e-06 0.084082)
(-6.35292e-05 6.35232e-05 0.108289)
(6.35373e-05 -6.35155e-05 0.108289)
(-6.34925e-05 -6.35245e-05 0.108289)
(6.25793e-05 6.25628e-05 0.108526)
(-6.25889e-05 6.25822e-05 0.108526)
(6.25819e-05 -6.25736e-05 0.108526)
(-6.25601e-05 -6.25833e-05 0.108526)
(-6.21485e-05 6.38343e-06 0.103006)
(-9.50653e-05 5.89749e-05 0.107612)
(-3.03215e-05 2.13353e-06 0.0963709)
(-0.000104298 2.1125e-05 0.108127)
(1.63712e-05 -3.45383e-06 0.0725067)
(-4.7574e-06 5.93089e-06 0.0725358)
(6.31072e-06 -6.2081e-05 0.103005)
(2.13037e-05 -0.000104752 0.108055)
(3.09699e-05 -7.52574e-05 0.0963598)
(5.89542e-05 -9.50309e-05 0.107612)
(7.62238e-06 -0.000126217 0.102968)
(2.11625e-05 -0.000104339 0.108127)
(2.22518e-06 -3.01567e-05 0.0963694)
(-1.41084e-05 -1.39937e-05 0.106681)
(-1.56256e-05 2.02012e-06 0.0899651)
(2.00592e-06 -1.55928e-05 0.0899618)
(1.65946e-06 1.52985e-05 0.0943847)
(-1.86173e-06 3.51749e-05 0.083821)
(2.36843e-06 6.36312e-05 0.0944188)
(-4.53985e-06 -3.34378e-06 0.0838169)
(-3.42604e-06 1.56179e-05 0.0723247)
(5.66064e-06 -5.17564e-06 0.0723587)
(1.52629e-05 1.68757e-06 0.094385)
(3.51856e-05 -1.97088e-06 0.0838214)
(6.36307e-05 2.39467e-06 0.094419)
(-3.32618e-06 -4.52786e-06 0.0838172)
(-6.22831e-05 6.22746e-05 0.108604)
(6.22691e-05 -6.22651e-05 0.108604)
(-6.22579e-05 -6.22764e-05 0.108604)
(-5.5392e-05 5.20734e-06 0.102755)
(-6.98421e-05 2.83547e-05 0.0960249)
(-0.000103141 2.06785e-05 0.108337)
(-9.32024e-05 5.78961e-05 0.107822)
(-0.000118552 6.52636e-06 0.102725)
(-2.56042e-05 6.8623e-07 0.0960411)
(-0.000102765 2.05321e-05 0.108405)
(1.55585e-05 -3.51753e-06 0.0723246)
(-5.18447e-06 5.7286e-06 0.0723579)
(5.11977e-06 -5.53615e-05 0.102754)
(2.07102e-05 -0.000103189 0.108337)
(2.84496e-05 -6.98123e-05 0.0960265)
(5.7867e-05 -9.31868e-05 0.107822)
(6.64312e-06 -0.000118587 0.102725)
(2.0556e-05 -0.000102792 0.108406)
(7.58186e-07 -2.54607e-05 0.0960397)
(-3.43105e-05 -1.82862e-05 0.0896684)
(-1.82999e-05 -3.42707e-05 0.0896673)
(-1.11924e-05 -1.11086e-05 0.106761)
(-1.30713e-05 2.63982e-06 0.0896672)
(2.58548e-06 -1.30096e-05 0.0896637)
(3.43227e-06 1.62919e-05 0.0725069)
(-6.04458e-06 -4.82736e-06 0.0725365)
(1.62954e-05 3.33352e-06 0.0725059)
(-4.97896e-06 -6.24725e-06 0.0725359)
(1.95339e-05 3.68925e-05 0.0899751)
(3.69087e-05 1.93558e-05 0.0899726)
(1.40129e-05 1.41015e-05 0.106682)
(-2.07359e-06 1.56026e-05 0.0899655)
(1.53973e-05 -2.16273e-06 0.0899633)
(-5.58069e-06 -5.00551e-06 0.0724454)
(3.52715e-06 1.59991e-05 0.0724136)
(-5.01907e-06 -5.87994e-06 0.072445)
(1.5884e-05 3.32653e-06 0.0724125)
(0.00015101 0.000151008 0.10655)
(-2.26009e-06 1.4308e-05 0.0898129)
(1.42468e-05 -2.39735e-06 0.0898109)
(1.88806e-05 3.56617e-05 0.0898185)
(3.55392e-05 1.87682e-05 0.0898157)
(-2.15765e-06 2.08553e-05 0.0947504)
(2.77704e-06 3.82402e-05 0.0840938)
(-2.91671e-06 7.04682e-05 0.0947939)
(5.12184e-06 -1.23954e-06 0.0840811)
(6.33364e-06 6.20832e-05 0.103005)
(3.08622e-05 7.53627e-05 0.0963592)
(2.12564e-05 0.000104723 0.108055)
(5.9062e-05 9.50556e-05 0.107612)
(7.47997e-06 0.000126268 0.102968)
(2.09967e-06 3.02894e-05 0.0963694)
(2.11144e-05 0.000104324 0.108127)
(-6.36774e-06 6.20923e-05 0.103005)
(-3.08771e-05 7.53226e-05 0.0963577)
(-2.13016e-05 0.000104765 0.108055)
(-5.91635e-05 9.52096e-05 0.107612)
(-7.61108e-06 0.000126281 0.102968)
(-2.21564e-06 3.02738e-05 0.0963677)
(-2.11694e-05 0.000104365 0.108127)
(2.56132e-06 6.69158e-05 0.0946023)
(-4.65276e-06 -2.46504e-06 0.0839457)
(-2.22581e-06 3.66663e-05 0.0839541)
(1.86084e-06 1.79444e-05 0.0945635)
(-2.6543e-06 6.69214e-05 0.0946021)
(4.64131e-06 -2.30907e-06 0.083945)
(2.27434e-06 3.66824e-05 0.0839537)
(-1.9028e-06 1.79552e-05 0.0945632)
(7.0353e-06 0.000122451 0.102849)
(5.88286e-05 9.46285e-05 0.107666)
(1.47227e-06 2.77362e-05 0.0962019)
(2.08373e-05 0.000103561 0.108268)
(2.9665e-05 7.2556e-05 0.09619)
(2.09769e-05 0.000103947 0.108197)
(5.73851e-06 5.86612e-05 0.102882)
(-7.1196e-06 0.00012245 0.102849)
(-5.88901e-05 9.47501e-05 0.107666)
(-1.47196e-06 2.7911e-05 0.0961999)
(-2.0884e-05 0.000103592 0.108267)
(-2.96554e-05 7.25804e-05 0.0961887)
(-2.10225e-05 0.00010398 0.108197)
(-5.75913e-06 5.86732e-05 0.102882)
(-1.40708e-05 1.41446e-05 0.106682)
(1.97661e-06 1.56072e-05 0.0899631)
(-1.57002e-05 -2.10936e-06 0.0899665)
(4.73375e-06 -5.97369e-06 0.0725383)
(5.73119e-06 -4.81855e-06 0.0724455)
(-3.45727e-06 1.59304e-05 0.0724133)
(-0.000151044 0.000151039 0.10655)
(2.40343e-06 1.44832e-05 0.0898104)
(-1.43514e-05 -2.45221e-06 0.0898141)
(-1.88487e-05 3.56196e-05 0.0898153)
(-3.56062e-05 1.87975e-05 0.0898163)
(4.98904e-06 -5.88155e-06 0.0724475)
(-1.5975e-05 3.39389e-06 0.0724104)
(6.20776e-05 6.40402e-06 0.103006)
(7.5317e-05 3.08389e-05 0.0963594)
(0.000104757 2.12409e-05 0.108055)
(9.51028e-05 5.89562e-05 0.107612)
(0.00012625 7.58426e-06 0.102968)
(3.01561e-05 2.00922e-06 0.096369)
(0.000104345 2.10985e-05 0.108127)
(2.08353e-05 -2.08483e-06 0.0947505)
(3.83046e-05 2.72183e-06 0.0840939)
(7.04646e-05 -2.81833e-06 0.0947938)
(-1.17189e-06 5.1929e-06 0.0840808)
(6.20918e-05 -6.29909e-06 0.103005)
(0.000104803 -2.13097e-05 0.108055)
(7.53614e-05 -3.09406e-05 0.0963589)
(9.5152e-05 -5.90987e-05 0.107612)
(0.000126247 -7.54224e-06 0.102968)
(0.000104378 -2.11724e-05 0.108127)
(3.0327e-05 -2.09965e-06 0.0963672)
(6.69102e-05 2.63296e-06 0.0946024)
(-2.37999e-06 -4.81979e-06 0.0839461)
(3.66488e-05 -2.36153e-06 0.0839543)
(1.79222e-05 1.92719e-06 0.0945637)
(0.00012242 7.09979e-06 0.102849)
(9.46634e-05 5.87217e-05 0.107666)
(2.77732e-05 1.39012e-06 0.0962015)
(0.00010357 2.08306e-05 0.108268)
(7.25313e-05 2.95912e-05 0.0961897)
(0.000103961 2.09646e-05 0.108197)
(5.86772e-05 5.79625e-06 0.102883)
(6.69117e-05 -2.57594e-06 0.0946021)
(-2.26747e-06 4.85924e-06 0.0839449)
(3.66956e-05 2.31914e-06 0.0839536)
(1.79174e-05 -1.81826e-06 0.0945634)
(0.000122429 -7.06893e-06 0.102849)
(9.46865e-05 -5.88425e-05 0.107666)
(0.000103584 -2.08864e-05 0.108267)
(2.78626e-05 -1.34082e-06 0.0961996)
(0.000103978 -2.10288e-05 0.108197)
(7.25539e-05 -2.96411e-05 0.0961894)
(5.86748e-05 -5.69096e-06 0.102882)
(-2.09096e-05 2.20855e-06 0.094752)
(1.19178e-06 -5.20724e-06 0.0840828)
(-6.20857e-05 -6.34172e-06 0.103006)
(-9.49946e-05 -5.90411e-05 0.107612)
(-0.000104265 -2.11682e-05 0.108127)
(-3.03104e-05 -2.13589e-06 0.0963697)
(-2.08597e-05 -2.08594e-06 0.094751)
(1.22867e-06 5.16013e-06 0.0840817)
(-0.00012237 6.98955e-06 0.102849)
(-9.46073e-05 5.87071e-05 0.107666)
(-2.78865e-05 1.37866e-06 0.0962034)
(-0.000103517 2.08267e-05 0.108267)
(-7.24831e-05 2.9555e-05 0.096189)
(-0.000103905 2.09755e-05 0.108198)
(-5.87351e-05 5.79402e-06 0.102883)
(-6.68852e-05 2.52273e-06 0.0946011)
(2.31e-06 -4.9053e-06 0.083947)
(-3.6667e-05 -2.33502e-06 0.0839523)
(-1.80175e-05 1.94108e-06 0.0945648)
(-0.000122389 -7.13501e-06 0.102849)
(-9.45259e-05 -5.87949e-05 0.107666)
(-0.000103492 -2.08845e-05 0.108267)
(-2.7943e-05 -1.41143e-06 0.0962022)
(-0.000103872 -2.10269e-05 0.108197)
(-7.24714e-05 -2.96275e-05 0.0961897)
(-5.86752e-05 -5.73159e-06 0.102882)
(-6.68981e-05 -2.66912e-06 0.0946022)
(2.3429e-06 4.83464e-06 0.0839458)
(-3.67047e-05 2.31296e-06 0.083954)
(-1.79785e-05 -1.83037e-06 0.0945638)
(3.6973e-05 -1.94803e-05 0.0899731)
(1.95073e-05 -3.69018e-05 0.0899747)
(1.41504e-05 -1.40038e-05 0.106682)
(1.56486e-05 1.99267e-06 0.0899614)
(-1.95446e-06 -1.55922e-05 0.0899653)
(3.46553e-06 -1.63741e-05 0.0725067)
(-5.90346e-06 4.80304e-06 0.0725364)
(-4.9872e-06 5.82589e-06 0.0724447)
(1.59531e-05 -3.49477e-06 0.0724135)
(0.000151103 -0.000151041 0.10655)
(1.43153e-05 2.31037e-06 0.0898088)
(-2.2732e-06 -1.42665e-05 0.0898127)
(3.55998e-05 -1.88734e-05 0.0898163)
(1.88708e-05 -3.55311e-05 0.089818)
(-5.80004e-06 5.02286e-06 0.0724455)
(3.49223e-06 -1.59676e-05 0.0724135)
(-6.38538e-06 -6.20868e-05 0.103006)
(-2.12486e-05 -0.000104709 0.108055)
(-3.09389e-05 -7.53363e-05 0.0963591)
(-5.8923e-05 -9.50753e-05 0.107612)
(-7.50892e-06 -0.000126205 0.102967)
(-2.11094e-05 -0.000104285 0.108127)
(-2.15255e-06 -3.01695e-05 0.0963681)
(2.12832e-06 -2.0883e-05 0.0947505)
(-2.66556e-06 -3.82611e-05 0.0840945)
(2.93726e-06 -7.04383e-05 0.0947933)
(-5.09653e-06 1.28334e-06 0.0840814)
(-2.13815e-06 -2.08449e-05 0.0947511)
(2.66592e-06 -3.82594e-05 0.0840946)
(-2.83831e-06 -7.04205e-05 0.0947928)
(5.12397e-06 1.25685e-06 0.0840813)
(7.12229e-06 -0.000122407 0.102849)
(5.86923e-05 -9.45743e-05 0.107666)
(2.08629e-05 -0.000103544 0.108268)
(1.46325e-06 -2.7736e-05 0.0962018)
(2.1011e-05 -0.000103954 0.108197)
(2.96688e-05 -7.24606e-05 0.0961905)
(5.71629e-06 -5.87034e-05 0.102882)
(-7.06179e-06 -0.000122379 0.102848)
(-5.86827e-05 -9.46182e-05 0.107666)
(-2.0846e-05 -0.000103511 0.108268)
(-1.42127e-06 -2.77002e-05 0.0962005)
(-2.09755e-05 -0.000103919 0.108197)
(-2.9681e-05 -7.25185e-05 0.0961899)
(-5.77056e-06 -5.86915e-05 0.102883)
(2.65944e-06 -6.68856e-05 0.0946016)
(-4.78529e-06 2.37045e-06 0.0839456)
(-2.27721e-06 -3.66472e-05 0.0839543)
(1.84578e-06 -1.79974e-05 0.0945635)
(-2.60868e-06 -6.68758e-05 0.0946012)
(4.79505e-06 2.34943e-06 0.0839455)
(2.27116e-06 -3.66288e-05 0.0839543)
(-1.89664e-06 -1.79606e-05 0.094564)
(4.7867e-06 5.92168e-06 0.0725368)
(5.92367e-06 4.79014e-06 0.0725358)
(-0.000151048 -0.000151041 0.10655)
(-1.4306e-05 2.34908e-06 0.0898126)
(2.31585e-06 -1.4241e-05 0.0898091)
(-3.56038e-05 -1.88735e-05 0.0898176)
(-1.88774e-05 -3.55788e-05 0.0898164)
(5.0215e-06 5.82405e-06 0.0724458)
(-1.59769e-05 -3.4712e-06 0.0724136)
(5.80621e-06 5.00371e-06 0.0724448)
(-3.5141e-06 -1.59264e-05 0.0724136)
(3.63098e-06 1.56404e-05 0.0723247)
(-5.6887e-06 -5.23237e-06 0.0723587)
(1.55613e-05 3.47376e-06 0.0723239)
(-5.24375e-06 -5.71499e-06 0.0723582)
(1.83203e-05 3.44213e-05 0.0896696)
(3.42834e-05 1.82646e-05 0.0896666)
(1.11615e-05 1.1243e-05 0.106762)
(-2.54145e-06 1.30265e-05 0.0896674)
(1.29974e-05 -2.58218e-06 0.0896655)
(-1.63715e-06 1.53104e-05 0.0943844)
(1.99159e-06 3.52444e-05 0.0838208)
(-2.39984e-06 6.36368e-05 0.0944187)
(4.50085e-06 -3.29998e-06 0.0838162)
(5.16083e-06 5.53156e-05 0.102754)
(2.85085e-05 6.99238e-05 0.0960259)
(2.06945e-05 0.000103197 0.108337)
(5.80486e-05 9.32548e-05 0.107821)
(6.59408e-06 0.00011863 0.102724)
(7.53691e-07 2.5509e-05 0.0960397)
(2.05541e-05 0.000102819 0.108405)
(-5.14733e-06 5.53234e-05 0.102754)
(-2.84186e-05 6.99257e-05 0.0960249)
(-2.07367e-05 0.000103217 0.108337)
(-5.80784e-05 9.33248e-05 0.107821)
(-6.62733e-06 0.000118629 0.102724)
(-7.54565e-07 2.55666e-05 0.0960377)
(-2.059e-05 0.000102839 0.108405)
(-1.80913e-05 3.43133e-05 0.0896662)
(-3.43156e-05 1.81992e-05 0.0896672)
(-1.11853e-05 1.12535e-05 0.106762)
(2.52094e-06 1.30818e-05 0.0896651)
(-1.31179e-05 -2.73371e-06 0.0896686)
(-1.55483e-05 3.39894e-06 0.0723215)
(5.21289e-06 -5.7892e-06 0.0723607)
(5.52943e-05 5.153e-06 0.102755)
(6.98931e-05 2.84577e-05 0.0960255)
(0.000103192 2.06914e-05 0.108337)
(9.32733e-05 5.79311e-05 0.107822)
(0.000118587 6.62346e-06 0.102724)
(2.54598e-05 7.46176e-07 0.0960392)
(0.00010281 2.05451e-05 0.108405)
(1.52696e-05 -1.58076e-06 0.0943847)
(3.52166e-05 1.99813e-06 0.0838206)
(6.36411e-05 -2.32705e-06 0.0944187)
(-3.24021e-06 4.60708e-06 0.0838161)
(5.53322e-05 -5.10188e-06 0.102755)
(0.000103199 -2.07323e-05 0.108337)
(6.99075e-05 -2.84474e-05 0.0960253)
(9.32676e-05 -5.80094e-05 0.107821)
(0.00011861 -6.59326e-06 0.102724)
(0.000102818 -2.05844e-05 0.108405)
(2.5555e-05 -6.52841e-07 0.0960374)
(-1.53599e-05 1.70325e-06 0.0943859)
(-3.51973e-05 -2.02186e-06 0.0838192)
(-6.3607e-05 2.26921e-06 0.0944177)
(3.28473e-06 -4.64993e-06 0.083818)
(-5.53223e-05 -5.14164e-06 0.102755)
(-0.000103116 -2.07348e-05 0.108337)
(-6.98641e-05 -2.84451e-05 0.0960255)
(-9.31048e-05 -5.79658e-05 0.107821)
(-0.000118555 -6.64863e-06 0.102725)
(-0.000102747 -2.05932e-05 0.108405)
(-2.5661e-05 -7.13e-07 0.09604)
(-1.53291e-05 -1.5987e-06 0.094385)
(-3.52372e-05 1.98483e-06 0.083821)
(-6.36205e-05 -2.4314e-06 0.0944188)
(3.31908e-06 4.58117e-06 0.0838169)
(3.4304e-05 -1.82895e-05 0.0896672)
(1.82889e-05 -3.42501e-05 0.089669)
(1.11942e-05 -1.10936e-05 0.106761)
(1.30763e-05 2.59568e-06 0.0896634)
(-2.56201e-06 -1.30466e-05 0.0896673)
(3.50353e-06 -1.55771e-05 0.0723246)
(-5.71129e-06 5.22697e-06 0.0723587)
(-5.19409e-06 -5.5378e-05 0.102755)
(-2.07062e-05 -0.000103164 0.108337)
(-2.85084e-05 -6.98703e-05 0.0960259)
(-5.78844e-05 -9.32325e-05 0.107821)
(-6.59742e-06 -0.000118545 0.102724)
(-2.05691e-05 -0.000102766 0.108405)
(-7.47669e-07 -2.5411e-05 0.0960383)
(1.59139e-06 -1.53378e-05 0.0943848)
(-1.9632e-06 -3.5197e-05 0.0838214)
(2.39097e-06 -6.36088e-05 0.0944183)
(-4.5214e-06 3.30728e-06 0.0838168)
(-1.66854e-06 -1.5303e-05 0.0943854)
(1.94111e-06 -3.51778e-05 0.0838214)
(-2.38566e-06 -6.35819e-05 0.0944178)
(4.53877e-06 3.28601e-06 0.0838167)
(-1.55765e-05 -3.49825e-06 0.0723247)
(5.21803e-06 5.72518e-06 0.0723589)
(-3.5454e-06 -1.55475e-05 0.0723247)
(5.70685e-06 5.19188e-06 0.0723579)
(-1.10818e-06 1.33312e-05 0.0780383)
(2.67684e-06 6.86573e-05 0.0946971)
(2.65701e-07 -1.02692e-05 0.079912)
(4.19692e-06 1.39166e-05 0.0928158)
(1.24099e-07 8.39515e-06 0.0798525)
(6.41415e-06 5.91463e-05 0.0927533)
(2.11998e-07 -6.15657e-06 0.0781088)
(2.33931e-06 -6.68868e-06 0.0694217)
(5.33841e-06 3.91733e-05 0.0880755)
(-5.57179e-06 -6.61545e-07 0.0841524)
(8.87772e-07 1.24619e-05 0.0693271)
(3.70616e-06 3.63187e-06 0.0881442)
(-6.54223e-08 -6.25321e-06 0.0781574)
(2.23141e-06 2.23941e-05 0.0948473)
(2.83752e-08 8.17091e-06 0.0799012)
(6.63474e-06 6.06606e-05 0.0928433)
(-1.35749e-06 1.32504e-05 0.0780871)
(1.82693e-07 -1.05027e-05 0.0799604)
(4.38401e-06 1.52043e-05 0.0929055)
(9.19286e-07 1.23526e-05 0.0692838)
(3.65898e-06 2.88944e-06 0.0880649)
(-2.51868e-06 3.74809e-05 0.0840233)
(5.28616e-06 3.82318e-05 0.0879957)
(2.43121e-06 -6.71894e-06 0.0693781)
(6.00762e-06 -4.73444e-06 0.072584)
(-3.38513e-06 1.61431e-05 0.0724591)
(1.33251e-05 -1.00877e-06 0.0780388)
(6.86531e-05 2.76924e-06 0.0946973)
(1.39068e-05 4.24432e-06 0.0928162)
(-1.02875e-05 3.12442e-07 0.0799126)
(5.91612e-05 6.51179e-06 0.0927535)
(8.37507e-06 1.95179e-07 0.0798529)
(-6.18282e-06 1.96373e-07 0.0781094)
(-6.74527e-06 2.37774e-06 0.0694221)
(3.9179e-05 5.42697e-06 0.0880759)
(-6.5084e-07 -5.35582e-06 0.0841527)
(1.24952e-05 9.39973e-07 0.0693275)
(3.57199e-06 3.80357e-06 0.0881445)
(-6.27232e-06 -1.02702e-08 0.0781581)
(2.23845e-05 2.33129e-06 0.0948477)
(6.06629e-05 6.72768e-06 0.0928436)
(8.15629e-06 1.07076e-07 0.0799016)
(1.32559e-05 -1.26937e-06 0.0780876)
(1.52162e-05 4.48392e-06 0.0929059)
(-1.05222e-05 2.47883e-07 0.079961)
(1.23841e-05 9.97722e-07 0.0692843)
(2.85622e-06 3.62857e-06 0.0880651)
(3.74413e-05 -2.67223e-06 0.0840236)
(3.82735e-05 5.27063e-06 0.087996)
(-6.80352e-06 2.38976e-06 0.0693785)
(-4.63328e-06 5.99698e-06 0.0725829)
(1.61596e-05 -3.47901e-06 0.0724595)
(-2.75405e-05 -2.75171e-05 0.085651)
(-4.06016e-07 6.29466e-06 0.069584)
(6.26207e-06 -3.79237e-07 0.0695772)
(-1.00476e-05 -1.2e-05 0.0695015)
(-1.19986e-05 -1.0058e-05 0.0694951)
(-8.50459e-06 -8.46406e-06 0.0857043)
(-1.61468e-05 -2.08705e-05 0.094692)
(-1.63247e-05 1.85429e-06 0.0900443)
(-3.28181e-05 -3.54276e-05 0.10001)
(-1.24219e-05 7.00938e-06 0.0834765)
(-2.0864e-05 -1.60724e-05 0.0946831)
(1.82978e-06 -1.63193e-05 0.090041)
(-3.53511e-05 -3.28122e-05 0.100006)
(6.99097e-06 -1.23954e-05 0.0834701)
(-8.98023e-06 -8.92187e-06 0.0857768)
(-5.7293e-07 6.29066e-06 0.0696324)
(6.25528e-06 -5.39929e-07 0.0696256)
(-6.92043e-05 -4.42483e-05 0.0945372)
(-1.19538e-05 6.88632e-06 0.0834106)
(-3.62553e-05 -1.91591e-05 0.089895)
(-3.16415e-05 -3.41695e-05 0.0999316)
(-9.96033e-05 -6.26664e-05 0.0998522)
(-3.07706e-05 -5.76601e-06 0.08334)
(-1.53383e-05 -1.99662e-05 0.0946084)
(-4.42805e-05 -6.91703e-05 0.0945293)
(6.86979e-06 -1.19147e-05 0.0834042)
(-1.91806e-05 -3.62647e-05 0.0898936)
(-3.40869e-05 -3.16358e-05 0.0999272)
(-6.26744e-05 -9.95996e-05 0.0998489)
(-5.79077e-06 -3.08335e-05 0.0833355)
(-1.99195e-05 -1.52655e-05 0.0945995)
(-2.02969e-07 1.35789e-05 0.0778568)
(2.26626e-06 6.2098e-05 0.0943303)
(4.61289e-07 -9.15471e-06 0.0797346)
(3.46105e-06 9.47495e-06 0.0924796)
(4.02509e-07 9.4464e-06 0.0796744)
(5.74825e-06 5.37317e-05 0.0924157)
(8.63558e-07 -5.82603e-06 0.0779274)
(2.49602e-06 -7.01204e-06 0.0692538)
(4.97484e-06 3.57639e-05 0.0877694)
(-4.57897e-06 -2.84448e-06 0.0838805)
(1.10065e-06 1.19731e-05 0.0691603)
(3.26454e-06 9.66293e-07 0.0878398)
(7.68092e-07 -5.89735e-06 0.0779708)
(1.78487e-06 1.65955e-05 0.094473)
(3.60685e-07 9.16238e-06 0.0797166)
(5.91502e-06 5.49982e-05 0.0924968)
(-4.23021e-07 1.35183e-05 0.0779002)
(4.60685e-07 -9.44981e-06 0.0797767)
(3.67851e-06 1.05165e-05 0.0925604)
(1.23664e-06 1.19883e-05 0.0691216)
(3.06563e-06 3.79212e-07 0.0877689)
(-1.79623e-06 3.45268e-05 0.0837574)
(4.83588e-06 3.50942e-05 0.0876983)
(2.49448e-06 -7.03145e-06 0.0692146)
(5.74986e-06 -5.07674e-06 0.0724014)
(-3.6135e-06 1.55262e-05 0.0722815)
(1.35815e-05 -2.20601e-07 0.0778572)
(6.20883e-05 2.27525e-06 0.0943305)
(9.48534e-06 3.46765e-06 0.0924797)
(-9.17216e-06 4.80962e-07 0.0797352)
(5.37493e-05 5.75047e-06 0.0924159)
(9.44539e-06 4.07868e-07 0.0796747)
(-5.82992e-06 8.57505e-07 0.0779278)
(-6.95907e-06 2.50436e-06 0.0692543)
(3.58077e-05 4.98431e-06 0.0877696)
(-2.86933e-06 -4.66178e-06 0.0838808)
(1.21039e-05 1.19252e-06 0.0691611)
(9.24514e-07 3.25201e-06 0.0878399)
(-5.91273e-06 7.32285e-07 0.0779713)
(1.65615e-05 1.80429e-06 0.0944733)
(5.50063e-05 5.92719e-06 0.092497)
(9.1602e-06 3.75265e-07 0.079717)
(1.35249e-05 -3.83776e-07 0.0779007)
(1.04859e-05 3.65638e-06 0.0925606)
(-9.45879e-06 4.55641e-07 0.0797773)
(1.20082e-05 1.24825e-06 0.069122)
(3.73751e-07 3.10944e-06 0.0877689)
(3.45288e-05 -1.81892e-06 0.0837575)
(3.50781e-05 4.86814e-06 0.0876984)
(-7.0204e-06 2.51556e-06 0.069215)
(-5.08904e-06 5.77796e-06 0.0724008)
(1.53714e-05 -3.52584e-06 0.0722817)
(-2.55705e-05 -2.55551e-05 0.0853787)
(2.54998e-07 6.23681e-06 0.0694011)
(6.2247e-06 2.70532e-07 0.0693943)
(-9.44737e-06 -1.1705e-05 0.0693189)
(-1.16781e-05 -9.4699e-06 0.0693125)
(-6.76705e-06 -6.73165e-06 0.0854337)
(-1.29733e-05 -1.7394e-05 0.0943688)
(-9.53256e-05 -5.89601e-05 0.0996213)
(-2.9353e-05 -5.97367e-06 0.0831507)
(-1.36779e-05 2.5003e-06 0.089739)
(-6.61048e-05 -4.15155e-05 0.0942971)
(-2.83327e-05 -3.06815e-05 0.0997003)
(-1.0524e-05 6.55312e-06 0.0832216)
(-1.73266e-05 -1.28852e-05 0.0943599)
(-5.89435e-05 -9.52759e-05 0.0996181)
(-5.99339e-06 -2.94e-05 0.0831462)
(2.45505e-06 -1.36063e-05 0.0897355)
(-4.14987e-05 -6.60518e-05 0.0942892)
(-3.05133e-05 -2.82594e-05 0.0996957)
(6.53932e-06 -1.04686e-05 0.0832152)
(-7.1748e-06 -7.13616e-06 0.0854986)
(-9.59591e-06 -1.17772e-05 0.0693629)
(-1.17511e-05 -9.61624e-06 0.0693566)
(-2.60354e-05 -2.6023e-05 0.085444)
(9.46961e-08 6.25263e-06 0.0694452)
(6.23433e-06 1.13862e-07 0.0694384)
(-6.51141e-05 -4.0645e-05 0.0942207)
(-1.00651e-05 6.45278e-06 0.0831614)
(-3.36889e-05 -1.80066e-05 0.0895965)
(-2.72828e-05 -2.95562e-05 0.0996247)
(-9.39529e-05 -5.77814e-05 0.0995459)
(-2.88975e-05 -6.03977e-06 0.0830905)
(-1.22211e-05 -1.65852e-05 0.0942925)
(-4.06436e-05 -6.50648e-05 0.0942129)
(6.44619e-06 -1.00042e-05 0.083155)
(-1.8035e-05 -3.36574e-05 0.0895955)
(-2.93741e-05 -2.71856e-05 0.0996201)
(-5.77564e-05 -9.38939e-05 0.0995428)
(-6.05687e-06 -2.89379e-05 0.083086)
(-1.65143e-05 -1.21236e-05 0.0942836)
(-6.2496e-06 -4.88707e-06 0.0725837)
(3.42253e-06 1.61191e-05 0.0724594)
(-4.53693e-06 -6.02305e-06 0.0725832)
(1.61182e-05 3.30064e-06 0.0724589)
(2.74551e-05 2.7481e-05 0.0856506)
(-6.25355e-06 3.91451e-07 0.0695845)
(3.05813e-07 -6.19424e-06 0.0695777)
(1.19285e-05 1.00164e-05 0.0695012)
(1.00414e-05 1.19619e-05 0.0694946)
(8.40066e-06 8.47285e-06 0.0857053)
(2.08074e-05 1.59939e-05 0.0946926)
(6.40078e-05 0.000101059 0.0999308)
(5.78883e-06 3.12795e-05 0.083407)
(-1.96956e-06 1.61396e-05 0.0900447)
(4.5189e-05 7.02803e-05 0.094621)
(-7.09833e-06 1.23242e-05 0.0834774)
(3.53256e-05 3.27321e-05 0.10001)
(1.61121e-05 2.06934e-05 0.0946846)
(0.000100967 6.38729e-05 0.0999267)
(3.12368e-05 5.57327e-06 0.0834011)
(1.63752e-05 -1.96507e-06 0.0900426)
(7.01598e-05 4.51689e-05 0.0946124)
(1.24097e-05 -7.17985e-06 0.0834717)
(3.2768e-05 3.52693e-05 0.100007)
(8.80957e-06 8.71627e-06 0.0857778)
(1.21768e-05 1.03767e-05 0.06955)
(1.01272e-05 1.20857e-05 0.0695432)
(2.79381e-05 2.8119e-05 0.0857236)
(-6.36884e-06 3.6674e-07 0.0696332)
(4.30356e-07 -6.5729e-06 0.0696262)
(4.42051e-05 6.91696e-05 0.0945371)
(-6.83415e-06 1.1916e-05 0.0834114)
(1.91373e-05 3.63043e-05 0.0898957)
(3.41011e-05 3.16227e-05 0.0999319)
(5.69264e-06 3.07782e-05 0.0833405)
(1.99611e-05 1.52893e-05 0.0946091)
(6.26636e-05 9.96392e-05 0.0998524)
(6.90992e-05 4.41923e-05 0.0945287)
(1.18461e-05 -6.83375e-06 0.0834058)
(3.61593e-05 1.9066e-05 0.0898932)
(3.15451e-05 3.40351e-05 0.0999287)
(3.07858e-05 5.7645e-06 0.0833351)
(1.52103e-05 1.98826e-05 0.094601)
(9.94546e-05 6.25569e-05 0.0998483)
(3.56576e-06 1.57813e-05 0.0723685)
(-5.9936e-06 -4.98169e-06 0.0724905)
(1.57553e-05 3.43047e-06 0.0723678)
(-4.89857e-06 -5.96362e-06 0.0724899)
(7.99457e-06 7.98246e-06 0.085635)
(1.19198e-05 9.95084e-06 0.0694541)
(9.89889e-06 1.19937e-05 0.0694474)
(2.69786e-05 2.70555e-05 0.0855798)
(-6.23496e-06 1.91124e-07 0.0695373)
(1.88795e-07 -6.29147e-06 0.0695304)
(4.24033e-05 6.71611e-05 0.0943756)
(3.17633e-05 2.94197e-05 0.0997769)
(1.85845e-05 3.50195e-05 0.0897431)
(-6.63004e-06 1.10177e-05 0.0832841)
(5.94103e-06 2.98802e-05 0.0832133)
(6.01982e-05 9.68036e-05 0.099698)
(1.8222e-05 1.37464e-05 0.0944476)
(6.70627e-05 4.24067e-05 0.0943669)
(2.93781e-05 3.16861e-05 0.0997737)
(3.49268e-05 1.85088e-05 0.0897403)
(1.09609e-05 -6.65946e-06 0.0832785)
(2.98721e-05 5.95357e-06 0.0832074)
(9.66535e-05 6.01167e-05 0.0996937)
(1.36809e-05 1.8154e-05 0.0944396)
(1.90754e-05 1.44727e-05 0.0945274)
(5.88261e-06 3.0337e-05 0.0832762)
(6.14247e-05 9.82153e-05 0.0997748)
(-2.22532e-06 1.48674e-05 0.0898883)
(4.33065e-05 6.81731e-05 0.0944554)
(-6.70776e-06 1.14173e-05 0.083347)
(3.29001e-05 3.04775e-05 0.099854)
(1.44857e-05 1.8997e-05 0.0945194)
(3.03133e-05 5.87015e-06 0.0832703)
(9.80871e-05 6.13498e-05 0.0997706)
(1.49228e-05 -2.27704e-06 0.0898862)
(6.80647e-05 4.33218e-05 0.0944468)
(1.144e-05 -6.77901e-06 0.0833414)
(3.05023e-05 3.28539e-05 0.0998508)
(2.65135e-05 2.65555e-05 0.0855109)
(-6.36486e-06 3.9978e-08 0.0694911)
(-6.19597e-09 -6.29373e-06 0.0694842)
(1.18595e-05 9.78566e-06 0.0694082)
(9.79105e-06 1.18937e-05 0.0694014)
(7.50921e-06 7.55579e-06 0.0855665)
(9.25748e-07 1.33425e-05 0.0780377)
(-2.79654e-06 6.86636e-05 0.0946969)
(-3.03121e-07 -1.02715e-05 0.079912)
(-4.2256e-06 1.39414e-05 0.0928148)
(-2.28036e-07 8.39508e-06 0.0798524)
(-6.53422e-06 5.91758e-05 0.0927534)
(-2.36767e-07 -6.16163e-06 0.0781079)
(-2.40233e-06 -6.73291e-06 0.0694228)
(-5.42748e-06 3.91559e-05 0.0880761)
(5.34731e-06 -6.6414e-07 0.0841518)
(-9.33295e-07 1.24541e-05 0.0693291)
(-3.8437e-06 3.61693e-06 0.0881434)
(-5.9808e-09 -6.2414e-06 0.0781566)
(-2.29824e-06 2.23938e-05 0.0948471)
(-1.16729e-07 8.17392e-06 0.0799012)
(-6.72278e-06 6.0676e-05 0.0928434)
(-2.38534e-07 -1.05052e-05 0.0799604)
(1.27429e-06 1.3254e-05 0.0780865)
(-4.45656e-06 1.5226e-05 0.0929044)
(-1.07592e-06 1.2452e-05 0.0692858)
(-3.69222e-06 2.88863e-06 0.0880641)
(2.47915e-06 3.74952e-05 0.0840228)
(-5.38826e-06 3.83256e-05 0.0879963)
(-2.45648e-06 -6.753e-06 0.0693794)
(4.10299e-07 -6.07431e-06 0.0780615)
(2.00569e-07 8.63914e-06 0.0798056)
(6.23348e-06 5.76863e-05 0.0926656)
(1.97975e-06 1.93747e-05 0.094656)
(-8.81448e-07 1.3389e-05 0.0779909)
(3.14098e-07 -1.00125e-05 0.0798654)
(3.98727e-06 1.26913e-05 0.0927285)
(1.03274e-06 1.21379e-05 0.0692009)
(-1.96106e-06 3.58882e-05 0.0838869)
(3.35396e-06 1.30233e-06 0.0879127)
(2.24716e-06 -7.21853e-06 0.0692942)
(5.13122e-06 3.64585e-05 0.0878429)
(2.47359e-06 -6.76397e-06 0.0693358)
(5.22485e-06 3.73507e-05 0.0879182)
(-5.00099e-06 -1.84457e-06 0.0840128)
(9.95096e-07 1.21973e-05 0.0692416)
(3.54134e-06 2.27232e-06 0.0879879)
(-7.06732e-07 1.34381e-05 0.0779449)
(2.44475e-06 6.52456e-05 0.0945095)
(3.46018e-07 -9.74587e-06 0.0798203)
(3.75457e-06 1.15283e-05 0.0926433)
(3.68092e-07 -6.05577e-06 0.0780155)
(2.47777e-07 8.90336e-06 0.0797603)
(6.012e-06 5.62867e-05 0.0925801)
(-4.09716e-07 -6.08586e-06 0.0780606)
(-2.76108e-07 8.63818e-06 0.0798055)
(-6.30351e-06 5.77181e-05 0.0926657)
(-2.02314e-06 1.93697e-05 0.0946557)
(7.5999e-07 1.33885e-05 0.0779904)
(-3.57261e-07 -1.00098e-05 0.0798653)
(-4.01519e-06 1.27157e-05 0.0927274)
(-1.15412e-06 1.21901e-05 0.0692026)
(2.09061e-06 3.59616e-05 0.0838863)
(-3.47208e-06 1.53963e-06 0.087912)
(-5.13621e-06 3.66087e-05 0.0878434)
(-2.52382e-06 -6.91291e-06 0.0692956)
(-2.47218e-06 -6.85052e-06 0.0693369)
(-5.24492e-06 3.74206e-05 0.0879188)
(4.93747e-06 -1.82406e-06 0.084012)
(-1.08275e-06 1.22831e-05 0.0692437)
(-3.54348e-06 2.20167e-06 0.087987)
(5.44884e-07 1.34615e-05 0.0779444)
(-2.52015e-06 6.52587e-05 0.0945094)
(-4.22229e-07 -9.73405e-06 0.0798203)
(-3.83323e-06 1.15762e-05 0.0926422)
(-3.2809e-07 8.90542e-06 0.0797603)
(-6.11699e-06 5.63307e-05 0.0925802)
(-6.07711e-07 -5.98848e-06 0.0780147)
(-2.75776e-05 2.75123e-05 0.0856508)
(6.2331e-06 3.047e-07 0.0695783)
(-4.53047e-07 -6.37131e-06 0.0695836)
(-1.20612e-05 1.00731e-05 0.0694951)
(-1.00568e-05 1.19723e-05 0.0695006)
(-8.53841e-06 8.35997e-06 0.0857048)
(-2.08992e-05 1.60743e-05 0.0946837)
(1.81888e-06 1.63056e-05 0.0900422)
(6.94464e-06 1.24101e-05 0.0834714)
(-3.54327e-05 3.28234e-05 0.100006)
(-1.61868e-05 2.08118e-05 0.0946927)
(-1.63984e-05 -1.93866e-06 0.0900455)
(-3.29182e-05 3.53343e-05 0.100011)
(-1.2489e-05 -7.10756e-06 0.0834771)
(-9.02495e-06 8.84076e-06 0.0857772)
(6.21365e-06 4.72065e-07 0.0696266)
(-6.2564e-07 -6.37218e-06 0.069632)
(-4.43101e-05 6.91541e-05 0.0945284)
(6.82006e-06 1.19488e-05 0.0834057)
(-1.91358e-05 3.62864e-05 0.0898925)
(-3.41885e-05 3.16596e-05 0.0999276)
(-5.8239e-06 3.08138e-05 0.0833344)
(-6.26535e-05 9.96089e-05 0.0998479)
(-1.99804e-05 1.52704e-05 0.0946003)
(-6.92389e-05 4.42574e-05 0.0945372)
(-1.20071e-05 -6.99206e-06 0.0834112)
(-3.62686e-05 1.91147e-05 0.0898939)
(-3.17624e-05 3.40808e-05 0.0999326)
(-9.95871e-05 6.26696e-05 0.0998519)
(-3.07886e-05 5.75103e-06 0.0833399)
(-1.53578e-05 1.98863e-05 0.094609)
(4.61731e-06 -6.03482e-06 0.0725852)
(-1.61671e-05 3.39306e-06 0.0724567)
(-3.46666e-06 1.57876e-05 0.0723684)
(5.85423e-06 -4.94622e-06 0.0724903)
(-8.08939e-06 7.84535e-06 0.0856343)
(-1.1977e-05 9.9349e-06 0.069448)
(-9.92107e-06 1.18839e-05 0.0694534)
(-2.70685e-05 2.70021e-05 0.08558)
(6.2727e-06 8.53964e-08 0.069531)
(-3.01274e-07 -6.38652e-06 0.0695363)
(-4.24391e-05 6.70435e-05 0.0943665)
(-3.17461e-05 2.94114e-05 0.0997726)
(-1.85221e-05 3.50005e-05 0.0897399)
(6.72006e-06 1.10109e-05 0.0832786)
(-6.01162e-05 9.67347e-05 0.0996932)
(-5.93251e-06 2.98671e-05 0.0832066)
(-1.81748e-05 1.36194e-05 0.0944388)
(-6.71326e-05 4.23495e-05 0.0943755)
(-2.95104e-05 3.16619e-05 0.0997775)
(-3.49295e-05 1.8482e-05 0.0897409)
(-1.1053e-05 -6.80064e-06 0.0832839)
(-2.98673e-05 5.87256e-06 0.0832123)
(-9.67252e-05 6.01378e-05 0.0996974)
(-1.37752e-05 1.80978e-05 0.0944474)
(-1.90711e-05 1.44425e-05 0.0945186)
(-5.89682e-06 3.03439e-05 0.0832698)
(-6.13876e-05 9.81608e-05 0.0997702)
(2.17177e-06 1.4962e-05 0.0898857)
(-3.2961e-05 3.05229e-05 0.0998498)
(-4.33419e-05 6.80693e-05 0.0944465)
(6.75925e-06 1.14725e-05 0.0833413)
(-1.45678e-05 1.89778e-05 0.0945273)
(-3.03253e-05 5.82702e-06 0.0832754)
(-9.81628e-05 6.1408e-05 0.0997743)
(-1.50196e-05 -2.28653e-06 0.0898895)