/*--------------------------------*- C++ -*----------------------------------*\
| =========                 |                                                 |
| \\      /  F ield         | OpenFOAM: The Open Source CFD Toolbox           |
|  \\    /   O peration     | Version:  2312                                  |
|   \\  /    A nd           | Website:  www.openfoam.com                      |
|    \\/     M anipulation  |                                                 |
\*---------------------------------------------------------------------------*/
FoamFile
{
    version     2.0;
    format      ascii;
    arch        "LSB;label=32;scalar=64";
    class       volScalarField;
    location    "950";
    object      nut;
}
// * * * * * * * * * * * * * * * * * * * * * * * * * * * * * * * * * * * * * //

dimensions      [0 2 -1 0 0 0 0];

internalField   nonuniform List<scalar> 
42840
(
0.000145952
9.86077e-05
9.86055e-05
8.20451e-05
0.000141923
9.62729e-05
9.62716e-05
8.20226e-05
0.000137981
9.44576e-05
9.44571e-05
8.26382e-05
0.000134143
9.31593e-05
9.31595e-05
8.36313e-05
0.000130463
9.23675e-05
9.23687e-05
8.50087e-05
0.000126969
9.20605e-05
9.20632e-05
8.6718e-05
0.000123696
9.2212e-05
9.22166e-05
8.87057e-05
0.000120689
9.27907e-05
9.27961e-05
9.08924e-05
0.000117951
9.37603e-05
9.37673e-05
9.32533e-05
0.000115535
9.50872e-05
9.50969e-05
9.56017e-05
0.000113454
9.67321e-05
9.67432e-05
9.81499e-05
0.000111725
9.86568e-05
9.86688e-05
0.000100654
0.000110357
0.000100828
0.000100839
0.00010325
0.000109355
0.000103211
0.000103222
0.000105952
0.000108721
0.000105779
0.000105789
0.00010859
0.000108451
0.0001085
0.00010851
0.000111323
0.000108538
0.000111346
0.000111355
0.000113909
0.000108972
0.000114293
0.000114303
0.000116674
0.000109741
0.00011732
0.00011733
0.000119343
0.000110829
0.000120416
0.000120426
0.000121999
0.000112222
0.00012356
0.00012357
0.000124568
0.0001139
0.000126735
0.000126744
0.00012718
0.000115845
0.000129922
0.000129932
0.000129834
0.000118036
0.000133111
0.000133119
0.000132316
0.000120452
0.000136288
0.000136296
0.000134877
8.18075e-05
8.22355e-05
9.85816e-05
9.85691e-05
9.67825e-05
9.67691e-05
8.1691e-05
8.21299e-05
9.85998e-05
9.85695e-05
9.68002e-05
9.67691e-05
9.85838e-05
9.68035e-05
9.67848e-05
8.17861e-05
8.22099e-05
9.85958e-05
9.6806e-05
9.67955e-05
8.18595e-05
8.18811e-05
8.26776e-05
9.6249e-05
9.62368e-05
9.48379e-05
9.48268e-05
8.18461e-05
8.26002e-05
9.6267e-05
9.62377e-05
9.48553e-05
9.4826e-05
9.62518e-05
9.48592e-05
9.48444e-05
8.1841e-05
8.26673e-05
9.62619e-05
9.48616e-05
9.48533e-05
8.23582e-05
8.23973e-05
8.35501e-05
9.44344e-05
9.44234e-05
9.34129e-05
9.34036e-05
8.23736e-05
8.36155e-05
9.44516e-05
9.44241e-05
9.34295e-05
9.34015e-05
9.44404e-05
9.34338e-05
9.34221e-05
8.23503e-05
8.34722e-05
9.44489e-05
9.34356e-05
9.34293e-05
8.32472e-05
8.33754e-05
8.48697e-05
9.31385e-05
9.31279e-05
9.24976e-05
9.24895e-05
8.32972e-05
8.48787e-05
9.31546e-05
9.31286e-05
9.25138e-05
9.24879e-05
9.31469e-05
9.25175e-05
9.25089e-05
8.33619e-05
8.4856e-05
9.31538e-05
9.252e-05
9.25148e-05
8.45485e-05
8.47522e-05
8.65007e-05
9.23485e-05
9.23389e-05
9.20743e-05
9.20667e-05
8.47473e-05
8.64501e-05
9.23639e-05
9.23401e-05
9.20893e-05
9.20662e-05
9.23586e-05
9.2092e-05
9.20873e-05
8.47499e-05
8.64948e-05
9.23644e-05
9.20967e-05
9.20924e-05
8.61888e-05
8.64507e-05
8.83585e-05
9.20445e-05
9.20346e-05
9.21161e-05
9.21096e-05
8.6422e-05
8.83757e-05
9.20586e-05
9.2037e-05
9.21301e-05
9.21102e-05
9.20562e-05
9.21326e-05
9.2131e-05
8.6452e-05
8.84228e-05
9.2061e-05
9.21397e-05
9.21353e-05
8.80939e-05
8.8401e-05
9.05008e-05
9.21976e-05
9.21889e-05
9.2594e-05
9.25875e-05
8.84028e-05
9.04887e-05
9.22104e-05
9.21921e-05
9.26066e-05
9.25877e-05
9.22114e-05
9.26081e-05
9.26092e-05
8.84162e-05
9.05579e-05
9.22159e-05
9.2615e-05
9.2613e-05
9.02171e-05
9.05952e-05
9.28554e-05
9.27792e-05
9.27703e-05
9.3473e-05
9.34645e-05
9.06007e-05
9.28613e-05
9.27906e-05
9.27735e-05
9.34841e-05
9.34647e-05
9.27937e-05
9.34839e-05
9.34876e-05
9.05999e-05
9.28227e-05
9.27981e-05
9.34919e-05
9.34923e-05
9.24877e-05
9.29508e-05
9.5226e-05
9.37514e-05
9.37442e-05
9.47163e-05
9.47091e-05
9.29357e-05
9.52113e-05
9.37618e-05
9.37455e-05
9.47263e-05
9.47095e-05
9.37672e-05
9.47248e-05
9.47324e-05
9.29335e-05
9.53117e-05
9.37701e-05
9.47363e-05
9.47338e-05
9.49171e-05
9.54598e-05
9.77677e-05
9.50807e-05
9.50745e-05
9.6288e-05
9.62802e-05
9.54728e-05
9.77458e-05
9.50898e-05
9.50765e-05
9.62962e-05
9.62815e-05
9.50965e-05
9.62942e-05
9.63031e-05
9.54026e-05
9.77382e-05
9.5098e-05
9.63055e-05
9.63039e-05
9.74273e-05
9.78761e-05
0.000100317
9.67282e-05
9.6723e-05
9.81492e-05
9.81428e-05
9.78619e-05
0.000100298
9.67364e-05
9.67248e-05
9.81566e-05
9.81427e-05
9.67431e-05
9.81536e-05
9.8163e-05
9.7826e-05
0.000100224
9.67447e-05
9.81652e-05
9.81652e-05
9.99223e-05
0.000100342
0.000102829
9.86556e-05
9.86514e-05
0.000100263
0.000100257
0.000100309
0.000102889
9.86629e-05
9.86525e-05
0.00010027
0.000100257
9.86702e-05
0.000100265
0.000100277
0.000100299
0.000102832
9.8672e-05
0.000100278
0.000100278
0.000102492
0.000102912
0.000105499
0.000100826
0.000100825
0.000102596
0.000102593
0.00010292
0.000105445
0.000100833
0.000100824
0.000102602
0.000102591
0.000100843
0.000102598
0.000102612
0.000102878
0.000105418
0.000100844
0.000102611
0.000102611
0.000105026
0.00010555
0.000108091
0.000103211
0.000103209
0.000105122
0.000105118
0.000105498
0.000108105
0.000103216
0.000103208
0.000105127
0.000105115
0.000103229
0.000105123
0.000105139
0.000105513
0.000108092
0.000103228
0.000105134
0.000105138
0.00010776
0.000108254
0.000110783
0.000105779
0.000105777
0.000107808
0.000107802
0.00010824
0.000110791
0.000105784
0.000105775
0.000107811
0.0001078
0.000105798
0.000107809
0.000107827
0.000108213
0.000110754
0.000105797
0.000107819
0.000107824
0.000110427
0.000110912
0.000113498
0.000108501
0.000108497
0.000110626
0.000110619
0.000110931
0.00011347
0.000108503
0.000108495
0.000110627
0.000110617
0.000108521
0.000110626
0.000110644
0.000110839
0.000113435
0.000108518
0.000110636
0.000110642
0.000113219
0.000113613
0.000116203
0.000111346
0.000111343
0.00011355
0.000113541
0.00011361
0.000116118
0.000111348
0.000111341
0.000113553
0.00011354
0.000111368
0.000113549
0.000113569
0.000113602
0.000116136
0.000111365
0.00011356
0.000113566
0.000115799
0.000116286
0.000118832
0.000114294
0.000114288
0.000116558
0.000116549
0.000116214
0.00011882
0.000114297
0.000114288
0.000116561
0.000116548
0.000114315
0.000116558
0.000116578
0.000116228
0.000118797
0.000114311
0.000116569
0.000116574
0.000118511
0.000118983
0.000121511
0.000117321
0.000117315
0.00011964
0.000119628
0.00011896
0.000121468
0.000117324
0.000117315
0.000119642
0.000119629
0.000117342
0.000119638
0.000119659
0.000118962
0.000121466
0.000117338
0.000119649
0.000119654
0.00012114
0.000121697
0.000124128
0.000120419
0.000120409
0.000122774
0.00012276
0.000121568
0.00012414
0.000120421
0.000120411
0.000122775
0.000122764
0.000120439
0.000122771
0.000122794
0.000121598
0.000124118
0.000120434
0.000122783
0.000122788
0.000123854
0.000124254
0.000126747
0.000123565
0.000123552
0.000125943
0.000125928
0.000124253
0.000126757
0.000123565
0.000123556
0.000125943
0.000125932
0.000123583
0.000125941
0.000125962
0.000124218
0.000126733
0.000123577
0.000125951
0.000125957
0.000126523
0.000126921
0.000129347
0.000126738
0.000126725
0.000129126
0.000129113
0.000126862
0.000129337
0.000126737
0.000126729
0.000129127
0.000129118
0.000126756
0.000129126
0.000129146
0.000126902
0.000129361
0.000126751
0.000129137
0.000129141
0.00012905
0.00012945
0.000131921
0.000129925
0.00012991
0.000132316
0.0001323
0.000129492
0.00013192
0.000129924
0.000129916
0.000132316
0.000132306
0.000129942
0.000132315
0.000132334
0.000129505
0.000131881
0.000129938
0.000132325
0.00013233
0.000131713
0.000132068
0.000134353
0.000133113
0.000133096
0.000135496
0.000135479
0.000132052
0.000134364
0.000133113
0.000133102
0.000135497
0.000135486
0.000133129
0.000135495
0.000135514
0.000132047
0.000134358
0.000133124
0.000135505
0.000135509
0.000134173
0.00013467
0.00013629
0.000136272
0.00013464
0.00013629
0.000136279
0.000136305
0.000134653
0.0001363
7.2023e-05
4.95811e-05
4.9585e-05
7.12235e-05
2.3616e-05
2.36129e-05
7.20188e-05
4.95756e-05
4.95794e-05
7.12199e-05
0.000145948
0.000145944
0.000145942
0.000142912
0.000142908
0.000142904
0.000142902
6.98943e-05
6.76476e-05
0.000122021
9.79712e-05
6.82209e-05
0.000121037
6.89409e-05
2.36153e-05
2.36121e-05
6.99177e-05
0.000122005
6.76208e-05
9.79718e-05
0.000121039
6.82593e-05
6.89448e-05
6.20401e-05
6.20571e-05
8.18788e-05
6.23738e-05
6.23497e-05
7.37704e-05
4.95994e-05
7.30634e-05
4.96023e-05
2.36045e-05
2.36018e-05
7.37699e-05
4.95939e-05
7.30626e-05
4.9597e-05
0.000141919
0.000141915
0.000141913
0.000138941
0.000138937
0.000138933
0.000138931
7.28878e-05
6.94454e-05
0.000118295
9.57671e-05
7.19296e-05
6.99902e-05
0.000117374
2.36039e-05
2.3601e-05
7.29062e-05
0.000118275
6.94214e-05
9.57672e-05
7.19167e-05
0.000117373
7.00235e-05
6.2922e-05
6.29205e-05
8.20874e-05
6.32119e-05
6.32013e-05
7.53176e-05
4.96152e-05
7.46653e-05
4.96174e-05
2.35942e-05
2.35917e-05
7.53052e-05
4.96097e-05
7.46715e-05
4.9612e-05
0.000137976
0.000137973
0.000137972
0.000135088
0.000135084
0.00013508
0.00013508
7.58845e-05
7.11426e-05
0.000114861
9.40824e-05
7.48924e-05
7.16529e-05
0.000114041
2.35934e-05
2.35909e-05
7.58911e-05
0.00011484
7.1116e-05
9.40836e-05
7.48922e-05
0.000114041
7.16901e-05
6.37251e-05
6.37296e-05
8.2772e-05
6.39988e-05
6.39833e-05
7.66786e-05
4.96286e-05
7.60873e-05
4.96308e-05
2.35848e-05
2.35826e-05
7.66651e-05
4.96231e-05
7.60937e-05
4.96254e-05
0.00013414
0.000134135
0.000134135
0.00013137
0.000131366
0.000131362
0.000131362
7.88076e-05
7.27385e-05
0.000111743
9.29121e-05
7.78212e-05
7.32215e-05
0.000111007
2.3584e-05
2.35818e-05
7.88058e-05
0.000111724
7.27167e-05
9.29148e-05
7.78291e-05
0.000111006
7.32598e-05
6.44662e-05
6.44662e-05
8.38757e-05
6.47138e-05
6.47051e-05
7.78977e-05
4.96403e-05
7.73575e-05
4.96425e-05
2.35763e-05
2.35745e-05
7.78834e-05
4.96346e-05
7.7364e-05
4.96374e-05
0.00013046
0.000130455
0.000130456
0.000127827
0.000127823
0.000127819
0.00012782
8.16225e-05
7.42405e-05
0.000109006
9.22449e-05
8.06833e-05
7.47002e-05
0.000108367
2.35755e-05
2.35737e-05
8.16277e-05
0.00010899
7.42207e-05
9.22486e-05
8.06952e-05
0.000108368
7.47376e-05
6.51515e-05
6.51503e-05
8.53447e-05
6.53839e-05
6.5375e-05
7.90008e-05
4.96508e-05
7.85053e-05
4.96533e-05
2.35687e-05
2.35672e-05
7.89859e-05
4.96449e-05
7.85128e-05
4.96483e-05
0.000126965
0.000126961
0.000126962
0.000124496
0.000124493
0.000124489
0.00012449
8.43375e-05
7.5658e-05
0.000106671
9.20562e-05
8.34331e-05
7.60923e-05
0.000106138
2.35679e-05
2.35664e-05
8.43248e-05
0.000106659
7.56408e-05
9.20622e-05
8.3454e-05
0.000106141
7.61278e-05
6.57903e-05
6.5788e-05
8.71234e-05
6.6003e-05
6.59982e-05
8.00044e-05
4.96607e-05
7.95555e-05
4.96634e-05
2.3562e-05
2.35609e-05
7.9995e-05
4.96547e-05
7.95637e-05
4.96587e-05
0.000123692
0.000123689
0.00012369
0.000121422
0.000121419
0.000121416
0.000121418
8.69147e-05
7.69943e-05
0.000104765
9.23182e-05
8.60851e-05
7.74108e-05
0.00010434
2.35612e-05
2.35601e-05
8.69241e-05
0.000104757
7.69797e-05
9.23259e-05
8.60965e-05
0.000104349
7.74459e-05
6.63869e-05
6.6385e-05
8.91563e-05
6.65851e-05
6.65816e-05
8.09449e-05
4.96706e-05
8.05294e-05
4.96734e-05
2.35563e-05
2.35555e-05
8.09305e-05
4.96642e-05
8.05313e-05
4.96691e-05
0.000120685
0.000120682
0.000120683
0.000118605
0.000118602
0.000118599
0.000118601
8.94066e-05
7.82608e-05
0.000103301
9.29981e-05
8.86102e-05
7.86577e-05
0.000102991
2.35555e-05
2.35547e-05
8.94278e-05
0.000103297
7.82475e-05
9.30061e-05
8.86083e-05
0.000103002
7.86919e-05
6.69467e-05
6.69444e-05
9.13522e-05
6.71329e-05
6.71304e-05
8.1816e-05
4.96807e-05
8.14293e-05
4.96835e-05
2.35516e-05
2.35512e-05
8.18089e-05
4.96738e-05
8.1433e-05
4.96797e-05
0.000117947
0.000117944
0.000117948
0.000116108
0.000116105
0.000116103
0.000116106
9.18291e-05
7.94637e-05
0.000102289
9.40608e-05
9.0988e-05
7.98407e-05
0.000102089
2.35508e-05
2.35503e-05
9.18269e-05
0.000102288
7.94511e-05
9.40709e-05
9.10001e-05
0.000102101
7.98739e-05
6.74746e-05
6.74724e-05
9.36478e-05
6.76512e-05
6.76486e-05
8.26351e-05
4.96915e-05
8.2272e-05
4.96941e-05
2.35479e-05
2.35478e-05
8.26275e-05
4.96834e-05
8.22757e-05
4.96912e-05
0.000115531
0.000115529
0.000115533
0.000113942
0.000113939
0.000113937
0.000113942
9.41178e-05
8.06065e-05
0.000101718
9.54714e-05
9.32841e-05
8.09683e-05
0.000101627
2.35471e-05
2.3547e-05
9.41351e-05
0.000101719
8.05954e-05
9.54834e-05
9.32939e-05
0.000101642
8.10004e-05
6.79747e-05
6.79728e-05
9.61711e-05
6.81428e-05
6.81407e-05
8.34068e-05
4.97033e-05
8.30653e-05
4.97054e-05
2.35452e-05
2.35455e-05
8.3399e-05
4.96943e-05
8.30653e-05
4.97031e-05
0.000113451
0.000113449
0.000113454
0.000112124
0.000112121
0.00011212
0.000112124
9.63199e-05
8.16903e-05
0.000101576
9.71903e-05
9.54849e-05
8.20551e-05
0.000101592
2.35444e-05
2.35447e-05
9.63375e-05
0.000101581
8.16863e-05
9.72021e-05
9.549e-05
0.000101607
8.20752e-05
6.84507e-05
6.8449e-05
9.86083e-05
6.86116e-05
6.86094e-05
8.41385e-05
4.97157e-05
8.38138e-05
4.97182e-05
2.35436e-05
2.35442e-05
8.41307e-05
4.97066e-05
8.38153e-05
4.97158e-05
0.000111722
0.000111721
0.000111726
0.000110665
0.000110662
0.000110661
0.000110666
9.84393e-05
8.2742e-05
0.00010185
9.91796e-05
9.76018e-05
8.3083e-05
0.000101966
2.35427e-05
2.35434e-05
9.84546e-05
0.000101853
8.27251e-05
9.9193e-05
9.7605e-05
0.00010198
8.31096e-05
6.89054e-05
6.89037e-05
0.00010124
6.90598e-05
6.90576e-05
8.48376e-05
4.97293e-05
8.4527e-05
4.97322e-05
2.35429e-05
2.3544e-05
8.48282e-05
4.97202e-05
8.45279e-05
4.97298e-05
0.000110354
0.000110354
0.00011036
0.000109571
0.000109569
0.000109569
0.000109575
0.000100481
8.37451e-05
0.000102511
0.000101406
9.96401e-05
8.40793e-05
0.000102721
2.35421e-05
2.35431e-05
0.000100493
0.000102517
8.37395e-05
0.000101419
9.96473e-05
0.000102737
8.40943e-05
6.93413e-05
6.93392e-05
0.000103713
6.94896e-05
6.94876e-05
8.55083e-05
4.97441e-05
8.52085e-05
4.97476e-05
2.35433e-05
2.35447e-05
8.55001e-05
4.9735e-05
8.5209e-05
4.97453e-05
0.000109353
0.000109354
0.00010936
0.000108845
0.000108843
0.000108844
0.00010885
0.000102452
8.4706e-05
0.000103538
0.000103839
0.000101614
8.50311e-05
0.000103836
2.35425e-05
2.35439e-05
0.000102464
0.000103545
8.46822e-05
0.000103851
0.00010162
0.000103852
8.50624e-05
6.976e-05
6.97559e-05
0.000106423
6.99028e-05
6.9902e-05
8.61553e-05
4.97603e-05
8.58658e-05
4.97644e-05
2.35447e-05
2.35464e-05
8.61483e-05
4.97513e-05
8.58645e-05
4.97621e-05
0.000108718
0.00010872
0.000108727
0.000108485
0.000108482
0.000108484
0.000108492
0.000104359
8.56245e-05
0.000104903
0.000106449
0.000103523
8.59509e-05
0.000105283
2.35439e-05
2.35456e-05
0.000104371
0.00010491
8.56052e-05
0.000106459
0.000103532
0.000105298
8.59803e-05
7.01622e-05
7.01571e-05
0.000109094
7.03016e-05
7.03004e-05
8.67827e-05
4.97781e-05
8.65008e-05
4.97827e-05
2.3547e-05
2.3549e-05
8.6776e-05
4.9769e-05
8.64997e-05
4.97804e-05
0.000108449
0.00010845
0.000108459
0.000108484
0.000108481
0.000108483
0.000108493
0.00010621
8.65107e-05
0.000106579
0.000109204
0.000105378
8.68342e-05
0.000107034
2.35462e-05
2.35482e-05
0.000106218
0.000106587
8.64994e-05
0.000109213
0.000105387
0.000107049
8.68583e-05
7.05493e-05
7.05439e-05
0.000111775
7.0686e-05
7.06841e-05
8.73947e-05
4.97971e-05
8.71167e-05
4.98025e-05
2.35502e-05
2.35526e-05
8.73849e-05
4.97883e-05
8.71192e-05
4.98002e-05
0.000108536
0.000108538
0.000108548
0.000108832
0.00010883
0.000108832
0.000108843
0.000108007
8.73642e-05
0.00010854
0.000112076
0.000107182
8.7684e-05
0.000109061
2.35494e-05
2.35517e-05
0.000108016
0.000108548
8.73486e-05
0.000112087
0.000107188
0.000109076
8.77135e-05
7.09228e-05
7.09172e-05
0.000114501
7.10566e-05
7.10541e-05
8.79911e-05
4.98177e-05
8.77174e-05
4.98237e-05
2.35542e-05
2.35569e-05
8.79814e-05
4.98089e-05
8.77232e-05
4.98214e-05
0.00010897
0.000108973
0.000108984
0.000109518
0.000109516
0.000109519
0.00010953
0.000109754
8.81877e-05
0.000110755
0.000115045
0.00010894
8.85039e-05
0.000111338
2.35534e-05
2.35561e-05
0.000109759
0.000110763
8.81774e-05
0.000115056
0.000108947
0.000111351
8.85351e-05
7.12836e-05
7.12779e-05
0.000117256
7.14141e-05
7.14111e-05
8.85728e-05
4.98395e-05
8.83075e-05
4.98458e-05
2.35592e-05
2.35623e-05
8.85651e-05
4.98343e-05
8.83126e-05
4.98408e-05
0.000109738
0.000109741
0.000109753
0.000110528
0.000110525
0.000110529
0.000110541
0.000111449
8.89842e-05
0.0001132
0.000118091
0.000110656
8.92957e-05
0.000113835
2.35583e-05
2.35612e-05
0.000111454
0.000113206
8.89697e-05
0.000118101
0.000110663
0.000113847
8.93241e-05
7.16322e-05
7.16266e-05
0.000119897
7.17592e-05
7.17559e-05
8.91479e-05
4.98626e-05
8.88835e-05
4.98697e-05
2.3565e-05
2.35682e-05
8.91392e-05
4.98576e-05
8.88884e-05
4.98647e-05
0.000110826
0.00011083
0.000110843
0.000111846
0.000111843
0.000111848
0.00011186
0.000113099
8.97532e-05
0.000115845
0.0001212
0.000112329
9.0061e-05
0.000116527
2.35639e-05
2.35671e-05
0.000113104
0.000115851
8.97366e-05
0.000121211
0.000112334
0.000116539
9.00874e-05
7.19691e-05
7.1964e-05
0.000122538
7.20925e-05
7.20889e-05
8.97083e-05
4.98871e-05
8.94482e-05
4.98948e-05
2.35713e-05
2.35748e-05
8.96992e-05
4.98821e-05
8.94556e-05
4.98898e-05
0.000112219
0.000112223
0.000112236
0.000113455
0.000113451
0.000113457
0.00011347
0.000114703
9.04977e-05
0.000118668
0.000124353
0.000113957
9.08007e-05
0.000119393
2.35703e-05
2.35737e-05
0.000114712
0.000118674
9.04799e-05
0.000124364
0.000113957
0.000119405
9.08247e-05
7.2295e-05
7.22903e-05
0.00012512
7.24144e-05
7.24108e-05
9.02586e-05
4.99128e-05
8.99989e-05
4.99209e-05
2.35782e-05
2.35819e-05
9.02476e-05
4.99079e-05
9.00085e-05
4.9916e-05
0.000113897
0.000113902
0.000113916
0.000115335
0.000115331
0.000115337
0.000115351
0.000116263
9.12171e-05
0.000121658
0.000127533
0.000115537
9.15148e-05
0.000122423
2.35772e-05
2.35809e-05
0.000116269
0.000121665
9.12002e-05
0.000127543
0.00011554
0.000122436
9.15375e-05
7.26104e-05
7.26042e-05
0.00012782
7.27251e-05
7.27225e-05
9.07963e-05
4.99394e-05
9.05444e-05
4.99482e-05
2.35858e-05
2.35897e-05
9.07835e-05
4.99346e-05
9.05529e-05
4.9943e-05
0.000115841
0.000115847
0.000115861
0.000117467
0.000117462
0.000117469
0.000117483
0.000117777
9.19177e-05
0.000124802
0.000130721
0.000117073
9.22016e-05
0.000125602
2.35848e-05
2.35887e-05
0.000117783
0.000124809
9.18956e-05
0.000130732
0.000117073
0.000125615
9.22252e-05
7.2914e-05
7.29101e-05
0.00013044
7.3026e-05
7.30238e-05
9.13193e-05
4.9964e-05
9.1075e-05
4.99788e-05
2.35939e-05
2.3598e-05
9.1308e-05
4.99622e-05
9.10796e-05
4.99709e-05
0.000118031
0.000118039
0.000118053
0.000119828
0.000119822
0.000119831
0.000119845
0.000119238
9.25855e-05
0.000128076
0.000133907
0.00011856
9.28688e-05
0.000128903
2.3593e-05
2.35971e-05
0.000119245
0.000128081
9.25727e-05
0.000133917
0.000118558
0.000128915
9.2886e-05
7.32086e-05
7.32045e-05
0.000132923
7.33165e-05
7.3314e-05
9.18264e-05
4.99924e-05
9.15841e-05
5.00064e-05
2.36026e-05
2.36069e-05
9.18162e-05
4.99904e-05
9.15933e-05
5.0001e-05
0.000120446
0.000120454
0.000120469
0.000120651
9.32326e-05
0.000131449
0.000137079
0.000119995
9.35086e-05
0.000132297
2.36016e-05
2.36059e-05
0.000120657
0.000131454
9.32189e-05
0.000137089
0.000119992
0.000132309
9.35242e-05
7.34939e-05
7.3487e-05
0.000135428
7.35968e-05
7.35941e-05
2.36183e-05
2.36152e-05
2.36161e-05
2.3613e-05
6.2052e-05
6.2049e-05
8.2193e-05
6.23789e-05
6.23644e-05
2.36095e-05
2.36125e-05
2.36073e-05
2.36103e-05
8.17974e-05
6.28011e-05
6.27947e-05
6.24979e-05
6.25013e-05
7.20317e-05
4.95747e-05
4.95787e-05
7.12083e-05
6.99235e-05
6.76213e-05
0.000122009
9.79485e-05
6.8262e-05
0.000121039
6.89431e-05
6.99364e-05
6.7614e-05
0.000122006
9.79345e-05
6.82522e-05
0.000121035
6.89376e-05
7.21728e-05
4.9594e-05
4.95903e-05
7.29251e-05
7.21599e-05
4.95878e-05
4.95841e-05
7.29367e-05
7.04209e-05
9.73506e-05
6.91607e-05
0.00011917
6.8535e-05
0.000120109
7.14173e-05
7.04079e-05
9.73378e-05
6.91469e-05
0.000119167
6.85278e-05
0.000120105
7.14217e-05
6.20409e-05
6.2058e-05
8.21119e-05
6.23579e-05
6.23655e-05
2.36176e-05
2.36145e-05
2.36072e-05
2.36101e-05
8.1747e-05
6.27887e-05
6.27938e-05
6.24935e-05
6.25114e-05
2.36088e-05
2.36118e-05
6.99052e-05
6.76205e-05
0.000122008
9.7967e-05
6.82571e-05
0.000121037
6.89453e-05
7.20173e-05
4.95717e-05
4.95755e-05
7.12182e-05
6.98994e-05
0.000121994
6.76294e-05
9.79362e-05
0.000121024
6.823e-05
6.89559e-05
7.2172e-05
4.95886e-05
4.95849e-05
7.29222e-05
7.04346e-05
9.73679e-05
6.91562e-05
0.000119169
6.85327e-05
0.000120108
7.13857e-05
7.21711e-05
4.95846e-05
4.95811e-05
7.29232e-05
7.04366e-05
9.73381e-05
0.000119156
6.91235e-05
0.000120094
6.85422e-05
7.13869e-05
7.1995e-05
4.95768e-05
4.95801e-05
7.1229e-05
6.9907e-05
0.000122015
6.76133e-05
9.79483e-05
0.000121043
6.82538e-05
6.89409e-05
7.20225e-05
4.95725e-05
4.95762e-05
7.12125e-05
7.04286e-05
9.73745e-05
6.91245e-05
0.000119171
6.85576e-05
0.000120123
7.13726e-05
7.21797e-05
4.95893e-05
4.95864e-05
7.29001e-05
7.04249e-05
9.73532e-05
0.000119175
6.9151e-05
0.000120115
6.85262e-05
7.13916e-05
7.21641e-05
4.95854e-05
4.95821e-05
7.2928e-05
6.20574e-05
6.20629e-05
8.21755e-05
6.23565e-05
6.23618e-05
2.36176e-05
2.36143e-05
2.36064e-05
2.36094e-05
8.17745e-05
6.27893e-05
6.27941e-05
6.25042e-05
6.2511e-05
2.36087e-05
2.36117e-05
6.98968e-05
0.000122006
6.76352e-05
9.79602e-05
0.00012104
6.8217e-05
6.89491e-05
7.19987e-05
4.9577e-05
4.95808e-05
7.12321e-05
7.19959e-05
4.95708e-05
4.95747e-05
7.12301e-05
7.04179e-05
9.73747e-05
0.000119171
6.9157e-05
0.000120105
6.85338e-05
7.13996e-05
7.04303e-05
9.73645e-05
0.000119172
6.91151e-05
0.000120107
6.85521e-05
7.13977e-05
7.21827e-05
4.95899e-05
4.95864e-05
7.29027e-05
7.21807e-05
4.95839e-05
4.95803e-05
7.29006e-05
2.3616e-05
2.36129e-05
2.36149e-05
2.36117e-05
8.20267e-05
6.27909e-05
6.27881e-05
6.24917e-05
6.25024e-05
2.36072e-05
2.36102e-05
2.3606e-05
2.3609e-05
2.36069e-05
2.36041e-05
2.36047e-05
2.36019e-05
6.29313e-05
6.29273e-05
8.23923e-05
6.3227e-05
6.32114e-05
2.35989e-05
2.36016e-05
2.35967e-05
2.35994e-05
8.20908e-05
6.36137e-05
6.36077e-05
6.33379e-05
6.33387e-05
7.37817e-05
4.95927e-05
7.30487e-05
4.9596e-05
7.29119e-05
6.9423e-05
0.000118278
9.57449e-05
7.19112e-05
7.00289e-05
0.000117372
7.29212e-05
6.94162e-05
0.000118273
9.57331e-05
7.19028e-05
7.00202e-05
0.000117369
7.38944e-05
4.96102e-05
4.96075e-05
7.45801e-05
7.38817e-05
4.96039e-05
4.96011e-05
7.45736e-05
7.34128e-05
9.52764e-05
7.08752e-05
0.00011565
7.02844e-05
0.00011652
7.44078e-05
7.34029e-05
9.52648e-05
7.08682e-05
0.000115647
7.0276e-05
0.000116516
7.43989e-05
6.29207e-05
6.29307e-05
8.24527e-05
6.32147e-05
6.32127e-05
2.36062e-05
2.36034e-05
2.35966e-05
2.35992e-05
8.20063e-05
6.36037e-05
6.3607e-05
6.33276e-05
6.33426e-05
2.35982e-05
2.36008e-05
7.28816e-05
6.94158e-05
0.000118276
9.57629e-05
7.19352e-05
7.00328e-05
0.000117372
7.37693e-05
4.95898e-05
7.30581e-05
4.95929e-05
7.28892e-05
0.000118263
6.94321e-05
9.57322e-05
7.19315e-05
0.000117358
6.99942e-05
7.38916e-05
4.9605e-05
4.96019e-05
7.45617e-05
7.34293e-05
9.52934e-05
7.08736e-05
0.00011565
7.02725e-05
0.000116518
7.43829e-05
7.38891e-05
4.96008e-05
4.95982e-05
7.45606e-05
7.34215e-05
9.52642e-05
0.000115637
7.08392e-05
0.000116504
7.0293e-05
7.43924e-05
7.37465e-05
4.95947e-05
7.30673e-05
4.95976e-05
7.28868e-05
0.000118284
6.94128e-05
9.57472e-05
7.1924e-05
0.000117379
7.00242e-05
7.37737e-05
4.95905e-05
7.30527e-05
4.95938e-05
7.34152e-05
9.52993e-05
7.08354e-05
0.000115653
7.03046e-05
0.000116537
7.44027e-05
7.38969e-05
4.96057e-05
4.96033e-05
7.45571e-05
7.34208e-05
9.52817e-05
0.000115657
7.08676e-05
0.000116527
7.02746e-05
7.43786e-05
7.38849e-05
4.96017e-05
4.95991e-05
7.45661e-05
6.29288e-05
6.29271e-05
8.23974e-05
6.32052e-05
6.32147e-05
2.36061e-05
2.36033e-05
2.35958e-05
2.35985e-05
8.20271e-05
6.35999e-05
6.36093e-05
6.33389e-05
6.33468e-05
2.35981e-05
2.36007e-05
7.29025e-05
0.000118276
6.94383e-05
9.57572e-05
7.19178e-05
0.000117375
6.99959e-05
7.3749e-05
4.95949e-05
7.30696e-05
4.95982e-05
7.37467e-05
4.9589e-05
7.30672e-05
4.95924e-05
7.34073e-05
9.52985e-05
0.000115652
7.0872e-05
0.000116517
7.02813e-05
7.44048e-05
7.34088e-05
9.5291e-05
0.000115653
7.08397e-05
0.000116518
7.0292e-05
7.43919e-05
7.38995e-05
4.9606e-05
4.96033e-05
7.45405e-05
7.38972e-05
4.96002e-05
4.95973e-05
7.45381e-05
2.36046e-05
2.36018e-05
2.36035e-05
2.36006e-05
8.23392e-05
6.36038e-05
6.36026e-05
6.3337e-05
6.33364e-05
2.35966e-05
2.35993e-05
2.35954e-05
2.35981e-05
2.35965e-05
2.3594e-05
2.35943e-05
2.35918e-05
6.37354e-05
6.37315e-05
8.30903e-05
6.39972e-05
6.39971e-05
2.35893e-05
2.35916e-05
2.35872e-05
2.35894e-05
8.28408e-05
6.43677e-05
6.43671e-05
6.41147e-05
6.41098e-05
7.53167e-05
4.96086e-05
7.46606e-05
4.96112e-05
7.58865e-05
7.11192e-05
0.000114842
9.40613e-05
7.48997e-05
7.16953e-05
0.000114039
7.58742e-05
7.11103e-05
0.000114838
9.40508e-05
7.48996e-05
7.16878e-05
0.000114036
7.53963e-05
4.96245e-05
4.96222e-05
7.60211e-05
7.53936e-05
4.96197e-05
4.9616e-05
7.6017e-05
7.63839e-05
9.37217e-05
7.24892e-05
0.000112466
7.19319e-05
0.000113235
7.73532e-05
7.63875e-05
9.37116e-05
7.24801e-05
0.000112464
7.19247e-05
0.000113232
7.73482e-05
6.37246e-05
6.37322e-05
8.31447e-05
6.39909e-05
6.39915e-05
2.35957e-05
2.35933e-05
2.35871e-05
2.35893e-05
8.27732e-05
6.43593e-05
6.43575e-05
6.41047e-05
6.41075e-05
2.35886e-05
2.35909e-05
7.58776e-05
7.11094e-05
0.000114841
9.40789e-05
7.49142e-05
7.16983e-05
0.000114039
7.53041e-05
4.96057e-05
7.4668e-05
4.96081e-05
7.58709e-05
0.000114828
7.11272e-05
9.40496e-05
7.49012e-05
0.000114026
7.16631e-05
7.54022e-05
4.96191e-05
4.96167e-05
7.60052e-05
7.63843e-05
9.37378e-05
7.24896e-05
0.000112466
7.19185e-05
0.000113234
7.73436e-05
7.54004e-05
4.96153e-05
4.96129e-05
7.60032e-05
7.6387e-05
9.37113e-05
0.000112453
7.24543e-05
0.000113221
7.19368e-05
7.73423e-05
7.52956e-05
4.96106e-05
7.46661e-05
4.96129e-05
7.58594e-05
0.00011485
7.11096e-05
9.40678e-05
7.49157e-05
0.000114046
7.16879e-05
7.53094e-05
4.96065e-05
7.46637e-05
4.9609e-05
7.63637e-05
9.37437e-05
7.24506e-05
0.000112471
7.1951e-05
0.000113254
7.73697e-05
7.53954e-05
4.962e-05
4.96177e-05
7.59972e-05
7.63942e-05
9.37308e-05
0.000112474
7.24816e-05
0.000113243
7.19227e-05
7.73274e-05
7.53961e-05
4.96162e-05
4.96139e-05
7.601e-05
6.37273e-05
6.37365e-05
8.31144e-05
6.39839e-05
6.39941e-05
2.35956e-05
2.35931e-05
2.35863e-05
2.35886e-05
8.27535e-05
6.43531e-05
6.43627e-05
6.41073e-05
6.41107e-05
2.35885e-05
2.35908e-05
7.58788e-05
0.000114841
7.1126e-05
9.40758e-05
7.48995e-05
0.000114043
7.16598e-05
7.52847e-05
4.96107e-05
7.46774e-05
4.96132e-05
7.52821e-05
4.96049e-05
7.46752e-05
4.96075e-05
7.63716e-05
9.37437e-05
0.00011247
7.2488e-05
0.000113232
7.19297e-05
7.73641e-05
7.63771e-05
9.37383e-05
0.000112471
7.24585e-05
0.000113233
7.19381e-05
7.73519e-05
7.54082e-05
4.96203e-05
4.96179e-05
7.59848e-05
7.5406e-05
4.96146e-05
4.96121e-05
7.59825e-05
2.35942e-05
2.35917e-05
2.3593e-05
2.35905e-05
8.31848e-05
6.43589e-05
6.43501e-05
6.41035e-05
6.41028e-05
2.3587e-05
2.35894e-05
2.35859e-05
2.35882e-05
2.3587e-05
2.35849e-05
2.35848e-05
2.35827e-05
6.44751e-05
6.44694e-05
8.42276e-05
6.47248e-05
6.47181e-05
2.35807e-05
2.35827e-05
2.35785e-05
2.35805e-05
8.39894e-05
6.50611e-05
6.50555e-05
6.4825e-05
6.48196e-05
7.66772e-05
4.96223e-05
7.60831e-05
4.96247e-05
7.88058e-05
7.27181e-05
0.000111726
9.2893e-05
7.78442e-05
7.32643e-05
0.000111002
7.88095e-05
7.27124e-05
0.000111722
9.28829e-05
7.78447e-05
7.32552e-05
0.000111001
7.67384e-05
4.9637e-05
4.96348e-05
7.7308e-05
7.67352e-05
4.9631e-05
4.96287e-05
7.73032e-05
7.9284e-05
9.26804e-05
7.40109e-05
0.000109633
7.34829e-05
0.000110309
8.02311e-05
7.92776e-05
9.26708e-05
7.40037e-05
0.000109631
7.34768e-05
0.000110306
8.02292e-05
6.44645e-05
6.447e-05
8.40975e-05
6.47094e-05
6.47112e-05
2.35862e-05
2.35842e-05
2.35784e-05
2.35804e-05
8.39985e-05
6.50542e-05
6.50511e-05
6.4815e-05
6.48175e-05
2.35799e-05
2.35818e-05
7.87953e-05
7.27077e-05
0.000111725
9.29095e-05
7.78438e-05
7.32644e-05
0.000111003
7.66637e-05
4.96186e-05
7.60904e-05
4.96216e-05
7.87936e-05
0.000111712
7.2726e-05
9.28818e-05
7.78446e-05
0.00011099
7.32295e-05
7.67441e-05
4.96318e-05
4.96293e-05
7.72914e-05
7.92842e-05
9.2696e-05
7.40131e-05
0.000109633
7.34724e-05
0.000110308
8.02238e-05
7.67419e-05
4.96277e-05
4.96256e-05
7.72888e-05
7.92851e-05
9.26714e-05
0.000109621
7.39801e-05
0.000110296
7.34905e-05
8.02169e-05
7.66576e-05
4.96238e-05
7.6084e-05
4.96265e-05
7.87837e-05
0.000111734
7.27113e-05
9.29007e-05
7.78551e-05
0.000111012
7.32542e-05
7.66705e-05
4.962e-05
7.60852e-05
4.96228e-05
7.9265e-05
9.27005e-05
7.39736e-05
0.000109638
7.34999e-05
0.000110325
8.02303e-05
7.67344e-05
4.96324e-05
4.96302e-05
7.72845e-05
7.92925e-05
9.26916e-05
0.000109642
7.40041e-05
0.000110317
7.34772e-05
8.02135e-05
7.67363e-05
4.9629e-05
4.96263e-05
7.72968e-05
6.44705e-05
6.44774e-05
8.41743e-05
6.47058e-05
6.47154e-05
2.35861e-05
2.3584e-05
2.35776e-05
2.35796e-05
8.40166e-05
6.50468e-05
6.50555e-05
6.48181e-05
6.48243e-05
2.35798e-05
2.35818e-05
7.87908e-05
0.000111725
7.27229e-05
9.29072e-05
7.78343e-05
0.000111009
7.32277e-05
7.66461e-05
4.96239e-05
7.60971e-05
4.9627e-05
7.66437e-05
4.96184e-05
7.60946e-05
4.96211e-05
7.92747e-05
9.27014e-05
0.000109638
7.40108e-05
0.000110307
7.34807e-05
8.02288e-05
7.92815e-05
9.26978e-05
0.00010964
7.39777e-05
0.000110309
7.34903e-05
8.02211e-05
7.67469e-05
4.96327e-05
4.96305e-05
7.72728e-05
7.67445e-05
4.96274e-05
4.96247e-05
7.72705e-05
2.35848e-05
2.35826e-05
2.35836e-05
2.35814e-05
8.43675e-05
6.5054e-05
6.50452e-05
6.48167e-05
6.48163e-05
2.35784e-05
2.35804e-05
2.35772e-05
2.35792e-05
2.35785e-05
2.35767e-05
2.35763e-05
2.35745e-05
6.51617e-05
6.51577e-05
8.5603e-05
6.53902e-05
6.53867e-05
2.3573e-05
2.35746e-05
2.35708e-05
2.35724e-05
8.5556e-05
6.57063e-05
6.57015e-05
6.54864e-05
6.54807e-05
7.78954e-05
4.96339e-05