/*--------------------------------*- C++ -*----------------------------------*\
| =========                 |                                                 |
| \\      /  F ield         | OpenFOAM: The Open Source CFD Toolbox           |
|  \\    /   O peration     | Version:  2312                                  |
|   \\  /    A nd           | Website:  www.openfoam.com                      |
|    \\/     M anipulation  |                                                 |
\*---------------------------------------------------------------------------*/
FoamFile
{
    version     2.0;
    format      ascii;
    arch        "LSB;label=32;scalar=64";
    class       surfaceScalarField;
    location    "950";
    object      phi;
}
// * * * * * * * * * * * * * * * * * * * * * * * * * * * * * * * * * * * * * //

dimensions      [0 3 -1 0 0 0 0];

oriented        oriented;

internalField   nonuniform List<scalar> 
123680
(
-8.18582e-07
-8.19312e-07
4.33289e-07
4.34131e-07
0.00115006
-0.00114929
-1.50291e-06
8.19228e-07
3.99587e-07
0.00113925
-4.98965e-07
1.12935e-06
1.47035e-07
7.47231e-07
-5.44785e-07
8.46332e-08
-1.22939e-06
-0.0011388
-1.50005e-06
8.1914e-07
4.05068e-07
0.00113912
-4.96125e-07
1.12666e-06
1.4413e-07
7.47303e-07
-5.44839e-07
8.47957e-08
-1.22946e-06
-0.00113868
1.53177e-06
1.49475e-06
-4.76289e-07
-4.79307e-07
0.000274438
-0.000276509
-7.98923e-07
-7.99622e-07
-0.00115233
4.25649e-07
4.2646e-07
0.00115308
-0.0011405
-1.49432e-06
7.99348e-07
3.90234e-07
0.0011409
-4.87352e-07
1.13497e-06
1.53533e-07
7.54537e-07
-5.30046e-07
-1.21362e-06
9.27918e-08
-0.00114038
-1.49145e-06
7.9938e-07
3.95823e-07
0.00114077
-4.84566e-07
1.13236e-06
1.50699e-07
7.54595e-07
-5.30103e-07
-1.21374e-06
9.29535e-08
-0.000276524
1.52325e-06
1.48619e-06
-4.63578e-07
-4.66592e-07
0.000274445
-7.79077e-07
-7.79796e-07
-0.00115528
4.18217e-07
4.18868e-07
0.001156
-0.001142
-1.4848e-06
7.79571e-07
3.80422e-07
0.00114236
-4.75839e-07
1.14041e-06
1.59942e-07
7.61812e-07
-5.15438e-07
-1.19761e-06
1.00946e-07
-0.00114188
-1.48202e-06
7.79572e-07
3.86039e-07
0.00114222
-4.72984e-07
1.13771e-06
1.57126e-07
7.61851e-07
-5.15437e-07
-1.19766e-06
1.01064e-07
-0.000276478
1.51379e-06
1.47666e-06
-4.50513e-07
-4.53518e-07
0.000274392
-7.58193e-07
-7.58965e-07
-0.00115813
4.10077e-07
4.10607e-07
0.00115883
-0.00114331
-1.47459e-06
7.58653e-07
3.71194e-07
0.00114361
-4.6422e-07
1.14571e-06
1.66145e-07
7.6909e-07
-5.01103e-07
-1.18141e-06
1.09022e-07
-0.00114318
-1.47182e-06
7.58798e-07
3.76904e-07
0.00114348
-4.61344e-07
1.14294e-06
1.63365e-07
7.69108e-07
-5.01148e-07
-1.1815e-06
1.09092e-07
-0.000276378
1.50356e-06
1.46644e-06
-4.37417e-07
-4.40369e-07
0.000274286
-7.36745e-07
-7.37588e-07
-0.00116088
4.01752e-07
4.0219e-07
0.00116155
-0.00114442
-1.46368e-06
7.37438e-07
3.61643e-07
0.00114467
-4.52803e-07
1.15089e-06
1.72048e-07
7.76287e-07
-4.86882e-07
-1.16514e-06
1.17011e-07
-0.00114429
-1.46085e-06
7.37447e-07
3.67335e-07
0.00114454
-4.49911e-07
1.14817e-06
1.69352e-07
7.7634e-07
-4.8698e-07
-1.16524e-06
1.17113e-07
-0.000276232
1.49266e-06
1.45551e-06
-4.24263e-07
-4.27244e-07
0.000274135
-7.14613e-07
-7.15376e-07
-0.00116352
3.93019e-07
3.93425e-07
0.00116416
-0.00114534
-1.45218e-06
7.15355e-07
3.52025e-07
0.00114555
-4.41616e-07
1.15612e-06
1.77888e-07
7.83393e-07
-4.73011e-07
-1.14905e-06
1.24868e-07
-0.00114521
-1.4493e-06
7.15372e-07
3.57468e-07
0.00114541
-4.3869e-07
1.15346e-06
1.75167e-07
7.83459e-07
-4.73068e-07
-1.14912e-06
1.24986e-07
-0.000276047
1.48116e-06
1.44405e-06
-4.11255e-07
-4.14194e-07
0.000273947
-6.91902e-07
-6.92705e-07
-0.00116605
3.84203e-07
3.84547e-07
0.00116667
-0.00114608
-1.44015e-06
6.92648e-07
3.41416e-07
0.00114624
-4.30663e-07
1.16151e-06
1.83759e-07
7.90416e-07
-4.59432e-07
-1.1332e-06
1.32599e-07
-0.00114594
-1.43729e-06
6.92657e-07
3.46815e-07
0.0011461
-4.27767e-07
1.15882e-06
1.80994e-07
7.90493e-07
-4.59493e-07
-1.13326e-06
1.32724e-07
-0.00027583
1.4691e-06
1.43197e-06
-3.98324e-07
-4.01282e-07
0.000273729
-6.68539e-07
-6.69411e-07
-0.00116848
3.75181e-07
3.75454e-07
0.00116906
-0.00114663
-1.42788e-06
6.69224e-07
3.3005e-07
0.00114675
-4.19853e-07
1.16681e-06
1.89482e-07
7.97321e-07
-4.46196e-07
-1.11766e-06
1.40229e-07
-0.0011465
-1.42508e-06
6.69293e-07
3.35528e-07
0.00114661
-4.16997e-07
1.16416e-06
1.86706e-07
7.97411e-07
-4.46231e-07
-1.11773e-06
1.4037e-07
-0.000275591
1.45686e-06
1.41973e-06
-3.85775e-07
-3.88731e-07
0.000273489
-6.44623e-07
-6.45547e-07
-0.00117078
3.65948e-07
3.66128e-07
0.00117134
-0.00114702
-1.41556e-06
6.45173e-07
3.18002e-07
0.0011471
-4.09335e-07
1.17208e-06
1.95089e-07
8.04012e-07
-4.33328e-07
-1.10241e-06
1.47743e-07
-0.00114689
-1.41274e-06
6.45294e-07
3.23668e-07
0.00114696
-4.06493e-07
1.16941e-06
1.92316e-07
8.04062e-07
-4.33366e-07
-1.10257e-06
1.47874e-07
-0.000275336
1.44456e-06
1.40741e-06
-3.73637e-07
-3.76615e-07
0.000273234
-6.20141e-07
-6.21068e-07
-0.00117297
3.50789e-07
3.56648e-07
0.0011735
-0.00114726
-1.40327e-06
6.20633e-07
3.05284e-07
0.0011473
-3.99024e-07
1.17737e-06
2.00645e-07
8.10479e-07
-4.20849e-07
-1.08797e-06
1.55029e-07
-0.00114712
-1.40047e-06
6.20656e-07
3.10891e-07
0.00114716
-3.96242e-07
1.17465e-06
1.97805e-07
8.10514e-07
-4.20895e-07
-1.08786e-06
1.55167e-07
-0.000275071
1.43216e-06
1.39503e-06
-3.61894e-07
-3.64851e-07
0.00027297
-5.95252e-07
-5.96121e-07
-0.00117503
3.41258e-07
3.47145e-07
0.00117554
-0.00114735
-1.39111e-06
5.95669e-07
2.91688e-07
0.00114736
-3.89055e-07
1.18249e-06
2.06036e-07
8.16695e-07
-4.08848e-07
-1.07384e-06
1.62105e-07
-0.00114722
-1.38839e-06
5.95726e-07
2.97381e-07
0.00114722
-3.86276e-07
1.17977e-06
2.03206e-07
8.16766e-07
-4.08871e-07
-1.07387e-06
1.62223e-07
-0.000274801
1.42005e-06
1.38294e-06
-3.5074e-07
-3.53654e-07
0.000272702
-5.70158e-07
-5.70891e-07
-0.00117698
3.31762e-07
3.37746e-07
0.00117745
-0.00114731
-1.37925e-06
5.70496e-07
2.77227e-07
0.00114729
-3.79389e-07
1.18744e-06
2.11273e-07
8.22685e-07
-3.97331e-07
-1.06027e-06
1.68884e-07
-0.00114718
-1.37651e-06
5.70471e-07
2.82924e-07
0.00114715
-3.76596e-07
1.18474e-06
2.08488e-07
8.22757e-07
-3.97323e-07
-1.06034e-06
1.69039e-07
-0.00027453
1.40807e-06
1.37102e-06
-3.40023e-07
-3.42887e-07
0.000272434
-5.44931e-07
-5.4541e-07
-0.00117879
3.22289e-07
3.2842e-07
0.00117923
-0.00114716
-1.36773e-06
5.45235e-07
2.62084e-07
0.00114712
-3.70044e-07
1.19213e-06
2.16365e-07
8.28345e-07
-3.86204e-07
-1.04746e-06
1.75462e-07
-0.00114703
-1.36497e-06
5.45068e-07
2.67674e-07
0.00114697
-3.67262e-07
1.18945e-06
2.13563e-07
8.28489e-07
-3.86242e-07
-1.0474e-06
1.75589e-07
-0.000274262
1.39661e-06
1.35962e-06
-3.29944e-07
-3.32769e-07
0.000272168
-5.19497e-07
-5.19764e-07
-0.00118048
3.12807e-07
3.19072e-07
0.00118089
-0.00114691
-1.35662e-06
5.19671e-07
2.46361e-07
0.00114684
-3.6104e-07
1.19662e-06
2.21263e-07
8.33772e-07
-3.75603e-07
-1.03512e-06
1.81735e-07
-0.00114678
-1.35384e-06
5.19563e-07
2.51836e-07
0.0011467
-3.58236e-07
1.19393e-06
2.18504e-07
8.33938e-07
-3.75643e-07
-1.0351e-06
1.81842e-07
-0.000273999
1.38546e-06
1.34848e-06
-3.20306e-07
-3.23105e-07
0.000271908
-4.93847e-07
-4.94086e-07
-0.00118204
3.03328e-07
3.09712e-07
0.00118241
-0.00114657
-1.34583e-06
4.93997e-07
2.30171e-07
0.00114648
-3.52463e-07
1.20081e-06
2.25934e-07
8.39052e-07
-3.65456e-07
-1.02334e-06
1.87696e-07
-0.00114644
-1.34308e-06
4.93899e-07
2.35616e-07
0.00114634
-3.49643e-07
1.19817e-06
2.23186e-07
8.39143e-07
-3.6551e-07
-1.02334e-06
1.87817e-07
-0.000273741
1.37473e-06
1.3378e-06
-3.11184e-07
-3.13978e-07
0.000271654
-4.68057e-07
-4.68266e-07
-0.00118346
2.93716e-07
3.00161e-07
0.00118381
-0.00114616
-1.33559e-06
4.68202e-07
2.13668e-07
0.00114606
-3.44236e-07
1.20475e-06
2.30361e-07
8.44143e-07
-3.55766e-07
-1.0121e-06
1.93375e-07
-0.00114603
-1.33289e-06
4.68115e-07
2.19196e-07
0.00114592
-3.41393e-07
1.20211e-06
2.27624e-07
8.44158e-07
-3.55828e-07
-1.01213e-06
1.93487e-07
-0.000273492
1.36447e-06
1.32754e-06
-3.02542e-07
-3.05363e-07
0.000271408
-4.42122e-07
-4.42305e-07
-0.00118476
2.83939e-07
2.90348e-07
0.00118507
-0.00114569
-1.32581e-06
4.42267e-07
1.97193e-07
0.00114557
-3.36418e-07
1.20844e-06
2.34514e-07
8.48852e-07
-3.46545e-07
-1.00146e-06
1.98773e-07
-0.00114556
-1.32302e-06
4.42215e-07
2.02726e-07
0.00114543
-3.33561e-07
1.20578e-06
2.31837e-07
8.48835e-07
-3.46603e-07
-1.00153e-06
1.9889e-07
-0.000273252
1.35471e-06
1.31778e-06
-2.94438e-07
-2.97252e-07
0.000271171
-4.16113e-07
-4.16336e-07
-0.00118593
2.7979e-07
2.80254e-07
0.0011862
-0.00114518
-1.31654e-06
4.16223e-07
1.80757e-07
0.00114505
-3.28965e-07
1.21183e-06
2.38488e-07
8.53315e-07
-3.37716e-07
-9.91346e-07
2.03949e-07
-0.00114504
-1.31382e-06
4.16273e-07
1.86465e-07
0.0011449
-3.26107e-07
1.20915e-06
2.35706e-07
8.53266e-07
-3.37798e-07
-9.91447e-07
2.04032e-07
-0.00027302
1.34541e-06
1.30849e-06
-2.86799e-07
-2.89615e-07
0.000270943
-3.90259e-07
-3.90334e-07
-0.00118697
2.69526e-07
2.69905e-07
0.00118721
-0.00114462
-1.30767e-06
3.90154e-07
1.64697e-07
0.00114448
-3.21923e-07
1.21499e-06
2.42141e-07
8.57521e-07
-3.29341e-07
-9.81789e-07
2.08834e-07
-0.00114448
-1.30496e-06
3.90298e-07
1.70421e-07
0.00114434
-3.19112e-07
1.21228e-06
2.39392e-07
8.57485e-07
-3.2942e-07
-9.81876e-07
2.0892e-07
-0.000272798
1.33658e-06
1.29966e-06
-2.79611e-07
-2.82446e-07
0.000270724
-3.64184e-07
-3.64461e-07
-0.00118789
2.58888e-07
2.59176e-07
0.0011881
-0.00114404
-1.2994e-06
3.64148e-07
1.48973e-07
0.0011439
-3.15209e-07
1.21786e-06
2.45596e-07
8.61526e-07
-3.21359e-07
-9.727e-07
2.13473e-07
-0.0011439
-1.29664e-06
3.64318e-07
1.54764e-07
0.00114375
-3.12468e-07
1.21514e-06
2.42812e-07
8.61518e-07
-3.21443e-07
-9.72777e-07
2.13546e-07
-0.000272586
1.32819e-06
1.29129e-06
-2.72876e-07
-2.75683e-07
0.000270515
-3.38371e-07
-3.38666e-07
-0.00118869
2.47835e-07
2.48062e-07
0.00118887
-0.00114344
-1.29148e-06
3.3831e-07
1.33896e-07
0.00114329
-3.08958e-07
1.22048e-06
2.48719e-07
8.65312e-07
-3.13753e-07
-9.64098e-07
2.17853e-07
-0.0011433
-1.28877e-06
3.3844e-07
1.39576e-07
0.00114315
-3.06211e-07
1.21777e-06
2.45941e-07
8.65316e-07
-3.13821e-07
-9.64157e-07
2.17947e-07
-0.000272383
1.32027e-06
1.28341e-06
-2.66605e-07
-2.69373e-07
0.000270315
-3.12698e-07
-3.12995e-07
-0.00118937
2.36313e-07
2.36514e-07
0.00118952
-0.00114283
-1.28405e-06
3.12653e-07
1.19365e-07
0.00114268
-3.03041e-07
1.2229e-06
2.51651e-07
8.68877e-07
-3.06592e-07
-9.5597e-07
2.21957e-07
-0.00114269
-1.28134e-06
3.12742e-07
1.25141e-07
0.00114254
-3.0035e-07
1.22014e-06
2.48854e-07
8.68901e-07
-3.06647e-07
-9.56011e-07
2.22052e-07
-0.00027219
1.31284e-06
1.27603e-06
-2.60764e-07
-2.63518e-07
0.000270126
-2.87331e-07
-2.87568e-07
-0.00118994
2.24377e-07
2.24562e-07
0.00119007
-0.00114222
-1.27705e-06
2.87249e-07
1.0555e-07
0.00114207
-2.97553e-07
1.22506e-06
2.54308e-07
8.72251e-07
-2.99733e-07
-9.48265e-07
2.25843e-07
-0.00114208
-1.27438e-06
2.87278e-07
1.11301e-07
0.00114192
-2.94836e-07
1.22233e-06
2.5149e-07
8.72275e-07
-2.99824e-07
-9.48301e-07
2.25982e-07
-0.000272008
1.3058e-06
1.26904e-06
-2.55322e-07
-2.58019e-07
0.000269946
-2.62175e-07
-2.62347e-07
-0.00119041
2.11911e-07
2.12078e-07
0.00119051
-0.0011416
-1.2705e-06
2.62146e-07
9.25546e-08
0.00114146
-2.92402e-07
1.22703e-06
2.56727e-07
8.75426e-07
-2.93319e-07
-9.40987e-07
2.29499e-07
-0.00114147
-1.26783e-06
2.62148e-07
9.83061e-08
0.00114131
-2.89678e-07
1.22426e-06
2.53942e-07
8.75462e-07
-2.93378e-07
-9.41015e-07
2.29616e-07
-0.000271834
1.29924e-06
1.26254e-06
-2.50308e-07
-2.52936e-07
0.000269776
-2.37414e-07
-2.37541e-07
-0.00119077
1.98959e-07
1.99151e-07
0.00119085
-0.001141
-1.26443e-06
2.37382e-07
8.05431e-08
0.00114086
-2.87617e-07
1.22878e-06
2.58936e-07
8.78425e-07
-2.87189e-07
-9.34106e-07
2.32956e-07
-0.00114086
-1.26173e-06
2.37322e-07
8.62122e-08
0.00114071
-2.8488e-07
1.22605e-06
2.56148e-07
8.78465e-07
-2.87267e-07
-9.34138e-07
2.33047e-07
-0.000271671
1.2931e-06
1.25645e-06
-2.45638e-07
-2.48257e-07
0.000269615
1.54291e-06
1.50313e-06
-4.76448e-07
-4.81996e-07
0.000274496
-0.000276584
-1.17392e-06
-1.1338e-06
0.000276599
-0.000274507
1.05236e-07
1.10671e-07
4.06171e-07
0.0011387
-5.04528e-07
1.16962e-06
1.52861e-07
7.52714e-07
-5.45082e-07
8.45298e-08
-1.23513e-06
-0.00113826
-1.54039e-06
8.18949e-07
4.06656e-07
0.00113877
-5.04668e-07
1.16697e-06
1.52723e-07
7.5265e-07
-5.42309e-07
8.13279e-08
-1.23497e-06
-0.00113833
0.00113996
8.03908e-07
-0.00113955
3.99218e-07
-1.53663e-06
1.57678e-07
-4.95833e-07
-1.2234e-06
9.06604e-08
-5.34001e-07
7.58183e-07
1.17124e-06
0.00114003
8.04247e-07
-0.00113962
3.99464e-07
-1.53405e-06
1.57549e-07
-4.95937e-07
-1.22322e-06
8.75278e-08
-5.31181e-07
7.58142e-07
-4.76838e-07
-4.7896e-07
0.000274477
-0.000276565
-1.13363e-06
0.00027658
-0.000274488
1.05292e-07
1.07868e-07
4.05202e-07
0.0011397
-4.99157e-07
1.12947e-06
1.4701e-07
7.52726e-07
-5.45003e-07
8.48238e-08
-1.23494e-06
-0.00113926
-1.53479e-06
8.18122e-07
4.06347e-07
0.00113866
-5.04564e-07
1.16157e-06
1.52911e-07
7.52794e-07
-5.42169e-07
8.15762e-08
-1.23484e-06
-0.00113821
0.00114096
8.04582e-07
-0.00114055
3.98192e-07
-1.49679e-06
1.51888e-07
-4.90413e-07
-1.22322e-06
9.09289e-08
-5.33893e-07
7.58181e-07
1.16587e-06
0.00113991
8.03668e-07
-0.00113951
3.99214e-07
-1.52853e-06
1.57786e-07
-4.95923e-07
-1.22312e-06
8.77373e-08
-5.3106e-07
7.58247e-07
8.18304e-07
4.06357e-07
0.00113828
-5.01576e-07
1.15861e-06
1.49987e-07
7.44576e-07
-5.39226e-07
7.83511e-08
-1.22637e-06
-0.00113783
8.04258e-07
-0.0011401
4.03613e-07
-1.49653e-06
1.51923e-07
-4.90269e-07
-1.21762e-06
9.07545e-08
7.52752e-07
-5.33746e-07
1.16288e-06
0.00113953
8.03235e-07
-0.00113913
3.99313e-07
-1.52547e-06
1.54833e-07
-4.92872e-07
-1.2146e-06
8.46042e-08
-5.28114e-07
7.50072e-07
-4.76795e-07
-4.81571e-07
0.000274463
-0.00027654
-1.13098e-06
0.000276555
-0.000274474
1.05474e-07
1.10696e-07
8.1923e-07
4.05172e-07
0.00113926
-4.99023e-07
1.12114e-06
1.47004e-07
7.49756e-07
-5.44925e-07
8.48682e-08
-1.23188e-06
-0.00113882
8.04366e-07
-0.00113997
3.98091e-07
-1.49372e-06
1.49012e-07
-4.87466e-07
-1.21778e-06
9.0912e-08
7.52747e-07
-5.3382e-07
1.12544e-06
0.00114052
8.04872e-07
-0.00114011
3.97883e-07
-1.48843e-06
1.51857e-07
-4.9039e-07
-1.22017e-06
9.09083e-08
-5.33808e-07
7.55194e-07
-0.000274449
1.05218e-07
1.08014e-07
1.53437e-06
1.49451e-06
-4.637e-07
-4.69273e-07
0.000274503
-1.17939e-06
-1.13933e-06
0.000276553
-0.000274469
1.14293e-07
1.19665e-07
3.96904e-07
0.00114035
-4.92948e-07
1.17532e-06
1.59291e-07
7.60026e-07
-5.30263e-07
-1.21937e-06
9.27586e-08
-1.53183e-06
7.99272e-07
3.97189e-07
0.00114042
-4.9307e-07
1.17259e-06
1.59183e-07
7.59979e-07
-5.27523e-07
-1.21921e-06
8.9583e-08
0.00114146
7.8417e-07
-0.0011411
3.89596e-07
-1.52737e-06
1.64008e-07
-4.84425e-07
-1.20737e-06
9.88195e-08
-5.19268e-07
7.65474e-07
1.17672e-06
0.00114153
7.84341e-07
-0.00114118
3.8966e-07
-1.52477e-06
1.63967e-07
-4.84425e-07
-1.20714e-06
9.57422e-08
-5.16427e-07
7.65442e-07
-4.64098e-07
-4.66253e-07
0.000274484
-1.1391e-06
0.000276534
-0.00027445
1.1434e-07
1.16884e-07
3.9578e-07
0.00114135
-4.875e-07
1.13522e-06
1.53547e-07
7.60021e-07
-5.30186e-07
-1.21917e-06
9.29701e-08
-1.52628e-06
7.98758e-07
3.96785e-07
0.00114031
-4.9306e-07
1.16725e-06
1.5936e-07
7.60078e-07
-5.27372e-07
-1.21909e-06
8.97691e-08
0.00114246
7.84859e-07
-0.0011421
3.88404e-07
-1.48745e-06
1.58347e-07
-4.78923e-07
-1.2072e-06
9.90437e-08
-5.19213e-07
7.65446e-07
1.17131e-06
0.00114141
7.8383e-07
-0.00114106
3.89445e-07
-1.51926e-06
1.64182e-07
-4.84394e-07
-1.20708e-06
9.59069e-08
-5.16358e-07
7.65531e-07
7.98264e-07
3.97127e-07
0.00113993
-4.89999e-07
1.16427e-06
1.56435e-07
7.51895e-07
-5.24473e-07
8.66596e-08
-1.21061e-06
7.84537e-07
-0.00114165
3.93854e-07
-1.48724e-06
1.58354e-07
-4.78764e-07
-1.20162e-06
9.89113e-08
7.60038e-07
-5.19004e-07
1.16834e-06
0.00114103
7.83427e-07
-0.00114068
3.89632e-07
-1.51619e-06
1.61209e-07
-4.81405e-07
-1.1986e-06
9.28475e-08
-5.13397e-07
7.5734e-07
-4.64063e-07
-4.68902e-07
0.00027447
-1.1364e-06
0.000276509
-0.000274436
1.14426e-07
1.19697e-07
7.99867e-07
3.95682e-07
0.00114091
-4.87427e-07
1.12681e-06
1.53513e-07
7.57051e-07
-5.30119e-07
9.29858e-08
-1.21616e-06
7.84666e-07
-0.00114152
3.88359e-07
-1.48447e-06
1.55484e-07
-4.75894e-07
-1.20177e-06
9.9033e-08
7.60016e-07
-5.19112e-07
1.13094e-06
0.00114202
7.85064e-07
-0.00114166
3.88172e-07
-1.47907e-06
1.58292e-07
-4.78898e-07
-1.20414e-06
9.90335e-08
-5.19123e-07
7.6249e-07
-0.00027441
1.14257e-07
1.17031e-07
1.52497e-06
1.48504e-06
-4.50642e-07
-4.56275e-07
0.00027445
-1.18459e-06
-1.1446e-06
0.000276454
-0.000274376
1.2292e-07
1.28211e-07
3.87257e-07
0.0011418
-4.81506e-07
1.18067e-06
1.65579e-07
7.67317e-07
-5.15577e-07
-1.2033e-06
1.00883e-07
-1.52233e-06
7.79232e-07
3.87334e-07
0.00114188
-4.81533e-07
1.17802e-06
1.65558e-07
7.67265e-07
-5.12818e-07
-1.20309e-06
9.77812e-08
0.00114276
7.63476e-07
-0.00114246
3.80436e-07
-1.51741e-06
1.70238e-07
-4.72815e-07
-1.19117e-06
1.06899e-07
-5.04783e-07
7.72774e-07
1.18199e-06
0.00114284
7.63723e-07
-0.00114253
3.80415e-07
-1.51476e-06
1.702e-07
-4.72794e-07
-1.19098e-06
1.03878e-07
-5.02038e-07
7.72713e-07
-4.5099e-07
-4.53181e-07
0.000274431
-1.14441e-06
0.000276435
-0.000274357
1.22981e-07
1.25475e-07
3.86054e-07
0.00114281
-4.75989e-07
1.14063e-06
1.59944e-07
7.6728e-07
-5.1558e-07
-1.20315e-06
1.01031e-07
-1.51682e-06
7.78761e-07
3.87199e-07
0.00114176
-4.81483e-07
1.17261e-06
1.65727e-07
7.67354e-07
-5.12706e-07
-1.20302e-06
9.79031e-08
0.00114377
7.64253e-07
-0.00114346
3.79113e-07
-1.47742e-06
1.64662e-07
-4.67249e-07
-1.19102e-06
1.07093e-07
-5.04855e-07
7.72729e-07
1.17651e-06
0.00114272
7.63264e-07
-0.00114241
3.80312e-07
-1.50929e-06
1.70379e-07
-4.7276e-07
-1.19089e-06
1.04015e-07
-5.01899e-07
7.7283e-07
7.78411e-07
3.87376e-07
0.00114138
-4.78511e-07
1.16965e-06
1.62788e-07
7.59166e-07
-5.09779e-07
9.49189e-08
-1.19456e-06
7.63852e-07
-0.00114301
3.84631e-07
-1.47719e-06
1.64635e-07
-4.6711e-07
-1.18546e-06
1.07028e-07
7.6732e-07
-5.04666e-07
1.17357e-06
0.00114234
7.6276e-07
-0.00114203
3.80506e-07
-1.50621e-06
1.67475e-07
-4.69732e-07
-1.18245e-06
1.0099e-07
-4.99051e-07
7.64607e-07
-4.51036e-07
-4.55847e-07
0.000274417
-1.14167e-06
0.00027641
-0.000274343
1.23024e-07
1.28256e-07
7.79974e-07
3.85891e-07
0.00114237
-4.75887e-07
1.13223e-06
1.59911e-07
7.64309e-07
-5.15466e-07
1.01049e-07
-1.20008e-06
7.64099e-07
-0.00114288
3.79174e-07
-1.47444e-06
1.6185e-07
-4.64249e-07
-1.18563e-06
1.07055e-07
7.67254e-07
-5.047e-07
1.13616e-06
0.00114333
7.64661e-07
-0.00114302
3.78891e-07
-1.46909e-06
1.64561e-07
-4.67238e-07
-1.188e-06
1.0709e-07
-5.0466e-07
7.69742e-07
-0.000274317
1.22816e-07
1.2563e-07
1.51482e-06
1.47482e-06
-4.37516e-07
-4.43188e-07
0.000274345
-1.18976e-06
-1.14979e-06
0.000276308
-0.000274236
1.31211e-07
1.36491e-07
3.78196e-07
0.00114306
-4.69913e-07
1.18583e-06
1.71735e-07
7.74623e-07
-5.01193e-07
-1.18705e-06
1.08922e-07
-1.51216e-06
7.58376e-07
3.7818e-07
0.00114313
-4.69945e-07
1.18328e-06
1.71721e-07
7.74542e-07
-4.9849e-07
-1.18689e-06
1.05905e-07
0.00114387
7.42142e-07
-0.00114361
3.71128e-07
-1.50664e-06
1.7622e-07
-4.61315e-07
-1.17484e-06
1.15001e-07
-4.90588e-07
7.80037e-07
1.18717e-06
0.00114395
7.42289e-07
-0.00114369
3.71135e-07
-1.50399e-06
1.76193e-07
-4.61334e-07
-1.17466e-06
1.11962e-07
-4.87796e-07
7.79976e-07
-4.37863e-07
-4.40096e-07
0.000274326
-1.14959e-06
0.000276289
-0.000274217
1.31268e-07
1.33741e-07
3.76827e-07
0.00114406
-4.64335e-07
1.14585e-06
1.66184e-07
7.74571e-07
-5.01247e-07
-1.18691e-06
1.09068e-07
-1.50669e-06
7.57955e-07
3.78085e-07
0.00114301
-4.69881e-07
1.17775e-06
1.71873e-07
7.74676e-07
-4.9833e-07
-1.18677e-06
1.06018e-07
0.00114488
7.42964e-07
-0.00114462
3.69703e-07
-1.46662e-06
1.70695e-07
-4.55749e-07
-1.17471e-06
1.15134e-07
-4.90609e-07
7.79995e-07
1.1817e-06
0.00114383
7.41788e-07
-0.00114357
3.71156e-07
-1.49854e-06
1.76339e-07
-4.61328e-07
-1.17456e-06
1.12106e-07
-4.8773e-07
7.80118e-07
7.57491e-07
3.78261e-07
0.00114263
-4.66918e-07
1.17489e-06
1.68977e-07
7.66427e-07
-4.95458e-07
1.03042e-07
-1.17837e-06
7.4274e-07
-0.00114417
3.75232e-07
-1.46643e-06
1.70633e-07
-4.55653e-07
-1.16919e-06
1.15037e-07
7.74549e-07
-4.90417e-07
1.17874e-06
0.00114344
7.4165e-07
-0.00114319
3.7116e-07
-1.49548e-06
1.73459e-07
-4.58294e-07
-1.16619e-06
1.09077e-07
-4.84837e-07
7.71831e-07
-4.37898e-07
-4.42802e-07
0.000274312
-1.14692e-06
0.000276263
-0.000274202
1.31377e-07
1.36526e-07
7.59281e-07
3.76692e-07
0.00114362
-4.64314e-07
1.13747e-06
1.6611e-07
7.7158e-07
-5.01113e-07
1.09107e-07
-1.1839e-06
7.4281e-07
-0.00114403
3.69708e-07
-1.46363e-06
1.67888e-07
-4.52762e-07
-1.16934e-06
1.15113e-07
7.74526e-07
-4.90507e-07
1.14136e-06
0.00114444
7.43219e-07
-0.00114418
3.69691e-07
-1.45834e-06
1.70557e-07
-4.55781e-07
-1.17174e-06
1.15159e-07
-4.90488e-07
7.77101e-07
-0.000274177
1.31112e-07
1.33903e-07
1.50389e-06
1.46387e-06
-4.24369e-07
-4.30032e-07
0.000274194
-1.19504e-06
-1.15507e-06
0.000276123
-0.000274056
1.3919e-07
1.44586e-07
3.6874e-07
0.00114412
-4.58495e-07
1.19107e-06
1.77646e-07
7.81849e-07
-4.87046e-07
-1.17076e-06
1.16985e-07
-1.50124e-06
7.36858e-07
3.68761e-07
0.00114419
-4.5851e-07
1.18848e-06
1.77644e-07
7.81779e-07
-4.84295e-07
-1.17059e-06
1.13966e-07
0.00114479
7.20228e-07
-0.00114458
3.61456e-07
-1.49527e-06
1.82028e-07
-4.50087e-07
-1.15867e-06
1.22924e-07
-4.76585e-07
7.87184e-07
1.19238e-06
0.00114486
7.2033e-07
-0.00114465
3.61519e-07
-1.49264e-06
1.82006e-07
-4.50031e-07
-1.15848e-06
1.19926e-07
-4.73794e-07
7.87125e-07
-4.24719e-07
-4.26973e-07
0.000274175
-1.1548e-06
0.000276104
-0.000274037
1.3922e-07
1.41774e-07
3.67228e-07
0.00114513
-4.52899e-07
1.15109e-06
1.7211e-07
7.81791e-07
-4.87043e-07
-1.17063e-06
1.17118e-07
-1.49577e-06
7.36346e-07
3.68825e-07
0.00114407
-4.58485e-07
1.18294e-06
1.77793e-07
7.81916e-07
-4.8418e-07
-1.17046e-06
1.14093e-07
0.0011458
7.20921e-07
-0.00114559
3.60087e-07
-1.45524e-06
1.76582e-07
-4.44503e-07
-1.15854e-06
1.23062e-07
-4.76593e-07
7.87125e-07
1.18689e-06
0.00114474
7.19912e-07
-0.00114453
3.61404e-07
-1.4872e-06
1.82039e-07
-4.50099e-07
-1.15835e-06
1.20103e-07
-4.73667e-07
7.87286e-07
7.36275e-07
3.68824e-07
0.00114369
-4.55477e-07
1.18003e-06
1.74887e-07
7.73621e-07
-4.81309e-07
1.11095e-07
-1.16214e-06
7.20878e-07
-0.00114513
3.6569e-07
-1.45508e-06
1.76476e-07
-4.44367e-07
-1.15305e-06
1.22912e-07
7.8167e-07
-4.76451e-07
1.18398e-06
0.00114436
7.1992e-07
-0.00114415
3.61471e-07
-1.48408e-06
1.79237e-07
-4.4706e-07
-1.15006e-06
1.17042e-07
-4.70862e-07
7.78954e-07
-4.2471e-07
-4.29685e-07
0.000274161
-1.15217e-06
0.000276078
-0.000274023
1.39326e-07
1.44521e-07
7.37783e-07
3.67342e-07
0.00114468
-4.52905e-07
1.14264e-06
1.7203e-07
7.78899e-07
-4.86961e-07
1.17146e-07
-1.16766e-06
7.2096e-07
-0.001145
3.59877e-07
-1.45221e-06
1.7372e-07
-4.41484e-07
-1.15315e-06
1.23041e-07
7.81676e-07
-4.76496e-07
1.14659e-06
0.00114535
7.21143e-07
-0.00114514
3.60224e-07
-1.44694e-06
1.76398e-07
-4.44526e-07
-1.15556e-06
1.23079e-07
-4.76481e-07
7.84233e-07
-0.000273997
1.39062e-07
1.41941e-07
1.49235e-06
1.45234e-06
-4.11312e-07
-4.16954e-07
0.000274006
-1.20034e-06
-1.16039e-06
0.000275907
-0.000273845
1.47005e-07
1.52338e-07
3.58962e-07
0.00114499
-4.47293e-07
1.19631e-06
1.8351e-07
7.88949e-07
-4.73139e-07
-1.15465e-06
1.24844e-07
-1.48972e-06
7.14749e-07
3.59077e-07
0.00114506
-4.47286e-07
1.1937e-06
1.83469e-07
7.88884e-07
-4.70396e-07
-1.15448e-06
1.21872e-07
0.00114552
6.9763e-07
-0.00114536
3.51003e-07
-1.48334e-06
1.8789e-07
-4.39013e-07
-1.14271e-06
1.30719e-07
-4.62932e-07
7.94234e-07
1.19773e-06
0.0011456
6.97753e-07
-0.00114543
3.51128e-07
-1.48068e-06
1.87919e-07
-4.39042e-07
-1.14256e-06
1.27705e-07
-4.60168e-07
7.94144e-07
-4.11681e-07
-4.13919e-07
0.000273987
-1.16016e-06
0.000275888
-0.000273826
1.47064e-07
1.4957e-07
3.57569e-07
0.001146
-4.41733e-07
1.15635e-06
1.77989e-07
7.88876e-07
-4.73132e-07
-1.15453e-06
1.24991e-07
-1.48428e-06
7.14255e-07
3.59034e-07
0.00114494
-4.47307e-07
1.18816e-06
1.83521e-07
7.89044e-07
-4.70214e-07
-1.15431e-06
1.2205e-07
0.00114653
6.98414e-07
-0.00114637
3.49591e-07
-1.44334e-06
1.82429e-07
-4.33443e-07
-1.14259e-06
1.30833e-07
-4.62934e-07
7.94159e-07
1.19223e-06
0.00114548
6.97214e-07
-0.00114531
3.51296e-07
-1.47525e-06
1.87915e-07
-4.39088e-07
-1.14242e-06
1.2788e-07
-4.60053e-07
7.94298e-07
7.14302e-07
3.59102e-07
0.00114456
-4.44275e-07
1.18529e-06
1.80698e-07
7.80714e-07
-4.67452e-07
1.19e-07
-1.14608e-06
6.98318e-07
-0.00114591
3.55318e-07
-1.44315e-06
1.82325e-07
-4.33406e-07
-1.13712e-06
1.30676e-07
7.88722e-07
-4.62808e-07
1.18932e-06
0.00114509
6.97335e-07
-0.00114493
3.51134e-07
-1.47218e-06
1.85113e-07
-4.36058e-07
-1.13416e-06
1.24837e-07
-4.57238e-07
7.85968e-07
-4.11637e-07
-4.16634e-07
0.000273973
-1.15753e-06
0.000275862
-0.000273812
1.47176e-07
1.523e-07
7.15552e-07
3.57848e-07
0.00114555
-4.41712e-07
1.14789e-06
1.77871e-07
7.85982e-07
-4.73039e-07
1.2503e-07
-1.15156e-06
6.98407e-07
-0.00114578
3.49547e-07
-1.44029e-06
1.79554e-07
-4.30493e-07
-1.13724e-06
1.30796e-07
7.88714e-07
-4.62863e-07
1.15197e-06
0.00114609
6.9857e-07
-0.00114592
3.49898e-07
-1.43506e-06
1.82283e-07
-4.33528e-07
-1.13963e-06
1.30837e-07
-4.62804e-07
7.91282e-07
-0.000273786
1.46915e-07
1.49716e-07
1.48031e-06
1.4403e-06
-3.98415e-07
-4.04023e-07
0.000273788
-1.20567e-06
-1.16578e-06
0.000275668
-0.00027361
1.54496e-07
1.59782e-07
3.48301e-07
0.00114568
-4.36282e-07
1.20167e-06
1.89353e-07
7.9596e-07
-4.59573e-07
-1.13878e-06
1.32583e-07
-1.47767e-06
6.92035e-07
3.48348e-07
0.00114575
-4.36294e-07
1.19909e-06
1.8935e-07
7.95899e-07
-4.5682e-07
-1.13863e-06
1.29634e-07
0.00114608
6.74461e-07
-0.00114596
3.39814e-07
-1.47109e-06
1.9366e-07
-4.2814e-07
-1.12709e-06
1.38296e-07
-4.49633e-07
8.01135e-07
1.20308e-06
0.00114615
6.74617e-07
-0.00114603
3.39849e-07
-1.46846e-06
1.93723e-07
-4.28138e-07
-1.12691e-06
1.35365e-07
-4.46869e-07
8.01038e-07
-3.98792e-07
-4.01012e-07
0.00027377
-1.1655e-06
0.000275648
-0.000273591
1.54525e-07
1.57031e-07
3.46849e-07
0.00114669
-4.30701e-07
1.16173e-06
1.83889e-07
7.95879e-07
-4.59574e-07
-1.13866e-06
1.32724e-07
-1.47223e-06
6.91507e-07
3.48559e-07
0.00114563
-4.36352e-07
1.19353e-06
1.89378e-07
7.96028e-07
-4.5669e-07
-1.13846e-06
1.29776e-07
0.00114709
6.75304e-07
-0.00114697
3.38356e-07
-1.43108e-06
1.88248e-07
-4.22552e-07
-1.127e-06
1.38429e-07
-4.49677e-07
8.01048e-07
1.19758e-06
0.00114603
6.74099e-07
-0.00114591
3.40072e-07
-1.46298e-06
1.93743e-07
-4.28171e-07
-1.12685e-06
1.35499e-07
-4.46787e-07
8.01171e-07
6.91622e-07
3.48452e-07
0.00114525
-4.333e-07
1.19064e-06
1.86581e-07
7.87702e-07
-4.539e-07
1.2676e-07
-1.13024e-06
6.75128e-07
-0.00114651
3.44176e-07
-1.43097e-06
1.88071e-07
-4.22562e-07
-1.12147e-06
1.38356e-07
7.95675e-07
-4.49489e-07
1.19465e-06
0.00114565
6.74198e-07
-0.00114552
3.39854e-07
-1.45996e-06
1.90901e-07
-4.25164e-07
-1.11856e-06
1.32544e-07
-4.43931e-07
7.92915e-07
-3.98752e-07
-4.03736e-07
0.000273755
-1.16283e-06
0.000275623
-0.000273577
1.5458e-07
1.59798e-07
6.92795e-07
3.47282e-07
0.00114624
-4.30731e-07
1.1533e-06
1.83762e-07
7.92988e-07
-4.59473e-07
1.32755e-07
-1.1357e-06
6.7523e-07
-0.00114638
3.38412e-07
-1.42811e-06
1.85312e-07
-4.19668e-07
-1.12163e-06
1.38476e-07
7.95619e-07
-4.49513e-07
1.15731e-06
0.00114664
6.75326e-07
-0.00114652
3.38657e-07
-1.42284e-06
1.88094e-07
-4.22597e-07
-1.12397e-06
1.38523e-07
-4.49495e-07
7.98253e-07
-0.000273551
1.54349e-07
1.57172e-07
1.46802e-06
1.428e-06
-3.85818e-07
-3.91445e-07
0.000273549
-1.21091e-06
-1.17107e-06
0.000275412
-0.000273359
1.61587e-07
1.66828e-07
3.36962e-07
0.00114619
-4.25453e-07
1.20698e-06
1.95069e-07
8.02816e-07
-4.46337e-07
-1.12324e-06
1.40203e-07
-1.46536e-06
6.6872e-07
3.36844e-07
0.00114626
-4.25435e-07
1.2044e-06
1.95123e-07
8.02765e-07
-4.43638e-07
-1.12308e-06
1.37261e-07
0.00114647
6.50653e-07
-0.00114639
3.28037e-07
-1.45876e-06
1.99274e-07
-4.17538e-07
-1.11178e-06
1.45855e-07
-4.36656e-07
8.07848e-07
1.20835e-06
0.00114654
6.50872e-07
-0.00114646
3.27884e-07
-1.45608e-06
1.99343e-07
-4.17475e-07
-1.1117e-06
1.42882e-07
-4.33946e-07
8.07758e-07
-3.8621e-07
-3.88403e-07
0.00027353
-1.17075e-06
0.000275393
-0.00027334
1.61548e-07
1.64129e-07
3.35424e-07
0.0011472
-4.1986e-07
1.16711e-06
1.89661e-07
8.02719e-07
-4.46376e-07
-1.12314e-06
1.40305e-07
-1.45993e-06
6.68191e-07
3.37227e-07
0.00114614
-4.25483e-07
1.19891e-06
1.95157e-07
8.028e-07
-4.43531e-07
-1.123e-06
1.37341e-07
0.00114748
6.51592e-07
-0.0011474
3.26416e-07
-1.41874e-06
1.93891e-07
-4.11916e-07
-1.1117e-06
1.45939e-07
-4.36712e-07
8.07736e-07
1.20286e-06
0.00114642
6.50436e-07
-0.00114634
3.28215e-07
-1.45063e-06
1.99439e-07
-4.17503e-07
-1.11164e-06
1.42978e-07
-4.33898e-07
8.07821e-07
6.68252e-07
3.37022e-07
0.00114576
-4.22463e-07
1.19596e-06
1.92314e-07
7.94583e-07
-4.4069e-07
1.34422e-07
-1.11475e-06
6.51237e-07
-0.00114695
3.32309e-07
-1.41863e-06
1.93717e-07
-4.11893e-07
-1.10627e-06
1.4587e-07
8.02378e-07
-4.36535e-07
1.19996e-06
0.00114604
6.50277e-07
-0.00114595
3.28009e-07
-1.44763e-06
1.96537e-07
-4.14554e-07
-1.1033e-06
1.40098e-07
-4.3098e-07
7.99616e-07
-3.86268e-07
-3.91117e-07
0.000273515
-1.16812e-06
0.000275367
-0.000273325
1.61687e-07
1.66866e-07
6.69285e-07
3.35786e-07
0.00114675
-4.19872e-07
1.15864e-06
1.89538e-07
7.99968e-07
-4.4621e-07
1.40375e-07
-1.12013e-06
6.51387e-07
-0.00114681
3.26637e-07
-1.41582e-06
1.90953e-07
-4.09093e-07
-1.10641e-06
1.46014e-07
8.0232e-07
-4.36548e-07
1.1627e-06
0.00114703
6.51489e-07
-0.00114695
3.26796e-07
-1.41048e-06
1.938e-07
-4.11944e-07
-1.10886e-06
1.46e-07
-4.3658e-07
8.04955e-07
-0.000273299
1.61496e-07
1.64298e-07
1.45567e-06
1.41564e-06
-3.73668e-07
-3.79294e-07
0.000273294
-1.21612e-06
-1.17632e-06
0.000275147
-0.000273096
1.68333e-07
1.73576e-07
3.24981e-07
0.00114654
-4.1493e-07
1.21224e-06
2.00675e-07
8.09499e-07
-4.33468e-07
-1.10824e-06
1.47692e-07
-1.45298e-06
6.4482e-07
3.24843e-07
0.00114661
-4.14859e-07
1.20969e-06
2.00776e-07
8.09328e-07
-4.3076e-07
-1.10809e-06
1.44766e-07
0.0011467
6.26286e-07
-0.00114666
3.21116e-07