/*--------------------------------*- C++ -*----------------------------------*\
| =========                 |                                                 |
| \\      /  F ield         | OpenFOAM: The Open Source CFD Toolbox           |
|  \\    /   O peration     | Version:  2312                                  |
|   \\  /    A nd           | Website:  www.openfoam.com                      |
|    \\/     M anipulation  |                                                 |
\*---------------------------------------------------------------------------*/
FoamFile
{
    version     2.0;
    format      ascii;
    arch        "LSB;label=32;scalar=64";
    class       volScalarField;
    location    "1000";
    object      epsilon;
}
// * * * * * * * * * * * * * * * * * * * * * * * * * * * * * * * * * * * * * //

dimensions      [0 2 -3 0 0 0 0];

internalField   nonuniform List<scalar> 
42973
(
3.05422e-07
8.27923e-07
1.15361e-06
4.15125e-07
9.25854e-07
9.74786e-07
1.2258e-06
4.18643e-07
9.97327e-07
1.00656e-06
1.29011e-06
3.55815e-07
9.29734e-07
8.68609e-07
1.22845e-06
3.38379e-07
8.67742e-07
8.68578e-07
1.11809e-06
3.92316e-07
9.30446e-07
9.86194e-07
1.17485e-06
4.48844e-07
1.02555e-06
1.02735e-06
1.28957e-06
4.6679e-07
1.05306e-06
1.0309e-06
1.31631e-06
4.71258e-07
1.04636e-06
1.03779e-06
1.30385e-06
4.76219e-07
1.04456e-06
1.04715e-06
1.3034e-06
4.8679e-07
1.06132e-06
1.0656e-06
1.31501e-06
5.01882e-07
1.07582e-06
1.07568e-06
1.32263e-06
5.17398e-07
1.08709e-06
1.08721e-06
1.33131e-06
5.32093e-07
1.10398e-06
1.10364e-06
1.34695e-06
5.46159e-07
1.11468e-06
1.11469e-06
1.35666e-06
5.60305e-07
1.12351e-06
1.12436e-06
1.36448e-06
5.73432e-07
1.13388e-06
1.13309e-06
1.37117e-06
5.83859e-07
1.14173e-06
1.14158e-06
1.37886e-06
5.94349e-07
1.14992e-06
1.15111e-06
1.38715e-06
6.06181e-07
1.15812e-06
1.15816e-06
1.39327e-06
6.16024e-07
1.16401e-06
1.16356e-06
1.39823e-06
6.25201e-07
1.17069e-06
1.17067e-06
1.40441e-06
6.33688e-07
1.17508e-06
1.17567e-06
1.40834e-06
6.41592e-07
1.17994e-06
1.17987e-06
1.41259e-06
6.48705e-07
1.18406e-06
1.18438e-06
1.4167e-06
6.5591e-07
1.18817e-06
1.18815e-06
1.42041e-06
6.62218e-07
1.19108e-06
1.1909e-06
1.42285e-06
1.11906e-06
1.31526e-06
8.51147e-07
8.18225e-07
9.85972e-07
9.00546e-07
1.11185e-06
1.20028e-06
8.48684e-07
9.83344e-07
9.40689e-07
8.6223e-07
8.97507e-07
9.13112e-07
1.24848e-06
8.60989e-07
9.36788e-07
9.11686e-07
1.21076e-06
1.32724e-06
1.25784e-06
1.00569e-06
9.31798e-07
9.79087e-07
9.96634e-07
1.22402e-06
1.29286e-06
1.00521e-06
9.82024e-07
9.84905e-07
1.02804e-06
9.31573e-07
9.91591e-07
9.82904e-07
1.28077e-06
1.31869e-06
9.32542e-07
1.01968e-06
9.88432e-07
1.2818e-06
1.24853e-06
1.13439e-06
9.53913e-07
1.0004e-06
8.96452e-07
9.51951e-07
1.29653e-06
1.21164e-06
9.56611e-07
1.01124e-06
8.91305e-07
8.90412e-07
9.91901e-07
9.58256e-07
9.78939e-07
1.30589e-06
1.12323e-06
9.96563e-07
8.93788e-07
9.74551e-07
1.23798e-06
1.1311e-06
1.12511e-06
8.83688e-07
9.2423e-07
8.75965e-07
8.70907e-07
1.20205e-06
1.11094e-06
8.77156e-07
8.65241e-07
8.69809e-07
8.49639e-07
9.49967e-07
8.72308e-07
8.81243e-07
1.11046e-06
1.09236e-06
9.44259e-07
8.49835e-07
8.76903e-07
1.11926e-06
1.13836e-06
1.21823e-06
8.85824e-07
8.67806e-07
9.46906e-07
9.10283e-07
1.1121e-06
1.16978e-06
8.81892e-07
8.71642e-07
9.49748e-07
9.67296e-07
8.70831e-07
9.04984e-07
8.87344e-07
1.11647e-06
1.24186e-06
8.68097e-07
9.61472e-07
8.91879e-07
1.15315e-06
1.23769e-06
1.28742e-06
9.68458e-07
9.35765e-07
1.01643e-06
1.00937e-06
1.19104e-06
1.27652e-06
9.72818e-07
9.92204e-07
1.01987e-06
1.02736e-06
9.1677e-07
1.00594e-06
1.00055e-06
1.26352e-06
1.29849e-06
9.219e-07
1.02459e-06
1.00448e-06
1.27218e-06
1.29413e-06
1.29968e-06
1.02487e-06
1.02727e-06
1.03724e-06
1.0501e-06
1.29117e-06
1.31548e-06
1.02666e-06
1.02859e-06
1.03525e-06
1.02863e-06
1.02372e-06
1.05167e-06
1.05272e-06
1.30104e-06
1.29368e-06
1.02618e-06
1.02975e-06
1.05091e-06
1.31458e-06
1.30178e-06
1.30035e-06
1.03915e-06
1.05128e-06
1.0431e-06
1.04763e-06
1.31809e-06
1.30667e-06
1.03683e-06
1.02926e-06
1.04179e-06
1.03582e-06
1.05327e-06
1.04846e-06
1.04617e-06
1.29528e-06
1.29362e-06
1.05108e-06
1.03639e-06
1.04456e-06
1.3028e-06
1.30251e-06
1.30222e-06
1.04428e-06
1.04601e-06
1.04845e-06
1.0443e-06
1.30757e-06
1.29781e-06
1.0434e-06
1.03781e-06
1.04833e-06
1.0445e-06
1.04455e-06
1.04389e-06
1.04466e-06
1.29569e-06
1.29668e-06
1.04339e-06
1.04371e-06
1.04445e-06
1.29993e-06
1.30469e-06
1.30858e-06
1.05034e-06
1.04512e-06
1.0583e-06
1.05654e-06
1.29999e-06
1.30606e-06
1.05034e-06
1.04784e-06
1.05871e-06
1.06104e-06
1.04801e-06
1.05668e-06
1.06043e-06
1.30006e-06
1.30967e-06
1.04826e-06
1.06103e-06
1.06078e-06
1.31101e-06
1.31223e-06
1.31937e-06
1.06173e-06
1.06102e-06
1.07261e-06
1.07299e-06
1.31034e-06
1.31966e-06
1.06216e-06
1.06534e-06
1.07243e-06
1.07354e-06
1.06408e-06
1.07315e-06
1.07275e-06
1.31442e-06
1.32081e-06
1.06449e-06
1.07395e-06
1.07275e-06
1.31997e-06
1.32313e-06
1.33059e-06
1.07614e-06
1.07584e-06
1.08637e-06
1.08391e-06
1.32317e-06
1.32807e-06
1.07574e-06
1.07544e-06
1.08588e-06
1.08367e-06
1.0749e-06
1.08347e-06
1.08319e-06
1.32352e-06
1.32789e-06
1.07471e-06
1.08339e-06
1.08288e-06
1.32721e-06
1.33454e-06
1.34189e-06
1.08966e-06
1.08753e-06
1.0989e-06
1.10011e-06
1.33198e-06
1.34264e-06
1.0893e-06
1.08755e-06
1.0988e-06
1.10008e-06
1.08702e-06
1.10009e-06
1.09981e-06
1.33189e-06
1.34282e-06
1.08675e-06
1.09993e-06
1.09965e-06
1.34258e-06
1.3454e-06
1.35099e-06
1.10179e-06
1.10388e-06
1.1105e-06
1.1123e-06
1.34715e-06
1.35373e-06
1.10167e-06
1.10362e-06
1.11021e-06
1.11197e-06
1.10354e-06
1.11251e-06
1.11242e-06
1.34718e-06
1.35325e-06
1.10339e-06
1.11216e-06
1.11213e-06
1.35345e-06
1.35451e-06
1.36132e-06
1.11348e-06
1.11451e-06
1.12219e-06
1.12107e-06
1.3567e-06
1.36047e-06
1.11318e-06
1.11452e-06
1.12206e-06
1.12199e-06
1.11498e-06
1.12114e-06
1.12212e-06
1.35641e-06
1.3614e-06
1.11469e-06
1.12206e-06
1.12201e-06
1.36138e-06
1.36489e-06
1.3703e-06
1.12495e-06
1.12349e-06
1.13265e-06
1.13152e-06
1.36365e-06
1.36894e-06
1.12487e-06
1.12433e-06
1.13251e-06
1.13111e-06
1.1243e-06
1.13134e-06
1.13061e-06
1.3646e-06
1.36858e-06
1.12424e-06
1.13094e-06
1.13048e-06
1.36822e-06
1.37339e-06
1.37641e-06
1.13486e-06
1.13413e-06
1.14004e-06
1.14025e-06
1.37224e-06
1.37656e-06
1.13464e-06
1.13333e-06
1.13968e-06
1.13961e-06
1.13278e-06
1.14004e-06
1.13964e-06
1.37154e-06
1.37573e-06
1.13258e-06
1.1394e-06
1.1393e-06
1.37564e-06
1.37897e-06
1.38208e-06
1.14154e-06
1.14184e-06
1.14713e-06
1.14738e-06
1.37932e-06
1.38249e-06
1.14121e-06
1.14168e-06
1.14702e-06
1.14853e-06
1.14198e-06
1.14759e-06
1.14893e-06
1.37881e-06
1.38358e-06
1.14167e-06
1.14873e-06
1.14884e-06
1.38399e-06
1.38524e-06
1.39042e-06
1.14947e-06
1.14968e-06
1.15644e-06
1.15637e-06
1.38559e-06
1.39051e-06
1.14941e-06
1.15088e-06
1.15633e-06
1.15672e-06
1.1511e-06
1.15646e-06
1.15643e-06
1.38685e-06
1.39104e-06
1.15105e-06
1.1568e-06
1.15633e-06
1.39071e-06
1.39341e-06
1.39608e-06
1.15834e-06
1.15813e-06
1.16296e-06
1.16257e-06
1.39342e-06
1.39579e-06
1.15819e-06
1.15817e-06
1.16272e-06
1.16216e-06
1.15787e-06
1.16242e-06
1.16235e-06
1.39362e-06
1.39531e-06
1.15773e-06
1.16201e-06
1.16214e-06
1.39549e-06
1.39865e-06
1.40132e-06
1.16442e-06
1.16413e-06
1.169e-06
1.16915e-06
1.39842e-06
1.40154e-06
1.16417e-06
1.16368e-06
1.16872e-06
1.16891e-06
1.1641e-06
1.1692e-06
1.16935e-06
1.39791e-06
1.40124e-06
1.16387e-06
1.16894e-06
1.1691e-06
1.40171e-06
1.404e-06
1.4061e-06
1.17046e-06
1.17063e-06
1.1743e-06
1.17405e-06
1.40428e-06
1.406e-06
1.17021e-06
1.17061e-06
1.17416e-06
1.17465e-06
1.1708e-06
1.17406e-06
1.17415e-06
1.40409e-06
1.4065e-06
1.17056e-06
1.17464e-06
1.17403e-06
1.40603e-06
1.40852e-06
1.41017e-06
1.17547e-06
1.1751e-06
1.17901e-06
1.17872e-06
1.40829e-06
1.40986e-06
1.17536e-06
1.1757e-06
1.17885e-06
1.17879e-06
1.17524e-06
1.17869e-06
1.17894e-06
1.40884e-06
1.41003e-06
1.17514e-06
1.17875e-06
1.17879e-06
1.41006e-06
1.41259e-06
1.41395e-06
1.18014e-06
1.17997e-06
1.18305e-06
1.18312e-06
1.41239e-06
1.41417e-06
1.17993e-06
1.17991e-06
1.18282e-06
1.18328e-06
1.18016e-06
1.18313e-06
1.18334e-06
1.41243e-06
1.41424e-06
1.17998e-06
1.18328e-06
1.18314e-06
1.41437e-06
1.41626e-06
1.41774e-06
1.18398e-06
1.18404e-06
1.18715e-06
1.18706e-06
1.41646e-06
1.41778e-06
1.18378e-06
1.18436e-06
1.18702e-06
1.18725e-06
1.18436e-06
1.18713e-06
1.18744e-06
1.41667e-06
1.41801e-06
1.18419e-06
1.18732e-06
1.18733e-06
1.41809e-06
1.42017e-06
1.42129e-06
1.18825e-06
1.18812e-06
1.19077e-06
1.19064e-06
1.42019e-06
1.42124e-06
1.18809e-06
1.1881e-06
1.19051e-06
1.19033e-06
1.18833e-06
1.19056e-06
1.19025e-06
1.42028e-06
1.42083e-06
1.18819e-06
1.19024e-06
1.19001e-06
1.42085e-06
1.42331e-06
1.1913e-06
1.1912e-06
1.42327e-06
1.19104e-06
1.19102e-06
1.19083e-06
1.42293e-06
1.19059e-06
4.10593e-06
9.07883e-06
4.04541e-06
9.24536e-06
1.84168e-05
1.85281e-05
4.07749e-06
9.05743e-06
4.02206e-06
9.21596e-06
3.03822e-07
3.16368e-07
3.96058e-07
3.31258e-07
3.65431e-07
3.5044e-07
2.0988e-06
3.4369e-06
5.32426e-07
8.4729e-07
2.07851e-06
3.45818e-06
5.40973e-07
1.83809e-05
2.07575e-06
5.3285e-07
8.45879e-07
2.05526e-06
5.38966e-07
3.39429e-06
5.43703e-06
5.43462e-06
1.17741e-06
5.48369e-06
5.47257e-06
4.18359e-06
9.41051e-06
4.16673e-06
9.42767e-06
1.86044e-05
1.86437e-05
4.2139e-06
9.41838e-06
4.18489e-06
9.45315e-06
3.49692e-07
3.90903e-07
3.64712e-07
4.29507e-07
3.98972e-07
4.33703e-07
4.03164e-07
2.17283e-06
3.51101e-06
5.94909e-07
9.53706e-07
2.13856e-06
3.56317e-06
6.17356e-07
1.87671e-05
1.8938e-05
2.20623e-06
6.18311e-07
3.56661e-06
1.00397e-06
2.1577e-06
6.45679e-07
3.65755e-06
5.54256e-06
5.55057e-06
1.24937e-06
5.5837e-06
5.60921e-06
4.17623e-06
9.33612e-06
4.19048e-06
9.25315e-06
1.86898e-05
1.86804e-05
4.15914e-06
9.34422e-06
4.19956e-06
9.22916e-06
4.07594e-07
4.33484e-07
4.10398e-07
3.68768e-07
4.03391e-07
3.78915e-07
4.11378e-07
2.21979e-06
3.62621e-06
6.71103e-07
9.968e-07
2.21818e-06
3.62817e-06
6.77512e-07
1.8862e-05
1.85715e-05
2.20495e-06
6.87081e-07
3.68364e-06
9.66553e-07
2.22979e-06
6.86008e-07
3.61247e-06
5.65989e-06
5.67008e-06
1.28669e-06
5.67285e-06
5.66805e-06
4.06827e-06
9.11247e-06
4.10873e-06
9.0637e-06
1.83912e-05
1.82445e-05
4.05778e-06
9.08921e-06
4.08451e-06
9.06029e-06
3.86821e-07
3.59992e-07
3.99459e-07
3.37815e-07
3.46756e-07
3.31702e-07
3.54447e-07
2.11922e-06
3.53029e-06
6.6081e-07
9.05015e-07
2.16414e-06
3.44759e-06
6.41341e-07
1.81356e-05
1.80718e-05
2.09833e-06
6.32358e-07
3.44268e-06
8.52591e-07
2.13296e-06
6.15744e-07
3.37461e-06
5.54104e-06
5.52198e-06
1.16862e-06
5.42245e-06
5.41579e-06
4.05555e-06
9.07023e-06
4.04275e-06
9.13239e-06
1.82111e-05
1.83165e-05
4.07391e-06
9.08962e-06
4.05229e-06
9.15045e-06
3.39573e-07
3.32313e-07
3.44307e-07
3.75384e-07
3.41349e-07
3.82812e-07
3.37942e-07
2.09017e-06
3.38682e-06
6.02804e-07
8.68988e-07
2.08338e-06
3.39451e-06
5.99422e-07
1.82471e-05
1.84449e-05
2.10473e-06
5.96732e-07
3.36548e-06
9.02741e-07
2.08548e-06
6.00034e-07
3.41581e-06
5.31917e-06
5.33267e-06
1.11407e-06
5.31543e-06
5.33949e-06
4.13317e-06
9.24722e-06
4.10295e-06
9.29828e-06
1.85001e-05
1.86037e-05
4.14365e-06
9.25578e-06
4.12038e-06
9.30208e-06
3.56253e-07
4.03293e-07
3.45218e-07
4.38679e-07
4.15329e-07
4.49498e-07
4.06702e-07
2.16525e-06
3.46094e-06
6.23661e-07
9.56121e-07
2.13313e-06
3.50531e-06
6.45642e-07
1.86741e-05
1.87469e-05
2.18166e-06
6.57742e-07
3.52472e-06
1.006e-06
2.15423e-06
6.78252e-07
3.5663e-06
5.398e-06
5.41579e-06
1.21409e-06
5.46781e-06
5.47411e-06
4.17669e-06
9.33661e-06
4.16751e-06
9.34228e-06
1.8696e-05
1.87277e-05
4.16955e-06
9.33436e-06
4.16471e-06
9.33753e-06
4.34268e-07
4.56672e-07
4.27076e-07
4.6454e-07
4.71183e-07
4.62565e-07
4.6982e-07
2.22121e-06
3.57023e-06
7.11611e-07
1.03912e-06
2.20736e-06
3.58942e-06
7.29904e-07
1.87409e-05
1.8706e-05
2.21758e-06
7.2559e-07
3.59662e-06
1.02854e-06
2.21029e-06
7.33197e-07
3.59588e-06
5.56127e-06
5.55741e-06
1.30562e-06
5.58769e-06
5.58359e-06
4.17375e-06
9.33502e-06
4.17799e-06
9.32811e-06
1.87257e-05
1.87091e-05
4.17174e-06
9.3332e-06
4.17243e-06
9.33004e-06
4.75929e-07
4.62781e-07
4.75223e-07
4.70358e-07
4.78675e-07
4.63411e-07
4.77792e-07
2.22407e-06
3.59814e-06
7.55302e-07
1.05291e-06
2.22704e-06
3.59184e-06
7.57012e-07
1.86586e-05
1.86526e-05
2.22004e-06
7.42717e-07
3.5841e-06
1.0329e-06
2.22096e-06
7.44376e-07
3.57493e-06
5.59826e-06
5.59531e-06
1.30962e-06
5.58594e-06
5.58512e-06
4.16205e-06
9.31734e-06
4.16636e-06
9.31503e-06
1.86715e-05
1.86592e-05
4.16282e-06
9.32267e-06
4.16702e-06
9.31994e-06
4.7757e-07
4.63828e-07
4.76609e-07
4.74581e-07
4.74722e-07
4.68365e-07
4.75344e-07
2.21452e-06
3.57732e-06
7.55844e-07
1.04484e-06
2.21718e-06
3.56836e-06
7.55211e-07
1.86461e-05
1.86438e-05
2.21365e-06
7.48441e-07
3.5641e-06
1.03925e-06
2.216e-06
7.49675e-07
3.55841e-06
5.55559e-06
5.55974e-06
1.29865e-06
5.54119e-06
5.5462e-06
4.15884e-06
9.31542e-06
4.15853e-06
9.31954e-06
1.86444e-05
1.86476e-05
4.15901e-06
9.31756e-06
4.15883e-06
9.32003e-06
4.74617e-07
4.7113e-07
4.75709e-07
4.83555e-07
4.80238e-07
4.8333e-07
4.84491e-07
2.217e-06
3.56222e-06
7.55946e-07
1.04742e-06
2.21459e-06
3.56143e-06
7.5895e-07
1.86393e-05
1.86546e-05
2.21673e-06
7.56971e-07
3.55658e-06
1.05137e-06
2.21363e-06
7.61266e-07
3.56021e-06
5.53769e-06
5.54053e-06
1.30496e-06
5.54567e-06
5.54837e-06
4.16754e-06
9.32957e-06
4.1636e-06
9.3368e-06
1.86715e-05
1.86908e-05
4.16814e-06
9.33018e-06
4.16438e-06
9.33762e-06
4.84424e-07
4.88124e-07
4.8822e-07
4.9801e-07
4.97291e-07
5.00292e-07
4.98645e-07
2.22682e-06
3.56851e-06
7.74147e-07
1.06571e-06
2.22324e-06
3.57243e-06
7.79532e-07
1.86882e-05
1.87002e-05
2.2278e-06
7.77679e-07
3.57394e-06
1.06929e-06
2.22447e-06
7.82955e-07
3.57659e-06
5.55964e-06
5.56201e-06
1.31659e-06
5.56004e-06
5.56181e-06
4.17171e-06
9.34343e-06
4.17106e-06
9.34912e-06
1.87017e-05
1.87067e-05
4.17084e-06
9.34426e-06
4.17049e-06
9.3498e-06
5.01255e-07
5.03173e-07
5.01708e-07
5.13521e-07
5.1181e-07
5.11894e-07
5.11074e-07
2.2309e-06
3.57564e-06
7.93108e-07
1.0781e-06
2.23006e-06
3.57519e-06
7.96347e-07
1.87009e-05
1.87034e-05
2.23052e-06
7.93443e-07
3.57636e-06
1.07763e-06
2.22991e-06
7.95916e-07
3.57458e-06
5.55176e-06
5.55267e-06
1.3227e-06
5.54833e-06
5.54939e-06
4.17767e-06
9.36081e-06
4.17398e-06
9.37092e-06
1.87207e-05
1.87433e-05
4.17822e-06
9.36188e-06
4.17364e-06
9.3727e-06
5.15616e-07
5.15666e-07
5.14943e-07
5.28575e-07
5.28842e-07
5.28912e-07
5.2836e-07
2.23891e-06
3.57802e-06
8.06523e-07
1.0913e-06
2.23459e-06
3.58277e-06
8.10978e-07
1.87246e-05
1.87496e-05
2.23939e-06
8.06247e-07
3.57831e-06
1.09139e-06
2.23465e-06
8.10938e-07
3.58403e-06
5.55696e-06
5.55881e-06
1.33436e-06
5.56566e-06
5.56777e-06
4.18705e-06
9.3825e-06
4.18404e-06
9.38864e-06
1.87706e-05
1.87848e-05
4.18702e-06
9.38437e-06
4.18463e-06
9.39001e-06
5.33257e-07
5.33201e-07
5.32747e-07
5.42583e-07
5.4462e-07
5.44408e-07
5.44291e-07
2.25042e-06
3.59427e-06
8.25296e-07
1.10732e-06
2.24696e-06
3.59726e-06
8.29548e-07
1.87718e-05
1.87822e-05
2.25025e-06
8.25411e-07
3.59419e-06
1.1068e-06
2.2473e-06
8.2947e-07
3.59617e-06
5.57671e-06
5.57855e-06
1.34893e-06
5.57905e-06
5.58068e-06
4.19194e-06
9.39707e-06
4.19003e-06
9.40452e-06
1.8796e-05
1.88049e-05
4.19183e-06
9.39808e-06
4.1896e-06
9.40568e-06
5.47839e-07
5.47802e-07
5.47741e-07
5.56833e-07
5.56711e-07
5.57361e-07
5.57368e-07
2.25548e-06
3.60032e-06
8.3982e-07
1.11678e-06
2.25385e-06
3.60089e-06
8.42807e-07
1.87948e-05
1.88081e-05
2.25551e-06
8.39704e-07
3.59928e-06
1.1172e-06
2.25349e-06
8.42866e-07
3.60109e-06
5.58268e-06
5.58416e-06
1.35744e-06
5.58507e-06
5.58673e-06
4.19749e-06
9.41518e-06
4.19518e-06
9.42261e-06
1.88171e-05
1.88293e-05
4.198e-06
9.41674e-06
4.19568e-06
9.42422e-06
5.59631e-07
5.60339e-07
5.60335e-07
5.7034e-07
5.69106e-07
5.6915e-07
5.68855e-07
2.26089e-06
3.60397e-06
8.51397e-07
1.12604e-06
2.25881e-06
3.60554e-06
8.54382e-07
1.8823e-05
1.8833e-05
2.26136e-06
8.51983e-07
3.60568e-06
1.12659e-06
2.25936e-06
8.54894e-07
3.60681e-06
5.59024e-06
5.5922e-06
1.36496e-06
5.59164e-06
5.59359e-06
4.2037e-06
9.43315e-06
4.20144e-06
9.43997e-06
1.88476e-05
1.8861e-05
4.20329e-06
9.43446e-06
4.20136e-06
9.44107e-06
5.72401e-07
5.72112e-07
5.71715e-07
5.81469e-07
5.81359e-07
5.8076e-07
5.80603e-07
2.26651e-06
3.61041e-06
8.63658e-07
1.1362e-06
2.26451e-06
3.6125e-06
8.66675e-07
1.88459e-05
1.88574e-05
2.26595e-06
8.63439e-07
3.60952e-06
1.1352e-06
2.26429e-06
8.66194e-07
3.61077e-06
5.59403e-06
5.59563e-06
1.37171e-06
5.59528e-06
5.59673e-06
4.20632e-06
9.44534e-06
4.20568e-06
9.44918e-06
1.88712e-05
1.8879e-05
4.20631e-06
9.4465e-06
4.20528e-06
9.45048e-06
5.83955e-07
5.8361e-07
5.83648e-07
5.91467e-07
5.91849e-07
5.92618e-07
5.92846e-07
2.27097e-06
3.6154e-06
8.74526e-07
1.14348e-06
2.26954e-06
3.61567e-06
8.76981e-07
1.88698e-05
1.88816e-05
2.27096e-06
8.74219e-07
3.61399e-06
1.14386e-06
2.26908e-06
8.76973e-07
3.61541e-06
5.59936e-06
5.60093e-06
1.37981e-06
5.60249e-06
5.60434e-06
4.2118e-06
9.45785e-06
4.20879e-06
9.46685e-06
1.88959e-05
1.89131e-05
4.21239e-06
9.45951e-06
4.20934e-06
9.46858e-06
5.9475e-07
5.95701e-07
5.95836e-07
6.0336e-07
6.0358e-07
6.04159e-07
6.03951e-07
2.27648e-06
3.61936e-06
8.84892e-07
1.15229e-06
2.27426e-06
3.62212e-06
8.87705e-07
1.89025e-05
1.89178e-05
2.27711e-06
8.85675e-07
3.62108e-06
1.1533e-06
2.27487e-06
8.88455e-07
3.62375e-06
5.6109e-06
5.61293e-06
1.38777e-06
5.61366e-06
5.61558e-06
4.21751e-06
9.47786e-06
4.21622e-06
9.48325e-06
1.89284e-05
1.89368e-05
4.21741e-06
9.4792e-06
4.2163e-06
9.48442e-06
6.06259e-07
6.06593e-07
6.06343e-07
6.137e-07
6.13436e-07
6.13247e-07
6.13287e-07
2.28066e-06
3.62649e-06
8.95077e-07
1.15958e-06
2.27977e-06
3.62694e-06
8.97098e-07
1.89298e-05
1.89373e-05
2.28056e-06
8.95271e-07
3.62677e-06
1.1594e-06
2.2799e-06
8.971e-07
3.6268e-06
5.61561e-06
5.61727e-06
1.39301e-06
5.61555e-06
5.61717e-06
4.22035e-06
9.48972e-06
4.2189e-06
9.49567e-06
1.89482e-05
1.89619e-05
4.22027e-06
9.49101e-06
4.21877e-06
9.497e-06
6.15781e-07
6.15492e-07
6.15709e-07
6.22931e-07
6.23086e-07
6.22787e-07
6.23136e-07
2.28391e-06
3.62881e-06
9.02865e-07
1.16574e-06
2.28253e-06
3.63039e-06
9.05013e-07
1.89485e-05
1.89611e-05
2.2837e-06
9.02633e-07
3.62834e-06
1.16528e-06
2.28233e-06
9.04725e-07
3.62975e-06
5.61917e-06
5.62079e-06
1.39853e-06
5.623e-06
5.62463e-06
4.22546e-06
9.50513e-06
4.22379e-06
9.51109e-06
1.89788e-05
1.89887e-05
4.22542e-06
9.5064e-06
4.22362e-06
9.51241e-06
6.2543e-07
6.25284e-07
6.25467e-07
6.31648e-07
6.31618e-07
6.32047e-07
6.31667e-07
2.28823e-06
3.63505e-06
9.11399e-07
1.17197e-06
2.28714e-06
3.63597e-06
9.1323e-07
1.8978e-05
1.89902e-05
2.28822e-06
9.11311e-07
3.63428e-06
1.1722e-06
2.28698e-06
9.13287e-07
3.63568e-06
5.62882e-06
5.63054e-06
1.40421e-06
5.62955e-06
5.63135e-06
4.22781e-06
9.51734e-06
4.22708e-06
9.52227e-06
1.89979e-05
1.9008e-05
4.22818e-06
9.51883e-06
4.22734e-06
9.52382e-06
6.33524e-07
6.34025e-07
6.33622e-07
6.3966e-07
6.39447e-07
6.39683e-07
6.39659e-07
2.28993e-06
3.63706e-06
9.17716e-07
1.17619e-06
2.28952e-06
3.63738e-06
9.19212e-07
1.90024e-05
1.90116e-05
2.29023e-06
9.18166e-07
3.63786e-06
1.17666e-06
2.2898e-06
9.19619e-07
3.63818e-06
5.63042e-06
5.6323e-06
1.40786e-06
5.63163e-06
5.63352e-06
4.23151e-06
9.5304e-06
4.23003e-06
9.53632e-06
1.9024e-05
1.90357e-05
4.23136e-06
9.53183e-06
4.23011e-06
9.53756e-06
6.41459e-07
6.41579e-07
6.41656e-07
6.4698e-07
6.47099e-07
6.47241e-07
6.47246e-07
2.29293e-06
3.64055e-06
9.23977e-07
1.18111e-06
2.29197e-06
3.64177e-06
9.25532e-07
1.9024e-05
1.90352e-05
2.29278e-06
9.24034e-07
3.64025e-06
1.18102e-06
2.29198e-06
9.25489e-07
3.64123e-06
5.63713e-06
5.63879e-06
1.41238e-06
5.63892e-06
5.64052e-06
4.23424e-06
9.54295e-06
4.23349e-06
9.5476e-06
1.90469e-05
1.90571e-05
4.23442e-06
9.5442e-06
4.2334e-06
9.54903e-06
6.48851e-07
6.49097e-07
6.49063e-07
6.5409e-07
6.54145e-07
6.54379e-07
6.54473e-07
2.29508e-06
3.64377e-06
9.29572e-07
1.18504e-06
2.29463e-06
3.64422e-06
9.30879e-07
1.9049e-05
1.90606e-05
2.29527e-06
9.29724e-07
3.64397e-06
1.18541e-06
2.29464e-06
9.31092e-07
3.64488e-06
5.64127e-06
5.64296e-06
1.4162e-06
5.64304e-06
5.64489e-06
4.23792e-06
9.5555e-06
4.23643e-06
9.56205e-06
1.90721e-05
1.90839e-05
4.23799e-06
9.55705e-06
4.23672e-06
9.56345e-06
6.55925e-07
6.56018e-07
6.56156e-07
6.6081e-07
6.60793e-07
6.60591e-07
6.60538e-07
2.29752e-06
3.64728e-06
9.34798e-07
1.18912e-06
2.29684e-06
3.64846e-06
9.36021e-07
1.90744e-05
1.90835e-05
2.29746e-06
9.34914e-07
3.64759e-06
1.18889e-06
2.29697e-06
9.3599e-07
3.64816e-06
5.64849e-06
5.65027e-06
1.41974e-06
5.64973e-06
5.65142e-06
9.56916e-06
4.24006e-06
1.9095e-05
4.24031e-06
9.57035e-06
4.23982e-06
6.62206e-07
6.62055e-07
6.61905e-07
3.65032e-06
9.38948e-07
2.2986e-06
1.90936e-05
1.91041e-05
2.29841e-06
9.38799e-07
3.64942e-06
1.19156e-06
2.29832e-06
9.39703e-07
3.64985e-06
5.65086e-06
5.65246e-06
1.42185e-06
5.65144e-06
5.65312e-06
1.83049e-05
1.86869e-05
1.82818e-05
1.86624e-05
5.24563e-06
5.2386e-06
1.21299e-06
5.52848e-06
5.51769e-06
1.89829e-05
1.87791e-05
1.89831e-05
1.87589e-05
1.25475e-06
5.77075e-06
5.77417e-06
5.60587e-06
5.59708e-06
4.1033e-06
9.11105e-06
4.04344e-06
9.18659e-06
2.11396e-06
3.34567e-06
5.19442e-07
9.06682e-07
2.05413e-06
3.49643e-06
5.49958e-07
2.10991e-06
3.41535e-06
5.22335e-07
8.38582e-07
2.05398e-06
3.46636e-06
5.31338e-07
4.12212e-06
9.3923e-06
9.29082e-06
4.1579e-06
4.1187e-06
9.25372e-06
9.20442e-06
4.15184e-06
2.13423e-06
9.5164e-07
3.63917e-06
6.15211e-07
3.54477e-06
5.85045e-07
2.17825e-06
2.1289e-06
8.69263e-07
3.52798e-06
5.82949e-07
3.48418e-06
5.56069e-07
2.17201e-06
5.40034e-06
5.42284e-06
1.14049e-06
5.45768e-06
5.44813e-06
1.84264e-05
1.84946e-05
1.85954e-05
1.85414e-05
1.16187e-06
5.52681e-06
5.48411e-06
5.4755e-06
5.45617e-06
1.85314e-05
1.85005e-05
2.09338e-06
3.34125e-06
5.17073e-07
9.03022e-07
2.03842e-06
3.48323e-06
5.43809e-07
4.08038e-06
9.14214e-06
2.08665e-06
8.40182e-07
5.31677e-07
3.40024e-06
4.10229e-06
9.39245e-06
9.26778e-06
4.1685e-06
2.11608e-06
9.47929e-07
3.64154e-06
6.14516e-07
3.53403e-06
5.81017e-07
2.18429e-06
4.10598e-06
9.30447e-06
9.17733e-06
4.17091e-06
2.11011e-06
8.92103e-07
5.95162e-07
3.5533e-06
5.57443e-07
3.43218e-06
2.18178e-06
4.07668e-06
9.12341e-06
4.06122e-06
9.165e-06
2.09871e-06
5.41562e-07
3.44626e-06
8.78252e-07
2.0794e-06
5.5405e-07
3.47266e-06
4.07535e-06
9.14135e-06
4.0575e-06
9.18819e-06
2.1052e-06
8.70896e-07
3.49392e-06
5.74214e-07
3.46723e-06
5.56235e-07
2.12878e-06
4.08196e-06
9.21408e-06
9.1736e-06
4.1057e-06
2.1048e-06
8.95259e-07
5.83686e-07
3.51141e-06
5.6773e-07
3.48408e-06
2.12822e-06
4.08105e-06
9.23819e-06
9.19896e-06
4.10725e-06
1.14758e-06
5.3161e-06
5.30483e-06
1.83235e-05
1.8696e-05
1.84368e-05
1.18221e-06
5.57408e-06
5.5439e-06
5.36505e-06
5.34588e-06
1.86231e-05
1.83734e-05
2.07809e-06
5.4062e-07
3.44152e-06
8.75688e-07
2.06372e-06
5.51436e-07
3.46082e-06
4.05888e-06
4.03808e-06
9.11377e-06
4.05232e-06
9.12821e-06
4.03692e-06
9.16776e-06
2.08883e-06
8.93121e-07
5.8903e-07
3.52165e-06
5.59333e-07
3.41952e-06
2.1386e-06
2.08913e-06
8.92633e-07
5.86087e-07
3.51105e-06
5.66693e-07
3.4719e-06
2.13358e-06
4.07192e-06
9.26256e-06
9.14284e-06
4.12627e-06
4.06492e-06
9.24024e-06
9.18201e-06
4.11933e-06
1.84779e-05
1.85716e-05
1.84702e-05
1.85605e-05
1.1908e-06
5.53131e-06
5.52983e-06
5.49858e-06
5.48425e-06
1.86235e-05
1.85843e-05
1.86219e-05
1.8572e-05
1.90077e-05
1.89822e-05
1.90164e-05
1.90134e-05
5.80372e-06
5.81327e-06
1.31794e-06
5.82948e-06
5.85466e-06
1.87082e-05
1.89163e-05
1.87102e-05
1.89504e-05
1.31217e-06
5.71191e-06
5.72402e-06
5.81449e-06
5.84291e-06
4.17294e-06
9.26616e-06
4.15935e-06
9.29869e-06
2.20361e-06
3.66026e-06
6.40781e-07
1.00962e-06
2.1875e-06
3.68154e-06
6.60641e-07
2.19888e-06
3.54394e-06
6.08774e-07
9.6094e-07
2.18132e-06
3.57913e-06
6.33209e-07
4.18709e-06
9.36403e-06
9.42043e-06
4.1909e-06
4.17556e-06
9.31395e-06
9.30354e-06
4.17829e-06
2.20625e-06
1.00299e-06
3.64541e-06
6.76307e-07
3.68015e-06
6.72348e-07
2.20766e-06
2.20196e-06
9.83781e-07
3.60743e-06
6.69569e-07
3.58936e-06
6.54577e-07
2.20477e-06
5.54657e-06
5.50491e-06
1.26056e-06
5.59415e-06
5.57734e-06
1.85414e-05
1.86199e-05
1.86821e-05
1.86479e-05
1.27916e-06
5.65422e-06
5.66135e-06
5.60923e-06
5.60237e-06
1.87e-05
1.86354e-05
2.23134e-06
3.66736e-06
6.44094e-07
1.01108e-06
2.20226e-06
3.6983e-06
6.67885e-07
4.20961e-06
9.34141e-06
4.18547e-06
9.41601e-06
2.23248e-06
6.29531e-07
3.59583e-06
1.01295e-06
2.20143e-06
6.59301e-07
3.67347e-06
4.21737e-06
9.38164e-06
9.45024e-06
4.20849e-06
2.23384e-06
1.00672e-06
3.65438e-06
6.8651e-07
3.69763e-06
6.82208e-07
2.22232e-06
4.21207e-06
9.42497e-06
9.42703e-06
4.20294e-06
2.23499e-06
1.02785e-06
6.92478e-07
3.68743e-06
6.81514e-07
3.6878e-06
2.22262e-06
4.15443e-06
9.23009e-06
4.11655e-06
9.28877e-06
2.17205e-06
6.01985e-07
3.52388e-06
9.50478e-07
2.13788e-06
6.21523e-07
3.56409e-06
4.15591e-06
9.24978e-06
4.11784e-06
9.29577e-06
2.18471e-06
9.76965e-07
3.6172e-06
6.58246e-07
3.58232e-06
6.39487e-07
2.21273e-06
4.16658e-06
9.33401e-06
9.30253e-06
4.19129e-06
2.18399e-06
9.68394e-07
6.56938e-07
3.61463e-06
6.40455e-07
3.58053e-06
2.21302e-06
4.16769e-06
9.34071e-06
9.3091e-06
4.19321e-06
5.64115e-06
5.6169e-06
1.33126e-06
5.79091e-06
5.77493e-06
1.87015e-05
1.8896e-05
1.89373e-05
1.89629e-05
1.34137e-06
5.83256e-06
5.83292e-06
5.82119e-06
5.80884e-06
1.89333e-05
1.89287e-05
2.19951e-06
6.0835e-07
3.52987e-06
9.54022e-07
2.15159e-06
6.31514e-07
3.58311e-06
4.18776e-06
9.30087e-06
4.14535e-06
9.38945e-06
4.18343e-06
9.25966e-06
4.13884e-06
9.3182e-06
2.21706e-06
1.0187e-06
6.82219e-07
3.69178e-06
6.68217e-07
3.67698e-06
2.2304e-06
2.21126e-06
9.7362e-07
6.69053e-07
3.62375e-06
6.52703e-07
3.59783e-06
2.228e-06
4.19788e-06
9.42221e-06
9.40616e-06
4.2114e-06
4.19379e-06
9.35081e-06
9.33104e-06
4.20709e-06
1.86267e-05
1.86553e-05
1.86332e-05
1.86823e-05
1.26465e-06
5.6467e-06
5.6616e-06
5.6017e-06
5.62489e-06
1.86964e-05
1.8663e-05
1.8705e-05
1.8687e-05
1.86185e-05
1.84178e-05
1.86022e-05
1.83574e-05
5.66852e-06
5.66924e-06
1.18841e-06
5.53471e-06
5.50536e-06
1.82294e-05
1.83524e-05
1.81779e-05
1.82881e-05
1.18005e-06
5.37666e-06
5.3468e-06
5.49168e-06
5.45726e-06
4.17037e-06
9.31573e-06
4.1784e-06
9.31116e-06
2.19316e-06
3.62886e-06
6.75828e-07
9.32074e-07
2.20607e-06
3.56833e-06
6.69765e-07
2.19237e-06
3.61289e-06
6.77044e-07
9.98124e-07
2.20407e-06
3.60879e-06
6.78626e-07
4.16708e-06
9.13766e-06
9.22113e-06
4.125e-06
4.16398e-06
9.22737e-06
9.29678e-06
4.13099e-06
2.18574e-06
9.13004e-07
3.47738e-06
6.43278e-07
3.54648e-06
6.56434e-07
2.15584e-06
2.18555e-06
9.82397e-07
3.54383e-06
6.6454e-07
3.60016e-06
6.76305e-07
2.15728e-06
5.66881e-06
5.6788e-06
1.27533e-06
5.67282e-06
5.6925e-06
1.87121e-05
1.8713e-05
1.84683e-05
1.86392e-05
1.26849e-06
5.54407e-06
5.5629e-06
5.65484e-06
5.67787e-06
1.84806e-05
1.86727e-05
2.17862e-06
3.6321e-06
6.84901e-07
9.31733e-07
2.21338e-06
3.5509e-06
6.73383e-07
4.15907e-06
9.40195e-06
4.19502e-06
9.29807e-06
2.17733e-06
6.93727e-07
3.67261e-06
9.66152e-07
2.21332e-06
6.87229e-07
3.5919e-06
4.1424e-06
9.10902e-06
9.19142e-06
4.0974e-06
2.16487e-06
9.09968e-07
3.45412e-06
6.361e-07
3.52517e-06
6.53586e-07
2.12661e-06
4.14355e-06
9.12754e-06
9.25009e-06
4.10134e-06
2.16349e-06
9.24296e-07
6.40926e-07
3.46168e-06
6.64733e-07
3.55783e-06
2.12462e-06
4.19666e-06
9.33928e-06
4.19643e-06
9.34001e-06
2.2214e-06
6.69283e-07
3.6232e-06
9.94777e-07
2.21882e-06
6.76406e-07
3.62792e-06
4.19861e-06
9.34527e-06
4.19827e-06
9.34389e-06
2.21332e-06
9.86598e-07
3.55724e-06
6.75303e-07
3.61905e-06
6.78556e-07
2.17861e-06
4.19023e-06
9.24594e-06
9.32638e-06
4.1517e-06
2.21549e-06
9.92814e-07
6.76888e-07
3.57267e-06
6.78464e-07
3.6224e-06
2.18112e-06
4.1917e-06
9.2623e-06
9.33061e-06
4.15318e-06
5.80189e-06
5.81182e-06
1.22102e-06
5.63426e-06
5.66136e-06
1.88729e-05
1.86016e-05
1.8196e-05
1.84509e-05
1.20378e-06
5.37359e-06
5.38807e-06
5.56381e-06
5.59079e-06
1.8189e-05
1.8476e-05
2.20798e-06
6.79224e-07
3.62795e-06
9.98261e-07
2.22833e-06
6.8308e-07
3.62006e-06
4.18862e-06
9.41226e-06
4.21135e-06
9.32052e-06
4.18512e-06
9.3509e-06
4.20696e-06
9.32888e-06
2.19246e-06
9.26759e-07
6.52648e-07
3.47309e-06
6.75468e-07
3.57942e-06
2.14832e-06
2.19659e-06
9.94305e-07
6.74961e-07
3.55454e-06
6.82527e-07
3.61091e-06
2.15438e-06
4.17569e-06
9.12987e-06
9.27282e-06
4.12116e-06
4.17352e-06
9.23532e-06
9.30899e-06
4.1243e-06
1.87008e-05
1.86944e-05
1.87052e-05
1.86756e-05
1.28372e-06
5.58258e-06
5.56141e-06
5.66424e-06
5.65309e-06
1.8526e-05
1.86646e-05
1.84878e-05
1.86353e-05
1.81973e-05
1.81664e-05
1.8159e-05
1.81664e-05
5.34707e-06
5.32413e-06
1.11408e-06
5.28898e-06
5.2878e-06
1.82413e-05
1.81681e-05
1.82792e-05
1.81798e-05
1.11618e-06
5.29606e-06
5.31197e-06
5.28281e-06
5.28679e-06
4.07904e-06
9.19391e-06
4.11648e-06
9.11183e-06
2.1115e-06
3.45683e-06
6.30785e-07
8.7651e-07
2.14353e-06
3.40676e-06
6.19676e-07
2.11443e-06
3.52088e-06
6.46575e-07
9.00501e-07
2.14565e-06
3.45274e-06
6.30545e-07
4.05829e-06
9.05893e-06
9.05552e-06
4.04339e-06
4.069e-06
9.06266e-06
9.09146e-06
4.05126e-06
2.10334e-06
8.74433e-07
3.38735e-06
6.0668e-07
3.39746e-06
6.11256e-07
2.09153e-06
2.10656e-06
8.82062e-07
3.40612e-06
6.06423e-07
3.43689e-06
6.16769e-07
2.09468e-06
5.49811e-06
5.50981e-06
1.14463e-06
5.37871e-06
5.36858e-06
1.83889e-05
1.82052e-05
1.81991e-05
1.82127e-05
1.13778e-06
5.30447e-06
5.27986e-06
5.35015e-06
5.33443e-06
1.81421e-05
1.81652e-05
2.09491e-06
3.43723e-06
6.20914e-07
8.69553e-07
2.11583e-06
3.39981e-06
6.086e-07
4.06068e-06
9.09515e-06
4.08868e-06
9.03769e-06
2.0943e-06
6.21266e-07
3.4363e-06
8.5006e-07
2.11412e-06
6.0584e-07
3.38256e-06
4.05224e-06
9.07758e-06
9.058e-06
4.04923e-06
2.09155e-06
8.67669e-07
3.39429e-06
5.97553e-07
3.39485e-06
6.00604e-07
2.09279e-06
4.05416e-06
9.04918e-06
9.03088e-06
4.04848e-06
2.09123e-06
8.45826e-07
5.92305e-07
3.37297e-06
5.95838e-07
3.37375e-06
2.09323e-06
4.0794e-06
9.20592e-06
4.13398e-06
9.10268e-06
2.12102e-06
6.66617e-07
3.55082e-06
9.22959e-07
2.16651e-06
6.47057e-07
3.47179e-06
4.0807e-06
9.2275e-06
4.13507e-06
9.13006e-06
2.10673e-06
8.85239e-07
3.39039e-06
6.11584e-07
3.42755e-06
6.24794e-07