/*--------------------------------*- C++ -*----------------------------------*\
| =========                 |                                                 |
| \\      /  F ield         | OpenFOAM: The Open Source CFD Toolbox           |
|  \\    /   O peration     | Version:  2312                                  |
|   \\  /    A nd           | Website:  www.openfoam.com                      |
|    \\/     M anipulation  |                                                 |
\*---------------------------------------------------------------------------*/
FoamFile
{
    version     2.0;
    format      ascii;
    arch        "LSB;label=32;scalar=64";
    class       volScalarField;
    location    "1000";
    object      k;
}
// * * * * * * * * * * * * * * * * * * * * * * * * * * * * * * * * * * * * * //

dimensions      [0 2 -2 0 0 0 0];

internalField   nonuniform List<scalar> 
42973
(
1.98828e-05
3.55675e-05
3.77481e-05
1.92723e-05
3.50878e-05
3.45029e-05
4.31404e-05
2.84312e-05
4.08158e-05
4.4412e-05
4.59848e-05
2.92793e-05
4.4216e-05
4.58247e-05
4.93402e-05
2.28738e-05
3.97191e-05
3.61473e-05
4.44007e-05
2.08156e-05
3.60884e-05
3.54397e-05
3.99136e-05
2.49186e-05
3.92793e-05
4.31403e-05
4.34312e-05
2.87142e-05
4.4478e-05
4.47461e-05
4.86356e-05
2.9496e-05
4.53859e-05
4.43654e-05
4.90825e-05
2.93514e-05
4.47924e-05
4.41246e-05
4.81226e-05
2.92541e-05
4.44492e-05
4.43179e-05
4.8106e-05
2.97759e-05
4.51833e-05
4.55256e-05
4.89001e-05
3.05214e-05
4.572e-05
4.57603e-05
4.89307e-05
3.13505e-05
4.62918e-05
4.62958e-05
4.95021e-05
3.21184e-05
4.71528e-05
4.71025e-05
5.01688e-05
3.286e-05
4.761e-05
4.76234e-05
5.05502e-05
3.36027e-05
4.79916e-05
4.8053e-05
5.08975e-05
3.43528e-05
4.85657e-05
4.84925e-05
5.11784e-05
3.48555e-05
4.88673e-05
4.88634e-05
5.15437e-05
3.54321e-05
4.9368e-05
4.94373e-05
5.19977e-05
3.61064e-05
4.97578e-05
4.97599e-05
5.22021e-05
3.66432e-05
5.0086e-05
5.00529e-05
5.24999e-05
3.71859e-05
5.04877e-05
5.04819e-05
5.28089e-05
3.76618e-05
5.07098e-05
5.07461e-05
5.29793e-05
3.81426e-05
5.10431e-05
5.1025e-05
5.32533e-05
3.85525e-05
5.12804e-05
5.13115e-05
5.34514e-05
3.90185e-05
5.15871e-05
5.15733e-05
5.36952e-05
3.33968e-05
4.0926e-05
3.18827e-05
3.54705e-05
3.27994e-05
3.4638e-05
3.97317e-05
4.0153e-05
3.18727e-05
3.26191e-05
3.40614e-05
3.40889e-05
3.50159e-05
3.61037e-05
3.83184e-05
3.42685e-05
3.42736e-05
3.60013e-05
4.25367e-05
4.36742e-05
5.23011e-05
3.67e-05
3.47353e-05
4.50298e-05
3.95064e-05
4.04964e-05
4.53078e-05
3.63198e-05
3.43039e-05
4.50614e-05
4.25864e-05
3.71088e-05
3.91876e-05
3.99526e-05
3.84378e-05
4.9697e-05
3.68083e-05
4.21789e-05
4.00606e-05
4.5294e-05
5.2558e-05
4.75435e-05
4.58067e-05
4.12101e-05
4.5207e-05
4.41697e-05
4.62436e-05
4.96956e-05
4.60013e-05
4.49636e-05
4.55363e-05
4.67056e-05
4.10116e-05
4.39914e-05
4.36285e-05
5.10958e-05
5.20869e-05
4.12609e-05
4.62942e-05
4.39354e-05
4.90871e-05
4.62147e-05
4.01664e-05
4.31483e-05
4.43044e-05
3.78189e-05
4.14713e-05
4.9816e-05
4.399e-05
4.3427e-05
4.60856e-05
3.76077e-05
3.78707e-05
4.40054e-05
4.19091e-05
4.29452e-05
5.0597e-05
3.88065e-05
4.42209e-05
3.80218e-05
4.26696e-05
4.54337e-05
3.9915e-05
4.05208e-05
3.68315e-05
3.93941e-05
3.60382e-05
3.62637e-05
4.29284e-05
3.95302e-05
3.65784e-05
3.60473e-05
3.57811e-05
3.48943e-05
4.08323e-05
3.63217e-05
3.68643e-05
3.79296e-05
3.93827e-05
4.04767e-05
3.48881e-05
3.67209e-05
3.99998e-05
4.13237e-05
4.63117e-05
3.63553e-05
3.60794e-05
4.08597e-05
3.76344e-05
3.96139e-05
4.33933e-05
3.61419e-05
3.55217e-05
4.11763e-05
4.21834e-05
3.63516e-05
3.72768e-05
3.65625e-05
4.0933e-05
4.76875e-05
3.62819e-05
4.1815e-05
3.66875e-05
4.21555e-05
4.69631e-05
4.82761e-05
4.20634e-05
3.96811e-05
4.4121e-05
4.38159e-05
4.45302e-05
4.8227e-05
4.2416e-05
4.3466e-05
4.42712e-05
4.479e-05
3.79466e-05
4.36904e-05
4.3464e-05
4.82953e-05
4.88115e-05
3.83716e-05
4.46813e-05
4.3644e-05
4.81898e-05
4.83613e-05
4.82768e-05
4.4415e-05
4.45177e-05
4.46886e-05
4.52954e-05
4.86274e-05
4.9133e-05
4.44811e-05
4.48144e-05
4.46254e-05
4.4413e-05
4.44012e-05
4.53713e-05
4.53623e-05
4.87518e-05
4.79144e-05
4.44755e-05
4.44846e-05
4.52793e-05
4.91114e-05
4.82882e-05
4.81087e-05
4.46891e-05
4.53065e-05
4.4586e-05
4.49323e-05
4.91342e-05
4.83281e-05
4.46139e-05
4.42897e-05
4.4515e-05
4.41238e-05
4.53637e-05
4.49796e-05
4.48602e-05
4.79152e-05
4.77081e-05
4.52762e-05
4.41699e-05
4.47874e-05
4.81422e-05
4.8126e-05
4.81522e-05
4.45559e-05
4.47677e-05
4.45443e-05
4.4468e-05
4.82994e-05
4.79239e-05
4.44947e-05
4.40957e-05
4.45091e-05
4.41698e-05
4.46783e-05
4.44653e-05
4.45013e-05
4.77237e-05
4.78017e-05
4.46204e-05
4.41421e-05
4.44625e-05
4.79971e-05
4.82303e-05
4.85654e-05
4.45974e-05
4.44518e-05
4.50616e-05
4.48141e-05
4.79443e-05
4.84538e-05
4.46041e-05
4.43958e-05
4.51014e-05
4.52733e-05
4.45167e-05
4.48105e-05
4.51888e-05
4.79735e-05
4.88056e-05
4.44846e-05
4.52868e-05
4.5232e-05
4.87894e-05
4.86608e-05
4.89378e-05
4.52143e-05
4.51688e-05
4.56281e-05
4.56755e-05
4.86698e-05
4.89933e-05
4.52512e-05
4.54981e-05
4.56175e-05
4.57222e-05
4.54265e-05
4.56848e-05
4.56509e-05
4.89345e-05
4.8995e-05
4.54655e-05
4.57574e-05
4.56695e-05
4.89145e-05
4.90486e-05
4.95413e-05
4.57746e-05
4.57249e-05
4.62918e-05
4.60848e-05
4.90303e-05
4.92963e-05
4.57507e-05
4.57309e-05
4.62803e-05
4.60491e-05
4.56653e-05
4.60589e-05
4.60417e-05
4.90092e-05
4.93069e-05
4.56768e-05
4.59961e-05
4.60064e-05
4.9305e-05
4.96693e-05
4.99588e-05
4.64627e-05
4.63116e-05
4.68639e-05
4.69788e-05
4.9472e-05
5.01209e-05
4.6462e-05
4.63339e-05
4.68668e-05
4.69583e-05
4.6298e-05
4.69886e-05
4.69423e-05
4.95131e-05
5.0088e-05
4.62853e-05
4.69649e-05
4.69436e-05
5.00706e-05
5.00351e-05
5.03506e-05
4.69816e-05
4.71377e-05
4.73945e-05
4.74965e-05
5.02333e-05
5.04608e-05
4.69787e-05
4.70889e-05
4.73825e-05
4.74759e-05
4.70942e-05
4.75093e-05
4.74929e-05
5.01758e-05
5.04458e-05
4.7091e-05
4.74883e-05
4.74811e-05
5.04533e-05
5.04611e-05
5.0822e-05
4.75368e-05
4.75984e-05
4.79316e-05
4.78709e-05
5.05306e-05
5.07453e-05
4.75273e-05
4.76124e-05
4.7936e-05
4.79436e-05
4.76235e-05
4.78816e-05
4.79559e-05
5.05471e-05
5.08237e-05
4.76141e-05
4.79544e-05
4.79608e-05
5.08257e-05
5.09256e-05
5.1272e-05
4.80726e-05
4.79839e-05
4.85057e-05
4.84414e-05
5.0831e-05
5.12091e-05
4.80793e-05
4.80449e-05
4.8504e-05
4.83997e-05
4.80502e-05
4.84318e-05
4.83518e-05
5.08969e-05
5.1143e-05
4.80576e-05
4.83898e-05
4.83502e-05
5.11027e-05
5.13441e-05
5.14546e-05
4.86153e-05
4.85796e-05
4.88025e-05
4.88095e-05
5.13087e-05
5.14726e-05
4.86075e-05
4.85073e-05
4.8787e-05
4.8761e-05
4.84577e-05
4.88004e-05
4.87756e-05
5.12241e-05
5.14295e-05
4.84497e-05
4.87527e-05
4.87609e-05
5.14483e-05
5.15037e-05
5.17902e-05
4.88608e-05
4.88683e-05
4.91853e-05
4.92019e-05
5.15229e-05
5.18117e-05
4.88496e-05
4.88635e-05
4.91912e-05
4.92812e-05
4.88951e-05
4.92218e-05
4.93009e-05
5.151e-05
5.19004e-05
4.88849e-05
4.93002e-05
4.93066e-05
5.19104e-05
5.1898e-05
5.21862e-05
4.93273e-05
4.93473e-05
4.96858e-05
4.96865e-05
5.19228e-05
5.21852e-05
4.9334e-05
4.94176e-05
4.9685e-05
4.96976e-05
4.94245e-05
4.96934e-05
4.96708e-05
5.20015e-05
5.21886e-05
4.94309e-05
4.97049e-05
4.9671e-05
5.21557e-05
5.22489e-05
5.24309e-05
4.97703e-05
4.9757e-05
5.00089e-05
4.99818e-05
5.22378e-05
5.24068e-05
4.97682e-05
4.97587e-05
5.00047e-05
4.99617e-05
4.97286e-05
4.9977e-05
4.9977e-05
5.22333e-05
5.23803e-05
4.97272e-05
4.99565e-05
4.99731e-05
5.24082e-05
5.25039e-05
5.27325e-05
5.01023e-05
5.00875e-05
5.03844e-05
5.04052e-05
5.249e-05
5.27609e-05
5.00962e-05
5.00547e-05
5.03747e-05
5.03776e-05
5.00928e-05
5.04139e-05
5.04103e-05
5.24566e-05
5.27416e-05
5.0087e-05
5.03863e-05
5.04012e-05
5.27567e-05
5.27926e-05
5.29481e-05
5.04626e-05
5.04793e-05
5.06622e-05
5.06404e-05
5.28168e-05
5.29249e-05
5.04547e-05
5.04735e-05
5.06649e-05
5.06834e-05
5.04786e-05
5.06422e-05
5.06386e-05
5.28141e-05
5.2967e-05
5.04713e-05
5.06851e-05
5.06415e-05
5.29219e-05
5.30078e-05
5.31972e-05
5.07353e-05
5.07085e-05
5.0977e-05
5.09654e-05
5.29782e-05
5.31939e-05
5.07394e-05
5.07451e-05
5.09738e-05
5.09524e-05
5.07136e-05
5.09688e-05
5.09733e-05
5.30159e-05
5.31726e-05
5.07179e-05
5.09554e-05
5.09704e-05
5.31974e-05
5.32514e-05
5.33749e-05
5.10453e-05
5.10398e-05
5.12062e-05
5.12111e-05
5.32538e-05
5.33838e-05
5.10391e-05
5.10221e-05
5.12023e-05
5.12308e-05
5.10415e-05
5.12147e-05
5.12195e-05
5.32322e-05
5.3407e-05
5.10356e-05
5.12344e-05
5.1216e-05
5.33915e-05
5.34274e-05
5.36355e-05
5.12699e-05
5.12748e-05
5.15081e-05
5.15034e-05
5.3436e-05
5.36349e-05
5.12691e-05
5.13059e-05
5.15095e-05
5.15103e-05
5.12955e-05
5.15143e-05
5.15327e-05
5.34685e-05
5.36313e-05
5.12951e-05
5.15209e-05
5.15344e-05
5.36489e-05
5.36973e-05
5.15849e-05
5.15777e-05
5.36943e-05
5.15838e-05
5.15645e-05
5.15894e-05
5.36761e-05
5.15883e-05
6.30017e-05
7.09125e-05
6.19475e-05
7.17775e-05
6.94966e-05
6.97788e-05
6.20468e-05
7.07978e-05
6.22141e-05
7.16184e-05
2.13563e-05
2.00267e-05
1.87496e-05
2.01905e-05
1.97251e-05
1.98861e-05
5.21026e-05
5.85157e-05
2.86474e-05
3.52273e-05
5.14821e-05
5.92823e-05
2.82557e-05
6.94013e-05
5.17157e-05
2.83803e-05
3.47299e-05
5.23435e-05
2.80528e-05
5.69868e-05
6.5479e-05
6.54822e-05
3.99304e-05
6.66416e-05
6.63941e-05
6.62266e-05
7.264e-05
6.53427e-05
7.27336e-05
6.99716e-05
7.00712e-05
6.65326e-05
7.26731e-05
6.48771e-05
7.28588e-05
2.01042e-05
1.97636e-05
2.01961e-05
2.68369e-05
2.14865e-05
2.4502e-05
2.35136e-05
5.35196e-05
5.9484e-05
2.79617e-05
3.55683e-05
5.29584e-05
6.02846e-05
2.81086e-05
7.03695e-05
7.08021e-05
5.35455e-05
2.7573e-05
5.76549e-05
3.5841e-05
5.15505e-05
2.78692e-05
6.16058e-05
6.73873e-05
6.70262e-05
4.3859e-05
6.75755e-05
6.79189e-05
6.72288e-05
7.22696e-05
6.6928e-05
7.18417e-05
7.0188e-05
7.01689e-05
6.78757e-05
7.2309e-05
6.79794e-05
7.17143e-05
2.33729e-05
2.66922e-05
2.47094e-05
2.9604e-05
2.69771e-05
2.9524e-05
2.71564e-05
5.67555e-05
6.25852e-05
3.19843e-05
4.21742e-05
5.54041e-05
6.42408e-05
3.34394e-05
7.06281e-05
6.99063e-05
5.81537e-05
3.39736e-05
6.62957e-05
4.5796e-05
5.69106e-05
3.55979e-05
6.70107e-05
6.92395e-05
6.96365e-05
4.73374e-05
7.06624e-05
7.08199e-05
6.5603e-05
7.11091e-05
6.66614e-05
7.08514e-05
6.94479e-05
6.90738e-05
6.49322e-05
7.09813e-05
6.5987e-05
7.08268e-05
2.74414e-05
2.95065e-05
2.75944e-05
2.42456e-05
2.71105e-05
2.54111e-05
2.7582e-05
5.72891e-05
6.49841e-05
3.60495e-05
4.41592e-05
5.79493e-05
6.2514e-05
3.62099e-05
6.87983e-05
6.86301e-05
5.58565e-05
3.71975e-05
6.28616e-05
4.38997e-05
5.78218e-05
3.70247e-05
5.97749e-05
7.09304e-05
7.025e-05
4.91943e-05
6.85545e-05
6.80802e-05
6.37912e-05
7.08781e-05
6.41049e-05
7.11991e-05
6.89817e-05
6.92449e-05
6.37799e-05
7.09737e-05
6.3796e-05
7.12881e-05
2.57882e-05
2.34414e-05
2.67328e-05
2.08579e-05
2.1978e-05
2.0533e-05
2.25569e-05
5.29556e-05
5.89312e-05
3.46192e-05
3.80849e-05
5.41146e-05
5.80974e-05
3.30329e-05
6.90645e-05
6.95629e-05
5.24123e-05
3.25407e-05
5.6859e-05
3.51311e-05
5.30868e-05
3.12633e-05
5.69424e-05
6.54945e-05
6.54539e-05
4.16872e-05
6.45846e-05
6.48158e-05
6.51964e-05
7.17959e-05
6.44242e-05
7.2062e-05
6.97072e-05
6.99684e-05
6.56828e-05
7.18354e-05
6.48902e-05
7.20767e-05
2.13429e-05
2.04781e-05
2.1789e-05
2.32694e-05
2.101e-05
2.35589e-05
2.10411e-05
5.34288e-05
5.872e-05
3.04898e-05
3.60847e-05
5.25885e-05
5.97856e-05
3.02547e-05
7.01419e-05
7.03269e-05
5.42825e-05
2.99637e-05
5.98899e-05
3.74571e-05
5.30685e-05
3.0044e-05
6.1613e-05
6.4715e-05
6.52442e-05
3.998e-05
6.58031e-05
6.61762e-05
6.6719e-05
7.22626e-05
6.62742e-05
7.22929e-05
7.02016e-05
7.02823e-05
6.67461e-05
7.2246e-05
6.65196e-05
7.22632e-05
2.14176e-05
2.56037e-05
2.11757e-05
2.81462e-05
2.64996e-05
2.89232e-05
2.57189e-05
5.64544e-05
6.16886e-05
3.08329e-05
4.10871e-05
5.53294e-05
6.25847e-05
3.24356e-05
7.03152e-05
7.02284e-05
5.69581e-05
3.37844e-05
6.32193e-05
4.3985e-05
5.62146e-05
3.52842e-05
6.34165e-05
6.78222e-05
6.78148e-05
4.59239e-05
6.86676e-05
6.85257e-05
6.69722e-05
7.22563e-05
6.69723e-05
7.22207e-05
7.02786e-05
7.02376e-05
6.68101e-05
7.22412e-05
6.68112e-05
7.2225e-05
2.78254e-05
2.93184e-05
2.73338e-05
2.94487e-05
2.98521e-05
2.95395e-05
2.97717e-05
5.77129e-05
6.33349e-05
3.70401e-05
4.49817e-05
5.7502e-05
6.34243e-05
3.78599e-05
7.01084e-05
7.00931e-05
5.74339e-05
3.77087e-05
6.31245e-05
4.47407e-05
5.73927e-05
3.79842e-05
6.29454e-05
6.93064e-05
6.91302e-05
4.90487e-05
6.93433e-05
6.92119e-05
6.67624e-05
7.21647e-05
6.68342e-05
7.21525e-05
7.01431e-05
7.01121e-05
6.67364e-05
7.21869e-05
6.67719e-05
7.21727e-05
3.00529e-05
2.94677e-05
2.99934e-05
2.94306e-05
3.00721e-05
2.89506e-05
3.00023e-05
5.74476e-05
6.31479e-05
3.87621e-05
4.53571e-05
5.76171e-05
6.29284e-05
3.8781e-05
7.00766e-05
7.00707e-05
5.72802e-05
3.81663e-05
6.2673e-05
4.42858e-05
5.73633e-05
3.81563e-05
6.25722e-05
6.88479e-05
6.88657e-05
4.86412e-05
6.85071e-05
6.85678e-05
6.66124e-05
7.21541e-05
6.66374e-05
7.21751e-05
7.00745e-05
7.0082e-05
6.66093e-05
7.216e-05
6.6639e-05
7.21724e-05
2.99101e-05
2.88529e-05
2.9835e-05
2.92512e-05
2.9377e-05
2.87659e-05
2.93862e-05
5.71134e-05
6.26049e-05
3.85303e-05
4.46396e-05
5.71843e-05
6.24971e-05
3.83868e-05
7.00592e-05
7.00967e-05
5.7025e-05
3.79775e-05
6.23603e-05
4.41013e-05
5.70875e-05
3.79282e-05
6.23161e-05
6.81825e-05
6.82385e-05
4.79563e-05
6.82466e-05
6.82778e-05
6.67907e-05
7.22267e-05
6.66643e-05
7.22642e-05
7.01414e-05
7.01901e-05
6.683e-05
7.22246e-05
6.66775e-05
7.22632e-05
2.92851e-05
2.87932e-05
2.93489e-05
2.95789e-05
2.92817e-05
2.95855e-05
2.95088e-05
5.7402e-05
6.25252e-05
3.81857e-05
4.44592e-05
5.71812e-05
6.27422e-05
3.81895e-05
7.01811e-05
7.02118e-05
5.75065e-05
3.79363e-05
6.26746e-05
4.46504e-05
5.71919e-05
3.8083e-05
6.29313e-05
6.86376e-05
6.86674e-05
4.83472e-05
6.87642e-05
6.87851e-05
6.69994e-05
7.22985e-05
6.69566e-05
7.23277e-05
7.02178e-05
7.02301e-05
6.69822e-05
7.22975e-05
6.69728e-05
7.23259e-05
2.94254e-05
2.99405e-05
2.98233e-05
3.03391e-05
3.03305e-05
3.0553e-05
3.04253e-05
5.78369e-05
6.29711e-05
3.88678e-05
4.54528e-05
5.77365e-05
6.29853e-05
3.92223e-05
7.02137e-05
7.02197e-05
5.78411e-05
3.92252e-05
6.30442e-05
4.5676e-05
5.78034e-05
3.9482e-05
6.29931e-05
6.86701e-05
6.86613e-05
4.8943e-05
6.85279e-05
6.85141e-05
6.70473e-05
7.23877e-05
6.70016e-05
7.24398e-05
7.02647e-05
7.0321e-05
6.70333e-05
7.23878e-05
6.6966e-05
7.24436e-05
3.05025e-05
3.06066e-05
3.05017e-05
3.11317e-05
3.09571e-05
3.09462e-05
3.09031e-05
5.78503e-05
6.29035e-05
3.97059e-05
4.57707e-05
5.78293e-05
6.29324e-05
3.97811e-05
7.0272e-05
7.03347e-05
5.78187e-05
3.97173e-05
6.28603e-05
4.57707e-05
5.77954e-05
3.97498e-05
6.29437e-05
6.84747e-05
6.84732e-05
4.89366e-05
6.86512e-05
6.86633e-05
6.73219e-05
7.24997e-05
6.72097e-05
7.25314e-05
7.03897e-05
7.04253e-05
6.73376e-05
7.2504e-05
6.72372e-05
7.25332e-05
3.11779e-05
3.11889e-05
3.11423e-05
3.19439e-05
3.19778e-05
3.198e-05
3.19405e-05
5.83827e-05
6.32387e-05
4.02854e-05
4.65447e-05
5.81294e-05
6.34199e-05
4.05485e-05
7.03905e-05
7.04167e-05
5.84125e-05
4.02882e-05
6.32868e-05
4.6568e-05
5.81705e-05
4.05738e-05
6.34235e-05
6.88869e-05
6.8903e-05
4.97676e-05
6.89627e-05
6.89723e-05
6.74523e-05
7.25748e-05
6.74063e-05
7.2613e-05
7.04533e-05
7.04757e-05
6.74321e-05
7.25746e-05
6.73914e-05
7.26136e-05
3.222e-05
3.22015e-05
3.2175e-05
3.26668e-05
3.28113e-05
3.27869e-05
3.27813e-05
5.86826e-05
6.35444e-05
4.12751e-05
4.7286e-05
5.86026e-05
6.35713e-05
4.14582e-05
7.04481e-05
7.04812e-05
5.86516e-05
4.12653e-05
6.3486e-05
4.72264e-05
5.85876e-05
4.14329e-05
6.35271e-05
6.90001e-05
6.90015e-05
5.02607e-05
6.90363e-05
6.90389e-05
6.75728e-05
7.26679e-05
6.75205e-05
7.27061e-05
7.0506e-05
7.05363e-05
6.75887e-05
7.26706e-05
6.75216e-05
7.27091e-05
3.29814e-05
3.29761e-05
3.29708e-05
3.34171e-05
3.34146e-05
3.34701e-05
3.34776e-05
5.88729e-05
6.36105e-05
4.19201e-05
4.77023e-05
5.87855e-05
6.36536e-05
4.20556e-05
7.05186e-05
7.05436e-05
5.88987e-05
4.19114e-05
6.36439e-05
4.77476e-05
5.87821e-05
4.20667e-05
6.37148e-05
6.91191e-05
6.91325e-05
5.06601e-05
6.91656e-05
6.91809e-05
6.77391e-05
7.27604e-05
6.76568e-05
7.27956e-05
7.0582e-05
7.06155e-05
6.77373e-05
7.27617e-05
6.76694e-05
7.27959e-05
3.35549e-05
3.36149e-05
3.36237e-05
3.41783e-05
3.40905e-05
3.40884e-05
3.40579e-05
5.91005e-05
6.37378e-05
4.24275e-05
4.81259e-05
5.90005e-05
6.38349e-05
4.25689e-05
7.05758e-05
7.06044e-05
5.91073e-05
4.2474e-05
6.37681e-05
4.81603e-05
5.90288e-05
4.26076e-05
6.3817e-05
6.91958e-05
6.92059e-05
5.0962e-05
6.921e-05
6.92133e-05
6.78454e-05
7.28233e-05
6.78277e-05
7.2843e-05
7.06413e-05
7.06607e-05
6.78281e-05
7.28239e-05
6.78081e-05
7.28443e-05
3.42835e-05
3.42495e-05
3.42087e-05
3.47471e-05
3.47352e-05
3.46751e-05
3.46681e-05
5.93352e-05
6.39543e-05
4.30554e-05
4.86679e-05
5.92528e-05
6.39673e-05
4.31984e-05
7.06352e-05
7.06646e-05
5.92981e-05
4.30254e-05
6.38849e-05
4.85809e-05
5.9223e-05
4.31491e-05
6.39121e-05
6.92304e-05
6.92303e-05
5.12628e-05
6.92623e-05
6.92675e-05
6.78993e-05
7.28872e-05
6.78502e-05
7.29333e-05
7.07025e-05
7.07455e-05
6.79152e-05
7.28904e-05
6.78499e-05
7.29369e-05
3.48544e-05
3.48194e-05
3.48291e-05
3.52606e-05
3.52835e-05
3.53428e-05
3.53588e-05
5.94966e-05
6.39725e-05
4.35256e-05
4.89588e-05
5.9412e-05
6.40548e-05
4.36397e-05
7.07168e-05
7.0755e-05
5.95208e-05
4.35017e-05
6.39917e-05
4.89982e-05
5.94045e-05
4.36458e-05
6.41132e-05
6.93853e-05
6.9401e-05
5.1678e-05
6.94739e-05
6.94892e-05
6.81038e-05
7.29901e-05
6.80325e-05
7.30179e-05
7.07839e-05
7.08048e-05
6.81035e-05
7.29917e-05
6.80448e-05
7.30185e-05
3.546e-05
3.5529e-05
3.55377e-05
3.59543e-05
3.59731e-05
3.60068e-05
3.5989e-05
5.9792e-05
6.42183e-05
4.4092e-05
4.95013e-05
5.96843e-05
6.427e-05
4.42503e-05
7.07851e-05
7.08039e-05
5.98037e-05
4.41443e-05
6.42503e-05
4.95506e-05
5.97148e-05
4.42939e-05
6.42754e-05
6.95285e-05
6.9538e-05
5.20661e-05
6.95164e-05
6.95229e-05
6.8144e-05
7.3051e-05
6.81284e-05
7.30815e-05
7.0833e-05
7.08671e-05
6.81408e-05
7.30523e-05
6.81235e-05
7.3083e-05
3.61128e-05
3.61334e-05
3.61103e-05
3.65103e-05
3.6485e-05
3.6476e-05
3.64775e-05
5.98822e-05
6.42734e-05
4.4604e-05
4.98174e-05
5.9851e-05
6.42962e-05
4.46875e-05
7.08315e-05
7.08628e-05
5.98761e-05
4.46114e-05
6.42707e-05
4.98139e-05
5.9847e-05
4.46896e-05
6.42892e-05
6.94975e-05
6.95034e-05
5.22454e-05
6.9562e-05
6.95671e-05
6.82803e-05
7.313e-05
6.8212e-05
7.31607e-05
7.09093e-05
7.09341e-05
6.827e-05
7.31312e-05
6.82056e-05
7.31621e-05
3.66223e-05
3.66004e-05
3.66197e-05
3.70532e-05
3.70735e-05
3.70395e-05
3.70716e-05
6.01142e-05
6.4412e-05
4.49908e-05
5.0204e-05
5.99957e-05
6.44976e-05
4.51237e-05
7.0905e-05
7.09353e-05
6.00982e-05
4.4974e-05
6.43839e-05
5.01626e-05
5.99857e-05
4.50993e-05
6.44645e-05
6.96836e-05
6.9689e-05
5.26128e-05
6.97178e-05
6.97259e-05
6.83464e-05
7.31927e-05
6.83324e-05
7.3218e-05
7.09569e-05
7.09819e-05
6.83532e-05
7.3195e-05
6.83291e-05
7.32205e-05
3.72093e-05
3.71892e-05
3.72045e-05
3.75465e-05
3.75381e-05
3.75685e-05
3.75352e-05
6.02501e-05
6.45312e-05
4.54942e-05
5.05427e-05
6.02208e-05
6.45321e-05
4.55812e-05
7.09658e-05
7.09888e-05
6.026e-05
4.54804e-05
6.45387e-05
5.05608e-05
6.0215e-05
4.55823e-05
6.45622e-05
6.97057e-05
6.97178e-05
5.28404e-05
6.97004e-05
6.97136e-05
6.84202e-05
7.32595e-05
6.83742e-05
7.32899e-05
7.10219e-05
7.1051e-05
6.842e-05
7.32615e-05
6.83842e-05
7.32909e-05
3.76446e-05
3.76791e-05
3.7648e-05
3.80256e-05
3.80112e-05
3.80171e-05
3.80218e-05
6.03589e-05
6.45688e-05
4.58029e-05
5.07928e-05
6.02926e-05
6.46363e-05
4.5895e-05
7.10197e-05
7.10475e-05
6.03648e-05
4.58325e-05
6.45864e-05
5.0812e-05
6.03107e-05
4.59188e-05
6.46211e-05
6.97686e-05
6.97772e-05
5.30542e-05
6.98198e-05
6.98252e-05
6.84981e-05
7.3324e-05
6.84779e-05
7.33478e-05
7.10789e-05
7.11041e-05
6.84919e-05
7.3325e-05
6.84664e-05
7.33497e-05
3.8134e-05
3.81311e-05
3.81399e-05
3.84492e-05
3.84564e-05
3.84668e-05
3.846e-05
6.05146e-05
6.46976e-05
4.61985e-05
5.11041e-05
6.04677e-05
6.47093e-05
4.62836e-05
7.10818e-05
7.11107e-05
6.05059e-05
4.61906e-05
6.46772e-05
5.10925e-05
6.0454e-05
4.62738e-05
6.47142e-05
6.98359e-05
6.9841e-05
5.32951e-05
6.98405e-05
6.98498e-05
6.85586e-05
7.33881e-05
6.85195e-05
7.34216e-05
7.11415e-05
7.11708e-05
6.85681e-05
7.33907e-05
6.85274e-05
7.34234e-05
3.85614e-05
3.85814e-05
3.85727e-05
3.89003e-05
3.89032e-05
3.89198e-05
3.89323e-05
6.06267e-05
6.47482e-05
4.65126e-05
5.13547e-05
6.05661e-05
6.48094e-05
4.65982e-05
7.11449e-05
7.11676e-05
6.06423e-05
4.65264e-05
6.47808e-05
5.13886e-05
6.05771e-05
4.66189e-05
6.48272e-05
6.99243e-05
6.9936e-05
5.35274e-05
6.99703e-05
6.99789e-05
7.34582e-05
6.86256e-05
7.11986e-05
6.86449e-05
7.34589e-05
6.86202e-05
3.90192e-05
3.9022e-05
3.90389e-05
6.48771e-05
4.68703e-05
6.07199e-05
7.11928e-05
7.12188e-05
6.0744e-05
4.68725e-05
6.48498e-05
5.162e-05
6.07156e-05
4.69385e-05
6.48623e-05
6.99789e-05
6.99832e-05
5.37196e-05
6.99674e-05
6.99718e-05
6.92071e-05
7.01705e-05
6.91446e-05
7.01037e-05
5.76494e-05
5.78267e-05
3.27545e-05
6.3071e-05
6.25762e-05
7.09195e-05
7.04034e-05
7.09139e-05
7.0347e-05
3.3519e-05
6.95616e-05
6.92349e-05
6.48555e-05
6.43593e-05
6.31198e-05
7.10832e-05
6.20849e-05
7.14771e-05
4.95146e-05
5.29766e-05
2.7795e-05
3.14199e-05
4.95286e-05
5.5417e-05
2.68143e-05
4.99037e-05
5.75197e-05
2.87668e-05
3.49407e-05
4.99163e-05
5.84363e-05
2.79237e-05
6.35239e-05
7.25441e-05
7.20144e-05
6.49984e-05
6.36102e-05
7.18268e-05
7.15702e-05
6.498e-05
4.99688e-05
3.15729e-05
6.14327e-05
2.65101e-05
5.71142e-05
2.64824e-05
5.27456e-05
5.02904e-05
3.46821e-05
5.98306e-05
2.72948e-05
5.88123e-05
2.74356e-05
5.26682e-05
6.46146e-05
6.56131e-05
3.95425e-05
6.58294e-05
6.62423e-05
6.9526e-05
6.96992e-05
6.99488e-05
6.98127e-05
3.9696e-05
6.66374e-05
6.61395e-05
6.6061e-05
6.62732e-05
6.97916e-05
6.97142e-05
4.96312e-05
5.33292e-05
2.76518e-05
3.139e-05
5.03659e-05
5.49028e-05
2.67345e-05
6.20987e-05
7.12393e-05
4.9868e-05
3.459e-05
2.77979e-05
5.63359e-05
6.22939e-05
7.25374e-05
7.1888e-05
6.42867e-05
4.9637e-05
3.15144e-05
6.09244e-05
2.63314e-05
5.65334e-05
2.63459e-05
5.13125e-05
6.2348e-05
7.20785e-05
7.14208e-05
6.43101e-05
4.98395e-05
3.41395e-05
2.70634e-05
5.69975e-05
2.72795e-05
5.61245e-05
5.09052e-05
6.40293e-05
7.11513e-05
6.3603e-05
7.13685e-05
5.21208e-05
2.80063e-05
5.84614e-05
3.41987e-05
5.139e-05
2.78138e-05
5.95834e-05
6.39842e-05
7.12411e-05
6.35272e-05
7.14854e-05
5.22989e-05
3.50545e-05
5.9454e-05
2.79557e-05
5.9385e-05
2.8036e-05
5.28443e-05
6.4081e-05
7.16216e-05
7.14132e-05
6.42778e-05
5.23291e-05
3.48144e-05
2.78433e-05
6.03985e-05
2.77896e-05
5.98551e-05
5.29281e-05
6.40467e-05
7.17446e-05
7.15413e-05
6.4318e-05
3.9428e-05
6.22239e-05
6.2546e-05
6.9263e-05
7.01901e-05
6.95406e-05
3.89949e-05
6.43502e-05
6.3336e-05
6.20865e-05
6.21988e-05
7.00113e-05
6.93869e-05
5.19141e-05
2.80283e-05
5.88063e-05
3.43897e-05
5.23528e-05
2.78491e-05
5.93547e-05
6.32027e-05
6.37143e-05
7.1097e-05
6.32422e-05
7.11726e-05
6.37883e-05
7.13766e-05
5.15247e-05
3.43417e-05
2.75633e-05
5.67028e-05
2.77254e-05
5.66103e-05
5.14077e-05
5.17619e-05
3.50139e-05
2.77739e-05
5.97647e-05
2.77746e-05
5.94535e-05
5.16814e-05
6.31414e-05
7.18657e-05
7.12469e-05
6.35404e-05
6.31731e-05
7.17512e-05
7.145e-05
6.3522e-05
6.96511e-05
6.98885e-05
6.96292e-05
6.98576e-05
4.10064e-05
6.73479e-05
6.68744e-05
6.68997e-05
6.65662e-05
7.00204e-05
6.99208e-05
7.00121e-05
6.98866e-05
7.0984e-05
7.09291e-05
7.09995e-05
7.10011e-05
7.08332e-05
7.06156e-05
4.88862e-05
7.32967e-05
7.35298e-05
7.02504e-05
7.07675e-05
7.02529e-05
7.08482e-05
5.03409e-05
7.32251e-05
7.39089e-05
7.36011e-05
7.39786e-05
6.60443e-05
7.18915e-05
6.52868e-05
7.20616e-05
5.55008e-05
6.26181e-05
2.69183e-05
4.06222e-05
5.35506e-05
6.51897e-05
2.8581e-05
5.51055e-05
6.01432e-05
2.73266e-05
3.5333e-05
5.33617e-05
6.12743e-05
2.76272e-05
6.63918e-05
7.24127e-05
7.26995e-05
6.68275e-05
6.61683e-05
7.21421e-05
7.20872e-05
6.65017e-05
5.59366e-05
4.33542e-05
6.60231e-05
3.3726e-05
6.56544e-05
3.14601e-05
5.68132e-05
5.55054e-05
3.72947e-05
6.24383e-05
3.1232e-05
6.15854e-05
2.88588e-05
5.63679e-05
6.68762e-05
6.61096e-05
4.17306e-05
6.77994e-05
6.68037e-05
6.98162e-05
7.00126e-05
7.01681e-05
7.00819e-05
4.28704e-05
6.9095e-05
6.88693e-05
6.80526e-05
6.73073e-05
7.02153e-05
7.00519e-05
5.54091e-05
6.22257e-05
2.66231e-05
4.03024e-05
5.23787e-05
6.53369e-05
2.79741e-05
6.64351e-05
7.22709e-05
6.48842e-05
7.26613e-05
5.51117e-05
2.70892e-05
5.85104e-05
3.57048e-05
5.19937e-05
2.75001e-05
6.24417e-05
6.69599e-05
7.25005e-05
7.2846e-05
6.78688e-05
5.62308e-05
4.31874e-05
6.66888e-05
3.39372e-05
6.59929e-05
3.1172e-05
5.80184e-05
6.68262e-05
7.27162e-05
7.272e-05
6.77063e-05
5.59612e-05
3.93246e-05
3.24861e-05
6.62362e-05
2.92691e-05
6.35544e-05
5.78792e-05
6.4917e-05
7.1704e-05
6.43375e-05
7.20085e-05
5.35966e-05
2.81144e-05
6.04579e-05
3.79682e-05
5.30532e-05
2.88774e-05
6.07413e-05
6.49591e-05
7.18044e-05
6.43859e-05
7.20422e-05
5.3777e-05
3.71985e-05
6.2105e-05
3.03335e-05
6.07268e-05
2.875e-05
5.49766e-05
6.51478e-05
7.22452e-05
7.20803e-05
6.59948e-05
5.38311e-05
3.89019e-05
3.10747e-05
6.20848e-05
2.98949e-05
6.1004e-05
5.49766e-05
6.51815e-05
7.22769e-05
7.21115e-05
6.60247e-05
6.58848e-05
6.49654e-05
4.2556e-05
7.00255e-05
6.9299e-05
7.02091e-05
7.0701e-05
7.08125e-05
7.08666e-05
4.49246e-05
7.41529e-05
7.37779e-05
7.12923e-05
7.06269e-05
7.08051e-05
7.0785e-05
5.34935e-05
2.7885e-05
5.99145e-05
3.7694e-05
5.18219e-05
2.8397e-05
6.09695e-05
6.53797e-05
7.20646e-05
6.39867e-05
7.25268e-05
6.53377e-05
7.18516e-05
6.39544e-05
7.2156e-05
5.42886e-05
3.91975e-05
3.17986e-05
6.56233e-05
2.92046e-05
6.27269e-05
5.63472e-05
5.41508e-05
3.88103e-05
3.14671e-05
6.25908e-05
2.97811e-05
6.13848e-05
5.60675e-05
6.57673e-05
7.27028e-05
7.26147e-05
6.69373e-05
6.57251e-05
7.23284e-05
7.22232e-05
6.68426e-05
7.00285e-05
7.00996e-05
7.00403e-05
7.01648e-05
4.42622e-05
6.88225e-05
6.92351e-05
6.78207e-05
6.82194e-05
7.02041e-05
7.01192e-05
7.02232e-05
7.01768e-05
7.00254e-05
6.95192e-05
6.99821e-05
6.93631e-05
7.25251e-05
7.31067e-05
5.19383e-05
7.0407e-05
7.02714e-05
6.90399e-05
6.93533e-05
6.89033e-05
6.91866e-05
5.10968e-05
6.74423e-05
6.65974e-05
6.96366e-05
6.92596e-05
6.69737e-05
7.21517e-05
6.65877e-05
7.21314e-05
5.729e-05
6.58495e-05
3.52844e-05
4.59756e-05
5.69669e-05
6.45437e-05
3.62299e-05
5.70487e-05
6.27724e-05
3.3185e-05
4.25577e-05
5.65432e-05
6.40239e-05
3.46028e-05
6.72562e-05
7.12411e-05
7.16758e-05
6.70198e-05
6.70474e-05
7.17039e-05
7.20594e-05
6.70339e-05
5.73276e-05
4.58752e-05
6.24077e-05
3.67415e-05
6.40167e-05
3.66637e-05
5.72443e-05
5.71622e-05
4.35889e-05
6.45753e-05
3.61425e-05
6.43374e-05
3.55692e-05
5.72669e-05
6.96052e-05
6.9506e-05
4.79871e-05
7.11687e-05
7.14135e-05
7.02464e-05
7.02533e-05
6.96427e-05
7.00682e-05
4.86998e-05
7.12308e-05
7.17798e-05
7.14546e-05
7.17987e-05
6.96784e-05
7.0156e-05
5.85824e-05
6.65976e-05
3.58866e-05
4.62413e-05
5.83336e-05
6.48181e-05
3.70626e-05
6.78276e-05
7.26015e-05
6.7833e-05
7.20706e-05
5.86306e-05
3.50113e-05
6.67506e-05
4.63372e-05
5.82503e-05
3.67184e-05
6.70295e-05
6.75212e-05
7.10858e-05
7.15177e-05
6.64071e-05
5.84729e-05
4.61612e-05
6.18661e-05
3.761e-05
6.4047e-05
3.75557e-05
5.70658e-05
6.75543e-05
7.11838e-05
7.18229e-05
6.64959e-05
5.85783e-05
4.67653e-05
3.78833e-05
6.33804e-05
3.7632e-05
6.6553e-05
5.72209e-05
6.71526e-05
7.22731e-05
6.6256e-05
7.22806e-05
5.67345e-05
3.23484e-05
6.24576e-05
4.19998e-05
5.53963e-05
3.35614e-05
6.37834e-05
6.717e-05
7.23013e-05
6.62843e-05
7.22976e-05
5.71576e-05
4.32839e-05
6.51342e-05
3.55172e-05
6.46867e-05
3.46273e-05
5.79156e-05
6.73762e-05
7.18024e-05
7.22135e-05
6.76428e-05
5.71331e-05
4.29021e-05
3.543e-05
6.47519e-05
3.46041e-05
6.41803e-05
5.79063e-05
6.73883e-05
7.18827e-05
7.22316e-05
6.76477e-05
7.4577e-05
7.43272e-05
5.30453e-05
7.40529e-05
7.42894e-05
7.06594e-05
6.99866e-05
6.89534e-05
6.96021e-05
5.32372e-05
6.87301e-05
6.92378e-05
7.27371e-05
7.32382e-05
6.8942e-05
6.96711e-05
5.7838e-05
3.30796e-05
6.29665e-05
4.23307e-05
5.65976e-05
3.4459e-05
6.4139e-05
6.7877e-05
7.26558e-05
6.72512e-05
7.21898e-05
6.76923e-05
7.23296e-05
6.71253e-05
7.22203e-05
5.8328e-05
4.63054e-05
3.71412e-05
6.40064e-05
3.66589e-05
6.6864e-05
5.82598e-05
5.80468e-05
4.32575e-05
3.62595e-05
6.46047e-05
3.55309e-05
6.44052e-05
5.81255e-05
6.79148e-05
7.12017e-05
7.1945e-05
6.73782e-05
6.77298e-05
7.17407e-05
7.21189e-05
6.73161e-05
7.02154e-05
7.02028e-05
7.02243e-05
7.01538e-05
4.79761e-05
7.12583e-05
7.09084e-05
7.1015e-05
7.1037e-05
6.97864e-05
7.01302e-05
6.96871e-05
7.00546e-05
6.89573e-05
6.88758e-05
6.88538e-05
6.88688e-05
6.67435e-05
6.5874e-05
4.26662e-05
6.50009e-05
6.44012e-05
6.906e-05
6.8879e-05
6.91504e-05
6.89019e-05
4.18925e-05
6.38699e-05
6.38626e-05
6.456e-05
6.412e-05
6.58044e-05
7.15308e-05
6.67987e-05
7.11015e-05
5.57725e-05
6.17928e-05
3.66502e-05
4.09242e-05
5.69912e-05
6.01216e-05
3.61609e-05
5.60194e-05
6.43415e-05
3.63459e-05
4.41939e-05
5.71861e-05
6.21391e-05
3.63309e-05
6.52262e-05
7.08205e-05
7.08073e-05
6.4338e-05
6.5445e-05
7.08399e-05
7.09941e-05
6.45573e-05
5.5259e-05
3.91679e-05
5.84745e-05
3.339e-05
5.9604e-05
3.48075e-05
5.39552e-05
5.55004e-05
4.35143e-05
5.95909e-05
3.50199e-05
6.13992e-05
3.60702e-05
5.41621e-05
7.03621e-05
7.09607e-05
4.89195e-05
6.7655e-05
6.78066e-05
6.94472e-05
6.89786e-05
6.89527e-05
6.89914e-05
4.78429e-05
6.49555e-05
6.45817e-05
6.68253e-05
6.68253e-05
6.88119e-05
6.88755e-05
5.47679e-05
6.11655e-05
3.74401e-05
4.09512e-05
5.64459e-05
5.95418e-05
3.66253e-05
6.50186e-05
7.10136e-05
6.60865e-05
7.07085e-05
5.48174e-05
3.78231e-05
6.231e-05
4.37799e-05
5.65696e-05
3.73211e-05
5.9536e-05
6.45993e-05
7.09116e-05
7.08138e-05
6.39199e-05
5.42447e-05
3.90389e-05
5.82856e-05
3.29801e-05
5.91106e-05
3.46931e-05
5.30792e-05
6.4664e-05
7.076e-05
7.06711e-05
6.39059e-05
5.42654e-05
4.04855e-05
3.33942e-05
5.73174e-05
3.55646e-05
5.87597e-05
5.30182e-05
6.63489e-05
7.15958e-05
6.75865e-05
7.10561e-05
5.73597e-05
3.598e-05
6.47236e-05
4.40489e-05
5.79461e-05
3.61955e-05
6.3063e-05
6.63745e-05
7.17032e-05
6.75921e-05
7.11957e-05
5.65809e-05
4.36646e-05
5.94652e-05
3.58307e-05
6.16174e-05
3.61685e-05
5.46762e-05
6.58516e-05
7.07477e-05
7.09259e-05