/*--------------------------------*- C++ -*----------------------------------*\
| =========                 |                                                 |
| \\      /  F ield         | OpenFOAM: The Open Source CFD Toolbox           |
|  \\    /   O peration     | Version:  2312                                  |
|   \\  /    A nd           | Website:  www.openfoam.com                      |
|    \\/     M anipulation  |                                                 |
\*---------------------------------------------------------------------------*/
FoamFile
{
    version     2.0;
    format      ascii;
    arch        "LSB;label=32;scalar=64";
    class       volScalarField;
    location    "1000";
    object      nut;
}
// * * * * * * * * * * * * * * * * * * * * * * * * * * * * * * * * * * * * * //

dimensions      [0 2 -1 0 0 0 0];

internalField   nonuniform List<scalar> 
42973
(
0.000116492
0.000137518
0.000111166
8.05248e-05
0.000119678
0.000109912
0.000136645
0.000173776
0.000150335
0.000176361
0.000147518
0.00021684
0.000189253
0.000217579
0.000178355
0.000139161
0.000163625
0.00013539
0.000158689
9.93994e-05
0.000125975
0.00011462
0.00012204
0.000124507
0.000135398
0.000163038
0.000131644
0.00015897
0.000169076
0.000174797
0.000161731
0.000166154
0.000177175
0.000170695
0.000166291
0.000162815
0.00017287
0.000167337
0.000159905
0.000158225
0.000167542
0.000165885
0.000158384
0.00015899
0.000170788
0.000173409
0.000162713
0.000162042
0.000173057
0.000173344
0.000161855
0.000166243
0.000174698
0.000174783
0.000163734
0.000169993
0.000179518
0.000179134
0.00016697
0.000173441
0.000181577
0.000181542
0.000168547
0.000177219
0.000182813
0.000183409
0.000170038
0.000181911
0.000185925
0.00018539
0.000170961
0.000183968
0.000186902
0.000186678
0.000172374
0.000186395
0.0001894
0.000189926
0.000174652
0.000190464
0.000191429
0.00019152
0.000175404
0.00019329
0.000192856
0.000192604
0.00017663
0.000196392
0.000195231
0.000195088
0.000178218
0.000198969
0.00019614
0.000196432
0.000178829
0.000201844
0.000198035
0.000197842
0.000180159
0.000203941
0.00019919
0.000199436
0.000181029
0.000206911
0.000201087
0.00020101
0.00018237
8.97014e-05
0.000114612
0.000107485
0.00013839
9.81994e-05
0.000119906
0.000127782
0.000120892
0.000107729
9.73825e-05
0.000111
0.000121295
0.000122952
0.000128476
0.000105846
0.000122754
0.000112855
0.000127948
0.000134497
0.000129343
0.000195722
0.000120535
0.000116537
0.000186389
0.000140943
0.000120583
0.000142902
0.000118106
0.000107847
0.000185549
0.000158772
0.000133039
0.000139382
0.000146157
0.000103822
0.000168562
0.000130757
0.000157025
0.000146127
0.000144047
0.000199124
0.000179334
0.000197967
0.000152783
0.000205176
0.000184449
0.000148444
0.000183444
0.000199089
0.000179934
0.000209378
0.00022049
0.000152612
0.000181759
0.000174996
0.000179931
0.000217387
0.00015375
0.000215805
0.000178266
0.000175172
0.000169943
0.000129055
0.000189614
0.000191142
0.000146951
0.000177733
0.000185805
0.00015677
0.000193502
0.00022092
0.000146343
0.00015192
0.000183462
0.000181213
0.000188355
0.000207485
0.000124075
0.000186383
0.000153099
0.000186865
0.000165985
0.00012596
0.000121302
0.000137827
0.000160947
0.000123441
0.00013002
0.000149138
0.000120225
0.000136545
0.000134168
0.000121322
0.00011329
0.000172312
0.0001312
0.000137836
0.000115971
0.000112404
0.000169857
0.000113936
0.000136071
0.000124875
0.000124174
0.000149936
0.000122828
0.000125197
0.000147827
0.000126288
0.00011858
0.000132758
0.000120846
0.000114454
0.000149622
0.000155884
0.000129726
0.000124322
0.000120247
0.000119347
0.000157621
0.00012851
0.000153588
0.000120598
0.00012572
0.000153384
0.000161388
0.000155376
0.000137952
0.000168909
0.000164542
0.000138219
0.000159125
0.000157716
0.00016531
0.000170389
0.000175527
0.000126593
0.000163356
0.000161507
0.000161348
0.000165752
0.000129133
0.000174488
0.000163128
0.000158988
0.000161696
0.000161309
0.000170853
0.000169663
0.000172311
0.000176256
0.000161458
0.000166273
0.000171747
0.000175611
0.000172039
0.000171388
0.000168458
0.000176707
0.000177023
0.000165143
0.000159724
0.000169374
0.000171846
0.000176648
0.000166621
0.000161118
0.000159958
0.000172119
0.000176614
0.000170645
0.000173994
0.000166168
0.000161969
0.000171684
0.000170111
0.000170121
0.000167756
0.000177309
0.00017443
0.000173376
0.000159473
0.000157977
0.000176821
0.000168234
0.000172848
0.000160463
0.000159771
0.000159469
0.000170108
0.000172586
0.00016874
0.000168443
0.000161505
0.000158265
0.000169639
0.000167009
0.000168408
0.000165486
0.000171423
0.0001684
0.000168077
0.00015767
0.000157024
0.000170939
0.00016528
0.000167728
0.000158149
0.000159542
0.000160891
0.000168596
0.000167609
0.000170378
0.000168452
0.000157882
0.000160117
0.000168579
0.000166509
0.000170708
0.000171834
0.000167615
0.0001684
0.000171318
0.000157584
0.000162309
0.000167309
0.00017187
0.000171646
0.000162304
0.000161064
0.00016199
0.000170972
0.000170675
0.000172477
0.000173227
0.000161118
0.000162665
0.000171315
0.000173237
0.000172475
0.00017362
0.00017278
0.000173369
0.000173156
0.000162832
0.000162698
0.000173108
0.000173932
0.000173346
0.000162247
0.000162242
0.000164612
0.000173062
0.000173025
0.000175507
0.000173749
0.000162433
0.000162896
0.000172938
0.000173066
0.000175434
0.000173484
0.000172654
0.000173556
0.000173471
0.000162304
0.000162944
0.000172785
0.00017311
0.000173231
0.000162961
0.000165031
0.00016627
0.000176341
0.000174864
0.000177992
0.000178577
0.00016351
0.000167012
0.000176355
0.000175074
0.000178061
0.000178474
0.000174815
0.000178617
0.00017828
0.000163779
0.000166852
0.000174743
0.000178493
0.000178335
0.000166712
0.000166344
0.000167607
0.000178409
0.00017943
0.000180149
0.000181106
0.000167395
0.000168446
0.000178434
0.000179057
0.000180079
0.0001808
0.000179024
0.000181192
0.000180909
0.000167047
0.000168231
0.000179045
0.000180884
0.000180838
0.000168284
0.000167903
0.000169641
0.000180788
0.000181493
0.000182554
0.000182274
0.000168518
0.000169298
0.000180729
0.000181463
0.00018261
0.000182893
0.000181552
0.000182384
0.000183069
0.000168511
0.000169866
0.000181491
0.000183004
0.000183126
0.000169923
0.00016995
0.000171892
0.000183271
0.000182714
0.000185741
0.000185215
0.000169461
0.000171451
0.000183358
0.000183308
0.000185787
0.000185
0.000183437
0.000185175
0.000184629
0.000169987
0.000171112
0.000183525
0.000184958
0.000184672
0.000170855
0.000172056
0.000172408
0.000186336
0.000186013
0.000186859
0.000186871
0.000171775
0.000172478
0.000186331
0.000185486
0.000186759
0.000186314
0.000185058
0.000186769
0.00018636
0.000171272
0.000172054
0.000185048
0.000186219
0.000186263
0.000172129
0.000172344
0.000173617
0.000186924
0.000186948
0.000188274
0.000188413
0.000172428
0.000173749
0.000186849
0.000186717
0.000188338
0.000188963
0.000186922
0.00018855
0.000189162
0.000172185
0.000174279
0.000186853
0.000189096
0.000189221
0.000174388
0.000173966
0.000175568
0.000189051
0.00018924
0.000191048
0.000191118
0.000174132
0.000175597
0.000189128
0.000189773
0.000191081
0.00019127
0.000189875
0.000191194
0.000191032
0.000174634
0.000175681
0.000189946
0.000191351
0.000191068
0.000175436
0.000175666
0.000176556
0.000191458
0.000191403
0.000192541
0.000192307
0.000175621
0.000176364
0.000191483
0.00019149
0.000192555
0.000192192
0.00019119
0.000192263
0.000192237
0.000175654
0.000176225
0.000191217
0.000192147
0.000192249
0.000176353
0.00017671
0.000177985
0.000193019
0.000192877
0.000194561
0.000194763
0.00017658
0.000178189
0.000193014
0.000192628
0.000194509
0.000194451
0.000192891
0.000194829
0.000194786
0.000176379
0.000177996
0.000192885
0.000194519
0.000194736
0.000178157
0.000178085
0.000178925
0.00019497
0.000195161
0.000195926
0.000195806
0.000178277
0.000178808
0.000194928
0.000195018
0.000195974
0.000196126
0.000195133
0.000195825
0.000195756
0.000178188
0.000179072
0.000195092
0.000196147
0.000195803
0.000178763
0.000179022
0.00018013
0.000196305
0.000196126
0.000197692
0.000197589
0.000178847
0.00018008
0.00019637
0.000196419
0.000197705
0.000197462
0.000196132
0.000197615
0.000197614
0.000179097
0.000179926
0.000196196
0.000197486
0.000197626
0.000180078
0.000180203
0.000180852
0.000198066
0.000198013
0.000198784
0.000198838
0.000180193
0.000180906
0.00019805
0.000197822
0.000198776
0.000198958
0.000197972
0.000198853
0.000198839
0.000180021
0.000181034
0.000197955
0.000198975
0.000198831
0.000180918
0.000180896
0.000182165
0.000199095
0.000199155
0.000200524
0.00020051
0.000180952
0.000182167
0.000199115
0.0001994
0.000200579
0.000200615
0.00019928
0.000200607
0.000200803
0.000181161
0.000182195
0.000199301
0.000200714
0.000200856
0.000182312
0.000182325
0.000201032
0.000200994
0.00018231
0.000201067
0.000200922
0.000201147
0.000182231
0.000201179
8.70033e-05
4.98492e-05
8.53744e-05
5.01528e-05
2.36024e-05
2.36515e-05
8.49745e-05
4.98054e-05
8.66105e-05
5.009e-05
0.000135106
0.000114095
7.98857e-05
0.000110757
9.58243e-05
0.000101561
0.00011641
8.96645e-05
0.000138725
0.000131816
0.000114764
9.14629e-05
0.000132824
2.35836e-05
0.000115961
0.000136042
0.000128334
0.000119978
0.000131412
8.61078e-05
7.09716e-05
7.10101e-05
0.000121877
7.28888e-05
7.24953e-05
9.43537e-05
5.0464e-05
9.22233e-05
5.05019e-05
2.36848e-05
2.37023e-05
9.45425e-05
5.04677e-05
9.05195e-05
5.05394e-05
0.000104023
8.99302e-05
0.000100653
0.000150917
0.000104143
0.000124582
0.000123424
0.000118643
9.07009e-05
0.000118283
0.000119386
0.000118029
9.17949e-05
0.000115182
2.37473e-05
2.38232e-05
0.00011696
0.000110664
8.38803e-05
0.000115155
0.000110845
0.000108262
9.33889e-05
7.37376e-05
7.28441e-05
0.00013857
7.36035e-05
7.40155e-05
9.74021e-05
5.03485e-05
9.62042e-05
5.02003e-05
2.37226e-05
2.37217e-05
9.96937e-05
5.03598e-05
9.90361e-05
5.01524e-05
0.000120625
0.000147924
0.000133894
0.000213889
0.00016237
0.000207039
0.000161342
0.000130601
9.72151e-05
0.000137192
0.000160593
0.000124546
0.000102371
0.00014854
2.38018e-05
2.36825e-05
0.000138038
0.000151189
0.000107383
0.000195287
0.000130727
0.00016625
0.000111873
7.62329e-05
7.6971e-05
0.000156738
7.92169e-05
7.96379e-05
9.52095e-05
4.9941e-05
9.73381e-05
4.98464e-05
2.36021e-05
2.35362e-05
9.35135e-05
4.98889e-05
9.59441e-05
4.98305e-05
0.000175204
0.000217663
0.000171559
0.000156613
0.000190763
0.000175202
0.000193172
0.000139383
0.000107658
0.000176996
0.000193923
0.000139654
0.000102019
0.000183996
2.3489e-05
2.34568e-05
0.000133818
0.000196928
0.000103304
0.000203434
0.000141073
0.000200366
9.52922e-05
8.17176e-05
8.04341e-05
0.00018638
7.80044e-05
7.70234e-05
9.03053e-05
4.98481e-05
9.14847e-05
4.99583e-05
2.35166e-05
2.356e-05
8.98668e-05
4.9876e-05
9.03919e-05
4.99844e-05
0.000176259
0.00014882
0.000186803
0.000104306
0.000127356
9.91203e-05
0.000135506
0.000120749
9.2287e-05
0.000178938
0.000150223
0.000126503
8.94912e-05
0.000163834
2.35266e-05
2.36114e-05
0.000117466
0.000159704
8.64559e-05
0.000123044
0.000121621
0.000146601
8.54321e-05
7.25784e-05
7.2305e-05
0.00014039
7.06256e-05
7.08117e-05
9.25564e-05
5.01684e-05
9.10424e-05
5.02635e-05
2.36387e-05
2.36835e-05
9.37049e-05
5.01772e-05
9.19736e-05
5.02634e-05
0.000115077
9.35838e-05
0.000123773
0.000111088
9.56535e-05
0.000111128
9.79717e-05
0.000118655
8.96643e-05
0.000134154
0.000122568
0.000116682
9.17717e-05
0.000127596
2.37114e-05
2.37441e-05
0.000121556
0.000122851
9.15851e-05
0.00012552
0.000117659
0.000119775
9.58006e-05
6.98265e-05
7.074e-05
0.000118488
7.12726e-05
7.19999e-05
9.59199e-05
5.03362e-05
9.48537e-05
5.03478e-05
2.3724e-05
2.37383e-05
9.61623e-05
5.03252e-05
9.56217e-05
5.0332e-05
9.50666e-05
0.000129194
9.44962e-05
0.000153483
0.000134132
0.000162765
0.000126712
0.000129136
9.59304e-05
0.000120234
0.000146214
0.000124819
9.82096e-05
0.000129724
2.37439e-05
2.37294e-05
0.000131666
0.000141574
0.000100011
0.00016929
0.000128674
0.000152821
0.000100656
7.44411e-05
7.44764e-05
0.000145379
7.59475e-05
7.56895e-05
9.67176e-05
5.0336e-05
9.66198e-05
5.03236e-05
2.37384e-05
2.37316e-05
9.62962e-05
5.03248e-05
9.62836e-05
5.03192e-05
0.000146415
0.000167165
0.000141496
0.000165938
0.000167552
0.000169466
0.000166959
0.000134784
0.000100334
0.000163481
0.000172951
0.000133623
0.000100795
0.000170411
2.37085e-05
2.37057e-05
0.000133727
0.000172306
0.00010006
0.000174418
0.00013348
0.000174444
9.97476e-05
7.72212e-05
7.68696e-05
0.000165331
7.74739e-05
7.71918e-05
9.63827e-05
5.03037e-05
9.64902e-05
5.02992e-05
2.37156e-05
2.37102e-05
9.62899e-05
5.03059e-05
9.62952e-05
5.03008e-05
0.000170207
0.000168491
0.000169875
0.000164259
0.000171448
0.000161054
0.000170429
0.000134124
0.000100324
0.000178906
0.000177207
0.000134755
9.98776e-05
0.000179231
2.37029e-05
2.37019e-05
0.000133396
0.000175165
9.91868e-05
0.000169845
0.000133641
0.000174784
9.90259e-05
7.67879e-05
7.67705e-05
0.000163967
7.62273e-05
7.62935e-05
9.60241e-05
5.02994e-05
9.61034e-05
5.03064e-05
2.37036e-05
2.37046e-05
9.60114e-05
5.02961e-05
9.61012e-05
5.03e-05
0.000169643
0.000159031
0.000168404
0.000159251
0.000161734
0.000154083
0.000160415
0.00013242
9.90233e-05
0.000176749
0.000171223
0.000132893
9.87049e-05
0.000174741
2.36997e-05
2.37057e-05
0.000132026
0.000171481
9.84071e-05
0.00016649
0.000132501
0.000170071
9.81675e-05
7.55545e-05
7.56397e-05
0.000158613
7.55876e-05
7.56199e-05
9.63374e-05
5.03242e-05
9.60638e-05
5.03374e-05
2.37144e-05
2.37228e-05
9.64371e-05
5.03179e-05
9.60839e-05
5.03315e-05
0.000159335
0.00015286
0.000158785
0.000158114
0.000155176
0.000157462
0.000157165
0.000133172
9.85975e-05
0.00016952
0.000166927
0.000132362
9.91741e-05
0.000168382
2.37201e-05
2.37255e-05
0.000133598
0.000166553
9.89186e-05
0.000167802
0.000132338
0.000166713
9.9657e-05
7.62641e-05
7.62978e-05
0.000159784
7.65401e-05
7.65623e-05
9.68434e-05
5.03494e-05
9.67349e-05
5.03594e-05
2.37276e-05
2.37297e-05
9.68139e-05
5.03435e-05
9.67949e-05
5.03533e-05
0.000155463
0.00016034
0.000159552
0.00016132
0.000161768
0.000164123
0.000163016
0.00013495
9.98093e-05
0.000171432
0.000172466
0.000134533
9.98669e-05
0.000173862
2.37259e-05
2.37268e-05
0.000134992
0.000174525
0.000100021
0.000174239
0.000134853
0.000176269
9.99088e-05
7.64448e-05
7.64126e-05
0.000162991
7.61754e-05
7.61303e-05
9.68435e-05
5.038e-05
9.67973e-05
5.03982e-05
2.37353e-05
2.37447e-05
9.67904e-05
5.03745e-05
9.67022e-05
5.03939e-05
0.0001624
0.000163495
0.000162604
0.000165022
0.000163094
0.000162958
0.000162673
0.00013453
9.95289e-05
0.000175929
0.000172772
0.000134692
9.94884e-05
0.000175625
2.37353e-05
2.37459e-05
0.000134353
0.00017609
9.93842e-05
0.000172757
0.00013453
0.000175358
9.94889e-05
7.59391e-05
7.59105e-05
0.000161523
7.62118e-05
7.62097e-05
9.74199e-05
5.04193e-05
9.71652e-05
5.04304e-05
2.37564e-05
2.37626e-05
9.74661e-05
5.04153e-05
9.72309e-05
5.04255e-05
0.000164059
0.000164192
0.000163841
0.00016926
0.000168984
0.000169073
0.000168692
0.000136316
0.000100138
0.000176981
0.00017608
0.000135344
0.000100629
0.000178382
2.37555e-05
2.376e-05
0.000136466
0.000176981
0.000100292
0.000176339
0.000135515
0.000178621
0.000100671
7.6584e-05
7.65944e-05
0.000165253
7.67204e-05
7.67195e-05
9.76834e-05
5.04453e-05
9.75946e-05
5.04586e-05
2.37673e-05
2.37711e-05
9.76275e-05
5.04397e-05
9.75616e-05
5.04532e-05
0.000170545
0.000170362
0.0001701
0.000172477
0.000174044
0.000173583
0.000173522
0.000137411
0.000100938
0.000182571
0.000180193
0.000137136
0.000101008
0.000183542
2.37653e-05
2.37708e-05
0.000137264
0.000182509
0.000100782
0.000179672
0.000137087
0.000183305
0.000100862
7.67537e-05
7.67363e-05
0.000167487
7.68014e-05
7.67842e-05
9.79033e-05
5.04776e-05
9.78053e-05
5.04909e-05
2.37762e-05
2.37812e-05
9.79371e-05
5.0473e-05
9.7797e-05
5.04864e-05
0.000174936
0.000174658
0.000174604
0.000176216
0.000176573
0.000177145
0.000177317
0.000137973
0.000101046
0.000185762
0.000181872
0.00013769
0.000101139
0.000186311
2.37772e-05
2.37814e-05
0.000138065
0.000185557
0.000101104
0.00018213
0.000137641
0.000186298
0.000101298
7.69146e-05
7.69173e-05
0.000169221
7.69988e-05
7.7006e-05
9.82405e-05
5.05097e-05
9.80543e-05
5.05221e-05
2.37889e-05
2.37946e-05
9.82446e-05
5.05047e-05
9.80928e-05
5.05167e-05
0.000177032
0.000177757
0.000177973
0.000180808
0.000179914
0.000180077
0.000179804
0.000138697
0.00010127
0.000187584
0.000183461
0.00013835
0.00010152
0.000188179
2.37868e-05
2.37916e-05
0.000138763
0.000188043
0.000101391
0.000183885
0.000138497
0.000188626
0.000101512
7.70331e-05
7.70337e-05
0.000170401
7.70474e-05
7.70349e-05
9.84874e-05
5.05319e-05
9.8451e-05
5.05386e-05
2.3799e-05
2.38023e-05
9.84373e-05
5.05266e-05
9.84035e-05
5.05335e-05
0.000181148
0.000180896
0.000180453
0.000183717
0.000183473
0.000182601
0.000182458
0.000139526
0.000101818
0.000190776
0.000186423
0.000139227
0.000101852
0.000191508
2.37968e-05
2.38017e-05
0.000139353
0.000190577
0.000101637
0.000185695
0.000139115
0.000191073
0.000101684
7.70367e-05
7.7015e-05
0.000171407
7.70647e-05
7.70509e-05
9.85158e-05
5.05537e-05
9.84437e-05
5.05696e-05
2.38091e-05
2.38164e-05
9.8548e-05
5.05492e-05
9.84296e-05
5.05653e-05
0.000183833
0.000183171
0.000183231
0.000185458
0.000185631
0.000186078
0.000186309
0.000139947
0.000101765
0.000192683
0.000187216
0.000139685
0.000101949
0.00019308
2.38104e-05
2.3817e-05
0.000140022
0.0001923
0.000101777
0.000187353
0.000139613
0.000192971
0.000102089
7.72226e-05
7.72298e-05
0.000173195
7.7382e-05
7.73896e-05
9.89758e-05
5.05895e-05
9.8799e-05
5.05993e-05
2.3823e-05
2.38265e-05
9.89772e-05
5.05845e-05
9.88327e-05
5.05939e-05
0.000186665
0.000187288
0.000187457
0.000189578
0.000189858
0.000190272
0.000190073
0.00014108
0.000102346
0.000195479
0.000190184
0.000140628
0.000102499
0.000196442
2.38221e-05
2.38253e-05
0.000141142
0.000195902
0.000102441
0.000190593
0.000140764
0.000196829
0.00010252
7.74768e-05
7.74749e-05
0.000175146
7.74507e-05
7.74428e-05
9.90261e-05
5.06107e-05
9.90146e-05
5.06211e-05
2.38312e-05
2.38369e-05
9.90188e-05
5.06055e-05
9.90035e-05
5.0616e-05
0.000190607
0.000190914
0.000190603
0.00019259
0.000192275
0.000192273
0.000192181
0.000141305
0.000102457
0.00019832
0.000191603
0.000141243
0.000102485
0.000198591
2.38299e-05
2.38351e-05
0.00014129
0.000198437
0.000102462
0.000191653
0.000141237
0.000198673
0.000102481
7.73585e-05
7.73494e-05
0.000175657
7.74496e-05
7.74385e-05
9.93024e-05
5.06379e-05
9.9143e-05
5.06486e-05
2.38441e-05
2.38483e-05
9.92735e-05
5.06327e-05
9.91282e-05
5.06435e-05
0.000192999
0.000192813
0.00019296
0.000195622
0.000195846
0.000195354
0.000195811
0.000142134
0.000102723
0.000199886
0.000193554
0.000141642
0.00010297
0.000200665
2.38422e-05
2.38473e-05
0.000142059
0.000199756
0.000102654
0.000193198
0.000141604
0.000200436
0.000102872
7.76403e-05
7.76283e-05
0.000177416
7.77062e-05
7.76994e-05
9.94396e-05
5.06598e-05
9.94157e-05
5.06684e-05
2.38521e-05
2.38563e-05
9.94503e-05
5.0655e-05
9.94001e-05
5.06637e-05
0.00019669
0.000196323
0.000196609
0.00019835
0.000198328
0.000198576
0.000198231
0.000142671
0.000103046
0.000202977
0.00019547
0.000142558
0.00010304
0.000203422
2.38525e-05
2.38563e-05
0.000142699
0.000202754
0.000103047
0.000195533
0.000142513
0.000203342
0.000103113
7.76673e-05
7.76682e-05
0.000178491
7.76388e-05
7.76422e-05
9.95672e-05
5.06827e-05
9.94681e-05
5.06933e-05
2.38629e-05
2.38679e-05
9.95699e-05
5.06779e-05
9.94952e-05
5.06881e-05
0.000198829
0.000199155
0.000198804
0.000201143
0.000200954
0.000200972
0.00020102
0.000143
0.000103067
0.000204347
0.000196587
0.000142745
0.000103248
0.000204825
2.38615e-05
2.38661e-05
0.000143036
0.000204598
0.000103132
0.000196752
0.000142831
0.000205046
0.000103215
7.77149e-05
7.77114e-05
0.000179362
7.78045e-05
7.77944e-05
9.97297e-05
5.07051e-05
9.96883e-05
5.07133e-05
2.38726e-05
2.38768e-05
9.97074e-05
5.06999e-05
9.96572e-05
5.07084e-05
0.000201708
0.000201601
0.000201704
0.000203413
0.000203473
0.00020351
0.000203408
0.000143604
0.000103387
0.00020664
0.000198344
0.000143409
0.000103412
0.000207111
2.38719e-05
2.38767e-05
0.00014355
0.000206536
0.000103317
0.000198193
0.000143343
0.000206976
0.000103409
7.78078e-05
7.77959e-05
0.000180507
7.77937e-05
7.77888e-05
9.98192e-05
5.07271e-05
9.97403e-05
5.07387e-05
2.3883e-05
2.3888e-05
9.98453e-05
5.07224e-05
9.97566e-05
5.07338e-05
0.00020403
0.000204212
0.000204078
0.000206097
0.000206133
0.000206372
0.000206521
0.000143983
0.00010345
0.000208289
0.000199608
0.000143738
0.000103612
0.000208783
2.38825e-05
2.38864e-05
0.000144061
0.000208387
0.000103545
0.00019991
0.000143782
0.000208976
0.000103677
7.79052e-05
7.79068e-05
0.000181629
7.79905e-05
7.79864e-05
5.07515e-05
9.99639e-05
2.38927e-05
0.000100014
5.07462e-05
9.99537e-05
0.000206922
0.000206999
0.000207225
0.000103776
0.00021057
0.000144358
2.38906e-05
2.38949e-05
0.000144484
0.000210623
0.000103714
0.000201263
0.000144355
0.000211013
0.000103742
7.79943e-05
7.79817e-05
0.000182665
7.79605e-05
7.79473e-05
2.35492e-05
2.37146e-05
2.35365e-05
2.37005e-05
5.70209e-05
5.74492e-05
7.96024e-05
6.47583e-05
6.3871e-05
2.38458e-05
2.3755e-05
2.38418e-05
2.37425e-05
8.05876e-05
7.54657e-05
7.47142e-05
6.75296e-05
6.66045e-05
8.73857e-05
4.99123e-05
8.57951e-05
5.00521e-05
0.000104379
7.54967e-05
0.000133857
9.79932e-05
0.00010748
7.90504e-05
0.000117665
0.000106229
8.71847e-05
0.000142586
0.000131026
0.000109177
8.86612e-05
0.000132074
8.81041e-05
5.04284e-05
5.02374e-05
9.14479e-05
8.84168e-05
5.01764e-05
5.00853e-05
9.15296e-05
0.000105293
9.42757e-05
9.3334e-05
0.000102812
8.28214e-05
0.000107887
0.00011495
0.00010692
0.000124538
9.13195e-05
0.00011502
8.93465e-05
0.000121827
0.000114942
6.95797e-05
7.1449e-05
0.000123389
7.14617e-05
7.2488e-05
2.361e-05
2.36403e-05
2.36809e-05
2.36575e-05
0.000122062
7.2311e-05
7.17891e-05
7.17314e-05
7.24487e-05
2.36559e-05
2.3643e-05
0.000105902
7.66062e-05
0.000133088
9.82036e-05
0.000112001
7.78842e-05
0.000118288
8.50565e-05
4.99613e-05
0.00010726
0.000128165
0.000130803
8.40047e-05
8.51347e-05
5.04183e-05
5.01856e-05
8.92287e-05
0.00010479
9.42942e-05
9.17359e-05
0.000101545
8.13922e-05
0.000107518
0.000108487
8.52061e-05
5.0253e-05
5.00236e-05
8.92423e-05
0.000105946
0.000117582
0.000110758
8.22851e-05
0.000120148
8.25995e-05
0.000106895
9.05094e-05
4.99403e-05
8.96482e-05
5.00177e-05
0.000116496
0.000130349
8.92551e-05
0.000119852
0.000114304
0.000125665
9.20091e-05
9.04114e-05
4.99681e-05
8.95166e-05
5.00549e-05
0.000116932
0.000126988
9.10526e-05
0.000122492
9.15406e-05
0.000127179
0.000118061
9.05381e-05
5.01048e-05
5.00334e-05
9.05684e-05
0.000117089
0.000121846
0.000119538
9.35005e-05
0.000122423
9.25458e-05
0.000118467
9.04617e-05
5.01458e-05
5.00746e-05
9.06478e-05
0.000121918
6.55487e-05
6.63698e-05
2.35633e-05
2.37162e-05
2.36066e-05
0.000115761
6.68604e-05
6.51221e-05
6.4664e-05
6.5131e-05
2.36879e-05
2.35834e-05
0.000116721
0.000130781
9.04355e-05
0.000121549
0.000119528
0.000126581
9.16165e-05
8.85743e-05
9.04776e-05
4.99169e-05
8.88284e-05
4.99439e-05
9.07142e-05
5.0014e-05
0.000114386
0.000118844
0.000116083
8.21683e-05
0.000123688
8.43468e-05
0.000111217
0.000115424
0.000123609
0.000118455
9.15576e-05
0.000122515
9.16283e-05
0.000112668
8.81193e-05
5.01827e-05
4.99681e-05
8.80613e-05
8.83599e-05
5.01438e-05
5.00391e-05
8.81585e-05
2.36291e-05
2.36703e-05
2.3624e-05
2.36635e-05
0.000127089
7.38011e-05
7.27865e-05
7.32555e-05
7.27165e-05
2.36935e-05
2.3676e-05
2.369e-05
2.36686e-05
2.3858e-05
2.38531e-05
2.38576e-05
2.38623e-05
7.78054e-05
7.7201e-05
0.000163199
8.29434e-05
8.31128e-05
2.37415e-05
2.38272e-05
2.37406e-05
2.38387e-05
0.000173818
8.44853e-05
8.58885e-05
8.38494e-05
8.42996e-05
9.40741e-05
5.01994e-05
9.2229e-05
5.02607e-05
0.000125807
9.64117e-05
0.000101772
0.000147099
0.000117984
0.000103889
0.000111284
0.000124288
9.18604e-05
0.000110397
0.000116925
0.000117485
9.44106e-05
0.000108485
9.47456e-05
5.03975e-05
5.04934e-05
9.5906e-05
9.43687e-05
5.02906e-05
5.02702e-05
9.52598e-05
0.000127638
0.000168659
0.000107619
0.000151366
0.000105416
0.000132486
0.000131586
0.000125923
0.000127244
9.72626e-05
0.000131113
9.51001e-05
0.000114509
0.000129701
7.25707e-05
7.14531e-05
0.000124333
7.39538e-05
7.20139e-05
2.36599e-05
2.36928e-05
2.37189e-05
2.37041e-05
0.000129311
7.59911e-05
7.54004e-05
7.43069e-05
7.27772e-05
2.37281e-05
2.36997e-05
0.000123834
9.5023e-05
9.90402e-05
0.000144583
0.00011212
0.000103886
0.000105451
9.43619e-05
5.03219e-05
9.05266e-05
5.0464e-05
0.000122446
0.00010491
8.5686e-05
0.000113268
0.00011052
0.000103235
9.55247e-05
9.5682e-05
5.0425e-05
5.05372e-05
9.85045e-05
0.000127391
0.000166743
0.00010953
0.000150989
0.000106002
0.00012819
0.000136322
9.54202e-05
5.04922e-05
5.04865e-05
9.81629e-05
0.000126108
0.000135406
0.000137161
0.00010708
0.000113132
9.85747e-05
0.000135651
9.12953e-05
5.0133e-05
9.04975e-05
5.02402e-05
0.000119028
0.000118172
9.3353e-05
0.000136503
0.00011849
0.000120754
9.31672e-05
9.13812e-05
5.01665e-05
9.06053e-05
5.02494e-05
0.000119136
0.000127472
9.59672e-05
0.000125805
9.26486e-05
0.000116329
0.000122933
9.16775e-05
5.0326e-05
5.0266e-05
9.35222e-05
0.000119415
0.000140648
0.000132292
9.59731e-05
0.000125588
9.35431e-05
0.000122917
9.17479e-05
5.03341e-05
5.0274e-05
9.35638e-05
6.92541e-05
6.76255e-05
0.000122434
7.62094e-05
7.48427e-05
2.37221e-05
2.3808e-05
2.38311e-05
2.38353e-05
0.000135414
8.48477e-05
8.39864e-05
7.85807e-05
7.72848e-05
2.38311e-05
2.38234e-05
0.000117089
0.000115035
9.15269e-05
0.000134038
0.000112333
0.000114923
9.337e-05
9.18641e-05
5.02531e-05
8.88914e-05
5.04196e-05
9.18411e-05
5.01788e-05
8.89416e-05
5.02869e-05
0.000119641
0.000135741
0.000133394
0.000104984
0.000114876
9.63071e-05
0.000128116
0.000119348
0.000139235
0.000133197
9.72985e-05
0.000122295
9.42592e-05
0.000126985
9.27325e-05
5.04884e-05
5.04521e-05
9.57528e-05
9.27041e-05
5.03513e-05
5.03114e-05
9.55801e-05
2.36949e-05
2.37068e-05
2.36947e-05
2.37165e-05
0.000139424
7.54934e-05
7.62002e-05
7.39005e-05
7.44637e-05
2.37251e-05
2.37101e-05
2.37272e-05
2.37187e-05
2.37033e-05
2.36164e-05
2.36947e-05
2.35878e-05
8.35122e-05
8.48461e-05
0.000204293
8.06081e-05
8.0726e-05
2.35325e-05
2.35876e-05
2.3506e-05
2.35569e-05
0.000199128
7.61368e-05
7.46558e-05
7.94716e-05
7.91093e-05
9.68003e-05
5.02943e-05
9.55038e-05
5.02907e-05
0.000134688
0.000107542
0.000165795
0.000204102
0.000132394
0.000105072
0.000176382
0.000133605
9.8158e-05
0.000146389
0.000163311
0.00013055
0.000102227
0.000158794
9.76955e-05
4.99884e-05
5.01423e-05
9.79998e-05
9.71622e-05
5.01476e-05
5.0268e-05
9.78987e-05
0.000135323
0.000207456
0.000100801
0.000188868
0.000104
0.000184299
0.000136801
0.000134555
0.000174063
0.000105901
0.000176912
0.000103478
0.000168364
0.000136818
7.69191e-05
7.65651e-05
0.000162506
8.03566e-05
8.06307e-05
2.37338e-05
2.37374e-05
2.36356e-05
2.3706e-05
0.000168271
8.23663e-05
8.33577e-05
8.12611e-05
8.17128e-05
2.36441e-05
2.37227e-05
0.000141774
0.000109901
0.000169231
0.000206543
0.000138365
0.000106487
0.000183592
9.95541e-05
5.04563e-05
9.87168e-05
5.02766e-05
0.000142091
0.000159027
0.000109189
0.000200012
0.000137974
0.000176567
0.000112577
9.90539e-05
4.99271e-05
5.00826e-05
9.68641e-05
0.000142141
0.000210751
9.97264e-05
0.000200135
0.000104727
0.000194219
0.000137819
9.91234e-05
4.99633e-05
5.01907e-05
9.70301e-05
0.000142745
0.000212951
0.000201526
0.00010444
0.000191738
0.000112045
0.000138698
9.67084e-05
5.03365e-05
9.41485e-05
5.03429e-05
0.00013041
0.000140715
9.68991e-05
0.000159592
0.000124475
0.00014987
0.000100925
9.67135e-05
5.03434e-05
9.41876e-05
5.03457e-05
0.000132845
0.000170905
0.000107337
0.00016812
0.000104058
0.000159035
0.000138565
9.75032e-05
5.01845e-05
5.03229e-05
9.91883e-05
0.000132602
0.000166852
0.000166904
0.000105622
0.000158844
0.000102341
0.000138361
9.75037e-05
5.02079e-05
5.03254e-05
9.91671e-05
8.62745e-05
8.55512e-05
0.000207403
8.75971e-05
8.77354e-05
2.38091e-05
2.36986e-05
2.35168e-05
2.36303e-05
0.000211898
7.91173e-05
8.00748e-05
8.5582e-05
8.63466e-05
2.35181e-05
2.3645e-05
0.000136356
0.000144994
9.83557e-05
0.000161551
0.000129378
0.00015645
0.000102275
9.89959e-05
5.04765e-05
9.66545e-05
5.03215e-05
9.854e-05
5.03524e-05
9.63934e-05
5.0319e-05
0.000139658
0.000208228
0.000190228
0.000106163
0.000179059
0.000112412
0.000142194
0.000138055
0.000169373
0.00017531
0.000105679
0.000166469
0.000103387
0.000141141
9.9413e-05
4.99757e-05
5.02379e-05
9.91432e-05
9.89234e-05
5.01559e-05
5.02849e-05
9.88849e-05
2.37272e-05
2.37268e-05
2.37276e-05
2.37176e-05
0.00016137
8.18612e-05
8.13677e-05
8.01311e-05
8.03388e-05
2.36594e-05
2.37156e-05
2.36409e-05
2.37017e-05
2.35178e-05
2.35021e-05
2.34968e-05
2.34973e-05
7.49798e-05
7.33537e-05
0.00014706
7.18968e-05
7.05919e-05
2.3531e-05
2.35021e-05
2.35437e-05
2.35026e-05
0.000141508
6.93237e-05
6.91004e-05
7.10075e-05
6.99902e-05
9.55419e-05
5.00874e-05
9.75558e-05
4.99338e-05
0.000132584
9.94122e-05
0.000191652
0.000171968
0.000136373
9.5491e-05
0.000189914
0.000133575
0.000105822
0.00018388
0.000195201
0.000137172
0.000100649
0.000188399
9.43503e-05
4.98292e-05
4.98293e-05
9.21366e-05
9.47344e-05
4.98359e-05
4.98946e-05
9.25855e-05
0.000130659
0.000157898
9.08481e-05
0.000165392
9.41109e-05
0.000178387
0.000125269
0.000131602
0.000193201
9.38303e-05
0.000182011
9.87194e-05
0.000189852
0.000126042
8.10413e-05
8.2251e-05
0.000188166
7.65885e-05
7.70774e-05
2.36045e-05
2.35221e-05
2.35123e-05
2.35212e-05
0.000181059
7.15867e-05
7.1095e-05
7.51205e-05
7.53418e-05
2.349e-05
2.35034e-05
0.000128863
9.79596e-05
0.000203182
0.000173572
0.000135527
9.38495e-05
0.000198369
9.36955e-05
4.99017e-05
9.61358e-05
4.97884e-05
0.000129134
0.000207243
0.000101687
0.000202928
0.000136232
0.000206915
9.43096e-05
9.26834e-05
4.98548e-05
4.98248e-05
9.08119e-05
0.000126616
0.000158082
9.00774e-05
0.000163821
9.26302e-05
0.00018036
0.000121162
9.28254e-05
4.97976e-05
4.97732e-05
9.07888e-05
0.000126732
0.000174405
0.000169449
8.76604e-05
0.000191051
9.21062e-05
0.000120858
9.71211e-05
5.01129e-05
9.94474e-05
4.99201e-05
0.000139608
0.000174779
0.000106179
0.000189204
0.000139485
0.000182226
0.000103095
9.71652e-05
5.01459e-05
9.94377e-05
4.99662e-05
0.000136764
0.000193839
9.38681e-05
0.000188928