/*--------------------------------*- C++ -*----------------------------------*\
| =========                 |                                                 |
| \\      /  F ield         | OpenFOAM: The Open Source CFD Toolbox           |
|  \\    /   O peration     | Version:  2312                                  |
|   \\  /    A nd           | Website:  www.openfoam.com                      |
|    \\/     M anipulation  |                                                 |
\*---------------------------------------------------------------------------*/
FoamFile
{
    version     2.0;
    format      ascii;
    arch        "LSB;label=32;scalar=64";
    class       surfaceScalarField;
    location    "1000";
    object      phi;
}
// * * * * * * * * * * * * * * * * * * * * * * * * * * * * * * * * * * * * * //

dimensions      [0 3 -1 0 0 0 0];

oriented        oriented;

internalField   nonuniform List<scalar> 
124041
(
1.36594e-07
1.84351e-07
-5.12831e-07
-7.47174e-07
0.00119313
-1.1783e-06
4.71293e-07
-8.0321e-07
0.00114047
-2.07889e-07
1.26112e-06
2.48503e-07
8.8671e-07
-2.3216e-07
-8.96638e-07
2.428e-07
1.47366e-06
1.50428e-06
-3.75211e-07
-2.99971e-07
0.000269275
-1.96575e-06
-2.43458e-06
-0.00118999
3.61293e-06
2.96331e-06
0.00118781
-0.00114069
-1.41446e-06
-9.78653e-07
9.74041e-07
0.00114047
-4.06548e-07
1.0613e-06
8.28008e-08
1.10435e-06
5.70554e-09
-6.40599e-07
4.24776e-07
-0.00113964
-1.71583e-06
-2.04516e-07
2.6551e-06
0.00113846
-6.89477e-07
7.47674e-07
-1.74662e-07
1.02893e-06
-9.63628e-08
-6.57277e-07
2.83099e-07
-0.000270687
1.13996e-06
9.42559e-07
-3.19885e-08
-1.49765e-07
0.000268787
7.3586e-07
7.18305e-07
-0.00118504
-8.49913e-07
-1.23693e-06
0.00118568
-0.00113909
-1.1583e-06
1.01955e-06
2.69478e-08
0.0011385
-1.48512e-07
1.304e-06
3.34599e-07
6.68927e-07
-4.09808e-07
-1.05109e-06
2.40431e-09
-0.00113475
-1.0058e-06
1.29753e-06
-8.3852e-07
0.00113455
3.41266e-08
1.466e-06
5.21878e-07
5.28362e-07
-5.2018e-07
-1.19604e-06
-8.52847e-08
-0.000271421
1.27007e-06
1.3143e-06
-3.04442e-07
-2.30802e-07
0.000269372
1.56995e-07
1.30074e-06
-0.00119
-2.42086e-06
-5.91581e-07
0.00119156
-0.00113747
-1.1357e-06
7.8042e-07
-8.0448e-07
0.00113783
-1.61087e-07
1.2948e-06
2.83031e-07
7.04611e-07
-3.57866e-07
-1.06124e-06
1.05349e-07
-0.00113871
-9.59017e-07
-7.72366e-07
-2.31568e-06
0.00114094
-5.50507e-08
1.43699e-06
3.51513e-07
8.83853e-07
-1.85331e-07
-9.00996e-07
2.87076e-07
-0.000270938
1.22217e-06
1.46024e-06
-4.06129e-07
-2.29759e-07
0.000268892
-5.45332e-07
-1.1254e-06
-0.001194
9.1927e-07
6.89519e-07
0.00119406
-0.00114013
-1.44589e-06
-7.0097e-07
6.73811e-07
0.00114068
-4.67193e-07
1.01437e-06
1.52823e-08
9.74274e-07
-1.35306e-07
-7.78283e-07
3.02132e-07
-0.00114411
-1.67441e-06
-2.49454e-07
2.39389e-06
0.00114317
-6.79213e-07
7.9032e-07
-1.76177e-07
1.03015e-06
-1.06096e-07
-7.15695e-07
3.22707e-07
-0.000271193
1.35915e-06
1.01514e-06
-9.92068e-08
-3.44931e-07
0.000269262
-3.60565e-07
-1.19937e-06
-0.00119289
1.95479e-06
3.78882e-07
0.00119211
-0.00114023
-1.26026e-06
-9.61645e-09
5.83162e-07
0.00113948
-2.35671e-07
1.22612e-06
2.65122e-07
9.26358e-07
-1.89013e-07
-8.12456e-07
2.48298e-07
-0.00113684
-1.31322e-06
1.1244e-06
1.32437e-06
0.00113504
-2.68388e-07
1.16108e-06
2.23315e-07
7.62388e-07
-3.36674e-07
-9.56299e-07
8.37609e-08
-0.000271517
1.31225e-06
1.11623e-06
-1.24379e-07
-2.08581e-07
0.000269421
5.00959e-08
5.69222e-07
-0.00118982
-2.24877e-07
3.92042e-08
0.00118938
-0.00113702
-1.05383e-06
4.07043e-07
-5.50427e-07
0.00113647
-6.97831e-08
1.38421e-06
3.8701e-07
8.81449e-07
-2.07299e-07
-8.5046e-07
2.23902e-07
-0.00113365
-9.45156e-07
4.19777e-08
-1.60044e-06
0.00113418
3.86233e-08
1.48251e-06
4.85743e-07
8.54113e-07
-2.22909e-07
-8.87069e-07
2.19165e-07
-0.000270678
1.13695e-06
1.34825e-06
-2.86022e-07
-9.69097e-08
0.000268576
8.73502e-08
6.3172e-07
-0.00118912
-9.41371e-07
1.02342e-07
0.00118924
-0.00113565
-1.19517e-06
1.07795e-07
-1.22356e-07
0.00113557
-2.18941e-07
1.23148e-06
2.35576e-07
8.70392e-07
-2.02706e-07
-8.58309e-07
2.25492e-07
-0.00113635
-1.14627e-06
-4.7195e-07
-5.55275e-07
0.00113688
-1.89668e-07
1.27075e-06
2.55345e-07
9.42409e-07
-1.33443e-07
-7.90074e-07
2.94801e-07
-0.000270348
1.19943e-06
1.24756e-06
-2.45577e-07
-2.05446e-07
0.000268352
-2.669e-08
-1.97646e-07
-0.00118977
-7.71884e-09
6.73885e-08
0.00118993
-0.00113574
-1.26752e-06
-7.717e-08
1.41876e-07
0.00113589
-2.81168e-07
1.17069e-06
1.85356e-07
8.57171e-07
-2.19045e-07
-8.72835e-07
2.09662e-07
-0.00113727
-1.3064e-06
-1.01891e-08
5.14056e-07
0.0011371
-3.17729e-07
1.13247e-06
1.46767e-07
8.66828e-07
-2.13573e-07
-8.62294e-07
2.13557e-07
-0.000270586
1.28283e-06
1.13594e-06
-1.73027e-07
-2.65117e-07
0.000268605
-1.63191e-07
-3.58548e-07
-0.00119023
3.94935e-07
9.53405e-08
0.00119027
-0.00113628
-1.23105e-06
3.9161e-08
9.48458e-09
0.00113634
-2.41788e-07
1.21242e-06
2.27231e-07
8.47026e-07
-2.34928e-07
-8.85183e-07
1.95919e-07
-0.00113642
-1.24932e-06
2.28118e-07
2.20422e-07
0.00113621
-2.564e-07
1.19068e-06
2.08736e-07
8.34691e-07
-2.48393e-07
-8.97208e-07
1.8203e-07
-0.000270661
1.29459e-06
1.21386e-06
-2.22018e-07
-2.50228e-07
0.000268624
-9.83511e-08
-1.2609e-07
-0.00119026
2.04817e-07
3.17885e-08
0.00119025
-0.00113613
-1.20699e-06
1.79875e-07
-8.59935e-09
0.00113594
-2.21041e-07
1.23095e-06
2.43175e-07
8.58971e-07
-2.2216e-07
-8.71446e-07
2.07692e-07
-0.00113556
-1.19987e-06
2.40536e-07
-2.93989e-08
0.00113536
-2.11296e-07
1.23222e-06
2.47206e-07
8.46647e-07
-2.33851e-07
-8.83454e-07
1.96742e-07
-0.000270441
1.24033e-06
1.21928e-06
-2.21444e-07
-2.07536e-07
0.000268411
-2.44956e-09
7.40266e-08
-0.00119019
-4.18691e-08
1.99222e-08
0.00119014
-0.00113527
-1.21356e-06
3.16034e-08
5.38925e-08
0.00113513
-2.29953e-07
1.21878e-06
2.30748e-07
8.76687e-07
-2.00078e-07
-8.48594e-07
2.25567e-07
-0.00113497
-1.20371e-06
-2.75744e-08
-2.48824e-08
0.00113492
-2.21593e-07
1.22222e-06
2.32958e-07
8.80893e-07
-1.95524e-07
-8.45019e-07
2.30583e-07
-0.000270364
1.21315e-06
1.20515e-06
-2.11234e-07
-1.93547e-07
0.000268351
-1.34051e-08
-3.90409e-09
-0.00118981
5.39445e-08
1.0897e-07
0.00118967
-0.00113491
-1.20343e-06
-6.00411e-08
-1.90485e-08
0.00113486
-2.19126e-07
1.22863e-06
2.42141e-07
8.82981e-07
-1.94422e-07
-8.40883e-07
2.30326e-07
-0.00113484
-1.20273e-06
-7.00389e-08
6.64381e-09
0.00113478
-2.18303e-07
1.22378e-06
2.37779e-07
8.84444e-07
-1.9281e-07
-8.38416e-07
2.31218e-07
-0.000270316
1.24011e-06
1.19503e-06
-2.0302e-07
-2.13355e-07
0.000268297
7.18976e-08
5.80948e-08
-0.0011893
-1.4588e-08
-3.17333e-08
0.00118922
-0.00113458
-1.19244e-06
-1.05913e-08
-3.87801e-08
0.00113446
-2.08859e-07
1.23624e-06
2.49508e-07
8.81328e-07
-1.93049e-07
-8.40052e-07
2.30117e-07
-0.00113444
-1.18854e-06
-3.26307e-09
-3.84404e-08
0.00113432
-2.05024e-07
1.23476e-06
2.47658e-07
8.80296e-07
-1.93922e-07
-8.41495e-07
2.29599e-07
-0.000270238
1.22559e-06
1.18618e-06
-1.96305e-07
-2.00317e-07
0.000268223
7.86904e-08
8.60226e-08
-0.00118902
-4.87711e-08
-3.76026e-08
0.00118894
-0.00113418
-1.19691e-06
-5.91026e-08
-3.76362e-08
0.00113413
-2.14974e-07
1.22928e-06
2.42099e-07
8.81995e-07
-1.90849e-07
-8.37984e-07
2.31177e-07
-0.00113407
-1.19496e-06
-6.61888e-08
-2.7071e-08
0.00113402
-2.13389e-07
1.22553e-06
2.38149e-07
8.83731e-07
-1.89367e-07
-8.36042e-07
2.32468e-07
-0.000270196
1.22561e-06
1.1897e-06
-2.01115e-07
-2.03152e-07
0.000268185
5.92484e-08
4.65014e-08
-0.00118863
1.71676e-08
-2.6635e-09
0.00118851
-0.00113403
-1.19712e-06
-9.16818e-08
-3.1941e-08
0.001134
-2.15559e-07
1.22811e-06
2.40913e-07
8.85268e-07
-1.8721e-07
-8.3404e-07
2.34356e-07
-0.00113387
-1.19577e-06
-7.66722e-08
-1.4018e-08
0.00113382
-2.13476e-07
1.2241e-06
2.37663e-07
8.82837e-07
-1.89134e-07
-8.36045e-07
2.32179e-07
-0.000270167
1.22702e-06
1.1869e-06
-1.99557e-07
-2.04405e-07
0.000268157
4.02133e-08
5.22067e-08
-0.00118813
8.63352e-09
1.99407e-08
0.00118801
-0.00113382
-1.19873e-06
-7.33406e-08
3.04198e-09
0.00113375
-2.16508e-07
1.22547e-06
2.3971e-07
8.82429e-07
-1.88817e-07
-8.34778e-07
2.3097e-07
-0.00113366
-1.1931e-06
-8.39123e-08
-1.59245e-08
0.00113361
-2.11183e-07
1.22565e-06
2.39467e-07
8.82722e-07
-1.88543e-07
-8.34849e-07
2.31639e-07
-0.000270145
1.21871e-06
1.18669e-06
-1.99303e-07
-1.98321e-07
0.000268137
8.44735e-08
9.15693e-08
-0.0011877
-5.41246e-08
-3.46665e-08
0.00118761
-0.00113353
-1.18835e-06
-6.29836e-08
-5.83848e-08
0.00113348
-2.06833e-07
1.23442e-06
2.48024e-07
8.79917e-07
-1.90543e-07
-8.36885e-07
2.29249e-07
-0.00113345
-1.18657e-06
-7.19804e-08
-4.40357e-08
0.00113339
-2.0544e-07
1.23061e-06
2.43907e-07
8.82527e-07
-1.88136e-07
-8.34172e-07
2.31517e-07
-0.000270123
1.22426e-06
1.18602e-06
-1.97506e-07
-2.01602e-07
0.000268111
1.06441e-07
8.44611e-08
-0.00118738
-4.17152e-08
-7.39303e-08
0.0011873
-0.00113335
-1.18923e-06
-7.61185e-08
-5.78771e-08
0.0011333
-2.09122e-07
1.23121e-06
2.442e-07
8.8441e-07
-1.85428e-07
-8.31299e-07
2.33465e-07
-0.00113319
-1.18867e-06
-5.69017e-08
-3.3016e-08
0.00113312
-2.0781e-07
1.22643e-06
2.40276e-07
8.81906e-07
-1.87565e-07
-8.33317e-07
2.31113e-07
-0.000270078
1.2248e-06
1.18279e-06
-1.96397e-07
-2.02422e-07
0.000268069
8.80772e-08
9.71243e-08
-0.00118703
-3.93125e-08
-3.68458e-08
0.00118693
-0.00113312
-1.1942e-06
-1.03495e-07
-1.66491e-08
0.00113307
-2.13446e-07
1.22561e-06
2.39686e-07
8.86306e-07
-1.82173e-07
-8.28153e-07
2.35562e-07
-0.00113293
-1.19016e-06
-1.06994e-07
-2.55801e-08
0.0011329
-2.09603e-07
1.22393e-06
2.37837e-07
8.85668e-07
-1.82625e-07
-8.28795e-07
2.35202e-07
-0.000270062
1.21382e-06
1.18162e-06
-1.96048e-07
-1.95001e-07
0.000268058
9.13138e-08
1.01509e-07
-0.00118657
-4.73531e-08
-2.97218e-08
0.00118646
-0.00113294
-1.18955e-06
-1.1151e-07
-4.04188e-08
0.00113291
-2.09189e-07
1.22941e-06
2.4357e-07
8.84795e-07
-1.8341e-07
-8.28781e-07
2.33699e-07
-0.00113282
-1.18574e-06
-1.19077e-07
-4.37007e-08
0.0011328
-2.05426e-07
1.22782e-06
2.41873e-07
8.85437e-07
-1.82857e-07
-8.28142e-07
2.34363e-07
-0.000270059
1.21852e-06
1.18311e-06
-1.96831e-07
-1.98732e-07
0.000268053
1.04895e-07
1.0525e-07
-0.00118614
-6.06988e-08
-5.46584e-08
0.00118605
-0.00113278
-1.1862e-06
-9.18625e-08
-5.33349e-08
0.00113274
-2.05942e-07
1.23147e-06
2.45665e-07
8.82937e-07
-1.84289e-07
-8.30048e-07
2.32543e-07
-0.00113268
-1.18385e-06
-9.59757e-08
-4.22815e-08
0.00113263
-2.0386e-07
1.22822e-06
2.42161e-07
8.84499e-07
-1.82812e-07
-8.28343e-07
2.33885e-07
-0.000270042
1.21728e-06
1.17863e-06
-1.93457e-07
-1.97628e-07
0.000268037
1.22114e-07
1.09041e-07
-0.00118577
-5.75485e-08
-7.6985e-08
0.00118567
-0.00113262
-1.18775e-06
-1.2003e-07
-4.90099e-08
0.0011326
-2.08424e-07
1.2289e-06
2.42708e-07
8.85905e-07
-1.80901e-07
-8.26377e-07
2.35212e-07
-0.00113248
-1.1864e-06
-1.08185e-07
-3.18419e-08
0.00113244
-2.06586e-07
1.22482e-06
2.39126e-07
8.84105e-07
-1.82569e-07
-8.27915e-07
2.33431e-07
-0.00027004
1.21713e-06
1.17729e-06
-1.93136e-07
-1.97773e-07
0.000268036
1.07089e-07
1.13806e-07
-0.00118537
-6.09002e-08
-5.79429e-08
0.00118527
-0.00113252
-1.18635e-06
-1.13254e-07
-4.95741e-08
0.00113249
-2.06592e-07
1.22982e-06
2.44198e-07
8.84846e-07
-1.81682e-07
-8.26738e-07
2.33998e-07
-0.00113236
-1.18236e-06
-1.18126e-07
-5.48273e-08
0.00113234
-2.02784e-07
1.22822e-06
2.42375e-07
8.85269e-07
-1.81244e-07
-8.26433e-07
2.3456e-07
-0.000270036
1.21451e-06
1.18085e-06
-1.95699e-07
-1.95811e-07
0.000268032
1.22895e-07
1.2485e-07
-0.00118497
-7.88252e-08
-7.3504e-08
0.00118487
-0.00113237
-1.18525e-06
-1.18381e-07
-5.26546e-08
0.00113235
-2.06074e-07
1.22998e-06
2.44068e-07
8.85653e-07
-1.8031e-07
-8.25482e-07
2.34905e-07
-0.00113224
-1.1833e-06
-1.17952e-07
-4.12044e-08
0.00113221
-2.04055e-07
1.22634e-06
2.40573e-07
8.8574e-07
-1.80128e-07
-8.25133e-07
2.34874e-07
-0.000270033
1.21449e-06
1.17669e-06
-1.92445e-07
-1.95945e-07
0.00026803
1.24708e-07
1.22011e-07
-0.00118459
-7.13145e-08
-7.68862e-08
0.00118449
-0.00113226
-1.18522e-06
-1.22538e-07
-5.35009e-08
0.00113224
-2.06154e-07
1.22914e-06
2.43342e-07
8.85882e-07
-1.79755e-07
-8.24767e-07
2.35115e-07
-0.00113211
-1.18183e-06
-1.20599e-07
-5.3073e-08
0.00113209
-2.02498e-07
1.22724e-06
2.41598e-07
8.84995e-07
-1.80509e-07
-8.25708e-07
2.34515e-07
-0.000270035
1.21426e-06
1.17759e-06
-1.93666e-07
-1.96097e-07
0.000268032
1.17467e-07
1.26232e-07
-0.00118418
-7.72935e-08
-6.4029e-08
-0.00113215
-1.18668e-06
-1.30397e-07
-4.25607e-08
-2.0741e-07
1.22746e-06
2.42161e-07
8.85133e-07
-1.79921e-07
-8.2488e-07
2.34329e-07
-0.00113203
-1.18348e-06
-1.38671e-07
-3.98378e-08
0.00113201
-2.04661e-07
1.22494e-06
2.39234e-07
8.86862e-07
-1.78246e-07
-8.23207e-07
2.35957e-07
-0.000270044
1.21154e-06
1.1759e-06
-1.925e-07
-1.94365e-07
0.000268044
1.71864e-06
1.74007e-06
-5.34111e-07
-4.65179e-07
0.000270848
-9.63961e-07
-1.00185e-06
0.000269842
-0.000268083
1.40562e-07
6.656e-08
2.54541e-06
0.0011449
-7.3755e-07
8.19613e-07
-2.1065e-07
1.16707e-06
-1.99382e-08
-5.70028e-07
3.64826e-07
-1.2692e-06
-3.17641e-07
-4.21254e-07
0.00113994
-1.71449e-07
1.33677e-06
3.83044e-07
8.1738e-07
-3.08043e-07
-9.42349e-07
1.30577e-07
0.00113444
2.47105e-06
-0.0011378
2.92202e-06
-1.58644e-06
-1.6305e-10
-4.77738e-07
-1.0724e-06
-4.2454e-08
-4.5806e-07
6.44524e-07
1.69757e-06
0.00114123
8.34162e-07
-0.0011412
-2.3758e-06
-8.4725e-07
6.29878e-07
1.55377e-07
-9.40399e-07
2.13115e-07
-2.65876e-07
8.62844e-07
-2.25788e-07
-2.24866e-07
0.000269501
-1.05944e-06
0.000271675
-0.000269636
1.38861e-07
5.78754e-07
2.91384e-06
0.00114574
-8.38895e-07
6.70492e-07
-3.31879e-07
1.26482e-06
7.00023e-08
-4.85288e-07
4.64177e-07
0.00113556
2.49636e-06
-0.0011387
2.52981e-06
-1.50982e-06
1.18812e-07
-4.05361e-07
-1.10041e-06
-9.03e-08
-5.0136e-07
6.01659e-07
1.41133e-06
0.00114008
9.56934e-07
-0.00114055
-1.22335e-06
-1.0776e-06
3.39802e-07
-1.20524e-07
-8.02598e-07
2.22428e-07
-1.9253e-07
9.51311e-07
1.16723e-06
1.77473e-06
0.00113908
-3.89655e-07
1.10477e-06
1.41197e-07
7.72404e-07
-3.48917e-07
7.63664e-08
-9.54668e-07
-9.28089e-07
-0.00114074
7.03817e-07
-1.40706e-06
7.68327e-08
-4.05679e-07
-6.43169e-07
4.60118e-07
1.12059e-06
1.52753e-08
1.37315e-06
0.00113598
2.59451e-07
-0.00113631
-4.14351e-07
-1.1398e-06
3.52798e-07
-1.19827e-07
-8.87224e-07
2.40701e-07
-2.17612e-07
8.78099e-07
-7.75353e-07
0.000271461
-0.00026954
-8.31796e-08
3.4889e-07
1.16241e-06
2.10546e-06
0.00113972
-4.84523e-07
9.62457e-07
1.76187e-08
8.65493e-07
-2.62789e-07
1.69922e-07
-8.78728e-07
-8.00538e-07
-0.00114023
1.92967e-06
-1.63638e-06
-2.05338e-07
-6.83064e-07
-5.18402e-07
4.60967e-07
1.20286e-06
7.2619e-08
1.41631e-06
0.001137
2.91286e-07
-0.00113706
-8.79425e-07
-1.06407e-06
4.64622e-07
-3.79295e-08
-9.14276e-07
1.94678e-07
-2.57467e-07
8.42185e-07
-0.000268616
3.93697e-07
3.24124e-07
1.45008e-06
1.24285e-06
-2.36368e-07
-3.62109e-07
0.000267748
-1.5481e-06
-1.52855e-06
0.000270748
-0.000268459
3.79675e-07
4.07282e-07
1.70822e-06
0.00113232
-3.49708e-07
1.08687e-06
1.39213e-07
6.2013e-07
-4.57971e-07
-1.11276e-06
-3.27793e-08
-9.33699e-07
8.93736e-07
-1.72885e-06
0.00114079
3.84112e-08
1.56799e-06
4.70188e-07
9.27024e-07
-1.95189e-07
-8.68148e-07
2.70769e-07
0.00113384
-3.63395e-07
-0.00113225
-1.99076e-06
-9.99099e-07
5.4466e-07
5.43007e-08
-9.95054e-07
1.46388e-07
-2.90603e-07
7.56641e-07
9.78751e-07
0.00113809
2.6015e-07
-0.00113906
1.52178e-06
-1.50771e-06
-5.44604e-08
-5.11854e-07
-7.94514e-07
2.76159e-07
-1.39646e-07
9.45646e-07
-3.15128e-07
5.5009e-08
0.000269587
-1.25677e-06
0.000271106
-0.000269155
2.82776e-07
1.51463e-09
6.96319e-07
0.00113362
-1.64195e-07
1.23882e-06
3.41011e-07
5.2395e-07
-5.5694e-07
-1.20655e-06
-1.19409e-07
-1.23087e-06
1.65289e-06
-1.43425e-07
0.00113871
-2.49172e-07
1.25502e-06
2.145e-07
8.65492e-07
-2.71489e-07
-8.69072e-07
1.47686e-07
0.00113488
1.64829e-07
-0.00113351
-2.38217e-06
-8.88953e-07
5.21511e-07
8.34709e-08
-1.02099e-06
1.67552e-07
-2.97365e-07
7.57767e-07
1.00136e-06
0.00113369
1.08626e-06
-0.00113499
1.58324e-06
-1.48702e-06
1.95239e-08
-4.43795e-07
-9.88265e-07
9.99679e-08
-3.16085e-07
7.42529e-07
-4.02752e-07
-7.15101e-07
0.00113632
-1.3264e-07
1.36154e-06
3.34938e-07
9.60934e-07
-1.24771e-07
3.25104e-07
-8.01898e-07
4.32775e-07
-0.00113964
3.9065e-07
-1.21815e-06
2.83836e-07
-2.09702e-07
-9.41029e-07
9.68156e-08
7.72563e-07
-3.15408e-07
1.25411e-06
0.00113834
-4.3041e-07
-0.0011378
-2.42047e-07
-1.26137e-06
2.44518e-07
-2.41481e-07
-8.21911e-07
2.33085e-07
-1.75504e-07
8.99665e-07
-5.43735e-07
-1.85074e-07
0.000269243
-1.27135e-06
0.000270198
-0.000268257
3.06644e-07
2.50557e-08
9.33633e-08
-1.77542e-06
0.00113756
5.35983e-08
1.51715e-06
5.34165e-07
8.65522e-07
-2.30195e-07
2.24938e-07
-8.9882e-07
1.24858e-06
-0.00113566
4.99212e-07
-1.21117e-06
3.55936e-07
-1.4641e-07
-1.13189e-06
-6.98877e-08
5.75772e-07
-4.8808e-07
1.24714e-06
0.00113936
1.00661e-07
-0.00113904
-6.61436e-07
-1.15038e-06
2.28114e-07
-2.08055e-07
-8.5421e-07
2.58276e-07
-1.83895e-07
9.01562e-07
-0.000269361
2.1168e-07
2.30142e-07
9.02477e-07
9.57762e-07
-1.00779e-07
-2.22358e-08
0.000269011
-1.432e-06
-1.03657e-06
0.0002725
-0.000270377
5.6586e-08
2.88873e-07
-2.63682e-06
0.00113603
1.15006e-07
1.63887e-06
5.96578e-07
7.84335e-07
-2.62089e-07
-9.69608e-07
1.77e-07
-1.61675e-06
1.2142e-07
2.14058e-06
0.00113721
-5.87427e-07
8.86981e-07
-1.06262e-07
8.77997e-07
-1.98292e-07
-8.5223e-07
2.09092e-07
0.00114217
-4.90785e-07
-0.0011406
-1.56378e-06
-1.0724e-06
3.23914e-07
-1.21631e-07
-9.21392e-07
2.17633e-07
-2.30169e-07
8.49013e-07
1.13784e-06
0.00113651
1.90523e-08
-0.0011363
9.71678e-07
-1.42529e-06
1.70701e-07
-3.45937e-07
-1.06731e-06
3.84991e-08
-3.87714e-07
6.77312e-07
-1.63626e-07
-4.93967e-07
0.000268989
-1.34378e-06
0.000270954
-0.000268866
2.51512e-07
1.4124e-07
-2.16406e-06
0.00113682
-6.58785e-09
1.44766e-06
4.13439e-07
8.6811e-07
-1.86253e-07
-9.09645e-07
2.76273e-07
-1.46015e-06
3.92293e-07
1.24123e-06
0.00113325
-4.07015e-07
1.04542e-06
7.35316e-08
7.40929e-07
-3.02445e-07
-9.91229e-07
1.13283e-07
0.00114262
-1.71542e-06
-0.00114103
4.4326e-07
-1.39151e-06
1.08434e-08
-4.53574e-07
-7.63817e-07
3.38622e-07
-8.783e-08
9.92238e-07
1.4056e-06
0.00113771
-1.51713e-06
-0.00113542
-1.14371e-06
-1.13109e-06
3.74649e-07
-1.16683e-07
-9.47745e-07
2.05078e-07
-2.34852e-07
8.16027e-07
1.36384e-07
-3.53203e-08
0.0011385
-2.42433e-07
1.24942e-06
2.46415e-07
8.03859e-07
-2.6714e-07
1.39176e-07
-9.1495e-07
1.28484e-06
-0.00113753
-7.89516e-07
-1.09584e-06
3.4977e-07
-1.02494e-07
-1.12865e-06
9.3598e-09
6.24433e-07
-4.36805e-07
1.29116e-06
0.00113708
1.32578e-06
-0.00113769
4.33447e-08
-1.2197e-06
2.71202e-07
-1.9946e-07
-1.09696e-06
-7.35844e-09
-4.25243e-07
6.34716e-07
-7.99031e-08
-4.12776e-07
0.000268225
-1.60033e-06
0.000271716
-0.000269391
3.87589e-07
2.93732e-07
1.87845e-07
3.80985e-07
0.00113924
-3.60361e-07
1.08385e-06
8.02484e-08
8.8472e-07
-1.95269e-07
2.36014e-07
-8.61721e-07
-1.86168e-07
-0.00113667
-2.8983e-06
-8.13519e-07
5.36203e-07
1.15832e-07
-1.02822e-06
1.77004e-07
7.55175e-07
-2.97149e-07
9.13282e-07
0.00113745
1.8596e-07
-0.00113804
1.96841e-06
-1.5279e-06
-3.84585e-08
-5.16845e-07
-9.62689e-07
1.13968e-07
-3.02355e-07
7.63538e-07
-0.000268983
1.18078e-08
2.37336e-07
1.24081e-06
1.47368e-06
-4.16145e-07
-2.44639e-07
0.000270446
-9.6491e-07
-1.15089e-06
0.000271554
-0.000269695
2.29959e-07
2.63699e-08
-4.78307e-07
0.00114292
-2.80678e-07
1.2695e-06
1.76107e-07
8.69501e-07
-2.23928e-07
-9.01146e-07
2.22327e-07
-1.27088e-06
-4.98867e-08
2.12183e-08
0.00113719
-2.09076e-07
1.29432e-06
3.0294e-07
6.73764e-07
-3.96281e-07
-1.08906e-06
4.598e-08
0.00114093
5.28191e-07
-0.00114205
1.78716e-06
-1.57544e-06
-5.91326e-08
-5.47877e-07
-8.64068e-07
2.1408e-07
-2.20412e-07
8.9068e-07
1.45741e-06
0.00114027
1.19321e-07
-0.00113933
-1.40529e-06
-1.07253e-06
3.95939e-07
-8.17414e-08
-9.84729e-07
1.44883e-07
-3.1219e-07
7.99324e-07
-2.22311e-07
-2.49923e-07
0.00026902
-1.04589e-06
0.000271723
-0.000269632
6.35287e-08
3.48924e-07
1.15785e-06
0.00114352
-5.05589e-07
9.85314e-07
-1.42405e-08
9.44212e-07
-1.53454e-07
-8.07183e-07
2.71311e-07
-1.06685e-06
-1.59869e-06
-1.57912e-06
0.00114025
-8.64964e-08
1.45897e-06
3.95659e-07
8.50089e-07
-2.21762e-07
-9.23626e-07
2.26484e-07
0.00114239
6.79107e-07
-0.00114323
1.00069e-06
-1.33999e-06
1.7996e-07
-3.2806e-07
-9.88788e-07
8.1122e-08
-3.57166e-07
7.66642e-07
1.27589e-06
0.0011442
4.68101e-08
-0.0011439
-3.23795e-07
-1.24798e-06
2.14439e-07
-2.74712e-07
-8.76687e-07
2.14867e-07
-2.32543e-07
9.03881e-07
1.18387e-06
-4.58715e-10
0.00113664
-2.18901e-07
1.27602e-06
2.41127e-07
6.52094e-07
-4.06359e-07
2.17997e-08
-1.08665e-06
-6.17425e-07
-0.00113935
3.00599e-07
-1.39643e-06
3.27201e-08
-4.35765e-07
-8.10148e-07
2.97443e-07
9.49304e-07
-1.46806e-07
1.16186e-06
0.00113741
-1.46944e-07
-0.00113681
-2.01051e-08
-1.33673e-06
1.32508e-07
-3.42096e-07
-8.97076e-07
2.1649e-07
-2.24865e-07
8.56889e-07
-1.35002e-07
-1.50817e-07
0.000269976
-8.6354e-07
0.000272509
-0.000270599
-2.75856e-08
2.57082e-07
9.69861e-08
1.58276e-06
0.00113717
-4.47567e-07
9.95065e-07
4.12714e-08
7.29135e-07
-3.39633e-07
8.32785e-08
-1.00342e-06
-7.0931e-07
-0.00114399
1.42147e-06
-1.5776e-06
-1.42551e-07
-6.243e-07
-7.05228e-07
3.6733e-07
1.05585e-06
-6.93953e-08
1.36909e-06
0.00113875
2.31237e-08
-0.00113789
-8.94151e-07
-1.09198e-06
3.87543e-07
-1.05419e-07
-1.01924e-06
9.10079e-08
-3.5862e-07
7.40442e-07
-0.000269107
3.3199e-07
1.13428e-07
1.59148e-06
1.25625e-06
-1.96847e-07
-4.38657e-07
0.000269342
-1.14374e-06
-1.32956e-06
0.000270515
-0.00026856
3.16652e-07
2.01818e-07
1.92268e-06
0.00113967
-5.44761e-07
9.55819e-07
-5.09402e-08
8.92961e-07
-2.20335e-07
-8.57886e-07
2.11308e-07
-1.11314e-06
2.90235e-07
-1.20833e-06
0.00114084
-1.2393e-07
1.41634e-06
3.55644e-07
8.44721e-07
-2.77941e-07
-9.37128e-07
1.7665e-07
0.00113626
4.43037e-07
-0.00113724
1.0158e-06
-1.41339e-06
1.62081e-07
-3.39635e-07
-8.64979e-07
1.9409e-07
-2.34292e-07
8.75587e-07
1.28199e-06
0.00113991
5.79837e-07
-0.00114064
-1.34942e-07
-1.25091e-06
2.51074e-07
-2.3494e-07
-8.14763e-07
2.74569e-07
-1.72406e-07
9.53043e-07
-3.99422e-07
-1.32835e-07
0.000269696
-1.13697e-06
0.000271204
-0.000269292
2.41279e-07
2.65295e-07
5.37174e-07
0.0011413
-2.45328e-07
1.2274e-06
2.54963e-07
7.51447e-07
-3.7329e-07
-1.00908e-06
7.09627e-08
-1.33889e-06
7.83665e-07
4.82332e-07
0.00114329
-3.44241e-07
1.18976e-06
1.50536e-07
9.00357e-07
-2.42543e-07
-8.69417e-07
1.97893e-07
0.00113769
1.45688e-06
-0.00113885
-4.82297e-07
-1.11578e-06
3.45124e-07
-1.21106e-07
-9.38803e-07
1.5478e-07
-2.92934e-07
8.21328e-07
1.1549e-06
0.00113649
1.85459e-06
-0.00113895
1.20849e-06
-1.3672e-06
1.60377e-07
-3.27928e-07
-9.10693e-07
1.37098e-07
-2.8334e-07
8.26263e-07
-5.07411e-07
-3.05284e-08
0.00113818
-3.4997e-07
1.15439e-06
1.36145e-07
9.19489e-07
-1.71254e-07
2.68335e-07
-8.34196e-07
-2.36465e-07
-0.00114073
8.80463e-07
-1.35173e-06
1.76838e-07
-3.28003e-07
-7.96313e-07
2.5916e-07
9.44506e-07
-1.77121e-07
1.19183e-06
0.00113994
-7.06665e-07
-0.00113962
1.77834e-07
-1.34162e-06
1.87957e-07
-3.09144e-07
-7.43504e-07
3.2944e-07
-1.02878e-07
1.00415e-06
-4.99466e-07
-2.37945e-07
0.000270233
-1.01764e-06
0.000270231
-0.000268443
1.79868e-07
2.04801e-07
9.72877e-08
-1.48434e-06
0.00113971
-3.08173e-08
1.44271e-06
4.51289e-07
7.7718e-07
-3.31323e-07
1.25644e-07
-9.89926e-07
1.04924e-06
-0.00113909
2.23691e-06
-1.46701e-06
8.47031e-08
-4.13749e-07
-9.00696e-07
1.20195e-07
8.14451e-07
-2.95641e-07
1.39325e-06
0.00114136
2.90327e-07
-0.00114119
-1.34695e-06
-1.04223e-06
3.8041e-07
-8.00675e-08
-8.25274e-07
2.89288e-07
-1.71149e-07
9.48426e-07
-0.000269522
3.58102e-07
2.3181e-07
1.31117e-06
1.1243e-06
-1.42778e-07
-2.21804e-07
0.000268444
-1.44934e-06
-1.19229e-06
0.000270473
-0.000268426
2.04368e-07
3.90503e-07
4.60548e-07
0.00113552
-2.42373e-07
1.24323e-06
2.55859e-07
8.72101e-07
-2.32086e-07
-8.68654e-07
1.96281e-07
-1.27443e-06
5.52225e-07
1.45275e-07
0.00113891
-2.53039e-07
1.25397e-06
2.29254e-07
9.75143e-07
-1.41433e-07
-7.8645e-07
3.00976e-07
0.00113489
2.47765e-08
-0.00113488
-8.47685e-07
-1.07831e-06
4.23466e-07
-4.66915e-08
-8.50458e-07
2.2812e-07
-1.99066e-07
8.87706e-07
1.18821e-06
0.00113601
4.84027e-08
-0.00113681
6.03878e-07
-1.32874e-06
1.69565e-07
-3.05748e-07
-7.6048e-07
3.14908e-07
-1.1025e-07
9.83771e-07
-1.77778e-07
-2.01958e-07
0.00026905
-1.39303e-06
0.000270583
-0.00026858
3.82193e-07
1.96547e-07
-5.32901e-07
0.00113672
-1.37269e-07
1.31e-06
3.20961e-07
8.63943e-07
-2.42158e-07
-8.93045e-07
2.02649e-07
-1.32999e-06
1.64631e-06
8.68229e-07
0.00113448
-2.90973e-07
1.18162e-06
1.89621e-07
8.14438e-07
-2.82756e-07
-9.2139e-07
1.38642e-07
0.00113547
-1.87538e-07
-0.00113561
7.13596e-09
-1.2315e-06
1.99124e-07
-2.56661e-07
-7.67531e-07
3.22871e-07
-1.07224e-07
9.75525e-07
1.26125e-06
0.00113267
-1.69857e-08
-0.00113259
-2.5596e-07
-1.2388e-06
2.60988e-07
-2.13226e-07
-8.46757e-07
2.52772e-07
-1.77465e-07
8.97725e-07
-4.91073e-07
2.93363e-07
0.00113979
-2.77116e-07
1.22467e-06
2.21676e-07
1.00417e-06
-1.0393e-07
3.22234e-07
-7.37696e-07
4.21033e-07
-0.00113776
-4.09237e-07
-1.05866e-06
4.01203e-07
-6.52836e-08
-8.47063e-07
2.2385e-07
8.86759e-07
-2.0884e-07
1.35435e-06
0.00113714
3.49386e-07
-0.00113824
1.81679e-07
-1.16766e-06
3.40943e-07
-1.42672e-07
-8.02413e-07
2.38764e-07
-1.75308e-07
9.18759e-07
-2.27475e-07
-2.58102e-07
0.000268074
-1.46031e-06
0.000270105
-0.000268019
4.03999e-07
2.31856e-07
3.40616e-07
-7.58618e-07
0.00114099
-1.57349e-07
1.31309e-06
3.01288e-07
9.98944e-07
-1.18372e-07
3.32554e-07
-7.66301e-07
3.74549e-07
-0.00113349
-1.28888e-06
-9.77014e-07
4.80587e-07
2.42938e-08
-9.33427e-07
1.67747e-07
8.06159e-07
-2.73998e-07
1.10216e-06
0.0011377
1.84319e-07
-0.00113895
9.72081e-07
-1.32306e-06
1.13919e-07
-3.48078e-07
-7.1938e-07
3.39562e-07
-8.18777e-08
1.01178e-06
-0.000268759
1.75232e-07
3.62761e-07
1.05574e-06
1.2542e-06
-2.41873e-07
-6.64593e-08
0.000268471
-1.36891e-06
-1.1931e-06
0.000270708
-0.00026865
2.12322e-07
2.91987e-07
-9.73492e-07
0.00113502
-3.55314e-08
1.46296e-06
4.26607e-07
8.92835e-07
-1.89927e-07
-8.44384e-07
2.3645e-07
-1.33459e-06
-1.58626e-07
6.23175e-07
0.00113546
-3.10176e-07
1.18155e-06
1.66901e-07
9.6926e-07
-1.19742e-07
-7.71194e-07
3.02294e-07
0.00113563
-1.00066e-07
-0.00113543
-6.44233e-07
-1.13535e-06
3.22688e-07
-1.32387e-07
-8.4164e-07
2.44228e-07
-1.80937e-07
8.95146e-07
1.23307e-06
0.00113497
-3.28422e-07
-0.001135
3.40302e-07
-1.28509e-06
2.22036e-07
-2.59172e-07
-8.41892e-07
2.35692e-07
-1.87084e-07
8.96914e-07
-7.92129e-08
-2.59234e-07
0.000268533
-1.26851e-06
0.000270535
-0.000268503
2.46815e-07
2.22668e-07
1.94331e-07
0.00113553
-2.78668e-07
1.17284e-06
1.81874e-07
9.90622e-07
-8.89427e-08
-7.48411e-07
3.36341e-07
-1.21002e-06
-5.60517e-07
-4.41892e-07
0.00113321
-1.92697e-07
1.29131e-06
2.81948e-07
9.38527e-07
-1.35042e-07
-8.06947e-07
2.93607e-07
0.00113637
-7.97234e-07
-0.00113604
2.65889e-07
-1.24428e-06
2.1114e-07
-2.59545e-07
-7.90455e-07
2.83586e-07
-1.36905e-07
9.42857e-07
1.30976e-06
0.00113571
-9.99373e-07
-0.00113489
-4.15671e-07
-1.19e-06
2.83423e-07
-1.89858e-07
-7.7416e-07
3.07188e-07
-1.11787e-07
9.6556e-07
4.73208e-07
3.45509e-08
0.00113611
-1.20298e-07
1.3714e-06
3.52253e-07
8.83238e-07
-2.01937e-07
2.11757e-07
-8.35163e-07
1.84714e-07
-0.00113581
-2.57961e-07
-1.15701e-06
2.70443e-07
-1.81935e-07
-8.55741e-07
2.26827e-07
8.73012e-07
-2.0213e-07
1.31336e-06
0.00113435
3.99871e-07
-0.0011347
-2.13353e-07
-1.17033e-06
2.92204e-07
-1.66005e-07
-8.90544e-07
1.83089e-07
-2.34733e-07
8.30965e-07
-3.83474e-08
-2.07439e-07
0.000268196
-1.34248e-06
0.000270865
-0.000268774
2.90249e-07
2.70709e-07
1.96585e-08
1.17642e-06
0.0011366
-3.66657e-07
1.07707e-06
9.65918e-08
9.82987e-07
-1.03121e-07
3.14501e-07
-7.41711e-07
-4.90794e-07
-0.00113567
-9.85925e-07
-1.07138e-06
3.2283e-07
-1.15903e-07
-7.9351e-07
2.99208e-07
9.41558e-07
-1.32181e-07
1.13664e-06
0.00113506
-2.70292e-07
-0.00113527
7.07773e-07
-1.29223e-06
1.73143e-07
-3.00165e-07
-8.44983e-07
2.22761e-07
-1.96657e-07
8.78659e-07
-0.000268341
1.82707e-07
2.60064e-07
1.18819e-06
1.2271e-06
-2.21538e-07
-1.878e-07
0.000268702
-1.19671e-06
-1.25149e-06
0.000270789
-0.000268762
2.50357e-07
1.71261e-07
-4.0798e-07
0.0011358
-1.84172e-07
1.31616e-06
2.72935e-07
8.93076e-07
-1.82644e-07
-8.43795e-07
2.4204e-07
-1.25931e-06
-2.49342e-07
1.79929e-07
0.00113503
-2.3477e-07
1.25797e-06
2.454e-07
8.72189e-07
-2.11176e-07
-8.68082e-07
2.13116e-07
0.001136
-8.58492e-09
-0.00113599
2.18627e-07
-1.31839e-06
1.69554e-07
-2.98842e-07
-8.62466e-07
2.19609e-07
-2.03578e-07
8.738e-07
1.30179e-06
0.00113543
4.91546e-08
-0.00113527
-2.13482e-07
-1.21175e-06
2.82486e-07
-1.93398e-07
-9.18049e-07
1.73092e-07
-2.56961e-07
8.28495e-07
-2.1436e-07
-2.18712e-07
0.000268514
-1.17184e-06
0.000270629
-0.000268586
1.76347e-07
2.54204e-07
1.75582e-07
0.00113669
-2.40369e-07
1.21218e-06
2.31291e-07
9.09386e-07
-1.72224e-07
-8.24953e-07
2.4995e-07
-1.20481e-06
-8.18099e-07
-2.78809e-07
0.00113636
-2.04744e-07
1.29679e-06
2.70988e-07
9.42782e-07
-1.37979e-07
-7.95401e-07
2.80452e-07
0.00113723
2.9237e-08
-0.00113714
-8.20053e-08
-1.18713e-06
2.68039e-07
-2.00253e-07
-9.12847e-07
1.72654e-07
-2.57678e-07
8.29222e-07
1.26623e-06
0.00113698
-2.48239e-08
-0.00113698
6.521e-08
-1.2417e-06
2.48996e-07
-2.30666e-07
-8.88007e-07
1.90024e-07
-2.32781e-07
8.52585e-07
2.95782e-07
-2.08357e-07
0.00113422
-1.94273e-07
1.28411e-06
2.65151e-07
8.31136e-07
-2.32845e-07
1.86197e-07
-8.92517e-07
-5.44773e-08
-0.00113563
1.40474e-07
-1.2631e-06
1.84065e-07
-2.79574e-07
-8.68768e-07
2.13934e-07
8.60685e-07
-2.1431e-07
1.22214e-06
0.00113467
-5.0079e-08
-0.00113442
-8.49568e-08
-1.26865e-06
2.0759e-07
-2.58664e-07
-8.71829e-07
2.11511e-07
-2.0999e-07
8.56019e-07
-1.85167e-07
-1.91244e-07
0.00026889
-1.13926e-06
0.000270899
-0.000268906
1.65894e-07
2.46436e-07
-2.35554e-07
3.79224e-07
0.00113508
-2.54706e-07
1.18256e-06
2.19658e-07
8.48506e-07
-2.27162e-07
1.95271e-07
-8.78114e-07
-1.29573e-07
-0.00113732
4.10983e-07
-1.29548e-06
1.48341e-07
-3.1325e-07
-8.40879e-07
2.34156e-07
8.87582e-07
-1.91903e-07
1.28444e-06
0.00113587
-8.6344e-09
-0.00113555
-4.00062e-07
-1.14082e-06
3.07721e-07
-1.57696e-07