/*--------------------------------*- C++ -*----------------------------------*\
| =========                 |                                                 |
| \\      /  F ield         | OpenFOAM: The Open Source CFD Toolbox           |
|  \\    /   O peration     | Version:  2312                                  |
|   \\  /    A nd           | Website:  www.openfoam.com                      |
|    \\/     M anipulation  |                                                 |
\*---------------------------------------------------------------------------*/
FoamFile
{
    version     2.0;
    format      ascii;
    arch        "LSB;label=32;scalar=64";
    class       volVectorField;
    location    "1000";
    object      U;
}
// * * * * * * * * * * * * * * * * * * * * * * * * * * * * * * * * * * * * * //

dimensions      [0 1 -1 0 0 0 0];

internalField   nonuniform List<vector> 
42973
(
(2.32728e-06 -1.40897e-05 0.113311)
(-3.04724e-05 -3.23507e-05 0.108272)
(-0.000116162 -9.51163e-05 0.104701)
(0.000311826 0.000262842 0.112928)
(8.17191e-05 9.60728e-05 0.108296)
(0.000242343 3.71357e-05 0.108168)
(4.23651e-05 -4.52013e-06 0.104445)
(-9.26519e-05 -0.000114509 0.112582)
(-8.21514e-05 -1.80024e-05 0.108123)
(-0.000107564 -0.000112862 0.107721)
(-7.02642e-05 -4.73878e-05 0.104707)
(-0.00019234 -4.76851e-05 0.113117)
(-5.82125e-05 -6.37876e-05 0.108004)
(-0.00016118 3.04228e-05 0.108235)
(-0.000122361 -3.02975e-05 0.104516)
(0.000108143 7.22227e-05 0.113427)
(3.67935e-05 8.65314e-05 0.108283)
(0.000226326 1.55274e-05 0.108618)
(1.30497e-05 -9.04255e-05 0.104628)
(0.000173137 5.16599e-05 0.113279)
(-2.8816e-06 4.19577e-05 0.108227)
(7.73131e-05 -6.5787e-05 0.107849)
(-1.59511e-06 -5.39467e-05 0.104723)
(-3.75058e-05 4.36143e-06 0.112995)
(-8.42296e-06 -5.65254e-05 0.107923)
(-0.000130325 4.20274e-06 0.107665)
(-7.18245e-05 1.25477e-05 0.104405)
(-8.11223e-05 -3.85321e-06 0.112958)
(7.57231e-06 -1.04186e-05 0.107818)
(-3.43863e-05 3.44017e-05 0.107932)
(-5.13749e-05 -2.41357e-05 0.104303)
(9.47161e-06 2.52342e-06 0.113024)
(2.94066e-06 1.8019e-05 0.107839)
(4.3733e-05 -2.44492e-06 0.107984)
(-1.68743e-05 -5.53836e-05 0.104398)
(4.05781e-05 1.46339e-05 0.113062)
(-1.08567e-05 6.45431e-06 0.107888)
(1.90711e-05 -1.86979e-05 0.107899)
(-3.95824e-05 -5.37062e-05 0.104415)
(1.85405e-05 9.79889e-06 0.113062)
(-1.23663e-05 8.2435e-07 0.107862)
(-2.26518e-06 -1.51156e-05 0.107817)
(-4.07722e-05 -3.4727e-05 0.104332)
(-4.059e-06 3.82768e-06 0.113054)
(3.1997e-06 3.94289e-06 0.10778)
(-6.88961e-07 6.50374e-06 0.107768)
(-3.62348e-05 -2.64299e-05 0.104307)
(3.12522e-06 6.21606e-06 0.113013)
(6.69337e-06 -8.38311e-07 0.107752)
(4.79293e-07 6.57658e-06 0.107757)
(-3.2505e-05 -3.53421e-05 0.104288)
(-2.7059e-06 -4.52984e-06 0.112967)
(5.00914e-06 -4.20657e-06 0.107716)
(-4.77141e-06 4.52671e-06 0.107715)
(-2.91344e-05 -3.0077e-05 0.10426)
(-6.27706e-06 -5.38945e-06 0.112941)
(7.93665e-06 -3.32283e-06 0.107682)
(-2.78503e-06 8.50435e-06 0.107683)
(-3.08899e-05 -3.04657e-05 0.104245)
(-1.43102e-06 -2.96495e-06 0.112902)
(9.10606e-06 -2.67974e-06 0.107669)
(-1.99108e-06 8.15382e-06 0.107664)
(-2.99927e-05 -3.10712e-05 0.104235)
(-2.46467e-06 -1.34501e-06 0.112855)
(7.90127e-06 -9.36465e-07 0.107646)
(-2.66443e-06 8.36992e-06 0.107645)
(-3.0013e-05 -2.84074e-05 0.104228)
(-7.44721e-06 -6.17576e-06 0.112815)
(7.35743e-06 -5.90448e-06 0.10762)
(-5.14767e-06 8.05816e-06 0.107624)
(-2.93463e-05 -2.97595e-05 0.104219)
(-6.26919e-06 -8.9941e-06 0.112786)
(8.73464e-06 -5.22112e-06 0.107603)
(-4.10407e-06 7.69594e-06 0.107599)
(-2.84168e-05 -3.01141e-05 0.104203)
(-7.01449e-06 -6.37969e-06 0.112751)
(1.0774e-05 -2.56933e-06 0.107581)
(-3.46843e-06 1.08723e-05 0.107576)
(-2.82242e-05 -2.661e-05 0.104199)
(-8.1531e-06 -6.76818e-06 0.112707)
(1.06475e-05 -4.61774e-06 0.107566)
(-5.22445e-06 1.09228e-05 0.107566)
(-2.85637e-05 -2.81006e-05 0.104198)
(-8.82162e-06 -8.5547e-06 0.112667)
(9.43235e-06 -5.86827e-06 0.10755)
(-5.4579e-06 9.85729e-06 0.107552)
(-2.70551e-05 -2.7643e-05 0.104192)
(-8.92321e-06 -1.05371e-05 0.112632)
(1.15226e-05 -5.2814e-06 0.107536)
(-4.55485e-06 1.07535e-05 0.107533)
(-2.66744e-05 -2.76557e-05 0.104192)
(-9.51098e-06 -9.02146e-06 0.112593)
(1.0794e-05 -5.55527e-06 0.107525)
(-6.29057e-06 1.11244e-05 0.107522)
(-2.77916e-05 -2.66897e-05 0.104191)
(-1.09379e-05 -1.05408e-05 0.112556)
(1.14604e-05 -5.9353e-06 0.107511)
(-5.46032e-06 1.13973e-05 0.107511)
(-2.63992e-05 -2.66755e-05 0.104191)
(-1.04373e-05 -1.08721e-05 0.112519)
(1.16276e-05 -5.88836e-06 0.107501)
(-6.35644e-06 1.14209e-05 0.107499)
(-2.66899e-05 -2.66641e-05 0.104192)
(-1.11888e-05 -1.0116e-05 0.112481)
(1.19816e-05 -5.24974e-06 0.107491)
(-5.35851e-06 1.26139e-05 0.107491)
(-2.62431e-05 -2.57868e-05 0.104197)
(0.000170343 0.0001875 0.105324)
(1.97916e-05 -8.78777e-06 0.104253)
(0.000259638 -1.25638e-05 0.108874)
(2.38308e-05 9.86441e-06 0.108235)
(0.000197575 0.000136442 0.107893)
(0.000176647 6.40086e-05 0.108409)
(-5.66251e-05 2.99444e-05 0.104712)
(0.000192925 9.44401e-06 0.104944)
(-3.86792e-05 0.000295121 0.108869)
(0.00014018 0.000164871 0.107896)
(5.95357e-05 5.22508e-05 0.108347)
(-7.31238e-05 -0.000130105 0.108331)
(8.34983e-05 8.39194e-05 0.108309)
(-3.76051e-06 4.32533e-05 0.107944)
(0.000101925 9.82858e-05 0.104888)
(-0.000162491 -5.29203e-05 0.108308)
(0.000211211 8.60283e-05 0.108259)
(7.87675e-05 -4.76037e-06 0.107935)
(0.000114922 8.87151e-05 0.104561)
(8.86899e-05 3.96583e-05 0.104062)
(-0.000121636 -0.00012348 0.104505)
(0.000101301 0.000110196 0.107624)
(0.000120755 4.84708e-05 0.108387)
(-0.00016232 -6.42248e-06 0.107608)
(-0.000131113 -1.80223e-05 0.108145)
(8.12342e-05 9.82826e-05 0.104771)
(-5.00718e-05 -6.55996e-05 0.104729)
(0.000149078 1.74064e-05 0.107647)
(8.85815e-05 -2.10548e-05 0.108251)
(1.76752e-05 -0.000186295 0.107626)
(4.61305e-05 -0.000109961 0.107737)
(4.09787e-05 5.35642e-05 0.10795)
(-3.74161e-05 1.62242e-05 0.108178)
(2.01491e-05 3.44655e-06 0.108152)
(0.000193849 -1.63085e-05 0.104679)
(-7.46181e-05 -3.84521e-05 0.104369)
(0.000136722 1.52512e-06 0.107967)
(7.18502e-07 -0.000100391 0.107779)
(2.95841e-05 -5.97511e-06 0.108168)
(4.34006e-05 3.87951e-05 0.104851)
(-5.61537e-05 -2.78506e-05 0.10449)
(-7.4465e-05 3.99271e-05 0.105248)
(-0.000205226 -1.73943e-05 0.107797)
(-0.000171178 -1.57792e-05 0.108054)
(-0.000107929 1.03029e-06 0.108438)
(-5.31509e-05 3.08448e-05 0.107927)
(-0.000151304 1.3183e-05 0.104552)
(4.45217e-07 -7.14093e-05 0.10464)
(-3.50922e-05 -0.00015568 0.10779)
(1.39879e-05 -7.84051e-05 0.107648)
(-8.9256e-05 5.36753e-05 0.108382)
(-5.76358e-05 9.73713e-05 0.107955)
(-2.45834e-05 -5.07203e-06 0.108188)
(-9.62165e-05 -7.64973e-05 0.10799)
(-0.000102316 1.39409e-05 0.108077)
(-2.65911e-05 -0.000111844 0.104243)
(-0.000136933 7.269e-05 0.104903)
(-4.80217e-05 -9.93773e-06 0.108178)
(-0.000224902 -1.38425e-05 0.10802)
(-0.000142274 -1.96183e-05 0.108015)
(-5.53658e-05 5.522e-05 0.104678)
(4.19697e-05 0.000134644 0.105089)
(4.91249e-05 -3.58779e-05 0.104931)
(-2.29167e-05 1.71527e-05 0.108552)
(1.95711e-05 3.73475e-05 0.107971)
(0.000154772 3.10261e-05 0.108435)
(9.97066e-05 4.64021e-05 0.108269)
(-5.44365e-05 2.17562e-05 0.104527)
(9.70782e-05 3.21277e-05 0.104958)
(-5.26885e-05 9.98692e-05 0.108504)
(-5.33751e-05 0.000123254 0.108198)
(7.61328e-05 7.37509e-05 0.108467)
(4.55773e-05 -2.45739e-06 0.108705)
(-8.85473e-05 1.51111e-05 0.108023)
(3.61105e-05 5.42502e-05 0.108218)
(6.30419e-06 -1.35066e-05 0.108049)
(-2.07246e-05 -2.75077e-06 0.104865)
(8.29431e-05 4.61847e-05 0.105317)
(-0.000106878 -2.34562e-05 0.10797)
(0.000158727 3.79717e-05 0.108659)
(7.32454e-05 -3.83957e-05 0.108072)
(8.87716e-05 -1.88929e-06 0.104764)
(0.00013904 4.07193e-05 0.104686)
(-1.83369e-05 -8.82838e-05 0.104496)
(0.000164965 2.506e-05 0.108318)
(7.60634e-05 4.86199e-05 0.108344)
(8.23208e-05 1.83348e-05 0.107974)
(-9.95962e-06 2.12614e-05 0.108316)
(1.11783e-06 0.00012312 0.104796)
(5.73562e-05 -3.06143e-05 0.104787)
(9.35059e-05 3.78468e-05 0.108373)
(6.91643e-05 -6.30332e-05 0.108675)
(7.49678e-05 -3.19003e-05 0.108026)
(8.19675e-05 -8.92806e-05 0.108069)
(2.67925e-05 -2.16067e-05 0.108117)
(8.25077e-06 7.73072e-05 0.10829)
(3.72344e-05 -4.19689e-05 0.108318)
(0.000180465 -5.67977e-05 0.105059)
(-9.02844e-06 3.3466e-05 0.104427)
(0.000110832 -4.48197e-05 0.108162)
(0.000156167 -5.52943e-05 0.108049)
(7.70933e-05 -2.15236e-05 0.108369)
(9.96936e-05 2.66376e-05 0.104913)
(4.93038e-05 1.62315e-06 0.104321)
(-0.000109271 -3.26955e-05 0.104456)
(3.4934e-05 1.56503e-05 0.107891)
(-2.56181e-05 7.0283e-06 0.108229)
(-7.35978e-05 -8.81932e-06 0.107799)
(-4.79526e-05 -3.33323e-05 0.107934)
(-3.4756e-05 4.04229e-05 0.104572)
(2.62872e-05 -0.000110827 0.104515)
(4.89859e-05 -3.09307e-05 0.107923)
(6.62592e-05 -6.23657e-05 0.107849)
(-4.69575e-05 9.21838e-06 0.107765)
(-3.08308e-05 1.66374e-05 0.10758)
(2.69787e-05 -4.19052e-05 0.108327)
(-1.49076e-05 -4.9246e-05 0.107984)
(-7.40865e-06 3.42234e-06 0.108109)
(5.21721e-05 -4.90046e-05 0.104207)
(-0.000122055 4.1708e-05 0.104315)
(3.11178e-05 -7.1427e-06 0.108359)
(-0.000112616 -1.76999e-05 0.107627)
(-7.64082e-05 3.04529e-05 0.108074)
(1.68957e-05 9.51208e-05 0.104587)
(-2.99528e-05 5.11239e-05 0.104326)
(-7.35831e-05 -3.35997e-05 0.104546)
(-8.42036e-05 -1.27276e-05 0.107807)
(-4.67567e-05 -4.24558e-05 0.10787)
(-5.35796e-05 -1.33174e-05 0.107864)
(-1.89139e-05 -2.8071e-05 0.107802)
(-5.86489e-05 -2.4044e-05 0.104363)
(3.64118e-05 -5.54821e-05 0.104488)
(-6.34046e-05 2.00159e-05 0.107762)
(-5.39572e-05 3.03098e-05 0.107614)
(-5.15519e-05 1.55205e-05 0.107833)
(-5.86566e-05 2.98547e-05 0.107849)
(-1.17052e-05 1.95106e-05 0.108003)
(6.33966e-06 -2.47855e-05 0.107829)
(-7.05251e-06 2.91043e-05 0.107803)
(-4.50863e-05 -3.21986e-05 0.104217)
(-7.38562e-05 5.59245e-05 0.104615)
(-8.55336e-05 3.92973e-05 0.107958)
(-6.9723e-05 3.66006e-05 0.107873)
(-4.36702e-05 3.0247e-05 0.10777)
(2.09938e-05 6.27555e-05 0.104436)
(1.73231e-05 4.34153e-05 0.104416)
(-1.70479e-05 -5.3138e-05 0.104584)
(-3.18629e-05 -1.15145e-05 0.107882)
(-6.00744e-06 -1.60107e-05 0.107804)
(2.4254e-05 -1.65741e-06 0.107909)
(1.97556e-05 1.33924e-05 0.107839)
(-3.92655e-05 3.18806e-05 0.104353)
(5.48172e-05 -2.18276e-05 0.104524)
(-3.40735e-05 7.63365e-06 0.107865)
(-4.34028e-05 2.01976e-05 0.10792)
(1.67768e-05 -1.03708e-05 0.107928)
(1.12536e-05 -2.01199e-06 0.10801)
(-4.84222e-06 2.25753e-05 0.107781)
(4.9801e-06 1.62709e-05 0.107826)
(4.94429e-06 -8.47682e-07 0.107809)
(1.96525e-05 -2.65797e-05 0.104497)
(-1.45975e-05 4.76315e-05 0.104649)
(-1.87526e-05 1.68487e-05 0.107762)
(3.74811e-05 7.20574e-06 0.107995)
(3.46278e-05 -1.36523e-05 0.107828)
(6.30962e-05 2.63363e-05 0.104523)
(6.60314e-05 2.8076e-05 0.104439)
(-2.39259e-05 -4.31909e-05 0.10453)
(3.30728e-05 2.66533e-06 0.107907)
(2.13387e-05 1.77416e-05 0.107855)
(3.01903e-05 1.37819e-05 0.107879)
(7.67457e-06 1.71324e-05 0.107887)
(-2.55161e-05 5.81024e-05 0.10439)
(4.33431e-05 -3.43065e-05 0.104551)
(2.62125e-05 -1.08575e-05 0.107932)
(2.31839e-05 -4.43332e-06 0.108)
(2.90858e-05 -1.963e-07 0.107897)
(2.65902e-05 -8.8564e-06 0.107927)
(5.80675e-06 -8.21005e-06 0.107835)
(-7.56692e-06 1.01968e-05 0.10788)
(-3.3149e-06 -2.33013e-05 0.107891)
(6.77116e-05 -3.51579e-05 0.104491)
(-2.91335e-05 3.89473e-05 0.104544)
(3.61409e-05 -1.77247e-05 0.107859)
(2.73632e-05 -1.66593e-05 0.10792)
(6.46791e-06 -1.83937e-05 0.107908)
(4.41449e-05 2.52868e-05 0.104564)
(5.30873e-05 3.88117e-05 0.10438)
(-4.56017e-05 -4.10792e-05 0.104477)
(2.33557e-05 1.53054e-05 0.107865)
(2.30867e-08 1.40266e-05 0.10789)
(1.03371e-06 1.17014e-05 0.107829)
(-1.62508e-05 5.86388e-06 0.107868)
(-3.95134e-05 4.34967e-05 0.104407)
(3.29559e-05 -4.64548e-05 0.104509)
(2.50041e-05 2.57847e-06 0.107878)
(2.21711e-05 -1.26247e-05 0.1079)
(1.04468e-05 1.44874e-06 0.107831)
(1.04786e-05 -1.71905e-05 0.107829)
(-8.30578e-06 -2.4706e-05 0.107891)
(-1.43832e-05 8.07264e-07 0.107878)
(-1.55818e-05 -1.04076e-05 0.107846)
(4.84329e-05 -4.39985e-05 0.10439)
(-4.6441e-05 3.27157e-05 0.104469)
(-4.11935e-06 -1.8068e-05 0.107904)
(1.31025e-06 -1.92449e-05 0.107838)
(-1.04391e-05 -1.46162e-05 0.107848)
(3.74768e-05 4.17203e-05 0.104479)
(3.17952e-05 3.78448e-05 0.104335)
(-5.10659e-05 -4.06221e-05 0.104455)
(-4.44717e-06 8.36116e-06 0.107821)
(-1.59026e-05 4.32151e-06 0.107852)
(-7.48013e-06 -1.93552e-06 0.107802)
(-2.56395e-06 1.21902e-06 0.107794)
(-4.57931e-05 3.3088e-05 0.104359)
(4.65023e-05 -4.36586e-05 0.104442)
(5.12822e-06 9.0094e-07 0.107821)
(6.79611e-06 -1.27956e-05 0.107808)
(-8.07582e-06 5.94467e-06 0.107798)
(-1.79551e-06 3.94249e-06 0.107772)
(-1.39794e-05 -2.10915e-06 0.107826)
(-8.09827e-07 3.64964e-06 0.107796)
(-1.48997e-07 1.10955e-05 0.107786)
(3.20556e-05 -4.46329e-05 0.104324)
(-4.46544e-05 4.80139e-05 0.104435)
(-7.34723e-06 -1.07869e-05 0.107825)
(-2.31281e-06 2.54003e-06 0.107774)
(-2.85281e-06 6.38469e-06 0.107782)
(4.17438e-05 5.27974e-05 0.104444)
(2.84736e-05 3.78834e-05 0.104314)
(-4.2234e-05 -4.35588e-05 0.104414)
(-4.299e-06 -3.31927e-06 0.107794)
(1.95929e-06 -3.44944e-07 0.107779)
(3.5175e-06 -3.22398e-06 0.107755)
(4.95784e-06 -4.42957e-06 0.107755)
(-3.09779e-05 3.55655e-05 0.1043)
(4.6714e-05 -4.381e-05 0.10442)
(-9.14105e-06 7.7231e-06 0.107789)
(-3.57842e-06 7.08267e-06 0.107768)
(-3.84493e-06 3.83853e-06 0.107756)
(-5.42545e-06 4.27799e-06 0.107761)
(3.90701e-06 9.68041e-06 0.107781)
(7.4449e-06 5.01147e-07 0.107756)
(6.54373e-06 -1.08059e-06 0.107764)
(3.41616e-05 -2.91858e-05 0.104298)
(-4.35667e-05 4.64011e-05 0.104426)
(-2.8656e-06 9.73131e-06 0.107776)
(1.08078e-06 8.21413e-06 0.107761)
(-1.13008e-06 6.99993e-06 0.107766)
(4.46297e-05 4.30467e-05 0.104426)
(3.52538e-05 3.27138e-05 0.104275)
(-4.70548e-05 -4.88547e-05 0.104394)
(2.88862e-06 -3.4752e-06 0.107742)
(2.69143e-06 -5.44189e-06 0.107749)
(-4.56123e-06 -7.10891e-06 0.107716)
(-2.46945e-06 -7.59401e-06 0.107722)
(-3.16848e-05 3.2938e-05 0.104283)
(4.33954e-05 -4.82248e-05 0.104396)
(-2.2552e-06 1.2134e-08 0.107745)
(-5.22479e-06 1.11508e-06 0.107755)
(-5.3896e-06 -7.30605e-06 0.107719)
(-6.38922e-06 -2.59633e-06 0.107722)
(5.85265e-06 -3.01664e-06 0.107756)
(4.74782e-06 -3.77845e-06 0.107728)
(6.17303e-06 8.1541e-07 0.107724)
(3.34627e-05 -3.23412e-05 0.104288)
(-4.85749e-05 4.35719e-05 0.104394)
(2.4042e-07 4.74536e-06 0.107759)
(-3.77776e-06 3.599e-06 0.107727)
(3.58264e-06 4.38175e-06 0.107727)
(4.78518e-05 4.59871e-05 0.104395)
(2.90232e-05 2.80995e-05 0.104262)
(-4.64293e-05 -4.5644e-05 0.104387)
(-5.98347e-06 -8.32397e-06 0.107712)
(-1.95751e-06 -7.93211e-06 0.107711)
(-3.90842e-06 -9.12043e-06 0.107701)
(3.07249e-06 -7.65319e-06 0.107685)
(-3.29972e-05 2.84814e-05 0.10426)
(4.61202e-05 -4.54134e-05 0.104374)
(-7.62569e-06 -6.86207e-06 0.107714)
(-7.58335e-06 -1.42122e-06 0.10771)
(-9.91306e-06 -2.86514e-06 0.107702)
(-8.57658e-06 3.22639e-06 0.107686)
(6.95784e-06 2.65257e-06 0.107714)
(7.23783e-06 -3.4814e-06 0.107687)
(8.11366e-06 3.28801e-06 0.107689)
(2.80811e-05 -3.2732e-05 0.104258)
(-4.53612e-05 4.60937e-05 0.104375)
(3.53608e-06 6.14102e-06 0.107716)
(-3.64013e-06 8.10633e-06 0.107689)
(2.24473e-06 8.85752e-06 0.107691)
(4.50925e-05 4.58882e-05 0.104376)
(3.02138e-05 3.06111e-05 0.104255)
(-4.38034e-05 -4.50528e-05 0.104368)
(-2.46529e-06 -8.7376e-06 0.107695)
(4.67818e-06 -7.40784e-06 0.10768)
(-9.68689e-08 -7.9113e-06 0.107673)
(6.18084e-06 -7.46348e-06 0.10767)
(-2.94337e-05 3.07765e-05 0.104243)
(4.69481e-05 -4.46268e-05 0.10437)
(-9.17276e-06 -2.20595e-06 0.107697)
(-7.98111e-06 4.15062e-06 0.107682)
(-7.08631e-06 -1.86457e-06 0.107675)
(-6.65947e-06 4.91635e-06 0.107668)
(8.10759e-06 2.65469e-06 0.107683)
(8.97693e-06 -3.18292e-06 0.107671)
(7.70694e-06 1.66144e-06 0.107666)
(3.10124e-05 -2.96406e-05 0.104244)
(-4.40704e-05 4.64128e-05 0.104366)
(2.3798e-06 8.54934e-06 0.107685)
(-1.89703e-06 8.16697e-06 0.107669)
(3.39609e-06 6.89262e-06 0.107669)
(4.53225e-05 4.40641e-05 0.104364)
(3.15694e-05 3.0513e-05 0.104236)
(-4.49438e-05 -4.35274e-05 0.104348)
(-1.73444e-07 -7.59075e-06 0.107665)
(5.62207e-06 -7.66129e-06 0.107667)
(-2.99118e-06 -5.86712e-06 0.107641)
(3.16452e-06 -7.16534e-06 0.107651)
(-2.86256e-05 3.07466e-05 0.10424)
(4.51279e-05 -4.38021e-05 0.104357)
(-6.80697e-06 -1.62552e-06 0.107667)
(-6.72742e-06 4.9378e-06 0.107663)
(-6.47149e-06 -1.46685e-06 0.107642)
(-7.1474e-06 4.66708e-06 0.107647)
(7.48819e-06 2.16287e-06 0.107661)
(8.45265e-06 -7.51271e-07 0.107653)
(7.10632e-06 5.27218e-06 0.107647)
(3.11243e-05 -2.90082e-05 0.104237)
(-4.44168e-05 4.57402e-05 0.104355)
(3.59065e-06 6.69246e-06 0.107663)
(-2.27927e-06 8.4101e-06 0.10765)
(3.75246e-06 7.68455e-06 0.107648)
(4.48052e-05 4.62065e-05 0.104355)
(2.94008e-05 3.10087e-05 0.10422)
(-4.54777e-05 -4.53726e-05 0.104341)
(-4.24176e-06 -5.72695e-06 0.107635)
(2.59055e-06 -6.86381e-06 0.107644)
(-5.25879e-06 -7.96035e-06 0.10762)
(1.84871e-06 -8.05197e-06 0.107621)
(-2.99383e-05 3.08617e-05 0.104227)
(4.35513e-05 -4.61423e-05 0.104341)
(-6.74813e-06 -2.03025e-06 0.107636)
(-7.34599e-06 4.28985e-06 0.107642)
(-8.59798e-06 -4.56307e-06 0.107622)
(-9.0588e-06 1.98791e-06 0.107625)
(7.33448e-06 5.84251e-06 0.107644)
(7.09961e-06 -4.58208e-06 0.107625)
(8.72147e-06 3.53178e-06 0.10763)
(3.01517e-05 -2.92402e-05 0.104227)
(-4.62057e-05 4.36492e-05 0.104344)
(3.64173e-06 8.35131e-06 0.107644)
(-4.70217e-06 8.12252e-06 0.107629)
(2.7979e-06 9.3847e-06 0.107631)
(4.48607e-05 4.49909e-05 0.104346)
(2.89265e-05 2.84911e-05 0.104215)
(-4.40729e-05 -4.61101e-05 0.104336)
(-4.67554e-06 -8.99411e-06 0.107617)
(1.88882e-06 -9.01725e-06 0.107615)
(-2.98454e-06 -1.04259e-05 0.107607)
(2.72048e-06 -1.05149e-05 0.107604)
(-3.06861e-05 2.76837e-05 0.104214)
(4.40313e-05 -4.60653e-05 0.104333)
(-9.02859e-06 -5.32818e-06 0.107619)
(-9.71397e-06 1.15982e-06 0.10762)
(-8.99098e-06 -5.87128e-06 0.10761)
(-9.60618e-06 9.52278e-07 0.107602)
(9.02587e-06 2.08746e-06 0.107624)
(8.48078e-06 -6.29977e-06 0.107607)
(8.80902e-06 8.42525e-07 0.107601)
(2.78837e-05 -3.08653e-05 0.104217)
(-4.53267e-05 4.32972e-05 0.10433)
(2.69641e-06 9.0647e-06 0.107626)
(-4.54822e-06 7.58692e-06 0.107606)
(3.74296e-06 7.38026e-06 0.107604)
(4.51516e-05 4.31159e-05 0.104328)
(2.9454e-05 2.77498e-05 0.104211)
(-4.59639e-05 -4.454e-05 0.104325)
(-3.07817e-06 -1.0295e-05 0.107603)
(3.23418e-06 -1.01059e-05 0.1076)
(-4.82649e-06 -9.55737e-06 0.107588)
(5.89854e-06 -8.79338e-06 0.107586)
(-2.93132e-05 2.79902e-05 0.104209)
(4.66895e-05 -4.37035e-05 0.104324)
(-8.97501e-06 -5.38192e-06 0.107606)
(-9.03252e-06 2.10518e-06 0.107596)
(-1.0062e-05 -3.48379e-06 0.107589)
(-8.58877e-06 6.61969e-06 0.107579)
(8.69064e-06 2.05307e-06 0.107594)
(1.02322e-05 -2.67038e-06 0.107586)
(9.47142e-06 6.48657e-06 0.10758)
(2.85859e-05 -2.99172e-05 0.104204)
(-4.3853e-05 4.6831e-05 0.10432)
(4.36072e-06 7.39068e-06 0.107597)
(-3.40061e-06 9.99891e-06 0.10758)
(5.13688e-06 9.94725e-06 0.10758)
(4.49806e-05 4.64037e-05 0.10432)
(2.71947e-05 2.88104e-05 0.104202)
(-4.4552e-05 -4.38738e-05 0.104316)
(-5.01483e-06 -9.45739e-06 0.107582)
(6.45972e-06 -8.83973e-06 0.10758)
(-4.50316e-06 -9.62445e-06 0.107566)
(5.53547e-06 -9.93595e-06 0.107566)
(-2.6387e-05 2.94453e-05 0.104201)
(4.4958e-05 -4.43425e-05 0.104318)
(-1.04269e-05 -3.04241e-06 0.107583)
(-8.98135e-06 7.33622e-06 0.107575)
(-1.03635e-05 -3.33418e-06 0.107567)
(-1.02382e-05 6.24916e-06 0.107566)
(9.97065e-06 6.92343e-06 0.107577)
(1.10832e-05 -4.02708e-06 0.107569)
(1.06157e-05 5.14664e-06 0.107568)
(2.92158e-05 -2.61856e-05 0.104197)
(-4.46276e-05 4.52474e-05 0.104319)
(4.9574e-06 1.09009e-05 0.107577)
(-4.7342e-06 1.13709e-05 0.107568)
(3.96788e-06 1.13636e-05 0.10757)
(4.41544e-05 4.48531e-05 0.104319)
(2.81979e-05 2.86348e-05 0.104194)
(-4.47205e-05 -4.51353e-05 0.104312)
(-4.56277e-06 -9.66049e-06 0.107561)
(4.68453e-06 -1.02383e-05 0.107563)
(-5.41067e-06 -9.9764e-06 0.10755)
(3.62e-06 -1.04113e-05 0.107551)
(-2.81056e-05 2.80809e-05 0.104196)
(4.3738e-05 -4.54201e-05 0.104313)
(-1.01242e-05 -3.84517e-06 0.107563)
(-1.05049e-05 5.30451e-06 0.107564)
(-9.96635e-06 -5.68505e-06 0.107552)
(-1.0965e-05 3.60205e-06 0.107553)
(1.03022e-05 4.44144e-06 0.107565)
(9.31517e-06 -5.77241e-06 0.107554)
(9.56413e-06 4.6615e-06 0.107551)
(2.77993e-05 -2.78268e-05 0.104198)
(-4.55449e-05 4.38656e-05 0.104314)
(3.70482e-06 1.07836e-05 0.107566)
(-5.75289e-06 9.85975e-06 0.107556)
(4.92946e-06 9.53123e-06 0.107553)
(4.49357e-05 4.4508e-05 0.104312)
(2.74851e-05 2.69112e-05 0.104193)
(-4.4103e-05 -4.53008e-05 0.104311)
(-5.47022e-06 -1.03893e-05 0.107547)
(4.13319e-06 -1.04321e-05 0.107546)
(-4.60069e-06 -1.16093e-05 0.107538)
(5.98551e-06 -1.08491e-05 0.107536)
(-2.82789e-05 2.68225e-05 0.104193)
(4.51074e-05 -4.43956e-05 0.10431)
(-1.01829e-05 -6.21643e-06 0.107549)
(-1.08895e-05 3.70468e-06 0.107548)
(-1.07517e-05 -6.30399e-06 0.10754)
(-1.02471e-05 5.0074e-06 0.107535)
(9.89289e-06 5.01197e-06 0.107546)
(1.11109e-05 -5.35069e-06 0.107538)
(1.16821e-05 4.96893e-06 0.107536)
(2.68519e-05 -2.83333e-05 0.104194)
(-4.39446e-05 4.46737e-05 0.104308)
(5.76404e-06 9.65395e-06 0.107548)
(-4.3813e-06 1.05113e-05 0.107537)
(6.66452e-06 1.08273e-05 0.107538)
(4.54038e-05 4.42234e-05 0.10431)
(2.77947e-05 2.67874e-05 0.104192)
(-4.46768e-05 -4.37036e-05 0.104308)
(-4.43045e-06 -1.15757e-05 0.107535)
(6.16422e-06 -1.09949e-05 0.107533)
(-5.44836e-06 -1.05055e-05 0.107525)
(5.40742e-06 -1.09527e-05 0.107526)
(-2.67578e-05 2.75102e-05 0.104192)
(4.43593e-05 -4.45139e-05 0.10431)
(-1.07707e-05 -5.79126e-06 0.107537)
(-1.0219e-05 5.45422e-06 0.107531)
(-1.08609e-05 -4.51899e-06 0.107526)
(-1.09537e-05 6.03368e-06 0.107522)
(1.187e-05 4.84605e-06 0.107534)
(1.10542e-05 -5.47859e-06 0.107528)
(1.06064e-05 5.37512e-06 0.107525)
(2.7894e-05 -2.71281e-05 0.104189)
(-4.47665e-05 4.46112e-05 0.104307)
(6.18685e-06 1.1075e-05 0.107536)
(-6.10159e-06 1.10564e-05 0.107525)
(4.44031e-06 1.09607e-05 0.107526)
(4.36903e-05 4.46638e-05 0.104308)
(2.66366e-05 2.77372e-05 0.104191)
(-4.47562e-05 -4.47667e-05 0.104308)
(-6.02238e-06 -1.03351e-05 0.107521)
(5.20165e-06 -1.09232e-05 0.107523)
(-6.33125e-06 -1.12327e-05 0.107512)
(5.36228e-06 -1.13681e-05 0.107512)
(-2.72166e-05 2.68995e-05 0.104193)
(4.43859e-05 -4.46382e-05 0.104308)
(-1.10317e-05 -4.66498e-06 0.107522)
(-1.12588e-05 5.92349e-06 0.10752)
(-1.15797e-05 -6.11596e-06 0.107514)
(-1.16529e-05 5.17722e-06 0.107512)
(1.02929e-05 5.82633e-06 0.107522)
(1.11932e-05 -5.76262e-06 0.107514)
(1.13081e-05 6.10435e-06 0.107511)
(2.65965e-05 -2.69279e-05 0.104191)
(-4.44841e-05 4.42207e-05 0.104307)
(4.46979e-06 1.09783e-05 0.107522)
(-5.59449e-06 1.14538e-05 0.107514)
(5.89398e-06 1.16386e-05 0.107513)
(4.46859e-05 4.46778e-05 0.104306)
(2.65715e-05 2.62834e-05 0.104192)
(-4.42005e-05 -4.44667e-05 0.104309)
(-6.02273e-06 -1.17374e-05 0.10751)
(5.49931e-06 -1.16007e-05 0.107509)
(-5.51468e-06 -1.20859e-05 0.107502)
(5.89157e-06 -1.18154e-05 0.107501)
(-2.67872e-05 2.65241e-05 0.104191)
(4.43877e-05 -4.4433e-05 0.104308)
(-1.16871e-05 -6.47731e-06 0.107512)
(-1.15658e-05 5.02245e-06 0.107508)
(-1.1679e-05 -6.00644e-06 0.107504)
(-1.13128e-05 5.92217e-06 0.107499)
(1.17638e-05 5.69299e-06 0.107508)
(1.16056e-05 -6.17279e-06 0.107503)
(1.15015e-05 5.30964e-06 0.1075)
(2.67398e-05 -2.7021e-05 0.104191)
(-4.44303e-05 4.44102e-05 0.104306)
(6.14586e-06 1.16954e-05 0.10751)
(-6.18207e-06 1.11474e-05 0.107501)
(5.77836e-06 1.11138e-05 0.107501)
(4.42214e-05 4.39752e-05 0.104306)
(2.66001e-05 2.66001e-05 0.104194)
(-4.4378e-05 -4.36574e-05 0.104309)
(-5.63755e-06 -1.17262e-05 0.1075)
(6.07963e-06 -1.16634e-05 0.107499)
(-6.27722e-06 -1.09898e-05 0.107491)
(6.62711e-06 -1.10758e-05 0.107491)
(-2.64207e-05 2.65162e-05 0.104193)
(4.46763e-05 -4.34491e-05 0.104309)
(-1.16304e-05 -5.49348e-06 0.107501)
(-1.14234e-05 6.56193e-06 0.107496)
(-1.16676e-05 -5.26324e-06 0.107492)
(-1.17904e-05 7.19613e-06 0.107491)
(1.12404e-05 5.8955e-06 0.107497)
(1.1982e-05 -5.01314e-06 0.107493)
(1.16784e-05 7.34706e-06 0.107491)
(2.63726e-05 -2.62618e-05 0.104192)
(-4.376e-05 4.49458e-05 0.10431)
(5.72763e-06 1.11565e-05 0.107498)
(-5.6096e-06 1.26665e-05 0.107493)
(6.34856e-06 1.23348e-05 0.107492)
(4.42311e-05 4.49291e-05 0.104309)
(2.6265e-05 2.67346e-05 0.104195)
(-6.29996e-06 -1.11283e-05 0.107488)
(6.58828e-06 -1.10537e-05 0.107488)
(-2.59966e-05 2.70244e-05 0.104196)
(-1.16427e-05 -5.81657e-06 0.10749)
(-1.17012e-05 6.69583e-06 0.107489)
(1.20838e-05 7.09251e-06 0.107489)
(2.68677e-05 -2.58812e-05 0.104197)
(6.6044e-06 1.2574e-05 0.107491)
(-4.88997e-06 -5.38126e-05 0.0910873)
(-0.000113265 7.58897e-06 0.0816917)
(0.00010575 -5.8619e-05 0.0910931)
(-0.000126012 5.21058e-06 0.0817704)
(4.78023e-05 9.54309e-06 0.0708956)
(-4.89917e-06 -1.67648e-05 0.0710389)
(-5.80764e-05 -6.07454e-05 0.0911155)
(2.94389e-05 -0.000129236 0.0816684)
(-5.31535e-05 0.00012257 0.0910791)
(2.86308e-05 -0.000167428 0.081751)
(-5.54593e-05 -6.89634e-05 0.112911)
(-0.000137341 -0.000156321 0.11321)
(0.00032724 0.000325499 0.113143)
(9.36205e-05 8.41131e-05 0.113157)
(0.000112858 6.44801e-05 0.113076)
(-4.49771e-05 -5.09557e-05 0.112993)
(5.3028e-05 7.6535e-05 0.0985614)
(3.13226e-05 2.08976e-05 0.0925837)
(-4.2095e-05 -0.00011493 0.110784)
(1.31218e-05 1.24989e-05 0.10829)
(1.31147e-05 -2.93998e-06 0.0985533)
(7.21587e-05 6.00947e-05 0.0926691)
(-2.2247e-05 -6.76435e-05 0.110821)
(-7.70725e-06 2.90383e-05 0.0709833)
(0.000103887 7.54381e-05 0.0985994)
(-0.000199835 -4.30072e-05 0.110746)
(-2.81759e-05 8.45582e-05 0.108247)
(-7.07083e-05 1.12379e-05 0.0984844)
(-0.000145958 1.7571e-05 0.110741)
(0.000119054 0.000124895 0.0928803)
(-3.25458e-05 5.99393e-05 0.0869344)
(5.36375e-05 -3.37868e-05 0.0869257)
(1.88067e-05 6.7757e-05 0.104597)
(1.97238e-06 2.73601e-05 0.0870637)
(5.84304e-05 -2.33816e-05 0.0870615)
(-0.000106182 2.05388e-05 0.0910393)
(-3.83715e-05 1.72193e-05 0.0817665)
(-0.000125236 2.04263e-05 0.0910046)
(2.4023e-05 -9.36276e-06 0.0818053)
(-4.50573e-05 -1.86384e-05 0.071042)
(-2.24297e-05 -1.39511e-05 0.0710678)
(2.48753e-05 -6.10029e-05 0.0910288)
(6.14421e-06 -3.35422e-05 0.0817613)
(1.11862e-05 -0.000147651 0.0910291)
(-3.35385e-05 6.48684e-05 0.0817997)
(0.0001027 0.000111625 0.113244)
(0.000212861 1.30551e-06 0.113101)
(3.04104e-05 -2.0013e-05 0.112957)
(1.39829e-05 -5.71162e-05 0.112552)
(-4.67409e-05 6.91462e-05 0.113287)
(0.000160118 -0.000136764 0.112896)
(5.86655e-05 -1.30642e-05 0.113054)
(4.22518e-05 2.11728e-05 0.0986191)
(2.73581e-05 2.90753e-05 0.0927096)
(5.90752e-05 8.27795e-05 0.110861)
(5.40278e-05 8.41738e-05 0.108266)
(3.34211e-05 7.85246e-05 0.0985084)
(1.56096e-06 -4.57231e-05 0.092791)
(5.81887e-05 9.61221e-05 0.110862)
(-1.02899e-05 1.12495e-05 0.0711411)
(-1.7675e-05 -1.28554e-05 0.0712328)
(9.06537e-06 2.43425e-05 0.0986184)
(0.000243428 6.17012e-05 0.110821)
(-5.94985e-05 -1.33264e-05 0.0927569)
(0.000200056 -1.81729e-05 0.108033)
(0.0001548 4.76231e-05 0.0985975)
(0.000262603 2.01035e-05 0.110799)
(-0.000129498 -5.47473e-05 0.0927363)
(1.95147e-05 -1.8932e-05 0.0871604)
(-3.62044e-06 1.18511e-05 0.0871846)
(0.000133007 5.63078e-05 0.104736)
(1.07113e-05 -4.27182e-07 0.0872321)
(-2.95132e-05 3.36744e-05 0.0872497)
(8.73109e-05 2.08478e-05 0.0910202)
(8.95706e-05 -2.09074e-05 0.0816851)
(1.89038e-05 3.69054e-05 0.0910052)
(8.79351e-05 -3.51139e-05 0.081653)
(4.86109e-06 5.20871e-06 0.0710099)
(5.21401e-06 3.55978e-06 0.0710224)
(3.12787e-05 0.000107419 0.0910091)
(-2.07103e-05 0.000123431 0.0816786)
(4.94318e-05 8.87994e-05 0.0909665)
(-1.69855e-05 8.1151e-05 0.0816453)
(-0.000111052 4.06345e-05 0.113244)
(6.16916e-05 -0.000132971 0.11281)
(2.22248e-07 -2.42718e-05 0.113106)
(-0.000228383 -9.20583e-05 0.112959)
(-0.00014574 -2.62994e-05 0.113087)
(-0.000213841 4.48493e-05 0.112783)
(-0.000146267 -1.6614e-05 0.113117)
(-4.53571e-05 -5.10143e-05 0.0985492)
(-6.45175e-05 -7.25033e-05 0.0926782)
(-5.20312e-05 2.42201e-05 0.110825)
(-0.000111858 -4.70704e-05 0.108064)
(-4.22384e-05 -4.96688e-05 0.0985595)
(-4.461e-05 -3.63644e-05 0.0926708)
(-9.24659e-05 -7.38385e-06 0.11079)
(-4.89758e-06 -4.90566e-05 0.0710876)
(-8.8175e-06 -5.40187e-05 0.0709354)
(-0.000150321 -6.97283e-05 0.0984775)
(-4.38101e-05 -9.16935e-05 0.110605)
(-7.51307e-05 -9.76104e-05 0.0926532)
(-0.000193835 -9.83907e-05 0.107741)
(-0.00016416 -7.59164e-05 0.0984595)
(-0.000176583 -0.000101054 0.110548)
(2.14879e-05 -4.90623e-05 0.0927497)
(-2.23041e-05 1.33498e-06 0.0871466)
(-5.16035e-05 8.29407e-06 0.0871315)
(-4.62228e-05 4.67171e-05 0.104797)
(-1.61958e-05 -7.31591e-06 0.0871206)
(-3.34364e-05 -6.74727e-06 0.0870919)
(5.05275e-05 -1.09428e-06 0.0909492)
(3.82394e-05 7.14388e-06 0.0815019)
(0.000100711 2.64675e-05 0.0909377)
(-4.31188e-06 7.744e-06 0.0815048)
(-1.66223e-05 8.63282e-06 0.07079)
(-7.39458e-06 -8.20979e-07 0.0707395)
(-1.29427e-05 -3.99532e-05 0.090997)
(2.77948e-05 -1.83483e-05 0.0815104)
(1.79659e-05 2.02727e-05 0.0909701)
(1.90324e-05 -5.79826e-05 0.081526)
(-8.99123e-05 -4.49026e-05 0.113046)
(-0.000238701 0.000108329 0.112879)
(-0.000135112 3.83947e-06 0.113063)
(4.39594e-05 6.2671e-05 0.113408)
(7.98845e-05 -2.60637e-05 0.113078)
(-3.95707e-05 9.84591e-05 0.113333)
(2.05409e-05 3.42347e-05 0.112956)
(-4.30436e-05 3.346e-05 0.0984176)
(-3.48858e-05 8.99645e-05 0.0925818)
(-0.000105783 -8.08095e-05 0.110595)
(-1.57582e-05 -3.05801e-05 0.108057)
(-8.75018e-05 -6.35309e-06 0.0983593)
(1.63526e-05 0.000103176 0.0926329)
(-7.638e-05 -7.03005e-05 0.110541)
(3.81201e-06 -2.58926e-05 0.0706475)
(6.86577e-06 1.66364e-05 0.0706597)
(0.000147141 -8.42738e-06 0.0985279)
(-0.000261372 -4.23982e-05 0.110543)
(0.000167361 2.64077e-05 0.0927167)
(-6.02647e-05 5.42555e-05 0.108444)
(4.88517e-05 -7.6274e-05 0.0984347)
(-0.000160849 -1.22512e-05 0.110601)
(0.000145855 8.07648e-05 0.092716)
(-1.07435e-05 -5.27435e-05 0.0869554)
(-9.88289e-06 -4.12412e-05 0.0869313)
(1.26526e-05 2.88248e-05 0.104661)
(8.44514e-06 -4.09077e-05 0.0869065)
(2.00435e-05 -2.64122e-05 0.0868964)
(-4.9469e-05 -3.26946e-05 0.0909256)
(-4.3945e-05 2.24336e-05 0.0814761)
(-2.88572e-05 -8.97914e-06 0.0908981)