/*--------------------------------*- C++ -*----------------------------------*\
| =========                 |                                                 |
| \\      /  F ield         | OpenFOAM: The Open Source CFD Toolbox           |
|  \\    /   O peration     | Version:  2312                                  |
|   \\  /    A nd           | Website:  www.openfoam.com                      |
|    \\/     M anipulation  |                                                 |
\*---------------------------------------------------------------------------*/
FoamFile
{
    version     2.0;
    format      ascii;
    arch        "LSB;label=32;scalar=64";
    class       volScalarField;
    location    "700";
    object      epsilon;
}
// * * * * * * * * * * * * * * * * * * * * * * * * * * * * * * * * * * * * * //

dimensions      [0 2 -3 0 0 0 0];

internalField   nonuniform List<scalar> 
43496
(
4.23894e-06
1.90948e-05
1.1867e-06
3.64746e-06
2.2955e-06
9.3501e-07
4.23886e-06
9.56711e-06
2.29543e-06
1.18669e-06
9.35045e-07
3.64771e-06
1.41729e-06
5.65218e-06
5.65075e-06
1.90924e-05
9.56731e-06
1.26552e-05
4.23898e-06
4.88465e-06
1.12478e-05
4.8847e-06
1.12449e-05
1.26591e-05
2.27629e-05
7.24531e-06
7.24553e-06
2.27698e-05
1.90901e-05
1.26561e-05
4.23892e-06
1.12477e-05
4.88446e-06
1.12448e-05
4.88455e-06
1.26589e-05
2.27629e-05
7.24369e-06
9.56538e-06
7.24391e-06
2.27697e-05
9.96435e-06
2.23956e-05
2.2396e-05
2.23894e-05
2.23898e-05
9.96397e-06
4.71006e-06
9.93543e-06
5.6522e-06
2.97599e-06
9.93292e-06
2.97616e-06
4.7097e-06
4.70412e-06
9.9304e-06
5.65079e-06
2.97487e-06
2.97505e-06
9.92852e-06
4.70377e-06
1.90876e-05
9.56513e-06
4.5083e-07
6.59561e-07
4.50961e-07
3.64765e-06
2.22354e-06
2.22408e-06
1.66613e-06
2.29564e-06
2.54094e-06
1.54357e-06
2.54117e-06
1.54444e-06
1.66479e-06
1.845e-06
3.02293e-06
3.02329e-06
1.84399e-06
1.66675e-06
2.2956e-06
1.54344e-06
2.54078e-06
1.54446e-06
2.54101e-06
1.66407e-06
1.84555e-06
3.02246e-06
3.64791e-06
2.22372e-06
3.02288e-06
1.8433e-06
2.22426e-06
2.82877e-06
1.41877e-06
1.96843e-06
1.96834e-06
1.96906e-06
1.96915e-06
2.82844e-06
6.5187e-07
1.1829e-06
1.18299e-06
1.4152e-06
6.58017e-07
1.18594e-06
1.18604e-06
1.41811e-06
1.41513e-06
1.41589e-06
1.18299e-06
1.18286e-06
1.18532e-06
1.18525e-06
1.41514e-06
1.41587e-06
1.18281e-06
1.18298e-06
1.18514e-06
1.18531e-06
1.18305e-06
1.18522e-06
1.18527e-06
1.4152e-06
1.41595e-06
1.18284e-06
1.18532e-06
1.1852e-06
1.41597e-06
1.41805e-06
1.18603e-06
1.18588e-06
1.41803e-06
1.18585e-06
1.18603e-06
1.18615e-06
1.41811e-06
1.18589e-06
4.23633e-06
9.54988e-06
9.55468e-06
4.23573e-06
1.9061e-05
1.90716e-05
4.23643e-06
9.55129e-06
9.55607e-06
4.23575e-06
6.51862e-07
6.52001e-07
6.51987e-07
6.5653e-07
6.56549e-07
6.56651e-07
6.56617e-07
2.29407e-06
3.64452e-06
9.29895e-07
1.1837e-06
3.64499e-06
9.31029e-07
2.29376e-06
1.90625e-05
1.9073e-05
2.29407e-06
9.30001e-07
3.64453e-06
1.1838e-06
9.31103e-07
3.64502e-06
2.2938e-06
5.64526e-06
5.64702e-06
1.41452e-06
5.64636e-06
5.6481e-06
9.56141e-06
4.23832e-06
1.90831e-05
9.56291e-06
4.23837e-06
6.58007e-07
6.58145e-07
6.58139e-07
2.29554e-06
3.64705e-06
9.34113e-07
2.29534e-06
9.35086e-07
1.90847e-05
2.29554e-06
9.34226e-07
3.64707e-06
2.29539e-06
9.35157e-07
5.64962e-06
5.65138e-06
1.41722e-06
5.65062e-06
5.65239e-06
1.90587e-05
1.90692e-05
1.9062e-05
1.90724e-05
5.64521e-06
5.64697e-06
1.41445e-06
5.64626e-06
5.64805e-06
1.90802e-05
1.90699e-05
1.90835e-05
1.90731e-05
1.41664e-06
5.64845e-06
5.65024e-06
5.64743e-06
5.64918e-06
4.23628e-06
9.54988e-06
9.55505e-06
4.23565e-06
2.29399e-06
3.64432e-06
9.29866e-07
1.1838e-06
3.6448e-06
9.30979e-07
2.29372e-06
2.29393e-06
3.64474e-06
9.29796e-07
1.18372e-06
3.64517e-06
9.3093e-07
2.29366e-06
4.23705e-06
9.56048e-06
9.55573e-06
4.23763e-06
4.23699e-06
9.56083e-06
9.55575e-06
4.23758e-06
2.29456e-06
1.18458e-06
3.64605e-06
9.3309e-07
3.64563e-06
9.32059e-07
2.29477e-06
2.2945e-06
1.18444e-06
3.64643e-06
9.33044e-07
3.64604e-06
9.31987e-07
2.29471e-06
5.64677e-06
5.64541e-06
1.41443e-06
5.64776e-06
5.64649e-06
1.906e-05
1.90705e-05
1.90826e-05
1.90721e-05
1.41664e-06
5.64993e-06
5.64867e-06
5.64899e-06
5.64764e-06
1.90816e-05
1.90712e-05
2.29403e-06
3.64487e-06
9.29846e-07
1.18362e-06
3.64537e-06
9.30953e-07
2.29371e-06
4.23635e-06
9.55092e-06
9.55571e-06
4.23571e-06
2.29395e-06
9.29884e-07
3.64479e-06
1.18379e-06
9.30992e-07
3.64529e-06
2.29368e-06
4.2371e-06
9.56187e-06
9.55714e-06
4.23772e-06
2.29455e-06
1.1844e-06
3.64663e-06
9.33063e-07
3.64618e-06
9.3204e-07
2.29481e-06
4.23705e-06
9.5615e-06
9.55678e-06
4.23764e-06
2.29452e-06
1.18458e-06
9.33101e-07
3.64654e-06
9.32079e-07
3.6461e-06
2.29473e-06
4.23653e-06
9.55051e-06
9.55568e-06
4.23594e-06
2.29404e-06
9.29945e-07
3.64443e-06
1.18378e-06
9.31038e-07
3.64491e-06
2.29372e-06
4.23641e-06
9.55063e-06
9.55541e-06
4.23574e-06
2.29459e-06
1.18449e-06
3.64625e-06
9.33138e-07
3.64582e-06
9.32087e-07
2.29485e-06
4.23726e-06
9.56146e-06
9.55638e-06
4.23781e-06
2.29455e-06
1.18467e-06
9.33142e-07
3.64617e-06
9.3214e-07
3.64574e-06
2.29481e-06
4.23708e-06
9.56118e-06
9.55648e-06
4.2377e-06
5.64678e-06
5.64541e-06
1.41452e-06
5.64791e-06
5.64648e-06
1.906e-05
1.90705e-05
1.9084e-05
1.90737e-05
1.41671e-06
5.65008e-06
5.64865e-06
5.649e-06
5.64764e-06
1.90815e-05
1.90712e-05
2.29399e-06
9.29926e-07
3.64493e-06
1.18368e-06
9.31022e-07
3.64541e-06
2.29373e-06
4.23653e-06
9.55071e-06
9.55587e-06
4.23597e-06
4.23648e-06
9.55135e-06
9.55613e-06
4.23598e-06
2.29464e-06
1.18458e-06
9.33212e-07
3.64628e-06
9.32194e-07
3.64584e-06
2.29485e-06
2.29457e-06
1.18443e-06
9.33132e-07
3.64667e-06
9.3212e-07
3.64624e-06
2.29477e-06
4.2373e-06
9.56164e-06
9.55657e-06
4.23782e-06
4.23732e-06
9.56192e-06
9.55721e-06
4.23777e-06
1.9061e-05
1.90714e-05
1.90633e-05
1.90737e-05
1.41671e-06
5.64854e-06
5.65028e-06
5.64749e-06
5.64923e-06
1.90825e-05
1.90721e-05
1.90848e-05
1.90744e-05
1.90808e-05
1.90841e-05
5.64957e-06
5.65134e-06
9.56149e-06
4.23826e-06
3.64686e-06
9.3409e-07
2.29531e-06
3.64727e-06
9.34016e-07
2.29525e-06
5.65113e-06
5.64979e-06
1.90822e-05
3.64741e-06
9.34069e-07
2.2953e-06
9.56251e-06
4.23831e-06
9.34107e-07
3.64733e-06
2.29527e-06
4.23903e-06
9.56212e-06
4.23853e-06
2.2955e-06
9.34168e-07
3.64695e-06
1.18661e-06
2.29529e-06
9.35075e-07
3.64733e-06
4.23892e-06
9.56221e-06
4.23835e-06
9.56679e-06
5.65115e-06
5.64977e-06
1.90822e-05
2.29547e-06
9.34152e-07
3.64747e-06
1.1866e-06
2.29532e-06
9.35076e-07
3.64786e-06
4.23903e-06
9.56232e-06
4.23856e-06
4.23899e-06
9.56295e-06
4.23858e-06
9.56753e-06
1.90831e-05
1.90933e-05
1.90854e-05
1.90956e-05
1.26407e-05
1.12333e-05
4.8818e-06
4.23639e-06
1.12311e-05
4.88189e-06
1.26432e-05
2.27383e-05
9.55179e-06
7.2392e-06
7.23902e-06
2.27313e-05
2.27378e-05
7.24029e-06
9.55283e-06
7.24049e-06
2.27447e-05
1.26393e-05
4.23565e-06
1.12276e-05
4.88114e-06
1.12299e-05
4.88105e-06
1.26368e-05
1.9066e-05
1.90666e-05
1.26402e-05
4.88184e-06
1.12339e-05
4.23644e-06
4.88188e-06
1.1231e-05
1.26438e-05
2.2738e-05
9.55316e-06
7.23923e-06
7.23905e-06
2.27311e-05
2.27375e-05
7.24033e-06
9.55422e-06
7.24052e-06
2.27444e-05
1.264e-05
4.23575e-06
4.88113e-06
1.12275e-05
4.88109e-06
1.12304e-05
1.26362e-05
1.90674e-05
1.90681e-05
9.95766e-06
2.23741e-05
2.23733e-05
2.23678e-05
2.23671e-05
9.95735e-06
4.70064e-06
2.97319e-06
5.64525e-06
9.91407e-06
2.97301e-06
9.91663e-06
4.70096e-06
4.70642e-06
2.97435e-06
5.64698e-06
9.91917e-06
2.97418e-06
9.92107e-06
4.70671e-06
4.70168e-06
9.91955e-06
5.64638e-06
2.97342e-06
2.9736e-06
9.91703e-06
4.70135e-06
4.70743e-06
9.924e-06
5.64812e-06
2.9746e-06
2.97477e-06
9.92211e-06
4.70713e-06
9.95555e-06
2.2362e-05
2.23613e-05
2.23682e-05
2.23675e-05
9.95585e-06
2.27637e-05
7.24426e-06
9.56338e-06
2.27569e-05
7.24405e-06
1.26545e-05
4.23826e-06
1.12416e-05
4.88404e-06
1.26521e-05
1.12437e-05
4.88392e-06
1.90881e-05
2.27635e-05
7.2443e-06
9.56464e-06
2.27566e-05
7.24408e-06
1.26551e-05
4.23834e-06
4.88403e-06
1.12415e-05
1.26515e-05
4.88397e-06
1.12443e-05
1.90894e-05
9.96475e-06
2.2397e-05
2.23962e-05
2.23908e-05
2.23901e-05
9.96438e-06
4.70335e-06
2.97473e-06
9.92573e-06
5.6496e-06
4.70372e-06
2.97454e-06
9.92823e-06
4.70911e-06
2.9759e-06
9.93086e-06
5.65134e-06
4.70947e-06
2.97572e-06
9.93267e-06
9.96265e-06
2.23851e-05
2.23844e-05
9.96301e-06
2.23913e-05
2.23906e-05
4.70434e-06
9.93106e-06
5.65066e-06
2.97487e-06
2.97507e-06
9.92851e-06
4.70399e-06
4.71012e-06
9.93544e-06
5.65244e-06
2.97606e-06
2.97625e-06
9.93369e-06
4.70977e-06
1.90636e-05
1.90643e-05
1.90669e-05
1.90676e-05
9.95765e-06
2.23734e-05
2.23727e-05
2.23672e-05
2.23664e-05
9.95733e-06
4.70047e-06
2.97311e-06
5.64515e-06
9.91403e-06
9.91593e-06
2.97293e-06
4.70084e-06
4.70627e-06
2.97425e-06
5.64694e-06
9.91913e-06
9.92102e-06
2.97407e-06
4.70662e-06
4.70156e-06
9.91886e-06
5.64633e-06
2.97334e-06
9.91697e-06
4.70118e-06
2.97353e-06
4.70734e-06
9.92395e-06
5.64808e-06
2.97449e-06
9.92207e-06
4.70697e-06
2.97468e-06
9.95552e-06
2.23613e-05
2.23606e-05
2.23676e-05
2.23669e-05
9.95583e-06
1.90754e-05
1.90747e-05
1.90787e-05
1.9078e-05
9.95912e-06
2.2373e-05
2.23723e-05
9.95945e-06
2.23792e-05
2.23785e-05
4.70294e-06
2.97411e-06
5.64851e-06
9.92485e-06
9.92272e-06
2.97431e-06
4.70255e-06
4.70872e-06
2.97527e-06
5.65027e-06
9.92977e-06
9.92793e-06
2.97546e-06
4.70834e-06
4.70188e-06
9.91993e-06
2.97393e-06
5.64736e-06
4.70226e-06
9.92185e-06
2.97374e-06
4.70767e-06
9.92503e-06
2.97508e-06
5.64915e-06
4.70804e-06
9.92693e-06
2.97489e-06
9.96124e-06
2.2385e-05
2.23842e-05
2.23787e-05
2.2378e-05
9.9609e-06
1.26409e-05
1.12333e-05
4.88168e-06
4.23633e-06
1.1231e-05
4.88176e-06
1.26433e-05
2.27386e-05
9.55214e-06
7.23789e-06
7.23773e-06
2.27317e-05
2.27382e-05
7.23901e-06
9.55283e-06
7.23917e-06
2.27451e-05
1.26395e-05
4.2356e-06
1.12275e-05
4.88101e-06
1.12298e-05
4.88094e-06
1.2637e-05
1.2647e-05
1.12346e-05
4.88262e-06
4.23699e-06
1.26445e-05
1.12369e-05
4.88252e-06
2.27506e-05
9.55863e-06
7.24281e-06
2.27574e-05
7.24302e-06
2.27511e-05
7.24176e-06
9.55762e-06
2.27442e-05
7.24156e-06
1.26483e-05
4.23769e-06
1.12404e-05
4.88324e-06
1.26508e-05
1.12381e-05
4.88334e-06
1.26472e-05
1.12346e-05
4.88249e-06
4.23694e-06
1.26447e-05
1.12368e-05
4.88241e-06
2.2751e-05
9.55863e-06
7.24153e-06
7.24171e-06
2.27578e-05
2.27514e-05
7.24045e-06
9.55794e-06
2.27446e-05
7.24028e-06
1.26485e-05
4.23763e-06
1.12403e-05
4.88312e-06
1.12381e-05
4.88321e-06
1.2651e-05
9.95772e-06
2.23732e-05
2.23738e-05
2.23669e-05
2.23675e-05
9.95738e-06
4.70638e-06
2.97421e-06
5.64664e-06
9.91844e-06
9.92099e-06
2.97404e-06
4.70669e-06
4.70056e-06
2.9732e-06
5.64538e-06
9.91456e-06
2.97302e-06
9.91646e-06
4.70092e-06
4.7074e-06
9.92392e-06
5.64789e-06
2.97445e-06
9.92141e-06
2.97463e-06
4.70708e-06
4.70164e-06
9.91939e-06
5.64653e-06
2.97343e-06
2.97362e-06
9.9175e-06
4.70127e-06
9.95557e-06
2.23611e-05
2.23617e-05
2.23674e-05
2.2368e-05
9.95591e-06
1.9065e-05
1.90656e-05
1.90777e-05
1.90771e-05
9.95917e-06
2.23727e-05
2.23733e-05
9.95953e-06
2.2379e-05
2.23796e-05
4.70878e-06
2.97522e-06
5.65007e-06
9.92975e-06
2.97541e-06
9.92722e-06
4.70844e-06
4.70302e-06
2.9742e-06
5.64872e-06
9.92521e-06
9.92336e-06
2.9744e-06
4.70263e-06
4.70777e-06
9.92436e-06
2.97503e-06
5.64885e-06
2.97485e-06
4.7081e-06
9.92682e-06
4.70196e-06
9.92047e-06
2.97402e-06
5.64759e-06
4.70234e-06
9.92236e-06
2.97382e-06
9.96131e-06
2.23848e-05
2.23853e-05
2.23785e-05
2.23791e-05
9.96094e-06
1.90767e-05
1.90761e-05
1.26409e-05
1.12338e-05
4.88164e-06
4.23639e-06
1.12309e-05
4.88172e-06
1.26434e-05
2.2738e-05
9.5528e-06
7.23762e-06
7.23742e-06
2.27311e-05
2.27375e-05
7.2387e-06
9.55385e-06
7.23888e-06
2.27444e-05
1.26396e-05
4.23569e-06
1.12274e-05
4.88099e-06
1.12303e-05
4.88091e-06
1.2637e-05
1.26476e-05
4.88261e-06
1.12345e-05
4.23708e-06
1.2644e-05
4.88256e-06
1.12374e-05
2.27503e-05
9.56003e-06
7.24285e-06
2.27572e-05
7.24305e-06
2.27508e-05
7.24179e-06
9.55902e-06
2.27439e-05
7.24159e-06
1.26479e-05
4.23774e-06
4.88327e-06
1.1241e-05
1.26513e-05
4.88332e-06
1.1238e-05
1.26472e-05
1.12344e-05
4.88245e-06
4.23701e-06
1.26447e-05
1.12373e-05
4.88237e-06
2.27503e-05
9.55969e-06
7.24122e-06
7.24142e-06
2.27571e-05
2.27508e-05
7.24016e-06
9.55865e-06
2.27439e-05
7.23997e-06
1.26486e-05
4.23769e-06
1.12408e-05
4.88308e-06
1.12379e-05
4.88317e-06
1.2651e-05
1.26395e-05
4.88181e-06
1.12338e-05
4.23661e-06
4.88201e-06
1.12308e-05
1.26433e-05
2.27371e-05
9.55276e-06
7.23905e-06
7.23867e-06
2.27299e-05
2.27363e-05
7.23995e-06
9.55346e-06
7.24034e-06
2.27435e-05
1.26395e-05
4.23586e-06
4.88127e-06
1.12274e-05
4.88107e-06
1.12303e-05
1.26357e-05
1.26402e-05
1.12336e-05
4.88165e-06
4.23642e-06
1.12307e-05
4.8817e-06
1.26438e-05
2.2738e-05
9.5525e-06
7.23745e-06
7.23726e-06
2.27311e-05
2.27375e-05
7.23853e-06
9.55355e-06
7.23873e-06
2.27444e-05
1.264e-05
4.23574e-06
1.12272e-05
4.88096e-06
1.12301e-05
4.88092e-06
1.26363e-05
1.26472e-05
4.88274e-06
1.12344e-05
4.23718e-06
1.26434e-05
4.88253e-06
1.12373e-05
2.27491e-05
9.55926e-06
7.24246e-06
7.24286e-06
2.27563e-05
2.27499e-05
7.24161e-06
9.55857e-06
2.27427e-05
7.24121e-06
1.26472e-05
4.2379e-06
4.88324e-06
1.12408e-05
4.88345e-06
1.12379e-05
1.26509e-05
1.26476e-05
1.12343e-05
4.88243e-06
4.23706e-06
1.2644e-05
1.12372e-05
4.88238e-06
2.27503e-05
9.55937e-06
7.24104e-06
7.24125e-06
2.27571e-05
2.27508e-05
7.24e-06
9.55834e-06
2.27439e-05
7.23979e-06
1.26478e-05
4.23772e-06
1.12406e-05
4.88308e-06
1.12377e-05
4.88314e-06
1.26514e-05
9.95723e-06
2.23726e-05
2.2373e-05
2.23664e-05
2.23668e-05
9.95689e-06
4.70633e-06
2.97425e-06
5.64679e-06
9.91843e-06
9.92096e-06
2.97412e-06
4.70664e-06
4.70039e-06
2.97316e-06
5.64536e-06
9.91409e-06
2.97299e-06
9.91598e-06
4.70071e-06
4.70736e-06
9.9239e-06
5.6479e-06
2.97453e-06
9.9214e-06
2.97467e-06
4.70704e-06
4.70143e-06
9.91891e-06
5.64653e-06
2.9734e-06
2.97358e-06
9.91703e-06
4.7011e-06
9.95508e-06
2.23606e-05
2.2361e-05
2.23668e-05
2.23672e-05
9.95541e-06
1.90649e-05
1.90656e-05
1.90792e-05
1.90785e-05
9.95869e-06
2.23722e-05
2.23726e-05
9.95904e-06
2.23784e-05
2.23788e-05
4.70874e-06
2.9753e-06
5.65008e-06
9.9297e-06
2.97545e-06
9.92721e-06
4.7084e-06
4.70282e-06
2.97418e-06
5.64872e-06
9.92472e-06
9.9229e-06
2.97436e-06
4.70247e-06
4.70773e-06
9.92435e-06
2.97507e-06
5.649e-06
2.97493e-06
4.70806e-06
9.92682e-06
4.7018e-06
9.92e-06
2.97398e-06
5.64758e-06
4.70213e-06
9.92189e-06
2.9738e-06
9.96082e-06
2.23842e-05
2.23846e-05
2.2378e-05
2.23784e-05
9.96047e-06
1.90767e-05
1.9076e-05
1.26405e-05
4.88186e-06
1.12334e-05
4.23664e-06
4.88193e-06
1.12312e-05
1.2643e-05
2.27374e-05
9.55296e-06
7.23887e-06
7.2387e-06
2.27304e-05
2.27369e-05
7.23998e-06
9.55366e-06
7.24015e-06
2.27438e-05
1.26392e-05
4.23586e-06
4.88119e-06
1.12277e-05
4.88112e-06
1.12299e-05
1.26367e-05
1.26403e-05
4.88173e-06
1.12332e-05
4.23666e-06
4.88188e-06
1.1231e-05
1.2644e-05
2.27389e-05
9.55322e-06
7.23792e-06
7.23772e-06
2.2732e-05
2.27384e-05
7.239e-06
9.55428e-06
7.23921e-06
2.27454e-05
1.26401e-05
4.23581e-06
4.88113e-06
1.12275e-05
4.88099e-06
1.12297e-05
1.26364e-05
1.26468e-05
4.88266e-06
1.12347e-05
4.23718e-06
1.26443e-05
4.88258e-06
1.12369e-05
2.27497e-05
9.55944e-06
7.24249e-06
7.24268e-06
2.27565e-05
2.27502e-05
7.24142e-06
9.55877e-06
2.27433e-05
7.24124e-06
1.26482e-05
4.23794e-06
4.88329e-06
1.12404e-05
4.88338e-06
1.12382e-05
1.26507e-05
1.26478e-05
4.88261e-06
1.12345e-05
4.23714e-06
1.26441e-05
4.88246e-06
1.12368e-05
2.27512e-05
9.56011e-06
7.24152e-06
7.24174e-06
2.27581e-05
2.27517e-05
7.24048e-06
9.55907e-06
2.27448e-05
7.24027e-06
1.2648e-05
4.23796e-06
4.88317e-06
1.12402e-05
4.88332e-06
1.1238e-05
1.26515e-05
1.90659e-05
1.90666e-05
1.90682e-05
1.90689e-05
9.95915e-06
2.23736e-05
2.23729e-05
9.95946e-06
2.23798e-05
2.23791e-05
4.70306e-06
2.9742e-06
5.64855e-06
9.92536e-06
4.70271e-06
2.97437e-06
9.92283e-06
4.70882e-06
2.97538e-06
5.65032e-06
9.92982e-06
4.70849e-06
2.97555e-06
9.92797e-06
4.70204e-06
9.91999e-06
2.97401e-06
5.64748e-06
4.70238e-06
2.97383e-06
9.92244e-06
4.70782e-06
9.92508e-06
2.97517e-06
5.6492e-06
4.70813e-06
2.975e-06
9.92697e-06
9.96125e-06
2.23856e-05
2.23849e-05
9.96093e-06
2.23794e-05
2.23787e-05
1.90776e-05
1.9077e-05
1.908e-05
1.90793e-05
1.90857e-05
1.90889e-05
4.70321e-06
2.97468e-06
9.9253e-06
5.64952e-06
4.70361e-06
9.92787e-06
2.97447e-06
4.709e-06
2.97582e-06
9.93072e-06
5.65131e-06
4.70938e-06
9.93276e-06
2.97563e-06
9.96267e-06
2.23845e-05
2.23838e-05
9.96302e-06
2.23907e-05
2.239e-05
2.27641e-05
7.24295e-06
9.56372e-06
2.27573e-05
7.24277e-06
1.26547e-05
4.2382e-06
1.12415e-05
4.8839e-06
1.12439e-05
1.26523e-05
4.88382e-06
4.70909e-06
2.97577e-06
9.9301e-06
5.65099e-06
9.93266e-06
4.70945e-06
2.97558e-06
4.70331e-06
2.97476e-06
9.92625e-06
5.64974e-06
2.97457e-06
4.70369e-06
9.92806e-06
9.9627e-06
2.23843e-05
2.23848e-05
2.23905e-05
9.96309e-06
2.23911e-05
2.27635e-05
7.24267e-06
9.56435e-06
2.27566e-05
7.24246e-06
1.26548e-05
4.23826e-06
1.12414e-05
4.88387e-06
1.12442e-05
1.26523e-05
4.88378e-06
1.26546e-05
4.23913e-06
1.12477e-05
4.88484e-06
1.12447e-05
2.27626e-05
7.24411e-06
9.56433e-06
7.2437e-06
2.27554e-05
1.26548e-05
4.23843e-06
4.88415e-06
1.12413e-05
4.88393e-06
1.2651e-05
1.12442e-05
2.27617e-05
1.26554e-05
4.23895e-06
1.12475e-05
4.88445e-06
1.12446e-05
4.88452e-06
1.2659e-05
2.27634e-05
7.24249e-06
9.56402e-06
2.27566e-05
7.24228e-06
1.26552e-05
4.23831e-06
1.12412e-05
4.88384e-06
1.26517e-05
1.12441e-05
4.88378e-06
2.27629e-05
7.2435e-06
9.56505e-06
7.24373e-06
2.27697e-05
4.70906e-06
2.97581e-06
9.93013e-06
5.65114e-06
9.93257e-06
4.70941e-06
2.97566e-06
4.70313e-06
2.97472e-06
9.92567e-06
5.64974e-06
2.97454e-06
4.70347e-06
9.92756e-06
9.96223e-06
2.23837e-05
2.23841e-05
2.23899e-05
9.9626e-06
2.23903e-05
1.90869e-05
1.26557e-05
4.23917e-06
4.88466e-06
1.12472e-05
4.88475e-06
1.12451e-05
1.26585e-05
2.27628e-05
7.24393e-06
9.56447e-06
7.24373e-06
2.2756e-05
1.26544e-05
4.23844e-06
4.88407e-06
1.12416e-05
4.88399e-06
1.26519e-05
1.12439e-05
2.27623e-05
7.24495e-06
7.24516e-06
2.27691e-05
1.26556e-05
4.23919e-06
4.88454e-06
1.1247e-05
4.88471e-06
1.12449e-05
1.26591e-05
2.27644e-05
7.24299e-06
9.56476e-06
2.27575e-05
7.24276e-06
1.26553e-05
4.23839e-06
4.88402e-06
1.12415e-05
1.26518e-05
4.88386e-06
1.12437e-05
2.27638e-05
7.24398e-06
9.5658e-06
7.24422e-06
2.27707e-05
1.90879e-05
1.90886e-05
1.90902e-05
1.90909e-05
4.41783e-07
4.4172e-07
6.53459e-07
4.43676e-07
4.43602e-07
2.35637e-07
2.33707e-07
2.82693e-06
1.96718e-06
1.96741e-06
1.41376e-06
1.9665e-06
1.96672e-06
2.82723e-06
4.49158e-07
4.49089e-07
2.43239e-07
2.41366e-07
2.8282e-06
1.96869e-06
1.96891e-06
1.41665e-06
2.82854e-06
1.96797e-06
1.9682e-06
2.82686e-06
1.96715e-06
1.96737e-06
1.41369e-06
1.96648e-06
1.96668e-06
2.82716e-06
2.82819e-06
1.41736e-06
1.96763e-06
1.96783e-06
1.96832e-06
1.96854e-06
2.82787e-06
2.8269e-06
1.96729e-06
1.96722e-06
1.41366e-06
1.96653e-06
1.96659e-06
2.82722e-06
2.82824e-06
1.41735e-06
1.96774e-06
1.96767e-06
1.96845e-06
1.96838e-06
2.8279e-06
2.82686e-06
1.96732e-06
1.96723e-06
1.41375e-06
1.96654e-06
1.96664e-06
2.82716e-06
2.82819e-06
1.41742e-06
1.96779e-06
1.96769e-06
1.96849e-06
1.96839e-06
2.82787e-06
2.82825e-06
1.41743e-06
1.96765e-06
1.96787e-06
2.82795e-06
1.96835e-06
1.96858e-06
2.82817e-06
1.96867e-06
1.96888e-06
1.41658e-06
2.82849e-06
1.96797e-06
1.96817e-06
2.82819e-06
1.96879e-06
1.96872e-06
1.41652e-06
1.968e-06
2.82854e-06
1.96806e-06
2.82817e-06
1.96883e-06
1.96874e-06
1.41663e-06
1.96802e-06
2.82849e-06
1.96811e-06
4.41768e-07
4.41758e-07
6.53476e-07
4.43671e-07
4.43635e-07
2.35646e-07
2.33716e-07
4.41861e-07
4.41846e-07
6.53582e-07
4.43742e-07
4.43737e-07
2.3571e-07
2.3378e-07
4.41897e-07
4.41811e-07
6.53549e-07
4.43755e-07
4.43731e-07
2.35721e-07
2.33781e-07
6.55019e-07
4.47362e-07
4.47287e-07
4.45539e-07
4.45478e-07
2.37564e-07
2.39467e-07
6.55009e-07
4.47357e-07
4.4732e-07
4.45523e-07
4.45516e-07
2.37573e-07
2.39475e-07
6.5515e-07
4.47424e-07
4.47422e-07
4.45618e-07
4.45602e-07
2.37637e-07
2.3954e-07
6.55138e-07
4.47436e-07
4.47422e-07
4.45658e-07
4.45561e-07
2.37636e-07
2.39552e-07
1.66448e-06
2.53953e-06
1.54155e-06
2.29419e-06
2.53977e-06
1.5425e-06
1.6629e-06
1.84149e-06
2.22247e-06
3.64434e-06
3.02097e-06
2.22196e-06
3.0206e-06
1.84277e-06
1.84331e-06
3.02106e-06
3.64518e-06
2.22232e-06
2.22283e-06
3.02145e-06
1.84196e-06
1.66248e-06
2.29365e-06
2.53937e-06
1.54192e-06
2.53914e-06
1.54097e-06
1.66394e-06
1.66458e-06
1.54157e-06
2.53962e-06
2.29424e-06
1.54253e-06
2.53982e-06
1.66291e-06
1.84154e-06
2.22247e-06
3.64437e-06
3.02101e-06
2.22198e-06
3.02065e-06
1.84283e-06
1.84339e-06
3.02112e-06
3.6452e-06
2.22234e-06
2.22284e-06
3.02148e-06
1.842e-06
1.66251e-06
2.29364e-06
1.54195e-06
2.53942e-06
1.54099e-06
2.53922e-06
1.66402e-06
2.82759e-06
1.41597e-06
1.96691e-06
1.96713e-06
1.9676e-06
1.96782e-06
2.82728e-06
4.49142e-07
4.49136e-07
4.50862e-07
2.43248e-07
2.41375e-07
4.49232e-07
4.49218e-07
4.50972e-07
2.43312e-07
2.41439e-07
4.49278e-07
4.49171e-07
6.59554e-07
4.50971e-07
4.50989e-07
2.43327e-07
2.41437e-07
1.66675e-06
2.29567e-06
2.5409e-06
1.54357e-06
2.54116e-06
1.54451e-06
1.66418e-06
1.8431e-06
2.22379e-06
3.02278e-06
3.64685e-06
1.84512e-06
2.22325e-06
3.02236e-06
1.66409e-06
2.2952e-06
2.54085e-06
1.54406e-06
1.66622e-06
2.54059e-06
1.5431e-06
1.66668e-06
2.29573e-06
1.54353e-06
2.54098e-06
1.54457e-06
2.54122e-06
1.66443e-06
1.84326e-06
2.2238e-06
3.02281e-06
3.64688e-06
1.84511e-06
2.22327e-06
3.02242e-06
1.66422e-06
2.29521e-06
1.54411e-06
2.5409e-06
1.66627e-06
1.5431e-06
2.54068e-06
1.8456e-06
3.02279e-06
3.02321e-06
1.84361e-06
2.82883e-06
1.41875e-06
1.96826e-06
1.96848e-06
1.96899e-06
1.96922e-06
2.82849e-06
2.82752e-06
1.4159e-06
1.96689e-06
1.96709e-06
2.82721e-06
1.96757e-06
1.96778e-06
2.82755e-06
1.41518e-06
1.96796e-06
1.96817e-06
2.82787e-06
1.96727e-06
1.96747e-06
1.66445e-06
2.53955e-06
1.54149e-06
2.29415e-06
2.53977e-06
1.54245e-06
1.66288e-06
1.8415e-06
2.22237e-06
3.64414e-06
3.02099e-06
3.02061e-06
2.2219e-06
1.84276e-06
1.84329e-06
3.02108e-06
3.64499e-06
2.22225e-06
3.02147e-06
2.22274e-06
1.84197e-06
1.66246e-06
2.29356e-06
2.53937e-06
1.54187e-06
2.53915e-06
1.54092e-06
1.66392e-06
1.6644e-06
2.5394e-06
1.54143e-06
2.29409e-06
2.5396e-06
1.5424e-06
1.6627e-06
1.84133e-06
2.2226e-06
3.64451e-06
3.02068e-06
3.02032e-06
2.2221e-06
1.84265e-06
1.84321e-06
3.02079e-06
3.6454e-06
2.22245e-06
3.02116e-06
1.84178e-06
2.22295e-06
1.6623e-06
2.2935e-06
2.5392e-06
1.54181e-06
2.53901e-06
1.54086e-06
1.66383e-06
1.66323e-06
2.54015e-06
1.54301e-06
2.29439e-06
1.66504e-06
2.53992e-06
1.54204e-06
1.84443e-06
2.2229e-06
3.64625e-06
3.02196e-06
2.22341e-06
3.02237e-06
1.8428e-06
1.84239e-06
3.02193e-06
2.22308e-06
3.64544e-06
2.22258e-06
1.84383e-06
3.02153e-06
1.66569e-06
2.29494e-06
2.54028e-06
1.54255e-06
2.54051e-06
1.54354e-06
1.66371e-06
1.66306e-06
2.53998e-06
1.54296e-06
2.29433e-06
1.66503e-06
2.53978e-06
1.54198e-06
1.84443e-06
2.22309e-06
3.64667e-06
3.02168e-06
3.02207e-06
2.22362e-06
1.84259e-06
1.84219e-06
3.02162e-06
2.22329e-06
3.64581e-06
1.84379e-06
3.02125e-06
2.22278e-06
1.66568e-06
2.29488e-06
2.54013e-06
1.54249e-06
2.54035e-06
1.54348e-06
1.66353e-06
2.82758e-06
1.4159e-06
1.96699e-06
1.96693e-06
1.96763e-06
1.9677e-06
2.82725e-06
2.82758e-06
1.41517e-06
1.96809e-06
1.96802e-06
1.96738e-06
2.82792e-06
1.96732e-06
1.66436e-06
2.53956e-06
1.54154e-06
2.29414e-06
2.53977e-06
1.5424e-06
1.6631e-06
1.84161e-06
2.2227e-06
3.64471e-06
3.02108e-06
3.02073e-06
2.22223e-06
1.8427e-06
1.84321e-06
3.0212e-06
3.64554e-06
2.22258e-06
3.02156e-06
2.22307e-06
1.84216e-06
1.66254e-06
2.2936e-06
2.53937e-06
1.54182e-06
2.53916e-06
1.54096e-06
1.66386e-06
1.66466e-06
1.54145e-06
2.53942e-06
2.29412e-06
1.54242e-06
2.53962e-06
1.66266e-06
1.84138e-06
2.22265e-06
3.64463e-06
3.0207e-06
3.02033e-06
2.22218e-06
1.84267e-06
1.84324e-06
3.02081e-06
3.64546e-06
2.22254e-06
3.02116e-06
1.84183e-06
2.22302e-06
1.66221e-06
2.29353e-06
1.54183e-06
2.53923e-06
1.54087e-06
2.53903e-06
1.66401e-06
1.66362e-06
2.54015e-06
1.54295e-06
2.29443e-06
1.66482e-06
2.53993e-06
1.54208e-06
1.84417e-06
2.22323e-06
3.64681e-06
3.0221e-06
2.22374e-06
3.02246e-06
1.84318e-06
1.8427e-06
3.02202e-06
2.22341e-06
3.64601e-06
2.22292e-06
1.8437e-06
3.02166e-06
1.66526e-06
2.29493e-06
2.54029e-06
1.5426e-06
2.54051e-06
1.54347e-06
1.66406e-06
1.66308e-06
1.54297e-06
2.54e-06
2.29436e-06
1.66518e-06
1.542e-06
2.5398e-06
1.84445e-06
2.22318e-06
3.64672e-06
3.02169e-06
3.02206e-06
2.22368e-06
1.84268e-06
1.84224e-06
3.02162e-06
2.22336e-06
3.64592e-06
1.84383e-06
3.02126e-06
2.22287e-06
1.66572e-06
2.2949e-06
1.54252e-06
2.54015e-06
1.5435e-06
2.54036e-06
1.66357e-06
1.66436e-06
1.54154e-06
2.53944e-06
2.29415e-06
1.54247e-06
2.53965e-06
1.66293e-06
1.84144e-06
2.22239e-06
3.64425e-06
3.0206e-06
2.22191e-06
3.02022e-06
1.84263e-06
1.84313e-06
3.02069e-06
3.64509e-06
2.22227e-06
2.22275e-06
3.02107e-06
1.84196e-06
1.66246e-06
2.29362e-06
1.54189e-06
2.53926e-06
1.54096e-06
2.53905e-06
1.66386e-06
1.66324e-06
2.54015e-06
1.54305e-06
2.29447e-06
1.66507e-06
2.5399e-06
1.54209e-06
1.84448e-06
2.22296e-06
3.64645e-06
3.02195e-06
1.84274e-06
2.22349e-06
3.02235e-06
1.84236e-06
3.02191e-06
2.22317e-06
3.64563e-06
1.84387e-06
2.22265e-06
3.02151e-06
1.66572e-06
2.29498e-06
2.54026e-06
1.54261e-06
1.6637e-06
2.54051e-06
1.54358e-06
1.66342e-06
1.54302e-06
2.54003e-06
2.29444e-06
1.66484e-06
1.5421e-06
2.53981e-06
1.84406e-06
2.22291e-06
3.64635e-06
3.02158e-06
3.02196e-06
2.22341e-06
1.84299e-06
1.84247e-06
3.02152e-06
2.22309e-06
3.64555e-06
1.84361e-06
3.02114e-06
2.22259e-06
1.66525e-06
2.29493e-06
1.54262e-06
2.54015e-06
1.54352e-06
2.54038e-06
1.66396e-06
2.82752e-06
1.41597e-06
1.96704e-06
1.96695e-06
1.96764e-06
1.96773e-06
2.82722e-06
2.82755e-06
1.41525e-06
1.96812e-06
1.96803e-06
1.96743e-06
2.82786e-06
1.96733e-06
1.66442e-06
1.5415e-06
2.53943e-06
2.29416e-06
1.54246e-06
2.53966e-06
1.66277e-06
1.84141e-06
2.22273e-06
3.64476e-06
3.02077e-06
2.22223e-06
3.0204e-06
1.84269e-06
1.84324e-06
3.02087e-06
3.64559e-06
2.2226e-06
2.22309e-06
3.02125e-06
1.84187e-06
1.66237e-06
2.29356e-06
1.54187e-06
2.53926e-06
1.54092e-06
2.53903e-06
1.66386e-06
1.66328e-06
1.54309e-06
2.5402e-06
2.29447e-06
1.6652e-06
1.54211e-06
2.53999e-06
1.84458e-06
2.22299e-06
3.64646e-06
3.02201e-06
1.84284e-06
2.2235e-06
3.02238e-06
1.84241e-06
3.02194e-06
2.22318e-06
3.64566e-06
1.84396e-06
2.22267e-06
3.02158e-06
1.66583e-06
2.29503e-06
1.54263e-06
2.54035e-06
1.66379e-06
1.54362e-06
2.54056e-06
1.66314e-06
1.54302e-06
2.54004e-06
2.29439e-06
1.66503e-06
1.54204e-06
2.5398e-06
1.84442e-06
2.22325e-06
3.64686e-06
3.02176e-06
3.02215e-06
2.22376e-06
1.84275e-06
1.84229e-06
3.02171e-06
2.22344e-06
3.64605e-06
1.84381e-06
3.02132e-06
2.22293e-06
1.66568e-06
2.29496e-06
1.54256e-06
2.54016e-06
1.54354e-06
2.5404e-06
1.66362e-06
2.82762e-06
1.41525e-06
1.96798e-06
1.96821e-06
2.82794e-06
1.96729e-06
1.96751e-06
1.8433e-06
2.22371e-06
3.0228e-06
3.64666e-06
3.02238e-06
1.84495e-06
2.22319e-06
1.66417e-06
2.29513e-06
2.54085e-06
1.54403e-06
2.54061e-06
1.66606e-06
1.54302e-06
1.84288e-06
2.22392e-06
3.02249e-06
3.64702e-06
1.84501e-06
3.02211e-06
2.22338e-06
1.66386e-06
2.29507e-06
2.54068e-06
1.54398e-06
1.66613e-06
2.54047e-06
1.54296e-06
1.84361e-06
2.22404e-06
3.02288e-06
3.64723e-06
3.02251e-06
1.8446e-06
2.22352e-06
1.66445e-06
2.29516e-06
2.54085e-06
1.54396e-06
2.54063e-06
1.66569e-06
1.54309e-06
1.84302e-06
2.22398e-06
3.02247e-06
3.64714e-06
1.84496e-06
3.02211e-06
2.22347e-06
1.66391e-06
2.29509e-06
1.54399e-06
2.54069e-06
1.66615e-06
1.54301e-06
2.54049e-06
1.66598e-06
2.29563e-06
1.54358e-06
2.5408e-06
1.54446e-06
2.54102e-06
1.66479e-06
1.84348e-06
2.2237e-06
3.02237e-06
3.64675e-06
2.22318e-06
1.84449e-06
3.02199e-06
1.66444e-06
2.29516e-06
1.544e-06
2.54071e-06
1.5431e-06
1.66564e-06
2.54049e-06
1.84487e-06
3.02239e-06
3.64754e-06
2.22344e-06
2.22398e-06
3.02276e-06
1.84389e-06
1.66654e-06
2.29566e-06
1.54347e-06
2.5408e-06
1.5445e-06
2.54106e-06
1.66413e-06
1.84321e-06
2.22406e-06
3.02258e-06
3.64727e-06
2.22354e-06
1.84486e-06
3.02217e-06
1.66401e-06
2.29513e-06
1.54404e-06
2.54074e-06
1.54305e-06
1.66608e-06
2.54049e-06
1.84528e-06
3.02255e-06
3.64806e-06
2.22381e-06
2.22434e-06
3.02298e-06
1.84365e-06
8.63111e-07
1.14838e-06
8.63002e-07
9.16198e-06
3.47485e-06
1.84288e-05
5.46338e-06
5.46215e-06
1.84267e-05
3.4749e-06
9.16215e-06
2.2055e-05
9.15892e-06
7.08872e-06
7.08907e-06
2.20616e-05
1.84237e-05
4.54486e-06
2.81256e-06
5.46336e-06
9.50419e-06
2.81157e-06
9.50125e-06
4.54505e-06
4.53866e-06
2.81144e-06
5.46184e-06
9.49996e-06
9.49631e-06
2.81046e-06
4.53903e-06
9.73629e-06
2.17295e-05
2.17298e-05
2.17232e-05
2.17235e-05
9.7359e-06
1.84217e-05
2.20525e-05
9.15918e-06
7.08951e-06
7.09004e-06
2.20594e-05
2.66777e-06
1.14942e-06
1.76774e-06
1.76769e-06
1.76816e-06
1.76802e-06
2.66872e-06
1.61835e-06
2.032e-06
3.47502e-06
2.86024e-06
2.86001e-06
2.03233e-06
1.61645e-06
1.61842e-06
2.03232e-06
3.4747e-06
2.8607e-06
2.03169e-06
2.86004e-06
1.61657e-06
3.23769e-07
8.69008e-07
8.69165e-07
1.15451e-06
3.39802e-07
8.92433e-07
8.92593e-07
1.17362e-06
3.5608e-07
9.1487e-07
9.15027e-07
1.19201e-06
3.72521e-07
9.36299e-07
9.36449e-07
1.20952e-06
3.89044e-07
9.56718e-07
9.56857e-07
1.2262e-06
4.05569e-07
9.76141e-07
9.76271e-07
1.24205e-06
4.22017e-07
9.94576e-07
9.94699e-07
1.25706e-06
4.38314e-07
1.01203e-06
1.01214e-06
1.27126e-06
4.54385e-07
1.02851e-06
1.02862e-06
1.28467e-06
4.70167e-07
1.04404e-06
1.04414e-06
1.29733e-06
4.85598e-07
1.05863e-06
1.05874e-06
1.3093e-06
5.00627e-07
1.07233e-06
1.07242e-06
1.32054e-06
5.15207e-07
1.08514e-06
1.08523e-06
1.33109e-06
5.29295e-07
1.09709e-06
1.09718e-06
1.34099e-06
5.42856e-07
1.10821e-06
1.10831e-06
1.35026e-06
5.55859e-07
1.11854e-06
1.11863e-06
1.3589e-06
5.68278e-07
1.12808e-06
1.12818e-06
1.36695e-06
5.80091e-07
1.13688e-06
1.13697e-06
1.37443e-06
5.91286e-07
1.14494e-06
1.14504e-06
1.38134e-06
6.01852e-07
1.1523e-06
1.1524e-06
1.38771e-06
6.1178e-07
1.15897e-06
1.15907e-06
1.39356e-06
6.2107e-07
1.16499e-06
1.16509e-06
1.39888e-06
6.29719e-07
1.17037e-06
1.17046e-06
1.4037e-06
6.37731e-07
1.17514e-06