/*--------------------------------*- C++ -*----------------------------------*\
| =========                 |                                                 |
| \\      /  F ield         | OpenFOAM: The Open Source CFD Toolbox           |
|  \\    /   O peration     | Version:  2312                                  |
|   \\  /    A nd           | Website:  www.openfoam.com                      |
|    \\/     M anipulation  |                                                 |
\*---------------------------------------------------------------------------*/
FoamFile
{
    version     2.0;
    format      ascii;
    arch        "LSB;label=32;scalar=64";
    class       surfaceScalarField;
    location    "700";
    object      phi;
}
// * * * * * * * * * * * * * * * * * * * * * * * * * * * * * * * * * * * * * //

dimensions      [0 3 -1 0 0 0 0];

oriented        oriented;

internalField   nonuniform List<scalar> 
125567
(
-7.02095e-08
-1.66509e-10
-0.000229369
2.15983e-09
2.998e-08
-6.89751e-09
-1.97455e-08
-9.80154e-05
1.24101e-06
-1.22962e-07
2.69115e-07
-2.15101e-07
-1.1937e-06
2.775e-07
-2.36791e-07
-0.00113202
-5.54384e-08
-8.52597e-07
9.11338e-07
2.08154e-08
4.36095e-08
-0.000245491
-1.02566e-07
-1.67274e-08
-1.66961e-09
-0.00025013
4.04604e-09
-1.93205e-07
-3.14604e-09
-1.5302e-07
-9.38577e-07
8.31121e-07
-7.56624e-07
1.01142e-06
-0.00115229
-7.01928e-08
-0.000229329
2.99652e-08
2.18403e-09
-4.35505e-08
3.27476e-09
-0.000193597
-0.000250103
-1.93197e-07
4.33334e-09
-4.99072e-08
1.27246e-06
-1.28188e-07
-8.57942e-07
2.69026e-07
9.16521e-07
-2.15163e-07
-1.2279e-06
2.8022e-07
-2.42382e-07
-0.00113153
-1.58785e-07
-9.38587e-07
8.31128e-07
-7.56647e-07
1.01145e-06
-0.00115224
2.32127e-08
-1.67253e-08
-0.000245388
-1.025e-07
-0.000268079
2.41868e-07
2.46804e-07
1.04901e-08
-0.00027816
-4.61875e-08
1.97866e-08
1.05667e-08
-0.000278297
-4.84478e-08
-6.88077e-09
-9.80381e-05
-0.000193655
3.32477e-09
1.24248e-08
-8.0749e-10
0.000143419
-4.74177e-11
-0.00014343
7.47944e-10
-1.11285e-08
4.78913e-12
2.86598e-08
-0.000229387
-0.000223421
2.88779e-08
4.38487e-09
-7.17138e-08
-0.000171124
-3.20414e-10
-4.52724e-12
9.03472e-10
3.3029e-08
-0.000223442
-1.78275e-11
-0.000171136
1.47777e-09
1.70302e-08
7.9298e-05
-7.93151e-05
-0.000263317
2.42516e-08
-6.15962e-08
3.32237e-08
-0.000263336
5.02225e-09
1.12663e-08
-9.80317e-05
-7.69248e-10
1.2372e-08
0.000143346
-6.04196e-11
-0.000143358
-1.11234e-08
9.18525e-10
2.86509e-08
-0.000229348
-0.000171089
-1.50761e-10
-0.000223323
2.88299e-08
4.36952e-09
-6.92417e-08
-0.000171101
9.13532e-10
3.05543e-08
-0.000223341
1.4966e-09
1.69643e-08
7.92538e-05
-7.92708e-05
-0.00026319
2.41681e-08
-5.91356e-08
-3.85603e-09
2.25516e-08
-0.000193611
3.0816e-08
-0.000263206
-7.01115e-09
-7.03008e-09
0.000213784
1.22459e-08
1.01419e-08
-0.000213792
-8.05424e-05
-1.22895e-08
-1.19925e-08
-8.05661e-05
-1.221e-08
-1.20706e-08
9.4084e-09
-8.05589e-05
9.38536e-09
-8.05825e-05
-2.70192e-08
-2.49893e-08
-1.43006e-08
1.58021e-08
0.000221868
2.90638e-08
-0.000221886
-0.000183016
-3.11743e-08
-7.37002e-09
2.03592e-08
1.22086e-08
-0.000278174
-0.000250575
3.60048e-08
-5.49478e-08
-9.97521e-08
-0.000183028
3.19924e-08
6.12375e-08
-0.000250632
-5.75231e-08
1.57797e-08
-1.42969e-08
0.000221957
3.12053e-08
-0.000221979
-0.000183098
-3.11482e-08
2.25928e-08
-7.30018e-09
-1.13257e-08
9.71364e-09
-0.00027831
-0.000250748
3.61256e-08
-5.24253e-08
-9.97633e-08
2.93828e-08
6.11723e-08
-0.000250801
-0.00018311
-5.95685e-08
4.97657e-09
-9.80544e-05
2.2556e-08
-0.000193668
-3.88674e-09
2.35001e-09
-0.00121558
-1.00065e-07
-7.52545e-08
-0.00118363
-1.0396e-07
-0.0012147
-1.17949e-07
6.40327e-08
-0.000245527
4.02098e-09
-0.000260376
-2.7409e-08
-0.000260506
8.00806e-09
-1.53066e-07
1.54867e-09
0.000265679
-1.05727e-08
-0.000266455
4.91489e-10
1.32119e-07
3.08415e-10
-0.000250234
-0.000249561
-2.1179e-07
1.03524e-08
-0.000265854
7.05059e-09
-6.59924e-09
7.86245e-10
-0.000249681
3.88323e-09
-0.000266481
2.70642e-08
-1.39144e-07
0.000264002
-0.000264718
-0.000250756
-1.86136e-07
-0.000250855
-2.25202e-09
-1.50423e-07
0.000265609
2.21914e-09
-0.000266397
1.32118e-07
1.39561e-09
-0.000250208
-0.000265836
5.57467e-09
-0.000249476
-2.11747e-07
1.03824e-08
-0.000266459
7.75392e-10
-0.000249595
1.42605e-08
-1.36671e-07
0.000263902
-8.09293e-09
-0.000264613
-0.000250651
-1.88636e-07
4.05977e-09
6.16566e-08
-0.000245419
-2.74186e-08
-0.000260269
-0.000250752
-0.000260398
7.49022e-08
7.75305e-08
0.00024288
-0.000242972
-2.03193e-07
-1.98237e-07
-0.000270099
-0.000261131
1.12514e-07
-0.000260784
1.09936e-07
-0.000261087
-0.000261433
1.19186e-07
1.19658e-07
-7.10788e-08
-7.09787e-08
0.00118445
-0.00118455
-1.19687e-06
-1.19523e-07
-5.43468e-08
0.00113224
-2.37028e-07
1.24125e-06
2.74935e-07
9.1125e-07
-2.1546e-07
2.69152e-07
-8.5311e-07
-0.00113226
-1.19421e-06
-1.19707e-07
-4.85931e-08
0.0011321
-2.3432e-07
1.23849e-06
2.74917e-07
9.11274e-07
-2.15437e-07
2.69236e-07
-8.53042e-07
-0.00113213
1.2255e-06
1.1889e-06
-1.98219e-07
-2.00946e-07
0.000268045
-0.000270061
1.21927e-07
1.28076e-07
-0.00118417
-7.4339e-08
-7.43192e-08
-0.00113216
-1.19645e-06
-1.22312e-07
-3.88085e-08
-2.36805e-07
1.24107e-06
2.74769e-07
9.11165e-07
-2.15226e-07
-8.52633e-07
2.69074e-07
-0.00113203
-1.19376e-06
-1.22383e-07
-6.64263e-08
-2.36826e-07
1.23834e-06
2.74802e-07
9.11277e-07
-2.15156e-07
-8.52664e-07
2.69144e-07
-0.000270066
1.22773e-06
1.18313e-06
-1.92848e-07
-2.03342e-07
0.000268051
1.23634e-06
1.19444e-06
-1.95741e-07
-2.03506e-07
0.000268099
-0.00027013
-1.28051e-06
-1.23859e-06
0.000270136
-0.000268103
2.39199e-07
2.47076e-07
-4.85878e-08
0.00113168
-2.39799e-07
1.28061e-06
2.77525e-07
9.13957e-07
-2.1276e-07
2.66367e-07
-8.55896e-07
-0.00113171
-1.23382e-06
-1.19296e-07
-4.83545e-08
0.00113175
-2.42716e-07
1.27799e-06
2.80318e-07
9.19133e-07
-2.15463e-07
2.691e-07
-8.60994e-07
-0.00113178
0.00113161
-1.21262e-07
-0.00113164
-4.94218e-08
-1.23602e-06
2.77435e-07
-2.39598e-07
-8.55574e-07
2.66334e-07
-2.12527e-07
9.13976e-07
1.27519e-06
0.00113168
-1.21485e-07
-0.0011317
-4.92964e-08
-1.23349e-06
2.77485e-07
-2.42498e-07
-8.60644e-07
2.69061e-07
-2.1521e-07
9.16489e-07
-1.98383e-07
-2.00866e-07
0.000268084
-0.000270115
-1.24114e-06
0.000270118
-0.000268088
2.41975e-07
2.44305e-07
-4.8492e-08
0.00113269
-2.37221e-07
1.23868e-06
2.75019e-07
9.16644e-07
-2.15486e-07
2.69279e-07
-8.58391e-07
-0.00113271
-1.22837e-06
-1.19265e-07
-4.85476e-08
0.00113162
-2.42665e-07
1.2726e-06
2.8036e-07
9.16547e-07
-2.12781e-07
2.66425e-07
-8.58439e-07
-0.00113165
0.00113261
-1.21721e-07
-0.00113264
-4.93407e-08
-1.19412e-06
2.74931e-07
-2.37023e-07
-8.58064e-07
2.69236e-07
-2.15272e-07
9.16645e-07
1.27252e-06
0.00113155
-1.27015e-07
-0.00113157
-4.94028e-08
-1.22806e-06
2.80268e-07
-2.42464e-07
-8.58103e-07
2.66372e-07
-2.12556e-07
9.1654e-07
-1.19503e-07
-4.84778e-08
0.00113126
-2.39793e-07
1.26969e-06
2.77484e-07
9.08471e-07
-2.09942e-07
2.63704e-07
-8.50318e-07
-0.00113128
-1.21704e-07
-0.00113219
-4.40222e-08
-1.19656e-06
2.74832e-07
-2.36835e-07
-8.52742e-07
2.69104e-07
9.11297e-07
-2.15212e-07
1.26959e-06
0.00113118
-1.2138e-07
-0.00113121
-4.93082e-08
-1.2252e-06
2.77399e-07
-2.39624e-07
-8.50045e-07
2.66315e-07
-2.09764e-07
9.0845e-07
-1.98458e-07
-2.03434e-07
0.000268068
-0.000270089
-1.23836e-06
0.000270097
-0.000268075
2.41989e-07
2.46906e-07
-1.19617e-07
-4.86758e-08
0.00113225
-2.37134e-07
1.23321e-06
2.75008e-07
9.13718e-07
-2.15449e-07
2.69213e-07
-8.55453e-07
-0.00113227
-1.21719e-07
-0.00113205
-5.49503e-08
-1.19118e-06
2.74821e-07
-2.3689e-07
-8.52748e-07
2.69165e-07
9.11313e-07
-2.15219e-07
1.23308e-06
0.00113216
-1.21771e-07
-0.0011322
-3.2725e-08
-1.18857e-06
2.74879e-07
-2.36937e-07
-8.55209e-07
2.69117e-07
-2.15234e-07
9.13803e-07
-0.00026805
2.4175e-07
2.44438e-07
1.23594e-06
1.19403e-06
-1.95542e-07
-2.03334e-07
0.000268105
-5.52628e-08
-2.39584e-07
1.28048e-06
2.77419e-07
9.13927e-07
-2.15198e-07
-8.55481e-07
2.68994e-07
-1.23068e-06
-1.21882e-07
-4.39201e-08
-2.39708e-07
1.27515e-06
2.7746e-07
9.16448e-07
-2.15207e-07
-8.57946e-07
2.68999e-07
-1.98186e-07
-2.00678e-07
0.00026809
-4.9635e-08
-2.3697e-07
1.23858e-06
2.74906e-07
9.1664e-07
-2.15206e-07
-8.57975e-07
2.69203e-07
-1.22797e-06
-1.27669e-07
-4.96878e-08
-2.42404e-07
1.27249e-06
2.80261e-07
9.16532e-07
-2.12491e-07
-8.58009e-07
2.69059e-07
-1.45025e-07
-4.38771e-08
0.00113117
-2.4229e-07
1.26954e-06
2.80199e-07
9.11209e-07
-2.12373e-07
2.69035e-07
-8.499e-07
-1.98263e-07
-2.03225e-07
0.000268077
-1.22227e-07
-1.57422e-08
0.00113208
-2.31414e-07
1.23845e-06
2.74895e-07
9.13831e-07
-2.15143e-07
2.6909e-07
-8.55147e-07
-1.18589e-10
-7.02625e-08
0.000229341
3.00611e-08
1.95101e-09
-0.000229302
-5.10802e-09
2.255e-08
0.000193573
-3.75827e-09
-0.000193587
6.76914e-09
-4.37604e-08
0.000193626
3.45105e-09
-0.000193593
5.32619e-11
2.8837e-08
0.000229283
-1.11531e-08
1.17745e-09
-0.000229302
5.15875e-09
1.34454e-08
9.79675e-05
-9.79862e-05
-6.76563e-09
-2.23221e-08
9.80072e-05
-9.79781e-05
-7.02808e-08
-1.54772e-10
0.000229329
1.91691e-09
3.00669e-08
-0.00022929
-5.13673e-09
2.25308e-08
0.000193556
-3.71684e-09
-0.00019357
6.80588e-09
-4.37793e-08
0.000193609
3.43195e-09
-0.000193576
2.88322e-08
1.52352e-10
0.000229271
1.16145e-09
-1.11478e-08
-0.00022929
-7.09792e-08
-7.1044e-08
0.00118423
-0.00118433
-7.11915e-08
-7.10501e-08
0.00118399
-0.00118409
-7.11308e-08
-7.12689e-08
0.00118396
-0.00118406
-0.00118427
-7.93772e-08
-6.76417e-08
0.00118393
-0.00118404
-7.35382e-08
-6.78396e-08
0.00118371
-0.00118381
-7.37137e-08
-7.93285e-08
0.00118366
-0.00118377
-7.36497e-08
-6.21695e-08
7.01416e-08
-1.58631e-09
0.000250189
3.82186e-09
-1.93079e-07
-0.000250069
-1.22176e-08
-2.25137e-08
6.65238e-08
0.000245406
6.53881e-09
-0.000245445
0.00115237
3.63791e-09
-1.40102e-07
1.00562e-06
-7.52214e-07
8.27958e-07
-9.31449e-07
-0.00115243
-4.33841e-08
1.24121e-06
0.00113221
-1.20283e-07
-8.52936e-07
2.69147e-07
-2.15362e-07
9.11306e-07
-1.19677e-06
2.74903e-07
-2.3696e-07
2.32583e-08
4.37112e-08
0.000245483
-1.92037e-08
-0.000245425
-1.05085e-07
-3.37739e-09
0.00115233
-1.4168e-07
-9.33882e-07
8.25329e-07
-7.54698e-07
1.00304e-06
-2.87149e-08
1.50501e-09
0.000250056
2.20956e-09
1.32611e-07
-0.000250163
5.15668e-09
1.11227e-08
9.79631e-05
-9.79794e-05
-6.80036e-09
-1.99669e-08
9.80004e-05
-9.79736e-05
-8.48364e-10
7.01481e-08
0.00025018
-1.93088e-07
3.85255e-09
-0.00025006
0.00115219
3.19256e-09
-1.40227e-07
1.0057e-06
-7.54964e-07
8.27978e-07
-9.3417e-07
-0.00115225
-1.22193e-08
-2.25053e-08
6.41224e-08
0.000245398
4.15364e-09
-0.000245432
-4.88226e-08
1.23576e-06
0.00113207
-1.20423e-07
-8.52952e-07
2.69202e-07
-2.1536e-07
9.11319e-07
-1.19138e-06
2.74891e-07
-2.37008e-07
-4.78154e-09
0.00115215
-1.41716e-07
-9.33924e-07
8.28065e-07
-7.54724e-07
1.00578e-06
2.31608e-08
4.37626e-08
0.00024547
-1.67197e-08
-0.000245417
-1.02735e-07
7.80898e-10
-2.87394e-08
0.000250046
1.32638e-07
2.30255e-09
-0.000250153
1.23174e-08
-1.11426e-08
2.48348e-08
0.000278111
-7.07141e-09
-0.00027813
1.22578e-08
-1.11716e-08
2.2557e-08
0.000278037
-7.4835e-09
-0.000278053
-1.26967e-06
-1.23318e-06
0.000270063
-0.000268047
2.41876e-07
2.44575e-07
-2.31198e-08
2.00351e-08
0.000278181
9.89219e-09
-0.000278137
-5.1049e-08
-2.32503e-08
1.99415e-08
0.000278103
1.05546e-08
-0.000278062
-4.87047e-08
-0.000193666
-5.00169e-09
2.25942e-08
-3.88262e-09
0.000193652
-0.00022938
4.46304e-11
2.86851e-08
0.000229361
-1.11219e-08
1.19312e-09
-9.8028e-05
5.03749e-09
1.35717e-08
9.80094e-05
-0.000193649
-5.00851e-09
2.25668e-08
-3.86567e-09
0.000193635
-0.000229368
2.86783e-08
1.53532e-10
0.000229349
9.67463e-10
-1.11254e-08
-6.26951e-08
-5.11771e-08
-7.45398e-08
-9.75485e-08
-3.92573e-08
-4.53522e-08
0.00118348
7.00569e-08
-8.9586e-10
-0.000250125
3.07943e-09
-1.93116e-07
-0.000245518
-1.2108e-08
-2.25423e-08
6.64591e-08
3.98562e-09
0.000245482
0.00115217
-0.00115222
1.36385e-08
-1.51707e-07
1.0059e-06
-7.54022e-07
-9.33284e-07
8.28261e-07
-0.000250216
-2.85505e-08
1.69543e-09
0.000250109
1.99878e-09
1.32126e-07
2.56065e-08
-1.70355e-07
-9.33081e-07
8.31095e-07
-7.53821e-07
1.00877e-06
-9.80213e-05
5.04693e-09
1.12364e-08
9.8005e-05
-1.67646e-09
7.00698e-08
-0.000250114
-1.93102e-07
4.10462e-09
0.00115201
-0.00115205
-2.25339e-08
-1.46034e-07
1.00593e-06
-7.54061e-07
-9.33342e-07
8.28253e-07
-0.000245508
-1.21263e-08
-2.25341e-08
6.40271e-08
4.04717e-09
0.000245475
-0.000250206
3.04383e-10
-2.8579e-08
0.0002501
1.32161e-07
2.33475e-09
-5.79093e-08
-1.53141e-07
-9.3314e-07
8.2831e-07
-7.51145e-07
1.00597e-06
-0.000278232
1.22607e-08
-1.12667e-08
2.2604e-08
-6.95953e-09
0.000278215
-0.000278154
1.21453e-08
-1.12931e-08
2.26134e-08
-7.3369e-09
0.000278138
-1.26469e-06
-1.30805e-06
-0.000268073
2.54548e-07
2.41842e-07
-2.31419e-08
1.98236e-08
1.04857e-08
-0.000278243
-4.84983e-08
-2.32779e-08
1.9735e-08
1.06635e-08
-0.000278163
-4.84978e-08
1.12331e-08
9.79902e-05
-9.80065e-05
-2.00553e-08
9.80275e-05
-9.80007e-05
1.11868e-08
9.79792e-05
-9.79955e-05
-2.00016e-08
9.80165e-05
-9.79897e-05
1.22236e-08
2.48765e-08
0.000278161
-9.5813e-09
-0.000278177
9.88027e-09
2.4811e-08
0.000278093
-6.94721e-09
-0.000278109
0.000270133
-1.28058e-06
-1.23866e-06
-0.0002681
2.39319e-07
2.47206e-07
0.000278228
-2.31134e-08
1.24724e-08
-0.000278186
-5.10082e-08
0.00027816
-2.08289e-08
9.97388e-09
-0.000278118
-5.1012e-08
-1.99469e-08
-6.81389e-09
9.80484e-05
-9.80216e-05
1.12866e-08
5.05316e-09
9.80112e-05
-1.98907e-08
-6.85441e-09
9.80374e-05
-9.80106e-05
1.12468e-08
5.07274e-09
9.80002e-05
1.23611e-06
1.1942e-06
0.000268102
-1.95616e-07
-2.03398e-07
-2.31202e-08
0.000278278
-5.09027e-08
-0.000278237
1.25219e-08
-2.08537e-08
0.000278211
-5.08998e-08
-0.000278169
1.0035e-08
1.2174e-08
-9.52006e-09
2.4897e-08
0.000278211
9.81799e-09
-6.87201e-09
2.48366e-08
0.000278143
-7.02702e-08
0.000229301
3.00607e-08
2.11095e-09
-0.000229263
2.47149e-08
0.000193509
-3.81362e-09
-0.000193525
-4.59618e-08
0.000193565
3.59738e-09
-0.000193529
2.88362e-08
0.000229243
-1.11512e-08
9.04727e-10
-0.000229262
-9.10209e-10
0.000250204
3.10749e-09
-1.93154e-07
-0.000250083
6.65439e-08
0.000245408
4.12803e-09
-0.000245444
0.00115266
3.39041e-09
-1.39908e-07
1.00858e-06
-7.57786e-07
8.30767e-07
-9.3709e-07
-0.00115271
-4.88876e-08
0.00113166
-1.19913e-07
-1.23621e-06
2.77494e-07
-2.39718e-07
-8.55769e-07
2.66358e-07
-2.12673e-07
9.13966e-07
0.000245482
-1.66912e-08
-0.000245427
-1.05063e-07
-4.108e-09
0.00115261
-1.41442e-07
-9.36848e-07
8.3086e-07
-7.57538e-07
1.00866e-06
8.13172e-10
0.00025007
2.89131e-09
1.32699e-07
-0.000250177
0.000250176
4.70792e-09
-1.93168e-07
-0.000250059
-1.22386e-08
6.65242e-08
0.000245306
4.09788e-09
-0.000245339
0.0011526
-1.39941e-07
1.0138e-06
-7.57751e-07
8.30749e-07
-9.42264e-07
-0.00115264
-4.87122e-08
0.00113172
1.27795e-06
-1.20129e-07
-8.60848e-07
2.69096e-07
9.19156e-07
-2.15348e-07
-1.23371e-06
2.80291e-07
-2.42635e-07
0.000245377
2.30416e-08
-1.65604e-08
-0.000245325
-1.05076e-07
0.00115254
-1.415e-07
-9.42027e-07
8.30843e-07
-7.57499e-07
1.01387e-06
0.000250045
1.14398e-09
1.32699e-07
-0.00025015
5.47272e-11
2.87466e-08
-1.11347e-08
1.18332e-09
0.000229322
-4.36897e-08
-0.000193633
3.38802e-09
2.25618e-08
-3.81934e-09
0.000193613
-1.23176e-10
-7.02366e-08
-0.000229342
3.00142e-08
1.95753e-09
2.87453e-08
-1.11314e-08
9.20504e-10
0.000229282
-4.58826e-08
6.81419e-09
0.000193605
-0.000193569
3.52472e-09
2.47245e-08
-5.09262e-09
-3.88587e-09
0.000193549
-7.0246e-08
0.00022934
-0.000229302
3.00259e-08
2.12248e-09
8.07458e-10
2.90461e-09
1.32442e-07
0.000250096
-5.47703e-08
-1.20657e-07
1.28055e-06
-2.39655e-07
2.7746e-07
9.13975e-07
-2.12592e-07
2.66345e-07
-8.55666e-07
0.00024552
-1.04979e-07
-0.000245465
-1.67032e-08
-0.00115255
-5.0455e-09
0.0011525
-1.44366e-07
-9.36432e-07
8.3102e-07
-7.57066e-07
1.0088e-06
4.07969e-09
6.64837e-08
0.000245446
2.92635e-09
-1.42978e-07
1.00872e-06
-7.573e-07
-9.36651e-07
8.30931e-07
-9.42896e-10
0.00025023
-0.00025011
3.35488e-09
-1.93181e-07
1.16369e-09
1.32443e-07
0.000250072
-4.89503e-08
-1.2336e-06
-1.20715e-07
9.19141e-07
-2.15301e-07
-8.60767e-07
2.69049e-07
1.27794e-06
-2.42579e-07
2.80267e-07
2.30608e-08
0.000245415
-1.04986e-07
-0.000245363
-1.65802e-08
-0.00115249
0.00115244
-1.44417e-07
-9.41607e-07
8.31e-07
-7.57029e-07
1.01128e-06
-1.21758e-08
4.03513e-09
6.64634e-08
0.000245344
-1.43008e-07
1.01393e-06
-7.57264e-07
-9.41817e-07
8.30915e-07
0.000250203
-0.000250085
4.47992e-09
-1.93199e-07
2.24942e-08
0.000278035
-7.64668e-09
-0.000278049
-1.12107e-08
2.48797e-08
0.000278175
-6.92469e-09
-0.000278194
0.000270118
-0.000268085
2.42124e-07
2.44424e-07
0.0002781
1.04633e-08
-0.000278061
-4.86881e-08
1.99516e-08
0.000278245
1.00467e-08
-0.000278201
-5.10228e-08
5.13881e-09
9.79859e-05
-9.80022e-05
9.80232e-05
-6.88361e-09
-9.79964e-05
-2.22111e-08
-9.7999e-05
1.35097e-08
9.79885e-05
1.19665e-06
0.000268087
-1.98287e-07
-2.00769e-07
0.00027815
-4.85728e-08
-0.000278111
1.05175e-08
1.98376e-08
-2.32643e-08
0.000278296
-5.09033e-08
-0.000278251
1.00991e-08
-7.56234e-09
2.25202e-08
0.000278086
-1.12661e-08
1.21568e-08
-6.8557e-09
2.49058e-08
0.000278226
-6.9207e-09
9.80441e-05
-9.80174e-05
5.07327e-09
9.80069e-05
-1.67146e-09
0.000250197
3.77887e-09
-1.95772e-07
-0.000250074
6.41478e-08
0.000245371
6.62726e-09
-0.000245409
0.00115249
3.76564e-09
-1.4009e-07
1.01114e-06
-7.57727e-07
8.30757e-07
-9.39605e-07
-0.00115255
-4.87765e-08
0.00113266
-1.20384e-07
-1.19432e-06
2.74989e-07
-2.37145e-07
-8.58269e-07
2.69262e-07
-2.15404e-07
9.16655e-07
0.000245448
-1.91874e-08
-0.00024539
-1.02772e-07
-3.51687e-09
0.00115244
-1.41592e-07
-9.39368e-07
8.30848e-07
-7.57483e-07
1.01122e-06
1.66901e-09
0.00025006
2.14935e-09
1.35277e-07
-0.000250171
-7.02611e-08
0.000229289
3.00545e-08
2.18032e-09
-0.000229251
2.2505e-08
0.000193498
-3.71272e-09
-0.000193512
-4.37203e-08
0.000193552
3.42394e-09
-0.000193518
2.88302e-08
0.000229232
-1.11434e-08
8.92474e-10
-0.00022925
0.000250167
-1.95762e-07
4.31925e-09
-0.000250047
0.00115243
-1.40039e-07
1.01116e-06
-7.57766e-07
8.3076e-07
-9.39622e-07
-0.00115248
-1.23215e-08
6.17491e-08
0.000245293
4.17121e-09
-0.000245324
-4.88522e-08
0.0011316
1.27258e-06
-1.19961e-07
-8.58308e-07
2.6641e-07
9.16552e-07
-2.12701e-07
-1.22826e-06
2.80329e-07
-2.42586e-07
0.00115237
-1.41514e-07
-9.3938e-07
8.30849e-07
-7.57519e-07
1.01123e-06
0.000245362
2.31927e-08
-1.6728e-08
-0.000245312
-1.00256e-07
0.000250034
1.35294e-07
1.60833e-09
-0.000250141
2.87439e-08
1.53178e-10
1.1747e-09
-1.11334e-08
0.00022931
-4.36997e-08
-0.000193615
3.36017e-09
2.25434e-08
-3.79172e-09
0.000193596
-7.02533e-08
-1.57965e-10
-0.00022933
2.15176e-09
3.00259e-08
1.67357e-09
2.16646e-09
1.3243e-07
0.000250089
-4.91044e-08
-1.21105e-07
1.23863e-06
-2.37079e-07
2.74965e-07
9.16655e-07
-2.15322e-07
2.69243e-07
-8.58171e-07
0.000245486
-1.02688e-07
-0.000245428
-1.9206e-08
-0.00115238
-3.35765e-09
0.00115234
-1.50346e-07
-9.38928e-07
8.31001e-07
-7.5702e-07
1.01135e-06
6.56883e-09
6.40881e-08
0.000245409
3.85474e-09
-1.43145e-07
1.01128e-06
-7.5725e-07
-9.39161e-07
8.30925e-07
-1.66726e-09
0.000250224
-0.000250103
4.03171e-09
-1.93199e-07
2.87412e-08
-1.11288e-08
9.03301e-10
0.000229271
-4.36479e-08
6.84925e-09
0.000193591
-0.000193558
3.35372e-09
2.25176e-08
-5.1019e-09
-3.7752e-09
0.000193538
-7.02376e-08
0.000229328
-0.00022929
3.00161e-08
2.18553e-09
1.32446e-07
1.62408e-09
0.000250063
-4.91561e-08
-1.22814e-06
-1.20706e-07
9.16554e-07
-2.12616e-07
-8.582e-07
2.66396e-07
1.27255e-06
-2.42515e-07
2.80299e-07
-0.00115233
0.00115228
-1.50248e-07
-9.38962e-07
8.31005e-07
-7.57055e-07
1.01135e-06
2.32088e-08
0.0002454
-1.00173e-07
-0.00024535
-1.67401e-08
-1.4309e-07
1.01129e-06
-7.57286e-07
-9.39171e-07
8.30929e-07
-1.22725e-08
4.11688e-09
6.1691e-08
0.000245331
0.000250193
-0.000250076
-1.93191e-07
4.32559e-09
-1.05388e-10
0.000229324
2.12084e-09
3.21134e-08
-0.000229288
0.00019356
-3.66251e-09
-0.000193573
0.000193613
3.25333e-09
-0.00019358
-6.45228e-12
0.000229268
1.06644e-09
-1.3209e-08
-0.000229285
7.02142e-08
0.000250157
-1.90521e-07
4.50308e-09
-0.000250043
0.00115229
-1.40187e-07
1.00565e-06
-7.54968e-07
8.27993e-07
-9.34095e-07
-0.00115234
-2.24711e-08
6.6437e-08
0.000245328
4.21823e-09
-0.000245364
-4.87328e-08
0.00113122
-1.14367e-07
-1.22539e-06
2.77451e-07
-2.39745e-07
-8.50223e-07
2.63671e-07
-2.09892e-07
9.08461e-07
0.00115222
-1.35804e-07
-9.33858e-07
8.28092e-07
-7.54717e-07
1.00572e-06
4.3746e-08
0.000245402
-1.6667e-08
-0.000245347
-1.05047e-07
-2.87836e-08
0.00025003
1.30049e-07
1.35049e-09
-0.000250131
0.000229287
3.00388e-08
2.14819e-09
-0.000229249
-5.17148e-09
0.000193503
-3.63993e-09
-0.000193517
0.000193557
6.75445e-09
3.48789e-09
-0.000193523
0.000229229
-1.11336e-08
8.12806e-10
-0.000229248
-2.86268e-08
1.53629e-09
2.22307e-09
1.32356e-07
0.000250082
-5.49552e-08
-1.2098e-07
1.24119e-06
-2.36896e-07
2.74878e-07
9.11268e-07
-2.15296e-07
-8.52881e-07
2.6912e-07
4.36295e-08
-1.05003e-07
-0.000245463
-1.67775e-08
-0.00115226
-5.74055e-10
-1.44614e-07
-9.33459e-07
8.28225e-07
1.00588e-06
-7.54219e-07
-2.25154e-08
6.47965e-09
6.64593e-08
0.000245444
4.42557e-09
-1.43174e-07
1.00576e-06
-7.51728e-07
-9.31002e-07
8.28129e-07
7.01171e-08
-1.45758e-09
-0.000250095
3.58803e-09
-1.93115e-07
1.57622e-12
1.0798e-09
-1.31891e-08
0.000229307
0.000193653
-0.000193619
3.19646e-09
-3.73257e-09
0.0001936
-6.22138e-11
0.000229363
-0.000229327
1.91037e-09
3.20716e-08
-2.86984e-08
1.29788e-07
1.37402e-09
0.000250056
-4.90643e-08
-1.22526e-06
-1.26671e-07
9.08493e-07
-2.09761e-07
-8.5009e-07
2.63682e-07
1.26964e-06
-2.39652e-07
2.77435e-07
-0.00115218
0.00115213
-1.44523e-07
-9.33464e-07
8.28222e-07
-7.54262e-07
1.00586e-06
4.3677e-08
2.31565e-08
0.00024544
-1.02569e-07
-0.000245387
-1.66665e-08
-1.49076e-07
1.0058e-06
-7.54475e-07
-9.33658e-07
8.2817e-07
-2.24829e-08
-1.2263e-08
4.16678e-09
6.63686e-08
0.000245366
7.01824e-08
0.000250187
-0.000250069
-1.93129e-07
4.27244e-09
-1.11129e-08
8.2962e-10
0.000229268
6.79838e-09
0.000193596
-0.000193563
3.4229e-09
-5.11051e-09
-3.71316e-09
0.000193543
0.000229326
-0.000229288
2.99899e-08
2.15482e-09
2.02715e-08
0.000278034
-7.53816e-09
-0.000278048
-1.11858e-08
2.25706e-08
0.00027817
-1.00674e-08
-0.000278184
0.000270092
-0.000268072
2.4212e-07
2.47041e-07
0.000278098
1.03993e-08
-0.000278059
-4.64203e-08
1.9994e-08
0.000278234
1.30597e-08
-0.000278196
-4.87485e-08
5.12543e-09
9.79858e-05
-9.80022e-05
9.80232e-05
-6.79439e-09
-9.79964e-05
-1.98574e-08
-9.79946e-05
1.11783e-08
9.79841e-05
1.19126e-06
0.000268074
-1.98342e-07
-2.03305e-07
0.000278149
-4.63084e-08
-0.00027811
1.04487e-08
1.98838e-08
-2.31792e-08
0.000278285
-4.86363e-08
-0.000278246
1.31289e-08
-7.47039e-09
2.02947e-08
0.000278085
-1.12376e-08
1.21698e-08
-1.0003e-08
2.25944e-08
0.000278221
-6.83586e-09
9.8044e-05
-9.80173e-05
5.06225e-09
9.80069e-05
7.00835e-08
0.000250152
-1.93067e-07
5.01728e-09
-0.000250035
0.00115212
-1.4019e-07
1.00813e-06
-7.5492e-07
8.2793e-07
-9.36604e-07
-0.00115217
-2.25048e-08
6.4116e-08
0.000245295
4.18275e-09
-0.000245329
-4.89731e-08
0.00113222
-1.20412e-07
-1.18877e-06
2.74977e-07
-2.37054e-07
-8.55337e-07
2.69173e-07
-2.15378e-07
9.13785e-07
0.00115207
-1.41697e-07
-9.36368e-07
8.28026e-07
-7.54667e-07
1.00821e-06
4.37392e-08
0.000245367
-1.6791e-08
-0.000245314
-1.02714e-07
-2.86802e-08
0.000250022
1.32615e-07
9.32133e-10
-0.000250126
-1.65918e-10
0.000229316
2.25922e-09
3.21135e-08
-0.00022928
0.000193555
-3.71423e-09
-0.000193569
0.000193609
3.44835e-09
-0.000193575
1.60133e-10
0.000229261
7.92996e-10
-1.32238e-08
-0.000229277
0.000229276
2.20927e-09
3.41942e-08
-0.000229243
-5.14905e-09
0.000193496
-3.67313e-09
-0.000193509
0.000193549
6.86006e-09
3.34318e-09
-0.000193516
0.000229223
8.82606e-10
-1.53061e-08
-0.000229237
7.05232e-10
-2.86486e-08
1.32378e-07
2.0777e-09
0.000250073
-4.91676e-08
-1.21146e-07
1.23573e-06
-2.36934e-07
2.7487e-07
9.11326e-07
-2.15278e-07
-8.52843e-07
2.69189e-07
-0.00115209
-1.32002e-08
-1.44595e-07
-9.33512e-07
8.28212e-07
1.00591e-06
-7.54254e-07
4.36838e-08
-1.02646e-07
-0.000245455
-1.67309e-08
2.67875e-10
-1.43282e-07
1.00585e-06
-7.54475e-07
-9.33721e-07
8.28141e-07
-2.25113e-08
4.10036e-09
6.40591e-08
0.000245436
-1.19973e-09
7.01211e-08
-0.000250086
-1.93106e-07
4.09915e-09
-2.85887e-08
1.32359e-07
7.12044e-10
0.000250049
-4.93437e-08
-1.18866e-06
-1.21079e-07
9.13784e-07
-2.15272e-07
-8.55275e-07
2.69155e-07
1.23314e-06
-2.3699e-07
2.74945e-07
-0.00115202
0.00115197
-1.44563e-07
-9.35937e-07
8.28192e-07
-7.54193e-07
1.00837e-06
4.3663e-08
2.32658e-08
0.000245405
-1.02621e-07
-0.000245353
-1.68111e-08
-1.43219e-07
1.00826e-06
-7.54433e-07
-9.36157e-07
8.28099e-07
-2.25176e-08
-1.21987e-08
4.12459e-09
6.4054e-08
0.000245334
7.00538e-08
0.000250179
-0.000250062
-1.93093e-07
4.78442e-09
1.34641e-10
8.01918e-10
-1.32028e-08
0.0002293
0.000193648
-0.000193615
3.38728e-09
-3.78351e-09
0.000193595
-2.70945e-10
0.000229355
-0.000229319
2.26829e-09
3.20722e-08
6.74498e-10
-1.52858e-08
0.000229262
6.90766e-09
0.000193589
-0.000193555
3.27215e-09
-5.08704e-09
-3.74463e-09
0.000193535
0.000229315
-0.000229282
2.21592e-09
3.41505e-08
9.79658e-05
-9.79821e-05
9.80031e-05
-9.79763e-05
9.79619e-05
-9.79782e-05
9.79992e-05
-9.79724e-05
0.000268048
-1.98106e-07
-2.00835e-07
1.99348e-08
-4.86478e-08
-0.00027819
9.94481e-09
1.98304e-08
-4.85889e-08
-0.000278113
1.06121e-08
-1.11953e-08
-7.00956e-09
2.48578e-08
0.000278162
-1.12297e-08
-7.41165e-09
2.25821e-08
0.000278087
9.80239e-05
-9.79972e-05
9.79868e-05
9.80201e-05
-9.79934e-05
9.79829e-05
1.13454e-08
9.80321e-05
1.13147e-08
9.80211e-05
1.21309e-08
2.49416e-08
-9.46114e-09
0.000278262
9.76391e-09
2.48872e-08
-6.80463e-09
0.000278194
2.47589e-08
-3.95511e-09
0.000193589
2.86881e-08
0.000229321
-1.1137e-08
9.41356e-10
6.64757e-08
4.02569e-09
0.000245484
1.28762e-09
-1.45792e-07
1.00878e-06
-7.5689e-07
-9.36246e-07
8.31081e-07
7.82155e-10
0.000250123
2.66856e-09
1.32235e-07
-1.21302e-08
6.64499e-08
3.98055e-09
0.000245382
-1.45782e-07
1.01133e-06
-7.56857e-07
-9.38707e-07
8.31067e-07
0.000250098
1.42324e-09
1.32242e-07
2.25673e-08
-7.50108e-09
0.000278137
-1.13205e-08
2.49426e-08
-6.80465e-09
0.000278277
5.01929e-09
6.40609e-08
6.50821e-09
0.000245447
4.11058e-09
-1.51757e-07
1.0114e-06
-7.56817e-07
-9.38763e-07
8.31054e-07
1.67489e-09
0.000250116
1.93872e-09
1.32207e-07
2.25397e-08
-3.833e-09
0.000193578
2.86741e-08
0.00022931
-1.11193e-08
9.14945e-10
-1.51708e-07
1.0114e-06
-7.56854e-07
-9.38768e-07
8.3105e-07
-1.22231e-08
6.16559e-08
4.07322e-09
0.000245369
0.00025009
1.32224e-07
1.6334e-09
7.29134e-11
-0.000229366
3.20173e-08
-3.80144e-09
0.000193639
5.36782e-11
0.000229346
1.0962e-09
-1.31719e-08
7.01242e-08
-0.000250097
-1.95724e-07
4.50794e-09
0.00115211
-1.63391e-07
1.00591e-06
-7.51304e-07
8.28276e-07
-9.30538e-07
-2.25328e-08
6.15544e-08
6.55032e-09
0.000245406
-4.37539e-08
-3.60965e-07
-1.2331e-06
2.7478e-07
-2.44943e-07
-8.47225e-07
2.71671e-07
-2.09649e-07
9.13792e-07
-2.86288e-08
0.000250083
1.3215e-07
1.6152e-09
-1.99149e-07
-9.3034e-07
8.3107e-07
-7.53847e-07
1.00867e-06
4.36004e-08
-1.91009e-08
-0.000245426
-1.04904e-07
-0.000229327
2.99333e-08
2.15435e-09
-5.05396e-09
-3.78788e-09
0.000193582
0.000229307
-1.10982e-08
8.41099e-10
6.84297e-09
3.36533e-09
-0.000193602
2.03364e-08
-7.40193e-09
0.000278135
-1.12906e-08
2.26059e-08
-7.3275e-09
0.000278269
5.00317e-09
9.80277e-05
7.0011e-08
-0.000250089
-1.93109e-07
3.82881e-09
0.00115193
-1.51807e-07
1.00845e-06
-7.53998e-07
8.28246e-07
-9.35787e-07
-2.25436e-08
6.40246e-08
4.06279e-09
0.000245372
1.48636e-07
-1.44772e-07
-1.15595e-06
2.83213e-07
-2.28554e-07
-8.52304e-07
2.69103e-07
-2.1512e-07
9.13957e-07
-2.85217e-08
0.000250075
1.32136e-07
4.85372e-10
-1.94696e-07
-9.3284e-07
8.28337e-07
-7.51055e-07
1.00862e-06
4.35857e-08
-1.68157e-08
-0.000245391
-1.02537e-07
-3.09308e-10
-0.000229359
2.26828e-09
3.2021e-08
-3.85242e-09
0.000193635
-4.46514e-12
0.000229339
1.03893e-09
-1.31882e-08
-0.000229321
1.9984e-09
3.41062e-08
-5.02395e-09
-3.82045e-09
0.000193575
0.000229301
6.84061e-10
-1.52791e-08
6.94681e-09
3.2152e-09
-0.000193595
9.80076e-05
-9.8018e-05
9.80038e-05
-9.80142e-05
-7.66535e-10
1.24289e-08
0.000143358
-1.13334e-10
-0.000143369
-0.000171053
-3.39595e-10
-2.05854e-11
0.000171084
-0.00022335
2.89542e-08
4.3464e-09
0.000223391
-7.17802e-08
-1.11412e-08
9.5582e-10
-0.000229321
-9.2854e-11
2.87914e-08
-0.000171065
-1.31607e-11
8.58097e-10
-0.000223371
3.31255e-08
1.41837e-09
0.000143385
-2.44661e-08
-7.92527e-05
7.92785e-05
-1.40498e-09
3.48175e-09
0.000193607
6.74504e-09
-4.37901e-08
0.000263191
-1.69545e-08
-8.43157e-10
3.31982e-08
-0.00026321
0.000263236
-4.33749e-09
-6.17851e-08
1.34027e-10
-7.92698e-05
1.697e-08
7.92615e-05
-0.000263217
2.44269e-08
0.000263262
-6.17461e-08
-3.78934e-09
-5.07893e-09
2.2553e-08
3.31948e-08
7.92873e-05
3.46839e-10
-2.89717e-08
-0.000143342
3.0077e-08
2.17287e-09
2.94973e-11
-7.02725e-08
0.000171035
7.60803e-10
-4.12512e-12
-0.000171047
0.00022333
-1.24406e-08
3.31787e-08
-0.000223351
-1.23885e-11
-7.1784e-08
-0.000143353
9.79967e-05
-6.73606e-09
-2.23783e-08
5.12328e-09
1.34759e-08
1.2445e-08
-7.7053e-10
0.000143356
-1.30895e-10
-0.000143368
-0.000223341
2.89632e-08
4.3297e-09
0.000223382
-7.18105e-08
-0.00017105
-3.53785e-10
2.01015e-12
0.000171081
9.44421e-10
-1.11378e-08
-0.000229309
5.94502e-12
2.87883e-08
8.32942e-10
-0.000223362
3.31517e-08
-0.000171062
-1.70573e-11
1.4102e-09
0.000143383
-2.44789e-08
-7.92544e-05
7.92802e-05
-1.39418e-09
3.46941e-09
0.000193589
6.77896e-09
-4.38152e-08
0.000263187
-1.69309e-08
-8.15028e-10
3.31791e-08
-0.000263206
0.000263232
-4.3161e-09
-6.18342e-08
1.55742e-10
-7.92714e-05
1.69506e-08
7.92631e-05
-0.000263213
2.44354e-08
0.000263258
-6.17936e-08
-3.75518e-09
-5.10286e-09
2.25344e-08
3.31791e-08
7.9289e-05
-2.89816e-08
3.62817e-10
-0.00014334
2.13162e-09
3.00908e-08
-2.75685e-12
-7.02993e-08
0.000223321
-1.24577e-08
3.32007e-08
-0.000223342
0.000171032
7.61069e-10
-7.08135e-12
-0.000171044
-7.18178e-08
1.50982e-11
-0.000143352
9.79899e-05
-6.77353e-09
-2.00175e-08
5.12917e-09
1.11506e-08