0 	1.23059e-14 	-1.98206e-14 	5.14676e-08
0.010101 	5.9792e-13 	-1.68351e-11 	4.50552e-05
0.020202 	1.17514e-12 	-3.36498e-11 	9.00584e-05
0.030303 	1.26796e-12 	-4.33865e-11 	9.90685e-05
0.040404 	1.251e-12 	-5.15191e-11 	9.99213e-05
0.0505051 	1.18368e-12 	-5.27638e-11 	0.000100479
0.0606061 	1.02249e-12 	-4.09583e-11 	0.000100477
0.0707071 	8.6129e-13 	-2.91529e-11 	0.000100476
0.0808081 	7.00093e-13 	-1.73474e-11 	0.000100474
0.0909091 	5.38897e-13 	-5.54193e-12 	0.000100473
0.10101 	4.87664e-13 	7.45714e-13 	0.000100472
0.111111 	5.82778e-13 	5.73789e-13 	0.000100472
0.121212 	6.77892e-13 	4.01865e-13 	0.000100472
0.131313 	7.73006e-13 	2.2994e-13 	0.000100472
0.141414 	8.68119e-13 	5.80154e-14 	0.000100472
0.151515 	9.71725e-13 	8.41589e-14 	0.000100473
0.161616 	1.08322e-12 	2.94324e-13 	0.000100473
0.171717 	1.19471e-12 	5.04489e-13 	0.000100473
0.181818 	1.30621e-12 	7.14655e-13 	0.000100473
0.191919 	1.4177e-12 	9.2482e-13 	0.000100473
0.20202 	1.48104e-12 	1.00991e-12 	0.000100473
0.212121 	1.50381e-12 	9.89675e-13 	0.000100473
0.222222 	1.52658e-12 	9.69442e-13 	0.000100472
0.232323 	1.54935e-12 	9.49202e-13 	0.000100472
0.242424 	1.57213e-12 	9.28957e-13 	0.000100472
0.252525 	1.5949e-12 	9.08713e-13 	0.000100472
0.262626 	1.61767e-12 	8.88468e-13 	0.000100472
0.272727 	1.64044e-12 	8.68223e-13 	0.000100472
0.282828 	1.66321e-12 	8.47979e-13 	0.000100472
0.292929 	1.68598e-12 	8.27734e-13 	0.000100472
0.30303 	1.70342e-12 	8.40284e-13 	0.000100472
0.313131 	1.71631e-12 	8.80649e-13 	0.000100472
0.323232 	1.7292e-12 	9.21014e-13 	0.000100472
0.333333 	1.74209e-12 	9.61379e-13 	0.000100472
0.343434 	1.75498e-12 	1.00174e-12 	0.000100472
0.353535 	1.76787e-12 	1.04211e-12 	0.000100472
0.363636 	1.78077e-12 	1.08247e-12 	0.000100472
0.373737 	1.79366e-12 	1.12284e-12 	0.000100472
0.383838 	1.80655e-12 	1.1632e-12 	0.000100472
0.393939 	1.81944e-12 	1.20357e-12 	0.000100472
0.40404 	1.82368e-12 	1.26929e-12 	0.000100472
0.414141 	1.82019e-12 	1.35773e-12 	0.000100472
0.424242 	1.81669e-12 	1.44616e-12 	0.000100472
0.434343 	1.8132e-12 	1.5346e-12 	0.000100472
0.444444 	1.8097e-12 	1.62304e-12 	0.000100472
0.454545 	1.80621e-12 	1.71148e-12 	0.000100472
0.464646 	1.80272e-12 	1.79992e-12 	0.000100472
0.474747 	1.79922e-12 	1.88836e-12 	0.000100472
0.484848 	1.79573e-12 	1.9768e-12 	0.000100472
0.494949 	1.79224e-12 	2.06524e-12 	0.000100472
0.505051 	1.77674e-12 	2.12933e-12 	0.000100472
0.515152 	1.74922e-12 	2.16907e-12 	0.000100472
0.525253 	1.72171e-12 	2.20881e-12 	0.000100472
0.535354 	1.69419e-12 	2.24855e-12 	0.000100472
0.545455 	1.66668e-12 	2.28829e-12 	0.000100472
0.555556 	1.63916e-12 	2.32804e-12 	0.000100472
0.565657 	1.61164e-12 	2.36778e-12 	0.000100472
0.575758 	1.58413e-12 	2.40752e-12 	0.000100472
0.585859 	1.55661e-12 	2.44726e-12 	0.000100472
0.59596 	1.5291e-12 	2.487e-12 	0.000100472
0.606061 	1.51608e-12 	2.49812e-12 	0.000100472
0.616162 	1.51939e-12 	2.4774e-12 	0.000100472
0.626263 	1.5227e-12 	2.45668e-12 	0.000100472
0.636364 	1.52601e-12 	2.43596e-12 	0.000100472
0.646465 	1.52933e-12 	2.41524e-12 	0.000100472
0.656566 	1.53264e-12 	2.39452e-12 	0.000100472
0.666667 	1.53595e-12 	2.37379e-12 	0.000100472
0.676768 	1.53927e-12 	2.35307e-12 	0.000100472
0.686869 	1.54258e-12 	2.33235e-12 	0.000100472
0.69697 	1.54589e-12 	2.31163e-12 	0.000100472
0.707071 	1.79653e-12 	2.16295e-12 	0.000100472
0.717172 	2.34278e-12 	1.86401e-12 	0.000100472
0.727273 	2.88904e-12 	1.56508e-12 	0.000100472
0.737374 	3.43529e-12 	1.26614e-12 	0.000100472
0.747475 	3.98154e-12 	9.67206e-13 	0.000100472
0.757576 	4.52779e-12 	6.6827e-13 	0.000100472
0.767677 	5.07404e-12 	3.69334e-13 	0.000100472
0.777778 	5.62029e-12 	7.03979e-14 	0.000100472
0.787879 	6.16654e-12 	-2.28538e-13 	0.000100473
0.79798 	6.71252e-12 	-5.27483e-13 	0.000100473
0.808081 	6.88093e-12 	-1.06695e-12 	0.000100473
0.818182 	6.60398e-12 	-1.8904e-12 	0.000100473
0.828283 	6.32702e-12 	-2.71386e-12 	0.000100473
0.838384 	6.05007e-12 	-3.53731e-12 	0.000100473
0.848485 	5.77311e-12 	-4.36077e-12 	0.000100473
0.858586 	5.22716e-12 	-4.60759e-12 	0.000100472
0.868687 	4.39385e-12 	-4.23843e-12 	0.000100472
0.878788 	3.56054e-12 	-3.86926e-12 	0.000100472
0.888889 	2.72723e-12 	-3.5001e-12 	0.000100472
0.89899 	1.89392e-12 	-3.13094e-12 	0.000100472
0.909091 	2.00792e-12 	3.77416e-12 	0.000100473
0.919192 	2.91185e-12 	1.62147e-11 	0.000100474
0.929293 	3.81579e-12 	2.86553e-11 	0.000100476
0.939394 	4.71972e-12 	4.10959e-11 	0.000100477
0.949495 	5.62365e-12 	5.35365e-11 	0.000100479
0.959596 	5.91443e-12 	5.15036e-11 	9.99193e-05
0.969697 	5.88422e-12 	4.19096e-11 	9.90665e-05
0.979798 	5.35954e-12 	3.11909e-11 	8.99512e-05
0.989899 	2.68706e-12 	1.55864e-11 	4.49459e-05
