/*--------------------------------*- C++ -*----------------------------------*\
| =========                 |                                                 |
| \\      /  F ield         | OpenFOAM: The Open Source CFD Toolbox           |
|  \\    /   O peration     | Version:  2312                                  |
|   \\  /    A nd           | Website:  www.openfoam.com                      |
|    \\/     M anipulation  |                                                 |
\*---------------------------------------------------------------------------*/
FoamFile
{
    version     2.0;
    format      ascii;
    arch        "LSB;label=32;scalar=64";
    class       volScalarField;
    location    "625";
    object      epsilon;
}
// * * * * * * * * * * * * * * * * * * * * * * * * * * * * * * * * * * * * * //

dimensions      [0 2 -3 0 0 0 0];

internalField   nonuniform List<scalar> 
43208
(
6.67716e-07
1.19526e-06
1.19507e-06
1.42661e-06
6.72794e-07
1.19501e-06
1.19511e-06
1.42759e-06
6.75984e-07
1.19455e-06
1.19489e-06
1.42796e-06
6.78558e-07
1.19795e-06
1.19753e-06
1.42846e-06
6.8369e-07
1.19926e-06
1.19802e-06
1.4313e-06
6.87562e-07
1.19694e-06
1.19805e-06
1.43226e-06
6.88117e-07
1.19562e-06
1.19848e-06
1.43034e-06
6.89847e-07
1.19718e-06
1.19561e-06
1.42845e-06
6.92139e-07
1.19796e-06
1.19536e-06
1.43114e-06
6.92447e-07
1.19444e-06
1.1963e-06
1.432e-06
6.92329e-07
1.18986e-06
1.19142e-06
1.42585e-06
6.92626e-07
1.19022e-06
1.18991e-06
1.42423e-06
6.94365e-07
1.19136e-06
1.19151e-06
1.42812e-06
6.94627e-07
1.18885e-06
1.18453e-06
1.42414e-06
6.89268e-07
1.17753e-06
1.18147e-06
1.41947e-06
6.87443e-07
1.17891e-06
1.18041e-06
1.41565e-06
6.94044e-07
1.17982e-06
1.17606e-06
1.40965e-06
6.8809e-07
1.1716e-06
1.17537e-06
1.41309e-06
6.86221e-07
1.17638e-06
1.17675e-06
1.42486e-06
6.84575e-07
1.15935e-06
1.15966e-06
1.40385e-06
7.29378e-07
1.05674e-06
1.05713e-06
1.32035e-06
1.4242e-06
1.1936e-06
1.19439e-06
1.42502e-06
1.19338e-06
1.19458e-06
1.19439e-06
1.19376e-06
1.42556e-06
1.19464e-06
1.19354e-06
1.42451e-06
1.42635e-06
1.42592e-06
1.19441e-06
1.19524e-06
1.19564e-06
1.19548e-06
1.42755e-06
1.42579e-06
1.19408e-06
1.19503e-06
1.19539e-06
1.19526e-06
1.19448e-06
1.19549e-06
1.19571e-06
1.42766e-06
1.42585e-06
1.19416e-06
1.19528e-06
1.19547e-06
1.42577e-06
1.4277e-06
1.42601e-06
1.19574e-06
1.195e-06
1.19566e-06
1.1944e-06
1.42729e-06
1.42406e-06
1.19558e-06
1.19509e-06
1.19557e-06
1.19475e-06
1.19587e-06
1.19441e-06
1.1958e-06
1.4274e-06
1.42463e-06
1.19571e-06
1.19477e-06
1.19572e-06
1.42634e-06
1.42776e-06
1.42568e-06
1.19556e-06
1.19455e-06
1.19543e-06
1.19705e-06
1.42606e-06
1.42759e-06
1.19542e-06
1.19489e-06
1.19523e-06
1.19693e-06
1.19561e-06
1.19707e-06
1.19563e-06
1.42649e-06
1.42729e-06
1.1955e-06
1.19693e-06
1.19547e-06
1.42633e-06
1.42755e-06
1.42817e-06
1.1956e-06
1.19791e-06
1.19795e-06
1.1992e-06
1.43015e-06
1.43121e-06
1.19538e-06
1.1975e-06
1.19758e-06
1.19804e-06
1.1962e-06
1.19928e-06
1.19855e-06
1.42959e-06
1.42943e-06
1.19601e-06
1.19811e-06
1.19822e-06
1.42915e-06
1.43047e-06
1.43085e-06
1.19871e-06
1.1992e-06
1.19945e-06
1.19767e-06
1.43307e-06
1.42878e-06
1.19832e-06
1.19796e-06
1.19916e-06
1.19789e-06
1.19906e-06
1.19761e-06
1.19931e-06
1.4311e-06
1.42872e-06
1.19869e-06
1.19783e-06
1.19898e-06
1.43067e-06
1.43263e-06
1.42896e-06
1.19924e-06
1.197e-06
1.19718e-06
1.19568e-06
1.43019e-06
1.4259e-06
1.19906e-06
1.19818e-06
1.19739e-06
1.19859e-06
1.19895e-06
1.19568e-06
1.19705e-06
1.43069e-06
1.43027e-06
1.19878e-06
1.19856e-06
1.19735e-06
1.42884e-06
1.43048e-06
1.42817e-06
1.19674e-06
1.1956e-06
1.19646e-06
1.1968e-06
1.42759e-06
1.42841e-06
1.19693e-06
1.19848e-06
1.19635e-06
1.19634e-06
1.19653e-06
1.19668e-06
1.19558e-06
1.4321e-06
1.42825e-06
1.19683e-06
1.19628e-06
1.19548e-06
1.42683e-06
1.43023e-06
1.42989e-06
1.19678e-06
1.19737e-06
1.1972e-06
1.19813e-06
1.43081e-06
1.43148e-06
1.19639e-06
1.19573e-06
1.19655e-06
1.19515e-06
1.19557e-06
1.19797e-06
1.19692e-06
1.42974e-06
1.42697e-06
1.1953e-06
1.19501e-06
1.19612e-06
1.42881e-06
1.4317e-06
1.4274e-06
1.19712e-06
1.19807e-06
1.19494e-06
1.19543e-06
1.43335e-06
1.42844e-06
1.19649e-06
1.19541e-06
1.19484e-06
1.19614e-06
1.19739e-06
1.19584e-06
1.19748e-06
1.42916e-06
1.42929e-06
1.19674e-06
1.19637e-06
1.19722e-06
1.43068e-06
1.42881e-06
1.42392e-06
1.19408e-06
1.19409e-06
1.19163e-06
1.19054e-06
1.42972e-06
1.4227e-06
1.19414e-06
1.19604e-06
1.19179e-06
1.19261e-06
1.19658e-06
1.19058e-06
1.19175e-06
1.43112e-06
1.42555e-06
1.19672e-06
1.19266e-06
1.19194e-06
1.42461e-06
1.42542e-06
1.4241e-06
1.19107e-06
1.18995e-06
1.19034e-06
1.19009e-06
1.42412e-06
1.42331e-06
1.19112e-06
1.19148e-06
1.18998e-06
1.18996e-06
1.19046e-06
1.18969e-06
1.18875e-06
1.4269e-06
1.42324e-06
1.19057e-06
1.18976e-06
1.18854e-06
1.42188e-06
1.42608e-06
1.42556e-06
1.19036e-06
1.19054e-06
1.19051e-06
1.19108e-06
1.4256e-06
1.42632e-06
1.18996e-06
1.1901e-06
1.19044e-06
1.19139e-06
1.18893e-06
1.19115e-06
1.19109e-06
1.42557e-06
1.42703e-06
1.18867e-06
1.19151e-06
1.19108e-06
1.42598e-06
1.42733e-06
1.42355e-06
1.19051e-06
1.1912e-06
1.18971e-06
1.1908e-06
1.42834e-06
1.42561e-06
1.19048e-06
1.19138e-06
1.18887e-06
1.1868e-06
1.19129e-06
1.19073e-06
1.18893e-06
1.42907e-06
1.42104e-06
1.19126e-06
1.18656e-06
1.188e-06
1.42291e-06
1.4249e-06
1.41463e-06
1.18866e-06
1.18949e-06
1.18026e-06
1.17927e-06
1.42685e-06
1.4135e-06
1.18748e-06
1.18483e-06
1.1805e-06
1.18102e-06
1.18748e-06
1.17956e-06
1.18318e-06
1.42203e-06
1.41432e-06
1.18637e-06
1.18149e-06
1.18341e-06
1.41797e-06
1.41555e-06
1.40946e-06
1.17766e-06
1.1769e-06
1.17485e-06
1.17597e-06
1.41431e-06
1.41049e-06
1.17832e-06
1.18071e-06
1.17557e-06
1.18029e-06
1.18203e-06
1.17683e-06
1.17752e-06
1.41617e-06
1.41665e-06
1.1829e-06
1.18124e-06
1.17815e-06
1.41439e-06
1.41287e-06
1.42118e-06
1.17638e-06
1.17882e-06
1.18435e-06
1.18247e-06
1.41432e-06
1.42024e-06
1.17637e-06
1.18013e-06
1.18299e-06
1.17884e-06
1.17648e-06
1.18073e-06
1.17448e-06
1.41851e-06
1.41471e-06
1.17641e-06
1.17644e-06
1.17339e-06
1.40826e-06
1.42393e-06
1.41167e-06
1.18463e-06
1.18184e-06
1.17404e-06
1.17135e-06
1.42185e-06
1.40832e-06
1.1834e-06
1.17826e-06
1.17475e-06
1.17476e-06
1.17443e-06
1.17215e-06
1.17434e-06
1.41627e-06
1.41173e-06
1.17342e-06
1.17534e-06
1.17495e-06
1.40979e-06
1.41247e-06
1.4103e-06
1.17102e-06
1.17012e-06
1.17073e-06
1.17333e-06
1.40936e-06
1.41192e-06
1.17186e-06
1.17422e-06
1.17088e-06
1.17455e-06
1.17477e-06
1.17508e-06
1.17917e-06
1.41318e-06
1.41363e-06
1.17607e-06
1.17648e-06
1.1794e-06
1.42163e-06
1.41404e-06
1.40591e-06
1.17375e-06
1.17534e-06
1.17305e-06
1.17148e-06
1.4158e-06
1.40537e-06
1.1733e-06
1.17516e-06
1.17239e-06
1.17068e-06
1.18006e-06
1.17097e-06
1.17253e-06
1.41643e-06
1.40563e-06
1.18e-06
1.17054e-06
1.17194e-06
1.40656e-06
1.40407e-06
1.34523e-06
1.16359e-06
1.16016e-06
1.08167e-06
1.08021e-06
1.4033e-06
1.34338e-06
1.1633e-06
1.1602e-06
1.08195e-06
1.08101e-06
1.15973e-06
1.07984e-06
1.07713e-06
1.40388e-06
1.34446e-06
1.15946e-06
1.08051e-06
1.07727e-06
1.33969e-06
1.32582e-06
1.05821e-06
1.05701e-06
1.32419e-06
1.05847e-06
1.05755e-06
7.27814e-07
7.2798e-07
7.25443e-07
1.05384e-06
1.32472e-06
1.05396e-06
4.23976e-06
9.57356e-06
1.91038e-05
9.57595e-06
6.66217e-07
6.66898e-07
6.67514e-07
6.66366e-07
2.29863e-06
1.19147e-06
3.64957e-06
9.39137e-07
4.24419e-06
9.58145e-06
4.2435e-06
9.58525e-06
1.91233e-05
1.91317e-05
4.24408e-06
9.58284e-06
4.24363e-06
9.58639e-06
6.68754e-07
6.68902e-07
6.67867e-07
6.71692e-07
6.72003e-07
6.71869e-07
6.71921e-07
2.30141e-06
3.6554e-06
9.43893e-07
1.19564e-06
2.30146e-06
3.65558e-06
9.44742e-07
1.9124e-05
1.91313e-05
2.30118e-06
9.43696e-07
3.65514e-06
1.19527e-06
2.30145e-06
9.44321e-07
3.65503e-06
5.65733e-06
5.65879e-06
1.42544e-06
5.65732e-06
5.65878e-06
4.24363e-06
9.58893e-06
4.24406e-06
9.59195e-06
1.91348e-05
1.9138e-05
4.24384e-06
9.59031e-06
4.24418e-06
9.59356e-06
6.7253e-07
6.72529e-07
6.73108e-07
6.75343e-07
6.74212e-07
6.74404e-07
6.7558e-07
2.29938e-06
3.65416e-06
9.45425e-07
1.19464e-06
2.30043e-06
3.6519e-06
9.45439e-07
1.91373e-05
1.91417e-05
2.2998e-06
9.45391e-07
3.65443e-06
1.19491e-06
2.30065e-06
9.45536e-07
3.65292e-06
5.65876e-06
5.66057e-06
1.42624e-06
5.66018e-06
5.66213e-06
4.24353e-06
9.59669e-06
4.24334e-06
9.60047e-06
1.91454e-05
1.91576e-05
4.24346e-06
9.59848e-06
4.2435e-06
9.60175e-06
6.75149e-07
6.75321e-07
6.76133e-07
6.77746e-07
6.79112e-07
6.79e-07
6.78095e-07
2.29874e-06
3.65101e-06
9.45962e-07
1.19516e-06
2.29881e-06
3.65153e-06
9.46609e-07
1.91474e-05
1.91575e-05
2.29867e-06
9.46189e-07
3.65191e-06
1.19542e-06
2.29904e-06
9.46687e-07
3.65204e-06
5.66197e-06
5.66367e-06
1.42589e-06
5.66196e-06
5.66356e-06
4.24603e-06
9.60477e-06
4.24513e-06
9.60847e-06
1.9177e-05
1.91912e-05
4.24576e-06
9.60571e-06
4.24474e-06
9.60929e-06
6.80553e-07
6.80261e-07
6.79083e-07
6.82237e-07
6.8394e-07
6.83003e-07
6.82787e-07
2.30097e-06
3.65654e-06
9.49076e-07
1.19867e-06
2.30028e-06
3.65877e-06
9.49932e-07
1.91766e-05
1.91891e-05
2.30034e-06
9.4887e-07
3.65606e-06
1.19792e-06
2.29984e-06
9.4954e-07
3.65733e-06
5.66272e-06
5.66425e-06
1.42764e-06
5.66401e-06
5.66563e-06
4.24913e-06
9.61598e-06
4.24839e-06
9.62278e-06
1.9203e-05
1.92082e-05
4.2486e-06
9.61674e-06
4.24792e-06
9.62364e-06
6.84621e-07
6.83596e-07
6.84062e-07
6.87008e-07
6.85437e-07
6.85515e-07
6.86836e-07
2.30138e-06
3.66154e-06
9.51338e-07
1.19902e-06
2.30215e-06
3.66073e-06
9.51395e-07
1.91979e-05
1.92031e-05
2.3006e-06
9.50665e-07
3.65818e-06
1.19786e-06
2.30114e-06
9.50767e-07
3.65746e-06
5.66894e-06
5.67064e-06
1.43032e-06
5.67082e-06
5.67262e-06
4.24892e-06
9.62895e-06
4.24941e-06
9.63137e-06
1.9207e-05
1.92084e-05
4.2493e-06
9.6305e-06
4.2493e-06
9.63321e-06
6.85534e-07
6.86387e-07
6.8731e-07
6.88039e-07
6.86271e-07
6.88933e-07
6.87865e-07
2.29853e-06
3.65774e-06
9.50733e-07
1.19636e-06
2.30011e-06
3.65461e-06
9.50336e-07
1.92095e-05
1.92186e-05
2.29975e-06
9.51364e-07
3.65738e-06
1.19838e-06
2.30024e-06
9.51585e-07
3.65755e-06
5.67394e-06
5.67603e-06
1.42977e-06
5.67434e-06
5.6766e-06
4.24732e-06
9.63282e-06
4.24795e-06
9.63378e-06
1.9215e-05
1.92281e-05
4.24902e-06
9.63516e-06
4.24929e-06
9.6363e-06
6.8689e-07
6.89443e-07
6.87981e-07
6.89185e-07
6.89528e-07
6.89737e-07
6.8856e-07
2.29646e-06
3.6533e-06
9.49789e-07
1.19571e-06
2.29713e-06
3.65372e-06
9.49832e-07
1.92318e-05
1.92402e-05
2.29793e-06
9.51691e-07
3.65936e-06
1.19802e-06
2.29913e-06
9.5153e-07
3.65901e-06
5.67383e-06
5.67599e-06
1.42775e-06
5.67176e-06
5.67343e-06
4.24974e-06
9.63819e-06
4.24841e-06
9.64446e-06
1.92475e-05
1.92599e-05
4.24921e-06
9.64006e-06
4.24903e-06
9.64514e-06
6.90502e-07
6.8968e-07
6.88997e-07
6.91731e-07
6.92847e-07
6.89964e-07
6.91431e-07
2.29748e-06
3.65831e-06
9.50914e-07
1.1976e-06
2.29719e-06
3.6602e-06
9.51332e-07
1.92451e-05
1.92484e-05
2.296e-06
9.50068e-07
3.65804e-06
1.19517e-06
2.29684e-06
9.49757e-07
3.65658e-06
5.67032e-06
5.67141e-06
1.42726e-06
5.67131e-06
5.67202e-06
4.25268e-06
9.65237e-06
4.25217e-06
9.65527e-06
1.92693e-05
1.92748e-05
4.25075e-06
9.65258e-06
4.25034e-06
9.6553e-06
6.93247e-07
6.90789e-07
6.92424e-07
6.92451e-07
6.93359e-07
6.93475e-07
6.94182e-07
2.29866e-06
3.66336e-06
9.52007e-07
1.19778e-06
2.29877e-06
3.66322e-06
9.52004e-07
1.92548e-05
1.92666e-05
2.29696e-06
9.50093e-07
3.65709e-06
1.19596e-06
2.29657e-06
9.50736e-07
3.65836e-06
5.67986e-06
5.68114e-06
1.43055e-06
5.68366e-06
5.68554e-06
4.24905e-06
9.65473e-06
4.25191e-06
9.65262e-06
1.9275e-05
1.9274e-05
4.2499e-06
9.65558e-06
4.25093e-06
9.65452e-06
6.93e-07
6.93933e-07
6.94245e-07
6.92359e-07
6.91463e-07
6.93723e-07
6.93011e-07
2.29423e-06
3.66104e-06
9.50285e-07
1.19297e-06
2.29711e-06
3.65664e-06
9.49041e-07
1.92801e-05
1.92859e-05
2.29535e-06
9.51319e-07
3.66084e-06
1.19569e-06
2.2973e-06
9.51033e-07
3.65969e-06
5.6862e-06
5.68855e-06
1.42791e-06
5.68253e-06
5.68486e-06
4.24436e-06
9.65146e-06
4.2451e-06
9.65469e-06
1.92715e-05
1.92792e-05
4.24579e-06
9.65403e-06
4.24736e-06
9.65715e-06
6.91268e-07
6.93123e-07
6.92351e-07
6.92404e-07
6.91936e-07
6.92338e-07
6.91303e-07
2.28835e-06
3.65194e-06
9.46011e-07
1.18951e-06
2.29011e-06
3.65068e-06
9.45449e-07
1.92862e-05
1.92883e-05
2.28923e-06
9.47258e-07
3.65627e-06
1.19047e-06
2.29175e-06
9.46244e-07
3.65353e-06
5.67539e-06
5.6775e-06
1.42215e-06
5.67333e-06
5.67486e-06
4.24957e-06
9.66417e-06
4.24754e-06
9.6702e-06
1.93002e-05
1.93143e-05
4.24857e-06
9.66549e-06
4.24647e-06
9.67269e-06
6.92623e-07
6.92464e-07
6.91352e-07
6.93903e-07
6.94391e-07
6.94385e-07
6.93977e-07
2.29005e-06
3.65437e-06
9.454e-07
1.19056e-06
2.28905e-06
3.6569e-06
9.45931e-07
1.92956e-05
1.93101e-05
2.29071e-06
9.4529e-07
3.65428e-06
1.19059e-06
2.28911e-06
9.45654e-07
3.65719e-06
5.67769e-06
5.67834e-06
1.42387e-06
5.68205e-06
5.68313e-06
4.25252e-06
9.67471e-06
4.25159e-06
9.67781e-06
1.93226e-05
1.93284e-05
4.25411e-06
9.67673e-06
4.25332e-06
9.67789e-06
6.94984e-07
6.94596e-07
6.94684e-07
6.94757e-07
6.9559e-07
6.93367e-07
6.94918e-07
2.2934e-06
3.66203e-06
9.47039e-07
1.19138e-06
2.29309e-06
3.66323e-06
9.47087e-07
1.93272e-05
1.93336e-05
2.29282e-06
9.46936e-07
3.66432e-06
1.19106e-06
2.29415e-06
9.46773e-07
3.66391e-06
5.68872e-06
5.69081e-06
1.426e-06
5.68892e-06
5.69011e-06
4.25285e-06
9.6798e-06
4.25431e-06
9.68029e-06
1.93312e-05
1.93328e-05
4.24696e-06
9.67801e-06
4.25171e-06
9.67767e-06
6.95326e-07
6.92421e-07
6.94375e-07
6.90772e-07
6.89826e-07
6.91019e-07
6.92947e-07
2.28608e-06
3.66371e-06
9.44795e-07
1.18554e-06
2.29098e-06
3.65804e-06
9.42418e-07
1.9315e-05
1.93053e-05
2.28214e-06
9.41948e-07
3.65522e-06
1.1829e-06
2.28658e-06
9.40525e-07
3.64694e-06
5.68418e-06
5.68403e-06
1.4199e-06
5.6808e-06
5.68049e-06
4.23268e-06
9.66657e-06
4.24118e-06
9.65665e-06
1.93048e-05
1.92986e-05
4.23643e-06
9.66932e-06
4.23996e-06
9.66354e-06
6.88449e-07
6.90999e-07
6.92454e-07
6.87121e-07
6.87894e-07
6.91064e-07
6.88702e-07
2.27567e-06
3.64411e-06
9.36516e-07
1.17635e-06
2.27833e-06
3.63703e-06
9.35369e-07
1.9306e-05
1.93261e-05
2.28081e-06
9.39018e-07
3.64583e-06
1.18149e-06
2.28059e-06
9.38853e-07
3.64779e-06
5.68341e-06
5.6868e-06
1.41686e-06
5.68693e-06
5.69239e-06
4.24083e-06
9.6559e-06
4.23095e-06
9.67607e-06
1.93111e-05
1.93583e-05
4.24269e-06
9.66076e-06
4.23685e-06
9.6742e-06
6.89611e-07
6.90981e-07
6.87546e-07
6.93205e-07
6.92005e-07
6.89643e-07
6.8623e-07
2.28001e-06
3.64231e-06
9.35582e-07
1.18023e-06
2.27785e-06
3.65088e-06
9.36168e-07
1.9344e-05
1.93564e-05
2.27833e-06
9.36817e-07
3.65223e-06
1.17863e-06
2.28015e-06
9.35059e-07
3.65148e-06
5.69133e-06
5.6925e-06
1.41113e-06
5.68106e-06
5.67711e-06
4.26039e-06
9.70672e-06
4.25948e-06
9.71036e-06
1.93924e-05
1.93876e-05
4.25599e-06
9.7031e-06
4.25513e-06
9.70733e-06
6.91797e-07
6.89407e-07
6.86785e-07
6.90736e-07
6.87056e-07
6.88813e-07
6.89856e-07
2.27864e-06
3.66318e-06
9.35902e-07
1.17664e-06
2.28177e-06
3.65794e-06
9.3419e-07
1.93588e-05
1.9362e-05
2.27714e-06
9.32724e-07
3.65333e-06
1.17559e-06
2.27763e-06
9.32567e-07
3.65084e-06
5.66219e-06
5.66264e-06
1.4073e-06
5.65742e-06
5.66112e-06
4.23447e-06
9.68338e-06
4.2422e-06
9.67889e-06
1.93226e-05
1.93277e-05
4.23605e-06
9.68553e-06
4.2425e-06
9.68198e-06
6.86589e-07
6.88878e-07
6.90852e-07
6.85488e-07
6.88159e-07
6.89679e-07
6.91927e-07
2.27307e-06
3.64586e-06
9.31119e-07
1.17162e-06
2.27341e-06
3.63994e-06
9.31031e-07
1.93381e-05
1.93498e-05
2.27545e-06
9.33338e-07
3.64897e-06
1.17542e-06
2.27557e-06
9.33594e-07
3.64516e-06
5.6768e-06
5.68205e-06
1.41522e-06
5.69231e-06
5.69655e-06
4.25666e-06
9.68814e-06
4.2437e-06
9.70283e-06
1.936e-05
1.94069e-05
4.2558e-06
9.68838e-06
4.24395e-06
9.70197e-06
6.89269e-07
6.89987e-07
6.92132e-07
6.87498e-07
6.88091e-07
6.87928e-07
6.89223e-07
2.28663e-06
3.65704e-06
9.33796e-07
1.17648e-06
2.2838e-06
3.65828e-06
9.33817e-07
1.93641e-05
1.94019e-05
2.28644e-06
9.34621e-07
3.65919e-06
1.17659e-06
2.28409e-06
9.3444e-07
3.65875e-06
5.72959e-06
5.72941e-06
1.42265e-06
5.73058e-06
5.72949e-06
4.22154e-06
9.67776e-06
4.24954e-06
9.64663e-06
1.93607e-05
1.93158e-05
4.22265e-06
9.67854e-06
4.24973e-06
9.64951e-06
6.82164e-07
6.8172e-07
6.81777e-07
7.17972e-07
7.16207e-07
7.16475e-07
7.14104e-07
2.23738e-06
3.65152e-06
9.22307e-07
1.15107e-06
2.27042e-06
3.60888e-06
9.12043e-07
1.93584e-05
1.93188e-05
2.23883e-06
9.21955e-07
3.65291e-06
1.15183e-06
2.27147e-06
9.1209e-07
3.61077e-06
5.69816e-06
5.69934e-06
1.3782e-06
5.63677e-06
5.63985e-06
3.42854e-06
8.80354e-06
4.12364e-06
5.76845e-06
1.6966e-05
8.48825e-06
3.42819e-06
8.80662e-06
4.12456e-06
5.76922e-06
3.10739e-07
5.15053e-07
5.15114e-07
7.48043e-07
3.1593e-07
5.21939e-07
5.21947e-07
2.15592e-06
3.49886e-06
8.15335e-07
1.02184e-06
2.1891e-06
3.60513e-06
7.72811e-07
1.69712e-05
8.48702e-06
2.15552e-06
8.15511e-07
3.49973e-06
1.0214e-06
2.18969e-06
7.72693e-07
3.60455e-06
5.51696e-06
5.5199e-06
1.28677e-06
5.1738e-06
5.17486e-06
1.91047e-05
1.91083e-05
1.42268e-06
5.65444e-06
5.65653e-06
1.91156e-05
1.91059e-05
1.91181e-05
1.91092e-05
1.42492e-06
5.65675e-06
5.6583e-06
5.65559e-06
5.65741e-06
4.23943e-06
9.57061e-06
2.29859e-06
1.1917e-06
3.65092e-06
9.39358e-07
2.29833e-06
1.19154e-06
3.64953e-06
9.39222e-07
4.24065e-06
9.58061e-06
9.57471e-06
4.24288e-06
4.24045e-06
9.5828e-06
9.57276e-06
4.24308e-06
2.29932e-06
1.19266e-06
3.65275e-06
9.42113e-07
3.6519e-06
9.4075e-07
2.30053e-06
2.29913e-06
1.1931e-06
3.65434e-06
9.42458e-07
3.65174e-06
9.40899e-07
2.30058e-06
1.42171e-06
5.65371e-06
5.65279e-06
1.91035e-05
1.91221e-05
1.91065e-05
1.42467e-06
5.66116e-06
5.66006e-06
5.65703e-06
5.65586e-06
1.91214e-05
1.91062e-05
1.19179e-06
3.65184e-06
4.24181e-06
9.58212e-06
9.577e-06
4.24319e-06
2.29999e-06
1.1926e-06
3.65322e-06
9.42134e-07
3.65264e-06
9.41122e-07
2.30063e-06
4.24192e-06
9.5842e-06
9.57789e-06
4.24348e-06
2.30003e-06
1.19386e-06
9.4265e-07
3.65468e-06
9.41628e-07
3.65352e-06
2.30076e-06
4.23978e-06
9.57176e-06
2.29879e-06
9.39144e-07
4.23999e-06
2.29953e-06
1.19308e-06
3.65429e-06
9.4261e-07
3.65176e-06
9.40949e-07
2.30096e-06
4.24121e-06
9.58378e-06
9.57402e-06
4.2435e-06
2.29958e-06
1.19279e-06
9.42264e-07
3.65305e-06
9.40786e-07
3.65238e-06
2.30081e-06
4.24102e-06
9.58186e-06
9.57616e-06
4.24316e-06
1.91232e-05
1.91126e-05
1.42605e-06
5.66118e-06
5.65988e-06
5.659e-06
5.65784e-06
1.91211e-05
1.91107e-05
2.30039e-06
1.19389e-06
9.42848e-07
3.65452e-06
9.41755e-07
3.65347e-06
2.30111e-06
2.30023e-06
1.19273e-06
9.42298e-07
3.65342e-06
9.41173e-07
3.65298e-06
2.30086e-06
4.24255e-06
9.5843e-06
9.57816e-06
4.2438e-06
4.24241e-06
9.58261e-06
9.57763e-06
4.2434e-06
1.42505e-06
5.65698e-06
5.65845e-06
5.65623e-06
5.65791e-06
1.91183e-05
1.91096e-05
1.91199e-05
1.91118e-05
1.91163e-05
1.91237e-05
1.91187e-05
1.91262e-05
5.65739e-06
5.65883e-06
1.42535e-06
5.65772e-06
5.65921e-06
1.9131e-05
1.9124e-05
1.91341e-05
1.91267e-05
1.4273e-06
5.65835e-06
5.66008e-06
5.65811e-06
5.65965e-06
4.24448e-06
9.5841e-06
4.24376e-06
9.58878e-06
2.30119e-06
3.65341e-06
9.4332e-07
1.19502e-06
2.30103e-06
3.65345e-06
9.44245e-07
2.30131e-06
3.65556e-06
9.43722e-07
1.19561e-06
2.30113e-06
3.6558e-06
9.44587e-07
4.24432e-06
9.58847e-06
9.58571e-06
4.24404e-06
4.24458e-06
9.59038e-06
9.58912e-06
4.24407e-06
2.30132e-06
1.19541e-06
3.65336e-06
9.45265e-07
3.65374e-06
9.44883e-07
2.30039e-06
2.30141e-06
1.19566e-06
3.65443e-06
9.45267e-07
3.65606e-06
9.45071e-07
2.30035e-06
5.66287e-06
5.66158e-06
1.42668e-06
5.66352e-06
5.66229e-06
1.91226e-05
1.91308e-05
1.91357e-05
1.91316e-05
1.42848e-06
5.6613e-06
5.6601e-06
5.66375e-06
5.6624e-06
1.91348e-05
1.91308e-05
2.30096e-06
3.65375e-06
9.43066e-07
1.19464e-06
2.30101e-06
3.65379e-06
9.43856e-07
4.24432e-06
9.58495e-06
4.24393e-06
9.58832e-06
2.30107e-06
9.43508e-07
3.65534e-06
1.19524e-06
2.30115e-06
9.44169e-07
3.6553e-06
4.24423e-06
9.58981e-06
9.58689e-06
4.24415e-06
2.30115e-06
1.19508e-06
3.65389e-06
9.4503e-07
3.65411e-06
9.44521e-07
2.30051e-06
4.24444e-06
9.59083e-06
9.58871e-06
4.24416e-06
2.30124e-06
1.19529e-06
9.44981e-07
3.65462e-06
9.44664e-07
3.65553e-06
2.30048e-06
4.24466e-06
9.58499e-06
4.24427e-06
9.58943e-06
2.30115e-06
9.4347e-07
3.65349e-06
1.195e-06
2.30124e-06
9.4435e-07
3.65324e-06
4.24415e-06
9.58249e-06
4.2437e-06
9.58554e-06
2.30148e-06
1.19568e-06
3.65421e-06
9.4538e-07
3.6558e-06
9.45186e-07
2.30042e-06
4.24482e-06
9.59088e-06
9.58974e-06
4.24426e-06
2.30123e-06
1.19541e-06
9.45404e-07
3.65326e-06
9.44979e-07
3.65351e-06
2.30038e-06
4.24427e-06
9.589e-06
9.58599e-06
4.24406e-06
5.66204e-06
5.66074e-06
1.42636e-06
5.66249e-06
5.66111e-06
1.91217e-05
1.91289e-05
1.91373e-05
1.91316e-05
1.4281e-06
5.6619e-06
5.66045e-06
5.66273e-06
5.66135e-06
1.91349e-05
1.91292e-05
2.3009e-06
9.43217e-07
3.65379e-06
1.19466e-06
2.30119e-06
9.43962e-07
3.65355e-06
4.2445e-06
9.58501e-06
4.24432e-06
9.58829e-06
4.2441e-06
9.58317e-06
4.24396e-06
9.58612e-06
2.3013e-06
1.19531e-06
9.45145e-07
3.65434e-06
9.44802e-07
3.65526e-06
2.3006e-06
2.30104e-06
1.1951e-06
9.45177e-07
3.65373e-06
9.4462e-07
3.65385e-06
2.30045e-06
4.24468e-06
9.59079e-06
9.58868e-06
4.2444e-06
4.2444e-06
9.58965e-06
9.58659e-06
4.24426e-06
1.91187e-05
1.91251e-05
1.91202e-05
1.91267e-05
1.4273e-06
5.65798e-06
5.65968e-06
5.65761e-06
5.65912e-06
1.91326e-05
1.91254e-05
1.91349e-05
1.91271e-05
1.91315e-05
1.91398e-05
1.91347e-05
1.91434e-05
5.6589e-06
5.6607e-06
1.42595e-06
5.65972e-06
5.66174e-06
1.91504e-05
1.91407e-05
1.91537e-05
1.91443e-05
1.42769e-06
5.66164e-06
5.6635e-06
5.66064e-06
5.66261e-06
4.24319e-06
9.59033e-06
4.24401e-06
9.59062e-06
2.29947e-06
3.65364e-06
9.4551e-07
1.19576e-06
2.30039e-06
3.65341e-06
9.45679e-07
2.2992e-06
3.65444e-06
9.45308e-07
1.19463e-06
2.30031e-06
3.6521e-06
9.45301e-07
4.24363e-06
9.59603e-06
9.5925e-06
4.24328e-06
4.24307e-06
9.59212e-06
9.59054e-06
4.24249e-06
2.29948e-06
1.19574e-06
3.65372e-06
9.46072e-07
3.65379e-06
9.45861e-07
2.29886e-06
2.29918e-06
1.19443e-06
3.65084e-06
9.45403e-07
3.65211e-06
9.45306e-07
2.29844e-06
5.66094e-06
5.65959e-06
1.42467e-06
5.65758e-06
5.6564e-06
1.9134e-05
1.91371e-05
1.91445e-05
1.91376e-05
1.42619e-06
5.65628e-06
5.65511e-06
5.65749e-06
5.65616e-06
1.91437e-05
1.91368e-05
2.29974e-06
3.65421e-06
9.4543e-07
1.19563e-06
2.30055e-06
3.65409e-06
9.45714e-07
4.24356e-06
9.59106e-06
4.24416e-06
9.59247e-06
2.29956e-06
9.4519e-07
3.65469e-06
1.19488e-06
2.30052e-06
9.45316e-07
3.65317e-06
4.24385e-06
9.59787e-06
9.59417e-06
4.24348e-06
2.29977e-06
1.19562e-06
3.65434e-06
9.46141e-07
3.65446e-06
9.45952e-07
2.29904e-06
4.24352e-06
9.59404e-06
9.59257e-06
4.24303e-06
2.29956e-06
1.19477e-06
9.45705e-07
3.65193e-06
9.45474e-07
3.65318e-06
2.29874e-06
4.24349e-06
9.5908e-06
4.24432e-06
9.59104e-06
2.29958e-06
9.45714e-07
3.65364e-06
1.19592e-06
2.3004e-06
9.45917e-07
3.65367e-06
4.24373e-06
9.58957e-06
4.2441e-06
9.59318e-06
2.29939e-06
1.19444e-06
3.65069e-06
9.45575e-07
3.65188e-06
9.45456e-07
2.29864e-06
4.2435e-06
9.59266e-06
9.59096e-06
4.24284e-06
2.29961e-06
1.1959e-06
9.46209e-07
3.65393e-06
9.46075e-07
3.65411e-06
2.29898e-06
4.24375e-06
9.59749e-06
9.59384e-06
4.24342e-06
5.66174e-06
5.66034e-06
1.42512e-06
5.6596e-06
5.6582e-06
1.91348e-05
1.91393e-05
1.91468e-05
1.91415e-05
1.42669e-06
5.65812e-06
5.65676e-06
5.65938e-06
5.65803e-06
1.91445e-05
1.91392e-05
2.29988e-06
9.45646e-07
3.65415e-06
1.19581e-06
2.30055e-06
9.45965e-07
3.6543e-06
4.24391e-06
9.59101e-06
4.24449e-06
9.59244e-06
4.24406e-06
9.59025e-06
4.24447e-06
9.59422e-06
2.29982e-06
1.19479e-06
9.45853e-07
3.65171e-06
9.45673e-07
3.65295e-06
2.29899e-06
2.29994e-06
1.19581e-06
9.46276e-07
3.65445e-06
9.4617e-07
3.65472e-06
2.29916e-06
4.24396e-06
9.59413e-06
9.59256e-06
4.24335e-06
4.2442e-06
9.59855e-06
9.59495e-06
4.24365e-06
1.91334e-05
1.91434e-05
1.91358e-05
1.91461e-05
1.42809e-06
5.66163e-06
5.66336e-06
5.66107e-06
5.66295e-06
1.91532e-05
1.91444e-05
1.91554e-05
1.9147e-05
1.91512e-05
1.91593e-05
1.91543e-05
1.91619e-05
5.66222e-06
5.66394e-06
1.42587e-06
5.66226e-06
5.66386e-06
1.91665e-05
1.91597e-05
1.91691e-05
1.91624e-05
1.42753e-06
5.6618e-06
5.66336e-06
5.66244e-06
5.664e-06
4.24297e-06
9.59267e-06
4.24254e-06
9.5974e-06
2.29885e-06
3.65407e-06
9.46352e-07
1.19546e-06
2.29905e-06
3.65376e-06
9.46666e-07
2.29859e-06
3.6512e-06
9.45819e-07
1.19518e-06
2.29862e-06
3.65168e-06
9.46529e-07
4.24389e-06
9.60421e-06
9.60103e-06
4.24461e-06
4.24352e-06
9.60652e-06
9.59867e-06
4.24486e-06
2.29917e-06
1.19541e-06
3.65351e-06
9.47476e-07
3.65399e-06
9.47039e-07
2.29931e-06
2.29902e-06
1.19614e-06
3.65502e-06
9.48068e-07
3.65293e-06
9.47281e-07
2.29945e-06
5.65688e-06
5.65557e-06
1.42545e-06
5.65884e-06
5.65768e-06
1.91446e-05
1.91567e-05
1.91749e-05
1.91594e-05
1.4278e-06
5.66542e-06
5.66423e-06
5.661e-06
5.65966e-06
1.91739e-05
1.91586e-05
2.29871e-06
3.65463e-06
9.46361e-07
1.19529e-06
2.29914e-06
3.65415e-06
9.46609e-07
4.24314e-06
9.59441e-06
4.24304e-06
9.59805e-06
2.29854e-06
9.46096e-07
3.65213e-06
1.19544e-06
2.29883e-06
9.4662e-07
3.65227e-06
4.24368e-06
9.60517e-06
9.60222e-06
4.24423e-06
2.29897e-06
1.19522e-06
3.65384e-06
9.47373e-07
3.65434e-06
9.4695e-07
2.29894e-06
4.2435e-06
9.60626e-06
9.59911e-06
4.24444e-06
2.29888e-06
1.19623e-06
9.47991e-07
3.65492e-06
9.47286e-07
3.65322e-06
2.29909e-06
4.24325e-06
9.59325e-06
4.24297e-06
9.59816e-06
2.29888e-06
9.46405e-07
3.6542e-06
1.1955e-06
2.29913e-06
9.46678e-07
3.65377e-06
4.24363e-06
9.59801e-06
4.24348e-06
9.60101e-06
2.2992e-06
1.19613e-06
3.65486e-06
9.48187e-07
3.65274e-06
9.47342e-07
2.29963e-06
4.24386e-06
9.60716e-06
9.59942e-06
4.24502e-06
2.29922e-06
1.1955e-06
9.47641e-07
3.65391e-06
9.4709e-07
3.65405e-06
2.29946e-06
4.24397e-06
9.60515e-06
9.60155e-06
4.24469e-06
5.65837e-06
5.65705e-06
1.42568e-06
5.65992e-06
5.65856e-06
1.9145e-05
1.91551e-05
1.91745e-05
1.91592e-05
1.42787e-06
5.66582e-06
5.66447e-06
5.66168e-06
5.66038e-06
1.91721e-05
1.91568e-05
2.29869e-06
9.46408e-07
3.65467e-06
1.19536e-06
2.29921e-06
9.46627e-07
3.65417e-06
4.24341e-06
9.59453e-06
4.24344e-06
9.59824e-06
4.24362e-06
9.59899e-06
4.24381e-06
9.60175e-06
2.29903e-06
1.19622e-06
9.48105e-07
3.65468e-06
9.4736e-07
3.653e-06
2.29932e-06
2.29897e-06
1.19534e-06
9.47561e-07
3.65427e-06
9.47018e-07
3.65443e-06
2.29913e-06
4.24384e-06
9.60633e-06
9.59928e-06
4.24467e-06
4.24403e-06
9.60563e-06
9.60226e-06
4.24448e-06
1.91538e-05
1.91614e-05
1.91559e-05
1.91633e-05
1.42758e-06
5.6622e-06
5.66374e-06
5.66219e-06
5.66375e-06
1.91696e-05
1.91619e-05
1.91715e-05
1.91637e-05
1.91668e-05
1.91744e-05
1.91695e-05
1.91773e-05
5.66189e-06
5.66343e-06
1.42667e-06
5.66182e-06
5.66343e-06
1.91865e-05
1.91753e-05
1.91899e-05
1.91782e-05
1.42883e-06
5.66496e-06
5.66665e-06
5.66264e-06
5.66422e-06
4.24701e-06
9.60814e-06
4.2456e-06
9.61614e-06
2.30003e-06
3.65377e-06
9.4805e-07
1.1962e-06
2.29971e-06
3.65368e-06
9.48759e-07
2.30055e-06
3.65676e-06
9.48895e-07
1.19861e-06
2.30001e-06
3.65887e-06
9.49687e-07
4.24665e-06
9.61473e-06
9.60928e-06
4.24779e-06
4.24767e-06
9.62285e-06
9.6174e-06
4.24878e-06
2.30045e-06
1.19709e-06
3.65523e-06
9.50388e-07
3.6543e-06
9.4958e-07
2.30079e-06
2.30101e-06
1.19904e-06
3.66112e-06
9.50894e-07
3.66023e-06
9.50383e-07
2.30135e-06
5.66819e-06
5.66685e-06
1.42989e-06
5.67243e-06
5.67128e-06
1.91759e-05
1.91901e-05
1.92027e-05
1.91926e-05
1.43219e-06
5.67678e-06
5.67564e-06
5.67462e-06
5.67332e-06
1.92017e-05
1.91916e-05
2.29957e-06
3.6541e-06
9.47926e-07
1.19594e-06
2.29931e-06
3.65406e-06
9.48552e-07
4.24632e-06
9.60781e-06
4.24508e-06
9.61508e-06
2.29991e-06
9.487e-07
3.65628e-06
1.19787e-06
2.29953e-06
9.4931e-07
3.65751e-06
4.24637e-06
9.61549e-06
9.61008e-06
4.24738e-06
2.29995e-06
1.19676e-06
3.65566e-06
9.49948e-07
3.65469e-06
9.49249e-07
2.30022e-06
4.24689e-06
9.61974e-06
9.616e-06
4.24766e-06
2.3003e-06
1.19803e-06
9.50191e-07
3.65814e-06
9.49824e-07
3.65818e-06
2.30039e-06
4.24751e-06
9.60874e-06
4.24597e-06
9.61687e-06
2.30047e-06
9.4836e-07
3.65441e-06
1.19703e-06
2.29996e-06
9.49176e-07
3.65493e-06
4.24656e-06
9.60592e-06
4.2453e-06
9.61098e-06
2.30151e-06
1.19911e-06
3.66104e-06
9.51107e-07
3.66011e-06
9.5063e-07
2.30187e-06
4.24846e-06
9.6238e-06
9.61818e-06
4.24949e-06
2.30096e-06
1.19785e-06
9.50754e-07
3.65684e-06
9.5002e-07
3.65583e-06
2.30135e-06
4.24731e-06
9.61818e-06
9.61208e-06
4.2485e-06
5.66789e-06
5.66661e-06
1.42884e-06
5.67035e-06
5.66904e-06
1.91741e-05
1.91866e-05
1.91977e-05
1.91901e-05
1.43087e-06
5.67145e-06
5.67012e-06
5.67123e-06
5.66997e-06
1.91951e-05
1.91875e-05
2.30002e-06
9.48249e-07
3.65476e-06
1.1968e-06
2.29961e-06
9.4897e-07
3.65532e-06
4.24685e-06
9.60786e-06
4.2455e-06
9.61518e-06
4.24637e-06
9.60636e-06
4.24525e-06
9.61133e-06
2.30077e-06
1.19809e-06
9.50454e-07
3.65795e-06
9.50093e-07
3.65803e-06
2.30091e-06
2.30049e-06
1.19756e-06
9.50362e-07
3.65727e-06
9.49714e-07
3.65623e-06
2.30077e-06
4.24765e-06
9.61983e-06
9.61611e-06
4.24835e-06
4.2473e-06
9.61844e-06
9.61243e-06
4.24816e-06
1.91704e-05
1.91803e-05
1.91723e-05
1.91824e-05
1.42984e-06
5.66756e-06
5.66927e-06
5.66524e-06
5.66689e-06
1.91929e-05
1.91815e-05
1.91955e-05
1.91838e-05
1.91882e-05
1.92015e-05
1.91916e-05
1.92053e-05
5.66695e-06
5.6686e-06
1.42984e-06
5.67025e-06
5.67206e-06
1.92129e-05
1.92028e-05
1.92173e-05
1.92067e-05
1.43199e-06
5.67352e-06
5.67563e-06
5.67191e-06
5.67375e-06
4.24962e-06
9.62346e-06
4.24924e-06
9.62586e-06
2.30108e-06
3.65641e-06
9.51079e-07
1.19922e-06
2.30116e-06
3.65777e-06
9.51539e-07
2.30124e-06
3.66169e-06
9.51195e-07
1.199e-06
2.30167e-06
3.66092e-06
9.51298e-07
4.2494e-06
9.62843e-06
9.62383e-06
4.24937e-06
4.24974e-06
9.62612e-06
9.62591e-06
4.2493e-06
2.30123e-06
1.19944e-06
3.65911e-06
9.51791e-07
3.65872e-06
9.51758e-07
2.30019e-06
2.30132e-06
1.19838e-06
3.65832e-06
9.51187e-07
3.66101e-06
9.51295e-07
2.30007e-06
5.6777e-06
5.67639e-06
1.43046e-06
5.6769e-06
5.67563e-06
1.92021e-05
1.9207e-05
1.92087e-05
1.92074e-05
1.43191e-06
5.67214e-06
5.67075e-06
5.67667e-06
5.67523e-06
1.92072e-05
1.92062e-05
2.30061e-06
3.65682e-06
9.50628e-07
1.19885e-06
2.30057e-06
3.65827e-06
9.51189e-07
4.24843e-06
9.62014e-06
4.24805e-06
9.62245e-06
2.30043e-06
9.50473e-07
3.65838e-06
1.19785e-06
2.30068e-06
9.50694e-07