/*--------------------------------*- C++ -*----------------------------------*\
| =========                 |                                                 |
| \\      /  F ield         | OpenFOAM: The Open Source CFD Toolbox           |
|  \\    /   O peration     | Version:  2312                                  |
|   \\  /    A nd           | Website:  www.openfoam.com                      |
|    \\/     M anipulation  |                                                 |
\*---------------------------------------------------------------------------*/
FoamFile
{
    version     2.0;
    format      ascii;
    arch        "LSB;label=32;scalar=64";
    class       volScalarField;
    location    "625";
    object      p;
}
// * * * * * * * * * * * * * * * * * * * * * * * * * * * * * * * * * * * * * //

dimensions      [0 2 -2 0 0 0 0];

internalField   nonuniform List<scalar> 
43208
(
0.00071398
0.000713945
0.000713883
0.000715925
0.000678424
0.000678297
0.00067832
0.000680342
0.000642807
0.000642758
0.00064276
0.000644768
0.000607201
0.000607198
0.000607194
0.000609203
0.00057167
0.000571562
0.000571557
0.000573611
0.00053603
0.000535917
0.000535964
0.000537947
0.000500288
0.000500283
0.000500276
0.000502293
0.000464597
0.000464589
0.000464498
0.000466582
0.00042889
0.000428809
0.00042885
0.000430883
0.000393069
0.000392995
0.000393077
0.000395056
0.000357214
0.000357137
0.000357104
0.000359138
0.00032135
0.000321387
0.00032131
0.000323392
0.000285515
0.000285452
0.00028555
0.000287583
0.000249588
0.00024952
0.000249401
0.000251464
0.000213401
0.000213286
0.000213522
0.000215497
0.000177393
0.000177524
0.000177422
0.000179519
0.000141742
0.00014151
0.000141361
0.000143445
0.000105157
0.000105213
0.000105511
0.000107529
6.95105e-05
6.9582e-05
6.94074e-05
7.15308e-05
3.40211e-05
3.30419e-05
3.30464e-05
3.50076e-05
9.42565e-06
5.3528e-06
5.42915e-06
4.02648e-06
0.000720739
0.000722794
0.000722837
0.000720785
0.000722773
0.000722773
0.000722851
0.000722829
0.000720724
0.000722784
0.000722807
0.000720758
0.000715914
0.000685177
0.000713915
0.000713939
0.000687233
0.000687198
0.000715945
0.000685147
0.000713895
0.000713879
0.000687237
0.000687207
0.000713929
0.000687197
0.00068723
0.000715893
0.000685161
0.00071391
0.000687206
0.000687235
0.000685174
0.000680343
0.000649607
0.000678335
0.000678298
0.000651643
0.000651643
0.000680316
0.000649605
0.000678343
0.00067832
0.000651647
0.000651654
0.000678334
0.00065164
0.000651639
0.000680335
0.000649613
0.000678342
0.000651652
0.000651642
0.000649601
0.000644774
0.000614029
0.000642746
0.000642761
0.000616058
0.000616094
0.000644777
0.00061406
0.000642746
0.000642764
0.000616057
0.000616088
0.000642738
0.000616094
0.00061606
0.000644781
0.000614052
0.000642738
0.000616088
0.000616059
0.000614032
0.000609198
0.000578451
0.000607167
0.000607197
0.000580503
0.000580474
0.000609224
0.000578424
0.000607166
0.000607192
0.000580501
0.000580464
0.000607174
0.000580475
0.000580508
0.000609216
0.000578419
0.000607173
0.000580464
0.000580506
0.000578453
0.000573612
0.000542805
0.000571609
0.000571564
0.000544859
0.000544831
0.000573585
0.000542782
0.000571607
0.000571558
0.000544869
0.000544866
0.000571604
0.000544828
0.000544844
0.000573582
0.000542819
0.000571602
0.000544862
0.000544853
0.000542792
0.000537954
0.000507121
0.000535924
0.000535919
0.000509156
0.000509189
0.000537937
0.000507147
0.00053594
0.000535966
0.000509158
0.000509211
0.000535921
0.000509194
0.000509173
0.000537979
0.000507156
0.000535934
0.000509217
0.000509178
0.000507139
0.000502275
0.000471451
0.000500242
0.000500278
0.000473503
0.000473524
0.000502301
0.000471488
0.000500237
0.00050027
0.00047348
0.000473433
0.000500259
0.000473521
0.000473491
0.000502296
0.000471394
0.000500255
0.00047343
0.000473466
0.000471437
0.000466598
0.000435716
0.000464583
0.000464595
0.000437767
0.000437752
0.000466635
0.000435698
0.000464559
0.000464504
0.000437771
0.000437754
0.000464564
0.000437756
0.000437779
0.000466544
0.000435719
0.000464538
0.000437754
0.00043778
0.000435735
0.000430852
0.000399912
0.000428813
0.000428801
0.000401953
0.000401949
0.000430835
0.000399894
0.000428828
0.000428843
0.000401979
0.000402046
0.000428847
0.000401957
0.000401984
0.000430874
0.000399984
0.000428861
0.000402057
0.000402014
0.000399933
0.000395045
0.000364088
0.000393003
0.000392993
0.000366142
0.000366105
0.000395023
0.000364054
0.000393025
0.000393072
0.000366142
0.000366107
0.000393012
0.000366087
0.000366079
0.000395101
0.000364041
0.000393035
0.000366088
0.000366078
0.000364015
0.000359215
0.000328261
0.000357188
0.00035716
0.000330305
0.000330343
0.000359194
0.000328302
0.000357173
0.000357124
0.000330275
0.000330243
0.00035711
0.000330335
0.000330278
0.000359161
0.000328208
0.0003571
0.000330235
0.000330247
0.000328245
0.000323393
0.000292365
0.00032134
0.000321385
0.000294416
0.000294416
0.000323429
0.000292365
0.000321318
0.00032131
0.000294443
0.000294499
0.000321345
0.000294449
0.00029452
0.000323352
0.00029246
0.000321321
0.000294526
0.000294543
0.000292471
0.000287486
0.000256429
0.000285443
0.000285423
0.00025852
0.000258535
0.000287482
0.000256444
0.000285473
0.000285522
0.000258494
0.000258454
0.000285539
0.000258518
0.00025846
0.000287577
0.000256364
0.00028557
0.000258436
0.000258433
0.000256364
0.000251537
0.000220352
0.000249532
0.000249549
0.000222402
0.00022236
0.000251547
0.000220292
0.000249497
0.000249431
0.000222434
0.000222453
0.000249435
0.000222358
0.000222413
0.000251459
0.000220421
0.0002494
0.00022246
0.000222448
0.000220375
0.00021543
0.000184362
0.000213328
0.00021326
0.000186352
0.000186415
0.000215365
0.000184386
0.00021339
0.000213492
0.000186371
0.000186477
0.000213426
0.000186434
0.000186428
0.00021555
0.000184428
0.000213494
0.000186496
0.00018644
0.00018442
0.000179519
0.000148638
0.000177461
0.000177541
0.000150767
0.000150709
0.00017954
0.000148592
0.000177428
0.000177444
0.000150677
0.0001504
0.000177419
0.000150608
0.000150422
0.000179505
0.000148319
0.00017738
0.000150309
0.000150339
0.000148313
0.000143705
0.000112045
0.00014172
0.000141582
0.000114095
0.000114109
0.000143648
0.00011208
0.000141673
0.000141422
0.000114185
0.000114396
0.000141458
0.000114221
0.000114471
0.000143465
0.000112374
0.000141422
0.000114504
0.000114543
0.000112416
0.000107141
7.63936e-05
0.000104998
0.000105073
7.83881e-05
7.85335e-05
0.000107181
7.64748e-05
0.000105088
0.000105375
7.83622e-05
7.84367e-05
0.000105447
7.85437e-05
7.84595e-05
0.00010747
7.63573e-05
0.000105528
7.84519e-05
7.84324e-05
7.63936e-05
7.16244e-05
4.02219e-05
6.95774e-05
6.96324e-05
4.25085e-05
4.23345e-05
7.16385e-05
4.00288e-05
6.95272e-05
6.94555e-05
4.24858e-05
4.22515e-05
6.94438e-05
4.22216e-05
4.21391e-05
7.15011e-05
3.99761e-05
6.93864e-05
4.21332e-05
4.21177e-05
3.98646e-05
3.53112e-05
5.09948e-06
3.33133e-05
3.31327e-05
6.83319e-06
6.80305e-06
3.5164e-05
5.17523e-06
3.33092e-05
3.31374e-05
6.88695e-06
6.90775e-06
3.30291e-05
6.93746e-06
6.91478e-06
3.51562e-05
5.25538e-06
3.30244e-05
7.03369e-06
6.96386e-06
5.23909e-06
3.8691e-06
5.25229e-06
5.26729e-06
3.95823e-06
5.28528e-06
5.3482e-06
9.35829e-06
9.42492e-06
9.34805e-06
5.35597e-06
4.02093e-06
5.38579e-06
0.000738354
0.000738339
0.00073837
0.000738308
0.000722848
0.000722919
0.000722879
0.000722898
0.000738439
0.000740585
0.000738416
0.00074059
0.000702771
0.000716098
0.000716087
0.000702788
0.000716061
0.000702745
0.000702774
0.000716085
0.000716066
0.000702791
0.000714055
0.000713987
0.000714012
0.000687323
0.000687315
0.000687299
0.000687317
0.000702826
0.000716042
0.000713988
0.000705025
0.000716049
0.000702773
0.000705076
0.000716054
0.000702761
0.000702819
0.000713928
0.00071602
0.000704985
0.000716015
0.000705027
0.00070278
0.000716097
0.000716093
0.00070296
0.000702788
0.000702789
0.00066723
0.000680545
0.000680522
0.00066724
0.000680528
0.000667257
0.000667242
0.000680557
0.000680539
0.000667246
0.000678395
0.000678401
0.000678424
0.000651713
0.000651684
0.000651695
0.000651715
0.00066727
0.000680476
0.000678338
0.000669406
0.000680456
0.000667254
0.000669439
0.000680543
0.000667261
0.000667285
0.000678352
0.000680498
0.000669432
0.000680476
0.00066946
0.000667266
0.000680548
0.000680553
0.00066739
0.000667224
0.000667226
0.000631688
0.000644992
0.000644996
0.000631673
0.000645044
0.000631726
0.000631679
0.000644986
0.000644989
0.000631669
0.00064279
0.000642795
0.000642801
0.000616098
0.000616125
0.000616128
0.000616091
0.00063173
0.000644982
0.000642761
0.000633874
0.000644925
0.000631732
0.000633871
0.000645037
0.000631717
0.000631718
0.000642768
0.000644973
0.00063387
0.00064492
0.000633871
0.000631721
0.000644967
0.000644965
0.000631811
0.000631656
0.000631654
0.000596079
0.000609414
0.000609401
0.000596101
0.000609401
0.000596042
0.000596079
0.000609417
0.000609402
0.000596103
0.000607247
0.000607249
0.000607204
0.000580546
0.00058057
0.000580549
0.000580564
0.000596126
0.00060937
0.000607208
0.000598296
0.000609344
0.000596076
0.000598315
0.00060939
0.000596044
0.000596127
0.000607204
0.000609365
0.000598289
0.000609343
0.000598311
0.000596075
0.000609426
0.000609425
0.000596251
0.000596102
0.0005961
0.000560448
0.000573815
0.000573786
0.000560456
0.000573746
0.000560425
0.000560468
0.000573819
0.000573792
0.000560469
0.000571658
0.000571639
0.000571674
0.00054496
0.000544902
0.000544912
0.000544939
0.000560486
0.000573715
0.000571605
0.000562651
0.000573719
0.000560443
0.000562692
0.000573783
0.00056048
0.000560501
0.000571598
0.000573734
0.000562655
0.000573722
0.00056269
0.00056048
0.0005738
0.0005738
0.000560627
0.000560439
0.000560445
0.000524804
0.000538135
0.000538134
0.000524795
0.000538176
0.000524868
0.000524822
0.000538157
0.000538167
0.000524804
0.000535981
0.00053601
0.000536016
0.00050922
0.00050922
0.000509282
0.000509232
0.000524858
0.000538115
0.000535938
0.000527007
0.000538078
0.000524864
0.000527023
0.000538218
0.000524864
0.000524887
0.00053597
0.000538163
0.000527058
0.000538112
0.000527062
0.000524884
0.000538133
0.000538144
0.000524964
0.00052479
0.000524797
0.000489185
0.000502519
0.000502517
0.000489189
0.000502576
0.000489213
0.000489121
0.000502491
0.000502479
0.000489144
0.000500302
0.000500348
0.000500302
0.000473515
0.000473548
0.000473494
0.000473507
0.000489221
0.000502519
0.000500283
0.000491367
0.000502457
0.000489223
0.000491368
0.000502475
0.000489094
0.000489157
0.000500293
0.00050245
0.000491324
0.00050243
0.000491351
0.000489117
0.000502506
0.000502496
0.000489293
0.000489161
0.000489142
0.000453436
0.00046685
0.000466835
0.000453441
0.000466819
0.000453407
0.000453429
0.00046682
0.000466783
0.000453443
0.000464629
0.000464549
0.000464577
0.000437826
0.000437837
0.000437774
0.000437815
0.000453482
0.000466784
0.000464596
0.000455648
0.000466761
0.00045344
0.000455666
0.000466771
0.000453444
0.000453457
0.000464523
0.000466716
0.000455573
0.000466696
0.000455594
0.00045344
0.000466843
0.000466828
0.000453581
0.000453467
0.000453462
0.000417611
0.000431008
0.000431004
0.000417612
0.000430998
0.000417604
0.000417686
0.000431055
0.000431072
0.00041766
0.000428888
0.000428863
0.000428902
0.000402027
0.000402031
0.000402097
0.000402085
0.000417688
0.000430981
0.000428845
0.000419863
0.000430981
0.000417641
0.000419899
0.000431128
0.000417725
0.000417773
0.000428854
0.000431083
0.000419937
0.000431038
0.000419939
0.00041776
0.000431071
0.00043109
0.000417862
0.00041763
0.00041765
0.000381854
0.000395252
0.000395228
0.000381884
0.000395229
0.000381868
0.000381851
0.000395271
0.000395261
0.000381878
0.000393062
0.000393151
0.000393113
0.000366184
0.000366131
0.000366179
0.000366147
0.000381856
0.000395178
0.000393021
0.000384025
0.000395159
0.000381843
0.000384047
0.000395251
0.000381824
0.000381864
0.0003931
0.000395219
0.000384078
0.000395202
0.00038411
0.000381832
0.000395196
0.000395205
0.000381973
0.000381785
0.000381787
0.000346085
0.000359506
0.000359483
0.000346088
0.000359521
0.00034612
0.000346024
0.000359465
0.000359427
0.000346039
0.000357164
0.000357179
0.000357162
0.000330317
0.000330341
0.00033025
0.000330261
0.000346082
0.000359427
0.000357135
0.0003482
0.000359343
0.000346104
0.000348187
0.000359424
0.000346036
0.000346012
0.000357123
0.000359343
0.000348131
0.000359303
0.000348142
0.000346018
0.000359437
0.000359421
0.000346113
0.000346057
0.000346039
0.000310151
0.000323601
0.000323614
0.000310136
0.000323632
0.000310156
0.000310183
0.000323592
0.000323601
0.000310158
0.000321396
0.000321315
0.000321323
0.000294473
0.000294487
0.000294534
0.000294537
0.000310264
0.000323619
0.000321369
0.000312423
0.000323582
0.000310219
0.000312416
0.000323639
0.000310203
0.00031027
0.000321298
0.000323591
0.00031239
0.000323536
0.00031238
0.000310252
0.000323652
0.000323653
0.000310378
0.000310214
0.000310225
0.000274234
0.000287665
0.000287657
0.000274247
0.000287654
0.000274219
0.000274205
0.000287697
0.000287676
0.00027423
0.000285515
0.000285579
0.000285591
0.000258579
0.000258611
0.000258526
0.000258554
0.000274272
0.000287635
0.000285507
0.000276464
0.000287636
0.000274235
0.000276515
0.000287656
0.000274157
0.000274283
0.000285578
0.000287671
0.000276532
0.000287697
0.000276578
0.000274207
0.000287715
0.000287714
0.000274445
0.00027421
0.000274197
0.000238202
0.000251733
0.00025172
0.000238197
0.000251694
0.000238161
0.000238265
0.00025171
0.000251695
0.000238245
0.000249629
0.000249483
0.000249509
0.00022248
0.000222409
0.000222472
0.000222477
0.000238266
0.000251658
0.000249527
0.00024049
0.000251648
0.000238209
0.000240495
0.000251721
0.000238358
0.000238257
0.000249421
0.000251611
0.000240376
0.000251579
0.000240391
0.000238312
0.000251675
0.000251671
0.000238321
0.000238233
0.000238263
0.00020228
0.000215655
0.000215621
0.000202317
0.000215727
0.000202393
0.00020231
0.000215754
0.000215779
0.000202313
0.000213307
0.000213501
0.00021349
0.000186314
0.000186369
0.000186488
0.000186451
0.000202281
0.000215649
0.000213328
0.000204284
0.000215594
0.000202343
0.000204312
0.000215876
0.000202327
0.000202397
0.000213501
0.000215847
0.000204552
0.00021577
0.000204537
0.000202391
0.000215753
0.000215791
0.000202434
0.000202254
0.000202256
0.000166489
0.000179975
0.000179968
0.000166466
0.000180009
0.00016635
0.000166296
0.000179838
0.000179772
0.000166361
0.000177505
0.000177451
0.000177397
0.000150709
0.000150689
0.000150415
0.000150362
0.000166365
0.000179844
0.000177493
0.000168594
0.000179719
0.000166381
0.000168541
0.000179675
0.00016614
0.000166122
0.000177432
0.000179571
0.000168341
0.000179563
0.000168359
0.000166099
0.000179645
0.00017959
0.000166347
0.000166195
0.000166152
0.000129875
0.000143557
0.000143569
0.0001299
0.000143415
0.000129856
0.000130067
0.000143628
0.000143638
0.000130049
0.000141635
0.000141442
0.000141431
0.00011431
0.000114227
0.000114464
0.000114572
0.000130198
0.000143504
0.000141525
0.000132374
0.000143612
0.000130059
0.000132438
0.000143614
0.000130152
0.000130356
0.000141363
0.000143588
0.000132418
0.00014359
0.000132424
0.000130311
0.000143819
0.000143839
0.000130381
0.000130391
0.000130425
9.42812e-05
0.000107473
0.000107428
9.42893e-05
0.000107798
9.44554e-05
9.42301e-05
0.000107543
0.000107535
9.42202e-05
0.000105192
0.000105445
0.000105533
7.83327e-05
7.85372e-05
7.84947e-05
7.85275e-05
9.43051e-05
0.000107622
0.000105289
9.62939e-05
0.000107564
9.44603e-05
9.63355e-05
0.000107826
9.43285e-05
9.43437e-05
0.000105531
0.000107787
9.6498e-05
0.000107754
9.65197e-05
9.44248e-05
0.000107758
0.000107788
9.44216e-05
9.42619e-05
9.42436e-05
5.81305e-05
7.18269e-05
7.19336e-05
5.80989e-05
7.18528e-05
5.76627e-05
5.80661e-05
7.17162e-05
7.17923e-05
5.80665e-05
6.96389e-05
6.95042e-05
6.95106e-05
4.28599e-05
4.273e-05
4.26502e-05
4.25978e-05
5.80765e-05
7.16458e-05
6.95559e-05
6.05866e-05
7.16755e-05
5.7975e-05
6.05883e-05
7.17147e-05
5.76112e-05
5.79451e-05
6.94422e-05
7.14778e-05
6.03821e-05
7.15264e-05
6.04304e-05
5.78628e-05
7.13579e-05
7.1339e-05
5.82651e-05
5.77222e-05
5.77216e-05
2.01094e-05
3.44224e-05
3.44652e-05
1.97699e-05
3.45817e-05
1.92462e-05
2.01681e-05
3.4468e-05
3.45088e-05
1.9797e-05
3.38498e-05
3.3839e-05
3.37878e-05
1.19118e-05
1.18048e-05
1.18793e-05
1.18221e-05
2.04912e-05
3.41968e-05
3.34354e-05
2.41764e-05
3.46061e-05
2.01166e-05
2.46956e-05
3.46206e-05
1.92864e-05
2.05521e-05
3.34119e-05
3.42315e-05
2.42436e-05
3.462e-05
2.4732e-05
2.0173e-05
3.41504e-05
3.41585e-05
2.15345e-05
2.01721e-05
2.01733e-05
3.60093e-06
4.38332e-06
3.6762e-06
1.80845e-07
1.79425e-06
-3.34041e-06
3.60861e-06
4.39297e-06
3.68832e-06
1.75879e-07
1.85668e-06
8.17572e-06
8.21414e-06
3.94561e-06
6.50742e-06
3.04674e-06
3.06002e-06
2.78039e-06
3.68584e-06
3.63285e-06
2.08599e-06
4.45362e-06
5.70834e-06
8.51642e-07
1.78897e-06
-3.34405e-06
2.78301e-06
3.69081e-06
3.72587e-06
2.10791e-06
4.49349e-06
8.70603e-07
5.70609e-06
6.27163e-07
6.39728e-07
1.39029e-06
3.80302e-06
3.8046e-06
0.000738335
0.000738317
0.000738494
0.000738321
0.000738308
0.000720569
0.000733868
0.000720562
0.000733852
0.000733676
0.000720559
0.000720552
0.000733863
0.00073385
0.000738359
0.000738369
0.000738397
0.000740528
0.000738357
0.00074055
0.000738404
0.000740566
0.000738396
0.000740564
0.00073388
0.000720567
0.000733873
0.000720568
0.000733885
0.000720547
0.00073389
0.000720566
0.000733824
0.000731663
0.000720593
0.000722827
0.000733833
0.00073169
0.000720635
0.00073383
0.00073171
0.00072058
0.000722848
0.00073386
0.00073171
0.000720637
0.000738551
0.000738366
0.000738372
0.000738378
0.000720541
0.000733886
0.000733738
0.000720532
0.000720534
0.000733888
0.000733894
0.000720543
0.000733893
0.00074052
0.000738333
0.000733835
0.000720548
0.000733843
0.000720537
0.000733787
0.000731647
0.000720572
0.000722795
0.000733807
0.000731675
0.000720596
0.000733832
0.000720522
0.000733827
0.000720533
0.000733787
0.000731664
0.000722802
0.000720545
0.000731688
0.000733792
0.000720593
0.000738388
0.000738387
0.000738437
0.000740591
0.000738386
0.000733861
0.000731729
0.000720585
0.000722877
0.000733877
0.000731741
0.000720644
0.000733907
0.000720551
0.000733904
0.000720569
0.000733858
0.000731716
0.000722868
0.000720596
0.000731738
0.00073386
0.000720642
0.000733905
0.000720569
0.000733894
0.00072057
0.00072052
0.000733824
0.000733687
0.000720508
0.000720509
0.000733821
0.000733824
0.000720521
0.000733828
0.000733813
0.000731683
0.00072283
0.000720549
0.000731722
0.000733806
0.000720599
0.000733818
0.0007317
0.000722837
0.000720575
0.000731726
0.000733832
0.000720604
0.00073385
0.000720525
0.000733839
0.000720536
0.000733855
0.000720551
0.000733864
0.000720541
0.000733728
0.00072056
0.000720554
0.000733883
0.000733871
0.000720572
0.000733887
0.000720565
0.000733872
0.0007161
0.000702796
0.000716096
0.0007028
0.000716097
0.000716093
0.000702963
0.000702786
0.000702788
0.00068502
0.000698326
0.000685027
0.000698331
0.000698131
0.000685008
0.000685013
0.000698323
0.000698326
0.000702766
0.000716071
0.000716084
0.000702752
0.000702834
0.000716063
0.000713952
0.000705026
0.000716049
0.000702813
0.000705062
0.00070283
0.000716039
0.000713971
0.000705025
0.00071605
0.000702776
0.00070507
0.000698295
0.000685012
0.00069832
0.000684994
0.000698289
0.000684985
0.000698284
0.000684991
0.000698247
0.000696131
0.000685031
0.000687258
0.000698281
0.000696161
0.000685042
0.000698242
0.000696109
0.000685001
0.000687247
0.000698243
0.000696158
0.000685037
0.000716058
0.000716059
0.000702959
0.000702732
0.000702731
0.000716062
0.000702745
0.000684988
0.000698277
0.00069812
0.000684972
0.000684972
0.000698269
0.000698269
0.000684988
0.000698276
0.000702828
0.000716047
0.00071391
0.000705013
0.000716016
0.000702811
0.000705027
0.00070277
0.000716058
0.000716061
0.000702763
0.000702823
0.000713915
0.000716018
0.000704985
0.000716013
0.000705022
0.000702781
0.000698303
0.000685025
0.000698326
0.000685011
0.000698248
0.000696127
0.000685042
0.000687253
0.000698284
0.000696141
0.000685058
0.000698299
0.000685006
0.000698299
0.000685008
0.000698243
0.000696095
0.000687244
0.000685022
0.000696133
0.000698256
0.000685054
0.000702764
0.000716073
0.000716082
0.00070275
0.00070283
0.000713976
0.000716062
0.000705026
0.000716049
0.000705068
0.000702811
0.000702769
0.000716099
0.000716086
0.000702789
0.000698238
0.000696107
0.000685
0.000687244
0.000698241
0.000696158
0.000685036
0.000698287
0.000684985
0.000698282
0.000684991
0.000698243
0.000696127
0.000687253
0.000685034
0.000696159
0.000698281
0.000685042
0.000698294
0.000685015
0.000698321
0.000684994
0.000716048
0.000716048
0.000702935
0.000702746
0.000702746
0.000716054
0.00070276
0.000685006
0.000698295
0.000698106
0.000684992
0.000684992
0.000698289
0.000698288
0.000685007
0.000698295
0.000702824
0.000713936
0.000716047
0.000705014
0.000716019
0.000705035
0.000702809
0.000702768
0.000716059
0.000716061
0.000702761
0.000702774
0.000716086
0.000716066
0.000702791
0.00069824
0.000696094
0.000687242
0.000685022
0.000696133
0.000698254
0.000685053
0.000698244
0.000696124
0.00068725
0.000685045
0.00069614
0.000698283
0.000685058
0.000698297
0.000685006
0.000698298
0.000685009
0.000698302
0.000685028
0.000698327
0.000685013
0.000716102
0.000702798
0.000716097
0.000702801
0.000698129
0.000685012
0.000685017
0.000698326
0.000698328
0.000685024
0.000698329
0.000685031
0.000698334
0.00068055
0.000667241
0.000680556
0.000667244
0.000680544
0.00068055
0.000667392
0.000667227
0.000667229
0.000649455
0.000662768
0.000649452
0.000662769
0.000662559
0.000649439
0.000649437
0.000662762
0.000662763
0.000667231
0.000680523
0.000680519
0.000667244
0.000667271
0.000680501
0.000678354
0.000669437
0.00068046
0.000667255
0.000669454
0.000667269
0.000680476
0.000678339
0.000669407
0.000680456
0.000667253
0.000669439
0.00066276
0.000649462
0.000662773
0.000649469
0.000662762
0.0006495
0.000662786
0.000649474
0.000662693
0.000660541
0.000649476
0.000651663
0.000662726
0.000660557
0.000649504
0.000662692
0.000660522
0.00064951
0.000651656
0.000662734
0.000660546
0.000649507
0.000680518
0.000680518
0.000667368
0.000667241
0.000667241
0.000680528
0.000667257
0.000649512
0.000662798
0.00066254
0.000649497
0.000649496
0.000662789
0.000662789
0.00064951
0.000662797
0.000667285
0.000680512
0.000678363
0.000669446
0.000680478
0.000667263
0.000669468
0.000667242
0.000680543
0.000680537
0.000667251
0.000667285
0.000678353
0.000680498
0.000669433
0.000680475
0.00066946
0.000667265
0.000662768
0.000649457
0.000662776
0.000649465
0.000662704
0.000660547
0.000649473
0.000651672
0.000662731
0.000660571
0.000649505
0.00066277
0.000649493
0.000662789
0.000649469
0.000662704
0.000660544
0.000651668
0.000649505
0.000660564
0.00066274
0.000649507
0.000667231
0.000680524
0.00068052
0.000667245
0.000667272
0.000678352
0.000680505
0.000669436
0.000680462
0.000669454
0.000667255
0.000667231
0.000680548
0.000680523
0.000667238
0.000662692
0.000660521
0.000649508
0.000651654
0.000662735
0.000660546
0.000649504
0.000662761
0.000649497
0.000662787
0.00064947
0.000662693
0.000660539
0.00065166
0.000649466
0.000660557
0.000662723
0.000649501
0.000662759
0.000649454
0.000662769
0.000649463
0.000680536
0.000680536
0.000667393
0.000667244
0.000667245
0.000680543
0.00066726
0.000649506
0.000662797
0.000662563
0.000649491
0.00064949
0.000662789
0.000662789
0.000649504
0.000662797
0.000667287
0.00067836
0.000680517
0.000669445
0.000680479
0.000669468
0.000667263
0.000667243
0.000680543
0.000680538
0.000667252
0.000667243
0.000680561
0.00068054
0.000667244
0.000662705
0.000660543
0.000651667
0.000649501
0.000660564
0.000662741
0.000649504
0.000662704
0.000660545
0.000651669
0.000649464
0.000660571
0.000662728
0.0006495
0.000662768
0.000649489
0.000662789
0.000649465
0.000662766
0.00064945
0.000662771
0.00064946
0.000680553
0.000667236
0.000680559
0.000667238
0.000662557
0.00064943
0.000649429
0.000662756
0.000662756
0.000649448
0.000662761
0.000649446
0.000662762
0.000644981
0.000631671
0.000644979
0.000631669
0.000644973
0.000644971
0.000631816
0.000631655
0.000631652
0.000613894
0.0006272
0.000613894
0.000627198
0.000626984
0.000613879
0.000613879
0.000627191
0.00062719
0.000631695
0.000645035
0.000645002
0.00063172
0.000631727
0.000644944
0.000642768
0.000633848
0.000644925
0.000631687
0.000633872
0.000631734
0.000644985
0.000642766
0.000633876
0.000644929
0.000631735
0.000633876
0.000627208
0.000613884
0.000627203
0.000613884
0.000627214
0.000613892
0.000627243
0.000613884
0.000627141
0.000624952
0.000613899
0.000616085
0.000627154
0.000624979
0.000613926
0.000627148
0.000624988
0.000613914
0.000616099
0.000627198
0.000624988
0.00061393
0.000645037
0.000645036
0.000631842
0.000631714
0.000631713
0.000645042
0.000631725
0.00061389
0.000627246
0.000627011
0.000613881
0.000613882
0.000627241
0.000627241
0.000613892
0.000627245
0.000631717
0.000644939
0.000642772
0.000633846
0.000644921
0.000631681
0.000633872
0.000631685
0.000645026
0.000644994
0.000631709
0.000631723
0.000642772
0.000644977
0.000633873
0.000644925
0.000633876
0.000631724
0.0006272
0.000613886
0.000627199
0.000613883
0.000627132
0.000624949
0.000613899
0.00061608
0.00062715
0.000624975
0.000613923
0.000627206
0.000613885
0.000627233
0.000613883
0.000627139
0.000624981
0.000616093
0.000613908
0.000624983
0.000627186
0.000613926
0.000631692
0.000645032
0.000644997
0.000631716
0.000631721
0.000642763
0.000644935
0.000633841
0.00064492
0.000633866
0.000631684
0.000631685
0.000644985
0.00064499
0.000631673
0.000627145
0.000624986
0.000613915
0.000616097
0.000627196
0.000624984
0.000613931
0.000627212
0.000613894
0.000627241
0.000613889
0.000627137
0.000624949
0.000616082
0.000613907
0.000624973
0.000627155
0.000613928
0.000627208
0.000613893
0.000627205
0.000613889
0.00064503
0.000645028
0.000631834
0.000631704
0.000631704
0.000645035
0.000631716
0.000613879
0.000627236
0.000627001
0.00061387
0.000613872
0.000627231
0.000627232
0.000613881
0.000627237
0.000631711
0.000642766
0.000644931
0.000633839
0.000644915
0.000633865
0.00063168
0.000631682
0.000645022
0.000644988
0.000631707
0.000631676
0.00064498
0.000644982
0.000631669
0.000627135
0.00062498
0.000616091
0.000613909
0.000624979
0.000627186
0.000613929
0.000627129
0.000624947
0.000616078
0.000613908
0.00062497
0.000627152
0.000613927
0.000627205
0.000613888
0.000627232
0.000613888
0.000627199
0.000613895
0.000627201
0.000613889
0.000644976
0.000631672
0.000644974
0.000631671
0.000626983
0.000613888
0.000613888
0.000627195
0.000627194
0.000613903
0.000627204
0.000613903
0.000627203
0.000609425
0.000596118
0.000609425
0.000596117
0.000609417
0.000609417
0.000596243
0.000596106
0.000596105
0.000578309
0.000591644
0.00057831
0.000591643
0.000591411
0.000578301
0.0005783
0.00059164
0.000591639
0.00059607
0.000609406
0.000609399
0.000596051
0.000596124
0.000609368
0.00060719
0.000598278
0.000609339
0.000596118
0.000598295
0.00059612
0.000609367
0.000607207
0.000598293
0.000609341
0.000596073
0.000598311
0.000591598
0.000578298
0.00059163
0.000578269
0.000591588
0.000578236
0.000591571
0.000578261
0.000591537
0.000589392
0.000578321
0.00058051
0.000591587
0.000589402
0.000578322
0.000591532
0.000589385
0.000578255
0.00058051
0.000591531
0.000589412
0.000578313
0.000609398
0.0006094
0.000596245
0.00059603
0.000596031
0.000609403
0.000596043
0.000578223
0.000591557
0.000591403
0.000578209
0.000578207
0.000591552
0.000591553
0.000578221
0.000591558
0.000596126
0.00060937
0.000607187
0.000598278
0.000609337
0.00059612
0.000598293
0.000596071
0.0006094
0.0006094
0.000596051
0.000596122
0.000607202
0.000609363
0.000598287
0.000609339
0.000598306
0.000596072
0.000591597
0.0005783
0.000591631
0.000578274
0.000591539
0.000589391
0.00057832
0.000580508
0.000591587
0.000589401
0.000578323
0.000591589
0.000578255
0.000591576
0.000578267
0.000591534
0.000589374
0.000580502
0.00057827
0.000589405
0.000591533
0.000578315
0.000596073
0.00060941
0.000609405
0.000596054
0.00059613
0.000607193
0.000609377
0.000598289
0.000609343
0.000598304
0.00059612
0.000596081
0.000609423
0.000609408
0.000596099
0.000591537
0.000589387
0.000578253
0.000580514
0.000591534
0.000589418
0.000578311
0.000591588
0.000578231
0.000591573
0.000578254
0.000591542
0.000589402
0.000580518
0.000578305
0.000589413
0.000591584
0.000578319
0.000591597
0.000578279
0.000591622
0.000578261
0.000609387
0.000609389
0.000596239
0.00059603
0.000596031
0.000609393
0.000596045
0.000578253
0.000591566
0.000591398
0.000578237
0.000578235
0.000591559
0.00059156
0.00057825
0.000591566
0.000596131
0.00060719
0.000609378
0.000598289
0.000609342
0.000598302
0.000596121
0.000596074
0.000609404
0.000609406
0.000596053
0.000596082
0.000609425
0.000609408
0.0005961
0.000591538
0.000589377
0.000580505
0.000578267
0.00058941
0.000591535
0.000578313
0.000591543
0.0005894
0.000580515
0.000578304
0.000589411
0.000591584
0.00057832
0.000591589
0.00057825
0.000591576
0.00057826
0.000591596
0.00057828
0.000591622
0.000578265
0.000609432
0.000596113
0.000609432
0.000596111
0.000591417
0.000578278
0.000578277
0.000591631
0.000591629
0.000578286
0.000591633
0.000578286
0.000591631
0.000573822
0.000560456
0.000573824
0.000560465
0.000573822
0.000573823
0.000560644
0.000560448
0.000560454
0.00054261
0.000555966
0.000542624
0.000555978
0.000555797
0.000542598
0.000542608
0.000555964
0.000555972
0.000560444
0.000573759
0.000573777
0.000560429
0.000560505
0.00057378
0.000571617
0.000562705
0.000573733
0.000560484
0.000562716
0.000560497
0.000573718
0.000571606
0.000562654
0.000573724
0.00056045
0.000562697
0.00055596
0.000542616
0.000555971
0.00054262
0.000555957
0.000542631
0.000555955
0.000542623
0.00055591
0.000553788
0.000542637
0.000544882
0.000555936
0.000553804
0.00054267
0.000555904
0.000553743
0.000542649
0.000544863
0.000555913
0.000553783
0.00054267
0.000573739
0.000573737
0.000560606
0.000560411
0.000560409
0.000573744
0.000560422
0.000542645
0.000555952
0.000555764
0.00054263
0.000542631
0.000555946
0.000555944
0.000542648
0.00055595
0.000560518
0.000573781
0.000571613
0.000562706
0.000573736
0.000560492
0.000562714
0.000560467
0.000573785
0.000573787
0.000560472
0.000560513
0.000571599
0.000573738
0.000562659
0.000573728
0.000562695