/*--------------------------------*- C++ -*----------------------------------*\
| =========                 |                                                 |
| \\      /  F ield         | OpenFOAM: The Open Source CFD Toolbox           |
|  \\    /   O peration     | Version:  2312                                  |
|   \\  /    A nd           | Website:  www.openfoam.com                      |
|    \\/     M anipulation  |                                                 |
\*---------------------------------------------------------------------------*/
FoamFile
{
    version     2.0;
    format      ascii;
    arch        "LSB;label=32;scalar=64";
    class       volScalarField;
    location    "900";
    object      epsilon;
}
// * * * * * * * * * * * * * * * * * * * * * * * * * * * * * * * * * * * * * //

dimensions      [0 2 -3 0 0 0 0];

internalField   nonuniform List<scalar> 
43008
(
1.40293e-07
2.15343e-07
1.36481e-07
2.2169e-07
2.21712e-07
3.3459e-07
3.14597e-07
3.29651e-07
2.15364e-07
2.15405e-07
2.19948e-07
2.19995e-07
3.29183e-07
2.15337e-07
2.15404e-07
2.19918e-07
2.19996e-07
2.19906e-07
2.19963e-07
3.14502e-07
3.29904e-07
2.15365e-07
2.1993e-07
2.19951e-07
3.29402e-07
3.34076e-07
2.21737e-07
2.21781e-07
3.34516e-07
2.21707e-07
2.21784e-07
2.21748e-07
3.34176e-07
2.21736e-07
3.46769e-06
8.88392e-06
3.42483e-06
8.88945e-06
1.85245e-05
3.46849e-06
8.88514e-06
3.42438e-06
8.89071e-06
1.40297e-07
1.40302e-07
1.40299e-07
1.37357e-07
1.37362e-07
1.37368e-07
1.37365e-07
9.8791e-07
2.16721e-07
2.66114e-06
1.59059e-07
1.8535e-05
1.85254e-05
9.88213e-07
1.59534e-07
2.63307e-06
2.16744e-07
9.61432e-07
1.59077e-07
2.66129e-06
3.19357e-07
5.05948e-06
5.0613e-06
3.58501e-06
8.89738e-06
3.54922e-06
8.90248e-06
1.85006e-05
1.84919e-05
3.58572e-06
8.89866e-06
3.54907e-06
8.9038e-06
1.36485e-07
1.36491e-07
1.36488e-07
1.07205e-06
2.72075e-06
1.58245e-07
2.23619e-07
1.04487e-06
2.74542e-06
1.58104e-07
1.85014e-05
1.84926e-05
1.0723e-06
1.58271e-07
2.72069e-06
2.23644e-07
1.04498e-06
1.58127e-07
2.74764e-06
5.09481e-06
5.09656e-06
3.39552e-07
5.10902e-06
5.10878e-06
1.8532e-05
1.85221e-05
1.85348e-05
1.85251e-05
5.04208e-06
5.0454e-06
3.19709e-07
5.06085e-06
5.06143e-06
1.85054e-05
1.85145e-05
1.85084e-05
1.85175e-05
3.2383e-07
5.08597e-06
5.08659e-06
5.06898e-06
5.07229e-06
3.46775e-06
8.88397e-06
3.42478e-06
8.88956e-06
9.88618e-07
2.63302e-06
1.59517e-07
2.16761e-07
9.60673e-07
2.66118e-06
1.59063e-07
9.88038e-07
2.63377e-06
1.59526e-07
2.16805e-07
9.61254e-07
2.66159e-06
1.5907e-07
3.48968e-06
8.89612e-06
8.8908e-06
3.52906e-06
3.48957e-06
8.89636e-06
8.89091e-06
3.52893e-06
1.00218e-06
2.18289e-07
2.70441e-06
1.58427e-07
2.67797e-06
1.58726e-07
1.03042e-06
1.00267e-06
2.18333e-07
2.70488e-06
1.58434e-07
2.67871e-06
1.58734e-07
1.02989e-06
3.19313e-07
5.06099e-06
5.05953e-06
1.85231e-05
1.8508e-05
1.8517e-05
3.24256e-07
5.0863e-06
5.08462e-06
5.07197e-06
5.07057e-06
1.85062e-05
1.85155e-05
9.8809e-07
2.63353e-06
1.59526e-07
2.16733e-07
9.61364e-07
2.66163e-06
1.5907e-07
3.46761e-06
8.88458e-06
3.42493e-06
8.89013e-06
9.87873e-07
1.59535e-07
2.63369e-06
2.16809e-07
9.61371e-07
1.59079e-07
2.66175e-06
3.48922e-06
8.89744e-06
8.89202e-06
3.52946e-06
1.00284e-06
2.18262e-07
2.70491e-06
1.58436e-07
2.67854e-06
1.58736e-07
1.02988e-06
3.48982e-06
8.89686e-06
8.89151e-06
3.52899e-06
1.00291e-06
2.18334e-07
1.58444e-07
2.70505e-06
1.58745e-07
2.67873e-06
1.02977e-06
3.46737e-06
8.88989e-06
9.87851e-07
2.16773e-07
1.59061e-07
2.66115e-06
3.46757e-06
8.88976e-06
1.00277e-06
2.18245e-07
2.70432e-06
1.5842e-07
2.67803e-06
1.58718e-07
1.02967e-06
3.48982e-06
8.89653e-06
8.89118e-06
3.52956e-06
1.00286e-06
2.18301e-07
1.58426e-07
2.70601e-06
1.58726e-07
2.67816e-06
1.0297e-06
3.48986e-06
8.89644e-06
8.89101e-06
3.5288e-06
5.04514e-06
5.0436e-06
3.19859e-07
5.06115e-06
5.05958e-06
1.85326e-05
1.85231e-05
1.85087e-05
1.85179e-05
3.23826e-07
5.08634e-06
5.0848e-06
5.07202e-06
5.07051e-06
1.85063e-05
1.85155e-05
9.88078e-07
1.59533e-07
2.63374e-06
2.16763e-07
9.61576e-07
1.59075e-07
2.6619e-06
3.46779e-06
8.88445e-06
3.42508e-06
8.89001e-06
3.46764e-06
8.88478e-06
3.42515e-06
8.89035e-06
1.00283e-06
2.18268e-07
1.58441e-07
2.70449e-06
1.58743e-07
2.67806e-06
1.0301e-06
1.00288e-06
2.18288e-07
1.58441e-07
2.70517e-06
1.58741e-07
2.67868e-06
1.03003e-06
3.48988e-06
8.89672e-06
8.89133e-06
3.52919e-06
3.48995e-06
8.89707e-06
8.8917e-06
3.52894e-06
1.85238e-05
1.85258e-05
3.24099e-07
5.08461e-06
5.0864e-06
5.07028e-06
5.07208e-06
1.85071e-05
1.85162e-05
1.85091e-05
1.85183e-05
1.8498e-05
1.84894e-05
1.8501e-05
1.84922e-05
5.0934e-06
5.0966e-06
3.40494e-07
5.1088e-06
5.11088e-06
3.58488e-06
8.89756e-06
3.54925e-06
8.90275e-06
1.07274e-06
2.72036e-06
1.58255e-07
2.23666e-07
1.0444e-06
2.74747e-06
1.58111e-07
1.07252e-06
2.72096e-06
1.58262e-07
2.23716e-07
1.04478e-06
2.74814e-06
1.58117e-07
5.09627e-06
5.09499e-06
3.40778e-07
5.11054e-06
5.10687e-06
1.84988e-05
1.849e-05
1.07234e-06
2.72095e-06
1.58265e-07
2.23636e-07
1.04496e-06
2.74804e-06
1.58121e-07
3.58582e-06
8.89809e-06
3.54941e-06
8.90326e-06
1.07221e-06
1.58276e-07
2.72127e-06
2.2372e-07
1.04505e-06
1.5813e-07
2.74616e-06
3.58544e-06
8.89781e-06
3.54884e-06
8.90295e-06
1.07258e-06
1.58254e-07
2.71972e-06
2.2368e-07
1.04496e-06
1.58109e-07
2.74772e-06
3.58519e-06
8.89762e-06
3.54942e-06
8.90284e-06
5.09636e-06
5.09488e-06
3.4061e-07
5.10867e-06
5.10715e-06
1.8499e-05
1.84902e-05
1.07217e-06
1.58271e-07
2.72123e-06
2.23667e-07
1.04503e-06
1.58126e-07
2.74613e-06
3.58484e-06
8.89795e-06
3.54952e-06
8.90315e-06
3.58563e-06
8.89831e-06
3.54956e-06
8.90348e-06
1.84997e-05
1.84909e-05
1.85018e-05
1.8493e-05
1.21037e-05
3.45793e-06
1.06414e-05
4.33909e-06
1.06397e-05
4.33165e-06
1.21066e-05
2.25124e-05
7.18604e-06
8.88604e-06
2.25106e-05
7.18581e-06
1.21035e-05
3.43501e-06
1.06381e-05
4.30667e-06
1.21008e-05
1.06396e-05
4.31454e-06
2.25013e-05
7.19241e-06
8.88736e-06
7.19216e-06
2.25031e-05
1.85331e-05
1.85255e-05
1.21039e-05
3.45725e-06
4.33894e-06
1.06417e-05
4.33175e-06
1.06399e-05
1.21068e-05
2.25123e-05
7.18469e-06
8.8873e-06
2.25104e-05
7.18679e-06
1.21037e-05
3.43583e-06
4.30666e-06
1.06384e-05
1.21009e-05
4.31436e-06
1.06399e-05
2.25011e-05
7.19248e-06
8.88859e-06
7.19153e-06
2.25029e-05
1.8534e-05
1.85264e-05
9.71725e-06
2.1993e-05
2.19925e-05
2.19926e-05
2.19921e-05
9.71692e-06
3.80599e-06
5.04586e-06
1.7476e-06
8.97449e-06
3.81285e-06
5.04771e-06
1.74911e-06
8.97913e-06
9.71378e-06
2.20033e-05
2.20027e-05
3.8229e-06
8.98399e-06
5.05738e-06
1.77233e-06
1.76524e-06
8.97772e-06
3.82853e-06
3.82986e-06
8.98865e-06
5.05919e-06
1.77386e-06
1.76686e-06
8.98271e-06
3.83544e-06
1.21172e-05
3.57692e-06
1.06555e-05
4.42445e-06
1.06525e-05
4.41876e-06
1.21204e-05
2.24745e-05
7.20661e-06
8.89936e-06
2.24729e-05
7.20643e-06
1.21169e-05
3.55785e-06
1.06483e-05
4.39888e-06
1.21137e-05
1.06513e-05
4.40495e-06
2.24634e-05
7.2099e-06
8.90055e-06
7.21011e-06
2.2465e-05
1.84999e-05
1.84926e-05
1.21173e-05
3.57677e-06
4.4245e-06
1.06557e-05
4.41884e-06
1.06526e-05
1.21205e-05
2.24744e-05
7.20613e-06
8.90068e-06
2.24728e-05
7.20659e-06
1.2117e-05
3.5582e-06
4.39895e-06
1.06484e-05
1.21138e-05
4.40501e-06
1.06515e-05
2.24633e-05
7.20992e-06
8.90185e-06
7.2099e-06
2.24648e-05
1.85006e-05
1.84933e-05
9.72657e-06
2.19519e-05
2.19514e-05
2.19516e-05
2.19511e-05
9.72545e-06
3.89039e-06
1.83745e-06
9.00497e-06
5.09628e-06
3.88532e-06
1.8442e-06
9.01057e-06
3.89895e-06
1.83909e-06
9.00998e-06
5.09795e-06
3.89197e-06
1.84587e-06
9.01534e-06
9.72386e-06
2.19618e-05
2.19614e-05
9.72478e-06
2.19621e-05
2.19616e-05
3.90535e-06
9.01875e-06
5.10567e-06
1.86723e-06
1.86062e-06
9.01348e-06
3.90931e-06
3.91115e-06
9.02356e-06
5.10789e-06
1.8695e-06
1.86195e-06
9.01844e-06
3.91822e-06
1.85309e-05
1.8523e-05
1.85338e-05
1.85261e-05
9.71762e-06
2.19933e-05
2.19927e-05
2.1993e-05
2.19923e-05
9.71727e-06
3.80576e-06
1.74011e-06
8.96768e-06
5.0473e-06
3.80004e-06
8.97425e-06
1.74716e-06
3.81277e-06
1.74163e-06
8.9729e-06
5.04772e-06
3.807e-06
8.97944e-06
1.74904e-06
9.71418e-06
2.20034e-05
2.20027e-05
9.7144e-06
2.20037e-05
2.2003e-05
3.82283e-06
8.98368e-06
5.05604e-06
1.77205e-06
8.97747e-06
3.82806e-06
1.76508e-06
3.82972e-06
8.98894e-06
5.0593e-06
1.77383e-06
8.98264e-06
3.83518e-06
1.76655e-06
1.85061e-05
1.85136e-05
1.85092e-05
1.85167e-05
9.7199e-06
2.19827e-05
2.1982e-05
9.7205e-06
2.19828e-05
2.19824e-05
3.86563e-06
1.82053e-06
5.08147e-06
9.00169e-06
8.99592e-06
1.8136e-06
3.87035e-06
3.87267e-06
1.82215e-06
5.085e-06
9.00702e-06
9.00129e-06
1.81517e-06
3.87747e-06
3.8495e-06
8.98678e-06
1.7895e-06
5.07345e-06
3.84464e-06
8.9929e-06
1.79658e-06
3.85663e-06
8.99202e-06
1.79108e-06
5.07434e-06
3.85157e-06
8.9982e-06
1.79834e-06
9.72298e-06
2.19722e-05
2.19721e-05
2.19719e-05
2.19717e-05
9.7222e-06
1.21039e-05
3.45779e-06
1.06414e-05
4.33904e-06
1.06396e-05
4.33125e-06
1.21068e-05
2.25122e-05
7.18299e-06
8.88611e-06
2.25104e-05
7.18526e-06
1.21038e-05
3.43507e-06
1.06381e-05
4.30621e-06
1.06395e-05
1.2101e-05
4.31458e-06
2.25011e-05
7.19094e-06
8.88747e-06
7.18984e-06
2.25028e-05
1.21099e-05
1.06418e-05
4.35533e-06
3.499e-06
1.21069e-05
1.06441e-05
4.3623e-06
2.24825e-05
8.89409e-06
7.20274e-06
2.2484e-05
7.20269e-06
2.24936e-05
7.19736e-06
8.89288e-06
2.24919e-05
7.19723e-06
1.21102e-05
3.52003e-06
1.06474e-05
4.3842e-06
1.21134e-05
1.06447e-05
4.37767e-06
1.21101e-05
1.06417e-05
4.35497e-06
3.49904e-06
1.21071e-05
1.0644e-05
4.36229e-06
2.24822e-05
8.89434e-06
7.20098e-06
7.20036e-06
2.24837e-05
2.24934e-05
7.19489e-06
8.8931e-06
2.24917e-05
7.19634e-06
1.21104e-05
3.52008e-06
1.06474e-05
4.38424e-06
1.06446e-05
4.37736e-06
1.21136e-05
9.71761e-06
2.19931e-05
2.19933e-05
2.19926e-05
2.19929e-05
9.71733e-06
3.81408e-06
5.04728e-06
8.97931e-06
1.74996e-06
3.80699e-06
5.04578e-06
1.74777e-06
8.97489e-06
9.71418e-06
2.20036e-05
2.20039e-05
3.82871e-06
8.98884e-06
5.05914e-06
1.77457e-06
8.98204e-06
1.76587e-06
3.83635e-06
3.82162e-06
8.98436e-06
5.05757e-06
1.7726e-06
1.76458e-06
8.9776e-06
3.8292e-06
1.85317e-05
1.8524e-05
1.85087e-05
1.85162e-05
9.72004e-06
2.19824e-05
2.19826e-05
9.72054e-06
2.19827e-05
2.1983e-05
3.8716e-06
1.82292e-06
5.08468e-06
9.00694e-06
1.81454e-06
9.00053e-06
3.8788e-06
3.86454e-06
1.8208e-06
5.08339e-06
9.00245e-06
8.99597e-06
1.81326e-06
3.87149e-06
3.85824e-06
8.99147e-06
1.79061e-06
5.07402e-06
1.79883e-06
3.85067e-06
8.99809e-06
3.85105e-06
8.98694e-06
1.78904e-06
5.07229e-06
3.84352e-06
8.99353e-06
1.79671e-06
9.72303e-06
2.19723e-05
2.19727e-05
2.19721e-05
2.19723e-05
9.7223e-06
1.85069e-05
1.85145e-05
1.21039e-05
3.45807e-06
1.06415e-05
4.33904e-06
1.06398e-05
4.33123e-06
1.21068e-05
2.25113e-05
7.18387e-06
8.88675e-06
2.25095e-05
7.18378e-06
1.21037e-05
3.43503e-06
1.06382e-05
4.30624e-06
1.06397e-05
1.2101e-05
4.31456e-06
2.25002e-05
7.19033e-06
8.88804e-06
7.19002e-06
2.25019e-05
1.21101e-05
4.3554e-06
1.0642e-05
3.49955e-06
1.2107e-05
4.36214e-06
1.06443e-05
2.24823e-05
8.8954e-06
7.20262e-06
2.24839e-05
7.20171e-06
2.24934e-05
7.19643e-06
8.89419e-06
2.24917e-05
7.19797e-06
1.21104e-05
3.51981e-06
4.38412e-06
1.06476e-05
1.21135e-05
4.37778e-06
1.06449e-05
1.21101e-05
1.06419e-05
4.35496e-06
3.49897e-06
1.21071e-05
1.06442e-05
4.36234e-06
2.24814e-05
8.89486e-06
7.20057e-06
7.20055e-06
2.2483e-05
2.24925e-05
7.19525e-06
8.89362e-06
2.24908e-05
7.1952e-06
1.21104e-05
3.52031e-06
1.06475e-05
4.38437e-06
1.06448e-05
4.37728e-06
1.21135e-05
1.21032e-05
3.45816e-06
4.33883e-06
1.06414e-05
4.33112e-06
1.06396e-05
1.2106e-05
2.24992e-05
7.19168e-06
8.88781e-06
7.19078e-06
2.25013e-05
1.21036e-05
3.45814e-06
1.06412e-05
4.33899e-06
1.06394e-05
4.33136e-06
1.21065e-05
2.25e-05
7.18965e-06
8.88767e-06
7.19015e-06
2.25017e-05
1.21094e-05
4.35493e-06
1.06418e-05
3.49884e-06
1.21064e-05
4.36203e-06
1.06441e-05
2.24804e-05
8.89455e-06
7.20162e-06
7.20129e-06
2.24824e-05
2.24918e-05
7.19605e-06
8.89326e-06
2.24898e-05
7.19697e-06
1.21097e-05
3.52003e-06
4.38409e-06
1.06474e-05
4.37733e-06
1.06447e-05
1.21128e-05
1.21098e-05
1.06416e-05
4.35503e-06
3.4988e-06
1.21068e-05
1.06439e-05
4.36223e-06
2.24811e-05
8.8944e-06
7.20009e-06
7.2e-06
2.24828e-05
2.24923e-05
7.19555e-06
8.89318e-06
2.24906e-05
7.19582e-06
1.21101e-05
3.5203e-06
1.06472e-05
4.38422e-06
1.06445e-05
4.37738e-06
1.21132e-05
9.71713e-06
2.19924e-05
2.19927e-05
2.19921e-05
2.19923e-05
9.71682e-06
3.81276e-06
1.74166e-06
8.97212e-06
5.04751e-06
8.9792e-06
3.80693e-06
1.74907e-06
3.80585e-06
1.74005e-06
8.96773e-06
5.04595e-06
1.7473e-06
3.79978e-06
8.97424e-06
9.71368e-06
2.20023e-05
2.20025e-05
2.20027e-05
9.71375e-06
2.2003e-05
3.82968e-06
8.98873e-06
5.05898e-06
1.77386e-06
8.98187e-06
1.76668e-06
3.83527e-06
3.82254e-06
8.98368e-06
5.05746e-06
1.77215e-06
1.76505e-06
8.97742e-06
3.82821e-06
1.85316e-05
1.8524e-05
1.85096e-05
1.8517e-05
9.71949e-06
2.19818e-05
2.1982e-05
9.72002e-06
2.19821e-05
2.19824e-05
3.87261e-06
1.82229e-06
5.08473e-06
9.00651e-06
1.81531e-06
9.00073e-06
3.87757e-06
3.86555e-06
1.82057e-06
5.08325e-06
9.00182e-06
8.99601e-06
1.81364e-06
3.87049e-06
3.85666e-06
8.99123e-06
1.79121e-06
5.07406e-06
1.79831e-06
3.85155e-06
8.99784e-06
3.8496e-06
8.98681e-06
1.78956e-06
5.07252e-06
3.84443e-06
8.99299e-06
1.79658e-06
9.72253e-06
2.19718e-05
2.19721e-05
2.19715e-05
2.19717e-05
9.72178e-06
1.85072e-05
1.85146e-05
1.21034e-05
3.45822e-06
4.33881e-06
1.06415e-05
4.33179e-06
1.06397e-05
1.21063e-05
2.25108e-05
7.18477e-06
8.88662e-06
7.18513e-06
2.2509e-05
1.21032e-05
3.43512e-06
4.30666e-06
1.06382e-05
4.31423e-06
1.21004e-05
1.06396e-05
2.24996e-05
7.1907e-06
8.88789e-06
7.19089e-06
2.25014e-05
1.21041e-05
3.4583e-06
4.33922e-06
1.06416e-05
4.33129e-06
1.06398e-05
1.2107e-05
2.25121e-05
7.18401e-06
8.88694e-06
2.25103e-05
7.18442e-06
1.21039e-05
3.43501e-06
4.30624e-06
1.06383e-05
1.21012e-05
4.31465e-06
1.06397e-05
2.25009e-05
7.18958e-06
8.88822e-06
7.18974e-06
2.25027e-05
1.21095e-05
4.35542e-06
1.06419e-05
3.49921e-06
1.21065e-05
4.36198e-06
1.06441e-05
2.24808e-05
8.89473e-06
7.20155e-06
7.20145e-06
2.24824e-05
2.24919e-05
7.19678e-06
8.8935e-06
2.24902e-05
7.19713e-06
1.21099e-05
3.52036e-06
4.38405e-06
1.06475e-05
4.37775e-06
1.06447e-05
1.2113e-05
1.21103e-05
4.35495e-06
1.06419e-05
3.4991e-06
1.21072e-05
4.36236e-06
1.06442e-05
2.24822e-05
8.89503e-06
7.20037e-06
7.20047e-06
2.24839e-05
2.24933e-05
7.19562e-06
8.89381e-06
2.24916e-05
7.1956e-06
1.21106e-05
3.52043e-06
4.3844e-06
1.06476e-05
4.37735e-06
1.06448e-05
1.21137e-05
1.85324e-05
1.85248e-05
1.85344e-05
1.85268e-05
9.71961e-06
2.19824e-05
2.19819e-05
9.72015e-06
2.19827e-05
2.19822e-05
3.86485e-06
1.82065e-06
5.08305e-06
9.00202e-06
3.87188e-06
1.8139e-06
8.99616e-06
3.87179e-06
1.82226e-06
5.08479e-06
9.00676e-06
3.87896e-06
1.81548e-06
9.0012e-06
3.85124e-06
8.98706e-06
1.78975e-06
5.07244e-06
3.84461e-06
1.79675e-06
8.99318e-06
3.8582e-06
8.992e-06
1.79137e-06
5.07427e-06
3.85156e-06
1.79844e-06
8.99795e-06
9.72266e-06
2.19724e-05
2.19719e-05
9.72192e-06
2.19721e-05
2.19716e-05
1.85079e-05
1.85154e-05
1.85099e-05
1.85174e-05
1.84974e-05
1.84901e-05
1.85002e-05
1.84929e-05
9.72685e-06
2.19519e-05
2.19518e-05
2.19515e-05
2.19514e-05
9.72577e-06
3.89018e-06
1.83704e-06
9.00466e-06
5.09752e-06
3.88569e-06
9.01026e-06
1.84417e-06
3.8973e-06
1.83876e-06
9.01003e-06
5.09818e-06
3.89278e-06
9.01561e-06
1.84577e-06
9.72415e-06
2.19617e-05
2.19615e-05
9.72509e-06
2.1962e-05
2.19618e-05
3.90526e-06
9.0185e-06
5.10456e-06
1.86714e-06
9.01319e-06
3.90885e-06
1.8602e-06
3.91237e-06
9.02386e-06
5.10758e-06
1.86888e-06
9.01857e-06
3.916e-06
1.86192e-06
1.21174e-05
3.57705e-06
1.06559e-05
4.42452e-06
1.0652e-05
4.4184e-06
1.21206e-05
2.24742e-05
7.20438e-06
8.89963e-06
2.24727e-05
7.20496e-06
1.21171e-05
3.55758e-06
1.06481e-05
4.39851e-06
1.06513e-05
1.21139e-05
4.40497e-06
2.24632e-05
7.20837e-06
8.90076e-06
7.20824e-06
2.24647e-05
9.72686e-06
2.19516e-05
2.19521e-05
2.19513e-05
2.19518e-05
9.72578e-06
3.89891e-06
1.83838e-06
9.0092e-06
5.09783e-06
9.01538e-06
3.89187e-06
1.846e-06
3.89e-06
1.83688e-06
9.00478e-06
5.09605e-06
1.84422e-06
3.88517e-06
9.011e-06
9.72421e-06
2.19616e-05
2.1962e-05
2.19618e-05
9.72508e-06
2.19624e-05
3.91085e-06
9.02372e-06
5.10728e-06
1.86888e-06
9.01765e-06
1.86172e-06
3.91843e-06
3.90507e-06
9.0193e-06
5.10644e-06
1.86742e-06
1.86002e-06
9.01326e-06
3.90899e-06
1.8498e-05
1.84907e-05
1.21173e-05
3.57674e-06
1.06556e-05
4.42521e-06
1.06525e-05
4.418e-06
1.21205e-05
2.24735e-05
7.20442e-06
8.90014e-06
2.24719e-05
7.20412e-06
1.2117e-05
3.55808e-06
1.06483e-05
4.39846e-06
1.06513e-05
1.21138e-05
4.4053e-06
2.24624e-05
7.20797e-06
8.90134e-06
7.20821e-06
2.24639e-05
1.21167e-05
3.57638e-06
4.42452e-06
1.06561e-05
4.41829e-06
1.0652e-05
1.21199e-05
2.24729e-05
7.2055e-06
8.8998e-06
7.20565e-06
2.2471e-05
1.21163e-05
3.55824e-06
4.39847e-06
1.06481e-05
4.40476e-06
1.21132e-05
1.06514e-05
2.24615e-05
7.20906e-06
8.90105e-06
7.20922e-06
2.24634e-05
1.21171e-05
3.5768e-06
1.06559e-05
4.42462e-06
1.06518e-05
4.41834e-06
1.21203e-05
2.24732e-05
7.20417e-06
8.89971e-06
2.24716e-05
7.20418e-06
1.21167e-05
3.55792e-06
1.0648e-05
4.39848e-06
1.21135e-05
1.06512e-05
4.40491e-06
2.24621e-05
7.20755e-06
8.90086e-06
7.20776e-06
2.24636e-05
9.7264e-06
2.19513e-05
2.19515e-05
2.1951e-05
2.19512e-05
9.7253e-06
3.89736e-06
1.8388e-06
9.0095e-06
5.09781e-06
9.01514e-06
3.89275e-06
1.84601e-06
3.89156e-06
1.83716e-06
9.00473e-06
5.09629e-06
1.84414e-06
3.88533e-06
9.01038e-06
9.72371e-06
2.19613e-05
2.19615e-05
2.19615e-05
9.72465e-06
2.19618e-05
3.91227e-06
9.02336e-06
5.1078e-06
1.86916e-06
9.01806e-06
1.8619e-06
3.91623e-06
3.90401e-06
9.01858e-06
5.10633e-06
1.86714e-06
1.86034e-06
9.01331e-06
3.91138e-06
1.84982e-05
1.84909e-05
1.21168e-05
3.5774e-06
4.42447e-06
1.06561e-05
4.41864e-06
1.06521e-05
1.212e-05
2.24729e-05
7.20563e-06
8.90001e-06
7.20568e-06
2.24714e-05
1.21165e-05
3.55781e-06
4.39882e-06
1.06482e-05
4.40499e-06
1.21133e-05
1.06514e-05
2.24619e-05
7.2091e-06
8.9012e-06
7.2093e-06
2.24633e-05
1.21175e-05
3.5769e-06
4.42468e-06
1.06562e-05
4.41832e-06
1.06521e-05
1.21207e-05
2.24744e-05
7.20454e-06
8.90034e-06
2.24728e-05
7.20471e-06
1.21172e-05
3.55805e-06
4.39852e-06
1.06483e-05
1.2114e-05
4.40512e-06
1.06516e-05
2.24633e-05
7.20826e-06
8.90156e-06
7.20812e-06
2.24649e-05
1.84989e-05
1.84916e-05
1.8501e-05
1.84937e-05
1.27761e-07
1.27759e-07
1.39263e-07
1.26355e-07
1.26353e-07
1.21063e-07
1.22601e-07
1.54929e-06
3.14712e-07
6.54318e-07
6.54892e-07
1.22375e-07
1.22373e-07
1.35661e-07
1.21124e-07
1.21122e-07
1.15233e-07
1.16643e-07
1.64858e-06
7.08198e-07
7.0821e-07
3.34387e-07
1.64076e-06
7.10798e-07
7.11486e-07
1.54911e-06
6.51508e-07
6.51804e-07
3.15078e-07
1.54182e-06
6.5414e-07
6.54612e-07
1.61712e-06
3.28904e-07
6.96267e-07
6.96733e-07
6.93775e-07
6.93955e-07
1.62346e-06
1.54959e-06
3.146e-07
6.55111e-07
6.54656e-07
1.61648e-06
3.29327e-07
6.96782e-07
6.97207e-07
6.94003e-07
6.92848e-07
1.62438e-06
1.54916e-06
6.51018e-07
6.51704e-07
3.15152e-07
6.5433e-07
1.54177e-06
6.55654e-07
1.61698e-06
3.28792e-07
6.97778e-07
6.96692e-07
6.92884e-07
6.93623e-07
1.62383e-06
1.61649e-06
3.29387e-07
6.96336e-07
6.97096e-07
1.62478e-06
6.93905e-07
6.93866e-07
1.64778e-06
7.07975e-07
7.08307e-07
3.3489e-07
1.64136e-06
7.10763e-07
7.11244e-07
1.64866e-06
7.08338e-07
7.0737e-07
3.34776e-07
7.11711e-07
1.64082e-06
7.1126e-07
1.64764e-06
7.07698e-07
7.07852e-07
3.35092e-07
7.11334e-07
1.64142e-06
7.11091e-07
1.27762e-07
1.27758e-07
1.39267e-07
1.26356e-07
1.26353e-07
1.21063e-07
1.22601e-07
1.27764e-07
1.27763e-07
1.39273e-07
1.26358e-07
1.26356e-07
1.21064e-07
1.22602e-07
1.27762e-07
1.27762e-07
1.39269e-07
1.26356e-07
1.26355e-07
1.21064e-07
1.22602e-07
1.38282e-07
1.23662e-07
1.23661e-07
1.2499e-07
1.24988e-07
1.19558e-07
1.18085e-07
1.38286e-07
1.23664e-07
1.2366e-07
1.24991e-07
1.24987e-07
1.19558e-07
1.18085e-07
1.38292e-07
1.23667e-07
1.23664e-07
1.24994e-07
1.24992e-07
1.19559e-07
1.18086e-07
1.38288e-07
1.23664e-07
1.23663e-07
1.24991e-07
1.24991e-07
1.19559e-07
1.18085e-07
4.11959e-07
9.81976e-07
1.29424e-06
3.3825e-07
1.28709e-06
3.37703e-07
4.14141e-07
5.77486e-07
1.92439e-06
2.65601e-06
8.87665e-07
8.83851e-07
1.91861e-06
5.78261e-07
4.12908e-07
9.82041e-07
3.3835e-07
1.29445e-06
3.37784e-07
1.28768e-06
4.13051e-07
5.68286e-07
8.67547e-07
1.89475e-06
2.6384e-06
5.67487e-07
8.71208e-07
1.90074e-06
4.06018e-07
9.67517e-07
3.32523e-07
1.26446e-06
4.05866e-07
3.331e-07
1.27112e-06
5.77402e-07
1.92517e-06
2.65599e-06
8.88132e-07
8.83798e-07
1.91851e-06
5.78344e-07
1.56759e-06
3.19433e-07
6.68247e-07
6.68766e-07
6.65643e-07
6.65714e-07
1.57427e-06
1.22376e-07
1.22371e-07
1.35666e-07
1.21125e-07
1.21121e-07
1.15233e-07
1.16643e-07
1.22379e-07
1.22377e-07
1.35673e-07
1.21128e-07
1.21126e-07
1.15234e-07
1.16645e-07
1.22376e-07
1.22376e-07
1.3567e-07
1.21125e-07
1.21125e-07
1.15233e-07
1.16644e-07
4.43124e-07
1.06611e-06
1.38626e-06
3.61165e-07
1.3789e-06
3.60532e-07
4.44935e-07
6.10182e-07
9.33429e-07
1.98799e-06
2.72508e-06
6.09321e-07
9.36833e-07
1.99354e-06
4.36785e-07
1.05085e-06
1.35615e-06
3.5431e-07
4.34432e-07
1.3636e-06
3.55051e-07
6.20419e-07
2.01602e-06
2.74131e-06
9.53566e-07
9.50191e-07
2.01044e-06
6.2083e-07
4.4415e-07
1.0663e-06
3.62143e-07
1.38598e-06
3.60407e-07
1.37984e-06
4.43634e-07
6.10239e-07
9.33198e-07
1.98811e-06
2.72549e-06
6.09327e-07
9.37379e-07
1.9938e-06
4.35726e-07
1.05119e-06
3.54379e-07
1.35702e-06
4.35551e-07
3.55219e-07
1.36328e-06
6.20446e-07
2.01591e-06
2.74061e-06
9.5447e-07
9.49975e-07
2.01075e-06
6.20862e-07
1.66464e-06
3.4028e-07
7.25443e-07
7.26305e-07
7.22732e-07
7.22794e-07
1.67318e-06
1.56724e-06
3.19119e-07
6.68156e-07
6.68594e-07
1.57438e-06
6.65562e-07
6.65744e-07
1.59908e-06
3.2445e-07
6.79499e-07
6.79748e-07
1.59223e-06
6.82196e-07
6.82615e-07
4.11848e-07
9.81302e-07
1.2945e-06
3.3891e-07
1.28716e-06
3.37193e-07
4.1408e-07
5.68273e-07
8.67504e-07
1.89456e-06
2.63842e-06
1.90105e-06
5.67455e-07
8.71377e-07
4.06962e-07
9.67852e-07
1.26391e-06
3.32018e-07
1.27129e-06
4.04847e-07
3.3363e-07
5.77386e-07
1.92494e-06
2.65587e-06
8.87816e-07
1.9186e-06
8.83928e-07
5.78316e-07
4.12399e-07
9.81886e-07
1.29383e-06
3.38869e-07
1.28774e-06
3.37215e-07
4.12632e-07
5.68275e-07
8.68095e-07
1.89448e-06
2.63888e-06
5.67533e-07
1.9008e-06
8.71637e-07
4.05894e-07
9.67333e-07
1.26424e-06
3.32045e-07
4.05035e-07
1.27072e-06
3.33617e-07
5.77484e-07
1.92419e-06
2.65667e-06
8.87942e-07
1.91856e-06
5.78297e-07
8.84385e-07
4.21484e-07
1.31037e-06
3.42489e-07
1.0093e-06
4.19304e-07
1.31762e-06
3.4422e-07
5.98242e-07
9.20549e-07
2.69951e-06
1.97163e-06
9.16724e-07
1.96511e-06
5.993e-07
5.885e-07
1.94216e-06
9.00325e-07
2.68308e-06
9.03831e-07
5.87684e-07
1.94837e-06
4.26651e-07
1.02319e-06
1.34069e-06
3.49912e-07
1.33342e-06
3.48017e-07
4.28835e-07
4.20198e-07
1.31073e-06
3.425e-07
1.00894e-06
4.19989e-07
1.31722e-06
3.44188e-07
5.9837e-07
9.20846e-07
2.70028e-06
1.97078e-06
1.96543e-06
9.17323e-07
5.99256e-07
5.88516e-07
1.94201e-06
9.00707e-07
2.68375e-06
5.87788e-07
1.9484e-06
9.04637e-07
4.27464e-07
1.02366e-06
1.34003e-06
3.49864e-07
1.33389e-06
3.48026e-07
4.27765e-07
1.56674e-06
3.19497e-07
6.68511e-07
6.69105e-07
6.64719e-07
6.65733e-07
1.57459e-06
1.59977e-06
3.24297e-07
6.79708e-07
6.78758e-07
6.82654e-07
1.59183e-06
6.82943e-07
4.12894e-07
9.81979e-07
1.29392e-06
3.38326e-07
1.28788e-06
3.37768e-07
4.12711e-07
5.68294e-07
8.67772e-07
1.89473e-06
2.6389e-06
1.90096e-06
5.67487e-07
8.71726e-07
4.05844e-07
9.67236e-07
1.26449e-06
3.32507e-07
1.2708e-06
4.05867e-07
3.33049e-07
5.77413e-07
1.92489e-06
2.65644e-06
8.8821e-07
1.9187e-06
8.84123e-07
5.78353e-07
4.1212e-07
9.82104e-07
3.38291e-07
1.29512e-06
3.37738e-07
1.28677e-06
4.14358e-07
5.68342e-07
8.67828e-07
1.89435e-06
2.63909e-06
5.67483e-07
1.90092e-06
8.72087e-07
4.07223e-07
9.672e-07
3.32446e-07
1.26373e-06
4.05105e-07
3.33025e-07
1.27164e-06
5.77432e-07
1.92413e-06
2.6566e-06
8.88547e-07
1.91857e-06
5.78374e-07
8.84224e-07
4.2043e-07
1.31098e-06
3.43026e-07
1.00883e-06
4.20151e-07
1.31707e-06
3.43636e-07
5.98287e-07
9.20934e-07
2.70013e-06
1.9715e-06
9.16903e-07
1.96531e-06
5.99358e-07
5.88554e-07
1.94222e-06
9.00497e-07
2.68369e-06
9.04564e-07
5.87721e-07
1.94854e-06
4.27589e-07
1.02383e-06
1.3401e-06
3.49229e-07
1.33409e-06
3.48612e-07
4.27841e-07
4.21699e-07
3.43014e-07
1.31003e-06
1.00874e-06
4.19521e-07
3.43625e-07
1.31805e-06
5.98316e-07
9.21338e-07
2.70041e-06
1.97073e-06
1.96548e-06
9.17016e-07
5.99406e-07
5.88584e-07
1.94203e-06
9.00638e-07
2.6838e-06
5.87721e-07
1.94831e-06
9.04672e-07
4.26844e-07
1.02393e-06
3.49207e-07
1.34111e-06
3.48583e-07
1.33317e-06
4.29025e-07
4.12689e-07
9.82174e-07
3.38232e-07
1.29417e-06
3.37746e-07
1.28754e-06
4.12654e-07
5.77382e-07
1.9241e-06
2.65627e-06
8.87636e-07
8.84057e-07
1.91848e-06
5.78201e-07
4.21519e-07
1.31039e-06
3.42951e-07
1.00865e-06
4.19381e-07
1.31763e-06
3.43564e-07
5.98354e-07
9.20144e-07
2.69972e-06
1.97076e-06
5.99317e-07
9.16711e-07
1.96539e-06
5.88489e-07
1.94209e-06
9.00186e-07
2.68299e-06
5.87762e-07
9.03925e-07
1.94781e-06
4.26744e-07
1.0237e-06
1.34082e-06
3.49087e-07
4.28765e-07
1.33328e-06
3.4848e-07
4.20333e-07
3.42992e-07
1.31069e-06
1.00873e-06
4.19999e-07
3.436e-07
1.31724e-06
5.98385e-07
9.20697e-07
2.69937e-06
1.97069e-06
1.96517e-06
9.16888e-07
5.99297e-07
5.88515e-07
1.94171e-06
9.00144e-07
2.68359e-06
5.87716e-07
1.94817e-06
9.04473e-07
4.27468e-07
1.02386e-06
3.49209e-07
1.34025e-06
3.48593e-07
1.3338e-06
4.27768e-07
1.56727e-06
3.19089e-07
6.69856e-07
6.6838e-07
6.65536e-07
6.65014e-07
1.57436e-06
1.59907e-06
3.24559e-07
6.78863e-07
6.79481e-07
6.8338e-07
1.59224e-06
6.82578e-07
4.11887e-07
9.82164e-07
3.38321e-07
1.29486e-06
3.37776e-07
1.28698e-06
4.13869e-07
5.69494e-07
8.68072e-07
1.89337e-06
2.63919e-06
8.71758e-07
5.66397e-07
1.90204e-06
4.06927e-07
9.67343e-07
3.32547e-07
1.26376e-06
3.33095e-07
4.0493e-07
1.27164e-06
5.76493e-07
1.926e-06
2.65659e-06
8.88022e-07
8.84414e-07
1.91752e-06
5.79484e-07
4.20546e-07
3.43022e-07
1.31093e-06
1.00909e-06
4.20317e-07
3.43668e-07
1.31721e-06
5.98203e-07
9.20914e-07
2.6997e-06
1.9713e-06
5.99358e-07
9.16423e-07
1.96516e-06
5.88505e-07
1.94214e-06
9.00207e-07
2.68327e-06
5.87716e-07
9.04059e-07
1.94832e-06
4.27668e-07
1.02376e-06
3.49185e-07
1.34017e-06
4.28072e-07
3.48585e-07
1.33397e-06
4.21621e-07
3.43038e-07
1.31021e-06
1.00908e-06
4.19379e-07
3.4365e-07
1.31797e-06
5.97332e-07
9.20828e-07
2.70031e-06
1.97236e-06
1.96428e-06
9.17387e-07
6.00428e-07
5.89972e-07
1.94098e-06
9.00802e-07
2.68388e-06
5.86772e-07
1.94854e-06
9.04534e-07
4.26638e-07
1.02389e-06
3.49258e-07
1.34128e-06
3.48624e-07
1.33325e-06
4.28796e-07
1.60021e-06
3.24127e-07
6.79579e-07
6.79734e-07
1.59246e-06
6.82367e-07
6.82844e-07
1.66535e-06
3.39596e-07
7.25311e-07
7.26586e-07
1.67094e-06
7.22582e-07
7.22474e-07
4.42943e-07
1.06541e-06
1.38592e-06
3.62121e-07
1.37931e-06
3.59826e-07
4.44737e-07
6.10105e-07
9.33408e-07
1.98802e-06
2.72668e-06
1.99432e-06
6.0916e-07
9.3707e-07
4.36643e-07
1.0515e-06
1.35652e-06
3.5391e-07
1.36328e-06
4.34324e-07
3.55707e-07
6.20405e-07
2.01671e-06
2.73978e-06
9.54231e-07
2.01035e-06
9.49971e-07
6.20882e-07
4.43789e-07
1.06581e-06
1.38685e-06
3.62044e-07
1.37919e-06
3.59829e-07
4.43367e-07
6.09887e-07
9.33675e-07
1.98787e-06
2.72743e-06
6.09261e-07
1.99413e-06
9.37917e-07
4.35267e-07
1.05123e-06
1.35679e-06
3.53891e-07
4.35095e-07
1.36348e-06
3.55677e-07
6.21237e-07
2.01585e-06
2.74038e-06
9.54514e-07
2.0106e-06
6.2113e-07
9.50588e-07
1.66475e-06
3.40004e-07
7.26819e-07
7.2647e-07
7.21795e-07
7.22473e-07
1.67073e-06
4.43828e-07
1.06615e-06
1.3858e-06
3.61993e-07
1.3799e-06
3.60142e-07
4.43402e-07
6.10164e-07
9.33536e-07
1.98818e-06
2.7273e-06
1.99417e-06
6.09208e-07
9.38489e-07
4.35303e-07
1.0511e-06
1.35703e-06
3.54447e-07
1.36312e-06
4.35164e-07
3.55412e-07
6.20455e-07
2.01657e-06
2.74042e-06
9.56024e-07
2.01055e-06
9.49483e-07
6.20933e-07
4.43077e-07
1.06624e-06
3.62036e-07
1.38566e-06
3.60131e-07
1.37951e-06
4.44889e-07
6.11598e-07
9.33824e-07
1.98793e-06
2.72595e-06
6.08883e-07
1.99415e-06
9.37839e-07
4.36819e-07
1.05105e-06
3.54443e-07
1.35633e-06
4.34478e-07
3.55396e-07
1.36336e-06
6.19326e-07
2.01633e-06
2.74183e-06
9.55814e-07
2.01042e-06
6.23259e-07
9.50106e-07
4.43726e-07
1.06584e-06
3.61965e-07
1.38601e-06
3.60105e-07
1.37946e-06
4.43357e-07
6.10131e-07
9.33281e-07
1.98765e-06
2.727e-06
9.37717e-07
6.09114e-07
1.99397e-06
4.35234e-07
1.05128e-06
3.54411e-07
1.35672e-06
3.55395e-07
4.35044e-07
1.36341e-06
6.19964e-07
2.01594e-06
2.74001e-06
9.54033e-07
9.50261e-07
2.01023e-06
6.23033e-07
1.66496e-06
3.39831e-07
7.26005e-07
7.2591e-07
7.22428e-07
7.22698e-07
1.67306e-06
4.42932e-07
1.06629e-06
3.61218e-07
1.38593e-06
3.60599e-07
1.37939e-06
4.44706e-07
6.09895e-07
9.33846e-07
1.98737e-06
2.72597e-06
9.37532e-07
6.08724e-07
1.99343e-06
4.36654e-07
1.05119e-06
3.54457e-07
1.35629e-06
3.552e-07
4.3437e-07
1.36342e-06
6.20349e-07
2.01569e-06
2.74183e-06
9.54309e-07
9.50713e-07
2.0105e-06
6.20892e-07
4.99174e-07
4.99984e-07
4.99985e-07
4.99918e-07
4.45591e-07
4.54246e-07
4.54254e-07
4.63993e-07
4.03813e-07
4.18887e-07
4.18892e-07
4.39719e-07
3.68435e-07
3.8881e-07
3.8881e-07
4.17818e-07
3.3808e-07
3.6226e-07
3.62266e-07
3.96018e-07
3.11696e-07
3.38347e-07
3.38357e-07
3.74299e-07
2.88504e-07
3.16642e-07
3.16645e-07
3.53295e-07
2.67934e-07
2.96965e-07
2.96963e-07
3.33629e-07
2.49569e-07
2.79264e-07
2.79255e-07
3.15928e-07
2.33107e-07
2.63534e-07
2.6352e-07
3.00438e-07
2.18318e-07
2.4978e-07
2.49761e-07
2.87657e-07
2.05027e-07
2.37992e-07
2.37975e-07
2.77793e-07
1.93094e-07
2.28173e-07
2.28162e-07
2.71168e-07
1.82406e-07
2.20331e-07
2.20327e-07
2.67537e-07
1.72873e-07
2.14467e-07
2.1447e-07
2.66997e-07
1.6442e-07
2.10594e-07
2.10602e-07
2.69823e-07
1.56984e-07
2.08721e-07
2.08735e-07
2.76151e-07
1.50512e-07
2.08853e-07
2.08869e-07
2.85842e-07
1.44961e-07
2.1105e-07
2.1107e-07
2.98746e-07
2.15323e-07
3.1482e-07
5.06197e-07
5.0557e-07
5.05573e-07
5.06202e-07
5.05568e-07
5.0557e-07
5.05986e-07
5.05986e-07
5.05986e-07
5.05984e-07
5.05573e-07
5.05563e-07
5.06197e-07
5.05572e-07
5.05564e-07
5.0619e-07
4.99907e-07
4.67463e-07
4.99987e-07