/*--------------------------------*- C++ -*----------------------------------*\
| =========                 |                                                 |
| \\      /  F ield         | OpenFOAM: The Open Source CFD Toolbox           |
|  \\    /   O peration     | Version:  2312                                  |
|   \\  /    A nd           | Website:  www.openfoam.com                      |
|    \\/     M anipulation  |                                                 |
\*---------------------------------------------------------------------------*/
FoamFile
{
    version     2.0;
    format      ascii;
    arch        "LSB;label=32;scalar=64";
    class       volScalarField;
    location    "900";
    object      k;
}
// * * * * * * * * * * * * * * * * * * * * * * * * * * * * * * * * * * * * * //

dimensions      [0 2 -2 0 0 0 0];

internalField   nonuniform List<scalar> 
43008
(
1.57101e-05
1.61155e-05
1.52904e-05
1.60659e-05
1.60665e-05
1.76015e-05
1.72569e-05
1.75177e-05
1.61145e-05
1.61149e-05
1.60671e-05
1.60676e-05
1.75181e-05
1.6115e-05
1.61149e-05
1.60677e-05
1.60676e-05
1.60675e-05
1.60671e-05
1.72597e-05
1.75164e-05
1.6115e-05
1.60681e-05
1.60676e-05
1.7528e-05
1.76124e-05
1.60656e-05
1.60661e-05
1.76131e-05
1.60661e-05
1.60661e-05
1.60656e-05
1.76119e-05
1.60662e-05
5.00966e-05
6.99058e-05
4.93374e-05
6.9939e-05
6.97734e-05
5.00989e-05
6.9907e-05
4.93361e-05
6.99406e-05
1.57101e-05
1.57101e-05
1.57096e-05
1.53907e-05
1.53907e-05
1.53908e-05
1.53903e-05
2.60131e-05
1.60923e-05
4.29334e-05
1.53536e-05
6.97971e-05
6.97735e-05
2.60186e-05
1.54381e-05
4.2448e-05
1.60929e-05
2.54885e-05
1.53539e-05
4.29377e-05
1.73501e-05
5.77575e-05
5.77671e-05
5.19457e-05
6.99769e-05
5.12824e-05
7.0008e-05
6.97127e-05
6.96908e-05
5.19486e-05
6.99781e-05
5.1282e-05
7.00096e-05
1.52904e-05
1.52904e-05
1.529e-05
2.76611e-05
4.38808e-05
1.51273e-05
1.60683e-05
2.71036e-05
4.43259e-05
1.50598e-05
6.97127e-05
6.9691e-05
2.76648e-05
1.51278e-05
4.38811e-05
1.60688e-05
2.71066e-05
1.50603e-05
4.4334e-05
5.83092e-05
5.83188e-05
1.77462e-05
5.85667e-05
5.85753e-05
6.97961e-05
6.97722e-05
6.97978e-05
6.97744e-05
5.74657e-05
5.74774e-05
1.73417e-05
5.77595e-05
5.77713e-05
6.973e-05
6.97529e-05
6.97323e-05
6.97549e-05
1.74169e-05
5.81773e-05
5.81892e-05
5.79024e-05
5.79141e-05
5.00962e-05
6.99019e-05
4.93362e-05
6.99354e-05
2.60126e-05
4.24481e-05
1.54376e-05
1.60919e-05
2.54904e-05
4.29345e-05
1.53535e-05
2.60113e-05
4.24496e-05
1.54376e-05
1.60922e-05
2.54921e-05
4.29409e-05
1.53534e-05
5.03438e-05
6.99742e-05
6.99422e-05
5.10557e-05
5.03428e-05
6.99705e-05
6.99382e-05
5.10554e-05
2.62883e-05
1.60785e-05
4.36463e-05
1.51982e-05
4.31774e-05
1.52741e-05
2.68252e-05
2.62894e-05
1.60789e-05
4.3653e-05
1.51982e-05
4.31795e-05
1.52741e-05
2.68248e-05
1.73393e-05
5.77657e-05
5.77609e-05
6.97725e-05
6.97315e-05
6.97542e-05
1.74158e-05
5.81835e-05
5.81788e-05
5.79094e-05
5.79046e-05
6.97304e-05
6.97529e-05
2.60119e-05
4.24496e-05
1.54379e-05
1.60924e-05
2.54918e-05
4.29404e-05
1.53537e-05
5.0098e-05
6.99019e-05
4.9335e-05
6.99354e-05
2.60116e-05
1.54375e-05
4.24477e-05
1.60923e-05
2.54916e-05
1.53534e-05
4.29403e-05
5.0343e-05
6.99758e-05
6.99433e-05
5.10582e-05
2.62897e-05
1.60791e-05
4.3654e-05
1.51985e-05
4.31798e-05
1.52744e-05
2.68251e-05
5.03418e-05
6.99704e-05
6.99383e-05
5.10574e-05
2.62894e-05
1.6079e-05
1.51981e-05
4.36534e-05
1.5274e-05
4.31799e-05
2.68245e-05
5.00822e-05
6.99376e-05
2.60116e-05
1.60917e-05
1.53533e-05
4.29385e-05
5.00921e-05
6.99344e-05
2.62837e-05
1.60789e-05
4.36469e-05
1.51983e-05
4.31776e-05
1.52742e-05
2.68265e-05
5.03505e-05
6.99726e-05
6.99407e-05
5.10423e-05
2.62889e-05
1.60784e-05
1.51981e-05
4.36506e-05
1.5274e-05
4.31754e-05
2.68262e-05
5.03463e-05
6.99693e-05
6.99373e-05
5.10513e-05
5.74724e-05
5.74672e-05
1.73396e-05
5.7766e-05
5.77616e-05
6.97959e-05
6.97723e-05
6.97315e-05
6.97542e-05
1.74198e-05
5.81842e-05
5.81795e-05
5.79092e-05
5.79044e-05
6.97303e-05
6.97529e-05
2.60132e-05
1.54378e-05
4.24506e-05
1.60924e-05
2.54939e-05
1.53536e-05
4.29408e-05
5.00912e-05
6.99049e-05
4.93445e-05
6.99385e-05
5.00905e-05
6.99022e-05
4.93433e-05
6.99356e-05
2.62865e-05
1.60795e-05
1.51988e-05
4.36504e-05
1.52746e-05
4.31771e-05
2.68313e-05
2.62908e-05
1.6079e-05
1.51985e-05
4.36517e-05
1.52743e-05
4.31806e-05
2.68271e-05
5.03511e-05
6.99734e-05
6.9941e-05
5.10502e-05
5.03499e-05
6.99707e-05
6.99385e-05
5.10496e-05
6.97717e-05
6.97737e-05
1.74116e-05
5.81754e-05
5.81849e-05
5.79006e-05
5.79105e-05
6.97295e-05
6.97523e-05
6.97316e-05
6.97544e-05
6.97113e-05
6.96894e-05
6.97134e-05
6.96916e-05
5.83116e-05
5.83233e-05
1.7725e-05
5.85687e-05
5.85808e-05
5.19457e-05
6.99732e-05
5.12814e-05
7.00046e-05
2.7654e-05
4.38808e-05
1.51273e-05
1.60679e-05
2.71087e-05
4.43336e-05
1.50597e-05
2.76603e-05
4.38831e-05
1.51273e-05
1.60686e-05
2.71096e-05
4.43327e-05
1.50598e-05
5.83176e-05
5.83131e-05
1.77277e-05
5.85747e-05
5.85688e-05
6.97114e-05
6.96898e-05
2.76638e-05
4.38832e-05
1.51276e-05
1.60684e-05
2.71104e-05
4.43423e-05
1.506e-05
5.19476e-05
6.99732e-05
5.12807e-05
7.00043e-05
2.76652e-05
1.51272e-05
4.38834e-05
1.60684e-05
2.711e-05
1.50596e-05
4.43326e-05
5.19335e-05
6.99755e-05
5.12889e-05
7.00067e-05
2.76585e-05
1.51273e-05
4.38798e-05
1.60682e-05
2.71079e-05
1.50597e-05
4.43282e-05
5.19411e-05
6.99719e-05
5.12844e-05
7.00032e-05
5.83179e-05
5.83136e-05
1.77275e-05
5.85761e-05
5.857e-05
6.97115e-05
6.96897e-05
2.76648e-05
1.51276e-05
4.38842e-05
1.60687e-05
2.7111e-05
1.50601e-05
4.43411e-05
5.19405e-05
6.9976e-05
5.12897e-05
7.00074e-05
5.19393e-05
6.99734e-05
5.12888e-05
7.00048e-05
6.97107e-05
6.96888e-05
6.97129e-05
6.96911e-05
6.97452e-05
4.98491e-05
6.90334e-05
5.7069e-05
6.90256e-05
5.68505e-05
6.97564e-05
7.11554e-05
7.30007e-05
6.99212e-05
7.11515e-05
7.31102e-05
6.97445e-05
4.95912e-05
6.90191e-05
5.6467e-05
6.97339e-05
6.90254e-05
5.66918e-05
7.11318e-05
7.3258e-05
6.9924e-05
7.31542e-05
7.11356e-05
6.9795e-05
6.97755e-05
6.97457e-05
4.98479e-05
5.70688e-05
6.90339e-05
5.68483e-05
6.90262e-05
6.97569e-05
7.11558e-05
7.29961e-05
6.99227e-05
7.11519e-05
7.31084e-05
6.9745e-05
4.95933e-05
5.64646e-05
6.90197e-05
6.97345e-05
5.66913e-05
6.90259e-05
7.11323e-05
7.32574e-05
6.99253e-05
7.31501e-05
7.11361e-05
6.9795e-05
6.97755e-05
8.65077e-05
7.26167e-05
7.26106e-05
7.26159e-05
7.26098e-05
8.66086e-05
5.44822e-05
5.75378e-05
3.58118e-05
6.84896e-05
5.45511e-05
5.75474e-05
3.58329e-05
6.85005e-05
8.64621e-05
7.26394e-05
7.26332e-05
5.47205e-05
6.85378e-05
5.76857e-05
3.62418e-05
3.6102e-05
6.85025e-05
5.48352e-05
5.47867e-05
6.85489e-05
5.7696e-05
3.62625e-05
3.61187e-05
6.8515e-05
5.49028e-05
6.97972e-05
5.17265e-05
6.90966e-05
5.84314e-05
6.90787e-05
5.82353e-05
6.98096e-05
7.10757e-05
7.35724e-05
6.99913e-05
7.10724e-05
7.36613e-05
6.97959e-05
5.15096e-05
6.90622e-05
5.79105e-05
6.97836e-05
6.90767e-05
5.81122e-05
7.10523e-05
7.37814e-05
6.99937e-05
7.36954e-05
7.10556e-05
6.9711e-05
6.96925e-05
6.97974e-05
5.17258e-05
5.84318e-05
6.90966e-05
5.82342e-05
6.90792e-05
6.98097e-05
7.10761e-05
7.35668e-05
6.99927e-05
7.10726e-05
7.36599e-05
6.97961e-05
5.1512e-05
5.79093e-05
6.90627e-05
6.97839e-05
5.81123e-05
6.90767e-05
7.10526e-05
7.37812e-05
6.99949e-05
7.36923e-05
7.10559e-05
6.9711e-05
6.96925e-05
8.70511e-05
7.25262e-05
7.25201e-05
7.25256e-05
7.25196e-05
8.71367e-05
5.58388e-05
3.73669e-05
6.86411e-05
5.8374e-05
5.57327e-05
3.75038e-05
6.86732e-05
5.59065e-05
3.73856e-05
6.86536e-05
5.83837e-05
5.57998e-05
3.75223e-05
6.86846e-05
8.70127e-05
7.25481e-05
7.2542e-05
8.69228e-05
7.25488e-05
7.25427e-05
5.60496e-05
6.87155e-05
5.85036e-05
3.79144e-05
3.77783e-05
6.86843e-05
5.61569e-05
5.61184e-05
6.87267e-05
5.85133e-05
3.79294e-05
3.77986e-05
6.86967e-05
5.62157e-05
6.97939e-05
6.97743e-05
6.97958e-05
6.97763e-05
8.65127e-05
7.26185e-05
7.26119e-05
7.26176e-05
7.2611e-05
8.66137e-05
5.44824e-05
3.56707e-05
6.84543e-05
5.75401e-05
5.43607e-05
6.84907e-05
3.58083e-05
5.45496e-05
3.56888e-05
6.8466e-05
5.75515e-05
5.44285e-05
6.85026e-05
3.5826e-05
8.64671e-05
7.26402e-05
7.26336e-05
8.63627e-05
7.26413e-05
7.26346e-05
5.47192e-05
6.85388e-05
5.76875e-05
3.62378e-05
6.85037e-05
5.48366e-05
3.61016e-05
5.4787e-05
6.8551e-05
5.76994e-05
3.62573e-05
6.85156e-05
5.49039e-05
3.61204e-05
6.97319e-05
6.97509e-05
6.9734e-05
6.97531e-05
8.67539e-05
7.25949e-05
7.25884e-05
8.6657e-05
7.25957e-05
7.25892e-05
5.54026e-05
3.70833e-05
5.81101e-05
6.86306e-05
6.85975e-05
3.69503e-05
5.55132e-05
5.54725e-05
3.71027e-05
5.81221e-05
6.86428e-05
6.86099e-05
3.69702e-05
5.55785e-05
5.51808e-05
6.85515e-05
3.65286e-05
5.79719e-05
5.50661e-05
6.85853e-05
3.66632e-05
5.5247e-05
6.85635e-05
3.65476e-05
5.79835e-05
5.51344e-05
6.85973e-05
3.66815e-05
8.67954e-05
7.2573e-05
7.25665e-05
7.25722e-05
7.25657e-05
8.68889e-05
6.97446e-05
4.98481e-05
6.90331e-05
5.70658e-05
6.90253e-05
5.68446e-05
6.97557e-05
7.11535e-05
7.29778e-05
6.99174e-05
7.11497e-05
7.30908e-05
6.97438e-05
4.95908e-05
6.90187e-05
5.64609e-05
6.9025e-05
6.97333e-05
5.66887e-05
7.113e-05
7.32387e-05
6.99203e-05
7.31316e-05
7.11337e-05
6.97691e-05
6.90348e-05
5.72185e-05
5.05849e-05
6.97574e-05
6.90449e-05
5.74312e-05
7.10923e-05
6.99593e-05
7.35336e-05
7.10959e-05
7.34372e-05
7.11158e-05
7.33006e-05
6.99567e-05
7.11121e-05
7.34002e-05
6.97703e-05
5.08218e-05
6.90594e-05
5.77787e-05
6.97823e-05
6.90473e-05
5.75717e-05
6.97683e-05
6.90345e-05
5.72128e-05
5.05844e-05
6.97567e-05
6.90446e-05
5.7428e-05
7.10903e-05
6.99555e-05
7.35137e-05
7.34155e-05
7.10939e-05
7.11138e-05
7.32769e-05
6.99531e-05
7.11102e-05
7.33788e-05
6.97695e-05
5.08207e-05
6.9059e-05
5.77752e-05
6.9047e-05
5.75662e-05
6.97815e-05
8.65152e-05
7.26124e-05
7.26178e-05
7.26116e-05
7.2617e-05
8.6611e-05
5.45439e-05
5.75462e-05
6.84991e-05
3.58269e-05
5.44758e-05
5.75414e-05
3.58065e-05
6.84895e-05
8.64631e-05
7.2635e-05
7.26405e-05
5.47904e-05
6.85475e-05
5.76946e-05
3.62574e-05
6.85161e-05
3.61221e-05
5.48992e-05
5.47228e-05
6.85379e-05
5.76895e-05
3.62379e-05
3.61021e-05
6.85066e-05
5.48309e-05
6.9794e-05
6.97741e-05
6.97332e-05
6.97523e-05
8.67508e-05
7.2589e-05
7.25944e-05
8.66594e-05
7.25898e-05
7.25951e-05
5.54747e-05
3.71028e-05
5.8117e-05
6.86393e-05
3.69707e-05
6.86105e-05
5.55783e-05
5.54068e-05
3.70836e-05
5.81119e-05
6.86294e-05
6.86007e-05
3.69509e-05
5.55109e-05
5.52432e-05
6.85638e-05
3.65486e-05
5.7978e-05
3.66826e-05
5.51376e-05
6.85942e-05
5.51744e-05
6.85541e-05
3.65286e-05
5.79734e-05
5.50699e-05
6.85844e-05
3.66622e-05
8.67977e-05
7.25671e-05
7.25723e-05
7.25663e-05
7.25717e-05
8.68859e-05
6.9732e-05
6.97512e-05
6.97441e-05
4.98468e-05
6.90332e-05
5.70633e-05
6.90254e-05
5.68446e-05
6.97552e-05
7.11523e-05
7.29726e-05
6.99175e-05
7.11484e-05
7.30857e-05
6.97434e-05
4.95924e-05
6.90189e-05
5.64608e-05
6.90251e-05
6.97329e-05
5.66861e-05
7.11287e-05
7.32332e-05
6.99204e-05
7.31302e-05
7.11324e-05
6.97695e-05
5.72168e-05
6.90354e-05
5.05871e-05
6.97579e-05
5.74312e-05
6.90453e-05
7.10926e-05
6.99606e-05
7.35328e-05
7.10962e-05
7.34347e-05
7.11161e-05
7.32959e-05
6.99581e-05
7.11124e-05
7.33973e-05
6.97707e-05
5.08212e-05
5.7779e-05
6.90596e-05
6.97827e-05
5.75704e-05
6.90477e-05
6.97678e-05
6.90345e-05
5.72129e-05
5.05863e-05
6.97562e-05
6.90446e-05
5.74254e-05
7.1089e-05
6.99555e-05
7.35093e-05
7.34138e-05
7.10926e-05
7.11125e-05
7.32759e-05
6.99531e-05
7.11089e-05
7.33751e-05
6.97689e-05
5.08199e-05
6.9059e-05
5.77729e-05
6.90469e-05
5.75665e-05
6.97809e-05
6.97434e-05
4.9856e-05
5.70472e-05
6.90321e-05
5.6858e-05
6.90244e-05
6.97544e-05
7.1129e-05
7.32465e-05
6.99222e-05
7.31415e-05
7.11335e-05
6.97434e-05
4.98517e-05
6.90323e-05
5.70626e-05
6.90244e-05
5.68468e-05
6.97546e-05
7.11287e-05
7.32341e-05
6.99188e-05
7.3126e-05
7.11326e-05
6.97672e-05
5.72255e-05
6.90337e-05
5.05707e-05
6.97557e-05
5.741e-05
6.90436e-05
7.10895e-05
6.99578e-05
7.35216e-05
7.34274e-05
7.10937e-05
7.11136e-05
7.32901e-05
6.99553e-05
7.11093e-05
7.33869e-05
6.97686e-05
5.08282e-05
5.77584e-05
6.9058e-05
5.75781e-05
6.90463e-05
6.97804e-05
6.97672e-05
6.90337e-05
5.72149e-05
5.05805e-05
6.97556e-05
6.90438e-05
5.74247e-05
7.10889e-05
6.99543e-05
7.35087e-05
7.34102e-05
7.10925e-05
7.11125e-05
7.32733e-05
6.9952e-05
7.11089e-05
7.33746e-05
6.97684e-05
5.08239e-05
6.90582e-05
5.77721e-05
6.90463e-05
5.75679e-05
6.97803e-05
8.65109e-05
7.26118e-05
7.26175e-05
7.2611e-05
7.26167e-05
8.66079e-05
5.45439e-05
3.56901e-05
6.84664e-05
5.75463e-05
6.84984e-05
5.44325e-05
3.58267e-05
5.44807e-05
3.5669e-05
6.84544e-05
5.75416e-05
3.5812e-05
5.43624e-05
6.84909e-05
8.64611e-05
7.26335e-05
7.26392e-05
7.26344e-05
8.63602e-05
7.26401e-05
5.47897e-05
6.85468e-05
5.76945e-05
3.62575e-05
6.85156e-05
3.61214e-05
5.48993e-05
5.47208e-05
6.85391e-05
5.76897e-05
3.62426e-05
3.60993e-05
6.85039e-05
5.48362e-05
6.97939e-05
6.97743e-05
6.97333e-05
6.97523e-05
8.67471e-05
7.25884e-05
7.25941e-05
8.66557e-05
7.25891e-05
7.25948e-05
5.5474e-05
3.7104e-05
5.81167e-05
6.86407e-05
3.69704e-05
6.86075e-05
5.55781e-05
5.54037e-05
3.70868e-05
5.81126e-05
6.86309e-05
6.85977e-05
3.69477e-05
5.55145e-05
5.52431e-05
6.85636e-05
3.65483e-05
5.79787e-05
3.66833e-05
5.51367e-05
6.85943e-05
5.51814e-05
6.85516e-05
3.65262e-05
5.79736e-05
5.50672e-05
6.85855e-05
3.66666e-05
8.67942e-05
7.25664e-05
7.25721e-05
7.25657e-05
7.25714e-05
8.68824e-05
6.9732e-05
6.97511e-05
6.97445e-05
4.98562e-05
5.70655e-05
6.90329e-05
5.68511e-05
6.90251e-05
6.97557e-05
7.11543e-05
7.2992e-05
6.99205e-05
7.31038e-05
7.11505e-05
6.97438e-05
4.95859e-05
5.64679e-05
6.90186e-05
5.66883e-05
6.97333e-05
6.90248e-05
7.11308e-05
7.32527e-05
6.99232e-05
7.31459e-05
7.11345e-05
6.97439e-05
4.9855e-05
5.70636e-05
6.90327e-05
5.68456e-05
6.90249e-05
6.9755e-05
7.11529e-05
7.29801e-05
6.99177e-05
7.11491e-05
7.30827e-05
6.97432e-05
4.95852e-05
5.64621e-05
6.90184e-05
6.97327e-05
5.66863e-05
6.90246e-05
7.11294e-05
7.32303e-05
6.99206e-05
7.31337e-05
7.11331e-05
6.97683e-05
5.72192e-05
6.90343e-05
5.05792e-05
6.97567e-05
5.74277e-05
6.90444e-05
7.10911e-05
6.99585e-05
7.35278e-05
7.34317e-05
7.10946e-05
7.11145e-05
7.32918e-05
6.9956e-05
7.11109e-05
7.33921e-05
6.97695e-05
5.0829e-05
5.77752e-05
6.90588e-05
5.75724e-05
6.90468e-05
6.97814e-05
6.97677e-05
5.72137e-05
6.90341e-05
5.05785e-05
6.9756e-05
5.74259e-05
6.90442e-05
7.10899e-05
6.99559e-05
7.3506e-05
7.34203e-05
7.10933e-05
7.11133e-05
7.32789e-05
6.99532e-05
7.11097e-05
7.33734e-05
6.97688e-05
5.08279e-05
5.77734e-05
6.90585e-05
5.7567e-05
6.90466e-05
6.97808e-05
6.97933e-05
6.97736e-05
6.97952e-05
6.97757e-05
8.67488e-05
7.25933e-05
7.25872e-05
8.66522e-05
7.25941e-05
7.25879e-05
5.54048e-05
3.7088e-05
5.81082e-05
6.86295e-05
5.55143e-05
3.69492e-05
6.85962e-05
5.54729e-05
3.7108e-05
5.81177e-05
6.86409e-05
5.55819e-05
3.6968e-05
6.86089e-05
5.51816e-05
6.85505e-05
3.65289e-05
5.79697e-05
5.50688e-05
3.66677e-05
6.85842e-05
5.52485e-05
6.85626e-05
3.65466e-05
5.79795e-05
5.51356e-05
3.66865e-05
6.85955e-05
8.67907e-05
7.25714e-05
7.25653e-05
8.68838e-05
7.25707e-05
7.25646e-05
6.97313e-05
6.97504e-05
6.97334e-05
6.97525e-05
6.97095e-05
6.96911e-05
6.97118e-05
6.96932e-05
8.70561e-05
7.25277e-05
7.25213e-05
7.2527e-05
7.25206e-05
8.71421e-05
5.58396e-05
3.73672e-05
6.86424e-05
5.83765e-05
5.57303e-05
6.86743e-05
3.74987e-05
5.59022e-05
3.73871e-05
6.86548e-05
5.83876e-05
5.58017e-05
6.86865e-05
3.75177e-05
8.70185e-05
7.25496e-05
7.25431e-05
8.6928e-05
7.25503e-05
7.25438e-05
5.60457e-05
6.87167e-05
5.85059e-05
3.79108e-05
6.86853e-05
5.61554e-05
3.77776e-05
5.61204e-05
6.87289e-05
5.85181e-05
3.79278e-05
6.86978e-05
5.62165e-05
3.77991e-05
6.97963e-05
5.17251e-05
6.90942e-05
5.84277e-05
6.90805e-05
5.82301e-05
6.98085e-05
7.10738e-05
7.35483e-05
6.99877e-05
7.10704e-05
7.36406e-05
6.97949e-05
5.15091e-05
6.90624e-05
5.79051e-05
6.90757e-05
6.97828e-05
5.81084e-05
7.10504e-05
7.3762e-05
6.999e-05
7.36725e-05
7.10537e-05
8.7057e-05
7.25217e-05
7.2527e-05
7.25211e-05
7.25264e-05
8.7139e-05
5.59013e-05
3.73873e-05
6.86549e-05
5.83821e-05
6.86827e-05
5.5802e-05
3.75186e-05
5.58338e-05
3.73675e-05
6.86449e-05
5.83772e-05
3.74985e-05
5.57338e-05
6.8673e-05
8.70144e-05
7.25437e-05
7.2549e-05
7.25443e-05
8.693e-05
7.25496e-05
5.61189e-05
6.87246e-05
5.8512e-05
3.79296e-05
6.86982e-05
3.77983e-05
5.622e-05
5.60503e-05
6.87149e-05
5.85079e-05
3.79116e-05
3.77781e-05
6.8688e-05
5.6156e-05
6.97099e-05
6.96912e-05
6.97956e-05
5.17246e-05
6.9096e-05
5.84257e-05
6.90784e-05
5.82302e-05
6.98079e-05
7.10725e-05
7.35477e-05
6.99875e-05
7.10691e-05
7.36362e-05
6.97943e-05
5.1511e-05
6.90618e-05
5.79055e-05
6.90762e-05
6.97822e-05
5.81063e-05
7.10492e-05
7.37561e-05
6.999e-05
7.36726e-05
7.10524e-05
6.97955e-05
5.17321e-05
5.8413e-05
6.90932e-05
5.82404e-05
6.908e-05
6.98076e-05
7.10737e-05
7.35608e-05
6.99898e-05
7.36487e-05
7.10696e-05
6.97939e-05
5.14964e-05
5.79161e-05
6.90618e-05
5.80925e-05
6.97819e-05
6.90748e-05
7.10497e-05
7.3769e-05
6.99923e-05
7.36858e-05
7.10536e-05
6.97952e-05
5.1728e-05
6.90932e-05
5.84246e-05
6.90799e-05
5.82308e-05
6.98074e-05
7.10724e-05
7.3543e-05
6.99863e-05
7.1069e-05
7.36358e-05
6.97938e-05
5.15047e-05
6.90617e-05
5.79063e-05
6.97817e-05
6.90749e-05
5.81052e-05
7.10489e-05
7.37567e-05
6.99887e-05
7.36677e-05
7.10522e-05
8.70548e-05
7.25212e-05
7.25269e-05
7.25206e-05
7.25263e-05
8.71338e-05
5.59032e-05
3.73872e-05
6.86524e-05
5.83833e-05
6.86844e-05
5.58004e-05
3.7519e-05
5.58374e-05
3.7366e-05
6.86426e-05
5.83782e-05
3.75014e-05
5.57313e-05
6.86744e-05
8.70118e-05
7.25431e-05
7.25488e-05
7.25437e-05
8.69257e-05
7.25495e-05
5.6119e-05
6.87268e-05
5.85123e-05
3.79308e-05
6.86959e-05
3.77979e-05
5.62134e-05
5.60498e-05
6.87166e-05
5.85084e-05
3.79121e-05
3.77776e-05
6.86859e-05
5.61511e-05
6.97098e-05
6.96913e-05
6.97963e-05
5.17332e-05
5.84277e-05
6.90939e-05
5.82357e-05
6.90804e-05
6.98085e-05
7.10745e-05
7.3563e-05
6.99906e-05
7.36547e-05
7.10712e-05
6.97949e-05
5.15037e-05
5.79109e-05
6.90622e-05
5.81083e-05
6.97827e-05
6.90755e-05
7.10512e-05
7.37757e-05
6.99929e-05
7.36893e-05
7.10544e-05
6.97957e-05
5.17328e-05
5.84262e-05
6.90935e-05
5.82306e-05
6.90802e-05
6.98079e-05
7.10734e-05
7.35501e-05
6.99879e-05
7.107e-05
7.3634e-05
6.97943e-05
5.15028e-05
5.79058e-05
6.9062e-05
6.97821e-05
5.81068e-05
6.90752e-05
7.10501e-05
7.37541e-05
6.99902e-05
7.36761e-05
7.10533e-05
6.9709e-05
6.96905e-05
6.97112e-05
6.96927e-05
1.59857e-05
1.5986e-05
1.56004e-05
1.58592e-05
1.58595e-05
1.62837e-05
1.64159e-05
3.44335e-05
1.72678e-05
2.2641e-05
2.26393e-05
1.54944e-05
1.54947e-05
1.51929e-05
1.53774e-05
1.53777e-05
1.57732e-05
1.58981e-05
3.61941e-05
2.36633e-05
2.36761e-05
1.76325e-05
3.60464e-05
2.37652e-05
2.37632e-05
3.44311e-05
2.25599e-05
2.25642e-05
1.72571e-05
3.42822e-05
2.26205e-05
2.26277e-05
3.56114e-05
1.75131e-05
2.34552e-05
2.34624e-05
2.33898e-05
2.33916e-05
3.57575e-05
3.44246e-05
1.72622e-05
2.26216e-05
2.26382e-05
3.56181e-05
1.75134e-05
2.34751e-05
2.34571e-05
2.33807e-05
2.33916e-05
3.57482e-05
3.44337e-05
2.25639e-05
2.2547e-05
1.7261e-05
2.26401e-05
3.4283e-05
2.26295e-05
3.56122e-05
1.75131e-05
2.34623e-05
2.34726e-05
2.33912e-05
2.33756e-05
3.57535e-05
3.56114e-05
1.75011e-05
2.34765e-05
2.34684e-05
3.57599e-05
2.33733e-05
2.33835e-05
3.61934e-05
2.36774e-05
2.36812e-05
1.76182e-05
3.60434e-05
2.37469e-05
2.37513e-05
3.61811e-05
2.36705e-05
2.36783e-05
1.76197e-05
2.37499e-05
3.60528e-05
2.37726e-05
3.61904e-05
2.36801e-05
2.36669e-05
1.76186e-05
2.37542e-05
3.60481e-05
2.37527e-05
1.59856e-05
1.59859e-05
1.56005e-05
1.58592e-05
1.58594e-05
1.62836e-05
1.64158e-05
1.59856e-05
1.59859e-05
1.56005e-05
1.58591e-05
1.58594e-05
1.62835e-05
1.64157e-05
1.59854e-05
1.59856e-05
1.56e-05
1.58589e-05
1.58592e-05
1.62834e-05
1.64156e-05
1.54942e-05
1.56136e-05
1.56139e-05
1.57353e-05
1.57356e-05
1.61533e-05
1.60248e-05
1.54942e-05
1.56136e-05
1.56138e-05
1.57353e-05
1.57355e-05
1.61533e-05
1.60248e-05
1.54943e-05
1.56135e-05
1.56138e-05
1.57352e-05
1.57355e-05
1.61532e-05
1.60247e-05
1.54938e-05
1.56133e-05
1.56136e-05
1.5735e-05
1.57353e-05
1.61531e-05
1.60246e-05
1.82863e-05
2.58814e-05
3.01458e-05
1.70023e-05
3.00152e-05
1.69692e-05
1.83318e-05
2.07008e-05
3.69439e-05
4.28141e-05
2.53599e-05
2.52556e-05
3.68036e-05
2.07722e-05
1.83005e-05
2.58838e-05
1.69924e-05
3.01545e-05
1.69797e-05
3.00147e-05
1.83173e-05
2.05683e-05
2.49391e-05
3.63937e-05
4.25704e-05
2.05021e-05
2.50507e-05
3.65391e-05
1.81866e-05
2.56205e-05
1.68913e-05
2.95911e-05
1.81721e-05
1.69035e-05
2.97291e-05
2.07036e-05
3.69488e-05
4.28162e-05
2.53594e-05
2.52555e-05
3.68087e-05
2.07687e-05
3.47333e-05
1.73253e-05
2.29117e-05
2.2912e-05
2.28191e-05
2.28254e-05
3.4883e-05
1.54944e-05
1.54946e-05
1.51929e-05
1.53773e-05
1.53776e-05
1.57732e-05
1.58981e-05
1.54943e-05
1.54946e-05
1.5193e-05
1.53773e-05
1.53776e-05
1.57731e-05
1.5898e-05
1.54941e-05
1.54944e-05
1.51926e-05
1.53771e-05
1.53774e-05
1.5773e-05
1.58979e-05
1.88792e-05
2.7518e-05
3.18528e-05
1.74461e-05
3.17253e-05
1.73955e-05
1.89432e-05
2.14301e-05
2.62305e-05
3.80202e-05
4.39948e-05
2.13502e-05
2.63347e-05
3.81524e-05
1.87727e-05
2.72409e-05
3.12967e-05
1.72757e-05
1.87205e-05
3.14265e-05
1.7319e-05
2.15781e-05
3.85368e-05
4.42226e-05
2.66682e-05
2.65626e-05
3.84245e-05
2.16686e-05
1.88978e-05
2.75227e-05
1.74267e-05
3.18638e-05
1.74095e-05
3.1725e-05
1.89168e-05
2.1428e-05
2.62289e-05
3.80254e-05
4.39966e-05
2.13553e-05
2.63438e-05
3.81565e-05
1.87594e-05
2.72445e-05
1.72877e-05
3.12966e-05
1.87376e-05
1.73067e-05
3.14364e-05
2.15896e-05
3.85417e-05
4.42229e-05
2.6685e-05
2.65573e-05
3.8429e-05
2.16319e-05
3.64746e-05
1.77119e-05
2.40608e-05
2.40587e-05
2.39629e-05
2.39706e-05
3.66164e-05
3.47299e-05
1.73397e-05
2.28964e-05
2.29017e-05
3.48736e-05
2.28306e-05
2.28328e-05
3.53193e-05
1.74229e-05
2.31066e-05
2.31094e-05
3.51739e-05
2.31707e-05
2.31815e-05
1.83e-05
2.58863e-05
3.01474e-05
1.69934e-05
3.00184e-05
1.69768e-05
1.83171e-05
2.05653e-05
2.49426e-05
3.63999e-05
4.25701e-05
3.65322e-05
2.05041e-05
2.50487e-05
1.81868e-05
2.56139e-05
2.9592e-05
1.68892e-05
2.97221e-05
1.81718e-05
1.6904e-05
2.07051e-05
3.69447e-05
4.28149e-05
2.5361e-05
3.68121e-05
2.5254e-05
2.07664e-05
1.8289e-05
2.58888e-05
3.01483e-05
1.69929e-05
3.00166e-05
1.69767e-05
1.83338e-05
2.05704e-05
2.49553e-05
3.639e-05
4.25755e-05
2.05011e-05
3.6534e-05
2.50437e-05
1.82014e-05
2.56127e-05
2.95921e-05
1.68892e-05
1.81598e-05
2.97226e-05
1.69037e-05
2.07033e-05
3.69486e-05
4.28182e-05
2.53618e-05
3.68059e-05
2.07722e-05
2.527e-05
1.84577e-05
3.04447e-05
1.70701e-05
2.64143e-05
1.84387e-05
3.05736e-05
1.7089e-05
2.11292e-05
2.60063e-05
4.35302e-05
3.7754e-05
2.58941e-05
3.7624e-05
2.11953e-05
2.09809e-05
3.72214e-05
2.55762e-05
4.32946e-05
2.5685e-05
2.09131e-05
3.73517e-05
1.85833e-05
2.66959e-05
3.1002e-05
1.71948e-05
3.08721e-05
1.71733e-05
1.86042e-05
1.84748e-05
3.04431e-05
1.70702e-05
2.64144e-05
1.84292e-05
3.05742e-05
1.70891e-05
2.11278e-05
2.60063e-05
4.35333e-05
3.77608e-05
3.76187e-05
2.59134e-05
2.12039e-05
2.09854e-05
3.72129e-05
2.559e-05
4.32987e-05
2.09115e-05
3.73484e-05
2.56781e-05
1.85722e-05
2.66972e-05
3.10033e-05
1.71944e-05
3.087e-05
1.71732e-05
1.86197e-05
3.47367e-05
1.73355e-05
2.29113e-05
2.28972e-05
2.28322e-05
2.28253e-05
3.48705e-05
3.53103e-05
1.7422e-05
2.31016e-05
2.31075e-05
2.31892e-05
3.51792e-05
2.31734e-05
1.82895e-05
2.58885e-05
3.01567e-05
1.70007e-05
3.0011e-05
1.69709e-05
1.8334e-05
2.05672e-05
2.49566e-05
3.63961e-05
4.25764e-05
3.65361e-05
2.05051e-05
2.50389e-05
1.8202e-05
2.56137e-05
2.95875e-05
1.68841e-05
2.97292e-05
1.81607e-05
1.69112e-05
2.07065e-05
3.69476e-05
4.28178e-05
2.53549e-05
3.68111e-05
2.52702e-05
2.0768e-05
1.82985e-05
2.58882e-05
1.7e-05
3.01481e-05
1.69706e-05
3.00172e-05
1.83158e-05
2.05656e-05
2.49489e-05
3.63887e-05
4.25746e-05
2.05019e-05
3.65294e-05
2.50496e-05
1.81857e-05
2.56143e-05
1.68838e-05
2.95917e-05
1.81705e-05
1.69104e-05
2.97219e-05
2.07042e-05
3.69486e-05
4.28187e-05
2.53646e-05
3.68074e-05
2.07674e-05
2.52633e-05
1.84749e-05
3.04382e-05
1.70652e-05
2.64156e-05
1.84299e-05
3.05823e-05
1.70967e-05
2.11317e-05
2.60016e-05
4.35343e-05
3.77563e-05
2.59154e-05
3.76261e-05
2.11974e-05
2.09835e-05
3.72202e-05
2.55892e-05
4.32986e-05
2.56775e-05
2.09152e-05
3.73513e-05
1.85731e-05
2.6698e-05
3.10103e-05
1.72023e-05
3.08658e-05
1.71678e-05
1.86185e-05
1.84563e-05
1.70646e-05
3.04427e-05
2.64166e-05
1.84369e-05
1.70958e-05
3.05762e-05
2.11301e-05
2.60108e-05
4.35339e-05
3.77569e-05
3.76234e-05
2.59058e-05
2.11962e-05
2.09806e-05
3.7212e-05
2.55841e-05
4.32986e-05
2.09127e-05
3.73442e-05
2.56869e-05
1.85817e-05
2.66975e-05
1.72017e-05
3.10037e-05
1.71672e-05
3.08702e-05
1.86028e-05
1.82877e-05
2.58872e-05
1.70019e-05
3.01542e-05
1.69686e-05
3.001e-05
1.83325e-05
2.07027e-05
3.69448e-05
4.2813e-05
2.53565e-05
2.52632e-05
3.68001e-05
2.07702e-05
1.84725e-05
3.04404e-05
1.70633e-05
2.64171e-05
1.8426e-05
3.05714e-05
1.70982e-05
2.11275e-05
2.6002e-05
4.353e-05
3.77575e-05
2.12008e-05
2.58979e-05
3.76173e-05
2.09851e-05
3.72148e-05
2.55776e-05
4.32942e-05
2.09112e-05
2.56814e-05
3.73487e-05
1.85694e-05
2.66907e-05
3.09977e-05
1.72052e-05
1.86152e-05
3.08686e-05
1.71651e-05
1.84741e-05
1.70638e-05
3.04375e-05
2.6415e-05
1.84275e-05
1.70988e-05
3.058e-05
2.11287e-05
2.60024e-05
4.35301e-05
3.77565e-05
3.76168e-05
2.59077e-05
2.12023e-05
2.09841e-05
3.72125e-05
2.55843e-05
4.32953e-05
2.09119e-05
3.73462e-05
2.56718e-05
1.85705e-05
2.66957e-05
1.72056e-05
3.10077e-05
1.71657e-05
3.08645e-05
1.86191e-05
3.47298e-05
1.73347e-05
2.29043e-05
2.29144e-05
2.28188e-05
2.28321e-05
3.48755e-05
3.53188e-05
1.7425e-05
2.31099e-05
2.30931e-05
2.31794e-05
3.51742e-05
2.3184e-05
1.8302e-05
2.58899e-05
1.69926e-05
3.01488e-05
1.69794e-05
3.00188e-05
1.83184e-05
2.05478e-05
2.49474e-05
3.64016e-05
4.25762e-05
2.5054e-05
2.05195e-05
3.65237e-05
1.81872e-05
2.56149e-05
1.68913e-05
2.95936e-05
1.69039e-05
1.81735e-05
2.97215e-05
2.07186e-05
3.69365e-05
4.28197e-05
2.53687e-05
2.52627e-05
3.68144e-05
2.07518e-05
1.84578e-05
1.7073e-05
3.04424e-05
2.64209e-05
1.84397e-05
1.70882e-05
3.05829e-05
2.11279e-05
2.60068e-05
4.35323e-05
3.77608e-05
2.12004e-05
2.58978e-05
3.76233e-05
2.09842e-05
3.72178e-05
2.55777e-05
4.32951e-05
2.09123e-05
2.56824e-05
3.73517e-05
1.85843e-05
2.66947e-05
1.71914e-05
3.10098e-05
1.86048e-05
1.71761e-05
3.08687e-05
1.84583e-05
1.7073e-05
3.04443e-05
2.6417e-05
1.8441e-05
1.70881e-05
3.05761e-05
2.11449e-05
2.60138e-05
4.35356e-05
3.77471e-05
3.76287e-05
2.59044e-05
2.11813e-05
2.09593e-05
3.72243e-05
2.55821e-05
4.32981e-05
2.0928e-05
3.73408e-05
2.56875e-05
1.85862e-05
2.66983e-05
1.71931e-05
3.10056e-05
1.71769e-05
3.08709e-05
1.86053e-05
3.53256e-05
1.74338e-05
2.30964e-05
2.31024e-05
3.5173e-05
2.31881e-05
2.31875e-05
3.64685e-05
1.77212e-05
2.40417e-05
2.40427e-05
3.66263e-05
2.39706e-05
2.39788e-05
1.8896e-05
2.75264e-05
3.18597e-05
1.74307e-05
3.17266e-05
1.74046e-05
1.89175e-05
2.14061e-05
2.62287e-05
3.80287e-05
4.39964e-05
3.81614e-05
2.13598e-05
2.63401e-05
1.87581e-05
2.72384e-05
3.12993e-05
1.7285e-05
3.1432e-05
1.87346e-05
1.73095e-05
2.15955e-05
3.85568e-05
4.42202e-05
2.66744e-05
3.84211e-05
2.65585e-05
2.16359e-05
1.88833e-05
2.75256e-05
3.1857e-05
1.74309e-05
3.17261e-05
1.74051e-05
1.89443e-05
2.14333e-05
2.62414e-05
3.80221e-05
4.39961e-05
2.13543e-05
3.81508e-05
2.63451e-05
1.8775e-05
2.72386e-05
3.12978e-05
1.72853e-05
1.87251e-05
3.14297e-05
1.73095e-05
2.15778e-05
3.85385e-05
4.42269e-05
2.66905e-05
3.84242e-05
2.16704e-05
2.6563e-05
3.6479e-05
1.77217e-05
2.40784e-05
2.40488e-05
2.39722e-05
2.39598e-05
3.66238e-05
1.88906e-05
2.75243e-05
3.18675e-05
1.744e-05
3.1721e-05
1.73987e-05
1.89149e-05
2.14092e-05
2.62418e-05
3.80318e-05
4.39984e-05
3.81535e-05
2.13616e-05
2.63364e-05
1.87702e-05
2.7242e-05
3.12945e-05
1.72807e-05
3.14366e-05
1.87275e-05
1.73149e-05
2.15981e-05
3.85439e-05
4.42257e-05
2.66825e-05
3.84295e-05
2.65696e-05
2.16428e-05
1.88943e-05
2.75238e-05
1.74397e-05
3.18597e-05
1.73976e-05
3.17248e-05
1.89164e-05
2.14079e-05
2.62368e-05
3.80238e-05
4.39932e-05
2.13594e-05
3.81488e-05
2.63417e-05
1.87567e-05
2.72422e-05
1.72795e-05
3.1298e-05
1.87328e-05
1.73146e-05
3.14321e-05
2.15963e-05
3.85473e-05
4.42283e-05
2.66743e-05
3.84233e-05
2.16414e-05
2.65688e-05
1.88815e-05
2.75235e-05
1.74459e-05
3.186e-05
1.7395e-05
3.17222e-05
1.89439e-05
2.14307e-05
2.62366e-05
3.80202e-05
4.39934e-05
2.63382e-05
2.13524e-05
3.81463e-05
1.87744e-05
2.72393e-05
1.72779e-05
3.12926e-05
1.73176e-05
1.87233e-05
3.14314e-05
2.15778e-05
3.85365e-05
4.42245e-05
2.66795e-05
2.65586e-05
3.84225e-05
2.167e-05
3.64763e-05
1.77213e-05
2.40502e-05
2.40508e-05
2.39651e-05
2.39744e-05
3.66049e-05
1.88998e-05
2.75257e-05
1.74277e-05
3.18618e-05
1.741e-05
3.1725e-05
1.89196e-05
2.14062e-05
2.62368e-05
3.80314e-05
4.40007e-05
2.63388e-05
2.13691e-05
3.81466e-05
1.87594e-05
2.72408e-05
1.72886e-05
3.12987e-05
1.73079e-05
1.87378e-05
3.14311e-05
2.16017e-05
3.85582e-05
4.42232e-05
2.66666e-05
2.65709e-05
3.84227e-05
2.16392e-05
3.60233e-05
3.60197e-05
3.60197e-05
3.60085e-05
3.39295e-05
3.38856e-05
3.38855e-05
3.39586e-05
3.21567e-05
3.20022e-05
3.20021e-05
3.19433e-05
3.05324e-05
3.02212e-05
3.02205e-05
2.99749e-05
2.90295e-05
2.85441e-05
2.85435e-05
2.81073e-05
2.76309e-05
2.69761e-05
2.69756e-05
2.63752e-05
2.63255e-05
2.55191e-05
2.55186e-05
2.47916e-05
2.51052e-05
2.41724e-05
2.41716e-05
2.33625e-05
2.39642e-05
2.29374e-05
2.29365e-05
2.20882e-05
2.28984e-05
2.18131e-05
2.1812e-05
2.0969e-05
2.19042e-05
2.07971e-05
2.07959e-05
1.99957e-05
2.09782e-05
1.98861e-05
1.98851e-05
1.91629e-05
2.01154e-05
1.90783e-05
1.90774e-05
1.84688e-05
1.93147e-05
1.83703e-05
1.83697e-05
1.7909e-05
1.85749e-05
1.7759e-05
1.77587e-05
1.74781e-05
1.78936e-05
1.72428e-05
1.72427e-05
1.71669e-05
1.72683e-05
1.68209e-05
1.6821e-05
1.69825e-05
1.66971e-05
1.64923e-05
1.64926e-05
1.69397e-05
1.61785e-05
1.62569e-05
1.62574e-05
1.70325e-05
1.6115e-05
1.72539e-05
3.62977e-05
3.62919e-05
3.62919e-05
3.62977e-05
3.62919e-05
3.62919e-05
3.62908e-05
3.62908e-05
3.62908e-05
3.62908e-05
3.62919e-05
3.62919e-05
3.62977e-05
3.62919e-05
3.62919e-05
3.62977e-05
3.60085e-05