/*--------------------------------*- C++ -*----------------------------------*\
| =========                 |                                                 |
| \\      /  F ield         | OpenFOAM: The Open Source CFD Toolbox           |
|  \\    /   O peration     | Version:  2312                                  |
|   \\  /    A nd           | Website:  www.openfoam.com                      |
|    \\/     M anipulation  |                                                 |
\*---------------------------------------------------------------------------*/
FoamFile
{
    version     2.0;
    format      ascii;
    arch        "LSB;label=32;scalar=64";
    class       volScalarField;
    location    "900";
    object      nut;
}
// * * * * * * * * * * * * * * * * * * * * * * * * * * * * * * * * * * * * * //

dimensions      [0 2 -1 0 0 0 0];

internalField   nonuniform List<scalar> 
43008
(
0.00015833
0.000108542
0.000154172
0.000104787
0.000104785
8.33356e-05
8.51947e-05
8.37803e-05
0.000108518
0.000108503
0.000105633
0.000105616
8.39034e-05
0.000108539
0.000108503
0.000105655
0.000105616
0.000105659
0.000105625
8.52481e-05
8.37041e-05
0.000108524
0.000105654
0.000105638
8.3942e-05
8.35668e-05
0.00010476
0.000104746
8.34638e-05
0.000104781
0.000104746
0.000104756
8.3537e-05
0.000104769
6.51356e-05
4.95067e-05
6.39671e-05
4.95229e-05
2.36524e-05
6.51265e-05
4.95016e-05
6.39721e-05
4.95182e-05
0.000158325
0.000158321
0.000158314
0.000155205
0.0001552
0.000155195
0.00015519
6.16468e-05
0.000107542
6.23399e-05
0.000133384
2.36551e-05
2.36513e-05
6.1654e-05
0.000134454
6.15878e-05
0.000107538
6.08152e-05
0.000133375
6.23489e-05
8.48338e-05
5.93408e-05
5.93392e-05
6.7741e-05
4.95324e-05
6.66879e-05
4.95481e-05
2.36418e-05
2.3638e-05
6.77353e-05
4.9527e-05
6.66895e-05
4.9543e-05
0.000154168
0.000154162
0.000154157
6.42341e-05
6.36947e-05
0.000130148
0.000103914
6.32754e-05
6.44093e-05
0.000129104
2.36408e-05
2.36373e-05
6.42363e-05
0.000130135
6.36969e-05
0.000103909
6.32825e-05
0.000129093
6.43806e-05
6.00605e-05
6.00597e-05
8.34733e-05
6.04236e-05
6.04442e-05
2.36583e-05
2.36546e-05
2.36559e-05
2.36523e-05
5.89455e-05
5.89305e-05
8.46587e-05
5.93289e-05
5.93462e-05
2.36474e-05
2.36514e-05
2.36451e-05
2.36488e-05
8.4308e-05
5.9893e-05
5.99101e-05
5.95272e-05
5.95124e-05
6.51335e-05
4.95009e-05
6.39649e-05
4.95173e-05
6.16e-05
6.15893e-05
0.000134461
0.000107516
6.08725e-05
6.23418e-05
0.000133379
6.16302e-05
6.15763e-05
0.000134453
0.000107499
6.08435e-05
6.2351e-05
0.000133372
6.53657e-05
4.95357e-05
4.95199e-05
6.6477e-05
6.53651e-05
4.95291e-05
4.95137e-05
6.64788e-05
6.20617e-05
0.000106586
6.33965e-05
0.00013122
6.26542e-05
0.000132284
6.28513e-05
6.20362e-05
0.00010657
6.34049e-05
0.000131214
6.26429e-05
0.000132277
6.2882e-05
8.47397e-05
5.93399e-05
5.93472e-05
2.36535e-05
2.36451e-05
2.3649e-05
8.41862e-05
5.99019e-05
5.99119e-05
5.95064e-05
5.9513e-05
2.36467e-05
2.36501e-05
6.16299e-05
6.15816e-05
0.000134458
0.000107537
6.08354e-05
6.23486e-05
0.000133377
6.51408e-05
4.94975e-05
6.39589e-05
4.9514e-05
6.16418e-05
0.000134444
6.15725e-05
0.000107498
6.08337e-05
0.000133363
6.23454e-05
6.53722e-05
4.95305e-05
4.95147e-05
6.64761e-05
6.20275e-05
0.000106607
6.34071e-05
0.000131218
6.26478e-05
0.00013228
6.28838e-05
6.53576e-05
4.95262e-05
4.95105e-05
6.64829e-05
6.20218e-05
0.000106571
0.000131204
6.34019e-05
0.000132265
6.26437e-05
6.28878e-05
6.51041e-05
4.95185e-05
6.1643e-05
0.000107508
0.000133378
6.23544e-05
6.51262e-05
4.95146e-05
6.20032e-05
0.000106613
6.34002e-05
0.000131227
6.26535e-05
0.000132292
6.29031e-05
6.53803e-05
4.95311e-05
4.95157e-05
6.64328e-05
6.20225e-05
0.00010658
0.000131219
6.33715e-05
0.000132282
6.26437e-05
6.29001e-05
6.53687e-05
4.95269e-05
4.95118e-05
6.64705e-05
5.89235e-05
5.89309e-05
8.45986e-05
5.93387e-05
5.93481e-05
2.36573e-05
2.36535e-05
2.36442e-05
2.36478e-05
8.43364e-05
5.99029e-05
5.99112e-05
5.95055e-05
5.95132e-05
2.36464e-05
2.365e-05
6.16367e-05
0.00013445
6.15795e-05
0.000107522
6.0832e-05
0.000133372
6.23436e-05
6.51198e-05
4.95025e-05
6.39809e-05
4.95191e-05
6.51207e-05
4.94968e-05
6.39764e-05
4.95131e-05
6.2013e-05
0.00010661
0.000131217
6.34062e-05
0.000132278
6.2651e-05
6.28995e-05
6.203e-05
0.000106594
0.000131213
6.33942e-05
0.000132275
6.26466e-05
6.28837e-05
6.53806e-05
4.95312e-05
4.95154e-05
6.64603e-05
6.53763e-05
4.95253e-05
4.95098e-05
6.64633e-05
2.36521e-05
2.36509e-05
8.41861e-05
5.99051e-05
5.99036e-05
5.9508e-05
5.95075e-05
2.3645e-05
2.36486e-05
2.36438e-05
2.36475e-05
2.36441e-05
2.36403e-05
2.36418e-05
2.36382e-05
6.0082e-05
6.00683e-05
8.30438e-05
6.04304e-05
6.04306e-05
6.77433e-05
4.95262e-05
6.66847e-05
4.95417e-05
6.416e-05
6.37038e-05
0.000130139
0.000103887
6.33277e-05
6.43836e-05
0.000129096
6.42024e-05
6.36963e-05
0.000130134
0.000103873
6.33088e-05
6.43653e-05
0.000129093
6.00606e-05
6.00664e-05
8.29996e-05
6.04221e-05
6.04533e-05
2.36433e-05
2.36398e-05
6.42293e-05
6.36968e-05
0.000130137
0.000103908
6.33016e-05
6.43955e-05
0.000129094
6.77308e-05
4.95233e-05
6.66796e-05
4.95385e-05
6.42438e-05
0.00013012
6.369e-05
0.000103869
6.32944e-05
0.00012908
6.44116e-05
6.77009e-05
4.9528e-05
6.67117e-05
4.95436e-05
6.41907e-05
0.000130139
6.37158e-05
0.000103884
6.32898e-05
0.000129098
6.4362e-05
6.77255e-05
4.9524e-05
6.66891e-05
4.95393e-05
6.00601e-05
6.00686e-05
8.30383e-05
6.04472e-05
6.04524e-05
2.3643e-05
2.36395e-05
6.4244e-05
0.000130132
6.36931e-05
0.000103896
6.33004e-05
0.000129091
6.4437e-05
6.77306e-05
4.9528e-05
6.67011e-05
4.95435e-05
6.77126e-05
4.95223e-05
6.66979e-05
4.9538e-05
2.36416e-05
2.3638e-05
2.36404e-05
2.36369e-05
3.61704e-05
6.46758e-05
4.03052e-05
6.7553e-05
4.03028e-05
6.71517e-05
3.61733e-05
2.02412e-05
6.67432e-05
4.95167e-05
2.02406e-05
6.69457e-05
3.61702e-05
6.44352e-05
4.03009e-05
6.6633e-05
3.61674e-05
4.03028e-05
6.70423e-05
2.02378e-05
6.7155e-05
4.95134e-05
6.69672e-05
2.02383e-05
2.36561e-05
2.36526e-05
3.61704e-05
6.46854e-05
6.75547e-05
4.03047e-05
6.7145e-05
4.03025e-05
3.61734e-05
2.02416e-05
6.67472e-05
4.95118e-05
2.0241e-05
6.69332e-05
3.61703e-05
6.44254e-05
6.66277e-05
4.03006e-05
3.61675e-05
6.70438e-05
4.03024e-05
2.02382e-05
6.71533e-05
4.95084e-05
6.69655e-05
2.02388e-05
2.3655e-05
2.36515e-05
6.9312e-05
2.1579e-05
2.15759e-05
2.15789e-05
2.15757e-05
6.94762e-05
7.01915e-05
5.90493e-05
6.60471e-05
4.70417e-05
7.02425e-05
5.90472e-05
6.60677e-05
4.70323e-05
6.92638e-05
2.15824e-05
2.15792e-05
7.04935e-05
4.70581e-05
5.9218e-05
6.66987e-05
6.6451e-05
4.70424e-05
7.06853e-05
7.05358e-05
4.70488e-05
5.92179e-05
6.67176e-05
6.64512e-05
4.70334e-05
7.07319e-05
3.61838e-05
6.73223e-05
4.03257e-05
6.94506e-05
4.03163e-05
6.9074e-05
3.61872e-05
2.023e-05
6.75992e-05
4.95418e-05
2.02295e-05
6.77642e-05
3.61835e-05
6.71167e-05
4.03129e-05
6.86145e-05
3.61803e-05
4.03185e-05
6.8998e-05
2.02266e-05
6.79527e-05
4.95386e-05
6.77924e-05
2.02271e-05
2.36416e-05
2.36383e-05
3.61838e-05
6.73234e-05
6.94507e-05
4.03249e-05
6.90703e-05
4.03164e-05
3.61871e-05
2.02303e-05
6.75933e-05
4.95364e-05
2.02297e-05
6.77602e-05
3.61836e-05
6.71164e-05
6.86105e-05
4.03129e-05
3.61803e-05
6.89973e-05
4.03177e-05
2.02269e-05
6.79523e-05
4.95331e-05
6.77887e-05
2.02274e-05
2.36407e-05
2.36374e-05
7.01182e-05
2.15656e-05
2.15624e-05
2.15655e-05
2.15623e-05
7.02644e-05
7.21309e-05
6.83913e-05
4.709e-05
6.01766e-05
7.1951e-05
6.86412e-05
4.71048e-05
7.21471e-05
6.83988e-05
4.7081e-05
6.01769e-05
7.20008e-05
6.86466e-05
4.70954e-05
7.00759e-05
2.15688e-05
2.15657e-05
6.99247e-05
2.15689e-05
2.15658e-05
7.23982e-05
4.712e-05
6.0333e-05
6.92872e-05
6.9035e-05
4.71048e-05
7.26022e-05
7.24684e-05
4.71102e-05
6.03269e-05
6.9258e-05
6.906e-05
4.70959e-05
7.25885e-05
2.36582e-05
2.3655e-05
2.36558e-05
2.36524e-05
6.93175e-05
2.15797e-05
2.15764e-05
2.15796e-05
2.15763e-05
6.94818e-05
7.01961e-05
6.58093e-05
4.70288e-05
5.9037e-05
6.99882e-05
4.70443e-05
6.60507e-05
7.02401e-05
6.58189e-05
4.70175e-05
5.90555e-05
7.00346e-05
4.70336e-05
6.60448e-05
6.92688e-05
2.15828e-05
2.15796e-05
6.91002e-05
2.15831e-05
2.15798e-05
7.04916e-05
4.70611e-05
5.92374e-05
6.66945e-05
4.70454e-05
7.06976e-05
6.64555e-05
7.05394e-05
4.70502e-05
5.92236e-05
6.66993e-05
4.70346e-05
7.07399e-05
6.64692e-05
2.36477e-05
2.3651e-05
2.36453e-05
2.36486e-05
6.96882e-05
2.15762e-05
2.15729e-05
6.95283e-05
2.15765e-05
2.1573e-05
7.14632e-05
6.79831e-05
5.98077e-05
4.70927e-05
4.70775e-05
6.77543e-05
7.16613e-05
7.15134e-05
6.79937e-05
5.97908e-05
4.70816e-05
4.70664e-05
6.77685e-05
7.16983e-05
7.11892e-05
4.70622e-05
6.71082e-05
5.96175e-05
7.09831e-05
4.70766e-05
6.73372e-05
7.12282e-05
4.70512e-05
6.71187e-05
5.96309e-05
7.10312e-05
4.70653e-05
6.73387e-05
6.97328e-05
2.15734e-05
2.15697e-05
2.15732e-05
2.15696e-05
6.98886e-05
3.6169e-05
6.46757e-05
4.03051e-05
6.75462e-05
4.03027e-05
6.71439e-05
3.61719e-05
2.02403e-05
6.67297e-05
4.95109e-05
2.02397e-05
6.69153e-05
3.61688e-05
6.44332e-05
4.03008e-05
6.66258e-05
4.03027e-05
3.61661e-05
6.70342e-05
2.02369e-05
6.71333e-05
4.95075e-05
6.69473e-05
2.02375e-05
3.61766e-05
4.03055e-05
6.76541e-05
6.58174e-05
3.61735e-05
4.03085e-05
6.80491e-05
2.02322e-05
4.95258e-05
6.75643e-05
2.02328e-05
6.73877e-05
2.02355e-05
6.71869e-05
4.95289e-05
2.0235e-05
6.73708e-05
3.61769e-05
6.60385e-05
4.0313e-05
6.8531e-05
3.618e-05
4.0309e-05
6.81425e-05
3.61752e-05
4.03054e-05
6.76463e-05
6.58152e-05
3.61722e-05
4.03084e-05
6.80416e-05
2.02313e-05
4.95191e-05
6.7544e-05
6.73696e-05
2.0232e-05
2.02346e-05
6.71665e-05
4.95227e-05
2.02341e-05
6.73398e-05
3.61755e-05
6.60346e-05
4.03126e-05
6.85223e-05
4.0309e-05
6.81344e-05
3.61785e-05
6.93216e-05
2.15764e-05
2.15793e-05
2.15763e-05
2.15792e-05
6.94771e-05
7.02013e-05
5.90498e-05
4.70293e-05
6.60135e-05
7.01564e-05
5.90574e-05
6.60212e-05
4.70394e-05
6.92625e-05
2.15795e-05
2.15825e-05
7.05666e-05
4.70459e-05
5.92155e-05
6.66719e-05
4.70384e-05
6.65013e-05
7.07059e-05
7.05231e-05
4.70562e-05
5.92234e-05
6.66741e-05
6.6476e-05
4.70487e-05
7.06618e-05
2.36572e-05
2.36536e-05
2.36453e-05
2.36487e-05
6.96821e-05
2.15729e-05
2.15759e-05
6.95318e-05
2.1573e-05
2.1576e-05
7.15389e-05
6.79656e-05
5.9784e-05
4.70772e-05
6.77939e-05
4.70713e-05
7.1673e-05
7.14942e-05
6.7974e-05
5.97888e-05
4.70872e-05
4.70816e-05
6.77689e-05
7.16344e-05
7.11887e-05
4.70546e-05
6.71404e-05
5.96234e-05
6.73245e-05
7.10561e-05
4.70617e-05
7.11441e-05
4.7065e-05
6.71256e-05
5.96343e-05
7.10136e-05
4.7072e-05
6.73288e-05
6.97361e-05
2.15698e-05
2.15726e-05
2.15696e-05
2.15725e-05
6.98831e-05
2.36468e-05
2.36502e-05
3.61686e-05
6.46671e-05
4.03045e-05
6.75402e-05
4.03021e-05
6.71444e-05
3.61714e-05
2.02404e-05
6.67119e-05
4.95076e-05
2.02398e-05
6.69197e-05
3.61684e-05
6.44382e-05
4.03003e-05
6.66251e-05
4.03021e-05
3.61657e-05
6.70285e-05
2.0237e-05
6.71289e-05
4.95044e-05
6.69432e-05
2.02376e-05
3.61766e-05
6.7649e-05
4.03052e-05
6.58127e-05
3.61736e-05
6.80515e-05
4.0308e-05
2.02326e-05
4.95204e-05
6.75638e-05
2.02331e-05
6.73922e-05
2.02359e-05
6.7187e-05
4.95236e-05
2.02354e-05
6.73586e-05
3.61769e-05
6.6041e-05
6.85331e-05
4.03123e-05
3.61801e-05
6.81376e-05
4.03088e-05
3.61747e-05
4.03048e-05
6.76468e-05
6.58214e-05
3.61717e-05
4.03079e-05
6.80348e-05
2.02314e-05
4.95162e-05
6.75399e-05
6.73647e-05
2.02319e-05
2.02347e-05
6.71613e-05
4.95197e-05
2.02342e-05
6.73438e-05
3.61751e-05
6.60281e-05
4.03122e-05
6.85147e-05
4.03083e-05
6.81363e-05
3.61781e-05
3.61701e-05
6.46894e-05
6.75052e-05
4.03038e-05
6.71778e-05
4.03015e-05
3.61729e-05
2.02381e-05
6.71406e-05
4.95083e-05
6.69567e-05
2.02388e-05
3.61689e-05
6.46786e-05
4.03046e-05
6.75394e-05
4.03022e-05
6.71474e-05
3.61718e-05
2.02372e-05
6.71369e-05
4.95043e-05
6.69342e-05
2.02378e-05
3.61762e-05
6.76769e-05
4.03042e-05
6.57833e-05
3.61733e-05
6.80031e-05
4.03072e-05
2.02325e-05
4.95211e-05
6.75526e-05
6.73827e-05
2.02331e-05
2.02359e-05
6.71798e-05
4.95248e-05
2.02353e-05
6.73489e-05
3.61767e-05
6.6055e-05
6.84848e-05
4.03113e-05
6.81629e-05
4.0308e-05
3.61796e-05
3.6175e-05
4.03049e-05
6.76503e-05
6.58097e-05
3.6172e-05
4.0308e-05
6.80348e-05
2.02315e-05
4.9517e-05
6.75432e-05
6.73633e-05
2.02321e-05
2.02349e-05
6.71538e-05
4.95206e-05
2.02344e-05
6.73369e-05
3.61754e-05
6.60386e-05
4.03121e-05
6.85151e-05
4.03087e-05
6.81378e-05
3.61784e-05
6.9318e-05
2.15766e-05
2.15798e-05
2.15765e-05
2.15797e-05
6.94757e-05
7.02256e-05
6.58225e-05
4.70221e-05
5.90472e-05
4.7029e-05
7.00461e-05
6.60465e-05
7.01903e-05
6.58056e-05
4.70287e-05
5.90559e-05
6.60592e-05
6.99972e-05
4.70446e-05
6.92628e-05
2.15799e-05
2.1583e-05
2.158e-05
6.91009e-05
2.15831e-05
7.05469e-05
4.70456e-05
5.92172e-05
6.6699e-05
4.70387e-05
6.64679e-05
7.0726e-05
7.0501e-05
4.70614e-05
5.92252e-05
6.67084e-05
6.64482e-05
4.70459e-05
7.06937e-05
2.36572e-05
2.36537e-05
2.36443e-05
2.36477e-05
6.96801e-05
2.15732e-05
2.15763e-05
6.95296e-05
2.15733e-05
2.15764e-05
7.15185e-05
6.79934e-05
5.97829e-05
4.70814e-05
6.77639e-05
4.70661e-05
7.16953e-05
7.14676e-05
6.79947e-05
5.97918e-05
4.70925e-05
4.70773e-05
6.77432e-05
7.16619e-05
7.12175e-05
4.70555e-05
6.71165e-05
5.96244e-05
6.73463e-05
7.10377e-05
4.70632e-05
7.11888e-05
4.70622e-05
6.70973e-05
5.9632e-05
7.09898e-05
4.70764e-05
6.73497e-05
6.9734e-05
2.15699e-05
2.15731e-05
2.15698e-05
2.1573e-05
6.98812e-05
2.36465e-05
2.36499e-05
3.61706e-05
6.46886e-05
6.75491e-05
4.03044e-05
6.71511e-05
4.0302e-05
3.61736e-05
2.0242e-05
6.67392e-05
4.95125e-05
6.69404e-05
2.02415e-05
3.61705e-05
6.44196e-05
6.66353e-05
4.03002e-05
6.70387e-05
3.61677e-05
4.0302e-05
2.02387e-05
6.71612e-05
4.95093e-05
6.69639e-05
2.02392e-05
3.6168e-05
6.4684e-05
6.75382e-05
4.03038e-05
6.71457e-05
4.03015e-05
3.61708e-05
2.024e-05
6.67243e-05
4.95068e-05
2.02395e-05
6.69082e-05
3.61677e-05
6.44199e-05
6.66282e-05
4.02996e-05
3.6165e-05
6.70274e-05
4.03015e-05
2.02367e-05
6.71306e-05
4.95037e-05
6.69521e-05
2.02373e-05
3.61768e-05
6.76545e-05
4.03047e-05
6.57986e-05
3.61738e-05
6.80459e-05
4.03078e-05
2.0233e-05
4.95212e-05
6.75648e-05
6.7389e-05
2.02336e-05
2.02364e-05
6.71761e-05
4.95245e-05
2.02358e-05
6.73569e-05
3.61771e-05
6.60509e-05
6.8525e-05
4.03119e-05
6.81428e-05
4.03084e-05
3.61802e-05
3.61741e-05
6.76488e-05
4.03041e-05
6.57988e-05
3.61711e-05
6.80355e-05
4.03072e-05
2.02311e-05
4.95157e-05
6.75357e-05
6.73774e-05
2.02315e-05
2.02344e-05
6.71632e-05
4.95188e-05
2.02339e-05
6.73368e-05
3.61744e-05
6.60468e-05
6.85153e-05
4.03113e-05
6.81361e-05
4.03078e-05
3.61775e-05
2.36558e-05
2.36523e-05
2.36546e-05
2.36511e-05
6.96821e-05
2.15755e-05
2.15724e-05
6.9523e-05
2.15757e-05
2.15725e-05
7.14832e-05
6.79961e-05
5.97852e-05
4.70896e-05
7.16359e-05
6.7739e-05
4.70745e-05
7.15307e-05
6.80093e-05
5.97842e-05
4.70803e-05
7.16794e-05
6.77488e-05
4.70655e-05
7.11592e-05
4.70594e-05
6.71002e-05
5.9625e-05
7.09906e-05
6.73478e-05
4.70736e-05
7.12033e-05
4.70502e-05
6.71045e-05
5.96236e-05
7.10347e-05
6.73533e-05
4.70641e-05
6.97274e-05
2.15723e-05
2.15691e-05
6.98825e-05
2.15722e-05
2.1569e-05
2.36451e-05
2.36485e-05
2.36439e-05
2.36473e-05
2.36437e-05
2.36406e-05
2.36417e-05
2.36384e-05
7.01244e-05
2.15665e-05
2.15628e-05
2.15664e-05
2.15627e-05
7.02707e-05
7.21368e-05
6.84076e-05
4.70934e-05
6.01672e-05
7.1938e-05
4.71079e-05
6.86235e-05
7.21665e-05
6.84165e-05
4.70823e-05
6.01822e-05
7.19909e-05
4.70966e-05
6.86336e-05
7.00833e-05
2.15699e-05
2.15662e-05
6.99307e-05
2.157e-05
2.15663e-05
7.23897e-05
4.7123e-05
6.03509e-05
6.92773e-05
4.71077e-05
7.26067e-05
6.9048e-05
7.2451e-05
4.71117e-05
6.03404e-05
6.92751e-05
4.70968e-05
7.26321e-05
6.90627e-05
3.61824e-05
6.73162e-05
4.03212e-05
6.94407e-05
4.03202e-05
6.90675e-05
3.61855e-05
2.02291e-05
6.75758e-05
4.95352e-05
2.02286e-05
6.77401e-05
3.6182e-05
6.71206e-05
4.03137e-05
6.86073e-05
4.03171e-05
3.61789e-05
6.89884e-05
2.02257e-05
6.79315e-05
4.95323e-05
6.7768e-05
2.02262e-05
7.01257e-05
2.15632e-05
2.15658e-05
2.15631e-05
2.15658e-05
7.02656e-05
7.21345e-05
6.84314e-05
4.70868e-05
6.0175e-05
4.70927e-05
7.20084e-05
6.86285e-05
7.21252e-05
6.84147e-05
4.70962e-05
6.0186e-05
6.86211e-05
7.19565e-05
4.71022e-05
7.00762e-05
2.15665e-05
2.15691e-05
2.15666e-05
6.9934e-05
2.15692e-05
7.24753e-05
4.71065e-05
6.03314e-05
6.92816e-05
4.7102e-05
6.90672e-05
7.25958e-05
7.24052e-05
4.71163e-05
6.03329e-05
6.92699e-05
6.90565e-05
4.71111e-05
7.26056e-05
2.36432e-05
2.36399e-05
3.61819e-05
6.73209e-05
4.03248e-05
6.94253e-05
4.03158e-05
6.90737e-05
3.61851e-05
2.0229e-05
6.75744e-05
4.95321e-05
2.02285e-05
6.77398e-05
3.61816e-05
6.7116e-05
4.03123e-05
6.86091e-05
4.03177e-05
3.61785e-05
6.89785e-05
2.02257e-05
6.79243e-05
4.95289e-05
6.77683e-05
2.02262e-05
3.61837e-05
6.73471e-05
6.94057e-05
4.03196e-05
6.90933e-05
4.03197e-05
3.61866e-05
2.02303e-05
6.75883e-05
4.95373e-05
6.77486e-05
2.02297e-05
3.61832e-05
6.7075e-05
6.86341e-05
4.03129e-05
6.89542e-05
3.61801e-05
4.03156e-05
2.02268e-05
6.79379e-05
4.95339e-05
6.77832e-05
2.02274e-05
3.61823e-05
6.73286e-05
4.03204e-05
6.94319e-05
4.03203e-05
6.90699e-05
3.61854e-05
2.02292e-05
6.7568e-05
4.95329e-05
2.02287e-05
6.77386e-05
3.61819e-05
6.71025e-05
4.03135e-05
6.86105e-05
3.61788e-05
4.03165e-05
6.89818e-05
2.02258e-05
6.79294e-05
4.95297e-05
6.77636e-05
2.02263e-05
7.01254e-05
2.15631e-05
2.15663e-05
2.15631e-05
2.15662e-05
7.02608e-05
7.21681e-05
6.84152e-05
4.70818e-05
6.01779e-05
4.70962e-05
7.19881e-05
6.86295e-05
7.21057e-05
6.83988e-05
4.70934e-05
6.01853e-05
6.86347e-05
7.19471e-05
4.71073e-05
7.00757e-05
2.15664e-05
2.15696e-05
2.15665e-05
6.99302e-05
2.15697e-05
7.24492e-05
4.71114e-05
6.03257e-05
6.92756e-05
4.70967e-05
6.90592e-05
7.26196e-05
7.24235e-05
4.71224e-05
6.03351e-05
6.92819e-05
6.90429e-05
4.71078e-05
7.25486e-05
2.36429e-05
2.36396e-05
3.61841e-05
6.73309e-05
6.94415e-05
4.03204e-05
6.90768e-05
4.03198e-05
3.61873e-05
2.02307e-05
6.7591e-05
4.95372e-05
6.77593e-05
2.02302e-05
3.61837e-05
6.71024e-05
6.86162e-05
4.03131e-05
6.89881e-05
3.61805e-05
4.03164e-05
2.02274e-05
6.79498e-05
4.95339e-05
6.7789e-05
2.02278e-05
3.61814e-05
6.73391e-05
6.94346e-05
4.03196e-05
6.90697e-05
4.03194e-05
3.61844e-05
2.02287e-05
6.75777e-05
4.95315e-05
2.02283e-05
6.77303e-05
3.6181e-05
6.70953e-05
6.86089e-05
4.03126e-05
3.61779e-05
6.89824e-05
4.03157e-05
2.02254e-05
6.79178e-05
4.9528e-05
6.77757e-05
2.02259e-05
2.36415e-05
2.36382e-05
2.36403e-05
2.3637e-05
0.000180014
0.000180023
0.000157283
0.000179149
0.000179158
0.000197122
0.000197823
6.88766e-05
8.5271e-05
7.05089e-05
7.04368e-05
0.000176563
0.000176572
0.000153133
0.000175702
0.000175711
0.000194315
0.000195017
7.15168e-05
7.11601e-05
7.12361e-05
8.36799e-05
7.12723e-05
7.15119e-05
7.14307e-05
6.88748e-05
7.03064e-05
7.03017e-05
8.50672e-05
6.86032e-05
7.04006e-05
7.03949e-05
7.05794e-05
8.39267e-05
7.11123e-05
7.11082e-05
7.09706e-05
7.09627e-05
7.0882e-05
6.88281e-05
8.52466e-05
7.03032e-05
7.04552e-05
7.06337e-05
8.38217e-05
7.11807e-05
7.1028e-05
7.08918e-05
7.10763e-05
7.08046e-05
6.88835e-05
7.03846e-05
7.02052e-05
8.50855e-05
7.05022e-05
6.86088e-05
7.0294e-05
7.05888e-05
8.39548e-05
7.10014e-05
7.11746e-05
7.10701e-05
7.08995e-05
7.08498e-05
7.06073e-05
8.36887e-05
7.12347e-05
7.11076e-05
7.08336e-05
7.08571e-05
7.09227e-05
7.15487e-05
7.12676e-05
7.12573e-05
8.34185e-05
7.12346e-05
7.14057e-05
7.13837e-05
7.14621e-05
7.11897e-05
7.13341e-05
8.34614e-05
7.13283e-05
7.12951e-05
7.15103e-05
7.15432e-05
7.1312e-05
7.1217e-05
8.33719e-05
7.1392e-05
7.12506e-05
7.14077e-05
0.000180011
0.000180023
0.000157278
0.000179146
0.000179157
0.000197121
0.000197822
0.000180007
0.000180016
0.000157273
0.000179142
0.000179152
0.000197117
0.000197817
0.000180007
0.000180012
0.000157268
0.000179142
0.000179148
0.000197115
0.000197816
0.000156248
0.000177423
0.000177432
0.000178286
0.000178295
0.000196421
0.000195719
0.000156244
0.00017742
0.000177431
0.000178283
0.000178295
0.00019642
0.000195718
0.000156238
0.000177416
0.000177426
0.000178278
0.000178288
0.000196415
0.000195714
0.000156233
0.000177416
0.000177423
0.000178279
0.000178285
0.000196414
0.000195712
7.30531e-05
6.13927e-05
6.31949e-05
7.69169e-05
6.29963e-05
7.67419e-05
7.30307e-05
6.67846e-05
6.38317e-05
6.21138e-05
6.52059e-05
6.49498e-05
6.35387e-05
6.71556e-05
7.29984e-05
6.14e-05
7.68049e-05
6.32209e-05
7.68178e-05
6.29654e-05
7.31076e-05
6.69999e-05
6.45224e-05
6.29132e-05
6.18181e-05
6.66629e-05
6.48279e-05
6.32173e-05
7.33166e-05
6.10602e-05
7.72228e-05
6.23244e-05
7.32268e-05
7.72009e-05
6.25778e-05
6.68124e-05
6.38223e-05
6.21202e-05
6.51693e-05
6.49535e-05
6.35592e-05
6.71235e-05
6.92633e-05
8.45719e-05
7.07001e-05
7.0647e-05
7.04043e-05
7.04353e-05
6.95649e-05
0.00017656
0.000176573
0.000153128
0.000175699
0.00017571
0.000194314
0.000195016
0.000176555
0.000176565
0.000153123
0.000175694
0.000175705
0.000194309
0.000195011
0.000176556
0.000176562
0.000153118
0.000175695
0.000175702
0.000194308
0.00019501
7.23906e-05
6.39256e-05
6.58709e-05
7.58458e-05
6.56932e-05
7.55392e-05
7.25857e-05
6.77382e-05
6.63396e-05
6.54423e-05
6.39242e-05
6.73285e-05
6.66251e-05
6.57144e-05
7.26156e-05
6.35538e-05
6.50029e-05
7.58111e-05
7.26035e-05
6.5185e-05
7.60322e-05
6.75436e-05
6.62977e-05
6.42057e-05
6.71242e-05
6.68302e-05
6.6095e-05
6.80661e-05
7.23663e-05
6.3936e-05
7.5473e-05
6.59295e-05
7.56868e-05
6.56473e-05
7.25964e-05
6.77182e-05
6.63479e-05
6.54558e-05
6.39201e-05
6.73604e-05
6.66321e-05
6.57202e-05
7.26884e-05
6.35506e-05
7.5901e-05
6.49609e-05
7.2549e-05
7.58884e-05
6.52411e-05
6.76128e-05
6.63183e-05
6.42228e-05
6.7145e-05
6.68188e-05
6.60999e-05
6.78326e-05
7.19286e-05
8.29732e-05
7.18224e-05
7.17246e-05
7.15065e-05
7.15459e-05
7.2119e-05
6.92651e-05
8.47951e-05
7.06155e-05
7.06017e-05
6.95226e-05
7.04838e-05
7.04778e-05
7.02092e-05
8.42044e-05
7.07173e-05
7.07084e-05
6.99326e-05
7.0829e-05
7.08518e-05
7.3183e-05
6.14581e-05
6.3189e-05
7.66862e-05
6.30067e-05
7.69261e-05
7.2924e-05
6.69815e-05
6.45438e-05
6.29412e-05
6.18172e-05
6.3183e-05
6.66798e-05
6.48049e-05
7.31479e-05
6.1008e-05
6.23557e-05
7.73214e-05
6.25396e-05
7.34087e-05
7.70821e-05
6.68237e-05
6.38159e-05
6.2119e-05
6.52008e-05
6.35682e-05
6.49362e-05
6.71116e-05
7.2997e-05
6.14334e-05
6.32255e-05
7.66909e-05
6.29705e-05
7.69205e-05
7.33138e-05
6.70147e-05
6.45657e-05
6.29093e-05
6.1822e-05
6.6651e-05
6.31979e-05
6.47595e-05
7.34584e-05
6.10347e-05
6.23396e-05
7.7315e-05
7.32776e-05
6.25702e-05
7.7083e-05
6.68009e-05
6.38543e-05
6.21102e-05
6.51957e-05
6.3548e-05
6.71519e-05
6.49848e-05
7.27472e-05
6.36606e-05
7.65719e-05
6.22162e-05
7.29747e-05
6.38479e-05
7.63552e-05
6.71635e-05
6.61228e-05
6.31741e-05
6.50645e-05
6.58271e-05
6.48313e-05
6.74651e-05
6.73203e-05
6.42011e-05
6.53908e-05
6.28747e-05
6.56925e-05
6.69786e-05
6.44455e-05
7.28479e-05
6.2687e-05
6.45195e-05
7.60461e-05
6.43294e-05
7.62694e-05
7.26395e-05
7.31053e-05
6.36366e-05
7.65701e-05
6.22386e-05
7.27809e-05
6.38698e-05
7.63637e-05
6.714e-05
6.61019e-05
6.31652e-05
6.51156e-05
6.48028e-05
6.58824e-05
6.75246e-05
6.73469e-05
6.41766e-05
6.54334e-05
6.28708e-05
6.69564e-05
6.4433e-05
6.55986e-05
7.26222e-05
6.26643e-05
6.45571e-05
7.60534e-05
6.42976e-05
7.62662e-05
7.29427e-05
6.93143e-05
8.46544e-05
7.06698e-05
7.05201e-05
7.05827e-05
7.04331e-05
6.95013e-05
7.01436e-05
8.42357e-05
7.06651e-05
7.08e-05
7.08947e-05
6.9971e-05
7.07678e-05
7.29133e-05
6.14265e-05
6.32561e-05
7.68847e-05
6.29399e-05
7.67425e-05
7.3301e-05
6.69915e-05
6.45962e-05
6.29222e-05
6.18241e-05
6.31994e-05
6.66825e-05
6.4728e-05
7.34719e-05
6.10455e-05
6.23082e-05
7.71613e-05
6.25939e-05
7.31348e-05
7.72826e-05
6.68297e-05
6.38277e-05
6.21143e-05
6.51404e-05
6.35614e-05
6.50049e-05
6.71182e-05
7.31227e-05
6.1417e-05
7.68869e-05
6.31613e-05
7.67463e-05
6.30205e-05
7.28649e-05
6.69756e-05
6.45525e-05
6.29091e-05
6.18145e-05
6.66618e-05
6.31778e-05
6.47568e-05
7.30921e-05
6.10506e-05
7.71723e-05
6.23632e-05
7.33514e-05
7.72809e-05
6.25218e-05
6.68126e-05
6.38564e-05
6.21132e-05
6.51655e-05
6.35531e-05
6.71118e-05
6.49619e-05
7.3066e-05
6.36042e-05
7.6408e-05
6.22511e-05
7.27582e-05
6.39106e-05
7.65538e-05
6.71739e-05
6.60717e-05
6.31713e-05
6.50764e-05
6.59226e-05
6.48321e-05
6.74717e-05
6.73309e-05
6.4195e-05
6.54448e-05
6.28722e-05
6.56009e-05
6.69876e-05
6.44386e-05
7.26077e-05
6.26576e-05
6.45825e-05
7.62617e-05
6.42709e-05
7.609e-05
7.29205e-05
7.26988e-05
7.64048e-05
6.36688e-05
6.22616e-05
7.29234e-05
7.65489e-05
6.38379e-05
6.71609e-05
6.60891e-05
6.31637e-05
6.51039e-05
6.48174e-05
6.58656e-05
6.74583e-05
6.73082e-05
6.41729e-05
6.54082e-05
6.28695e-05
6.69719e-05
6.44213e-05
6.56408e-05
7.2802e-05
6.26493e-05
7.62605e-05
6.45063e-05
7.60916e-05
6.43333e-05
7.25963e-05
7.29354e-05
6.1408e-05
7.69169e-05
6.32334e-05
7.67259e-05
6.29526e-05
7.32993e-05
6.68086e-05
6.38442e-05
6.21042e-05
6.51909e-05
6.49741e-05
6.35307e-05
6.71499e-05
7.28579e-05
6.3642e-05
7.64077e-05
6.22687e-05
7.28611e-05
6.38379e-05
7.6584e-05
6.71401e-05
6.61305e-05
6.31687e-05
6.51049e-05
6.74977e-05
6.58473e-05
6.47989e-05
6.73481e-05
6.41807e-05
6.5408e-05
6.28758e-05
6.69576e-05
6.5667e-05
6.44536e-05
7.27231e-05
6.26312e-05
6.44956e-05
7.63179e-05
7.27376e-05
6.43212e-05
7.60951e-05
7.30764e-05
7.64032e-05
6.36149e-05
6.22543e-05
7.27656e-05
7.65809e-05
6.38925e-05
6.71437e-05
6.60927e-05
6.31771e-05
6.51039e-05
6.48045e-05
6.58848e-05
6.75096e-05
6.73387e-05
6.41855e-05
6.54453e-05
6.28648e-05
6.69672e-05
6.44332e-05
6.55783e-05
7.2608e-05
6.26449e-05
7.62952e-05
6.45647e-05
7.60756e-05
6.42794e-05
7.29377e-05
6.92633e-05
8.47551e-05
7.04847e-05
7.07029e-05
7.04134e-05
7.05509e-05
6.95312e-05
7.02082e-05
8.41966e-05
7.08041e-05
7.06368e-05
7.07594e-05
6.99333e-05
7.08708e-05
7.31918e-05
6.14211e-05
7.68125e-05
6.31774e-05
7.68171e-05
6.3017e-05
7.29715e-05
6.6724e-05
6.45266e-05
6.29867e-05
6.18167e-05
6.48037e-05
6.69045e-05
6.31209e-05
7.31571e-05
6.10448e-05
7.72179e-05
6.23699e-05
7.72052e-05
7.34073e-05
6.25205e-05
6.70148e-05
6.37526e-05
6.21162e-05
6.5225e-05
6.4945e-05
6.36121e-05
6.68827e-05
7.29105e-05
7.64786e-05
6.36237e-05
6.22596e-05
7.28069e-05
7.64707e-05
6.39063e-05
6.71594e-05
6.60993e-05
6.31755e-05
6.50985e-05
6.74909e-05
6.58675e-05
6.48275e-05
6.73405e-05
6.41894e-05
6.54067e-05
6.28717e-05
6.69694e-05
6.56624e-05
6.44472e-05
7.26823e-05
6.2646e-05
7.61742e-05
6.45775e-05
7.2774e-05
7.61701e-05
6.42883e-05
7.27286e-05
7.64755e-05
6.36668e-05
6.22419e-05
7.298e-05
7.64741e-05
6.3841e-05
6.73657e-05
6.61409e-05
6.31711e-05
6.50164e-05
6.4875e-05
6.58319e-05
6.72489e-05
6.70139e-05
6.42501e-05
6.53864e-05
6.28661e-05
6.71782e-05
6.4402e-05
6.5654e-05
7.28726e-05
6.2655e-05
7.6174e-05
6.45065e-05
7.61685e-05
6.43324e-05
7.26551e-05
7.01852e-05
8.43937e-05
7.06468e-05
7.06672e-05
6.99186e-05
7.09177e-05
7.08645e-05
7.18742e-05
8.32271e-05
7.17215e-05
7.16018e-05
7.2255e-05
7.15668e-05
7.16268e-05
7.25498e-05
6.40069e-05
6.59153e-05
7.55125e-05
6.56795e-05
7.57668e-05
7.24211e-05
6.75946e-05
6.63321e-05
6.54704e-05
6.38914e-05
6.57198e-05
6.74072e-05
6.66357e-05
7.25259e-05
6.35034e-05
6.49958e-05
7.59778e-05
6.52234e-05
7.2731e-05
7.58087e-05
6.76543e-05
6.63438e-05
6.42345e-05
6.71085e-05
6.6086e-05
6.68249e-05
6.78554e-05
7.23139e-05
6.39788e-05
6.58603e-05
7.55306e-05
6.56826e-05
7.57705e-05
7.28509e-05
6.77909e-05
6.63777e-05
6.54524e-05
6.3873e-05
6.73613e-05
6.56897e-05
6.66007e-05
7.28863e-05
6.35202e-05
6.49768e-05
7.59852e-05
7.25279e-05
6.52041e-05
7.58155e-05
6.74526e-05
6.63091e-05
6.42399e-05
6.71699e-05
6.60885e-05
6.80445e-05
6.68045e-05
7.19416e-05
8.3132e-05
7.17912e-05
7.16492e-05
7.16545e-05
7.15132e-05
7.22539e-05
7.23638e-05
6.39523e-05
6.59532e-05
7.56202e-05
6.5628e-05
7.56489e-05
7.26197e-05
6.76076e-05
6.63893e-05
6.54759e-05
6.38827e-05
6.56978e-05
6.74132e-05
6.65158e-05
7.28431e-05
6.35439e-05
6.49517e-05
7.58249e-05
6.52495e-05
7.25351e-05
7.59193e-05
6.76649e-05
6.63042e-05
6.42354e-05
6.70235e-05
6.61084e-05
6.69155e-05
6.7893e-05
7.25148e-05
6.39447e-05
7.56087e-05
6.59278e-05
7.56413e-05
6.56622e-05
7.23884e-05
6.74411e-05
6.63434e-05
6.54566e-05
6.38992e-05
6.74349e-05
6.5682e-05
6.6589e-05
7.24858e-05
6.3548e-05
7.58155e-05
6.49993e-05
7.26913e-05
7.59201e-05
6.52196e-05
6.77772e-05
6.63235e-05
6.42097e-05
6.69968e-05
6.60914e-05
6.76308e-05
6.68676e-05
7.23105e-05
6.39673e-05
7.56768e-05
6.59126e-05
7.56249e-05
6.56538e-05
7.28496e-05
6.77471e-05
6.63814e-05
6.54534e-05
6.38752e-05
6.65798e-05
6.73657e-05
6.56793e-05
7.28874e-05
6.35208e-05
7.58081e-05
6.49581e-05
7.59467e-05
7.25225e-05
6.52143e-05
6.75914e-05
6.62993e-05
6.42415e-05
6.71483e-05
6.68052e-05
6.60949e-05
6.7834e-05
7.19219e-05
8.31704e-05
7.17036e-05
7.17166e-05
7.15496e-05
7.15784e-05
7.20793e-05
7.25801e-05
6.39508e-05
7.56752e-05
6.59238e-05
7.56516e-05
6.56689e-05
7.24427e-05
6.76188e-05
6.63418e-05
6.55011e-05
6.39206e-05
6.6596e-05
6.75142e-05
6.56984e-05
7.25343e-05
6.35333e-05
7.58923e-05
6.50046e-05
7.59032e-05
7.2748e-05
6.52127e-05
6.76992e-05
6.63824e-05
6.4195e-05
6.70638e-05
6.68352e-05
6.60865e-05
6.78751e-05
0.000233969
0.000233543
0.000233542
0.000233429
0.00023252
0.0002275
0.000227494
0.000223682
0.000230465
0.000220042
0.000220037
0.000208846
0.000227721
0.000211411
0.000211402
0.00019354
0.000224338
0.000202421
0.000202409
0.000179542
0.000220446
0.00019357
0.000193558
0.000167269
0.000216194
0.0001851
0.00018509
0.000156572
0.00021171
0.000177082
0.000177073
0.000147237
0.000207099
0.000169557
0.000169548
0.000138988
0.000202441
0.000162496
0.000162488
0.000131717
0.000197791
0.000155844
0.000155838
0.000125095
0.000193182
0.000149548
0.000149543
0.000118971
0.000188596
0.000143568
0.000143562
0.00011321
0.000184068
0.000137848
0.000137841
0.000107894
0.000179626
0.000132349
0.000132342
0.000102973
0.00017526
0.000127061
0.000127055
9.82988e-05
0.000170958
0.000122004
0.000121998
9.39938e-05
0.000166706
0.00011721
0.000117204
9.03502e-05
0.000162505
0.000112703
0.000112698
8.73971e-05
0.000108545
8.51052e-05
0.000234251
0.000234466
0.000234465
0.000234249
0.000234468
0.000234467
0.00023426
0.00023426
0.00023426
0.000234261
0.000234465
0.00023447
0.000234251
0.000234466
0.000234469
0.000234255
0.000233434
0.000226048
0.000233541