/*--------------------------------*- C++ -*----------------------------------*\
| =========                 |                                                 |
| \\      /  F ield         | OpenFOAM: The Open Source CFD Toolbox           |
|  \\    /   O peration     | Version:  2312                                  |
|   \\  /    A nd           | Website:  www.openfoam.com                      |
|    \\/     M anipulation  |                                                 |
\*---------------------------------------------------------------------------*/
FoamFile
{
    version     2.0;
    format      ascii;
    arch        "LSB;label=32;scalar=64";
    class       surfaceScalarField;
    location    "900";
    object      phi;
}
// * * * * * * * * * * * * * * * * * * * * * * * * * * * * * * * * * * * * * //

dimensions      [0 3 -1 0 0 0 0];

oriented        oriented;

internalField   nonuniform List<scalar> 
124832
(
-8.75312e-07
-8.82813e-07
4.56082e-07
4.56466e-07
0.00114043
-0.00113959
-1.519e-06
8.77207e-07
4.45149e-07
0.00113301
-5.32569e-07
1.10755e-06
1.27589e-07
7.24778e-07
-5.90803e-07
-1.27336e-06
5.84764e-08
-0.00113244
-8.56175e-07
-8.58107e-07
-0.00114291
4.42975e-07
4.42943e-07
0.00114374
-0.00113482
-1.51679e-06
8.5718e-07
4.19044e-07
0.00113536
-5.21615e-07
1.11688e-06
1.34145e-07
7.32447e-07
-5.75099e-07
-1.25924e-06
6.77458e-08
-0.00113469
-1.51404e-06
8.57562e-07
4.24714e-07
0.00113523
-5.21655e-07
1.11419e-06
1.34097e-07
7.32465e-07
-5.75291e-07
-1.25947e-06
6.78754e-08
-0.000276279
1.54563e-06
1.50859e-06
-4.99814e-07
-5.02984e-07
0.000274227
1.56163e-06
1.52195e-06
-5.07708e-07
-5.16042e-07
0.00027407
-0.00027613
-1.15818e-06
-1.1155e-06
0.000276354
-0.000274237
7.5885e-08
8.1147e-08
4.36014e-07
0.0011326
-5.35276e-07
1.15042e-06
1.30601e-07
7.30377e-07
-5.90658e-07
-1.2787e-06
5.85385e-08
-0.00113201
8.7104e-07
4.36189e-07
0.00113266
1.14772e-06
1.33302e-07
7.29949e-07
-5.90871e-07
-1.27877e-06
5.81412e-08
-0.00113208
-1.55644e-06
-5.35613e-07
0.00113427
8.6094e-07
-0.00113374
4.39205e-07
-1.55814e-06
1.41408e-07
-5.30063e-07
-1.26852e-06
6.55156e-08
-5.79232e-07
7.36248e-07
1.15287e-06
0.00113435
8.61905e-07
-0.0011338
4.28306e-07
-1.55547e-06
1.38341e-07
-5.27315e-07
-1.26857e-06
6.51995e-08
-5.79345e-07
7.35813e-07
-1.11521e-06
0.000276334
-0.000274221
7.57637e-08
7.85045e-08
4.34357e-07
0.00113358
-5.32686e-07
1.11046e-06
1.27717e-07
7.30159e-07
-5.90789e-07
-1.27874e-06
5.85516e-08
-0.001133
-1.55375e-06
8.76156e-07
4.36433e-07
0.00113255
-5.38328e-07
1.1423e-06
1.33391e-07
7.30237e-07
-5.9078e-07
-1.27865e-06
5.49342e-08
-0.00113197
0.00113527
8.62813e-07
-0.00113472
4.26851e-07
-1.51829e-06
1.32593e-07
-5.24489e-07
-1.26859e-06
6.54991e-08
-5.79354e-07
7.3591e-07
1.14744e-06
0.00113423
8.61592e-07
-0.00113368
4.28755e-07
-1.54999e-06
1.38395e-07
-5.3003e-07
-1.26851e-06
6.20641e-08
-5.76509e-07
7.3599e-07
8.62035e-07
-0.00113427
4.32644e-07
-1.51814e-06
1.32505e-07
-5.24443e-07
-1.26284e-06
6.54765e-08
7.30562e-07
-5.78947e-07
1.14444e-06
0.00113385
8.61529e-07
-0.0011333
4.28729e-07
-1.54699e-06
1.35499e-07
-5.2705e-07
-1.25997e-06
5.87706e-08
-5.73434e-07
7.27772e-07
-5.10959e-07
-5.15717e-07
0.000274045
-0.000276091
-1.10981e-06
0.000276309
-0.000274209
7.59499e-08
8.12296e-08
7.76533e-07
2.55417e-07
0.00113308
1.06636e-06
1.1539e-07
7.27118e-07
-5.88041e-07
5.84931e-08
-1.27592e-06
-1.58659e-06
-0.00113209
-5.43543e-07
8.62309e-07
-0.00113414
4.27097e-07
-1.51262e-06
1.32546e-07
-5.24462e-07
-1.26306e-06
6.55615e-08
7.30538e-07
-5.79083e-07
1.10711e-06
0.00113483
8.62453e-07
-0.00113428
4.2714e-07
-1.50999e-06
1.32541e-07
-5.24471e-07
-1.26552e-06
6.56146e-08
-5.79249e-07
7.33013e-07
-0.000274182
7.58327e-08
7.85166e-08
1.55952e-06
1.51688e-06
-4.99966e-07
-5.05669e-07
0.000274283
4.14787e-07
0.00113482
-5.30116e-07
1.15982e-06
1.42904e-07
7.38024e-07
-5.75435e-07
-1.26502e-06
6.76747e-08
-1.55409e-06
8.57393e-07
4.25792e-07
0.00113489
-5.27206e-07
1.15456e-06
1.3997e-07
7.37788e-07
-5.75354e-07
-1.26491e-06
6.41576e-08
-5.0043e-07
-5.02438e-07
0.000274266
4.24407e-07
0.00113581
-5.21757e-07
1.11716e-06
1.34167e-07
7.37805e-07
-5.75591e-07
-1.26505e-06
6.77385e-08
-1.54862e-06
8.56884e-07
4.26256e-07
0.00113477
-5.2713e-07
1.1491e-06
1.40081e-07
7.37826e-07
-5.72731e-07
-1.26504e-06
6.43489e-08
8.56682e-07
4.26215e-07
0.00113439
-5.2425e-07
1.1461e-06
1.37129e-07
7.29676e-07
-5.69478e-07
6.10301e-08
-1.25637e-06
-5.00468e-07
-5.05206e-07
0.000274252
8.57692e-07
4.2456e-07
0.00113537
-5.21651e-07
1.10877e-06
1.34205e-07
7.34865e-07
-5.75369e-07
6.79074e-08
-1.26187e-06
-1.6681e-11
9.35344e-08
0.000237628
-0.000237703
-1.05477e-08
-8.478e-09
-3.81062e-09
1.51303e-07
-2.06485e-08
0.00019805
-0.000198177
1.33449e-10
2.76787e-07
0.000237946
-9.48946e-08
-1.31632e-08
-0.000238115
1.49807e-08
3.10181e-08
0.000197841
-5.44974e-09
-0.000197882
-1.50794e-08
5.58577e-09
9.92819e-05
-9.92724e-05
9.36533e-08
-2.61879e-10
0.000237615
-0.00023769
-8.31201e-09
-1.05859e-08
-3.84781e-09
1.51383e-07
-2.09448e-08
0.000198033
-0.000198159
2.7689e-07
4.24406e-11
0.000237933
-1.32431e-08
-9.49591e-08
-0.000238101
1.54643e-08
3.09523e-08
0.000197825
-5.97346e-09
-0.000197865
4.62e-07
4.35071e-07
0.00114019
-8.76857e-07
-0.00113934
4.56856e-07
4.84122e-07
0.00114001
-0.0011392
4.06845e-07
4.29331e-07
0.00113994
-1.04332e-06
-0.00113896
-0.00114209
4.55897e-07
4.50422e-07
0.0011427
-0.00114187
4.50367e-07
4.50833e-07
0.00114249
-0.00114167
4.50552e-07
4.50748e-07
0.00114245
-0.00114163
4.50603e-07
4.50845e-07
-9.37568e-08
-1.86977e-09
0.000261358
-0.000261287
-2.74552e-08
5.21218e-08
4.26861e-07
1.11186e-06
0.0011337
8.71858e-07
-1.26968e-06
6.08196e-08
-5.86683e-07
7.26619e-07
-1.52068e-06
1.29141e-07
-5.2998e-07
-0.00113312
4.62605e-09
-3.10798e-08
0.000254115
2.02799e-08
-0.000254149
4.04136e-08
-1.80333e-08
0.00113384
9.24111e-07
-1.38034e-06
5.74502e-07
-1.20852e-06
7.71462e-07
-0.00113308
4.11187e-09
6.77421e-08
9.9332e-05
-9.94039e-05
-1.50818e-08
8.00754e-09
9.92746e-05
-9.92675e-05
-3.97943e-10
-9.3813e-08
0.000261344
-0.000261276
5.4976e-08
-2.80779e-08
0.00113294
5.27291e-08
9.28614e-07
7.71533e-07
-1.211e-06
-1.38335e-06
5.7199e-07
-0.00113223
-7.07168e-08
-1.5124e-07
3.37722e-07
7.63541e-08
0.000254363
-0.000254555
4.42839e-07
1.10651e-06
0.00113358
8.72198e-07
-1.26995e-06
6.08798e-08
-5.86867e-07
7.26674e-07
-1.51781e-06
1.29273e-07
-5.29896e-07
1.71622e-09
-2.76905e-07
0.000261427
5.31127e-07
-3.53254e-08
-0.000261648
1.86182e-08
0.00113368
9.24334e-07
-1.38065e-06
5.77144e-07
-1.20607e-06
7.7409e-07
4.3362e-09
-3.09511e-08
0.000254103
2.03345e-08
-0.00025414
4.29419e-08
-1.14656e-06
-1.09824e-06
0.000276177
-0.000274074
6.54524e-08
7.60175e-08
-4.68953e-09
-7.79611e-09
0.000285613
2.26295e-08
-0.000285684
6.07247e-08
-4.84427e-09
-7.93862e-09
0.000285531
2.3315e-08
-0.000285603
6.07285e-08
2.57181e-11
7.70289e-08
-0.000236783
-5.7664e-09
-6.72753e-09
-0.000197529
-3.42595e-09
1.40493e-07
-1.76491e-08
0.000197409
-0.000237163
1.40115e-10
2.57371e-07
0.000237005
-8.82237e-08
-1.14486e-08
1.39613e-08
2.26141e-08
-3.67531e-09
-0.000197259
-9.91575e-05
4.74447e-09
6.38324e-08
9.9089e-05
-1.41195e-08
4.72295e-09
-9.90289e-05
7.71698e-08
-1.84335e-11
-0.00023677
-6.77899e-09
-5.81957e-09
-0.000197508
-4.92074e-09
1.404e-07
-1.80282e-08
0.000197391
-0.00023715
2.57531e-07
2.42109e-10
0.000236992
-1.16045e-08
-8.83504e-08
1.39696e-08
2.26309e-08
-3.5804e-09
-0.000197241
4.48452e-07
4.49011e-07
0.00114351
4.48591e-07
4.48907e-07
0.00114331
4.48665e-07
4.48836e-07
0.00114327
-7.72299e-08
-1.50939e-09
-0.000260654
-2.28381e-08
3.60172e-08
-0.000253675
-6.79202e-08
-1.42379e-07
3.22927e-07
6.90086e-08
0.000253493
0.00113603
-0.00113532
2.49961e-09
9.10644e-07
7.81182e-07
-1.19888e-06
-1.3695e-06
5.84221e-07
4.27713e-07
1.11845e-06
8.52364e-07
-1.25563e-06
6.99254e-08
-5.71243e-07
7.34374e-07
-1.5154e-06
1.35747e-07
-5.18834e-07
-0.000261044
-2.57229e-07
1.53363e-09
0.000260816
-3.02861e-08
5.13982e-07
7.59986e-09
-2.04438e-08
1.47913e-08
-0.000253282
2.84332e-08
-4.41935e-09
9.06263e-07
-1.36917e-06
5.8371e-07
-1.1991e-06
7.8068e-07
-9.91512e-05
4.76909e-09
6.36422e-08
9.90828e-05
-1.42394e-08
4.81182e-09
-9.90241e-05
-7.03427e-10
-7.73047e-08
-0.000260642
3.61796e-08
-2.28444e-08
0.00113586
-0.00113514
4.53651e-09
9.11264e-07
7.81144e-07
-1.20203e-06
-1.37254e-06
5.81217e-07
-0.000253666
-6.81327e-08
-1.4023e-07
3.20537e-07
6.92574e-08
0.000253484
4.22426e-07
1.1158e-06
8.52743e-07
-1.2559e-06
7.01346e-08
-5.71403e-07
7.3431e-07
-1.51258e-06
1.32689e-07
-5.18807e-07
-0.000261032
1.04802e-09
-2.57491e-07
0.000260805
5.14356e-07
-3.06778e-08
-3.1493e-09
9.06885e-07
-1.3695e-06
5.86338e-07
-1.19673e-06
7.83345e-07
7.40863e-09
-2.25697e-08
1.4811e-08
-0.000253273
3.09831e-08
-0.000285134
6.80036e-08
-6.35312e-08
1.79741e-07
-1.35444e-08
0.000284963
-0.000285052
6.79271e-08
-6.35498e-08
1.74985e-07
-1.38384e-08
0.000284887
-1.14769e-06
-1.11036e-06
-0.000274269
8.08818e-08
8.35648e-08
-7.72027e-09
-4.61588e-09
2.13027e-08
-0.000284735
4.9007e-08
-7.80141e-09
-4.67851e-09
2.18669e-08
-0.000284658
5.36246e-08
6.92904e-08
9.936e-05
-9.94331e-05
7.76736e-09
9.93048e-05
-9.92976e-05
6.75668e-08
9.93489e-05
-9.94203e-05
7.47327e-09
9.92912e-05
-9.92832e-05
7.30683e-08
1.88702e-07
-1.33561e-08
0.000285992
-0.000286171
7.01797e-08
1.90915e-07
-1.28286e-08
0.000285914
-0.000286095
0.000276249
-1.15217e-06
-1.11222e-06
-0.000274129
6.82226e-08
7.61097e-08
0.000285669
-1.84444e-09
2.51108e-08
-0.000285743
5.8167e-08
0.000285593
-2.28363e-09
2.26667e-08
-0.000285664
5.79901e-08
6.0602e-09
-1.39805e-08
9.91793e-05
-9.91714e-05
6.56053e-08
4.81981e-09
9.92344e-05
6.1159e-09
-1.44899e-08
9.91678e-05
-9.91594e-05
6.5644e-08
4.52734e-09
9.9221e-05
1.55933e-06
1.51954e-06
0.000274184
-5.02594e-07
-5.10921e-07
-6.021e-09
0.00028519
5.34336e-08
-0.000285253
2.17755e-08
-3.71513e-09
0.000285114
5.34528e-08
-0.000285179
2.19967e-08
6.8084e-08
-1.60465e-08
1.85464e-07
0.000285497
6.78436e-08
-1.32051e-08
1.85219e-07
0.000285419
9.35625e-08
0.000237586
-0.000237661
-1.05501e-08
-8.10994e-09
1.53719e-07
-2.08583e-08
0.000197983
-3.95071e-09
-0.000198112
2.7679e-07
0.000237904
-9.4896e-08
-1.33212e-08
-0.000238072
2.89383e-08
0.00019778
-5.61589e-09
-0.000197819
-8.38075e-10
0.000261374
-0.000261303
-2.78606e-08
5.18601e-08
3.40268e-07
7.612e-08
0.000254378
-0.00025457
0.00113336
3.77287e-09
9.28569e-07
7.77713e-07
-1.21624e-06
-1.38861e-06
5.80787e-07
-0.00113261
4.32892e-07
0.00113317
8.70374e-07
-1.56051e-06
1.35199e-07
-5.32689e-07
-1.27536e-06
6.08067e-08
-5.8683e-07
7.32249e-07
8.53115e-10
0.000261454
-3.40794e-08
5.30934e-07
-0.000261674
0.000254116
2.02237e-08
-0.000254147
4.04145e-08
-3.44551e-09
0.00113412
9.18375e-07
-1.38609e-06
5.83102e-07
-1.21412e-06
7.8007e-07
0.000261344
-0.000261277
-2.64791e-08
5.18884e-08
3.40328e-07
7.60169e-08
0.000254268
-0.000254458
-7.28104e-08
0.00113331
9.23278e-07
7.77358e-07
-1.21629e-06
-1.38836e-06
5.80676e-07
-0.00113255
4.33645e-07
0.00113324
1.14946e-06
8.71715e-07
-1.27546e-06
6.06021e-08
7.31872e-07
-5.87104e-07
-1.558e-06
1.34985e-07
-5.35633e-07
0.000261427
-3.57005e-08
5.30975e-07
-0.000261645
0.000254006
4.65048e-09
2.01592e-08
-0.000254042
4.05145e-08
0.00113406
9.18823e-07
-1.38591e-06
5.83009e-07
-1.21416e-06
7.79722e-07
1.39435e-10
2.66877e-07
-9.13622e-08
-1.22264e-08
0.000237465
2.64741e-08
-0.000197565
-3.96504e-09
1.45645e-07
-2.1514e-08
0.000197722
-5.40242e-11
8.5016e-08
-0.000237233
-7.89085e-09
-7.49455e-09
2.66904e-07
-9.13771e-08
-1.2395e-08
0.000237423
2.69198e-08
1.42885e-08
0.000197457
-0.000197494
-4.27477e-09
1.48102e-07
-4.60181e-09
-1.93324e-08
0.000197656
8.50752e-08
0.000237121
-0.00023719
-7.95878e-09
-7.44332e-09
9.11284e-10
-3.19801e-08
5.22651e-07
0.000261149
4.25122e-07
8.65862e-07
1.1538e-06
-5.32772e-07
1.3675e-07
7.34204e-07
-5.83076e-07
6.31753e-08
-1.27202e-06
0.000253678
3.40531e-08
-0.000253709
1.74637e-08
-0.00113485
-3.43717e-09
0.00113559
9.15098e-07
-1.38075e-06
5.84924e-07
-1.20688e-06
7.84792e-07
7.00925e-08
3.31689e-07
0.000253928
3.72846e-09
9.19607e-07
7.82382e-07
-1.20919e-06
-1.38352e-06
5.82609e-07
-8.02918e-10
0.00026106
-0.000260992
-2.57475e-08
4.38171e-08
-3.37092e-08
5.22679e-07
0.000261123
4.31226e-07
-1.55677e-06
8.66802e-07
7.33839e-07
-5.83119e-07
-1.27203e-06
6.28902e-08
1.15117e-06
-5.30099e-07
1.33678e-07
3.68675e-09
0.000253568
3.44866e-08
-0.000253597
1.72907e-08
-0.0011348
0.00113553
9.15475e-07
-1.38057e-06
5.84834e-07
-1.2069e-06
7.84497e-07
-7.02747e-08
7.24045e-08
3.31752e-07
0.00025382
9.20002e-07
7.82117e-07
-1.20921e-06
-1.38329e-06
5.82513e-07
0.00026103
-0.000260965
-2.40634e-08
4.38643e-08
0.000276233
-0.000274116
7.06754e-08
7.33684e-08
0.00028553
2.32355e-08
-0.000285603
6.0826e-08
-7.81531e-09
0.000285683
2.27454e-08
-0.000285751
5.84137e-08
9.92982e-05
-1.48346e-08
-9.92912e-05
6.77477e-09
-9.915e-05
6.81178e-08
9.92092e-05
1.51948e-06
0.00027417
-5.05848e-07
-5.07829e-07
0.000285055
5.38095e-08
-0.000285121
2.25239e-08
-3.90349e-09
-6.18703e-09
0.0002852
5.35984e-08
-0.000285266
2.21258e-08
-1.3134e-08
1.85445e-07
0.000285355
-6.53525e-08
7.04493e-08
-1.34579e-08
1.85225e-07
0.000285506
-1.45003e-08
9.91773e-05
-9.91667e-05
4.63073e-09
9.92282e-05
-1.91494e-09
0.000261366
-0.000261295
-2.71826e-08
5.20999e-08
3.37734e-07
7.59703e-08
0.000254338
-0.00025453
0.00113321
2.52352e-09
9.34049e-07
7.77232e-07
-1.21359e-06
-1.38856e-06
5.77723e-07
-0.00113247
4.31466e-07
0.00113416
8.72286e-07
-1.52072e-06
1.29339e-07
-5.29935e-07
-1.27542e-06
6.09594e-08
-5.86908e-07
7.32047e-07
1.56649e-09
0.000261446
-3.50102e-08
5.31068e-07
-0.000261666
0.000254078
1.98029e-08
-0.000254112
4.29586e-08
-4.74504e-09
0.00113396
9.24003e-07
-1.38611e-06
5.80047e-07
-1.21146e-06
7.79626e-07
9.36498e-08
0.000237574
-0.000237649
-1.06036e-08
-8.69629e-09
1.51471e-07
-2.07273e-08
0.000197972
-0.000198099
2.76853e-07
0.000237892
-9.49513e-08
-1.32811e-08
-0.00023806
3.13832e-08
0.000197765
-5.80955e-09
-0.000197805
0.000261335
-0.000261268
5.2098e-08
-2.72121e-08
0.00113317
9.28338e-07
7.77453e-07
-1.21359e-06
-1.38849e-06
5.77768e-07
-0.00113241
-7.3025e-08
3.35284e-07
7.61633e-08
0.000254256
-0.000254443
4.34002e-07
0.00113312
1.14402e-06
8.82222e-07
-1.27533e-06
5.73629e-08
7.32134e-07
-5.84193e-07
-1.55255e-06
1.3507e-07
-5.356e-07
0.000261418
5.31018e-07
-3.56474e-08
-0.000261635
0.00113391
9.29796e-07
-1.38586e-06
5.80099e-07
-1.21146e-06
7.79977e-07
0.000253991
4.93694e-09
1.9724e-08
-0.00025403
4.60506e-08
2.67019e-07
1.00237e-10
-1.23502e-08
-9.14477e-08
0.000237452
2.66307e-08
-0.000197545
-4.45284e-09
1.45745e-07
-1.93581e-08
0.000197703
8.51839e-08
-1.18524e-10
-0.000237219
-7.51854e-09
-8.03019e-09
1.6188e-09
-3.28852e-08
5.22838e-07
0.000261142
4.29059e-07
8.67555e-07
1.11387e-06
-5.27301e-07
1.30938e-07
7.3394e-07
-5.83205e-07
6.31392e-08
-1.27202e-06
0.00025364
3.69494e-08
-0.000253671
1.70924e-08
-0.00113469
-4.41414e-09
0.00113543
9.15582e-07
-1.38085e-06
5.84646e-07
-1.20699e-06
7.84225e-07
7.23746e-08
3.29183e-07
0.00025389
2.58552e-09
9.25271e-07
7.81873e-07
-1.20931e-06
-1.38347e-06
5.82287e-07
-1.82682e-09
0.000261052
-0.000260982
-2.45649e-08
4.1297e-08
2.67002e-07
-9.14499e-08
-1.227e-08
0.000237411
2.70149e-08
1.46374e-08
0.000197448
-0.000197484
-4.93917e-09
1.45828e-07
-4.47394e-09
-1.94378e-08
0.000197643
8.51968e-08
0.000237109
-0.000237178
-8.04674e-09
-7.63333e-09
5.22838e-07
-3.34375e-08
0.000261114
4.25953e-07
-1.5513e-06
8.66378e-07
7.33996e-07
-5.80384e-07
-1.27195e-06
5.97274e-08
1.14574e-06
-5.32805e-07
1.36757e-07
-0.00113464
0.00113537
9.1569e-07
-1.38064e-06
5.84675e-07
-1.20701e-06
7.84531e-07
6.56106e-09
0.000253553
3.99972e-08
-0.000253589
1.67638e-08
9.25439e-07
7.8222e-07
-1.20932e-06
-1.38332e-06
5.82335e-07
-7.03423e-08
7.24088e-08
3.26662e-07
0.000253808
0.000261021
-0.000260954
4.1307e-08
-2.44112e-08
-8.10731e-11
0.000237609
-0.000237686
-8.6299e-09
-8.49987e-09
0.000197828
-5.34418e-09
-0.000197869
-9.36529e-08
0.000261327
-0.000261259
5.20057e-08
-2.7363e-08
4.49874e-07
0.00113274
8.76786e-07
-1.54948e-06
1.35172e-07
-5.32695e-07
-1.26967e-06
5.74002e-08
-5.86714e-07
7.23881e-07
-0.0011322
0.00113376
9.23923e-07
-1.38032e-06
5.77384e-07
-1.20857e-06
7.74232e-07
-0.00113301
-3.12301e-08
0.000254031
1.998e-08
-0.000254071
4.59815e-08
0.00023757
-0.000237645
-1.061e-08
-8.84917e-09
0.000197768
1.48969e-08
-5.49787e-09
-0.000197809
-2.66756e-07
1.30555e-09
-3.2634e-08
5.22601e-07
0.000261134
4.24265e-07
8.66948e-07
1.11351e-06
-5.27231e-07
1.30829e-07
7.28562e-07
-5.82809e-07
-1.26634e-06
6.31687e-08
-2.44546e-08
3.43072e-08
-0.000253708
1.74179e-08
-0.00113457
-5.68488e-09
9.15103e-07
-1.37503e-06
5.79128e-07
7.76131e-07
-1.20401e-06
-1.45422e-07
7.247e-08
3.31333e-07
0.000253927
-1.44927e-09
9.19594e-07
7.76499e-07
-1.20358e-06
-1.37503e-06
5.79591e-07
-8.52962e-08
-1.58633e-09
-0.000260977
-2.5069e-08
4.4075e-08
-6.44618e-11
-1.23689e-08
-9.34752e-08
0.000237448
0.000197514
-0.000197548
-4.45319e-09
-1.89893e-08
0.000197706
-5.06281e-12
0.000237145
-0.000237216
-7.91642e-09
-5.93906e-09
-2.66848e-07
5.22612e-07
-3.36122e-08
0.000261106
4.36556e-07
-1.55103e-06
8.66531e-07
7.25741e-07
-5.79916e-07
-1.26346e-06
5.63268e-08
1.14551e-06
-5.32616e-07
1.36799e-07
-0.0011345
0.00113523
9.15257e-07
-1.37493e-06
5.82026e-07
-1.20404e-06
7.78959e-07
-2.68304e-08
6.27247e-09
0.000253593
3.45478e-08
-0.000253625
1.72499e-08
9.19596e-07
7.76579e-07
-1.20636e-06
-1.37762e-06
5.79653e-07
-1.45624e-07
-7.05024e-08
7.24976e-08
3.28919e-07
0.000253846
-8.51846e-08
0.00026101
-0.000260949
4.6782e-08
-2.44446e-08
-9.13725e-08
-1.25847e-08
0.000237407
1.44361e-08
0.000197451
-0.000197488
-4.60036e-09
-4.59522e-09
-1.91824e-08
0.000197646
0.000237105
-0.000237175
-8.02978e-09
-7.43888e-09
1.86466e-07
-1.34239e-08
0.000285854
-0.000286032
-6.75048e-08
1.88639e-07
-1.38738e-08
0.000285997
-0.000286175
0.000276208
-0.000274104
7.09204e-08
7.60806e-08
0.000285529
2.33453e-08
-0.000285603
6.32327e-08
-7.61809e-09
0.000285671
2.27721e-08
-0.000285743
6.06463e-08
4.34483e-09
9.93555e-05
-9.94274e-05
9.9298e-05
-1.47022e-08
-9.9291e-05
6.34886e-09
-9.91429e-05
6.56347e-08
9.92045e-05
1.51389e-06
0.000274159
-5.05806e-07
-5.10572e-07
0.00028505
5.84248e-08
-0.000285118
2.26541e-08
-5.96082e-09
-5.92473e-09
0.000285191
5.57563e-08
-0.00028526
2.47566e-08
-1.35873e-08
1.80692e-07
0.000285357
-6.53798e-08
7.06086e-08
-1.66776e-08
1.82869e-07
0.0002855
-1.42561e-08
9.91746e-05
-9.91663e-05
4.75913e-09
9.92279e-05
-9.12505e-08
0.000261312
-0.000261248
5.22081e-08
-2.55705e-08
0.00113287
9.57732e-07
7.74119e-07
-1.21091e-06
5.7193e-07
-1.38576e-06
-0.00113227
-1.51465e-07
3.40318e-07
7.61843e-08
0.000254253
-7.29597e-08
-0.000254445
3.94069e-07
0.00113372
8.66893e-07
-1.51529e-06
1.2313e-07
-5.32758e-07
-1.27252e-06
6.08989e-08
-5.8423e-07
7.29213e-07
-2.79373e-07
0.000261398
5.33766e-07
-3.54663e-08
-0.000261616
0.00113359
9.24565e-07
-1.38315e-06
5.77098e-07
-1.20598e-06
7.7662e-07
-3.11659e-08
0.000253993
1.99528e-08
-0.00025403
4.29991e-08
2.13528e-10
0.000237603
-0.000237677
-8.61523e-09
-1.06953e-08
-2.02356e-08
0.00019803
-0.000198157
4.27132e-10
0.00023792
-1.36963e-08
-9.49255e-08
-0.000238089
0.000197823
-5.03442e-09
-0.000197863
0.000237563
-0.000237636
-8.05649e-09
-1.06502e-08
-2.06661e-08
0.000197967
-0.000198094
-4.15313e-09
0.000237879
-1.33218e-08
-9.49282e-08
-0.000238049
0.00019776
1.50311e-08
-5.60611e-09
-0.0001978
1.286e-09
-2.66991e-07
5.20205e-07
-3.30058e-08
0.000261122
4.35094e-07
8.6733e-07
1.10818e-06
-5.27202e-07
1.30843e-07
7.28615e-07
-5.83028e-07
-1.26652e-06
6.32909e-08
-0.00113441
-9.78612e-10
9.15581e-07
-1.37535e-06
5.81761e-07
7.78839e-07
-1.20158e-06
-2.65767e-08
3.68621e-08
-0.000253699
1.74471e-08
1.12745e-08
9.20222e-07
7.76537e-07
-1.20666e-06
-1.378e-06
5.7661e-07
-1.45558e-07
7.27184e-08
3.28959e-07
0.000253918
-6.98588e-10
-8.53416e-08
-0.000260965
4.42341e-08
-2.53215e-08
-2.69469e-07
5.2275e-07
-3.37437e-08
0.000261094
4.24182e-07
-1.51132e-06
8.67486e-07
7.31098e-07
-5.83058e-07
-1.26901e-06
6.32714e-08
1.10545e-06
-5.27269e-07
1.30882e-07
-0.00113434
0.00113506
9.15423e-07
-1.3777e-06
5.81742e-07
-1.20144e-06
7.81243e-07
-2.67961e-08
6.40282e-09
0.000253555
3.96081e-08
-0.000253592
1.70215e-08
9.19941e-07
7.78845e-07
-1.20655e-06
-1.38044e-06
5.76563e-07
-1.4574e-07
-7.03321e-08
7.24973e-08
3.291e-07
0.000253808
-8.27575e-08
0.000261001
-0.000260937
4.13588e-08
-2.33196e-08
4.29834e-10
-1.28054e-08
-9.1408e-08
0.000237439
0.000197506
-0.000197543
-4.15899e-09
-1.8901e-08
0.000197701
1.31695e-10
0.000237138
-0.000237207
-7.70623e-09
-8.15202e-09
-1.2363e-08
-9.13953e-08
0.000237398
1.45235e-08
0.000197443
-0.00019748
-4.65183e-09
-4.51898e-09
-1.93454e-08
0.000197638
0.000237098
-0.000237166
-7.05616e-09
-8.09096e-09
9.92768e-05
-9.92697e-05
9.92725e-05
-9.92654e-05
0.000274129
-5.0525e-07
-5.08377e-07
-6.12567e-09
5.35333e-08
-0.000285197
2.19281e-08
-6.23177e-09
5.82056e-08
-0.00028512
2.25723e-08
-6.55408e-08
-1.33488e-08
1.82953e-07
0.000285439
-6.55921e-08
-1.36195e-08
1.83004e-07
0.000285357
9.91534e-05
-9.91451e-05
9.92067e-05
9.91491e-05
-9.91408e-05
9.92024e-05
6.38293e-08
9.9112e-05
4.4245e-09
-9.90529e-05
6.34946e-08
9.90994e-05
4.43917e-09
-9.90407e-05
6.81729e-08
1.79886e-07
-1.36583e-08
0.000285019
6.79656e-08
1.79732e-07
-1.3648e-08
0.000284943
-1.15869e-06
-1.11872e-06
-0.000274327
8.08707e-08
8.61685e-08
-7.45512e-09
2.07083e-08
-0.000284791
5.12348e-08
-7.53215e-09
2.08444e-08
-0.000284715
4.89473e-08
7.70427e-08
-0.000236741
-5.76065e-09
-6.50329e-09
1.40489e-07
-1.83565e-08
0.00019734
2.5739e-07
0.000236963
-8.82779e-08
-1.15118e-08
2.28023e-08
-3.87771e-09
-0.000197192
-7.68292e-10
-0.000260669
-2.27458e-08
3.58012e-08
3.23289e-07
6.92652e-08
0.000253494
0.0011363
3.84371e-09
9.10763e-07
7.87012e-07
-1.20728e-06
-1.37806e-06
5.90008e-07
4.29145e-07
8.51559e-07
-1.55535e-06
1.41569e-07
-5.24472e-07
-1.26141e-06
6.99477e-08
-5.71582e-07
7.39882e-07
9.54014e-10
0.000260832
-2.99249e-08
5.14092e-07
1.47088e-08
-0.000253282
3.10949e-08
-3.37695e-09
9.06674e-07
-1.37498e-06
5.92265e-07
-1.2048e-06
7.893e-07
-0.000260643
-2.1529e-08
3.58199e-08
-6.50267e-08
3.23326e-07
6.87968e-08
0.000253382
0.00113626
9.11099e-07
7.86829e-07
-1.2073e-06
-1.37775e-06
5.89915e-07
4.2333e-07
1.15614e-06
8.52643e-07
-1.26121e-06
6.65012e-08
7.3961e-07
-5.68894e-07
-1.55271e-06
1.41598e-07
-5.24408e-07
0.000260805
-3.1303e-08
5.14103e-07
5.03661e-09
1.45023e-08
-0.000253173
3.1375e-08
9.06941e-07
-1.37471e-06
5.92183e-07
-1.20481e-06
7.89055e-07
1.79776e-07
-1.28209e-08
0.000284887
-6.57183e-08
1.79645e-07
-1.35862e-08
0.000285032
-0.000274308
8.08389e-08
8.35544e-08
2.38476e-08
-0.000284657
4.90567e-08
-2.3989e-09
2.14404e-08
-0.000284804
4.905e-08
5.01136e-09
9.91065e-05
-1.41244e-08
-9.90478e-05
-1.75794e-09
-0.000260659
-2.21086e-08
3.32665e-08
3.2079e-07
6.90297e-08
0.000253459
0.00113615
2.88705e-09
9.11308e-07
7.86576e-07
-1.20465e-06
-1.37804e-06
5.86887e-07
4.22001e-07
8.53293e-07
-1.51548e-06
1.35782e-07
-5.18942e-07
-1.26143e-06
6.9946e-08
-5.7166e-07
7.39643e-07
1.70198e-09
0.000260822
-3.08118e-08
5.16996e-07
1.45682e-08
-0.000253247
3.1121e-08
-4.23641e-09
9.07029e-07
-1.37503e-06
5.8912e-07
-1.20218e-06
7.88814e-07
7.71806e-08
-0.000236729
-5.83095e-09
-6.67732e-09
1.40547e-07
-1.83721e-08
0.00019733
2.5753e-07
0.000236951
-8.83378e-08
-1.12821e-08
2.30351e-08
-4.2331e-09
-0.00019718
-0.000260631
3.32698e-08
-2.18081e-08
0.00113609
9.11379e-07
7.86813e-07
-1.20468e-06
-1.37789e-06
5.86923e-07
-6.7871e-08
3.18316e-07
6.89428e-08
0.000253374
4.23664e-07
1.15074e-06
8.52077e-07
-1.26136e-06
6.65071e-08
7.39659e-07
-5.68936e-07
-1.54716e-06
1.41748e-07
-5.24344e-07
0.000260794
5.17014e-07
-3.11791e-08
9.07136e-07
-1.37488e-06
5.89151e-07
-1.20222e-06
7.89023e-07
7.94715e-09
1.40854e-08
-0.000253162
3.4226e-08
5.81707e-11
-0.000236767
-7.10231e-09
-3.69369e-09
-1.78809e-08
0.000197394
1.84894e-11
0.000236989
-1.12839e-08
-9.03662e-08
-3.72628e-09
-0.000197244
-7.7148e-08
-0.000260626
3.88024e-08
-2.16891e-08
0.00113595
9.10781e-07
7.81286e-07
-1.20165e-06
5.84277e-07
-1.37208e-06
-1.40319e-07
3.2309e-07
6.91035e-08
0.00025341
4.23743e-07
8.5182e-07
-1.54415e-06
1.38734e-07
-5.21404e-07
-1.25283e-06
6.33375e-08
-5.6574e-07
7.31549e-07
-2.57307e-07
0.000260789
5.11292e-07
-3.1443e-08
9.06431e-07
-1.36902e-06
5.86551e-07
-1.19918e-06
7.83528e-07
-2.28315e-08
1.45996e-08
-0.000253198
2.86646e-08
-0.000236726
-5.80658e-09
-6.5404e-09
-4.90649e-09
-1.8084e-08
0.000197334
0.000236948
-8.82688e-08
-1.16645e-08
1.40709e-08
-3.90786e-09
-0.000197184
1.75109e-07
-1.37689e-08
0.000284884
-6.33912e-08
1.77245e-07
-1.6789e-08
0.000285026
-0.000274294
8.10543e-08
8.63066e-08
2.1938e-08
-0.000284656
5.38776e-08
-4.46473e-09
2.41396e-08
-0.000284798
5.12389e-08
5.04712e-09
9.91062e-05
-1.38986e-08
-9.90475e-05
-7.47119e-08
-0.000260614
3.32639e-08
-2.09923e-08
0.0011358
9.11137e-07
7.83514e-07
-1.20186e-06
5.81146e-07
-1.37496e-06
-1.40388e-07
3.18104e-07
6.89917e-08
0.000253377
4.22025e-07
8.52892e-07
-1.5071e-06
1.35785e-07
-5.18804e-07
-1.25826e-06
7.01658e-08
-5.71565e-07
7.36802e-07
-2.59935e-07
0.000260777
5.16872e-07
-3.17735e-08
9.06802e-07
-1.37193e-06
5.86328e-07
-1.19654e-06
7.85813e-07
-2.27545e-08
1.43971e-08
-0.000253165
3.37468e-08
8.06118e-11
-0.000236758
-6.80361e-09
-5.93409e-09
-1.77942e-08
0.000197389
3.49936e-10
0.00023698
-1.19433e-08
-8.82966e-08
-3.4755e-09
-0.000197239
-0.000236716
-6.42715e-09
-5.87629e-09
-4.85446e-09
-1.81796e-08
0.000197326
0.000236938
-1.14769e-08
-8.82697e-08
1.4136e-08
-3.92471e-09
-0.000197176
9.9085e-05
-9.90263e-05
9.90807e-05
-9.9022e-05
-3.47905e-10
8.63697e-08
0.000145584
-0.000145666
-3.78314e-09
-9.3075e-08
-1.28839e-08
-0.000237869
-6.21059e-11
2.71778e-07
-0.000173728
-3.08099e-10
3.60436e-11
0.000173717
-0.00023053
-7.22935e-09
-8.71449e-09
0.000230468
6.98124e-08
-0.000173821
-3.97105e-11
-0.000230688
-1.72888e-08
2.48777e-07
-2.19714e-10
0.000145577
-8.03661e-05
-1.39582e-08
-4.97261e-11
8.03801e-05
-6.15292e-08
0.000270222
1.77263e-08
1.9892e-07
-0.000270398
-6.46973e-09
0.000198006
1.73598e-08
3.34756e-08
3.52918e-09
-8.04312e-05
9.00373e-09
0.00027015
4.24346e-08
-0.000145675
-1.04453e-10
8.55509e-09
-1.19923e-08
-8.92873e-09
1.39262e-10
9.79361e-08
6.54451e-10
0.000173833
1.89077e-11
-0.000173929
-8.79751e-08
0.000230753
2.53321e-07
-0.000230914
-0.000145759
3.78859e-11
7.37755e-08
6.03815e-08
8.0316e-05
-0.000269978
1.47922e-08
0.000269909
3.94891e-08
-1.98346e-08
-4.51375e-09
1.48527e-07
1.95325e-07
8.03305e-05
9.93459e-05
-1.5497e-08
6.49891e-09
-9.93369e-05
4.35926e-09
6.91309e-08
8.65067e-08
-3.18985e-10
0.000145583
-0.000145666
-3.80893e-09
-1.29995e-08
-9.31411e-08
-0.000237855
-7.93183e-11
2.71892e-07
-0.00023052
-7.31539e-09
-8.43667e-09
0.000230457
6.99362e-08
-0.000173725
-2.45256e-10
4.04714e-11
0.000173714
-0.000230678
-1.71538e-08
2.4898e-07
-0.000173818
2.56305e-11
-1.17684e-10
0.000145576
-8.0368e-05
-1.40951e-08
-1.16075e-10
8.03822e-05
-6.1677e-08
0.000270218
1.7625e-08
1.99006e-07
-0.000270394
-6.13373e-09
0.00019799
1.55044e-08
3.33069e-08
3.51427e-09
-8.04332e-05
9.01991e-09
0.000270146
4.24271e-08
-0.000145674
8.58033e-09
-1.52441e-10
-8.58528e-09
-1.20315e-08
-1.22572e-10
9.80549e-08
-8.80649e-08
0.000230743
2.5349e-07
-0.000230904
6.89999e-10
0.00017383
-1.1318e-11
-0.000173926
-0.000145758
7.39481e-08
1.62283e-11
6.05923e-08
8.03178e-05
-0.000269974
1.47606e-08
0.000269905
3.94696e-08
-2.01696e-08
-3.717e-09
1.484e-07
1.95518e-07
8.03325e-05
9.93385e-05
-1.53149e-08
8.89388e-09
4.30551e-09
6.66688e-08
-4.09049e-08
-4.10408e-08
0.000218973
-0.000219099
1.02475e-07
1.04681e-07
-8.19486e-05
8.37363e-09
-1.71695e-08
8.19574e-05
-8.19366e-05
8.44257e-09
-1.72638e-08
8.19454e-05
-8.20138e-05
2.42966e-08
-8.20018e-05
2.41736e-08
3.86042e-08
3.85035e-08
0.000218913
7.0387e-08
-3.85228e-08
-4.03629e-08
0.00022902
5.74197e-08
-0.000229068
6.32848e-08
2.34767e-08
0.000285864
-8.69319e-09
-0.000285939
-3.78863e-09
0.000260211
7.786e-08
-0.000260234
7.92635e-08
1.73111e-08
0.000187189
-0.000187221
7.27419e-08
-3.85403e-08
-3.82229e-08
0.000228944
5.75741e-08
-0.000228997
6.32661e-08
2.36406e-08
0.00028578
-8.83269e-09
-3.95752e-09
-0.000285854
0.000260089
7.3316e-08
8.40356e-08
-0.00026011
1.73898e-08
0.000187134
-0.000187167
-9.07293e-09
-9.12851e-09
-0.000219159
-8.20055e-05
-8.19936e-05
1.46394e-07
-1.28164e-07
0.000228869
2.35221e-07
-0.000187072
3.47645e-08
0.000187042
1.88227e-07
-1.32771e-08
-6.6576e-08
7.17926e-08
-0.000260028
-7.00128e-08
0.000260007
7.23931e-08
7.86441e-08
3.28157e-07
1.89661e-07
0.000228815
5.72538e-08
1.46286e-07
-1.26283e-07
0.000228797
2.31054e-07
-0.000187019
3.68153e-08
0.000186988
1.85907e-07
-1.35558e-08
-6.66448e-08
7.16406e-08
-0.000259908
-7.22017e-08
0.00025989
7.00342e-08
8.08898e-08
3.23066e-07
1.89559e-07
0.000228745
5.51466e-08
9.94808e-10
8.06465e-08
0.000145246
-0.000145323
-4.84204e-09
-8.68221e-08
-1.12859e-08
-0.000236938
2.91474e-11
2.5277e-07
-0.000173341
-1.26897e-09
4.27637e-11
-0.000229694
-2.76937e-09
-6.97032e-09
5.51568e-08
-0.000173427
7.67554e-11
-0.00022984
-1.57885e-08
2.31618e-07
-7.77316e-10
-8.01732e-05
-1.67921e-08
7.8391e-10
8.01892e-05
-5.74533e-08
0.000269285
1.63254e-08
-0.000269447
1.8515e-07
-3.78631e-09
0.000197375
1.4043e-08
2.46686e-08
4.69068e-09
-8.02354e-05
7.56613e-09
0.000269226
3.1132e-08
-0.000145327
1.15115e-09
3.84208e-09
-6.8263e-09
-7.22942e-09
2.27953e-10
8.10009e-08
-6.79088e-10
0.000173433
-0.00017352
2.07072e-11
-8.19669e-08
0.000229895
-0.000230044
2.35836e-07
-0.000145405
9.93829e-11
5.87283e-08
5.66537e-08
8.01277e-05
-0.000269068
1.7409e-08
2.84991e-08
-1.74962e-08
-5.1028e-09
1.37771e-07
1.81961e-07
9.9097e-05
-1.4063e-08
6.03309e-09
5.10632e-09
6.29342e-08
8.07036e-08
1.11209e-09
0.000145244
-0.000145321
-4.91556e-09
-1.14843e-08
-8.69132e-08
-0.000236925
1.46551e-10
2.52938e-07
-0.000229682
-2.81775e-09
-7.05941e-09
5.53456e-08
-0.000173338
-1.44016e-09
2.22252e-10
-0.000229829
-1.57867e-08
2.31814e-07