/*--------------------------------*- C++ -*----------------------------------*\
| =========                 |                                                 |
| \\      /  F ield         | OpenFOAM: The Open Source CFD Toolbox           |
|  \\    /   O peration     | Version:  2312                                  |
|   \\  /    A nd           | Website:  www.openfoam.com                      |
|    \\/     M anipulation  |                                                 |
\*---------------------------------------------------------------------------*/
FoamFile
{
    version     2.0;
    format      ascii;
    arch        "LSB;label=32;scalar=64";
    class       volScalarField;
    location    "125";
    object      epsilon;
}
// * * * * * * * * * * * * * * * * * * * * * * * * * * * * * * * * * * * * * //

dimensions      [0 2 -3 0 0 0 0];

internalField   nonuniform List<scalar> 
42840
(
1.31598e-07
2.41543e-07
2.41557e-07
3.84517e-07
1.30204e-07
2.54191e-07
2.54207e-07
4.13267e-07
1.29605e-07
2.68564e-07
2.68581e-07
4.43867e-07
1.29369e-07
2.83726e-07
2.83748e-07
4.74541e-07
1.29489e-07
2.98266e-07
2.98287e-07
5.01493e-07
1.29071e-07
3.08635e-07
3.08662e-07
5.19608e-07
1.267e-07
3.11746e-07
3.11787e-07
5.26227e-07
1.24286e-07
3.11735e-07
3.11785e-07
5.27063e-07
1.23293e-07
3.11972e-07
3.12029e-07
5.26939e-07
1.23208e-07
3.12591e-07
3.12648e-07
5.27504e-07
1.23304e-07
3.12961e-07
3.13017e-07
5.27883e-07
1.23365e-07
3.13096e-07
3.13155e-07
5.28067e-07
1.23385e-07
3.1313e-07
3.13187e-07
5.28064e-07
1.23391e-07
3.13138e-07
3.13194e-07
5.28072e-07
1.23395e-07
3.13146e-07
3.13201e-07
5.28084e-07
1.23398e-07
3.13151e-07
3.13207e-07
5.28093e-07
1.234e-07
3.13155e-07
3.13211e-07
5.28108e-07
1.23402e-07
3.13155e-07
3.13214e-07
5.28078e-07
1.23403e-07
3.13154e-07
3.13216e-07
5.28099e-07
1.23404e-07
3.13154e-07
3.13216e-07
5.28101e-07
1.23405e-07
3.13153e-07
3.13215e-07
5.28092e-07
1.23405e-07
3.13154e-07
3.13216e-07
5.2809e-07
1.23405e-07
3.13153e-07
3.13215e-07
5.28047e-07
1.23405e-07
3.13151e-07
3.13214e-07
5.28173e-07
1.23405e-07
3.13151e-07
3.13213e-07
5.28125e-07
3.84441e-07
4.06527e-07
2.41612e-07
2.4165e-07
2.509e-07
2.50939e-07
3.84451e-07
4.06542e-07
2.41568e-07
2.41662e-07
2.50851e-07
2.50953e-07
2.41617e-07
2.50826e-07
2.50904e-07
3.84484e-07
4.06579e-07
2.41604e-07
2.50839e-07
2.50891e-07
4.06621e-07
4.13183e-07
4.36805e-07
2.54269e-07
2.54307e-07
2.64954e-07
2.64993e-07
4.13193e-07
4.3682e-07
2.54219e-07
2.54323e-07
2.64899e-07
2.65012e-07
2.54273e-07
2.64871e-07
2.64959e-07
4.13231e-07
4.36862e-07
2.54259e-07
2.64887e-07
2.64943e-07
4.36908e-07
4.43776e-07
4.67418e-07
2.68649e-07
2.68688e-07
2.80008e-07
2.80047e-07
4.43785e-07
4.67433e-07
2.68592e-07
2.68708e-07
2.79945e-07
2.80071e-07
2.68654e-07
2.79915e-07
2.80014e-07
4.43828e-07
4.67482e-07
2.68636e-07
2.79934e-07
2.79994e-07
4.67531e-07
4.74439e-07
4.95361e-07
2.83821e-07
2.83861e-07
2.94923e-07
2.94964e-07
4.74447e-07
4.95383e-07
2.83757e-07
2.83885e-07
2.94853e-07
2.9499e-07
2.83829e-07
2.94825e-07
2.94932e-07
4.74498e-07
4.95432e-07
2.83807e-07
2.94847e-07
2.94906e-07
4.9549e-07
5.01379e-07
5.15387e-07
2.98365e-07
2.98405e-07
3.06833e-07
3.06868e-07
5.01395e-07
5.154e-07
2.98292e-07
2.98431e-07
3.06753e-07
3.06896e-07
2.98373e-07
3.06726e-07
3.06841e-07
5.01443e-07
5.1545e-07
2.98345e-07
3.06748e-07
3.06805e-07
5.15505e-07
5.19495e-07
5.23906e-07
3.08745e-07
3.0878e-07
3.116e-07
3.11635e-07
5.19501e-07
5.2391e-07
3.08665e-07
3.0881e-07
3.11522e-07
3.11673e-07
3.08755e-07
3.11484e-07
3.11616e-07
5.19554e-07
5.23983e-07
3.08717e-07
3.11523e-07
3.11577e-07
5.24032e-07
5.26102e-07
5.25315e-07
3.11863e-07
3.11897e-07
3.11893e-07
3.11928e-07
5.26102e-07
5.2532e-07
3.11785e-07
3.11937e-07
3.11816e-07
3.11974e-07
3.11879e-07
3.11774e-07
3.11914e-07
5.26177e-07
5.25405e-07
3.11841e-07
3.11821e-07
3.11876e-07
5.25448e-07
5.26931e-07
5.24944e-07
3.11855e-07
3.1189e-07
3.11947e-07
3.11982e-07
5.26931e-07
5.24948e-07
3.11778e-07
3.11938e-07
3.11869e-07
3.12033e-07
3.11877e-07
3.11823e-07
3.1197e-07
5.27021e-07
5.2504e-07
3.11839e-07
3.11877e-07
3.11933e-07
5.25089e-07
5.26797e-07
5.25618e-07
3.12094e-07
3.12129e-07
3.12574e-07
3.12607e-07
5.26795e-07
5.2562e-07
3.12016e-07
3.12181e-07
3.12493e-07
3.12657e-07
3.12118e-07
3.12446e-07
3.12593e-07
5.26892e-07
5.25709e-07
3.1208e-07
3.12501e-07
3.12556e-07
5.25751e-07
5.27378e-07
5.26026e-07
3.12715e-07
3.1275e-07
3.13025e-07
3.13057e-07
5.27374e-07
5.26027e-07
3.12636e-07
3.128e-07
3.12943e-07
3.13107e-07
3.12736e-07
3.12896e-07
3.13043e-07
5.27463e-07
5.26115e-07
3.12698e-07
3.12951e-07
3.13004e-07
5.26158e-07
5.27757e-07
5.26223e-07
3.13086e-07
3.1312e-07
3.13208e-07
3.13238e-07
5.27753e-07
5.26219e-07
3.13007e-07
3.1317e-07
3.13125e-07
3.13289e-07
3.13107e-07
3.13076e-07
3.13224e-07
5.27842e-07
5.26311e-07
3.13067e-07
3.13134e-07
3.13186e-07
5.26352e-07
5.27945e-07
5.26242e-07
3.13228e-07
3.13258e-07
3.13264e-07
3.13294e-07
5.27935e-07
5.26236e-07
3.13146e-07
3.13309e-07
3.13179e-07
3.13341e-07
3.13244e-07
3.13128e-07
3.13277e-07
5.28027e-07
5.26326e-07
3.13207e-07
3.13185e-07
3.13239e-07
5.26369e-07
5.27945e-07
5.26242e-07
3.13265e-07
3.13296e-07
3.13271e-07
3.13302e-07
5.27934e-07
5.26239e-07
3.13181e-07
3.13342e-07
3.13186e-07
3.13348e-07
3.13278e-07
3.13135e-07
3.13284e-07
5.28023e-07
5.26325e-07
3.1324e-07
3.13191e-07
3.13246e-07
5.26367e-07
5.27954e-07
5.26256e-07
3.13271e-07
3.13302e-07
3.13278e-07
3.13309e-07
5.27946e-07
5.26255e-07
3.13186e-07
3.13348e-07
3.13193e-07
3.13355e-07
3.13284e-07
3.13144e-07
3.13293e-07
5.28032e-07
5.2634e-07
3.13246e-07
3.13199e-07
3.13253e-07
5.26384e-07
5.27963e-07
5.26264e-07
3.13278e-07
3.13309e-07
3.13284e-07
3.13315e-07
5.27956e-07
5.26263e-07
3.13193e-07
3.13355e-07
3.13199e-07
3.13362e-07
3.13293e-07
3.1315e-07
3.13299e-07
5.28042e-07
5.26349e-07
3.13253e-07
3.13205e-07
3.1326e-07
5.26395e-07
5.27969e-07
5.2627e-07
3.13284e-07
3.13315e-07
3.13288e-07
3.13319e-07
5.27963e-07
5.26269e-07
3.13199e-07
3.13362e-07
3.13203e-07
3.13366e-07
3.13299e-07
3.13153e-07
3.13304e-07
5.28049e-07
5.26357e-07
3.1326e-07
3.13209e-07
3.13264e-07
5.26402e-07
5.27984e-07
5.26243e-07
3.13288e-07
3.13319e-07
3.13291e-07
3.13322e-07
5.27977e-07
5.2624e-07
3.13203e-07
3.13366e-07
3.13206e-07
3.1337e-07
3.13304e-07
3.13154e-07
3.13307e-07
5.28066e-07
5.2633e-07
3.13264e-07
3.13213e-07
3.13268e-07
5.26377e-07
5.2795e-07
5.26279e-07
3.1329e-07
3.13321e-07
3.13294e-07
3.13324e-07
5.27943e-07
5.26273e-07
3.13205e-07
3.13369e-07
3.13208e-07
3.13372e-07
3.13306e-07
3.13154e-07
3.13309e-07
5.28034e-07
5.26363e-07
3.13267e-07
3.13215e-07
3.1327e-07
5.2641e-07
5.27969e-07
5.26265e-07
3.13293e-07
3.13323e-07
3.13292e-07
3.13328e-07
5.27962e-07
5.26264e-07
3.13206e-07
3.1337e-07
3.13207e-07
3.13372e-07
3.13308e-07
3.13153e-07
3.13309e-07
5.28052e-07
5.26355e-07
3.13268e-07
3.13215e-07
3.1327e-07
5.26396e-07
5.27972e-07
5.26258e-07
3.13289e-07
3.13328e-07
3.13286e-07
3.13332e-07
5.27971e-07
5.26257e-07
3.13206e-07
3.13371e-07
3.13207e-07
3.13372e-07
3.13308e-07
3.13153e-07
3.13309e-07
5.28061e-07
5.26348e-07
3.13268e-07
3.13215e-07
3.1327e-07
5.26393e-07
5.27959e-07
5.26246e-07
3.13284e-07
3.13332e-07
3.13283e-07
3.13334e-07
5.2796e-07
5.26245e-07
3.13205e-07
3.1337e-07
3.13206e-07
3.13372e-07
3.13307e-07
3.13153e-07
3.13309e-07
5.28052e-07
5.26329e-07
3.13268e-07
3.13215e-07
3.13269e-07
5.26379e-07
5.27957e-07
5.26244e-07
3.1328e-07
3.13334e-07
3.13279e-07
3.13335e-07
5.27956e-07
5.26246e-07
3.13205e-07
3.1337e-07
3.13206e-07
3.13372e-07
3.13307e-07
3.13153e-07
3.13309e-07
5.28042e-07
5.2633e-07
3.13268e-07
3.13215e-07
3.13269e-07
5.26372e-07
5.2792e-07
5.26349e-07
3.13276e-07
3.13333e-07
3.13276e-07
3.13335e-07
5.27923e-07
5.26351e-07
3.13204e-07
3.1337e-07
3.13206e-07
3.13372e-07
3.13307e-07
3.13152e-07
3.13309e-07
5.28005e-07
5.26438e-07
3.13267e-07
3.13214e-07
3.13269e-07
5.26484e-07
5.28041e-07
5.26232e-07
3.13273e-07
3.13334e-07
3.13272e-07
3.13334e-07
5.28046e-07
5.26239e-07
3.13204e-07
3.1337e-07
3.13204e-07
3.1337e-07
3.13307e-07
3.1315e-07
3.13307e-07
5.28131e-07
5.26323e-07
3.13267e-07
3.13212e-07
3.13267e-07
5.26362e-07
5.28003e-07
3.13272e-07
3.13334e-07
5.28018e-07
3.13204e-07
3.1337e-07
3.13306e-07
5.281e-07
3.13267e-07
3.75819e-06
8.91928e-06
8.9239e-06
3.73227e-06
1.84376e-05
1.843e-05
3.75829e-06
8.92055e-06
8.92517e-06
3.73233e-06
1.31602e-07
1.31607e-07
1.31609e-07
1.30467e-07
1.30471e-07
1.30477e-07
1.30479e-07
1.24223e-06
2.86615e-06
1.59959e-07
2.44503e-07
2.8868e-06
1.60503e-07
1.21517e-06
1.84383e-05
1.84308e-05
1.24232e-06
1.59979e-07
2.86615e-06
2.44516e-07
1.60508e-07
2.88692e-06
1.21522e-06
5.16598e-06
5.16769e-06
3.92215e-07
5.17607e-06
5.17782e-06
3.81682e-06
8.9299e-06
3.79584e-06
8.93222e-06
1.84111e-05
1.84034e-05
3.81691e-06
8.93117e-06
3.79589e-06
8.93349e-06
1.30208e-07
1.30214e-07
1.30216e-07
1.29706e-07
1.29711e-07
1.29717e-07
1.29719e-07
1.32193e-06
2.92788e-06
1.62591e-07
2.57671e-07
1.29632e-06
2.94553e-06
1.63478e-07
1.84119e-05
1.84041e-05
1.32203e-06
1.62614e-07
2.92787e-06
2.57686e-07
1.29637e-06
1.63486e-07
2.94566e-06
5.19443e-06
5.19613e-06
4.21617e-07
5.20184e-06
5.20357e-06
3.85783e-06
8.93399e-06
3.84599e-06
8.93734e-06
1.83867e-05
1.83829e-05
3.85791e-06
8.93527e-06
3.84603e-06
8.93862e-06
1.29609e-07
1.29616e-07
1.29618e-07
1.29403e-07
1.29408e-07
1.29415e-07
1.29418e-07
1.39557e-06
2.97886e-06
1.66538e-07
2.72311e-07
1.37273e-06
2.99339e-06
1.67675e-07
1.83874e-05
1.83837e-05
1.39566e-06
1.66562e-07
2.97887e-06
2.72327e-07
1.37279e-06
1.67687e-07
2.99342e-06
5.21543e-06
5.21713e-06
4.52241e-07
5.22275e-06
5.22444e-06
3.87305e-06
8.94165e-06
3.87023e-06
8.94203e-06
1.83685e-05
1.83616e-05
3.87312e-06
8.94295e-06
3.87028e-06
8.94334e-06
1.29374e-07
1.29381e-07
1.29384e-07
1.29441e-07
1.29446e-07
1.29454e-07
1.29457e-07
1.45489e-06
3.02087e-06
1.71267e-07
2.87505e-07
1.43776e-06
3.03149e-06
1.7254e-07
1.83692e-05
1.83623e-05
1.45498e-06
1.71293e-07
3.02093e-06
2.87527e-07
1.43781e-06
1.72555e-07
3.03161e-06
5.2339e-06
5.23563e-06
4.8228e-07
5.23615e-06
5.23788e-06
3.87285e-06
8.93793e-06
3.8742e-06
8.93467e-06
1.83438e-05
1.8337e-05
3.87291e-06
8.93924e-06
3.87427e-06
8.93597e-06
1.29495e-07
1.29503e-07
1.29506e-07
1.29373e-07
1.29378e-07
1.29387e-07
1.2939e-07
1.49259e-06
3.04887e-06
1.76296e-07
3.0146e-07
1.48332e-06
3.05355e-06
1.7742e-07
1.83446e-05
1.83377e-05
1.49268e-06
1.76323e-07
3.04881e-06
3.01479e-07
1.48337e-06
1.77438e-07
3.05354e-06
5.23886e-06
5.24051e-06
5.06738e-07
5.23857e-06
5.24023e-06
3.8663e-06
8.92542e-06
3.8697e-06
8.92e-06
1.83185e-05
1.83114e-05
3.86634e-06
8.92673e-06
3.86974e-06
8.92132e-06
1.29074e-07
1.29084e-07
1.29088e-07
1.27404e-07
1.27408e-07
1.2742e-07
1.27422e-07
1.50872e-06
3.05887e-06
1.79657e-07
3.10025e-07
1.50594e-06
3.05773e-06
1.79943e-07
1.83193e-05
1.83121e-05
1.50885e-06
1.79687e-07
3.05886e-06
3.10057e-07
1.506e-06
1.79971e-07
3.05784e-06
5.23645e-06
5.23809e-06
5.21171e-07
5.23281e-06
5.23449e-06
3.85793e-06
8.90955e-06
3.86173e-06
8.90543e-06
1.82949e-05
1.82905e-05
3.85801e-06
8.91087e-06
3.86175e-06
8.90674e-06
1.26704e-07
1.26716e-07
1.26719e-07
1.24767e-07
1.24771e-07
1.24786e-07
1.24788e-07
1.51157e-06
3.05535e-06
1.79718e-07
3.11834e-07
1.51201e-06
3.05217e-06
1.79235e-07
1.82956e-05
1.82912e-05
1.51167e-06
1.79759e-07
3.05545e-06
3.11877e-07
1.5121e-06
1.79268e-07
3.05228e-06
5.22742e-06
5.22907e-06
5.25154e-07
5.22326e-06
5.22493e-06
3.84985e-06
8.89913e-06
3.85272e-06
8.89731e-06
1.82804e-05
1.82793e-05
3.84991e-06
8.9004e-06
3.85275e-06
8.89858e-06
1.24288e-07
1.24304e-07
1.24306e-07
1.23417e-07
1.2342e-07
1.23437e-07
1.23439e-07
1.50988e-06
3.04935e-06
1.78224e-07
3.11734e-07
1.51113e-06
3.04698e-06
1.78079e-07
1.82811e-05
1.828e-05
1.50999e-06
1.7827e-07
3.0494e-06
3.11785e-07
1.51121e-06
1.7812e-07
3.0471e-06
5.21913e-06
5.22078e-06
5.2493e-07
5.21673e-06
5.21844e-06
3.84578e-06
8.89466e-06
3.84703e-06
8.89417e-06
1.82742e-05
1.82754e-05
3.84584e-06
8.89593e-06
3.84706e-06
8.89543e-06
1.23296e-07
1.23313e-07
1.23315e-07
1.23205e-07
1.23207e-07
1.23225e-07
1.23226e-07
1.50841e-06
3.04571e-06
1.77999e-07
3.12124e-07
1.50932e-06
3.04451e-06
1.78024e-07
1.82749e-05
1.8276e-05
1.50852e-06
1.78047e-07
3.04576e-06
3.1218e-07
1.50941e-06
1.78068e-07
3.04462e-06
5.21511e-06
5.21676e-06
5.25561e-07
5.21429e-06
5.21598e-06
3.84439e-06
8.89325e-06
3.84479e-06
8.89335e-06
1.82726e-05
1.82746e-05
3.84443e-06
8.89451e-06
3.84482e-06
8.89462e-06
1.23211e-07
1.23229e-07
1.2323e-07
1.2328e-07
1.23282e-07
1.233e-07
1.23301e-07
1.50785e-06
3.04448e-06
1.78269e-07
3.12712e-07
1.50845e-06
3.04389e-06
1.7836e-07
1.82733e-05
1.82752e-05
1.50793e-06
1.78322e-07
3.04454e-06
3.12767e-07
1.50852e-06
1.78398e-07
3.04399e-06
5.21406e-06
5.21572e-06
5.2599e-07
5.21381e-06
5.21548e-06
3.8441e-06
8.89309e-06
3.84422e-06
8.89335e-06
1.82726e-05
1.82748e-05
3.84414e-06
8.89435e-06
3.84426e-06
8.89461e-06
1.23306e-07
1.23325e-07
1.23326e-07
1.23356e-07
1.23357e-07
1.23376e-07
1.23376e-07
1.50772e-06
3.04442e-06
1.78524e-07
3.13007e-07
1.50816e-06
3.04391e-06
1.78567e-07
1.82733e-05
1.82754e-05
1.50781e-06
1.78575e-07
3.04446e-06
3.13064e-07
1.50822e-06
1.78605e-07
3.04401e-06
5.21402e-06
5.21568e-06
5.26258e-07
5.21387e-06
5.21555e-06
3.84406e-06
8.89316e-06
3.84415e-06
8.89342e-06
1.82728e-05
1.82749e-05
3.8441e-06
8.89442e-06
3.84419e-06
8.89468e-06
1.23367e-07
1.23385e-07
1.23386e-07
1.23383e-07
1.23384e-07
1.23402e-07
1.23403e-07
1.50773e-06
3.04447e-06
1.78624e-07
3.1311e-07
1.50815e-06
3.04396e-06
1.78641e-07
1.82734e-05
1.82755e-05
1.50783e-06
1.78673e-07
3.04452e-06
3.13169e-07
1.50822e-06
1.78681e-07
3.04406e-06
5.21411e-06
5.21577e-06
5.26384e-07
5.21394e-06
5.21562e-06
3.84404e-06
8.89321e-06
3.84413e-06
8.89345e-06
1.82729e-05
1.8275e-05
3.84409e-06
8.89447e-06
3.84417e-06
8.89471e-06
1.23386e-07
1.23404e-07
1.23405e-07
1.2339e-07
1.23391e-07
1.23409e-07
1.2341e-07
1.50774e-06
3.04449e-06
1.78659e-07
3.1313e-07
1.50816e-06
3.04397e-06
1.78665e-07
1.82735e-05
1.82756e-05
1.50783e-06
1.78705e-07
3.04454e-06
3.13187e-07
1.50823e-06
1.78707e-07
3.04407e-06
5.21412e-06
5.2158e-06
5.26357e-07
5.21393e-06
5.21562e-06
3.84402e-06
8.89323e-06
3.84411e-06
8.89347e-06
1.82729e-05
1.8275e-05
3.84407e-06
8.89449e-06
3.84415e-06
8.89473e-06
1.23392e-07
1.2341e-07
1.23411e-07
1.23394e-07
1.23396e-07
1.23414e-07
1.23415e-07
1.50775e-06
3.04448e-06
1.7867e-07
3.13138e-07
1.50817e-06
3.04397e-06
1.78674e-07
1.82736e-05
1.82756e-05
1.50783e-06
1.78712e-07
3.04453e-06
3.13194e-07
1.50823e-06
1.78712e-07
3.04406e-06
5.21411e-06
5.21579e-06
5.26384e-07
5.21393e-06
5.21562e-06
3.84401e-06
8.89324e-06
3.84409e-06
8.89348e-06
1.8273e-05
1.82751e-05
3.84405e-06
8.8945e-06
3.84413e-06
8.89474e-06
1.23397e-07
1.23414e-07
1.23416e-07
1.23397e-07
1.23399e-07
1.23417e-07
1.23418e-07
1.50776e-06
3.04447e-06
1.78678e-07
3.13146e-07
1.50819e-06
3.04396e-06
1.78682e-07
1.82736e-05
1.82757e-05
1.50783e-06
1.78718e-07
3.04452e-06
3.13201e-07
1.50824e-06
1.78718e-07
3.04406e-06
5.21411e-06
5.21578e-06
5.26388e-07
5.21393e-06
5.21561e-06
3.84399e-06
8.89324e-06
3.84407e-06
8.89348e-06
1.8273e-05
1.82751e-05
3.84403e-06
8.8945e-06
3.84411e-06
8.89474e-06
1.23399e-07
1.23417e-07
1.23419e-07
1.234e-07
1.23401e-07
1.23419e-07
1.23421e-07
1.50776e-06
3.04447e-06
1.78685e-07
3.13151e-07
1.50819e-06
3.04395e-06
1.78686e-07
1.82736e-05
1.82757e-05
1.50783e-06
1.78723e-07
3.04451e-06
3.13206e-07
1.50824e-06
1.78723e-07
3.04405e-06
5.21411e-06
5.21577e-06
5.26386e-07
5.21392e-06
5.2156e-06
3.84397e-06
8.89324e-06
3.84406e-06
8.89348e-06
1.8273e-05
1.82751e-05
3.84401e-06
8.8945e-06
3.84409e-06
8.89473e-06
1.23401e-07
1.23419e-07
1.23421e-07
1.23401e-07
1.23403e-07
1.23421e-07
1.23422e-07
1.50775e-06
3.04446e-06
1.78687e-07
3.13154e-07
1.50818e-06
3.04394e-06
1.78688e-07
1.82736e-05
1.82757e-05
1.50783e-06
1.78726e-07
3.0445e-06
3.13211e-07
1.50823e-06
1.78726e-07
3.04403e-06
5.2141e-06
5.21576e-06
5.26407e-07
5.21391e-06
5.21558e-06
3.84394e-06
8.89323e-06
3.84403e-06
8.89346e-06
1.8273e-05
1.82751e-05
3.84399e-06
8.89449e-06
3.84407e-06
8.89472e-06
1.23403e-07
1.23421e-07
1.23423e-07
1.23403e-07
1.23404e-07
1.23422e-07
1.23424e-07
1.50773e-06
3.04444e-06
1.78687e-07
3.13154e-07
1.50817e-06
3.04393e-06
1.78688e-07
1.82736e-05
1.82757e-05
1.50782e-06
1.78729e-07
3.04449e-06
3.13214e-07
1.50822e-06
1.78729e-07
3.04402e-06
5.21408e-06
5.21575e-06
5.26406e-07
5.21389e-06
5.21557e-06
3.84392e-06
8.89326e-06
3.84401e-06
8.89353e-06
1.82728e-05
1.82749e-05
3.84396e-06
8.89448e-06
3.84405e-06
8.89471e-06
1.23404e-07
1.23422e-07
1.23424e-07
1.23404e-07
1.23405e-07
1.23423e-07
1.23425e-07
1.50771e-06
3.04444e-06
1.78687e-07
3.13153e-07
1.50815e-06
3.04392e-06
1.78688e-07
1.82736e-05
1.82757e-05
1.5078e-06
1.78732e-07
3.04448e-06
3.13214e-07
1.5082e-06
1.78731e-07
3.04401e-06
5.21407e-06
5.21574e-06
5.26373e-07
5.21388e-06
5.21556e-06
3.84389e-06
8.89329e-06
3.84398e-06
8.89352e-06
1.82727e-05
1.82748e-05
3.84394e-06
8.89447e-06
3.84402e-06
8.8947e-06
1.23405e-07
1.23424e-07
1.23425e-07
1.23405e-07
1.23406e-07
1.23424e-07
1.23426e-07
1.50769e-06
3.04443e-06
1.78688e-07
3.13153e-07
1.50813e-06
3.04391e-06
1.78689e-07
1.82736e-05
1.82757e-05
1.50778e-06
1.78733e-07
3.04446e-06
3.13214e-07
1.50818e-06
1.78732e-07
3.04399e-06
5.21406e-06
5.21573e-06
5.26398e-07
5.21387e-06
5.21555e-06
3.84387e-06
8.89328e-06
3.84396e-06
8.89352e-06
1.82726e-05
1.82747e-05
3.84392e-06
8.89446e-06
3.844e-06
8.89469e-06
1.23406e-07
1.23425e-07
1.23426e-07
1.23405e-07
1.23407e-07
1.23426e-07
1.23427e-07
1.50767e-06
3.04441e-06
1.78688e-07
3.13152e-07
1.50811e-06
3.0439e-06
1.78689e-07
1.82736e-05
1.82757e-05
1.50776e-06
1.78733e-07
3.04445e-06
3.13214e-07
1.50816e-06
1.78732e-07
3.04397e-06
5.21405e-06
5.21571e-06
5.26378e-07
5.21386e-06
5.21554e-06
3.84386e-06
8.89327e-06
3.84395e-06
8.89351e-06
1.82724e-05
1.82746e-05
3.84391e-06
8.89445e-06
3.84399e-06
8.89468e-06
1.23407e-07
1.23425e-07
1.23427e-07
1.23405e-07
1.23407e-07
1.23426e-07
1.23427e-07
1.50766e-06
3.04439e-06
1.78688e-07
3.13152e-07
1.5081e-06
3.04389e-06
1.7869e-07
1.82736e-05
1.82756e-05
1.50774e-06
1.78734e-07
3.04444e-06
3.13214e-07
1.50815e-06
1.78732e-07
3.04396e-06
5.21404e-06
5.2157e-06
5.26414e-07
5.21385e-06
5.21553e-06
3.84384e-06
8.89327e-06
3.84392e-06
8.89351e-06
1.82723e-05
1.82744e-05
3.84388e-06
8.89444e-06
3.84396e-06
8.89468e-06
1.23407e-07
1.23425e-07
1.23427e-07
1.23405e-07
1.23407e-07
1.23426e-07
1.23427e-07
1.50765e-06
3.04438e-06
1.78688e-07
3.13151e-07
1.50808e-06
3.04387e-06
1.78689e-07
1.82736e-05
1.82756e-05
1.50773e-06
1.78733e-07
3.04442e-06
3.13213e-07
1.50814e-06
1.78731e-07
3.04395e-06
5.21402e-06
5.21569e-06
5.26329e-07
5.21384e-06
5.21552e-06
3.84388e-06
8.89327e-06
3.84394e-06
8.8935e-06
1.82722e-05
1.82743e-05
3.84393e-06
8.89444e-06
3.84398e-06
8.89467e-06
1.23407e-07
1.23425e-07
1.23427e-07
1.23405e-07
1.23407e-07
1.23425e-07
1.23427e-07
1.50765e-06
3.04438e-06
1.78686e-07
3.1315e-07
1.50806e-06
3.04386e-06
1.78687e-07
1.82736e-05
1.82756e-05
1.50773e-06
1.78731e-07
3.04442e-06
3.13212e-07
1.50812e-06
1.78729e-07
3.04394e-06
5.21402e-06
5.21568e-06
5.26308e-07
5.21383e-06
5.21551e-06
3.84394e-06
8.89327e-06
3.84398e-06
8.89352e-06
1.82721e-05
1.82743e-05
3.84399e-06
8.89444e-06
3.84403e-06
8.89469e-06
1.23406e-07
1.23425e-07
1.23427e-07
1.50767e-06
3.04438e-06
1.78686e-07
3.13151e-07
1.50807e-06
3.04388e-06
1.78687e-07
1.82736e-05
1.82756e-05
1.50775e-06
1.7873e-07
3.04442e-06
3.13213e-07
1.50813e-06
1.7873e-07
3.04396e-06
5.21403e-06
5.21569e-06
5.26485e-07
5.21385e-06
5.21554e-06
1.8435e-05
1.84275e-05
1.84378e-05
1.84303e-05
5.16586e-06
5.16781e-06
3.92126e-07
5.17599e-06
5.1779e-06
1.84145e-05
1.84217e-05
1.84173e-05
1.84245e-05
3.98497e-07
5.18998e-06
5.19186e-06
5.18096e-06
5.18287e-06
3.75815e-06
8.91954e-06
8.92416e-06
3.73222e-06
1.24218e-06
2.86604e-06
1.59974e-07
2.44572e-07
2.88682e-06
1.60507e-07
1.2151e-06
1.24216e-06
2.86659e-06
1.59979e-07
2.44611e-07
2.88738e-06
1.60512e-07
1.21508e-06
3.76591e-06
8.9294e-06
8.92469e-06
3.78861e-06
3.76585e-06
8.92966e-06
8.92496e-06
3.78856e-06
1.25625e-06
2.47665e-07
2.91744e-06
1.61817e-07
2.89782e-06
1.61119e-07
1.28253e-06
1.25623e-06
2.47704e-07
2.91799e-06
1.61822e-07
2.89836e-06
1.61124e-07
1.28251e-06
5.16747e-06
5.16608e-06
3.92142e-07
5.17755e-06
5.17597e-06
1.84356e-05
1.84281e-05
1.84171e-05
1.84242e-05
3.98508e-07
5.19151e-06
5.19002e-06
5.18254e-06
5.18114e-06
1.84152e-05
1.84223e-05
1.24223e-06
2.8666e-06
1.59979e-07
2.44527e-07
2.88738e-06
1.60513e-07
1.21516e-06
3.75825e-06
8.92014e-06
8.92475e-06
3.7323e-06
1.24222e-06
1.5999e-07
2.8667e-06
2.44624e-07
1.60524e-07
2.88749e-06
1.21515e-06
3.76596e-06
8.93067e-06
8.92596e-06
3.78871e-06
1.25631e-06
2.47618e-07
2.91799e-06
1.61822e-07
2.89837e-06
1.61124e-07
1.28258e-06
3.76593e-06
8.93027e-06
8.92555e-06
3.78867e-06
1.2563e-06
2.47718e-07
1.61835e-07
2.9181e-06
1.61136e-07
2.89848e-06
1.28257e-06
3.75788e-06
8.91993e-06
8.92445e-06
3.73277e-06
1.24223e-06
1.59973e-07
2.86625e-06
2.44577e-07
1.60507e-07
2.887e-06
1.21515e-06
3.75816e-06
8.91976e-06
8.92439e-06
3.73235e-06
1.25631e-06
2.47592e-07
2.91742e-06
1.61811e-07
2.89791e-06
1.61103e-07
1.2826e-06
3.76638e-06
8.93e-06
8.92526e-06
3.78832e-06
1.2563e-06
2.4767e-07
1.61816e-07
2.91761e-06
1.61118e-07
2.89802e-06
1.28259e-06
3.76597e-06
8.92988e-06
8.92518e-06
3.78858e-06
5.16757e-06
5.1661e-06
3.92176e-07
5.17769e-06
5.17618e-06
1.84358e-05
1.84283e-05
1.84178e-05
1.8425e-05
3.98543e-07
5.19167e-06
5.19014e-06
5.18264e-06
5.18117e-06
1.84153e-05
1.84225e-05
1.24229e-06
1.59988e-07
2.8667e-06
2.44564e-07
1.60517e-07
2.8875e-06
1.21522e-06
3.758e-06
8.92002e-06
8.92464e-06
3.73279e-06
3.75798e-06
8.92037e-06
8.925e-06
3.73278e-06
1.25637e-06
2.47607e-07
1.61818e-07
2.91754e-06
1.61124e-07
2.89793e-06
1.28269e-06
1.25637e-06
2.47657e-07
1.61828e-07
2.91811e-06
1.61134e-07
2.89848e-06
1.28265e-06
3.76639e-06
8.93014e-06
8.92544e-06
3.78842e-06
3.76639e-06
8.93051e-06
8.9258e-06
3.7884e-06
1.84369e-05
1.84293e-05
1.84387e-05
1.84312e-05
3.98577e-07
5.19005e-06
5.19179e-06
5.18105e-06
5.18276e-06
1.84163e-05
1.84235e-05
1.84183e-05
1.84254e-05
1.84086e-05
1.84009e-05
1.84114e-05
1.84037e-05
5.19434e-06
5.19624e-06
4.21518e-07
5.20178e-06
5.20365e-06
1.83887e-05
1.83949e-05
1.83915e-05
1.83977e-05
4.28392e-07
5.21184e-06
5.21369e-06
5.20534e-06
5.20722e-06
3.81677e-06
8.93016e-06
3.79579e-06
8.93248e-06
1.32187e-06
2.92777e-06
1.62608e-07
2.5775e-07
1.29625e-06
2.94557e-06
1.63485e-07
1.32185e-06
2.9283e-06
1.62613e-07
2.57789e-07
1.29622e-06
2.9461e-06
1.63489e-07
3.82345e-06
8.93372e-06
8.93224e-06
3.84079e-06
3.82339e-06
8.93399e-06
8.93251e-06
3.84074e-06
1.33525e-06
2.61318e-07
2.97042e-06
1.65474e-07
2.95477e-06
1.64449e-07
1.35992e-06
1.33522e-06
2.61357e-07
2.97095e-06
1.65478e-07
2.95529e-06
1.64453e-07
1.3599e-06
5.19591e-06
5.19458e-06
4.21532e-07
5.2033e-06
5.20166e-06
1.84091e-05
1.84013e-05
1.83912e-05
1.83974e-05
4.284e-07
5.21336e-06
5.21158e-06
5.2069e-06
5.20531e-06
1.83893e-05
1.83952e-05
1.32192e-06
2.92832e-06
1.62614e-07
2.57699e-07
1.2963e-06
2.94611e-06
1.63491e-07
3.81687e-06
8.93077e-06
3.79586e-06
8.93309e-06
1.32191e-06
1.62627e-07
2.92842e-06
2.57806e-07
1.29629e-06
1.63504e-07
2.94622e-06
3.82349e-06
8.935e-06
8.93352e-06
3.84087e-06
1.3353e-06
2.61265e-07
2.97096e-06
1.65479e-07
2.95531e-06
1.64454e-07
1.35997e-06
3.82346e-06
8.9346e-06
8.93311e-06
3.84083e-06
1.33529e-06
2.61375e-07
1.65494e-07
2.97106e-06
1.64468e-07
2.9554e-06
1.35996e-06
3.81654e-06
8.93053e-06
3.79631e-06
8.93279e-06
1.32193e-06
1.62607e-07
2.92796e-06
2.57755e-07
1.2963e-06
1.63484e-07
2.94573e-06
3.81679e-06
8.93038e-06
3.79591e-06
8.93272e-06
1.33531e-06
2.61236e-07
2.97036e-06
1.65466e-07
2.95482e-06
1.64431e-07
1.35999e-06
3.82387e-06
8.9343e-06
8.93282e-06
3.84055e-06
1.3353e-06
2.61323e-07
1.65472e-07
2.9706e-06
1.64447e-07
2.95496e-06
1.35999e-06
3.8235e-06
8.93424e-06
8.93275e-06
3.84077e-06
5.19601e-06
5.19454e-06
4.21573e-07
5.20344e-06
5.20192e-06
1.84094e-05
1.84016e-05
1.83919e-05
1.83982e-05
4.28442e-07
5.21346e-06
5.21198e-06
5.20697e-06
5.20551e-06
1.83895e-05
1.83957e-05
1.32199e-06
1.62624e-07
2.92842e-06
2.5774e-07
1.29637e-06
1.63497e-07
2.94623e-06
3.81664e-06
8.93064e-06
3.79631e-06
8.93297e-06
3.81662e-06
8.93101e-06
3.7963e-06
8.93334e-06
1.33537e-06
2.61253e-07
1.65475e-07
2.97053e-06
1.64455e-07
2.95488e-06
1.36008e-06
1.33537e-06
2.61307e-07
1.65487e-07
2.97107e-06
1.64465e-07
2.95541e-06
1.36004e-06
3.82388e-06
8.93448e-06
8.933e-06
3.84065e-06
3.82388e-06
8.93485e-06
8.93337e-06
3.84062e-06
1.84104e-05
1.84026e-05
1.84124e-05
1.84046e-05
4.2848e-07
5.21188e-06
5.21362e-06
5.20541e-06
5.20711e-06
1.83904e-05
1.83967e-05
1.83924e-05
1.83986e-05
1.83841e-05
1.83804e-05
1.83869e-05
1.83832e-05
5.21536e-06
5.21723e-06
4.52134e-07
5.22271e-06
5.22451e-06
1.83713e-05
1.83763e-05
1.83741e-05
1.8379e-05
4.59173e-07
5.23183e-06
5.23363e-06
5.22656e-06
5.22837e-06
3.85779e-06
8.93426e-06
3.84594e-06
8.93761e-06
1.3955e-06
2.97875e-06
1.66556e-07
2.72398e-07
1.37266e-06
2.99332e-06
1.67685e-07
1.39547e-06
2.97927e-06
1.6656e-07
2.72437e-07
1.37264e-06
2.99384e-06
1.67689e-07
3.86137e-06
8.94163e-06
8.93797e-06
3.86811e-06
3.86132e-06
8.94192e-06
8.93824e-06
3.86806e-06
1.40714e-06
2.76191e-07
3.01407e-06
1.70049e-07
3.00116e-06
1.6885e-07
1.42742e-06
1.40711e-06
2.7623e-07
3.01457e-06
1.70053e-07
3.00166e-06
1.68854e-07
1.42739e-06
5.21693e-06
5.21549e-06
4.5215e-07
5.22424e-06
5.22306e-06
1.83848e-05
1.83812e-05
1.83739e-05
1.83788e-05
4.59184e-07
5.23332e-06
5.2316e-06
5.22812e-06
5.22697e-06
1.83717e-05
1.83768e-05
1.39554e-06
2.97929e-06
1.66562e-07
2.72339e-07
1.37271e-06
2.99383e-06
1.67691e-07
3.85787e-06
8.93487e-06
3.846e-06
8.93824e-06
1.39553e-06
1.66577e-07
2.97937e-06
2.72458e-07
1.3727e-06
1.67706e-07
2.99394e-06
3.86141e-06
8.94292e-06
8.93925e-06
3.86818e-06
1.40719e-06
2.7613e-07
3.01459e-06
1.70056e-07
3.00167e-06
1.68856e-07
1.42745e-06
3.86138e-06
8.94253e-06
8.93887e-06
3.86814e-06
1.40718e-06
2.76252e-07
1.70072e-07
3.01468e-06
1.68872e-07
3.00177e-06
1.42744e-06
3.85767e-06
8.9346e-06
3.8464e-06
8.93797e-06
1.39556e-06
1.66555e-07
2.97895e-06
2.72403e-07
1.37272e-06
1.67683e-07
2.99348e-06
3.85783e-06
8.93451e-06
3.84605e-06
8.93785e-06
1.40721e-06
2.761e-07
3.01403e-06
1.70039e-07
3.00132e-06
1.68831e-07
1.42749e-06
3.86173e-06
8.94217e-06
8.9386e-06
3.86802e-06
1.4072e-06
2.76197e-07
1.70048e-07
3.01422e-06
1.68848e-07
3.00134e-06
1.42749e-06
3.86143e-06
8.94214e-06
8.93848e-06
3.86813e-06
5.21699e-06
5.21556e-06
4.52194e-07
5.22437e-06
5.22287e-06
1.83849e-05
1.83812e-05
1.83746e-05
1.83796e-05
4.5923e-07
5.23342e-06
5.23192e-06
5.22821e-06
5.22674e-06
1.83721e-05
1.83771e-05
1.39561e-06
1.66573e-07
2.97938e-06
2.72385e-07
1.37279e-06
1.67698e-07
2.99395e-06
3.85772e-06
8.93475e-06
3.84641e-06
8.9381e-06
3.85769e-06
8.93512e-06
3.8464e-06
8.93847e-06
1.40727e-06
2.76119e-07
1.70052e-07
3.01416e-06
1.68856e-07
3.00126e-06
1.42757e-06
1.40726e-06
2.76177e-07
1.70064e-07
3.0147e-06
1.68868e-07
3.00176e-06
1.42752e-06
3.86172e-06
8.9424e-06
8.93873e-06
3.86806e-06
3.86171e-06
8.94278e-06
8.93911e-06
3.86803e-06
1.83859e-05
1.83821e-05
1.83878e-05
1.83841e-05
4.5927e-07
5.23181e-06
5.23357e-06
5.2266e-06
5.22826e-06
1.8373e-05
1.8378e-05
1.83751e-05
1.838e-05
1.83659e-05
1.8359e-05
1.83687e-05
1.83618e-05
5.2339e-06
5.23573e-06
4.8216e-07
5.23616e-06
5.23796e-06
1.83468e-05
1.83535e-05
1.83496e-05
1.83563e-05
4.88856e-07
5.23832e-06
5.24009e-06
5.23727e-06
5.23908e-06
3.873e-06
8.94195e-06
3.87017e-06
8.94236e-06
1.45482e-06
3.02083e-06
1.71286e-07
2.87602e-07
1.43768e-06
3.03148e-06
1.72551e-07
1.45479e-06
3.02131e-06
1.71289e-07
2.87642e-07
1.43765e-06
3.03199e-06
1.72555e-07
3.87389e-06
8.93961e-06
8.94146e-06
3.87415e-06
3.87384e-06
8.93994e-06
8.94179e-06
3.8741e-06
1.46337e-06
2.91316e-07
3.04478e-06
1.75096e-07
3.03707e-06
1.73829e-07
1.47669e-06
1.46334e-06
2.91357e-07
3.04528e-06
1.751e-07
3.03756e-06
1.73833e-07
1.47666e-06
5.23543e-06
5.23381e-06
4.82175e-07
5.23769e-06
5.23608e-06
1.83663e-05
1.83597e-05
1.83494e-05
1.83561e-05
4.88868e-07
5.23983e-06
5.23839e-06
5.23884e-06
5.23751e-06
1.83475e-05
1.83542e-05
1.45486e-06
3.02135e-06
1.71292e-07
2.87536e-07
1.43773e-06
3.032e-06
1.72558e-07
3.87308e-06
8.94257e-06
3.87023e-06
8.94296e-06
1.45484e-06
1.7131e-07
3.02142e-06
2.87667e-07
1.43771e-06
1.72575e-07
3.03208e-06
3.87395e-06
8.94091e-06
8.94276e-06
3.87422e-06
1.46342e-06
2.91249e-07
3.04529e-06
1.75103e-07
3.03758e-06
1.73836e-07
1.47673e-06
3.87391e-06
8.94053e-06
8.94239e-06
3.87418e-06
1.4634e-06
2.91383e-07
1.75122e-07
3.04537e-06
1.73855e-07
3.03765e-06
1.47671e-06
3.87311e-06
8.94218e-06
3.8705e-06
8.94259e-06
1.4549e-06
1.71285e-07
3.02101e-06
2.8761e-07
1.43775e-06
1.7255e-07
3.03164e-06
3.87309e-06
8.94217e-06
3.87029e-06
8.94255e-06
1.46345e-06
2.91219e-07
3.04485e-06
1.75085e-07
3.03722e-06
1.73811e-07
1.47676e-06
3.87404e-06
8.94016e-06
8.94202e-06
3.87418e-06
1.46344e-06
2.91325e-07
1.75096e-07
3.04494e-06
1.73829e-07
3.03725e-06
1.47677e-06
3.87395e-06
8.94014e-06
8.94198e-06
3.87419e-06
5.23546e-06
5.23403e-06
4.82228e-07
5.23774e-06
5.23631e-06
1.83667e-05
1.83599e-05
1.83501e-05
1.83568e-05
4.88921e-07
5.23991e-06
5.23847e-06
5.23885e-06
5.23747e-06
1.83476e-05
1.83543e-05
1.45493e-06
1.71305e-07
3.02144e-06
2.87588e-07
1.43779e-06
1.72567e-07
3.0321e-06
3.87313e-06
8.94244e-06
3.8705e-06
8.94285e-06
3.8731e-06
8.94282e-06
3.87048e-06
8.94321e-06
1.4635e-06
2.91242e-07
1.75101e-07
3.0449e-06
1.73837e-07
3.03721e-06
1.47684e-06
1.46348e-06
2.91301e-07
1.75113e-07
3.04539e-06
1.73849e-07
3.03766e-06
1.47679e-06
3.87404e-06
8.94043e-06
8.94228e-06
3.87419e-06
3.87402e-06
8.94079e-06
8.94264e-06
3.87417e-06
1.83676e-05
1.83608e-05
1.83697e-05
1.83627e-05
4.88967e-07
5.23833e-06
5.24001e-06
5.23729e-06
5.23896e-06
1.83486e-05
1.83552e-05
1.83505e-05
1.83572e-05
1.83413e-05
1.83345e-05
1.83441e-05
1.83372e-05
5.23883e-06
5.2406e-06
5.06622e-07
5.23855e-06
5.2403e-06
1.83218e-05
1.83289e-05
1.83245e-05
1.83317e-05
5.11845e-07
5.23678e-06
5.2385e-06
5.23868e-06