/*--------------------------------*- C++ -*----------------------------------*\
| =========                 |                                                 |
| \\      /  F ield         | OpenFOAM: The Open Source CFD Toolbox           |
|  \\    /   O peration     | Version:  2312                                  |
|   \\  /    A nd           | Website:  www.openfoam.com                      |
|    \\/     M anipulation  |                                                 |
\*---------------------------------------------------------------------------*/
FoamFile
{
    version     2.0;
    format      ascii;
    arch        "LSB;label=32;scalar=64";
    class       volScalarField;
    location    "125";
    object      epsilon;
}
// * * * * * * * * * * * * * * * * * * * * * * * * * * * * * * * * * * * * * //

dimensions      [0 2 -3 0 0 0 0];

internalField   nonuniform List<scalar> 
43208
(
1.23391e-07
3.13058e-07
3.13094e-07
5.27993e-07
1.23396e-07
3.13095e-07
3.13135e-07
5.28025e-07
1.23395e-07
3.13107e-07
3.13153e-07
5.27959e-07
1.23383e-07
3.13104e-07
3.13148e-07
5.27838e-07
1.23377e-07
3.13099e-07
3.13139e-07
5.27783e-07
1.23377e-07
3.13099e-07
3.13138e-07
5.27816e-07
1.23379e-07
3.13107e-07
3.13146e-07
5.27919e-07
1.23383e-07
3.13125e-07
3.1316e-07
5.28048e-07
1.23386e-07
3.13135e-07
3.13173e-07
5.28136e-07
1.23388e-07
3.1314e-07
3.13182e-07
5.28123e-07
1.2339e-07
3.13145e-07
3.13186e-07
5.28101e-07
1.23392e-07
3.13148e-07
3.1319e-07
5.28113e-07
1.23394e-07
3.1315e-07
3.13192e-07
5.28122e-07
1.23396e-07
3.13149e-07
3.13189e-07
5.28109e-07
1.23398e-07
3.13147e-07
3.13184e-07
5.28055e-07
1.234e-07
3.13139e-07
3.13176e-07
5.28055e-07
1.23401e-07
3.13118e-07
3.13157e-07
5.28107e-07
1.23403e-07
3.13082e-07
3.13123e-07
5.28086e-07
1.234e-07
3.12997e-07
3.13041e-07
5.28018e-07
1.2321e-07
3.12003e-07
3.12039e-07
5.27521e-07
1.33954e-07
2.77165e-07
2.77192e-07
4.85896e-07
5.26015e-07
3.13149e-07
3.13202e-07
5.26004e-07
3.13085e-07
3.13242e-07
3.13048e-07
3.13179e-07
5.26116e-07
3.13085e-07
3.1314e-07
5.26274e-07
5.27786e-07
5.25985e-07
3.13159e-07
3.13211e-07
3.13187e-07
3.13239e-07
5.27768e-07
5.25978e-07
3.13094e-07
3.1325e-07
3.13122e-07
3.13283e-07
3.13187e-07
3.13085e-07
3.13217e-07
5.27741e-07
5.26264e-07
3.13148e-07
3.13126e-07
3.13178e-07
5.26237e-07
5.27784e-07
5.25964e-07
3.13196e-07
3.13248e-07
3.13205e-07
3.13258e-07
5.27749e-07
5.25978e-07
3.13131e-07
3.13292e-07
3.13141e-07
3.13309e-07
3.13226e-07
3.13105e-07
3.1324e-07
5.27845e-07
5.26384e-07
3.13187e-07
3.13151e-07
3.13201e-07
5.26155e-07
5.27728e-07
5.25963e-07
3.13205e-07
3.13258e-07
3.13204e-07
3.13258e-07
5.27704e-07
5.26007e-07
3.13141e-07
3.13309e-07
3.13138e-07
3.13307e-07
3.1324e-07
3.13103e-07
3.13238e-07
5.27991e-07
5.26389e-07
3.13201e-07
3.13147e-07
3.13198e-07
5.26088e-07
5.27656e-07
5.26047e-07
3.13204e-07
3.13258e-07
3.13198e-07
3.13252e-07
5.27664e-07
5.26103e-07
3.13138e-07
3.13305e-07
3.13133e-07
3.13301e-07
3.13238e-07
3.13098e-07
3.13233e-07
5.28072e-07
5.26303e-07
3.13198e-07
3.13138e-07
3.13193e-07
5.26105e-07
5.27662e-07
5.26186e-07
3.13197e-07
3.13251e-07
3.13197e-07
3.13251e-07
5.27703e-07
5.26221e-07
3.13132e-07
3.13301e-07
3.13132e-07
3.13299e-07
3.13232e-07
3.13097e-07
3.13232e-07
5.28069e-07
5.26186e-07
3.13193e-07
3.13136e-07
3.13192e-07
5.26201e-07
5.27775e-07
5.26297e-07
3.13197e-07
3.13251e-07
3.13203e-07
3.13255e-07
5.27814e-07
5.26312e-07
3.13132e-07
3.13299e-07
3.13138e-07
3.13303e-07
3.13232e-07
3.13104e-07
3.13236e-07
5.27976e-07
5.26186e-07
3.13192e-07
3.13143e-07
3.13196e-07
5.26326e-07
5.27923e-07
5.26322e-07
3.13203e-07
3.13256e-07
3.13218e-07
3.13269e-07
5.27946e-07
5.26329e-07
3.13139e-07
3.13303e-07
3.13152e-07
3.13312e-07
3.13237e-07
3.1312e-07
3.13248e-07
5.27935e-07
5.26215e-07
3.13196e-07
3.13155e-07
3.13207e-07
5.26426e-07
5.28021e-07
5.26284e-07
3.13222e-07
3.13272e-07
3.13228e-07
3.13281e-07
5.28037e-07
5.26273e-07
3.13157e-07
3.13314e-07
3.13163e-07
3.13325e-07
3.1325e-07
3.13131e-07
3.13264e-07
5.27939e-07
5.26239e-07
3.13209e-07
3.13169e-07
3.13222e-07
5.26462e-07
5.28038e-07
5.26201e-07
3.13229e-07
3.13282e-07
3.13234e-07
3.13287e-07
5.28035e-07
5.26187e-07
3.13164e-07
3.13327e-07
3.13169e-07
3.13337e-07
3.13266e-07
3.13137e-07
3.1327e-07
5.2793e-07
5.26345e-07
3.13223e-07
3.13178e-07
3.13228e-07
5.26418e-07
5.2797e-07
5.26183e-07
3.13234e-07
3.13287e-07
3.13239e-07
3.13292e-07
5.27945e-07
5.26212e-07
3.13169e-07
3.13338e-07
3.13174e-07
3.13342e-07
3.1327e-07
3.13142e-07
3.13274e-07
5.28024e-07
5.26356e-07
3.13228e-07
3.13183e-07
3.13233e-07
5.26397e-07
5.2793e-07
5.26178e-07
3.13239e-07
3.13292e-07
3.13243e-07
3.13296e-07
5.27937e-07
5.26212e-07
3.13174e-07
3.13342e-07
3.13178e-07
3.13346e-07
3.13274e-07
3.13145e-07
3.13279e-07
5.28099e-07
5.26232e-07
3.13233e-07
3.13187e-07
3.13237e-07
5.26405e-07
5.27905e-07
5.2619e-07
3.13243e-07
3.13296e-07
3.13246e-07
3.133e-07
5.2793e-07
5.26207e-07
3.13178e-07
3.13346e-07
3.13181e-07
3.13349e-07
3.13279e-07
3.13148e-07
3.13282e-07
5.28004e-07
5.26168e-07
3.13237e-07
3.13189e-07
3.13241e-07
5.26401e-07
5.27891e-07
5.26234e-07
3.13246e-07
3.133e-07
3.13248e-07
3.13301e-07
5.27902e-07
5.26257e-07
3.13181e-07
3.13349e-07
3.13183e-07
3.13349e-07
3.13282e-07
3.13149e-07
3.13283e-07
5.27857e-07
5.26325e-07
3.13241e-07
3.13189e-07
3.13242e-07
5.26377e-07
5.27924e-07
5.26241e-07
3.13246e-07
3.133e-07
3.13249e-07
3.13302e-07
5.27942e-07
5.26269e-07
3.13182e-07
3.13348e-07
3.13184e-07
3.13349e-07
3.13281e-07
3.13151e-07
3.13282e-07
5.27921e-07
5.26477e-07
3.1324e-07
3.13188e-07
3.13241e-07
5.26338e-07
5.27936e-07
5.26237e-07
3.13244e-07
3.13296e-07
3.13243e-07
3.13296e-07
5.27966e-07
5.26264e-07
3.13179e-07
3.13342e-07
3.13178e-07
3.13342e-07
3.13277e-07
3.13146e-07
3.13277e-07
5.28083e-07
5.26511e-07
3.13235e-07
3.13182e-07
3.13235e-07
5.26385e-07
5.27917e-07
5.26241e-07
3.13234e-07
3.13286e-07
3.13228e-07
3.13281e-07
5.27949e-07
5.26271e-07
3.13168e-07
3.13332e-07
3.13163e-07
3.13328e-07
3.13267e-07
3.13131e-07
3.13263e-07
5.28188e-07
5.26451e-07
3.13225e-07
3.13169e-07
3.13221e-07
5.26444e-07
5.27897e-07
5.26274e-07
3.13213e-07
3.13266e-07
3.13199e-07
3.13254e-07
5.27932e-07
5.26293e-07
3.13148e-07
3.13314e-07
3.13135e-07
3.13302e-07
3.13248e-07
3.13103e-07
3.13235e-07
5.28195e-07
5.26343e-07
3.13206e-07
3.13143e-07
3.13194e-07
5.2643e-07
5.27905e-07
5.26275e-07
3.13174e-07
3.13229e-07
3.13138e-07
3.13204e-07
5.2794e-07
5.26268e-07
3.13111e-07
3.13278e-07
3.13085e-07
3.13251e-07
3.13213e-07
3.13052e-07
3.13184e-07
5.28114e-07
5.26226e-07
3.13171e-07
3.13096e-07
3.13147e-07
5.26419e-07
5.27891e-07
5.26072e-07
3.13092e-07
3.13145e-07
3.1308e-07
3.1313e-07
5.279e-07
5.26032e-07
3.13028e-07
3.13196e-07
3.1301e-07
3.1318e-07
3.13138e-07
3.12978e-07
3.1313e-07
5.27926e-07
5.26074e-07
3.13084e-07
3.1302e-07
3.1307e-07
5.26234e-07
5.27386e-07
5.03197e-07
3.12105e-07
3.12151e-07
2.87036e-07
2.87075e-07
5.27343e-07
5.03207e-07
3.12035e-07
3.12195e-07
2.87014e-07
2.87112e-07
3.12145e-07
2.8699e-07
2.87066e-07
5.27391e-07
5.03275e-07
3.12088e-07
2.87016e-07
2.87058e-07
5.033e-07
4.85773e-07
2.77195e-07
2.77232e-07
4.85795e-07
2.77179e-07
2.77265e-07
1.33958e-07
1.33969e-07
1.33971e-07
2.77229e-07
4.85859e-07
2.77232e-07
3.8437e-06
8.89343e-06
1.82741e-05
8.89461e-06
1.2339e-07
1.23391e-07
1.23409e-07
1.2341e-07
1.5076e-06
3.13032e-07
3.04367e-06
1.78632e-07
3.84372e-06
8.89315e-06
3.84379e-06
8.89337e-06
1.82718e-05
1.82739e-05
3.84378e-06
8.89434e-06
3.84385e-06
8.89455e-06
1.23392e-07
1.2341e-07
1.23411e-07
1.23395e-07
1.23396e-07
1.23414e-07
1.23414e-07
1.50762e-06
3.04421e-06
1.78641e-07
3.13067e-07
1.50802e-06
3.04378e-06
1.78648e-07
1.82735e-05
1.82754e-05
1.50771e-06
1.7868e-07
3.04422e-06
3.13104e-07
1.5081e-06
1.78684e-07
3.0438e-06
5.21387e-06
5.21556e-06
5.26181e-07
5.21368e-06
5.21538e-06
3.84374e-06
8.89309e-06
3.8438e-06
8.89331e-06
1.82716e-05
1.82737e-05
3.84379e-06
8.89428e-06
3.84386e-06
8.8945e-06
1.23397e-07
1.23415e-07
1.23416e-07
1.23396e-07
1.23398e-07
1.23417e-07
1.23416e-07
1.50766e-06
3.04429e-06
1.78658e-07
3.13101e-07
1.50807e-06
3.04384e-06
1.78664e-07
1.82733e-05
1.82752e-05
1.50773e-06
1.78698e-07
3.0443e-06
3.13143e-07
1.50814e-06
1.78701e-07
3.04385e-06
5.21387e-06
5.21556e-06
5.26333e-07
5.21369e-06
5.21539e-06
3.84376e-06
8.89306e-06
3.84383e-06
8.8933e-06
1.82715e-05
1.82737e-05
3.84382e-06
8.89423e-06
3.84388e-06
8.89446e-06
1.23397e-07
1.23416e-07
1.23416e-07
1.23386e-07
1.23389e-07
1.23409e-07
1.23407e-07
1.50756e-06
3.04433e-06
1.78662e-07
3.13105e-07
1.50808e-06
3.04386e-06
1.78663e-07
1.82731e-05
1.82751e-05
1.50774e-06
1.78706e-07
3.04433e-06
3.13149e-07
1.50816e-06
1.78703e-07
3.04388e-06
5.21387e-06
5.21557e-06
5.26426e-07
5.21369e-06
5.2154e-06
3.8438e-06
8.89309e-06
3.84385e-06
8.89335e-06
1.82715e-05
1.82737e-05
3.84384e-06
8.89424e-06
3.8439e-06
8.89451e-06
1.23386e-07
1.23405e-07
1.23404e-07
1.23378e-07
1.23381e-07
1.234e-07
1.234e-07
1.50755e-06
3.04439e-06
1.78652e-07
3.131e-07
1.50793e-06
3.04396e-06
1.78652e-07
1.82731e-05
1.82751e-05
1.50758e-06
1.78697e-07
3.04435e-06
3.13141e-07
1.50807e-06
1.78691e-07
3.04389e-06
5.21389e-06
5.21558e-06
5.26423e-07
5.21373e-06
5.21543e-06
3.84384e-06
8.8931e-06
3.84391e-06
8.89333e-06
1.82715e-05
1.82737e-05
3.8439e-06
8.89429e-06
3.84395e-06
8.89452e-06
1.23381e-07
1.23399e-07
1.23399e-07
1.23377e-07
1.2338e-07
1.23398e-07
1.23398e-07
1.50757e-06
3.04443e-06
1.78645e-07
3.13096e-07
1.50801e-06
3.04394e-06
1.78645e-07
1.82731e-05
1.82752e-05
1.50765e-06
1.78688e-07
3.04436e-06
3.13135e-07
1.50802e-06
1.78686e-07
3.0439e-06
5.21395e-06
5.21564e-06
5.26365e-07
5.21377e-06
5.21548e-06
3.8439e-06
8.89311e-06
3.84397e-06
8.89334e-06
1.82715e-05
1.82737e-05
3.84394e-06
8.89429e-06
3.844e-06
8.89453e-06
1.2338e-07
1.23398e-07
1.23398e-07
1.23378e-07
1.23382e-07
1.23399e-07
1.234e-07
1.50756e-06
3.04445e-06
1.78644e-07
3.13099e-07
1.50798e-06
3.04396e-06
1.78645e-07
1.82731e-05
1.82752e-05
1.50763e-06
1.78685e-07
3.0444e-06
3.13138e-07
1.50808e-06
1.78684e-07
3.04397e-06
5.21398e-06
5.21568e-06
5.26274e-07
5.21381e-06
5.21552e-06
3.84397e-06
8.8931e-06
3.84403e-06
8.89336e-06
1.82716e-05
1.82738e-05
3.844e-06
8.89429e-06
3.84405e-06
8.89453e-06
1.23383e-07
1.234e-07
1.234e-07
1.23382e-07
1.23386e-07
1.23402e-07
1.23402e-07
1.50765e-06
3.04444e-06
1.78647e-07
3.13108e-07
1.50804e-06
3.04397e-06
1.78649e-07
1.82732e-05
1.82752e-05
1.50761e-06
1.78685e-07
3.04443e-06
3.13146e-07
1.5081e-06
1.78685e-07
3.04398e-06
5.21402e-06
5.21572e-06
5.26196e-07
5.21385e-06
5.21556e-06
3.84402e-06
8.89314e-06
3.84408e-06
8.89339e-06
1.82717e-05
1.82739e-05
3.84405e-06
8.89432e-06
3.84412e-06
8.89458e-06
1.23387e-07
1.23403e-07
1.23404e-07
1.23385e-07
1.23389e-07
1.23406e-07
1.23406e-07
1.50764e-06
3.04445e-06
1.78652e-07
3.13123e-07
1.50805e-06
3.044e-06
1.78654e-07
1.82733e-05
1.82753e-05
1.50774e-06
1.78688e-07
3.04449e-06
3.13163e-07
1.50815e-06
1.78688e-07
3.04402e-06
5.21407e-06
5.21576e-06
5.2619e-07
5.21389e-06
5.2156e-06
3.84407e-06
8.8932e-06
3.84414e-06
8.89346e-06
1.82717e-05
1.8274e-05
3.8441e-06
8.89437e-06
3.84416e-06
8.89464e-06
1.2339e-07
1.23407e-07
1.23407e-07
1.23388e-07
1.23391e-07
1.23409e-07
1.23409e-07
1.50769e-06
3.04449e-06
1.78657e-07
3.13132e-07
1.50812e-06
3.04402e-06
1.78659e-07
1.82734e-05
1.82755e-05
1.50772e-06
1.78692e-07
3.04449e-06
3.13171e-07
1.50813e-06
1.78692e-07
3.04404e-06
5.21411e-06
5.2158e-06
5.26257e-07
5.21393e-06
5.21563e-06
3.8441e-06
8.89325e-06
3.84417e-06
8.89353e-06
1.82718e-05
1.82741e-05
3.84413e-06
8.89443e-06
3.84421e-06
8.8947e-06
1.23392e-07
1.23409e-07
1.2341e-07
1.2339e-07
1.23394e-07
1.23411e-07
1.23411e-07
1.50772e-06
3.0445e-06
1.78662e-07
3.13138e-07
1.50815e-06
3.04403e-06
1.78664e-07
1.82734e-05
1.82756e-05
1.50777e-06
1.78696e-07
3.04452e-06
3.13179e-07
1.5082e-06
1.78696e-07
3.04405e-06
5.21414e-06
5.21583e-06
5.26321e-07
5.21394e-06
5.21564e-06
3.84409e-06
8.89331e-06
3.84417e-06
8.8936e-06
1.82719e-05
1.82743e-05
3.84414e-06
8.89449e-06
3.84422e-06
8.89478e-06
1.23394e-07
1.23411e-07
1.23412e-07
1.23391e-07
1.23395e-07
1.23412e-07
1.23413e-07
1.50774e-06
3.04451e-06
1.78666e-07
3.13142e-07
1.50817e-06
3.04401e-06
1.78667e-07
1.82735e-05
1.82757e-05
1.50783e-06
1.787e-07
3.04453e-06
3.13184e-07
1.5082e-06
1.78699e-07
3.04406e-06
5.21416e-06
5.21586e-06
5.2634e-07
5.21392e-06
5.21563e-06
3.84407e-06
8.89337e-06
3.84416e-06
8.8937e-06
1.82719e-05
1.82745e-05
3.84413e-06
8.89454e-06
3.84422e-06
8.89488e-06
1.23396e-07
1.23413e-07
1.23413e-07
1.23392e-07
1.23396e-07
1.23414e-07
1.23414e-07
1.50775e-06
3.04452e-06
1.78669e-07
3.13146e-07
1.50819e-06
3.04398e-06
1.78669e-07
1.82735e-05
1.8276e-05
1.50782e-06
1.78704e-07
3.04453e-06
3.13188e-07
1.5082e-06
1.78702e-07
3.04402e-06
5.21418e-06
5.21587e-06
5.26354e-07
5.21388e-06
5.21559e-06
3.84403e-06
8.89343e-06
3.84413e-06
8.89383e-06
1.8272e-05
1.82749e-05
3.84409e-06
8.89461e-06
3.84419e-06
8.89502e-06
1.23397e-07
1.23415e-07
1.23415e-07
1.23393e-07
1.23397e-07
1.23414e-07
1.23414e-07
1.50775e-06
3.0445e-06
1.78672e-07
3.13148e-07
1.50819e-06
3.04391e-06
1.7867e-07
1.82736e-05
1.82764e-05
1.50782e-06
1.78706e-07
3.04452e-06
3.13189e-07
1.50823e-06
1.78704e-07
3.04395e-06
5.21419e-06
5.21589e-06
5.26371e-07
5.2138e-06
5.21551e-06
3.84399e-06
8.8935e-06
3.8441e-06
8.89405e-06
1.8272e-05
1.82755e-05
3.84405e-06
8.89469e-06
3.84416e-06
8.89524e-06
1.23399e-07
1.23416e-07
1.23416e-07
1.23394e-07
1.23398e-07
1.23415e-07
1.23415e-07
1.50776e-06
3.04448e-06
1.78673e-07
3.13148e-07
1.50819e-06
3.04379e-06
1.78671e-07
1.82736e-05
1.8277e-05
1.50782e-06
1.78708e-07
3.0445e-06
3.13187e-07
1.50825e-06
1.78704e-07
3.04382e-06
5.21422e-06
5.21592e-06
5.2641e-07
5.21365e-06
5.21537e-06
3.84395e-06
8.89362e-06
3.84407e-06
8.89444e-06
1.82719e-05
1.82765e-05
3.84401e-06
8.89481e-06
3.84412e-06
8.89563e-06
1.23401e-07
1.23418e-07
1.23418e-07
1.23395e-07
1.23399e-07
1.23415e-07
1.23415e-07
1.50776e-06
3.04448e-06
1.78674e-07
3.13147e-07
1.5082e-06
3.0436e-06
1.78671e-07
1.82735e-05
1.8278e-05
1.50781e-06
1.78708e-07
3.0445e-06
3.13184e-07
1.50826e-06
1.78703e-07
3.04363e-06
5.21426e-06
5.21596e-06
5.2643e-07
5.21343e-06
5.21513e-06
3.84392e-06
8.89381e-06
3.84405e-06
8.89512e-06
1.82718e-05
1.82781e-05
3.84398e-06
8.895e-06
3.8441e-06
8.89631e-06
1.23403e-07
1.2342e-07
1.2342e-07
1.23394e-07
1.23398e-07
1.23415e-07
1.23415e-07
1.50775e-06
3.04453e-06
1.78673e-07
3.13139e-07
1.50821e-06
3.04328e-06
1.78667e-07
1.82734e-05
1.82796e-05
1.50779e-06
1.78706e-07
3.04455e-06
3.13176e-07
1.50826e-06
1.78699e-07
3.04331e-06
5.21441e-06
5.21611e-06
5.26368e-07
5.2134e-06
5.21511e-06
3.84395e-06
8.89408e-06
3.84406e-06
8.89626e-06
1.82715e-05
1.82802e-05
3.84401e-06
8.89527e-06
3.84411e-06
8.89744e-06
1.23405e-07
1.23422e-07
1.23422e-07
1.23393e-07
1.23397e-07
1.23414e-07
1.23415e-07
1.50768e-06
3.04468e-06
1.78666e-07
3.13118e-07
1.50825e-06
3.04272e-06
1.78657e-07
1.8273e-05
1.82816e-05
1.50773e-06
1.78697e-07
3.0447e-06
3.13157e-07
1.5083e-06
1.78688e-07
3.04275e-06
5.21529e-06
5.21699e-06
5.26359e-07
5.21387e-06
5.21557e-06
3.84411e-06
8.8942e-06
3.84418e-06
8.89764e-06
1.82702e-05
1.82825e-05
3.84416e-06
8.89539e-06
3.84423e-06
8.89883e-06
1.23407e-07
1.23424e-07
1.23425e-07
1.23388e-07
1.23392e-07
1.2341e-07
1.2341e-07
1.50753e-06
3.04514e-06
1.78651e-07
3.13081e-07
1.50837e-06
3.04209e-06
1.78637e-07
1.82715e-05
1.82836e-05
1.50759e-06
1.78683e-07
3.04516e-06
3.13123e-07
1.50842e-06
1.78668e-07
3.04213e-06
5.21673e-06
5.21841e-06
5.26381e-07
5.21472e-06
5.21642e-06
3.84441e-06
8.89304e-06
3.84444e-06
8.89881e-06
1.8267e-05
1.82837e-05
3.84438e-06
8.89422e-06
3.84447e-06
8.90004e-06
1.23404e-07
1.23421e-07
1.23422e-07
1.23399e-07
1.23404e-07
1.2342e-07
1.23422e-07
1.50711e-06
3.04703e-06
1.78621e-07
3.13008e-07
1.50864e-06
3.0415e-06
1.78611e-07
1.82679e-05
1.82846e-05
1.50716e-06
1.78651e-07
3.04709e-06
3.13057e-07
1.50868e-06
1.78643e-07
3.04161e-06
5.21888e-06
5.22057e-06
5.26359e-07
5.21661e-06
5.21829e-06
3.83742e-06
8.88871e-06
3.84402e-06
8.89425e-06
1.82587e-05
1.82741e-05
3.83739e-06
8.88998e-06
3.84396e-06
8.8955e-06
1.23214e-07
1.23229e-07
1.2323e-07
1.31386e-07
1.31389e-07
1.31401e-07
1.31402e-07
1.49995e-06
3.04998e-06
1.7817e-07
3.13332e-07
1.50804e-06
3.0326e-06
1.78714e-07
1.82592e-05
1.82745e-05
1.49998e-06
1.78195e-07
3.05002e-06
3.1337e-07
1.50808e-06
1.78736e-07
3.0326e-06
5.22223e-06
5.22389e-06
5.23095e-07
5.21586e-06
5.21762e-06
3.0259e-06
8.08003e-06
3.77438e-06
5.10402e-06
1.60988e-05
7.97899e-06
3.02596e-06
8.08088e-06
3.77441e-06
5.10415e-06
7.64e-08
9.33146e-08
9.33129e-08
1.38675e-07
7.66507e-08
9.43002e-08
9.42994e-08
1.38893e-06
2.92956e-06
1.58392e-07
2.57597e-07
1.46083e-06
2.98322e-06
1.47962e-07
1.60994e-05
7.97962e-06
1.389e-06
1.5841e-07
2.92959e-06
2.57626e-07
1.46084e-06
1.47978e-07
2.98334e-06
5.11128e-06
5.11312e-06
4.46452e-07
4.67932e-06
4.68004e-06
1.82723e-05
1.82752e-05
5.26107e-07
5.2136e-06
5.21542e-06
1.82722e-05
1.82702e-05
1.82751e-05
1.82731e-05
5.27738e-07
5.2136e-06
5.21541e-06
5.21379e-06
5.21558e-06
3.84365e-06
8.89337e-06
1.50759e-06
3.13134e-07
3.04357e-06
1.78655e-07
1.50756e-06
3.13187e-07
3.04394e-06
1.78668e-07
3.84378e-06
8.8934e-06
8.89318e-06
3.84371e-06
3.84373e-06
8.89334e-06
8.89313e-06
3.84366e-06
1.50801e-06
3.13141e-07
3.04363e-06
1.78662e-07
3.04405e-06
1.78659e-07
1.50761e-06
1.50798e-06
3.13194e-07
3.044e-06
1.78675e-07
3.04445e-06
1.78671e-07
1.50758e-06
5.26136e-07
5.21493e-06
5.21381e-06
1.82733e-05
1.8274e-05
1.82719e-05
5.2777e-07
5.21492e-06
5.2138e-06
5.21518e-06
5.21398e-06
1.82731e-05
1.82711e-05
3.13069e-07
3.04406e-06
3.84384e-06
8.89458e-06
8.89436e-06
3.84377e-06
1.50815e-06
3.13076e-07
3.04411e-06
1.78677e-07
3.04451e-06
1.78673e-07
1.50766e-06
3.8438e-06
8.89422e-06
8.894e-06
3.84373e-06
1.50814e-06
3.13235e-07
1.78701e-07
3.04419e-06
1.78698e-07
3.04461e-06
1.50764e-06
3.84401e-06
8.89396e-06
1.50765e-06
1.78661e-07
3.84377e-06
1.50801e-06
3.13039e-07
3.04372e-06
1.7864e-07
3.04414e-06
1.78633e-07
1.50758e-06
3.84412e-06
8.89392e-06
8.8937e-06
3.84389e-06
1.50805e-06
3.13172e-07
1.78668e-07
3.04382e-06
1.78664e-07
3.04426e-06
1.50763e-06
3.84385e-06
8.89387e-06
8.89365e-06
3.84377e-06
1.82755e-05
1.82736e-05
5.28057e-07
5.21524e-06
5.2138e-06
5.21544e-06
5.21405e-06
1.82731e-05
1.82711e-05
1.50818e-06
3.13078e-07
1.78676e-07
3.04374e-06
1.78673e-07
3.04417e-06
1.50767e-06
1.50812e-06
3.13133e-07
1.78685e-07
3.04423e-06
1.78682e-07
3.04467e-06
1.50762e-06
3.84421e-06
8.89412e-06
8.89391e-06
3.84395e-06
3.84425e-06
8.89446e-06
8.89425e-06
3.84391e-06
5.27934e-07
5.21369e-06
5.21539e-06
5.21392e-06
5.2156e-06
1.82741e-05
1.82721e-05
1.8276e-05
1.82741e-05
1.82701e-05
1.82721e-05
1.8273e-05
1.8275e-05
5.21379e-06
5.21557e-06
5.26174e-07
5.2136e-06
5.21541e-06
1.8272e-05
1.827e-05
1.82749e-05
1.82729e-05
5.27799e-07
5.21361e-06
5.21542e-06
5.2138e-06
5.21558e-06
3.84367e-06
8.89309e-06
3.84374e-06
8.89331e-06
1.50762e-06
3.0441e-06
1.78666e-07
3.13168e-07
1.50803e-06
3.04368e-06
1.7867e-07
1.50759e-06
3.04451e-06
1.78678e-07
3.13221e-07
1.508e-06
3.04404e-06
1.78682e-07
3.8438e-06
8.89334e-06
8.89312e-06
3.84372e-06
3.84375e-06
8.89329e-06
8.89306e-06
3.84367e-06
1.50805e-06
3.13178e-07
3.04372e-06
1.78679e-07
3.04415e-06
1.78675e-07
1.50766e-06
1.50802e-06
3.1323e-07
3.04409e-06
1.78691e-07
3.04455e-06
1.78687e-07
1.50763e-06
5.21518e-06
5.21397e-06
5.26201e-07
5.21493e-06
5.21381e-06
1.8271e-05
1.8273e-05
1.82738e-05
1.82717e-05
5.27844e-07
5.21493e-06
5.21381e-06
5.21518e-06
5.21398e-06
1.82729e-05
1.82709e-05
1.50768e-06
3.04456e-06
1.7868e-07
3.13104e-07
1.50809e-06
3.04417e-06
1.78684e-07
3.84374e-06
8.89397e-06
3.84381e-06
8.89418e-06
1.50766e-06
1.78705e-07
3.04465e-06
3.13261e-07
1.50806e-06
1.78709e-07
3.04424e-06
3.84385e-06
8.89452e-06
8.8943e-06
3.84378e-06
1.50812e-06
3.13113e-07
3.04421e-06
1.78693e-07
3.04462e-06
1.78689e-07
1.50771e-06
3.84382e-06
8.89414e-06
8.89393e-06
3.84374e-06
1.5081e-06
3.13274e-07
1.78718e-07
3.04427e-06
1.78713e-07
3.0447e-06
1.50769e-06
3.84383e-06
8.89367e-06
3.84402e-06
8.89389e-06
1.50767e-06
1.78671e-07
3.04429e-06
3.13197e-07
1.50806e-06
1.78675e-07
3.04386e-06
3.84377e-06
8.89362e-06
3.84385e-06
8.89383e-06
1.50805e-06
3.13076e-07
3.04382e-06
1.78658e-07
3.04425e-06
1.7865e-07
1.50764e-06
3.84397e-06
8.89386e-06
8.89364e-06
3.84381e-06
1.50809e-06
3.13207e-07
1.78684e-07
3.0439e-06
1.7868e-07
3.04433e-06
1.50769e-06
3.84385e-06
8.8938e-06
8.89358e-06
3.84377e-06
5.21541e-06
5.21398e-06
5.26168e-07
5.21523e-06
5.2138e-06
1.8271e-05
1.82729e-05
1.82753e-05
1.82734e-05
5.27988e-07
5.21522e-06
5.21379e-06
5.2154e-06
5.21398e-06
1.82728e-05
1.82709e-05
1.50764e-06
1.78688e-07
3.04469e-06
3.13158e-07
1.50805e-06
1.78692e-07
3.04428e-06
3.84387e-06
8.89387e-06
3.84408e-06
8.89409e-06
3.84382e-06
8.89421e-06
3.8441e-06
8.89443e-06
1.50813e-06
3.13117e-07
1.78693e-07
3.04383e-06
1.78689e-07
3.04426e-06
1.50771e-06
1.50808e-06
3.13168e-07
1.787e-07
3.04432e-06
1.78696e-07
3.04474e-06
1.50766e-06
3.844e-06
8.89405e-06
8.89384e-06
3.84383e-06
3.84402e-06
8.8944e-06
8.89418e-06
3.84378e-06
1.8272e-05
1.82739e-05
1.8274e-05
1.82759e-05
5.27831e-07
5.21369e-06
5.21539e-06
5.21386e-06
5.21555e-06
1.82738e-05
1.82719e-05
1.82758e-05
1.82739e-05
1.82699e-05
1.82719e-05
1.82728e-05
1.82748e-05
5.2138e-06
5.21559e-06
5.26286e-07
5.21361e-06
5.21542e-06
1.82718e-05
1.82698e-05
1.82747e-05
1.82727e-05
5.27907e-07
5.21361e-06
5.21543e-06
5.2138e-06
5.21559e-06
3.84369e-06
8.89304e-06
3.84375e-06
8.89326e-06
1.50767e-06
3.04419e-06
1.78682e-07
3.13202e-07
1.50809e-06
3.04374e-06
1.78686e-07
1.50764e-06
3.04459e-06
1.78694e-07
3.13255e-07
1.50806e-06
3.04411e-06
1.78698e-07
3.84382e-06
8.8933e-06
8.89307e-06
3.84375e-06
3.84377e-06
8.89326e-06
8.89302e-06
3.84369e-06
1.50809e-06
3.13205e-07
3.04377e-06
1.78688e-07
3.0442e-06
1.78687e-07
1.50769e-06
1.50806e-06
3.13257e-07
3.04414e-06
1.787e-07
3.04461e-06
1.78699e-07
1.50766e-06
5.21519e-06
5.21398e-06
5.26303e-07
5.21494e-06
5.21381e-06
1.82708e-05
1.82728e-05
1.82737e-05
1.82715e-05
5.2796e-07
5.21495e-06
5.21381e-06
5.2152e-06
5.21398e-06
1.82728e-05
1.82708e-05
1.50772e-06
3.04465e-06
1.78698e-07
3.13137e-07
1.50814e-06
3.04424e-06
1.78702e-07
3.84375e-06
8.8939e-06
3.84382e-06
8.89411e-06
1.5077e-06
1.78723e-07
3.04472e-06
3.13302e-07
1.50812e-06
1.78727e-07
3.04429e-06
3.84387e-06
8.89448e-06
8.89425e-06
3.8438e-06
1.50815e-06
3.1314e-07
3.04425e-06
1.78705e-07
3.04468e-06
1.78704e-07
1.50773e-06
3.84383e-06
8.89409e-06
8.89386e-06
3.84376e-06
1.50813e-06
3.13309e-07
1.78731e-07
3.0443e-06
1.7873e-07
3.04474e-06
1.50771e-06
3.8438e-06
8.89361e-06
3.84396e-06
8.89384e-06
1.50771e-06
1.78688e-07
3.04437e-06
3.13233e-07
1.50811e-06
1.78691e-07
3.04392e-06
3.84377e-06
8.89355e-06
3.84386e-06
8.89377e-06
1.50809e-06
3.13104e-07
3.04386e-06
1.78667e-07
3.0443e-06
1.78663e-07
1.50766e-06
3.84395e-06
8.89382e-06
8.89359e-06
3.84381e-06
1.50813e-06
3.13239e-07
1.78693e-07
3.04394e-06
1.78693e-07
3.04439e-06
1.50773e-06
3.84386e-06
8.89375e-06
8.89352e-06
3.84378e-06
5.21539e-06
5.21397e-06
5.26117e-07
5.21521e-06
5.21378e-06
1.82708e-05
1.82728e-05
1.82752e-05
1.82732e-05
5.27945e-07
5.21521e-06
5.21379e-06
5.21539e-06
5.21397e-06
1.82727e-05
1.82707e-05
1.50767e-06
1.78704e-07
3.04477e-06
3.13194e-07
1.50809e-06
1.78707e-07
3.04435e-06
3.84382e-06
8.8938e-06
3.84397e-06
8.89402e-06
3.84377e-06
8.89415e-06
3.844e-06
8.89437e-06
1.50815e-06
3.1315e-07
1.78704e-07
3.04387e-06
1.78704e-07
3.04431e-06
1.50773e-06
1.5081e-06
3.132e-07
1.7871e-07
3.04437e-06
1.7871e-07
3.0448e-06
1.50767e-06
3.84396e-06
8.894e-06
8.89377e-06
3.84382e-06
3.84399e-06
8.89435e-06
8.89413e-06
3.84378e-06
1.82718e-05
1.82738e-05
1.82738e-05
1.82758e-05
5.27927e-07
5.21369e-06
5.2154e-06
5.21387e-06
5.21556e-06
1.82737e-05
1.82717e-05
1.82757e-05
1.82737e-05
1.82698e-05
1.82718e-05
1.82727e-05
1.82747e-05
5.21381e-06
5.2156e-06
5.26314e-07
5.21362e-06
5.21543e-06
1.82718e-05
1.82698e-05
1.82747e-05
1.82727e-05
5.2798e-07
5.21365e-06
5.21545e-06
5.21382e-06
5.2156e-06
3.84371e-06
8.89303e-06
3.84378e-06
8.89328e-06
1.50767e-06
3.04423e-06
1.78688e-07
3.13206e-07
1.50812e-06
3.04377e-06
1.78686e-07
1.50764e-06
3.04465e-06
1.787e-07
3.13259e-07
1.50809e-06
3.04418e-06
1.78698e-07
3.84384e-06
8.89332e-06
8.89306e-06
3.84376e-06
3.84379e-06
8.89331e-06
8.89305e-06
3.84372e-06
1.50806e-06
3.13207e-07
3.04382e-06
1.7868e-07
3.04423e-06
1.78685e-07
1.50754e-06
1.50803e-06
3.13261e-07
3.04426e-06
1.78693e-07
3.04469e-06
1.78697e-07
1.50751e-06
5.21521e-06
5.21399e-06
5.2631e-07
5.21497e-06
5.21382e-06
1.82707e-05
1.82728e-05
1.82737e-05
1.82715e-05
5.28018e-07
5.215e-06
5.21384e-06
5.21524e-06
5.214e-06
1.82728e-05
1.82707e-05
1.50774e-06
3.04469e-06
1.78705e-07
3.13141e-07
1.50816e-06
3.04426e-06
1.78705e-07
3.84378e-06
8.89384e-06
3.84384e-06
8.89407e-06
1.50772e-06
1.78731e-07
3.04475e-06
3.13309e-07
1.50814e-06
1.7873e-07
3.04431e-06
3.8439e-06
8.89448e-06
8.89422e-06
3.84382e-06
1.50817e-06
3.13142e-07
3.04428e-06
1.787e-07
3.0447e-06
1.78704e-07
1.50772e-06
3.84386e-06
8.89407e-06
8.89383e-06
3.84378e-06
1.50815e-06
3.1331e-07
1.78726e-07
3.04432e-06
1.7873e-07
3.04476e-06
1.5077e-06
3.84382e-06
8.89357e-06
3.84396e-06
8.89381e-06
1.50766e-06
1.78693e-07
3.04441e-06
3.1324e-07
1.50814e-06
1.78691e-07
3.04395e-06
3.84379e-06
8.8935e-06
3.84386e-06
8.89373e-06
1.50795e-06
3.13106e-07
3.0439e-06
1.78658e-07
3.04432e-06
1.78656e-07
1.5075e-06
3.84397e-06
8.89383e-06
8.89357e-06
3.84385e-06
1.50804e-06
3.13241e-07
1.78685e-07
3.04396e-06
1.7869e-07
3.04441e-06
1.50756e-06
3.84387e-06
8.89374e-06
8.89349e-06
3.8438e-06
5.21539e-06
5.21397e-06
5.26057e-07
5.21521e-06
5.21379e-06
1.82706e-05
1.82726e-05
1.82751e-05
1.82731e-05
5.27815e-07
5.21523e-06
5.2138e-06
5.21539e-06
5.21397e-06
1.82726e-05
1.82706e-05
1.50769e-06
1.7871e-07
3.04482e-06
3.13201e-07
1.50811e-06
1.7871e-07
3.04438e-06
3.84384e-06
8.89375e-06
3.84398e-06
8.89398e-06
3.84379e-06
8.89411e-06
3.844e-06
8.89434e-06
1.50816e-06
3.13151e-07
1.78698e-07
3.04389e-06
1.78703e-07
3.04433e-06
1.50767e-06
1.50811e-06
3.13202e-07
1.78704e-07
3.04439e-06
1.78709e-07
3.04483e-06
1.50761e-06
3.84399e-06
8.89396e-06
8.89373e-06
3.84385e-06
3.84401e-06
8.89433e-06
8.89409e-06
3.8438e-06
1.82716e-05
1.82737e-05
1.82736e-05
1.82756e-05
5.28035e-07
5.2137e-06
5.2154e-06
5.21387e-06
5.21557e-06
1.82737e-05
1.82716e-05
1.82756e-05
1.82736e-05
1.82698e-05
1.82719e-05
1.82727e-05
1.82747e-05
5.21385e-06
5.21562e-06
5.26252e-07
5.21367e-06
5.21548e-06
1.82719e-05
1.82698e-05
1.82748e-05
1.82727e-05
5.28003e-07
5.21369e-06
5.2155e-06
5.21387e-06
5.21565e-06
3.84375e-06
8.89308e-06
3.8438e-06
8.89331e-06
1.50753e-06
3.04429e-06
1.78678e-07
3.13202e-07
1.50794e-06
3.04389e-06
1.78675e-07
1.5075e-06
3.04477e-06
1.78691e-07
3.13255e-07
1.50792e-06
3.04428e-06
1.78687e-07
3.84388e-06
8.89334e-06
8.89311e-06
3.84383e-06
3.84384e-06
8.89328e-06
8.89306e-06
3.84378e-06
1.50797e-06
3.13202e-07
3.04388e-06
1.78672e-07
3.04435e-06
1.78675e-07
1.5076e-06
1.50794e-06
3.13256e-07
3.04422e-06
1.78685e-07
3.04475e-06
1.78687e-07
1.50756e-06
5.21526e-06
5.21402e-06
5.26217e-07
5.21501e-06
5.21387e-06
1.82707e-05
1.82728e-05
1.82737e-05
1.82715e-05
5.27995e-07
5.21502e-06
5.21389e-06
5.21527e-06
5.21405e-06
1.82728e-05
1.82707e-05
1.50761e-06
3.04472e-06
1.78697e-07
3.13136e-07
1.50813e-06
3.04433e-06
1.78693e-07
3.84379e-06
8.89384e-06
3.84386e-06
8.89409e-06
1.50759e-06
1.78723e-07
3.04477e-06
3.13303e-07
1.50811e-06
1.78719e-07
3.04436e-06
3.84392e-06
8.89453e-06
8.89427e-06
3.84386e-06
1.50802e-06
3.13136e-07
3.04438e-06
1.7869e-07
3.04478e-06
1.78693e-07
1.50757e-06
3.84388e-06
8.89413e-06
8.89386e-06
3.84382e-06
1.508e-06
3.13303e-07
1.78716e-07
3.04442e-06
1.78718e-07
3.04481e-06
1.50754e-06
3.84388e-06
8.89359e-06
3.84401e-06
8.89385e-06
1.50758e-06
1.78683e-07
3.04443e-06
3.13235e-07
1.50797e-06
1.7868e-07
3.04401e-06
3.84384e-06
8.8935e-06
3.84389e-06
8.89377e-06
1.50798e-06
3.13101e-07
3.04397e-06
1.78649e-07
3.04443e-06
1.78647e-07
1.50758e-06
3.84404e-06
8.89385e-06
8.89361e-06
3.84391e-06
1.50801e-06
3.13235e-07
1.78678e-07
3.04408e-06
1.7868e-07
3.04449e-06
1.50763e-06
3.84393e-06
8.89379e-06
8.89353e-06
3.84386e-06
5.21541e-06
5.21398e-06
5.26071e-07
5.21525e-06
5.21381e-06
1.82705e-05
1.82726e-05
1.82752e-05
1.82731e-05
5.27747e-07
5.21528e-06
5.21382e-06
5.21543e-06
5.21399e-06
1.82726e-05
1.82705e-05
1.50752e-06
1.78702e-07
3.04483e-06
3.13195e-07
1.508e-06
1.78698e-07
3.04441e-06
3.84388e-06
8.89372e-06
3.844e-06
8.89394e-06
3.84384e-06
8.8941e-06
3.84403e-06
8.89435e-06
1.508e-06
3.13142e-07
1.78688e-07
3.0439e-06
1.78691e-07
3.04434e-06
1.50758e-06
1.50795e-06
3.13195e-07
1.78695e-07
3.04448e-06
1.78697e-07
3.04487e-06
1.50752e-06
3.84403e-06
8.89394e-06
8.89371e-06
3.84391e-06
3.84406e-06
8.89439e-06
8.89412e-06
3.84387e-06
1.82716e-05
1.82737e-05
1.82736e-05
1.82756e-05
5.28102e-07
5.21375e-06
5.21545e-06
5.21391e-06
5.2156e-06
1.82737e-05
1.82716e-05
1.82757e-05
1.82736e-05
1.82698e-05
1.82719e-05
1.82727e-05
1.82748e-05
5.21388e-06
5.21567e-06
5.26134e-07
5.2137e-06
5.21552e-06
1.82719e-05
1.82698e-05
1.82748e-05
1.82727e-05
5.27945e-07
5.21373e-06
5.21554e-06
5.2139e-06
5.21569e-06
3.8438e-06
8.89303e-06
3.84386e-06
8.89327e-06
1.50763e-06
3.04432e-06
1.78671e-07
3.13197e-07
1.50803e-06
3.04384e-06
1.7867e-07
1.5076e-06
3.04471e-06
1.78684e-07
3.1325e-07
1.50801e-06
3.04423e-06
1.78683e-07
3.84393e-06
8.89334e-06
8.89309e-06
3.84388e-06
3.84388e-06
8.89328e-06
8.89304e-06
3.84383e-06
1.50804e-06
3.13198e-07
3.04389e-06
1.78669e-07
3.04431e-06
1.7867e-07
1.50757e-06
1.50801e-06
3.13252e-07
3.04425e-06
1.78682e-07
3.04474e-06
1.78683e-07
1.50754e-06
5.21528e-06
5.21406e-06
5.26108e-07
5.21504e-06
5.21391e-06
1.82707e-05
1.82728e-05
1.82737e-05
1.82715e-05
5.27924e-07
5.21506e-06
5.21393e-06
5.2153e-06
5.21408e-06
1.82728e-05
1.82707e-05
1.50763e-06
3.04482e-06
1.78689e-07
3.13132e-07
1.508e-06
3.04436e-06
1.78689e-07
3.84386e-06
8.89389e-06
3.84391e-06
8.89414e-06
1.5076e-06
1.78715e-07
3.04487e-06
3.13299e-07
1.50798e-06
1.78714e-07
3.04444e-06
3.84398e-06