/*--------------------------------*- C++ -*----------------------------------*\
| =========                 |                                                 |
| \\      /  F ield         | OpenFOAM: The Open Source CFD Toolbox           |
|  \\    /   O peration     | Version:  2312                                  |
|   \\  /    A nd           | Website:  www.openfoam.com                      |
|    \\/     M anipulation  |                                                 |
\*---------------------------------------------------------------------------*/
FoamFile
{
    version     2.0;
    format      ascii;
    arch        "LSB;label=32;scalar=64";
    class       volScalarField;
    location    "125";
    object      k;
}
// * * * * * * * * * * * * * * * * * * * * * * * * * * * * * * * * * * * * * //

dimensions      [0 2 -2 0 0 0 0];

internalField   nonuniform List<scalar> 
42840
(
1.46137e-05
1.62911e-05
1.62914e-05
1.87278e-05
1.43359e-05
1.65181e-05
1.65185e-05
1.94259e-05
1.41052e-05
1.68293e-05
1.68298e-05
2.021e-05
1.39195e-05
1.72152e-05
1.72158e-05
2.10526e-05
1.37538e-05
1.7628e-05
1.76289e-05
2.18905e-05
1.365e-05
1.80526e-05
1.80533e-05
2.26101e-05
1.34856e-05
1.8245e-05
1.82464e-05
2.29616e-05
1.32361e-05
1.82065e-05
1.82083e-05
2.30178e-05
1.3085e-05
1.81789e-05
1.81811e-05
2.2997e-05
1.30544e-05
1.82008e-05
1.82032e-05
2.30279e-05
1.30622e-05
1.82354e-05
1.82378e-05
2.30555e-05
1.3072e-05
1.82506e-05
1.8253e-05
2.30721e-05
1.30754e-05
1.82548e-05
1.82572e-05
2.30742e-05
1.30765e-05
1.8256e-05
1.82584e-05
2.30735e-05
1.30769e-05
1.82568e-05
1.82591e-05
2.30751e-05
1.30771e-05
1.82569e-05
1.82592e-05
2.30754e-05
1.30773e-05
1.82569e-05
1.82592e-05
2.30737e-05
1.30774e-05
1.82569e-05
1.82593e-05
2.30751e-05
1.30775e-05
1.8257e-05
1.82595e-05
2.30781e-05
1.30776e-05
1.82569e-05
1.82595e-05
2.3074e-05
1.30776e-05
1.82569e-05
1.82595e-05
2.30756e-05
1.30777e-05
1.82569e-05
1.82595e-05
2.30761e-05
1.30778e-05
1.8257e-05
1.82596e-05
2.30803e-05
1.30778e-05
1.8257e-05
1.82596e-05
2.30757e-05
1.30777e-05
1.82566e-05
1.82592e-05
2.30673e-05
1.87269e-05
1.92737e-05
1.62911e-05
1.62915e-05
1.64539e-05
1.64543e-05
1.87269e-05
1.92738e-05
1.62913e-05
1.62918e-05
1.6454e-05
1.64548e-05
1.62915e-05
1.64537e-05
1.64544e-05
1.87273e-05
1.92743e-05
1.6292e-05
1.64541e-05
1.64548e-05
1.9275e-05
1.94248e-05
2.00402e-05
1.65183e-05
1.65187e-05
1.67432e-05
1.67437e-05
1.94248e-05
2.00403e-05
1.65184e-05
1.65192e-05
1.67432e-05
1.67442e-05
1.65188e-05
1.67428e-05
1.67438e-05
1.94253e-05
2.00409e-05
1.65192e-05
1.67433e-05
1.67441e-05
2.00417e-05
2.02086e-05
2.08722e-05
1.68297e-05
1.68302e-05
1.71161e-05
1.71166e-05
2.02086e-05
2.08724e-05
1.68296e-05
1.68308e-05
1.71159e-05
1.71173e-05
1.68304e-05
1.71156e-05
1.71169e-05
2.02093e-05
2.08731e-05
1.68306e-05
1.71162e-05
1.7117e-05
2.0874e-05
2.1051e-05
2.17128e-05
1.72158e-05
1.72163e-05
1.7522e-05
1.75226e-05
2.10511e-05
2.17129e-05
1.72155e-05
1.7217e-05
1.75216e-05
1.75235e-05
1.72166e-05
1.75213e-05
1.7523e-05
2.10519e-05
2.17139e-05
1.72166e-05
1.75221e-05
1.75229e-05
2.17148e-05
2.18887e-05
2.24638e-05
1.76288e-05
1.76294e-05
1.79568e-05
1.79573e-05
2.18887e-05
2.24641e-05
1.76283e-05
1.76303e-05
1.79561e-05
1.79581e-05
1.76298e-05
1.79559e-05
1.79578e-05
2.18897e-05
2.24649e-05
1.76296e-05
1.79566e-05
1.79574e-05
2.2466e-05
2.2608e-05
2.28905e-05
1.80535e-05
1.8054e-05
1.82283e-05
1.82287e-05
2.26082e-05
2.28904e-05
1.80527e-05
1.80549e-05
1.82274e-05
1.82299e-05
1.80546e-05
1.8227e-05
1.82296e-05
2.2609e-05
2.28919e-05
1.8054e-05
1.82283e-05
1.82288e-05
2.28928e-05
2.29593e-05
2.29817e-05
1.82463e-05
1.82468e-05
1.82331e-05
1.82335e-05
2.29591e-05
2.29815e-05
1.82455e-05
1.8248e-05
1.82323e-05
1.82349e-05
1.82477e-05
1.82317e-05
1.82346e-05
2.29607e-05
2.29835e-05
1.82469e-05
1.82334e-05
1.82338e-05
2.29841e-05
2.30154e-05
2.29579e-05
1.82079e-05
1.82084e-05
1.81812e-05
1.81817e-05
2.30151e-05
2.29578e-05
1.82071e-05
1.82099e-05
1.81804e-05
1.81835e-05
1.82095e-05
1.81796e-05
1.8183e-05
2.30172e-05
2.29601e-05
1.82087e-05
1.81817e-05
1.81822e-05
2.2961e-05
2.2994e-05
2.29844e-05
1.81805e-05
1.81811e-05
1.81905e-05
1.8191e-05
2.29937e-05
2.29841e-05
1.81797e-05
1.81828e-05
1.81896e-05
1.81929e-05
1.81824e-05
1.81887e-05
1.81923e-05
2.29962e-05
2.29867e-05
1.81815e-05
1.81911e-05
1.81915e-05
2.29874e-05
2.30249e-05
2.30146e-05
1.82024e-05
1.8203e-05
1.82306e-05
1.82311e-05
2.30246e-05
2.30143e-05
1.82016e-05
1.82049e-05
1.82298e-05
1.8233e-05
1.82043e-05
1.82289e-05
1.82324e-05
2.30272e-05
2.30169e-05
1.82035e-05
1.82312e-05
1.82315e-05
2.30174e-05
2.30528e-05
2.30329e-05
1.8237e-05
1.82376e-05
1.825e-05
1.82505e-05
2.30524e-05
2.30325e-05
1.82363e-05
1.82395e-05
1.82491e-05
1.82523e-05
1.82389e-05
1.82482e-05
1.82517e-05
2.30549e-05
2.30351e-05
1.8238e-05
1.82505e-05
1.82509e-05
2.30356e-05
2.30695e-05
2.30365e-05
1.82523e-05
1.82529e-05
1.82561e-05
1.82566e-05
2.3069e-05
2.30361e-05
1.82515e-05
1.82547e-05
1.82552e-05
1.82584e-05
1.82541e-05
1.82542e-05
1.82578e-05
2.30716e-05
2.30386e-05
1.82533e-05
1.82566e-05
1.8257e-05
2.30392e-05
2.30717e-05
2.30356e-05
1.82566e-05
1.82571e-05
1.82577e-05
1.82581e-05
2.30711e-05
2.30351e-05
1.82557e-05
1.82589e-05
1.82567e-05
1.82599e-05
1.82583e-05
1.82558e-05
1.82593e-05
2.30736e-05
2.30376e-05
1.82575e-05
1.82582e-05
1.82585e-05
2.30382e-05
2.3071e-05
2.30374e-05
1.82579e-05
1.82584e-05
1.82585e-05
1.8259e-05
2.30705e-05
2.3037e-05
1.82569e-05
1.82601e-05
1.82575e-05
1.82607e-05
1.82595e-05
1.82566e-05
1.82601e-05
2.3073e-05
2.30394e-05
1.82587e-05
1.8259e-05
1.82593e-05
2.304e-05
2.30726e-05
2.3037e-05
1.82586e-05
1.82591e-05
1.82587e-05
1.82593e-05
2.30722e-05
2.30367e-05
1.82576e-05
1.82608e-05
1.82578e-05
1.8261e-05
1.82602e-05
1.82568e-05
1.82605e-05
2.30746e-05
2.30391e-05
1.82594e-05
1.82592e-05
1.82596e-05
2.30398e-05
2.30727e-05
2.30358e-05
1.82587e-05
1.82593e-05
1.82587e-05
1.82593e-05
2.30723e-05
2.30355e-05
1.82578e-05
1.8261e-05
1.82578e-05
1.8261e-05
1.82605e-05
1.82569e-05
1.82605e-05
2.30747e-05
2.30378e-05
1.82596e-05
1.82592e-05
1.82596e-05
2.30386e-05
2.3071e-05
2.30385e-05
1.82587e-05
1.82593e-05
1.82588e-05
1.82594e-05
2.30707e-05
2.3038e-05
1.82578e-05
1.8261e-05
1.82579e-05
1.82611e-05
1.82605e-05
1.82569e-05
1.82606e-05
2.3073e-05
2.30405e-05
1.82596e-05
1.82593e-05
1.82597e-05
2.30412e-05
2.30724e-05
2.30394e-05
1.82588e-05
1.82593e-05
1.8259e-05
1.82595e-05
2.30718e-05
2.30391e-05
1.82579e-05
1.82611e-05
1.8258e-05
1.82612e-05
1.82605e-05
1.8257e-05
1.82607e-05
2.30742e-05
2.30419e-05
1.82597e-05
1.82594e-05
1.82598e-05
2.30421e-05
2.30756e-05
2.30348e-05
1.82589e-05
1.82594e-05
1.82589e-05
1.82595e-05
2.30752e-05
2.30345e-05
1.82579e-05
1.82612e-05
1.8258e-05
1.82612e-05
1.82606e-05
1.82569e-05
1.82607e-05
2.3078e-05
2.3037e-05
1.82598e-05
1.82594e-05
1.82598e-05
2.3038e-05
2.30708e-05
2.30375e-05
1.82589e-05
1.82595e-05
1.82589e-05
1.82596e-05
2.30707e-05
2.3037e-05
1.8258e-05
1.82612e-05
1.8258e-05
1.82613e-05
1.82607e-05
1.82569e-05
1.82607e-05
2.30735e-05
2.30387e-05
1.82598e-05
1.82595e-05
1.82599e-05
2.30404e-05
2.30724e-05
2.30381e-05
1.82589e-05
1.82596e-05
1.82589e-05
1.82596e-05
2.30721e-05
2.30371e-05
1.8258e-05
1.82613e-05
1.8258e-05
1.82613e-05
1.82607e-05
1.82569e-05
1.82607e-05
2.30738e-05
2.304e-05
1.82598e-05
1.82595e-05
1.82599e-05
2.30402e-05
2.30737e-05
2.30398e-05
1.82588e-05
1.82596e-05
1.8259e-05
1.82597e-05
2.3073e-05
2.30385e-05
1.8258e-05
1.82612e-05
1.82581e-05
1.82614e-05
1.82607e-05
1.8257e-05
1.82608e-05
2.3075e-05
2.30426e-05
1.82598e-05
1.82596e-05
1.82599e-05
2.3042e-05
2.3078e-05
2.30319e-05
1.82589e-05
1.82597e-05
1.82589e-05
1.82595e-05
2.3077e-05
2.30308e-05
1.8258e-05
1.82613e-05
1.8258e-05
1.82613e-05
1.82607e-05
1.82568e-05
1.82607e-05
2.30804e-05
2.30338e-05
1.82599e-05
1.82594e-05
1.82598e-05
2.30347e-05
2.30728e-05
2.30316e-05
1.8259e-05
1.82596e-05
1.82587e-05
1.82593e-05
2.30716e-05
2.30312e-05
1.82581e-05
1.82614e-05
1.82578e-05
1.82611e-05
1.82608e-05
1.82566e-05
1.82605e-05
2.30747e-05
2.30337e-05
1.826e-05
1.82592e-05
1.82597e-05
2.30344e-05
2.30644e-05
1.82587e-05
1.82592e-05
2.3064e-05
1.82578e-05
1.82611e-05
1.82605e-05
2.30665e-05
1.82596e-05
5.48611e-05
7.00938e-05
7.01179e-05
5.43353e-05
6.95542e-05
6.95352e-05
5.48607e-05
7.00949e-05
7.01191e-05
5.4335e-05
1.46138e-05
1.46138e-05
1.46139e-05
1.44018e-05
1.44018e-05
1.44019e-05
1.4402e-05
3.10924e-05
4.64337e-05
1.47387e-05
1.63402e-05
4.68214e-05
1.4707e-05
3.05301e-05
6.95544e-05
6.95354e-05
3.10937e-05
1.4739e-05
4.64298e-05
1.63405e-05
1.47072e-05
4.68266e-05
3.0531e-05
5.96669e-05
5.9676e-05
1.89238e-05
5.99236e-05
5.99329e-05
5.59412e-05
7.01494e-05
5.55147e-05
7.01617e-05
6.94877e-05
6.94682e-05
5.59408e-05
7.01506e-05
5.55143e-05
7.01629e-05
1.43359e-05
1.4336e-05
1.43361e-05
1.41572e-05
1.41572e-05
1.41573e-05
1.41575e-05
3.27558e-05
4.75482e-05
1.46354e-05
1.65874e-05
3.22147e-05
4.79065e-05
1.46183e-05
6.9488e-05
6.94684e-05
3.27571e-05
1.46357e-05
4.75447e-05
1.65878e-05
3.22157e-05
1.46186e-05
4.79106e-05
6.02486e-05
6.02576e-05
1.96479e-05
6.04685e-05
6.04778e-05
5.68603e-05
7.01709e-05
5.65006e-05
7.01883e-05
6.9426e-05
6.94166e-05
5.68597e-05
7.01721e-05
5.65e-05
7.01895e-05
1.41053e-05
1.41054e-05
1.41055e-05
1.39648e-05
1.39649e-05
1.3965e-05
1.39651e-05
3.43517e-05
4.85525e-05
1.46015e-05
1.69212e-05
3.38329e-05
4.88819e-05
1.46043e-05
6.94262e-05
6.94168e-05
3.43545e-05
1.46018e-05
4.85506e-05
1.69217e-05
3.38333e-05
1.46047e-05
4.88842e-05
6.076e-05
6.07695e-05
2.04522e-05
6.09706e-05
6.09791e-05
5.74664e-05
7.02111e-05
5.72518e-05
7.02132e-05
6.93804e-05
6.93631e-05
5.74658e-05
7.02124e-05
5.72512e-05
7.02145e-05
1.39195e-05
1.39197e-05
1.39198e-05
1.37899e-05
1.379e-05
1.37902e-05
1.37903e-05
3.57893e-05
4.94492e-05
1.46339e-05
1.73157e-05
3.53432e-05
4.97249e-05
1.46477e-05
6.93805e-05
6.93631e-05
3.57919e-05
1.46345e-05
4.94475e-05
1.73164e-05
3.53431e-05
1.46481e-05
4.97282e-05
6.12354e-05
6.12448e-05
2.12987e-05
6.13735e-05
6.13828e-05
5.77911e-05
7.0192e-05
5.7682e-05
7.0175e-05
6.93183e-05
6.93011e-05
5.77906e-05
7.01933e-05
5.76814e-05
7.01763e-05
1.37539e-05
1.37542e-05
1.37543e-05
1.36741e-05
1.36742e-05
1.36745e-05
1.36747e-05
3.69012e-05
5.01677e-05
1.47021e-05
1.77377e-05
3.6583e-05
5.03634e-05
1.4731e-05
6.93186e-05
6.93012e-05
3.69029e-05
1.47028e-05
5.01665e-05
1.77386e-05
3.65832e-05
1.47315e-05
5.03646e-05
6.15448e-05
6.1553e-05
2.21111e-05
6.16399e-05
6.1648e-05
5.79032e-05
7.01267e-05
5.78807e-05
7.00984e-05
6.92546e-05
6.92366e-05
5.79023e-05
7.01281e-05
5.78799e-05
7.00998e-05
1.36501e-05
1.36504e-05
1.36506e-05
1.35398e-05
1.35399e-05
1.35403e-05
1.35405e-05
3.75567e-05
5.06325e-05
1.48244e-05
1.8132e-05
3.73984e-05
5.06949e-05
1.48424e-05
6.92548e-05
6.92368e-05
3.7558e-05
1.48252e-05
5.0632e-05
1.81329e-05
3.73991e-05
1.48432e-05
5.06982e-05
6.17198e-05
6.17273e-05
2.27308e-05
6.17321e-05
6.17403e-05
5.78899e-05
7.00436e-05
5.79013e-05
7.00219e-05
6.91951e-05
6.91839e-05
5.78892e-05
7.0045e-05
5.79004e-05
7.00233e-05
1.34857e-05
1.34861e-05
1.34863e-05
1.32952e-05
1.32953e-05
1.32959e-05
1.3296e-05
3.77606e-05
5.07189e-05
1.48396e-05
1.82496e-05
3.77418e-05
5.07051e-05
1.48054e-05
6.91951e-05
6.91839e-05
3.77638e-05
1.48406e-05
5.0722e-05
1.8251e-05
3.77444e-05
1.48064e-05
5.07095e-05
6.17129e-05
6.17211e-05
2.29651e-05
6.16888e-05
6.16969e-05
5.78082e-05
6.99887e-05
5.78328e-05
6.99791e-05
6.91584e-05
6.91555e-05
5.78075e-05
6.99899e-05
5.78322e-05
6.99803e-05
1.32362e-05
1.32368e-05
1.3237e-05
1.31097e-05
1.31098e-05
1.31105e-05
1.31106e-05
3.77717e-05
5.06731e-05
1.46803e-05
1.81907e-05
3.77811e-05
5.06514e-05
1.46479e-05
6.91585e-05
6.91556e-05
3.77739e-05
1.46817e-05
5.06744e-05
1.81927e-05
3.77832e-05
1.46492e-05
5.06561e-05
6.16436e-05
6.16517e-05
2.29676e-05
6.16267e-05
6.16354e-05
5.7759e-05
6.99652e-05
5.77672e-05
6.99625e-05
6.91426e-05
6.91455e-05
5.77583e-05
6.99663e-05
5.77665e-05
6.99637e-05
1.30851e-05
1.30858e-05
1.30859e-05
1.30552e-05
1.30553e-05
1.30561e-05
1.30562e-05
3.77552e-05
5.06325e-05
1.46001e-05
1.81792e-05
3.77642e-05
5.06235e-05
1.45972e-05
6.91426e-05
6.91454e-05
3.77582e-05
1.46018e-05
5.06346e-05
1.81814e-05
3.77667e-05
1.45989e-05
5.06272e-05
6.16039e-05
6.16125e-05
2.29714e-05
6.16004e-05
6.16089e-05
5.77406e-05
6.99577e-05
5.77417e-05
6.99582e-05
6.91386e-05
6.91435e-05
5.77399e-05
6.99588e-05
5.7741e-05
6.99593e-05
1.30545e-05
1.30553e-05
1.30554e-05
1.30587e-05
1.30588e-05
1.30596e-05
1.30596e-05
3.77589e-05
5.06191e-05
1.45996e-05
1.82115e-05
3.77641e-05
5.06189e-05
1.46069e-05
6.91386e-05
6.91435e-05
3.77611e-05
1.46015e-05
5.06223e-05
1.82139e-05
3.77665e-05
1.46085e-05
5.06231e-05
6.15948e-05
6.16033e-05
2.30041e-05
6.1596e-05
6.16044e-05
5.77364e-05
6.99568e-05
5.77337e-05
6.99582e-05
6.91385e-05
6.91439e-05
5.77356e-05
6.99579e-05
5.77329e-05
6.99593e-05
1.30623e-05
1.30632e-05
1.30632e-05
1.30703e-05
1.30703e-05
1.30712e-05
1.30712e-05
3.77619e-05
5.06237e-05
1.46269e-05
1.82406e-05
3.77654e-05
5.06229e-05
1.46317e-05
6.91385e-05
6.91438e-05
3.77639e-05
1.46289e-05
5.06258e-05
1.8243e-05
3.77671e-05
1.46332e-05
5.06265e-05
6.15953e-05
6.16037e-05
2.30278e-05
6.15973e-05
6.16058e-05
5.77358e-05
6.99572e-05
5.77324e-05
6.99586e-05
6.9139e-05
6.91443e-05
5.7735e-05
6.99583e-05
5.77315e-05
6.99597e-05
1.30721e-05
1.30729e-05
1.3073e-05
1.3075e-05
1.3075e-05
1.30759e-05
1.30759e-05
3.77628e-05
5.06256e-05
1.464e-05
1.82522e-05
3.77664e-05
5.0625e-05
1.46418e-05
6.9139e-05
6.91442e-05
3.77653e-05
1.46419e-05
5.0628e-05
1.82546e-05
3.77683e-05
1.46434e-05
5.06285e-05
6.15968e-05
6.16052e-05
2.30391e-05
6.15985e-05
6.1607e-05
5.77358e-05
6.99575e-05
5.77323e-05
6.99587e-05
6.91392e-05
6.91445e-05
5.7735e-05
6.99586e-05
5.77314e-05
6.99599e-05
1.30755e-05
1.30764e-05
1.30764e-05
1.30763e-05
1.30763e-05
1.30772e-05
1.30772e-05
3.77636e-05
5.06263e-05
1.46442e-05
1.82551e-05
3.77681e-05
5.06254e-05
1.46448e-05
6.91392e-05
6.91444e-05
3.77659e-05
1.46461e-05
5.06288e-05
1.82576e-05
3.777e-05
1.46464e-05
5.06288e-05
6.15972e-05
6.16057e-05
2.30384e-05
6.15985e-05
6.16072e-05
5.77356e-05
6.99575e-05
5.77322e-05
6.99588e-05
6.91393e-05
6.91446e-05
5.77349e-05
6.99587e-05
5.77313e-05
6.99599e-05
1.30765e-05
1.30774e-05
1.30774e-05
1.30769e-05
1.30769e-05
1.30777e-05
1.30778e-05
3.77638e-05
5.06259e-05
1.46456e-05
1.82562e-05
3.77686e-05
5.06252e-05
1.46459e-05
6.91393e-05
6.91445e-05
3.77658e-05
1.46474e-05
5.06287e-05
1.82586e-05
3.77706e-05
1.46475e-05
5.06288e-05
6.15971e-05
6.16056e-05
2.30391e-05
6.15985e-05
6.16071e-05
5.77355e-05
6.99576e-05
5.7732e-05
6.99589e-05
6.91394e-05
6.91447e-05
5.77347e-05
6.99587e-05
5.77312e-05
6.996e-05
1.3077e-05
1.30778e-05
1.30779e-05
1.30771e-05
1.30772e-05
1.3078e-05
1.30781e-05
3.77643e-05
5.06262e-05
1.46463e-05
1.82568e-05
3.77694e-05
5.06247e-05
1.46464e-05
6.91394e-05
6.91445e-05
3.77663e-05
1.4648e-05
5.06287e-05
1.82591e-05
3.77709e-05
1.4648e-05
5.06289e-05
6.15971e-05
6.16056e-05
2.30394e-05
6.15985e-05
6.1607e-05
5.77353e-05
6.99576e-05
5.77319e-05
6.99589e-05
6.91394e-05
6.91447e-05
5.77345e-05
6.99587e-05
5.7731e-05
6.996e-05
1.30772e-05
1.3078e-05
1.30781e-05
1.30773e-05
1.30773e-05
1.30782e-05
1.30782e-05
3.77644e-05
5.06264e-05
1.46466e-05
1.82568e-05
3.77697e-05
5.06245e-05
1.46467e-05
6.91394e-05
6.91446e-05
3.77664e-05
1.46483e-05
5.06286e-05
1.82592e-05
3.77711e-05
1.46483e-05
5.06288e-05
6.15971e-05
6.16055e-05
2.30406e-05
6.15985e-05
6.16069e-05
5.77351e-05
6.99576e-05
5.77317e-05
6.99589e-05
6.91394e-05
6.91447e-05
5.77343e-05
6.99587e-05
5.77308e-05
6.996e-05
1.30773e-05
1.30782e-05
1.30783e-05
1.30774e-05
1.30774e-05
1.30783e-05
1.30783e-05
3.77643e-05
5.06261e-05
1.46468e-05
1.82569e-05
3.77696e-05
5.06245e-05
1.46469e-05
6.91395e-05
6.91446e-05
3.77663e-05
1.46484e-05
5.06284e-05
1.82592e-05
3.77709e-05
1.46484e-05
5.06287e-05
6.1597e-05
6.16053e-05
2.30409e-05
6.15984e-05
6.16068e-05
5.77348e-05
6.99576e-05
5.77314e-05
6.99588e-05
6.91394e-05
6.91448e-05
5.7734e-05
6.99587e-05
5.77306e-05
6.99599e-05
1.30774e-05
1.30783e-05
1.30784e-05
1.30775e-05
1.30775e-05
1.30784e-05
1.30785e-05
3.7764e-05
5.06258e-05
1.46469e-05
1.82569e-05
3.77696e-05
5.06242e-05
1.4647e-05
6.91395e-05
6.91446e-05
3.77661e-05
1.46485e-05
5.06283e-05
1.82593e-05
3.77707e-05
1.46485e-05
5.06285e-05
6.15968e-05
6.16052e-05
2.30372e-05
6.15982e-05
6.16067e-05
5.77345e-05
6.99575e-05
5.77311e-05
6.99588e-05
6.91392e-05
6.91447e-05
5.77337e-05
6.99586e-05
5.77303e-05
6.99599e-05
1.30775e-05
1.30784e-05
1.30785e-05
1.30775e-05
1.30776e-05
1.30785e-05
1.30785e-05
3.77635e-05
5.06259e-05
1.4647e-05
1.82569e-05
3.77694e-05
5.06242e-05
1.46471e-05
6.91394e-05
6.91446e-05
3.77657e-05
1.46487e-05
5.06282e-05
1.82594e-05
3.77707e-05
1.46487e-05
5.06283e-05
6.15967e-05
6.16051e-05
2.30406e-05
6.1598e-05
6.16066e-05
5.77341e-05
6.99575e-05
5.77307e-05
6.99587e-05
6.91392e-05
6.91446e-05
5.77334e-05
6.99586e-05
5.77299e-05
6.99598e-05
1.30776e-05
1.30785e-05
1.30786e-05
1.30776e-05
1.30777e-05
1.30786e-05
1.30786e-05
3.77629e-05
5.06256e-05
1.4647e-05
1.82569e-05
3.77691e-05
5.06242e-05
1.46471e-05
6.91394e-05
6.91445e-05
3.77649e-05
1.46487e-05
5.0628e-05
1.82595e-05
3.77706e-05
1.46487e-05
5.0628e-05
6.15965e-05
6.1605e-05
2.30408e-05
6.15979e-05
6.16064e-05
5.77338e-05
6.99575e-05
5.77305e-05
6.99587e-05
6.91389e-05
6.91443e-05
5.77331e-05
6.99585e-05
5.77296e-05
6.99597e-05
1.30777e-05
1.30786e-05
1.30787e-05
1.30777e-05
1.30778e-05
1.30787e-05
1.30787e-05
3.77626e-05
5.06252e-05
1.46471e-05
1.82569e-05
3.77692e-05
5.06244e-05
1.46471e-05
6.91394e-05
6.91445e-05
3.77646e-05
1.46488e-05
5.06279e-05
1.82595e-05
3.77706e-05
1.46488e-05
5.06277e-05
6.15964e-05
6.16048e-05
2.30396e-05
6.15977e-05
6.16062e-05
5.77336e-05
6.99574e-05
5.77302e-05
6.99587e-05
6.91386e-05
6.9144e-05
5.77328e-05
6.99585e-05
5.77294e-05
6.99597e-05
1.30778e-05
1.30787e-05
1.30787e-05
1.30778e-05
1.30778e-05
1.30787e-05
1.30788e-05
3.77628e-05
5.06246e-05
1.46472e-05
1.82569e-05
3.77687e-05
5.06244e-05
1.46472e-05
6.91394e-05
6.91445e-05
3.77648e-05
1.46489e-05
5.06276e-05
1.82595e-05
3.77703e-05
1.46489e-05
5.06276e-05
6.15962e-05
6.16047e-05
2.30384e-05
6.15976e-05
6.16061e-05
5.77334e-05
6.99574e-05
5.77299e-05
6.99586e-05
6.91383e-05
6.91437e-05
5.77326e-05
6.99584e-05
5.77291e-05
6.99596e-05
1.30779e-05
1.30787e-05
1.30788e-05
1.30778e-05
1.30779e-05
1.30788e-05
1.30789e-05
3.77624e-05
5.06247e-05
1.46472e-05
1.82568e-05
3.77678e-05
5.06237e-05
1.46473e-05
6.91394e-05
6.91445e-05
3.77645e-05
1.46489e-05
5.06275e-05
1.82594e-05
3.77695e-05
1.46489e-05
5.06272e-05
6.15961e-05
6.16045e-05
2.30391e-05
6.15974e-05
6.16059e-05
5.77334e-05
6.99574e-05
5.77299e-05
6.99586e-05
6.9138e-05
6.91434e-05
5.77327e-05
6.99584e-05
5.7729e-05
6.99596e-05
1.30779e-05
1.30788e-05
1.30789e-05
1.30778e-05
1.30778e-05
1.30787e-05
1.30788e-05
3.77614e-05
5.06247e-05
1.46472e-05
1.8257e-05
3.77675e-05
5.06237e-05
1.46472e-05
6.91393e-05
6.91445e-05
3.77638e-05
1.46489e-05
5.06274e-05
1.82595e-05
3.77692e-05
1.46488e-05
5.06269e-05
6.15959e-05
6.16043e-05
2.30477e-05
6.15973e-05
6.16058e-05
5.77338e-05
6.99574e-05
5.77302e-05
6.99587e-05
6.91378e-05
6.91432e-05
5.77331e-05
6.99584e-05
5.77294e-05
6.99597e-05
1.30777e-05
1.30786e-05
1.30788e-05
3.77615e-05
5.06242e-05
1.4647e-05
1.82567e-05
3.77677e-05
5.06245e-05
1.4647e-05
6.91393e-05
6.91444e-05
3.77639e-05
1.46487e-05
5.06271e-05
1.82592e-05
3.77693e-05
1.46486e-05
5.06269e-05
6.15959e-05
6.16043e-05
2.30378e-05
6.15974e-05
6.1606e-05
6.95527e-05
6.95338e-05
6.95548e-05
6.95359e-05
5.96694e-05
5.96799e-05
1.89227e-05
5.99265e-05
5.99366e-05
6.95012e-05
6.95192e-05
6.95033e-05
6.95213e-05
1.90643e-05
6.02077e-05
6.02175e-05
5.9974e-05
5.99841e-05
5.48598e-05
7.00905e-05
7.01147e-05
5.43341e-05
3.10917e-05
4.64284e-05
1.47385e-05
1.63403e-05
4.68278e-05
1.47067e-05
3.05294e-05
3.10911e-05
4.6432e-05
1.47384e-05
1.63407e-05
4.68297e-05
1.47067e-05
3.05288e-05
5.49587e-05
7.01468e-05
7.01221e-05
5.54278e-05
5.49574e-05
7.01435e-05
7.01188e-05
5.54265e-05
3.13786e-05
1.63946e-05
4.73824e-05
1.46545e-05
4.69993e-05
1.46789e-05
3.19329e-05
3.13779e-05
1.6395e-05
4.73842e-05
1.46544e-05
4.70026e-05
1.46788e-05
3.19322e-05
5.96744e-05
5.967e-05
1.89228e-05
5.99312e-05
5.99261e-05
6.95528e-05
6.9534e-05
6.95026e-05
6.95206e-05
1.90644e-05
6.02121e-05
6.02078e-05
5.99788e-05
5.9974e-05
6.95014e-05
6.95193e-05
3.10921e-05
4.64323e-05
1.47387e-05
1.63405e-05
4.68312e-05
1.47069e-05
3.053e-05
5.48598e-05
7.00905e-05
7.01147e-05
5.43341e-05
3.10918e-05
1.47386e-05
4.64318e-05
1.6341e-05
1.47068e-05
4.68307e-05
3.05296e-05
5.49583e-05
7.01479e-05
7.01232e-05
5.54274e-05
3.13791e-05
1.63947e-05
4.73857e-05
1.46547e-05
4.70032e-05
1.46791e-05
3.19332e-05
5.49574e-05
7.01436e-05
7.01188e-05
5.54265e-05
3.13787e-05
1.63954e-05
1.46546e-05
4.73852e-05
1.4679e-05
4.70025e-05
3.19329e-05
5.48609e-05
7.00934e-05
7.0117e-05
5.43355e-05
3.10921e-05
1.47387e-05
4.64294e-05
1.63407e-05
1.47069e-05
4.68254e-05
3.05297e-05
5.486e-05
7.00897e-05
7.01139e-05
5.43344e-05
3.13792e-05
1.63945e-05
4.73765e-05
1.46548e-05
4.70041e-05
1.46791e-05
3.19334e-05
5.49585e-05
7.01461e-05
7.01213e-05
5.54275e-05
3.13788e-05
1.63951e-05
1.46547e-05
4.73801e-05
1.46791e-05
4.70001e-05
3.19332e-05
5.49576e-05
7.01427e-05
7.0118e-05
5.54267e-05
5.96752e-05
5.96695e-05
1.89232e-05
5.9932e-05
5.99262e-05
6.95529e-05
6.95339e-05
6.95028e-05
6.95208e-05
1.90648e-05
6.02131e-05
6.02072e-05
5.99794e-05
5.99738e-05
6.95013e-05
6.95193e-05
3.10928e-05
1.4739e-05
4.64306e-05
1.63412e-05
1.47072e-05
4.68315e-05
3.05306e-05
5.48616e-05
7.00936e-05
7.01178e-05
5.43358e-05
5.48605e-05
7.00909e-05
7.01152e-05
5.43349e-05
3.13802e-05
1.63948e-05
1.4655e-05
4.73813e-05
1.46794e-05
4.70006e-05
3.19348e-05
3.13797e-05
1.63955e-05
1.4655e-05
4.73859e-05
1.46794e-05
4.70014e-05
3.19339e-05
5.49591e-05
7.01466e-05
7.01219e-05
5.54281e-05
5.49582e-05
7.0144e-05
7.01193e-05
5.5427e-05
6.95529e-05
6.95339e-05
6.95547e-05
6.95357e-05
1.90653e-05
6.02046e-05
6.02138e-05
5.99711e-05
5.99801e-05
6.95013e-05
6.95193e-05
6.95032e-05
6.95212e-05
6.94863e-05
6.94668e-05
6.94884e-05
6.94689e-05
6.02515e-05
6.02614e-05
1.96465e-05
6.04718e-05
6.04814e-05
6.94361e-05
6.94518e-05
6.94382e-05
6.94539e-05
1.98067e-05
6.07237e-05
6.0733e-05
6.05137e-05
6.05233e-05
5.59399e-05
7.01461e-05
5.55135e-05
7.01584e-05
3.27551e-05
4.75435e-05
1.46352e-05
1.65876e-05
3.2214e-05
4.79119e-05
1.4618e-05
3.27544e-05
4.75467e-05
1.46351e-05
1.65881e-05
3.22133e-05
4.79134e-05
1.46179e-05
5.60224e-05
7.01695e-05
7.01618e-05
5.64252e-05
5.60211e-05
7.01663e-05
7.01586e-05
5.64239e-05
3.303e-05
1.66626e-05
4.84116e-05
1.46008e-05
4.80617e-05
1.46078e-05
3.35613e-05
3.30293e-05
1.66631e-05
4.8413e-05
1.46007e-05
4.80645e-05
1.46077e-05
3.35605e-05
6.02561e-05
6.02523e-05
1.96466e-05
6.04762e-05
6.04714e-05
6.94863e-05
6.94666e-05
6.94375e-05
6.94532e-05
1.98067e-05
6.07278e-05
6.07178e-05
6.05181e-05
6.05129e-05
6.94364e-05
6.94513e-05
3.27554e-05
4.75472e-05
1.46354e-05
1.65877e-05
3.22145e-05
4.79151e-05
1.46182e-05
5.59398e-05
7.01462e-05
5.55134e-05
7.01585e-05
3.2755e-05
1.46353e-05
4.75466e-05
1.65886e-05
3.22141e-05
1.46182e-05
4.79144e-05
5.60219e-05
7.01707e-05
7.0163e-05
5.64246e-05
3.30305e-05
1.66626e-05
4.84146e-05
1.4601e-05
4.80652e-05
1.4608e-05
3.35615e-05
5.6021e-05
7.01664e-05
7.01587e-05
5.64236e-05
3.303e-05
1.66636e-05
1.4601e-05
4.84137e-05
1.4608e-05
4.80644e-05
3.35611e-05
5.5941e-05
7.0149e-05
5.55146e-05
7.01609e-05
3.27555e-05
1.46354e-05
4.75442e-05
1.65882e-05
3.22143e-05
1.46183e-05
4.79095e-05
5.59401e-05
7.01454e-05
5.55137e-05
7.01577e-05
3.30308e-05
1.66623e-05
4.84051e-05
1.46011e-05
4.80656e-05
1.46081e-05
3.35619e-05
5.60222e-05
7.01688e-05
7.01611e-05
5.64247e-05
3.30304e-05
1.66632e-05
1.46011e-05
4.84094e-05
1.4608e-05
4.80621e-05
3.35617e-05
5.60213e-05
7.01656e-05
7.01579e-05
5.6424e-05
6.02569e-05
6.02511e-05
1.96472e-05
6.0477e-05
6.04709e-05
6.94864e-05
6.94669e-05
6.94376e-05
6.94534e-05
1.98073e-05
6.07281e-05
6.07227e-05
6.05187e-05
6.05129e-05
6.94362e-05
6.94519e-05
3.27561e-05
1.46357e-05
4.75455e-05
1.65886e-05
3.22151e-05
1.46186e-05
4.79152e-05
5.59413e-05
7.01493e-05
5.5515e-05
7.01616e-05
5.59402e-05
7.01467e-05
5.5514e-05
7.0159e-05
3.30317e-05
1.66628e-05
1.46014e-05
4.84105e-05
1.46083e-05
4.80626e-05
3.35633e-05
3.30311e-05
1.66635e-05
1.46014e-05
4.84146e-05
1.46084e-05
4.80635e-05
3.35623e-05
5.60225e-05
7.01694e-05
7.01617e-05
5.64254e-05
5.60215e-05
7.01669e-05
7.01592e-05
5.64243e-05
6.94864e-05
6.94668e-05
6.94883e-05
6.94688e-05
1.98079e-05
6.072e-05
6.07297e-05
6.05105e-05
6.05195e-05
6.94361e-05
6.94518e-05
6.9438e-05
6.94538e-05
6.94245e-05
6.94152e-05
6.94266e-05
6.94172e-05
6.07636e-05
6.0773e-05
2.04506e-05
6.09739e-05
6.0983e-05
6.93925e-05
6.94048e-05
6.93946e-05
6.94068e-05
2.06253e-05
6.12097e-05
6.12184e-05
6.10179e-05
6.10265e-05
5.6859e-05
7.01677e-05
5.64993e-05
7.01851e-05
3.43517e-05
4.85494e-05
1.46012e-05
1.69216e-05
3.38321e-05
4.88847e-05
1.4604e-05
3.4351e-05
4.85521e-05
1.46011e-05
1.69222e-05
3.38313e-05
4.88863e-05
1.46039e-05
5.69218e-05
7.02109e-05
7.01916e-05
5.7205e-05
5.69205e-05
7.02077e-05
7.01884e-05
5.72037e-05
3.46114e-05
1.70177e-05
4.93311e-05
1.46216e-05
4.90152e-05
1.46113e-05
3.51016e-05
3.46105e-05
1.70182e-05
4.93322e-05
1.46215e-05
4.90179e-05
1.46113e-05
3.51008e-05
6.07678e-05
6.07587e-05
2.04507e-05
6.09787e-05
6.09808e-05
6.94249e-05
6.94159e-05
6.9394e-05
6.94063e-05
2.06253e-05
6.12135e-05
6.12073e-05
6.10225e-05
6.10249e-05
6.93921e-05
6.94049e-05
3.43514e-05
4.85529e-05
1.46014e-05
1.69215e-05
3.38325e-05
4.88876e-05
1.46043e-05
5.68587e-05
7.01678e-05
5.6499e-05
7.01853e-05
3.4351e-05
1.46014e-05
4.85518e-05
1.69228e-05
3.3832e-05
1.46043e-05
4.88869e-05
5.69212e-05
7.02122e-05
7.01928e-05
5.72045e-05
3.46121e-05
1.70175e-05
4.93338e-05
1.46218e-05
4.90184e-05
1.46116e-05
3.51014e-05
5.69202e-05
7.02079e-05
7.01886e-05
5.72034e-05
3.46116e-05
1.70188e-05
1.46219e-05
4.93328e-05
1.46117e-05
4.90177e-05
3.51009e-05
5.68602e-05
7.01703e-05
5.65004e-05
7.01878e-05
3.43521e-05
1.46015e-05
4.85499e-05
1.69224e-05
3.38324e-05
1.46043e-05
4.88826e-05
5.68593e-05
7.0167e-05
5.64995e-05
7.01844e-05
3.46129e-05
1.70173e-05
4.93269e-05
1.4622e-05
4.90207e-05
1.46116e-05
3.51015e-05
5.69218e-05
7.021e-05
7.01912e-05
5.72045e-05
3.46117e-05
1.70184e-05
1.46219e-05
4.93287e-05
1.46117e-05
4.90155e-05
3.5102e-05
5.69208e-05
7.0207e-05
7.01877e-05
5.72038e-05
6.07679e-05
6.07627e-05
2.04514e-05
6.09793e-05
6.0974e-05
6.94247e-05
6.94153e-05
6.9394e-05
6.94065e-05
2.0626e-05
6.12139e-05
6.12081e-05
6.10233e-05
6.10177e-05
6.93925e-05
6.94049e-05
3.4352e-05
1.46018e-05
4.85511e-05
1.69225e-05
3.38333e-05
1.46047e-05
4.88873e-05
5.68607e-05
7.01708e-05
5.65009e-05
7.01883e-05
5.68595e-05
7.01683e-05
5.64999e-05
7.01857e-05
3.46127e-05
1.70178e-05
1.46223e-05
4.93299e-05
1.46121e-05
4.90165e-05
3.51041e-05
3.4613e-05
1.70186e-05
1.46223e-05
4.93334e-05
1.46121e-05
4.90166e-05
3.51019e-05
5.69221e-05
7.02109e-05
7.01916e-05
5.72049e-05
5.6921e-05
7.02084e-05
7.0189e-05
5.72037e-05
6.94245e-05
6.94151e-05
6.94265e-05
6.9417e-05
2.06267e-05
6.12053e-05
6.12149e-05
6.10144e-05
6.10224e-05
6.93923e-05
6.94047e-05
6.93945e-05
6.94068e-05
6.93789e-05
6.93614e-05
6.9381e-05
6.93636e-05
6.12397e-05
6.12485e-05
2.12967e-05
6.13777e-05
6.13866e-05
6.93308e-05
6.93475e-05
6.93329e-05
6.93497e-05
2.14759e-05
6.15272e-05
6.15356e-05
6.14022e-05
6.14113e-05
5.74651e-05
7.0208e-05
5.72505e-05
7.02102e-05
3.57894e-05
4.9447e-05
1.46337e-05
1.73164e-05
3.53418e-05
4.97289e-05
1.46473e-05
3.57886e-05
4.9449e-05
1.46336e-05
1.73169e-05
3.53408e-05
4.97301e-05
1.46472e-05
5.75007e-05
7.02007e-05
7.02103e-05
5.76579e-05
5.74994e-05
7.01978e-05
7.02073e-05
5.76566e-05
3.60052e-05
1.74182e-05
5.00821e-05
1.46792e-05
4.98317e-05
1.46619e-05
3.63968e-05
3.60042e-05
1.74188e-05
5.00832e-05
1.46791e-05
4.98339e-05
1.46618e-05
3.63959e-05
6.12436e-05
6.1237e-05
2.12968e-05
6.1382e-05
6.13762e-05
6.93784e-05
6.93619e-05
6.93323e-05
6.93492e-05
2.14759e-05
6.15311e-05
6.15284e-05
6.14068e-05
6.14027e-05
6.93311e-05
6.93481e-05
3.57892e-05
4.945e-05
1.46339e-05
1.7316e-05
3.53424e-05
4.97317e-05
1.46476e-05
5.74648e-05
7.02081e-05
5.72501e-05
7.02103e-05
3.57887e-05
1.4634e-05
4.94489e-05
1.73177e-05
3.53418e-05
1.46477e-05
4.97303e-05
5.75e-05
7.0202e-05
7.02116e-05
5.76574e-05
3.60056e-05
1.74178e-05
5.00848e-05
1.46795e-05
4.98347e-05
1.46622e-05
3.63967e-05
5.7499e-05
7.01978e-05
7.02073e-05
5.76563e-05
3.60051e-05
1.74196e-05
1.46796e-05
5.00836e-05
1.46623e-05
4.98334e-05
3.63961e-05
5.7466e-05
7.02101e-05
5.72515e-05
7.02123e-05
3.57898e-05
1.4634e-05
4.94467e-05
1.73172e-05
3.53421e-05
1.46477e-05
4.97266e-05
5.74655e-05
7.02072e-05
5.72507e-05
7.02093e-05
3.60064e-05
1.74175e-05
5.00794e-05
1.46796e-05
4.98347e-05
1.46622e-05
3.63971e-05
5.75007e-05
7.01998e-05
7.02094e-05
5.76581e-05
3.60056e-05
1.74191e-05
1.46797e-05
5.00801e-05
1.46623e-05
4.98314e-05
3.63974e-05
5.74999e-05
7.01969e-05
7.02064e-05
5.76574e-05
6.12437e-05
6.12382e-05
2.12978e-05
6.13816e-05
6.13769e-05
6.9379e-05
6.93617e-05
6.93324e-05
6.93493e-05
2.14768e-05
6.15315e-05
6.15267e-05
6.14062e-05
6.14019e-05
6.93309e-05
6.93479e-05
3.57897e-05
1.46345e-05
4.94483e-05
1.73172e-05
3.53432e-05
1.46481e-05
4.9731e-05
5.74664e-05
7.02112e-05
5.72518e-05
7.02134e-05
5.74651e-05
7.02086e-05
5.72506e-05
7.02108e-05
3.60066e-05
1.74182e-05
1.46801e-05
5.00819e-05
1.46628e-05
4.98327e-05
3.63992e-05
3.60065e-05
1.7419e-05
1.468e-05
5.0084e-05
1.46628e-05
4.98327e-05
3.63972e-05
5.75008e-05
7.0201e-05
7.02105e-05
5.76583e-05
5.74997e-05
7.01984e-05
7.02079e-05
5.76569e-05
6.93787e-05
6.93614e-05
6.93809e-05
6.93634e-05
2.14776e-05
6.15233e-05
6.15317e-05
6.13983e-05
6.14071e-05
6.93308e-05
6.93475e-05
6.93327e-05
6.93496e-05
6.93169e-05
6.92997e-05
6.9319e-05
6.93017e-05
6.15486e-05
6.1557e-05
2.21091e-05
6.16437e-05
6.16516e-05
6.92677e-05
6.92858e-05
6.92697e-05
6.92877e-05
2.22763e-05
6.17188e-05
6.17262e-05
6.16581e-05
6.1666e-05
5.77898e-05
7.0189e-05