/*--------------------------------*- C++ -*----------------------------------*\
| =========                 |                                                 |
| \\      /  F ield         | OpenFOAM: The Open Source CFD Toolbox           |
|  \\    /   O peration     | Version:  2312                                  |
|   \\  /    A nd           | Website:  www.openfoam.com                      |
|    \\/     M anipulation  |                                                 |
\*---------------------------------------------------------------------------*/
FoamFile
{
    version     2.0;
    format      ascii;
    arch        "LSB;label=32;scalar=64";
    class       volScalarField;
    location    "125";
    object      nut;
}
// * * * * * * * * * * * * * * * * * * * * * * * * * * * * * * * * * * * * * //

dimensions      [0 2 -1 0 0 0 0];

internalField   nonuniform List<scalar> 
43208
(
0.000124749
9.57936e-05
9.58005e-05
9.06941e-05
0.000124746
9.5793e-05
9.58012e-05
9.06844e-05
0.000124748
9.57985e-05
9.58051e-05
9.07452e-05
0.00012475
9.57975e-05
9.58037e-05
9.08042e-05
0.000124741
9.57932e-05
9.57982e-05
9.08174e-05
0.000124739
9.57905e-05
9.57948e-05
9.07997e-05
0.000124738
9.57912e-05
9.57957e-05
9.07586e-05
0.000124737
9.57905e-05
9.57974e-05
9.07034e-05
0.000124738
9.57931e-05
9.57984e-05
9.0672e-05
0.000124739
9.57945e-05
9.58006e-05
9.06826e-05
0.000124739
9.57954e-05
9.58003e-05
9.07016e-05
0.000124739
9.57958e-05
9.58005e-05
9.07045e-05
0.00012474
9.57965e-05
9.58024e-05
9.07055e-05
0.00012474
9.57984e-05
9.58048e-05
9.07167e-05
0.000124741
9.58012e-05
9.5807e-05
9.07511e-05
0.000124742
9.58068e-05
9.58113e-05
9.07988e-05
0.000124745
9.58161e-05
9.58206e-05
9.07832e-05
0.000124749
9.5831e-05
9.58354e-05
9.07555e-05
0.000124758
9.58575e-05
9.58623e-05
9.07889e-05
0.000124862
9.59424e-05
9.59487e-05
9.08258e-05
0.000121822
9.66077e-05
9.66138e-05
9.07489e-05
9.0807e-05
9.57822e-05
9.5762e-05
9.08068e-05
9.57911e-05
9.57722e-05
9.5795e-05
9.57853e-05
9.07272e-05
9.57997e-05
9.57883e-05
9.07015e-05
9.07496e-05
9.08266e-05
9.57811e-05
9.57609e-05
9.57818e-05
9.57616e-05
9.07497e-05
9.08259e-05
9.579e-05
9.57729e-05
9.57908e-05
9.57724e-05
9.57854e-05
9.57946e-05
9.57852e-05
9.07655e-05
9.07082e-05
9.57883e-05
9.57998e-05
9.57881e-05
9.07423e-05
9.07752e-05
9.08404e-05
9.57806e-05
9.57603e-05
9.57868e-05
9.57658e-05
9.07858e-05
9.08307e-05
9.57896e-05
9.57739e-05
9.57958e-05
9.57754e-05
9.57847e-05
9.57986e-05
9.57897e-05
9.07643e-05
9.06771e-05
9.57877e-05
9.58025e-05
9.57924e-05
9.08129e-05
9.08078e-05
9.08286e-05
9.57863e-05
9.57657e-05
9.57861e-05
9.57656e-05
9.08141e-05
9.08064e-05
9.57954e-05
9.57784e-05
9.57954e-05
9.5776e-05
9.57896e-05
9.57989e-05
9.57903e-05
9.07084e-05
9.06783e-05
9.57923e-05
9.58038e-05
9.57932e-05
9.08395e-05
9.08253e-05
9.078e-05
9.57836e-05
9.57637e-05
9.57815e-05
9.57606e-05
9.08187e-05
9.07493e-05
9.57928e-05
9.57765e-05
9.57903e-05
9.57705e-05
9.57874e-05
9.57938e-05
9.57854e-05
9.06589e-05
9.0713e-05
9.57904e-05
9.57988e-05
9.5788e-05
9.08152e-05
9.08109e-05
9.07092e-05
9.578e-05
9.57597e-05
9.57771e-05
9.57565e-05
9.07909e-05
9.06892e-05
9.57891e-05
9.57701e-05
9.57862e-05
9.57686e-05
9.57835e-05
9.57898e-05
9.57823e-05
9.06632e-05
9.07727e-05
9.57862e-05
9.57958e-05
9.5785e-05
9.07657e-05
9.07613e-05
9.06713e-05
9.57776e-05
9.57569e-05
9.57769e-05
9.57567e-05
9.07375e-05
9.0667e-05
9.57866e-05
9.57677e-05
9.57859e-05
9.57694e-05
9.57825e-05
9.57895e-05
9.57817e-05
9.07078e-05
9.08068e-05
9.57852e-05
9.5796e-05
9.57844e-05
9.07077e-05
9.06925e-05
9.06853e-05
9.57787e-05
9.57581e-05
9.57771e-05
9.57569e-05
9.06799e-05
9.06824e-05
9.57879e-05
9.57697e-05
9.57861e-05
9.57717e-05
9.57839e-05
9.57894e-05
9.57819e-05
9.07596e-05
9.08068e-05
9.57866e-05
9.5798e-05
9.57846e-05
9.06767e-05
9.06612e-05
9.0724e-05
9.57776e-05
9.57574e-05
9.57797e-05
9.5759e-05
9.06552e-05
9.07265e-05
9.57862e-05
9.57713e-05
9.57889e-05
9.57716e-05
9.5784e-05
9.57927e-05
9.57825e-05
9.07773e-05
9.08111e-05
9.57864e-05
9.57988e-05
9.57852e-05
9.06831e-05
9.06761e-05
9.07789e-05
9.57803e-05
9.57594e-05
9.5783e-05
9.57628e-05
9.06756e-05
9.07897e-05
9.57895e-05
9.5771e-05
9.5792e-05
9.57727e-05
9.57846e-05
9.57949e-05
9.57871e-05
9.07967e-05
9.07788e-05
9.57868e-05
9.58002e-05
9.57893e-05
9.07152e-05
9.07186e-05
9.08126e-05
9.57826e-05
9.57623e-05
9.57838e-05
9.57635e-05
9.07304e-05
9.08087e-05
9.57917e-05
9.57742e-05
9.57927e-05
9.57735e-05
9.57874e-05
9.57956e-05
9.57877e-05
9.07861e-05
9.07429e-05
9.57898e-05
9.58e-05
9.57902e-05
9.07416e-05
9.07619e-05
9.08204e-05
9.57837e-05
9.57636e-05
9.57844e-05
9.57638e-05
9.07711e-05
9.08075e-05
9.57927e-05
9.57743e-05
9.57933e-05
9.57745e-05
9.57878e-05
9.57959e-05
9.57883e-05
9.0744e-05
9.08108e-05
9.57903e-05
9.58008e-05
9.57907e-05
9.07477e-05
9.07863e-05
9.08186e-05
9.57843e-05
9.57639e-05
9.57851e-05
9.57642e-05
9.07814e-05
9.08118e-05
9.57933e-05
9.57745e-05
9.57937e-05
9.57769e-05
9.57883e-05
9.57966e-05
9.57886e-05
9.07848e-05
9.08462e-05
9.57908e-05
9.58026e-05
9.57911e-05
9.07532e-05
9.0802e-05
9.08003e-05
9.5785e-05
9.57641e-05
9.57858e-05
9.57647e-05
9.0797e-05
9.07906e-05
9.57936e-05
9.57764e-05
9.57944e-05
9.5777e-05
9.57884e-05
9.57978e-05
9.57891e-05
9.08381e-05
9.07694e-05
9.5791e-05
9.58034e-05
9.57917e-05
9.07709e-05
9.07981e-05
9.07893e-05
9.57861e-05
9.57651e-05
9.57869e-05
9.57658e-05
9.07916e-05
9.0772e-05
9.57947e-05
9.57782e-05
9.57956e-05
9.5777e-05
9.57892e-05
9.57993e-05
9.57908e-05
9.08089e-05
9.0683e-05
9.57918e-05
9.5804e-05
9.57933e-05
9.08046e-05
9.07917e-05
9.07994e-05
9.5788e-05
9.57672e-05
9.57913e-05
9.57708e-05
9.07778e-05
9.07863e-05
9.5797e-05
9.57799e-05
9.58004e-05
9.57813e-05
9.57916e-05
9.58046e-05
9.57963e-05
9.0717e-05
9.06886e-05
9.57943e-05
9.58085e-05
9.57986e-05
9.08182e-05
9.08019e-05
9.08044e-05
9.57933e-05
9.57728e-05
9.57993e-05
9.57788e-05
9.07892e-05
9.07982e-05
9.58024e-05
9.57845e-05
9.58083e-05
9.57897e-05
9.57979e-05
9.58126e-05
9.58034e-05
9.06647e-05
9.07371e-05
9.58002e-05
9.58173e-05
9.58058e-05
9.07769e-05
9.0811e-05
9.07951e-05
9.58023e-05
9.57819e-05
9.5812e-05
9.57915e-05
9.08009e-05
9.07943e-05
9.58113e-05
9.57927e-05
9.58211e-05
9.58032e-05
9.5807e-05
9.58257e-05
9.58164e-05
9.0679e-05
9.08114e-05
9.58094e-05
9.58307e-05
9.58187e-05
9.07636e-05
9.08113e-05
9.07737e-05
9.58175e-05
9.57972e-05
9.58332e-05
9.58112e-05
9.08014e-05
9.08021e-05
9.58263e-05
9.58079e-05
9.58401e-05
9.58234e-05
9.58217e-05
9.58444e-05
9.58368e-05
9.07318e-05
9.08756e-05
9.58241e-05
9.58504e-05
9.58382e-05
9.08228e-05
9.07964e-05
9.07755e-05
9.58437e-05
9.58239e-05
9.58485e-05
9.58305e-05
9.08076e-05
9.08422e-05
9.58528e-05
9.58345e-05
9.58585e-05
9.58417e-05
9.58465e-05
9.5864e-05
9.58522e-05
9.08155e-05
9.08891e-05
9.58511e-05
9.58701e-05
9.5858e-05
9.08576e-05
9.08003e-05
9.08656e-05
9.59272e-05
9.5909e-05
9.6399e-05
9.63819e-05
9.08518e-05
9.08807e-05
9.59377e-05
9.59202e-05
9.64092e-05
9.63891e-05
9.59305e-05
9.64158e-05
9.64002e-05
9.08803e-05
9.08641e-05
9.59364e-05
9.64188e-05
9.64062e-05
9.08619e-05
9.07668e-05
9.65941e-05
9.65755e-05
9.07648e-05
9.66037e-05
9.65857e-05
0.000121816
0.000121822
0.000121821
9.65951e-05
9.07669e-05
9.66001e-05
7.80359e-05
4.9528e-05
2.35451e-05
4.9523e-05
0.00012475
0.000124744
0.000124744
0.000124744
8.51315e-05
9.57946e-05
7.57758e-05
0.000108066
7.80386e-05
4.95275e-05
7.80266e-05
4.95279e-05
2.35441e-05
2.3545e-05
7.80355e-05
4.95224e-05
7.80233e-05
4.95228e-05
0.000124743
0.000124743
0.000124744
0.000124746
0.00012474
0.00012474
0.000124741
8.513e-05
7.57654e-05
0.000108064
9.57929e-05
8.51295e-05
7.57786e-05
0.000108062
2.35433e-05
2.35442e-05
8.51303e-05
0.000108059
7.57642e-05
9.57996e-05
8.51296e-05
0.000108059
7.57777e-05
6.54863e-05
6.54832e-05
9.07857e-05
6.54919e-05
6.54889e-05
7.80413e-05
4.95274e-05
7.80295e-05
4.95278e-05
2.3544e-05
2.35449e-05
7.80383e-05
4.95223e-05
7.80262e-05
4.95227e-05
0.000124739
0.000124739
0.00012474
0.000124748
0.000124741
0.00012474
0.000124741
8.51371e-05
7.57686e-05
0.000108062
9.57927e-05
8.51355e-05
7.57806e-05
0.000108062
2.35432e-05
2.35441e-05
8.51341e-05
0.000108058
7.57676e-05
9.58007e-05
8.51342e-05
0.000108058
7.57801e-05
6.54868e-05
6.54841e-05
9.07291e-05
6.54922e-05
6.54895e-05
7.80411e-05
4.95273e-05
7.80307e-05
4.95278e-05
2.3544e-05
2.35449e-05
7.80393e-05
4.95223e-05
7.80281e-05
4.95227e-05
0.000124741
0.000124741
0.000124742
0.000124754
0.000124747
0.000124747
0.000124747
8.51313e-05
7.57696e-05
0.000108069
9.5798e-05
8.51368e-05
7.57799e-05
0.000108069
2.35432e-05
2.3544e-05
8.51341e-05
0.000108062
7.57688e-05
9.58059e-05
8.5139e-05
0.000108064
7.57804e-05
6.54871e-05
6.54842e-05
9.06753e-05
6.54925e-05
6.54896e-05
7.80391e-05
4.95274e-05
7.80285e-05
4.95279e-05
2.3544e-05
2.35449e-05
7.80375e-05
4.95223e-05
7.80274e-05
4.95228e-05
0.000124744
0.000124745
0.000124744
0.000124742
0.000124736
0.000124737
0.000124736
8.51142e-05
7.57685e-05
0.000108066
9.57946e-05
8.51143e-05
7.57826e-05
0.000108063
2.35432e-05
2.3544e-05
8.51227e-05
0.000108062
7.57687e-05
9.58039e-05
8.51355e-05
0.000108058
7.57799e-05
6.54874e-05
6.54844e-05
9.06728e-05
6.54931e-05
6.549e-05
7.80406e-05
4.95274e-05
7.8029e-05
4.95278e-05
2.3544e-05
2.35449e-05
7.8037e-05
4.95224e-05
7.80255e-05
4.95228e-05
0.000124734
0.000124735
0.000124735
0.000124739
0.000124733
0.000124733
0.000124733
8.51233e-05
7.57723e-05
0.00010806
9.57908e-05
8.51239e-05
7.578e-05
0.000108059
2.35432e-05
2.35441e-05
8.51163e-05
0.000108054
7.57687e-05
9.57982e-05
8.51149e-05
0.000108053
7.57791e-05
6.54885e-05
6.54854e-05
9.07008e-05
6.5494e-05
6.54911e-05
7.80408e-05
4.95274e-05
7.80293e-05
4.95279e-05
2.3544e-05
2.35449e-05
7.80379e-05
4.95224e-05
7.8027e-05
4.95228e-05
0.000124733
0.000124733
0.000124733
0.000124738
0.000124732
0.000124732
0.000124732
8.51181e-05
7.57733e-05
0.000108057
9.57898e-05
8.51174e-05
7.57828e-05
0.000108057
2.35432e-05
2.35441e-05
8.51163e-05
0.000108053
7.57677e-05
9.57947e-05
8.51289e-05
0.000108052
7.57815e-05
6.5489e-05
6.5486e-05
9.07578e-05
6.54947e-05
6.54917e-05
7.80415e-05
4.95274e-05
7.80298e-05
4.95279e-05
2.3544e-05
2.3545e-05
7.80384e-05
4.95224e-05
7.80272e-05
4.95228e-05
0.000124732
0.000124732
0.000124732
0.000124737
0.000124731
0.000124732
0.000124732
8.51222e-05
7.57719e-05
0.000108056
9.57917e-05
8.51143e-05
7.57844e-05
0.000108055
2.35432e-05
2.35441e-05
8.51192e-05
0.000108052
7.57695e-05
9.57962e-05
8.51279e-05
0.000108052
7.57806e-05
6.54897e-05
6.54868e-05
9.08112e-05
6.54954e-05
6.54924e-05
7.8043e-05
4.95275e-05
7.80319e-05
4.9528e-05
2.3544e-05
2.3545e-05
7.80402e-05
4.95224e-05
7.80281e-05
4.95229e-05
0.000124731
0.000124732
0.000124732
0.000124738
0.000124731
0.000124731
0.000124731
8.51162e-05
7.57711e-05
0.000108056
9.57929e-05
8.51207e-05
7.57836e-05
0.000108056
2.35432e-05
2.35441e-05
8.51289e-05
0.000108052
7.57722e-05
9.57969e-05
8.51172e-05
0.000108053
7.57843e-05
6.54906e-05
6.54878e-05
9.08248e-05
6.54962e-05
6.54933e-05
7.80444e-05
4.95276e-05
7.80325e-05
4.95281e-05
2.35441e-05
2.3545e-05
7.80407e-05
4.95225e-05
7.80294e-05
4.9523e-05
0.000124732
0.000124731
0.000124732
0.000124739
0.000124732
0.000124731
0.000124732
8.5125e-05
7.57752e-05
0.000108056
9.57949e-05
8.51233e-05
7.57848e-05
0.000108056
2.35433e-05
2.35442e-05
8.51171e-05
0.000108054
7.5772e-05
9.57984e-05
8.51215e-05
0.000108053
7.5784e-05
6.54918e-05
6.54888e-05
9.08104e-05
6.54974e-05
6.54944e-05
7.80451e-05
4.95277e-05
7.80339e-05
4.95282e-05
2.35441e-05
2.35451e-05
7.80424e-05
4.95226e-05
7.80308e-05
4.95231e-05
0.000124732
0.000124732
0.000124733
0.000124739
0.000124732
0.000124732
0.000124733
8.51275e-05
7.57749e-05
0.000108057
9.57945e-05
8.5122e-05
7.5785e-05
0.000108056
2.35433e-05
2.35442e-05
8.51302e-05
0.000108053
7.57753e-05
9.57998e-05
8.5124e-05
0.000108053
7.57842e-05
6.5493e-05
6.54902e-05
9.07818e-05
6.54984e-05
6.54955e-05
7.80462e-05
4.95278e-05
7.80354e-05
4.95283e-05
2.35441e-05
2.35452e-05
7.80435e-05
4.95227e-05
7.80317e-05
4.95233e-05
0.000124733
0.000124732
0.000124733
0.000124739
0.000124732
0.000124732
0.000124733
8.51283e-05
7.57775e-05
0.000108058
9.5795e-05
8.51238e-05
7.57841e-05
0.000108056
2.35433e-05
2.35443e-05
8.51309e-05
0.000108053
7.57755e-05
9.58001e-05
8.51143e-05
0.000108053
7.57864e-05
6.54945e-05
6.54916e-05
9.07676e-05
6.54998e-05
6.54968e-05
7.80473e-05
4.95279e-05
7.80366e-05
4.95285e-05
2.35442e-05
2.35453e-05
7.80444e-05
4.95228e-05
7.8033e-05
4.95235e-05
0.000124733
0.000124733
0.000124733
0.000124739
0.000124733
0.000124733
0.000124733
8.51289e-05
7.57803e-05
0.000108058
9.57952e-05
8.51258e-05
7.57862e-05
0.000108057
2.35434e-05
2.35444e-05
8.51274e-05
0.000108053
7.57759e-05
9.58003e-05
8.51193e-05
0.000108053
7.57855e-05
6.54965e-05
6.54937e-05
9.07669e-05
6.55011e-05
6.54984e-05
7.80485e-05
4.9528e-05
7.80379e-05
4.95288e-05
2.35442e-05
2.35454e-05
7.80455e-05
4.9523e-05
7.80347e-05
4.95237e-05
0.000124734
0.000124734
0.000124734
0.000124739
0.000124733
0.000124733
0.000124733
8.51304e-05
7.57813e-05
0.000108058
9.57958e-05
8.51276e-05
7.57878e-05
0.000108058
2.35434e-05
2.35446e-05
8.51287e-05
0.000108054
7.5779e-05
9.58015e-05
8.51248e-05
0.000108054
7.57869e-05
6.55001e-05
6.54973e-05
9.07574e-05
6.55045e-05
6.55017e-05
7.80497e-05
4.95282e-05
7.80397e-05
4.95292e-05
2.35442e-05
2.35457e-05
7.80468e-05
4.95231e-05
7.80365e-05
4.95241e-05
0.000124734
0.000124734
0.000124735
0.000124739
0.000124733
0.000124733
0.000124733
8.51311e-05
7.57815e-05
0.00010806
9.57982e-05
8.5128e-05
7.57901e-05
0.00010806
2.35434e-05
2.35448e-05
8.51313e-05
0.000108056
7.57804e-05
9.58043e-05
8.51279e-05
0.000108056
7.57892e-05
6.55052e-05
6.55025e-05
9.07334e-05
6.55088e-05
6.55061e-05
7.80512e-05
4.95284e-05
7.80419e-05
4.95299e-05
2.35442e-05
2.35461e-05
7.80484e-05
4.95233e-05
7.80388e-05
4.95248e-05
0.000124735
0.000124735
0.000124735
0.00012474
0.000124734
0.000124734
0.000124734
8.5133e-05
7.57867e-05
0.000108063
9.58013e-05
8.51295e-05
7.57935e-05
0.000108063
2.35434e-05
2.35453e-05
8.5133e-05
0.000108058
7.57857e-05
9.58081e-05
8.51313e-05
0.000108058
7.57926e-05
6.5514e-05
6.55112e-05
9.07045e-05
6.55168e-05
6.55138e-05
7.80533e-05
4.95287e-05
7.80447e-05
4.95312e-05
2.35441e-05
2.35468e-05
7.80503e-05
4.95237e-05
7.80416e-05
4.95261e-05
0.000124737
0.000124737
0.000124737
0.000124741
0.000124735
0.000124735
0.000124735
8.51345e-05
7.57967e-05
0.000108068
9.5807e-05
8.51322e-05
7.57991e-05
0.000108068
2.35433e-05
2.3546e-05
8.51341e-05
0.000108063
7.57958e-05
9.58141e-05
8.51341e-05
0.000108063
7.57982e-05
6.5528e-05
6.55251e-05
9.07292e-05
6.55232e-05
6.55203e-05
7.8055e-05
4.95292e-05
7.80475e-05
4.95333e-05
2.3544e-05
2.35477e-05
7.80521e-05
4.95242e-05
7.80444e-05
4.95282e-05
0.000124739
0.000124739
0.00012474
0.000124743
0.000124738
0.000124737
0.000124738
8.5136e-05
7.58126e-05
0.000108077
9.58174e-05
8.51344e-05
7.58055e-05
0.000108077
2.35431e-05
2.35468e-05
8.51356e-05
0.000108071
7.58117e-05
9.58236e-05
8.51355e-05
0.000108072
7.58046e-05
6.5531e-05
6.55281e-05
9.07848e-05
6.55106e-05
6.55079e-05
7.80527e-05
4.95295e-05
7.80468e-05
4.95358e-05
2.35434e-05
2.35487e-05
7.80498e-05
4.95244e-05
7.80437e-05
4.95308e-05
0.000124744
0.000124744
0.000124744
0.000124748
0.000124742
0.000124742
0.000124743
8.51341e-05
7.58342e-05
0.00010809
9.58333e-05
8.51407e-05
7.58003e-05
0.000108092
2.35425e-05
2.35477e-05
8.5134e-05
0.000108085
7.58335e-05
9.58386e-05
8.51407e-05
0.000108087
7.57997e-05
6.55121e-05
6.55096e-05
9.07659e-05
6.54656e-05
6.54632e-05
7.80378e-05
4.95276e-05
7.80352e-05
4.95386e-05
2.3542e-05
2.35496e-05
7.80361e-05
4.95225e-05
7.80321e-05
4.95333e-05
0.000124752
0.000124753
0.000124753
0.00012472
0.000124714
0.000124715
0.000124715
8.51259e-05
7.58394e-05
0.000108111
9.58587e-05
8.51492e-05
7.5754e-05
0.000108101
2.35409e-05
2.35485e-05
8.51258e-05
0.000108107
7.58381e-05
9.58627e-05
8.51491e-05
0.000108096
7.57516e-05
6.54552e-05
6.5453e-05
9.07358e-05
6.53583e-05
6.53561e-05
7.80635e-05
4.95268e-05
7.79936e-05
4.95742e-05
2.35412e-05
2.35632e-05
7.80634e-05
4.95214e-05
7.79936e-05
4.95686e-05
0.000124857
0.000124858
0.000124858
0.0001227
0.000122695
0.000122699
0.000122699
8.51006e-05
7.58254e-05
0.000108229
9.57483e-05
8.51593e-05
7.5691e-05
0.000107952
2.35403e-05
2.35626e-05
8.51002e-05
0.000108227
7.58239e-05
9.57539e-05
8.5159e-05
0.000107951
7.56898e-05
6.5318e-05
6.53167e-05
9.08119e-05
6.512e-05
6.51174e-05
8.01671e-05
5.33831e-05
7.81112e-05
9.10142e-05
2.64815e-05
4.25736e-05
8.01673e-05
5.33784e-05
7.81104e-05
9.10132e-05
0.000168921
0.00014571
0.000145716
0.000120465
0.000168485
0.000144871
0.000144877
8.58846e-05
7.6371e-05
0.00011119
9.7454e-05
8.51481e-05
8.2269e-05
0.000113313
2.64803e-05
4.2569e-05
8.58831e-05
0.000111187
7.637e-05
9.74628e-05
8.51477e-05
0.000113309
8.22672e-05
6.55698e-05
6.55655e-05
9.08502e-05
6.95018e-05
6.95038e-05
2.35473e-05
2.35452e-05
9.0707e-05
6.54977e-05
6.54949e-05
2.35472e-05
2.35464e-05
2.35451e-05
2.35443e-05
9.07303e-05
6.54978e-05
6.54951e-05
6.54921e-05
6.54894e-05
7.80332e-05
4.95221e-05
8.51378e-05
9.57822e-05
7.57767e-05
0.000108056
8.51347e-05
9.57619e-05
7.5759e-05
0.000108045
7.80247e-05
4.9528e-05
4.95276e-05
7.80373e-05
7.8022e-05
4.95221e-05
4.95217e-05
7.80347e-05
8.51346e-05
9.57821e-05
7.57791e-05
0.000108054
7.57661e-05
0.000108055
8.51389e-05
8.51315e-05
9.57619e-05
7.57617e-05
0.000108043
7.57507e-05
0.000108044
8.51364e-05
9.06992e-05
6.54804e-05
6.54988e-05
2.35465e-05
2.3545e-05
2.35441e-05
9.07282e-05
6.54806e-05
6.54989e-05
6.54746e-05
6.54933e-05
2.35464e-05
2.35455e-05
9.57911e-05
7.57716e-05
7.80216e-05
4.95229e-05
4.95225e-05
7.80341e-05
8.5135e-05
9.57911e-05
7.57733e-05
0.00010805
7.57597e-05
0.000108051
8.51394e-05
7.80195e-05
4.95191e-05
4.95187e-05
7.80321e-05
8.51332e-05
9.57725e-05
0.000108041
7.57674e-05
0.000108042
7.57538e-05
8.51374e-05
7.80221e-05
4.95239e-05
8.51335e-05
0.000108061
7.80314e-05
8.51318e-05
9.57949e-05
7.57764e-05
0.000108064
7.57642e-05
0.000108066
8.5133e-05
7.80107e-05
4.95239e-05
4.95235e-05
7.80243e-05
8.51326e-05
9.57859e-05
0.000108059
7.57713e-05
0.00010806
7.57573e-05
8.5134e-05
7.80204e-05
4.952e-05
4.95196e-05
7.80325e-05
2.35442e-05
2.35434e-05
9.07318e-05
6.54881e-05
6.54963e-05
6.54823e-05
6.549e-05
2.35464e-05
2.35455e-05
8.51345e-05
9.57999e-05
0.00010806
7.57754e-05
0.000108061
7.57618e-05
8.51331e-05
8.51302e-05
9.57889e-05
0.000108054
7.57678e-05
0.000108054
7.5754e-05
8.51273e-05
7.8009e-05
4.95241e-05
4.95237e-05
7.80228e-05
7.80005e-05
4.95184e-05
4.9518e-05
7.80152e-05
9.07253e-05
6.54915e-05
6.54885e-05
6.54854e-05
6.54824e-05
2.35451e-05
2.35442e-05
2.35439e-05
2.35431e-05
2.35463e-05
2.35472e-05
2.35442e-05
2.35451e-05
6.54923e-05
6.54897e-05
9.06914e-05
6.5498e-05
6.54955e-05
2.35472e-05
2.35463e-05
2.35451e-05
2.35442e-05
9.07259e-05
6.54983e-05
6.54957e-05
6.54925e-05
6.549e-05
7.8036e-05
4.95216e-05
7.80235e-05
4.9522e-05
8.51382e-05
7.57683e-05
0.000108054
9.57807e-05
8.51399e-05
7.57804e-05
0.000108053
8.51351e-05
7.57531e-05
0.000108043
9.57601e-05
8.51374e-05
7.57622e-05
0.000108042
7.80275e-05
4.95279e-05
4.95275e-05
7.80402e-05
7.80248e-05
4.9522e-05
4.95215e-05
7.80376e-05
8.51354e-05
9.57825e-05
7.57823e-05
0.000108052
7.57693e-05
0.000108053
8.51413e-05
8.51321e-05
9.57618e-05
7.5765e-05
0.000108041
7.57538e-05
0.000108042
8.51388e-05
6.54749e-05
6.54934e-05
9.06797e-05
6.5481e-05
6.54991e-05
2.35455e-05
2.35463e-05
2.35449e-05
2.3544e-05
9.07074e-05
6.54813e-05
6.54994e-05
6.54753e-05
6.54936e-05
2.35463e-05
2.35454e-05
8.51323e-05
7.57614e-05
0.00010805
9.57897e-05
8.51371e-05
7.5775e-05
0.000108049
7.80335e-05
4.95186e-05
7.80208e-05
4.9519e-05
8.513e-05
0.000108041
7.5756e-05
9.5772e-05
8.51345e-05
0.00010804
7.57696e-05
7.80244e-05
4.95228e-05
4.95224e-05
7.80371e-05
8.51325e-05
9.57914e-05
7.57765e-05
0.000108049
7.5763e-05
0.000108049
8.51421e-05
7.80223e-05
4.9519e-05
4.95186e-05
7.80351e-05
8.51306e-05
9.57705e-05
0.00010804
7.57712e-05
0.00010804
7.57577e-05
8.51407e-05
7.80265e-05
4.95234e-05
7.80128e-05
4.95238e-05
8.51322e-05
0.000108059
7.57603e-05
9.57868e-05
8.51315e-05
0.000108058
7.57726e-05
7.80338e-05
4.95196e-05
7.80214e-05
4.952e-05
8.51319e-05
9.57945e-05
7.57803e-05
0.000108062
7.57675e-05
0.000108062
8.51375e-05
7.80152e-05
4.95238e-05
4.95233e-05
7.80286e-05
8.51331e-05
9.57867e-05
0.000108058
7.57747e-05
0.000108058
7.57615e-05
8.51389e-05
7.80228e-05
4.95199e-05
4.95195e-05
7.80352e-05
6.54828e-05
6.54909e-05
9.07845e-05
6.54885e-05
6.54967e-05
2.35455e-05
2.35463e-05
2.35441e-05
2.35433e-05
9.07117e-05
6.5489e-05
6.5497e-05
6.54832e-05
6.54912e-05
2.35463e-05
2.35454e-05
8.51259e-05
0.000108053
7.57559e-05
9.57897e-05
8.5124e-05
0.000108053
7.57696e-05
7.8025e-05
4.95237e-05
7.80112e-05
4.95241e-05
7.80174e-05
4.95179e-05
7.8003e-05
4.95183e-05
8.51321e-05
9.5798e-05
0.000108058
7.57794e-05
0.000108059
7.5766e-05
8.51373e-05
8.51273e-05
9.57895e-05
0.000108052
7.57711e-05
0.000108053
7.57577e-05
8.51307e-05
7.80134e-05
4.9524e-05
4.95236e-05
7.80269e-05
7.80052e-05
4.95183e-05
4.95179e-05
7.80194e-05
2.35442e-05
2.3545e-05
2.3543e-05
2.35439e-05
9.07959e-05
6.54921e-05
6.54893e-05
6.54864e-05
6.54835e-05
2.3545e-05
2.35441e-05
2.35438e-05
2.3543e-05
2.35463e-05
2.35471e-05
2.35442e-05
2.3545e-05
6.54929e-05
6.54903e-05
9.06764e-05
6.54986e-05
6.54962e-05
2.35471e-05
2.35462e-05
2.3545e-05
2.35441e-05
9.0696e-05
6.54989e-05
6.54965e-05
6.54932e-05
6.54908e-05
7.80387e-05
4.95215e-05
7.80264e-05
4.95219e-05
8.51455e-05
7.57716e-05
0.000108052
9.57812e-05
8.51434e-05
7.57828e-05
0.000108053
8.51428e-05
7.57566e-05
0.000108041
9.57599e-05
8.51411e-05
7.57651e-05
0.000108041
7.803e-05
4.95278e-05
4.95274e-05
7.80418e-05
7.80273e-05
4.95219e-05
4.95215e-05
7.80393e-05
8.5143e-05
9.57855e-05
7.57833e-05
0.000108057
7.57709e-05
0.000108055
8.51462e-05
8.51401e-05
9.57635e-05
7.57654e-05
0.000108045
7.57551e-05
0.000108044
8.51435e-05
6.54755e-05
6.5494e-05
9.06691e-05
6.54814e-05
6.54998e-05
2.35454e-05
2.35463e-05
2.35449e-05
2.3544e-05
9.06707e-05
6.54817e-05
6.55001e-05
6.54757e-05
6.54943e-05
2.35463e-05
2.35454e-05
8.51389e-05
7.57645e-05
0.000108048
9.57901e-05
8.5142e-05
7.57775e-05
0.000108048
7.80362e-05
4.95185e-05
7.80237e-05
4.95189e-05
8.51365e-05
0.000108039
7.57592e-05
9.57731e-05
8.51403e-05
0.000108039
7.57721e-05
7.8027e-05
4.95227e-05
4.95223e-05
7.80391e-05
8.51382e-05
9.57943e-05
7.57779e-05
0.000108052
7.57653e-05
0.00010805
8.51465e-05
7.80249e-05
4.95188e-05
4.95184e-05
7.80371e-05
8.51359e-05
9.57728e-05
0.000108043
7.57725e-05
0.000108041
7.57599e-05
8.51454e-05
7.80301e-05
4.95233e-05
7.8017e-05
4.95237e-05
8.51393e-05
0.000108058
7.57635e-05
9.57868e-05
8.51375e-05
0.000108058
7.57749e-05
7.80363e-05
4.95195e-05
7.80241e-05
4.95199e-05
8.51384e-05
9.57965e-05
7.57816e-05
0.000108065
7.57692e-05
0.000108065
8.51403e-05
7.80184e-05
4.95237e-05
4.95232e-05
7.80304e-05
8.51399e-05
9.57893e-05
0.000108062
7.5776e-05
0.00010806
7.57633e-05
8.51432e-05
7.80251e-05
4.95198e-05
4.95194e-05
7.80364e-05
6.54836e-05
6.54915e-05
9.08218e-05
6.54892e-05
6.5497e-05
2.35454e-05
2.35462e-05
2.35441e-05
2.35432e-05
9.07535e-05
6.54893e-05
6.54971e-05
6.54839e-05
6.54915e-05
2.35462e-05
2.35453e-05
8.51298e-05
0.000108052
7.5759e-05
9.57898e-05
8.51281e-05
0.000108052
7.5772e-05
7.80287e-05
4.95235e-05
7.80152e-05
4.95239e-05
7.80211e-05
4.95178e-05
7.8007e-05
4.95182e-05
8.51365e-05
9.58001e-05
0.000108061
7.57808e-05
0.000108059
7.5768e-05
8.51427e-05
8.51316e-05
9.57921e-05
0.000108056
7.57725e-05
0.000108054
7.57598e-05
8.51358e-05
7.8017e-05
4.95239e-05
4.95235e-05
7.80297e-05
7.80088e-05
4.95182e-05
4.95178e-05
7.80223e-05
2.35441e-05
2.35449e-05
2.35429e-05
2.35438e-05
9.07741e-05
6.54924e-05
6.54895e-05
6.54867e-05
6.5484e-05
2.35449e-05
2.3544e-05
2.35438e-05
2.35429e-05
2.35462e-05
2.35471e-05
2.35441e-05
2.3545e-05
6.54934e-05
6.5491e-05
9.06778e-05
6.5499e-05
6.54966e-05
2.35471e-05
2.35462e-05
2.3545e-05
2.35441e-05
9.06644e-05
6.54995e-05
6.54967e-05
6.54936e-05
6.54911e-05
7.80386e-05
4.95215e-05
7.80277e-05
4.95219e-05
8.51457e-05
7.57724e-05
0.000108058
9.57857e-05
8.51469e-05
7.5782e-05
0.000108058
8.51431e-05
7.57569e-05
0.000108046
9.57651e-05
8.51443e-05
7.57637e-05
0.000108047
7.80293e-05
4.95278e-05
4.95273e-05
7.80398e-05
7.80267e-05
4.9522e-05
4.95215e-05
7.80373e-05
8.51422e-05
9.57859e-05
7.57811e-05
0.000108056
7.57695e-05
0.000108058
8.51363e-05
8.51394e-05
9.57651e-05
7.57674e-05
0.000108045
7.57545e-05
0.000108047
8.51337e-05
6.5476e-05
6.54945e-05
9.06823e-05
6.54821e-05
6.55002e-05
2.35454e-05
2.35462e-05
2.35449e-05
2.3544e-05
9.06532e-05
6.54828e-05
6.55006e-05
6.54765e-05
6.54947e-05
2.35463e-05
2.35454e-05
8.51416e-05
7.57657e-05
0.000108053
9.57949e-05
8.51463e-05
7.57777e-05
0.000108054
7.80372e-05
4.95184e-05
7.80256e-05
4.95188e-05
8.51392e-05
0.000108044
7.57602e-05
9.57786e-05
8.51451e-05
0.000108045
7.57721e-05
7.80276e-05
4.95227e-05
4.95222e-05
7.80388e-05
8.51394e-05
9.57952e-05
7.57762e-05
0.000108053
7.5765e-05
0.000108054
8.51441e-05
7.80255e-05
4.95188e-05
4.95184e-05
7.80368e-05
8.51369e-05
9.57771e-05
0.000108045
7.5771e-05
0.000108045
7.57596e-05
8.51427e-05
7.80296e-05
4.95232e-05
7.80182e-05
4.95237e-05
8.51367e-05
0.000108063
7.57645e-05
9.57899e-05
8.51404e-05
0.000108064
7.5775e-05
7.80355e-05
4.95194e-05
7.80249e-05
4.95198e-05
8.51278e-05
9.57978e-05
7.57791e-05
0.000108067
7.57674e-05
0.00010807
8.51181e-05
7.80174e-05
4.95237e-05
4.95232e-05
7.80289e-05
8.51342e-05
9.57906e-05
0.000108061
7.57736e-05
0.000108064
7.57629e-05
8.51253e-05
7.80239e-05
4.95198e-05
4.95193e-05
7.80344e-05
6.54839e-05
6.54916e-05
9.08454e-05
6.54891e-05
6.54972e-05
2.35453e-05
2.35462e-05
2.3544e-05
2.35432e-05
9.08113e-05
6.54891e-05
6.54973e-05
6.54837e-05
6.54917e-05
2.35462e-05
2.35453e-05
8.51303e-05
0.000108057
7.57602e-05
9.57926e-05
8.51329e-05
0.000108058
7.57723e-05
7.80301e-05
4.95234e-05
7.80177e-05
4.95238e-05
7.80226e-05
4.95177e-05
7.80096e-05
4.95181e-05
8.51349e-05
9.58047e-05
0.000108063
7.57808e-05
0.000108064
7.57681e-05
8.51401e-05
8.51304e-05
9.57934e-05
0.000108057
7.57714e-05
0.000108058
7.57599e-05
8.51329e-05
7.8018e-05
4.95238e-05
4.95234e-05
7.80297e-05
7.80098e-05
4.95181e-05
4.95177e-05
7.80221e-05
2.3544e-05
2.35449e-05
2.35429e-05
2.35437e-05
9.07062e-05
6.54926e-05
6.54897e-05
6.5487e-05
6.54841e-05
2.35449e-05
2.3544e-05
2.35437e-05
2.35429e-05
2.35462e-05
2.35471e-05
2.35441e-05
2.3545e-05
6.54942e-05
6.54913e-05
9.06978e-05
6.55002e-05
6.54972e-05
2.35471e-05
2.35462e-05
2.3545e-05
2.35441e-05
9.06546e-05
6.55005e-05
6.54978e-05
6.54948e-05
6.54919e-05
7.80366e-05
4.95216e-05
7.80255e-05
4.9522e-05
8.51222e-05
7.5771e-05
0.000108054
9.57813e-05
8.51315e-05
7.57856e-05
0.000108051
8.51198e-05
7.57596e-05
0.000108043
9.57609e-05
8.51291e-05
7.5773e-05
0.00010804
7.80277e-05
4.95279e-05
4.95274e-05
7.80397e-05
7.80251e-05
4.95219e-05
4.95215e-05
7.80372e-05
8.51199e-05
9.5781e-05
7.57866e-05
0.000108048
7.57754e-05
0.000108049
8.51229e-05
8.51174e-05
9.57603e-05
7.57657e-05
0.000108037
7.57616e-05
0.000108038
8.51204e-05
6.54772e-05
6.54952e-05
9.07143e-05
6.54832e-05
6.55013e-05
2.35454e-05
2.35463e-05
2.35449e-05
2.3544e-05
9.06606e-05
6.54831e-05
6.55016e-05
6.54774e-05
6.54959e-05
2.35463e-05
2.35454e-05
8.51364e-05
7.57641e-05
0.000108051
9.57902e-05
8.51438e-05
7.57777e-05
0.000108048
7.80355e-05
4.95184e-05
7.8025e-05
4.95189e-05
8.51346e-05
0.000108043
7.57585e-05
9.57754e-05
8.51426e-05
0.00010804
7.57707e-05
7.80256e-05
4.95228e-05
4.95223e-05
7.80366e-05
8.5131e-05
9.57899e-05
7.57804e-05
0.000108045
7.57665e-05
0.000108047
8.51229e-05
7.80235e-05
4.95189e-05
4.95184e-05
7.80346e-05
8.51292e-05
9.57732e-05
0.000108036
7.57727e-05
0.000108038
7.57592e-05
8.51215e-05
7.80293e-05
4.95232e-05
7.80169e-05
4.95237e-05
8.51171e-05
0.000108059
7.57616e-05
9.57855e-05
8.51201e-05
0.000108056
7.57744e-05
7.80342e-05
4.95194e-05
7.80229e-05
4.95198e-05
8.51149e-05
9.57938e-05
7.57843e-05
0.00010806
7.57719e-05
0.000108062
8.51231e-05
7.80175e-05
4.95237e-05
4.95233e-05
7.80302e-05
8.51162e-05
9.57855e-05
0.000108054
7.57778e-05
0.000108055
7.57637e-05
8.51209e-05
7.8023e-05
4.95199e-05
4.95194e-05
7.8035e-05
6.54837e-05
6.54919e-05
9.08187e-05
6.54894e-05
6.54975e-05
2.35453e-05
2.35462e-05
2.35441e-05
2.35432e-05
9.08235e-05
6.54901e-05
6.54977e-05
6.54842e-05
6.5492e-05
2.35462e-05
2.35453e-05
8.51168e-05
0.000108055
7.57587e-05
9.57882e-05
8.51286e-05
0.000108052
7.57707e-05
7.80286e-05
4.95234e-05
7.80172e-05
4.95238e-05
7.80211e-05
4.95177e-05
7.80091e-05
4.95182e-05
8.51191e-05
9.5802e-05
0.000108055
7.57805e-05
0.000108057
7.57676e-05
8.51169e-05
8.51131e-05
9.57882e-05
0.000108048
7.57728e-05
0.00010805
7.57592e-05
8.51103e-05
7.80165e-05
4.95238e-05
4.95233e-05
7.80287e-05
7.80083e-05
4.95182e-05
4.95177e-05
7.80212e-05
2.3544e-05
2.35449e-05
2.35429e-05
2.35437e-05
9.06554e-05
6.54938e-05
6.54906e-05
6.54877e-05
6.54846e-05
2.35449e-05
2.3544e-05
2.35437e-05
2.35429e-05
2.35462e-05
2.35471e-05
2.35441e-05
2.3545e-05
6.54949e-05
6.54924e-05
9.07544e-05
6.55004e-05
6.5498e-05
2.35471e-05
2.35462e-05
2.3545e-05
2.35441e-05
9.06873e-05
6.5501e-05
6.54982e-05
6.5495e-05
6.54925e-05
7.8038e-05
4.95215e-05
7.8026e-05
4.95219e-05
8.51363e-05
7.57743e-05
0.000108048
9.57772e-05
8.51242e-05
7.57822e-05
0.000108047
8.5134e-05
7.57555e-05
0.000108037
9.57571e-05
8.51216e-05
7.57656e-05
0.000108036
7.80291e-05
4.95279e-05
4.95274e-05
7.80402e-05
7.80265e-05
4.95219e-05
4.95215e-05
7.80376e-05
8.51373e-05
9.57766e-05
7.57844e-05
0.000108046
7.57709e-05
0.000108047
8.51267e-05
8.51349e-05
9.57563e-05
7.57679e-05
0.000108035
7.57576e-05
0.000108036
8.51236e-05
6.54773e-05
6.54961e-05
9.07736e-05
6.54833e-05
6.55017e-05
2.35454e-05
2.35463e-05
2.35449e-05
2.3544e-05
9.07031e-05
6.54838e-05
6.55022e-05
6.54776e-05
6.54963e-05
2.35463e-05
2.35454e-05
8.51195e-05
7.57685e-05
0.000108044
9.57865e-05
8.51203e-05
7.57803e-05
0.000108043
7.80349e-05
4.95185e-05
7.8023e-05
4.95189e-05
8.51179e-05
0.000108036
7.57617e-05
9.57703e-05
8.51191e-05