/*--------------------------------*- C++ -*----------------------------------*\
| =========                 |                                                 |
| \\      /  F ield         | OpenFOAM: The Open Source CFD Toolbox           |
|  \\    /   O peration     | Version:  2312                                  |
|   \\  /    A nd           | Website:  www.openfoam.com                      |
|    \\/     M anipulation  |                                                 |
\*---------------------------------------------------------------------------*/
FoamFile
{
    version     2.0;
    format      ascii;
    arch        "LSB;label=32;scalar=64";
    class       volScalarField;
    location    "125";
    object      nut;
}
// * * * * * * * * * * * * * * * * * * * * * * * * * * * * * * * * * * * * * //

dimensions      [0 2 -1 0 0 0 0];

internalField   nonuniform List<scalar> 
42840
(
0.000146055
9.88889e-05
9.88868e-05
8.2092e-05
0.000142058
9.66056e-05
9.6604e-05
8.21814e-05
0.000138159
9.49132e-05
9.49128e-05
8.28173e-05
0.00013479
9.40086e-05
9.4008e-05
8.40586e-05
0.000131479
9.37659e-05
9.37687e-05
8.59984e-05
0.000129922
9.50337e-05
9.5033e-05
8.85468e-05
0.000129183
9.61013e-05
9.61035e-05
9.01723e-05
0.000126866
9.57e-05
9.57035e-05
9.0471e-05
0.000124983
9.53377e-05
9.53428e-05
9.03286e-05
0.000124486
9.53781e-05
9.5386e-05
9.04742e-05
0.000124537
9.56281e-05
9.56355e-05
9.06265e-05
0.000124662
9.57457e-05
9.57529e-05
9.07249e-05
0.000124708
9.5779e-05
9.57876e-05
9.07423e-05
0.000124721
9.57898e-05
9.57978e-05
9.07351e-05
0.000124726
9.57952e-05
9.58026e-05
9.07462e-05
0.000124727
9.57947e-05
9.58019e-05
9.07462e-05
0.000124728
9.57939e-05
9.58012e-05
9.07306e-05
0.000124728
9.57938e-05
9.58012e-05
9.07466e-05
0.000124728
9.57947e-05
9.58021e-05
9.07672e-05
0.000124729
9.57942e-05
9.58022e-05
9.07343e-05
0.000124729
9.57945e-05
9.58027e-05
9.07487e-05
0.00012473
9.57944e-05
9.58023e-05
9.07528e-05
0.000124732
9.57953e-05
9.58034e-05
9.07932e-05
0.000124733
9.57957e-05
9.58037e-05
9.07355e-05
0.000124731
9.57921e-05
9.58001e-05
9.06778e-05
8.21003e-05
8.22402e-05
9.8861e-05
9.88498e-05
9.71133e-05
9.71034e-05
8.20982e-05
8.2238e-05
9.88817e-05
9.88495e-05
9.71336e-05
9.71029e-05
9.88643e-05
9.71403e-05
9.71177e-05
8.20947e-05
8.22349e-05
9.88756e-05
9.71396e-05
9.71281e-05
8.22321e-05
8.21886e-05
8.27479e-05
9.6578e-05
9.65687e-05
9.52244e-05
9.52157e-05
8.21868e-05
8.27459e-05
9.65982e-05
9.65682e-05
9.52438e-05
9.52154e-05
9.65828e-05
9.52499e-05
9.523e-05
8.21837e-05
8.27433e-05
9.65928e-05
9.52499e-05
9.52393e-05
8.27413e-05
8.28232e-05
8.38825e-05
9.48876e-05
9.48792e-05
9.41629e-05
9.41557e-05
8.28211e-05
8.38815e-05
9.49069e-05
9.48788e-05
9.41817e-05
9.41556e-05
9.48935e-05
9.41892e-05
9.41695e-05
8.28188e-05
8.38786e-05
9.49023e-05
9.41889e-05
9.41776e-05
8.38766e-05
8.4064e-05
8.56548e-05
9.39831e-05
9.39759e-05
9.36922e-05
9.36853e-05
8.40632e-05
8.56516e-05
9.40014e-05
9.39758e-05
9.37099e-05
9.36861e-05
9.39896e-05
9.3715e-05
9.36999e-05
8.40603e-05
8.56513e-05
9.39974e-05
9.37172e-05
9.37067e-05
8.56488e-05
8.60038e-05
8.81205e-05
9.37432e-05
9.37368e-05
9.45796e-05
9.4574e-05
8.6001e-05
8.81202e-05
9.37611e-05
9.37381e-05
9.45966e-05
9.45744e-05
9.37515e-05
9.46036e-05
9.45881e-05
8.60007e-05
8.81183e-05
9.37586e-05
9.4604e-05
9.45944e-05
8.81176e-05
8.85494e-05
9.00117e-05
9.50093e-05
9.50037e-05
9.59701e-05
9.59642e-05
8.85497e-05
9.00103e-05
9.50255e-05
9.50034e-05
9.5985e-05
9.59643e-05
9.50176e-05
9.59928e-05
9.5979e-05
8.8547e-05
9.00095e-05
9.50229e-05
9.59945e-05
9.59826e-05
9.00082e-05
9.01756e-05
9.04868e-05
9.60792e-05
9.60732e-05
9.59305e-05
9.59246e-05
9.01739e-05
9.04845e-05
9.60941e-05
9.60735e-05
9.59461e-05
9.5925e-05
9.60883e-05
9.59531e-05
9.59404e-05
9.01737e-05
9.04855e-05
9.60917e-05
9.59556e-05
9.59433e-05
9.04833e-05
9.04746e-05
9.03639e-05
9.56772e-05
9.56716e-05
9.53686e-05
9.53638e-05
9.04721e-05
9.03623e-05
9.56928e-05
9.5673e-05
9.53844e-05
9.53665e-05
9.56879e-05
9.53903e-05
9.53808e-05
9.04734e-05
9.03648e-05
9.56907e-05
9.53959e-05
9.53836e-05
9.03633e-05
9.0329e-05
9.04561e-05
9.5317e-05
9.53118e-05
9.52745e-05
9.52701e-05
9.03275e-05
9.04539e-05
9.53323e-05
9.53145e-05
9.52903e-05
9.52746e-05
9.53289e-05
9.52955e-05
9.52879e-05
9.03298e-05
9.0459e-05
9.53317e-05
9.53034e-05
9.52911e-05
9.04567e-05
9.04728e-05
9.0624e-05
9.53569e-05
9.53523e-05
9.5558e-05
9.55534e-05
9.04707e-05
9.06214e-05
9.53726e-05
9.53571e-05
9.55737e-05
9.55577e-05
9.53701e-05
9.55788e-05
9.55707e-05
9.04755e-05
9.06261e-05
9.53734e-05
9.55863e-05
9.55738e-05
9.06229e-05
9.06266e-05
9.07338e-05
9.56064e-05
9.56023e-05
9.57049e-05
9.57007e-05
9.06242e-05
9.07316e-05
9.56225e-05
9.56064e-05
9.57209e-05
9.57048e-05
9.56194e-05
9.57263e-05
9.57181e-05
9.06286e-05
9.0736e-05
9.56225e-05
9.57336e-05
9.5721e-05
9.07327e-05
9.07255e-05
9.07593e-05
9.57236e-05
9.57199e-05
9.57526e-05
9.57476e-05
9.07235e-05
9.07567e-05
9.57399e-05
9.57237e-05
9.57685e-05
9.57525e-05
9.57372e-05
9.57736e-05
9.57654e-05
9.07277e-05
9.07615e-05
9.57398e-05
9.57819e-05
9.5769e-05
9.07587e-05
9.07427e-05
9.07519e-05
9.57573e-05
9.57526e-05
9.57668e-05
9.57619e-05
9.074e-05
9.07485e-05
9.57739e-05
9.57579e-05
9.57827e-05
9.57667e-05
9.57706e-05
9.57883e-05
9.57793e-05
9.07448e-05
9.07537e-05
9.57743e-05
9.57965e-05
9.5783e-05
9.07505e-05
9.07363e-05
9.07636e-05
9.57686e-05
9.57643e-05
9.57729e-05
9.57685e-05
9.0733e-05
9.0761e-05
9.57848e-05
9.57688e-05
9.57886e-05
9.57727e-05
9.57815e-05
9.57945e-05
9.57853e-05
9.0738e-05
9.07651e-05
9.57849e-05
9.58021e-05
9.57884e-05
9.0762e-05
9.07474e-05
9.07596e-05
9.57739e-05
9.577e-05
9.57735e-05
9.57698e-05
9.07451e-05
9.0757e-05
9.57899e-05
9.57738e-05
9.57896e-05
9.57738e-05
9.57867e-05
9.57948e-05
9.57876e-05
9.07488e-05
9.07615e-05
9.57898e-05
9.58021e-05
9.57902e-05
9.07585e-05
9.07471e-05
9.07484e-05
9.57731e-05
9.57696e-05
9.57724e-05
9.57688e-05
9.07445e-05
9.07463e-05
9.57894e-05
9.57732e-05
9.57886e-05
9.57723e-05
9.57871e-05
9.57939e-05
9.5786e-05
9.07489e-05
9.07497e-05
9.57899e-05
9.58012e-05
9.5789e-05
9.07478e-05
9.07311e-05
9.07746e-05
9.57725e-05
9.57688e-05
9.57727e-05
9.57689e-05
9.07293e-05
9.07714e-05
9.57886e-05
9.57723e-05
9.57887e-05
9.57725e-05
9.5786e-05
9.57943e-05
9.57861e-05
9.07327e-05
9.07754e-05
9.5789e-05
9.58014e-05
9.57892e-05
9.07731e-05
9.07476e-05
9.07754e-05
9.57723e-05
9.57685e-05
9.57728e-05
9.5769e-05
9.07443e-05
9.0774e-05
9.57884e-05
9.57722e-05
9.57889e-05
9.5773e-05
9.57857e-05
9.57946e-05
9.57863e-05
9.07475e-05
9.07811e-05
9.57888e-05
9.58019e-05
9.57893e-05
9.07743e-05
9.07695e-05
9.07414e-05
9.57731e-05
9.5769e-05
9.57732e-05
9.57679e-05
9.07673e-05
9.07399e-05
9.57891e-05
9.57731e-05
9.57889e-05
9.57729e-05
9.57864e-05
9.57942e-05
9.57862e-05
9.07743e-05
9.07435e-05
9.57894e-05
9.5802e-05
9.57892e-05
9.07446e-05
9.07316e-05
9.07646e-05
9.57736e-05
9.57679e-05
9.57747e-05
9.57678e-05
9.07309e-05
9.07601e-05
9.57893e-05
9.57733e-05
9.57897e-05
9.57736e-05
9.57865e-05
9.57944e-05
9.5787e-05
9.0737e-05
9.07582e-05
9.57895e-05
9.58026e-05
9.57901e-05
9.07641e-05
9.07461e-05
9.07708e-05
9.5775e-05
9.57676e-05
9.57757e-05
9.57675e-05
9.07437e-05
9.07633e-05
9.57898e-05
9.57738e-05
9.57901e-05
9.57738e-05
9.57871e-05
9.57947e-05
9.57871e-05
9.07409e-05
9.07719e-05
9.57901e-05
9.58029e-05
9.57902e-05
9.07646e-05
9.07566e-05
9.07852e-05
9.57758e-05
9.57672e-05
9.57776e-05
9.57683e-05
9.07512e-05
9.07743e-05
9.57899e-05
9.57735e-05
9.57907e-05
9.57747e-05
9.57869e-05
9.57952e-05
9.57878e-05
9.07526e-05
9.07921e-05
9.57899e-05
9.58035e-05
9.57908e-05
9.07802e-05
9.07966e-05
9.07041e-05
9.57777e-05
9.57681e-05
9.57775e-05
9.5766e-05
9.07881e-05
9.06954e-05
9.57907e-05
9.57745e-05
9.57897e-05
9.57734e-05
9.57877e-05
9.57938e-05
9.57868e-05
9.08014e-05
9.07039e-05
9.57907e-05
9.58019e-05
9.57897e-05
9.07034e-05
9.07351e-05
9.07219e-05
9.57796e-05
9.57673e-05
9.5777e-05
9.57638e-05
9.07247e-05
9.07175e-05
9.57916e-05
9.5775e-05
9.57884e-05
9.57719e-05
9.57887e-05
9.57923e-05
9.57855e-05
9.07346e-05
9.07226e-05
9.57916e-05
9.58004e-05
9.57883e-05
9.07222e-05
9.06759e-05
9.57767e-05
9.57633e-05
9.06699e-05
9.57881e-05
9.57716e-05
9.57851e-05
9.06752e-05
9.57879e-05
7.20762e-05
4.9576e-05
4.95845e-05
7.11923e-05
2.36149e-05
2.36116e-05
7.20734e-05
4.95706e-05
4.95791e-05
7.11904e-05
0.00014605
0.000146046
0.000146045
0.000143079
0.000143074
0.00014307
0.000143069
7.00401e-05
6.77035e-05
0.000122223
9.82819e-05
6.83464e-05
0.000121286
6.90342e-05
2.3614e-05
2.36108e-05
7.00408e-05
0.000122212
6.76918e-05
9.82808e-05
0.000121284
6.83585e-05
6.9035e-05
6.20235e-05
6.20219e-05
8.21742e-05
6.24364e-05
6.24347e-05
7.37911e-05
4.95957e-05
7.3072e-05
4.96002e-05
2.36036e-05
2.36003e-05
7.37882e-05
4.95903e-05
7.30699e-05
4.95948e-05
0.000142055
0.00014205
0.000142049
0.000139071
0.000139067
0.000139063
0.000139062
7.3048e-05
6.94957e-05
0.000118565
9.61025e-05
7.20509e-05
7.01244e-05
0.000117647
2.36028e-05
2.35995e-05
7.30487e-05
0.000118553
6.94856e-05
9.61017e-05
7.20523e-05
0.000117644
7.01331e-05
6.28924e-05
6.28907e-05
8.24054e-05
6.32622e-05
6.32605e-05
7.54254e-05
4.96034e-05
7.47034e-05
4.96094e-05
2.3593e-05
2.35914e-05
7.54222e-05
4.9598e-05
7.4701e-05
4.9604e-05
0.000138156
0.000138151
0.000138151
0.000135633
0.00013563
0.000135625
0.000135625
7.61006e-05
7.12221e-05
0.000115218
9.46328e-05
7.50471e-05
7.18415e-05
0.000114482
2.35922e-05
2.35906e-05
7.61082e-05
0.000115207
7.12163e-05
9.46329e-05
7.50457e-05
0.000114479
7.18474e-05
6.37072e-05
6.37063e-05
8.32442e-05
6.40596e-05
6.40567e-05
7.67393e-05
4.96177e-05
7.62227e-05
4.96185e-05
2.35854e-05
2.35824e-05
7.67363e-05
4.96123e-05
7.62201e-05
4.96131e-05
0.000134787
0.000134782
0.000134781
0.000132218
0.000132215
0.000132211
0.000132211
7.92352e-05
7.28499e-05
0.000112536
9.38591e-05
7.8193e-05
7.34065e-05
0.000111916
2.35845e-05
2.35816e-05
7.92419e-05
0.000112527
7.28434e-05
9.38594e-05
7.81897e-05
0.000111912
7.34134e-05
6.44795e-05
6.4478e-05
8.46542e-05
6.47429e-05
6.4741e-05
7.76127e-05
4.96113e-05
7.72929e-05
4.96054e-05
2.35748e-05
2.35719e-05
7.76103e-05
4.96059e-05
7.729e-05
4.96e-05
0.000131475
0.000131472
0.000131471
0.000130075
0.000130073
0.000130069
0.000130069
8.21077e-05
7.42937e-05
0.000110346
9.39311e-05
8.12021e-05
7.47597e-05
0.000110079
2.3574e-05
2.35711e-05
8.21105e-05
0.00011034
7.42914e-05
9.39342e-05
8.12001e-05
0.000110075
7.47635e-05
6.50713e-05
6.50681e-05
8.68324e-05
6.5276e-05
6.52724e-05
7.80464e-05
4.95885e-05
7.79173e-05
4.95785e-05
2.3564e-05
2.3561e-05
7.8043e-05
4.95832e-05
7.79143e-05
4.95732e-05
0.00012992
0.000129915
0.000129915
0.000129504
0.000129502
0.000129498
0.000129498
8.41408e-05
7.54294e-05
0.000110091
9.54413e-05
8.35873e-05
7.56436e-05
0.000110183
2.35632e-05
2.35602e-05
8.414e-05
0.000110084
7.54282e-05
9.5441e-05
8.35872e-05
0.000110177
7.56508e-05
6.54718e-05
6.54674e-05
8.92258e-05
6.55436e-05
6.55398e-05
7.81795e-05
4.95591e-05
7.81333e-05
4.95514e-05
2.35539e-05
2.35519e-05
7.81761e-05
4.95537e-05
7.81306e-05
4.9546e-05
0.000129182
0.000129177
0.000129177
0.000127507
0.000127505
0.0001275
0.000127501
8.48972e-05
7.57742e-05
0.000110279
9.61224e-05
8.47879e-05
7.58119e-05
0.000110067
2.3553e-05
2.35511e-05
8.49058e-05
0.00011027
7.57811e-05
9.61246e-05
8.47945e-05
0.000110063
7.58224e-05
6.55703e-05
6.55671e-05
9.03843e-05
6.55711e-05
6.55677e-05
7.81229e-05
4.95394e-05
7.81311e-05
4.9536e-05
2.35475e-05
2.3547e-05
7.81197e-05
4.9534e-05
7.81287e-05
4.95306e-05
0.000126865
0.00012686
0.000126861
0.000125329
0.000125328
0.000125324
0.000125324
8.50421e-05
7.57863e-05
0.000108829
9.55342e-05
8.50136e-05
7.57802e-05
0.000108438
2.35467e-05
2.35462e-05
8.50458e-05
0.000108823
7.57889e-05
9.55391e-05
8.50186e-05
0.000108433
7.57912e-05
6.55269e-05
6.55235e-05
9.04425e-05
6.55212e-05
6.55183e-05
7.80723e-05
4.95309e-05
7.80692e-05
4.953e-05
2.35448e-05
2.35453e-05
7.80692e-05
4.95255e-05
7.80666e-05
4.95246e-05
0.000124981
0.000124978
0.000124978
0.000124504
0.000124502
0.0001245
0.0001245
8.50502e-05
7.57553e-05
0.000107779
9.52941e-05
8.50395e-05
7.57582e-05
0.000107722
2.3544e-05
2.35444e-05
8.50575e-05
0.000107776
7.57602e-05
9.52999e-05
8.50457e-05
0.00010772
7.57665e-05
6.54932e-05
6.54907e-05
9.0364e-05
6.5496e-05
6.54928e-05
7.8051e-05
4.95282e-05
7.80459e-05
4.95284e-05
2.35441e-05
2.35449e-05
7.8048e-05
4.95228e-05
7.80431e-05
4.9523e-05
0.000124484
0.000124482
0.000124482
0.000124494
0.000124493
0.000124492
0.000124491
8.50989e-05
7.57459e-05
0.00010761
9.54534e-05
8.50885e-05
7.576e-05
0.000107661
2.35433e-05
2.35441e-05
8.51037e-05
0.000107605
7.57537e-05
9.54613e-05
8.50953e-05
0.000107663
7.57699e-05
6.54871e-05
6.54841e-05
9.0547e-05
6.54926e-05
6.54895e-05
7.80455e-05
4.95279e-05
7.80357e-05
4.95284e-05
2.35441e-05
2.3545e-05
7.80424e-05
4.95225e-05
7.80325e-05
4.95229e-05
0.000124537
0.000124535
0.000124534
0.000124639
0.000124638
0.000124637
0.000124636
8.51195e-05
7.5761e-05
0.000107858
9.56681e-05
8.51105e-05
7.57714e-05
0.000107902
2.35432e-05
2.35442e-05
8.51239e-05
0.000107856
7.57663e-05
9.56756e-05
8.51149e-05
0.000107902
7.57797e-05
6.54885e-05
6.54854e-05
9.06881e-05
6.54947e-05
6.54916e-05
7.80447e-05
4.9528e-05
7.80335e-05
4.95285e-05
2.35442e-05
2.35451e-05
7.80416e-05
4.95226e-05
7.80304e-05
4.95231e-05
0.000124661
0.000124659
0.000124659
0.000124701
0.0001247
0.000124699
0.000124698
8.51234e-05
7.57656e-05
0.00010799
9.57582e-05
8.51158e-05
7.57763e-05
0.000108006
2.35433e-05
2.35442e-05
8.51289e-05
0.000107989
7.57714e-05
9.57655e-05
8.51207e-05
0.000108005
7.57843e-05
6.54906e-05
6.54876e-05
9.07549e-05
6.54963e-05
6.54934e-05
7.80449e-05
4.95281e-05
7.80337e-05
4.95286e-05
2.35442e-05
2.35451e-05
7.80419e-05
4.95227e-05
7.80306e-05
4.95231e-05
0.000124707
0.000124706
0.000124705
0.000124719
0.000124718
0.000124717
0.000124716
8.51263e-05
7.5767e-05
0.000108032
9.57826e-05
8.51225e-05
7.57772e-05
0.000108037
2.35434e-05
2.35442e-05
8.51315e-05
0.000108032
7.57734e-05
9.5791e-05
8.51275e-05
0.000108035
7.57851e-05
6.54912e-05
6.54884e-05
9.0754e-05
6.54965e-05
6.54936e-05
7.80449e-05
4.95282e-05
7.80338e-05
4.95286e-05
2.35442e-05
2.35451e-05
7.80418e-05
4.95227e-05
7.80307e-05
4.95232e-05
0.00012472
0.000124719
0.000124718
0.000124725
0.000124724
0.000124723
0.000124722
8.51262e-05
7.57661e-05
0.000108046
9.57918e-05
8.51243e-05
7.57768e-05
0.000108048
2.35434e-05
2.35443e-05
8.51312e-05
0.000108046
7.57733e-05
9.57995e-05
8.513e-05
0.000108048
7.57851e-05
6.54911e-05
6.54882e-05
9.07548e-05
6.54965e-05
6.54935e-05
7.80448e-05
4.95282e-05
7.80337e-05
4.95286e-05
2.35442e-05
2.35451e-05
7.80417e-05
4.95227e-05
7.80306e-05
4.95232e-05
0.000124725
0.000124724
0.000124723
0.000124727
0.000124726
0.000124725
0.000124724
8.51283e-05
7.57672e-05
0.00010805
9.57952e-05
8.5127e-05
7.57753e-05
0.00010805
2.35434e-05
2.35443e-05
8.51328e-05
0.000108051
7.57733e-05
9.58025e-05
8.5131e-05
0.000108052
7.57855e-05
6.54912e-05
6.54882e-05
9.07566e-05
6.54966e-05
6.54935e-05
7.80447e-05
4.95282e-05
7.80336e-05
4.95286e-05
2.35442e-05
2.35451e-05
7.80416e-05
4.95228e-05
7.80305e-05
4.95232e-05
0.000124727
0.000124725
0.000124724
0.000124727
0.000124727
0.000124725
0.000124725
8.51289e-05
7.57677e-05
0.000108051
9.57943e-05
8.51282e-05
7.57751e-05
0.000108052
2.35434e-05
2.35443e-05
8.51335e-05
0.000108053
7.57733e-05
9.58017e-05
8.51319e-05
0.000108054
7.57856e-05
6.54912e-05
6.54881e-05
9.07665e-05
6.54965e-05
6.54933e-05
7.80445e-05
4.95282e-05
7.80335e-05
4.95286e-05
2.35442e-05
2.35451e-05
7.80414e-05
4.95227e-05
7.80304e-05
4.95232e-05
0.000124727
0.000124725
0.000124725
0.000124728
0.000124728
0.000124725
0.000124725
8.51289e-05
7.57673e-05
0.000108053
9.57941e-05
8.51284e-05
7.57752e-05
0.000108053
2.35434e-05
2.35443e-05
8.51335e-05
0.000108053
7.57732e-05
9.58012e-05
8.51315e-05
0.000108053
7.57856e-05
6.54911e-05
6.5488e-05
9.07652e-05
6.54964e-05
6.54932e-05
7.80443e-05
4.95282e-05
7.80333e-05
4.95287e-05
2.35442e-05
2.35452e-05
7.80412e-05
4.95227e-05
7.80302e-05
4.95232e-05
0.000124728
0.000124726
0.000124725
0.000124728
0.000124728
0.000124726
0.000124726
8.51283e-05
7.57668e-05
0.000108055
9.5794e-05
8.5129e-05
7.57747e-05
0.000108055
2.35434e-05
2.35443e-05
8.51327e-05
0.000108053
7.5773e-05
9.58011e-05
8.51313e-05
0.000108053
7.57853e-05
6.5491e-05
6.54879e-05
9.07361e-05
6.54962e-05
6.54931e-05
7.80439e-05
4.95279e-05
7.8033e-05
4.95282e-05
2.35444e-05
2.35454e-05
7.80409e-05
4.95227e-05
7.80299e-05
4.95231e-05
0.000124729
0.000124727
0.000124726
0.000124729
0.000124729
0.000124727
0.000124726
8.51274e-05
7.5767e-05
0.000108056
9.57945e-05
8.51292e-05
7.57748e-05
0.000108056
2.35434e-05
2.35443e-05
8.51318e-05
0.000108053
7.57731e-05
9.5802e-05
8.51322e-05
0.000108053
7.57851e-05
6.54908e-05
6.54878e-05
9.0769e-05
6.54961e-05
6.5493e-05
7.80435e-05
4.95278e-05
7.80325e-05
4.95282e-05
2.35445e-05
2.35454e-05
7.80405e-05
4.95227e-05
7.80295e-05
4.95231e-05
0.000124729
0.000124727
0.000124727
0.000124729
0.000124729
0.000124727
0.000124727
8.51256e-05
7.57666e-05
0.000108056
9.57943e-05
8.51291e-05
7.57751e-05
0.000108056
2.35434e-05
2.35443e-05
8.51298e-05
0.000108053
7.57728e-05
9.58025e-05
8.51328e-05
0.000108054
7.57845e-05
6.54906e-05
6.54876e-05
9.07661e-05
6.54959e-05
6.54929e-05
7.8043e-05
4.95278e-05
7.80321e-05
4.95282e-05
2.35444e-05
2.35453e-05
7.804e-05
4.95227e-05
7.80291e-05
4.95231e-05
0.000124729
0.000124728
0.000124727
0.00012473
0.00012473
0.000124728
0.000124728
8.51254e-05
7.57657e-05
0.000108057
9.57945e-05
8.51302e-05
7.57762e-05
0.000108056
2.35434e-05
2.35443e-05
8.51295e-05
0.000108054
7.57729e-05
9.58029e-05
8.51342e-05
0.000108055
7.57842e-05
6.54905e-05
6.54875e-05
9.076e-05
6.54957e-05
6.54927e-05
7.80427e-05
4.95277e-05
7.80318e-05
4.95282e-05
2.35444e-05
2.35453e-05
7.80397e-05
4.95227e-05
7.80287e-05
4.95231e-05
0.00012473
0.000124728
0.000124728
0.000124732
0.000124731
0.000124729
0.000124729
8.51271e-05
7.57644e-05
0.000108057
9.57944e-05
8.51285e-05
7.57762e-05
0.000108058
2.35434e-05
2.35443e-05
8.51315e-05
0.000108055
7.57724e-05
9.58024e-05
8.51329e-05
0.000108056
7.5784e-05
6.54903e-05
6.54873e-05
9.0744e-05
6.54956e-05
6.54925e-05
7.80426e-05
4.95277e-05
7.80314e-05
4.95282e-05
2.35443e-05
2.35452e-05
7.80396e-05
4.95226e-05
7.80283e-05
4.95231e-05
0.000124731
0.00012473
0.000124729
0.000124733
0.000124732
0.00012473
0.00012473
8.51257e-05
7.5765e-05
0.000108058
9.57938e-05
8.51256e-05
7.57746e-05
0.000108058
2.35434e-05
2.35443e-05
8.5131e-05
0.000108056
7.57723e-05
9.58019e-05
8.51304e-05
0.000108057
7.57831e-05
6.54901e-05
6.54871e-05
9.07648e-05
6.54954e-05
6.54923e-05
7.80418e-05
4.95277e-05
7.8031e-05
4.95282e-05
2.35443e-05
2.35452e-05
7.80388e-05
4.95226e-05
7.80279e-05
4.95231e-05
0.000124732
0.00012473
0.000124731
0.000124732
0.00012473
0.000124728
0.00012473
8.51214e-05
7.57651e-05
0.000108058
9.57959e-05
8.51259e-05
7.57749e-05
0.000108058
2.35434e-05
2.35443e-05
8.51276e-05
0.000108057
7.57722e-05
9.5804e-05
8.51302e-05
0.000108056
7.57824e-05
6.54898e-05
6.54868e-05
9.08357e-05
6.54951e-05
6.5492e-05
7.80417e-05
4.95277e-05
7.80309e-05
4.95282e-05
2.35442e-05
2.35452e-05
7.80385e-05
4.95226e-05
7.80279e-05
4.95231e-05
0.000124729
0.000124728
0.000124729
8.51204e-05
7.57634e-05
0.000108056
9.57926e-05
8.51261e-05
7.57768e-05
0.000108055
2.35434e-05
2.35443e-05
8.51269e-05
0.000108055
7.57712e-05
9.58007e-05
8.51296e-05
0.000108054
7.57821e-05
6.54897e-05
6.54867e-05
9.07276e-05
6.54951e-05
6.5492e-05
2.36171e-05
2.36139e-05
2.3615e-05
2.36117e-05
6.20302e-05
6.20287e-05
8.21828e-05
6.24435e-05
6.24416e-05
2.36084e-05
2.36114e-05
2.36062e-05
2.36093e-05
8.20844e-05
6.28609e-05
6.28585e-05
6.24825e-05
6.24806e-05
7.20738e-05
4.95699e-05
4.95784e-05
7.11901e-05
7.00405e-05
6.76904e-05
0.000122208
9.82548e-05
6.83644e-05
0.000121277
6.90347e-05
7.00388e-05
6.76878e-05
0.000122203
9.82439e-05
6.83569e-05
0.000121273
6.90331e-05
7.21847e-05
4.95947e-05
4.9586e-05
7.29823e-05
7.21825e-05
4.95886e-05
4.95799e-05
7.29799e-05
7.05396e-05
9.76739e-05
6.92589e-05
0.000119443
6.86047e-05
0.00012036
7.15566e-05
7.05379e-05
9.76635e-05
6.92512e-05
0.000119438
6.86016e-05
0.000120355
7.15549e-05
6.20213e-05
6.20288e-05
8.21805e-05
6.24345e-05
6.24429e-05
2.36165e-05
2.36133e-05
2.36061e-05
2.36091e-05
8.20824e-05
6.28517e-05
6.28606e-05
6.24733e-05
6.24802e-05
2.36077e-05
2.36108e-05
7.00394e-05
6.76887e-05
0.000122207
9.82753e-05
6.83611e-05
0.000121276
6.90337e-05
7.20717e-05
4.95667e-05
4.95752e-05
7.11886e-05
7.00382e-05
0.000122197
6.76846e-05
9.82435e-05
0.000121266
6.8357e-05
6.90326e-05
7.21827e-05
4.95893e-05
4.95805e-05
7.29795e-05
7.05386e-05
9.76943e-05
6.92554e-05
0.000119442
6.86029e-05
0.000120359
7.15555e-05
7.21809e-05
4.95854e-05
4.95766e-05
7.29777e-05
7.05374e-05
9.7663e-05
0.000119432
6.92511e-05
0.000120349
6.85985e-05
7.15543e-05
7.20817e-05
4.95719e-05
4.95802e-05
7.11833e-05
7.00391e-05
0.000122212
6.76884e-05
9.82584e-05
0.000121281
6.83532e-05
6.90332e-05
7.20741e-05
4.95676e-05
4.95761e-05
7.11886e-05
7.05389e-05
9.77014e-05
6.92418e-05
0.000119452
6.86166e-05
0.000120376
7.15556e-05
7.21752e-05
4.95905e-05
4.95817e-05
7.29871e-05
7.0538e-05
9.7678e-05
0.000119447
6.92479e-05
0.000120364
6.86024e-05
7.15548e-05
7.21806e-05
4.95863e-05
4.95775e-05
7.29799e-05
6.20219e-05
6.20275e-05
8.21771e-05
6.24344e-05
6.24406e-05
2.36162e-05
2.3613e-05
2.36053e-05
2.36083e-05
8.20791e-05
6.28518e-05
6.28578e-05
6.24734e-05
6.24794e-05
2.36074e-05
2.36105e-05
7.00389e-05
0.000122205
6.76812e-05
9.82694e-05
0.000121277
6.83592e-05
6.90329e-05
7.20813e-05
4.95717e-05
4.95802e-05
7.11838e-05
7.2079e-05
4.95659e-05
4.95745e-05
7.11816e-05
7.05401e-05
9.76997e-05
0.00011945
6.92531e-05
0.000120364
6.8606e-05
7.15569e-05
7.05379e-05
9.76884e-05
0.000119443
6.92531e-05
0.000120357
6.85953e-05
7.15549e-05
7.21765e-05
4.95904e-05
4.95816e-05
7.29868e-05
7.21742e-05
4.95847e-05
4.95759e-05
7.29844e-05
2.36149e-05
2.36117e-05
2.36137e-05
2.36105e-05
8.20767e-05
6.28536e-05
6.28518e-05
6.24754e-05
6.24735e-05
2.36061e-05
2.36092e-05
2.36049e-05
2.3608e-05
2.36059e-05
2.36026e-05
2.36037e-05
2.36004e-05
6.28996e-05
6.28973e-05
8.24129e-05
6.32697e-05
6.32671e-05
2.35973e-05
2.36e-05
2.35951e-05
2.35978e-05
8.24186e-05
6.36749e-05
6.36719e-05
6.3314e-05
6.33114e-05
7.37886e-05
4.95896e-05
7.30696e-05
4.95941e-05
7.30485e-05
6.94846e-05
0.000118548
9.60754e-05
7.20519e-05
7.0139e-05
0.000117636
7.30465e-05
6.94812e-05
0.000118544
9.60664e-05
7.20501e-05
7.01311e-05
0.000117632
7.38772e-05
4.96029e-05
4.96002e-05
7.46049e-05
7.38749e-05
4.95968e-05
4.95941e-05
7.46025e-05
7.3536e-05
9.5622e-05
7.10105e-05
0.000115949
7.03584e-05
0.000116783
7.45426e-05
7.3534e-05
9.56132e-05
7.10022e-05
0.000115945
7.03544e-05
0.000116779
7.45406e-05
6.28903e-05
6.28982e-05
8.24113e-05
6.32604e-05
6.32704e-05
2.36052e-05
2.36018e-05
2.3595e-05
2.35977e-05
8.24174e-05
6.36649e-05
6.36657e-05
6.33045e-05
6.33128e-05
2.35967e-05
2.35992e-05
7.30473e-05
6.94824e-05
0.000118547
9.60955e-05
7.20509e-05
7.01356e-05
0.000117636
7.37865e-05
4.95864e-05
7.30681e-05
4.95909e-05
7.3046e-05
0.000118537
6.94781e-05
9.60661e-05
7.20496e-05
0.000117625
7.01311e-05
7.38751e-05
4.95975e-05
4.95948e-05
7.46019e-05
7.35349e-05
9.56418e-05
7.10067e-05
0.000115948
7.0356e-05
0.000116783
7.45414e-05
7.38733e-05
4.95936e-05
4.95909e-05
7.46e-05
7.35335e-05
9.56129e-05
0.000115938
7.10015e-05
0.000116772
7.03514e-05
7.454e-05
7.37959e-05
4.95916e-05
7.30628e-05
4.95959e-05
7.30469e-05
0.000118553
6.9482e-05
9.60805e-05
7.205e-05
0.000117641
7.01281e-05
7.37889e-05
4.95873e-05
7.30679e-05
4.95918e-05
7.35356e-05
9.56488e-05
7.09929e-05
0.000115959
7.03688e-05
0.0001168
7.45421e-05
7.38687e-05
4.95987e-05
4.9596e-05
7.46082e-05
7.35344e-05
9.56273e-05
0.000115954
7.09999e-05
0.000116788
7.03551e-05
7.45411e-05
7.38734e-05
4.95945e-05
4.95919e-05
7.46022e-05
6.28906e-05
6.28963e-05
8.2408e-05
6.32605e-05
6.32662e-05
2.36049e-05
2.36016e-05
2.35942e-05
2.35969e-05
8.24141e-05
6.36644e-05
6.3671e-05
6.33048e-05
6.33103e-05
2.35964e-05
2.35991e-05
7.30465e-05
0.000118546
6.94749e-05
9.60904e-05
7.205e-05
0.000117637
7.0133e-05
7.3795e-05
4.95914e-05
7.30637e-05
4.95959e-05
7.37924e-05
4.95857e-05
7.30613e-05
4.95902e-05
7.35363e-05
9.56476e-05
0.000115957
7.10048e-05
0.000116788
7.03586e-05
7.45428e-05
7.35339e-05
9.56369e-05
0.00011595
7.10038e-05
0.000116781
7.03486e-05
7.45407e-05
7.38691e-05
4.95986e-05
4.95959e-05
7.46084e-05
7.38666e-05
4.95929e-05
4.95902e-05
7.46059e-05
2.36036e-05
2.36003e-05
2.36024e-05
2.35991e-05
8.2412e-05
6.36667e-05
6.36657e-05
6.33066e-05
6.33047e-05
2.3595e-05
2.35977e-05
2.35939e-05
2.35966e-05
2.35953e-05
2.35937e-05
2.35932e-05
2.35915e-05
6.37154e-05
6.37125e-05
8.32505e-05
6.40671e-05
6.40639e-05
2.35899e-05
2.3592e-05
2.35878e-05
2.35898e-05
8.33808e-05
6.4451e-05
6.4447e-05
6.41121e-05
6.41081e-05
7.54229e-05
4.95973e-05
7.4701e-05
4.96033e-05
7.61043e-05
7.12158e-05
0.000115201
9.4607e-05
7.50477e-05
7.18516e-05
0.00011447
7.61028e-05
7.12114e-05
0.000115197
9.45991e-05
7.50454e-05
7.18438e-05
0.000114467
7.55192e-05
4.96175e-05
4.96106e-05
7.614e-05
7.55169e-05
4.96114e-05
4.96045e-05
7.61374e-05
7.66205e-05
9.43697e-05
7.26659e-05
0.00011315
7.2047e-05
0.000113795
7.76864e-05
7.66179e-05
9.43623e-05
7.26572e-05
0.000113147
7.20428e-05
0.000113791
7.76848e-05
6.37052e-05
6.37037e-05
8.32483e-05
6.40584e-05
6.40774e-05
2.35947e-05
2.35932e-05
2.35877e-05
2.35897e-05
8.33793e-05
6.44406e-05
6.44487e-05
6.41029e-05
6.41221e-05
2.35892e-05
2.35913e-05
7.6101e-05
7.12132e-05
0.000115201
9.46263e-05
7.50466e-05
7.18477e-05
0.00011447
7.54204e-05
4.95941e-05
7.4699e-05
4.96001e-05
7.60996e-05
0.000115191
7.12081e-05
9.45987e-05
7.50451e-05
0.00011446
7.18429e-05
7.55168e-05
4.96121e-05
4.96052e-05
7.6137e-05
7.66206e-05
9.43889e-05
7.26613e-05
0.00011315
7.2044e-05
0.000113795
7.76836e-05
7.55149e-05
4.96082e-05
4.96013e-05
7.6135e-05
7.66191e-05
9.4362e-05
0.00011314
7.26564e-05
0.000113784
7.20395e-05
7.76821e-05
7.54284e-05
4.95992e-05
7.46949e-05
4.96052e-05
7.61028e-05
0.000115207
7.12126e-05
9.46133e-05
7.50458e-05
0.000114477
7.18415e-05
7.54227e-05
4.9595e-05
7.46993e-05
4.9601e-05
7.66229e-05
9.43963e-05
7.26546e-05
0.000113163
7.2059e-05
0.000113812
7.76822e-05
7.55123e-05
4.96132e-05
4.96064e-05
7.61401e-05
7.66185e-05
9.43762e-05
0.000113156
7.26552e-05
0.000113801
7.20434e-05
7.76842e-05
7.55154e-05
4.96091e-05
4.96022e-05
7.61364e-05
6.37048e-05
6.37112e-05
8.32459e-05
6.4058e-05
6.40652e-05
2.35944e-05
2.35928e-05
2.35868e-05
2.35889e-05
8.33765e-05
6.44402e-05
6.44466e-05
6.41034e-05
6.41098e-05
2.3589e-05
2.3591e-05
7.60995e-05
0.0001152
7.12059e-05
9.46218e-05
7.50459e-05
0.000114472
7.18441e-05
7.54285e-05
4.95991e-05
7.4696e-05
4.96051e-05
7.54258e-05
4.95934e-05
7.46936e-05
4.95994e-05
7.66193e-05
9.43955e-05
0.000113159
7.26604e-05
0.000113802
7.20482e-05
7.76889e-05
7.66211e-05
9.43845e-05
0.000113152
7.26576e-05
0.000113795
7.20364e-05
7.76818e-05
7.55131e-05
4.96132e-05
4.96063e-05
7.61407e-05
7.55106e-05
4.96076e-05
4.96006e-05
7.61379e-05
2.35931e-05
2.35914e-05
2.35919e-05
2.35903e-05
8.33751e-05
6.44419e-05
6.44404e-05
6.41044e-05
6.41009e-05
2.35876e-05
2.35897e-05
2.35865e-05
2.35885e-05
2.35876e-05
2.35847e-05
2.35855e-05
2.35825e-05
6.44886e-05
6.44846e-05
8.46595e-05
6.47516e-05
6.47482e-05
2.35795e-05
2.35823e-05
2.35773e-05
2.35802e-05
8.49108e-05
6.50406e-05
6.50365e-05
6.47897e-05
6.47864e-05
7.67368e-05
4.96116e-05
7.62202e-05
4.96125e-05
7.92396e-05
7.28443e-05
0.000112519
9.38349e-05
7.81914e-05
7.34184e-05
0.000111903
7.92378e-05
7.28387e-05
0.000112516
9.38275e-05
7.81886e-05
7.34097e-05
0.000111899
7.68141e-05
4.96143e-05
4.96175e-05
7.72297e-05
7.68117e-05
4.96083e-05
4.96115e-05
7.72271e-05
7.97295e-05
9.37313e-05
7.41397e-05
0.000110756
7.35867e-05
0.000111301
8.07383e-05
7.97268e-05
9.3724e-05
7.41311e-05
0.000110753
7.35811e-05
0.000111298
8.07363e-05
6.44779e-05
6.4484e-05
8.46578e-05
6.47419e-05
6.47495e-05
2.35869e-05
2.35841e-05
2.35772e-05
2.35801e-05
8.49086e-05
6.50302e-05
6.50422e-05
6.47799e-05
6.47877e-05
2.35789e-05
2.35817e-05
7.92368e-05
7.28406e-05
0.000112519
9.38527e-05
7.81913e-05
7.3414e-05
0.000111902
7.67343e-05
4.96084e-05
7.62181e-05
4.96093e-05
7.92351e-05
0.000112509
7.28357e-05
9.38276e-05
7.81897e-05
0.000111893
7.34081e-05
7.68113e-05
4.9609e-05
4.96121e-05
7.72267e-05
7.9729e-05
9.37489e-05
7.41355e-05
0.000110756
7.35832e-05
0.000111301
8.07357e-05
7.68092e-05
4.96051e-05
4.96083e-05
7.72247e-05
7.97273e-05
9.37243e-05
0.000110747
7.413e-05
0.000111291
7.35775e-05
8.07339e-05
7.67369e-05
4.96133e-05
7.62166e-05
4.96142e-05
7.92372e-05
0.000112526
7.28393e-05
9.38414e-05
7.81888e-05
0.000111909
7.3408e-05
7.6736e-05
4.96093e-05
7.62184e-05
4.96101e-05
7.97307e-05
9.37547e-05
7.41301e-05
0.00011077
7.35918e-05
0.000111317
8.07355e-05
7.68112e-05
4.961e-05
4.96132e-05
7.72296e-05
7.97272e-05
9.37382e-05
0.000110764
7.41301e-05
0.000111308
7.35815e-05
8.07367e-05
7.68109e-05
4.9606e-05
4.96091e-05
7.72274e-05
6.44777e-05
6.44838e-05
8.4656e-05
6.47404e-05
6.47482e-05
2.35867e-05
2.35838e-05
2.35764e-05
2.35792e-05
8.49072e-05
6.503e-05
6.50379e-05
6.47786e-05
6.47864e-05
2.35785e-05
2.35814e-05
7.92352e-05
0.00011252
7.28334e-05
9.38488e-05
7.81911e-05
0.000111904
7.34095e-05
7.67376e-05
4.96134e-05
7.62172e-05
4.96143e-05
7.6735e-05
4.96077e-05
7.62145e-05
4.96086e-05
7.97289e-05
9.37555e-05
0.000110767
7.41361e-05
0.000111309
7.35862e-05
8.07404e-05
7.97294e-05
9.37451e-05
0.000110759
7.41307e-05
0.000111302
7.35754e-05
8.07347e-05
7.68116e-05
4.96101e-05
4.96133e-05
7.72298e-05
7.68091e-05
4.96044e-05
4.96076e-05
7.72265e-05
2.35853e-05
2.35824e-05
2.35842e-05
2.35812e-05
8.49055e-05
6.50324e-05
6.50292e-05
6.47811e-05
6.47791e-05
2.35772e-05
2.358e-05
2.3576e-05
2.35789e-05
2.35771e-05
2.35742e-05
2.3575e-05
2.3572e-05
6.50796e-05
6.50753e-05
8.6836e-05
6.52843e-05
6.52793e-05
2.35688e-05
2.35718e-05
2.35666e-05
2.35697e-05
8.7255e-05
6.54655e-05
6.54598e-05
6.53133e-05
6.53081e-05
7.76101e-05