/*--------------------------------*- C++ -*----------------------------------*\
| =========                 |                                                 |
| \\      /  F ield         | OpenFOAM: The Open Source CFD Toolbox           |
|  \\    /   O peration     | Version:  2312                                  |
|   \\  /    A nd           | Website:  www.openfoam.com                      |
|    \\/     M anipulation  |                                                 |
\*---------------------------------------------------------------------------*/
FoamFile
{
    version     2.0;
    format      ascii;
    arch        "LSB;label=32;scalar=64";
    class       volScalarField;
    location    "125";
    object      p;
}
// * * * * * * * * * * * * * * * * * * * * * * * * * * * * * * * * * * * * * //

dimensions      [0 2 -2 0 0 0 0];

internalField   nonuniform List<scalar> 
43208
(
0.000713221
0.000713166
0.000713167
0.000715288
0.000677427
0.000677371
0.000677372
0.000679493
0.000641634
0.000641578
0.00064158
0.0006437
0.000605843
0.000605787
0.000605788
0.000607908
0.000570051
0.000569997
0.000569996
0.000572117
0.00053426
0.000534205
0.000534204
0.000536326
0.000498469
0.000498415
0.000498413
0.000500535
0.00046268
0.000462625
0.000462624
0.000464747
0.000426892
0.000426837
0.000426836
0.000428959
0.000391104
0.000391048
0.000391049
0.000393171
0.000355315
0.00035526
0.000355261
0.000357383
0.000319525
0.00031947
0.000319471
0.000321593
0.000283735
0.00028368
0.00028368
0.000285803
0.000247943
0.00024789
0.00024789
0.000250013
0.000212151
0.000212099
0.0002121
0.000214222
0.000176355
0.000176305
0.000176306
0.000178429
0.000140548
0.000140505
0.000140505
0.000142631
0.000104722
0.000104691
0.00010469
0.00010682
6.89211e-05
6.88637e-05
6.88625e-05
7.09977e-05
3.37351e-05
3.36444e-05
3.36405e-05
3.53546e-05
6.22835e-06
6.00623e-06
6.00326e-06
5.28309e-06
0.000719994
0.000722115
0.000722115
0.000719994
0.000722115
0.000722115
0.000722115
0.000722115
0.000719994
0.000722115
0.000722115
0.000719994
0.000715288
0.000684199
0.000713166
0.000713166
0.00068632
0.00068632
0.000715287
0.000684199
0.000713166
0.000713167
0.00068632
0.000686321
0.000713167
0.00068632
0.00068632
0.000715287
0.0006842
0.000713166
0.000686321
0.000686319
0.000684199
0.000679493
0.000648406
0.000677371
0.000677371
0.000650527
0.000650527
0.000679492
0.000648406
0.000677371
0.000677372
0.000650527
0.000650527
0.000677372
0.000650527
0.000650527
0.000679493
0.000648407
0.000677371
0.000650527
0.000650526
0.000648406
0.000643699
0.000612615
0.000641578
0.000641578
0.000614736
0.000614736
0.000643699
0.000612615
0.000641578
0.00064158
0.000614736
0.000614735
0.000641579
0.000614736
0.000614736
0.000643701
0.000612615
0.000641578
0.000614735
0.000614735
0.000612614
0.000607908
0.000576824
0.000605787
0.000605787
0.000578945
0.000578945
0.000607908
0.000576824
0.000605787
0.000605788
0.000578945
0.000578943
0.000605787
0.000578945
0.000578945
0.000607909
0.000576824
0.000605787
0.000578943
0.000578945
0.000576824
0.000572117
0.000541032
0.000569996
0.000569996
0.000543153
0.000543153
0.000572117
0.000541032
0.000569996
0.000569996
0.000543153
0.000543152
0.000569996
0.000543153
0.000543153
0.000572118
0.000541032
0.000569996
0.000543152
0.000543153
0.000541032
0.000536326
0.000505242
0.000534205
0.000534205
0.000507362
0.000507361
0.000536326
0.000505242
0.000534205
0.000534204
0.000507361
0.000507361
0.000534205
0.000507361
0.000507362
0.000536326
0.000505241
0.000534205
0.000507361
0.000507362
0.000505241
0.000500535
0.000469452
0.000498415
0.000498415
0.000471572
0.000471572
0.000500536
0.000469452
0.000498415
0.000498413
0.000471571
0.000471572
0.000498415
0.000471572
0.000471573
0.000500535
0.000469451
0.000498414
0.000471572
0.000471572
0.000469452
0.000464747
0.000433664
0.000462626
0.000462626
0.000435783
0.000435783
0.000464747
0.000433664
0.000462625
0.000462624
0.000435783
0.000435784
0.000462626
0.000435783
0.000435784
0.000464745
0.000433663
0.000462626
0.000435784
0.000435783
0.000433664
0.000428958
0.000397876
0.000426837
0.000426837
0.000399996
0.000399996
0.000428958
0.000397876
0.000426837
0.000426836
0.000399995
0.000399997
0.000426838
0.000399996
0.000399996
0.000428957
0.000397876
0.000426837
0.000399997
0.000399996
0.000397876
0.00039317
0.000362088
0.000391049
0.000391049
0.000364208
0.000364208
0.00039317
0.000362088
0.000391048
0.000391049
0.000364208
0.000364208
0.00039105
0.000364208
0.000364208
0.00039317
0.000362088
0.000391049
0.000364209
0.000364208
0.000362088
0.000357382
0.000326298
0.00035526
0.00035526
0.000328419
0.000328419
0.000357382
0.000326298
0.00035526
0.000355261
0.000328419
0.000328419
0.000355261
0.000328419
0.000328419
0.000357382
0.000326298
0.000355261
0.000328419
0.000328419
0.000326298
0.000321592
0.000290508
0.000319471
0.000319471
0.000292629
0.000292629
0.000321592
0.000290508
0.00031947
0.000319471
0.000292629
0.00029263
0.000319471
0.000292629
0.000292629
0.000321592
0.000290508
0.000319471
0.00029263
0.000292629
0.000290508
0.000285802
0.000254717
0.00028368
0.00028368
0.000256839
0.000256839
0.000285802
0.000254717
0.00028368
0.00028368
0.000256839
0.00025684
0.000283681
0.000256839
0.000256839
0.000285802
0.000254717
0.000283681
0.00025684
0.000256838
0.000254717
0.000250012
0.000218926
0.00024789
0.00024789
0.000221049
0.000221049
0.000250012
0.000218926
0.00024789
0.00024789
0.000221049
0.000221049
0.00024789
0.000221049
0.000221049
0.000250012
0.000218926
0.00024789
0.000221049
0.000221048
0.000218925
0.000214222
0.000183132
0.000212099
0.000212099
0.000185258
0.000185257
0.000214222
0.000183132
0.000212099
0.0002121
0.000185257
0.000185256
0.000212099
0.000185257
0.000185257
0.000214222
0.000183132
0.000212099
0.000185257
0.000185257
0.000183132
0.000178429
0.000147331
0.000176306
0.000176306
0.000149461
0.000149461
0.000178429
0.000147331
0.000176305
0.000176306
0.00014946
0.000149459
0.000176306
0.000149461
0.000149461
0.00017843
0.000147331
0.000176305
0.000149459
0.00014946
0.000147331
0.00014263
0.000111514
0.000140505
0.000140505
0.000113652
0.000113652
0.00014263
0.000111514
0.000140505
0.000140505
0.000113652
0.000113651
0.000140506
0.000113652
0.000113652
0.000142631
0.000111513
0.000140506
0.000113651
0.000113652
0.000111514
0.000106819
7.5671e-05
0.000104691
0.000104691
7.78241e-05
7.78242e-05
0.00010682
7.56706e-05
0.000104691
0.00010469
7.78241e-05
7.78232e-05
0.000104691
7.78239e-05
7.78232e-05
0.000106819
7.567e-05
0.000104691
7.78233e-05
7.78231e-05
7.56699e-05
7.09981e-05
3.99353e-05
6.88646e-05
6.88641e-05
4.22791e-05
4.22799e-05
7.09978e-05
3.99349e-05
6.88642e-05
6.88625e-05
4.22797e-05
4.22773e-05
6.88631e-05
4.22796e-05
4.22768e-05
7.09973e-05
3.9932e-05
6.88627e-05
4.22767e-05
4.22772e-05
3.99322e-05
3.53578e-05
6.50673e-06
3.36439e-05
3.36445e-05
6.87045e-06
6.87025e-06
3.53567e-05
6.5073e-06
3.36458e-05
3.36409e-05
6.86813e-06
6.86517e-06
3.36407e-05
6.86955e-06
6.86866e-06
3.53533e-05
6.5029e-06
3.36426e-05
6.86661e-06
6.86806e-06
6.50655e-06
5.28478e-06
6.00965e-06
6.00999e-06
5.28493e-06
6.00656e-06
6.00584e-06
6.22867e-06
6.22555e-06
6.22701e-06
6.00729e-06
5.28062e-06
6.00512e-06
0.00073782
0.000737814
0.000737816
0.000737814
0.00072217
0.00072217
0.00072217
0.00072217
0.000737893
0.000740012
0.000737857
0.000740027
0.000702024
0.000715409
0.000715408
0.000702018
0.000715409
0.00070202
0.000702024
0.00071541
0.000715408
0.000702019
0.000713221
0.000713222
0.000713221
0.000686375
0.000686375
0.000686375
0.000686375
0.000702098
0.000715368
0.000713181
0.000704218
0.000715345
0.000702061
0.000704232
0.000715408
0.00070202
0.000702098
0.000713181
0.000715369
0.000704217
0.000715345
0.000704232
0.000702061
0.000715415
0.000715415
0.000702097
0.000702017
0.000702017
0.00066623
0.000679614
0.000679613
0.000666224
0.000679614
0.000666226
0.00066623
0.000679615
0.000679613
0.000666224
0.000677427
0.000677427
0.000677426
0.000650582
0.000650582
0.000650582
0.000650582
0.000666304
0.000679573
0.000677386
0.000668423
0.00067955
0.000666267
0.000668438
0.000679613
0.000666226
0.000666304
0.000677386
0.000679573
0.000668423
0.00067955
0.000668438
0.000666267
0.000679621
0.000679621
0.000666303
0.000666223
0.000666223
0.000630439
0.000643822
0.00064382
0.000630432
0.000643821
0.000630434
0.000630439
0.000643822
0.00064382
0.000630432
0.000641634
0.000641634
0.000641634
0.00061479
0.00061479
0.00061479
0.00061479
0.000630512
0.000643781
0.000641594
0.00063263
0.000643757
0.000630475
0.000632646
0.000643821
0.000630434
0.000630512
0.000641593
0.000643781
0.000632631
0.000643757
0.000632646
0.000630475
0.000643828
0.000643829
0.000630511
0.000630431
0.000630431
0.000594647
0.000608031
0.000608029
0.000594641
0.00060803
0.000594643
0.000594648
0.000608031
0.000608029
0.000594641
0.000605843
0.000605842
0.000605842
0.000578999
0.000578999
0.000578999
0.000578999
0.000594721
0.000607989
0.000605802
0.000596839
0.000607966
0.000594684
0.000596854
0.00060803
0.000594643
0.00059472
0.000605802
0.00060799
0.000596841
0.000607966
0.000596854
0.000594684
0.000608037
0.000608037
0.00059472
0.00059464
0.00059464
0.000558855
0.000572239
0.000572237
0.000558849
0.000572238
0.000558851
0.000558855
0.000572239
0.000572238
0.000558849
0.000570051
0.000570051
0.000570051
0.000543207
0.000543207
0.000543207
0.000543207
0.000558929
0.000572198
0.000570011
0.000561048
0.000572175
0.000558892
0.000561063
0.000572238
0.000558851
0.000558929
0.000570011
0.000572198
0.000561049
0.000572175
0.000561063
0.000558892
0.000572246
0.000572246
0.000558928
0.000558849
0.000558849
0.000523063
0.000536447
0.000536446
0.000523057
0.000536447
0.000523059
0.000523064
0.000536448
0.000536445
0.000523058
0.00053426
0.00053426
0.000534259
0.000507416
0.000507416
0.000507417
0.000507416
0.000523137
0.000536406
0.000534219
0.000525257
0.000536383
0.0005231
0.000525271
0.000536447
0.000523059
0.000523137
0.000534219
0.000536406
0.000525257
0.000536383
0.000525271
0.0005231
0.000536453
0.000536453
0.000523136
0.000523057
0.000523057
0.000487273
0.000500657
0.000500656
0.000487268
0.000500656
0.000487269
0.000487274
0.000500657
0.000500654
0.000487268
0.000498469
0.000498469
0.000498469
0.000471627
0.000471627
0.000471627
0.000471627
0.000487348
0.000500616
0.000498429
0.000489467
0.000500592
0.00048731
0.000489481
0.000500656
0.000487269
0.000487347
0.000498428
0.000500615
0.000489467
0.000500592
0.000489481
0.00048731
0.000500662
0.000500663
0.000487346
0.000487267
0.000487267
0.000451485
0.000464868
0.000464866
0.000451479
0.000464867
0.000451481
0.000451484
0.000464868
0.000464865
0.000451479
0.00046268
0.00046268
0.00046268
0.000435839
0.000435839
0.000435839
0.000435838
0.000451559
0.000464827
0.00046264
0.000453679
0.000464803
0.000451522
0.000453692
0.000464867
0.000451481
0.000451559
0.00046264
0.000464826
0.000453678
0.000464803
0.000453692
0.000451521
0.000464873
0.000464873
0.000451557
0.000451478
0.000451478
0.000415697
0.00042908
0.000429078
0.000415691
0.000429079
0.000415692
0.000415697
0.00042908
0.000429078
0.000415691
0.000426892
0.000426891
0.000426891
0.000400051
0.000400051
0.000400051
0.000400051
0.000415771
0.000429038
0.000426852
0.000417891
0.000429015
0.000415734
0.000417904
0.000429079
0.000415692
0.000415769
0.000426851
0.000429038
0.000417889
0.000429014
0.000417904
0.000415733
0.000429085
0.000429085
0.000415769
0.00041569
0.00041569
0.000379909
0.000393292
0.000393291
0.000379903
0.000393292
0.000379904
0.000379909
0.000393292
0.00039329
0.000379903
0.000391104
0.000391104
0.000391104
0.000364263
0.000364263
0.000364263
0.000364263
0.000379983
0.00039325
0.000391064
0.000382102
0.000393227
0.000379946
0.000382117
0.000393292
0.000379905
0.000379984
0.000391064
0.000393251
0.000382102
0.000393229
0.000382117
0.000379947
0.000393298
0.000393298
0.000379982
0.000379903
0.000379903
0.000344121
0.000357504
0.000357502
0.000344114
0.000357504
0.000344115
0.00034412
0.000357504
0.000357502
0.000344114
0.000355315
0.000355316
0.000355315
0.000328474
0.000328474
0.000328474
0.000328473
0.000344194
0.000357462
0.000355276
0.000346314
0.000357439
0.000344157
0.000346328
0.000357504
0.000344115
0.000344194
0.000355276
0.000357462
0.000346314
0.000357439
0.000346328
0.000344158
0.000357509
0.00035751
0.000344193
0.000344114
0.000344114
0.00030833
0.000321714
0.000321712
0.000308324
0.000321715
0.000308324
0.00030833
0.000321715
0.000321713
0.000308324
0.000319525
0.000319526
0.000319525
0.000292683
0.000292683
0.000292683
0.000292683
0.000308404
0.000321672
0.000319486
0.000310524
0.000321649
0.000308368
0.000310538
0.000321715
0.000308324
0.000308404
0.000319486
0.000321673
0.000310524
0.000321649
0.000310538
0.000308368
0.00032172
0.00032172
0.000308403
0.000308324
0.000308324
0.000272539
0.000285924
0.000285921
0.000272532
0.000285925
0.000272532
0.000272539
0.000285924
0.000285922
0.000272532
0.000283735
0.000283735
0.000283734
0.000256892
0.000256892
0.000256892
0.000256892
0.000272613
0.000285881
0.000283696
0.000274733
0.000285859
0.000272577
0.000274748
0.000285925
0.000272532
0.000272613
0.000283695
0.000285881
0.000274733
0.000285859
0.000274748
0.000272577
0.000285929
0.000285929
0.000272612
0.000272533
0.000272533
0.000236747
0.000250133
0.00025013
0.00023674
0.000250135
0.000236739
0.000236747
0.000250133
0.000250131
0.000236741
0.000247943
0.000247943
0.000247943
0.0002211
0.0002211
0.0002211
0.0002211
0.000236822
0.00025009
0.000247905
0.000238943
0.000250068
0.000236787
0.000238957
0.000250135
0.000236739
0.000236822
0.000247905
0.00025009
0.000238943
0.000250068
0.000238957
0.000236787
0.000250137
0.000250137
0.000236822
0.000236743
0.000236743
0.000200955
0.000214341
0.000214339
0.000200948
0.000214346
0.000200943
0.000200954
0.000214341
0.000214339
0.000200948
0.000212151
0.000212151
0.000212151
0.000185306
0.000185306
0.000185306
0.000185306
0.000201029
0.000214297
0.000212114
0.000203153
0.000214277
0.000200996
0.000203166
0.000214346
0.000200943
0.000201029
0.000212114
0.000214297
0.000203153
0.000214277
0.000203166
0.000200996
0.000214345
0.000214345
0.00020103
0.000200952
0.000200952
0.000165157
0.000178546
0.000178545
0.000165151
0.000178557
0.00016514
0.000165157
0.000178546
0.000178545
0.000165151
0.000176354
0.000176354
0.000176354
0.000149502
0.000149502
0.000149502
0.000149501
0.00016523
0.0001785
0.00017632
0.000167359
0.000178484
0.000165202
0.000167371
0.000178557
0.00016514
0.00016523
0.00017632
0.0001785
0.00016736
0.000178483
0.000167371
0.000165202
0.000178548
0.000178548
0.000165233
0.000165158
0.000165158
0.000129348
0.000142743
0.000142743
0.000129345
0.000142764
0.00012932
0.000129348
0.000142743
0.000142743
0.000129346
0.000140548
0.000140547
0.000140547
0.000113682
0.000113681
0.000113681
0.000113681
0.000129419
0.000142694
0.000140519
0.000131558
0.000142684
0.000129404
0.000131567
0.000142764
0.00012932
0.000129419
0.000140519
0.000142694
0.000131559
0.000142683
0.000131567
0.000129403
0.000142741
0.000142741
0.000129425
0.000129356
0.000129356
9.35211e-05
0.000106923
0.000106925
9.35243e-05
0.000106969
9.34652e-05
9.35209e-05
0.000106923
0.000106925
9.35242e-05
0.000104722
0.000104722
0.000104722
7.78552e-05
7.7856e-05
7.78554e-05
7.7855e-05
9.3582e-05
0.000106865
0.000104703
9.57395e-05
0.000106872
9.35887e-05
9.57476e-05
0.000106969
9.34647e-05
9.35818e-05
0.000104703
0.000106864
9.57401e-05
0.000106872
9.57476e-05
9.35884e-05
0.000106913
0.000106913
9.35951e-05
9.35447e-05
9.35441e-05
5.76154e-05
7.10597e-05
7.10729e-05
5.76365e-05
7.11771e-05
5.74738e-05
5.76146e-05
7.10596e-05
7.10726e-05
5.76363e-05
6.89217e-05
6.89205e-05
6.89204e-05
4.24149e-05
4.24154e-05
4.24137e-05
4.24137e-05
5.76661e-05
7.09916e-05
6.88862e-05
5.99386e-05
7.10429e-05
5.77213e-05
5.99562e-05
7.11773e-05
5.74723e-05
5.76647e-05
6.88853e-05
7.09916e-05
5.99378e-05
7.10423e-05
5.99551e-05
5.77202e-05
7.10313e-05
7.10311e-05
5.77622e-05
5.76821e-05
5.7682e-05
2.06393e-05
3.4623e-05
3.47201e-05
2.00409e-05
3.49975e-05
1.94811e-05
2.06294e-05
3.4623e-05
3.47172e-05
2.00246e-05
3.37353e-05
3.37334e-05
3.37341e-05
8.07573e-06
8.07612e-06
8.0725e-06
8.07441e-06
2.10724e-05
3.4635e-05
3.3538e-05
2.51392e-05
3.48877e-05
2.0524e-05
2.50624e-05
3.49923e-05
1.94752e-05
2.10687e-05
3.35356e-05
3.46313e-05
2.51353e-05
3.48849e-05
2.50598e-05
2.05186e-05
3.4535e-05
3.45348e-05
2.20714e-05
2.03262e-05
2.03198e-05
3.53404e-06
3.31022e-06
3.26574e-06
9.23886e-08
1.56869e-07
-3.63006e-06
3.54535e-06
3.30484e-06
3.25739e-06
9.25315e-08
2.56806e-06
7.17371e-06
7.17153e-06
2.95095e-06
7.96499e-06
2.63123e-06
2.63076e-06
2.88456e-06
3.45612e-06
6.72583e-06
2.63476e-06
4.48255e-06
5.63782e-06
2.37163e-06
1.20725e-07
-3.63448e-06
2.88153e-06
6.72434e-06
3.45297e-06
2.63336e-06
4.48085e-06
2.37057e-06
5.62984e-06
-2.33372e-07
-2.28497e-07
2.11277e-06
3.32845e-06
3.31688e-06
0.000737816
0.000737816
0.000737892
0.000737814
0.000737813
0.000719918
0.000733307
0.000719918
0.000733307
0.000733185
0.000719916
0.000719915
0.000733313
0.000733314
0.00073782
0.000737814
0.000737893
0.000740012
0.000737857
0.000740027
0.000737893
0.000740012
0.000737857
0.000740027
0.000733306
0.000719916
0.000733308
0.000719922
0.000733306
0.000719916
0.000733307
0.000719922
0.000733243
0.000731064
0.000719958
0.00072213
0.000733266
0.000731078
0.000719996
0.000733243
0.000731064
0.000719959
0.00072213
0.000733266
0.000731078
0.000719996
0.000737892
0.000737814
0.000737814
0.000737816
0.000719918
0.000733307
0.000733185
0.000719916
0.000719915
0.000733313
0.000733314
0.000719918
0.000733307
0.000740012
0.000737857
0.000733305
0.000719916
0.000733308
0.000719922
0.000733243
0.000731064
0.000719959
0.00072213
0.000733266
0.000731078
0.000719996
0.000733305
0.000719916
0.000733308
0.000719922
0.000733243
0.000731063
0.000722129
0.000719959
0.000731078
0.000733266
0.000719996
0.00073782
0.000737814
0.000737893
0.000740027
0.00073782
0.000733243
0.000731064
0.000719959
0.00072213
0.000733266
0.000731078
0.000719996
0.000733305
0.000719916
0.000733308
0.000719923
0.000733243
0.000731063
0.00072213
0.000719959
0.000731078
0.000733266
0.000719996
0.000733306
0.000719916
0.000733308
0.000719922
0.000719918
0.000733307
0.000733185
0.000719915
0.000719915
0.000733314
0.000733314
0.000719918
0.000733307
0.000733243
0.000731063
0.000722129
0.000719959
0.000731078
0.000733266
0.000719996
0.000733242
0.000731063
0.000722129
0.000719959
0.000731078
0.000733266
0.000719996
0.000733305
0.000719916
0.000733308
0.000719923
0.000733305
0.000719916
0.000733308
0.000719923
0.000733185
0.000719915
0.000719915
0.000733314
0.000733314
0.000719918
0.000733307
0.000719918
0.000733307
0.000715409
0.00070202
0.000715409
0.00070202
0.000715416
0.000715416
0.000702097
0.000702018
0.000702017
0.000684123
0.000697511
0.000684123
0.000697511
0.00069739
0.00068412
0.00068412
0.000697518
0.000697518
0.000702025
0.000715409
0.000715408
0.000702018
0.000702098
0.000715368
0.000713181
0.000704218
0.000715345
0.000702061
0.000704232
0.000702098
0.000715368
0.000713181
0.000704218
0.000715345
0.000702061
0.000704232
0.00069751
0.000684121
0.000697512
0.000684127
0.00069751
0.000684121
0.000697512
0.000684127
0.000697447
0.00069527
0.000684163
0.000686335
0.000697471
0.000695284
0.000684201
0.000697447
0.000695269
0.000684163
0.000686335
0.000697471
0.000695284
0.000684201
0.000715416
0.000715416
0.000702097
0.000702018
0.000702018
0.000715409
0.00070202
0.000684123
0.000697511
0.000697391
0.00068412
0.00068412
0.000697517
0.000697518
0.000684123
0.000697511
0.000702098
0.000715368
0.000713181
0.000704218
0.000715345
0.000702061
0.000704232
0.000702024
0.00071541
0.000715408
0.000702018
0.000702098
0.000713181
0.000715369
0.000704217
0.000715345
0.000704232
0.000702061
0.00069751
0.000684121
0.000697512
0.000684127
0.000697447
0.000695269
0.000684163
0.000686335
0.000697471
0.000695283
0.000684201
0.00069751
0.000684121
0.000697512
0.000684127
0.000697447
0.000695268
0.000686335
0.000684163
0.000695284
0.000697471
0.000684201
0.000702024
0.000715409
0.000715408
0.000702018
0.000702098
0.000713181
0.000715368
0.000704218
0.000715345
0.000704232
0.000702061
0.000702024
0.000715409
0.000715408
0.000702018
0.000697447
0.000695269
0.000684163
0.000686335
0.000697471
0.000695283
0.0006842
0.00069751
0.000684121
0.000697512
0.000684127
0.000697447
0.000695269
0.000686335
0.000684163
0.000695283
0.00069747
0.0006842
0.00069751
0.000684121
0.000697512
0.000684127
0.000715416
0.000715415
0.000702097
0.000702018
0.000702018
0.000715409
0.00070202
0.000684122
0.000697511
0.00069739
0.00068412
0.00068412
0.000697518
0.000697518
0.000684123
0.000697511
0.000702098
0.000713181
0.000715368
0.000704218
0.000715345
0.000704232
0.000702061
0.000702024
0.00071541
0.000715408
0.000702018
0.000702024
0.00071541
0.000715407
0.000702018
0.000697447
0.000695269
0.000686335
0.000684163
0.000695283
0.00069747
0.0006842
0.000697447
0.000695269
0.000686335
0.000684163
0.000695283
0.000697471
0.0006842
0.000697509
0.000684121
0.000697512
0.000684127
0.000697509
0.000684121
0.000697512
0.000684127
0.000715408
0.00070202
0.000715408
0.00070202
0.00069739
0.00068412
0.00068412
0.000697518
0.000697518
0.000684123
0.000697511
0.000684123
0.000697511
0.000679614
0.000666226
0.000679614
0.000666226
0.000679621
0.000679621
0.000666303
0.000666224
0.000666223
0.00064833
0.000661717
0.00064833
0.000661717
0.000661597
0.000648328
0.000648327
0.000661724
0.000661724
0.00066623
0.000679614
0.000679613
0.000666224
0.000666304
0.000679573
0.000677386
0.000668423
0.00067955
0.000666267
0.000668438
0.000666304
0.000679573
0.000677386
0.000668423
0.00067955
0.000666267
0.000668438
0.000661716
0.000648328
0.000661718
0.000648334
0.000661716
0.000648328
0.000661718
0.000648334
0.000661653
0.000659476
0.000648371
0.000650542
0.000661677
0.00065949
0.000648408
0.000661653
0.000659476
0.000648371
0.000650542
0.000661677
0.00065949
0.000648408
0.000679621
0.000679621
0.000666303
0.000666224
0.000666223
0.000679614
0.000666226
0.00064833
0.000661717
0.000661597
0.000648327
0.000648327
0.000661724
0.000661724
0.00064833
0.000661717
0.000666304
0.000679573
0.000677386
0.000668423
0.00067955
0.000666267
0.000668438
0.00066623
0.000679614
0.000679613
0.000666224
0.000666304
0.000677386
0.000679573
0.000668423
0.00067955
0.000668438
0.000666267
0.000661716
0.000648328
0.000661718
0.000648334
0.000661653
0.000659476
0.000648371
0.000650542
0.000661677
0.00065949
0.000648408
0.000661716
0.000648328
0.000661718
0.000648334
0.000661653
0.000659474
0.000650542
0.000648371
0.00065949
0.000661677
0.000648408
0.00066623
0.000679614
0.000679612
0.000666224
0.000666304
0.000677386
0.000679573
0.000668424
0.00067955
0.000668438
0.000666267
0.00066623
0.000679614
0.000679613
0.000666224
0.000661653
0.000659476
0.00064837
0.000650541
0.000661677
0.00065949
0.000648407
0.000661716
0.000648328
0.000661718
0.000648334
0.000661653
0.000659476
0.000650542
0.00064837
0.00065949
0.000661677
0.000648407
0.000661716
0.000648328
0.000661718
0.000648334
0.00067962
0.00067962
0.000666302
0.000666224
0.000666224
0.000679613
0.000666226
0.00064833
0.000661717
0.000661596
0.000648327
0.000648327
0.000661725
0.000661724
0.00064833
0.000661717
0.000666304
0.000677386
0.000679573
0.000668424
0.00067955
0.000668438
0.000666267
0.00066623
0.000679614
0.000679613
0.000666224
0.00066623
0.000679614
0.000679612
0.000666224
0.000661653
0.000659474
0.000650541
0.00064837
0.00065949
0.000661677
0.000648407
0.000661653
0.000659475
0.000650541
0.00064837
0.00065949
0.000661677
0.000648408
0.000661716
0.000648328
0.000661718
0.000648334
0.000661715
0.000648328
0.000661718
0.000648335
0.000679614
0.000666226
0.000679614
0.000666226
0.000661596
0.000648327
0.000648328
0.000661724
0.000661724
0.00064833
0.000661717
0.00064833
0.000661717
0.000643821
0.000630434
0.000643821
0.000630435
0.000643828
0.000643829
0.000630511
0.000630432
0.000630432
0.000612539
0.000625925
0.000612539
0.000625926
0.000625805
0.000612536
0.000612536
0.000625932
0.000625932
0.000630439
0.000643822
0.00064382
0.000630432
0.000630512
0.000643781
0.000641594
0.000632631
0.000643758
0.000630475
0.000632646
0.000630512
0.00064378
0.000641594
0.00063263
0.000643758
0.000630475
0.000632646
0.000625925
0.000612537
0.000625927
0.000612543
0.000625925
0.000612537
0.000625926
0.000612543
0.000625862
0.000623684
0.000612579
0.00061475
0.000625885
0.000623698
0.000612616
0.000625862
0.000623684
0.00061258
0.00061475
0.000625885
0.000623698
0.000612616
0.000643828
0.000643828
0.000630511
0.000630432
0.000630432
0.000643821
0.000630434
0.000612538
0.000625926
0.000625805
0.000612536
0.000612536
0.000625932
0.000625932
0.000612539
0.000625925
0.000630512
0.000643781
0.000641594
0.000632631
0.000643758
0.000630475
0.000632646
0.000630439
0.000643822
0.00064382
0.000630432
0.000630512
0.000641593
0.000643781
0.000632631
0.000643757
0.000632646
0.000630475
0.000625925
0.000612537
0.000625927
0.000612543
0.000625862
0.000623684
0.000612579
0.00061475
0.000625885
0.000623698
0.000612616
0.000625925
0.000612537
0.000625927
0.000612543
0.000625862
0.000623682
0.00061475
0.000612579
0.000623698
0.000625885
0.000612616
0.000630439
0.000643822
0.00064382
0.000630432
0.000630511
0.000641594
0.00064378
0.000632631
0.000643757
0.000632645
0.000630475
0.000630438
0.000643822
0.00064382
0.000630432
0.000625861
0.000623683
0.000612579
0.00061475
0.000625885
0.000623698
0.000612616
0.000625925
0.000612537
0.000625927
0.000612543
0.000625861
0.000623684
0.00061475
0.000612579
0.000623698
0.000625885
0.000612616
0.000625925
0.000612537
0.000625926
0.000612543
0.000643828
0.000643828
0.00063051
0.000630432
0.000630432
0.000643821
0.000630434
0.000612539
0.000625926
0.000625803
0.000612536
0.000612536
0.000625933
0.000625933
0.000612539
0.000625926
0.000630512
0.000641594
0.000643781
0.000632631
0.000643757
0.000632645
0.000630475
0.000630439
0.000643822
0.00064382
0.000630433
0.000630439
0.000643822
0.00064382
0.000630432
0.000625862
0.000623682
0.00061475
0.000612579
0.000623698
0.000625885
0.000612616
0.000625862
0.000623684
0.00061475
0.000612579
0.000623698
0.000625885
0.000612616
0.000625924
0.000612537
0.000625927
0.000612543
0.000625924
0.000612537
0.000625926
0.000612544
0.000643821
0.000630434
0.000643821
0.000630434
0.000625805
0.000612536
0.000612536
0.000625932
0.000625932
0.000612539
0.000625925
0.000612539
0.000625925
0.00060803
0.000594643
0.00060803
0.000594643
0.000608037
0.000608037
0.00059472
0.000594641
0.000594641
0.000576747
0.000590134
0.000576747
0.000590134
0.000590014
0.000576744
0.000576744
0.000590141
0.000590141
0.000594647
0.000608031
0.000608029
0.000594641
0.000594721
0.00060799
0.000605802
0.000596839
0.000607966
0.000594683
0.000596854
0.000594721
0.000607989
0.000605802
0.000596839
0.000607966
0.000594683
0.000596854
0.000590133
0.000576745
0.000590135
0.000576751
0.000590133
0.000576746
0.000590135
0.000576751
0.000590071
0.000587892
0.000576788
0.000578959
0.000590094
0.000587906
0.000576825
0.000590071
0.000587892
0.000576788
0.000578959
0.000590093
0.000587907
0.000576825
0.000608036
0.000608037
0.00059472
0.000594641
0.000594641
0.00060803
0.000594643
0.000576747
0.000590134
0.000590013
0.000576745
0.000576744
0.000590141
0.000590141
0.000576747
0.000590134
0.000594721
0.00060799
0.000605802
0.000596839
0.000607966
0.000594684
0.000596854
0.000594648
0.000608031
0.000608029
0.000594641
0.000594721
0.000605802
0.00060799
0.00059684
0.000607966
0.000596854
0.000594684
0.000590134
0.000576745
0.000590135
0.000576752
0.00059007
0.000587892
0.000576788
0.000578958
0.000590094
0.000587906
0.000576825
0.000590134
0.000576745
0.000590135
0.000576752
0.00059007
0.000587892
0.000578959
0.000576788
0.000587906
0.000590094
0.000576825
0.000594647
0.000608031
0.000608029
0.000594641
0.000594721
0.000605802
0.000607989
0.00059684
0.000607966
0.000596854
0.000594684
0.000594647
0.000608031
0.000608029
0.000594641
0.000590071
0.000587892
0.000576788
0.000578959
0.000590094
0.000587907
0.000576825
0.000590133
0.000576746
0.000590135
0.000576751
0.000590071
0.000587893
0.000578959
0.000576788
0.000587907
0.000590094
0.000576825
0.000590133
0.000576745
0.000590135
0.000576751
0.000608037
0.000608037
0.000594719
0.00059464
0.00059464
0.00060803
0.000594643
0.000576748
0.000590134
0.000590013
0.000576745
0.000576745
0.000590141
0.000590141
0.000576748
0.000590134
0.000594721
0.000605802
0.000607989
0.000596839
0.000607966
0.000596854
0.000594684
0.000594648
0.000608031
0.000608029
0.000594641
0.000594648
0.000608031
0.000608029
0.000594641
0.00059007
0.000587892
0.000578959
0.000576788
0.000587906
0.000590094
0.000576825
0.00059007
0.000587893
0.000578959
0.000576788
0.000587906
0.000590094
0.000576825
0.000590134
0.000576745
0.000590135
0.000576752
0.000590133
0.000576746
0.000590135
0.000576752
0.00060803
0.000594643
0.00060803
0.000594643
0.000590014
0.000576745
0.000576745
0.000590141
0.000590141
0.000576747
0.000590134
0.000576747
0.000590134
0.000572238
0.000558851
0.000572238
0.000558851
0.000572245
0.000572245
0.000558927
0.000558849
0.000558849
0.000540955
0.000554342
0.000540955
0.000554343
0.000554221
0.000540952
0.000540952
0.000554349
0.00055435
0.000558855
0.000572239
0.000572237
0.000558849
0.000558929
0.000572198
0.000570011
0.000561047
0.000572175
0.000558892
0.000561063
0.000558929
0.000572198
0.000570011
0.000561047
0.000572175
0.000558892
0.000561063
0.000554341
0.000540953
0.000554343
0.00054096
0.000554342
0.000540954
0.000554343
0.00054096
0.000554279
0.0005521
0.000540996
0.000543167
0.000554302
0.000552115
0.000541033
0.000554279
0.0005521
0.000540996
0.000543167
0.000554302
0.000552115
0.000541033
0.000572245
0.000572245
0.000558928
0.000558849
0.000558849
0.000572238
0.000558852
0.000540955
0.000554343
0.000554221
0.000540953
0.000540952
0.000554349
0.00055435
0.000540955
0.000554343
0.000558929
0.000572198
0.000570011
0.000561047
0.000572175
0.000558892
0.000561063
0.000558855
0.000572239
0.000572238
0.000558849
0.000558929
0.000570011
0.000572198
0.000561049
0.000572175
0.000561063