/*--------------------------------*- C++ -*----------------------------------*\
| =========                 |                                                 |
| \\      /  F ield         | OpenFOAM: The Open Source CFD Toolbox           |
|  \\    /   O peration     | Version:  2312                                  |
|   \\  /    A nd           | Website:  www.openfoam.com                      |
|    \\/     M anipulation  |                                                 |
\*---------------------------------------------------------------------------*/
FoamFile
{
    version     2.0;
    format      ascii;
    arch        "LSB;label=32;scalar=64";
    class       volScalarField;
    location    "125";
    object      p;
}
// * * * * * * * * * * * * * * * * * * * * * * * * * * * * * * * * * * * * * //

dimensions      [0 2 -2 0 0 0 0];

internalField   nonuniform List<scalar> 
42840
(
0.00259152
0.00259147
0.00259147
0.00259391
0.00255191
0.00255185
0.00255185
0.00255428
0.0025126
0.00251252
0.00251252
0.00251493
0.00247374
0.00247366
0.00247366
0.00247603
0.00243537
0.00243527
0.00243527
0.00243759
0.00239767
0.00239757
0.00239757
0.00239982
0.00236066
0.00236058
0.00236058
0.00236277
0.0023242
0.00232415
0.00232415
0.00232631
0.00228811
0.00228805
0.00228805
0.00229019
0.00225221
0.00225215
0.00225215
0.00225428
0.00221639
0.00221633
0.00221634
0.00221846
0.0021806
0.00218054
0.00218054
0.00218266
0.00214481
0.00214476
0.00214476
0.00214688
0.00210903
0.00210897
0.00210897
0.00211109
0.00207324
0.00207319
0.00207319
0.00207531
0.00203746
0.0020374
0.0020374
0.00203952
0.00200167
0.00200161
0.00200161
0.00200374
0.00196588
0.00196583
0.00196583
0.00196795
0.0019301
0.00193004
0.00193004
0.00193216
0.00189431
0.00189425
0.00189425
0.00189637
0.00185852
0.00185846
0.00185846
0.00186058
0.00182273
0.00182267
0.00182267
0.00182479
0.00178694
0.00178688
0.00178688
0.001789
0.00175115
0.00175109
0.00175109
0.00175321
0.00171535
0.0017153
0.0017153
0.00171742
0.00259391
0.00255945
0.00259147
0.00259147
0.00256173
0.00256173
0.00259391
0.00255945
0.00259147
0.00259147
0.00256173
0.00256173
0.00259148
0.00256173
0.00256173
0.00259391
0.00255945
0.00259147
0.00256173
0.00256173
0.00255945
0.00255428
0.00252005
0.00255185
0.00255185
0.00252232
0.00252232
0.00255428
0.00252005
0.00255185
0.00255185
0.00252232
0.00252232
0.00255185
0.00252232
0.00252232
0.00255428
0.00252005
0.00255185
0.00252232
0.00252232
0.00252005
0.00251493
0.0024811
0.00251252
0.00251252
0.00248333
0.00248333
0.00251493
0.0024811
0.00251252
0.00251252
0.00248333
0.00248333
0.00251252
0.00248333
0.00248333
0.00251492
0.0024811
0.00251252
0.00248333
0.00248333
0.0024811
0.00247603
0.0024426
0.00247366
0.00247366
0.00244481
0.00244481
0.00247603
0.0024426
0.00247366
0.00247366
0.00244481
0.00244481
0.00247366
0.00244481
0.00244481
0.00247603
0.0024426
0.00247366
0.00244481
0.00244481
0.0024426
0.00243759
0.00240473
0.00243527
0.00243527
0.00240693
0.00240693
0.00243759
0.00240473
0.00243527
0.00243527
0.00240693
0.00240693
0.00243527
0.00240693
0.00240693
0.00243759
0.00240473
0.00243527
0.00240693
0.00240693
0.00240473
0.00239982
0.00236759
0.00239757
0.00239757
0.00236977
0.00236977
0.00239982
0.00236759
0.00239757
0.00239757
0.00236977
0.00236977
0.00239757
0.00236977
0.00236977
0.00239982
0.00236759
0.00239757
0.00236977
0.00236977
0.00236759
0.00236277
0.00233108
0.00236058
0.00236058
0.00233322
0.00233322
0.00236277
0.00233108
0.00236058
0.00236058
0.00233322
0.00233322
0.00236058
0.00233322
0.00233322
0.00236277
0.00233108
0.00236058
0.00233322
0.00233322
0.00233108
0.00232631
0.00229493
0.00232415
0.00232415
0.00229706
0.00229706
0.00232631
0.00229493
0.00232415
0.00232415
0.00229706
0.00229706
0.00232415
0.00229706
0.00229706
0.00232631
0.00229493
0.00232415
0.00229706
0.00229706
0.00229493
0.00229019
0.00225899
0.00228805
0.00228805
0.00226112
0.00226112
0.00229019
0.00225899
0.00228805
0.00228805
0.00226112
0.00226112
0.00228805
0.00226112
0.00226112
0.00229019
0.00225899
0.00228805
0.00226112
0.00226112
0.00225899
0.00225428
0.00222316
0.00225215
0.00225215
0.00222529
0.00222528
0.00225428
0.00222316
0.00225215
0.00225215
0.00222529
0.00222529
0.00225215
0.00222528
0.00222529
0.00225428
0.00222316
0.00225215
0.00222529
0.00222529
0.00222316
0.00221846
0.00218737
0.00221633
0.00221633
0.00218949
0.00218949
0.00221846
0.00218737
0.00221634
0.00221634
0.00218949
0.00218949
0.00221634
0.00218949
0.00218949
0.00221846
0.00218737
0.00221634
0.00218949
0.00218949
0.00218737
0.00218266
0.00215158
0.00218054
0.00218054
0.0021537
0.0021537
0.00218266
0.00215158
0.00218054
0.00218054
0.0021537
0.0021537
0.00218054
0.0021537
0.0021537
0.00218266
0.00215158
0.00218054
0.0021537
0.0021537
0.00215158
0.00214688
0.0021158
0.00214476
0.00214476
0.00211792
0.00211792
0.00214688
0.0021158
0.00214476
0.00214476
0.00211792
0.00211792
0.00214476
0.00211792
0.00211792
0.00214688
0.0021158
0.00214476
0.00211792
0.00211792
0.0021158
0.00211109
0.00208001
0.00210897
0.00210897
0.00208213
0.00208213
0.00211109
0.00208001
0.00210897
0.00210897
0.00208213
0.00208213
0.00210897
0.00208213
0.00208213
0.00211109
0.00208001
0.00210897
0.00208213
0.00208213
0.00208001
0.00207531
0.00204423
0.00207319
0.00207319
0.00204635
0.00204635
0.00207531
0.00204423
0.00207319
0.00207319
0.00204635
0.00204635
0.00207319
0.00204635
0.00204635
0.00207531
0.00204423
0.00207319
0.00204635
0.00204635
0.00204423
0.00203952
0.00200844
0.0020374
0.0020374
0.00201056
0.00201056
0.00203952
0.00200844
0.0020374
0.0020374
0.00201056
0.00201056
0.0020374
0.00201056
0.00201056
0.00203952
0.00200844
0.0020374
0.00201056
0.00201056
0.00200844
0.00200374
0.00197265
0.00200161
0.00200161
0.00197477
0.00197477
0.00200374
0.00197265
0.00200161
0.00200161
0.00197477
0.00197477
0.00200162
0.00197477
0.00197477
0.00200374
0.00197265
0.00200161
0.00197477
0.00197477
0.00197265
0.00196795
0.00193687
0.00196583
0.00196583
0.00193899
0.00193899
0.00196795
0.00193687
0.00196583
0.00196583
0.00193899
0.00193899
0.00196583
0.00193899
0.00193899
0.00196795
0.00193687
0.00196583
0.00193899
0.00193899
0.00193687
0.00193216
0.00190108
0.00193004
0.00193004
0.0019032
0.0019032
0.00193216
0.00190108
0.00193004
0.00193004
0.0019032
0.0019032
0.00193004
0.0019032
0.0019032
0.00193216
0.00190108
0.00193004
0.0019032
0.0019032
0.00190108
0.00189637
0.00186529
0.00189425
0.00189425
0.00186741
0.00186741
0.00189637
0.00186529
0.00189425
0.00189425
0.00186741
0.00186741
0.00189425
0.00186741
0.00186741
0.00189637
0.00186529
0.00189425
0.00186741
0.00186741
0.00186529
0.00186058
0.0018295
0.00185846
0.00185846
0.00183162
0.00183162
0.00186058
0.0018295
0.00185846
0.00185846
0.00183162
0.00183162
0.00185846
0.00183162
0.00183162
0.00186058
0.0018295
0.00185846
0.00183162
0.00183162
0.0018295
0.00182479
0.00179371
0.00182267
0.00182267
0.00179583
0.00179583
0.00182479
0.00179371
0.00182267
0.00182267
0.00179583
0.00179583
0.00182267
0.00179583
0.00179583
0.00182479
0.00179371
0.00182267
0.00179583
0.00179583
0.00179371
0.001789
0.00175792
0.00178688
0.00178688
0.00176004
0.00176004
0.001789
0.00175792
0.00178688
0.00178688
0.00176004
0.00176004
0.00178688
0.00176004
0.00176004
0.001789
0.00175792
0.00178688
0.00176004
0.00176004
0.00175792
0.00175321
0.00172213
0.00175109
0.00175109
0.00172425
0.00172425
0.00175321
0.00172213
0.00175109
0.00175109
0.00172425
0.00172425
0.00175109
0.00172425
0.00172425
0.00175321
0.00172213
0.00175109
0.00172425
0.00172425
0.00172213
0.00171742
0.0017153
0.0017153
0.00171742
0.0017153
0.0017153
0.0017153
0.00171742
0.0017153
0.00257896
0.00259375
0.00257888
0.00259382
0.00259372
0.00257887
0.00257896
0.00259375
0.00257888
0.00259382
0.00259152
0.00259153
0.00259152
0.00256179
0.00256179
0.00256179
0.00256179
0.00257921
0.00259381
0.0025915
0.00258154
0.00257905
0.00258157
0.00259393
0.00259372
0.00257887
0.00257921
0.0025915
0.00259381
0.00258154
0.00258157
0.00257905
0.00259393
0.0025938
0.0025938
0.00257925
0.00257893
0.00257893
0.00253942
0.00255412
0.00255419
0.00253935
0.0025541
0.00253933
0.00253942
0.00255412
0.00255419
0.00253935
0.00255191
0.00255191
0.00255191
0.00252239
0.00252239
0.00252239
0.00252239
0.00253966
0.00255417
0.00255187
0.00254199
0.00255427
0.00253949
0.00254201
0.0025541
0.00253933
0.00253966
0.00255187
0.00255417
0.00254199
0.00255427
0.00254201
0.00253949
0.00255417
0.00255417
0.00253971
0.00253938
0.00253938
0.00250021
0.00251475
0.00251481
0.00250014
0.00251473
0.00250013
0.00250021
0.00251475
0.00251481
0.00250014
0.0025126
0.0025126
0.0025126
0.00248342
0.00248342
0.00248342
0.00248342
0.00250043
0.00251478
0.00251255
0.00250276
0.00251489
0.00250027
0.00250279
0.00251473
0.00250013
0.00250043
0.00251255
0.00251478
0.00250276
0.00251489
0.00250279
0.00250027
0.00251478
0.00251478
0.00250051
0.00250017
0.00250017
0.00246149
0.00247587
0.00247593
0.00246144
0.00247586
0.00246143
0.00246149
0.00247587
0.00247593
0.00246144
0.00247374
0.00247374
0.00247374
0.00244491
0.00244491
0.00244491
0.00244491
0.00246169
0.00247589
0.00247368
0.00246401
0.00247598
0.00246154
0.00246403
0.00247586
0.00246143
0.00246169
0.00247368
0.00247589
0.00246401
0.00247598
0.00246403
0.00246154
0.00247591
0.00247591
0.00246179
0.00246145
0.00246146
0.00242328
0.00243745
0.00243749
0.00242324
0.00243744
0.00242324
0.00242328
0.00243745
0.00243749
0.00242324
0.00243537
0.00243537
0.00243537
0.00240703
0.00240703
0.00240703
0.00240703
0.00242344
0.00243745
0.0024353
0.00242578
0.00243752
0.00242333
0.0024258
0.00243744
0.00242324
0.00242344
0.0024353
0.00243745
0.00242578
0.00243752
0.0024258
0.00242333
0.00243747
0.00243747
0.00242357
0.00242326
0.00242326
0.00238588
0.00239975
0.00239977
0.00238586
0.00239974
0.00238585
0.00238588
0.00239975
0.00239977
0.00238586
0.00239767
0.00239767
0.00239767
0.00236985
0.00236985
0.00236985
0.00236985
0.00238599
0.00239972
0.0023976
0.00238826
0.00239975
0.00238591
0.00238829
0.00239974
0.00238585
0.00238599
0.0023976
0.00239972
0.00238826
0.00239975
0.00238829
0.00238591
0.00239976
0.00239976
0.00238608
0.00238586
0.00238586
0.00234916
0.00236282
0.00236282
0.00234915
0.00236281
0.00234915
0.00234916
0.00236282
0.00236282
0.00234915
0.00236066
0.00236066
0.00236066
0.00233327
0.00233327
0.00233327
0.00233327
0.00234924
0.00236278
0.0023606
0.00235143
0.00236278
0.00234919
0.00235145
0.00236281
0.00234915
0.00234924
0.0023606
0.00236278
0.00235143
0.00236278
0.00235145
0.00234919
0.00236282
0.00236282
0.00234927
0.00234915
0.00234915
0.00231288
0.00232641
0.0023264
0.00231287
0.0023264
0.00231287
0.00231288
0.00232641
0.0023264
0.00231287
0.0023242
0.0023242
0.0023242
0.00229711
0.00229711
0.00229711
0.00229711
0.00231295
0.00232636
0.00232416
0.0023151
0.00232634
0.00231291
0.00231512
0.0023264
0.00231287
0.00231295
0.00232416
0.00232636
0.0023151
0.00232634
0.00231512
0.00231291
0.00232641
0.00232641
0.00231297
0.00231287
0.00231287
0.00227685
0.0022903
0.0022903
0.00227685
0.0022903
0.00227685
0.00227685
0.0022903
0.0022903
0.00227685
0.00228811
0.00228811
0.00228811
0.00226117
0.00226117
0.00226117
0.00226117
0.00227693
0.00229026
0.00228807
0.00227906
0.00229024
0.00227689
0.00227908
0.0022903
0.00227685
0.00227693
0.00228807
0.00229026
0.00227906
0.00229024
0.00227908
0.00227689
0.00229031
0.00229031
0.00227694
0.00227685
0.00227685
0.00224099
0.00225439
0.00225439
0.00224098
0.00225439
0.00224099
0.00224099
0.00225439
0.00225439
0.00224098
0.00225221
0.00225221
0.00225221
0.00222534
0.00222534
0.00222534
0.00222534
0.00224106
0.00225435
0.00225217
0.00224319
0.00225432
0.00224103
0.00224321
0.00225439
0.00224099
0.00224106
0.00225217
0.00225435
0.00224319
0.00225432
0.00224321
0.00224103
0.00225439
0.0022544
0.00224107
0.00224098
0.00224098
0.00220519
0.00221857
0.00221857
0.00220518
0.00221857
0.00220519
0.00220519
0.00221857
0.00221857
0.00220518
0.00221639
0.00221639
0.00221639
0.00218955
0.00218955
0.00218955
0.00218955
0.00220526
0.00221853
0.00221635
0.00220739
0.00221851
0.00220523
0.0022074
0.00221857
0.00220519
0.00220526
0.00221635
0.00221853
0.00220739
0.00221851
0.0022074
0.00220523
0.00221858
0.00221858
0.00220526
0.00220518
0.00220518
0.0021694
0.00218278
0.00218278
0.0021694
0.00218278
0.0021694
0.0021694
0.00218278
0.00218278
0.0021694
0.0021806
0.0021806
0.0021806
0.00215376
0.00215376
0.00215376
0.00215376
0.00216948
0.00218274
0.00218056
0.0021716
0.00218272
0.00216944
0.00217161
0.00218278
0.0021694
0.00216948
0.00218056
0.00218274
0.0021716
0.00218272
0.00217161
0.00216944
0.00218279
0.00218279
0.00216948
0.0021694
0.0021694
0.00213362
0.002147
0.002147
0.00213361
0.002147
0.00213362
0.00213362
0.002147
0.002147
0.00213361
0.00214481
0.00214481
0.00214481
0.00211797
0.00211797
0.00211797
0.00211797
0.00213369
0.00214696
0.00214477
0.00213581
0.00214694
0.00213366
0.00213583
0.002147
0.00213362
0.00213369
0.00214477
0.00214696
0.00213581
0.00214694
0.00213583
0.00213366
0.00214701
0.00214701
0.00213369
0.00213361
0.00213361
0.00209783
0.00211122
0.00211121
0.00209783
0.00211122
0.00209783
0.00209784
0.00211122
0.00211121
0.00209783
0.00210903
0.00210903
0.00210903
0.00208219
0.00208219
0.00208219
0.00208219
0.00209791
0.00211117
0.00210899
0.00210003
0.00211115
0.00209787
0.00210004
0.00211122
0.00209783
0.00209791
0.00210899
0.00211118
0.00210003
0.00211115
0.00210004
0.00209787
0.00211122
0.00211122
0.00209791
0.00209783
0.00209783
0.00206205
0.00207543
0.00207543
0.00206204
0.00207543
0.00206205
0.00206205
0.00207543
0.00207543
0.00206204
0.00207324
0.00207324
0.00207324
0.0020464
0.0020464
0.0020464
0.0020464
0.00206212
0.00207539
0.0020732
0.00206424
0.00207537
0.00206209
0.00206426
0.00207543
0.00206205
0.00206212
0.0020732
0.00207539
0.00206424
0.00207537
0.00206426
0.00206209
0.00207544
0.00207544
0.00206212
0.00206204
0.00206204
0.00202626
0.00203964
0.00203964
0.00202626
0.00203964
0.00202626
0.00202626
0.00203964
0.00203964
0.00202626
0.00203746
0.00203746
0.00203746
0.00201062
0.00201062
0.00201062
0.00201062
0.00202634
0.0020396
0.00203742
0.00202845
0.00203958
0.0020263
0.00202847
0.00203964
0.00202626
0.00202634
0.00203742
0.0020396
0.00202845
0.00203958
0.00202847
0.0020263
0.00203965
0.00203965
0.00202633
0.00202626
0.00202626
0.00199048
0.00200386
0.00200386
0.00199047
0.00200386
0.00199047
0.00199048
0.00200386
0.00200386
0.00199047
0.00200167
0.00200167
0.00200167
0.00197483
0.00197483
0.00197483
0.00197483
0.00199055
0.00200382
0.00200163
0.00199267
0.00200379
0.00199051
0.00199268
0.00200386
0.00199047
0.00199055
0.00200163
0.00200382
0.00199267
0.00200379
0.00199268
0.00199051
0.00200386
0.00200386
0.00199055
0.00199047
0.00199047
0.00195469
0.00196807
0.00196807
0.00195468
0.00196807
0.00195468
0.00195469
0.00196807
0.00196807
0.00195468
0.00196588
0.00196588
0.00196588
0.00193904
0.00193904
0.00193904
0.00193904
0.00195476
0.00196803
0.00196584
0.00195688
0.00196801
0.00195473
0.0019569
0.00196807
0.00195468
0.00195476
0.00196584
0.00196803
0.00195688
0.00196801
0.0019569
0.00195472
0.00196808
0.00196808
0.00195476
0.00195468
0.00195468
0.0019189
0.00193228
0.00193228
0.00191889
0.00193229
0.0019189
0.0019189
0.00193228
0.00193228
0.0019189
0.0019301
0.0019301
0.0019301
0.00190325
0.00190325
0.00190325
0.00190325
0.00191897
0.00193224
0.00193006
0.00192109
0.00193222
0.00191894
0.00192111
0.00193228
0.0019189
0.00191897
0.00193005
0.00193224
0.00192109
0.00193222
0.00192111
0.00191894
0.00193229
0.00193229
0.00191897
0.00191889
0.00191889
0.00188311
0.0018965
0.00189649
0.00188311
0.0018965
0.00188311
0.00188311
0.0018965
0.00189649
0.00188311
0.00189431
0.00189431
0.00189431
0.00186747
0.00186747
0.00186747
0.00186747
0.00188319
0.00189645
0.00189427
0.00188531
0.00189643
0.00188315
0.00188532
0.00189649
0.00188311
0.00188319
0.00189427
0.00189645
0.00188531
0.00189643
0.00188532
0.00188315
0.0018965
0.0018965
0.00188319
0.00188311
0.00188311
0.00184732
0.00186071
0.0018607
0.00184732
0.00186071
0.00184732
0.00184732
0.00186071
0.0018607
0.00184732
0.00185852
0.00185852
0.00185852
0.00183168
0.00183168
0.00183168
0.00183168
0.0018474
0.00186066
0.00185848
0.00184952
0.00186064
0.00184736
0.00184953
0.00186071
0.00184732
0.0018474
0.00185848
0.00186067
0.00184952
0.00186064
0.00184953
0.00184736
0.00186071
0.00186071
0.0018474
0.00184732
0.00184732
0.00181153
0.00182492
0.00182491
0.00181153
0.00182492
0.00181153
0.00181153
0.00182492
0.00182491
0.00181153
0.00182273
0.00182273
0.00182273
0.00179589
0.00179589
0.00179589
0.00179588
0.00181161
0.00182487
0.00182269
0.00181373
0.00182485
0.00181157
0.00181374
0.00182492
0.00181153
0.00181161
0.00182269
0.00182488
0.00181373
0.00182485
0.00181374
0.00181157
0.00182492
0.00182492
0.00181161
0.00181153
0.00181153
0.00177574
0.00178913
0.00178912
0.00177574
0.00178912
0.00177574
0.00177574
0.00178913
0.00178912
0.00177574
0.00178694
0.00178694
0.00178694
0.00176009
0.00176009
0.00176009
0.00176009
0.00177582
0.00178908
0.0017869
0.00177793
0.00178906
0.00177578
0.00177795
0.00178912
0.00177574
0.00177582
0.0017869
0.00178908
0.00177793
0.00178906
0.00177795
0.00177578
0.00178913
0.00178913
0.00177581
0.00177574
0.00177574
0.00173995
0.00175333
0.00175333
0.00173994
0.00175333
0.00173995
0.00173995
0.00175333
0.00175333
0.00173994
0.00175115
0.00175115
0.00175115
0.0017243
0.0017243
0.0017243
0.0017243
0.00174002
0.00175329
0.00175111
0.00174214
0.00175327
0.00173999
0.00174216
0.00175333
0.00173995
0.00174002
0.00175111
0.00175329
0.00174214
0.00175327
0.00174216
0.00173999
0.00175334
0.00175334
0.00174002
0.00173994
0.00173994
0.00170416
0.00171754
0.00171754
0.00170415
0.00171754
0.00170415
0.00170416
0.00171754
0.00171754
0.00170415
0.00171535
0.00171535
0.00171535
0.00170423
0.0017175
0.00171531
0.00170635
0.00171748
0.0017042
0.00170637
0.00171754
0.00170415
0.00170423
0.00171531
0.0017175
0.00170635
0.00171748
0.00170637
0.0017042
0.00171755
0.00171755
0.00170423
0.00170415
0.00170415
0.00259372
0.00257887
0.00259372
0.00257887
0.0025938
0.0025938
0.00257924
0.00257893
0.00257893
0.00255908
0.00257388
0.00255908
0.00257388
0.00257406
0.00255914
0.00255914
0.00257395
0.00257395
0.00257896
0.00259375
0.00257888
0.00259382
0.00257921
0.00259381
0.0025915
0.00258154
0.00257905
0.00258157
0.00259393
0.00257921
0.00259381
0.0025915
0.00258154
0.00257905
0.00258157
0.00259393
0.00257397
0.00255909
0.0025739
0.00255917
0.00257397
0.00255909
0.0025739
0.00255917
0.00257406
0.00257163
0.00255924
0.00256175
0.00257395
0.00257165
0.00255941
0.00257407
0.00257163
0.00255925
0.00256175
0.00257396
0.00257165
0.00255941
0.0025938
0.0025938
0.00257925
0.00257893
0.00257893
0.00259372
0.00257887
0.00255908
0.00257388
0.00257407
0.00255914
0.00255914
0.00257395
0.00257395
0.00255908
0.00257388
0.00257921
0.00259381
0.0025915
0.00258154
0.00257905
0.00258157
0.00259392
0.00257896
0.00259375
0.00257888
0.00259382
0.00257921
0.0025915
0.00259381
0.00258154
0.00258157
0.00257905
0.00259392
0.00257397
0.00255909
0.0025739
0.00255917
0.00257406
0.00257163
0.00255924
0.00256175
0.00257395
0.00257165
0.00255941
0.00257397
0.00255909
0.0025739
0.00255917
0.00257406
0.00257163
0.00256175
0.00255925
0.00257165
0.00257396
0.00255941
0.00257896
0.00259375
0.00257889
0.00259381
0.00257921
0.0025915
0.00259381
0.00258154
0.00258157
0.00257905
0.00259393
0.00257896
0.00259375
0.00257889
0.00259382
0.00257407
0.00257163
0.00255925
0.00256176
0.00257396
0.00257165
0.00255941
0.00257397
0.00255909
0.0025739
0.00255917
0.00257407
0.00257163
0.00256176
0.00255924
0.00257165
0.00257396
0.00255941
0.00257397
0.00255909
0.0025739
0.00255917
0.0025938
0.0025938
0.00257924
0.00257893
0.00257893
0.00259372
0.00257887
0.00255908
0.00257388
0.00257407
0.00255914
0.00255914
0.00257395
0.00257395
0.00255908
0.00257388
0.00257921
0.0025915
0.00259381
0.00258154
0.00258157
0.00257905
0.00259393
0.00257896
0.00259375
0.00257888
0.00259382
0.00257896
0.00259375
0.00257888
0.00259382
0.00257407
0.00257163
0.00256176
0.00255925
0.00257165
0.00257396
0.00255941
0.00257407
0.00257163
0.00256176
0.00255925
0.00257165
0.00257396
0.00255941
0.00257397
0.00255909
0.0025739
0.00255917
0.00257397
0.00255909
0.0025739
0.00255917
0.00259372
0.00257887
0.00259372
0.00257887
0.00257407
0.00255914
0.00255914
0.00257395
0.00257395
0.00255908
0.00257388
0.00255908
0.00257388
0.0025541
0.00253933
0.0025541
0.00253933
0.00255417
0.00255417
0.00253971
0.00253938
0.00253938
0.00251966
0.00253436
0.00251966
0.00253436
0.00253456
0.00251971
0.00251971
0.00253442
0.00253443
0.00253942
0.00255412
0.00255419
0.00253935
0.00253966
0.00255417
0.00255187
0.00254199
0.00255427
0.00253949
0.00254201
0.00253966
0.00255417
0.00255187
0.00254199
0.00255427
0.00253949
0.00254201
0.00253446
0.00251968
0.00253439
0.00251975
0.00253446
0.00251968
0.00253439
0.00251975
0.00253454
0.00253214
0.00251981
0.00252234
0.00253443
0.00253216
0.00251998
0.00253454
0.00253214
0.00251981
0.00252234
0.00253443
0.00253216
0.00251998
0.00255417
0.00255417
0.00253971
0.00253938
0.00253938
0.0025541
0.00253933
0.00251966
0.00253436
0.00253455
0.00251971
0.00251971
0.00253442
0.00253442
0.00251966
0.00253436
0.00253966
0.00255417
0.00255187
0.00254199
0.00255427
0.00253949
0.00254201
0.00253942
0.00255412
0.00255419
0.00253935
0.00253966
0.00255187
0.00255417
0.00254199
0.00255427
0.00254201
0.00253949
0.00253446
0.00251968
0.00253439
0.00251975
0.00253454
0.00253214
0.00251981
0.00252234
0.00253443
0.00253216
0.00251998
0.00253446
0.00251968
0.00253439
0.00251975
0.00253454
0.00253214
0.00252234
0.00251981
0.00253216
0.00253443
0.00251998
0.00253942
0.00255412
0.00255419
0.00253935
0.00253966
0.00255187
0.00255417
0.00254199
0.00255427
0.00254201
0.00253949
0.00253942
0.00255412
0.00255419
0.00253935
0.00253454
0.00253214
0.00251981
0.00252234
0.00253443
0.00253216
0.00251998
0.00253446
0.00251968
0.00253439
0.00251975
0.00253454
0.00253214
0.00252234
0.00251981
0.00253216
0.00253443
0.00251998
0.00253446
0.00251968
0.00253439
0.00251975
0.00255417
0.00255417
0.00253971
0.00253938
0.00253938
0.0025541
0.00253933
0.00251966
0.00253436
0.00253455
0.0025197
0.0025197
0.00253442
0.00253442
0.00251966
0.00253436
0.00253966
0.00255187
0.00255417
0.00254199
0.00255427
0.00254201
0.00253949
0.00253942
0.00255412
0.00255419
0.00253935
0.00253942
0.00255412
0.00255419
0.00253935
0.00253454
0.00253214
0.00252234
0.00251981
0.00253216
0.00253443
0.00251998
0.00253454
0.00253214
0.00252234
0.00251981
0.00253216
0.00253443
0.00251998
0.00253446
0.00251968
0.00253439
0.00251975
0.00253446
0.00251968
0.00253439
0.00251975
0.0025541
0.00253933
0.0025541
0.00253933
0.00253456
0.00251971
0.0025197
0.00253442
0.00253442
0.00251966
0.00253436
0.00251966
0.00253436
0.00251473
0.00250013
0.00251473
0.00250013
0.00251478
0.00251478
0.00250051
0.00250017
0.00250017
0.00248073
0.00249523
0.00248073
0.00249523
0.00249542
0.00248077
0.00248077
0.00249528
0.00249528
0.00250021
0.00251475
0.00251481
0.00250014
0.00250043
0.00251478
0.00251255
0.00250276
0.00251489
0.00250027
0.00250279
0.00250043
0.00251478
0.00251255
0.00250276
0.00251489
0.00250027
0.00250279
0.00249531
0.00248073
0.00249525
0.0024808
0.00249531
0.00248073
0.00249525
0.0024808
0.00249538
0.00249303
0.00248085
0.00248335
0.00249527
0.00249306
0.00248101
0.00249538
0.00249303
0.00248085
0.00248335
0.00249527
0.00249305
0.00248101
0.00251478
0.00251478
0.00250051
0.00250017
0.00250017
0.00251473
0.00250013
0.00248073
0.00249523
0.00249542
0.00248077
0.00248077
0.00249528
0.00249528
0.00248073
0.00249523
0.00250043
0.00251478
0.00251255
0.00250276
0.00251489
0.00250027
0.00250279
0.00250021
0.00251475
0.00251481
0.00250014
0.00250043
0.00251255
0.00251478
0.00250276
0.00251489
0.00250279
0.00250027
0.00249531
0.00248073
0.00249525
0.0024808
0.00249538
0.00249303
0.00248085
0.00248335
0.00249527
0.00249305
0.00248101
0.00249531
0.00248073
0.00249525
0.0024808
0.00249538
0.00249303
0.00248335
0.00248085
0.00249305
0.00249527
0.00248101
0.00250021
0.00251475
0.00251481
0.00250014
0.00250043
0.00251255
0.00251478
0.00250276
0.00251489
0.00250279
0.00250027
0.00250021
0.00251475
0.00251481
0.00250014
0.00249538
0.00249303
0.00248085
0.00248335
0.00249527
0.00249306
0.00248101
0.00249531
0.00248074
0.00249525
0.0024808
0.00249538
0.00249303
0.00248335
0.00248085
0.00249306
0.00249527
0.00248101
0.00249531
0.00248073
0.00249525
0.0024808
0.00251478
0.00251478
0.00250051
0.00250017
0.00250017
0.00251473
0.00250013
0.00248073
0.00249523
0.00249542
0.00248077
0.00248077
0.00249528
0.00249528
0.00248073
0.00249523
0.00250043
0.00251255
0.00251478
0.00250276
0.00251489
0.00250279
0.00250027
0.00250021
0.00251475
0.00251481
0.00250014
0.00250021
0.00251475
0.00251481
0.00250014
0.00249538
0.00249303
0.00248335
0.00248085
0.00249305
0.00249527
0.00248101
0.00249538
0.00249303
0.00248335
0.00248085
0.00249305
0.00249527
0.00248101
0.00249531
0.00248073
0.00249525
0.0024808
0.00249531
0.00248073
0.00249525
0.0024808
0.00251473
0.00250013
0.00251473
0.00250013
0.00249542
0.00248077
0.00248077
0.00249528
0.00249528
0.00248073
0.00249523
0.00248073
0.00249523
0.00247586
0.00246143
0.00247586
0.00246143
0.00247591
0.00247591
0.00246179
0.00246145
0.00246145
0.00244224
0.00245658
0.00244224
0.00245658
0.00245674
0.00244226
0.00244226
0.00245662
0.00245662
0.00246149
0.00247587
0.00247593
0.00246144
0.00246169
0.00247589
0.00247368
0.00246401
0.00247598
0.00246154
0.00246403
0.00246169
0.00247589
0.00247368
0.00246401
0.00247598
0.00246154
0.00246403
0.00245664
0.00244225
0.0024566
0.0024423
0.00245664
0.00244225
0.0024566
0.0024423
0.00245669
0.00245439
0.00244235
0.00244484
0.0024566
0.00245442
0.00244248
0.00245669
0.00245439
0.00244235
0.00244484
0.0024566
0.00245442
0.00244248
0.00247591
0.00247591
0.00246179
0.00246146
0.00246146
0.00247586
0.00246143
0.00244224
0.00245658
0.00245674
0.00244227
0.00244226
0.00245662
0.00245662
0.00244224
0.00245658
0.00246169
0.00247589
0.00247368
0.00246401
0.00247598
0.00246154
0.00246403
0.00246149
0.00247587
0.00247593
0.00246144
0.00246169
0.00247368
0.00247589
0.00246401
0.00247598
0.00246403
0.00246154
0.00245664
0.00244225
0.00245659
0.0024423
0.00245669
0.00245439
0.00244235
0.00244483
0.0024566
0.00245441
0.00244248
0.00245664
0.00244225
0.00245659
0.0024423
0.00245669
0.00245439
0.00244483
0.00244235
0.00245441
0.0024566
0.00244248
0.00246149
0.00247587
0.00247593
0.00246144
0.00246169
0.00247368
0.00247589
0.00246401
0.00247598
0.00246403
0.00246154
0.00246149
0.00247587
0.00247593
0.00246144
0.00245669
0.00245439
0.00244235
0.00244483
0.0024566
0.00245442
0.00244248
0.00245664
0.00244225
0.00245659
0.0024423
0.00245669
0.0024544
0.00244483
0.00244235
0.00245442
0.0024566
0.00244248
0.00245664
0.00244225
0.00245659
0.0024423
0.00247591
0.00247591
0.00246179
0.00246145
0.00246145
0.00247586
0.00246143
0.00244224
0.00245658
0.00245674
0.00244226
0.00244226
0.00245662
0.00245662
0.00244224
0.00245658
0.00246169
0.00247368
0.00247589
0.00246401
0.00247598
0.00246403
0.00246154
0.00246149
0.00247587
0.00247593
0.00246144
0.00246149
0.00247587
0.00247593
0.00246144
0.00245669
0.00245439
0.00244483
0.00244235
0.00245441
0.0024566
0.00244248
0.00245669
0.00245439
0.00244483
0.00244235
0.00245441
0.0024566
0.00244248
0.00245664
0.00244225
0.00245659
0.0024423
0.00245664
0.00244225
0.00245659
0.0024423
0.00247586
0.00246143
0.00247586
0.00246143
0.00245674
0.00244226
0.00244226
0.00245662
0.00245662
0.00244224
0.00245658
0.00244224
0.00245658
0.00243744
0.00242324
0.00243744
0.00242324
0.00243747
0.00243747
0.00242357
0.00242326
0.00242325
0.00240444
0.00241848
0.00240444
0.00241848
0.00241861
0.00240445
0.00240445
0.00241851
0.00241851
0.00242328
0.00243745
0.00243749
0.00242324
0.00242344
0.00243745
0.0024353
0.00242578
0.00243752
0.00242333
0.0024258
0.00242344
0.00243745
0.0024353
0.00242578
0.00243752
0.00242333
0.0024258
0.00241852
0.00240444
0.00241849
0.00240448
0.00241852
0.00240444
0.00241849
0.00240448
0.00241853
0.00241633
0.00240451
0.00240696
0.00241848
0.00241636
0.00240461
0.00241853
0.00241633
0.00240451
0.00240696
0.00241848
0.00241636
0.00240461
0.00243747
0.00243747
0.00242357
0.00242326
0.00242326
0.00243744
0.00242324
0.00240444
0.00241848
0.00241861
0.00240445
0.00240445
0.00241851
0.00241851
0.00240444
0.00241848
0.00242344
0.00243745
0.0024353
0.00242578
0.00243752
0.00242333
0.0024258
0.00242328
0.00243745
0.00243749
0.00242324
0.00242344
0.0024353
0.00243745
0.00242578
0.00243752
0.0024258
0.00242333
0.00241852
0.00240444
0.00241849
0.00240448
0.00241853
0.00241633
0.00240451
0.00240696
0.00241848
0.00241636
0.00240461
0.00241852
0.00240444
0.00241849
0.00240448
0.00241853
0.00241633
0.00240696
0.00240451
0.00241636
0.00241848
0.00240461
0.00242328
0.00243745
0.00243749
0.00242324
0.00242344
0.0024353
0.00243745
0.00242578
0.00243752
0.0024258
0.00242333
0.00242328
0.00243745
0.00243749
0.00242324
0.00241853
0.00241633
0.00240451
0.00240696
0.00241848
0.00241636
0.00240461
0.00241852
0.00240444
0.00241849
0.00240448
0.00241853
0.00241633
0.00240696
0.00240451
0.00241636
0.00241848
0.00240461
0.00241852
0.00240444
0.00241849
0.00240448
0.00243747
0.00243747
0.00242357
0.00242326
0.00242326
0.00243744
0.00242324
0.00240444
0.00241848
0.00241861
0.00240445
0.00240445
0.00241851
0.00241851
0.00240444
0.00241848
0.00242344
0.0024353
0.00243745
0.00242578
0.00243752
0.0024258
0.00242333
0.00242328
0.00243745
0.00243749
0.00242324
0.00242328
0.00243745
0.00243749
0.00242324
0.00241853
0.00241633
0.00240696
0.00240451
0.00241636
0.00241848
0.00240461
0.00241853
0.00241633
0.00240696
0.00240451
0.00241636
0.00241848
0.00240461
0.00241852
0.00240444
0.00241849
0.00240448
0.00241852
0.00240444
0.00241849
0.00240448
0.00243744
0.00242324
0.00243744
0.00242324
0.00241861
0.00240445
0.00240445
0.00241851
0.00241851
0.00240444
0.00241848
0.00240444
0.00241848
0.00239974
0.00238585
0.00239974
0.00238585
0.00239976
0.00239976
0.00238608
0.00238586
0.00238586
0.00236743
0.0023812
0.00236743
0.0023812
0.00238121
0.00236743
0.00236743
0.00238121
0.00238121
0.00238588
0.00239975
0.00239977
0.00238586