/*--------------------------------*- C++ -*----------------------------------*\
| =========                 |                                                 |
| \\      /  F ield         | OpenFOAM: The Open Source CFD Toolbox           |
|  \\    /   O peration     | Version:  2312                                  |
|   \\  /    A nd           | Website:  www.openfoam.com                      |
|    \\/     M anipulation  |                                                 |
\*---------------------------------------------------------------------------*/
FoamFile
{
    version     2.0;
    format      ascii;
    arch        "LSB;label=32;scalar=64";
    class       surfaceScalarField;
    location    "125";
    object      phi;
}
// * * * * * * * * * * * * * * * * * * * * * * * * * * * * * * * * * * * * * //

dimensions      [0 3 -1 0 0 0 0];

oriented        oriented;

internalField   nonuniform List<scalar> 
125400
(
5.02621e-09
5.54732e-09
-0.00116454
-5.52586e-09
-5.54141e-09
0.00116454
-0.00114469
-1.28967e-06
-5.58251e-09
6.19851e-09
0.0011447
-2.85945e-07
1.297e-06
2.81304e-07
9.43355e-07
-2.7235e-07
-9.42883e-07
2.62581e-07
-0.00114456
-1.28699e-06
-5.56101e-09
1.18657e-08
0.00114456
-2.83134e-07
1.29418e-06
2.78492e-07
9.43265e-07
-2.72303e-07
-9.4285e-07
2.62593e-07
-0.000275648
1.31916e-06
1.28163e-06
-2.68857e-07
-2.71656e-07
0.000273587
5.21752e-09
5.67385e-09
-0.00116454
-5.57591e-09
-5.66857e-09
0.00116454
-0.00114469
-1.28953e-06
-5.74094e-09
6.05773e-09
0.0011447
-2.8588e-07
1.29714e-06
2.81352e-07
9.4338e-07
-2.72294e-07
-9.42854e-07
2.62623e-07
-0.00114456
-1.28697e-06
-5.66338e-09
1.1812e-08
0.00114456
-2.83068e-07
1.2942e-06
2.78563e-07
9.4331e-07
-2.72242e-07
-9.42801e-07
2.62646e-07
-0.000275648
1.31907e-06
1.28151e-06
-2.68765e-07
-2.7159e-07
0.000273588
5.65881e-09
6.13466e-09
-0.00116454
-5.8522e-09
-5.94066e-09
0.00116454
-0.00114469
-1.28946e-06
-6.17666e-09
5.93691e-09
0.0011447
-2.85816e-07
1.29723e-06
2.81394e-07
9.43439e-07
-2.72205e-07
-9.42777e-07
2.62684e-07
-0.00114456
-1.2869e-06
-6.08642e-09
1.15458e-08
0.00114456
-2.82967e-07
1.29426e-06
2.78672e-07
9.43393e-07
-2.72148e-07
-9.42701e-07
2.62717e-07
-0.000275648
1.3189e-06
1.28139e-06
-2.68712e-07
-2.7148e-07
0.000273588
5.73786e-09
6.41547e-09
-0.00116454
-6.02448e-09
-5.95826e-09
0.00116454
-0.00114469
-1.28946e-06
-6.32767e-09
5.90509e-09
0.0011447
-2.85776e-07
1.29726e-06
2.81417e-07
9.43442e-07
-2.72162e-07
-9.42738e-07
2.62694e-07
-0.00114456
-1.28688e-06
-6.35695e-09
1.14122e-08
0.00114456
-2.82933e-07
1.29421e-06
2.78704e-07
9.43441e-07
-2.72083e-07
-9.42647e-07
2.6277e-07
-0.000275648
1.31881e-06
1.28131e-06
-2.68653e-07
-2.71415e-07
0.000273588
5.8244e-09
6.4326e-09
-0.00116454
-6.06214e-09
-5.99369e-09
0.00116454
-0.00114469
-1.28952e-06
-6.37922e-09
5.87439e-09
0.0011447
-2.85747e-07
1.29722e-06
2.81434e-07
9.43453e-07
-2.7211e-07
-9.42682e-07
2.62704e-07
-0.00114456
-1.28683e-06
-6.38534e-09
1.13615e-08
0.00114456
-2.82949e-07
1.29421e-06
2.78675e-07
9.43434e-07
-2.72054e-07
-9.42622e-07
2.62766e-07
-0.000275649
1.31884e-06
1.28134e-06
-2.68653e-07
-2.71422e-07
0.000273589
5.77564e-09
6.33648e-09
-0.00116454
-5.95774e-09
-5.94613e-09
0.00116454
-0.00114469
-1.28958e-06
-6.40022e-09
5.89962e-09
0.0011447
-2.8571e-07
1.29714e-06
2.81453e-07
9.43455e-07
-2.72045e-07
-9.42623e-07
2.62719e-07
-0.00114456
-1.28676e-06
-6.39498e-09
1.14105e-08
0.00114456
-2.82946e-07
1.29425e-06
2.78649e-07
9.43394e-07
-2.72034e-07
-9.42608e-07
2.62737e-07
-0.000275649
1.31888e-06
1.28136e-06
-2.68628e-07
-2.71415e-07
0.000273589
5.87788e-09
6.50877e-09
-0.00116454
-6.01661e-09
-5.98268e-09
0.00116454
-0.00114469
-1.28958e-06
-6.46386e-09
5.80064e-09
0.0011447
-2.85665e-07
1.29708e-06
2.81473e-07
9.43458e-07
-2.71955e-07
-9.42516e-07
2.62718e-07
-0.00114456
-1.28672e-06
-6.48543e-09
1.14304e-08
0.00114456
-2.82939e-07
1.29427e-06
2.78609e-07
9.4338e-07
-2.71972e-07
-9.42526e-07
2.62699e-07
-0.000275649
1.31892e-06
1.28141e-06
-2.68614e-07
-2.71394e-07
0.000273589
5.91276e-09
6.44602e-09
-0.00116454
-6.01586e-09
-5.97337e-09
0.00116454
-0.00114469
-1.28958e-06
-6.47204e-09
5.86371e-09
0.0011447
-2.85687e-07
1.29698e-06
2.814e-07
9.43391e-07
-2.71905e-07
-9.42436e-07
2.62627e-07
-0.00114456
-1.28665e-06
-6.57585e-09
1.13172e-08
0.00114456
-2.82871e-07
1.29428e-06
2.78606e-07
9.43299e-07
-2.7187e-07
-9.42447e-07
2.62649e-07
-0.000275649
1.31892e-06
1.28142e-06
-2.68588e-07
-2.71349e-07
0.000273588
6.06938e-09
6.69935e-09
-0.00116454
-6.15136e-09
-6.10289e-09
0.00116454
-0.00114469
-1.28943e-06
-6.66545e-09
5.64472e-09
0.0011447
-2.85606e-07
1.29698e-06
2.81383e-07
9.43269e-07
-2.71776e-07
-9.42321e-07
2.62514e-07
-0.00114456
-1.28663e-06
-6.76e-09
1.12908e-08
0.00114456
-2.8286e-07
1.29422e-06
2.78515e-07
9.43195e-07
-2.71745e-07
-9.42295e-07
2.6254e-07
-0.000275649
1.31888e-06
1.28138e-06
-2.68525e-07
-2.71292e-07
0.000273588
6.37667e-09
6.94877e-09
-0.00116454
-6.29443e-09
-6.28952e-09
0.00116454
-0.00114469
-1.28928e-06
-6.93938e-09
5.47394e-09
0.0011447
-2.85532e-07
1.29698e-06
2.81288e-07
9.43063e-07
-2.71565e-07
-9.42116e-07
2.62329e-07
-0.00114456
-1.28656e-06
-7.02711e-09
1.10689e-08
0.00114456
-2.82721e-07
1.29415e-06
2.78489e-07
9.43009e-07
-2.71506e-07
-9.42048e-07
2.62359e-07
-0.000275649
1.31875e-06
1.28126e-06
-2.68386e-07
-2.71149e-07
0.000273588
6.75619e-09
7.29462e-09
-0.00116454
-6.48977e-09
-6.4889e-09
0.00116454
-0.00114469
-1.28911e-06
-7.2872e-09
5.27892e-09
0.0011447
-2.85375e-07
1.29687e-06
2.81157e-07
9.42744e-07
-2.71199e-07
-9.41745e-07
2.62036e-07
-0.00114456
-1.2864e-06
-7.28889e-09
1.08056e-08
0.00114456
-2.82544e-07
1.29401e-06
2.78395e-07
9.4269e-07
-2.71145e-07
-9.41699e-07
2.62075e-07
-0.000275648
1.31857e-06
1.28106e-06
-2.68142e-07
-2.70909e-07
0.000273588
7.20767e-09
7.75019e-09
-0.00116454
-6.68438e-09
-6.71519e-09
0.00116454
-0.00114469
-1.28883e-06
-7.78459e-09
4.91073e-09
0.0011447
-2.8508e-07
1.29668e-06
2.80954e-07
9.42209e-07
-2.70599e-07
-9.41134e-07
2.61544e-07
-0.00114456
-1.28607e-06
-7.71322e-09
1.05499e-08
0.00114456
-2.82304e-07
1.29382e-06
2.78137e-07
9.4213e-07
-2.70574e-07
-9.41121e-07
2.61557e-07
-0.000275648
1.31831e-06
1.28079e-06
-2.67752e-07
-2.7053e-07
0.000273588
7.74653e-09
8.37272e-09
-0.00116454
-6.91384e-09
-6.89539e-09
0.00116454
-0.00114469
-1.28837e-06
-8.36959e-09
4.55074e-09
0.0011447
-2.84605e-07
1.2963e-06
2.80564e-07
9.41294e-07
-2.69616e-07
-9.40132e-07
2.60694e-07
-0.00114456
-1.28557e-06
-8.37792e-09
1.00633e-08
0.00114456
-2.81794e-07
1.29352e-06
2.77774e-07
9.41191e-07
-2.696e-07
-9.40136e-07
2.60696e-07
-0.000275649
1.31784e-06
1.28031e-06
-2.67073e-07
-2.69865e-07
0.000273587
8.4261e-09
9.07477e-09
-0.00116454
-7.0809e-09
-7.00982e-09
0.00116454
-0.00114469
-1.28759e-06
-9.03131e-09
3.91358e-09
0.0011447
-2.8373e-07
1.29561e-06
2.79916e-07
9.39725e-07
-2.67997e-07
-9.38481e-07
2.59232e-07
-0.00114456
-1.28484e-06
-9.11741e-09
9.34462e-09
0.00114456
-2.80884e-07
1.2928e-06
2.77157e-07
9.39648e-07
-2.67939e-07
-9.38449e-07
2.59272e-07
-0.000275649
1.31701e-06
1.2795e-06
-2.65943e-07
-2.68707e-07
0.000273587
9.2875e-09
9.97094e-09
-0.00116454
-7.18232e-09
-7.09252e-09
0.00116453
-0.00114469
-1.2862e-06
-9.82447e-09
2.97252e-09
0.0011447
-2.82222e-07
1.29434e-06
2.78689e-07
9.37079e-07
-2.65267e-07
-9.35731e-07
2.56763e-07
-0.00114456
-1.28355e-06
-9.92897e-09
8.43182e-09
0.00114456
-2.79377e-07
1.29143e-06
2.75945e-07
9.37053e-07
-2.65174e-07
-9.35641e-07
2.56839e-07
-0.000275649
1.31556e-06
1.27809e-06
-2.64003e-07
-2.66725e-07
0.000273586
1.02636e-08
1.09337e-08
-0.00116454
-7.07995e-09
-7.00882e-09
0.00116453
-0.00114469
-1.28368e-06
-1.08403e-08
1.56048e-09
0.0011447
-2.79529e-07
1.29204e-06
2.76384e-07
9.32583e-07
-2.6063e-07
-9.31103e-07
2.52531e-07
-0.00114456
-1.28105e-06
-1.0908e-08
6.99337e-09
0.00114456
-2.7668e-07
1.28905e-06
2.73654e-07
9.3258e-07
-2.60531e-07
-9.30991e-07
2.52623e-07
-0.000275649
1.31301e-06
1.27553e-06
-2.60584e-07
-2.6332e-07
0.000273585
1.11247e-08
1.1707e-08
-0.00116454
-6.60725e-09
-6.60677e-09
0.00116454
-0.00114469
-1.27898e-06
-1.17106e-08
-9.21837e-10
0.0011447
-2.74487e-07
1.28774e-06
2.72071e-07
9.24908e-07
-2.52751e-07
-9.23265e-07
2.45166e-07
-0.00114456
-1.27632e-06
-1.16741e-08
4.63029e-09
0.00114457
-2.71683e-07
1.28472e-06
2.69294e-07
9.24908e-07
-2.52716e-07
-9.23154e-07
2.4521e-07
-0.00027565
1.3084e-06
1.27088e-06
-2.54649e-07
-2.57402e-07
0.000273583
1.17723e-08
1.22603e-08
-0.00116455
-5.69467e-09
-5.73907e-09
0.00116454
-0.00114469
-1.27005e-06
-1.22698e-08
-5.14029e-09
0.00114471
-2.64955e-07
1.27913e-06
2.63497e-07
9.11467e-07
-2.39198e-07
-9.09718e-07
2.32165e-07
-0.00114456
-1.26733e-06
-1.22256e-08
8.34353e-10
0.00114457
-2.62184e-07
1.27616e-06
2.63468e-07
9.1141e-07
-2.39195e-07
-9.09672e-07
2.32195e-07
-0.00027565
1.29951e-06
1.26195e-06
-2.44238e-07
-2.46987e-07
0.00027358
3.22149e-08
4.43068e-08
-0.00116457
-2.25056e-08
-2.25344e-08
0.00116454
-0.00114472
-1.25191e-06
-3.86479e-08
-1.29017e-08
0.00114475
-2.45868e-07
1.26651e-06
2.48833e-07
8.89611e-07
-2.1214e-07
-8.82605e-07
2.09028e-07
-0.00114458
-1.2491e-06
-3.85811e-08
-1.85052e-08
0.00114461
-2.45879e-07
1.26365e-06
2.48819e-07
8.86821e-07
-2.12159e-07
-8.79925e-07
2.11741e-07
-0.000275654
1.28411e-06
1.23826e-06
-2.22896e-07
-2.25605e-07
0.00027358
1.19101e-06
1.19271e-06
-0.00116437
-9.78901e-07
-9.6839e-07
0.00116393
-0.00114501
-1.0928e-06
-1.19825e-06
-5.27963e-07
0.00114533
-1.07724e-07
1.49197e-06
3.86245e-07
1.1209e-06
-5.53539e-08
-7.0844e-07
3.7418e-07
-0.0011449
-1.08726e-06
-1.20383e-06
-5.39027e-07
0.00114522
-1.07708e-07
1.49185e-06
3.89021e-07
1.11812e-06
-5.53237e-08
-7.05798e-07
3.74191e-07
-0.00027574
1.12515e-06
1.07902e-06
-8.31698e-08
-8.82827e-08
0.000273707
5.40594e-06
5.40117e-06
-0.000287511
-3.90793e-06
-3.90779e-06
0.00028452
-0.000283612
5.01422e-06
-5.39806e-06
6.18767e-06
-3.97172e-06
0.000281779
-0.000283602
-5.39523e-06
5.01141e-06
-3.9719e-06
6.18512e-06
0.000281773
-0.000277498
-5.01036e-06
-5.01663e-06
5.60892e-06
5.59364e-06
0.000276322
-1.33752e-06
-1.29447e-06
0.000275721
-0.000273644
2.73394e-07
2.81405e-07
0.00114414
-4.99749e-09
-0.00114414
1.2371e-08
-1.3302e-06
2.83805e-07
-2.8879e-07
-9.45903e-07
2.59628e-07
-2.6976e-07
9.45956e-07
1.33488e-06
0.00114421
-4.97718e-09
-0.00114421
1.22568e-08
-1.3276e-06
2.86639e-07
-2.91621e-07
-9.51144e-07
2.62359e-07
-2.7249e-07
9.51316e-07
-1.29708e-06
0.000275705
-0.000273628
2.76258e-07
2.78591e-07
0.00114515
-5.56316e-09
-0.00114514
1.17914e-08
-1.28714e-06
2.81327e-07
-2.85995e-07
-9.48373e-07
2.62672e-07
-2.72375e-07
9.48832e-07
1.32909e-06
0.00114408
-4.94399e-09
-0.00114408
1.24515e-08
-1.32222e-06
2.86659e-07
-2.91571e-07
-9.48401e-07
2.59664e-07
-2.69739e-07
9.48642e-07
-5.59807e-09
-0.00114469
1.71818e-08
-1.28964e-06
2.81286e-07
-2.85931e-07
-9.42871e-07
2.62575e-07
9.43369e-07
-2.72336e-07
1.32616e-06
0.00114371
-5.06742e-09
-0.00114371
1.23547e-08
-1.3191e-06
2.83873e-07
-2.88686e-07
-9.40145e-07
2.56932e-07
-2.66956e-07
9.4031e-07
-1.29407e-06
0.000275678
-0.000273612
2.76168e-07
2.81091e-07
-5.5412e-09
-0.00114456
1.18669e-08
-1.28704e-06
2.78534e-07
-2.83109e-07
-9.42829e-07
2.62631e-07
9.43308e-07
-2.7226e-07
1.28863e-06
0.0011447
-5.489e-09
-0.0011447
1.17934e-08
-1.28157e-06
2.81284e-07
-2.85951e-07
-9.45316e-07
2.62642e-07
-2.72303e-07
9.45951e-07
-0.000273588
2.75861e-07
2.78724e-07
1.33024e-06
1.28717e-06
-2.66244e-07
-2.74171e-07
0.000273644
-1.33758e-06
-1.29454e-06
0.000275721
-0.000273644
2.73443e-07
2.81473e-07
1.23083e-08
0.00114414
-2.88804e-07
1.33742e-06
2.83822e-07
9.46004e-07
-2.69759e-07
-9.45864e-07
2.59639e-07
-1.32763e-06
-4.99333e-09
1.22147e-08
0.00114421
-2.91643e-07
1.3348e-06
2.86647e-07
9.51366e-07
-2.72496e-07
-9.51098e-07
2.62365e-07
0.00114414
-5.0563e-09
-0.00114414
1.23292e-08
-1.33017e-06
2.83842e-07
-2.88757e-07
-9.45878e-07
2.59652e-07
-2.69735e-07
9.45963e-07
1.33493e-06
0.00114421
-5.00136e-09
-0.00114421
1.21568e-08
-1.32758e-06
2.86694e-07
-2.91572e-07
-9.51122e-07
2.62387e-07
-2.72462e-07
9.51315e-07
-2.69017e-07
-2.7138e-07
0.000273628
-1.29715e-06
0.000275705
-0.000273628
2.76334e-07
2.78627e-07
1.16879e-08
0.00114515
-2.86002e-07
1.29439e-06
2.8135e-07
9.48869e-07
-2.72391e-07
-9.48335e-07
2.62669e-07
-1.32216e-06
-4.95593e-09
1.24553e-08
0.00114408
-2.91592e-07
1.3292e-06
2.86618e-07
9.48601e-07
-2.69786e-07
-9.4843e-07
2.59621e-07
0.00114515
-5.51757e-09
-0.00114515
1.16127e-08
-1.28708e-06
2.81383e-07
-2.85939e-07
-9.48388e-07
2.62687e-07
-2.72364e-07
9.48806e-07
1.32907e-06
0.00114408
-4.80942e-09
-0.00114408
1.248e-08
-1.32224e-06
2.86689e-07
-2.91553e-07
-9.48415e-07
2.59673e-07
-2.69739e-07
9.48631e-07
-5.09432e-09
1.22915e-08
0.00114371
-2.88681e-07
1.32612e-06
2.83892e-07
9.40328e-07
-2.66967e-07
2.56921e-07
-9.40114e-07
-5.58712e-09
-0.0011447
1.70852e-08
-1.28961e-06
2.81343e-07
-2.85879e-07
-9.42867e-07
2.62596e-07
9.43362e-07
-2.72313e-07
1.32627e-06
0.00114371
-5.12399e-09
-0.00114371
1.2277e-08
-1.31899e-06
2.83871e-07
-2.88688e-07
-9.40163e-07
2.56936e-07
-2.66959e-07
9.40288e-07
-2.69148e-07
-2.74068e-07
0.000273612
-1.29405e-06
0.000275678
-0.000273612
2.76183e-07
2.8111e-07
-5.50264e-09
1.17193e-08
0.0011447
-2.85939e-07
1.2886e-06
2.81309e-07
9.45953e-07
-2.72317e-07
2.62628e-07
-9.45293e-07
-5.45297e-09
-0.00114456
1.19246e-08
-1.28707e-06
2.78563e-07
-2.83096e-07
-9.42832e-07
2.62644e-07
9.43304e-07
-2.72253e-07
1.28877e-06
0.0011447
-5.46566e-09
-0.0011447
1.16753e-08
-1.28145e-06
2.81284e-07
-2.85949e-07
-9.45355e-07
2.62634e-07
-2.72319e-07
9.45914e-07
-0.000273588
2.75948e-07
2.78783e-07
1.33014e-06
1.28706e-06
-2.66175e-07
-2.74074e-07
0.000273644
-1.33765e-06
-1.2946e-06
0.000275721
-0.000273644
2.73496e-07
2.81537e-07
1.22251e-08
0.00114414
-2.88753e-07
1.33752e-06
2.83861e-07
9.46033e-07
-2.69697e-07
-9.45827e-07
2.59691e-07
-1.32753e-06
-5.19784e-09
1.2046e-08
0.00114421
-2.91575e-07
1.33491e-06
2.86703e-07
9.51389e-07
-2.7243e-07
-9.51069e-07
2.62421e-07
0.00114414
-5.43387e-09
-0.00114414
1.21558e-08
-1.33012e-06
2.8393e-07
-2.8866e-07
-9.45763e-07
2.59699e-07
-2.69659e-07
9.46039e-07
1.33496e-06
0.00114421
-5.34702e-09
-0.00114421
1.20631e-08
-1.32756e-06
2.86752e-07
-2.91504e-07
-9.50986e-07
2.62459e-07
-2.7236e-07
9.51408e-07
-2.68897e-07
-2.71315e-07
0.000273628
-1.29718e-06
0.000275705
-0.000273628
2.76365e-07
2.78681e-07
1.15029e-08
0.00114515
-2.85942e-07
1.29448e-06
2.81397e-07
9.48886e-07
-2.7233e-07
-9.48318e-07
2.62727e-07
-1.32215e-06
-5.01205e-09
1.23964e-08
0.00114408
-2.91532e-07
1.32923e-06
2.86681e-07
9.4864e-07
-2.69725e-07
-9.48386e-07
2.59676e-07
0.00114515
-5.88974e-09
-0.00114515
1.14902e-08
-1.28705e-06
2.81436e-07
-2.85876e-07
-9.48252e-07
2.62765e-07
-2.7226e-07
9.48896e-07
1.32916e-06
0.00114408
-5.21855e-09
-0.00114408
1.22761e-08
-1.3221e-06
2.86737e-07
-2.91502e-07
-9.48303e-07
2.5976e-07
-2.69638e-07
9.48718e-07
-5.27412e-09
1.21524e-08
0.00114371
-2.88647e-07
1.32618e-06
2.83931e-07
9.40366e-07
-2.66909e-07
2.56982e-07
-9.40079e-07
-5.94287e-09
-0.0011447
1.69748e-08
-1.28959e-06
2.81411e-07
-2.85799e-07
-9.42759e-07
2.62669e-07
9.43431e-07
-2.72216e-07
1.32641e-06
0.00114371
-5.47277e-09
-0.00114371
1.21764e-08
-1.31889e-06
2.83924e-07
-2.88616e-07
-9.40082e-07
2.56964e-07
-2.669e-07
9.40323e-07
-2.69102e-07
-2.74018e-07
0.000273612
-1.29415e-06
0.000275678
-0.000273613
2.76276e-07
2.81183e-07
-5.62779e-09
1.15537e-08
0.0011447
-2.85908e-07
1.28868e-06
2.81341e-07
9.45987e-07
-2.72267e-07
2.62683e-07
-9.45267e-07
-5.84333e-09
-0.00114456
1.16983e-08
-1.28693e-06
2.78632e-07
-2.83028e-07
-9.42737e-07
2.62717e-07
9.43377e-07
-2.72165e-07
1.28886e-06
0.0011447
-5.84219e-09
-0.0011447
1.15542e-08
-1.28138e-06
2.8132e-07
-2.85892e-07
-9.4525e-07
2.627e-07
-2.72222e-07
9.45974e-07
-0.000273588
2.7599e-07
2.78893e-07
1.33001e-06
1.28696e-06
-2.661e-07
-2.7398e-07
0.000273644
-1.33764e-06
-1.29456e-06
0.000275722
-0.000273644
2.7349e-07
2.8155e-07
1.20162e-08
0.00114414
-2.88663e-07
1.33767e-06
2.83936e-07
9.46071e-07
-2.69634e-07
-9.45757e-07
2.59733e-07
-1.32744e-06
-5.54784e-09
1.19485e-08
0.00114421
-2.91516e-07
1.33502e-06
2.86745e-07
9.51425e-07
-2.72354e-07
-9.50995e-07
2.62466e-07
0.00114414
-5.57759e-09
-0.00114414
1.20608e-08
-1.33012e-06
2.83988e-07
-2.88593e-07
-9.45692e-07
2.59719e-07
-2.69611e-07
9.46085e-07
1.33495e-06
0.00114421
-5.48854e-09
-0.00114421
1.20063e-08
-1.32756e-06
2.86804e-07
-2.91447e-07
-9.50932e-07
2.62465e-07
-2.72334e-07
9.51439e-07
-2.68848e-07
-2.71236e-07
0.000273628
-1.29716e-06
0.000275705
-0.000273628
2.76367e-07
2.78701e-07
1.13735e-08
0.00114515
-2.85891e-07
1.2946e-06
2.81429e-07
9.48951e-07
-2.72233e-07
-9.48226e-07
2.62797e-07
-1.3221e-06
-5.50543e-09
1.21229e-08
0.00114408
-2.91447e-07
1.32925e-06
2.86775e-07
9.48743e-07
-2.69606e-07
-9.48265e-07
2.59773e-07
0.00114515
-6.20234e-09
-0.00114515
1.15386e-08
-1.28708e-06
2.81462e-07
-2.85844e-07
-9.48144e-07
2.62817e-07
-2.72178e-07
9.48967e-07
1.32925e-06
0.00114408
-5.57107e-09
-0.00114408
1.2137e-08
-1.32198e-06
2.86745e-07
-2.91479e-07
-9.48238e-07
2.59798e-07
-2.69583e-07
9.48763e-07
-5.6869e-09
1.20265e-08
0.00114371
-2.88598e-07
1.32633e-06
2.83962e-07
9.40394e-07
-2.66861e-07
2.57011e-07
-9.40036e-07
-6.14128e-09
-0.0011447
1.69356e-08
-1.28959e-06
2.81451e-07
-2.85756e-07
-9.42673e-07
2.62702e-07
9.43483e-07
-2.72156e-07
1.32644e-06
0.00114371
-5.69243e-09
-0.00114371
1.20365e-08
-1.31889e-06
2.83988e-07
-2.88539e-07
-9.39987e-07
2.57007e-07
-2.6683e-07
9.40382e-07
-2.69009e-07
-2.73967e-07
0.000273612
-1.29425e-06
0.000275679
-0.000273613
2.76331e-07
2.8123e-07
-6.0213e-09
1.14447e-08
0.0011447
-2.85883e-07
1.2888e-06
2.81351e-07
9.46035e-07
-2.72195e-07
2.62731e-07
-9.45203e-07
-6.13509e-09
-0.00114456
1.15431e-08
-1.28677e-06
2.78651e-07
-2.82987e-07
-9.42701e-07
2.62733e-07
9.43394e-07
-2.72137e-07
1.28889e-06
0.0011447
-6.14654e-09
-0.0011447
1.15378e-08
-1.28138e-06
2.81366e-07
-2.85833e-07
-9.45164e-07
2.62742e-07
-2.72155e-07
9.46028e-07
-0.000273588
2.76028e-07
2.78922e-07
1.32999e-06
1.28696e-06
-2.66086e-07
-2.73951e-07
0.000273645
-1.33756e-06
-1.29447e-06
0.000275722
-0.000273645
2.73451e-07
2.81511e-07
1.19432e-08
0.00114414
-2.88617e-07
1.33772e-06
2.83956e-07
9.46068e-07
-2.69607e-07
-9.45722e-07
2.59729e-07
-1.32743e-06
-5.73313e-09
1.19089e-08
0.00114421
-2.91474e-07
1.33505e-06
2.86764e-07
9.51431e-07
-2.72318e-07
-9.50958e-07
2.62483e-07
0.00114414
-5.51891e-09
-0.00114414
1.20542e-08
-1.33019e-06
2.8399e-07
-2.88585e-07
-9.45637e-07
2.59738e-07
-2.69559e-07
9.46121e-07
1.33485e-06
0.00114421
-5.52853e-09
-0.00114421
1.2034e-08
-1.32763e-06
2.86796e-07
-2.91455e-07
-9.50842e-07
2.62491e-07
-2.7227e-07
9.51504e-07
-2.68831e-07
-2.71203e-07
0.000273628
-1.29706e-06
0.000275706
-0.000273629
2.76323e-07
2.78643e-07
1.14605e-08
0.00114515
-2.85869e-07
1.29463e-06
2.81433e-07
9.48961e-07
-2.72174e-07
-9.48174e-07
2.62823e-07
-1.32207e-06
-5.76669e-09
1.20171e-08
0.00114408
-2.9142e-07
1.32922e-06
2.86804e-07
9.4879e-07
-2.69538e-07
-9.48201e-07
2.59824e-07
0.00114515
-6.15589e-09
-0.00114515
1.16198e-08
-1.28715e-06
2.81477e-07
-2.85825e-07
-9.48102e-07
2.6281e-07
-2.72155e-07
9.48982e-07
1.32931e-06
0.00114409
-5.54683e-09
-0.00114409
1.21646e-08
-1.32192e-06
2.86723e-07
-2.91473e-07
-9.48236e-07
2.59754e-07
-2.69589e-07
9.4873e-07
-5.83569e-09
1.18868e-08
0.00114371
-2.88552e-07
1.32644e-06
2.83982e-07
9.40395e-07
-2.66817e-07
2.57023e-07
-9.39998e-07
-6.09999e-09
-0.0011447
1.6954e-08
-1.28966e-06
2.81453e-07
-2.85751e-07
-9.42622e-07
2.62712e-07
9.43507e-07
-2.72117e-07
1.32636e-06
0.00114371
-5.5447e-09
-0.00114371
1.20883e-08
-1.31897e-06
2.83998e-07
-2.88516e-07
-9.39959e-07
2.56989e-07
-2.66812e-07
9.40375e-07
-2.68993e-07
-2.73933e-07
0.000273613
-1.29431e-06
0.000275679
-0.000273613
2.76346e-07
2.8125e-07
-6.37143e-09
1.14494e-08
0.0011447
-2.85855e-07
1.28888e-06
2.81354e-07
9.46061e-07
-2.72133e-07
2.62768e-07
-9.45151e-07
-6.18565e-09
-0.00114456
1.15188e-08
-1.28672e-06
2.78613e-07
-2.82998e-07
-9.42663e-07
2.62726e-07
9.43394e-07
-2.72107e-07
1.2888e-06
0.0011447
-6.05978e-09
-0.0011447
1.16626e-08
-1.28147e-06
2.81374e-07
-2.85817e-07
-9.45115e-07
2.62732e-07
-2.72123e-07
9.46032e-07
-0.000273588
2.75985e-07
2.78879e-07
1.33004e-06
1.287e-06
-2.66089e-07
-2.73959e-07
0.000273645
-1.33747e-06
-1.2944e-06
0.000275722
-0.000273645
2.7343e-07
2.81471e-07
1.19007e-08
0.00114414
-2.88596e-07
1.3377e-06
2.8396e-07
9.46098e-07
-2.69554e-07
-9.45649e-07
2.59736e-07
-1.3275e-06
-5.77986e-09
1.18713e-08
0.00114421
-2.91446e-07
1.33501e-06
2.86784e-07
9.51456e-07
-2.72275e-07
-9.50879e-07
2.62477e-07
0.00114414
-5.39085e-09
-0.00114414
1.21767e-08
-1.3302e-06
2.83986e-07
-2.88582e-07
-9.45611e-07
2.59724e-07
-2.69529e-07
9.46106e-07
1.33481e-06
0.00114421
-5.33807e-09
-0.00114421
1.20982e-08
-1.3276e-06
2.86798e-07
-2.91438e-07
-9.50846e-07
2.62465e-07
-2.72257e-07
9.5147e-07
-2.68846e-07
-2.71228e-07
0.000273629
-1.29701e-06
0.000275706
-0.000273629
2.763e-07
2.78641e-07
1.14346e-08
0.00114515
-2.8583e-07
1.29462e-06
2.81452e-07
9.48954e-07
-2.72142e-07
-9.48136e-07
2.62817e-07
-1.32202e-06
-5.74429e-09
1.20172e-08
0.00114409
-2.91425e-07
1.32922e-06
2.86785e-07
9.48761e-07
-2.69539e-07
-9.48201e-07
2.59794e-07
0.00114515
-6.00116e-09
-0.00114515
1.16264e-08
-1.28715e-06
2.81486e-07
-2.85809e-07
-9.48058e-07
2.62784e-07
-2.72127e-07
9.48985e-07
1.32935e-06
0.00114409
-5.48212e-09
-0.00114409
1.21836e-08
-1.32189e-06
2.86708e-07
-2.91458e-07
-9.48206e-07
2.59723e-07
-2.69563e-07
9.48709e-07
-5.83776e-09
1.19485e-08
0.00114371
-2.88543e-07
1.32644e-06
2.83962e-07
9.40374e-07
-2.66795e-07
2.57007e-07
-9.39978e-07
-6.0074e-09
-0.0011447
1.70269e-08
-1.28964e-06
2.81447e-07
-2.85743e-07
-9.42591e-07
2.62699e-07
9.43495e-07
-2.72088e-07
1.32627e-06
0.00114371
-5.5241e-09
-0.00114371
1.2148e-08
-1.31902e-06
2.84e-07
-2.88509e-07
-9.39882e-07
2.56994e-07
-2.66755e-07
9.40404e-07
-2.68971e-07
-2.73907e-07
0.000273614
-1.29434e-06
0.00027568
-0.000273614
2.76352e-07
2.81266e-07
-6.26977e-09
1.15021e-08
0.0011447
-2.85836e-07
1.2889e-06
2.81348e-07
9.46012e-07
-2.72127e-07
2.62727e-07
-9.45149e-07
-6.0914e-09
-0.00114456
1.16012e-08
-1.2867e-06
2.78599e-07
-2.8298e-07
-9.42648e-07
2.62678e-07
9.43354e-07
-2.72099e-07
1.28874e-06
0.0011447
-5.96459e-09
-0.0011447
1.16313e-08
-1.2815e-06
2.81395e-07
-2.85787e-07
-9.45069e-07
2.62717e-07
-2.72091e-07
9.46039e-07
-0.000273589
2.75967e-07
2.78835e-07
1.33012e-06
1.28707e-06
-2.66081e-07
-2.73967e-07
0.000273645
-1.33745e-06
-1.29439e-06
0.000275722
-0.000273645
2.73425e-07
2.81457e-07
1.19767e-08
0.00114414
-2.88559e-07
1.33761e-06
2.8398e-07
9.46087e-07
-2.695e-07
-9.456e-07
2.59735e-07
-1.32755e-06
-5.71499e-09
1.1886e-08
0.00114421
-2.91404e-07
1.33494e-06
2.86807e-07
9.51449e-07
-2.72223e-07
-9.50831e-07
2.62475e-07
0.00114414
-5.40314e-09
-0.00114414
1.2225e-08
-1.33014e-06
2.83952e-07
-2.88588e-07
-9.45539e-07
2.59716e-07
-2.6946e-07
9.46113e-07
1.33481e-06
0.00114421
-5.41684e-09
-0.00114421
1.20965e-08
-1.32753e-06
2.86777e-07
-2.91427e-07
-9.5077e-07
2.62462e-07
-2.72181e-07
9.5148e-07
-2.68846e-07
-2.71206e-07
0.000273629
-1.29702e-06
0.000275706
-0.000273629
2.7631e-07
2.78633e-07
1.14303e-08
0.00114515
-2.8578e-07
1.29454e-06
2.81486e-07
9.48943e-07
-2.72113e-07
-9.48079e-07
2.62784e-07
-1.32194e-06
-5.78051e-09
1.19873e-08
0.00114409
-2.9142e-07
1.32927e-06
2.86763e-07
9.48742e-07
-2.6951e-07
-9.48164e-07
2.59767e-07
0.00114515
-5.93249e-09
-0.00114515
1.1658e-08
-1.28708e-06
2.81456e-07
-2.85808e-07
-9.48027e-07
2.62777e-07
-2.72063e-07
9.48954e-07
1.32931e-06
0.00114409
-5.30737e-09
-0.00114409
1.2353e-08
-1.32192e-06
2.86691e-07
-2.9143e-07
-9.48164e-07
2.59689e-07
-2.6951e-07
9.48663e-07
-5.88908e-09
1.19153e-08
0.00114371
-2.88498e-07
1.32642e-06
2.83988e-07
9.4037e-07
-2.66737e-07
2.57002e-07
-9.39908e-07
-5.95493e-09
-0.0011447
1.70087e-08
-1.28956e-06
2.81424e-07
-2.85737e-07
-9.42508e-07
2.62683e-07
9.435e-07
-2.72023e-07
1.3262e-06
0.00114371
-5.42843e-09
-0.00114371
1.2215e-08
-1.31902e-06
2.83988e-07
-2.88492e-07
-9.39828e-07
2.56983e-07
-2.66686e-07
9.40393e-07
-2.68928e-07
-2.73854e-07
0.000273614
-1.29429e-06
0.00027568
-0.000273614
2.76328e-07
2.81244e-07
-6.33604e-09
1.14225e-08
0.0011447
-2.85781e-07
1.28888e-06
2.81379e-07
9.46015e-07
-2.72076e-07
2.6272e-07
-9.45082e-07
-5.9482e-09
-0.00114456
1.17739e-08
-1.28674e-06
2.78576e-07
-2.82959e-07
-9.42586e-07
2.62651e-07
9.43332e-07
-2.72032e-07
1.28866e-06
0.0011447
-5.87377e-09
-0.0011447
1.17184e-08
-1.2815e-06
2.81378e-07
-2.85777e-07
-9.4501e-07
2.6271e-07
-2.72019e-07
9.46024e-07
-0.000273589
2.75929e-07
2.78805e-07
1.33014e-06
1.28708e-06
-2.6605e-07
-2.73939e-07
0.000273645
-1.33745e-06
-1.29436e-06
0.000275722
-0.000273645
2.73364e-07
2.81422e-07
1.18797e-08
0.00114414
-2.88518e-07
1.33753e-06
2.84e-07
9.4612e-07
-2.69407e-07
-9.45478e-07
2.59736e-07
-1.32755e-06
-5.897e-09
1.17675e-08
0.00114421
-2.91358e-07
1.33487e-06
2.86827e-07
9.51488e-07
-2.72123e-07
-9.50706e-07
2.62487e-07
0.00114414
-5.12955e-09
-0.00114414
1.23449e-08
-1.33006e-06
2.83874e-07
-2.88596e-07
-9.4553e-07
2.59619e-07
-2.6942e-07
9.45979e-07
1.33479e-06
0.00114421
-5.0783e-09
-0.00114421
1.22658e-08
-1.32747e-06
2.86688e-07
-2.91448e-07
-9.50767e-07
2.62355e-07
-2.72151e-07
9.51341e-07
-2.68795e-07
-2.71179e-07
0.000273629
-1.29699e-06
0.000275706
-0.000273629
2.7625e-07
2.78591e-07
1.13575e-08
0.00114515
-2.85742e-07
1.29446e-06
2.81498e-07
9.48985e-07
-2.72e-07
-9.47961e-07
2.62804e-07
-1.3219e-06
-5.84878e-09
1.20018e-08
0.00114409
-2.91408e-07
1.32929e-06
2.86726e-07
9.48711e-07
-2.69448e-07
-9.48105e-07
2.59733e-07
0.00114515
-5.74961e-09
-0.00114515
1.18792e-08
-1.28703e-06
2.81353e-07
-2.85843e-07
-9.47971e-07
2.62698e-07
-2.72015e-07
9.48865e-07
1.32929e-06
0.00114409
-5.2886e-09
-0.00114409
1.22462e-08
-1.3219e-06
2.86705e-07
-2.91364e-07
-9.48068e-07
2.59661e-07
-2.69413e-07
9.48616e-07
-5.96146e-09
1.18418e-08
0.00114371
-2.88453e-07
1.32635e-06
2.84002e-07
9.40385e-07
-2.66649e-07
2.56993e-07
-9.39801e-07
-5.79539e-09
-0.0011447
1.7263e-08
-1.28952e-06
2.81323e-07
-2.85767e-07
-9.42467e-07
2.62578e-07
9.43413e-07
-2.71991e-07
1.32618e-06
0.00114371
-5.32557e-09
-0.00114371
1.22193e-08
-1.31893e-06
2.83965e-07
-2.88464e-07
-9.3977e-07
2.5693e-07
-2.66611e-07
9.40317e-07
-2.68881e-07
-2.73809e-07
0.000273614
-1.29428e-06
0.000275679
-0.000273613
2.7632e-07
2.81217e-07
-6.4652e-09
1.13961e-08
0.0011447
-2.85739e-07
1.28881e-06
2.81389e-07
9.46027e-07
-2.71977e-07
2.62722e-07
-9.44979e-07
-5.85705e-09
-0.00114456
1.1752e-08
-1.28671e-06
2.7859e-07
-2.82895e-07
-9.42508e-07
2.62604e-07
9.43266e-07
-2.71946e-07
1.28863e-06
0.0011447
-5.79617e-09
-0.0011447
1.17367e-08
-1.28144e-06
2.8134e-07
-2.85762e-07
-9.44928e-07
2.6267e-07
-2.71939e-07
9.45972e-07
-0.000273589
2.75885e-07
2.78785e-07
1.33013e-06
1.28709e-06
-2.66044e-07
-2.73919e-07
0.000273645
-1.33748e-06
-1.29441e-06
0.000275722
-0.000273645
2.73344e-07
2.81389e-07
1.18979e-08
0.00114414
-2.88522e-07
1.33744e-06
2.8394e-07
9.46036e-07
-2.69332e-07
-9.45423e-07
2.59659e-07
-1.32754e-06
-5.85409e-09
1.1819e-08
0.00114421
-2.91374e-07
1.33478e-06
2.86758e-07
9.51399e-07
-2.72062e-07
-9.50658e-07
2.62398e-07
0.00114414
-5.00437e-09
-0.00114414
1.23752e-08
-1.32996e-06
2.83825e-07
-2.88557e-07
-9.45443e-07
2.59493e-07
-2.69344e-07
9.45835e-07
1.33482e-06
0.00114421
-4.99934e-09
-0.00114421
1.23298e-08
-1.32737e-06
2.86637e-07
-2.91407e-07
-9.50682e-07
2.62236e-07
-2.72065e-07
9.51197e-07
-2.6879e-07
-2.71155e-07
0.000273629
-1.29704e-06
0.000275706
-0.000273628
2.76235e-07
2.78553e-07
1.14013e-08
0.00114515
-2.85762e-07
1.29436e-06
2.81428e-07
9.48887e-07
-2.71917e-07
-9.47901e-07
2.62742e-07
-1.32184e-06
-6.01712e-09
1.18044e-08
0.00114409
-2.91339e-07
1.32929e-06
2.86724e-07
9.48645e-07
-2.69323e-07
-9.48011e-07
2.59708e-07
0.00114515
-5.66749e-09
-0.00114515
1.18485e-08
-1.28691e-06
2.81321e-07
-2.85786e-07
-9.47886e-07
2.62549e-07
-2.71948e-07
9.48737e-07
1.32919e-06
0.00114408
-5.01275e-09
-0.00114409
1.25251e-08
-1.32192e-06
2.86615e-07
-2.91368e-07
-9.47966e-07
2.59499e-07
-2.6935e-07
9.48495e-07
-6.0653e-09
1.18045e-08
0.00114371
-2.88403e-07
1.32627e-06
2.83995e-07
9.40338e-07
-2.66539e-07
2.56948e-07
-9.39701e-07
-5.60792e-09
-0.0011447
1.72155e-08
-1.2894e-06
2.81296e-07
-2.85706e-07
-9.4242e-07
2.62445e-07
9.4324e-07
-2.71906e-07
1.32614e-06
0.00114371
-5.02778e-09
-0.00114371
1.23781e-08
-1.31888e-06
2.8386e-07
-2.88478e-07
-9.39703e-07
2.56772e-07
-2.66565e-07
9.40159e-07
-2.68794e-07
-2.73741e-07
0.000273614
-1.29417e-06
0.000275679
-0.000273613
2.76195e-07
2.81124e-07
-6.50615e-09
1.13384e-08
0.0011447
-2.85704e-07
1.28871e-06
2.8137e-07
9.45971e-07
-2.71856e-07
2.62694e-07
-9.44875e-07
-5.66756e-09
-0.00114456
1.19339e-08
-1.28674e-06
2.78496e-07
-2.82896e-07
-9.42389e-07
2.62467e-07
9.43163e-07
-2.71867e-07
1.28858e-06
0.0011447
-5.59511e-09
-0.0011447
1.19477e-08
-1.28138e-06
2.81232e-07
-2.85781e-07
-9.44838e-07
2.62509e-07
-2.71885e-07
9.45848e-07
-0.000273588
2.75806e-07
2.78699e-07
1.33001e-06
1.28696e-06
-2.65926e-07
-2.73807e-07
0.000273645
-1.33744e-06
-1.29438e-06
0.000275722
-0.000273644
2.73244e-07
2.81277e-07
1.17141e-08
0.00114414
-2.88454e-07
1.33742e-06
2.83915e-07
9.45898e-07
-2.6919e-07
-9.45313e-07
2.59573e-07
-1.32742e-06
-6.05325e-09
1.1668e-08
0.00114421
-2.91314e-07
1.33476e-06
2.86721e-07
9.51271e-07
-2.71915e-07
-9.50542e-07
2.62314e-07
0.00114414
-4.8682e-09
-0.00114414
1.25031e-08
-1.32989e-06
2.83725e-07
-2.88501e-07
-9.4527e-07
2.59279e-07
-2.69195e-07
9.45641e-07
1.33479e-06
0.00114421
-4.84693e-09
-0.00114421
1.24105e-08
-1.3273e-06
2.86552e-07
-2.91339e-07
-9.5051e-07
2.62021e-07
-2.71917e-07
9.51e-07
-2.68664e-07
-2.71052e-07
0.000273628
-1.297e-06
0.000275705
-0.000273628
2.76127e-07
2.78454e-07
1.11882e-08
0.00114515
-2.85682e-07
1.29435e-06
2.81413e-07
9.48784e-07
-2.71801e-07
-9.47759e-07
2.62629e-07
-1.32179e-06
-6.07209e-09
1.18625e-08
0.00114409
-2.91318e-07
1.32927e-06
2.86649e-07
9.48509e-07
-2.69237e-07
-9.47886e-07