/*--------------------------------*- C++ -*----------------------------------*\
| =========                 |                                                 |
| \\      /  F ield         | OpenFOAM: The Open Source CFD Toolbox           |
|  \\    /   O peration     | Version:  2312                                  |
|   \\  /    A nd           | Website:  www.openfoam.com                      |
|    \\/     M anipulation  |                                                 |
\*---------------------------------------------------------------------------*/
FoamFile
{
    version     2.0;
    format      ascii;
    arch        "LSB;label=32;scalar=64";
    class       surfaceScalarField;
    location    "125";
    object      phi;
}
// * * * * * * * * * * * * * * * * * * * * * * * * * * * * * * * * * * * * * //

dimensions      [0 3 -1 0 0 0 0];

oriented        oriented;

internalField   nonuniform List<scalar> 
123680
(
-8.23894e-07
-8.24267e-07
4.38127e-07
4.3883e-07
0.00115026
-0.00114949
-1.5011e-06
8.24155e-07
4.01778e-07
0.00113933
-4.82932e-07
1.13029e-06
1.3074e-07
7.30259e-07
-5.20943e-07
6.21438e-08
-1.22057e-06
-0.00113888
-1.4984e-06
8.24112e-07
4.07398e-07
0.00113919
-4.80114e-07
1.1274e-06
1.27933e-07
7.30215e-07
-5.20756e-07
6.22316e-08
-1.22051e-06
-0.00113875
1.53029e-06
1.49302e-06
-4.77402e-07
-4.80349e-07
0.000274405
-0.00027647
-7.94155e-07
-7.94443e-07
-0.00115252
4.24028e-07
4.24704e-07
0.00115326
-0.00114057
-1.49012e-06
7.94474e-07
3.90435e-07
0.00114096
-4.67806e-07
1.13634e-06
1.37026e-07
7.37828e-07
-5.02631e-07
-1.20107e-06
7.00426e-08
-0.00114044
-1.4874e-06
7.94412e-07
3.96128e-07
0.00114083
-4.64997e-07
1.13347e-06
1.34206e-07
7.37838e-07
-5.02594e-07
-1.201e-06
7.01134e-08
-0.000276482
1.51935e-06
1.482e-06
-4.62163e-07
-4.65083e-07
0.000274408
-7.52656e-07
-7.52925e-07
-0.00115543
4.04294e-07
4.04946e-07
0.00115613
-0.00114204
-1.4749e-06
7.53099e-07
3.71177e-07
0.00114237
-4.49741e-07
1.14545e-06
1.46732e-07
7.51328e-07
-4.8057e-07
-1.17623e-06
8.32312e-08
-0.00114191
-1.47213e-06
7.52899e-07
3.76766e-07
0.00114223
-4.46901e-07
1.14262e-06
1.43936e-07
7.51379e-07
-4.80503e-07
-1.17613e-06
8.3376e-08
-0.000276431
1.5041e-06
1.46674e-06
-4.42961e-07
-4.45859e-07
0.000274349
-6.79892e-07
-6.80054e-07
-0.00115811
3.66511e-07
3.67151e-07
0.00115874
-0.00114322
-1.45239e-06
6.80109e-07
3.40024e-07
0.00114348
-4.2605e-07
1.16005e-06
1.61875e-07
7.71419e-07
-4.50586e-07
-1.14437e-06
1.04161e-07
-0.00114309
-1.44965e-06
6.79953e-07
3.45746e-07
0.00114334
-4.23241e-07
1.1572e-06
1.59072e-07
7.7144e-07
-4.50555e-07
-1.14431e-06
1.04255e-07
-0.000276314
1.48166e-06
1.44428e-06
-4.17628e-07
-4.2052e-07
0.000274227
-5.73474e-07
-5.73335e-07
-0.00116048
3.13241e-07
3.13906e-07
0.001161
-0.0011441
-1.42002e-06
5.7366e-07
2.88677e-07
0.00114426
-3.94457e-07
1.18569e-06
1.86969e-07
8.0302e-07
-4.15666e-07
-1.10396e-06
1.32916e-07
-0.00114397
-1.41723e-06
5.73402e-07
2.94162e-07
0.00114413
-3.91589e-07
1.18289e-06
1.84262e-07
8.03023e-07
-4.15609e-07
-1.10389e-06
1.33011e-07
-0.000276148
1.44922e-06
1.41184e-06
-3.84287e-07
-3.87097e-07
0.000274058
-3.94599e-07
-3.9448e-07
-0.00116231
2.20554e-07
2.20919e-07
0.00116266
-0.00114457
-1.37396e-06
3.94235e-07
2.03454e-07
0.00114464
-3.54714e-07
1.22472e-06
2.20993e-07
8.52375e-07
-3.66266e-07
-1.04684e-06
1.77047e-07
-0.00114444
-1.37116e-06
3.94332e-07
2.09238e-07
0.0011445
-3.51903e-07
1.2219e-06
2.18193e-07
8.5228e-07
-3.66246e-07
-1.04683e-06
1.77065e-07
-0.00027596
1.40327e-06
1.36581e-06
-3.40508e-07
-3.43349e-07
0.000273875
-2.14519e-07
-2.14609e-07
-0.00116344
1.20251e-07
1.20216e-07
0.00116363
-0.00114477
-1.33446e-06
2.14263e-07
1.13269e-07
0.0011448
-3.22819e-07
1.2589e-06
2.49014e-07
8.93157e-07
-3.24259e-07
-9.99902e-07
2.15376e-07
-0.00114464
-1.33173e-06
2.14532e-07
1.19155e-07
0.00114467
-3.2005e-07
1.25604e-06
2.46192e-07
8.93076e-07
-3.24289e-07
-9.99919e-07
2.15364e-07
-0.000275824
1.36388e-06
1.32626e-06
-3.07207e-07
-3.10151e-07
0.000273751
-1.22537e-07
-1.22342e-07
-0.00116405
7.13362e-08
7.12156e-08
0.00116415
-0.00114485
-1.31346e-06
1.22018e-07
6.67607e-08
0.00114486
-3.05343e-07
1.27685e-06
2.64232e-07
9.16586e-07
-3.00337e-07
-9.73223e-07
2.37063e-07
-0.00114472
-1.31073e-06
1.2232e-07
7.26808e-08
0.00114472
-3.02556e-07
1.27398e-06
2.61418e-07
9.16455e-07
-3.00361e-07
-9.73243e-07
2.37049e-07
-0.000275755
1.34286e-06
1.30528e-06
-2.88538e-07
-2.91395e-07
0.000273686
-6.54743e-08
-6.51169e-08
-0.00116437
4.13694e-08
4.1268e-08
0.00116442
-0.00114483
-1.30068e-06
6.49513e-08
3.80505e-08
0.00114482
-2.94748e-07
1.28798e-06
2.73681e-07
9.31358e-07
-2.85205e-07
-9.56683e-07
2.5096e-07
-0.0011447
-1.29793e-06
6.5141e-08
4.38043e-08
0.00114468
-2.91959e-07
1.28513e-06
2.70875e-07
9.31251e-07
-2.85202e-07
-9.56693e-07
2.5098e-07
-0.000275704
1.33005e-06
1.2925e-06
-2.76834e-07
-2.79638e-07
0.000273638
-2.21609e-08
-2.16786e-08
-0.00116451
9.27381e-09
1.51623e-08
0.00116453
-0.00114476
-1.29265e-06
2.16889e-08
1.74996e-08
0.00114475
-2.88215e-07
1.29479e-06
2.79389e-07
9.40111e-07
-2.75959e-07
-9.46731e-07
2.59361e-07
-0.00114463
-1.28989e-06
2.1627e-08
2.31158e-08
0.00114462
-2.85415e-07
1.29194e-06
2.76595e-07
9.40076e-07
-2.75912e-07
-9.46667e-07
2.5942e-07
-0.000275669
1.322e-06
1.2845e-06
-2.70301e-07
-2.73055e-07
0.000273606
-1.62415e-09
-1.09263e-09
-0.00116454
-4.99073e-09
3.09984e-10
0.00116454
-0.00114472
-1.28996e-06
1.05653e-09
8.3818e-09
0.00114472
-2.86071e-07
1.29687e-06
2.81194e-07
9.43213e-07
-2.72556e-07
-9.43096e-07
2.62364e-07
-0.00114459
-1.28722e-06
1.1135e-09
1.40142e-08
0.00114458
-2.83287e-07
1.294e-06
2.78382e-07
9.43136e-07
-2.72529e-07
-9.43071e-07
2.624e-07
-0.000275654
1.31933e-06
1.28183e-06
-2.68588e-07
-2.71355e-07
0.000273593
4.23327e-09
4.87134e-09
-0.00116454
-9.80128e-09
-4.36328e-09
0.00116454
-0.0011447
-1.28949e-06
-4.96046e-09
6.27565e-09
0.0011447
-2.85709e-07
1.29719e-06
2.81483e-07
9.43613e-07
-2.72028e-07
-9.42581e-07
2.62818e-07
-0.00114457
-1.28674e-06
-4.91477e-09
1.18449e-08
0.00114456
-2.82906e-07
1.29434e-06
2.78696e-07
9.43536e-07
-2.72011e-07
-9.42557e-07
2.62845e-07
-0.000275649
1.31887e-06
1.28134e-06
-2.68468e-07
-2.71266e-07
0.000273589
5.38885e-09
6.00232e-09
-0.00116454
-1.10203e-08
-5.55206e-09
0.00116454
-0.00114469
-1.28952e-06
-6.02645e-09
6.00452e-09
0.0011447
-2.85742e-07
1.29716e-06
2.81457e-07
9.43566e-07
-2.72062e-07
-9.42617e-07
2.62779e-07
-0.00114456
-1.28675e-06
-6.06605e-09
1.14986e-08
0.00114456
-2.8293e-07
1.29432e-06
2.78673e-07
9.43507e-07
-2.72027e-07
-9.42578e-07
2.62831e-07
-0.000275648
1.31888e-06
1.28138e-06
-2.68617e-07
-2.71379e-07
0.000273588
5.61525e-09
6.22124e-09
-0.00116454
-1.13007e-08
-5.81701e-09
0.00116454
-0.00114469
-1.28951e-06
-6.03703e-09
5.91992e-09
0.0011447
-2.85718e-07
1.29717e-06
2.81484e-07
9.43508e-07
-2.72129e-07
-9.42676e-07
2.6272e-07
-0.00114456
-1.28677e-06
-6.21293e-09
1.14708e-08
0.00114456
-2.82936e-07
1.2943e-06
2.78671e-07
9.4349e-07
-2.72051e-07
-9.42595e-07
2.62809e-07
-0.000275648
1.31889e-06
1.28142e-06
-2.68665e-07
-2.71396e-07
0.000273588
5.58423e-09
6.16797e-09
-0.00116454
-1.12937e-08
-5.8252e-09
0.00116454
-0.00114469
-1.28952e-06
-6.03943e-09
5.91873e-09
0.0011447
-2.8574e-07
1.29716e-06
2.81455e-07
9.43497e-07
-2.72144e-07
-9.42691e-07
2.62708e-07
-0.00114456
-1.28678e-06
-6.1616e-09
1.14722e-08
0.00114456
-2.82948e-07
1.2943e-06
2.78656e-07
9.43459e-07
-2.72083e-07
-9.42628e-07
2.6278e-07
-0.000275648
1.31891e-06
1.28141e-06
-2.68666e-07
-2.71432e-07
0.000273588
5.5772e-09
6.10631e-09
-0.00116454
-1.12454e-08
-5.81254e-09
0.00116454
-0.00114469
-1.28955e-06
-6.13367e-09
5.98408e-09
0.0011447
-2.85765e-07
1.29713e-06
2.81432e-07
9.43525e-07
-2.72122e-07
-9.42665e-07
2.62727e-07
-0.00114456
-1.28681e-06
-6.14499e-09
1.15518e-08
0.00114456
-2.82972e-07
1.29427e-06
2.78633e-07
9.43461e-07
-2.72083e-07
-9.42627e-07
2.62779e-07
-0.000275648
1.31894e-06
1.28142e-06
-2.68663e-07
-2.71455e-07
0.000273588
5.5905e-09
6.09713e-09
-0.00116454
-1.12132e-08
-5.80892e-09
0.00116454
-0.00114469
-1.28955e-06
-6.2022e-09
5.9656e-09
0.0011447
-2.8576e-07
1.29711e-06
2.81441e-07
9.43543e-07
-2.72103e-07
-9.42649e-07
2.62747e-07
-0.00114456
-1.28682e-06
-6.14402e-09
1.15891e-08
0.00114456
-2.82974e-07
1.29425e-06
2.78635e-07
9.43469e-07
-2.72077e-07
-9.4262e-07
2.62786e-07
-0.000275648
1.31895e-06
1.28142e-06
-2.68658e-07
-2.71456e-07
0.000273587
5.64535e-09
6.13429e-09
-0.00116454
-5.77969e-09
-5.84114e-09
0.00116454
-0.00114469
-1.28952e-06
-6.27201e-09
5.93956e-09
0.0011447
-2.85768e-07
1.29715e-06
2.81432e-07
9.4355e-07
-2.72095e-07
-9.42647e-07
2.62756e-07
-0.00114456
-1.28679e-06
-6.15597e-09
1.15744e-08
0.00114456
-2.82978e-07
1.29428e-06
2.7863e-07
9.43461e-07
-2.72086e-07
-9.42631e-07
2.62779e-07
-0.000275648
1.31892e-06
1.28138e-06
-2.68648e-07
-2.71452e-07
0.000273587
5.55174e-09
6.19558e-09
-0.00116454
-5.84892e-09
-5.84649e-09
0.00116454
-0.00114469
-1.28951e-06
-6.26352e-09
5.95347e-09
0.0011447
-2.85767e-07
1.29717e-06
2.81431e-07
9.43532e-07
-2.72104e-07
-9.42657e-07
2.62746e-07
-0.00114456
-1.28678e-06
-6.18436e-09
1.15421e-08
0.00114456
-2.8296e-07
1.2943e-06
2.78644e-07
9.43457e-07
-2.72082e-07
-9.42631e-07
2.62782e-07
-0.000275648
1.31892e-06
1.28138e-06
-2.68645e-07
-2.71442e-07
0.000273587
5.5912e-09
6.18781e-09
-0.00116454
-5.84992e-09
-5.83385e-09
0.00116454
-0.00114469
-1.28956e-06
-6.21753e-09
5.9938e-09
0.00114469
-2.85765e-07
1.29712e-06
2.81445e-07
9.43542e-07
-2.72104e-07
-9.42652e-07
2.62752e-07
-0.00114456
-1.2868e-06
-6.22744e-09
1.15288e-08
0.00114456
-2.82956e-07
1.29427e-06
2.78655e-07
9.43485e-07
-2.72071e-07
-9.42609e-07
2.62798e-07
-0.000275648
1.31893e-06
1.28141e-06
-2.68664e-07
-2.71441e-07
0.000273587
5.56317e-09
6.17252e-09
-0.00116454
-5.85522e-09
-5.81742e-09
0.00116453
-0.00114469
-1.28955e-06
-6.1453e-09
6.01751e-09
0.00114469
-2.85776e-07
1.29713e-06
2.81436e-07
9.43517e-07
-2.72123e-07
-9.4268e-07
2.62737e-07
-0.00114456
-1.2868e-06
-6.19244e-09
1.15512e-08
0.00114456
-2.82969e-07
1.29427e-06
2.78645e-07
9.43471e-07
-2.72081e-07
-9.42625e-07
2.62791e-07
-0.000275648
1.31892e-06
1.28142e-06
-2.68674e-07
-2.71443e-07
0.000273587
5.58153e-09
6.17331e-09
-0.00116453
-5.85305e-09
-5.82706e-09
0.00116453
-0.00114469
-1.28952e-06
-6.15285e-09
5.98748e-09
0.00114469
-2.85774e-07
1.29716e-06
2.81437e-07
9.43525e-07
-2.72129e-07
-9.42675e-07
2.62735e-07
-0.00114456
-1.28678e-06
-6.20397e-09
1.15428e-08
0.00114456
-2.82981e-07
1.2943e-06
2.78634e-07
9.43481e-07
-2.72089e-07
-9.42619e-07
2.62788e-07
-0.000275647
1.31891e-06
1.2814e-06
-2.68668e-07
-2.71439e-07
0.000273587
5.60762e-09
6.1838e-09
-0.00116453
-5.86154e-09
-5.84969e-09
0.00116453
-0.00114469
-1.28953e-06
-6.18968e-09
5.9809e-09
0.00114469
-2.85775e-07
1.2972e-06
2.81431e-07
9.43525e-07
-2.72129e-07
-9.42685e-07
2.62735e-07
-0.00114456
-1.28678e-06
-6.2269e-09
1.15579e-08
0.00114456
-2.82984e-07
1.29434e-06
2.78624e-07
9.43472e-07
-2.72098e-07
-9.42637e-07
2.62778e-07
-0.000275647
1.31891e-06
1.28139e-06
-2.68671e-07
-2.71447e-07
0.000273587
5.4972e-09
6.07061e-09
-0.00116453
-5.78203e-09
-5.77362e-09
0.00116453
-0.00114469
-1.28963e-06
-6.08779e-09
6.0253e-09
0.00114469
-2.85768e-07
1.29708e-06
2.8146e-07
9.43517e-07
-2.72128e-07
-9.42702e-07
2.62744e-07
-0.00114456
-1.28689e-06
-6.11639e-09
1.16061e-08
0.00114456
-2.8297e-07
1.29422e-06
2.7866e-07
9.43466e-07
-2.72098e-07
-9.42647e-07
2.62783e-07
-0.000275647
1.31901e-06
1.28149e-06
-2.68701e-07
-2.7148e-07
0.000273587
5.30177e-09
5.88431e-09
-0.00116453
-5.6528e-09
-5.64267e-09
0.00116453
-0.00114469
-1.28963e-06
-5.90518e-09
6.09339e-09
0.00114469
-2.85842e-07
1.29704e-06
2.81408e-07
9.43477e-07
-2.72184e-07
-9.42761e-07
2.62721e-07
-0.00114456
-1.28688e-06
-5.92618e-09
1.16642e-08
0.00114456
-2.83043e-07
1.29418e-06
2.78609e-07
9.43428e-07
-2.72153e-07
-9.42705e-07
2.62757e-07
-0.000275648
1.31901e-06
1.28149e-06
-2.68737e-07
-2.71516e-07
0.000273587
1.54158e-06
1.50141e-06
-4.77442e-07
-4.83003e-07
0.000274463
-0.000276545
-1.17587e-06
-1.13531e-06
0.000276557
-0.000274471
1.09656e-07
1.14989e-07
4.08466e-07
0.00113878
-4.88566e-07
1.17097e-06
1.36242e-07
7.35686e-07
-5.2098e-07
6.19706e-08
-1.22633e-06
-0.00113834
-1.53897e-06
8.23782e-07
4.08405e-07
0.00113885
-4.88598e-07
1.1683e-06
1.36155e-07
7.35678e-07
-5.18119e-07
5.92493e-08
-1.22604e-06
-0.00113841
0.00114002
8.00115e-07
-0.00113962
3.9882e-07
-1.53325e-06
1.41281e-07
-4.7698e-07
-1.21149e-06
6.82502e-08
-5.07003e-07
7.41563e-07
1.17315e-06
0.0011401
7.99995e-07
-0.00113969
3.98872e-07
-1.53068e-06
1.41161e-07
-4.77047e-07
-1.21119e-06
6.55431e-08
-5.04147e-07
7.41557e-07
-4.77764e-07
-4.79984e-07
0.000274444
-0.000276526
-1.13513e-06
0.000276538
-0.000274451
1.09778e-07
1.12199e-07
4.07194e-07
0.00113978
-4.83088e-07
1.13045e-06
1.30674e-07
7.35795e-07
-5.20857e-07
6.22859e-08
-1.22605e-06
-0.00113934
-1.5334e-06
8.23732e-07
4.08367e-07
0.00113873
-4.88541e-07
1.16273e-06
1.36262e-07
7.35649e-07
-5.18085e-07
5.93583e-08
-1.22607e-06
-0.00113829
0.00114103
8.00425e-07
-0.00114062
3.97676e-07
-1.49307e-06
1.35704e-07
-4.71518e-07
-1.21119e-06
6.8549e-08
-5.06881e-07
7.41675e-07
1.1676e-06
0.00113998
7.99892e-07
-0.00113958
3.9904e-07
-1.5251e-06
1.41263e-07
-4.7699e-07
-1.21121e-06
6.54912e-08
-5.04173e-07
7.41529e-07
8.23545e-07
4.08462e-07
0.00113835
-4.85576e-07
1.15981e-06
1.33498e-07
7.27334e-07
-5.15484e-07
5.63566e-08
-1.21768e-06
-0.00113791
8.00483e-07
-0.00114017
4.03139e-07
-1.49279e-06
1.35739e-07
-4.71391e-07
-1.20573e-06
6.84086e-08
7.36094e-07
-5.06837e-07
1.16465e-06
0.0011396
7.99891e-07
-0.0011392
3.98719e-07
-1.522e-06
1.38497e-07
-4.74019e-07
-1.20285e-06
6.26773e-08
-5.01363e-07
7.33165e-07
-4.77885e-07
-4.82634e-07
0.00027443
-0.000276501
-1.13228e-06
0.000276513
-0.000274437
1.09772e-07
1.14859e-07
8.24246e-07
4.07177e-07
0.00113934
-4.83036e-07
1.12191e-06
1.30613e-07
7.32883e-07
-5.20676e-07
6.24281e-08
-1.22289e-06
-0.0011389
8.00393e-07
-0.00114004
3.97749e-07
-1.49006e-06
1.3295e-07
-4.68558e-07
-1.20568e-06
6.84943e-08
7.36083e-07
-5.06792e-07
1.1268e-06
0.00114058
8.00392e-07
-0.00114018
3.97696e-07
-1.48467e-06
1.35662e-07
-4.71458e-07
-1.20804e-06
6.85618e-08
-5.06756e-07
7.38754e-07
-0.000274412
1.09561e-07
1.12394e-07
1.53059e-06
1.49041e-06
-4.62185e-07
-4.6772e-07
0.000274466
-1.18276e-06
-1.14221e-06
0.000276506
-0.000274429
1.20962e-07
1.26302e-07
3.97222e-07
0.00114041
-4.73406e-07
1.17706e-06
1.42554e-07
7.43311e-07
-5.02804e-07
-1.20681e-06
6.98607e-08
-1.52802e-06
7.94046e-07
3.97252e-07
0.00114049
-4.73471e-07
1.17436e-06
1.42438e-07
7.43298e-07
-4.99946e-07
-1.20651e-06
6.71348e-08
0.00114149
7.68261e-07
-0.00114115
3.85808e-07
-1.52043e-06
1.4862e-07
-4.60898e-07
-1.18954e-06
7.81907e-08
-4.87834e-07
7.52095e-07
1.18007e-06
0.00114156
7.68164e-07
-0.00114122
3.85893e-07
-1.51781e-06
1.48532e-07
-4.60934e-07
-1.18925e-06
7.54417e-08
-4.85009e-07
7.52078e-07
-4.62509e-07
-4.64781e-07
0.000274447
-1.14203e-06
0.000276487
-0.000274409
1.21096e-07
1.23545e-07
3.96058e-07
0.00114142
-4.67943e-07
1.13651e-06
1.36986e-07
7.43437e-07
-5.02678e-07
-1.2065e-06
7.01726e-08
-1.52244e-06
7.93902e-07
3.9742e-07
0.00114037
-4.7342e-07
1.16879e-06
1.42517e-07
7.43286e-07
-4.99986e-07
-1.20652e-06
6.71096e-08
0.00114249
7.6858e-07
-0.00114215
3.84686e-07
-1.48023e-06
1.43065e-07
-4.55439e-07
-1.18924e-06
7.84774e-08
-4.87717e-07
7.52207e-07
1.17449e-06
0.00114145
7.6803e-07
-0.0011411
3.85991e-07
-1.51226e-06
1.48632e-07
-4.60874e-07
-1.18923e-06
7.54628e-08
-4.84998e-07
7.52068e-07
7.93966e-07
3.97156e-07
0.00113999
-4.7047e-07
1.16583e-06
1.39729e-07
7.3491e-07
-4.97173e-07
6.42946e-08
-1.19818e-06
7.68678e-07
-0.0011417
3.90171e-07
-1.47994e-06
1.43106e-07
-4.55304e-07
-1.18376e-06
7.83573e-08
7.4662e-07
-4.87612e-07
1.17157e-06
0.00114106
7.68104e-07
-0.00114072
3.85704e-07
-1.50915e-06
1.45888e-07
-4.57907e-07
-1.18093e-06
7.263e-08
-4.82202e-07
7.43668e-07
-4.62616e-07
-4.67394e-07
0.000274433
-1.13922e-06
0.000276462
-0.000274395
1.21128e-07
1.26175e-07
7.94396e-07
3.96092e-07
0.00114097
-4.67893e-07
1.12799e-06
1.36911e-07
7.40506e-07
-5.02564e-07
7.01753e-08
-1.20336e-06
7.68554e-07
-0.00114157
3.84731e-07
-1.47717e-06
1.40353e-07
-4.52436e-07
-1.18374e-06
7.84143e-08
7.46595e-07
-4.87629e-07
1.13373e-06
0.00114205
7.68457e-07
-0.00114171
3.84605e-07
-1.47177e-06
1.43076e-07
-4.55318e-07
-1.18607e-06
7.85143e-08
-4.87579e-07
7.49297e-07
-0.00027437
1.20905e-07
1.23739e-07
1.5154e-06
1.47519e-06
-4.43018e-07
-4.48538e-07
0.000274407
-1.19708e-06
-1.15654e-06
0.00027639
-0.000274321
1.39494e-07
1.4486e-07
3.77823e-07
0.00114182
-4.55353e-07
1.18616e-06
1.52225e-07
7.56875e-07
-4.807e-07
-1.18191e-06
8.31459e-08
-1.51283e-06
7.52562e-07
3.77943e-07
0.00114189
-4.55397e-07
1.18342e-06
1.52127e-07
7.56865e-07
-4.77891e-07
-1.18162e-06
8.03965e-08
0.00114268
6.98034e-07
-0.00114241
3.54199e-07
-1.49853e-06
1.63568e-07
-4.37359e-07
-1.15788e-06
9.91067e-08
-4.57975e-07
7.71862e-07
1.19442e-06
0.00114275
6.97892e-07
-0.00114248
3.54147e-07
-1.4959e-06
1.63485e-07
-4.37394e-07
-1.15758e-06
9.64114e-08
-4.55137e-07
7.71858e-07
-4.43312e-07
-4.45633e-07
0.000274388
-1.15641e-06
0.000276371
-0.000274302
1.39661e-07
1.42151e-07
3.76717e-07
0.00114282
-4.49887e-07
1.14563e-06
1.46679e-07
7.56993e-07
-4.80587e-07
-1.18162e-06
8.34405e-08
-1.50723e-06
7.5244e-07
3.78006e-07
0.00114177
-4.55337e-07
1.17789e-06
1.52211e-07
7.56834e-07
-4.77877e-07
-1.18163e-06
8.04239e-08
0.00114368
6.98148e-07
-0.00114341
3.53145e-07
-1.45832e-06
1.58037e-07
-4.31903e-07
-1.15755e-06
9.94266e-08
-4.57821e-07
7.72006e-07
1.18882e-06
0.00114263
6.977e-07
-0.00114236
3.54276e-07
-1.49035e-06
1.63558e-07
-4.37358e-07
-1.15756e-06
9.64395e-08
-4.55113e-07
7.71857e-07
7.52484e-07
3.77683e-07
0.00114139
-4.52363e-07
1.17497e-06
1.49462e-07
7.48442e-07
-4.75087e-07
7.75966e-08
-1.17333e-06
6.98129e-07
-0.00114296
3.58466e-07
-1.45799e-06
1.58087e-07
-4.31746e-07
-1.15206e-06
9.93568e-08
7.66473e-07
-4.57717e-07
1.18587e-06
0.00114225
6.97855e-07
-0.00114198
3.54091e-07
-1.48727e-06
1.60794e-07
-4.34411e-07
-1.14928e-06
9.35895e-08
-4.52355e-07
7.63448e-07
-4.43395e-07
-4.4821e-07
0.000274374
-1.15355e-06
0.000276345
-0.000274287
1.39665e-07
1.44738e-07
7.52828e-07
3.76639e-07
0.00114238
-4.49786e-07
1.13712e-06
1.46646e-07
7.5408e-07
-4.80446e-07
8.34839e-08
-1.17846e-06
6.98032e-07
-0.00114283
3.53076e-07
-1.45526e-06
1.55288e-07
-4.28939e-07
-1.15202e-06
9.93948e-08
7.66436e-07
-4.57703e-07
1.14804e-06
0.00114324
6.98031e-07
-0.00114297
3.53091e-07
-1.44989e-06
1.57988e-07
-4.31836e-07
-1.15439e-06
9.94626e-08
-4.57689e-07
7.69098e-07
-0.000274262
1.39423e-07
1.42253e-07
1.49292e-06
1.45271e-06
-4.17678e-07
-4.2316e-07
0.000274285
-1.21798e-06
-1.17749e-06
0.000276224
-0.000274162
1.64284e-07
1.69684e-07
3.46824e-07
0.00114293
-4.31669e-07
1.20071e-06
1.67331e-07
7.76896e-07
-4.50788e-07
-1.15013e-06
1.04013e-07
-1.4903e-06
6.79736e-07
3.46816e-07
0.001143
-4.31712e-07
1.19804e-06
1.67243e-07
7.76882e-07
-4.47958e-07
-1.14984e-06
1.01315e-07
0.00114355
6.07387e-07
-0.00114337
3.12208e-07
-1.47055e-06
1.84772e-07
-4.09296e-07
-1.12209e-06
1.23339e-07
-4.26537e-07
7.98114e-07
1.21523e-06
0.00114362
6.07366e-07
-0.00114344
3.12421e-07
-1.46801e-06
1.84641e-07
-4.09387e-07
-1.12184e-06
1.20652e-07
-4.2372e-07
7.9806e-07
-4.17947e-07
-4.20165e-07
0.000274266
-1.17732e-06
0.000276204
-0.000274143
1.64472e-07
1.66822e-07
3.45791e-07
0.00114393
-4.26202e-07
1.1602e-06
1.61818e-07
7.77022e-07
-4.50662e-07
-1.14982e-06
1.04304e-07
-1.48474e-06
6.7959e-07
3.46931e-07
0.00114288
-4.31662e-07
1.19245e-06
1.67324e-07
7.76878e-07
-4.47943e-07
-1.14983e-06
1.01329e-07
0.00114456
6.07419e-07
-0.00114437
3.11232e-07
-1.43032e-06
1.79264e-07
-4.03833e-07
-1.12178e-06
1.2366e-07
-4.264e-07
7.98257e-07
1.20968e-06
0.0011435
6.07173e-07
-0.00114332
3.12434e-07
-1.4624e-06
1.84748e-07
-4.09312e-07
-1.12182e-06
1.2065e-07
-4.2373e-07
7.98069e-07
6.79781e-07
3.46733e-07
0.0011425
-4.28719e-07
1.1895e-06
1.64562e-07
7.68456e-07
-4.45208e-07
9.84677e-08
-1.14157e-06
6.07621e-07
-0.00114392
3.16807e-07
-1.43002e-06
1.79288e-07
-4.03692e-07
-1.11636e-06
1.23483e-07
7.92672e-07
-4.2643e-07
1.20679e-06
0.00114312
6.07218e-07
-0.00114294
3.12042e-07
-1.45927e-06
1.82049e-07
-4.06318e-07
-1.11354e-06
1.17829e-07
-4.20971e-07
7.89682e-07
-4.18033e-07
-4.2283e-07
0.000274252
-1.17449e-06
0.000276179
-0.000274129
1.64487e-07
1.69487e-07
6.79932e-07
3.45749e-07
0.00114349
-4.26144e-07
1.15169e-06
1.61761e-07
7.74108e-07
-4.50522e-07
1.0435e-07
-1.14667e-06
6.0753e-07
-0.00114379
3.11307e-07
-1.42727e-06
1.76525e-07
-4.00875e-07
-1.11634e-06
1.23553e-07
7.92604e-07
-4.26362e-07
1.16899e-06
0.00114411
6.07409e-07
-0.00114393
3.11213e-07
-1.42188e-06
1.79259e-07
-4.03747e-07
-1.11874e-06
1.2365e-07
-4.26304e-07
7.95329e-07
-0.000274103
1.64214e-07
1.67098e-07
1.46051e-06
1.42029e-06
-3.84356e-07
-3.89765e-07
0.000274117
-1.25552e-06
-1.21511e-06
0.000276036
-0.000273978
2.03399e-07
2.08805e-07
2.95076e-07
0.00114371
-4.00024e-07
1.22638e-06
1.92474e-07
8.08496e-07
-4.15832e-07
-1.10967e-06
1.32746e-07
-1.45798e-06
5.73408e-07
2.95292e-07
0.00114378
-4.00106e-07
1.22362e-06
1.92364e-07
8.08443e-07
-4.13007e-07
-1.10942e-06
1.3007e-07
0.00114402
4.44487e-07
-0.00114394
2.33825e-07
-1.42598e-06
2.18151e-07
-3.69947e-07
-1.06736e-06
1.65786e-07
-3.78799e-07
8.44866e-07
1.25289e-06
0.00114409
4.44313e-07
-0.00114401
2.33607e-07
-1.42334e-06
2.18175e-07
-3.69906e-07
-1.06711e-06
1.63077e-07
-3.7602e-07
8.44794e-07
-3.84604e-07
-3.86931e-07
0.000274098
-1.21495e-06
0.000276017
-0.000273958
2.03611e-07
2.06025e-07
2.94186e-07
0.00114471
-3.94575e-07
1.18589e-06
1.86962e-07
8.08666e-07
-4.15662e-07
-1.10933e-06
1.331e-07
-1.45235e-06
5.73139e-07
2.9521e-07
0.00114366
-4.00011e-07
1.2181e-06
1.92495e-07
8.08479e-07
-4.12998e-07
-1.10938e-06
1.30089e-07
0.00114502
4.4429e-07
-0.00114494
2.32964e-07
-1.38574e-06
2.12716e-07
-3.64463e-07
-1.06701e-06
1.66078e-07
-3.78656e-07
8.45018e-07
1.24734e-06
0.00114397
4.44057e-07
-0.00114389
2.33601e-07
-1.41774e-06
2.18187e-07
-3.69893e-07
-1.06704e-06
1.6317e-07
-3.7593e-07
8.44842e-07
5.73225e-07
2.94858e-07
0.00114328
-3.97029e-07
1.2152e-06
1.89758e-07
8.00077e-07
-4.10254e-07
1.2726e-07
-1.10112e-06
4.44284e-07
-0.00114449
2.38318e-07
-1.38543e-06
2.12739e-07
-3.64329e-07
-1.06156e-06
1.6597e-07
8.39495e-07
-3.78611e-07
1.24436e-06
0.00114359
4.44205e-07
-0.00114351
2.3356e-07
-1.41468e-06
2.15414e-07
-3.6698e-07
-1.05881e-06
1.60333e-07
-3.7321e-07
8.36445e-07
-3.84659e-07
-3.8951e-07
0.000274083
-1.21219e-06
0.000275991
-0.000273944
2.03678e-07
2.08663e-07
5.73247e-07
2.94073e-07
0.00114427
-3.94444e-07
1.17742e-06
1.86996e-07
8.05749e-07
-4.15563e-07
1.33104e-07
-1.1063e-06
4.44092e-07
-0.00114436
2.32759e-07
-1.38261e-06
2.09983e-07
-3.61475e-07
-1.06151e-06
1.66056e-07
8.3943e-07
-3.78538e-07
1.20665e-06
0.00114458
4.44037e-07
-0.0011445
2.32694e-07
-1.37726e-06
2.12713e-07
-3.64351e-07
-1.06395e-06
1.66149e-07
-3.78496e-07
8.42134e-07
-0.000273919
2.03346e-07
2.0622e-07
1.41455e-06
1.37427e-06
-3.40584e-07
-3.45997e-07
0.000273934
-1.29232e-06
-1.25208e-06
0.0002759
-0.000273833
2.36112e-07
2.41384e-07
2.10252e-07
0.00114408
-3.60381e-07
1.26523e-06
2.26358e-07
8.57763e-07
-3.66474e-07
-1.05262e-06
1.76826e-07
-1.41185e-06
3.9443e-07
2.09854e-07
0.00114415
-3.60283e-07
1.26267e-06
2.26433e-07
8.57667e-07
-3.63696e-07
-1.0524e-06
1.74119e-07
0.00114422
2.52115e-07
-0.00114418
1.38843e-07
-1.38337e-06
2.48521e-07
-3.35124e-07
-1.01533e-06
2.07186e-07
-3.33312e-07
8.90021e-07
1.28976e-06
0.00114429
2.52121e-07
-0.00114425
1.38493e-07
-1.38063e-06
2.48572e-07
-3.35028e-07
-1.01512e-06
2.04435e-07
-3.30584e-07
8.89916e-07
-3.40788e-07
-3.43047e-07
0.000273915
-1.25183e-06
0.00027588
-0.000273814
2.3624e-07
2.3867e-07
2.09304e-07
0.00114509
-3.54845e-07
1.22486e-06
2.20982e-07
8.5787e-07
-3.66385e-07
-1.05232e-06
1.77071e-07
-1.40631e-06
3.94347e-07
2.10114e-07
0.00114403
-3.60329e-07
1.25703e-06
2.26383e-07
8.5769e-07
-3.63639e-07
-1.05236e-06
1.74162e-07
0.00114522
2.52238e-07
-0.00114518
1.37813e-07
-1.34298e-06
2.43231e-07
-3.29495e-07
-1.01512e-06
2.07331e-07
-3.33331e-07
8.9006e-07
1.28405e-06
0.00114417
2.52324e-07
-0.00114413
1.39006e-07
-1.3752e-06
2.48479e-07
-3.35137e-07
-1.01514e-06
2.04417e-07
-3.30612e-07
8.8988e-07
3.94348e-07
2.10097e-07
0.00114365
-3.57438e-07
1.25403e-06
2.23588e-07
8.49341e-07
-3.60895e-07
1.71378e-07
-1.04408e-06
2.51788e-07
-0.00114473
1.43306e-07
-1.34276e-06
2.43152e-07
-3.29458e-07
-1.00951e-06
2.07362e-07
8.84679e-07
-3.33115e-07
1.28103e-06
0.00114379
2.52008e-07
-0.00114375
1.39032e-07
-1.3722e-06
2.4567e-07
-3.32278e-07
-1.00679e-06
2.01723e-07
-3.27759e-07
8.81599e-07
-3.40827e-07
-3.45697e-07
0.0002739
-1.24896e-06
0.000275855
-0.000273799
2.36235e-07
2.41173e-07
3.9435e-07
2.09125e-07
0.00114464
-3.54752e-07
1.2164e-06
2.20959e-07
8.54958e-07
-3.66234e-07
1.7711e-07
-1.04928e-06
2.52161e-07
-0.0011446
1.3815e-07
-1.34004e-06
2.40314e-07
-3.267e-07
-1.00959e-06
2.07321e-07
8.84506e-07
-3.3319e-07
1.24355e-06
0.00114478
2.52282e-07
-0.00114474
1.37828e-07
-1.33457e-06
2.43147e-07
-3.29463e-07
-1.01209e-06
2.07328e-07
-3.33242e-07
8.8713e-07
-0.000273774
2.35987e-07
2.38717e-07
1.37506e-06
1.33465e-06
-3.07211e-07
-3.12737e-07
0.00027381
-1.31386e-06
-1.27362e-06
0.000275831
-0.000273759
2.55406e-07
2.6078e-07
1.19748e-07
0.00114425
-3.28466e-07
1.29939e-06
2.54401e-07
8.98582e-07
-3.24409e-07
-1.00566e-06
2.15229e-07
-1.37235e-06
2.14584e-07
1.19521e-07
0.00114432
-3.28402e-07
1.2968e-06
2.54421e-07
8.98464e-07
-3.21693e-07
-1.00547e-06
2.12468e-07
0.0011443
1.38891e-07
-0.00114429
8.14359e-08
-1.35802e-06
2.66731e-07
-3.14249e-07
-9.84178e-07
2.32569e-07
-3.05201e-07
9.17391e-07
1.31127e-06
0.00114437
1.38991e-07
-0.00114436
8.12476e-08
-1.35534e-06
2.66741e-07
-3.14208e-07
-9.83997e-07
2.29814e-07
-3.02488e-07
9.17266e-07
-3.07502e-07
-3.0978e-07
0.000273791
-1.27337e-06
0.000275811
-0.00027374
2.55566e-07
2.57999e-07
1.18765e-07
0.00114525
-3.22836e-07
1.25917e-06
2.49109e-07
8.98626e-07
-3.24436e-07
-1.00543e-06
2.1537e-07
-1.36689e-06
2.14761e-07
1.19962e-07
0.0011442
-3.28487e-07
1.29111e-06
2.54356e-07
8.98434e-07
-3.21706e-07
-1.00548e-06
2.12463e-07
0.00114531
1.38765e-07
-0.0011453
8.04922e-08
-1.31764e-06
2.61432e-07
-3.08636e-07
-9.83931e-07
2.32812e-07
-3.05154e-07
9.17438e-07
1.30558e-06
0.00114425
1.39163e-07
-0.00114424
8.16572e-08
-1.34986e-06
2.66691e-07
-3.1426e-07
-9.83993e-07
2.29816e-07
-3.02487e-07
9.17246e-07
2.14447e-07
1.19948e-07
0.00114382
-3.25616e-07
1.28811e-06
2.51558e-07
8.90145e-07
-3.18869e-07
2.09757e-07
-9.97141e-07
1.38456e-07
-0.00114485
8.60996e-08
-1.31745e-06
2.61335e-07
-3.08624e-07
-9.7837e-07
2.32794e-07
9.1204e-07
-3.04998e-07
1.30259e-06
0.00114387
1.38825e-07
-0.00114386
8.1605e-08
-1.34684e-06
2.63899e-07
-3.11379e-07
-9.7568e-07
2.27105e-07
-2.99668e-07
9.08943e-07
-3.07593e-07
-3.12503e-07
0.000273776
-1.27049e-06
0.000275785
-0.000273725
2.55559e-07
2.6053e-07
2.14615e-07
1.18819e-07
0.00114481
-3.22811e-07
1.25063e-06
2.49019e-07
8.95706e-07
-3.24325e-07
2.15388e-07
-1.00242e-06
1.38731e-07
-0.00114471
8.09253e-08
-1.31472e-06
2.58529e-07
-3.05831e-07
-9.78392e-07
2.32786e-07
9.11901e-07
-3.05021e-07
1.26508e-06
0.00114486
1.38759e-07
-0.00114485
8.06499e-08
-1.30925e-06
2.61329e-07
-3.0862e-07
-9.80879e-07
2.32836e-07
-3.05024e-07
9.14553e-07
-0.0002737
2.55294e-07
2.58105e-07
1.35403e-06
1.31366e-06
-2.88561e-07
-2.93964e-07
0.000273745
-1.3261e-06
-1.28584e-06
0.00027578
-0.000273708
2.67184e-07
2.7261e-07
7.31759e-08
0.0011443
-3.10971e-07
1.31735e-06
2.69622e-07
9.21933e-07
-3.00571e-07
-9.7902e-07
2.36818e-07
-1.35134e-06
1.22615e-07
7.29693e-08
0.00114438
-3.10924e-07
1.31476e-06
2.69637e-07
9.21812e-07
-2.97849e-07
-9.78836e-07
2.34074e-07
0.00114428
7.90425e-08
-0.00114429
5.11256e-08
-1.34397e-06
2.76947e-07
-3.02732e-07
-9.66074e-07
2.47702e-07
-2.88729e-07
9.33504e-07
1.32347e-06
0.00114435
7.91164e-08
-0.00114436
5.09674e-08
-1.34131e-06
2.7695e-07
-3.02694e-07
-9.65893e-07
2.44958e-07
-2.86006e-07
9.33379e-07
-2.88807e-07
-2.91052e-07
0.000273726
-1.2856e-06
0.000275761
-0.000273689
2.67381e-07
2.69775e-07
7.22537e-08
0.00114531
-3.0536e-07
1.2771e-06
2.64321e-07
9.21994e-07
-3.00485e-07
-9.78782e-07
2.3708e-07
-1.34587e-06
1.22791e-07
7.341e-08
0.00114425
-3.10989e-07
1.30906e-06
2.69574e-07
9.21795e-07
-2.97851e-07
-9.78831e-07
2.34072e-07
0.00114529
7.87089e-08
-0.0011453
5.03044e-08
-1.30363e-06
2.71637e-07
-2.97133e-07
-9.6581e-07
2.47986e-07
-2.88618e-07
9.33593e-07
1.31781e-06
0.00114423
7.92031e-08
-0.00114424
5.12913e-08
-1.33582e-06
2.76913e-07
-3.02742e-07
-9.65881e-07
2.44967e-07
-2.86e-07
9.33366e-07
1.22446e-07
7.3363e-08
0.00114387
-3.08117e-07
1.30606e-06
2.66777e-07
9.13497e-07
-2.95025e-07
2.31368e-07
-9.70514e-07
7.84935e-08
-0.00114485
5.58979e-08
-1.30341e-06
2.71574e-07
-2.9709e-07
-9.60257e-07
2.4792e-07
9.28161e-07
-2.88512e-07
1.31483e-06
0.00114385
7.88959e-08
-0.00114386
5.12428e-08
-1.33279e-06
2.74129e-07
-2.99865e-07
-9.57569e-07
2.42245e-07
-2.83188e-07
9.25063e-07
-2.88898e-07
-2.93771e-07
0.000273711
-1.28275e-06
0.000275735
-0.000273674
2.67386e-07
2.72322e-07
1.22364e-07
7.24404e-08
0.00114487
-3.05351e-07
1.26855e-06
2.64213e-07
9.19098e-07
-3.00366e-07
2.37091e-07
-9.75731e-07
7.87481e-08
-0.00114471
5.06228e-08
-1.30067e-06
2.6877e-07
-2.94299e-07
-9.6032e-07
2.4792e-07
9.28008e-07
-2.88528e-07
1.27732e-06
0.00114484
7.87853e-08
-0.00114485
5.03999e-08
-1.29523e-06
2.71565e-07
-2.97095e-07
-9.62824e-07
2.47961e-07
-2.88545e-07
9.30644e-07
-0.000273649
2.67077e-07
2.69933e-07
1.34124e-06
1.30091e-06
-2.7686e-07
-2.82221e-07
0.000273697
-1.33406e-06
-1.29379e-06
0.000275746
-0.000273671
2.74123e-07
2.79567e-07
4.43114e-08
0.00114426
-3.00399e-07
1.32847e-06
2.79046e-07
9.36743e-07
-2.85401e-07
-9.62448e-07
2.50759e-07
-1.33859e-06
6.55424e-08
4.41749e-08
0.00114433
-3.00368e-07
1.32583e-06
2.79041e-07
9.36619e-07
-2.82677e-07
-9.62267e-07
2.48018e-07
0.00114421
3.10967e-08
-0.00114423