/*--------------------------------*- C++ -*----------------------------------*\
| =========                 |                                                 |
| \\      /  F ield         | OpenFOAM: The Open Source CFD Toolbox           |
|  \\    /   O peration     | Version:  2312                                  |
|   \\  /    A nd           | Website:  www.openfoam.com                      |
|    \\/     M anipulation  |                                                 |
\*---------------------------------------------------------------------------*/
FoamFile
{
    version     2.0;
    format      ascii;
    arch        "LSB;label=32;scalar=64";
    class       volVectorField;
    location    "125";
    object      U;
}
// * * * * * * * * * * * * * * * * * * * * * * * * * * * * * * * * * * * * * //

dimensions      [0 1 -1 0 0 0 0];

internalField   nonuniform List<vector> 
43208
(
(-2.381e-06 -2.37076e-06 0.110619)
(-1.48882e-06 2.93402e-06 0.108682)
(2.94717e-06 -1.48778e-06 0.108682)
(-6.71744e-05 -6.71737e-05 0.106314)
(-2.38788e-06 -2.38632e-06 0.110619)
(-1.47557e-06 2.9195e-06 0.108683)
(2.93072e-06 -1.46978e-06 0.108682)
(-6.71189e-05 -6.71316e-05 0.106314)
(-2.42639e-06 -2.4231e-06 0.110619)
(-1.43157e-06 2.89973e-06 0.108683)
(2.88779e-06 -1.4307e-06 0.108682)
(-6.70664e-05 -6.70542e-05 0.106314)
(-2.44725e-06 -2.42803e-06 0.110619)
(-1.41911e-06 2.89185e-06 0.108683)
(2.86597e-06 -1.39926e-06 0.108682)
(-6.703e-05 -6.70157e-05 0.106314)
(-2.44963e-06 -2.43204e-06 0.110619)
(-1.40907e-06 2.88828e-06 0.108683)
(2.86765e-06 -1.39771e-06 0.108682)
(-6.7039e-05 -6.70268e-05 0.106314)
(-2.43793e-06 -2.42631e-06 0.110619)
(-1.4009e-06 2.88534e-06 0.108683)
(2.87502e-06 -1.39743e-06 0.108683)
(-6.7052e-05 -6.70466e-05 0.106314)
(-2.44154e-06 -2.42751e-06 0.110619)
(-1.39447e-06 2.87012e-06 0.108683)
(2.88283e-06 -1.3853e-06 0.108683)
(-6.70748e-05 -6.70678e-05 0.106314)
(-2.44166e-06 -2.42696e-06 0.11062)
(-1.38982e-06 2.87797e-06 0.108683)
(2.87365e-06 -1.38595e-06 0.108683)
(-6.70837e-05 -6.70668e-05 0.106314)
(-2.4588e-06 -2.44368e-06 0.11062)
(-1.37287e-06 2.85747e-06 0.108683)
(2.87563e-06 -1.35999e-06 0.108682)
(-6.70625e-05 -6.70504e-05 0.106314)
(-2.47938e-06 -2.46798e-06 0.11062)
(-1.34968e-06 2.84551e-06 0.108683)
(2.84974e-06 -1.33582e-06 0.108682)
(-6.70049e-05 -6.69902e-05 0.106315)
(-2.50567e-06 -2.49463e-06 0.11062)
(-1.31285e-06 2.82741e-06 0.108682)
(2.81764e-06 -1.30748e-06 0.108682)
(-6.69135e-05 -6.69001e-05 0.106315)
(-2.53283e-06 -2.52442e-06 0.11062)
(-1.25798e-06 2.78828e-06 0.108682)
(2.79647e-06 -1.25822e-06 0.108681)
(-6.67778e-05 -6.67706e-05 0.106315)
(-2.56373e-06 -2.5504e-06 0.11062)
(-1.18498e-06 2.74747e-06 0.108681)
(2.74589e-06 -1.18008e-06 0.10868)
(-6.6539e-05 -6.65364e-05 0.106316)
(-2.58446e-06 -2.56727e-06 0.11062)
(-1.08506e-06 2.66138e-06 0.108679)
(2.64902e-06 -1.07232e-06 0.108679)
(-6.61296e-05 -6.6118e-05 0.106317)
(-2.59251e-06 -2.57433e-06 0.110621)
(-9.42888e-07 2.52499e-06 0.108677)
(2.51133e-06 -9.23626e-07 0.108676)
(-6.54073e-05 -6.53803e-05 0.10632)
(-2.56436e-06 -2.54703e-06 0.110621)
(-7.33374e-07 2.30406e-06 0.108673)
(2.28565e-06 -7.13834e-07 0.108673)
(-6.40968e-05 -6.40755e-05 0.106325)
(-2.45307e-06 -2.44141e-06 0.110623)
(-4.638e-07 1.90957e-06 0.108668)
(1.89909e-06 -4.5266e-07 0.108668)
(-6.17018e-05 -6.16885e-05 0.106334)
(-2.22327e-06 -2.21516e-06 0.110626)
(-1.06113e-07 1.25835e-06 0.108661)
(1.25441e-06 -1.0355e-07 0.10866)
(-5.70467e-05 -5.70405e-05 0.106352)
(-2.08402e-06 -2.07189e-06 0.11063)
(5.94196e-07 8.81882e-08 0.108651)
(8.39196e-08 5.90627e-07 0.10865)
(-4.74818e-05 -4.74749e-05 0.106385)
(-4.19567e-06 -4.16155e-06 0.110633)
(8.43095e-06 -5.02989e-06 0.108634)
(-5.03331e-06 8.43217e-06 0.108634)
(-2.20337e-05 -2.20255e-05 0.106449)
(-2.90068e-05 -2.89586e-05 0.110468)
(6.08044e-05 -2.93983e-05 0.108846)
(-2.94514e-05 6.08293e-05 0.108846)
(4.48407e-05 4.48342e-05 0.106787)
(-7.29706e-05 -7.29388e-05 0.106514)
(3.04094e-06 1.57919e-06 0.108681)
(-3.04538e-06 1.58478e-06 0.108681)
(7.29816e-05 -7.29528e-05 0.106514)
(1.49536e-06 2.96904e-06 0.108682)
(1.58155e-06 -3.03665e-06 0.10868)
(-1.49186e-06 2.95385e-06 0.108682)
(-1.55499e-06 -3.00622e-06 0.10868)
(-7.28418e-05 7.28798e-05 0.106513)
(2.9415e-06 -1.4879e-06 0.108682)
(-2.94399e-06 -1.49764e-06 0.108681)
(7.28642e-05 7.28932e-05 0.106513)
(6.7092e-05 6.70856e-05 0.106315)
(-7.30004e-05 -7.29658e-05 0.106514)
(3.02407e-06 1.56993e-06 0.108681)
(-3.03412e-06 1.57874e-06 0.108681)
(3.0348e-06 1.57414e-06 0.108681)
(-3.02804e-06 1.58078e-06 0.108681)
(-6.71077e-05 6.70561e-05 0.106315)
(7.29971e-05 -7.29835e-05 0.106514)
(1.49267e-06 2.95021e-06 0.108682)
(1.58266e-06 -3.04241e-06 0.10868)
(1.49832e-06 2.94688e-06 0.108682)
(1.58949e-06 -3.03039e-06 0.10868)
(-1.55148e-06 -2.99758e-06 0.108681)
(-1.49192e-06 2.93922e-06 0.108682)
(-1.55228e-06 -3.00151e-06 0.108681)
(6.71158e-05 -6.71722e-05 0.106314)
(-7.28319e-05 7.28729e-05 0.106513)
(-2.93216e-06 -1.49476e-06 0.108681)
(2.94008e-06 -1.4905e-06 0.108682)
(-2.93985e-06 -1.50482e-06 0.108681)
(7.29328e-05 7.29477e-05 0.106513)
(6.70423e-05 6.70429e-05 0.106315)
(-7.30247e-05 -7.29876e-05 0.106514)
(3.01594e-06 1.55326e-06 0.108681)
(-3.0109e-06 1.55661e-06 0.108681)
(3.00769e-06 1.54037e-06 0.108681)
(-3.01236e-06 1.54682e-06 0.108681)
(-6.70666e-05 6.69935e-05 0.106315)
(7.30098e-05 -7.29874e-05 0.106514)
(1.47814e-06 2.92977e-06 0.108682)
(1.57057e-06 -3.02626e-06 0.10868)
(1.46556e-06 2.92838e-06 0.108682)
(1.55015e-06 -3.00012e-06 0.10868)
(-1.52934e-06 -2.97477e-06 0.108681)
(-1.45591e-06 2.91855e-06 0.108682)
(-1.52592e-06 -2.99045e-06 0.108681)
(6.71124e-05 -6.71655e-05 0.106314)
(-7.28702e-05 7.2905e-05 0.106513)
(-2.91161e-06 -1.48013e-06 0.108682)
(2.90611e-06 -1.45241e-06 0.108682)
(-2.92292e-06 -1.46987e-06 0.108681)
(7.29704e-05 7.30136e-05 0.106513)
(6.69905e-05 6.69971e-05 0.106315)
(-7.30125e-05 -7.29656e-05 0.106514)
(2.986e-06 1.51372e-06 0.108682)
(-2.99554e-06 1.52407e-06 0.108681)
(2.98831e-06 1.52203e-06 0.108681)
(-2.99354e-06 1.53191e-06 0.108681)
(-6.70278e-05 6.69674e-05 0.106315)
(7.2999e-05 -7.29725e-05 0.106514)
(1.43703e-06 2.91104e-06 0.108682)
(1.5203e-06 -2.97926e-06 0.10868)
(1.4308e-06 2.92324e-06 0.108682)
(1.51701e-06 -2.98851e-06 0.10868)
(-1.49542e-06 -2.96137e-06 0.108681)
(-1.43442e-06 2.9033e-06 0.108682)
(-1.49891e-06 -2.96715e-06 0.108681)
(6.70882e-05 -6.71572e-05 0.106314)
(-7.29138e-05 7.29432e-05 0.106513)
(-2.89911e-06 -1.44509e-06 0.108682)
(2.89053e-06 -1.42863e-06 0.108682)
(-2.91134e-06 -1.43792e-06 0.108681)
(7.29794e-05 7.30193e-05 0.106513)
(6.69841e-05 6.69979e-05 0.106315)
(-7.29684e-05 -7.29222e-05 0.106514)
(2.97769e-06 1.50439e-06 0.108682)
(-2.98777e-06 1.50735e-06 0.108681)
(2.9855e-06 1.52121e-06 0.108681)
(-2.99653e-06 1.52081e-06 0.108681)
(-6.70242e-05 6.69673e-05 0.106315)
(7.29469e-05 -7.29249e-05 0.106514)
(1.40865e-06 2.91442e-06 0.108683)
(1.49184e-06 -2.96433e-06 0.108681)
(1.434e-06 2.92431e-06 0.108682)
(1.5261e-06 -2.99892e-06 0.10868)
(-1.48043e-06 -2.94909e-06 0.108681)
(-1.4344e-06 2.90333e-06 0.108682)
(-1.5103e-06 -2.96796e-06 0.108681)
(6.7086e-05 -6.7149e-05 0.106314)
(-7.29453e-05 7.2977e-05 0.106514)
(-2.89723e-06 -1.4113e-06 0.108682)
(2.90086e-06 -1.42606e-06 0.108682)
(-2.91888e-06 -1.44541e-06 0.108681)
(7.29377e-05 7.29776e-05 0.106513)
(6.70085e-05 6.70205e-05 0.106315)
(-7.29297e-05 -7.28896e-05 0.106514)
(2.97372e-06 1.49261e-06 0.108682)
(-2.98222e-06 1.49791e-06 0.108681)
(2.99288e-06 1.52999e-06 0.108681)
(-3.00071e-06 1.53666e-06 0.108681)
(-6.70616e-05 6.7001e-05 0.106315)
(7.29317e-05 -7.29024e-05 0.106515)
(1.40705e-06 2.90955e-06 0.108683)
(1.49868e-06 -2.96668e-06 0.108681)
(1.44062e-06 2.92287e-06 0.108682)
(1.52924e-06 -3.00622e-06 0.10868)
(-1.47952e-06 -2.95758e-06 0.108681)
(-1.43798e-06 2.90706e-06 0.108682)
(-1.50481e-06 -2.96892e-06 0.108681)
(6.70604e-05 -6.71227e-05 0.106314)
(-7.29638e-05 7.29984e-05 0.106514)
(-2.9043e-06 -1.4243e-06 0.108682)
(2.91049e-06 -1.43639e-06 0.108682)
(-2.91073e-06 -1.4459e-06 0.108681)
(7.29034e-05 7.29343e-05 0.106513)
(6.7043e-05 6.70493e-05 0.106315)
(-7.29227e-05 -7.28859e-05 0.106514)
(2.97657e-06 1.49451e-06 0.108682)
(-2.98091e-06 1.50205e-06 0.108681)
(2.99827e-06 1.52095e-06 0.108681)
(-3.00048e-06 1.52214e-06 0.108681)
(-6.70798e-05 6.70268e-05 0.106315)
(7.29317e-05 -7.29058e-05 0.106515)
(1.41116e-06 2.90503e-06 0.108683)
(1.49178e-06 -2.97103e-06 0.108681)
(1.44197e-06 2.92751e-06 0.108682)
(1.54145e-06 -3.02198e-06 0.10868)
(-1.47162e-06 -2.95105e-06 0.108681)
(-1.44264e-06 2.9081e-06 0.108682)
(-1.50932e-06 -2.97474e-06 0.108681)
(6.70237e-05 -6.70826e-05 0.106315)
(-7.29481e-05 7.29843e-05 0.106514)
(-2.89414e-06 -1.41202e-06 0.108682)
(2.9283e-06 -1.4427e-06 0.108682)
(-2.91954e-06 -1.45076e-06 0.108681)
(7.28698e-05 7.29029e-05 0.106513)
(6.70563e-05 6.70609e-05 0.106315)
(-7.29308e-05 -7.28831e-05 0.106514)
(2.95912e-06 1.47687e-06 0.108682)
(-2.96148e-06 1.47685e-06 0.108682)
(3.021e-06 1.55165e-06 0.108681)
(-3.02884e-06 1.55875e-06 0.108681)
(-6.7086e-05 6.70269e-05 0.106315)
(7.2935e-05 -7.29052e-05 0.106514)
(1.38411e-06 2.89143e-06 0.108683)
(1.48325e-06 -2.97645e-06 0.108681)
(1.4654e-06 2.95911e-06 0.108682)
(1.54288e-06 -3.00876e-06 0.10868)
(-1.46122e-06 -2.94018e-06 0.108681)
(-1.45575e-06 2.94346e-06 0.108682)
(-1.51996e-06 -2.97712e-06 0.108681)
(6.69996e-05 -6.70584e-05 0.106315)
(-7.29408e-05 7.29708e-05 0.106514)
(-2.8875e-06 -1.39523e-06 0.108682)
(2.92157e-06 -1.4565e-06 0.108682)
(-2.92205e-06 -1.45971e-06 0.108681)
(7.28536e-05 7.28975e-05 0.106513)
(6.70481e-05 6.70602e-05 0.106315)
(-7.29451e-05 -7.29036e-05 0.106514)
(2.96298e-06 1.47096e-06 0.108682)
(-2.97e-06 1.47907e-06 0.108681)
(3.02431e-06 1.56541e-06 0.108681)
(-3.035e-06 1.56854e-06 0.108681)
(-6.70776e-05 6.70237e-05 0.106315)
(7.2951e-05 -7.29284e-05 0.106514)
(1.39589e-06 2.89759e-06 0.108683)
(1.47087e-06 -2.95888e-06 0.108681)
(1.46899e-06 2.95742e-06 0.108682)
(1.56505e-06 -3.03883e-06 0.10868)
(-1.44736e-06 -2.9356e-06 0.108681)
(-1.47574e-06 2.93938e-06 0.108682)
(-1.54689e-06 -2.99557e-06 0.108681)
(6.69668e-05 -6.70319e-05 0.106315)
(-7.28907e-05 7.29309e-05 0.106513)
(-2.88061e-06 -1.39152e-06 0.108682)
(2.94195e-06 -1.46363e-06 0.108682)
(-2.94846e-06 -1.47447e-06 0.108681)
(7.28402e-05 7.288e-05 0.106513)
(6.6992e-05 6.69999e-05 0.106315)
(-7.29254e-05 -7.28881e-05 0.106514)
(2.94453e-06 1.46144e-06 0.108682)
(-2.95557e-06 1.4657e-06 0.108681)
(3.03668e-06 1.57635e-06 0.108681)
(-3.04219e-06 1.58086e-06 0.108681)
(-6.70202e-05 6.69583e-05 0.106315)
(7.29342e-05 -7.2908e-05 0.106514)
(1.36914e-06 2.87764e-06 0.108683)
(1.46659e-06 -2.96901e-06 0.108681)
(1.4989e-06 2.96394e-06 0.108682)
(1.58809e-06 -3.02956e-06 0.10868)
(-1.44274e-06 -2.91946e-06 0.108681)
(-1.49586e-06 2.94519e-06 0.108682)
(-1.56135e-06 -3.00547e-06 0.108681)
(6.69556e-05 -6.70056e-05 0.106314)
(-7.28281e-05 7.28676e-05 0.106513)
(-2.87022e-06 -1.37277e-06 0.108682)
(2.94081e-06 -1.48197e-06 0.108682)
(-2.95642e-06 -1.4983e-06 0.108681)
(7.28244e-05 7.28683e-05 0.106513)
(6.69205e-05 6.69265e-05 0.106315)
(-7.28609e-05 -7.28219e-05 0.106514)
(2.93307e-06 1.4324e-06 0.108682)
(-2.94219e-06 1.43698e-06 0.108681)
(3.0442e-06 1.60781e-06 0.108681)
(-3.05578e-06 1.61419e-06 0.108681)
(-6.69412e-05 6.68833e-05 0.106315)
(7.28541e-05 -7.28258e-05 0.106514)
(1.34724e-06 2.8622e-06 0.108682)
(1.44099e-06 -2.94222e-06 0.108681)
(1.52159e-06 2.97652e-06 0.108682)
(1.6094e-06 -3.04405e-06 0.10868)
(-1.41383e-06 -2.9028e-06 0.108681)
(-1.52358e-06 2.9605e-06 0.108683)
(-1.58777e-06 -3.0169e-06 0.108681)
(6.69253e-05 -6.69816e-05 0.106315)
(-7.27727e-05 7.28058e-05 0.106513)
(-2.85504e-06 -1.34819e-06 0.108682)
(2.94993e-06 -1.51829e-06 0.108682)
(-2.96017e-06 -1.52963e-06 0.108682)
(7.27738e-05 7.28136e-05 0.106512)
(6.68274e-05 6.68323e-05 0.106315)
(-7.27348e-05 -7.26984e-05 0.106513)
(2.91302e-06 1.39317e-06 0.108681)
(-2.92323e-06 1.40155e-06 0.108681)
(3.06705e-06 1.65201e-06 0.108682)
(-3.0693e-06 1.6571e-06 0.108682)
(-6.68564e-05 6.68031e-05 0.106315)
(7.27357e-05 -7.27088e-05 0.106513)
(1.3133e-06 2.84241e-06 0.108682)
(1.39853e-06 -2.91275e-06 0.10868)
(1.5659e-06 2.99592e-06 0.108683)
(1.65624e-06 -3.07856e-06 0.108681)
(-1.37595e-06 -2.88623e-06 0.108681)
(-1.56423e-06 2.9744e-06 0.108683)
(-1.63071e-06 -3.04145e-06 0.108681)
(6.6849e-05 -6.69152e-05 0.106315)
(-7.26876e-05 7.27253e-05 0.106512)
(-2.82837e-06 -1.31777e-06 0.108681)
(2.98099e-06 -1.56257e-06 0.108683)
(-2.9825e-06 -1.57362e-06 0.108682)
(7.26574e-05 7.26895e-05 0.106512)
(6.66893e-05 6.66933e-05 0.106316)
(-7.25231e-05 -7.24771e-05 0.106512)
(2.88293e-06 1.34425e-06 0.108681)
(-2.88456e-06 1.34915e-06 0.10868)
(3.09293e-06 1.71559e-06 0.108683)
(-3.09799e-06 1.71696e-06 0.108682)
(-6.67171e-05 6.66632e-05 0.106316)
(7.25212e-05 -7.24949e-05 0.106512)
(1.26061e-06 2.80876e-06 0.108682)
(1.35201e-06 -2.8925e-06 0.10868)
(1.6221e-06 3.02505e-06 0.108684)
(1.71733e-06 -3.10228e-06 0.108682)
(-1.32536e-06 -2.8566e-06 0.10868)
(-1.62556e-06 3.00834e-06 0.108684)
(-1.68896e-06 -3.06684e-06 0.108682)
(6.66847e-05 -6.6743e-05 0.106315)
(-7.24703e-05 7.25036e-05 0.106512)
(-2.79598e-06 -1.26839e-06 0.108681)
(3.00495e-06 -1.62172e-06 0.108683)
(-3.00937e-06 -1.63378e-06 0.108683)
(7.24589e-05 7.24873e-05 0.106511)
(6.64542e-05 6.64667e-05 0.106317)
(-7.21416e-05 -7.20956e-05 0.106511)
(2.832e-06 1.27548e-06 0.10868)
(-2.83676e-06 1.27714e-06 0.108679)
(3.14056e-06 1.80156e-06 0.108684)
(-3.14488e-06 1.80084e-06 0.108684)
(-6.64869e-05 6.6432e-05 0.106316)
(7.21395e-05 -7.21157e-05 0.106511)
(1.18191e-06 2.76467e-06 0.108681)
(1.27743e-06 -2.84264e-06 0.108679)
(1.70898e-06 3.07931e-06 0.108685)
(1.79453e-06 -3.12707e-06 0.108683)
(-1.24586e-06 -2.79457e-06 0.108679)
(-1.71214e-06 3.05308e-06 0.108685)
(-1.77704e-06 -3.11001e-06 0.108684)
(6.64379e-05 -6.64963e-05 0.106316)
(-7.20555e-05 7.20834e-05 0.10651)
(-2.73615e-06 -1.1909e-06 0.10868)
(3.02928e-06 -1.70175e-06 0.108685)
(-3.0556e-06 -1.71656e-06 0.108684)
(7.21033e-05 7.21394e-05 0.10651)
(6.6061e-05 6.60734e-05 0.106318)
(-7.14917e-05 -7.14421e-05 0.106508)
(2.7495e-06 1.17209e-06 0.108678)
(-2.75557e-06 1.1707e-06 0.108678)
(3.21311e-06 1.92157e-06 0.108686)
(-3.2276e-06 1.91725e-06 0.108686)
(-6.60939e-05 6.60359e-05 0.106318)
(7.14766e-05 -7.14627e-05 0.106509)
(1.07824e-06 2.6887e-06 0.108679)
(1.16719e-06 -2.74572e-06 0.108677)
(1.82557e-06 3.15218e-06 0.108687)
(1.91343e-06 -3.2064e-06 0.108685)
(-1.14727e-06 -2.70943e-06 0.108677)
(-1.83824e-06 3.12506e-06 0.108687)
(-1.90742e-06 -3.19108e-06 0.108686)
(6.60732e-05 -6.6137e-05 0.106317)
(-7.13795e-05 7.14055e-05 0.106508)
(-2.65753e-06 -1.08314e-06 0.108678)
(3.11063e-06 -1.82156e-06 0.108687)
(-3.14482e-06 -1.83096e-06 0.108687)
(7.14504e-05 7.1502e-05 0.106507)
(6.53446e-05 6.53613e-05 0.106321)
(-7.03113e-05 -7.02643e-05 0.106504)
(2.60853e-06 1.02587e-06 0.108676)
(-2.62372e-06 1.02259e-06 0.108675)
(3.33661e-06 2.08426e-06 0.10869)
(-3.35548e-06 2.08372e-06 0.108689)
(-6.53906e-05 6.53287e-05 0.10632)
(7.03019e-05 -7.02802e-05 0.106504)
(9.2676e-07 2.54927e-06 0.108677)
(1.01736e-06 -2.60287e-06 0.108675)
(1.98798e-06 3.27695e-06 0.108691)
(2.07808e-06 -3.34033e-06 0.108689)
(-1.00944e-06 -2.58067e-06 0.108675)
(-1.99827e-06 3.25677e-06 0.108691)
(-2.06623e-06 -3.31008e-06 0.108689)
(6.5409e-05 -6.54746e-05 0.10632)
(-7.02207e-05 7.0255e-05 0.106503)
(-2.53731e-06 -9.31591e-07 0.108676)
(3.24826e-06 -1.98078e-06 0.10869)
(-3.26828e-06 -1.98828e-06 0.10869)
(7.02592e-05 7.03045e-05 0.106503)
(6.40448e-05 6.40589e-05 0.106326)
(-6.8122e-05 -6.80812e-05 0.106495)
(2.38041e-06 8.20963e-07 0.108672)
(-2.39551e-06 8.22036e-07 0.108672)
(3.53916e-06 2.30711e-06 0.108695)
(-3.54756e-06 2.3075e-06 0.108694)
(-6.40835e-05 6.4036e-05 0.106325)
(6.81236e-05 -6.81011e-05 0.106495)
(7.23595e-07 2.32084e-06 0.108673)
(8.15163e-07 -2.37441e-06 0.108671)
(2.2188e-06 3.47024e-06 0.108696)
(2.30969e-06 -3.54899e-06 0.108694)
(-8.01085e-07 -2.35691e-06 0.108672)
(-2.2212e-06 3.45119e-06 0.108696)
(-2.28654e-06 -3.51124e-06 0.108694)
(6.41281e-05 -6.41797e-05 0.106325)
(-6.80774e-05 6.81132e-05 0.106494)
(-2.31295e-06 -7.25419e-07 0.108672)
(3.45629e-06 -2.21121e-06 0.108695)
(-3.45911e-06 -2.21978e-06 0.108695)
(6.80528e-05 6.80872e-05 0.106494)
(6.16325e-05 6.16411e-05 0.106335)
(-6.38799e-05 -6.38502e-05 0.106478)
(1.99393e-06 5.50394e-07 0.108667)
(-1.99839e-06 5.53301e-07 0.108667)
(3.86687e-06 2.62077e-06 0.108702)
(-3.87034e-06 2.62274e-06 0.108702)
(-6.16594e-05 6.1618e-05 0.106335)
(6.38933e-05 -6.38801e-05 0.106478)
(4.61733e-07 1.92378e-06 0.108668)
(5.50246e-07 -1.98723e-06 0.108666)
(2.54276e-06 3.7899e-06 0.108703)
(2.63187e-06 -3.88591e-06 0.108701)
(-5.29287e-07 -1.96952e-06 0.108666)
(-2.53967e-06 3.77319e-06 0.108703)
(-2.6039e-06 -3.84668e-06 0.108702)
(6.16918e-05 -6.17362e-05 0.106334)
(-6.3885e-05 6.39112e-05 0.106478)
(-1.9147e-06 -4.66711e-07 0.108667)
(3.79088e-06 -2.54038e-06 0.108703)
(-3.78412e-06 -2.54706e-06 0.108702)
(6.38427e-05 6.38643e-05 0.106477)
(5.69848e-05 5.69875e-05 0.106352)
(-5.51951e-05 -5.51838e-05 0.106447)
(1.34018e-06 1.84189e-07 0.10866)
(-1.34258e-06 1.9201e-07 0.108659)
(4.35601e-06 3.03822e-06 0.108713)
(-4.35928e-06 3.04213e-06 0.108713)
(-5.70031e-05 5.69626e-05 0.106352)
(5.52316e-05 -5.52167e-05 0.106447)
(1.08138e-07 1.26808e-06 0.108661)
(1.92927e-07 -1.34482e-06 0.108659)
(2.95572e-06 4.2791e-06 0.108714)
(3.04559e-06 -4.37398e-06 0.108712)
(-1.69153e-07 -1.32287e-06 0.108659)
(-2.94883e-06 4.2753e-06 0.108714)
(-3.01883e-06 -4.34404e-06 0.108712)
(5.70017e-05 -5.70425e-05 0.106352)
(-5.52316e-05 5.52504e-05 0.106446)
(-1.25982e-06 -1.17315e-07 0.10866)
(4.28105e-06 -2.95228e-06 0.108714)
(-4.28008e-06 -2.9637e-06 0.108713)
(5.51942e-05 5.52043e-05 0.106445)
(4.74398e-05 4.74459e-05 0.106386)
(-3.99882e-05 -3.99797e-05 0.106388)
(1.549e-07 -5.04793e-07 0.108649)
(-1.59679e-07 -4.97805e-07 0.108649)
(3.8227e-06 3.91926e-07 0.108727)
(-3.83399e-06 4.1117e-07 0.108727)
(-4.74341e-05 4.7414e-05 0.106386)
(4.00196e-05 -4.00053e-05 0.106388)
(-5.8576e-07 9.12849e-08 0.10865)
(-4.99723e-07 -1.68002e-07 0.108648)
(3.21054e-07 3.75906e-06 0.108728)
(4.22621e-07 -3.82961e-06 0.108726)
(5.23804e-07 -1.45409e-07 0.108649)
(-3.06339e-07 3.76393e-06 0.108728)
(-3.70022e-07 -3.79287e-06 0.108727)
(4.7422e-05 -4.74429e-05 0.106386)
(-3.99769e-05 3.99856e-05 0.106387)
(-8.63947e-08 5.76405e-07 0.10865)
(3.76597e-06 -3.236e-07 0.108728)
(-3.75145e-06 -3.14271e-07 0.108727)
(4.00062e-05 4.00013e-05 0.106387)
(2.19926e-05 2.20455e-05 0.106449)
(-4.39399e-05 -4.38667e-05 0.106495)
(-4.99833e-06 -8.34368e-06 0.108633)
(4.99555e-06 -8.3281e-06 0.108633)
(-2.91765e-05 -6.93661e-05 0.108778)
(2.91396e-05 -6.93715e-05 0.108778)
(-2.19868e-05 2.19881e-05 0.106449)
(4.3951e-05 -4.38781e-05 0.106494)
(-8.41672e-06 -5.03598e-06 0.108634)
(-8.33806e-06 4.98769e-06 0.108632)
(-6.95324e-05 -2.92517e-05 0.108779)
(-6.94508e-05 2.9129e-05 0.108777)
(8.36756e-06 5.02546e-06 0.108633)
(6.94846e-05 -2.92821e-05 0.108779)
(6.94103e-05 2.91958e-05 0.108778)
(2.2016e-05 -2.20245e-05 0.106449)
(-4.3881e-05 4.39003e-05 0.106494)
(5.04575e-06 8.43088e-06 0.108633)
(-2.93235e-05 6.95123e-05 0.108779)
(2.92854e-05 6.95071e-05 0.108778)
(4.38882e-05 4.38775e-05 0.106494)
(-4.49051e-05 -4.48261e-05 0.106787)
(-2.93386e-05 -6.06773e-05 0.108846)
(2.93057e-05 -6.06874e-05 0.108845)
(4.49021e-05 -4.48295e-05 0.106787)
(-6.08588e-05 -2.93751e-05 0.108846)
(-6.07793e-05 2.92943e-05 0.108845)
(2.90039e-05 -2.89423e-05 0.110468)
(-2.90093e-05 2.90049e-05 0.110468)
(2.89914e-05 2.89929e-05 0.110468)
(6.07285e-05 2.93407e-05 0.108845)
(-4.4859e-05 4.48591e-05 0.106787)
(2.94073e-05 6.08315e-05 0.108846)
(-1.36817e-07 -1.06688e-05 0.0926976)
(-2.18521e-06 -8.57101e-06 0.0825925)
(2.73599e-06 -3.91435e-06 0.0715071)
(-8.58595e-06 -2.18407e-06 0.0825927)
(-2.38623e-06 -2.37487e-06 0.110619)
(2.38966e-06 -2.37647e-06 0.110619)
(-2.36856e-06 2.37712e-06 0.110618)
(2.36367e-06 2.37675e-06 0.110618)
(1.9132e-05 -6.639e-08 0.100926)
(-1.47274e-06 2.93226e-06 0.108682)
(1.33041e-05 -5.60761e-06 0.0943428)
(-2.09623e-06 -6.53321e-07 0.109933)
(-1.35344e-07 -1.06559e-05 0.0926975)
(2.41974e-07 9.57936e-06 0.082527)
(-1.21383e-07 9.42217e-06 0.0926374)
(-2.18018e-06 -8.5774e-06 0.0825922)
(-2.54619e-06 4.24627e-06 0.071441)
(2.71944e-06 -3.92593e-06 0.0715068)
(-1.06521e-05 -1.25986e-07 0.0926973)
(9.562e-06 2.39346e-07 0.0825274)
(9.4324e-06 -1.27931e-07 0.0926371)
(-8.60707e-06 -2.16287e-06 0.0825924)
(2.38391e-06 -2.37325e-06 0.110619)
(-2.37153e-06 2.38009e-06 0.110619)
(2.36566e-06 2.37703e-06 0.110619)
(-2.38177e-06 -2.38006e-06 0.110619)
(2.38829e-06 -2.37708e-06 0.110619)
(-2.35388e-06 2.36512e-06 0.110619)
(2.37014e-06 2.37932e-06 0.110618)
(1.91169e-05 -6.77829e-08 0.100926)
(-1.58462e-05 4.40067e-06 0.0942415)
(-2.12118e-06 -6.56315e-07 0.109933)
(-1.4945e-06 2.93251e-06 0.108682)
(-1.8922e-05 9.4425e-09 0.100821)
(1.3276e-05 -5.60643e-06 0.0943426)
(-2.12703e-06 -6.5049e-07 0.109933)
(4.33247e-06 -2.6078e-06 0.0714436)
(-4.01349e-06 2.79054e-06 0.0715046)
(-7.36895e-08 1.91049e-05 0.100925)
(-6.28008e-07 -2.13315e-06 0.109933)
(4.40351e-06 -1.58348e-05 0.094242)
(2.96024e-06 -1.50111e-06 0.108682)
(3.82195e-08 -1.89447e-05 0.100821)
(-6.21923e-07 -2.14994e-06 0.109933)
(-5.58644e-06 1.32809e-05 0.0943416)
(-5.75042e-06 -5.52954e-06 0.0882093)
(-5.48867e-06 -5.75666e-06 0.0882082)
(7.28807e-05 7.29077e-05 0.106513)
(4.2013e-06 5.14664e-06 0.0882734)
(5.17464e-06 4.19375e-06 0.0882713)
(-1.34387e-07 -1.06619e-05 0.0926974)
(2.52225e-07 9.57123e-06 0.0825268)
(-1.24116e-07 9.41225e-06 0.0926373)
(-2.18357e-06 -8.57603e-06 0.082592)
(-2.57197e-06 4.22804e-06 0.0714408)
(2.71342e-06 -3.92596e-06 0.0715066)
(-1.06583e-05 -9.84226e-08 0.0926973)
(9.5395e-06 2.79294e-07 0.0825272)
(9.41955e-06 -9.68179e-08 0.092637)
(-8.61701e-06 -2.15065e-06 0.0825922)
(2.3974e-06 -2.38595e-06 0.110619)
(-2.36962e-06 2.38048e-06 0.110619)
(2.37401e-06 2.38346e-06 0.110619)
(-2.41358e-06 -2.41194e-06 0.110619)
(2.4144e-06 -2.40317e-06 0.110619)
(-2.38437e-06 2.39391e-06 0.110619)
(2.40392e-06 2.40952e-06 0.110619)
(1.9139e-05 -7.01477e-08 0.100926)
(-1.58124e-05 4.40922e-06 0.0942413)
(-2.11392e-06 -6.67676e-07 0.109934)
(-1.47511e-06 2.91817e-06 0.108682)
(-1.88999e-05 6.41301e-09 0.100821)
(1.33011e-05 -5.60703e-06 0.0943424)
(-2.10583e-06 -6.60001e-07 0.109933)
(4.3284e-06 -2.60998e-06 0.0714434)
(-4.01827e-06 2.77427e-06 0.0715044)
(-9.33255e-08 1.91283e-05 0.100925)
(-6.23993e-07 -2.12205e-06 0.109933)
(4.38762e-06 -1.58278e-05 0.0942418)
(2.94046e-06 -1.47309e-06 0.108682)
(2.35385e-08 -1.89214e-05 0.10082)
(-6.25894e-07 -2.12558e-06 0.109933)
(-5.58256e-06 1.32828e-05 0.0943414)
(-5.73467e-06 -5.53955e-06 0.0882091)
(-5.51205e-06 -5.7298e-06 0.088208)
(7.28737e-05 7.29055e-05 0.106513)
(4.20553e-06 5.13823e-06 0.0882732)
(5.15472e-06 4.20637e-06 0.088271)
(-1.63536e-07 -1.06393e-05 0.0926973)
(2.34227e-07 9.57618e-06 0.0825267)
(-1.38865e-07 9.41571e-06 0.0926373)
(-2.21041e-06 -8.56353e-06 0.082592)
(-2.55648e-06 4.23538e-06 0.0714407)
(2.72437e-06 -3.91339e-06 0.0715066)
(-1.06517e-05 -1.0937e-07 0.0926973)
(9.54443e-06 2.74912e-07 0.0825271)
(9.40958e-06 -9.07275e-08 0.092637)
(-8.59668e-06 -2.18068e-06 0.0825921)
(2.42923e-06 -2.41395e-06 0.110619)
(-2.40509e-06 2.41522e-06 0.110619)
(2.41066e-06 2.41572e-06 0.110619)
(-2.43394e-06 -2.4195e-06 0.110619)
(2.42801e-06 -2.41336e-06 0.110619)
(-2.4114e-06 2.41986e-06 0.110619)
(2.4162e-06 2.43127e-06 0.110619)
(1.91494e-05 -5.7547e-08 0.100926)
(-1.58009e-05 4.4185e-06 0.0942412)
(-2.04709e-06 -6.72308e-07 0.109934)
(-1.43441e-06 2.90286e-06 0.108682)
(-1.88778e-05 1.15538e-08 0.100821)
(1.33045e-05 -5.59945e-06 0.0943423)
(-2.03981e-06 -6.61171e-07 0.109933)
(4.32123e-06 -2.61686e-06 0.0714432)
(-4.01205e-06 2.77729e-06 0.0715043)
(-9.9261e-08 1.91377e-05 0.100925)
(-6.33991e-07 -2.07013e-06 0.109933)
(4.3826e-06 -1.58053e-05 0.0942417)
(2.90741e-06 -1.44433e-06 0.108682)
(4.78743e-09 -1.88969e-05 0.10082)
(-6.40884e-07 -2.07495e-06 0.109933)
(-5.59029e-06 1.32942e-05 0.0943413)
(-5.72589e-06 -5.54602e-06 0.0882089)
(-5.52447e-06 -5.71673e-06 0.0882078)
(7.28833e-05 7.29137e-05 0.106513)
(4.19927e-06 5.13667e-06 0.088273)
(5.16275e-06 4.20255e-06 0.0882708)
(-1.45686e-07 -1.06556e-05 0.0926971)
(2.25054e-07 9.55986e-06 0.0825267)
(-1.38569e-07 9.41603e-06 0.0926371)
(-2.1943e-06 -8.56192e-06 0.082592)
(-2.54374e-06 4.23577e-06 0.0714407)
(2.73361e-06 -3.90544e-06 0.0715065)
(-1.06366e-05 -1.27024e-07 0.0926971)
(9.53823e-06 2.46181e-07 0.0825271)
(9.42071e-06 -1.16231e-07 0.0926369)
(-8.59235e-06 -2.18674e-06 0.0825922)
(2.4435e-06 -2.42973e-06 0.110619)
(-2.42194e-06 2.43102e-06 0.110619)
(2.42138e-06 2.44268e-06 0.110619)
(-2.42999e-06 -2.40902e-06 0.110619)
(2.42132e-06 -2.40991e-06 0.110619)
(-2.41605e-06 2.4255e-06 0.110618)
(2.40265e-06 2.42478e-06 0.110618)
(1.91486e-05 -6.13456e-08 0.100926)
(-1.57929e-05 4.41903e-06 0.0942411)
(-2.02472e-06 -6.72166e-07 0.109934)
(-1.43803e-06 2.90961e-06 0.108682)
(-1.88675e-05 1.81021e-08 0.100821)
(1.32972e-05 -5.59654e-06 0.0943422)
(-2.04354e-06 -6.61362e-07 0.109933)
(4.32996e-06 -2.58549e-06 0.0714432)
(-4.00158e-06 2.78564e-06 0.0715043)
(-9.7075e-08 1.91416e-05 0.100925)
(-6.37859e-07 -2.01413e-06 0.109933)
(4.3753e-06 -1.58059e-05 0.0942417)
(2.89445e-06 -1.42092e-06 0.108682)
(1.21557e-08 -1.88875e-05 0.10082)
(-6.43098e-07 -2.03592e-06 0.109933)
(-5.58724e-06 1.32894e-05 0.0943413)
(-5.71565e-06 -5.53269e-06 0.0882089)
(-5.50851e-06 -5.7153e-06 0.0882077)
(7.28976e-05 7.29384e-05 0.106513)
(4.2021e-06 5.14914e-06 0.088273)
(5.17435e-06 4.20219e-06 0.0882708)
(-1.44501e-07 -1.06458e-05 0.0926971)
(2.26292e-07 9.57325e-06 0.0825267)
(-1.20869e-07 9.39946e-06 0.0926371)
(-2.20305e-06 -8.54052e-06 0.0825919)
(-2.52398e-06 4.23346e-06 0.0714406)
(2.73214e-06 -3.89273e-06 0.0715065)
(-1.06526e-05 -1.1803e-07 0.0926969)
(9.54101e-06 2.50323e-07 0.0825271)
(9.39919e-06 -1.07051e-07 0.0926368)
(-8.5614e-06 -2.1782e-06 0.0825921)
(2.44359e-06 -2.42953e-06 0.110619)
(-2.42422e-06 2.43345e-06 0.110619)
(2.42113e-06 2.43843e-06 0.110619)
(-2.4096e-06 -2.39581e-06 0.110619)
(2.40831e-06 -2.39245e-06 0.110619)
(-2.40788e-06 2.41954e-06 0.110618)
(2.39432e-06 2.4092e-06 0.110618)
(1.91465e-05 -6.38886e-08 0.100926)
(-1.5774e-05 4.39062e-06 0.0942411)
(-2.0212e-06 -6.76388e-07 0.109934)
(-1.43733e-06 2.9181e-06 0.108682)
(-1.88561e-05 4.16891e-09 0.100821)
(1.32868e-05 -5.59709e-06 0.0943422)
(-2.04208e-06 -6.64399e-07 0.109933)
(4.32058e-06 -2.58547e-06 0.0714432)
(-3.98408e-06 2.79705e-06 0.0715042)
(-1.07436e-07 1.91266e-05 0.100925)
(-6.46367e-07 -2.02975e-06 0.109933)
(4.36774e-06 -1.57818e-05 0.0942417)
(2.89404e-06 -1.43041e-06 0.108682)
(-4.54232e-09 -1.88788e-05 0.100821)
(-6.39402e-07 -2.06721e-06 0.109933)
(-5.59923e-06 1.32883e-05 0.0943412)
(-5.7101e-06 -5.52971e-06 0.0882089)
(-5.49188e-06 -5.70721e-06 0.0882077)
(7.29288e-05 7.2962e-05 0.106513)
(4.18916e-06 5.1354e-06 0.0882729)
(5.1723e-06 4.18623e-06 0.0882707)
(-1.38807e-07 -1.06475e-05 0.092697)
(2.18782e-07 9.5468e-06 0.0825267)
(-1.24795e-07 9.38849e-06 0.092637)
(-2.18298e-06 -8.51219e-06 0.0825918)
(-2.50998e-06 4.22278e-06 0.0714406)
(2.72758e-06 -3.87748e-06 0.0715065)
(-1.06356e-05 -1.27403e-07 0.0926969)
(9.52183e-06 2.20675e-07 0.0825271)
(9.39504e-06 -1.03748e-07 0.0926368)
(-8.54129e-06 -2.16781e-06 0.0825921)
(2.43964e-06 -2.42294e-06 0.110619)
(-2.42278e-06 2.43403e-06 0.110619)
(2.4231e-06 2.43861e-06 0.110619)
(-2.39825e-06 -2.38841e-06 0.110619)
(2.40338e-06 -2.3913e-06 0.110619)
(-2.39041e-06 2.40152e-06 0.110618)
(2.38213e-06 2.39804e-06 0.110618)
(1.91463e-05 -6.80686e-08 0.100926)
(-1.57552e-05 4.37661e-06 0.0942412)
(-2.01025e-06 -6.70117e-07 0.109934)
(-1.43856e-06 2.92902e-06 0.108682)
(-1.8838e-05 6.28533e-09 0.100821)
(1.32966e-05 -5.59339e-06 0.0943422)
(-2.05015e-06 -6.60556e-07 0.109933)
(4.3116e-06 -2.5651e-06 0.0714432)
(-3.96604e-06 2.79122e-06 0.0715042)
(-9.24625e-08 1.9135e-05 0.100925)
(-6.41491e-07 -2.0177e-06 0.109933)
(4.35716e-06 -1.57704e-05 0.0942417)
(2.90746e-06 -1.44051e-06 0.108682)
(1.00527e-08 -1.88559e-05 0.100821)
(-6.21943e-07 -2.0668e-06 0.109933)
(-5.59419e-06 1.3282e-05 0.0943412)
(-5.69544e-06 -5.51213e-06 0.0882089)
(-5.4771e-06 -5.70078e-06 0.0882077)
(7.29606e-05 7.29949e-05 0.106513)
(4.19308e-06 5.12989e-06 0.0882729)
(5.1674e-06 4.1875e-06 0.0882707)
(-1.4152e-07 -1.06566e-05 0.0926968)
(1.9965e-07 9.51167e-06 0.0825266)
(-1.25359e-07 9.36754e-06 0.092637)
(-2.16375e-06 -8.50433e-06 0.0825918)
(-2.49998e-06 4.19727e-06 0.0714407)
(2.69462e-06 -3.85917e-06 0.0715066)
(-1.06261e-05 -1.03935e-07 0.0926967)
(9.49303e-06 2.19019e-07 0.082527)
(9.37413e-06 -9.9322e-08 0.0926368)
(-8.52499e-06 -2.1659e-06 0.082592)
(2.44446e-06 -2.43015e-06 0.110619)
(-2.42583e-06 2.43748e-06 0.110619)
(2.42621e-06 2.44511e-06 0.110619)
(-2.38911e-06 -2.37019e-06 0.110618)
(2.38824e-06 -2.36791e-06 0.110618)
(-2.38904e-06 2.39998e-06 0.110618)
(2.3741e-06 2.39295e-06 0.110618)
(1.91428e-05 -6.14049e-08 0.100926)
(-1.57154e-05 4.35305e-06 0.0942413)
(-2.01444e-06 -6.74021e-07 0.109934)
(-1.44904e-06 2.93501e-06 0.108682)
(-1.88024e-05 4.05717e-09 0.100821)
(1.32805e-05 -5.57855e-06 0.0943422)
(-2.07187e-06 -6.51232e-07 0.109933)
(4.28412e-06 -2.55656e-06 0.0714432)
(-3.93865e-06 2.78182e-06 0.0715043)
(-9.60134e-08 1.9125e-05 0.100925)
(-6.44318e-07 -2.00082e-06 0.109933)
(4.34372e-06 -1.5736e-05 0.0942418)
(2.91384e-06 -1.44086e-06 0.108682)
(7.77319e-09 -1.88323e-05 0.100821)
(-6.18286e-07 -2.06947e-06 0.109933)
(-5.5875e-06 1.32494e-05 0.0943412)
(-5.67772e-06 -5.48601e-06 0.088209)
(-5.46078e-06 -5.68202e-06 0.0882078)
(7.29624e-05 7.30005e-05 0.106513)
(4.18026e-06 5.12671e-06 0.0882729)
(5.15102e-06 4.17462e-06 0.0882707)
(-1.28678e-07 -1.05989e-05 0.0926967)
(2.02081e-07 9.47144e-06 0.0825265)
(-1.3178e-07 9.34017e-06 0.0926372)
(-2.1781e-06 -8.44848e-06 0.0825919)