/*--------------------------------*- C++ -*----------------------------------*\
| =========                 |                                                 |
| \\      /  F ield         | OpenFOAM: The Open Source CFD Toolbox           |
|  \\    /   O peration     | Version:  2312                                  |
|   \\  /    A nd           | Website:  www.openfoam.com                      |
|    \\/     M anipulation  |                                                 |
\*---------------------------------------------------------------------------*/
FoamFile
{
    version     2.0;
    format      ascii;
    arch        "LSB;label=32;scalar=64";
    class       volScalarField;
    location    "900";
    object      k;
}
// * * * * * * * * * * * * * * * * * * * * * * * * * * * * * * * * * * * * * //

dimensions      [0 2 -2 0 0 0 0];

internalField   nonuniform List<scalar> 
43496
(
6.85735e-05
7.11957e-05
5.14163e-05
6.47961e-05
6.06272e-05
4.67108e-05
6.8572e-05
7.34409e-05
6.06257e-05
5.14117e-05
4.67113e-05
6.47926e-05
5.35252e-05
6.9941e-05
6.9938e-05
7.11945e-05
7.34436e-05
7.18504e-05
6.85649e-05
7.15994e-05
7.1629e-05
7.15915e-05
7.16201e-05
7.1861e-05
7.16831e-05
7.97875e-05
7.97802e-05
7.16974e-05
7.11838e-05
7.18495e-05
6.85634e-05
7.16284e-05
7.15944e-05
7.16195e-05
7.15864e-05
7.18585e-05
7.16813e-05
7.97684e-05
7.34297e-05
7.97605e-05
7.16956e-05
9.49811e-05
7.34964e-05
7.35026e-05
7.3483e-05
7.34891e-05
9.4983e-05
7.41993e-05
7.3279e-05
6.99365e-05
6.52487e-05
7.32704e-05
6.52359e-05
7.42027e-05
7.41512e-05
7.32729e-05
6.99337e-05
6.52441e-05
6.52317e-05
7.32605e-05
7.41551e-05
7.11826e-05
7.34348e-05
3.19045e-05
3.89083e-05
3.19096e-05
6.4786e-05
6.03772e-05
6.03769e-05
5.62991e-05
6.06136e-05
6.23208e-05
5.50097e-05
6.23086e-05
5.50268e-05
5.62869e-05
5.73949e-05
6.42052e-05
6.4195e-05
5.73799e-05
5.62956e-05
6.06121e-05
5.50087e-05
6.23168e-05
5.50256e-05
6.23045e-05
5.62856e-05
5.73835e-05
6.4199e-05
6.47816e-05
6.03742e-05
6.41859e-05
5.73854e-05
6.03693e-05
6.59268e-05
5.35448e-05
5.94736e-05
5.94772e-05
5.948e-05
5.94764e-05
6.59318e-05
3.83873e-05
5.11099e-05
5.11131e-05
5.33005e-05
3.8805e-05
5.13556e-05
5.13588e-05
5.34957e-05
5.33023e-05
5.34331e-05
5.11105e-05
5.11053e-05
5.12968e-05
5.1292e-05
5.32999e-05
5.34335e-05
5.11078e-05
5.11084e-05
5.12941e-05
5.12945e-05
5.11102e-05
5.12954e-05
5.12947e-05
5.33011e-05
5.34341e-05
5.11073e-05
5.12992e-05
5.12942e-05
5.34324e-05
5.3498e-05
5.13562e-05
5.13503e-05
5.34905e-05
5.13537e-05
5.13542e-05
5.13571e-05
5.34957e-05
5.13531e-05
6.85151e-05
7.33586e-05
7.3385e-05
6.84866e-05
7.1114e-05
7.11402e-05
6.85135e-05
7.33613e-05
7.33857e-05
6.84873e-05
3.83863e-05
3.83916e-05
3.83905e-05
3.87029e-05
3.87023e-05
3.87069e-05
3.87057e-05
6.05223e-05
6.4695e-05
4.6329e-05
5.11725e-05
6.47259e-05
4.64091e-05
6.04773e-05
7.11152e-05
7.11413e-05
6.05226e-05
4.63326e-05
6.46962e-05
5.11764e-05
4.64122e-05
6.47268e-05
6.04775e-05
6.98618e-05
6.98696e-05
5.33346e-05
6.988e-05
6.9889e-05
7.34181e-05
6.85496e-05
7.11691e-05
7.34207e-05
6.85503e-05
3.8804e-05
3.88092e-05
3.88083e-05
6.0627e-05
6.47678e-05
4.66389e-05
6.05875e-05
4.67123e-05
7.11703e-05
6.06273e-05
4.66426e-05
6.4769e-05
6.05878e-05
4.67153e-05
6.99171e-05
6.99248e-05
5.35215e-05
6.99341e-05
6.99429e-05
7.11128e-05
7.11389e-05
7.11158e-05
7.11418e-05
6.98657e-05
6.98736e-05
5.33359e-05
6.98839e-05
6.98919e-05
7.11663e-05
7.11406e-05
7.11693e-05
7.11436e-05
5.34005e-05
6.99113e-05
6.99195e-05
6.98939e-05
6.99019e-05
6.85136e-05
7.33552e-05
7.33817e-05
6.8485e-05
6.05246e-05
6.46942e-05
4.63285e-05
5.11739e-05
6.47252e-05
4.64083e-05
6.04756e-05
6.05229e-05
6.46903e-05
4.6326e-05
5.11689e-05
6.47213e-05
4.64062e-05
6.0474e-05
6.85188e-05
7.34147e-05
7.33886e-05
6.85464e-05
6.85171e-05
7.34111e-05
7.33853e-05
6.85446e-05
6.05324e-05
5.12362e-05
6.4761e-05
4.65633e-05
6.47314e-05
4.64869e-05
6.05785e-05
6.05307e-05
5.12306e-05
6.47569e-05
4.65612e-05
6.47276e-05
4.64843e-05
6.05769e-05
6.98659e-05
6.98667e-05
5.33337e-05
6.98835e-05
6.9885e-05
7.11141e-05
7.11402e-05
7.11676e-05
7.11417e-05
5.33979e-05
6.99108e-05
6.99123e-05
6.98941e-05
6.9895e-05
7.11676e-05
7.11419e-05
6.05221e-05
6.46964e-05
4.63278e-05
5.11712e-05
6.47269e-05
4.64075e-05
6.04771e-05
6.8512e-05
7.33559e-05
7.33823e-05
6.84857e-05
6.05206e-05
4.63285e-05
6.46917e-05
5.11717e-05
4.64082e-05
6.47231e-05
6.04757e-05
6.85194e-05
7.34154e-05
7.33913e-05
6.85446e-05
6.05338e-05
5.12336e-05
6.47628e-05
4.65625e-05
6.47337e-05
4.64863e-05
6.05761e-05
6.85179e-05
7.34119e-05
7.33859e-05
6.85429e-05
6.05324e-05
5.12341e-05
4.65631e-05
6.47589e-05
4.64869e-05
6.4729e-05
6.05747e-05
6.8512e-05
7.33597e-05
7.33842e-05
6.84858e-05
6.05221e-05
4.633e-05
6.46915e-05
5.11725e-05
4.64093e-05
6.47223e-05
6.04771e-05
6.85128e-05
7.33557e-05
7.33821e-05
6.84867e-05
6.05339e-05
5.12355e-05
6.47615e-05
4.6564e-05
6.47323e-05
4.64874e-05
6.05761e-05
6.85179e-05
7.34138e-05
7.33897e-05
6.85429e-05
6.05338e-05
5.12364e-05
4.65641e-05
6.47579e-05
4.64885e-05
6.47287e-05
6.0576e-05
6.85188e-05
7.34117e-05
7.33857e-05
6.85437e-05
6.98684e-05
6.98656e-05
5.33356e-05
6.98867e-05
6.98844e-05
7.1114e-05
7.11401e-05
7.11687e-05
7.1143e-05
5.34003e-05
6.99141e-05
6.99118e-05
6.98966e-05
6.98938e-05
7.11675e-05
7.11417e-05
6.05198e-05
4.63298e-05
6.46941e-05
5.11713e-05
4.64092e-05
6.47245e-05
6.04748e-05
6.85117e-05
7.33598e-05
7.33854e-05
6.84855e-05
6.85081e-05
7.33573e-05
7.33837e-05
6.84818e-05
6.05342e-05
5.12388e-05
4.65671e-05
6.47626e-05
4.6491e-05
6.47335e-05
6.05764e-05
6.05316e-05
5.12329e-05
4.65641e-05
6.47603e-05
4.64883e-05
6.47313e-05
6.05738e-05
6.85176e-05
7.34149e-05
7.33908e-05
6.85426e-05
6.8514e-05
7.34133e-05
7.33873e-05
6.8539e-05
7.11137e-05
7.11398e-05
7.11164e-05
7.11425e-05
5.33988e-05
6.99073e-05
6.99164e-05
6.98901e-05
6.98979e-05
7.11672e-05
7.11415e-05
7.11699e-05
7.11442e-05
7.11679e-05
7.11709e-05
6.99208e-05
6.99288e-05
7.34158e-05
6.85478e-05
6.47669e-05
4.66387e-05
6.0586e-05
6.47631e-05
4.6636e-05
6.05843e-05
6.99211e-05
6.99218e-05
7.11692e-05
6.47692e-05
4.6638e-05
6.05875e-05
7.34154e-05
6.85486e-05
4.66386e-05
6.47645e-05
6.05861e-05
6.85719e-05
7.34192e-05
6.85485e-05
6.0627e-05
4.66402e-05
6.4764e-05
5.14109e-05
6.05874e-05
4.6712e-05
6.47917e-05
6.85728e-05
7.34151e-05
6.85494e-05
7.34406e-05
6.99237e-05
6.99208e-05
7.11691e-05
6.06248e-05
4.664e-05
6.47665e-05
5.14119e-05
6.05851e-05
4.67123e-05
6.47941e-05
6.85716e-05
7.34201e-05
6.85483e-05
6.85681e-05
7.34167e-05
6.85447e-05
7.34423e-05
7.11688e-05
7.11942e-05
7.11715e-05
7.1197e-05
7.1793e-05
7.15701e-05
7.1547e-05
6.85027e-05
7.15607e-05
7.15347e-05
7.18025e-05
7.16306e-05
7.33701e-05
7.9718e-05
7.97265e-05
7.1616e-05
7.16296e-05
7.97396e-05
7.33737e-05
7.97312e-05
7.16441e-05
7.1788e-05
6.84991e-05
7.15457e-05
7.15201e-05
7.15553e-05
7.15324e-05
7.17783e-05
7.11264e-05
7.11279e-05
7.17932e-05
7.15442e-05
7.15703e-05
6.85036e-05
7.15352e-05
7.15609e-05
7.18027e-05
7.16308e-05
7.33709e-05
7.97161e-05
7.97244e-05
7.16162e-05
7.16298e-05
7.97375e-05
7.33763e-05
7.97293e-05
7.16443e-05
7.17881e-05
6.84976e-05
7.15204e-05
7.1546e-05
7.15297e-05
7.15556e-05
7.17785e-05
7.11274e-05
7.11292e-05
9.49258e-05
7.34531e-05
7.34465e-05
7.34395e-05
7.34329e-05
9.4928e-05
7.40735e-05
6.51188e-05
6.98658e-05
7.31902e-05
6.51327e-05
7.31995e-05
7.40691e-05
7.41216e-05
6.51266e-05
6.98747e-05
7.31983e-05
6.51411e-05
7.32108e-05
7.41169e-05
7.40862e-05
7.32139e-05
6.98761e-05
6.51558e-05
6.51421e-05
7.32046e-05
7.40907e-05
7.4134e-05
7.32251e-05
6.9884e-05
6.51642e-05
6.51499e-05
7.32129e-05
7.41386e-05
9.49134e-05
7.34267e-05
7.34201e-05
7.34404e-05
7.34338e-05
9.49111e-05
7.16841e-05
7.97697e-05
7.3429e-05
7.16697e-05
7.97776e-05
7.18454e-05
6.85607e-05
7.16052e-05
7.15774e-05
7.18363e-05
7.16142e-05
7.15897e-05
7.11812e-05
7.16843e-05
7.97679e-05
7.34302e-05
7.16699e-05
7.97754e-05
7.18457e-05
6.85594e-05
7.15781e-05
7.16056e-05
7.18364e-05
7.15864e-05
7.16148e-05
7.11822e-05
9.4982e-05
7.35032e-05
7.34966e-05
7.34898e-05
7.34831e-05
9.49838e-05
7.41393e-05
6.52086e-05
7.32475e-05
6.99206e-05
7.41353e-05
6.52209e-05
7.32566e-05
7.41873e-05
6.52163e-05
7.32556e-05
6.99296e-05
7.41826e-05
6.52293e-05
7.32678e-05
9.49704e-05
7.34773e-05
7.34707e-05
9.49684e-05
7.34908e-05
7.34842e-05
7.41509e-05
7.32712e-05
6.99298e-05
6.52413e-05
6.52295e-05
7.32608e-05
7.41544e-05
7.41982e-05
7.32819e-05
6.99379e-05
6.52498e-05
6.52372e-05
7.32695e-05
7.42022e-05
7.11251e-05
7.11268e-05
7.1128e-05
7.11298e-05
9.49289e-05
7.34529e-05
7.34461e-05
7.34392e-05
7.34324e-05
9.49314e-05
7.40753e-05
6.51213e-05
6.98696e-05
7.31911e-05
7.32004e-05
6.51337e-05
7.40712e-05
7.41217e-05
6.51278e-05
6.98778e-05
7.32004e-05
7.32098e-05
6.51416e-05
7.4117e-05
7.40884e-05
7.32149e-05
6.988e-05
6.51568e-05
7.32056e-05
7.40923e-05
6.51447e-05
7.41342e-05
7.32242e-05
6.98879e-05
6.51647e-05
7.32149e-05
7.41385e-05
6.51512e-05
9.49167e-05
7.34264e-05
7.34196e-05
7.34401e-05
7.34333e-05
9.49141e-05
7.11543e-05
7.11527e-05
7.11573e-05
7.11556e-05
9.49458e-05
7.34519e-05
7.34451e-05
9.49434e-05
7.34656e-05
7.34587e-05
7.41216e-05
6.5201e-05
6.99075e-05
7.32435e-05
7.32344e-05
6.51897e-05
7.41251e-05
7.41674e-05
6.5209e-05
6.99155e-05
7.32528e-05
7.32437e-05
6.51962e-05
7.41714e-05
7.41089e-05
7.32202e-05
6.51674e-05
6.98977e-05
7.41052e-05
7.32295e-05
6.51792e-05
7.41552e-05
7.32295e-05
6.51739e-05
6.99059e-05
7.4151e-05
7.32388e-05
6.51871e-05
9.49578e-05
7.34782e-05
7.34713e-05
7.34645e-05
7.34577e-05
9.496e-05
7.17922e-05
7.15698e-05
7.15418e-05
6.85011e-05
7.15603e-05
7.15294e-05
7.18017e-05
7.16299e-05
7.33668e-05
7.96994e-05
7.97084e-05
7.16154e-05
7.1629e-05
7.97215e-05
7.33703e-05
7.97127e-05
7.16434e-05
7.17872e-05
6.84975e-05
7.15454e-05
7.15148e-05
7.1555e-05
7.15272e-05
7.17776e-05
7.1817e-05
7.15755e-05
7.15495e-05
6.85309e-05
7.18075e-05
7.15852e-05
7.15614e-05
7.16564e-05
7.34033e-05
7.97651e-05
7.16708e-05
7.97571e-05
7.16575e-05
7.97442e-05
7.33998e-05
7.1643e-05
7.97525e-05
7.18222e-05
6.85343e-05
7.15999e-05
7.15756e-05
7.18316e-05
7.15903e-05
7.15638e-05
7.18161e-05
7.15752e-05
7.15442e-05
6.85294e-05
7.18066e-05
7.15848e-05
7.15563e-05
7.16558e-05
7.34001e-05
7.97469e-05
7.97387e-05
7.16702e-05
7.16569e-05
7.97257e-05
7.33964e-05
7.16424e-05
7.97343e-05
7.18213e-05
6.85326e-05
7.15996e-05
7.15707e-05
7.15901e-05
7.15585e-05
7.18306e-05
9.49271e-05
7.34468e-05
7.34529e-05
7.34331e-05
7.34392e-05
9.49299e-05
7.41217e-05
6.51246e-05
6.98693e-05
7.31987e-05
7.32081e-05
6.51377e-05
7.41164e-05
7.40746e-05
6.51211e-05
6.98708e-05
7.31918e-05
6.51346e-05
7.32014e-05
7.40704e-05
7.41336e-05
7.32225e-05
6.98802e-05
6.51608e-05
7.32132e-05
6.5148e-05
7.41388e-05
7.40875e-05
7.32156e-05
6.9881e-05
6.51577e-05
6.51446e-05
7.32064e-05
7.40916e-05
9.49153e-05
7.34203e-05
7.34264e-05
7.34341e-05
7.34402e-05
9.49123e-05
7.11263e-05
7.11281e-05
7.11555e-05
7.1154e-05
9.49443e-05
7.34458e-05
7.34519e-05
9.49417e-05
7.34595e-05
7.34656e-05
7.41667e-05
6.5205e-05
6.99078e-05
7.32511e-05
6.51929e-05
7.3242e-05
7.41718e-05
7.41208e-05
6.52018e-05
6.99087e-05
7.32442e-05
7.32351e-05
6.51894e-05
7.41247e-05
7.41555e-05
7.32278e-05
6.51708e-05
6.98973e-05
6.51831e-05
7.41504e-05
7.32371e-05
7.41083e-05
7.32208e-05
6.51672e-05
6.98987e-05
7.41043e-05
7.32302e-05
6.518e-05
9.4956e-05
7.34721e-05
7.34782e-05
7.34584e-05
7.34645e-05
9.49585e-05
7.11556e-05
7.11539e-05
7.17919e-05
7.15698e-05
7.1539e-05
6.85021e-05
7.15604e-05
7.153e-05
7.18013e-05
7.16289e-05
7.33674e-05
7.96963e-05
7.97049e-05
7.16144e-05
7.16279e-05
7.97181e-05
7.33709e-05
7.97095e-05
7.16424e-05
7.17868e-05
6.8496e-05
7.15455e-05
7.15152e-05
7.1555e-05
7.15244e-05
7.17773e-05
7.18171e-05
7.15497e-05
7.15758e-05
6.85293e-05
7.18077e-05
7.15588e-05
7.15854e-05
7.16566e-05
7.34061e-05
7.9763e-05
7.1671e-05
7.97553e-05
7.16577e-05
7.97424e-05
7.34008e-05
7.16432e-05
7.97504e-05
7.18222e-05
6.8535e-05
7.15729e-05
7.16002e-05
7.18317e-05
7.1564e-05
7.15906e-05
7.18157e-05
7.15753e-05
7.15445e-05
6.85278e-05
7.18063e-05
7.15849e-05
7.15537e-05
7.16548e-05
7.34006e-05
7.97437e-05
7.97355e-05
7.16692e-05
7.16558e-05
7.97227e-05
7.33971e-05
7.16414e-05
7.9731e-05
7.18209e-05
6.85335e-05
7.15995e-05
7.15676e-05
7.15902e-05
7.15589e-05
7.18302e-05
7.17915e-05
7.15402e-05
7.15695e-05
6.85021e-05
7.15313e-05
7.15601e-05
7.18011e-05
7.16296e-05
7.33693e-05
7.97133e-05
7.97168e-05
7.16145e-05
7.16281e-05
7.973e-05
7.33747e-05
7.97266e-05
7.16431e-05
7.17867e-05
6.84961e-05
7.15164e-05
7.15452e-05
7.15256e-05
7.15547e-05
7.17769e-05
7.1792e-05
7.15697e-05
7.15401e-05
6.8503e-05
7.15603e-05
7.15311e-05
7.18014e-05
7.16294e-05
7.33672e-05
7.96961e-05
7.97046e-05
7.16148e-05
7.16284e-05
7.97176e-05
7.33708e-05
7.97094e-05
7.16429e-05
7.17869e-05
6.84969e-05
7.15454e-05
7.15163e-05
7.15549e-05
7.15256e-05
7.17774e-05
7.18156e-05
7.15458e-05
7.15749e-05
6.85278e-05
7.1806e-05
7.15547e-05
7.15845e-05
7.16549e-05
7.34045e-05
7.97555e-05
7.97524e-05
7.16699e-05
7.16565e-05
7.97396e-05
7.33993e-05
7.16415e-05
7.97428e-05
7.18206e-05
6.85334e-05
7.15686e-05
7.15992e-05
7.156e-05
7.15898e-05
7.183e-05
7.18158e-05
7.15752e-05
7.15456e-05
6.85287e-05
7.18065e-05
7.15848e-05
7.15547e-05
7.16552e-05
7.34004e-05
7.97431e-05
7.97353e-05
7.16696e-05
7.16563e-05
7.97224e-05
7.33969e-05
7.16418e-05
7.97305e-05
7.1821e-05
6.85343e-05
7.15994e-05
7.15685e-05
7.15901e-05
7.15599e-05
7.18304e-05
9.49244e-05
7.34462e-05
7.34524e-05
7.34326e-05
7.34387e-05
9.49268e-05
7.41216e-05
6.51248e-05
6.98725e-05
7.3199e-05
7.32083e-05
6.51398e-05
7.41175e-05
7.40747e-05
6.5121e-05
6.98702e-05
7.31894e-05
6.51351e-05
7.32019e-05
7.40692e-05
7.41347e-05
7.32227e-05
6.98827e-05
6.51629e-05
7.32135e-05
6.51483e-05
7.41388e-05
7.40865e-05
7.32163e-05
6.98798e-05
6.51582e-05
6.51443e-05
7.3204e-05
7.40918e-05
9.49121e-05
7.34198e-05
7.34259e-05
7.34335e-05
7.34396e-05
9.49097e-05
7.11262e-05
7.11279e-05
7.11567e-05
7.1155e-05
9.49412e-05
7.34453e-05
7.34514e-05
9.49389e-05
7.34589e-05
7.34651e-05
7.41679e-05
6.52071e-05
6.99103e-05
7.32513e-05
6.51933e-05
7.32423e-05
7.41716e-05
7.41195e-05
6.52025e-05
6.99073e-05
7.32448e-05
7.32325e-05
6.51891e-05
7.41247e-05
7.41552e-05
7.32281e-05
6.51712e-05
6.99005e-05
6.51852e-05
7.41515e-05
7.32373e-05
7.41085e-05
7.32185e-05
6.51669e-05
6.98983e-05
7.41032e-05
7.32306e-05
6.51806e-05
9.49532e-05
7.34715e-05
7.34777e-05
7.34579e-05
7.34641e-05
9.49555e-05
7.11555e-05
7.11538e-05
7.17931e-05
7.15449e-05
7.15693e-05
6.85018e-05
7.15359e-05
7.15599e-05
7.18025e-05
7.16309e-05
7.3371e-05
7.97145e-05
7.9723e-05
7.16164e-05
7.163e-05
7.97361e-05
7.33757e-05
7.97277e-05
7.16444e-05
7.1788e-05
6.84958e-05
7.15211e-05
7.1545e-05
7.15304e-05
7.15545e-05
7.17785e-05
7.17911e-05
7.15366e-05
7.15682e-05
6.84982e-05
7.15277e-05
7.15588e-05
7.18005e-05
7.163e-05
7.33688e-05
7.96976e-05
7.9706e-05
7.16154e-05
7.1629e-05
7.97191e-05
7.33724e-05
7.97109e-05
7.16435e-05
7.17861e-05
6.84921e-05
7.15128e-05
7.1544e-05
7.1522e-05
7.15535e-05
7.17765e-05
7.18169e-05
7.15504e-05
7.15747e-05
6.85275e-05
7.18076e-05
7.15594e-05
7.15843e-05
7.16568e-05
7.34056e-05
7.97616e-05
7.97536e-05
7.16712e-05
7.16578e-05
7.97408e-05
7.34003e-05
7.16434e-05
7.9749e-05
7.18221e-05
6.85331e-05
7.15733e-05
7.15989e-05
7.15646e-05
7.15896e-05
7.18315e-05
7.1815e-05
7.15422e-05
7.15737e-05
6.85238e-05
7.18055e-05
7.15512e-05
7.15833e-05
7.16558e-05
7.3402e-05
7.97447e-05
7.97368e-05
7.16702e-05
7.16569e-05
7.97239e-05
7.33986e-05
7.16424e-05
7.9732e-05
7.18201e-05
6.85296e-05
7.15651e-05
7.15979e-05
7.15565e-05
7.15886e-05
7.18295e-05
7.1126e-05
7.11277e-05
7.11287e-05
7.11304e-05
9.49424e-05
7.34522e-05
7.34455e-05
9.49401e-05
7.34658e-05
7.34591e-05
7.41192e-05
6.51998e-05
6.99037e-05
7.32425e-05
7.41236e-05
6.51871e-05
7.32334e-05
7.41669e-05
6.52083e-05
6.99115e-05
7.32537e-05
7.41717e-05
6.51949e-05
7.32414e-05
7.41073e-05
7.32192e-05
6.51648e-05
6.98938e-05
7.41029e-05
6.51781e-05
7.32285e-05
7.41553e-05
7.32274e-05
6.51726e-05
6.99026e-05
7.41507e-05
6.51865e-05
7.32393e-05
9.49543e-05
7.34783e-05
7.34717e-05
9.49567e-05
7.34648e-05
7.34582e-05
7.11552e-05
7.11536e-05
7.11579e-05
7.11563e-05
7.11799e-05
7.11828e-05
7.41409e-05
6.52113e-05
7.32486e-05
6.99245e-05
7.41376e-05
7.32573e-05
6.52222e-05
7.41872e-05
6.52176e-05
7.32579e-05
6.99327e-05
7.41834e-05
7.32666e-05
6.52301e-05
9.49738e-05
7.34771e-05
7.34703e-05
9.49719e-05
7.34907e-05
7.34838e-05
7.16834e-05
7.97514e-05
7.34246e-05
7.16691e-05
7.97592e-05
7.18446e-05
6.85591e-05
7.16051e-05
7.15722e-05
7.16139e-05
7.18355e-05
7.15846e-05
7.4188e-05
6.52144e-05
7.32562e-05
6.99239e-05
7.32649e-05
7.41825e-05
6.52263e-05
7.41414e-05
6.52108e-05
7.32488e-05
6.99264e-05
6.52231e-05
7.41362e-05
7.32588e-05
9.49726e-05
7.3471e-05
7.34771e-05
7.34846e-05
9.49701e-05
7.34907e-05
7.16824e-05
7.97482e-05
7.34263e-05
7.16681e-05
7.97562e-05
7.18446e-05
6.85579e-05
7.16049e-05
7.15728e-05
7.16143e-05
7.1835e-05
7.15814e-05
7.1849e-05
6.85633e-05
7.16281e-05
7.15876e-05
7.16192e-05
7.16831e-05
7.97648e-05
7.34281e-05
7.97678e-05
7.16682e-05
7.18446e-05
6.85578e-05
7.15739e-05
7.16045e-05
7.15822e-05
7.18347e-05
7.1614e-05
7.16814e-05
7.18495e-05
6.85642e-05
7.16283e-05
7.15952e-05
7.16194e-05
7.15873e-05
7.18586e-05
7.16828e-05
7.97477e-05
7.34262e-05
7.16685e-05
7.97555e-05
7.18447e-05
6.85587e-05
7.16048e-05
7.15738e-05
7.18352e-05
7.16142e-05
7.15823e-05
7.16817e-05
7.97676e-05
7.34295e-05
7.976e-05
7.1696e-05
7.41874e-05
6.5215e-05
7.32563e-05
6.99274e-05
7.32655e-05
7.41837e-05
6.52281e-05
7.41404e-05
6.52105e-05
7.32469e-05
6.99251e-05
6.52235e-05
7.41355e-05
7.32589e-05
9.49694e-05
7.34705e-05
7.34766e-05
7.3484e-05
9.49672e-05
7.34902e-05
7.1181e-05
7.18507e-05
6.8563e-05
7.15999e-05
7.16278e-05
7.1592e-05
7.16189e-05
7.18597e-05
7.16844e-05
7.97662e-05
7.34295e-05
7.97739e-05
7.16701e-05
7.18458e-05
6.85575e-05
7.15785e-05
7.16043e-05
7.15871e-05
7.18363e-05
7.16137e-05
7.16833e-05
7.97859e-05
7.97785e-05
7.16975e-05
7.18478e-05
6.85595e-05
7.15919e-05
7.16268e-05
7.1584e-05
7.16179e-05
7.18588e-05
7.16835e-05
7.97493e-05
7.34279e-05
7.16691e-05
7.97571e-05
7.18449e-05
6.85539e-05
7.15704e-05
7.16033e-05
7.18342e-05
7.15789e-05
7.16127e-05
7.16823e-05
7.97692e-05
7.34312e-05
7.97616e-05
7.16966e-05
7.11808e-05
7.11823e-05
7.11835e-05
7.1185e-05
3.12712e-05
3.12689e-05
3.84941e-05
3.14018e-05
3.13991e-05
2.2264e-05
2.21126e-05
6.58128e-05
5.93063e-05
5.93058e-05
5.32847e-05
5.9306e-05
5.93056e-05
6.58073e-05
3.17838e-05
3.17813e-05
2.28619e-05
2.2714e-05
6.59087e-05
5.9444e-05
5.94441e-05
5.34789e-05
6.59038e-05
5.94418e-05
5.94431e-05
6.58148e-05
5.9307e-05
5.93092e-05
5.32864e-05
5.93067e-05
5.93087e-05
6.58089e-05
6.58825e-05
5.34504e-05
5.94121e-05
5.9412e-05
5.94131e-05
5.94127e-05
6.58874e-05
6.58133e-05
5.93038e-05
5.93068e-05
5.3284e-05
5.93066e-05
5.93034e-05
6.58081e-05
6.58816e-05
5.34465e-05
5.94074e-05
5.9411e-05
5.94084e-05
5.94125e-05
6.58864e-05
6.58132e-05
5.93061e-05
5.93089e-05
5.32857e-05
5.93087e-05
5.93061e-05
6.58077e-05
6.58812e-05
5.34506e-05
5.94097e-05
5.9412e-05
5.941e-05
5.94129e-05
6.58863e-05
6.58807e-05
5.3449e-05
5.94102e-05
5.94107e-05
6.58858e-05
5.94111e-05
5.94106e-05
6.59103e-05
5.94465e-05
5.94467e-05
5.34778e-05
6.59058e-05
5.94429e-05
5.94436e-05
6.59111e-05
5.94427e-05
5.94459e-05
5.34898e-05
5.94487e-05
6.59041e-05
5.94457e-05
6.59098e-05
5.94429e-05
5.94455e-05
5.34804e-05
5.94449e-05
6.59042e-05
5.94433e-05
3.12705e-05
3.12701e-05
3.84935e-05
3.14013e-05
3.13999e-05
2.22643e-05
2.2113e-05
3.12745e-05
3.12741e-05
3.84982e-05
3.14046e-05
3.14046e-05
2.22679e-05
2.21166e-05
3.12757e-05
3.12726e-05
3.84969e-05
3.14048e-05
3.14043e-05
2.22684e-05
2.21166e-05
3.85996e-05
3.1658e-05
3.16553e-05
3.15309e-05
3.15287e-05
2.2415e-05
2.25647e-05
3.85986e-05
3.16575e-05
3.1656e-05
3.15301e-05
3.15299e-05
2.24154e-05
2.2565e-05
3.86039e-05
3.16607e-05
3.16608e-05
3.15342e-05
3.15338e-05
2.24189e-05
2.25686e-05
3.86029e-05
3.16608e-05
3.16608e-05
3.15356e-05
3.1532e-05
2.24189e-05
2.25691e-05
5.61429e-05
6.22242e-05
5.48435e-05
6.05063e-05
6.22099e-05
5.48563e-05
5.61328e-05
5.72086e-05
6.02262e-05
6.47075e-05
6.40857e-05
6.02345e-05
6.40986e-05
5.72191e-05
5.72553e-05
6.4121e-05
6.47141e-05
6.02619e-05
6.02576e-05
6.41085e-05
5.7245e-05
5.60914e-05
6.04941e-05
6.2184e-05
5.48092e-05
6.21987e-05
5.47975e-05
5.61011e-05
5.61454e-05
5.48445e-05
6.22269e-05
6.05065e-05
5.48572e-05
6.22127e-05
5.61352e-05
5.72117e-05
6.02313e-05
6.47082e-05
6.40889e-05
6.02324e-05
6.41012e-05
5.7222e-05
5.7258e-05
6.41235e-05
6.47151e-05
6.02629e-05
6.02618e-05
6.41114e-05
5.7248e-05
5.60938e-05
6.04944e-05
5.48101e-05
6.21868e-05
5.47985e-05
6.22015e-05
5.61036e-05
6.58325e-05
5.33503e-05
5.93404e-05
5.93418e-05
5.93405e-05
5.93416e-05
6.58379e-05
3.1783e-05
3.17828e-05
3.19052e-05
2.28622e-05
2.27144e-05
3.17869e-05
3.17866e-05
3.19103e-05
2.28657e-05
2.27179e-05
3.17886e-05
3.17845e-05
3.89081e-05
3.19097e-05
3.19112e-05
2.28663e-05
2.27178e-05
5.62996e-05
6.06134e-05
6.23199e-05
5.50097e-05
6.23077e-05
5.50268e-05
5.62879e-05
5.73497e-05
6.0348e-05
6.41732e-05
6.47785e-05
5.73625e-05
6.03473e-05
6.41843e-05
5.62517e-05
6.06023e-05
6.22845e-05
5.49835e-05
5.62621e-05
6.22974e-05
5.49705e-05
5.6302e-05
6.06137e-05
5.50109e-05
6.23226e-05
5.50276e-05
6.23104e-05
5.629e-05
5.7353e-05
6.03485e-05
6.41763e-05
6.47796e-05
5.73645e-05
6.03485e-05
6.41871e-05
5.62542e-05
6.06026e-05
5.49845e-05
6.22873e-05
5.62646e-05
5.49715e-05
6.23002e-05
5.73986e-05
6.42065e-05
6.41965e-05
5.73837e-05
6.59264e-05
5.35418e-05
5.9473e-05
5.94737e-05
5.94777e-05
5.94775e-05
6.59309e-05
6.58341e-05
5.33519e-05
5.93421e-05
5.93433e-05
6.58395e-05
5.93428e-05
5.93432e-05
6.58639e-05
5.33857e-05
5.93783e-05
5.93782e-05
6.58587e-05
5.93776e-05
5.93785e-05
5.61409e-05
6.22283e-05
5.48515e-05
6.05043e-05
6.22089e-05
5.48469e-05
5.61358e-05
5.72157e-05
6.02255e-05
6.47066e-05
6.40869e-05
6.41007e-05
6.02346e-05
5.72121e-05
5.72487e-05
6.4123e-05
6.47131e-05
6.02648e-05
6.41093e-05
6.02563e-05
5.7252e-05
5.60936e-05
6.04961e-05
6.21832e-05
5.48007e-05
6.22025e-05
5.48055e-05
5.60988e-05
5.61366e-05
6.22236e-05
5.48496e-05
6.05027e-05
6.22039e-05
5.4845e-05
5.61313e-05
5.72093e-05
6.02217e-05
6.47027e-05
6.40786e-05
6.40932e-05
6.02307e-05
5.72057e-05
5.72423e-05
6.41155e-05
6.47091e-05
6.02608e-05
6.41011e-05
5.72455e-05
6.02524e-05
5.60892e-05
6.04945e-05
6.21782e-05
5.47989e-05
6.21979e-05
5.48037e-05
5.60944e-05
5.61763e-05
6.22347e-05
5.48902e-05
6.0552e-05
5.61819e-05
6.22535e-05
5.48944e-05
5.73203e-05
6.03228e-05
6.47494e-05
6.41663e-05
6.03151e-05
6.41532e-05
5.73233e-05
5.72881e-05
6.41317e-05
6.02857e-05
6.47433e-05
6.02936e-05
5.72852e-05
6.41449e-05
5.62216e-05
6.05595e-05
6.22782e-05
5.49373e-05
6.22596e-05
5.49335e-05
5.62159e-05
5.61719e-05
6.22297e-05
5.48883e-05
6.05504e-05
5.61775e-05
6.22488e-05
5.48925e-05
5.73139e-05
6.03189e-05
6.47456e-05
6.41587e-05
6.4145e-05
6.03113e-05
5.73169e-05
5.72817e-05
6.41233e-05
6.02818e-05
6.47392e-05
5.72788e-05
6.41373e-05
6.02896e-05
5.62172e-05
6.05579e-05
6.22736e-05
5.49354e-05
6.22546e-05
5.49315e-05
5.62115e-05
6.58332e-05
5.33496e-05
5.93395e-05
5.93425e-05
5.93428e-05
5.93396e-05
6.58383e-05
6.58628e-05
5.33838e-05
5.93741e-05
5.93768e-05
5.93743e-05
6.58578e-05
5.93762e-05
5.61418e-05
6.22248e-05
5.48424e-05
6.0506e-05
6.22105e-05
5.48553e-05
5.61316e-05
5.72072e-05
6.023e-05
6.47084e-05
6.40871e-05
6.40992e-05
6.02312e-05
5.72178e-05
5.72539e-05
6.41216e-05
6.47153e-05
6.02617e-05
6.41097e-05
6.02606e-05
5.72437e-05
5.609e-05
6.04939e-05
6.21845e-05
5.48084e-05
6.21992e-05
5.47965e-05
5.60999e-05
5.61384e-05
5.48411e-05
6.22209e-05
6.05046e-05
5.48541e-05
6.22065e-05
5.61295e-05
5.72102e-05
6.02226e-05
6.47045e-05
6.4078e-05
6.40929e-05
6.02317e-05
5.72072e-05
5.72436e-05
6.41153e-05
6.47106e-05
6.0262e-05
6.41006e-05
5.72467e-05
6.02534e-05
5.6088e-05
6.04924e-05
5.48073e-05
6.21806e-05
5.47955e-05
6.21954e-05
5.60965e-05
5.61725e-05
6.2236e-05
5.48981e-05
6.05496e-05
5.61828e-05
6.22502e-05
5.48852e-05
5.73252e-05
6.03213e-05
6.47517e-05
6.41651e-05
6.03201e-05
6.41537e-05
5.7315e-05
5.72788e-05
6.41318e-05
6.029e-05
6.47452e-05
6.02912e-05
5.72901e-05
6.41437e-05
5.62228e-05
6.0561e-05
6.22745e-05
5.4928e-05
6.22609e-05
5.49416e-05
5.62122e-05
5.61706e-05
5.48971e-05
6.2232e-05
6.05482e-05
5.61794e-05
5.48842e-05
6.22463e-05
5.73149e-05
6.03203e-05
6.4747e-05
6.41585e-05
6.41445e-05
6.0312e-05
5.73177e-05
5.72829e-05
6.41228e-05
6.02829e-05
6.47411e-05
5.72799e-05
6.4137e-05
6.02908e-05
5.62192e-05
6.05596e-05
5.49268e-05
6.22706e-05
5.49404e-05
6.22569e-05
5.62103e-05
5.61414e-05
5.48429e-05
6.22225e-05
6.0506e-05
5.48558e-05
6.22082e-05
5.61311e-05
5.72056e-05
6.02267e-05
6.47036e-05
6.40801e-05
6.02279e-05
6.40931e-05
5.72161e-05
5.72522e-05
6.41153e-05
6.47103e-05
6.02584e-05
6.02572e-05
6.4103e-05
5.72421e-05
5.60896e-05
6.0494e-05
5.4809e-05
6.21822e-05
5.47974e-05
6.21969e-05
5.60995e-05
5.61736e-05
6.22353e-05
5.48989e-05
6.05498e-05
5.61837e-05
6.22495e-05
5.48866e-05
5.73265e-05
6.03184e-05
6.47502e-05
6.4164e-05
5.73159e-05
6.03178e-05
6.41522e-05
5.728e-05
6.41304e-05
6.02874e-05
6.47439e-05
5.72914e-05
6.02901e-05
6.41427e-05
5.62236e-05
6.0561e-05
6.22739e-05
5.49279e-05
5.62135e-05
6.22601e-05
5.49419e-05
5.6172e-05
5.48988e-05
6.22337e-05
6.05496e-05
5.61822e-05
5.48859e-05
6.22479e-05
5.73236e-05
6.03166e-05
6.47469e-05
6.41584e-05
6.41471e-05
6.03162e-05
5.73132e-05
5.72772e-05
6.41248e-05
6.02866e-05
6.47403e-05
5.72883e-05
6.41373e-05
6.02877e-05
5.62222e-05
6.0561e-05
5.49284e-05
6.22721e-05
5.4942e-05
6.22586e-05
5.62117e-05
6.58329e-05
5.33514e-05
5.93405e-05
5.93431e-05
5.93429e-05
5.93401e-05
6.58382e-05
6.58626e-05
5.33853e-05
5.93752e-05
5.9378e-05
5.93757e-05
6.58574e-05
5.93782e-05
5.61397e-05
5.48419e-05
6.22202e-05
6.05038e-05
5.48549e-05
6.22059e-05
5.61295e-05
5.72046e-05
6.02284e-05
6.47059e-05
6.40802e-05
6.02295e-05
6.40928e-05
5.7215e-05
5.72511e-05
6.41151e-05
6.47129e-05
6.02601e-05
6.02589e-05
6.4103e-05
5.7241e-05
5.6088e-05
6.04917e-05
5.48081e-05
6.21799e-05
5.47964e-05
6.21946e-05
5.60978e-05
5.6176e-05
5.48999e-05
6.22381e-05
6.05501e-05
5.61862e-05
5.48875e-05
6.22523e-05
5.7329e-05
6.03208e-05
6.47513e-05
6.41667e-05
5.73191e-05
6.03206e-05
6.41552e-05
5.7283e-05
6.41334e-05
6.02911e-05
6.47449e-05
5.72941e-05
6.02924e-05
6.41455e-05
5.6226e-05
6.05613e-05
5.49289e-05
6.22768e-05
5.62159e-05
5.49428e-05
6.22629e-05
5.61704e-05
5.48979e-05
6.22314e-05
6.05473e-05
5.61806e-05
5.48849e-05
6.22456e-05
5.73225e-05
6.03183e-05
6.47493e-05
6.41584e-05
6.4147e-05
6.03179e-05
5.73122e-05
5.72762e-05
6.4125e-05
6.02883e-05
6.47426e-05
5.72872e-05
6.41372e-05
6.02895e-05
5.62206e-05
6.05587e-05
5.49275e-05
6.22698e-05
5.49411e-05
6.22563e-05
5.62101e-05
6.58621e-05
5.33845e-05
5.93751e-05
5.9376e-05
6.58571e-05
5.93747e-05
5.93768e-05
5.73578e-05
6.03448e-05
6.41743e-05
6.47781e-05
6.4187e-05
5.73553e-05
6.03493e-05
5.62551e-05
6.06043e-05
6.22835e-05
5.49762e-05
6.23024e-05
5.62605e-05
5.49792e-05
5.73515e-05
6.03409e-05
6.41661e-05
6.4774e-05
5.73488e-05
6.41795e-05
6.03454e-05
5.62508e-05
6.06027e-05
6.22785e-05
5.49743e-05
5.62561e-05
6.22978e-05
5.49773e-05
5.73481e-05
6.03464e-05
6.41744e-05
6.47798e-05
6.41855e-05
5.73591e-05
6.03455e-05
5.6251e-05
6.06025e-05
6.22852e-05
5.49833e-05
6.22984e-05
5.62615e-05
5.49707e-05
5.73519e-05
6.03404e-05
6.41656e-05
6.47759e-05
5.73496e-05
6.41788e-05
6.03475e-05
5.62491e-05
6.0601e-05
5.49822e-05
6.22811e-05
5.6258e-05
5.49697e-05
6.22944e-05
5.62983e-05
6.06134e-05
5.50099e-05
6.23184e-05
5.50273e-05
6.23062e-05
5.62862e-05
5.73461e-05
6.03441e-05
6.41677e-05
6.47751e-05
6.03436e-05
5.7358e-05
6.41789e-05
5.62505e-05
6.06023e-05
5.49839e-05
6.22828e-05
5.49712e-05
5.62608e-05
6.2296e-05
5.73933e-05
6.41985e-05
6.47809e-05
6.037e-05
6.03719e-05
6.41883e-05
5.73778e-05
5.62969e-05
6.06112e-05
5.50092e-05
6.23161e-05
5.50262e-05
6.23039e-05
5.62847e-05
5.73452e-05
6.03456e-05
6.41678e-05
6.47775e-05
6.0346e-05
5.73568e-05
6.41788e-05
5.62489e-05
6.06001e-05
5.4983e-05
6.22805e-05
5.49704e-05
5.62593e-05
6.22937e-05
5.73921e-05
6.41984e-05
6.47835e-05
6.03741e-05
6.03735e-05
6.41883e-05
5.73772e-05
3.6464e-05
4.17686e-05
3.64637e-05
7.13543e-05
6.01874e-05
6.95325e-05
6.68972e-05
6.68939e-05
6.95307e-05
6.01886e-05
7.1356e-05
7.01867e-05
7.13412e-05
7.73918e-05
7.73713e-05
7.02007e-05
6.95199e-05
7.00872e-05
5.93333e-05
6.68827e-05
7.1146e-05
5.92832e-05
7.11271e-05
7.01098e-05
7.00363e-05
5.93256e-05
6.68794e-05
7.11356e-05
7.11209e-05
5.92775e-05
7.00574e-05
9.2341e-05
7.20311e-05
7.20366e-05
7.20171e-05
7.20226e-05
9.2353e-05
6.95181e-05
7.01849e-05
7.13431e-05
7.74013e-05
7.73815e-05
7.01996e-05
5.95221e-05
4.17714e-05
5.05054e-05
5.05046e-05
5.04755e-05
5.04761e-05
5.95534e-05
4.80629e-05
5.25176e-05
6.01434e-05
5.85152e-05
5.84581e-05
5.24885e-05
4.80749e-05
4.8067e-05
5.25218e-05
6.0146e-05
5.85193e-05
5.24893e-05
5.84632e-05
4.80796e-05
2.10414e-05
3.66941e-05
3.66981e-05
4.1943e-05
2.17998e-05
3.75995e-05
3.76036e-05
4.2671e-05
2.25765e-05
3.84792e-05
3.84833e-05
4.3364e-05
2.33677e-05
3.93317e-05
3.93362e-05
4.40373e-05
2.41693e-05
4.01564e-05
4.01613e-05
4.46857e-05
2.49777e-05
4.09529e-05
4.09578e-05
4.53113e-05
2.5789e-05
4.17204e-05
4.17254e-05
4.59133e-05
2.65997e-05
4.24593e-05
4.24641e-05
4.649e-05
2.74065e-05
4.31694e-05
4.31741e-05
4.70464e-05
2.82061e-05
4.38506e-05
4.38554e-05
4.75802e-05
2.89957e-05
4.45036e-05
4.45081e-05
4.80889e-05
2.97728e-05
4.51281e-05
4.51326e-05
4.85745e-05
3.0535e-05
4.57249e-05
4.57292e-05
4.90565e-05
3.12799e-05
4.6294e-05
4.62983e-05
4.95011e-05
3.20057e-05
4.68359e-05
4.68401e-05
4.99229e-05
3.2711e-05
4.7351e-05
4.73551e-05
5.03242e-05
3.3394e-05
4.78397e-05
4.78436e-05
5.07075e-05
3.40535e-05
4.83023e-05
4.83059e-05
5.10713e-05
3.46885e-05
4.8739e-05
4.87424e-05
5.14167e-05
3.52979e-05
4.91503e-05
4.91537e-05
5.17392e-05
3.58812e-05
4.95367e-05
4.95401e-05
5.20431e-05
3.64376e-05
4.98987e-05
4.99019e-05
5.23284e-05
3.69667e-05
5.02365e-05
5.02397e-05
5.25953e-05
3.74681e-05