/*--------------------------------*- C++ -*----------------------------------*\
| =========                 |                                                 |
| \\      /  F ield         | OpenFOAM: The Open Source CFD Toolbox           |
|  \\    /   O peration     | Version:  2312                                  |
|   \\  /    A nd           | Website:  www.openfoam.com                      |
|    \\/     M anipulation  |                                                 |
\*---------------------------------------------------------------------------*/
FoamFile
{
    version     2.0;
    format      ascii;
    arch        "LSB;label=32;scalar=64";
    class       surfaceScalarField;
    location    "900";
    object      phi;
}
// * * * * * * * * * * * * * * * * * * * * * * * * * * * * * * * * * * * * * //

dimensions      [0 3 -1 0 0 0 0];

oriented        oriented;

internalField   nonuniform List<scalar> 
125567
(
-7.02086e-08
-1.69092e-10
-0.000229369
2.16315e-09
2.99796e-08
-6.88822e-09
-1.97545e-08
-9.80153e-05
1.24103e-06
-1.2291e-07
2.69104e-07
-2.15118e-07
-1.19369e-06
2.77521e-07
-2.36777e-07
-0.00113202
-5.5527e-08
-8.52612e-07
9.11308e-07
2.08301e-08
4.35985e-08
-0.000245491
-1.02553e-07
-1.67437e-08
-1.67382e-09
-0.00025013
4.05229e-09
-1.93203e-07
-3.20208e-09
-1.52995e-07
-9.38565e-07
8.31117e-07
-7.56626e-07
1.01142e-06
-0.00115229
-7.01908e-08
-0.000229329
2.99648e-08
2.17749e-09
-4.35526e-08
3.28668e-09
-0.000193597
-0.000250104
-1.93192e-07
4.32375e-09
-4.98689e-08
1.27246e-06
-1.2822e-07
-8.5793e-07
2.69028e-07
9.16519e-07
-2.15162e-07
-1.22791e-06
2.80215e-07
-2.42391e-07
-0.00113153
-1.58779e-07
-9.38599e-07
8.31122e-07
-7.56662e-07
1.01144e-06
-0.00115224
2.31983e-08
-1.67121e-08
-0.000245388
-1.02502e-07
-0.000268079
2.4188e-07
2.46796e-07
1.0473e-08
-0.00027816
-4.61964e-08
1.97785e-08
1.05756e-08
-0.000278297
-4.84404e-08
-6.89311e-09
-9.80382e-05
-0.000193655
3.29799e-09
1.24253e-08
-8.07169e-10
0.000143419
-4.6763e-11
-0.00014343
7.51169e-10
-1.11303e-08
2.03761e-12
2.86621e-08
-0.000229387
-0.000223421
2.88786e-08
4.38784e-09
-7.17134e-08
-0.000171124
-3.20347e-10
-5.38988e-12
9.10113e-10
3.30272e-08
-0.000223442
-1.74577e-11
-0.000171136
1.47838e-09
1.70302e-08
7.92981e-05
-7.93151e-05
-0.000263317
2.4253e-08
-6.1596e-08
3.32263e-08
-0.000263336
5.02891e-09
1.12585e-08
-9.80316e-05
-7.67809e-10
1.23559e-08
0.000143346
-5.51332e-11
-0.000143358
-1.11273e-08
9.15387e-10
2.86579e-08
-0.000229348
-0.000171089
-1.51372e-10
-0.000223323
2.88209e-08
4.36613e-09
-6.92371e-08
-0.000171101
9.01982e-10
3.05554e-08
-0.000223341
1.4914e-09
1.6967e-08
7.92537e-05
-7.92707e-05
-0.00026319
2.41739e-08
-5.9136e-08
-3.84762e-09
2.25492e-08
-0.000193611
3.08137e-08
-0.000263206
-7.00298e-09
-7.03993e-09
0.000213784
1.22541e-08
1.01332e-08
-0.000213792
-8.05424e-05
-1.22976e-08
-1.19843e-08
-8.05661e-05
-1.2209e-08
-1.20695e-08
9.41698e-09
-8.05589e-05
9.37161e-09
-8.05825e-05
-2.70122e-08
-2.50059e-08
-1.42939e-08
1.58127e-08
0.000221868
2.90531e-08
-0.000221886
-0.000183016
-3.11824e-08
-7.38592e-09
2.03523e-08
1.22221e-08
-0.000278174
-0.000250575
3.59949e-08
-5.49343e-08
-9.97637e-08
-0.000183028
3.20043e-08
6.12289e-08
-0.000250632
-5.75365e-08
1.57671e-08
-1.42978e-08
0.000221957
3.12136e-08
-0.000221979
-0.000183098
-3.11289e-08
2.26011e-08
-7.27786e-09
-1.13389e-08
9.69591e-09
-0.00027831
-0.000250749
3.6138e-08
-5.24377e-08
-9.97555e-08
2.9368e-08
6.1182e-08
-0.000250801
-0.00018311
-5.95589e-08
4.96353e-09
-9.80545e-05
2.25689e-08
-0.000193668
-3.9141e-09
2.29968e-09
-0.00121558
-1.00036e-07
-7.52119e-08
-0.00118363
-1.04015e-07
-0.0012147
-1.17957e-07
6.40473e-08
-0.000245527
3.99723e-09
-0.000260376
-2.74252e-08
-0.000260506
7.98778e-09
-1.5306e-07
1.53525e-09
0.000265679
-1.05577e-08
-0.000266455
4.96523e-10
1.32121e-07
3.02721e-10
-0.000250234
-0.000249561
-2.1179e-07
1.03609e-08
-0.000265854
7.06383e-09
-6.61146e-09
7.97634e-10
-0.000249682
3.87035e-09
-0.000266481
2.70775e-08
-1.39148e-07
0.000264002
-0.000264718
-0.000250756
-1.86133e-07
-0.000250855
-2.23829e-09
-1.50431e-07
0.000265609
2.20617e-09
-0.000266398
1.32126e-07
1.38562e-09
-0.000250208
-0.000265836
5.56144e-09
-0.000249476
-2.11742e-07
1.03728e-08
-0.000266459
7.61139e-10
-0.000249595
1.42476e-08
-1.36665e-07
0.000263902
-8.10238e-09
-0.000264613
-0.000250651
-1.88634e-07
4.06824e-09
6.16535e-08
-0.000245419
-2.74065e-08
-0.000260269
-0.000250753
-0.000260398
7.48932e-08
7.75408e-08
0.00024288
-0.000242972
-2.03206e-07
-1.98229e-07
-0.000270099
-0.000261131
1.12504e-07
-0.000260784
1.09949e-07
-0.000261087
-0.000261433
1.19254e-07
1.19604e-07
-7.10062e-08
-7.10438e-08
0.00118445
-0.00118455
-1.1969e-06
-1.19614e-07
-5.4252e-08
0.00113224
-2.37062e-07
1.24122e-06
2.74909e-07
9.11274e-07
-2.1544e-07
2.69182e-07
-8.53089e-07
-0.00113226
-1.1942e-06
-1.1966e-07
-4.86844e-08
0.0011321
-2.34306e-07
1.23851e-06
2.74934e-07
9.11262e-07
-2.15453e-07
2.6922e-07
-8.53057e-07
-0.00113213
1.22548e-06
1.18892e-06
-1.98242e-07
-2.0093e-07
0.000268045
-0.00027006
1.21989e-07
1.28023e-07
-0.00118417
-7.4272e-08
-7.43798e-08
-0.00113216
-1.19648e-06
-1.22392e-07
-3.87307e-08
-2.36819e-07
1.24107e-06
2.74753e-07
9.11189e-07
-2.15211e-07
-8.52638e-07
2.69082e-07
-0.00113203
-1.19375e-06
-1.22326e-07
-6.65065e-08
-2.36815e-07
1.23836e-06
2.74813e-07
9.11273e-07
-2.15168e-07
-8.52685e-07
2.6912e-07
-0.000270066
1.22771e-06
1.18316e-06
-1.92878e-07
-2.03323e-07
0.000268051
1.23636e-06
1.19442e-06
-1.95724e-07
-2.03523e-07
0.000268099
-0.00027013
-1.28049e-06
-1.23861e-06
0.000270136
-0.000268103
2.39212e-07
2.47059e-07
-4.84752e-08
0.00113168
-2.39822e-07
1.28059e-06
2.77503e-07
9.13969e-07
-2.12744e-07
2.66381e-07
-8.55884e-07
-0.00113171
-1.2338e-06
-1.19219e-07
-4.8471e-08
0.00113175
-2.42692e-07
1.27802e-06
2.80345e-07
9.19125e-07
-2.15473e-07
2.69076e-07
-8.61003e-07
-0.00113178
0.00113161
-1.2132e-07
-0.00113164
-4.93204e-08
-1.23604e-06
2.77416e-07
-2.39615e-07
-8.55564e-07
2.66342e-07
-2.12528e-07
9.13982e-07
1.27521e-06
0.00113168
-1.21432e-07
-0.0011317
-4.94008e-08
-1.23345e-06
2.77515e-07
-2.42478e-07
-8.60652e-07
2.69051e-07
-2.15229e-07
9.16479e-07
-1.98406e-07
-2.00847e-07
0.000268084
-0.000270116
-1.24112e-06
0.000270118
-0.000268088
2.41954e-07
2.4432e-07
-4.85673e-08
0.00113269
-2.37202e-07
1.2387e-06
2.75038e-07
9.16636e-07
-2.15496e-07
2.69269e-07
-8.58399e-07
-0.00113271
-1.22837e-06
-1.19293e-07
-4.85145e-08
0.00113162
-2.42669e-07
1.27259e-06
2.80352e-07
9.16541e-07
-2.1278e-07
2.66428e-07
-8.58436e-07
-0.00113165
0.00113261
-1.21667e-07
-0.00113264
-4.9411e-08
-1.1941e-06
2.74945e-07
-2.37006e-07
-8.58072e-07
2.69226e-07
-2.15281e-07
9.16636e-07
1.27252e-06
0.00113155
-1.27036e-07
-0.00113157
-4.93563e-08
-1.22807e-06
2.80259e-07
-2.42475e-07
-8.5811e-07
2.66376e-07
-2.12552e-07
9.16541e-07
-1.19443e-07
-4.85633e-08
0.00113125
-2.3977e-07
1.26971e-06
2.77513e-07
9.08461e-07
-2.09958e-07
2.63687e-07
-8.5033e-07
-0.00113128
-1.21786e-07
-0.00113219
-4.39445e-08
-1.19657e-06
2.7482e-07
-2.36859e-07
-8.52734e-07
2.69122e-07
9.11319e-07
-2.15196e-07
1.26961e-06
0.00113118
-1.21317e-07
-0.0011312
-4.93827e-08
-1.22518e-06
2.77429e-07
-2.39605e-07
-8.50045e-07
2.66302e-07
-2.09789e-07
9.0843e-07
-1.98449e-07
-2.03445e-07
0.000268068
-0.000270089
-1.23838e-06
0.000270097
-0.000268075
2.41999e-07
2.46903e-07
-1.19652e-07
-4.8562e-08
0.00113224
-2.37168e-07
1.23318e-06
2.74972e-07
9.13728e-07
-2.15437e-07
2.69224e-07
-8.55444e-07
-0.00113227
-1.21669e-07
-0.00113205
-5.50363e-08
-1.19118e-06
2.74842e-07
-2.36877e-07
-8.52766e-07
2.69148e-07
9.11311e-07
-2.15236e-07
1.23305e-06
0.00113215
-1.21808e-07
-0.00113219
-3.26058e-08
-1.1886e-06
2.74844e-07
-2.36969e-07
-8.552e-07
2.69125e-07
-2.15222e-07
9.13813e-07
-0.000268049
2.41728e-07
2.44452e-07
1.23596e-06
1.19401e-06
-1.95532e-07
-2.03346e-07
0.000268105
-5.51743e-08
-2.39607e-07
1.28046e-06
2.77394e-07
9.13931e-07
-2.15168e-07
-8.55465e-07
2.69011e-07
-1.23067e-06
-1.21829e-07
-4.40292e-08
-2.39687e-07
1.27519e-06
2.77476e-07
9.16437e-07
-2.15193e-07
-8.57952e-07
2.68984e-07
-1.98211e-07
-2.00664e-07
0.00026809
-4.9702e-08
-2.36955e-07
1.23859e-06
2.7492e-07
9.16631e-07
-2.15215e-07
-8.57983e-07
2.69194e-07
-1.22799e-06
-1.27697e-07
-4.96369e-08
-2.42419e-07
1.27249e-06
2.80253e-07
9.16533e-07
-2.12488e-07
-8.58009e-07
2.69061e-07
-1.44947e-07
-4.39531e-08
0.00113117
-2.42275e-07
1.26956e-06
2.80212e-07
9.11191e-07
-2.12396e-07
2.69012e-07
-8.49908e-07
-1.98257e-07
-2.03237e-07
0.000268077
-1.2227e-07
-1.56226e-08
0.00113208
-2.31444e-07
1.23842e-06
2.74869e-07
9.13849e-07
-2.15133e-07
2.69095e-07
-8.55147e-07
-1.05951e-10
-7.02627e-08
0.000229341
3.00568e-08
1.94128e-09
-0.000229303
-5.11396e-09
2.25476e-08
0.000193573
-3.74962e-09
-0.000193587
6.76525e-09
-4.3762e-08
0.000193627
3.45492e-09
-0.000193593
6.88389e-11
2.88359e-08
0.000229283
-1.11527e-08
1.16222e-09
-0.000229302
5.14857e-09
1.3457e-08
9.79677e-05
-9.79863e-05
-6.77238e-09
-2.23159e-08
9.80073e-05
-9.79782e-05
-7.02766e-08
-1.61305e-10
0.000229329
1.92452e-09
3.00645e-08
-0.00022929
-5.12834e-09
2.25374e-08
0.000193556
-3.73003e-09
-0.00019357
6.81212e-09
-4.3773e-08
0.000193609
3.42155e-09
-0.000193576
2.88347e-08
1.45372e-10
0.000229271
1.17045e-09
-1.11498e-08
-0.00022929
-7.10745e-08
-7.09912e-08
0.00118423
-0.00118433
-7.11414e-08
-7.11055e-08
0.00118399
-0.00118409
-7.11704e-08
-7.11983e-08
0.00118396
-0.00118406
-0.00118427
-7.93044e-08
-6.77015e-08
0.00118393
-0.00118404
-7.36369e-08
-6.779e-08
0.00118371
-0.0011838
-7.36635e-08
-7.938e-08
0.00118366
-0.00118377
-7.36831e-08
-6.21041e-08
7.01448e-08
-1.55599e-09
0.00025019
3.79213e-09
-1.93082e-07
-0.000250069
-1.2239e-08
-2.25034e-08
6.65101e-08
0.000245406
6.56436e-09
-0.000245445
0.00115237
3.71267e-09
-1.40149e-07
1.00564e-06
-7.52202e-07
8.27968e-07
-9.31442e-07
-0.00115243
-4.33161e-08
1.2412e-06
0.00113221
-1.20388e-07
-8.52922e-07
2.6917e-07
-2.15348e-07
9.11322e-07
-1.19677e-06
2.74893e-07
-2.36977e-07
2.32385e-08
4.37245e-08
0.000245483
-1.91771e-08
-0.000245425
-1.05104e-07
-3.30052e-09
0.00115233
-1.41727e-07
-9.33883e-07
8.2533e-07
-7.5469e-07
1.00306e-06
-2.871e-08
1.53277e-09
0.000250056
2.18474e-09
1.32602e-07
-0.000250163
5.16394e-09
1.11172e-08
9.79631e-05
-9.79794e-05
-6.79245e-09
-1.99738e-08
9.80004e-05
-9.79736e-05
-8.85689e-10
7.01426e-08
0.00025018
-1.93081e-07
3.88418e-09
-0.00025006
0.00115219
3.08034e-09
-1.40187e-07
1.0057e-06
-7.54968e-07
8.27974e-07
-9.34185e-07
-0.00115225
-1.22018e-08
-2.25219e-08
6.41358e-08
0.000245398
4.13203e-09
-0.000245432
-4.89089e-08
1.23577e-06
0.00113207
-1.2037e-07
-8.5297e-07
2.69188e-07
-2.15373e-07
9.11311e-07
-1.19137e-06
2.74905e-07
-2.36996e-07
-4.88856e-09
0.00115215
-1.41672e-07
-9.33947e-07
8.28057e-07
-7.54731e-07
1.00578e-06
2.31793e-08
4.37493e-08
0.00024547
-1.67434e-08
-0.000245417
-1.0272e-07
7.44438e-10
-2.87411e-08
0.000250046
1.32641e-07
2.3363e-09
-0.000250153
1.22914e-08
-1.11643e-08
2.4854e-08
0.000278111
-7.0388e-09
-0.00027813
1.23022e-08
-1.1141e-08
2.25406e-08
0.000278036
-7.53537e-09
-0.000278053
-1.26969e-06
-1.23316e-06
0.000270063
-0.000268046
2.41853e-07
2.44592e-07
-2.31463e-08
2.00131e-08
0.000278181
9.92559e-09
-0.000278137
-5.10303e-08
-2.32058e-08
1.99716e-08
0.000278103
1.05038e-08
-0.000278062
-4.87231e-08
-0.000193666
-5.00063e-09
2.25861e-08
-3.8791e-09
0.000193653
-0.00022938
5.5861e-11
2.86858e-08
0.000229361
-1.11289e-08
1.18602e-09
-9.80281e-05
5.03303e-09
1.35749e-08
9.80095e-05
-0.000193649
-5.00415e-09
2.25667e-08
-3.87141e-09
0.000193635
-0.000229368
2.86803e-08
1.49374e-10
0.000229349
9.72076e-10
-1.11275e-08
-6.27937e-08
-5.11265e-08
-7.44897e-08
-9.75986e-08
-3.92928e-08
-4.52865e-08
0.00118348
7.00681e-08
-8.67052e-10
-0.000250125
3.06532e-09
-1.93129e-07
-0.000245518
-1.21261e-08
-2.25338e-08
6.64468e-08
4.01011e-09
0.000245483
0.00115217
-0.00115222
1.37111e-08
-1.51745e-07
1.00593e-06
-7.54016e-07
-9.3329e-07
8.28269e-07
-0.000250217
-2.85472e-08
1.71883e-09
0.000250109
1.97948e-09
1.32122e-07
2.56745e-08
-1.70394e-07
-9.3309e-07
8.31111e-07
-7.53805e-07
1.00877e-06
-9.80212e-05
5.05491e-09
1.12299e-08
9.8005e-05
-1.71193e-09
7.00641e-08
-0.000250114
-1.93094e-07
4.13585e-09
0.00115201
-0.00115205
-2.26406e-08
-1.45991e-07
1.00591e-06
-7.54069e-07
-9.33352e-07
8.28252e-07
-0.000245508
-1.21078e-08
-2.25458e-08
6.40379e-08
4.02431e-09
0.000245475
-0.000250206
2.67257e-10
-2.85823e-08
0.0002501
1.32167e-07
2.36675e-09
-5.80172e-08
-1.531e-07
-9.33158e-07
8.28301e-07
-7.51161e-07
1.00596e-06
-0.000278231
1.22271e-08
-1.12903e-08
2.26276e-08
-6.91995e-09
0.000278215
-0.000278154
1.21891e-08
-1.12662e-08
2.25946e-08
-7.38371e-09
0.000278138
-1.26471e-06
-1.30802e-06
-0.000268072
2.54522e-07
2.4186e-07
-2.31722e-08
1.98006e-08
1.05179e-08
-0.000278243
-4.8476e-08
-2.32383e-08
1.97607e-08
1.06205e-08
-0.000278163
-4.85159e-08
1.12276e-08
9.79903e-05
-9.80067e-05
-2.00592e-08
9.80277e-05
-9.80009e-05
1.11946e-08
9.79793e-05
-9.79956e-05
-1.9995e-08
9.80166e-05
-9.79898e-05
1.22359e-08
2.48665e-08
0.000278161
-9.59131e-09
-0.000278177
9.86662e-09
2.48197e-08
0.000278093
-6.93243e-09
-0.000278109
0.000270133
-1.28056e-06
-1.23867e-06
-0.0002681
2.39334e-07
2.4719e-07
0.000278228
-2.3103e-08
1.24636e-08
-0.000278186
-5.10156e-08
0.00027816
-2.08402e-08
9.98429e-09
-0.000278118
-5.10041e-08
-1.99511e-08
-6.81167e-09
9.80486e-05
-9.80218e-05
1.12833e-08
5.05572e-09
9.80113e-05
-1.9889e-08
-6.85725e-09
9.80375e-05
-9.80107e-05
1.12546e-08
5.06506e-09
9.80003e-05
1.23613e-06
1.19418e-06
0.000268102
-1.95601e-07
-2.03414e-07
-2.3114e-08
0.000278279
-5.09056e-08
-0.000278237
1.25105e-08
-2.08615e-08
0.000278211
-5.08921e-08
-0.000278169
1.00374e-08
1.21811e-08
-9.52386e-09
2.48878e-08
0.000278212
9.80858e-09
-6.86088e-09
2.48445e-08
0.000278144
-7.02675e-08
0.000229301
3.00569e-08
2.12418e-09
-0.000229263
2.47226e-08
0.00019351
-3.83007e-09
-0.000193525
-4.5955e-08
0.000193565
3.58271e-09
-0.00019353
2.88374e-08
0.000229243
-1.11511e-08
9.18717e-10
-0.000229262
-8.87707e-10
0.000250204
3.08625e-09
-1.93156e-07
-0.000250083
6.65334e-08
0.000245408
4.1465e-09
-0.000245444
0.00115265
3.52365e-09
-1.39947e-07
1.00858e-06
-7.57782e-07
8.30772e-07
-9.37084e-07
-0.00115271
-4.8777e-08
0.00113166
-1.19976e-07
-1.23623e-06
2.77473e-07
-2.3974e-07
-8.55756e-07
2.66366e-07
-2.1266e-07
9.13977e-07
0.000245482
-1.66772e-08
-0.000245427
-1.05069e-07
-3.98146e-09
0.00115261
-1.41478e-07
-9.36841e-07
8.30866e-07
-7.57533e-07
1.00867e-06
8.38909e-10
0.00025007
2.8663e-09
1.32697e-07
-0.000250178
0.000250176
4.73058e-09
-1.93166e-07
-0.000250059
-1.22189e-08
6.65328e-08
0.000245306
4.07442e-09
-0.000245339
0.0011526
-1.3993e-07
1.01379e-06
-7.57753e-07
8.30748e-07
-9.42269e-07
-0.00115264
-4.88468e-08
0.00113172
1.27799e-06
-1.2007e-07
-8.60857e-07
2.69075e-07
9.19144e-07
-2.15366e-07
-1.23367e-06
2.80326e-07
-2.42597e-07
0.000245377
2.30521e-08
-1.65811e-08
-0.000245325
-1.05062e-07
0.00115254
-1.41494e-07
-9.42032e-07
8.3084e-07
-7.57501e-07
1.01387e-06
0.000250046
1.16784e-09
1.32701e-07
-0.00025015
6.60386e-11
2.87449e-08
-1.1133e-08
1.17338e-09
0.000229322
-4.36889e-08
-0.000193633
3.38924e-09
2.25596e-08
-3.81762e-09
0.000193613
-1.15894e-10
-7.024e-08
-0.000229342
3.00234e-08
1.95001e-09
2.87469e-08
-1.11322e-08
9.31826e-10
0.000229282
-4.589e-08
6.82632e-09
0.000193605
-0.000193569
3.51327e-09
2.47351e-08
-5.08862e-09
-3.89999e-09
0.000193549
-7.0246e-08
0.00022934
-0.000229302
3.00232e-08
2.13353e-09
8.28963e-10
2.88341e-09
1.3244e-07
0.000250097
-5.4662e-08
-1.20718e-07
1.28053e-06
-2.39675e-07
2.77439e-07
9.13985e-07
-2.12581e-07
2.66354e-07
-8.55654e-07
0.00024552
-1.04982e-07
-0.000245465
-1.66917e-08
-0.00115255
-4.93215e-09
0.0011525
-1.44402e-07
-9.36424e-07
8.31025e-07
-7.57062e-07
1.0088e-06
4.09013e-09
6.64755e-08
0.000245446
3.04413e-09
-1.43012e-07
1.00873e-06
-7.57296e-07
-9.36644e-07
8.30936e-07
-9.25232e-10
0.00025023
-0.00025011
3.33841e-09
-1.93184e-07
1.1838e-09
1.32446e-07
0.000250072
-4.90647e-08
-1.23357e-06
-1.20656e-07
9.19129e-07
-2.15316e-07
-8.60776e-07
2.69042e-07
1.27796e-06
-2.42559e-07
2.80291e-07
2.30685e-08
0.000245416
-1.04979e-07
-0.000245363
-1.65974e-08
-0.00115249
0.00115244
-1.44409e-07
-9.41609e-07
8.30998e-07
-7.57031e-07
1.01127e-06
-1.21631e-08
4.01541e-09
6.64753e-08
0.000245344
-1.43e-07
1.01393e-06
-7.57267e-07
-9.41821e-07
8.30912e-07
0.000250203
-0.000250085
4.49715e-09
-1.93198e-07
2.25099e-08
0.000278036
-7.63002e-09
-0.000278049
-1.12004e-08
2.48713e-08
0.000278176
-6.94483e-09
-0.000278195
0.000270118
-0.000268085
2.42111e-07
2.44456e-07
0.0002781
1.04694e-08
-0.000278061
-4.86805e-08
1.99641e-08
0.000278245
1.00295e-08
-0.000278201
-5.104e-08
5.15272e-09
9.7986e-05
-9.80023e-05
9.80233e-05
-6.86706e-09
-9.79965e-05
-2.22015e-08
-9.79991e-05
1.35139e-08
9.79886e-05
1.19667e-06
0.000268087
-1.98302e-07
-2.00741e-07
0.00027815
-4.85668e-08
-0.000278112
1.05248e-08
1.98514e-08
-2.32488e-08
0.000278296
-5.09171e-08
-0.000278252
1.00859e-08
-7.55804e-09
2.2529e-08
0.000278086
-1.12519e-08
1.2177e-08
-6.87209e-09
2.48901e-08
0.000278226
-6.91043e-09
9.80442e-05
-9.80174e-05
5.08801e-09
9.8007e-05
-1.67904e-09
0.000250197
3.78716e-09
-1.95768e-07
-0.000250074
6.4156e-08
0.000245371
6.61441e-09
-0.00024541
0.00115249
3.70227e-09
-1.40066e-07
1.01113e-06
-7.57728e-07
8.30755e-07
-9.39608e-07
-0.00115254
-4.88491e-08
0.00113266
-1.20328e-07
-1.1943e-06
2.75006e-07
-2.37126e-07
-8.58278e-07
2.69252e-07
-2.15414e-07
9.16646e-07
0.000245448
-1.9199e-08
-0.00024539
-1.02765e-07
-3.58339e-09
0.00115244
-1.41567e-07
-9.39371e-07
8.30842e-07
-7.57484e-07
1.01122e-06
1.66447e-09
0.00025006
2.15754e-09
1.35277e-07
-0.000250171
-7.02582e-08
0.000229289
3.00524e-08
2.17416e-09
-0.000229251
2.25069e-08
0.000193498
-3.70366e-09
-0.000193512
-4.37199e-08
0.000193552
3.43445e-09
-0.000193518
2.88323e-08
0.000229232
-1.11456e-08
8.86971e-10
-0.00022925
0.000250167
-1.9576e-07
4.31143e-09
-0.000250047
0.00115243
-1.40033e-07
1.01115e-06
-7.57764e-07
8.30763e-07
-9.3962e-07
-0.00115248
-1.2338e-08
6.17485e-08
0.000245293
4.1883e-09
-0.000245324
-4.88127e-08
0.0011316
1.27257e-06
-1.19984e-07
-8.58312e-07
2.66414e-07
9.16546e-07
-2.12699e-07
-1.22827e-06
2.80324e-07
-2.42595e-07
0.00115237
-1.41506e-07
-9.3939e-07
8.30847e-07
-7.5752e-07
1.01123e-06
0.000245362
2.31771e-08
-1.67126e-08
-0.000245312
-1.00258e-07
0.000250034
1.35292e-07
1.60499e-09
-0.000250141
2.87458e-08
1.47602e-10
1.18204e-09
-1.11356e-08
0.00022931
-4.36936e-08
-0.000193616
3.35396e-09
2.25465e-08
-3.80025e-09
0.000193596
-7.02507e-08
-1.62591e-10
-0.00022933
2.15751e-09
3.00244e-08
1.6688e-09
2.17545e-09
1.32429e-07
0.000250089
-4.9175e-08
-1.21051e-07
1.23864e-06
-2.37062e-07
2.74982e-07
9.16648e-07
-2.15331e-07
2.69234e-07
-8.58179e-07
0.000245486
-1.02681e-07
-0.000245428
-1.92137e-08
-0.00115238
-3.41879e-09
0.00115234
-1.50322e-07
-9.38932e-07
8.30996e-07
-7.57021e-07
1.01134e-06
6.55775e-09
6.40944e-08
0.000245409
3.79381e-09
-1.43124e-07
1.01128e-06
-7.57249e-07
-9.39163e-07
8.30922e-07
-1.67442e-09
0.000250224
-0.000250103
4.0415e-09
-1.93196e-07
2.87425e-08
-1.1131e-08
8.98626e-10
0.000229271
-4.36484e-08
6.84183e-09
0.000193591
-0.000193558
3.36324e-09
2.25194e-08
-5.11045e-09
-3.76468e-09
0.000193538
-7.02353e-08
0.000229328
-0.00022929
3.0014e-08
2.1801e-09
1.32445e-07
1.62091e-09
0.000250063
-4.91086e-08
-1.22816e-06
-1.20727e-07
9.16553e-07
-2.12613e-07
-8.58204e-07
2.664e-07
1.27254e-06
-2.42529e-07
2.80297e-07
-0.00115233
0.00115228
-1.50241e-07
-9.38975e-07
8.31002e-07
-7.57056e-07
1.01136e-06
2.31931e-08
0.0002454
-1.00176e-07
-0.00024535
-1.67274e-08
-1.43086e-07
1.0113e-06
-7.57284e-07
-9.39178e-07
8.30929e-07
-1.22898e-08
4.13498e-09
6.16902e-08
0.000245331
0.000250194
-0.000250077
-1.93188e-07
4.31596e-09
-7.20735e-11
0.000229324
2.09149e-09
3.21153e-08
-0.000229288
0.00019356
-3.6348e-09
-0.000193574
0.000193613
3.28501e-09
-0.00019358
2.22136e-11
0.000229269
1.03854e-09
-1.32057e-08
-0.000229285
7.0209e-08
0.000250157
-1.90511e-07
4.52456e-09
-0.000250043
0.00115229
-1.40175e-07
1.00565e-06
-7.54965e-07
8.27991e-07
-9.3411e-07
-0.00115234
-2.24845e-08
6.64509e-08
0.000245328
4.19249e-09
-0.000245364
-4.88319e-08
0.00113122
-1.1431e-07
-1.22537e-06
2.77476e-07
-2.39723e-07
-8.50236e-07
2.63651e-07
-2.0991e-07
9.08456e-07
0.00115222
-1.35789e-07
-9.33876e-07
8.28076e-07
-7.54719e-07
1.00573e-06
4.37326e-08
0.000245402
-1.66938e-08
-0.000245347
-1.05032e-07
-2.87814e-08
0.00025003
1.30044e-07
1.37997e-09
-0.000250131
0.000229287
3.00349e-08
2.17658e-09
-0.000229249
-5.15069e-09
0.000193503
-3.67343e-09
-0.000193517
0.000193557
6.77616e-09
3.45186e-09
-0.000193523
0.000229229
-1.11335e-08
8.43805e-10
-0.000229248
-2.86226e-08
1.55843e-09
2.20016e-09
1.32348e-07
0.000250082
-5.48775e-08
-1.21069e-07
1.24117e-06
-2.36919e-07
2.74852e-07
9.11284e-07
-2.15277e-07
-8.52877e-07
2.69146e-07
4.36412e-08
-1.05019e-07
-0.000245464
-1.67589e-08
-0.00115226
-4.82968e-10
-1.44657e-07
-9.33451e-07
8.28219e-07
1.0059e-06
-7.54217e-07
-2.25051e-08
6.50789e-09
6.6446e-08
0.000245444
4.50692e-09
-1.43217e-07
1.00578e-06
-7.5172e-07
-9.31005e-07
8.28128e-07
7.01177e-08
-1.43772e-09
-0.000250096
3.55652e-09
-1.93109e-07
2.99527e-11
1.05163e-09
-1.31872e-08
0.000229307
0.000193653
-0.000193619
3.22217e-09
-3.70325e-09
0.0001936
-3.33455e-11
0.000229363
-0.000229327
1.87729e-09
3.20722e-08
-2.86985e-08
1.29788e-07
1.39229e-09
0.000250056
-4.91537e-08
-1.22524e-06
-1.26612e-07
9.08483e-07
-2.0978e-07
-8.50099e-07
2.63662e-07
1.26965e-06
-2.39626e-07
2.77444e-07
-0.00115218
0.00115213
-1.44518e-07
-9.33441e-07
8.28221e-07
-7.54252e-07
1.00584e-06
4.36657e-08
2.31921e-08
0.00024544
-1.02557e-07
-0.000245387
-1.66955e-08
-1.49065e-07
1.0058e-06
-7.54475e-07
-9.33663e-07
8.28153e-07
-2.24953e-08
-1.22317e-08
4.13591e-09
6.63836e-08
0.000245366
7.01852e-08
0.000250187
-0.000250069
-1.9313e-07
4.29668e-09
-1.11164e-08
8.56399e-10
0.000229268
6.82058e-09
0.000193596
-0.000193563
3.38688e-09
-5.08988e-09
-3.74736e-09
0.000193543
0.000229326
-0.000229288
2.99895e-08
2.18481e-09
2.02663e-08
0.000278034
-7.55358e-09
-0.000278048
-1.11964e-08
2.25785e-08
0.00027817
-1.00511e-08
-0.000278184
0.000270092
-0.000268072
2.42131e-07
2.4703e-07
0.000278098
1.03834e-08
-0.000278059
-4.64263e-08
1.99834e-08
0.000278234
1.30748e-08
-0.000278196
-4.87378e-08
5.11492e-09
9.79859e-05
-9.80022e-05
9.80232e-05
-6.80632e-09
-9.79964e-05
-1.98637e-08
-9.79945e-05
1.1173e-08
9.79841e-05
1.19126e-06
0.000268074
-1.98336e-07
-2.03319e-07
0.000278149
-4.63142e-08
-0.00027811
1.04319e-08
1.98726e-08
-2.31985e-08
0.000278285
-4.86279e-08
-0.000278246
1.31462e-08
-7.48654e-09
2.02911e-08
0.000278084
-1.12497e-08
1.21504e-08
-9.98643e-09
2.2606e-08
0.000278221
-6.84952e-09
9.80441e-05
-9.80173e-05
5.04959e-09
9.80069e-05
7.00831e-08
0.000250152
-1.93066e-07
4.97682e-09
-0.000250035
0.00115212
-1.40185e-07
1.00813e-06
-7.54917e-07
8.27933e-07
-9.36607e-07
-0.00115217
-2.24883e-08
6.41029e-08
0.000245295
4.22687e-09
-0.000245329
-4.88667e-08
0.00113222
-1.20445e-07
-1.1888e-06
2.74947e-07
-2.37085e-07
-8.55332e-07
2.69184e-07
-2.15365e-07
9.13796e-07
0.00115207
-1.4169e-07
-9.36378e-07
8.28024e-07
-7.54669e-07
1.00822e-06
4.37559e-08
0.000245367
-1.67476e-08
-0.000245314
-1.02727e-07
-2.8677e-08
0.000250022
1.32613e-07
8.95071e-10
-0.000250126
-2.06346e-10
0.000229316
2.29479e-09
3.21083e-08
-0.00022928
0.000193556
-3.74153e-09
-0.000193569
0.000193609
3.41926e-09
-0.000193575
1.20618e-10
0.000229261
8.27601e-10
-1.3224e-08
-0.000229277
0.000229276
2.16757e-09
3.41928e-08
-0.000229243
-5.18197e-09
0.000193496
-3.62126e-09
-0.000193509
0.000193549
6.82722e-09
3.39615e-09
-0.000193515
0.000229223
8.41015e-10
-1.53037e-08
-0.000229237
6.67826e-10
-2.86529e-08
1.32384e-07
2.11271e-09
0.000250073
-4.92498e-08
-1.21094e-07
1.23574e-06
-2.36926e-07
2.74883e-07
9.11318e-07
-2.1529e-07
-8.52866e-07
2.69177e-07
-0.00115209
-1.33118e-08
-1.44555e-07
-9.33518e-07
8.28203e-07
1.0059e-06
-7.54268e-07
4.3673e-08
-1.02633e-07
-0.000245456
-1.67595e-08
1.67896e-10
-1.43241e-07
1.00585e-06
-7.54485e-07
-9.33741e-07
8.28133e-07
-2.2524e-08
4.07965e-09
6.40716e-08
0.000245436
-1.23666e-09
7.01158e-08
-0.000250086
-1.93099e-07
4.12974e-09
-2.85887e-08
1.32359e-07
6.74193e-10
0.000250049
-4.92314e-08
-1.18869e-06
-1.21112e-07
9.13795e-07
-2.15257e-07
-8.55275e-07
2.69168e-07
1.23311e-06
-2.37025e-07
2.74914e-07
-0.00115201
0.00115197
-1.44558e-07
-9.35932e-07
8.28187e-07
-7.54196e-07
1.00837e-06
4.3678e-08
2.32232e-08
0.000245405
-1.02633e-07
-0.000245352
-1.67696e-08
-1.43211e-07
1.00827e-06
-7.54436e-07
-9.36166e-07
8.28098e-07
-2.25012e-08
-1.22431e-08
4.17181e-09
6.40405e-08
0.000245333
7.00526e-08
0.000250179
-0.000250062
-1.9309e-07
4.74338e-09
9.48097e-11
8.37721e-10
-1.32058e-08
0.0002293
0.000193649
-0.000193615
3.35855e-09
-3.81211e-09
0.000193595
-3.09547e-10
0.000229355
-0.000229319
2.30206e-09
3.20672e-08
6.33078e-10
-1.52857e-08
0.000229262
6.87705e-09
0.000193589
-0.000193555
3.32105e-09
-5.1188e-09
-3.6932e-09
0.000193535
0.000229315
-0.000229282
2.1759e-09
3.41495e-08
9.79657e-05
-9.79821e-05
9.8003e-05
-9.79762e-05
9.79619e-05
-9.79782e-05
9.79992e-05
-9.79724e-05
0.000268048
-1.9813e-07
-2.00819e-07
1.9914e-08
-4.86289e-08
-0.00027819
9.98213e-09
1.98578e-08
-4.86059e-08
-0.000278112
1.05645e-08
-1.12164e-08
-6.97452e-09
2.48769e-08
0.000278162
-1.12005e-08
-7.46273e-09
2.2565e-08
0.000278087
9.80239e-05
-9.79972e-05
9.79867e-05
9.80201e-05
-9.79933e-05
9.79829e-05
1.13443e-08
9.80322e-05
1.13195e-08
9.80211e-05
1.21283e-08
2.49369e-08
-9.45747e-09
0.000278262
9.75634e-09
2.48923e-08
-6.79368e-09
0.000278194
2.47583e-08
-3.96044e-09
0.000193589
2.86876e-08
0.000229321
-1.11254e-08
9.48078e-10
6.64585e-08
4.0401e-09
0.000245484
1.39397e-09
-1.45827e-07
1.00879e-06
-7.56886e-07
-9.3624e-07
8.31085e-07
7.99555e-10
0.000250123
2.65215e-09
1.32234e-07
-1.21122e-08
6.64427e-08
3.97215e-09
0.000245382
-1.45774e-07
1.01132e-06
-7.5686e-07
-9.38709e-07
8.31065e-07
0.000250099
1.44018e-09
1.32244e-07
2.25735e-08
-7.49149e-09
0.000278137
-1.13129e-08
2.49324e-08
-6.8125e-09
0.000278277
5.03487e-09
6.40676e-08
6.49822e-09
0.000245448
4.04974e-09
-1.51734e-07
1.01138e-06
-7.56817e-07
-9.38758e-07
8.3105e-07
1.66925e-09
0.000250117
1.94478e-09
1.32208e-07
2.25392e-08
-3.82352e-09
0.000193578
2.86753e-08
0.00022931
-1.11209e-08
9.09815e-10
-1.51705e-07
1.01142e-06
-7.56853e-07
-9.38776e-07
8.31056e-07
-1.22378e-08
6.16538e-08
4.08663e-09
0.000245369
0.00025009
1.32224e-07
1.62703e-09
1.01425e-10
-0.000229366
3.20182e-08
-3.77213e-09
0.000193639
8.23483e-11
0.000229347
1.06953e-09
-1.31718e-08
7.01249e-08
-0.000250097
-1.95722e-07
4.53794e-09
0.00115211
-1.63374e-07
1.00592e-06
-7.51307e-07
8.28269e-07
-9.3055e-07
-2.2547e-08
6.15727e-08
6.51722e-09
0.000245406
-4.38525e-08
-3.60891e-07
-1.23308e-06
2.74804e-07
-2.44921e-07
-8.4724e-07
2.71653e-07
-2.09665e-07
9.13777e-07
-2.8627e-08
0.000250083
1.3215e-07
1.63951e-09
-1.99122e-07
-9.30374e-07
8.31066e-07
-7.53854e-07
1.00865e-06
4.35864e-08
-1.9128e-08
-0.000245426
-1.04887e-07
-0.000229327
2.99341e-08
2.18273e-09
-5.03203e-09
-3.82296e-09
0.000193582
0.000229308
-1.10985e-08
8.70974e-10
6.86438e-09
3.33096e-09
-0.000193602
2.033e-08
-7.41781e-09
0.000278135
-1.13031e-08
2.26156e-08
-7.30867e-09
0.000278269
4.98999e-09
9.80278e-05
7.00093e-08
-0.000250089
-1.93104e-07
3.78747e-09
0.00115193
-1.51802e-07
1.00845e-06
-7.53999e-07
8.28253e-07
-9.35786e-07
-2.25297e-08
6.4013e-08
4.10685e-09
0.000245372
1.48747e-07
-1.44813e-07
-1.15598e-06
2.8318e-07
-2.28586e-07
-8.52298e-07
2.69125e-07
-2.151e-07
9.13951e-07
-2.85219e-08
0.000250075
1.32137e-07
4.46706e-10
-1.94688e-07
-9.3285e-07
8.28332e-07
-7.51067e-07
1.00863e-06
4.36015e-08
-1.67674e-08
-0.000245391
-1.02554e-07
-3.45642e-10
-0.000229359
2.29945e-09
3.20173e-08
-3.87977e-09
0.000193635
-4.0648e-11
0.000229339
1.07217e-09
-1.31913e-08
-0.000229321
1.96057e-09
3.41047e-08
-5.0538e-09
-3.77485e-09
0.000193575
0.000229301
6.42847e-10
-1.52787e-08
6.9191e-09
3.26197e-09
-0.000193595
9.80076e-05
-9.8018e-05
9.80038e-05
-9.80141e-05
-7.67152e-10
1.24298e-08
0.000143358
-1.14335e-10
-0.000143369
-0.000171053
-3.40658e-10
-1.86347e-11
0.000171084
-0.000223351
2.89531e-08
4.33967e-09
0.000223391
-7.17821e-08
-1.11396e-08
9.43244e-10
-0.000229321
-7.96874e-11
2.87897e-08
-0.000171065
-9.97877e-12
8.50287e-10
-0.000223371
3.3123e-08
1.41693e-09
0.000143385
-2.44683e-08
-7.92528e-05
7.92786e-05
-1.40224e-09
3.48758e-09
0.000193607
6.74113e-09
-4.37947e-08
0.000263192
-1.69511e-08
-8.33883e-10
3.31933e-08
-0.000263211
0.000263237
-4.32848e-09
-6.17901e-08
1.37766e-10
-7.92699e-05
1.69678e-08
7.92616e-05
-0.000263218
2.44275e-08
0.000263263
-6.17495e-08
-3.78452e-09
-5.08263e-09
2.25492e-08
3.31889e-08
7.92874e-05
3.46252e-10
-2.89683e-08
-0.000143342
3.00796e-08
2.1584e-09
4.3827e-11
-7.02744e-08
0.000171035
7.59279e-10
-9.06241e-13
-0.000171047
0.000223331
-1.2445e-08
3.31771e-08
-0.000223351
-9.60548e-12
-7.17859e-08
-0.000143354
9.79968e-05
-6.74677e-09
-2.2364e-08
5.11522e-09
1.34838e-08
1.24466e-08
-7.74837e-10
0.000143356
-1.25613e-10
-0.000143368
-0.000223341
2.89612e-08
4.33898e-09
0.000223382
-7.18068e-08
-0.00017105
-3.50373e-10
-6.5332e-13
0.000171081
9.52587e-10
-1.11398e-08
-0.000229309
-4.73527e-13
2.87913e-08
8.41697e-10
-0.000223362
3.31551e-08
-0.000171062
-2.09366e-11
1.41477e-09
0.000143383
-2.44725e-08
-7.92544e-05
7.92803e-05
-1.40025e-09
3.45688e-09
0.00019359
6.78601e-09
-4.3808e-08
0.000263187
-1.69378e-08
-8.24431e-10
3.31851e-08
-0.000263206
0.000263232
-4.32675e-09
-6.18279e-08
1.49393e-10
-7.92715e-05
1.69564e-08
7.92632e-05
-0.000263213
2.44305e-08
0.000263258
-6.1788e-08
-3.76586e-09
-5.09681e-09
2.25409e-08
3.31849e-08
7.9289e-05
-2.89791e-08
3.57311e-10
-0.000143341
2.14087e-09
3.00879e-08
-1.07155e-11
-7.02959e-08
0.000223321
-1.24598e-08
3.32049e-08
-0.000223342
0.000171032
7.67246e-10
-1.16658e-11
-0.000171044
-7.18139e-08
1.03164e-11
-0.000143352
9.79899e-05
-6.76622e-09
-2.00244e-08
5.13699e-09
1.11451e-08