/*--------------------------------*- C++ -*----------------------------------*\
| =========                 |                                                 |
| \\      /  F ield         | OpenFOAM: The Open Source CFD Toolbox           |
|  \\    /   O peration     | Version:  2312                                  |
|   \\  /    A nd           | Website:  www.openfoam.com                      |
|    \\/     M anipulation  |                                                 |
\*---------------------------------------------------------------------------*/
FoamFile
{
    version     2.0;
    format      ascii;
    arch        "LSB;label=32;scalar=64";
    class       volScalarField;
    location    "550";
    object      epsilon;
}
// * * * * * * * * * * * * * * * * * * * * * * * * * * * * * * * * * * * * * //

dimensions      [0 2 -3 0 0 0 0];

internalField   nonuniform List<scalar> 
43008
(
1.40292e-07
2.1534e-07
1.36481e-07
2.2168e-07
2.2171e-07
3.34122e-07
3.14688e-07
3.28927e-07
2.15362e-07
2.15387e-07
2.1995e-07
2.19978e-07
3.29863e-07
2.15339e-07
2.15411e-07
2.19921e-07
2.19999e-07
2.19894e-07
2.1995e-07
3.14813e-07
3.29236e-07
2.15368e-07
2.19925e-07
2.19952e-07
3.29806e-07
3.347e-07
2.21742e-07
2.21769e-07
3.34158e-07
2.2171e-07
2.2179e-07
2.21738e-07
3.34557e-07
2.21742e-07
3.46866e-06
8.88355e-06
3.42424e-06
8.8899e-06
1.8525e-05
3.46779e-06
8.88467e-06
3.42493e-06
8.89104e-06
1.40288e-07
1.40302e-07
1.40298e-07
1.37358e-07
1.37354e-07
1.37368e-07
1.37364e-07
9.88654e-07
2.16704e-07
2.66264e-06
1.59058e-07
1.8535e-05
1.85256e-05
9.88388e-07
1.59527e-07
2.63179e-06
2.1674e-07
9.61219e-07
1.59071e-07
2.66277e-06
3.19682e-07
5.06089e-06
5.06269e-06
3.58474e-06
8.89694e-06
3.54882e-06
8.90288e-06
1.85009e-05
1.84922e-05
3.58501e-06
8.89825e-06
3.54944e-06
8.90427e-06
1.36478e-07
1.36491e-07
1.36487e-07
1.07283e-06
2.71933e-06
1.58247e-07
2.23614e-07
1.04442e-06
2.74761e-06
1.58105e-07
1.85013e-05
1.84926e-05
1.07344e-06
1.58266e-07
2.71958e-06
2.23643e-07
1.04445e-06
1.58123e-07
2.74525e-06
5.09346e-06
5.09516e-06
3.39608e-07
5.10662e-06
5.11071e-06
1.8532e-05
1.85221e-05
1.85348e-05
1.85253e-05
5.04348e-06
5.04401e-06
3.19531e-07
5.05938e-06
5.06293e-06
1.85053e-05
1.85144e-05
1.85085e-05
1.85175e-05
3.24215e-07
5.08455e-06
5.08797e-06
5.07029e-06
5.07096e-06
3.46809e-06
8.88373e-06
3.42471e-06
8.89013e-06
9.88121e-07
2.63159e-06
1.59512e-07
2.16761e-07
9.61365e-07
2.66291e-06
1.5906e-07
9.88508e-07
2.63231e-06
1.59514e-07
2.16788e-07
9.60922e-07
2.66337e-06
1.59059e-07
3.48915e-06
8.89647e-06
8.8904e-06
3.5299e-06
3.48952e-06
8.89687e-06
8.89067e-06
3.52945e-06
1.0028e-06
2.1829e-07
2.70589e-06
1.58426e-07
2.67666e-06
1.58722e-07
1.02993e-06
1.00239e-06
2.18316e-07
2.7065e-06
1.58424e-07
2.67738e-06
1.58722e-07
1.03031e-06
3.1973e-07
5.06253e-06
5.06122e-06
1.85235e-05
1.85084e-05
1.85173e-05
3.23907e-07
5.08775e-06
5.08631e-06
5.07081e-06
5.06945e-06
1.85064e-05
1.85156e-05
9.88784e-07
2.63216e-06
1.59529e-07
2.16736e-07
9.60966e-07
2.66322e-06
1.59073e-07
3.46827e-06
8.88419e-06
3.42454e-06
8.89053e-06
9.88479e-07
1.59538e-07
2.6322e-06
2.16813e-07
9.6094e-07
1.59081e-07
2.66353e-06
3.48984e-06
8.89778e-06
8.89161e-06
3.52896e-06
1.00227e-06
2.18263e-07
2.70631e-06
1.58436e-07
2.67727e-06
1.58738e-07
1.03057e-06
3.4893e-06
8.89721e-06
8.89109e-06
3.52986e-06
1.00241e-06
2.18339e-07
1.58445e-07
2.70668e-06
1.58746e-07
2.67733e-06
1.03065e-06
3.46762e-06
8.89032e-06
9.88039e-07
2.1676e-07
1.59052e-07
2.66261e-06
3.46752e-06
8.89023e-06
1.00227e-06
2.18231e-07
2.70594e-06
1.58421e-07
2.67696e-06
1.58717e-07
1.03044e-06
3.48997e-06
8.8969e-06
8.89087e-06
3.52876e-06
1.00268e-06
2.18288e-07
1.58418e-07
2.70418e-06
1.58718e-07
2.67722e-06
1.03001e-06
3.48959e-06
8.8969e-06
8.89082e-06
3.52909e-06
5.0438e-06
5.04326e-06
3.19284e-07
5.06268e-06
5.05964e-06
1.85326e-05
1.85232e-05
1.85088e-05
1.85179e-05
3.24286e-07
5.08778e-06
5.08485e-06
5.07071e-06
5.07056e-06
1.85065e-05
1.85156e-05
9.88408e-07
1.59534e-07
2.63227e-06
2.16768e-07
9.60995e-07
1.59074e-07
2.66345e-06
3.46818e-06
8.8841e-06
3.42472e-06
8.89043e-06
3.46808e-06
8.88434e-06
3.4248e-06
8.89073e-06
1.00261e-06
2.18266e-07
1.58436e-07
2.70586e-06
1.58737e-07
2.67697e-06
1.03072e-06
1.00252e-06
2.18292e-07
1.5844e-07
2.70662e-06
1.58741e-07
2.67738e-06
1.03033e-06
3.48955e-06
8.8971e-06
8.89101e-06
3.52977e-06
3.48956e-06
8.89744e-06
8.89128e-06
3.52965e-06
1.85242e-05
1.85259e-05
3.23924e-07
5.08605e-06
5.08786e-06
5.06912e-06
5.0709e-06
1.85075e-05
1.85165e-05
1.85092e-05
1.85182e-05
1.84979e-05
1.84893e-05
1.8501e-05
1.84923e-05
5.09462e-06
5.09544e-06
3.39958e-07
5.10687e-06
5.10848e-06
3.5857e-06
8.89737e-06
3.54906e-06
8.9033e-06
1.0722e-06
2.71979e-06
1.58254e-07
2.23673e-07
1.04496e-06
2.7455e-06
1.58112e-07
1.07237e-06
2.7204e-06
1.58253e-07
2.23703e-07
1.04462e-06
2.74602e-06
1.5811e-07
5.09519e-06
5.09382e-06
3.39341e-07
5.10821e-06
5.10905e-06
1.84988e-05
1.849e-05
1.0729e-06
2.72037e-06
1.58266e-07
2.23635e-07
1.04444e-06
2.74604e-06
1.58119e-07
3.58614e-06
8.89772e-06
3.54872e-06
8.90368e-06
1.07302e-06
1.58275e-07
2.72008e-06
2.23719e-07
1.0444e-06
1.58128e-07
2.7482e-06
3.58481e-06
8.8974e-06
3.54962e-06
8.90336e-06
1.07238e-06
1.58247e-07
2.72068e-06
2.23665e-07
1.04483e-06
1.58102e-07
2.74573e-06
3.58508e-06
8.89744e-06
3.54925e-06
8.90339e-06
5.09515e-06
5.09493e-06
3.39884e-07
5.11059e-06
5.10917e-06
1.84991e-05
1.84904e-05
1.07316e-06
1.58271e-07
2.72009e-06
2.23669e-07
1.04466e-06
1.58124e-07
2.74811e-06
3.58461e-06
8.89765e-06
3.54908e-06
8.90357e-06
3.58477e-06
8.89794e-06
3.54909e-06
8.90391e-06
1.85e-05
1.84913e-05
1.85017e-05
1.8493e-05
1.21037e-05
3.45729e-06
1.06415e-05
4.3394e-06
1.06397e-05
4.33154e-06
1.21067e-05
2.25125e-05
7.18508e-06
8.88653e-06
2.25106e-05
7.18705e-06
1.21035e-05
3.43578e-06
1.06381e-05
4.30663e-06
1.21008e-05
1.06396e-05
4.31479e-06
2.25012e-05
7.1927e-06
8.88701e-06
7.19167e-06
2.2503e-05
1.85336e-05
1.85258e-05
1.21038e-05
3.45803e-06
4.33927e-06
1.06417e-05
4.33128e-06
1.06399e-05
1.21067e-05
2.25121e-05
7.18577e-06
8.88763e-06
2.25102e-05
7.18614e-06
1.21036e-05
3.43505e-06
4.30615e-06
1.06384e-05
1.21009e-05
4.31472e-06
1.06398e-05
2.25009e-05
7.19133e-06
8.88814e-06
7.1915e-06
2.25027e-05
1.85342e-05
1.85264e-05
9.71714e-06
2.19931e-05
2.19925e-05
2.19927e-05
2.19921e-05
9.71686e-06
3.80722e-06
5.04737e-06
1.74809e-06
8.9748e-06
3.81404e-06
5.0492e-06
1.74968e-06
8.97958e-06
9.7137e-06
2.20034e-05
2.20028e-05
3.8218e-06
8.98428e-06
5.05593e-06
1.77295e-06
1.76456e-06
8.97748e-06
3.82956e-06
3.82877e-06
8.98906e-06
5.05775e-06
1.77443e-06
1.76626e-06
8.98216e-06
3.83638e-06
1.21172e-05
3.57684e-06
1.06561e-05
4.42485e-06
1.0652e-05
4.41846e-06
1.21205e-05
2.24743e-05
7.20623e-06
8.89969e-06
2.24727e-05
7.20677e-06
1.21169e-05
3.55818e-06
1.06482e-05
4.39853e-06
1.21137e-05
1.06515e-05
4.40532e-06
2.24633e-05
7.21014e-06
8.90018e-06
7.20989e-06
2.24648e-05
1.85002e-05
1.84929e-05
1.21174e-05
3.57728e-06
4.42504e-06
1.06563e-05
4.41828e-06
1.06523e-05
1.21206e-05
2.24744e-05
7.20629e-06
8.90103e-06
2.24728e-05
7.20644e-06
1.2117e-05
3.5577e-06
4.39846e-06
1.06484e-05
1.21138e-05
4.40527e-06
1.06517e-05
2.24633e-05
7.20996e-06
8.90148e-06
7.20981e-06
2.24649e-05
1.85006e-05
1.84933e-05
9.7265e-06
2.19519e-05
2.19514e-05
2.19517e-05
2.19511e-05
9.7254e-06
3.89195e-06
1.83672e-06
9.00472e-06
5.09759e-06
3.88573e-06
1.84496e-06
9.01094e-06
3.89749e-06
1.83854e-06
9.00952e-06
5.0995e-06
3.89303e-06
1.84627e-06
9.01572e-06
9.72381e-06
2.19619e-05
2.19614e-05
9.72471e-06
2.19622e-05
2.19616e-05
3.90421e-06
9.01924e-06
5.10545e-06
1.86811e-06
1.85998e-06
9.01318e-06
3.91157e-06
3.91234e-06
9.02404e-06
5.10654e-06
1.86849e-06
1.86198e-06
9.01804e-06
3.91635e-06
1.85309e-05
1.8523e-05
1.8534e-05
1.85261e-05
9.71754e-06
2.19933e-05
2.19928e-05
2.1993e-05
2.19924e-05
9.71723e-06
3.80718e-06
1.73937e-06
8.96755e-06
5.04578e-06
3.79863e-06
8.97443e-06
1.7481e-06
3.81402e-06
1.74106e-06
8.97267e-06
5.0493e-06
3.80555e-06
8.97985e-06
1.74937e-06
9.71416e-06
2.20034e-05
2.20028e-05
9.71431e-06
2.20037e-05
2.20032e-05
3.8216e-06
8.98385e-06
5.05727e-06
1.77293e-06
8.97725e-06
3.82948e-06
1.7644e-06
3.82862e-06
8.98934e-06
5.05806e-06
1.77432e-06
8.98239e-06
3.83647e-06
1.76622e-06
1.85061e-05
1.85136e-05
1.85092e-05
1.85168e-05
9.71988e-06
2.19826e-05
2.19821e-05
9.72044e-06
2.19828e-05
2.19825e-05
3.86436e-06
1.82103e-06
5.08298e-06
9.00194e-06
8.99554e-06
1.81306e-06
3.87161e-06
3.87143e-06
1.8226e-06
5.08344e-06
9.0074e-06
9.00091e-06
1.81472e-06
3.87875e-06
3.85116e-06
8.98664e-06
1.78893e-06
5.0723e-06
3.84345e-06
8.99306e-06
1.79691e-06
3.85819e-06
8.99181e-06
1.79069e-06
5.07547e-06
3.85043e-06
8.99847e-06
1.79852e-06
9.72289e-06
2.19722e-05
2.19721e-05
2.19719e-05
2.19718e-05
9.72217e-06
1.21041e-05
3.45769e-06
1.06414e-05
4.33905e-06
1.06396e-05
4.33172e-06
1.2107e-05
2.2513e-05
7.18415e-06
8.88668e-06
2.25112e-05
7.18424e-06
1.21039e-05
3.43544e-06
1.0638e-05
4.30669e-06
1.06395e-05
1.21011e-05
4.31452e-06
2.25018e-05
7.19026e-06
8.88726e-06
7.19043e-06
2.25036e-05
1.21099e-05
1.06418e-05
4.35521e-06
3.49969e-06
1.21069e-05
1.06441e-05
4.36273e-06
2.24824e-05
8.89364e-06
7.20278e-06
2.24839e-05
7.20221e-06
2.24935e-05
7.19666e-06
8.89316e-06
2.24918e-05
7.19815e-06
1.21103e-05
3.51966e-06
1.06475e-05
4.38475e-06
1.21134e-05
1.06447e-05
4.37747e-06
1.21103e-05
1.06417e-05
4.35532e-06
3.49943e-06
1.21072e-05
1.06441e-05
4.36238e-06
2.24829e-05
8.894e-06
7.2009e-06
7.2007e-06
2.24845e-05
2.24941e-05
7.19594e-06
8.89355e-06
2.24924e-05
7.19608e-06
1.21106e-05
3.51993e-06
1.06474e-05
4.38423e-06
1.06446e-05
4.37769e-06
1.21137e-05
9.71783e-06
2.19934e-05
2.19938e-05
2.1993e-05
2.19935e-05
9.7175e-06
3.81294e-06
5.04902e-06
8.97917e-06
1.74949e-06
3.80549e-06
5.04762e-06
1.74702e-06
8.97482e-06
9.71436e-06
2.20039e-05
2.20045e-05
3.82998e-06
8.98866e-06
5.05776e-06
1.77453e-06
8.98264e-06
1.76642e-06
3.8354e-06
3.82277e-06
8.98422e-06
5.05624e-06
1.77186e-06
1.76489e-06
8.9783e-06
3.82808e-06
1.85321e-05
1.85242e-05
1.8509e-05
1.85166e-05
9.72021e-06
2.19827e-05
2.19831e-05
9.72074e-06
2.1983e-05
2.19834e-05
3.87285e-06
1.82283e-06
5.08323e-06
9.00673e-06
1.81489e-06
9.00119e-06
3.87773e-06
3.8656e-06
1.82039e-06
5.08189e-06
9.00222e-06
8.99672e-06
1.8136e-06
3.87046e-06
3.85686e-06
8.99208e-06
1.7909e-06
5.07526e-06
1.79877e-06
3.85179e-06
8.99794e-06
3.84951e-06
8.98759e-06
1.78945e-06
5.07376e-06
3.84453e-06
8.99342e-06
1.79655e-06
9.72324e-06
2.19726e-05
2.1973e-05
2.19724e-05
2.19728e-05
9.72248e-06
1.8507e-05
1.85147e-05
1.21038e-05
3.45749e-06
1.06415e-05
4.33872e-06
1.06397e-05
4.33166e-06
1.21067e-05
2.25113e-05
7.18267e-06
8.88714e-06
2.25095e-05
7.18495e-06
1.21036e-05
3.43553e-06
1.06382e-05
4.30657e-06
1.06396e-05
1.21009e-05
4.31423e-06
2.25001e-05
7.19045e-06
8.88767e-06
7.18945e-06
2.25019e-05
1.21101e-05
4.35498e-06
1.0642e-05
3.49899e-06
1.2107e-05
4.36249e-06
1.06443e-05
2.24822e-05
8.89487e-06
7.20225e-06
2.24839e-05
7.20215e-06
2.24933e-05
7.19738e-06
8.89441e-06
2.24916e-05
7.19739e-06
1.21104e-05
3.52027e-06
4.38463e-06
1.06477e-05
1.21135e-05
4.37735e-06
1.06449e-05
1.211e-05
1.06418e-05
4.35528e-06
3.49979e-06
1.2107e-05
1.06442e-05
4.36209e-06
2.24813e-05
8.89438e-06
7.20054e-06
7.19998e-06
2.2483e-05
2.24924e-05
7.1944e-06
8.8939e-06
2.24907e-05
7.196e-06
1.21103e-05
3.51957e-06
1.06475e-05
4.384e-06
1.06447e-05
4.37761e-06
1.21135e-05
1.21031e-05
3.45809e-06
4.33866e-06
1.06414e-05
4.33176e-06
1.06396e-05
1.21059e-05
2.2499e-05
7.19145e-06
8.8874e-06
7.19154e-06
2.25011e-05
1.21038e-05
3.45758e-06
1.06413e-05
4.33872e-06
1.06395e-05
4.33158e-06
1.21067e-05
2.25005e-05
7.19084e-06
8.88733e-06
7.18896e-06
2.25023e-05
1.21092e-05
4.35539e-06
1.06417e-05
3.49864e-06
1.21062e-05
4.36184e-06
1.0644e-05
2.24801e-05
8.89409e-06
7.20169e-06
7.20159e-06
2.24821e-05
2.24916e-05
7.19673e-06
8.89362e-06
2.24896e-05
7.1969e-06
1.21096e-05
3.52048e-06
4.38372e-06
1.06473e-05
4.37782e-06
1.06446e-05
1.21126e-05
1.211e-05
1.06416e-05
4.35514e-06
3.49908e-06
1.21069e-05
1.06439e-05
4.36207e-06
2.24817e-05
8.89411e-06
7.20044e-06
7.19966e-06
2.24834e-05
2.24928e-05
7.19492e-06
8.8936e-06
2.24911e-05
7.1957e-06
1.21103e-05
3.52011e-06
1.06473e-05
4.38401e-06
1.06446e-05
4.3775e-06
1.21134e-05
9.71712e-06
2.19925e-05
2.19927e-05
2.19921e-05
2.19923e-05
9.71679e-06
3.81408e-06
1.74141e-06
8.97215e-06
5.0491e-06
8.97932e-06
3.80576e-06
1.74972e-06
3.80696e-06
1.73951e-06
8.96746e-06
5.04583e-06
1.74804e-06
3.79868e-06
8.97462e-06
9.71372e-06
2.20024e-05
2.20026e-05
2.20028e-05
9.71385e-06
2.2003e-05
3.82871e-06
8.98884e-06
5.05778e-06
1.77453e-06
8.98191e-06
1.76618e-06
3.83635e-06
3.82167e-06
8.98409e-06
5.05749e-06
1.77279e-06
1.76456e-06
8.97715e-06
3.8295e-06
1.85318e-05
1.8524e-05
1.85095e-05
1.85171e-05
9.71948e-06
2.19818e-05
2.1982e-05
9.72002e-06
2.19821e-05
2.19823e-05
3.87161e-06
1.82283e-06
5.08319e-06
9.00691e-06
1.81464e-06
9.00039e-06
3.87872e-06
3.86451e-06
1.82109e-06
5.08329e-06
9.00216e-06
8.99566e-06
1.81308e-06
3.87161e-06
3.85818e-06
8.9913e-06
1.7908e-06
5.07524e-06
1.79892e-06
3.85063e-06
8.99797e-06
3.85114e-06
8.98663e-06
1.78914e-06
5.07257e-06
3.84344e-06
8.99325e-06
1.79709e-06
9.72251e-06
2.19718e-05
2.1972e-05
2.19715e-05
2.19717e-05
9.72177e-06
1.85073e-05
1.85148e-05
1.21034e-05
3.4577e-06
4.33939e-06
1.06416e-05
4.33124e-06
1.06398e-05
1.21063e-05
2.25107e-05
7.18429e-06
8.88702e-06
7.18585e-06
2.25089e-05
1.21032e-05
3.43554e-06
4.30618e-06
1.06383e-05
4.31485e-06
1.21005e-05
1.06397e-05
2.24996e-05
7.192e-06
8.88758e-06
7.19017e-06
2.25013e-05
1.21042e-05
3.45771e-06
4.33884e-06
1.06417e-05
4.33156e-06
1.06399e-05
1.21071e-05
2.25121e-05
7.1828e-06
8.88729e-06
2.25103e-05
7.18486e-06
1.2104e-05
3.43546e-06
4.30654e-06
1.06384e-05
1.21012e-05
4.31432e-06
1.06398e-05
2.2501e-05
7.19069e-06
8.88784e-06
7.18926e-06
2.25028e-05
1.21096e-05
4.35497e-06
1.06419e-05
3.49972e-06
1.21066e-05
4.36249e-06
1.06442e-05
2.24808e-05
8.8943e-06
7.20189e-06
7.20109e-06
2.24825e-05
2.24919e-05
7.19627e-06
8.8938e-06
2.24902e-05
7.19714e-06
1.21099e-05
3.51986e-06
4.38453e-06
1.06476e-05
4.37738e-06
1.06448e-05
1.21131e-05
1.21104e-05
4.35521e-06
1.0642e-05
3.49959e-06
1.21073e-05
4.36211e-06
1.06443e-05
2.24823e-05
8.89459e-06
7.20074e-06
7.19985e-06
2.24839e-05
2.24934e-05
7.19467e-06
8.8941e-06
2.24917e-05
7.19595e-06
1.21107e-05
3.51988e-06
4.38402e-06
1.06477e-05
4.37763e-06
1.06449e-05
1.21138e-05
1.85328e-05
1.8525e-05
1.85344e-05
1.85267e-05
9.71956e-06
2.19824e-05
2.19819e-05
9.72007e-06
2.19828e-05
2.19822e-05
3.86571e-06
1.82139e-06
5.08158e-06
9.00234e-06
3.87071e-06
1.81302e-06
8.99588e-06
3.87259e-06
1.82287e-06
5.08333e-06
9.00713e-06
3.87761e-06
1.81479e-06
9.00068e-06
3.84952e-06
8.98692e-06
1.78925e-06
5.07347e-06
3.84404e-06
1.79733e-06
8.99342e-06
3.85649e-06
8.99163e-06
1.79091e-06
5.07531e-06
3.85102e-06
1.79875e-06
8.9982e-06
9.72257e-06
2.19725e-05
2.19719e-05
9.72187e-06
2.19721e-05
2.19716e-05
1.85082e-05
1.85158e-05
1.85099e-05
1.85174e-05
1.84973e-05
1.849e-05
1.85003e-05
1.8493e-05
9.72677e-06
2.19518e-05
2.19518e-05
2.19514e-05
2.19514e-05
9.72574e-06
3.89171e-06
1.83676e-06
9.0044e-06
5.09604e-06
3.88468e-06
9.01052e-06
1.84437e-06
3.89887e-06
1.83841e-06
9.00975e-06
5.09935e-06
3.89172e-06
9.01599e-06
1.84617e-06
9.72411e-06
2.19616e-05
2.19615e-05
9.72502e-06
2.19619e-05
2.19618e-05
3.90361e-06
9.01885e-06
5.10603e-06
1.86763e-06
9.01285e-06
3.91132e-06
1.8599e-06
3.91068e-06
9.02434e-06
5.10722e-06
1.86934e-06
9.01821e-06
3.91844e-06
1.86147e-06
1.21176e-05
3.57668e-06
1.06556e-05
4.4246e-06
1.06524e-05
4.41863e-06
1.21208e-05
2.24749e-05
7.20474e-06
8.90011e-06
2.24733e-05
7.20503e-06
1.21172e-05
3.55816e-06
1.06482e-05
4.39879e-06
1.06513e-05
1.21141e-05
4.40514e-06
2.24638e-05
7.20855e-06
8.90052e-06
7.20828e-06
2.24653e-05
9.72705e-06
2.19518e-05
2.19523e-05
2.19515e-05
2.19521e-05
9.72596e-06
3.8975e-06
1.83866e-06
9.00972e-06
5.09909e-06
9.01517e-06
3.89295e-06
1.84578e-06
3.89168e-06
1.83718e-06
9.00536e-06
5.09781e-06
1.84391e-06
3.88537e-06
9.01077e-06
9.72438e-06
2.19618e-05
2.19624e-05
2.19621e-05
9.7253e-06
2.19627e-05
3.91256e-06
9.0234e-06
5.10701e-06
1.8692e-06
9.01823e-06
1.862e-06
3.91621e-06
3.90399e-06
9.01896e-06
5.10498e-06
1.8668e-06
1.86047e-06
9.01385e-06
3.91144e-06
1.84981e-05
1.84906e-05
1.21173e-05
3.57627e-06
1.06561e-05
4.42429e-06
1.0652e-05
4.41875e-06
1.21205e-05
2.24734e-05
7.20405e-06
8.90046e-06
2.24718e-05
7.20457e-06
1.2117e-05
3.55838e-06
1.06482e-05
4.39877e-06
1.06515e-05
1.21138e-05
4.40466e-06
2.24623e-05
7.20805e-06
8.90094e-06
7.20777e-06
2.24639e-05
1.21165e-05
3.57739e-06
4.42392e-06
1.06554e-05
4.41885e-06
1.06524e-05
1.21197e-05
2.24725e-05
7.20573e-06
8.90015e-06
7.20578e-06
2.24706e-05
1.21161e-05
3.55736e-06
4.39898e-06
1.06482e-05
4.40446e-06
1.2113e-05
1.06512e-05
2.24611e-05
7.20927e-06
8.9006e-06
7.20932e-06
2.24629e-05
1.21173e-05
3.57693e-06
1.06553e-05
4.42425e-06
1.06523e-05
4.41848e-06
1.21205e-05
2.24738e-05
7.20373e-06
8.90018e-06
2.24722e-05
7.20444e-06
1.21169e-05
3.55784e-06
1.06481e-05
4.39862e-06
1.21138e-05
1.06511e-05
4.40483e-06
2.24628e-05
7.20784e-06
8.90065e-06
7.2076e-06
2.24643e-05
9.72639e-06
2.19513e-05
2.19515e-05
2.1951e-05
2.19512e-05
9.72528e-06
3.89892e-06
1.83852e-06
9.00923e-06
5.0993e-06
9.01549e-06
3.89191e-06
1.84618e-06
3.89011e-06
1.8369e-06
9.00453e-06
5.09645e-06
1.84447e-06
3.88511e-06
9.01073e-06
9.72368e-06
2.19613e-05
2.19614e-05
2.19615e-05
9.72464e-06
2.19617e-05
3.91084e-06
9.0238e-06
5.10633e-06
1.86914e-06
9.01773e-06
1.86176e-06
3.91833e-06
3.90503e-06
9.01901e-06
5.1059e-06
1.86743e-06
1.86007e-06
9.01298e-06
3.90904e-06
1.84983e-05
1.8491e-05
1.21169e-05
3.57711e-06
4.42501e-06
1.06557e-05
4.41825e-06
1.06526e-05
1.21201e-05
2.24729e-05
7.20538e-06
8.90038e-06
7.20589e-06
2.24714e-05
1.21166e-05
3.55799e-06
4.39852e-06
1.06484e-05
4.40526e-06
1.21134e-05
1.06514e-05
2.24619e-05
7.20935e-06
8.90086e-06
7.20904e-06
2.24634e-05
1.21177e-05
3.57702e-06
4.42425e-06
1.06558e-05
4.41871e-06
1.06527e-05
1.21208e-05
2.24744e-05
7.20417e-06
8.90071e-06
2.24729e-05
7.20462e-06
1.21173e-05
3.55789e-06
4.39877e-06
1.06485e-05
1.21141e-05
4.40474e-06
1.06515e-05
2.24634e-05
7.20799e-06
8.90117e-06
7.20798e-06
2.24649e-05
1.84993e-05
1.84919e-05
1.8501e-05
1.84937e-05
1.27758e-07
1.27759e-07
1.39262e-07
1.26352e-07
1.26353e-07
1.21062e-07
1.226e-07
1.55023e-06
3.15031e-07
6.55282e-07
6.55735e-07
1.22373e-07
1.22373e-07
1.35662e-07
1.21122e-07
1.21122e-07
1.15232e-07
1.16643e-07
1.64794e-06
7.07321e-07
7.0745e-07
3.3501e-07
1.64165e-06
7.11751e-07
7.1227e-07
1.54971e-06
6.50923e-07
6.51131e-07
3.14485e-07
1.54098e-06
6.55186e-07
6.55642e-07
1.61614e-06
3.2932e-07
6.97262e-07
6.97732e-07
6.92741e-07
6.92909e-07
1.62471e-06
1.54905e-06
3.15143e-07
6.54279e-07
6.55807e-07
1.61712e-06
3.28808e-07
6.97818e-07
6.9632e-07
6.92983e-07
6.93781e-07
1.62356e-06
1.54951e-06
6.51964e-07
6.50994e-07
3.14647e-07
6.55221e-07
1.54129e-06
6.54538e-07
1.61657e-06
3.29385e-07
6.96611e-07
6.97264e-07
6.94018e-07
6.92803e-07
1.62457e-06
1.61722e-06
3.28955e-07
6.9734e-07
6.98087e-07
1.62373e-06
6.92874e-07
6.92966e-07
1.6487e-06
7.07283e-07
7.07757e-07
3.3441e-07
1.64051e-06
7.11874e-07
7.11101e-07
1.64791e-06
7.07815e-07
7.08063e-07
3.3474e-07
7.10743e-07
1.64137e-06
7.11053e-07
1.64879e-06
7.0814e-07
7.07414e-07
3.34528e-07
7.11798e-07
1.64076e-06
7.1243e-07
1.27757e-07
1.27755e-07
1.39258e-07
1.26351e-07
1.26349e-07
1.21061e-07
1.22599e-07
1.27765e-07
1.27761e-07
1.39272e-07
1.26359e-07
1.26355e-07
1.21064e-07
1.22602e-07
1.27759e-07
1.27762e-07
1.39268e-07
1.26353e-07
1.26355e-07
1.21063e-07
1.22601e-07
1.38282e-07
1.2366e-07
1.23661e-07
1.24987e-07
1.24988e-07
1.19557e-07
1.18084e-07
1.38278e-07
1.23659e-07
1.23657e-07
1.24986e-07
1.24984e-07
1.19556e-07
1.18083e-07
1.38292e-07
1.23667e-07
1.23663e-07
1.24995e-07
1.24991e-07
1.19559e-07
1.18086e-07
1.38287e-07
1.23662e-07
1.23663e-07
1.24989e-07
1.24991e-07
1.19558e-07
1.18085e-07
4.12884e-07
9.81364e-07
1.29394e-06
3.38855e-07
1.2879e-06
3.37182e-07
4.12998e-07
5.76386e-07
1.92588e-06
2.6546e-06
8.88919e-07
8.82697e-07
1.9175e-06
5.79579e-07
4.12004e-07
9.81675e-07
3.38906e-07
1.29482e-06
3.37227e-07
1.28719e-06
4.14234e-07
5.6947e-07
8.66731e-07
1.89345e-06
2.63999e-06
5.66344e-07
8.72366e-07
1.90235e-06
4.0714e-07
9.67719e-07
3.32035e-07
1.26377e-06
4.0501e-07
3.3362e-07
1.27166e-06
5.76447e-07
1.92561e-06
2.65493e-06
8.88435e-07
8.83143e-07
1.91774e-06
5.79368e-07
1.56658e-06
3.1913e-07
6.6938e-07
6.69817e-07
6.64696e-07
6.64939e-07
1.57515e-06
1.22372e-07
1.22369e-07
1.3566e-07
1.21121e-07
1.21119e-07
1.15231e-07
1.16641e-07
1.22379e-07
1.22376e-07
1.35672e-07
1.21128e-07
1.21124e-07
1.15234e-07
1.16644e-07
1.22374e-07
1.22376e-07
1.35669e-07
1.21124e-07
1.21124e-07
1.15233e-07
1.16643e-07
4.44094e-07
1.06564e-06
1.38605e-06
3.6207e-07
1.37957e-06
3.59938e-07
4.43597e-07
6.11715e-07
9.32074e-07
1.98709e-06
2.72693e-06
6.08218e-07
9.38576e-07
1.99467e-06
4.35688e-07
1.05146e-06
1.35678e-06
3.53826e-07
4.35503e-07
1.36341e-06
3.55698e-07
6.19116e-07
2.01569e-06
2.74001e-06
9.55987e-07
9.49059e-07
2.01029e-06
6.23103e-07
4.43218e-07
1.0655e-06
3.61139e-07
1.38682e-06
3.60261e-07
1.37904e-06
4.45059e-07
6.10162e-07
9.32636e-07
1.98745e-06
2.72651e-06
6.0917e-07
9.37998e-07
1.99483e-06
4.36901e-07
1.05178e-06
3.53887e-07
1.35625e-06
4.34513e-07
3.55667e-07
1.36402e-06
6.19825e-07
2.01707e-06
2.74078e-06
9.54901e-07
9.49427e-07
2.00987e-06
6.23061e-07
1.6655e-06
3.39749e-07
7.26449e-07
7.25239e-07
7.22049e-07
7.22696e-07
1.67151e-06
1.56663e-06
3.19548e-07
6.69177e-07
6.69682e-07
1.57544e-06
6.64856e-07
6.65021e-07
1.60014e-06
3.24182e-07
6.7875e-07
6.78943e-07
1.59137e-06
6.83003e-07
6.83378e-07
4.12792e-07
9.81994e-07
1.29413e-06
3.38302e-07
1.2878e-06
3.37748e-07
4.12933e-07
5.68135e-07
8.66874e-07
1.89371e-06
2.64023e-06
1.9021e-06
5.67291e-07
8.72414e-07
4.05835e-07
9.67396e-07
1.26446e-06
3.32504e-07
1.27099e-06
4.05806e-07
3.3306e-07
5.77287e-07
1.92649e-06
2.65467e-06
8.88775e-07
1.91794e-06
8.83069e-07
5.78263e-07
4.11978e-07
9.81604e-07
1.29489e-06
3.38266e-07
1.28702e-06
3.37725e-07
4.13805e-07
5.69514e-07
8.66936e-07
1.89338e-06
2.64061e-06
5.66339e-07
1.90185e-06
8.73032e-07
4.06697e-07
9.67743e-07
1.26383e-06
3.3249e-07
4.05513e-07
1.27146e-06
3.33034e-07
5.76444e-07
1.92604e-06
2.65538e-06
8.89479e-07
1.9175e-06
5.79516e-07
8.83533e-07
4.2038e-07
1.31098e-06
3.43004e-07
1.00887e-06
4.20191e-07
1.31705e-06
3.43593e-07
5.98219e-07
9.21381e-07
2.69814e-06
1.97294e-06
9.15528e-07
1.96447e-06
5.99332e-07
5.88438e-07
1.9412e-06
8.99469e-07
2.68418e-06
9.05135e-07
5.87595e-07
1.94884e-06
4.27621e-07
1.0238e-06
1.34029e-06
3.4924e-07
1.33402e-06
3.48619e-07
4.27911e-07
4.21337e-07
1.31017e-06
3.42984e-07
1.00936e-06
4.1912e-07
1.31765e-06
3.43568e-07
5.97232e-07
9.22254e-07
2.69873e-06
1.97246e-06
1.96426e-06
9.16015e-07
6.00671e-07
5.90017e-07
1.94097e-06
8.99749e-07
2.68482e-06
5.86707e-07
1.94857e-06
9.05405e-07
4.26548e-07
1.02333e-06
1.34115e-06
3.49184e-07
1.33335e-06
3.48573e-07
4.28753e-07
1.56732e-06
3.19225e-07
6.69601e-07
6.68196e-07
6.6544e-07
6.64849e-07
1.57426e-06
1.59916e-06
3.24498e-07
6.78995e-07
6.7943e-07
6.83436e-07
1.5922e-06
6.82247e-07
4.11866e-07
9.81402e-07
1.29503e-06
3.38958e-07
1.28691e-06
3.37253e-07
4.13831e-07
5.69469e-07
8.67176e-07
1.89411e-06
2.64057e-06
1.90192e-06
5.6638e-07
8.72581e-07
4.06904e-07
9.67849e-07
1.26373e-06
3.32096e-07
1.27163e-06
4.049e-07
3.33689e-07
5.76446e-07
1.92551e-06
2.65518e-06
8.88831e-07
1.91796e-06
8.83401e-07
5.79422e-07
4.12785e-07
9.81564e-07
3.38891e-07
1.29507e-06
3.37218e-07
1.28688e-06
4.12976e-07
5.68195e-07
8.66906e-07
1.8934e-06
2.64088e-06
5.67316e-07
1.90165e-06
8.73133e-07
4.0586e-07
9.67822e-07
3.32131e-07
1.2639e-06
4.05808e-07
3.33617e-07
1.27166e-06
5.7733e-07
1.92586e-06
2.65535e-06
8.89636e-07
1.91789e-06
5.78277e-07
8.83517e-07
4.21562e-07
1.31015e-06
3.42537e-07
1.00953e-06
4.19347e-07
1.31795e-06
3.44255e-07
5.97229e-07
9.21481e-07
2.69865e-06
1.97206e-06
9.16053e-07
1.9644e-06
6.00446e-07
5.89926e-07
1.94171e-06
8.99893e-07
2.68467e-06
9.0525e-07
5.86723e-07
1.9492e-06
4.26593e-07
1.02325e-06
1.34102e-06
3.49915e-07
1.33325e-06
3.48069e-07
4.28784e-07
4.20401e-07
3.42513e-07
1.31012e-06
1.00965e-06
4.20157e-07
3.44212e-07
1.31795e-06
5.98258e-07
9.22526e-07
2.69877e-06
1.97194e-06
1.96473e-06
9.16132e-07
5.99268e-07
5.88504e-07
1.94109e-06
8.99672e-07
2.68489e-06
5.87616e-07
1.94827e-06
9.05264e-07
4.2761e-07
1.02321e-06
3.49882e-07
1.34108e-06
3.48059e-07
1.33319e-06
4.27941e-07
4.1172e-07
9.8193e-07
3.38795e-07
1.29438e-06
3.37096e-07
1.28702e-06
4.13738e-07
5.76298e-07
1.92498e-06
2.65455e-06
8.88779e-07
8.82713e-07
1.9171e-06
5.79356e-07
4.20496e-07
1.31084e-06
3.42496e-07
1.00927e-06
4.2026e-07
1.3174e-06
3.44134e-07
5.97333e-07
9.21919e-07
2.69823e-06
1.97237e-06
6.006e-07
9.15498e-07
1.96406e-06
5.90116e-07
1.94122e-06
8.99251e-07
2.68418e-06
5.86837e-07
9.04736e-07
1.94886e-06
4.27628e-07
1.02333e-06
1.34041e-06
3.49846e-07
4.2803e-07
1.33384e-06
3.48045e-07
4.21439e-07
3.42508e-07
1.31028e-06
1.00898e-06
4.19161e-07
3.44175e-07
1.31761e-06
5.97292e-07
9.21946e-07
2.699e-06
1.97121e-06
1.96405e-06
9.15645e-07
6.0044e-07
5.90018e-07
1.94115e-06
8.99527e-07
2.684e-06
5.8678e-07
1.94851e-06
9.05122e-07
4.26452e-07
1.02367e-06
3.49843e-07
1.34062e-06
3.48034e-07
1.3333e-06
4.28669e-07
1.56686e-06
3.19488e-07
6.68609e-07
6.69146e-07
6.6489e-07
6.65837e-07
1.5748e-06
1.59976e-06
3.24239e-07
6.79798e-07
6.78891e-07
6.8272e-07
1.59183e-06
6.83137e-07
4.11902e-07
9.81594e-07
3.38917e-07
1.29398e-06
3.37248e-07
1.28786e-06
4.1384e-07
5.69477e-07
8.67454e-07
1.8934e-06
2.64078e-06
8.72487e-07
5.66408e-07
1.90168e-06
4.06868e-07
9.67793e-07
3.32063e-07
1.26445e-06
3.33639e-07
4.04945e-07
1.27087e-06
5.76497e-07
1.92585e-06
2.65537e-06
8.88867e-07
8.83674e-07
1.91772e-06
5.79468e-07
4.2164e-07
3.42548e-07
1.31042e-06
1.00943e-06
4.19471e-07
3.44218e-07
1.31794e-06
5.97817e-07
9.21051e-07
2.69836e-06
1.97174e-06
5.99137e-07
9.15809e-07
1.96427e-06
5.88602e-07
1.94145e-06
8.99633e-07
2.68417e-06
5.87017e-07
9.04816e-07
1.94905e-06
4.26828e-07
1.02343e-06
3.49927e-07
1.34139e-06
4.28871e-07
3.48081e-07
1.33345e-06
4.21579e-07
3.42546e-07
1.31098e-06
1.00931e-06
4.19362e-07
3.44248e-07
1.31713e-06
5.97284e-07
9.21848e-07
2.69875e-06
1.97226e-06
1.9643e-06
9.162e-07
6.00541e-07
5.89963e-07
1.94107e-06
9.00139e-07
2.68486e-06
5.86773e-07
1.94849e-06
9.05398e-07
4.26642e-07
1.02349e-06
3.49926e-07
1.3401e-06
3.48083e-07
1.33411e-06
4.28729e-07
1.59884e-06
3.24504e-07
6.78802e-07
6.79044e-07
1.59202e-06
6.83021e-07
6.83546e-07
1.66404e-06
3.40263e-07
7.26831e-07
7.25365e-07
1.6732e-06
7.21606e-07
7.22793e-07
4.43869e-07
1.06618e-06
1.38618e-06
3.61182e-07
1.37945e-06
3.60575e-07
4.43439e-07
6.11443e-07
9.32633e-07
1.98742e-06
2.72498e-06
1.99438e-06
6.08785e-07
9.38294e-07
4.35377e-07
1.05108e-06
1.357e-06
3.54438e-07
1.36346e-06
4.35224e-07
3.55163e-07
6.19304e-07
2.01637e-06
2.7411e-06
9.54427e-07
2.01014e-06
9.49315e-07
6.2306e-07
4.42898e-07
1.06567e-06
1.38606e-06
3.6115e-07
1.37937e-06
3.60551e-07
4.44698e-07
6.1171e-07
9.32891e-07
1.98734e-06
2.72553e-06
6.08262e-07
1.99369e-06
9.38971e-07
4.36588e-07
1.05152e-06
1.35629e-06
3.54415e-07
4.34261e-07
1.36318e-06
3.55118e-07
6.19018e-07
2.01554e-06
2.74171e-06
9.56432e-07
2.01036e-06
6.23105e-07
9.49382e-07
1.66541e-06
3.39929e-07
7.26098e-07
7.25193e-07
7.22761e-07
7.22732e-07
1.67104e-06
4.42884e-07
1.06559e-06
1.38709e-06
3.60976e-07
1.37888e-06
3.60179e-07
4.44643e-07
6.11393e-07
9.33266e-07
1.98755e-06
2.72548e-06
1.9952e-06
6.08292e-07
9.37643e-07
4.36585e-07
1.05147e-06
1.35626e-06
3.54029e-07
1.36378e-06
4.34269e-07
3.55422e-07
6.18885e-07
2.0182e-06
2.74163e-06
9.54117e-07
2.00958e-06
9.50185e-07
6.22712e-07
4.43848e-07
1.06552e-06
3.60974e-07
1.3872e-06
3.60146e-07
1.37873e-06
4.43452e-07
6.1015e-07
9.3303e-07
1.98747e-06
2.72732e-06
6.09113e-07
1.99406e-06
9.38238e-07
4.35376e-07
1.05151e-06
3.53992e-07
1.35623e-06
4.35187e-07
3.55413e-07
1.36398e-06
6.20394e-07
2.01669e-06
2.74045e-06
9.54458e-07
2.01008e-06
6.20858e-07
9.50102e-07
4.42821e-07
1.06592e-06
3.60953e-07
1.38554e-06
3.60121e-07
1.37925e-06
4.44617e-07
6.11368e-07
9.32507e-07
1.98742e-06
2.72546e-06
9.38611e-07
6.0825e-07
1.99348e-06
4.36498e-07
1.05117e-06
3.5398e-07
1.35642e-06
3.55387e-07
4.34152e-07
1.36329e-06
6.1951e-07
2.01511e-06
2.74128e-06
9.55563e-07
9.49085e-07
2.0102e-06
6.20434e-07
1.66436e-06
3.40085e-07
7.27268e-07
7.26433e-07
7.21867e-07
7.21947e-07
1.67247e-06
4.42402e-07
1.06563e-06
3.62112e-07
1.38584e-06
3.59914e-07
1.37987e-06
4.43624e-07
6.11635e-07
9.33104e-07
1.98734e-06
2.72734e-06
9.38504e-07
6.08329e-07
1.99361e-06
4.36493e-07
1.05158e-06
3.53973e-07
1.35703e-06
3.55736e-07
4.34369e-07
1.36311e-06
6.19052e-07
2.01603e-06
2.74046e-06
9.55156e-07
9.49811e-07
2.01016e-06
6.22973e-07
4.99174e-07
4.99984e-07
4.99986e-07
4.9993e-07
4.45589e-07
4.54247e-07
4.5426e-07
4.64012e-07
4.03811e-07
4.18892e-07
4.18903e-07
4.39739e-07
3.68433e-07
3.88816e-07
3.88827e-07
4.17804e-07
3.38078e-07
3.62267e-07
3.62276e-07
3.96053e-07
3.11695e-07
3.38351e-07
3.38361e-07
3.74378e-07
2.88503e-07
3.16636e-07
3.16652e-07
3.53422e-07
2.67933e-07
2.96953e-07
2.96973e-07
3.33788e-07
2.4957e-07
2.79249e-07
2.79268e-07
3.16041e-07
2.33108e-07
2.63518e-07
2.63532e-07
3.0061e-07
2.18319e-07
2.49766e-07
2.49773e-07
2.8791e-07
2.05028e-07
2.37981e-07
2.37985e-07
2.77981e-07
1.93093e-07
2.28163e-07
2.28169e-07
2.71358e-07
1.82404e-07
2.20314e-07
2.2033e-07
2.67511e-07
1.7287e-07
2.14444e-07
2.14469e-07
2.66979e-07
1.64416e-07
2.10568e-07
2.10598e-07
2.69778e-07
1.5698e-07
2.08695e-07
2.08726e-07
2.75933e-07
1.50509e-07
2.0883e-07
2.08864e-07
2.85322e-07
1.44958e-07
2.11027e-07
2.11065e-07
2.98186e-07
2.15305e-07
3.14481e-07
5.06179e-07
5.05571e-07
5.05571e-07
5.06193e-07
5.0557e-07
5.05567e-07
5.05987e-07
5.05986e-07
5.05986e-07
5.05983e-07
5.05572e-07
5.05561e-07
5.06182e-07
5.05572e-07
5.05561e-07
5.06198e-07
4.99918e-07
4.67421e-07