/*--------------------------------*- C++ -*----------------------------------*\
| =========                 |                                                 |
| \\      /  F ield         | OpenFOAM: The Open Source CFD Toolbox           |
|  \\    /   O peration     | Version:  2312                                  |
|   \\  /    A nd           | Website:  www.openfoam.com                      |
|    \\/     M anipulation  |                                                 |
\*---------------------------------------------------------------------------*/
FoamFile
{
    version     2.0;
    format      ascii;
    arch        "LSB;label=32;scalar=64";
    class       volScalarField;
    location    "550";
    object      nut;
}
// * * * * * * * * * * * * * * * * * * * * * * * * * * * * * * * * * * * * * //

dimensions      [0 2 -1 0 0 0 0];

internalField   nonuniform List<scalar> 
43008
(
0.000158328
0.000108543
0.00015417
0.000104788
0.000104785
8.35546e-05
8.5132e-05
8.40736e-05
0.000108515
0.000108502
0.000105628
0.000105615
8.38474e-05
0.000108541
0.000108503
0.000105654
0.000105617
0.000105658
0.000105625
8.51222e-05
8.40153e-05
0.000108527
0.000105656
0.000105643
8.37333e-05
8.333e-05
0.000104757
0.000104744
8.34622e-05
0.000104781
0.000104746
0.000104754
8.3373e-05
0.000104772
6.51235e-05
4.95126e-05
6.39813e-05
4.9518e-05
2.36524e-05
6.51402e-05
4.95071e-05
6.39631e-05
4.95129e-05
0.000158325
0.000158321
0.000158314
0.000155202
0.000155199
0.000155195
0.00015519
6.15913e-05
0.000107543
6.22962e-05
0.00013338
2.36554e-05
2.36511e-05
6.16148e-05
0.000134459
6.16344e-05
0.000107539
6.08465e-05
0.000133379
6.23016e-05
8.46309e-05
5.93221e-05
5.93215e-05
6.77518e-05
4.95377e-05
6.6698e-05
4.95428e-05
2.36421e-05
2.36382e-05
6.77483e-05
4.95322e-05
6.66828e-05
4.95368e-05
0.000154166
0.000154162
0.000154157
6.41616e-05
6.37425e-05
0.000130144
0.000103914
6.33262e-05
6.438e-05
0.0001291
2.3641e-05
2.36371e-05
6.41336e-05
0.000130137
6.37345e-05
0.000103912
6.3333e-05
0.000129095
6.44257e-05
6.0078e-05
6.00772e-05
8.32935e-05
6.04505e-05
6.04238e-05
2.36584e-05
2.36546e-05
2.36562e-05
2.36521e-05
5.89302e-05
5.89485e-05
8.47867e-05
5.93439e-05
5.93274e-05
2.36474e-05
2.36514e-05
2.3645e-05
2.36491e-05
8.41418e-05
5.99083e-05
5.98925e-05
5.95131e-05
5.95295e-05
6.51335e-05
4.95069e-05
6.39714e-05
4.95123e-05
6.16381e-05
6.16312e-05
0.000134454
0.000107511
6.0826e-05
6.22998e-05
0.00013337
6.16231e-05
6.16306e-05
0.00013445
0.000107498
6.08542e-05
6.22931e-05
0.000133368
6.53786e-05
4.95312e-05
4.95254e-05
6.64675e-05
6.53709e-05
4.95247e-05
4.95196e-05
6.64749e-05
6.20256e-05
0.000106582
6.3359e-05
0.000131212
6.26929e-05
0.000132277
6.28939e-05
6.20406e-05
0.00010657
6.33567e-05
0.000131211
6.26906e-05
0.000132274
6.28765e-05
8.46863e-05
5.93246e-05
5.93284e-05
2.36535e-05
2.36451e-05
2.36493e-05
8.4206e-05
5.98871e-05
5.98922e-05
5.95247e-05
5.95297e-05
2.36466e-05
2.36504e-05
6.16028e-05
6.16298e-05
0.000134458
0.000107537
6.08443e-05
6.23013e-05
0.000133377
6.51291e-05
4.95031e-05
6.39698e-05
4.9509e-05
6.16372e-05
0.000134445
6.16312e-05
0.000107499
6.08427e-05
0.000133365
6.22918e-05
6.53613e-05
4.95255e-05
4.95197e-05
6.64863e-05
6.20511e-05
0.000106607
6.33607e-05
0.000131218
6.26897e-05
0.00013228
6.28635e-05
6.53704e-05
4.95216e-05
4.95157e-05
6.64664e-05
6.20317e-05
0.000106571
0.000131207
6.33498e-05
0.000132268
6.2691e-05
6.28575e-05
6.51007e-05
4.95141e-05
6.16505e-05
0.000107507
0.000133376
6.22975e-05
6.51263e-05
4.95103e-05
6.20598e-05
0.000106614
6.33486e-05
0.000131223
6.26892e-05
0.000132288
6.28421e-05
6.53819e-05
4.95266e-05
4.95204e-05
6.64495e-05
6.20126e-05
0.000106579
0.000131218
6.33921e-05
0.00013228
6.2677e-05
6.28924e-05
6.53742e-05
4.95228e-05
4.95162e-05
6.64642e-05
5.89424e-05
5.89382e-05
8.48208e-05
5.93213e-05
5.93478e-05
2.36575e-05
2.36534e-05
2.3644e-05
2.36481e-05
8.4111e-05
5.98853e-05
5.99119e-05
5.95235e-05
5.95179e-05
2.36463e-05
2.36502e-05
6.16445e-05
0.000134451
6.16316e-05
0.000107523
6.08347e-05
0.000133374
6.2296e-05
6.51126e-05
4.95081e-05
6.39883e-05
4.9514e-05
6.51119e-05
4.95021e-05
6.39835e-05
4.95081e-05
6.20469e-05
0.00010661
0.000131219
6.33623e-05
0.000132281
6.26946e-05
6.28438e-05
6.20267e-05
0.000106597
0.000131215
6.33544e-05
0.000132276
6.26905e-05
6.28843e-05
6.53874e-05
4.95267e-05
4.95207e-05
6.64496e-05
6.53842e-05
4.95207e-05
4.9515e-05
6.64493e-05
2.3652e-05
2.36507e-05
8.43114e-05
5.98857e-05
5.98855e-05
5.95223e-05
5.95221e-05
2.36449e-05
2.3649e-05
2.36436e-05
2.36477e-05
2.36441e-05
2.36403e-05
2.3642e-05
2.36382e-05
6.00685e-05
6.00823e-05
8.33725e-05
6.04551e-05
6.04573e-05
6.77331e-05
4.9531e-05
6.66928e-05
4.95364e-05
6.42249e-05
6.37272e-05
0.000130132
0.000103885
6.3295e-05
6.44395e-05
0.00012909
6.42336e-05
6.37222e-05
0.000130131
0.00010387
6.33066e-05
6.44139e-05
0.000129088
6.00777e-05
6.00835e-05
8.35145e-05
6.04535e-05
6.04312e-05
2.36436e-05
2.36397e-05
6.41596e-05
6.37243e-05
0.000130137
0.000103911
6.33191e-05
6.44157e-05
0.000129096
6.77242e-05
4.95278e-05
6.6695e-05
4.95329e-05
6.41594e-05
0.000130124
6.3732e-05
0.000103875
6.33223e-05
0.000129085
6.43603e-05
6.7714e-05
4.9533e-05
6.66992e-05
4.95378e-05
6.42058e-05
0.000130138
6.37039e-05
0.000103882
6.32843e-05
0.000129096
6.44194e-05
6.7728e-05
4.95286e-05
6.66934e-05
4.95342e-05
6.0077e-05
6.00713e-05
8.33898e-05
6.04228e-05
6.04304e-05
2.36432e-05
2.36394e-05
6.41504e-05
0.000130132
6.37319e-05
0.0001039
6.33043e-05
0.000129095
6.43891e-05
6.77346e-05
4.95326e-05
6.67104e-05
4.95382e-05
6.77281e-05
4.95271e-05
6.67073e-05
4.95324e-05
2.36419e-05
2.36381e-05
2.36406e-05
2.36367e-05
3.61705e-05
6.46904e-05
4.03051e-05
6.75513e-05
4.03029e-05
6.71552e-05
3.61733e-05
2.02412e-05
6.67625e-05
4.95117e-05
2.02407e-05
6.69276e-05
3.61702e-05
6.44272e-05
4.03009e-05
6.6636e-05
3.61675e-05
4.03027e-05
6.70414e-05
2.02379e-05
6.7145e-05
4.95188e-05
6.69823e-05
2.02384e-05
2.3656e-05
2.3653e-05
3.61703e-05
6.46721e-05
6.75491e-05
4.03046e-05
6.71525e-05
4.03023e-05
3.61732e-05
2.02415e-05
6.67473e-05
4.95066e-05
2.0241e-05
6.69303e-05
3.61701e-05
6.44411e-05
6.66361e-05
4.03004e-05
3.61674e-05
6.70381e-05
4.03022e-05
2.02382e-05
6.71524e-05
4.95134e-05
6.69749e-05
2.02387e-05
2.36548e-05
2.36517e-05
6.9316e-05
2.1579e-05
2.15758e-05
2.15789e-05
2.15758e-05
6.9472e-05
7.01585e-05
5.90296e-05
6.60144e-05
4.70375e-05
7.02047e-05
5.90282e-05
6.6033e-05
4.70274e-05
6.92592e-05
2.15824e-05
2.15792e-05
7.05192e-05
4.70542e-05
5.92355e-05
6.66645e-05
6.64823e-05
4.70475e-05
7.06647e-05
7.05645e-05
4.70444e-05
5.92354e-05
6.66845e-05
6.64885e-05
4.70387e-05
7.0709e-05
3.61839e-05
6.73255e-05
4.03209e-05
6.94462e-05
4.03209e-05
6.90797e-05
3.6187e-05
2.02299e-05
6.76097e-05
4.95372e-05
2.02294e-05
6.77533e-05
3.61835e-05
6.71158e-05
4.03144e-05
6.86213e-05
3.61804e-05
4.03168e-05
6.89939e-05
2.02266e-05
6.79452e-05
4.9543e-05
6.77987e-05
2.0227e-05
2.36416e-05
2.36385e-05
3.61839e-05
6.73136e-05
6.94403e-05
4.03206e-05
6.90779e-05
4.03202e-05
3.6187e-05
2.02302e-05
6.76031e-05
4.95315e-05
2.02297e-05
6.77494e-05
3.61835e-05
6.71262e-05
6.86172e-05
4.03135e-05
3.61803e-05
6.89918e-05
4.03166e-05
2.02269e-05
6.79354e-05
4.95379e-05
6.78007e-05
2.02273e-05
2.36405e-05
2.36376e-05
7.01168e-05
2.15656e-05
2.15624e-05
2.15655e-05
2.15623e-05
7.02642e-05
7.20929e-05
6.8426e-05
4.70947e-05
6.01605e-05
7.19497e-05
6.86019e-05
4.71005e-05
7.21711e-05
6.8426e-05
4.70852e-05
6.01573e-05
7.19835e-05
6.86267e-05
4.70915e-05
7.00736e-05
2.15689e-05
2.15657e-05
6.99285e-05
2.15689e-05
2.15658e-05
7.2424e-05
4.71144e-05
6.03361e-05
6.92475e-05
6.90653e-05
4.71096e-05
7.25569e-05
7.24415e-05
4.71055e-05
6.03428e-05
6.92968e-05
6.90614e-05
4.70997e-05
7.26362e-05
2.36582e-05
2.3655e-05
2.36555e-05
2.36526e-05
6.93211e-05
2.15797e-05
2.15765e-05
2.15796e-05
2.15764e-05
6.94776e-05
7.01607e-05
6.58314e-05
4.70319e-05
5.90526e-05
7.00229e-05
4.70416e-05
6.60226e-05
7.02056e-05
6.58351e-05
4.70236e-05
5.90372e-05
7.00706e-05
4.70288e-05
6.60486e-05
6.92648e-05
2.15828e-05
2.15797e-05
6.91035e-05
2.15831e-05
2.15798e-05
7.05215e-05
4.70579e-05
5.92245e-05
6.66728e-05
4.70491e-05
7.06613e-05
6.6477e-05
7.05678e-05
4.70451e-05
5.92395e-05
6.66911e-05
4.704e-05
7.07065e-05
6.647e-05
2.36478e-05
2.3651e-05
2.36455e-05
2.36485e-05
6.96842e-05
2.15762e-05
2.1573e-05
6.9531e-05
2.15765e-05
2.15731e-05
7.14985e-05
6.79717e-05
5.97914e-05
4.70892e-05
4.70826e-05
6.7769e-05
7.1625e-05
7.15416e-05
6.79864e-05
5.98098e-05
4.70776e-05
4.70722e-05
6.77679e-05
7.16749e-05
7.11467e-05
4.70649e-05
6.7124e-05
5.96304e-05
7.10136e-05
4.70744e-05
6.73338e-05
7.11945e-05
4.70563e-05
6.71235e-05
5.96174e-05
7.1059e-05
4.70624e-05
6.73466e-05
6.97359e-05
2.15733e-05
2.15697e-05
2.15732e-05
2.15696e-05
6.98847e-05
3.6169e-05
6.46822e-05
4.03049e-05
6.75512e-05
4.03027e-05
6.71421e-05
3.6172e-05
2.02405e-05
6.67365e-05
4.95062e-05
2.024e-05
6.69167e-05
3.61689e-05
6.44327e-05
4.03008e-05
6.66243e-05
4.03026e-05
3.61661e-05
6.70402e-05
2.02372e-05
6.71297e-05
4.95129e-05
6.69569e-05
2.02377e-05
3.61766e-05
4.03056e-05
6.76576e-05
6.58101e-05
3.61736e-05
4.03084e-05
6.80456e-05
2.02322e-05
4.95318e-05
6.75602e-05
2.02327e-05
6.74006e-05
2.02355e-05
6.72047e-05
4.95255e-05
2.02351e-05
6.73551e-05
3.61769e-05
6.60478e-05
4.03124e-05
6.85251e-05
3.618e-05
4.03094e-05
6.81471e-05
3.61753e-05
4.03055e-05
6.76459e-05
6.58141e-05
3.61722e-05
4.03083e-05
6.8045e-05
2.02316e-05
4.95259e-05
6.75375e-05
6.73826e-05
2.02321e-05
2.02348e-05
6.71728e-05
4.95191e-05
2.02344e-05
6.73365e-05
3.61755e-05
6.6042e-05
4.03126e-05
6.85266e-05
4.03091e-05
6.81341e-05
3.61787e-05
6.93178e-05
2.15766e-05
2.15796e-05
2.15764e-05
2.15794e-05
6.94826e-05
7.02388e-05
5.90324e-05
4.70334e-05
6.60366e-05
7.01939e-05
5.90367e-05
6.60629e-05
4.70436e-05
6.92712e-05
2.15797e-05
2.15827e-05
7.05396e-05
4.70497e-05
5.92367e-05
6.66797e-05
4.70342e-05
6.64858e-05
7.07408e-05
7.049e-05
4.70602e-05
5.92432e-05
6.67109e-05
6.6444e-05
4.70447e-05
7.06907e-05
2.36572e-05
2.36541e-05
2.36457e-05
2.36487e-05
6.96885e-05
2.1573e-05
2.15761e-05
6.95271e-05
2.15732e-05
2.15762e-05
7.15099e-05
6.79801e-05
5.98057e-05
4.70817e-05
6.77843e-05
4.7066e-05
7.17039e-05
7.14621e-05
6.79994e-05
5.98107e-05
4.70917e-05
4.70766e-05
6.77413e-05
7.16573e-05
7.12331e-05
4.70509e-05
6.71347e-05
5.96121e-05
6.73356e-05
7.10297e-05
4.70654e-05
7.11877e-05
4.70615e-05
6.70944e-05
5.96176e-05
7.09833e-05
4.70758e-05
6.73426e-05
6.97312e-05
2.15699e-05
2.15728e-05
2.15697e-05
2.15727e-05
6.98876e-05
2.36471e-05
2.36502e-05
3.61684e-05
6.4681e-05
4.03042e-05
6.75478e-05
4.0302e-05
6.71394e-05
3.61713e-05
2.02404e-05
6.67376e-05
4.95026e-05
2.02399e-05
6.69023e-05
3.61683e-05
6.44299e-05
4.03001e-05
6.66224e-05
4.03019e-05
3.61655e-05
6.70362e-05
2.0237e-05
6.71237e-05
4.95092e-05
6.69522e-05
2.02375e-05
3.61765e-05
6.76549e-05
4.0305e-05
6.58244e-05
3.61735e-05
6.80454e-05
4.0308e-05
2.02326e-05
4.95266e-05
6.75538e-05
2.0233e-05
6.74029e-05
2.02359e-05
6.71861e-05
4.95201e-05
2.02354e-05
6.73579e-05
3.61769e-05
6.60326e-05
6.85237e-05
4.03121e-05
3.618e-05
6.81431e-05
4.03087e-05
3.61746e-05
4.03048e-05
6.76432e-05
6.58065e-05
3.61716e-05
4.03076e-05
6.80408e-05
2.02314e-05
4.95224e-05
6.75358e-05
6.73759e-05
2.02318e-05
2.02347e-05
6.71743e-05
4.95159e-05
2.02342e-05
6.73301e-05
3.61749e-05
6.60443e-05
4.03116e-05
6.8522e-05
4.03086e-05
6.81319e-05
3.6178e-05
3.617e-05
6.46961e-05
6.75117e-05
4.03038e-05
6.71727e-05
4.03015e-05
3.61729e-05
2.02381e-05
6.71416e-05
4.95149e-05
6.69622e-05
2.02387e-05
3.6169e-05
6.46887e-05
4.03046e-05
6.75413e-05
4.03024e-05
6.71428e-05
3.61719e-05
2.02373e-05
6.71172e-05
4.95108e-05
6.6956e-05
2.02378e-05
3.61762e-05
6.76736e-05
4.03042e-05
6.579e-05
3.61732e-05
6.80097e-05
4.03072e-05
2.02324e-05
4.95276e-05
6.75507e-05
6.73882e-05
2.0233e-05
2.02359e-05
6.71827e-05
4.95208e-05
2.02353e-05
6.73452e-05
3.61765e-05
6.60497e-05
6.84934e-05
4.03117e-05
6.81587e-05
4.03077e-05
3.61796e-05
3.61752e-05
4.0305e-05
6.76467e-05
6.58029e-05
3.61721e-05
4.03081e-05
6.80351e-05
2.02317e-05
4.95231e-05
6.75316e-05
6.7376e-05
2.02321e-05
2.0235e-05
6.71659e-05
4.95169e-05
2.02345e-05
6.73298e-05
3.61754e-05
6.60432e-05
4.03125e-05
6.85169e-05
4.03085e-05
6.81347e-05
3.61786e-05
6.93193e-05
2.15766e-05
2.15798e-05
2.15766e-05
2.15797e-05
6.94748e-05
7.02082e-05
6.58194e-05
4.70234e-05
5.90301e-05
4.70289e-05
7.00679e-05
6.60415e-05
7.01666e-05
6.58378e-05
4.70342e-05
5.9058e-05
6.60207e-05
7.00249e-05
4.704e-05
6.92628e-05
2.15799e-05
2.1583e-05
2.158e-05
6.91006e-05
2.15832e-05
7.05673e-05
4.70452e-05
5.92338e-05
6.66883e-05
4.70397e-05
6.64789e-05
7.07082e-05
7.05218e-05
4.70563e-05
5.92292e-05
6.66714e-05
6.64842e-05
4.70511e-05
7.06671e-05
2.3657e-05
2.36538e-05
2.36445e-05
2.36476e-05
6.96804e-05
2.15732e-05
2.15763e-05
6.95296e-05
2.15733e-05
2.15764e-05
7.15416e-05
6.79846e-05
5.98042e-05
4.70772e-05
6.77832e-05
4.70722e-05
7.16736e-05
7.14968e-05
6.79759e-05
5.97957e-05
4.70884e-05
4.70834e-05
6.77797e-05
7.16344e-05
7.11932e-05
4.70563e-05
6.71242e-05
5.96107e-05
6.73324e-05
7.10576e-05
4.70621e-05
7.11526e-05
4.70671e-05
6.71295e-05
5.96335e-05
7.10153e-05
4.70733e-05
6.73308e-05
6.97344e-05
2.15699e-05
2.1573e-05
2.15698e-05
2.1573e-05
6.9881e-05
2.36467e-05
2.36499e-05
3.61708e-05
6.46994e-05
6.75409e-05
4.03044e-05
6.71618e-05
4.03022e-05
3.61736e-05
2.0242e-05
6.67536e-05
4.95077e-05
6.69276e-05
2.02415e-05
3.61705e-05
6.44121e-05
6.66446e-05
4.03003e-05
6.70299e-05
3.61678e-05
4.0302e-05
2.02387e-05
6.71407e-05
4.95141e-05
6.69781e-05
2.02392e-05
3.61679e-05
6.46961e-05
6.75437e-05
4.03038e-05
6.71411e-05
4.03016e-05
3.61709e-05
2.02401e-05
6.6729e-05
4.95018e-05
2.02395e-05
6.69083e-05
3.61678e-05
6.44111e-05
6.66232e-05
4.02997e-05
3.6165e-05
6.70326e-05
4.03014e-05
2.02367e-05
6.71259e-05
4.95082e-05
6.6949e-05
2.02373e-05
3.61769e-05
6.7663e-05
4.0305e-05
6.57894e-05
3.61739e-05
6.80387e-05
4.03077e-05
2.02331e-05
4.95273e-05
6.75541e-05
6.74014e-05
2.02335e-05
2.02364e-05
6.71869e-05
4.9521e-05
2.02359e-05
6.7355e-05
3.61772e-05
6.6061e-05
6.85183e-05
4.0312e-05
6.81499e-05
4.03086e-05
3.61803e-05
3.61742e-05
6.76442e-05
4.03044e-05
6.5789e-05
3.61711e-05
6.80388e-05
4.03072e-05
2.02311e-05
4.95214e-05
6.7538e-05
6.73738e-05
2.02317e-05
2.02344e-05
6.71665e-05
4.9515e-05
2.02339e-05
6.73354e-05
3.61744e-05
6.60576e-05
6.85208e-05
4.03114e-05
6.81313e-05
4.0308e-05
3.61776e-05
2.36556e-05
2.36526e-05
2.36543e-05
2.36513e-05
6.96786e-05
2.15756e-05
2.15724e-05
6.95257e-05
2.15757e-05
2.15725e-05
7.14734e-05
6.79579e-05
5.98041e-05
4.70857e-05
7.16505e-05
6.77825e-05
4.708e-05
7.15211e-05
6.79787e-05
5.98028e-05
4.70766e-05
7.16973e-05
6.77843e-05
4.70703e-05
7.1181e-05
4.70627e-05
6.71223e-05
5.9611e-05
7.10028e-05
6.73175e-05
4.70711e-05
7.12205e-05
4.70538e-05
6.71317e-05
5.96106e-05
7.10494e-05
6.7338e-05
4.70615e-05
6.97303e-05
2.15723e-05
2.15691e-05
6.98794e-05
2.15722e-05
2.1569e-05
2.36454e-05
2.36484e-05
2.36441e-05
2.36471e-05
2.36437e-05
2.36406e-05
2.36415e-05
2.36385e-05
7.01285e-05
2.15664e-05
2.15628e-05
2.15664e-05
2.15628e-05
7.02674e-05
7.2091e-05
6.84142e-05
4.70968e-05
6.01836e-05
7.19675e-05
4.71042e-05
6.86307e-05
7.21401e-05
6.84202e-05
4.70867e-05
6.01681e-05
7.20096e-05
4.70924e-05
6.86235e-05
7.00768e-05
2.15699e-05
2.15662e-05
6.99354e-05
2.157e-05
2.15663e-05
7.24386e-05
4.71179e-05
6.03337e-05
6.92705e-05
4.71123e-05
7.25396e-05
6.90535e-05
7.24808e-05
4.71061e-05
6.03441e-05
6.92604e-05
4.71021e-05
7.25858e-05
6.90731e-05
3.61824e-05
6.73277e-05
4.03251e-05
6.94429e-05
4.0317e-05
6.90684e-05
3.61858e-05
2.02292e-05
6.75867e-05
4.95311e-05
2.02288e-05
6.77315e-05
3.61822e-05
6.7115e-05
4.03134e-05
6.86078e-05
4.0318e-05
3.6179e-05
6.89899e-05
2.0226e-05
6.79181e-05
4.95376e-05
6.77839e-05
2.02264e-05
7.01216e-05
2.15633e-05
2.1566e-05
2.15632e-05
2.15659e-05
7.02697e-05
7.21769e-05
6.84245e-05
4.70829e-05
6.01632e-05
4.70972e-05
7.19864e-05
6.86422e-05
7.21056e-05
6.83927e-05
4.70925e-05
6.01669e-05
6.86414e-05
7.19461e-05
4.71066e-05
7.00816e-05
2.15666e-05
2.15693e-05
2.15667e-05
6.9931e-05
2.15694e-05
7.24427e-05
4.71121e-05
6.03379e-05
6.92637e-05
4.70973e-05
6.90659e-05
7.26298e-05
7.24218e-05
4.71214e-05
6.03511e-05
6.92989e-05
6.90348e-05
4.71068e-05
7.25381e-05
2.36431e-05
2.36401e-05
3.61819e-05
6.7331e-05
4.032e-05
6.94405e-05
4.03203e-05
6.90633e-05
3.61851e-05
2.0229e-05
6.75822e-05
4.95276e-05
2.02285e-05
6.77292e-05
3.61815e-05
6.71106e-05
4.03135e-05
6.86053e-05
4.0316e-05
3.61784e-05
6.89894e-05
2.02257e-05
6.79204e-05
4.95339e-05
6.77733e-05
2.02261e-05
3.61834e-05
6.73294e-05
6.94165e-05
4.03244e-05
6.90861e-05
4.0315e-05
3.61867e-05
2.02302e-05
6.75948e-05
4.95326e-05
6.77428e-05
2.02296e-05
3.61831e-05
6.70935e-05
6.86288e-05
4.03116e-05
6.89613e-05
3.61799e-05
4.03172e-05
2.02268e-05
6.7932e-05
4.95392e-05
6.77894e-05
2.02273e-05
3.61824e-05
6.73271e-05
4.03253e-05
6.94369e-05
4.03156e-05
6.90676e-05
3.61857e-05
2.02293e-05
6.75801e-05
4.95288e-05
2.02288e-05
6.77268e-05
3.61821e-05
6.71043e-05
4.03124e-05
6.86077e-05
3.61789e-05
4.03181e-05
6.89822e-05
2.0226e-05
6.79164e-05
4.95348e-05
6.77735e-05
2.02264e-05
7.01252e-05
2.15631e-05
2.15663e-05
2.15631e-05
2.15662e-05
7.02615e-05
7.21397e-05
6.84227e-05
4.70867e-05
6.01589e-05
4.70922e-05
7.20105e-05
6.86328e-05
7.21271e-05
6.84174e-05
4.70974e-05
6.01844e-05
6.8625e-05
7.19615e-05
4.71036e-05
7.00756e-05
2.15664e-05
2.15696e-05
2.15665e-05
6.99307e-05
2.15697e-05
7.24775e-05
4.71063e-05
6.0346e-05
6.92734e-05
4.71017e-05
6.90671e-05
7.26007e-05
7.24113e-05
4.71175e-05
6.03422e-05
6.92705e-05
6.90625e-05
4.71127e-05
7.26005e-05
2.36429e-05
2.36398e-05
3.61842e-05
6.73384e-05
6.94342e-05
4.03248e-05
6.90839e-05
4.0316e-05
3.61873e-05
2.02307e-05
6.76006e-05
4.95328e-05
6.77509e-05
2.02302e-05
3.61838e-05
6.70987e-05
6.86221e-05
4.03127e-05
6.89852e-05
3.61807e-05
4.03176e-05
2.02274e-05
6.79391e-05
4.95389e-05
6.77969e-05
2.02278e-05
3.61813e-05
6.73373e-05
6.94407e-05
4.03242e-05
6.90627e-05
4.03154e-05
3.61847e-05
2.02288e-05
6.75757e-05
4.95269e-05
2.02283e-05
6.77346e-05
3.61811e-05
6.70976e-05
6.86043e-05
4.03121e-05
3.61779e-05
6.89876e-05
4.0317e-05
2.02255e-05
6.79244e-05
4.95332e-05
6.77715e-05
2.02259e-05
2.36414e-05
2.36384e-05
2.36401e-05
2.36372e-05
0.00018001
0.000180022
0.000157281
0.000179145
0.000179158
0.00019712
0.000197821
6.88075e-05
8.50925e-05
7.02679e-05
7.02649e-05
0.000176559
0.000176571
0.000153131
0.000175698
0.000175711
0.000194313
0.000195015
7.15009e-05
7.1329e-05
7.13424e-05
8.33981e-05
7.12665e-05
7.13268e-05
7.13043e-05
6.88265e-05
7.03139e-05
7.03059e-05
8.53707e-05
6.86726e-05
7.03833e-05
7.03685e-05
7.06479e-05
8.37061e-05
7.10683e-05
7.10734e-05
7.09967e-05
7.09902e-05
7.08018e-05
6.88893e-05
8.51498e-05
7.05182e-05
7.03027e-05
7.05846e-05
8.38467e-05
7.10125e-05
7.12266e-05
7.10661e-05
7.08801e-05
7.08679e-05
6.88489e-05
7.02037e-05
7.03629e-05
8.52996e-05
7.03372e-05
6.86614e-05
7.05243e-05
7.0636e-05
8.37054e-05
7.12426e-05
7.1048e-05
7.08746e-05
7.10672e-05
7.08093e-05
7.06126e-05
8.3892e-05
7.10477e-05
7.09837e-05
7.08378e-05
7.10407e-05
7.1071e-05
7.14722e-05
7.12905e-05
7.12542e-05
8.36756e-05
7.12984e-05
7.1379e-05
7.1546e-05
7.15243e-05
7.13146e-05
7.11928e-05
8.35885e-05
7.14696e-05
7.12549e-05
7.14041e-05
7.1465e-05
7.12042e-05
7.13292e-05
8.36535e-05
7.13292e-05
7.13049e-05
7.13786e-05
0.000180008
0.00018002
0.000157278
0.000179143
0.000179154
0.000197119
0.000197819
0.000180007
0.000180017
0.000157274
0.000179142
0.000179153
0.000197117
0.000197817
0.000180004
0.000180012
0.000157268
0.00017914
0.000179149
0.000197114
0.000197815
0.000156246
0.000177419
0.000177432
0.000178282
0.000178294
0.000196419
0.000195717
0.000156243
0.000177417
0.000177428
0.00017828
0.000178292
0.000196417
0.000195716
0.000156239
0.000177416
0.000177427
0.000178278
0.000178289
0.000196415
0.000195713
0.000156233
0.000177414
0.000177423
0.000178277
0.000178285
0.000196413
0.000195711
7.30026e-05
6.14562e-05
6.32397e-05
7.66833e-05
6.29526e-05
7.69481e-05
7.31147e-05
6.70223e-05
6.37468e-05
6.21631e-05
6.50908e-05
6.50705e-05
6.36313e-05
6.69024e-05
7.30629e-05
6.14476e-05
7.67754e-05
6.31904e-05
7.68655e-05
6.30112e-05
7.30295e-05
6.687e-05
6.46448e-05
6.29999e-05
6.17695e-05
6.67832e-05
6.46722e-05
6.31218e-05
7.32336e-05
6.10238e-05
7.72712e-05
6.23729e-05
7.32799e-05
7.71662e-05
6.25307e-05
6.69079e-05
6.37609e-05
6.21611e-05
6.51059e-05
6.50512e-05
6.36224e-05
6.70137e-05
6.9328e-05
8.47717e-05
7.05061e-05
7.04879e-05
7.05717e-05
7.05758e-05
6.94907e-05
0.000176557
0.00017657
0.000153126
0.000175696
0.000175707
0.000194311
0.000195014
0.000176555
0.000176566
0.000153123
0.000175695
0.000175706
0.000194309
0.000195011
0.000176554
0.000176563
0.000153118
0.000175693
0.000175703
0.000194307
0.000195009
7.2374e-05
6.39898e-05
6.58937e-05
7.54825e-05
6.56566e-05
7.57773e-05
7.26048e-05
6.74549e-05
6.6462e-05
6.55072e-05
6.38681e-05
6.75715e-05
6.648e-05
6.5677e-05
7.26948e-05
6.35014e-05
6.49628e-05
7.60134e-05
7.25552e-05
6.52194e-05
7.57769e-05
6.78258e-05
6.6359e-05
6.42431e-05
6.69496e-05
6.69347e-05
6.61082e-05
6.76417e-05
7.23959e-05
6.4012e-05
7.5809e-05
6.58731e-05
7.56302e-05
6.57062e-05
7.25701e-05
6.77098e-05
6.64193e-05
6.55101e-05
6.3884e-05
6.73628e-05
6.65218e-05
6.56551e-05
7.25984e-05
6.34953e-05
7.5928e-05
6.50153e-05
7.26079e-05
7.58879e-05
6.51913e-05
6.76314e-05
6.6273e-05
6.42312e-05
6.69906e-05
6.69245e-05
6.61476e-05
6.78074e-05
7.19228e-05
8.32009e-05
7.16238e-05
7.18196e-05
7.16427e-05
7.15769e-05
7.21672e-05
6.93184e-05
8.45771e-05
7.05759e-05
7.05555e-05
6.94671e-05
7.04972e-05
7.04979e-05
7.01307e-05
8.43486e-05
7.07371e-05
7.07321e-05
6.99894e-05
7.08263e-05
7.08204e-05
7.29222e-05
6.14132e-05
6.32457e-05
7.68921e-05
6.29512e-05
7.67396e-05
7.32492e-05
6.69849e-05
6.46335e-05
6.29977e-05
6.17667e-05
6.31193e-05
6.66978e-05
6.46681e-05
7.34599e-05
6.10515e-05
6.23167e-05
7.71551e-05
6.25849e-05
7.31343e-05
7.72748e-05
6.68394e-05
6.37305e-05
6.21579e-05
6.50827e-05
6.36209e-05
6.50528e-05
6.71105e-05
7.31626e-05
6.14285e-05
6.31977e-05
7.69021e-05
6.29842e-05
7.67436e-05
7.29777e-05
6.67478e-05
6.45945e-05
6.29878e-05
6.17614e-05
6.68887e-05
6.31173e-05
6.47112e-05
7.31948e-05
6.10335e-05
6.23367e-05
7.71594e-05
7.32855e-05
6.25541e-05
7.72808e-05
6.70026e-05
6.3745e-05
6.2158e-05
6.51394e-05
6.3612e-05
6.69032e-05
6.50068e-05
7.3064e-05
6.36103e-05
7.64052e-05
6.22653e-05
7.27381e-05
6.39174e-05
7.65721e-05
6.71768e-05
6.60161e-05
6.32202e-05
6.49959e-05
6.59868e-05
6.48954e-05
6.74723e-05
6.73185e-05
6.42676e-05
6.54908e-05
6.28412e-05
6.5552e-05
6.69978e-05
6.44039e-05
7.25885e-05
6.26492e-05
6.45745e-05
7.62745e-05
6.42766e-05
7.60759e-05
7.29086e-05
7.27823e-05
6.36447e-05
7.6405e-05
6.22373e-05
7.30123e-05
6.38704e-05
7.65781e-05
6.73581e-05
6.60544e-05
6.32183e-05
6.50168e-05
6.48768e-05
6.59319e-05
6.72574e-05
6.7048e-05
6.42514e-05
6.54485e-05
6.28402e-05
6.71624e-05
6.44024e-05
6.5588e-05
7.28762e-05
6.26691e-05
6.45138e-05
7.62899e-05
6.43109e-05
7.60829e-05
7.26665e-05
6.92583e-05
8.467e-05
7.04957e-05
7.0713e-05
7.04037e-05
7.05744e-05
6.95386e-05
7.02054e-05
8.42901e-05
7.07881e-05
7.06464e-05
7.07602e-05
6.99325e-05
7.09136e-05
7.31259e-05
6.14448e-05
6.317e-05
7.66803e-05
6.30189e-05
7.69208e-05
7.30604e-05
6.68364e-05
6.45693e-05
6.29784e-05
6.1769e-05
6.31314e-05
6.6798e-05
6.47354e-05
7.3224e-05
6.1028e-05
6.23719e-05
7.73128e-05
6.2532e-05
7.3398e-05
7.70759e-05
6.69057e-05
6.37646e-05
6.21573e-05
6.51708e-05
6.36192e-05
6.50068e-05
6.699e-05
7.29248e-05
6.14257e-05
7.66939e-05
6.31815e-05
7.69272e-05
6.30001e-05
7.32359e-05
6.69718e-05
6.46544e-05
6.29917e-05
6.17581e-05
6.66952e-05
6.31144e-05
6.4645e-05
7.3455e-05
6.10384e-05
7.73031e-05
6.23343e-05
7.31359e-05
7.70911e-05
6.2544e-05
6.68363e-05
6.37507e-05
6.21569e-05
6.50733e-05
6.36028e-05
6.71109e-05
6.50479e-05
7.28361e-05
6.36717e-05
7.65698e-05
6.223e-05
7.286e-05
6.38438e-05
7.63514e-05
6.72533e-05
6.60963e-05
6.32187e-05
6.50423e-05
6.59215e-05
6.48887e-05
6.73716e-05
6.71744e-05
6.42444e-05
6.54292e-05
6.2841e-05
6.55849e-05
6.70642e-05
6.44027e-05
7.27539e-05
6.26758e-05
6.45091e-05
7.60413e-05
6.43362e-05
7.62662e-05
7.2748e-05
7.3052e-05
7.65751e-05
6.36571e-05
6.22174e-05
7.27459e-05
7.6361e-05
6.38475e-05
6.71731e-05
6.59921e-05
6.32188e-05
6.50195e-05
6.48651e-05
6.59615e-05
6.74707e-05
6.7293e-05
6.42505e-05
6.55068e-05
6.2835e-05
6.69925e-05
6.44034e-05
6.55649e-05
7.25904e-05
6.26786e-05
7.60488e-05
6.45209e-05
7.62682e-05
6.43295e-05
7.28924e-05
7.31949e-05
6.13929e-05
7.66877e-05
6.31877e-05
7.69577e-05
6.29995e-05
7.297e-05
6.70232e-05
6.37509e-05
6.21617e-05
6.51481e-05
6.50278e-05
6.36237e-05
6.68849e-05
7.29205e-05
6.36162e-05
7.65903e-05
6.22138e-05
7.28164e-05
6.38794e-05
7.63588e-05
6.73637e-05
6.60032e-05
6.32253e-05
6.50307e-05
6.72732e-05
6.59751e-05
6.48857e-05
6.70422e-05
6.42498e-05
6.55053e-05
6.28379e-05
6.71622e-05
6.55689e-05
6.441e-05
7.26878e-05
6.26792e-05
6.45581e-05
7.60228e-05
7.27814e-05
6.42882e-05
7.62806e-05
7.27426e-05
7.65807e-05
6.365e-05
6.22593e-05
7.29952e-05
7.63456e-05
6.38404e-05
6.73665e-05
6.60287e-05
6.3201e-05
6.50243e-05
6.48848e-05
6.59399e-05
6.72442e-05
6.7016e-05
6.42357e-05
6.54348e-05
6.28407e-05
6.71556e-05
6.43837e-05
6.55615e-05
7.2882e-05
6.26401e-05
7.60377e-05
6.45148e-05
7.62878e-05
6.43237e-05
7.26565e-05
6.93139e-05
8.46194e-05
7.06898e-05
7.05193e-05
7.05605e-05
7.04066e-05
6.95025e-05
7.01614e-05
8.43683e-05
7.06375e-05
7.07823e-05
7.08972e-05
6.99742e-05
7.07867e-05
7.30946e-05
6.14242e-05
7.67601e-05
6.32324e-05
7.68639e-05
6.29556e-05
7.31003e-05
6.68417e-05
6.46209e-05
6.29737e-05
6.17634e-05
6.47023e-05
6.68153e-05
6.31594e-05
7.32858e-05
6.10428e-05
7.72657e-05
6.23183e-05
7.71536e-05
7.33062e-05
6.25822e-05
6.69429e-05
6.37653e-05
6.21569e-05
6.51187e-05
6.50487e-05
6.35794e-05
6.69814e-05
7.28483e-05
7.65121e-05
6.36633e-05
6.22168e-05
7.28611e-05
7.64387e-05
6.38497e-05
6.71949e-05
6.60652e-05
6.32238e-05
6.50415e-05
6.75098e-05
6.59559e-05
6.48914e-05
6.73227e-05
6.425e-05
6.54814e-05
6.2842e-05
6.70352e-05
6.55861e-05
6.44083e-05
7.27267e-05
6.26812e-05
7.61268e-05
6.45034e-05
7.27312e-05
7.62024e-05
6.43282e-05
7.28618e-05
7.65175e-05
6.36196e-05
6.22471e-05
7.28966e-05
7.64238e-05
6.39017e-05
6.72941e-05
6.60253e-05
6.32184e-05
6.50308e-05
6.48386e-05
6.59887e-05
6.73355e-05
6.71461e-05
6.4233e-05
6.54841e-05
6.28381e-05
6.71031e-05
6.44401e-05
6.55621e-05
7.27724e-05
6.26591e-05
7.61162e-05
6.45724e-05
7.62093e-05
6.4276e-05
7.2778e-05
7.01848e-05
8.42003e-05
7.07824e-05
7.07898e-05
6.99734e-05
7.07816e-05
7.07516e-05
7.1979e-05
8.29581e-05
7.17052e-05
7.19043e-05
7.20907e-05
7.16036e-05
7.14845e-05
7.22914e-05
6.39523e-05
6.59402e-05
7.58317e-05
6.56491e-05
7.55312e-05
7.28368e-05
6.75974e-05
6.64228e-05
6.55203e-05
6.39132e-05
6.56669e-05
6.74265e-05
6.64974e-05
7.28615e-05
6.35485e-05
6.49562e-05
7.58129e-05
6.52387e-05
7.24973e-05
7.59961e-05
6.76857e-05
6.63197e-05
6.42152e-05
6.70033e-05
6.61331e-05
6.69369e-05
6.78352e-05
7.25718e-05
6.39664e-05
6.58885e-05
7.58453e-05
6.56704e-05
7.55332e-05
7.24462e-05
6.74669e-05
6.64064e-05
6.55072e-05
6.39109e-05
6.75501e-05
6.56796e-05
6.64668e-05
7.25474e-05
6.35304e-05
6.49951e-05
7.58107e-05
7.27531e-05
6.52287e-05
7.6009e-05
6.7828e-05
6.63609e-05
6.42181e-05
6.69113e-05
6.61054e-05
6.76539e-05
6.69499e-05
7.19114e-05
8.30362e-05
7.16501e-05
7.1857e-05
7.15051e-05
7.16083e-05
7.21705e-05
7.24491e-05
6.39912e-05
6.58548e-05
7.57365e-05
6.57026e-05
7.57117e-05
7.2628e-05
6.7616e-05
6.63643e-05
6.55078e-05
6.39104e-05
6.56549e-05
6.74563e-05
6.66221e-05
7.26538e-05
6.3519e-05
6.50102e-05
7.59648e-05
6.52046e-05
7.26534e-05
7.58599e-05
6.77045e-05
6.62655e-05
6.42227e-05
6.7113e-05
6.6147e-05
6.68388e-05
6.78662e-05
7.22959e-05
6.39904e-05
7.57387e-05
6.58855e-05
7.57189e-05
6.56825e-05
7.28163e-05
6.76945e-05
6.64245e-05
6.55006e-05
6.38646e-05
6.73895e-05
6.56709e-05
6.65332e-05
7.28477e-05
6.35171e-05
7.59729e-05
6.50028e-05
7.2505e-05
7.58638e-05
6.52108e-05
6.75792e-05
6.62732e-05
6.42486e-05
6.70602e-05
6.6123e-05
6.80473e-05
6.68996e-05
7.25763e-05
6.39572e-05
7.57279e-05
6.59246e-05
7.57373e-05
6.56707e-05
7.24333e-05
6.74575e-05
6.63953e-05
6.54884e-05
6.3902e-05
6.65155e-05
6.75466e-05
6.56704e-05
7.25427e-05
6.35346e-05
7.59823e-05
6.49883e-05
7.58543e-05
7.27637e-05
6.52109e-05
6.77767e-05
6.63237e-05
6.42112e-05
6.70676e-05
6.68881e-05
6.61118e-05
6.79025e-05
7.19671e-05
8.30051e-05
7.16595e-05
7.16116e-05
7.16697e-05
7.15916e-05
7.21884e-05
7.25598e-05
6.39885e-05
7.56e-05
6.59363e-05
7.57052e-05
6.563e-05
7.28156e-05
6.75482e-05
6.64336e-05
6.54839e-05
6.387e-05
6.65548e-05
6.74936e-05
6.57126e-05
7.26797e-05
6.35128e-05
7.59297e-05
6.49575e-05
7.58551e-05
7.2659e-05
6.52464e-05
6.7738e-05
6.63089e-05
6.42411e-05
6.71032e-05
6.68853e-05
6.6098e-05
6.78227e-05
0.000233969
0.000233543
0.000233542
0.000233423
0.000232522
0.000227497
0.00022749
0.000223671
0.000230468
0.000220035
0.000220027
0.000208838
0.000227724
0.000211405
0.000211392
0.000193565
0.000224341
0.000202417
0.000202403
0.000179536
0.000220449
0.000193566
0.000193556
0.00016722
0.000216197
0.000185098
0.00018509
0.000156498
0.000211713
0.000177082
0.000177076
0.000147146
0.000207102
0.000169558
0.000169552
0.000138929
0.000202445
0.000162498
0.000162492
0.000131639
0.000197796
0.000155846
0.000155841
0.000124981
0.000193187
0.000149549
0.000149546
0.000118889
0.000188601
0.000143566
0.000143564
0.000113132
0.000184072
0.000137847
0.000137843
0.000107907
0.00017963
0.00013235
0.000132343
0.000102984
0.000175263
0.000127063
0.000127057
9.83334e-05
0.00017096
0.000122007
0.000122001
9.41062e-05
0.000166707
0.000117211
0.000117205
9.05114e-05
0.000162504
0.000112705
0.000112699
8.75769e-05
0.000108548
8.5267e-05
0.000234259
0.000234466
0.000234466
0.000234253
0.000234466
0.000234468
0.000234259
0.00023426
0.00023426
0.000234261
0.000234466
0.000234471
0.000234259
0.000234465
0.000234471
0.000234251
0.00023343
0.000226078
0.00023354