/*--------------------------------*- C++ -*----------------------------------*\
| =========                 |                                                 |
| \\      /  F ield         | OpenFOAM: The Open Source CFD Toolbox           |
|  \\    /   O peration     | Version:  2312                                  |
|   \\  /    A nd           | Website:  www.openfoam.com                      |
|    \\/     M anipulation  |                                                 |
\*---------------------------------------------------------------------------*/
FoamFile
{
    version     2.0;
    format      ascii;
    arch        "LSB;label=32;scalar=64";
    class       surfaceScalarField;
    location    "550";
    object      phi;
}
// * * * * * * * * * * * * * * * * * * * * * * * * * * * * * * * * * * * * * //

dimensions      [0 3 -1 0 0 0 0];

oriented        oriented;

internalField   nonuniform List<scalar> 
124832
(
-8.76367e-07
-8.82314e-07
4.55814e-07
4.57255e-07
0.00114043
-0.00113959
-1.51896e-06
8.76942e-07
4.45295e-07
0.00113301
-5.32574e-07
1.10754e-06
1.27613e-07
7.2479e-07
-5.90798e-07
-1.27335e-06
5.84204e-08
-0.00113244
-8.57245e-07
-8.57585e-07
-0.00114291
4.42607e-07
4.43806e-07
0.00114374
-0.00113482
-1.51675e-06
8.57577e-07
4.19224e-07
0.00113536
-5.21591e-07
1.11685e-06
1.34159e-07
7.32308e-07
-5.75244e-07
-1.2594e-06
6.75492e-08
-0.00113469
-1.51397e-06
8.57371e-07
4.24706e-07
0.00113523
-5.21604e-07
1.11426e-06
1.34162e-07
7.32427e-07
-5.75331e-07
-1.25948e-06
6.78493e-08
-0.000276279
1.54551e-06
1.50864e-06
-4.99895e-07
-5.0287e-07
0.000274227
1.56146e-06
1.52216e-06
-5.07939e-07
-5.15888e-07
0.00027407
-0.00027613
-1.15831e-06
-1.11525e-06
0.000276353
-0.000274237
7.56651e-08
8.12491e-08
4.35713e-07
0.0011326
-5.35135e-07
1.15063e-06
1.30745e-07
7.30031e-07
-5.9097e-07
-1.27906e-06
5.81696e-08
-0.00113201
8.71139e-07
4.36142e-07
0.00113266
1.14763e-06
1.33207e-07
7.29937e-07
-5.90821e-07
-1.27875e-06
5.82187e-08
-0.00113208
-1.55647e-06
-5.35663e-07
0.00113427
8.6203e-07
-0.00113374
4.38892e-07
-1.55799e-06
1.41542e-07
-5.29935e-07
-1.26882e-06
6.52112e-08
-5.79471e-07
7.35936e-07
1.15275e-06
0.00113435
8.62136e-07
-0.0011338
4.28421e-07
-1.55556e-06
1.38171e-07
-5.27475e-07
-1.26856e-06
6.52818e-08
-5.79254e-07
7.35752e-07
-1.11523e-06
0.000276335
-0.000274221
7.57896e-08
7.83782e-08
4.35077e-07
0.00113358
-5.329e-07
1.11027e-06
1.27446e-07
7.30317e-07
-5.90694e-07
-1.27855e-06
5.86995e-08
-0.001133
-1.55369e-06
8.76068e-07
4.36041e-07
0.00113255
-5.38291e-07
1.1423e-06
1.33412e-07
7.30287e-07
-5.90701e-07
-1.27858e-06
5.50032e-08
-0.00113196
0.00113527
8.62353e-07
-0.00113472
4.27661e-07
-1.51853e-06
1.32278e-07
-5.24738e-07
-1.26841e-06
6.56638e-08
-5.79194e-07
7.36016e-07
1.14743e-06
0.00113423
8.61344e-07
-0.00113368
4.28481e-07
-1.55001e-06
1.3842e-07
-5.30051e-07
-1.26837e-06
6.2171e-08
-5.76461e-07
7.36037e-07
8.62383e-07
-0.00113427
4.32719e-07
-1.51807e-06
1.32588e-07
-5.24416e-07
-1.26295e-06
6.52717e-08
7.30426e-07
-5.79125e-07
1.1446e-06
0.00113386
8.6182e-07
-0.0011333
4.28354e-07
-1.5469e-06
1.35617e-07
-5.26957e-07
-1.26001e-06
5.86517e-08
-5.73438e-07
7.27657e-07
-5.109e-07
-5.15721e-07
0.000274045
-0.000276091
-1.10987e-06
0.000276309
-0.000274209
7.60937e-08
8.11546e-08
7.76037e-07
2.5539e-07
0.00113308
1.06634e-06
1.15382e-07
7.27266e-07
-5.87932e-07
5.86388e-08
-1.27577e-06
-1.58662e-06
-0.00113209
-5.43559e-07
8.62109e-07
-0.00113414
4.27095e-07
-1.51259e-06
1.32546e-07
-5.24382e-07
-1.26308e-06
6.56002e-08
7.30544e-07
-5.79141e-07
1.1071e-06
0.00113483
8.61881e-07
-0.00113428
4.27195e-07
-1.51007e-06
1.32521e-07
-5.2453e-07
-1.26538e-06
6.57527e-08
-5.79089e-07
7.33191e-07
-0.000274181
7.57957e-08
7.86823e-08
1.5594e-06
1.51714e-06
-5.00238e-07
-5.05493e-07
0.000274283
4.14513e-07
0.00113482
-5.30004e-07
1.15995e-06
1.4305e-07
7.37676e-07
-5.75679e-07
-1.26532e-06
6.73277e-08
-1.5542e-06
8.57645e-07
4.25965e-07
0.00113489
-5.27318e-07
1.15439e-06
1.39807e-07
7.37811e-07
-5.75411e-07
-1.26494e-06
6.43003e-08
-5.00314e-07
-5.02618e-07
0.000274267
4.25217e-07
0.00113581
-5.21927e-07
1.1169e-06
1.33925e-07
7.3784e-07
-5.75334e-07
-1.26485e-06
6.78715e-08
-1.54863e-06
8.56562e-07
4.26037e-07
0.00113477
-5.27268e-07
1.14908e-06
1.40005e-07
7.37882e-07
-5.72539e-07
-1.26477e-06
6.44758e-08
8.56991e-07
4.25819e-07
0.00113439
-5.24148e-07
1.14624e-06
1.37244e-07
7.29527e-07
-5.69625e-07
6.09284e-08
-1.25647e-06
-5.00436e-07
-5.05211e-07
0.000274252
8.57137e-07
4.24616e-07
0.00113537
-5.2169e-07
1.10873e-06
1.3414e-07
7.3504e-07
-5.75209e-07
6.80292e-08
-1.26179e-06
-2.16155e-10
9.37512e-08
0.000237628
-0.000237702
-1.06371e-08
-8.3969e-09
-3.73817e-09
1.5147e-07
-2.07413e-08
0.000198051
-0.000198178
-8.22525e-11
2.77004e-07
0.000237945
-9.49952e-08
-1.30695e-08
-0.000238114
1.50505e-08
3.11782e-08
0.000197841
-5.53214e-09
-0.000197882
-1.47469e-08
5.28631e-09
9.92825e-05
-9.92731e-05
9.35429e-08
-2.32309e-10
0.000237614
-0.000237688
-8.42302e-09
-1.05385e-08
-4.02203e-09
1.51241e-07
-2.06798e-08
0.000198032
-0.000198158
2.76804e-07
1.46618e-10
0.000237931
-1.34209e-08
-9.49184e-08
-0.0002381
1.53253e-08
3.08143e-08
0.000197824
-5.74209e-09
-0.000197865
4.62031e-07
4.35255e-07
0.00114019
-8.77074e-07
-0.00113934
4.56414e-07
4.84145e-07
0.00114001
-0.0011392
4.0644e-07
4.29397e-07
0.00113994
-1.04351e-06
-0.00113896
-0.00114209
4.55575e-07
4.51305e-07
0.00114269
-0.00114187
4.50522e-07
4.51145e-07
0.00114249
-0.00114167
4.50126e-07
4.50638e-07
0.00114245
-0.00114163
4.50101e-07
4.51017e-07
-9.38566e-08
-1.83689e-09
0.000261357
-0.000261286
-2.74933e-08
5.22705e-08
4.26791e-07
1.11189e-06
0.0011337
8.72135e-07
-1.26977e-06
6.06385e-08
-5.86834e-07
7.26476e-07
-1.5206e-06
1.2924e-07
-5.299e-07
-0.00113312
4.60619e-09
-3.11243e-08
0.000254116
2.03096e-08
-0.00025415
4.0547e-08
-1.79276e-08
0.00113384
9.24484e-07
-1.38047e-06
5.74354e-07
-1.20866e-06
7.71319e-07
-0.00113308
4.25067e-09
6.75943e-08
9.93322e-05
-9.9404e-05
-1.49211e-08
7.86715e-09
9.92746e-05
-9.92676e-05
-4.26271e-10
-9.37377e-08
0.000261344
-0.000261277
5.48871e-08
-2.80373e-08
0.00113294
5.28576e-08
9.28121e-07
7.71615e-07
-1.21088e-06
-1.38328e-06
5.72107e-07
-0.00113223
-7.05622e-08
-1.51293e-07
3.37758e-07
7.62389e-08
0.000254363
-0.000254555
4.42912e-07
1.10653e-06
0.00113358
8.71935e-07
-1.26992e-06
6.09062e-08
-5.86874e-07
7.26694e-07
-1.51778e-06
1.29285e-07
-5.29847e-07
1.69603e-09
-2.76828e-07
0.000261428
5.31025e-07
-3.52848e-08
-0.000261648
1.86965e-08
0.00113368
9.23839e-07
-1.38056e-06
5.77256e-07
-1.20595e-06
7.74182e-07
4.50989e-09
-3.10101e-08
0.000254103
2.02143e-08
-0.00025414
4.29886e-08
-1.1467e-06
-1.09823e-06
0.000276177
-0.000274074
6.54117e-08
7.61527e-08
-4.68489e-09
-7.75769e-09
0.000285615
2.26134e-08
-0.000285686
6.07318e-08
-4.78617e-09
-7.87675e-09
0.000285531
2.32378e-08
-0.000285603
6.06299e-08
-2.11547e-10
7.71832e-08
-0.000236783
-5.80625e-09
-6.62366e-09
-0.000197529
-3.35468e-09
1.40587e-07
-1.76955e-08
0.000197409
-0.000237162
-6.68863e-11
2.57534e-07
0.000237004
-8.8308e-08
-1.13466e-08
1.40047e-08
2.27085e-08
-3.74191e-09
-0.000197259
-9.91581e-05
5.07129e-09
6.35029e-08
9.90895e-05
-1.37912e-08
4.44673e-09
-9.90295e-05
7.70181e-08
-1.27009e-10
-0.00023677
-6.71717e-09
-5.72867e-09
-0.000197508
-4.9647e-09
1.40244e-07
-1.79149e-08
0.00019739
-0.000237149
2.57375e-07
1.80532e-10
0.000236992
-1.1605e-08
-8.82919e-08
1.39463e-08
2.25619e-08
-3.58367e-09
-0.000197241
4.48639e-07
4.49349e-07
0.00114351
4.48168e-07
4.4875e-07
0.00114331
4.48132e-07
4.49033e-07
0.00114327
-7.73279e-08
-1.38707e-09
-0.000260653
-2.29629e-08
3.61608e-08
-0.000253676
-6.796e-08
-1.42412e-07
3.23035e-07
6.91078e-08
0.000253494
0.00113602
-0.00113532
2.78706e-09
9.11109e-07
7.81047e-07
-1.19903e-06
-1.36964e-06
5.84077e-07
4.27976e-07
1.11848e-06
8.52792e-07
-1.2558e-06
6.97594e-08
-5.71442e-07
7.34151e-07
-1.51529e-06
1.35761e-07
-5.18826e-07
-0.000261043
-2.57314e-07
1.62312e-09
0.000260815
-3.03967e-08
5.14125e-07
7.5374e-09
-2.04975e-08
1.49217e-08
-0.000253282
2.85698e-08
-4.03131e-09
9.06766e-07
-1.36932e-06
5.83534e-07
-1.19928e-06
7.80498e-07
-9.91512e-05
4.88968e-09
6.35141e-08
9.90828e-05
-1.41247e-08
4.71146e-09
-9.90241e-05
-7.50605e-10
-7.72659e-08
-0.000260643
3.6124e-08
-2.27653e-08
0.00113586
-0.00113514
4.54126e-09
9.10817e-07
7.81179e-07
-1.2019e-06
-1.3725e-06
5.81278e-07
-0.000253665
-6.80203e-08
-1.40281e-07
3.20591e-07
6.91502e-08
0.000253484
4.22421e-07
1.11589e-06
8.52544e-07
-1.25592e-06
7.0086e-08
-5.71449e-07
7.34256e-07
-1.51248e-06
1.3279e-07
-5.18733e-07
-0.000261033
9.94061e-10
-2.57389e-07
0.000260806
5.1424e-07
-3.05989e-08
-3.17512e-09
9.06438e-07
-1.36944e-06
5.86408e-07
-1.19655e-06
7.83428e-07
7.46913e-09
-2.26191e-08
1.47392e-08
-0.000253272
3.10506e-08
-0.000285135
6.80294e-08
-6.34765e-08
1.7974e-07
-1.36027e-08
0.000284965
-0.000285052
6.7954e-08
-6.35209e-08
1.74913e-07
-1.38438e-08
0.000284887
-1.14789e-06
-1.11039e-06
-0.000274269
8.08846e-08
8.37494e-08
-7.66985e-09
-4.5235e-09
2.11723e-08
-0.000284736
4.89885e-08
-7.77924e-09
-4.67043e-09
2.18861e-08
-0.000284659
5.35554e-08
6.94113e-08
9.93601e-05
-9.94332e-05
7.87176e-09
9.93047e-05
-9.92975e-05
6.73935e-08
9.93491e-05
-9.94205e-05
7.35499e-09
9.92914e-05
-9.92834e-05
7.29511e-08
1.88876e-07
-1.31969e-08
0.000285992
-0.000286171
7.04292e-08
1.90781e-07
-1.30826e-08
0.000285915
-0.000286096
0.000276249
-1.15229e-06
-1.11194e-06
-0.000274129
6.79591e-08
7.62343e-08
0.000285669
-1.98136e-09
2.52554e-08
-0.000285743
5.83455e-08
0.000285594
-2.01295e-09
2.24427e-08
-0.000285665
5.78681e-08
6.13914e-09
-1.40126e-08
9.91791e-05
-9.91712e-05
6.5719e-08
4.73535e-09
9.92342e-05
6.04533e-09
-1.4409e-08
9.91679e-05
-9.91596e-05
6.55202e-08
4.65201e-09
9.92212e-05
1.55919e-06
1.5198e-06
0.000274184
-5.02861e-07
-5.1078e-07
-6.08622e-09
0.000285189
5.35824e-08
-0.000285253
2.18441e-08
-3.4989e-09
0.000285115
5.33632e-08
-0.00028518
2.18431e-08
6.79929e-08
-1.5912e-08
1.85642e-07
0.000285497
6.80478e-08
-1.3385e-08
1.85098e-07
0.00028542
9.36798e-08
0.000237585
-0.00023766
-1.05975e-08
-8.40885e-09
1.53515e-07
-2.03046e-08
0.000197984
-4.26779e-09
-0.000198113
2.7691e-07
0.000237903
-9.49211e-08
-1.36376e-08
-0.000238071
2.87245e-08
0.000197781
-5.02239e-09
-0.00019782
-9.59083e-10
0.000261373
-0.000261303
-2.78015e-08
5.21766e-08
3.40515e-07
7.60204e-08
0.000254378
-0.00025457
0.00113336
3.75124e-09
9.29664e-07
7.77363e-07
-1.21659e-06
-1.38897e-06
5.8044e-07
-0.00113261
4.32605e-07
0.00113317
8.71442e-07
-1.56037e-06
1.35338e-07
-5.32547e-07
-1.27569e-06
6.05007e-08
-5.87098e-07
7.31931e-07
7.42107e-10
0.000261453
-3.40235e-08
5.31241e-07
-0.000261674
0.000254116
2.0152e-08
-0.000254147
4.0658e-08
-3.50017e-09
0.00113412
9.19512e-07
-1.38642e-06
5.82761e-07
-1.21445e-06
7.79745e-07
0.000261344
-0.000261277
-2.66777e-08
5.21049e-08
3.40211e-07
7.62952e-08
0.000254269
-0.000254459
-7.31156e-08
0.00113331
9.23999e-07
7.77207e-07
-1.21651e-06
-1.38864e-06
5.8045e-07
-0.00113255
4.33666e-07
0.00113324
1.14938e-06
8.71868e-07
-1.27547e-06
6.06649e-08
7.31858e-07
-5.87036e-07
-1.55809e-06
1.34912e-07
-5.35732e-07
0.000261427
-3.58613e-08
5.31149e-07
-0.000261644
0.000254007
4.26837e-09
2.04667e-08
-0.000254043
4.03795e-08
0.00113406
9.19558e-07
-1.38609e-06
5.82774e-07
-1.21439e-06
7.79564e-07
-7.19731e-11
2.67081e-07
-9.14541e-08
-1.21453e-08
0.000237464
2.66294e-08
-0.000197565
-4.04463e-09
1.4579e-07
-2.16007e-08
0.000197722
-2.73234e-10
8.5198e-08
-0.000237232
-7.9554e-09
-7.39449e-09
2.67023e-07
-9.14346e-08
-1.26999e-08
0.000237422
2.67049e-08
1.39256e-08
0.000197458
-0.000197495
-3.65334e-09
1.47903e-07
-4.92746e-09
-1.87905e-08
0.000197657
8.51726e-08
0.00023712
-0.00023719
-7.99841e-09
-7.74953e-09
7.86468e-10
-3.19123e-08
5.22953e-07
0.000261148
4.24835e-07
8.66937e-07
1.15392e-06
-5.32648e-07
1.3693e-07
7.33898e-07
-5.83366e-07
6.28136e-08
-1.27232e-06
0.000253678
3.43108e-08
-0.000253709
1.74352e-08
-0.00113485
-3.52339e-09
0.00113559
9.16246e-07
-1.38109e-06
5.84602e-07
-1.20719e-06
7.84452e-07
7.00122e-08
3.3192e-07
0.000253928
3.67235e-09
9.20757e-07
7.82049e-07
-1.20952e-06
-1.38386e-06
5.82266e-07
-9.36387e-10
0.000261059
-0.000260991
-2.56795e-08
4.41096e-08
-3.38917e-08
5.22879e-07
0.000261123
4.31318e-07
-1.55687e-06
8.6697e-07
7.33828e-07
-5.83104e-07
-1.27205e-06
6.29869e-08
1.15108e-06
-5.30187e-07
1.33567e-07
3.26729e-09
0.000253569
3.43573e-08
-0.000253598
1.76613e-08
-0.0011348
0.00113553
9.16249e-07
-1.38073e-06
5.846e-07
-1.20712e-06
7.84313e-07
-7.06336e-08
7.27006e-08
3.31651e-07
0.000253821
9.20744e-07
7.81957e-07
-1.20943e-06
-1.38346e-06
5.82275e-07
0.000261029
-0.000260965
-2.42893e-08
4.40667e-08
0.000276233
-0.000274116
7.07434e-08
7.32726e-08
0.00028553
2.27709e-08
-0.000285604
6.06254e-08
-7.8438e-09
0.000285686
2.2842e-08
-0.000285755
5.85122e-08
9.92988e-05
-1.47828e-08
-9.92919e-05
6.45546e-09
-9.91506e-05
6.77985e-08
9.92098e-05
1.51945e-06
0.000274171
-5.05746e-07
-5.07969e-07
0.000285056
5.35903e-08
-0.000285122
2.20474e-08
-3.9442e-09
-6.13423e-09
0.000285203
5.373e-08
-0.000285269
2.22269e-08
-1.3593e-08
1.85251e-07
0.000285356
-6.53908e-08
7.04549e-08
-1.33689e-08
1.85353e-07
0.000285509
-1.4458e-08
9.91775e-05
-9.9167e-05
4.67508e-09
9.92287e-05
-1.73954e-09
0.000261365
-0.000261294
-2.74001e-08
5.19766e-08
3.37603e-07
7.61959e-08
0.000254338
-0.00025453
0.00113321
3.07497e-09
9.33697e-07
7.77324e-07
-1.21348e-06
-1.38842e-06
5.77846e-07
-0.00113247
4.32268e-07
0.00113416
8.71815e-07
-1.52098e-06
1.29073e-07
-5.30182e-07
-1.27528e-06
6.11524e-08
-5.86763e-07
7.3219e-07
1.76677e-09
0.000261444
-3.5231e-08
5.30979e-07
-0.000261665
0.000254078
2.006e-08
-0.000254112
4.28003e-08
-4.18873e-09
0.00113396
9.23563e-07
-1.38595e-06
5.80174e-07
-1.21133e-06
7.79824e-07
9.35179e-08
0.000237572
-0.000237647
-1.05408e-08
-8.71591e-09
1.51338e-07
-2.05157e-08
0.000197971
-0.000198098
2.7676e-07
0.00023789
-9.48954e-08
-1.32383e-08
-0.000238058
3.12415e-08
0.000197764
-5.52787e-09
-0.000197805
0.000261334
-0.000261267
5.19462e-08
-2.71114e-08
0.00113317
9.28143e-07
7.77488e-07
-1.21349e-06
-1.3884e-06
5.77869e-07
-0.00113241
-7.31432e-08
3.35175e-07
7.62263e-08
0.000254255
-0.000254442
4.33652e-07
0.00113312
1.14403e-06
8.82058e-07
-1.27524e-06
5.74991e-08
7.32225e-07
-5.84132e-07
-1.55253e-06
1.35072e-07
-5.3558e-07
0.000261417
5.30912e-07
-3.54936e-08
-0.000261634
0.00113391
9.29505e-07
-1.38572e-06
5.80214e-07
-1.21133e-06
7.8006e-07
0.00025399
4.75436e-09
1.98565e-08
-0.000254029
4.5917e-08
2.66899e-07
1.30629e-10
-1.24358e-08
-9.13901e-08
0.000237451
2.65497e-08
-0.000197544
-4.37669e-09
1.45617e-07
-1.91623e-08
0.000197703
8.50595e-08
-1.60757e-10
-0.000237219
-7.54641e-09
-7.96771e-09
1.76571e-09
-3.30673e-08
5.22678e-07
0.000261141
4.29878e-07
8.67105e-07
1.1136e-06
-5.27528e-07
1.30686e-07
7.34074e-07
-5.83067e-07
6.3309e-08
-1.27189e-06
0.00025364
3.6845e-08
-0.000253671
1.73357e-08
-0.00113469
-3.83148e-09
0.00113543
9.15093e-07
-1.38067e-06
5.84775e-07
-1.20683e-06
7.84377e-07
7.25799e-08
3.29037e-07
0.00025389
3.17191e-09
9.24822e-07
7.82002e-07
-1.20917e-06
-1.38334e-06
5.8244e-07
-1.73806e-09
0.000261051
-0.000260981
-2.47053e-08
4.11423e-08
2.6689e-07
-9.1394e-08
-1.23229e-08
0.000237409
2.68903e-08
1.44731e-08
0.000197447
-0.000197484
-4.66832e-09
1.45666e-07
-4.60943e-09
-1.91975e-08
0.000197642
8.50601e-08
0.000237107
-0.000237177
-7.97883e-09
-7.7227e-09
5.22708e-07
-3.33428e-08
0.000261113
4.25628e-07
-1.55133e-06
8.66154e-07
7.34096e-07
-5.80208e-07
-1.27179e-06
5.99117e-08
1.14572e-06
-5.32841e-07
1.36706e-07
-0.00113464
0.00113537
9.15313e-07
-1.38047e-06
5.84798e-07
-1.20686e-06
7.84646e-07
6.34714e-09
0.000253552
3.98603e-08
-0.000253589
1.69382e-08
9.251e-07
7.82315e-07
-1.20918e-06
-1.38315e-06
5.82462e-07
-7.04802e-08
7.25451e-08
3.26514e-07
0.000253807
0.00026102
-0.000260953
4.11406e-08
-2.43975e-08
3.59761e-11
0.000237608
-0.000237685
-8.75177e-09
-8.555e-09
0.000197828
-5.2205e-09
-0.000197869
-9.37484e-08
0.000261327
-0.00026126
5.21437e-08
-2.73687e-08
4.49577e-07
0.00113275
8.77005e-07
-1.54938e-06
1.35282e-07
-5.32635e-07
-1.2697e-06
5.73202e-08
-5.86702e-07
7.23776e-07
-0.0011322
0.00113376
9.24272e-07
-1.38042e-06
5.7723e-07
-1.20869e-06
7.74136e-07
-0.00113301
-3.12393e-08
0.000254033
1.99989e-08
-0.000254072
4.60353e-08
0.00023757
-0.000237645
-1.06589e-08
-8.75331e-09
0.00019777
1.48607e-08
-5.49401e-09
-0.00019781
-2.66847e-07
1.35301e-09
-3.26766e-08
5.22709e-07
0.000261133
4.24293e-07
8.67268e-07
1.11356e-06
-5.27199e-07
1.30853e-07
7.28425e-07
-5.82902e-07
-1.26647e-06
6.30096e-08
-2.44942e-08
3.44373e-08
-0.000253709
1.74911e-08
-0.00113457
-5.45318e-09
9.15559e-07
-1.37517e-06
5.78965e-07
7.7597e-07
-1.20418e-06
-1.45444e-07
7.25291e-08
3.31432e-07
0.000253928
-1.27536e-09
9.20007e-07
7.76346e-07
-1.20373e-06
-1.37517e-06
5.79439e-07
-8.53818e-08
-1.49409e-09
-0.000260975
-2.51773e-08
4.42196e-08
9.14746e-11
-1.25055e-08
-9.35187e-08
0.000237447
0.000197513
-0.000197548
-4.33711e-09
-1.8875e-08
0.000197706
1.40096e-10
0.000237143
-0.000237215
-8.06308e-09
-5.99973e-09
-2.66921e-07
5.22723e-07
-3.35753e-08
0.000261106
4.36204e-07
-1.5509e-06
8.66801e-07
7.25662e-07
-5.80077e-07
-1.2636e-06
5.62755e-08
1.14566e-06
-5.32481e-07
1.36974e-07
-0.0011345
0.00113523
9.15673e-07
-1.37503e-06
5.81839e-07
-1.20417e-06
7.78817e-07
-2.68331e-08
6.24024e-09
0.000253595
3.46063e-08
-0.000253626
1.72385e-08
9.19985e-07
7.76431e-07
-1.2065e-06
-1.37777e-06
5.79512e-07
-1.45639e-07
-7.0526e-08
7.24645e-08
3.28986e-07
0.000253848
-8.52776e-08
0.00026101
-0.000260949
4.69401e-08
-2.43829e-08
-9.14018e-08
-1.2466e-08
0.000237407
1.43767e-08
0.000197453
-0.00019749
-4.55491e-09
-4.61972e-09
-1.91675e-08
0.000197648
0.000237105
-0.000237175
-8.08029e-09
-7.32657e-09
1.86373e-07
-1.36133e-08
0.000285854
-0.000286033
-6.76005e-08
1.88702e-07
-1.37053e-08
0.000285997
-0.000286174
0.000276208
-0.000274104
7.09786e-08
7.60509e-08
0.000285529
2.3143e-08
-0.000285603
6.31149e-08
-7.70806e-09
0.000285671
2.29495e-08
-0.000285742
6.07236e-08
4.2066e-09
9.93556e-05
-9.94274e-05
9.92982e-05
-1.48173e-08
-9.9291e-05
6.21061e-09
-9.91429e-05
6.5502e-08
9.92045e-05
1.51388e-06
0.000274159
-5.05771e-07
-5.10592e-07
0.00028505
5.82935e-08
-0.000285118
2.24513e-08
-6.02583e-09
-6.07257e-09
0.000285191
5.58261e-08
-0.00028526
2.48996e-08
-1.3767e-08
1.8059e-07
0.000285357
-6.54825e-08
7.04492e-08
-1.64881e-08
1.82948e-07
0.000285499
-1.43183e-08
9.91748e-05
-9.91665e-05
4.64401e-09
9.9228e-05
-9.11199e-08
0.000261312
-0.000261248
5.20565e-08
-2.56012e-08
0.00113287
9.57135e-07
7.7428e-07
-1.21076e-06
5.72085e-07
-1.38559e-06
-0.00113227
-1.51395e-07
3.40214e-07
7.62128e-08
0.000254253
-7.30144e-08
-0.000254445
3.94082e-07
0.00113371
8.66358e-07
-1.51535e-06
1.23093e-07
-5.32816e-07
-1.27236e-06
6.10663e-08
-5.84077e-07
7.29339e-07
-2.79252e-07
0.000261399
5.33632e-07
-3.54796e-08
-0.000261616
0.00113359
9.23952e-07
-1.38299e-06
5.77249e-07
-1.20583e-06
7.76757e-07
-3.10862e-08
0.000253993
2.00001e-08
-0.00025403
4.28748e-08
8.91435e-11
0.000237603
-0.000237678
-8.47644e-09
-1.06493e-08
-2.04655e-08
0.00019803
-0.000198157
3.07462e-10
0.000237921
-1.35473e-08
-9.48878e-08
-0.00023809
0.000197823
-5.23991e-09
-0.000197863
0.000237564
-0.000237636
-8.13748e-09
-1.05856e-08
-2.0607e-08
0.000197967
-0.000198094
-4.196e-09
0.000237879
-1.34119e-08
-9.48599e-08
-0.00023805
0.00019776
1.49825e-08
-5.52237e-09
-0.0001978
1.25268e-09
-2.66918e-07
5.20119e-07
-3.29565e-08
0.000261123
4.3513e-07
8.671e-07
1.10819e-06
-5.27155e-07
1.30928e-07
7.28609e-07
-5.83035e-07
-1.26647e-06
6.32561e-08
-0.00113441
-9.45373e-10
9.15112e-07
-1.37528e-06
5.81857e-07
7.78918e-07
-1.20149e-06
-2.66249e-08
3.689e-08
-0.000253699
1.73485e-08
1.13372e-08
9.19721e-07
7.76604e-07
-1.20655e-06
-1.37792e-06
5.76721e-07
-1.45608e-07
7.25693e-08
3.28993e-07
0.000253918
-7.43326e-10
-8.52672e-08
-0.000260966
4.41452e-08
-2.52669e-08
-2.69361e-07
5.22624e-07
-3.37654e-08
0.000261094
4.24193e-07
-1.51136e-06
8.66909e-07
7.31246e-07
-5.82949e-07
-1.26884e-06
6.34276e-08
1.10543e-06
-5.27246e-07
1.30875e-07
-0.00113434
0.00113506
9.14811e-07
-1.37753e-06
5.81891e-07
-1.20129e-06
7.81373e-07
-2.67308e-08
6.37308e-09
0.000253556
3.94982e-08
-0.000253592
1.7057e-08
9.19294e-07
7.78984e-07
-1.2064e-06
-1.38026e-06
5.76717e-07
-1.45659e-07
-7.03861e-08
7.25133e-08
3.28984e-07
0.000253808
-8.26449e-08
0.000261001
-0.000260937
4.12062e-08
-2.33564e-08
3.12507e-10
-1.26737e-08
-9.13592e-08
0.00023744
0.000197506
-0.000197543
-4.30158e-09
-1.90748e-08
0.000197701
-4.33651e-13
0.000237138
-0.000237208
-7.55071e-09
-8.11702e-09
-1.24575e-08
-9.13372e-08
0.000237398
1.44935e-08
0.000197443
-0.00019748
-4.61299e-09
-4.5524e-09
-1.92728e-08
0.000197638
0.000237099
-0.000237166
-7.14351e-09
-8.04315e-09
9.92776e-05
-9.92705e-05
9.92725e-05
-9.92654e-05
0.000274128
-5.05307e-07
-5.08226e-07
-6.06631e-09
5.35403e-08
-0.000285198
2.18484e-08
-6.18952e-09
5.81111e-08
-0.00028512
2.25462e-08
-6.55143e-08
-1.34177e-08
1.83003e-07
0.00028544
-6.55418e-08
-1.3707e-08
1.82931e-07
0.000285357
9.91542e-05
-9.91459e-05
9.92075e-05
9.91492e-05
-9.91409e-05
9.92024e-05
6.39067e-08
9.91118e-05
4.47631e-09
-9.90526e-05
6.34172e-08
9.90996e-05
4.41389e-09
-9.90409e-05
6.80889e-08
1.8004e-07
-1.35657e-08
0.000285019
6.80631e-08
1.79618e-07
-1.37153e-08
0.000284944
-1.1588e-06
-1.1185e-06
-0.000274327
8.06345e-08
8.62826e-08
-7.50563e-09
2.07718e-08
-0.00028479
5.13428e-08
-7.41741e-09
2.08168e-08
-0.000284716
4.88541e-08
7.71481e-08
-0.000236741
-5.83574e-09
-6.85165e-09
1.40283e-07
-1.77836e-08
0.000197341
2.57508e-07
0.000236963
-8.83077e-08
-1.18506e-08
2.25944e-08
-3.3074e-09
-0.000197193
-9.11706e-10
-0.000260669
-2.2648e-08
3.60535e-08
3.23435e-07
6.918e-08
0.000253494
0.0011363
3.72265e-09
9.11888e-07
7.86681e-07
-1.20759e-06
-1.37836e-06
5.89656e-07
4.28865e-07
8.52538e-07
-1.55522e-06
1.41645e-07
-5.24361e-07
-1.26162e-06
6.96858e-08
-5.718e-07
7.39631e-07
8.23698e-10
0.000260831
-2.98578e-08
5.14348e-07
1.46578e-08
-0.000253282
3.12819e-08
-3.52229e-09
9.07766e-07
-1.37525e-06
5.9198e-07
-1.20505e-06
7.88983e-07
-0.000260642
-2.17163e-08
3.60235e-08
-6.54306e-08
3.23198e-07
6.90685e-08
0.000253382
0.00113626
9.11871e-07
7.86677e-07
-1.20752e-06
-1.37793e-06
5.89654e-07
4.23614e-07
1.15603e-06
8.52858e-07
-1.26136e-06
6.65136e-08
7.39606e-07
-5.68824e-07
-1.55275e-06
1.414e-07
-5.24567e-07
0.000260805
-3.14679e-08
5.1429e-07
4.59009e-09
1.48568e-08
-0.000253173
3.12529e-08
9.07685e-07
-1.37491e-06
5.9198e-07
-1.205e-06
7.88918e-07
1.79562e-07
-1.32787e-08
0.000284888
-6.57705e-08
1.79768e-07
-1.34619e-08
0.000285034
-0.000274308
8.08946e-08
8.33783e-08
2.33524e-08
-0.000284658
4.88572e-08
-2.46963e-09
2.15579e-08
-0.000284806
4.92055e-08
5.03901e-09
9.91067e-05
-1.41181e-08
-9.90479e-05
-1.74534e-09
-0.000260658
-2.21779e-08
3.30799e-08
3.20542e-07
6.91772e-08
0.000253459
0.00113615
3.45721e-09
9.1077e-07
7.86675e-07
-1.20444e-06
-1.37788e-06
5.87028e-07
4.22842e-07
8.5281e-07
-1.51569e-06
1.35581e-07
-5.19147e-07
-1.26132e-06
7.01472e-08
-5.71543e-07
7.39715e-07
1.78254e-09
0.000260821
-3.09229e-08
5.16818e-07
1.47367e-08
-0.000253247
3.09711e-08
-3.69065e-09
9.06513e-07
-1.37482e-06
5.89275e-07
-1.20197e-06
7.8896e-07
7.70464e-08
-0.000236728
-5.75377e-09
-6.84108e-09
1.40358e-07
-1.81147e-08
0.00019733
2.57364e-07
0.00023695
-8.82804e-08
-1.13811e-08
2.28879e-08
-3.99768e-09
-0.00019718
-0.000260631
3.30967e-08
-2.18441e-08
0.00113609
9.10948e-07
7.86942e-07
-1.20447e-06
-1.37767e-06
5.87047e-07
-6.7998e-08
3.18109e-07
6.90703e-08
0.000253373
4.23463e-07
1.15073e-06
8.51715e-07
-1.26117e-06
6.66661e-08
7.39834e-07
-5.68749e-07
-1.54716e-06
1.41696e-07
-5.244e-07
0.000260793
5.16836e-07
-3.11698e-08
9.06686e-07
-1.37464e-06
5.89292e-07
-1.202e-06
7.89163e-07
7.77422e-09
1.42618e-08
-0.000253162
3.40589e-08
1.39932e-10
-0.000236766
-7.19369e-09
-3.76527e-09
-1.78035e-08
0.000197394
1.55831e-10
0.000236988
-1.14257e-08
-9.04046e-08
-3.65658e-09
-0.000197243
-7.72339e-08
-0.000260626
3.89427e-08
-2.16051e-08
0.00113595
9.11208e-07
7.81151e-07
-1.20176e-06
5.84112e-07
-1.37222e-06
-1.40321e-07
3.23146e-07
6.90527e-08
0.000253411
4.23202e-07
8.52076e-07
-1.54407e-06
1.3887e-07
-5.21313e-07
-1.25273e-06
6.32445e-08
-5.65773e-07
7.31435e-07
-2.57384e-07
0.000260789
5.11411e-07
-3.13304e-08
9.06875e-07
-1.36916e-06
5.86376e-07
-1.19925e-06
7.83371e-07
-2.27828e-08
1.46057e-08
-0.0002532
2.86896e-08
-0.000236726
-5.8594e-09
-6.47608e-09
-4.96386e-09
-1.80469e-08
0.000197336
0.000236948
-8.82902e-08
-1.15717e-08
1.3979e-08
-3.78691e-09
-0.000197186
1.75018e-07
-1.39223e-08
0.000284884
-6.34629e-08
1.77335e-07
-1.66975e-08
0.000285026
-0.000274294
8.11427e-08
8.62853e-08
2.18128e-08
-0.000284656
5.3756e-08
-4.51246e-09
2.42032e-08
-0.000284798
5.12873e-08
4.98259e-09
9.91063e-05
-1.39351e-08
-9.90476e-05
-7.46097e-08
-0.000260614
3.31408e-08
-2.1048e-08
0.00113579
9.10533e-07
7.83602e-07
-1.20173e-06
5.81303e-07
-1.37478e-06
-1.40323e-07
3.1799e-07
6.90606e-08
0.000253377
4.22031e-07
8.52296e-07
-1.50719e-06
1.35789e-07
-5.18869e-07
-1.25812e-06
7.03203e-08
-5.71385e-07
7.36884e-07
-2.59825e-07
0.000260777
5.1676e-07
-3.18283e-08
9.06166e-07
-1.37182e-06
5.86447e-07
-1.19642e-06
7.85965e-07
-2.26928e-08
1.44612e-08
-0.000253166
3.3619e-08
-1.63356e-11
-0.000236759
-6.70715e-09
-5.92976e-09
-1.79199e-08
0.000197389
2.5168e-10
0.000236981
-1.18172e-08
-8.82279e-08
-3.56832e-09
-0.000197239
-0.000236717
-6.5004e-09
-5.84902e-09
-4.87731e-09
-1.81217e-08
0.000197326
0.000236939
-1.15562e-08
-8.82098e-08
1.41104e-08
-3.845e-09
-0.000197176
9.90858e-05
-9.90271e-05
9.90808e-05
-9.90221e-05
-4.54282e-10
8.64592e-08
0.000145584
-0.000145666
-3.73696e-09
-9.31735e-08
-1.27993e-08
-0.000237868
-2.62033e-10
2.71989e-07
-0.000173727
-1.58258e-10
-2.29354e-10
0.000173717
-0.00023053
-7.33199e-09
-8.67302e-09
0.000230467
7.00168e-08
-0.000173821
-2.79251e-10
-0.000230688
-1.72482e-08
2.48988e-07
-1.8707e-10
0.000145577
-8.03661e-05
-1.38791e-08
-9.91658e-11
8.03801e-05
-6.16115e-08
0.000270222
1.76906e-08
1.99145e-07
-0.000270398
-6.57991e-09
0.000198006
1.74322e-08
3.36466e-08
3.49092e-09
-8.04312e-05
8.97277e-09
0.00027015
4.2627e-08
-0.000145675
-1.99195e-10
8.64254e-09
-1.20918e-08
-8.83532e-09
-7.23238e-11
9.81524e-08
7.61595e-10
0.000173833
-1.90032e-10
-0.000173928
-8.80707e-08
0.000230753
2.53557e-07
-0.000230914
-0.000145759
-1.87652e-10
7.40155e-08
6.04752e-08
8.03159e-05
-0.000269978
1.46968e-08
0.000269909
3.96797e-08
-1.99162e-08
-4.43987e-09
1.48675e-07
1.95545e-07
8.03304e-05
9.93466e-05
-1.5178e-08
6.19746e-09
-9.93376e-05
4.67732e-09
6.88152e-08
8.64478e-08
-2.78504e-10
0.000145583
-0.000145665
-3.91172e-09
-1.31381e-08
-9.30914e-08
-0.000237854
-1.42863e-11
2.71786e-07
-0.000230519
-7.25492e-09
-8.60394e-09
0.000230456
6.97941e-08
-0.000173724
-2.48181e-10
-4.48691e-11
0.000173714
-0.000230677
-1.73393e-08
2.48833e-07
-0.000173817
-3.45252e-11
-1.83323e-10
0.000145575
-8.03677e-05
-1.42172e-08
-2.19451e-11
8.0382e-05
-6.15381e-08
0.000270216
1.78393e-08
1.98849e-07
-0.000270392
-5.86122e-09
0.000197989
1.53258e-08
3.31759e-08
3.61829e-09
-8.04329e-05
9.20446e-09
0.000270145
4.22974e-08
-0.000145673
8.5171e-09
-1.03943e-10
-8.73252e-09
-1.1983e-08
-2.87115e-11
9.79536e-08
-8.79885e-08
0.000230742
2.5334e-07
-0.000230903
6.123e-10
0.000173829
-3.25856e-11
-0.000173925
-0.000145757
7.38164e-08
-2.6703e-11
6.04722e-08
8.03176e-05
-0.000269973
1.48585e-08
0.000269904
3.93436e-08
-1.99375e-08
-3.85804e-09
1.48258e-07
1.95351e-07
8.03323e-05
9.93386e-05
-1.51677e-08
8.76081e-09
4.45602e-09
6.65226e-08
-4.09206e-08
-4.09958e-08
0.000218974
-0.000219099
1.02402e-07
1.0472e-07
-8.19488e-05
8.38407e-09
-1.71654e-08
8.19576e-05
-8.19367e-05
8.40632e-09
-1.72234e-08
8.19455e-05
-8.2014e-05
2.42831e-08
-8.20019e-05
2.42069e-08
3.85421e-08
3.85505e-08
0.000218914
7.03047e-08
-3.85434e-08
-4.02793e-08
0.00022902
5.74588e-08
-0.000229069
6.33143e-08
2.34814e-08
0.000285866
-8.68184e-09
-0.00028594
-3.77989e-09
0.000260212
7.79066e-08
-0.000260235
7.92059e-08
1.73315e-08
0.00018719
-0.000187222
7.27846e-08
-3.84516e-08
-3.82679e-08
0.000228944
5.74522e-08
-0.000228997
6.3154e-08
2.35473e-08
0.00028578
-8.76643e-09
-3.88974e-09
-0.000285854
0.000260088
7.31765e-08
8.40562e-08
-0.00026011
1.73421e-08
0.000187134
-0.000187167
-9.10178e-09
-9.07449e-09
-0.000219159
-8.20058e-05
-8.19937e-05
1.46309e-07
-1.28193e-07
0.000228869
2.35286e-07
-0.000187072
3.47942e-08
0.000187043
1.88272e-07
-1.3268e-08
-6.65727e-08
7.17617e-08
-0.000260029
-6.99382e-08
0.000260008
7.24324e-08
7.85602e-08
3.28249e-07
1.8957e-07
0.000228815
5.73163e-08
1.4632e-07
-1.26198e-07
0.000228797
2.30954e-07
-0.000187019
3.67569e-08
0.000186988
1.85821e-07
-1.36297e-08
-6.65828e-08
7.16775e-08
-0.000259908
-7.22478e-08
0.00025989
6.99007e-08
8.09027e-08
3.22958e-07
1.89558e-07
0.000228745
5.50554e-08
8.28719e-10
8.07295e-08
0.000145246
-0.000145323
-4.77128e-09
-8.69008e-08
-1.11665e-08
-0.000236937
-2.00937e-10
2.52911e-07
-0.000173341
-1.11355e-09
-2.06607e-10
-0.000229693
-2.84381e-09
-6.9245e-09
5.53186e-08
-0.000173427
-1.88677e-10
-0.000229839
-1.57423e-08
2.3179e-07
-7.16844e-10
-8.01729e-05
-1.67053e-08
7.04261e-10
8.01889e-05
-5.75272e-08
0.000269285
1.62912e-08
-0.000269446
1.8532e-07
-3.88253e-09
0.000197374
1.40713e-08
2.48303e-08
4.63554e-09
-8.02351e-05
7.52531e-09
0.000269225
3.13129e-08
-0.000145327
9.90657e-10
3.93047e-09
-6.87624e-09
-7.1319e-09
-1.11472e-11
8.11742e-08
-5.2034e-10
0.000173432
-0.00017352
-2.54911e-10
-8.20673e-08
0.000229894
-0.000230043
2.3603e-07
-0.000145405
-1.50348e-10
5.89121e-08
5.67236e-08
8.01275e-05
-0.000269067
1.73261e-08
2.86339e-08
-1.75564e-08
-5.06848e-09
1.37865e-07
1.82093e-07
9.90975e-05
-1.37453e-08
5.74324e-09
5.46335e-09
6.26135e-08
8.06551e-08
9.99448e-10
0.000145245
-0.000145322
-4.84624e-09
-1.14427e-08
-8.68735e-08
-0.000236924
4.91072e-11
2.52777e-07
-0.000229682
-2.79956e-09
-7.02729e-09
5.52221e-08
-0.000173338
-1.30387e-09
7.21485e-11
-0.000229829