/*--------------------------------*- C++ -*----------------------------------*\
| =========                 |                                                 |
| \\      /  F ield         | OpenFOAM: The Open Source CFD Toolbox           |
|  \\    /   O peration     | Version:                                        |
|   \\  /    A nd           | Website:  www.openfoam.com                      |
|    \\/     M anipulation  |                                                 |
\*---------------------------------------------------------------------------*/
FoamFile
{
    version     2.0;
    format      ascii;
    class       volScalarField;
    location    "87500";
    object      p;
}
// * * * * * * * * * * * * * * * * * * * * * * * * * * * * * * * * * * * * * //

dimensions      [0 2 -2 0 0 0 0];


internalField   nonuniform List<scalar> 
172512
(
1.27138e-07
1.27107e-07
1.27107e-07
1.27062e-07
1.2404e-07
1.23956e-07
1.23956e-07
1.24086e-07
1.21871e-07
1.21846e-07
1.21846e-07
1.21954e-07
1.20043e-07
1.20036e-07
1.20036e-07
1.2013e-07
1.18387e-07
1.18387e-07
1.18387e-07
1.18477e-07
1.16835e-07
1.16838e-07
1.16838e-07
1.16922e-07
1.15351e-07
1.15354e-07
1.15354e-07
1.15435e-07
1.13914e-07
1.13916e-07
1.13916e-07
1.13995e-07
1.1251e-07
1.12511e-07
1.12511e-07
1.1259e-07
1.11131e-07
1.11132e-07
1.11132e-07
1.11209e-07
1.09771e-07
1.09772e-07
1.09772e-07
1.09848e-07
1.08425e-07
1.08426e-07
1.08426e-07
1.08502e-07
1.07091e-07
1.07091e-07
1.07091e-07
1.07166e-07
1.05765e-07
1.05765e-07
1.05765e-07
1.0584e-07
1.04445e-07
1.04445e-07
1.04445e-07
1.0452e-07
1.03131e-07
1.03131e-07
1.03131e-07
1.03205e-07
1.0182e-07
1.0182e-07
1.0182e-07
1.01894e-07
1.00513e-07
1.00513e-07
1.00513e-07
1.00586e-07
9.92076e-08
9.92075e-08
9.92075e-08
9.92812e-08
9.79044e-08
9.79043e-08
9.79043e-08
9.79779e-08
9.66026e-08
9.66025e-08
9.66025e-08
9.6676e-08
9.5302e-08
9.53019e-08
9.53019e-08
9.53753e-08
9.40022e-08
9.40021e-08
9.40021e-08
9.40755e-08
9.27031e-08
9.2703e-08
9.2703e-08
9.27764e-08
9.14046e-08
9.14045e-08
9.14045e-08
9.14778e-08
9.01065e-08
9.01063e-08
9.01063e-08
9.01797e-08
8.88086e-08
8.88085e-08
8.88085e-08
8.88818e-08
8.75111e-08
8.75109e-08
8.75109e-08
8.75842e-08
8.62137e-08
8.62135e-08
8.62135e-08
8.62868e-08
8.49165e-08
8.49163e-08
8.49163e-08
8.49896e-08
8.36194e-08
8.36192e-08
8.36192e-08
8.36925e-08
8.23224e-08
8.23222e-08
8.23222e-08
8.23955e-08
8.10255e-08
8.10252e-08
8.10252e-08
8.10985e-08
7.97286e-08
7.97284e-08
7.97284e-08
7.98017e-08
7.84318e-08
7.84316e-08
7.84316e-08
7.85049e-08
7.7135e-08
7.71348e-08
7.71348e-08
7.72081e-08
7.58382e-08
7.5838e-08
7.5838e-08
7.59113e-08
7.45414e-08
7.45412e-08
7.45412e-08
7.46145e-08
7.32446e-08
7.32444e-08
7.32444e-08
7.33177e-08
7.19478e-08
7.19476e-08
7.19476e-08
7.20209e-08
7.0651e-08
7.06508e-08
7.06508e-08
7.07241e-08
6.93542e-08
6.9354e-08
6.9354e-08
6.94273e-08
6.80574e-08
6.80572e-08
6.80572e-08
6.81305e-08
6.67607e-08
6.67604e-08
6.67604e-08
6.68337e-08
6.54639e-08
6.54636e-08
6.54636e-08
6.55369e-08
6.41671e-08
6.41668e-08
6.41668e-08
6.42401e-08
6.28703e-08
6.28701e-08
6.28701e-08
6.29433e-08
6.15735e-08
6.15733e-08
6.15733e-08
6.16465e-08
6.02767e-08
6.02765e-08
6.02765e-08
6.03498e-08
5.89799e-08
5.89797e-08
5.89797e-08
5.9053e-08
5.76831e-08
5.76829e-08
5.76829e-08
5.77562e-08
5.63863e-08
5.63861e-08
5.63861e-08
5.64594e-08
5.50895e-08
5.50893e-08
5.50893e-08
5.51626e-08
5.37927e-08
5.37925e-08
5.37925e-08
5.38658e-08
5.24959e-08
5.24957e-08
5.24957e-08
5.2569e-08
5.11991e-08
5.11989e-08
5.11989e-08
5.12722e-08
4.99023e-08
4.99021e-08
4.99021e-08
4.99754e-08
4.86055e-08
4.86053e-08
4.86053e-08
4.86786e-08
4.73087e-08
4.73085e-08
4.73085e-08
4.73818e-08
4.60119e-08
4.60117e-08
4.60117e-08
4.6085e-08
4.47151e-08
4.47149e-08
4.47149e-08
4.47882e-08
4.34183e-08
4.34181e-08
4.34181e-08
4.34913e-08
4.21215e-08
4.21212e-08
4.21212e-08
4.21945e-08
4.08247e-08
4.08244e-08
4.08244e-08
4.08977e-08
3.95279e-08
3.95276e-08
3.95276e-08
3.96009e-08
3.82311e-08
3.82308e-08
3.82308e-08
3.83041e-08
3.69343e-08
3.6934e-08
3.6934e-08
3.70073e-08
3.56375e-08
3.56372e-08
3.56372e-08
3.57105e-08
3.43407e-08
3.43404e-08
3.43404e-08
3.44137e-08
3.30439e-08
3.30436e-08
3.30436e-08
3.31169e-08
3.17471e-08
3.17468e-08
3.17468e-08
3.18201e-08
3.04503e-08
3.045e-08
3.045e-08
3.05233e-08
2.91535e-08
2.91532e-08
2.91532e-08
2.92265e-08
2.78567e-08
2.78564e-08
2.78564e-08
2.79297e-08
2.65599e-08
2.65596e-08
2.65596e-08
2.66329e-08
2.52631e-08
2.52628e-08
2.52628e-08
2.53361e-08
2.39663e-08
2.3966e-08
2.3966e-08
2.40393e-08
2.26695e-08
2.26692e-08
2.26692e-08
2.27425e-08
2.13727e-08
2.13724e-08
2.13724e-08
2.14457e-08
2.00759e-08
2.00756e-08
2.00756e-08
2.01489e-08
1.87791e-08
1.87788e-08
1.87788e-08
1.88521e-08
1.74823e-08
1.7482e-08
1.7482e-08
1.75553e-08
1.61855e-08
1.61852e-08
1.61852e-08
1.62585e-08
1.48887e-08
1.48884e-08
1.48884e-08
1.49617e-08
1.35919e-08
1.35916e-08
1.35916e-08
1.36649e-08
1.22951e-08
1.22948e-08
1.22948e-08
1.23681e-08
1.09983e-08
1.09981e-08
1.09981e-08
1.10713e-08
9.70147e-09
9.70125e-09
9.70125e-09
9.77453e-09
8.40468e-09
8.40446e-09
8.40446e-09
8.47773e-09
7.10789e-09
7.10767e-09
7.10767e-09
7.18092e-09
5.8111e-09
5.81091e-09
5.81091e-09
5.88411e-09
4.51437e-09
4.51421e-09
4.51421e-09
4.58726e-09
3.21796e-09
3.21765e-09
3.21765e-09
3.29036e-09
1.92787e-09
1.92566e-09
1.92565e-09
1.99772e-09
8.47104e-10
7.46788e-10
7.46772e-10
7.07692e-10
1.27541e-07
1.27564e-07
1.27564e-07
1.27541e-07
1.27564e-07
1.27564e-07
1.2757e-07
1.2757e-07
1.2757e-07
1.2757e-07
1.27564e-07
1.27564e-07
1.27541e-07
1.27565e-07
1.27564e-07
1.27541e-07
1.27062e-07
1.24426e-07
1.27107e-07
1.27107e-07
1.24571e-07
1.24571e-07
1.27062e-07
1.24426e-07
1.27107e-07
1.27107e-07
1.24571e-07
1.24571e-07
1.27107e-07
1.24571e-07
1.24571e-07
1.27062e-07
1.24426e-07
1.27107e-07
1.24571e-07
1.24571e-07
1.24426e-07
1.24086e-07
1.22224e-07
1.23956e-07
1.23956e-07
1.22336e-07
1.22336e-07
1.24086e-07
1.22224e-07
1.23956e-07
1.23956e-07
1.22336e-07
1.22336e-07
1.23956e-07
1.22336e-07
1.22336e-07
1.24086e-07
1.22224e-07
1.23956e-07
1.22336e-07
1.22336e-07
1.22224e-07
1.21954e-07
1.20366e-07
1.21846e-07
1.21846e-07
1.2047e-07
1.2047e-07
1.21954e-07
1.20366e-07
1.21846e-07
1.21846e-07
1.20469e-07
1.2047e-07
1.21846e-07
1.20469e-07
1.20469e-07
1.21954e-07
1.20366e-07
1.21846e-07
1.20469e-07
1.20469e-07
1.20366e-07
1.2013e-07
1.18695e-07
1.20036e-07
1.20036e-07
1.18788e-07
1.18788e-07
1.2013e-07
1.18695e-07
1.20036e-07
1.20036e-07
1.18788e-07
1.18788e-07
1.20036e-07
1.18788e-07
1.18788e-07
1.2013e-07
1.18695e-07
1.20036e-07
1.18788e-07
1.18788e-07
1.18695e-07
1.18477e-07
1.17129e-07
1.18387e-07
1.18387e-07
1.17218e-07
1.17218e-07
1.18477e-07
1.17129e-07
1.18387e-07
1.18387e-07
1.17218e-07
1.17218e-07
1.18387e-07
1.17218e-07
1.17218e-07
1.18477e-07
1.17129e-07
1.18387e-07
1.17218e-07
1.17218e-07
1.17129e-07
1.16922e-07
1.15635e-07
1.16838e-07
1.16838e-07
1.1572e-07
1.1572e-07
1.16922e-07
1.15635e-07
1.16838e-07
1.16838e-07
1.15719e-07
1.1572e-07
1.16838e-07
1.1572e-07
1.1572e-07
1.16922e-07
1.15635e-07
1.16838e-07
1.1572e-07
1.1572e-07
1.15635e-07
1.15435e-07
1.1419e-07
1.15354e-07
1.15354e-07
1.14272e-07
1.14272e-07
1.15435e-07
1.1419e-07
1.15354e-07
1.15354e-07
1.14272e-07
1.14272e-07
1.15354e-07
1.14272e-07
1.14272e-07
1.15435e-07
1.1419e-07
1.15354e-07
1.14272e-07
1.14272e-07
1.1419e-07
1.13995e-07
1.1278e-07
1.13916e-07
1.13916e-07
1.1286e-07
1.1286e-07
1.13995e-07
1.1278e-07
1.13916e-07
1.13916e-07
1.1286e-07
1.1286e-07
1.13916e-07
1.1286e-07
1.1286e-07
1.13995e-07
1.1278e-07
1.13916e-07
1.1286e-07
1.1286e-07
1.1278e-07
1.1259e-07
1.11397e-07
1.12511e-07
1.12511e-07
1.11475e-07
1.11475e-07
1.1259e-07
1.11397e-07
1.12511e-07
1.12511e-07
1.11475e-07
1.11475e-07
1.12511e-07
1.11475e-07
1.11475e-07
1.1259e-07
1.11397e-07
1.12511e-07
1.11475e-07
1.11475e-07
1.11397e-07
1.11209e-07
1.10033e-07
1.11132e-07
1.11132e-07
1.1011e-07
1.1011e-07
1.11209e-07
1.10033e-07
1.11132e-07
1.11132e-07
1.1011e-07
1.1011e-07
1.11132e-07
1.1011e-07
1.1011e-07
1.11209e-07
1.10033e-07
1.11132e-07
1.1011e-07
1.1011e-07
1.10033e-07
1.09848e-07
1.08685e-07
1.09772e-07
1.09772e-07
1.08761e-07
1.08761e-07
1.09848e-07
1.08685e-07
1.09772e-07
1.09772e-07
1.08761e-07
1.08761e-07
1.09772e-07
1.08761e-07
1.08761e-07
1.09848e-07
1.08685e-07
1.09772e-07
1.08761e-07
1.08761e-07
1.08685e-07
1.08502e-07
1.07348e-07
1.08426e-07
1.08426e-07
1.07424e-07
1.07424e-07
1.08501e-07
1.07348e-07
1.08426e-07
1.08426e-07
1.07424e-07
1.07424e-07
1.08426e-07
1.07424e-07
1.07424e-07
1.08502e-07
1.07348e-07
1.08426e-07
1.07424e-07
1.07424e-07
1.07348e-07
1.07166e-07
1.06021e-07
1.07091e-07
1.07091e-07
1.06096e-07
1.06096e-07
1.07166e-07
1.06021e-07
1.07091e-07
1.07091e-07
1.06096e-07
1.06096e-07
1.07091e-07
1.06096e-07
1.06096e-07
1.07166e-07
1.06021e-07
1.07091e-07
1.06096e-07
1.06096e-07
1.06021e-07
1.0584e-07
1.047e-07
1.05765e-07
1.05765e-07
1.04775e-07
1.04775e-07
1.0584e-07
1.047e-07
1.05765e-07
1.05765e-07
1.04775e-07
1.04775e-07
1.05765e-07
1.04775e-07
1.04775e-07
1.0584e-07
1.047e-07
1.05765e-07
1.04775e-07
1.04775e-07
1.047e-07
1.0452e-07
1.03385e-07
1.04445e-07
1.04445e-07
1.03459e-07
1.03459e-07
1.0452e-07
1.03385e-07
1.04445e-07
1.04445e-07
1.03459e-07
1.03459e-07
1.04445e-07
1.03459e-07
1.03459e-07
1.0452e-07
1.03385e-07
1.04445e-07
1.03459e-07
1.03459e-07
1.03385e-07
1.03205e-07
1.02073e-07
1.03131e-07
1.03131e-07
1.02147e-07
1.02147e-07
1.03205e-07
1.02073e-07
1.03131e-07
1.03131e-07
1.02147e-07
1.02147e-07
1.03131e-07
1.02147e-07
1.02147e-07
1.03205e-07
1.02073e-07
1.03131e-07
1.02147e-07
1.02147e-07
1.02073e-07
1.01894e-07
1.00765e-07
1.0182e-07
1.0182e-07
1.00839e-07
1.00839e-07
1.01894e-07
1.00765e-07
1.0182e-07
1.0182e-07
1.00839e-07
1.00839e-07
1.0182e-07
1.00839e-07
1.00839e-07
1.01894e-07
1.00765e-07
1.0182e-07
1.00839e-07
1.00839e-07
1.00765e-07
1.00586e-07
9.94599e-08
1.00513e-07
1.00513e-07
9.95336e-08
9.95336e-08
1.00586e-07
9.94599e-08
1.00513e-07
1.00513e-07
9.95336e-08
9.95336e-08
1.00513e-07
9.95336e-08
9.95336e-08
1.00586e-07
9.94599e-08
1.00513e-07
9.95336e-08
9.95336e-08
9.94599e-08
9.92812e-08
9.81564e-08
9.92075e-08
9.92075e-08
9.823e-08
9.823e-08
9.92812e-08
9.81564e-08
9.92075e-08
9.92075e-08
9.823e-08
9.823e-08
9.92075e-08
9.823e-08
9.823e-08
9.92812e-08
9.81564e-08
9.92075e-08
9.823e-08
9.823e-08
9.81564e-08
9.79779e-08
9.68544e-08
9.79043e-08
9.79043e-08
9.69279e-08
9.69279e-08
9.79779e-08
9.68544e-08
9.79043e-08
9.79043e-08
9.69279e-08
9.69279e-08
9.79043e-08
9.69279e-08
9.69279e-08
9.79779e-08
9.68544e-08
9.79043e-08
9.69279e-08
9.69279e-08
9.68543e-08
9.6676e-08
9.55535e-08
9.66025e-08
9.66025e-08
9.5627e-08
9.5627e-08
9.6676e-08
9.55535e-08
9.66025e-08
9.66025e-08
9.5627e-08
9.5627e-08
9.66025e-08
9.5627e-08
9.5627e-08
9.6676e-08
9.55535e-08
9.66025e-08
9.5627e-08
9.5627e-08
9.55535e-08
9.53753e-08
9.42536e-08
9.53019e-08
9.53019e-08
9.4327e-08
9.4327e-08
9.53753e-08
9.42536e-08
9.53019e-08
9.53019e-08
9.4327e-08
9.4327e-08
9.53019e-08
9.4327e-08
9.4327e-08
9.53753e-08
9.42536e-08
9.53019e-08
9.4327e-08
9.4327e-08
9.42536e-08
9.40755e-08
9.29544e-08
9.40021e-08
9.40021e-08
9.30278e-08
9.30278e-08
9.40755e-08
9.29544e-08
9.40021e-08
9.40021e-08
9.30278e-08
9.30278e-08
9.40021e-08
9.30278e-08
9.30278e-08
9.40755e-08
9.29544e-08
9.40021e-08
9.30278e-08
9.30278e-08
9.29544e-08
9.27764e-08
9.16558e-08
9.2703e-08
9.2703e-08
9.17291e-08
9.17291e-08
9.27764e-08
9.16558e-08
9.2703e-08
9.2703e-08
9.17291e-08
9.17291e-08
9.2703e-08
9.17291e-08
9.17291e-08
9.27764e-08
9.16558e-08
9.2703e-08
9.17291e-08
9.17291e-08
9.16558e-08
9.14778e-08
9.03576e-08
9.14045e-08
9.14045e-08
9.04308e-08
9.04308e-08
9.14778e-08
9.03576e-08
9.14045e-08
9.14045e-08
9.04308e-08
9.04308e-08
9.14045e-08
9.04308e-08
9.04308e-08
9.14778e-08
9.03575e-08
9.14045e-08
9.04308e-08
9.04308e-08
9.03575e-08
9.01796e-08
8.90597e-08
9.01063e-08
9.01063e-08
8.91329e-08
8.91329e-08
9.01796e-08
8.90597e-08
9.01063e-08
9.01063e-08
8.91329e-08
8.91329e-08
9.01063e-08
8.91329e-08
8.91329e-08
9.01796e-08
8.90597e-08
9.01063e-08
8.91329e-08
8.91329e-08
8.90597e-08
8.88818e-08
8.7762e-08
8.88085e-08
8.88085e-08
8.78353e-08
8.78353e-08
8.88818e-08
8.7762e-08
8.88085e-08
8.88085e-08
8.78353e-08
8.78353e-08
8.88085e-08
8.78353e-08
8.78353e-08
8.88818e-08
8.7762e-08
8.88085e-08
8.78353e-08
8.78353e-08
8.7762e-08
8.75842e-08
8.64646e-08
8.75109e-08
8.75109e-08
8.65378e-08
8.65378e-08
8.75842e-08
8.64646e-08
8.75109e-08
8.75109e-08
8.65378e-08
8.65378e-08
8.75109e-08
8.65378e-08
8.65378e-08
8.75842e-08
8.64646e-08
8.75109e-08
8.65378e-08
8.65378e-08
8.64646e-08
8.62868e-08
8.51674e-08
8.62135e-08
8.62135e-08
8.52406e-08
8.52406e-08
8.62868e-08
8.51674e-08
8.62135e-08
8.62135e-08
8.52406e-08
8.52406e-08
8.62135e-08
8.52406e-08
8.52406e-08
8.62868e-08
8.51673e-08
8.62135e-08
8.52406e-08
8.52406e-08
8.51673e-08
8.49895e-08
8.38702e-08
8.49163e-08
8.49163e-08
8.39434e-08
8.39434e-08
8.49896e-08
8.38702e-08
8.49163e-08
8.49163e-08
8.39434e-08
8.39434e-08
8.49163e-08
8.39434e-08
8.39434e-08
8.49896e-08
8.38702e-08
8.49163e-08
8.39434e-08
8.39434e-08
8.38702e-08
8.36924e-08
8.25732e-08
8.36192e-08
8.36192e-08
8.26464e-08
8.26464e-08
8.36924e-08
8.25732e-08
8.36192e-08
8.36192e-08
8.26464e-08
8.26464e-08
8.36192e-08
8.26464e-08
8.26464e-08
8.36924e-08
8.25732e-08
8.36192e-08
8.26464e-08
8.26464e-08
8.25732e-08
8.23954e-08
8.12763e-08
8.23222e-08
8.23222e-08
8.13495e-08
8.13495e-08
8.23954e-08
8.12763e-08
8.23222e-08
8.23222e-08
8.13495e-08
8.13495e-08
8.23222e-08
8.13495e-08
8.13495e-08
8.23954e-08
8.12763e-08
8.23222e-08
8.13495e-08
8.13495e-08
8.12763e-08
8.10985e-08
7.99794e-08
8.10252e-08
8.10252e-08
8.00526e-08
8.00526e-08
8.10985e-08
7.99794e-08
8.10252e-08
8.10252e-08
8.00526e-08
8.00526e-08
8.10252e-08
8.00526e-08
8.00526e-08
8.10985e-08
7.99794e-08
8.10252e-08
8.00526e-08
8.00526e-08
7.99794e-08
7.98017e-08
7.86826e-08
7.97284e-08
7.97284e-08
7.87558e-08
7.87558e-08
7.98017e-08
7.86826e-08
7.97284e-08
7.97284e-08
7.87558e-08
7.87558e-08
7.97284e-08
7.87558e-08
7.87558e-08
7.98017e-08
7.86826e-08
7.97284e-08
7.87558e-08
7.87558e-08
7.86826e-08
7.85048e-08
7.73858e-08
7.84316e-08
7.84316e-08
7.7459e-08
7.7459e-08
7.85048e-08
7.73858e-08
7.84316e-08
7.84316e-08
7.7459e-08
7.7459e-08
7.84316e-08
7.7459e-08
7.7459e-08
7.85048e-08
7.73858e-08
7.84316e-08
7.7459e-08
7.7459e-08
7.73858e-08
7.7208e-08
7.6089e-08
7.71348e-08
7.71348e-08
7.61622e-08
7.61622e-08
7.7208e-08
7.6089e-08
7.71348e-08
7.71348e-08
7.61622e-08
7.61622e-08
7.71348e-08
7.61622e-08
7.61622e-08
7.7208e-08
7.6089e-08
7.71348e-08
7.61622e-08
7.61622e-08
7.6089e-08
7.59112e-08
7.47922e-08
7.5838e-08
7.5838e-08
7.48654e-08
7.48654e-08
7.59112e-08
7.47922e-08
7.5838e-08
7.5838e-08
7.48654e-08
7.48654e-08
7.5838e-08
7.48654e-08
7.48654e-08
7.59112e-08
7.47922e-08
7.5838e-08
7.48654e-08
7.48654e-08
7.47922e-08
7.46144e-08
7.34954e-08
7.45412e-08
7.45412e-08
7.35686e-08
7.35686e-08
7.46144e-08
7.34954e-08
7.45412e-08
7.45412e-08
7.35686e-08
7.35686e-08
7.45412e-08
7.35686e-08
7.35686e-08
7.46145e-08
7.34954e-08
7.45412e-08
7.35686e-08
7.35686e-08
7.34954e-08
7.33177e-08
7.21986e-08
7.32444e-08
7.32444e-08
7.22718e-08
7.22718e-08
7.33177e-08
7.21986e-08
7.32444e-08
7.32444e-08
7.22718e-08
7.22718e-08
7.32444e-08
7.22718e-08
7.22718e-08
7.33177e-08
7.21986e-08
7.32444e-08
7.22718e-08
7.22718e-08
7.21986e-08
7.20209e-08
7.09018e-08
7.19476e-08
7.19476e-08
7.0975e-08
7.0975e-08
7.20209e-08
7.09018e-08
7.19476e-08
7.19476e-08
7.0975e-08
7.0975e-08
7.19476e-08
7.0975e-08
7.0975e-08
7.20209e-08
7.09018e-08
7.19476e-08
7.0975e-08
7.0975e-08
7.09018e-08
7.07241e-08
6.9605e-08
7.06508e-08
7.06508e-08
6.96782e-08
6.96782e-08
7.07241e-08
6.9605e-08
7.06508e-08
7.06508e-08
6.96782e-08
6.96782e-08
7.06508e-08
6.96782e-08
6.96782e-08
7.07241e-08
6.9605e-08
7.06508e-08
6.96782e-08
6.96782e-08
6.9605e-08
6.94273e-08
6.83082e-08
6.9354e-08
6.9354e-08
6.83814e-08
6.83814e-08
6.94273e-08
6.83082e-08
6.9354e-08
6.9354e-08
6.83814e-08
6.83814e-08
6.9354e-08
6.83814e-08
6.83814e-08
6.94273e-08
6.83082e-08
6.9354e-08
6.83814e-08
6.83814e-08
6.83082e-08
6.81305e-08
6.70114e-08
6.80572e-08
6.80572e-08
6.70846e-08
6.70846e-08
6.81305e-08
6.70114e-08
6.80572e-08
6.80572e-08
6.70846e-08
6.70846e-08
6.80572e-08
6.70846e-08
6.70846e-08
6.81305e-08
6.70114e-08
6.80572e-08
6.70846e-08
6.70846e-08
6.70114e-08
6.68337e-08
6.57147e-08
6.67604e-08
6.67604e-08
6.57878e-08
6.57878e-08
6.68337e-08
6.57147e-08
6.67604e-08
6.67604e-08
6.57878e-08
6.57878e-08
6.67604e-08
6.57878e-08
6.57878e-08
6.68337e-08
6.57146e-08
6.67604e-08
6.57878e-08
6.57878e-08
6.57146e-08
6.55369e-08
6.44179e-08
6.54636e-08
6.54636e-08
6.4491e-08
6.4491e-08
6.55369e-08
6.44179e-08
6.54636e-08
6.54636e-08
6.4491e-08
6.4491e-08
6.54636e-08
6.4491e-08
6.4491e-08
6.55369e-08
6.44179e-08
6.54636e-08
6.4491e-08
6.4491e-08
6.44178e-08
6.42401e-08
6.31211e-08
6.41668e-08
6.41668e-08
6.31943e-08
6.31943e-08
6.42401e-08
6.31211e-08
6.41668e-08
6.41668e-08
6.31943e-08
6.31943e-08
6.41668e-08
6.31943e-08
6.31943e-08
6.42401e-08
6.31211e-08
6.41668e-08
6.31943e-08
6.31943e-08
6.31211e-08
6.29433e-08
6.18243e-08
6.28701e-08
6.28701e-08
6.18975e-08
6.18975e-08
6.29433e-08
6.18243e-08
6.28701e-08
6.28701e-08
6.18975e-08
6.18975e-08
6.28701e-08
6.18975e-08
6.18975e-08
6.29433e-08
6.18243e-08
6.28701e-08
6.18975e-08
6.18975e-08
6.18243e-08
6.16465e-08
6.05275e-08
6.15733e-08
6.15733e-08
6.06007e-08
6.06007e-08
6.16465e-08
6.05275e-08
6.15733e-08
6.15733e-08
6.06007e-08
6.06007e-08
6.15733e-08
6.06007e-08
6.06007e-08
6.16465e-08
6.05275e-08
6.15733e-08
6.06007e-08
6.06007e-08
6.05275e-08
6.03497e-08
5.92307e-08
6.02765e-08
6.02765e-08
5.93039e-08
5.93039e-08
6.03497e-08
5.92307e-08
6.02765e-08
6.02765e-08
5.93039e-08
5.93039e-08
6.02765e-08
5.93039e-08
5.93039e-08
6.03497e-08
5.92307e-08
6.02765e-08
5.93039e-08
5.93039e-08
5.92307e-08
5.9053e-08
5.79339e-08
5.89797e-08
5.89797e-08
5.80071e-08
5.80071e-08
5.9053e-08
5.79339e-08
5.89797e-08
5.89797e-08
5.80071e-08
5.80071e-08
5.89797e-08
5.80071e-08
5.80071e-08
5.9053e-08
5.79339e-08
5.89797e-08
5.80071e-08
5.80071e-08
5.79339e-08
5.77562e-08
5.66371e-08
5.76829e-08
5.76829e-08
5.67103e-08
5.67103e-08
5.77562e-08
5.66371e-08
5.76829e-08
5.76829e-08
5.67103e-08
5.67103e-08
5.76829e-08
5.67103e-08
5.67103e-08
5.77562e-08
5.66371e-08
5.76829e-08
5.67103e-08
5.67103e-08
5.66371e-08
5.64594e-08
5.53403e-08
5.63861e-08
5.63861e-08
5.54135e-08
5.54135e-08
5.64594e-08
5.53403e-08
5.63861e-08
5.63861e-08
5.54135e-08
5.54135e-08
5.63861e-08
5.54135e-08
5.54135e-08
5.64594e-08
5.53403e-08
5.63861e-08
5.54135e-08
5.54135e-08
5.53403e-08
5.51626e-08
5.40435e-08
5.50893e-08
5.50893e-08
5.41167e-08
5.41167e-08
5.51626e-08
5.40435e-08
5.50893e-08
5.50893e-08
5.41167e-08
5.41167e-08
5.50893e-08
5.41167e-08
5.41167e-08
5.51626e-08
5.40435e-08
5.50893e-08
5.41167e-08
5.41167e-08
5.40435e-08
5.38658e-08
5.27467e-08
5.37925e-08
5.37925e-08
5.28199e-08
5.28199e-08
5.38658e-08
5.27467e-08
5.37925e-08
5.37925e-08
5.28199e-08
5.28199e-08
5.37925e-08
5.28199e-08
5.28199e-08
5.38658e-08
5.27467e-08
5.37925e-08
5.28199e-08
5.28199e-08
5.27467e-08
5.2569e-08
5.14499e-08
5.24957e-08
5.24957e-08
5.15231e-08
5.15231e-08
5.2569e-08
5.14499e-08
5.24957e-08
5.24957e-08
5.15231e-08
5.15231e-08
5.24957e-08
5.15231e-08
5.15231e-08
5.2569e-08
5.14499e-08
5.24957e-08
5.15231e-08
5.15231e-08
5.14499e-08
5.12722e-08
5.01531e-08
5.11989e-08
5.11989e-08
5.02263e-08
5.02263e-08
5.12722e-08
5.01531e-08
5.11989e-08
5.11989e-08
5.02263e-08
5.02263e-08
5.11989e-08
5.02263e-08
5.02263e-08
5.12722e-08
5.01531e-08
5.11989e-08
5.02263e-08
5.02263e-08
5.01531e-08
4.99754e-08
4.88563e-08
4.99021e-08
4.99021e-08
4.89295e-08
4.89295e-08
4.99754e-08
4.88563e-08
4.99021e-08
4.99021e-08
4.89295e-08
4.89295e-08
4.99021e-08
4.89295e-08
4.89295e-08
4.99754e-08
4.88563e-08
4.99021e-08
4.89295e-08
4.89295e-08
4.88563e-08
4.86786e-08
4.75595e-08
4.86053e-08
4.86053e-08
4.76327e-08
4.76327e-08
4.86786e-08
4.75595e-08
4.86053e-08
4.86053e-08
4.76327e-08
4.76327e-08
4.86053e-08
4.76327e-08
4.76327e-08
4.86786e-08
4.75595e-08
4.86053e-08
4.76327e-08
4.76327e-08
4.75595e-08
4.73818e-08
4.62627e-08
4.73085e-08
4.73085e-08
4.63359e-08
4.63359e-08
4.73818e-08
4.62627e-08
4.73085e-08
4.73085e-08
4.63359e-08
4.63359e-08
4.73085e-08
4.63359e-08
4.63359e-08
4.73818e-08
4.62627e-08
4.73085e-08
4.63359e-08
4.63359e-08
4.62627e-08
4.60849e-08
4.49659e-08
4.60117e-08
4.60117e-08
4.50391e-08
4.50391e-08
4.60849e-08
4.49659e-08
4.60117e-08
4.60117e-08
4.50391e-08
4.50391e-08
4.60117e-08
4.50391e-08
4.50391e-08
4.6085e-08
4.49659e-08
4.60117e-08
4.50391e-08
4.50391e-08
4.49659e-08
4.47881e-08
4.36691e-08
4.47149e-08
4.47149e-08
4.37423e-08
4.37423e-08
4.47881e-08
4.36691e-08
4.47149e-08
4.47149e-08
4.37423e-08
4.37423e-08
4.47149e-08
4.37423e-08
4.37423e-08
4.47881e-08
4.36691e-08
4.47149e-08
4.37423e-08
4.37423e-08
4.36691e-08
4.34913e-08
4.23723e-08
4.34181e-08
4.34181e-08
4.24455e-08
4.24455e-08
4.34913e-08
4.23723e-08
4.34181e-08
4.34181e-08
4.24455e-08
4.24455e-08
4.34181e-08
4.24455e-08
4.24455e-08
4.34913e-08
4.23723e-08
4.34181e-08
4.24455e-08
4.24455e-08
4.23723e-08
4.21945e-08
4.10755e-08
4.21212e-08
4.21212e-08
4.11486e-08
4.11486e-08
4.21945e-08
4.10755e-08
4.21212e-08
4.21212e-08
4.11486e-08
4.11486e-08
4.21212e-08
4.11486e-08
4.11486e-08
4.21945e-08
4.10755e-08
4.21212e-08
4.11486e-08
4.11486e-08
4.10754e-08
4.08977e-08
3.97787e-08
4.08244e-08
4.08244e-08
3.98518e-08
3.98518e-08
4.08977e-08
3.97787e-08
4.08244e-08
4.08244e-08
3.98518e-08
3.98518e-08
4.08244e-08
3.98518e-08
3.98518e-08
4.08977e-08
3.97786e-08
4.08244e-08
3.98518e-08
3.98518e-08
3.97786e-08
3.96009e-08
3.84818e-08
3.95276e-08
3.95276e-08
3.8555e-08
3.8555e-08
3.96009e-08
3.84818e-08
3.95276e-08
3.95276e-08
3.8555e-08
3.8555e-08
3.95276e-08
3.8555e-08
3.8555e-08
3.96009e-08
3.84818e-08
3.95276e-08
3.8555e-08
3.8555e-08
3.84818e-08
3.83041e-08
3.7185e-08
3.82308e-08
3.82308e-08
3.72582e-08
3.72582e-08
3.83041e-08
3.7185e-08
3.82308e-08
3.82308e-08
3.72582e-08
3.72582e-08
3.82308e-08
3.72582e-08
3.72582e-08
3.83041e-08
3.7185e-08
3.82308e-08
3.72582e-08
3.72582e-08
3.7185e-08
3.70073e-08
3.58882e-08
3.6934e-08
3.6934e-08
3.59614e-08
3.59614e-08
3.70073e-08
3.58882e-08
3.6934e-08
3.6934e-08
3.59614e-08
3.59614e-08
3.6934e-08
3.59614e-08
3.59614e-08
3.70073e-08
3.58882e-08
3.6934e-08
3.59614e-08
3.59614e-08
3.58882e-08
3.57105e-08
3.45914e-08
3.56372e-08
3.56372e-08
3.46646e-08
3.46646e-08
3.57105e-08
3.45914e-08
3.56372e-08
3.56372e-08
3.46646e-08
3.46646e-08
3.56372e-08
3.46646e-08
3.46646e-08
3.57105e-08
3.45914e-08
3.56372e-08
3.46646e-08
3.46646e-08
3.45914e-08
3.44137e-08
3.32946e-08
3.43404e-08
3.43404e-08
3.33678e-08
3.33678e-08
3.44137e-08
3.32946e-08
3.43404e-08
3.43404e-08
3.33678e-08
3.33678e-08
3.43404e-08
3.33678e-08
3.33678e-08
3.44137e-08
3.32946e-08
3.43404e-08
3.33678e-08
3.33678e-08
3.32946e-08
3.31169e-08
3.19979e-08
3.30436e-08
3.30436e-08
3.2071e-08
3.2071e-08
3.31169e-08
3.19979e-08
3.30436e-08
3.30436e-08
3.2071e-08
3.2071e-08
3.30436e-08
3.2071e-08
3.2071e-08
3.31169e-08
3.19978e-08
3.30436e-08
3.2071e-08
3.2071e-08
3.19978e-08
3.18201e-08
3.07011e-08
3.17468e-08
3.17468e-08
3.07742e-08
3.07742e-08
3.18201e-08
3.07011e-08
3.17468e-08
3.17468e-08
3.07742e-08
3.07742e-08
3.17468e-08
3.07742e-08
3.07742e-08
3.18201e-08
3.07011e-08
3.17468e-08
3.07742e-08
3.07742e-08
3.0701e-08
3.05233e-08
2.94043e-08
3.045e-08
3.045e-08
2.94774e-08
2.94774e-08
3.05233e-08
2.94043e-08
3.045e-08
3.045e-08
2.94774e-08
2.94774e-08
3.045e-08
2.94774e-08
2.94774e-08
3.05233e-08
2.94043e-08
3.045e-08
2.94774e-08
2.94774e-08
2.94042e-08
2.92265e-08
2.81075e-08
2.91532e-08
2.91532e-08
2.81806e-08
2.81806e-08
2.92265e-08
2.81075e-08
2.91532e-08
2.91532e-08
2.81806e-08
2.81806e-08
2.91532e-08
2.81806e-08
2.81806e-08
2.92265e-08
2.81075e-08
2.91532e-08
2.81806e-08
2.81806e-08
2.81074e-08
2.79297e-08
2.68107e-08
2.78564e-08
2.78564e-08
2.68838e-08
2.68838e-08
2.79297e-08
2.68107e-08
2.78564e-08
2.78564e-08
2.68838e-08
2.68838e-08
2.78564e-08
2.68838e-08
2.68838e-08
2.79297e-08
2.68107e-08
2.78564e-08
2.68838e-08
2.68838e-08
2.68106e-08
2.66329e-08
2.55139e-08
2.65596e-08
2.65596e-08
2.5587e-08
2.5587e-08
2.66329e-08
2.55139e-08
2.65596e-08
2.65596e-08
2.5587e-08
2.5587e-08
2.65596e-08
2.5587e-08
2.5587e-08
2.66329e-08
2.55139e-08
2.65596e-08
2.5587e-08
2.5587e-08
2.55138e-08
2.53361e-08
2.42171e-08
2.52628e-08
2.52628e-08
2.42902e-08
2.42902e-08
2.53361e-08
2.42171e-08
2.52628e-08
2.52628e-08
2.42902e-08
2.42902e-08
2.52628e-08
2.42902e-08
2.42902e-08
2.53361e-08
2.42171e-08
2.52628e-08
2.42902e-08
2.42902e-08
2.4217e-08
2.40393e-08
2.29203e-08
2.3966e-08
2.3966e-08
2.29934e-08
2.29934e-08
2.40393e-08
2.29203e-08
2.3966e-08
2.3966e-08
2.29934e-08
2.29934e-08
2.3966e-08
2.29934e-08
2.29934e-08
2.40393e-08
2.29203e-08
2.3966e-08
2.29934e-08
2.29934e-08
2.29202e-08
2.27425e-08
2.16235e-08
2.26692e-08
2.26692e-08
2.16966e-08
2.16966e-08
2.27425e-08
2.16235e-08
2.26692e-08
2.26692e-08
2.16966e-08
2.16966e-08
2.26692e-08
2.16966e-08
2.16966e-08
2.27425e-08
2.16234e-08
2.26692e-08
2.16966e-08
2.16966e-08
2.16234e-08
2.14457e-08
2.03267e-08
2.13724e-08
2.13724e-08
2.03998e-08
2.03998e-08
2.14457e-08
2.03267e-08
2.13724e-08
2.13724e-08
2.03998e-08
2.03998e-08
2.13724e-08
2.03998e-08
2.03998e-08
2.14457e-08
2.03266e-08
2.13724e-08
2.03998e-08
2.03998e-08
2.03266e-08
2.01489e-08
1.90299e-08
2.00756e-08
2.00756e-08
1.9103e-08
1.9103e-08
2.01489e-08
1.90299e-08
2.00756e-08
2.00756e-08
1.9103e-08
1.9103e-08
2.00756e-08
1.9103e-08
1.9103e-08
2.01489e-08
1.90298e-08
2.00756e-08
1.9103e-08
1.9103e-08
1.90298e-08
1.88521e-08
1.77331e-08
1.87788e-08
1.87788e-08
1.78062e-08
1.78062e-08
1.88521e-08
1.77331e-08
1.87788e-08
1.87788e-08
1.78062e-08
1.78062e-08
1.87788e-08
1.78062e-08
1.78062e-08
1.88521e-08
1.7733e-08
1.87788e-08
1.78062e-08
1.78062e-08
1.7733e-08
1.75553e-08
1.64363e-08
1.7482e-08
1.7482e-08
1.65094e-08
1.65094e-08
1.75553e-08
1.64363e-08
1.7482e-08
1.7482e-08
1.65094e-08
1.65094e-08
1.7482e-08
1.65094e-08
1.65094e-08
1.75553e-08
1.64363e-08
1.7482e-08
1.65094e-08
1.65094e-08
1.64362e-08
1.62585e-08
1.51395e-08
1.61852e-08
1.61852e-08
1.52126e-08
1.52126e-08
1.62585e-08
1.51395e-08
1.61852e-08
1.61852e-08
1.52126e-08
1.52126e-08
1.61852e-08
1.52126e-08
1.52126e-08
1.62585e-08
1.51395e-08
1.61852e-08
1.52126e-08
1.52126e-08
1.51394e-08
1.49617e-08
1.38427e-08
1.48884e-08
1.48884e-08
1.39158e-08
1.39158e-08
1.49617e-08
1.38427e-08
1.48884e-08
1.48884e-08
1.39158e-08
1.39158e-08
1.48884e-08
1.39158e-08
1.39158e-08
1.49617e-08
1.38427e-08
1.48884e-08
1.39158e-08
1.39158e-08
1.38426e-08
1.36649e-08
1.25459e-08
1.35916e-08
1.35916e-08
1.2619e-08
1.2619e-08
1.36649e-08
1.25459e-08
1.35916e-08
1.35916e-08
1.2619e-08
1.2619e-08
1.35916e-08
1.2619e-08
1.2619e-08
1.36649e-08
1.25459e-08
1.35916e-08
1.2619e-08
1.2619e-08
1.25458e-08
1.23681e-08
1.12491e-08
1.22948e-08
1.22948e-08
1.13222e-08
1.13222e-08
1.23681e-08
1.12491e-08
1.22948e-08
1.22948e-08
1.13222e-08
1.13222e-08
1.22948e-08
1.13222e-08
1.13222e-08
1.23681e-08
1.12491e-08
1.22948e-08
1.13222e-08
1.13222e-08
1.1249e-08
1.10713e-08
9.95226e-09
1.09981e-08
1.09981e-08
1.00254e-08
1.00254e-08
1.10713e-08
9.95226e-09
1.09981e-08
1.09981e-08
1.00254e-08
1.00254e-08
1.09981e-08
1.00254e-08
1.00254e-08
1.10713e-08
9.95226e-09
1.09981e-08
1.00254e-08
1.00254e-08
9.95225e-09
9.77452e-09
8.65546e-09
9.70125e-09
9.70125e-09
8.72865e-09
8.72865e-09
9.77451e-09
8.65546e-09
9.70125e-09
9.70125e-09
8.72865e-09
8.72865e-09
9.70125e-09
8.72865e-09
8.72865e-09
9.77452e-09
8.65546e-09
9.70125e-09
8.72865e-09
8.72865e-09
8.65545e-09
8.47771e-09
7.35865e-09
8.40446e-09
8.40446e-09
7.43184e-09
7.43184e-09
8.47771e-09
7.35865e-09
8.40446e-09
8.40446e-09
7.43184e-09
7.43184e-09
8.40446e-09
7.43184e-09
7.43184e-09
8.47772e-09
7.35865e-09
8.40446e-09
7.43184e-09
7.43184e-09
7.35864e-09
7.18091e-09
6.06183e-09
7.10767e-09
7.10767e-09
6.13503e-09
6.13503e-09
7.18091e-09
6.06184e-09
7.10767e-09
7.10767e-09
6.13503e-09
6.13503e-09
7.10767e-09
6.13503e-09
6.13503e-09
7.18091e-09
6.06183e-09
7.10767e-09
6.13503e-09
6.13503e-09
6.06182e-09
5.8841e-09
4.76497e-09
5.81091e-09
5.81091e-09
4.83818e-09
4.83818e-09
5.88409e-09
4.76497e-09
5.81091e-09
5.81091e-09
4.83818e-09
4.83818e-09
5.81091e-09
4.83818e-09
4.83818e-09
5.8841e-09
4.76496e-09
5.81091e-09
4.83818e-09
4.83818e-09
4.76495e-09
4.58725e-09
3.46794e-09
4.51421e-09
4.51421e-09
3.54119e-09
3.54119e-09
4.58724e-09
3.46793e-09
4.51421e-09
4.51421e-09
3.54119e-09
3.54119e-09
4.51421e-09
3.54119e-09
3.54119e-09
4.58725e-09
3.46793e-09
4.51421e-09
3.54119e-09
3.54118e-09
3.46792e-09
3.29035e-09
2.17186e-09
3.21765e-09
3.21765e-09
2.24454e-09
2.24454e-09
3.29034e-09
2.17185e-09
3.21765e-09
3.21765e-09
2.24455e-09
2.24453e-09
3.21765e-09
2.24455e-09
2.24453e-09
3.29035e-09
2.17184e-09
3.21765e-09
2.24454e-09
2.24454e-09
2.17183e-09
1.99773e-09
7.98973e-10
1.92564e-09
1.92563e-09
8.74733e-10
8.74678e-10
1.99771e-09
7.98975e-10
1.92567e-09
1.92561e-09
8.74789e-10
8.74663e-10
1.92561e-09
8.74783e-10
8.74697e-10
1.99771e-09
7.98985e-10
1.92565e-09
8.7475e-10
8.74701e-10
7.98982e-10
7.07711e-10
7.46736e-10
7.46691e-10
7.07697e-10
7.468e-10
7.4668e-10
8.47076e-10
8.47069e-10
8.47048e-10
7.46709e-10
7.07682e-10
7.46707e-10
1.28271e-07
1.28889e-07
1.28556e-07
1.28556e-07
1.30293e-07
1.29151e-07
1.31676e-07
1.28779e-07
1.30293e-07
1.29151e-07
1.2878e-07
1.31676e-07
1.29447e-07
1.32111e-07
1.32111e-07
1.25628e-07
1.26884e-07
1.269e-07
1.2559e-07
1.26823e-07
1.25574e-07
1.25628e-07
1.26884e-07
1.269e-07
1.2559e-07
1.27138e-07
1.27138e-07
1.27138e-07
1.24675e-07
1.24675e-07
1.24675e-07
1.24675e-07
1.2569e-07
1.26938e-07
1.27149e-07
1.25972e-07
1.26974e-07
1.25641e-07
1.26025e-07
1.26823e-07
1.25574e-07
1.2569e-07
1.27149e-07
1.26938e-07
1.25972e-07
1.26974e-07
1.26025e-07
1.25641e-07
1.26956e-07
1.26956e-07
1.25806e-07
1.25624e-07
1.25624e-07
1.23203e-07
1.24008e-07
1.24028e-07
1.23189e-07
1.24002e-07
1.23184e-07
1.23203e-07
1.24008e-07
1.24028e-07
1.23189e-07
1.2404e-07
1.2404e-07
1.2404e-07
1.2237e-07
1.2237e-07
1.2237e-07
1.2237e-07
1.23219e-07