/*--------------------------------*- C++ -*----------------------------------*\
| =========                 |                                                 |
| \\      /  F ield         | OpenFOAM: The Open Source CFD Toolbox           |
|  \\    /   O peration     | Version:  2312                                  |
|   \\  /    A nd           | Website:  www.openfoam.com                      |
|    \\/     M anipulation  |                                                 |
\*---------------------------------------------------------------------------*/
FoamFile
{
    version     2.0;
    format      ascii;
    arch        "LSB;label=32;scalar=64";
    class       volScalarField;
    location    "750";
    object      nut;
}
// * * * * * * * * * * * * * * * * * * * * * * * * * * * * * * * * * * * * * //

dimensions      [0 2 -1 0 0 0 0];

internalField   nonuniform List<scalar> 
43208
(
0.000198485
0.000190456
0.000189622
0.000170233
0.000193894
0.000201988
0.000205539
0.00018705
0.00024371
0.000231116
0.000230824
0.000207985
0.000266632
0.000237012
0.000226592
0.000197937
0.000202178
0.000178864
0.000180432
0.00016121
0.000162318
0.000160316
0.000167288
0.000155753
0.000202598
0.000220122
0.000219115
0.000197876
0.000281428
0.000257234
0.000247231
0.000220887
0.000287256
0.00022775
0.000218655
0.000193547
0.000207408
0.00018809
0.000192885
0.00017064
0.000189587
0.000193778
0.000209092
0.000184863
0.000239585
0.000222917
0.000226902
0.000199148
0.000258536
0.000229235
0.000213189
0.000190652
0.000223032
0.00020763
0.000196605
0.000180234
0.000209699
0.000201924
0.000206525
0.000186708
0.000233764
0.000212129
0.00022275
0.000196423
0.00024464
0.000215784
0.000219961
0.000191581
0.000233085
0.000212342
0.000207748
0.000183097
0.000227172
0.000210955
0.000207861
0.00018524
0.000235005
0.000214249
0.000215319
0.000192062
0.000239601
0.00021682
0.000216947
0.000197758
0.000172255
0.000191722
0.00019171
0.000172061
0.000191705
0.000191016
0.000191745
0.000191412
0.000171005
0.000191073
0.000191374
0.00017153
0.000171141
0.000179265
0.000190459
0.000190426
0.000190128
0.000190576
0.000170888
0.000179921
0.000190442
0.000189598
0.000190508
0.000193404
0.000190006
0.000191083
0.000193725
0.000169653
0.000182706
0.00018992
0.000194386
0.000194665
0.000182717
0.000183567
0.000206393
0.000201024
0.000201515
0.00022778
0.000227544
0.00018425
0.000206202
0.000201387
0.000204703
0.000227612
0.000227957
0.000204811
0.000227357
0.000227813
0.000187143
0.000207048
0.000205616
0.000227843
0.000227746
0.000206858
0.000208121
0.000211958
0.000231938
0.000231475
0.000242971
0.000242245
0.00020777
0.000210762
0.000231625
0.000231099
0.000242254
0.000238441
0.000230925
0.000241476
0.000238395
0.000208119
0.000203931
0.000230708
0.000237139
0.000237168
0.000204158
0.000206422
0.000166537
0.000239646
0.000238308
0.000191031
0.000190466
0.00020523
0.000166121
0.000238581
0.000228805
0.000191245
0.000188963
0.000228593
0.000190421
0.000187996
0.000197848
0.000165592
0.000226526
0.000188692
0.000187947
0.000164669
0.000161098
0.000145445
0.000178717
0.000178489
0.000163524
0.000163682
0.000160842
0.000145636
0.000179257
0.0001801
0.000164441
0.000169086
0.000179236
0.000164571
0.000168465
0.000162106
0.000153779
0.000179708
0.000170078
0.000169492
0.000153569
0.000145966
0.000189716
0.000159108
0.000159315
0.000199613
0.000200847
0.000146391
0.000190806
0.000160087
0.000166063
0.000199486
0.000203554
0.000165676
0.000200941
0.000203913
0.000155711
0.000192141
0.000166867
0.000204106
0.000204302
0.000192138
0.000197242
0.000226171
0.000219241
0.000220526
0.000252341
0.000253378
0.000198409
0.000227673
0.00021863
0.000219106
0.000250795
0.000243793
0.000219597
0.000252325
0.000245714
0.000197901
0.000218999
0.000219429
0.000242954
0.000244337
0.000219807
0.000227563
0.000207293
0.000257131
0.000258368
0.000249681
0.000248405
0.000229132
0.000206031
0.000255507
0.000248066
0.000247893
0.00023508
0.000249911
0.000247549
0.000240478
0.000219939
0.000196661
0.000248518
0.000233772
0.000238169
0.000200614
0.000198735
0.000168857
0.000229782
0.000228378
0.000191619
0.000191333
0.000197314
0.000168878
0.000228571
0.000219621
0.000192121
0.00019509
0.000223575
0.000191649
0.000194311
0.000190108
0.000172066
0.000222007
0.000195326
0.000194784
0.000171939
0.00016732
0.000172582
0.000187502
0.000187535
0.000182735
0.000183721
0.000167578
0.00017351
0.000188377
0.000192687
0.000184465
0.000197762
0.000191603
0.000184968
0.000192004
0.000170661
0.000186125
0.000192266
0.000199601
0.000194456
0.00018125
0.000177019
0.000201852
0.000191979
0.000192171
0.000222896
0.000219369
0.000177282
0.000197282
0.000194816
0.000207846
0.000223644
0.000225074
0.000201402
0.000218666
0.00021973
0.000189902
0.000203807
0.00020385
0.000224532
0.000220552
0.000198741
0.000203631
0.000205491
0.000227637
0.000224145
0.000235508
0.000231068
0.000198922
0.000203128
0.000227683
0.000227514
0.000234752
0.000224359
0.000221809
0.000229224
0.000224074
0.000204356
0.000192484
0.000222451
0.000222006
0.000222314
0.000193553
0.000201204
0.000179476
0.00023229
0.000231106
0.000205507
0.000211859
0.000201156
0.000186944
0.000229158
0.000214763
0.000203211
0.000197716
0.000218345
0.000211843
0.000205329
0.000188117
0.000174597
0.000215761
0.000197913
0.000203305
0.000180946
0.000177846
0.000176843
0.000201118
0.000207225
0.000196098
0.000201759
0.000185308
0.000181318
0.000199449
0.000196225
0.000195033
0.000197703
0.00020394
0.000202631
0.000202235
0.000173527
0.000182852
0.000202193
0.0001989
0.000201919
0.000184566
0.000179222
0.00019418
0.000197416
0.000201028
0.000214789
0.000208892
0.0001811
0.000187618
0.000198143
0.000205481
0.000216532
0.000220729
0.000206535
0.000209611
0.00021744
0.000185879
0.000198329
0.000207517
0.000221163
0.000219147
0.000196119
0.00019525
0.000196406
0.000217763
0.000211782
0.000221622
0.000215546
0.000188577
0.000191003
0.000219385
0.000222431
0.00022307
0.00022437
0.00021873
0.000215416
0.000220539
0.00019875
0.000195886
0.000220438
0.00022449
0.000222066
0.000193623
0.000194921
0.000186547
0.000220946
0.000215922
0.000211415
0.000213915
0.000190964
0.000189762
0.000221827
0.000220272
0.000211086
0.000209777
0.00021677
0.000213194
0.00020784
0.000193728
0.000185299
0.000217685
0.000209159
0.000207504
0.000183652
0.00018593
0.000185193
0.000209768
0.000212951
0.00020784
0.000211617
0.000189479
0.000188771
0.000209273
0.000208356
0.000207361
0.00020722
0.00020677
0.000211157
0.000205248
0.000184829
0.000185543
0.000206241
0.000206584
0.000204714
0.000184138
0.000185682
0.000191263
0.00020792
0.000211426
0.000213992
0.000212896
0.000188601
0.000189744
0.000207465
0.000208197
0.000213982
0.000214028
0.000207056
0.00021306
0.00021447
0.000186352
0.00019104
0.000206501
0.00021414
0.000214455
0.000191671
0.000191683
0.000195924
0.000215573
0.000214071
0.000218406
0.000216323
0.000189922
0.000193983
0.000215598
0.000215161
0.000218331
0.000216857
0.000216123
0.000216486
0.000218765
0.000191185
0.000194368
0.000216169
0.00021702
0.00021874
0.000196064
0.000197559
0.000218514
0.00021666
0.00019598
0.000218414
0.000216781
0.000237728
0.000238235
0.000240511
0.000218958
0.000195881
0.000218905
9.65591e-05
5.05283e-05
2.38427e-05
5.05214e-05
0.000200961
0.000201174
0.000200306
0.00020059
0.000138588
0.000197188
0.000100027
0.000208569
9.87857e-05
5.07805e-05
9.63098e-05
5.10056e-05
2.39392e-05
2.40105e-05
9.89843e-05
5.07814e-05
9.64121e-05
5.10061e-05
0.000198713
0.000197965
0.000198302
0.000190891
0.000191272
0.000191598
0.00019202
0.000139396
9.91672e-05
0.000200149
0.000188256
0.000135696
0.000101843
0.000197671
2.39522e-05
2.40222e-05
0.00014028
0.00019963
9.94786e-05
0.00018724
0.000135684
0.000196959
0.000102495
7.60087e-05
7.61212e-05
0.000170548
7.78598e-05
7.79519e-05
0.000106108
5.12888e-05
0.000103714
5.13326e-05
2.40727e-05
2.40695e-05
0.00010615
5.12788e-05
0.000103888
5.13159e-05
0.000194394
0.000197917
0.000198385
0.00023416
0.000233854
0.000235446
0.000235436
0.000155806
0.000107436
0.000207856
0.000212405
0.000149848
0.000110285
0.000220307
2.40707e-05
2.40527e-05
0.000156589
0.000211358
0.000108359
0.000215379
0.000151001
0.000223143
0.000110963
8.11959e-05
8.10709e-05
0.000197919
8.25171e-05
8.23012e-05
0.000106015
5.11207e-05
0.00010771
5.08336e-05
2.39698e-05
2.38768e-05
0.000105375
5.10967e-05
0.000107495
5.08191e-05
0.000243158
0.000243153
0.000243005
0.000262016
0.000261062
0.000258151
0.000257851
0.00016014
0.00011235
0.000244192
0.000234361
0.000160871
0.000111473
0.000248521
2.39299e-05
2.38427e-05
0.000158255
0.000243824
0.000112324
0.000234293
0.000161111
0.000247963
0.000109808
8.26334e-05
8.2327e-05
0.000212297
8.0831e-05
8.05685e-05
9.47814e-05
5.02798e-05
9.96059e-05
5.00661e-05
2.37187e-05
2.36777e-05
9.48551e-05
5.02882e-05
9.9152e-05
5.00809e-05
0.00026548
0.000259823
0.000259377
0.000222325
0.000220928
0.000216078
0.000214806
0.00013969
0.000104932
0.00025549
0.000221423
0.00014923
9.93888e-05
0.000240286
2.37271e-05
2.371e-05
0.000138002
0.000247543
0.000102736
0.000212893
0.000146328
0.000232159
9.84351e-05
7.61878e-05
7.61549e-05
0.000183418
7.36443e-05
7.37663e-05
8.83504e-05
5.00699e-05
8.93684e-05
5.03366e-05
2.3729e-05
2.38398e-05
8.94008e-05
5.00812e-05
9.02483e-05
5.03422e-05
0.000201267
0.000200381
0.000199197
0.000168281
0.000168642
0.00017458
0.000173953
0.000123817
9.25519e-05
0.000191391
0.000171443
0.000126765
9.11108e-05
0.000182242
2.37778e-05
2.38771e-05
0.000126157
0.000192216
9.4204e-05
0.000175547
0.000128381
0.000185286
9.34231e-05
7.17333e-05
7.19353e-05
0.000155951
7.23254e-05
7.23644e-05
9.97549e-05
5.10353e-05
9.40519e-05
5.14543e-05
2.40682e-05
2.41885e-05
0.000100147
5.10282e-05
9.49501e-05
5.14351e-05
0.000162704
0.000169751
0.00016914
0.000172566
0.000174892
0.000180859
0.000181671
0.000139704
9.60824e-05
0.000167805
0.000162138
0.000129712
0.000102294
0.000166823
2.40502e-05
2.41317e-05
0.000141702
0.000173565
9.87769e-05
0.000171434
0.000132929
0.000173682
0.000103839
7.59728e-05
7.59302e-05
0.000168249
7.87785e-05
7.8834e-05
0.000111613
5.182e-05
0.000108653
5.17794e-05
2.42598e-05
2.42108e-05
0.000110403
5.17758e-05
0.000107986
5.17232e-05
0.000204914
0.000205195
0.000206326
0.000270689
0.00027234
0.000261551
0.000263873
0.000166231
0.000112756
0.000226129
0.000235736
0.000158383
0.000116657
0.000245266
2.41647e-05
2.41148e-05
0.000163895
0.000225595
0.000111643
0.000231066
0.00015761
0.00024155
0.000114098
8.25386e-05
8.28715e-05
0.000210793
8.36356e-05
8.3996e-05
0.000105264
5.11982e-05
0.000110386
5.08093e-05
2.40014e-05
2.38947e-05
0.000103985
5.11527e-05
0.000108697
5.07828e-05
0.000283008
0.000270211
0.000272951
0.000300569
0.000301602
0.000284233
0.000289148
0.000162533
0.000117078
0.00027498
0.000262735
0.000170997
0.000111403
0.000281915
2.39563e-05
2.38882e-05
0.000158229
0.000265969
0.000112737
0.000251304
0.000166442
0.000271925
0.000107855
8.23795e-05
8.24466e-05
0.000221051
7.97711e-05
7.96805e-05
9.45741e-05
5.04379e-05
9.71167e-05
5.04078e-05
2.38183e-05
2.38301e-05
9.47745e-05
5.04429e-05
9.67999e-05
5.04254e-05
0.000286784
0.00027101
0.000276616
0.000220259
0.000219708
0.000220621
0.000221049
0.000136837
0.000101427
0.00025361
0.000211166
0.00014398
9.83099e-05
0.00023312
2.38593e-05
2.38966e-05
0.000136493
0.000244426
0.000100309
0.000206747
0.000141879
0.000228124
9.85618e-05
7.58535e-05
7.58165e-05
0.000180128
7.49041e-05
7.49336e-05
9.58919e-05
5.06132e-05
9.3819e-05
5.0831e-05
2.39026e-05
2.39618e-05
9.75363e-05
5.06679e-05
9.49784e-05
5.08957e-05
0.000206767
0.000212377
0.000211082
0.00019064
0.000190217
0.000201895
0.000198415
0.00013707
9.7305e-05
0.000200683
0.000185819
0.000133311
9.95914e-05
0.000196439
2.39916e-05
2.40429e-05
0.000140669
0.000205062
9.97841e-05
0.000190418
0.000135297
0.000201361
0.000102943
7.56386e-05
7.56755e-05
0.000170572
7.71794e-05
7.71618e-05
0.000102932
5.11625e-05
0.000100326
5.12654e-05
2.40309e-05
2.40514e-05
0.000104339
5.12012e-05
0.000102211
5.12688e-05
0.000188739
0.000205303
0.00019895
0.000228568
0.000223066
0.000234451
0.000227424
0.000149988
0.000103772
0.000200702
0.00020364
0.000145462
0.000106115
0.000212429
2.40652e-05
2.40391e-05
0.000154061
0.000214598
0.000107801
0.000216715
0.000150246
0.00022427
0.00010939
7.94861e-05
7.9305e-05
0.00019313
8.01536e-05
7.99637e-05
0.000104963
5.11978e-05
0.000104987
5.10215e-05
2.40361e-05
2.40098e-05
0.00010338
5.11276e-05
0.000105574
5.09211e-05
0.000234607
0.000239768
0.00023441
0.000256127
0.000252238
0.000248136
0.000243882
0.000153609
0.000107945
0.000235972
0.000225369
0.000153333
0.00010824
0.00023969
2.39372e-05
2.38902e-05
0.000152
0.000238829
0.000108938
0.000229412
0.00015584
0.000241934
0.000106265
7.96157e-05
7.95176e-05
0.000200195
7.84698e-05
7.83982e-05
9.8818e-05
5.07328e-05
0.000100919
5.06636e-05
2.3957e-05
2.3943e-05
9.64618e-05
5.06351e-05
9.84707e-05
5.05849e-05
0.000255411
0.000243713
0.000244323
0.000231754
0.000241693
0.000219129
0.000227588
0.000145477
0.000105921
0.000245615
0.000224201
0.000148672
0.000104306
0.000240317
2.3866e-05
2.38933e-05
0.000139669
0.000232034
0.000101134
0.000205872
0.000143271
0.000223828
9.94215e-05
7.67136e-05
7.66009e-05
0.000184881
7.62735e-05
7.61357e-05
9.72724e-05
5.07183e-05
9.71954e-05
5.0837e-05
2.39391e-05
2.3951e-05
9.72359e-05
5.06981e-05
9.54734e-05
5.08528e-05
0.000232806
0.000215116
0.000223424
0.000211376
0.000218248
0.000209258
0.000217865
0.000141883
0.000102393
0.000221408
0.000205015
0.000142369
0.000102105
0.000218452
2.39715e-05
2.40232e-05
0.000140433
0.000211569
9.91841e-05
0.000194983
0.000137496
0.000209948
0.000101358
7.66222e-05
7.65281e-05
0.000180012
7.74733e-05
7.74231e-05
0.000100457
5.10129e-05
9.93091e-05
5.10667e-05
2.3973e-05
2.39876e-05
0.000102037
5.10641e-05
0.000100502
5.11221e-05
0.000216004
0.000212328
0.000217691
0.000226925
0.000218291
0.000236108
0.000232865
0.00014704
0.000102932
0.000213952
0.000202733
0.000144889
0.000103652
0.000215593
2.40583e-05
2.4057e-05
0.00015065
0.000216973
0.000105351
0.000213052
0.000147163
0.000224447
0.00010706
7.90062e-05
7.88948e-05
0.000192031
7.95222e-05
7.9352e-05
0.000101303
5.10438e-05
0.000101266
5.09898e-05
2.4001e-05
2.40086e-05
0.000102221
5.1079e-05
0.000102877
5.10033e-05
0.00022454
0.000240874
0.000236789
0.000243374
0.000235887
0.00024731
0.000242524
0.000148572
0.000104389
0.000227577
0.000213669
0.000148611
0.000104415
0.000229533
2.40131e-05
2.39899e-05
0.00015195
0.000237136
0.000107941
0.000224045
0.000153039
0.000238948
0.000106625
7.94737e-05
7.93738e-05
0.000197788
7.85654e-05
7.86013e-05
9.97749e-05
5.08924e-05
0.000100226
5.08814e-05
2.401e-05
2.40124e-05
9.91879e-05
5.08685e-05
0.000100095
5.08445e-05
0.000237509
0.000247365
0.00024269
0.00023659
0.000238104
0.000233794
0.00023121
0.000145174
0.000104226
0.000232905
0.000215609
0.000146309
0.00010406
0.00023166
2.39651e-05
2.39686e-05
0.000144174
0.000237718
0.00010402
0.000215357
0.000146747
0.000232179
0.000102642
7.71965e-05
7.73637e-05
0.000187144
7.66007e-05
7.67478e-05
9.93983e-05
5.08998e-05
9.93855e-05
5.09437e-05
2.4006e-05
2.40096e-05
9.87108e-05
5.08597e-05
9.85577e-05
5.0913e-05
0.000236043
0.000230472
0.000228444
0.000228075
0.0002319
0.000226593
0.000224584
0.000144378
0.000103942
0.00022585
0.000211742
0.000144266
0.000103904
0.000224932
2.39827e-05
2.40013e-05
0.000142448
0.000222012
0.000102163
0.000207152
0.000142316
0.000220945
0.000102436
7.66038e-05
7.66889e-05
0.000182566
7.69825e-05
7.70224e-05
0.000100213
5.09932e-05
9.98404e-05
5.10184e-05
2.40054e-05
2.40143e-05
0.000100276
5.0982e-05
9.96434e-05
5.10131e-05
0.000231181
0.000226028
0.000223896
0.000231857
0.000231349
0.000232454
0.000232328
0.000146466
0.000104055
0.000223384
0.000211186
0.000145679
0.000104064
0.000224185
2.40111e-05
2.40204e-05
0.000146416
0.000220296
0.000103931
0.000210352
0.000145042
0.000223191
0.000104315
7.79791e-05
7.78936e-05
0.00018853
7.82048e-05
7.81001e-05
0.00010051
5.10093e-05
0.000100454
5.10427e-05
2.40106e-05
2.4033e-05
0.000100658
5.10072e-05
0.000100625
5.10396e-05
0.000233601
0.000235253
0.000235763
0.000239857
0.000237928
0.000238777
0.000240765
0.000147628
0.000104335
0.000229678
0.000214443
0.000147418
0.000104288
0.000230672
2.40107e-05
2.4029e-05
0.000148042
0.000230645
0.000104715
0.000215443
0.000147873
0.000231559
0.000104531
7.83541e-05
7.82638e-05
0.000193275
7.81158e-05
7.80491e-05
0.000109009
5.51136e-05
0.000100882
8.59106e-05
2.70459e-05
4.63313e-05
0.000108777
5.51086e-05
0.000100739
8.59084e-05
0.000258191
0.00024884
0.000249221
0.000238338
0.000254925
0.000250288
0.000250229
0.000152547
0.000106657
0.000233168
0.000218214
0.000148824
0.000109183
0.000234525
2.7035e-05
4.62475e-05
0.000152088
0.000233541
0.000106535
0.000217324
0.000148661
0.000234092
0.00010887
7.79742e-05
7.79585e-05
0.000201047
8.60372e-05
8.60477e-05
2.38448e-05
2.38433e-05
0.000176483
7.55587e-05
7.55712e-05
2.39173e-05
2.38548e-05
2.39158e-05
2.38534e-05
0.000174947
7.53447e-05
7.54079e-05
7.54391e-05
7.5456e-05
9.65449e-05
5.05192e-05
0.000138839
0.000197111
0.000100122
0.000208764
0.000138815
0.000197203
0.00010001
0.000208835
9.63233e-05
5.07149e-05
5.05588e-05
9.58619e-05
9.63084e-05
5.07161e-05
5.0552e-05
9.58487e-05
0.000138029
0.000193719
9.9101e-05
0.000201924
9.9801e-05
0.000204622
0.000136469
0.000138
0.000193723
9.89693e-05
0.00020195
9.96847e-05
0.000204659
0.000136428
0.000176443
7.5463e-05
7.54884e-05
2.38437e-05
2.39193e-05
2.38533e-05
0.000174831
7.5346e-05
7.54061e-05
7.53418e-05
7.53697e-05
2.39204e-05
2.38547e-05
0.000197031
0.000100116
9.62216e-05
5.07147e-05
5.05533e-05
9.58372e-05
0.000137786
0.000193665
9.91027e-05
0.000201665
9.98012e-05
0.000204252
0.000136211
9.61572e-05
5.07413e-05
5.05556e-05
9.58067e-05
0.000137652
0.000192793
0.000201416
9.87022e-05
0.000203927
9.9315e-05
0.000136056
9.6434e-05
5.05181e-05
0.00013851
0.00020816
9.64049e-05
0.000137794
0.000193727
9.89803e-05
0.000201845
9.97042e-05
0.000204439
0.000136172
9.62106e-05
5.07224e-05
5.05523e-05
9.58209e-05
0.000137732
0.000193099
0.000201694
9.89205e-05
0.000204155
9.95244e-05
0.000136112
9.61893e-05
5.07445e-05
5.05648e-05
9.58316e-05
2.39306e-05
2.38578e-05
0.000173664
7.5442e-05
7.55529e-05
7.50626e-05
7.5096e-05
2.39353e-05
2.38624e-05
0.000137388
0.000192766
0.000201349
9.88155e-05
0.000203602
9.93385e-05
0.00013577
0.000137415
0.000192976
0.000201443
9.90111e-05
0.000203648
9.9491e-05
0.00013581
9.6058e-05
5.07634e-05
5.05698e-05
9.60508e-05
9.60748e-05
5.07628e-05
5.05735e-05
9.60856e-05
0.000174031
7.55588e-05
7.56726e-05
7.52394e-05
7.52403e-05
2.39307e-05
2.38609e-05
2.39334e-05
2.38632e-05
2.39369e-05
2.40092e-05
2.3935e-05
2.40047e-05
7.57114e-05
7.57732e-05
0.000170048
7.72845e-05
7.7315e-05
2.40734e-05
2.4027e-05
2.4065e-05
2.40215e-05
0.000170955
7.99693e-05
7.98099e-05
7.78857e-05
7.78779e-05
9.88047e-05
5.0784e-05
9.63083e-05
5.1011e-05
0.00013895
9.91469e-05
0.000200215
0.00018835
0.000135914
0.000101576
0.000197864
0.000138971
9.91169e-05
0.000200237
0.000188251
0.000135877
0.000101737
0.000197868
9.96637e-05
5.12518e-05
5.10751e-05
0.000102815
9.96883e-05
5.12463e-05
5.10791e-05
0.000102841
0.000140542
0.000186713
0.000106102
0.000196073
0.000102496
0.000195341
0.000146918
0.000140578
0.00018672
0.000106341
0.000196159
0.000102702
0.000195352
0.000146983
7.5762e-05
7.58272e-05
0.000169999
7.74608e-05
7.75141e-05
2.39404e-05
2.40095e-05
2.40684e-05
2.40271e-05
0.000171139
8.01258e-05
8.00128e-05
7.80806e-05
7.81051e-05
2.40637e-05
2.40253e-05
0.000139273
9.91968e-05
0.00019998
0.000188314
0.000135737
0.000101648
0.000197546
9.90509e-05
5.08145e-05
9.64208e-05
5.10445e-05
0.000139386
0.000199697
9.92784e-05
0.000187209
0.000135622
0.000197108
0.000102255
9.98815e-05
5.12444e-05
5.10742e-05
0.000103018
0.000140937
0.000186785
0.000106088
0.000196634
0.000102553
0.000195232
0.000147412
9.99686e-05
5.12602e-05
5.11106e-05
0.000103139
0.000141102
0.000186696
0.000197257
0.000107135
0.000194997
0.000103345
0.000147689
9.90814e-05
5.07922e-05
9.64198e-05
5.10199e-05
0.000139514
0.000199979
9.94393e-05
0.000187656
0.00013568
0.000197377
0.0001023
9.91303e-05
5.08157e-05
9.6457e-05
5.10417e-05
0.00014112
0.000186854
0.000106397
0.000197017
0.000102806
0.000195409
0.000147682
9.99989e-05
5.12463e-05
5.10868e-05
0.000103144
0.00014126
0.000187165
0.000197696
0.00010708
0.000195326
0.000103355
0.00014787
0.00010006
5.12568e-05
5.1107e-05
0.000103222
7.59314e-05
7.60378e-05
0.000170048
7.78751e-05
7.79639e-05
2.39565e-05
2.40242e-05
2.40695e-05
2.40377e-05
0.000172145
8.06895e-05
8.06259e-05
7.85687e-05
7.8625e-05
2.40673e-05
2.40387e-05
0.000140314
0.00019973
9.96461e-05
0.000187584
0.000135737
0.000197068
0.000102541
9.95837e-05
5.0838e-05
9.67754e-05
5.10672e-05
9.95948e-05
5.08353e-05
9.68003e-05
5.10596e-05
0.000142132
0.000187047
0.000199238
0.000107323
0.000195353
0.000103584
0.00014887
0.000142158
0.000187435
0.00019941
0.000107249
0.000195495
0.000103591
0.000148864
0.000100536
5.12694e-05
5.11312e-05
0.000103664
0.000100537
5.12607e-05
5.11226e-05
0.000103655
2.39514e-05
2.40204e-05
2.39537e-05
2.40199e-05
0.000172499
8.06268e-05
8.05455e-05
7.85289e-05
7.85849e-05
2.40692e-05
2.40359e-05
2.40635e-05
2.40342e-05
2.40796e-05
2.4081e-05
2.40706e-05
2.40712e-05
8.0577e-05
8.03716e-05
0.000195198
8.21865e-05
8.18951e-05
2.40149e-05
2.40689e-05
2.40075e-05
2.40592e-05
0.000198892
8.31734e-05
8.28841e-05
8.25375e-05
8.22391e-05
0.000106109
5.12793e-05
0.000103737
5.13124e-05
0.000155412
0.000107214
0.000205954
0.00021178
0.000149112
0.000110368
0.000218985
0.000155454
0.000107425
0.000206139
0.000212119
0.000149179
0.000110411
0.000219097
0.000106599
5.11976e-05
5.13271e-05
0.000107453
0.000106591
5.11652e-05
5.13028e-05
0.00010743
0.000157016
0.000220994
0.000112501
0.000239384
0.000111086
0.000230528
0.000160298
0.000157044
0.000221077
0.0001123
0.000239279
0.000111058
0.000230541
0.000160282
8.06909e-05
8.05368e-05
0.000195677
8.21249e-05
8.18869e-05
2.40675e-05
2.40635e-05
2.40014e-05
2.40555e-05
0.000199234
8.29602e-05
8.27319e-05
8.24133e-05
8.21705e-05
2.39978e-05
2.40497e-05
0.000155662
0.000107152
0.000207328
0.00021199
0.000149585
0.000110182
0.000220001
0.000106255
5.12846e-05
0.000104016
5.12922e-05
0.000155905
0.000208806
0.000108224
0.000214817
0.000149875
0.000221242
0.00011098
0.00010659
5.11729e-05
5.13081e-05
0.000107384
0.000157155
0.000221014
0.000112195
0.000239324
0.000110858
0.000231049
0.000160105
0.00010668
5.10804e-05
5.12587e-05
0.000107465
0.000157359
0.000222795
0.000239573
0.000112613
0.000231888
0.000111514
0.000160219
0.000106183
5.1276e-05
0.000103999
5.13012e-05
0.000155969
0.000209198
0.000108157
0.000214764
0.000150041
0.000221429
0.000110937
0.00010627
5.12819e-05
0.000104087
5.12925e-05
0.000157241
0.000221124
0.000112054
0.000239089
0.000110886
0.000231097
0.000160065
0.00010659
5.11432e-05
5.12865e-05
0.000107353
0.000157384
0.000222659
0.000239394
0.000112625
0.00023188
0.000111493
0.000160171
0.000106677
5.10856e-05
5.12621e-05
0.000107443
8.12548e-05
8.1152e-05
0.000198167
8.25121e-05
8.23351e-05
2.40678e-05
2.40473e-05
2.39633e-05
2.40317e-05
0.000201294
8.29534e-05
8.27362e-05
8.26955e-05
8.25074e-05
2.39572e-05
2.40257e-05
0.000156567
0.000211469
0.000108272
0.000215315
0.000150991
0.000223185
0.000110893
0.00010646
5.1289e-05
0.000104483
5.12825e-05
0.00010645
5.12811e-05
0.000104468
5.1278e-05
0.000157827
0.000223014
0.000239563
0.000112521
0.000232886
0.000111439
0.000160407
0.000157809
0.0002229
0.000239538
0.000112505
0.000232884
0.000111392
0.000160394
0.000106777
5.10432e-05
5.12376e-05
0.000107447
0.000106767
5.10422e-05
5.12358e-05
0.000107454
2.40709e-05
2.40555e-05
2.40643e-05
2.40456e-05
0.000201052
8.31363e-05
8.28567e-05
8.27309e-05
8.2497e-05
2.39669e-05
2.40351e-05
2.39557e-05
2.40245e-05
2.39831e-05
2.38852e-05
2.39769e-05
2.38832e-05
8.33443e-05
8.30655e-05
0.000213271
8.22089e-05
8.20664e-05
2.37486e-05
2.38457e-05
2.37496e-05
2.3845e-05
0.000213875
7.86983e-05
7.87672e-05
8.14755e-05
8.13948e-05
0.000105943
5.10883e-05
0.000107676
5.08089e-05
0.000161735
0.000112814
0.00024517
0.000235255
0.00016112
0.000112289
0.000249876
0.000161606
0.000112598
0.000244975
0.000234813
0.000161108
0.000111771
0.000249652
0.000104962
5.03822e-05
5.07178e-05
0.000101239
0.000104893
5.03715e-05
5.06967e-05
0.000101187
0.000160118
0.000239665
0.000107255
0.000259643
0.000111167
0.000255014
0.000154199
0.000159998
0.000239162
0.000106897
0.000259343
0.00011069
0.00025477
0.000154092
8.30027e-05
8.28097e-05
0.000212773
8.18238e-05
8.17751e-05
2.39677e-05
2.38776e-05
2.37461e-05
2.38388e-05
0.000213045
7.8471e-05
7.85428e-05
8.1124e-05
8.1129e-05
2.37487e-05
2.38406e-05
0.000160473
0.000112509
0.000244635
0.000234845
0.000160929
0.000111928
0.000249042
0.000105195
5.09923e-05
0.000107481
5.07114e-05
0.00016009
0.000244493
0.000112615
0.000234563
0.00016105
0.000248886
0.000110278
0.000104291
5.03867e-05
5.0708e-05
0.000100665
0.000158749
0.000239139
0.000107145
0.000257872
0.000110863
0.000253846
0.000152653
0.000104077
5.03452e-05
5.06101e-05
0.000100404
0.000158295
0.000238126
0.000256785
0.000104883
0.000253491
0.000108976
0.000151982
0.000105215
5.1067e-05
0.000107352
5.07937e-05
0.000159933
0.000244192
0.000112743
0.000234328
0.000160996
0.000248511
0.000110493
0.000105116
5.09964e-05
0.000107405
5.07047e-05
0.000158442
0.000238607
0.00010677
0.000257197
0.000110451
0.000253295
0.000152271
0.000104123
5.03702e-05
5.06849e-05
0.000100439
0.000158153
0.000237983
0.000256334
0.000104843
0.000253106
0.000109155
0.000151734
0.000103988
5.0323e-05
5.05988e-05
0.000100216
8.24038e-05
8.22028e-05
0.000212137
8.06654e-05
8.05049e-05
2.39242e-05
2.384e-05
2.37443e-05
2.38114e-05
0.000209914
7.72678e-05
7.71768e-05
7.98532e-05
7.97135e-05
2.37472e-05
2.381e-05
0.000158289
0.000243786
0.000112445
0.000234117
0.000161107
0.000247902
0.000109932
0.00010412
5.09518e-05
0.000106808
5.06714e-05
0.000104127
5.09498e-05
0.000106817
5.06628e-05
0.000156219
0.000237607
0.000254197
0.000104394
0.000252141
0.000108486
0.000149301
0.000156248
0.000237514
0.000254128
0.000104342
0.000252076
0.000108575
0.000149308
0.000102899
5.03311e-05
5.05746e-05
9.91849e-05
0.000102894
5.03145e-05
5.05635e-05
9.91653e-05
2.39323e-05
2.38403e-05
2.39219e-05
2.38342e-05
0.000210298
7.7187e-05
7.70945e-05
7.99687e-05
7.97432e-05
2.37371e-05
2.38073e-05
2.37381e-05
2.38031e-05
2.37203e-05
2.3677e-05
2.37211e-05
2.36763e-05
7.75294e-05
7.76363e-05
0.000191295
7.41474e-05
7.43114e-05
2.37063e-05
2.36735e-05
2.37024e-05
2.36723e-05
0.000183574
7.11117e-05
7.12491e-05
7.31603e-05
7.33296e-05
9.47564e-05
5.02718e-05
9.95589e-05
5.00645e-05
0.000140867
0.000105315
0.000259688
0.000223753
0.000151098
9.94929e-05
0.00024572
0.000140797
0.000104998
0.000259227
0.000222466
0.000150997
9.93197e-05
0.000245092
9.32663e-05
5.0024e-05
5.00301e-05
9.0012e-05
9.32474e-05
5.00258e-05
5.00297e-05
9.00052e-05
0.000137162
0.000206636
9.32437e-05
0.000206794
9.75575e-05
0.000225675
0.000128098
0.000137106
0.000205711
9.31976e-05
0.000206497
9.74244e-05
0.000225212
0.000128075
7.73432e-05
7.74277e-05
0.000190306
7.40596e-05
7.41749e-05
2.37214e-05
2.368e-05
2.37089e-05
2.36747e-05
0.000182754
7.10722e-05
7.12276e-05
7.30936e-05
7.32232e-05
2.37101e-05
2.36768e-05
0.000140253
0.000105292
0.000256645
0.000222973
0.000149651
9.969e-05
0.000241922
9.47334e-05
5.02717e-05
9.89038e-05
5.01395e-05
0.000139737
0.000253459
0.000103155
0.000214534
0.000148964
0.000237823
9.85812e-05
9.35354e-05
5.00378e-05
5.00454e-05
9.07702e-05
0.000136953
0.000206393
9.35782e-05
0.000206259
9.78118e-05
0.000223525
0.000129082
9.34743e-05
5.0168e-05
5.01246e-05
9.08872e-05
0.000136564
0.000200821
0.00020485
9.43599e-05
0.000220725
9.71851e-05
0.000129131
9.45562e-05
5.02745e-05
9.88975e-05
5.00778e-05
0.000139217
0.000252656
0.000103021
0.000213886
0.000148652
0.000236661
9.82262e-05
9.44264e-05
5.02479e-05
9.86788e-05
5.01187e-05
0.000136381
0.000205167
9.34461e-05
0.000205105
9.75476e-05
0.000222072
0.000128601
9.32459e-05
5.00485e-05
5.00462e-05
9.05652e-05
0.000136009
0.000199913
0.000203692
9.39963e-05
0.000219468
9.67955e-05
0.00012861
9.31672e-05
5.01645e-05
5.01065e-05
9.06489e-05
7.63341e-05
7.62751e-05
0.000183911
7.39136e-05
7.39841e-05
2.37314e-05
2.37167e-05
2.37582e-05
2.37113e-05
0.000177857
7.21203e-05
7.2322e-05
7.32705e-05
7.33862e-05
2.37647e-05
2.37184e-05
0.000137964
0.000247436
0.000102624
0.000212473
0.000146321
0.000231938
9.81958e-05
9.42802e-05
5.02669e-05
9.78036e-05
5.01604e-05
9.42435e-05
5.02492e-05
9.77751e-05
5.0142e-05
0.000135356
0.000199855
0.000202981
9.46373e-05
0.000216768
9.71614e-05
0.000129609
0.00013531
0.000199205
0.000202654
9.43588e-05
0.000216467
9.6896e-05
0.000129542
9.32981e-05
5.0214e-05
5.0152e-05
9.14789e-05
9.32596e-05
5.01989e-05
5.01338e-05
9.14389e-05
2.37198e-05
2.37042e-05
2.37221e-05
2.37079e-05
0.000177206
7.19032e-05
7.20926e-05
7.29921e-05
7.31525e-05
2.37582e-05
2.37065e-05
2.37597e-05
2.37102e-05
2.37261e-05
2.38345e-05
2.37219e-05
2.38295e-05
7.07575e-05
7.08673e-05
0.000151788
7.01904e-05
7.02185e-05
2.40165e-05
2.38746e-05
2.4014e-05
2.387e-05
0.000149594
7.32714e-05
7.32436e-05
7.07209e-05
7.06526e-05
8.83457e-05
5.00731e-05
8.93635e-05
5.03419e-05
0.000122297
9.22991e-05
0.000191286
0.000170727
0.000125844
9.08236e-05
0.000180753
0.000122291
9.22698e-05
0.000191154
0.000170785
0.00012583
9.07912e-05
0.000180765
8.85584e-05
5.08882e-05
5.04572e-05
9.25229e-05
8.85599e-05
5.09006e-05
5.0464e-05
9.25312e-05
0.000121064
0.000166688
9.40966e-05
0.000170016
9.04005e-05
0.000174744
0.000124448
0.000121055
0.000166896
9.41695e-05
0.000170107
9.03827e-05
0.000174834
0.000124466
7.0723e-05
7.08711e-05
0.000151859
7.01565e-05
7.02693e-05
2.373e-05
2.3839e-05
2.40259e-05
2.38805e-05
0.000149668
7.33264e-05
7.33315e-05
7.0708e-05
7.07602e-05
2.40242e-05
2.38796e-05
0.000124131
9.26351e-05
0.000192124
0.000171457
0.000127163
9.11616e-05
0.00018254
8.96851e-05
5.02226e-05
9.04214e-05
5.04748e-05
0.000124534
0.000192078
9.38527e-05
0.000174794
0.000127359
0.000183597