/*--------------------------------*- C++ -*----------------------------------*\
| =========                 |                                                 |
| \\      /  F ield         | OpenFOAM: The Open Source CFD Toolbox           |
|  \\    /   O peration     | Version:  2312                                  |
|   \\  /    A nd           | Website:  www.openfoam.com                      |
|    \\/     M anipulation  |                                                 |
\*---------------------------------------------------------------------------*/
FoamFile
{
    version     2.0;
    format      ascii;
    arch        "LSB;label=32;scalar=64";
    class       volScalarField;
    location    "750";
    object      p;
}
// * * * * * * * * * * * * * * * * * * * * * * * * * * * * * * * * * * * * * //

dimensions      [0 2 -2 0 0 0 0];

internalField   nonuniform List<scalar> 
43208
(
0.00071498
0.00071514
0.000715281
0.000717267
0.000681833
0.000681018
0.000680793
0.000682581
0.000644372
0.000643982
0.000643874
0.000645817
0.0006047
0.000605015
0.000605435
0.000607844
0.000568747
0.000569703
0.000569691
0.000572047
0.000537422
0.000537903
0.000537316
0.000539345
0.000505953
0.000504288
0.000504304
0.000505678
0.000468689
0.000468112
0.000468266
0.000470084
0.000428973
0.00043021
0.000430255
0.000432791
0.00039277
0.000393325
0.000393364
0.00039573
0.000357538
0.000356776
0.000356566
0.000358447
0.000320794
0.000320487
0.000320534
0.000322403
0.000284377
0.000284606
0.000285139
0.000287148
0.000249378
0.000249431
0.000249569
0.000251582
0.00021408
0.000214017
0.000213542
0.000215705
0.000177807
0.000177768
0.000177577
0.000179647
0.000141579
0.000141561
0.000141805
0.000143792
0.000105614
0.000105594
0.000105796
0.000107849
6.96473e-05
6.96153e-05
6.94665e-05
7.16131e-05
3.43185e-05
3.36531e-05
3.34753e-05
3.55021e-05
1.06467e-05
6.47014e-06
6.52304e-06
4.99058e-06
0.000721582
0.000723367
0.000723371
0.000721596
0.000723405
0.000723501
0.000723407
0.000723492
0.000721742
0.000723539
0.000723535
0.00072173
0.000717104
0.000687674
0.000715097
0.000715108
0.000690018
0.000690011
0.000717124
0.000687652
0.000715131
0.000715246
0.00068998
0.000689858
0.000715238
0.000689962
0.000689847
0.000717281
0.00068748
0.000715278
0.000689795
0.000689791
0.000687477
0.000682784
0.000651037
0.000681084
0.000681068
0.000653392
0.000653393
0.000682761
0.00065103
0.000681042
0.000680859
0.000653373
0.000653272
0.000680852
0.000653382
0.000653287
0.000682579
0.000650901
0.000680789
0.000653257
0.000653262
0.000650919
0.000645926
0.000612474
0.000643978
0.000643982
0.000614552
0.00061455
0.000645917
0.000612507
0.00064397
0.000643888
0.000614621
0.000614822
0.000643912
0.000614635
0.000614831
0.000645787
0.000612908
0.000643891
0.000614901
0.000614903
0.000612902
0.000607354
0.000576624
0.000604903
0.000604908
0.000578136
0.000578144
0.000607393
0.000576633
0.000604999
0.000605346
0.000578151
0.000578318
0.000605411
0.000578172
0.000578346
0.000607837
0.000576754
0.000605446
0.000578347
0.000578358
0.000576764
0.000571989
0.00054418
0.000569735
0.00056974
0.000545764
0.000545766
0.000571995
0.000544177
0.000569691
0.000569729
0.000545618
0.000545347
0.000569744
0.000545612
0.000545299
0.000572038
0.000543678
0.000569695
0.000545147
0.000545145
0.000543639
0.000539994
0.000510365
0.000538083
0.000538071
0.000512962
0.000512962
0.000539979
0.000510373
0.000537944
0.000537598
0.000512986
0.000512819
0.000537471
0.000512953
0.000512817
0.00053939
0.000510281
0.000537324
0.000512857
0.000512848
0.000510287
0.000505661
0.000475056
0.000504171
0.000504238
0.000477494
0.000477516
0.000505692
0.000475056
0.00050426
0.000504256
0.000477553
0.00047773
0.000504295
0.000477592
0.000477772
0.000505661
0.00047522
0.000504318
0.000477809
0.000477833
0.000475297
0.000469884
0.000437725
0.000468066
0.000468057
0.000439324
0.000439376
0.000469852
0.000437802
0.000468113
0.000468214
0.0004393
0.000439491
0.000468262
0.00043935
0.000439384
0.000469994
0.000437902
0.000468308
0.000439492
0.000439421
0.000437823
0.000432716
0.000400789
0.000430157
0.000430256
0.000402639
0.000402633
0.000432805
0.000400801
0.00043012
0.000430285
0.000402581
0.000402522
0.000430193
0.000402599
0.000402569
0.000432858
0.000400766
0.000430189
0.000402498
0.000402506
0.000400728
0.000395776
0.000363934
0.000393407
0.000393359
0.000366248
0.000366067
0.000395763
0.000363728
0.00039336
0.000393396
0.000366208
0.000365946
0.000393354
0.00036598
0.000365861
0.000395832
0.000363524
0.000393314
0.00036584
0.000365804
0.00036349
0.000358854
0.00032708
0.000356999
0.000356871
0.000329286
0.000329344
0.000358678
0.000327155
0.000356967
0.000356625
0.000329326
0.000329415
0.000356566
0.000329409
0.000329449
0.000358474
0.000327139
0.000356572
0.00032949
0.000329522
0.000327228
0.000322227
0.000291381
0.000320298
0.000320395
0.000293285
0.000293452
0.000322326
0.000291491
0.000320352
0.000320448
0.000293387
0.000293751
0.000320597
0.000293568
0.0002938
0.000322241
0.000291987
0.000320637
0.000293884
0.000293912
0.00029195
0.00028667
0.000256686
0.00028448
0.000284518
0.000258531
0.000258321
0.000286679
0.000256421
0.000284633
0.000285044
0.000258599
0.000258587
0.00028491
0.000258227
0.000258263
0.000287235
0.000256674
0.000285052
0.000258492
0.000258322
0.000256415
0.000251858
0.000220952
0.000249728
0.000249567
0.000223083
0.000222966
0.000251615
0.000220873
0.000249726
0.000249683
0.000222965
0.000222743
0.00024937
0.000222894
0.000222811
0.000251852
0.000220507
0.000249389
0.000222655
0.000222679
0.000220615
0.00021598
0.000184335
0.000214043
0.000214052
0.000186544
0.00018679
0.000216017
0.000184628
0.000213864
0.000213584
0.000186442
0.000186407
0.000213844
0.00018686
0.000186757
0.000215546
0.000184298
0.000213673
0.000186488
0.000186674
0.000184534
0.000179457
0.00014846
0.000177491
0.000177688
0.000150486
0.000150564
0.000179712
0.000148544
0.000177464
0.000177496
0.000150549
0.000150661
0.000177747
0.000150595
0.00015061
0.000179452
0.000148683
0.000177721
0.000150696
0.000150669
0.00014864
0.000143626
0.000112779
0.000141531
0.000141536
0.000114738
0.00011458
0.000143661
0.000112587
0.000141615
0.000141763
0.000114825
0.000114886
0.00014164
0.00011457
0.000114695
0.000143864
0.000112882
0.000141722
0.000114882
0.000114785
0.000112751
0.000107881
7.6605e-05
0.00010574
0.000105613
7.86974e-05
7.86311e-05
0.000107708
7.65313e-05
0.000105797
0.000105812
7.86475e-05
7.8571e-05
0.000105669
7.86156e-05
7.86175e-05
0.000107955
7.64859e-05
0.000105727
7.85561e-05
7.85935e-05
7.6514e-05
7.17083e-05
4.02261e-05
6.96493e-05
6.96351e-05
4.24523e-05
4.25573e-05
7.16628e-05
4.03417e-05
6.95911e-05
6.94922e-05
4.23804e-05
4.23141e-05
6.95715e-05
4.25443e-05
4.24116e-05
7.15763e-05
4.01182e-05
6.9515e-05
4.23022e-05
4.23425e-05
4.01724e-05
3.55384e-05
6.34613e-06
3.35684e-05
3.36593e-05
8.10841e-06
8.19064e-06
3.56432e-05
6.38116e-06
3.35194e-05
3.34798e-05
8.21275e-06
8.24397e-06
3.35513e-05
8.20383e-06
8.18775e-06
3.5448e-05
6.4446e-06
3.35125e-05
8.25416e-06
8.29199e-06
6.41484e-06
4.92827e-06
6.40725e-06
6.46154e-06
4.94851e-06
6.4674e-06
6.51615e-06
1.06951e-05
1.06815e-05
1.07231e-05
6.48015e-06
5.0188e-06
6.54064e-06
0.0007385
0.000738541
0.000738559
0.000738578
0.000723305
0.000723315
0.000723433
0.000723426
0.000738485
0.00074023
0.000738534
0.000740169
0.000704282
0.000717085
0.000717161
0.000704193
0.000717074
0.000704179
0.000704261
0.000717083
0.000717186
0.000704169
0.000714987
0.000715067
0.00071506
0.000690289
0.000690291
0.000690238
0.000690231
0.000704609
0.000717186
0.00071517
0.000706952
0.000717289
0.000704357
0.00070695
0.000717063
0.000704086
0.00070456
0.000715277
0.000717201
0.000707019
0.000717347
0.000707017
0.000704276
0.000717138
0.000717139
0.000705137
0.000704168
0.000704159
0.000668847
0.000682119
0.000682221
0.000668774
0.000682104
0.000668782
0.000668796
0.000682084
0.000682148
0.000668756
0.000681793
0.000681606
0.000681588
0.00065396
0.000653959
0.000653763
0.000653759
0.00066906
0.0006822
0.000681271
0.000671896
0.000682393
0.000668908
0.000672101
0.000681967
0.000668717
0.000668963
0.000681064
0.000682044
0.000671675
0.000682265
0.000671869
0.000668807
0.000682017
0.000682007
0.000669334
0.000668732
0.000668732
0.000632172
0.000646088
0.000646083
0.000632247
0.000646092
0.000632222
0.000632281
0.000646128
0.000646095
0.000632315
0.000644383
0.000644285
0.000644282
0.000614947
0.000614914
0.000614975
0.00061495
0.000632044
0.000646084
0.000644036
0.000634335
0.000646038
0.000632167
0.000634421
0.000646218
0.000632474
0.000632158
0.00064395
0.000646092
0.000634248
0.000645963
0.000634366
0.000632392
0.000646149
0.000646151
0.000631791
0.000632417
0.000632427
0.00059533
0.000609084
0.000608857
0.000595472
0.00060911
0.000595507
0.000595345
0.000609149
0.000609005
0.000595464
0.00060469
0.000604926
0.000604824
0.000576989
0.000577029
0.000577386
0.000577413
0.000594826
0.000608797
0.000604869
0.000595783
0.00060844
0.000595216
0.000595452
0.000609336
0.000595486
0.000595004
0.000605057
0.000609123
0.000596243
0.00060871
0.000595857
0.000595289
0.000609301
0.000609318
0.000594588
0.000595431
0.00059542
0.000559844
0.000572827
0.000572733
0.000559834
0.000572853
0.00055985
0.000559636
0.000572719
0.000572588
0.000559716
0.000568788
0.000568939
0.000568963
0.000545031
0.000545031
0.000544623
0.000544621
0.000559639
0.000572559
0.000569553
0.000561448
0.000572346
0.000559738
0.00056133
0.00057255
0.000559418
0.000559441
0.000569583
0.00057233
0.000561214
0.000572213
0.000561179
0.00055938
0.000572489
0.000572469
0.000559684
0.000559403
0.000559362
0.000526183
0.000538663
0.00053883
0.000525956
0.000538654
0.000525915
0.000526072
0.000538559
0.000538607
0.000525938
0.000537426
0.000536927
0.000537004
0.000514746
0.000514736
0.00051433
0.000514335
0.000526588
0.00053878
0.000537684
0.000529966
0.000538945
0.000526231
0.000529918
0.000538371
0.00052589
0.000526367
0.000537195
0.000538394
0.000529444
0.000538607
0.000529436
0.000526052
0.000538391
0.000538311
0.000527112
0.000525939
0.000525875
0.000492504
0.000504911
0.000505008
0.000492484
0.000504853
0.000492463
0.000492724
0.000505024
0.000505168
0.000492619
0.000505997
0.000505778
0.000505803
0.000478124
0.000478142
0.000478365
0.000478387
0.000492945
0.00050513
0.000504616
0.000495523
0.000505476
0.000492687
0.000495847
0.000505279
0.000492883
0.00049318
0.000504628
0.000505431
0.000495688
0.000505612
0.000495968
0.000493074
0.000505312
0.000505357
0.000493222
0.000492866
0.000492927
0.000457391
0.000470982
0.00047076
0.000457556
0.00047097
0.000457562
0.000457367
0.000471003
0.000470894
0.000457461
0.000468701
0.000468901
0.000468912
0.000438667
0.000438686
0.000438894
0.000438826
0.00045688
0.000470676
0.000468398
0.000458346
0.00047039
0.000457268
0.000458588
0.000471125
0.00045745
0.000456964
0.000468569
0.000470979
0.000458554
0.000470592
0.000458769
0.000457327
0.000470902
0.000470992
0.000456248
0.000457263
0.00045732
0.000419734
0.000434267
0.000434179
0.000419754
0.000434233
0.00041973
0.000419496
0.000434078
0.000433943
0.000419588
0.000429002
0.00042932
0.000429162
0.000401743
0.00040173
0.000401883
0.000401826
0.000419531
0.000434009
0.000429664
0.000421076
0.000433637
0.000419653
0.00042063
0.000433808
0.000419301
0.000419299
0.00042982
0.000433662
0.000421033
0.000433463
0.000420732
0.000419254
0.000433859
0.000433825
0.000419341
0.000419442
0.000419396
0.000381492
0.000395601
0.000395651
0.000381426
0.000395559
0.000381426
0.000381397
0.000395509
0.000395536
0.000381365
0.000392697
0.00039279
0.000392743
0.000366227
0.000366037
0.000366148
0.000365964
0.000381646
0.000395555
0.000393332
0.000384184
0.000395674
0.000381453
0.000384197
0.00039528
0.000381202
0.000381562
0.000393325
0.000395302
0.000384241
0.000395593
0.000384199
0.000381261
0.000395486
0.00039548
0.000382304
0.000381325
0.000381293
0.00034458
0.000358088
0.0003582
0.000344481
0.000358174
0.000344604
0.000344661
0.000358091
0.000358135
0.000344591
0.000357372
0.000357197
0.000357142
0.000330012
0.00033002
0.000329894
0.000330004
0.000344841
0.000358204
0.000356921
0.000347552
0.000358287
0.000344757
0.000347646
0.000358146
0.000344853
0.000344921
0.00035669
0.00035814
0.000347408
0.000358228
0.000347489
0.000344914
0.000358161
0.000358153
0.00034507
0.000344804
0.000344831
0.000309289
0.000322418
0.000322431
0.000309405
0.00032252
0.000309392
0.000309726
0.000322633
0.000322633
0.000309743
0.000320962
0.000320914
0.000321037
0.000293529
0.000293754
0.000293691
0.000293888
0.000309526
0.000322643
0.000320563
0.000311579
0.000322643
0.000309482
0.000311683
0.000323065
0.000310119
0.000309836
0.000320579
0.000322997
0.000311578
0.000322727
0.000311693
0.000310085
0.000322957
0.000323011
0.000309477
0.000309888
0.000309966
0.000274506
0.000287788
0.0002876
0.000274664
0.000287499
0.00027435
0.000274682
0.000288006
0.000287993
0.000274729
0.000284574
0.000284719
0.000284793
0.000258059
0.000257762
0.000258279
0.000258041
0.000274158
0.000287362
0.00028467
0.000275752
0.000287325
0.000274192
0.000275693
0.00028815
0.000274614
0.000274456
0.000284968
0.000288025
0.000276334
0.000287782
0.000276201
0.000274537
0.000287732
0.000287832
0.000274276
0.000274234
0.000274282
0.000238593
0.000252152
0.000252093
0.000238539
0.000252035
0.000238585
0.000238258
0.000252002
0.000251992
0.000238269
0.000249051
0.00024939
0.000249176
0.000222878
0.000222751
0.000222861
0.000222727
0.000238453
0.000251802
0.000249345
0.000240601
0.00025168
0.000238472
0.000240527
0.00025169
0.000237979
0.000238239
0.00024953
0.000251669
0.000240677
0.000251767
0.000240621
0.000238039
0.000251599
0.000251597
0.000238634
0.000238094
0.000238062
0.000202227
0.000215696
0.000215825
0.000202084
0.00021602
0.000202442
0.000201855
0.000215378
0.000215357
0.00020186
0.000213949
0.000213953
0.000213955
0.000186921
0.000187237
0.000186756
0.000186977
0.000202503
0.000215951
0.000213988
0.000205047
0.000215873
0.000202527
0.000205058
0.000215196
0.000201844
0.000202089
0.000213742
0.000215228
0.00020445
0.000215399
0.000204609
0.000201944
0.000215603
0.000215502
0.000202522
0.000202258
0.000202159
0.000166364
0.000179682
0.000179741
0.000166385
0.000179846
0.000166372
0.000166505
0.000179702
0.000179674
0.000166527
0.000178095
0.000177754
0.000177947
0.000150674
0.000150738
0.000150714
0.000150706
0.00016654
0.000179925
0.000177827
0.000168696
0.000179895
0.000166522
0.000168758
0.000179836
0.000166675
0.000166585
0.000177617
0.000179786
0.000168604
0.00017974
0.000168655
0.000166705
0.000180015
0.000179957
0.00016649
0.000166723
0.000166713
0.000130614
0.000144132
0.000144028
0.000130719
0.000143909
0.000130431
0.000130913
0.000144359
0.000144348
0.000130904
0.000141638
0.000141628
0.000141587
0.000114581
0.000114463
0.000114684
0.000114582
0.000130588
0.000143894
0.000141588
0.000132538
0.00014395
0.000130503
0.000132546
0.000144487
0.000130942
0.00013094
0.000141687
0.000144427
0.000132952
0.000144273
0.000132769
0.000131015
0.000144323
0.000144381
0.000130777
0.000130774
0.000130855
9.44504e-05
0.000108058
0.000108005
9.44766e-05
0.000107981
9.44021e-05
9.44378e-05
0.000108087
0.000108115
9.44256e-05
0.000105487
0.000105672
0.000105586
7.861e-05
7.85783e-05
7.85443e-05
7.85874e-05
9.44407e-05
0.000107831
0.000105588
9.66004e-05
0.000107856
9.44405e-05
9.65935e-05
0.000108117
9.43243e-05
9.44832e-05
0.000105787
0.000108014
9.67061e-05
0.000108023
9.6712e-05
9.44358e-05
0.000107937
0.00010799
9.46742e-05
9.43321e-05
9.43654e-05
5.81495e-05
7.16905e-05
7.17558e-05
5.81273e-05
7.19266e-05
5.81236e-05
5.79557e-05
7.15534e-05
7.15856e-05
5.79918e-05
6.9615e-05
6.95554e-05
6.96418e-05
4.29628e-05
4.30477e-05
4.28427e-05
4.29395e-05
5.82036e-05
7.16766e-05
6.96228e-05
6.05965e-05
7.16781e-05
5.83053e-05
6.06397e-05
7.16182e-05
5.78078e-05
5.79842e-05
6.9545e-05
7.14096e-05
6.03697e-05
7.15087e-05
6.04746e-05
5.80001e-05
7.14721e-05
7.14594e-05
5.82761e-05
5.80196e-05
5.79871e-05
2.10884e-05
3.50459e-05
3.52158e-05
2.05554e-05
3.55001e-05
2.00563e-05
2.1051e-05
3.50006e-05
3.51164e-05
2.0543e-05
3.44151e-05
3.42428e-05
3.43188e-05
1.31477e-05
1.31869e-05
1.31594e-05
1.3229e-05
2.15344e-05
3.51116e-05
3.39425e-05
2.5135e-05
3.53629e-05
2.10902e-05
2.5577e-05
3.53527e-05
2.00298e-05
2.14822e-05
3.37792e-05
3.49521e-05
2.50332e-05
3.52301e-05
2.54737e-05
2.10448e-05
3.49041e-05
3.48781e-05
2.25359e-05
2.09156e-05
2.08994e-05
3.55568e-06
4.68397e-06
4.04399e-06
2.16428e-07
1.92971e-06
-3.52078e-06
3.59507e-06
4.72029e-06
4.09038e-06
2.20183e-07
2.35527e-06
9.33025e-06
9.36803e-06
4.57067e-06
7.48823e-06
3.651e-06
3.65074e-06
2.9103e-06
3.95485e-06
4.74145e-06
2.53379e-06
5.09143e-06
5.74838e-06
1.27925e-06
1.99746e-06
-3.47058e-06
2.94825e-06
4.79506e-06
4.0488e-06
2.57142e-06
5.14717e-06
1.31255e-06
5.78804e-06
8.33563e-07
8.42822e-07
1.70937e-06
3.81637e-06
3.82917e-06
0.000738544
0.000738556
0.00073838
0.000738502
0.00073851
0.000721404
0.00073421
0.00072141
0.000734224
0.000733783
0.000721435
0.000721446
0.000734181
0.000734191
0.000738502
0.000738554
0.000738422
0.0007402
0.000738489
0.000740119
0.000738424
0.000740208
0.000738505
0.000740121
0.000734168
0.000721405
0.000734202
0.000721444
0.000734169
0.0007214
0.000734213
0.000721445
0.000734017
0.000731752
0.000721479
0.000723375
0.000734113
0.000731711
0.000721496
0.000734019
0.00073176
0.000721487
0.000723381
0.000734126
0.000731715
0.000721499
0.000738381
0.00073852
0.000738526
0.000738572
0.000721391
0.000734223
0.000733782
0.00072143
0.000721446
0.000734196
0.000734203
0.000721403
0.000734239
0.000740227
0.000738518
0.000734226
0.000721411
0.000734232
0.000721492
0.000734081
0.000731786
0.000721495
0.000723445
0.000734142
0.00073178
0.000721569
0.000734239
0.000721422
0.000734298
0.000721498
0.000734101
0.000731893
0.000723484
0.000721558
0.000731824
0.000734226
0.000721589
0.000738562
0.000738591
0.000738499
0.000740205
0.000738571
0.000734084
0.000731792
0.000721516
0.000723446
0.000734157
0.00073178
0.000721578
0.000734231
0.000721417
0.000734249
0.0007215
0.000734098
0.000731879
0.00072348
0.000721565
0.000731819
0.000734211
0.000721593
0.00073424
0.000721433
0.000734286
0.000721504
0.000721407
0.000734317
0.000733908
0.000721462
0.00072147
0.000734291
0.0007343
0.00072141
0.000734328
0.000734165
0.000731928
0.000723576
0.000721576
0.000731906
0.000734252
0.000721676
0.000734163
0.000731918
0.000723577
0.000721571
0.000731904
0.000734237
0.000721677
0.000734292
0.000721418
0.000734323
0.000721529
0.00073429
0.000721414
0.000734309
0.00072153
0.000733899
0.000721473
0.000721476
0.000734273
0.000734284
0.000721422
0.000734302
0.000721417
0.000734312
0.000717093
0.000704205
0.000717101
0.000704213
0.000717148
0.000717161
0.000705104
0.000704271
0.000704279
0.000686576
0.000699822
0.000686585
0.000699829
0.000700536
0.000686646
0.000686644
0.000699903
0.00069991
0.000704281
0.000717071
0.000717161
0.00070417
0.000704622
0.00071717
0.000715091
0.000706924
0.000717219
0.000704398
0.000706894
0.000704622
0.000717167
0.000715096
0.000706936
0.000717222
0.000704378
0.000706899
0.000699918
0.000686597
0.00069982
0.000686721
0.000699917
0.000686581
0.000699796
0.000686722
0.000700175
0.000698609
0.000686812
0.000690224
0.000699987
0.000698647
0.000687108
0.000700175
0.000698611
0.000686794
0.000690224
0.000699964
0.000698659
0.000687107
0.00071713
0.000717144
0.000705123
0.000704244
0.000704249
0.000717084
0.00070418
0.000686574
0.0006998
0.000700545
0.000686641
0.000686636
0.000699879
0.000699878
0.00068658
0.000699797
0.000704611
0.000717181
0.000715178
0.00070694
0.000717278
0.00070438
0.000706947
0.000704243
0.000717069
0.000717182
0.000704106
0.000704598
0.000715212
0.0007172
0.000707021
0.000717291
0.00070697
0.000704317
0.000699878
0.000686558
0.000699782
0.000686644
0.000700143
0.00069859
0.000686774
0.000690145
0.000699959
0.000698645
0.000687023
0.000699852
0.000686455
0.000699708
0.000686605
0.000700123
0.000698584
0.000690131
0.000686645
0.000698657
0.00069987
0.00068699
0.000704252
0.000717077
0.000717191
0.000704138
0.000704598
0.000715192
0.000717207
0.000707014
0.000717299
0.000706971
0.000704331
0.000704238
0.000717082
0.000717188
0.000704119
0.000700134
0.000698587
0.000686753
0.00069013
0.000699931
0.000698637
0.000687007
0.000699865
0.000686541
0.000699749
0.00068663
0.000700119
0.000698571
0.000690116
0.000686651
0.000698657
0.000699894
0.000686981
0.000699846
0.000686463
0.000699725
0.000686608
0.000717121
0.000717126
0.000705154
0.000704149
0.00070414
0.000717062
0.00070407
0.000686422
0.000699675
0.000700504
0.000686476
0.000686458
0.000699749
0.000699733
0.000686409
0.000699654
0.000704564
0.000715279
0.000717198
0.000707012
0.000717348
0.000707016
0.000704282
0.00070419
0.000717056
0.000717177
0.000704052
0.000704195
0.000717058
0.000717179
0.000704058
0.000700058
0.00069855
0.00069003
0.000686578
0.000698638
0.000699814
0.000686875
0.000700061
0.000698543
0.000690029
0.000686587
0.000698637
0.000699821
0.000686877
0.000699778
0.000686388
0.000699639
0.000686512
0.000699782
0.000686398
0.000699648
0.000686515
0.000717081
0.000704104
0.000717075
0.000704089
0.000700485
0.000686484
0.000686468
0.000699768
0.000699752
0.000686428
0.000699693
0.000686419
0.000699673
0.000682092
0.000668749
0.000682096
0.000668741
0.000682151
0.000682153
0.000669528
0.000668779
0.000668764
0.000650681
0.000664251
0.000650685
0.000664249
0.000664534
0.000650686
0.000650683
0.000664281
0.000664273
0.00066885
0.00068211
0.000682226
0.000668784
0.000669122
0.000682259
0.000681398
0.000671949
0.000682489
0.000668914
0.000672227
0.000669123
0.000682242
0.000681391
0.000671932
0.000682489
0.00066892
0.000672218
0.000664335
0.000650727
0.000664283
0.00065075
0.000664337
0.000650742
0.000664301
0.000650752
0.000664456
0.000662716
0.000650773
0.000653529
0.00066433
0.000662912
0.000650882
0.000664457
0.000662705
0.000650786
0.000653524
0.000664346
0.000662891
0.000650884
0.000682156
0.000682157
0.000669502
0.000668812
0.000668804
0.000682101
0.000668783
0.000650716
0.00066429
0.00066451
0.000650716
0.000650712
0.000664318
0.000664314
0.000650721
0.000664294
0.000669057
0.000682214
0.000681302
0.000671915
0.000682406
0.000668891
0.000672135
0.000668784
0.000682
0.000682123
0.000668721
0.000669035
0.000681236
0.000682098
0.000671724
0.000682375
0.00067204
0.000668826
0.000664296
0.000650745
0.000664274
0.000650739
0.000664401
0.000662689
0.000650782
0.000653464
0.000664317
0.000662817
0.000650854
0.000664287
0.00065076
0.000664256
0.000650736
0.000664382
0.000662523
0.000653408
0.000650736
0.000662738
0.000664271
0.00065084
0.000668809
0.000682078
0.000682145
0.000668784
0.000669039
0.000681218
0.000682103
0.000671728
0.000682365
0.000672036
0.000668837
0.000668796
0.000682008
0.000682119
0.000668732
0.000664409
0.000662683
0.00065081
0.000653463
0.000664341
0.000662801
0.000650865
0.000664315
0.000650781
0.000664309
0.000650758
0.000664392
0.000662533
0.000653415
0.000650757
0.000662739
0.000664282
0.000650851
0.000664305
0.000650771
0.000664269
0.000650755
0.000682012
0.000682
0.00066932
0.000668729
0.000668731
0.000681951
0.000668724
0.00065078
0.000664247
0.000664343
0.000650725
0.000650718
0.000664264
0.000664262
0.000650795
0.000664253
0.000668964
0.000681063
0.000682052
0.000671676
0.000682268
0.00067187
0.000668811
0.000668747
0.000681941
0.000682028
0.000668719
0.000668749
0.000681948
0.000682031
0.000668718
0.000664325
0.000662491
0.000653328
0.000650761
0.000662609
0.000664267
0.000650782
0.000664328
0.000662495
0.00065333
0.000650766
0.000662612
0.00066427
0.000650788
0.000664267
0.000650828
0.000664268
0.00065074
0.000664268
0.000650819
0.000664267
0.000650744
0.00068197
0.00066872
0.000681958
0.000668723
0.000664363
0.000650731
0.000650724
0.000664267
0.000664264
0.00065078
0.000664252
0.000650795
0.000664255
0.000646052
0.000632218
0.000646058
0.000632231
0.000646035
0.000646032
0.000631879
0.000632124
0.000632121
0.000613712
0.000627542
0.000613737
0.000627553
0.00062648
0.000613576
0.00061359
0.000627444
0.000627449
0.000632174
0.00064611
0.000646084
0.000632254
0.000631939
0.000646035
0.000644068
0.000634338
0.00064606
0.000632067
0.000634428
0.000631942
0.000646046
0.000644068
0.000634322
0.00064606
0.000632088
0.000634425
0.000627455
0.00061368
0.000627557
0.000613485
0.000627454
0.000613676
0.000627555
0.000613483
0.000627053
0.000624436
0.000613377
0.000614587
0.000627286
0.000624555
0.000613028
0.000627054
0.000624427
0.000613375
0.000614584
0.000627293
0.000624552
0.000613027
0.000646062
0.000646062
0.000631859
0.000632136
0.000632136
0.000646099
0.000632242
0.000613698
0.000627537
0.000626478
0.000613561
0.000613583
0.000627441
0.00062745
0.000613735
0.000627555
0.00063203
0.000646064
0.000644032
0.000634346
0.000646031
0.000632135
0.000634421
0.000632313
0.000646201
0.000646102
0.000632456
0.000632056
0.000643997
0.000646039
0.00063424
0.000646015
0.000634398
0.00063229
0.000627579
0.000613756
0.000627631
0.000613643
0.000627172
0.000624485
0.000613463
0.000614707
0.000627365
0.00062461
0.00061322
0.000627615
0.000613944
0.000627795
0.000613692
0.000627204
0.000624512
0.000614733
0.000613712
0.000624613
0.000627532
0.000613277
0.000632293
0.000646169
0.000646115
0.000632336
0.000632067
0.000644007
0.000646054
0.000634269
0.000646027
0.000634395
0.000632313
0.000632328
0.000646208
0.000646123
0.000632476
0.000627179
0.000624486
0.000613468
0.000614703
0.00062738
0.000624613
0.000613229
0.000627585
0.000613767
0.000627645
0.000613662
0.000627211
0.00062452
0.00061473
0.000613746
0.000624615
0.000627549
0.000613287
0.000627627
0.000613983
0.000627811
0.000613713
0.000646148
0.000646152
0.00063178
0.000632392
0.000632401
0.000646245
0.000632498
0.000613977
0.000627814
0.000626531
0.000613877
0.000613913
0.00062773
0.000627754
0.000614014
0.000627855
0.000632164
0.000643953
0.000646089
0.000634265
0.000645969
0.000634366
0.000632393
0.000632454
0.000646299
0.000646157
0.000632596
0.000632461
0.000646289
0.000646161
0.000632583
0.000627331
0.000624554
0.000614829
0.000613828
0.000624653
0.000627644
0.000613498
0.000627338
0.000624558
0.000614837
0.000613852
0.000624651
0.000627655
0.000613507
0.000627775
0.000614055
0.000627928
0.000613893
0.000627782
0.000614076
0.00062793
0.000613899
0.000646223
0.000632499
0.000646247
0.000632532
0.00062653
0.000613932
0.000613956
0.000627761
0.000627782
0.000614031
0.000627848
0.00061406
0.000627882
0.000609123
0.000595519
0.00060915
0.000595514
0.000608991
0.000609008
0.000594177
0.00059541
0.000595417
0.000577367
0.000590938
0.000577322
0.000590922
0.000589315
0.000577308
0.000577286
0.000590844
0.000590846
0.000595307
0.000609082
0.000608855
0.000595465
0.000594648
0.000608709
0.000604669
0.000595653
0.000608231
0.000595189
0.000595178
0.00059466
0.000608708
0.00060467
0.000595665
0.00060823
0.000595181
0.000595186
0.000590707
0.000577315
0.000590893
0.000577204
0.000590699
0.00057731
0.000590885
0.0005772
0.000590086
0.000586778
0.00057719
0.000577758
0.000590579
0.000586249
0.000576926
0.000590084
0.000586785
0.000577178
0.00057777
0.000590567
0.000586262
0.000576924
0.000608976
0.000608999
0.000594195
0.000595398
0.000595401
0.000609147
0.0005955
0.000577344
0.000590918
0.000589334
0.000577283
0.000577274
0.00059082
0.000590842
0.000577303
0.000590915
0.000594786
0.000608793
0.000604866
0.000595759
0.00060843
0.000595221
0.000595428
0.000595352
0.000609311
0.000609051
0.000595476
0.000594831
0.000604966
0.000609014
0.000596131
0.000608492
0.000595576
0.00059528
0.000590697
0.000577232
0.000590864
0.000577086
0.000590163
0.000586841
0.000577129
0.00057787
0.000590581
0.00058649
0.00057687
0.0005907
0.000577071
0.00059082
0.000577064
0.000590191
0.000587124
0.000577967
0.000576994
0.000586637
0.000590577
0.00057687
0.00059533
0.000609159
0.000609023
0.000595459
0.000594875
0.000604972
0.000609056
0.000596157
0.000608506
0.000595593
0.000595317
0.000595346
0.000609351
0.000609075
0.000595506
0.000590183
0.000586865
0.000577118
0.000577916
0.000590577
0.000586535
0.000576877
0.000590702
0.000577206
0.000590857
0.000577078
0.000590214
0.000587152
0.000578006
0.000576995
0.000586671
0.000590606
0.000576876
0.00059071
0.000577062
0.000590843
0.000577059
0.000609241
0.000609276
0.00059458
0.000595404
0.000595381
0.00060936
0.000595445
0.000577063
0.000590816
0.000589661
0.000577013
0.000576985
0.000590742
0.000590727
0.000577003
0.000590772
0.000595008
0.000605151
0.000609148
0.000596255
0.000608722
0.00059587
0.000595319
0.000595325
0.000609393
0.000609226
0.00059543
0.000595327
0.000609414
0.000609231
0.000595453
0.000590274
0.000587206
0.000578144
0.000576902
0.000586903
0.000590561
0.000576798
0.000590276
0.000587219
0.000578148
0.000576897
0.000586907
0.000590586
0.000576796
0.000590657
0.000576934
0.00059075
0.000576903
0.000590658
0.000576939
0.000590773
0.000576899
0.000609395
0.000595518
0.000609412
0.00059548
0.000589665
0.000577007
0.000576985
0.000590773
0.000590762
0.000577055
0.00059084
0.000577002
0.0005908
0.000572873
0.000559865
0.000572819
0.00055981
0.000572839
0.000572805
0.000559888
0.000559891
0.000559849
0.000542923
0.000555566
0.000542831
0.000555498
0.000555489
0.000543017
0.000542947
0.000555657
0.000555607
0.000559841
0.000572822
0.000572729
0.000559837
0.00055984
0.00057269
0.000569508
0.00056153
0.000572445
0.000559892
0.000561455
0.000559837
0.000572681
0.000569517
0.000561534
0.000572442
0.000559892
0.00056146
0.000555641
0.000542876
0.000555536
0.000543031
0.000555636
0.00054287
0.000555537
0.000543023
0.000555661
0.000553469
0.000543195
0.000545687
0.00055567
0.000553447
0.000543561
0.000555657
0.000553472
0.000543187
0.000545685
0.000555669
0.000553447
0.000543554
0.000572815
0.000572797
0.000559891
0.000559877
0.000559829
0.000572803
0.000559777
0.000542887
0.000555547
0.000555491
0.000542983
0.000542898
0.000555638
0.00055558
0.000542781
0.000555465
0.000559653
0.000572566
0.000569507
0.000561432
0.000572347
0.000559775
0.000561309
0.000559597
0.000572551
0.00057256
0.000559437
0.000559627
0.000569535
0.000572437
0.000561317
0.000572333
0.000561275