/*--------------------------------*- C++ -*----------------------------------*\
| =========                 |                                                 |
| \\      /  F ield         | OpenFOAM: The Open Source CFD Toolbox           |
|  \\    /   O peration     | Version:  2312                                  |
|   \\  /    A nd           | Website:  www.openfoam.com                      |
|    \\/     M anipulation  |                                                 |
\*---------------------------------------------------------------------------*/
FoamFile
{
    version     2.0;
    format      ascii;
    arch        "LSB;label=32;scalar=64";
    class       surfaceScalarField;
    location    "750";
    object      phi;
}
// * * * * * * * * * * * * * * * * * * * * * * * * * * * * * * * * * * * * * //

dimensions      [0 3 -1 0 0 0 0];

oriented        oriented;

internalField   nonuniform List<scalar> 
125400
(
1.80024e-07
7.25643e-08
-0.00118406
2.10824e-08
-1.55871e-07
0.00118395
-0.00113237
-1.13527e-06
-3.72309e-08
-2.04854e-07
0.00113199
-1.51093e-07
1.27604e-06
2.94727e-07
9.36203e-07
-1.19766e-07
-7.74878e-07
2.96479e-07
-0.00113206
-1.15117e-06
6.98508e-08
-8.12535e-08
0.00113156
-1.65038e-07
1.25364e-06
2.7536e-07
9.25517e-07
-1.29491e-07
-7.84206e-07
2.85376e-07
-0.000270044
1.19376e-06
1.14454e-06
-1.41267e-07
-1.48747e-07
0.000267996
2.11678e-07
3.24881e-07
-0.00118297
-7.24442e-08
2.08538e-08
0.00118248
-0.00113071
-1.17001e-06
-3.60251e-07
3.93125e-08
0.00113052
-1.93382e-07
1.23378e-06
2.47246e-07
9.49508e-07
-1.028e-07
-7.49122e-07
2.98471e-07
-0.00113028
-1.16465e-06
-3.69806e-07
-4.06565e-08
0.0011302
-1.87765e-07
1.23493e-06
2.48527e-07
9.40869e-07
-1.13243e-07
-7.58751e-07
2.89421e-07
-0.000269741
1.15801e-06
1.16244e-06
-1.73698e-07
-1.47785e-07
0.000267742
2.45883e-07
3.17864e-07
-0.0011814
-3.44649e-07
-1.28772e-07
0.00118131
-0.00113098
-1.20501e-06
-3.06709e-07
-9.81276e-09
0.00113149
-2.32109e-07
1.20328e-06
2.12825e-07
8.15109e-07
-2.51484e-07
-8.81863e-07
1.49251e-07
-0.00113119
-1.18308e-06
-4.93663e-07
-1.24515e-07
0.00113183
-2.13699e-07
1.22195e-06
2.27521e-07
8.40362e-07
-2.31961e-07
-8.60762e-07
1.73357e-07
-0.000270039
1.22954e-06
1.18242e-06
-2.33054e-07
-2.53588e-07
0.000268113
1.31317e-07
-1.94574e-07
-0.00118212
-9.82014e-08
-4.47245e-07
0.00118273
-0.00113359
-1.20968e-06
2.25868e-07
-3.35921e-07
0.00113425
-2.35244e-07
1.21185e-06
2.20059e-07
7.31544e-07
-3.46897e-07
-9.91761e-07
7.90592e-08
-0.00113375
-1.23144e-06
4.04e-07
-3.86517e-08
0.00113404
-2.55337e-07
1.18273e-06
1.93263e-07
7.23436e-07
-3.49025e-07
-9.96479e-07
7.42629e-08
-0.000270596
1.36942e-06
1.2267e-06
-2.64404e-07
-3.40694e-07
0.000268605
-2.66518e-07
-3.57157e-07
-0.00118479
3.19911e-07
-1.08823e-07
0.0011852
-0.00113466
-1.21986e-06
3.86096e-07
1.99195e-08
0.00113412
-2.3837e-07
1.20122e-06
2.16129e-07
9.08696e-07
-1.68848e-07
-8.24944e-07
2.68161e-07
-0.00113326
-1.24542e-06
6.94112e-07
1.39598e-07
0.00113254
-2.56877e-07
1.16712e-06
1.90542e-07
8.66754e-07
-2.02188e-07
-8.62772e-07
2.31352e-07
-0.000270342
1.22408e-06
1.24801e-06
-2.18387e-07
-1.65628e-07
0.000268254
-1.47797e-07
3.58987e-07
-0.00118415
1.34949e-07
8.70265e-07
0.00118293
-0.00113066
-1.16498e-06
-3.88868e-07
4.84868e-07
0.00112938
-1.71775e-07
1.24874e-06
2.7827e-07
1.0987e-06
4.58119e-08
-5.9958e-07
4.47717e-07
-0.0011298
-1.13024e-06
-6.18713e-07
7.22287e-08
0.00112903
-1.42811e-07
1.28075e-06
3.0275e-07
1.10426e-06
4.39582e-08
-5.98233e-07
4.50286e-07
-0.000269568
1.0222e-06
1.10021e-06
-6.51407e-08
-4.78734e-09
0.000267516
1.03015e-06
1.00439e-06
-0.00117859
-7.03889e-07
-3.42765e-07
0.0011776
-0.0011276
-1.02798e-06
-1.05503e-06
-4.64076e-07
0.00112786
-6.09211e-08
1.36708e-06
3.70832e-07
9.98003e-07
-4.67951e-08
-6.81661e-07
3.37104e-07
-0.00112855
-1.00437e-06
-1.41202e-06
-5.08923e-07
0.00112897
-4.61159e-08
1.38589e-06
3.80156e-07
1.04338e-06
-2.94573e-09
-6.3882e-07
3.78114e-07
-0.000269552
1.12246e-06
1.00097e-06
-6.09542e-08
-1.35168e-07
0.000267625
1.03535e-06
6.28733e-07
-0.00117675
-7.05334e-07
-1.27403e-06
0.00117706
-0.00113055
-1.13116e-06
-6.7971e-07
-6.52338e-07
0.00113183
-1.84952e-07
1.26166e-06
2.45155e-07
8.24396e-07
-2.46369e-07
-8.74942e-07
1.59598e-07
-0.0011313
-1.16027e-06
-4.95458e-07
-3.22936e-07
0.00113221
-2.04231e-07
1.22983e-06
2.23461e-07
8.11842e-07
-2.59151e-07
-8.86617e-07
1.46043e-07
-0.000270351
1.27428e-06
1.16223e-06
-2.55485e-07
-2.93499e-07
0.000268464
-4.37379e-07
-4.03116e-07
-0.00117948
6.22673e-08
-3.15065e-07
0.00118057
-0.00113497
-1.3737e-06
4.52975e-07
3.89358e-07
0.00113532
-3.84044e-07
1.05339e-06
7.80627e-08
7.20928e-07
-3.52611e-07
-1.01e-06
7.84302e-08
-0.00113411
-1.35494e-06
7.29032e-07
3.54132e-07
0.00113417
-3.54858e-07
1.06749e-06
1.02107e-07
7.09036e-07
-3.61537e-07
-1.02158e-06
6.95034e-08
-0.000270982
1.28484e-06
1.34621e-06
-3.54672e-07
-2.64116e-07
0.00026897
-1.09171e-06
-7.8476e-07
-0.00118298
7.26774e-07
9.58344e-07
0.00118317
-0.00113395
-1.29912e-06
9.14276e-07
4.86823e-07
0.001133
-2.93158e-07
1.13425e-06
1.70527e-07
8.16274e-07
-2.50137e-07
-9.12338e-07
1.78351e-07
-0.00113275
-1.2734e-06
7.99191e-07
2.79724e-07
0.00113198
-2.6988e-07
1.14608e-06
1.81783e-07
8.31951e-07
-2.26881e-07
-8.9287e-07
1.9817e-07
-0.000270528
1.22781e-06
1.29572e-06
-2.38855e-07
-1.73592e-07
0.000268417
-3.31312e-07
-1.18149e-08
-0.00118156
3.35511e-07
1.00488e-06
0.00118057
-0.00113029
-1.18289e-06
-1.67693e-07
2.59514e-07
0.00112976
-1.96576e-07
1.23018e-06
2.52826e-07
9.38063e-07
-1.25166e-07
-7.65579e-07
2.80676e-07
-0.00113021
-1.15912e-06
-4.48661e-07
1.00738e-08
0.00113009
-1.82721e-07
1.24782e-06
2.595e-07
9.55251e-07
-1.09252e-07
-7.48895e-07
2.95631e-07
-0.000269883
1.18387e-06
1.15632e-06
-1.51608e-07
-1.73195e-07
0.000267868
5.73651e-07
5.97118e-07
-0.00117821
-6.50243e-07
-1.81998e-07
0.00117787
-0.00112954
-1.08069e-06
-3.46667e-07
-4.46045e-07
0.00112982
-1.08282e-07
1.32497e-06
3.33014e-07
8.65437e-07
-1.97132e-07
-8.30738e-07
2.06026e-07
-0.0011311
-1.06108e-06
-7.74259e-07
-5.40015e-07
0.0011317
-1.02661e-07
1.34465e-06
3.3607e-07
9.09909e-07
-1.65481e-07
-7.91656e-07
2.42024e-07
-0.000270083
1.22347e-06
1.0893e-06
-1.3863e-07
-2.3539e-07
0.000268145
8.65661e-07
2.22295e-07
-0.00117833
-5.04917e-07
-1.14127e-06
0.00117889
-0.0011312
-1.14001e-06
-3.00623e-08
-6.3169e-07
0.00113172
-1.77315e-07
1.25967e-06
2.59578e-07
8.40177e-07
-2.23731e-07
-8.75662e-07
1.97354e-07
-0.00113307
-1.19063e-06
1.38379e-07
-1.0342e-07
0.0011331
-2.23207e-07
1.20874e-06
2.13532e-07
8.37254e-07
-2.29044e-07
-8.80552e-07
1.93368e-07
-0.000270466
1.34741e-06
1.11959e-06
-1.70479e-07
-3.02326e-07
0.000268472
8.55459e-08
-4.287e-07
-0.0011805
6.49976e-07
-5.26466e-07
0.00118072
-0.00113278
-1.26031e-06
-2.98568e-07
9.30379e-08
0.00113291
-2.80365e-07
1.1568e-06
1.72131e-07
9.31835e-07
-1.36026e-07
-7.86015e-07
2.81713e-07
-0.00113195
-1.31648e-06
3.7045e-07
5.71782e-07
0.00113135
-3.15627e-07
1.09524e-06
1.33053e-07
8.69837e-07
-1.8845e-07
-8.43762e-07
2.26708e-07
-0.000270373
1.22087e-06
1.19535e-06
-2.1396e-07
-1.71019e-07
0.000268342
-4.23183e-07
5.82971e-08
-0.00118009
4.00851e-07
5.09634e-07
0.00117954
-0.00113251
-1.20269e-06
-3.47767e-07
3.1036e-07
0.00113223
-2.17069e-07
1.21994e-06
2.39033e-07
9.28105e-07
-1.38606e-07
-7.78873e-07
2.69358e-07
-0.00112997
-1.17312e-06
-1.90828e-07
-2.40411e-08
0.00112986
-1.82039e-07
1.23962e-06
2.64753e-07
8.97562e-07
-1.6435e-07
-8.06552e-07
2.4266e-07
-0.000270186
1.07473e-06
1.26045e-06
-2.48709e-07
-8.2203e-08
0.000268182
7.67155e-08
6.36105e-07
-0.00117806
-7.18607e-07
2.74e-07
0.00117779
-0.00113144
-1.14663e-06
-3.34032e-08
-4.89927e-08
0.0011313
-1.66455e-07
1.26365e-06
2.78434e-07
8.52423e-07
-2.09798e-07
-8.51481e-07
1.98141e-07
-0.00113055
-1.08608e-06
-5.12852e-07
-5.11619e-07
0.00113098
-1.20142e-07
1.31436e-06
3.14188e-07
8.98979e-07
-1.68612e-07
-8.05643e-07
2.39213e-07
-0.000270299
1.16818e-06
1.18555e-06
-1.97179e-07
-1.87761e-07
0.00026833
4.35182e-07
2.08419e-07
-0.00117774
-4.71357e-07
-3.34929e-07
0.0011779
-0.00113127
-1.17166e-06
6.15341e-08
-2.65091e-07
0.00113139
-1.92308e-07
1.23613e-06
2.50128e-07
8.42754e-07
-2.14403e-07
-8.65622e-07
1.95442e-07
-0.00113216
-1.18159e-06
-1.56216e-07
-1.12504e-07
0.00113235
-2.10108e-07
1.21977e-06
2.27012e-07
8.59723e-07
-2.00037e-07
-8.47227e-07
2.08487e-07
-0.000270557
1.30854e-06
1.12317e-06
-1.57655e-07
-2.81739e-07
0.000268564
1.92076e-07
-2.29054e-07
-0.0011785
2.86409e-07
-3.3421e-07
0.00117858
-0.00113182
-1.19082e-06
-1.43178e-07
-1.8161e-07
0.00113195
-2.12985e-07
1.21833e-06
2.2809e-07
8.89177e-07
-1.60781e-07
-8.13287e-07
2.38233e-07
-0.00113212
-1.23325e-06
2.03946e-07
1.61363e-07
0.00113189
-2.45997e-07
1.17304e-06
1.95511e-07
8.43891e-07
-2.03491e-07
-8.58035e-07
1.95728e-07
-0.000270527
1.27079e-06
1.17104e-06
-1.91228e-07
-2.20498e-07
0.000268497
-3.1924e-08
7.31434e-08
-0.00117854
1.72602e-07
-1.16239e-08
0.00117833
-0.00113202
-1.1919e-06
-2.87412e-07
4.24245e-08
0.001132
-2.12534e-07
1.21276e-06
2.17501e-07
9.01999e-07
-1.25445e-07
-7.76748e-07
2.41439e-07
-0.00113117
-1.19043e-06
-4.56126e-08
-2.77284e-08
0.00113108
-2.06125e-07
1.21046e-06
2.25341e-07
8.6858e-07
-1.56153e-07
-8.06384e-07
2.15628e-07
-0.000270359
1.15725e-06
1.21608e-06
-2.19582e-07
-1.32793e-07
0.000268338
1.29835e-06
1.58271e-06
-0.00117768
-1.28436e-06
-9.20202e-07
0.001177
-0.00113209
-1.0562e-06
-1.42052e-06
-4.86249e-07
0.00113255
-8.56289e-08
1.44437e-06
3.58039e-07
1.09842e-06
-1.80296e-08
-6.59607e-07
3.66806e-07
-0.00113155
-1.02043e-06
-1.55872e-06
-7.38082e-07
0.00113221
-5.76301e-08
1.47344e-06
3.86361e-07
1.11266e-06
1.13896e-10
-6.41103e-07
3.83258e-07
-0.000270468
1.02723e-06
1.05227e-06
-7.66518e-08
-3.78857e-08
0.000268503
5.5184e-06
5.50882e-06
-0.000289548
-3.91047e-06
-3.89667e-06
0.000286328
-0.000281043
4.97796e-06
-5.47679e-06
6.06763e-06
-3.87194e-06
0.000279346
-0.000281087
-5.50285e-06
4.98624e-06
-3.88491e-06
6.08918e-06
0.0002794
-0.000272809
-4.95989e-06
-5.00042e-06
5.48337e-06
5.43505e-06
0.000271851
-1.28988e-06
-1.2756e-06
0.00027016
-0.000268174
2.93678e-07
2.85323e-07
0.00113184
-1.97296e-07
-0.00113206
-7.69174e-08
-1.20589e-06
2.74987e-07
-1.82259e-07
-7.80546e-07
2.88215e-07
-1.25099e-07
9.38388e-07
1.27898e-06
0.00113188
-1.73765e-07
-0.00113213
-3.5164e-08
-1.21077e-06
2.69701e-07
-1.92864e-07
-7.88153e-07
2.88464e-07
-1.29822e-07
9.40705e-07
-1.27358e-06
0.000270139
-0.000268157
2.94187e-07
2.75998e-07
0.00113284
-7.89216e-08
-0.00113308
-2.42399e-07
-1.13335e-06
2.95366e-07
-1.53192e-07
-7.94918e-07
2.8356e-07
-1.37315e-07
9.30283e-07
1.26006e-06
0.00113162
-9.64202e-08
-0.00113199
8.34547e-08
-1.21776e-06
2.58774e-07
-2.03523e-07
-7.91517e-07
2.77706e-07
-1.32814e-07
9.29991e-07
-5.53885e-08
-0.00113264
-2.01526e-07
-1.14075e-06
2.91959e-07
-1.57088e-07
-7.94075e-07
2.77937e-07
9.19385e-07
-1.41923e-07
1.26426e-06
0.00113126
-1.23006e-07
-0.00113161
4.43179e-08
-1.208e-06
2.62817e-07
-1.93777e-07
-7.80511e-07
2.77645e-07
-1.27372e-07
9.24663e-07
-1.25301e-06
0.00027007
-0.000268112
2.83273e-07
2.72341e-07
3.11763e-08
-0.00113245
-8.31342e-08
-1.15386e-06
2.73218e-07
-1.69455e-07
-7.98576e-07
2.71742e-07
9.12695e-07
-1.4552e-07
1.25156e-06
0.0011322
8.41877e-09
-0.00113257
-1.13959e-07
-1.14369e-06
2.78053e-07
-1.69e-07
-7.96996e-07
2.76853e-07
-1.40713e-07
9.19656e-07
-0.000268089
2.84854e-07
2.75595e-07
1.19136e-06
1.13037e-06
-1.26273e-07
-1.44031e-07
0.000268109
-1.31813e-06
-1.24059e-06
0.000269876
-0.00026788
2.63143e-07
2.98954e-07
-9.32698e-08
0.00113149
-1.6603e-07
1.30346e-06
2.89543e-07
9.52127e-07
-1.06344e-07
-7.6336e-07
3.0249e-07
-1.19665e-06
-1.55529e-07
-6.18057e-08
0.00113152
-1.76201e-07
1.29309e-06
2.85519e-07
9.53924e-07
-1.11912e-07
-7.71777e-07
3.02242e-07
0.00113021
-1.76638e-07
-0.00113059
-1.16404e-07
-1.16928e-06
2.95444e-07
-1.51425e-07
-7.56529e-07
2.95435e-07
-1.03313e-07
9.49315e-07
1.32043e-06
0.00113027
-1.8064e-07
-0.00113064
-1.55805e-07
-1.16288e-06
3.02339e-07
-1.50626e-07
-7.61314e-07
2.99865e-07
-1.04965e-07
9.5559e-07
-1.29966e-07
-1.47864e-07
0.000268085
-1.24709e-06
0.000269853
-0.000267854
2.69248e-07
2.99165e-07
-2.14946e-07
0.00113247
-1.50071e-07
1.27523e-06
2.95271e-07
9.49284e-07
-1.12637e-07
-7.73054e-07
3.03974e-07
-1.20318e-06
-4.81649e-08
4.02784e-08
0.00113114
-1.85829e-07
1.2754e-06
2.7619e-07
9.3796e-07
-1.21596e-07
-7.81071e-07
2.86146e-07
0.00113117
-2.35594e-07
-0.00113155
1.7123e-08
-1.15969e-06
2.59038e-07
-1.82108e-07
-7.46639e-07
3.12283e-07
-9.10958e-08
9.64793e-07
1.3148e-06
0.00112986
-1.16421e-07
-0.00113017
-2.08392e-07
-1.1574e-06
3.02387e-07
-1.50679e-07
-7.74883e-07
2.81361e-07
-1.18824e-07
9.36972e-07
-6.94888e-08
1.39474e-08
0.0011308
-1.77064e-07
1.2786e-06
2.78674e-07
9.31539e-07
-1.16749e-07
2.85103e-07
-7.70807e-07
-2.46262e-07
-0.00113107
-5.44749e-09
-1.15838e-06
2.62222e-07
-1.78542e-07
-7.42089e-07
3.12836e-07
9.59854e-07
-9.14476e-08
1.30825e-06
0.00112951
-1.1616e-07
-0.00112983
-1.80177e-07
-1.15738e-06
2.96001e-07
-1.51049e-07
-7.68423e-07
2.76508e-07
-1.18076e-07
9.27062e-07
-1.41776e-07
-1.56527e-07
0.000268014
-1.23957e-06
0.000269764
-0.000267769
2.62445e-07
2.96902e-07
4.01667e-08
-8.79124e-08
0.00113172
-1.68448e-07
1.24855e-06
2.76609e-07
9.33265e-07
-1.23684e-07
2.91128e-07
-7.81567e-07
-2.05157e-07
-0.00113057
-4.11504e-08
-1.16099e-06
2.56088e-07
-1.80073e-07
-7.56156e-07
2.97839e-07
9.4555e-07
-1.06956e-07
1.23074e-06
0.00113045
-1.9933e-07
-0.00113074
-2.51712e-08
-1.15934e-06
2.55405e-07
-1.86746e-07
-7.58612e-07
2.9744e-07
-1.06846e-07
9.47539e-07
-0.000267753
2.58746e-07
2.92375e-07
1.17631e-06
1.17155e-06
-1.68043e-07
-1.48893e-07
0.000267845
-1.25182e-06
-1.2053e-06
0.00027003
-0.000267958
1.92916e-07
1.91353e-07
-1.14083e-07
0.00112996
-1.64031e-07
1.30679e-06
2.80098e-07
9.34089e-07
-1.18105e-07
-7.69619e-07
2.79085e-07
-1.16792e-06
-2.29117e-07
-1.564e-07
0.00113005
-1.62401e-07
1.31027e-06
2.87124e-07
9.43045e-07
-1.17237e-07
-7.71782e-07
2.85936e-07
0.00113032
-2.64988e-07
-0.00113
-1.02705e-07
-1.22811e-06
2.17724e-07
-2.24848e-07
-8.37899e-07
2.03426e-07
-1.92132e-07
8.65317e-07
1.24221e-06
0.00113043
-2.89159e-07
-0.00113012
-6.09203e-08
-1.23138e-06
2.12661e-07
-2.34986e-07
-8.38129e-07
2.09616e-07
-1.90913e-07
8.75085e-07
-1.67477e-07
-1.428e-07
0.000267826
-1.20987e-06
0.000270022
-0.000267949
1.96732e-07
1.82564e-07
6.92555e-08
0.00113094
-1.96463e-07
1.22711e-06
2.44472e-07
9.50503e-07
-1.06211e-07
-7.57895e-07
2.94538e-07
-1.15678e-06
-2.16191e-07
-2.58153e-07
0.00112974
-1.57519e-07
1.31117e-06
2.92562e-07
9.31015e-07
-1.25356e-07
-7.79836e-07
2.73993e-07
0.00113136
-3.85856e-07
-0.00113103
2.56153e-08
-1.19464e-06
2.19423e-07
-2.23167e-07
-8.41442e-07
1.9735e-07
-2.0108e-07
8.64804e-07
1.25911e-06
0.00113058
-4.22198e-07
-0.00113011
-2.15054e-07
-1.20635e-06
2.29845e-07
-2.19569e-07
-8.24685e-07
2.20172e-07
-1.78195e-07
8.86451e-07
-2.12896e-07
-2.29293e-07
0.00112939
-1.58489e-07
1.30404e-06
2.86201e-07
9.20492e-07
-1.25341e-07
2.68507e-07
-7.74015e-07
-4.01584e-07
-0.00113065
4.19453e-08
-1.19526e-06
2.2037e-07
-2.22346e-07
-8.35021e-07
1.9654e-07
8.59708e-07
-2.01186e-07
1.26043e-06
0.00113024
-4.07324e-07
-0.00112976
-2.37712e-07
-1.20017e-06
2.31339e-07
-2.13053e-07
-8.20543e-07
2.13879e-07
-1.79205e-07
8.74493e-07
-1.70803e-07
-1.47716e-07
0.000267761
-1.2282e-06
0.00027007
-0.000267989
2.08808e-07
1.97658e-07
-3.51355e-07
-3.09391e-08
0.00113036
-1.93448e-07
1.22662e-06
2.48669e-07
9.4122e-07
-1.15094e-07
2.87444e-07
-7.63134e-07
-5.62363e-07
-0.00113067
-1.11094e-07
-1.17411e-06
2.35021e-07
-2.04173e-07
-8.21949e-07
2.11075e-07
8.76766e-07
-1.90351e-07
1.21805e-06
0.00113134
-5.59201e-07
-0.00113082
-1.03828e-07
-1.17339e-06
2.33409e-07
-2.11196e-07
-8.23961e-07
2.12211e-07
-1.89569e-07
8.80252e-07
-0.000267964
2.0494e-07
1.98708e-07
1.25588e-06
1.20321e-06
-2.39916e-07
-2.65594e-07
0.000268077
-1.15629e-06
-1.20319e-06
0.000270651
-0.000268559
1.63344e-07
1.04439e-07
-7.06258e-08
0.00113082
-2.53381e-07
1.22582e-06
1.90595e-07
8.34198e-07
-2.28777e-07
-8.71041e-07
1.68385e-07
-1.26326e-06
-2.58465e-07
-5.1274e-09
0.00113091
-2.66208e-07
1.2128e-06
1.83646e-07
8.41132e-07
-2.30221e-07
-8.73903e-07
1.72108e-07
0.00113306
-1.71767e-07
-0.00113226
1.24327e-07
-1.33596e-06
1.28199e-07
-3.27141e-07
-9.48651e-07
1.07371e-07
-3.0472e-07
7.7212e-07
1.15135e-06
0.00113308
-1.48431e-07
-0.0011323
1.52191e-07
-1.33745e-06
1.32157e-07
-3.30578e-07
-9.59582e-07
1.04014e-07
-3.13507e-07
7.71531e-07
-2.42361e-07
-2.70454e-07
0.000268067
-1.20477e-06
0.000270622
-0.000268533
1.64499e-07
1.02633e-07
-2.31599e-08
0.00113188
-2.32295e-07
1.20003e-06
2.12633e-07
8.23836e-07
-2.47915e-07
-8.8425e-07
1.52979e-07
-1.23828e-06
-4.18863e-07
-1.24816e-07
0.0011312
-2.52038e-07
1.22846e-06
1.98676e-07
8.60017e-07
-2.09466e-07
-8.53652e-07
1.91763e-07
0.00113408
5.39483e-08
-0.00113331
-2.53068e-07
-1.20972e-06
2.12323e-07
-2.40927e-07
-9.91672e-07
7.12442e-08
-3.47162e-07
7.34023e-07
1.12231e-06
0.0011332
-1.53726e-07
-0.00113261
3.66265e-07
-1.35243e-06
1.10297e-07
-3.50833e-07
-9.3953e-07
1.18063e-07
-2.92574e-07
7.84561e-07
-4.0476e-07
-1.61982e-07
0.00113087
-2.43641e-07
1.23217e-06
2.01728e-07
8.49401e-07
-2.09648e-07
1.86923e-07
-8.48652e-07
9.06543e-08
-0.00113286
-2.45373e-07
-1.21376e-06
2.12764e-07
-2.40835e-07
-9.89985e-07
6.87372e-08
7.25784e-07
-3.50407e-07
1.12084e-06
0.00113288
-1.67488e-07
-0.00113229
3.56835e-07
-1.34722e-06
1.06661e-07
-3.48046e-07
-9.26392e-07
1.20779e-07
-2.84961e-07
7.82099e-07
-2.29961e-07
-2.60301e-07
0.000268139
-1.19032e-06
0.000270624
-0.000268574
1.65018e-07
9.74174e-08
-5.05254e-07
-1.15478e-07
0.00113199
-2.20722e-07
1.21234e-06
2.26502e-07
8.45502e-07
-2.29744e-07
1.76016e-07
-8.61025e-07
1.19144e-07
-0.00113321
-7.24362e-08
-1.22047e-06
1.98335e-07
-2.4815e-07
-9.77965e-07
8.11388e-08
7.35338e-07
-3.3674e-07
1.18541e-06
0.00113393
9.23585e-08
-0.00113339
-5.55344e-08
-1.21499e-06
2.00895e-07
-2.51507e-07
-9.7793e-07
8.31371e-08
-3.34588e-07
7.40345e-07
-0.000268551
1.6693e-07
9.45055e-08
1.34437e-06
1.20757e-06
-2.5691e-07
-3.30545e-07
0.000268687
-1.25324e-06
-1.20033e-06
0.000270736
-0.000268756
2.20343e-07
2.53781e-07
1.68707e-07
0.00113378
-3.28939e-07
1.15559e-06
1.3343e-07
7.7549e-07
-3.0505e-07
-9.50972e-07
1.12166e-07
-1.34082e-06
-1.09229e-07
1.70021e-07
0.00113378
-3.27428e-07
1.15542e-06
1.41916e-07
7.75448e-07
-3.13652e-07
-9.61846e-07
1.09275e-07
0.00113445
1.52645e-07
-0.00113456
6.53687e-08
-1.26464e-06
2.39264e-07
-2.35787e-07
-8.94657e-07
1.87194e-07
-2.4192e-07
8.4231e-07
1.25386e-06
0.00113445
1.32994e-07
-0.00113455
6.01009e-08
-1.25823e-06
2.478e-07
-2.32444e-07
-8.98452e-07
1.90374e-07
-2.44122e-07
8.49132e-07
-2.60549e-07
-3.24746e-07
0.000268657
-1.20965e-06
0.000270714
-0.000268733
2.26299e-07
2.56486e-07
-3.13634e-07
0.00113474
-2.37226e-07
1.20802e-06
2.17552e-07
7.37935e-07
-3.45823e-07
-9.95369e-07
7.94684e-08
-1.37133e-06
1.11394e-08
5.01517e-07
0.00113358
-3.58839e-07
1.11223e-06
1.09747e-07
7.72363e-07
-3.07483e-07
-9.56112e-07
1.06579e-07
0.0011352
4.11634e-07
-0.00113537
-1.16773e-07
-1.21773e-06
2.15463e-07
-2.40628e-07
-8.95285e-07
2.00347e-07
-2.37461e-07
8.50752e-07
1.21487e-06
0.00113313
4.7716e-07
-0.00113355
3.0496e-07
-1.28532e-06
2.26803e-07
-2.53771e-07
-9.34369e-07
1.45882e-07
-2.78085e-07
8.0203e-07
-4.42913e-09
5.14247e-07
0.00113325
-3.59218e-07
1.10768e-06
1.03081e-07
7.70407e-07
-2.99032e-07
1.10071e-07
-9.41915e-07
4.38326e-07
-0.00113485
-1.62266e-07
-1.21316e-06
2.20598e-07
-2.34659e-07
-8.88041e-07
2.04234e-07
8.47144e-07
-2.33706e-07
1.20723e-06
0.00113266
5.28678e-07
-0.00113314
3.42828e-07
-1.287e-06
2.18261e-07
-2.56816e-07
-9.28201e-07
1.41372e-07
-2.76726e-07
7.90985e-07
-2.66462e-07
-3.40919e-07
0.000268629
-1.16717e-06
0.000270398
-0.000268461
2.01717e-07
2.43005e-07
3.83194e-07
-6.26151e-09
0.00113421
-2.59462e-07
1.17654e-06
1.94474e-07
7.27686e-07
-3.47926e-07
7.51501e-08
-9.97211e-07
8.04658e-07
-0.00113378
8.25632e-08
-1.247e-06
1.87357e-07
-2.61139e-07
-9.24494e-07
1.68072e-07
8.0584e-07
-2.65633e-07
1.15226e-06
0.00113332
8.08615e-07
-0.00113388
1.68859e-07
-1.25076e-06
1.83368e-07
-2.71095e-07
-9.28716e-07
1.63474e-07
-2.69425e-07
8.06216e-07
-0.000268416
1.97566e-07
2.35533e-07
1.21557e-06
1.22251e-06
-1.93074e-07
-1.57248e-07
0.000268648
-1.40161e-06
-1.23365e-06
0.000269843
-0.000267966
3.37978e-07
4.20954e-07
-2.38618e-08
0.00113395
-1.85893e-07
1.30116e-06
2.86819e-07
8.84275e-07
-1.95677e-07
-8.52432e-07
2.3442e-07
-1.20978e-06
2.40222e-07
-1.78849e-08
0.00113395
-1.83259e-07
1.30152e-06
2.94981e-07
8.91161e-07
-1.97664e-07
-8.55583e-07
2.37301e-07
0.00113041
3.20932e-07
-0.00113182
-2.34165e-07
-1.09005e-06
3.78611e-07
-6.96715e-08
-6.87668e-07
3.87645e-07
-2.0616e-08
1.02962e-06
1.41277e-06
0.00113038
3.47288e-07
-0.0011318
-2.71503e-07
-1.07443e-06
3.95692e-07
-5.79725e-08
-7.00354e-07
3.80711e-07
-3.29389e-08
1.0261e-06
-1.93537e-07
-1.48867e-07
0.000268627
-1.21876e-06
0.000269815
-0.00026794
3.25653e-07
4.31185e-07
6.11954e-08
0.00113466
-2.41504e-07
1.19491e-06
2.14772e-07
9.11633e-07
-1.73728e-07
-8.32834e-07
2.63221e-07
-1.22222e-06
5.51902e-07
7.53209e-08
0.00113246
-1.91839e-07
1.27669e-06
2.85724e-07
8.38882e-07
-2.37298e-07
-8.97825e-07
1.88722e-07
0.00113127
-1.28299e-07
-0.0011326
4.58663e-07
-1.17709e-06
2.64568e-07
-1.87861e-07
-6.45261e-07
4.23315e-07
1.36282e-08
1.07435e-06
1.43684e-06
0.00112954
2.95774e-07
-0.00113057
-6.40877e-07
-1.04087e-06
4.21413e-07
-3.11027e-08
-7.21165e-07
3.59371e-07
-5.35615e-08
1.00424e-06
6.21644e-07
1.0377e-07
0.00113193
-1.94789e-07
1.26828e-06
2.76933e-07
8.25998e-07
-2.37475e-07
1.83012e-07
-8.93906e-07
-1.32591e-07
-0.001132
5.1393e-07
-1.19434e-06
2.47537e-07
-2.03377e-07
-6.32792e-07
4.30685e-07
1.07586e-06
2.06586e-08
1.42345e-06
0.00112896
2.95922e-07
-0.00112998
-6.34925e-07
-1.04741e-06
4.0997e-07
-3.70879e-08
-7.08813e-07
3.62198e-07
-4.52343e-08
1.00092e-06
-2.15661e-07
-1.6261e-07
0.000268309
-1.23411e-06
0.00026963
-0.000267722
3.23736e-07
4.39826e-07
7.06821e-07
2.13225e-07
0.00113255
-2.64326e-07
1.1544e-06
1.90074e-07
8.64603e-07
-2.08864e-07
2.23694e-07
-8.69107e-07
-2.12789e-07
-0.00113072
1.64318e-07
-1.17629e-06
2.61815e-07
-1.85474e-07
-6.48062e-07
4.16691e-07
1.06319e-06
6.72167e-09
1.24898e-06
0.00112979
-1.83228e-07
-0.0011307
8.51579e-08
-1.15307e-06
2.86421e-07
-1.67476e-07
-6.60788e-07
4.05887e-07
-2.18867e-09
1.05543e-06
-0.000267663
3.40054e-07
4.26911e-07
1.07961e-06
1.14368e-06
-6.98567e-08
-1.9601e-08
0.000267709
-1.32811e-06
-1.34346e-06
0.000269418
-0.00026739
3.48013e-07
2.9578e-07
-2.38844e-07
0.00112901
-6.31023e-08
1.404e-06
3.78097e-07
1.06228e-06
1.76467e-08
-6.46044e-07
4.16824e-07
-1.05982e-06
1.95975e-07
-3.12338e-07
0.00112898
-4.83972e-08
1.41867e-06
3.97055e-07
1.05604e-06
6.00751e-09
-6.61969e-07
4.08186e-07
0.00112687
-7.74367e-07
-0.00112713
-1.72387e-07
-1.1345e-06
2.95666e-07
-1.34501e-07
-6.29915e-07
3.99417e-07
1.99179e-08
1.05792e-06
1.33572e-06
0.00112692
-7.52028e-07
-0.00112714
-2.64213e-07
-1.1196e-06
3.05059e-07
-1.28281e-07
-6.3687e-07
4.03425e-07
1.75104e-08
1.0628e-06
-8.76045e-08
-4.51054e-09
0.000267682
-1.3448e-06
0.000269406
-0.000267375
3.52338e-07
2.97707e-07
4.30983e-07
0.00112997
-1.539e-07
1.26605e-06
2.96383e-07
1.09662e-06
3.84446e-08
-6.131e-07
4.40707e-07
-1.01436e-06
-6.51723e-09
-7.45934e-07
0.00112864
-1.48187e-08
1.45402e-06
4.27596e-07
1.05501e-06
4.20102e-09
-6.62838e-07
4.06165e-07
0.00112807
-9.50684e-07
-0.00112827
-1.67844e-07
-1.04751e-06
3.55769e-07
-7.8133e-08
-6.53268e-07
3.73611e-07
-7.51847e-09
1.03682e-06
1.3666e-06
0.00112784
-1.15201e-06
-0.00112775
-4.79083e-07
-1.07913e-06
3.28455e-07
-1.05237e-07
-5.86364e-07
4.46834e-07
5.85721e-08
1.11187e-06
-4.60709e-08
-7.31125e-07
0.00112809
-2.18652e-08
1.4398e-06
4.15818e-07
1.05501e-06
1.32403e-08
4.11624e-07
-6.46592e-07
-1.01209e-06
-0.00112776
-1.64885e-07
-1.05322e-06
3.56331e-07
-7.91805e-08
-6.4152e-07
3.78012e-07
1.03675e-06
-5.4311e-11
1.35967e-06
0.00112737
-1.19303e-06
-0.00112728
-4.44493e-07
-1.08057e-06
3.24686e-07
-1.04118e-07
-5.74636e-07
4.44977e-07
6.36793e-08
1.10509e-06
-8.31091e-08
2.56703e-09
0.000267566
-1.38027e-06
0.000269584
-0.000267534
3.76158e-07
3.2086e-07
-5.87212e-07
-4.0445e-08
0.00112904
-1.20484e-07
1.30036e-06
3.29592e-07
1.09693e-06
3.50115e-08
4.41178e-07
-6.107e-07
-1.42985e-06
-0.00112839
-3.77625e-07
-1.01346e-06
3.79643e-07
-4.9994e-08
-5.95499e-07
4.22865e-07
1.0867e-06
3.55799e-08
1.38003e-06
0.00112859
-1.39439e-06
-0.00112843
-4.30174e-07
-9.99254e-07
3.85701e-07
-4.59954e-08
-6.00488e-07
4.22319e-07
3.46914e-08
1.08726e-06
-0.000267507
3.76743e-07
3.18367e-07
1.15797e-06
1.03028e-06
-7.62459e-08
-1.54361e-07
0.00026746
-1.25233e-06
-1.30544e-06
0.000270293
-0.000268122
2.13927e-07
1.7273e-07
-1.87217e-07
0.00112707
-1.58396e-07
1.30581e-06
2.73863e-07
1.03687e-06
-1.62639e-09
-6.506e-07
3.72098e-07
-1.14897e-06
-1.0376e-06
-2.5243e-07
0.00112715
-1.58522e-07
1.30762e-06
2.77321e-07
1.04768e-06
1.99785e-09
-6.51439e-07
3.8204e-07
0.0011298
-1.19074e-06
-0.00112861
-1.98107e-07
-1.22458e-06
2.20234e-07
-2.23226e-07
-7.87689e-07
2.20126e-07
-1.6696e-07
9.06073e-07
1.25043e-06
0.00113
-1.25057e-06
-0.00112877
-2.25921e-07
-1.22242e-06
2.2033e-07
-2.29848e-07
-7.8028e-07
2.37116e-07
-1.55652e-07
9.24153e-07
-7.35243e-08
-1.49501e-07
0.000267452
-1.31973e-06
0.000270312
-0.000268136
2.27965e-07
1.66937e-07
-4.30812e-07
0.00112829
-6.7043e-08
1.35791e-06
3.63558e-07
1.00033e-06
-5.03736e-08
-6.91185e-07
3.34875e-07
-1.1239e-06
-1.3711e-06
-3.04899e-07
0.00112824
-1.49196e-07
1.32293e-06
2.87584e-07
1.09062e-06
3.71971e-08
-6.04749e-07
4.19055e-07
0.00113089
-7.89838e-07
-0.00112976
-7.56928e-07
-1.08132e-06
2.93464e-07
-1.3536e-07
-8.31891e-07
2.00644e-07
-1.99775e-07
8.72347e-07
1.22183e-06
0.00113068
-1.17133e-06
-0.00112972
7.4032e-08
-1.2429e-06
2.0007e-07
-2.53025e-07
-7.82878e-07
2.31285e-07
-1.5788e-07
9.17074e-07
-1.37036e-06
-2.72247e-07
0.00112776
-1.45074e-07
1.31839e-06
2.86038e-07
1.07681e-06
3.66178e-08
4.10877e-07
-5.99715e-07
-8.30975e-07
-0.0011294
-7.86612e-07
-1.07171e-06
3.03966e-07
-1.23817e-07
-8.25541e-07
2.00669e-07
8.68303e-07
-2.00096e-07
1.21415e-06
0.00113011
-1.09973e-06
-0.00112917
9.61822e-08
-1.24271e-06
1.94618e-07
-2.50908e-07
-7.89222e-07
2.1196e-07
-1.70391e-07
8.93037e-07
-5.8067e-08
-1.39336e-07
0.000267653
-1.29279e-06
0.000270414
-0.000268278
2.17733e-07
1.60881e-07
-1.37563e-06
-5.11366e-07
0.001129
-5.24511e-08
1.37483e-06
3.76382e-07
1.04519e-06
-1.88073e-09
3.78661e-07
-6.41896e-07
-7.84353e-07
-0.0011304
-4.93971e-07
-1.09616e-06
2.83578e-07
-1.4297e-07
-8.24153e-07
2.0197e-07
8.70878e-07
-1.99979e-07
1.27302e-06
0.00113126
-7.30798e-07
-0.00113038
-4.6223e-07
-1.1052e-06
2.72223e-07
-1.6021e-07
-8.3072e-07
1.97528e-07
-2.0268e-07
8.67392e-07
-0.000268225
2.03947e-07
1.56866e-07
1.25011e-06
1.13545e-06
-2.39144e-07
-2.79355e-07
0.000268426
-1.20782e-06
-1.08621e-06
0.000271178
-0.000269108
6.37707e-08
1.60691e-07
-1.50596e-07
0.00113113
-2.46255e-07
1.23351e-06
2.02707e-07
8.43434e-07
-2.34605e-07
-8.54929e-07
1.58814e-07
-1.24645e-06
-1.08319e-06
-1.76256e-07
0.00113136
-2.51484e-07
1.23264e-06
2.03129e-07
8.582e-07
-2.24945e-07
-8.49476e-07
1.73098e-07
0.00113454
9.07485e-09
-0.00113367
-4.76452e-09
-1.29876e-06
1.93319e-07
-2.74815e-07
-1.03751e-06
3.1653e-08
-3.87316e-07
6.89211e-07
1.18581e-06
0.00113472
6.51014e-08
-0.0011339
7.89501e-08
-1.31294e-06
1.74315e-07
-2.9724e-07
-1.04585e-06
3.35943e-08
-3.90488e-07
6.91479e-07
-2.33278e-07
-2.79915e-07
0.000268447
-1.07524e-06
0.000271179
-0.000269118
6.06525e-08
1.38849e-07
-6.46611e-07
0.00113213
-1.90654e-07
1.25433e-06
2.42089e-07
8.27622e-07
-2.46795e-07
-8.82261e-07
1.59471e-07
-1.27356e-06
-8.74794e-07
1.53653e-07
0.00113169
-2.77418e-07
1.19655e-06
1.79171e-07
8.38432e-07
-2.37393e-07
-8.64062e-07
1.55788e-07
0.00113527
1.26919e-07
-0.00113448
5.3728e-08
-1.32201e-06
1.00247e-07
-3.52166e-07
-9.91969e-07
9.57327e-08
-3.32262e-07
7.44378e-07
1.17328e-06
0.00113381
3.89866e-07
-0.00113337
1.97616e-07
-1.31837e-06
1.81033e-07
-2.93486e-07
-1.05988e-06
1.6887e-08
-4.01208e-07
6.72671e-07
-8.31743e-07
1.57394e-07
0.00113113
-2.75966e-07
1.1893e-06
1.74652e-07
8.18681e-07
-2.47932e-07
1.39933e-07
-8.68405e-07
1.20578e-07
-0.0011342
1.79094e-07
-1.33875e-06
8.90696e-08
-3.64086e-07
-9.952e-07
8.33761e-08
7.28883e-07
-3.43091e-07
1.18516e-06
0.00113361
2.69794e-07
-0.00113301
9.25106e-08
-1.30278e-06
1.92132e-07
-2.78531e-07
-1.04876e-06
1.56969e-08
-3.97802e-07
6.68021e-07
-2.4584e-07
-2.94811e-07
0.000268521
-1.07483e-06
0.00027098
-0.000268957
7.60517e-08
1.48995e-07
-4.448e-07
-3.44826e-07
0.00113219
-2.14149e-07
1.21955e-06
2.21443e-07
8.07329e-07
-2.6306e-07
1.41776e-07
-8.95403e-07
4.72035e-07
-0.00113373
2.6425e-07
-1.3379e-06
1.01479e-07
-3.48718e-07
-1.01681e-06
6.39205e-08
7.07741e-07
-3.62724e-07
1.07979e-06
0.00113437
4.19026e-07
-0.00113387
1.21893e-07
-1.32081e-06
1.08808e-07
-3.45469e-07
-1.01268e-06
7.57931e-08
-3.53262e-07
7.19316e-07
-0.000268951
7.55053e-08
1.58104e-07
1.29433e-06
1.35999e-06
-3.66153e-07
-2.72037e-07
0.000269162
-1.24945e-06
-1.089e-06
0.000270734
-0.000268818
1.67909e-07
2.5441e-07
1.1691e-08
0.00113499
-2.63741e-07
1.22013e-06
2.07984e-07
6.75517e-07
-4.00969e-07
-1.0614e-06
2.44123e-08
-1.32048e-06
5.12648e-07
1.57124e-07
0.00113507
-2.96405e-07
1.18588e-06
1.78954e-07
6.76898e-07
-4.0628e-07
-1.07086e-06
2.43061e-08
0.00113377
1.11703e-06
-0.00113455
6.64253e-08
-1.26129e-06
2.35683e-07
-2.29908e-07
-9.8173e-07
1.25052e-07
-3.07928e-07
7.62569e-07
1.21318e-06
0.00113364
1.17036e-06
-0.00113445
2.07236e-07
-1.29501e-06
2.12091e-07
-2.62832e-07
-9.91579e-07
1.18484e-07
-3.17731e-07
7.62097e-07
-3.73455e-07
-2.93125e-07
0.000269152
-1.10305e-06
0.00027065
-0.000268741
1.79171e-07
2.27562e-07
2.83882e-07
0.00113567
-3.76049e-07
1.05968e-06
8.41287e-08
7.45228e-07
-3.33909e-07
-9.97982e-07
9.86368e-08
-1.30765e-06
7.51643e-07
1.42933e-07
0.00113391
-2.76971e-07
1.1884e-06