/*--------------------------------*- C++ -*----------------------------------*\
| =========                 |                                                 |
| \\      /  F ield         | OpenFOAM: The Open Source CFD Toolbox           |
|  \\    /   O peration     | Version:  2312                                  |
|   \\  /    A nd           | Website:  www.openfoam.com                      |
|    \\/     M anipulation  |                                                 |
\*---------------------------------------------------------------------------*/
FoamFile
{
    version     2.0;
    format      ascii;
    arch        "LSB;label=32;scalar=64";
    class       volVectorField;
    location    "750";
    object      U;
}
// * * * * * * * * * * * * * * * * * * * * * * * * * * * * * * * * * * * * * //

dimensions      [0 1 -1 0 0 0 0];

internalField   nonuniform List<vector> 
43208
(
(3.96643e-06 -1.08413e-05 0.112471)
(1.44174e-05 -1.97123e-05 0.107497)
(-1.062e-05 8.19926e-06 0.107473)
(-1.08479e-05 -1.48375e-05 0.104188)
(-1.84921e-05 -7.23742e-06 0.112346)
(4.15925e-05 -2.29034e-06 0.107341)
(-6.55053e-06 4.06286e-05 0.107317)
(-1.87962e-05 -5.14361e-06 0.104085)
(-4.47923e-05 -3.04977e-05 0.112213)
(1.16892e-05 -7.16906e-06 0.1074)
(-1.66387e-05 2.34319e-05 0.107439)
(-3.49265e-05 -3.96051e-05 0.104214)
(-2.72384e-06 -3.72458e-05 0.112315)
(-3.96617e-05 -1.91988e-05 0.107664)
(-1.63906e-06 -5.06701e-05 0.107676)
(-5.02131e-05 -8.49768e-05 0.104409)
(4.63636e-05 2.17465e-05 0.11257)
(-1.81765e-05 1.55004e-05 0.107714)
(2.73193e-05 -3.71937e-05 0.10758)
(-4.49164e-05 -2.38978e-05 0.104292)
(1.90141e-06 6.87975e-05 0.112435)
(7.43158e-05 2.07555e-05 0.107285)
(-1.77189e-06 8.30726e-05 0.107239)
(1.20056e-05 4.81373e-05 0.104006)
(-9.62014e-05 -8.39803e-05 0.111898)
(8.7226e-05 -6.355e-05 0.107063)
(-7.19385e-05 0.000110986 0.107176)
(3.43574e-05 4.70103e-06 0.104031)
(-8.78798e-05 -0.000140034 0.111788)
(2.86404e-05 -5.5289e-05 0.107398)
(-3.61725e-05 1.79266e-05 0.107466)
(-3.42483e-05 -5.62866e-05 0.104346)
(1.69415e-05 -1.50084e-07 0.112092)
(-6.20199e-05 5.22098e-05 0.107787)
(4.84968e-05 -7.42811e-05 0.107701)
(-9.19373e-05 -5.59475e-05 0.104558)
(9.66358e-05 0.000128524 0.112389)
(-5.68548e-05 5.31968e-05 0.107621)
(4.09324e-05 -4.73531e-05 0.107526)
(-5.94315e-05 -2.44244e-05 0.104363)
(2.15264e-05 7.29536e-05 0.112191)
(3.36332e-05 1.19794e-05 0.107284)
(-3.53405e-06 4.71618e-05 0.107308)
(-1.2914e-05 -1.41829e-05 0.104136)
(-7.35394e-05 -5.229e-05 0.111898)
(2.25108e-05 -5.35586e-05 0.107255)
(-6.35529e-05 4.76153e-05 0.107432)
(1.79232e-06 -3.42787e-05 0.104229)
(-4.15417e-05 -0.000110723 0.111956)
(-3.33277e-06 -4.32427e-05 0.107428)
(-1.17187e-05 -1.32585e-05 0.107599)
(-1.11539e-05 -7.32921e-05 0.104364)
(6.01988e-05 -2.5928e-05 0.112155)
(2.3783e-05 2.246e-05 0.107562)
(5.61704e-05 -1.30517e-05 0.107457)
(-3.38185e-05 -2.50073e-05 0.104321)
(1.61091e-05 5.39083e-05 0.112077)
(3.00535e-05 1.34538e-05 0.107514)
(-3.38914e-06 1.9848e-05 0.107288)
(-5.29726e-05 2.3204e-05 0.104256)
(-7.46506e-05 6.18323e-06 0.111894)
(5.13199e-06 -1.91767e-05 0.107417)
(-5.08533e-05 3.2872e-05 0.107372)
(-2.91098e-05 -1.45923e-05 0.104307)
(-3.65319e-05 -4.48098e-05 0.111889)
(-4.34725e-06 -1.96604e-05 0.107413)
(-1.27389e-05 7.11478e-06 0.107518)
(-9.54909e-06 -6.13354e-05 0.104401)
(2.9009e-05 -2.69719e-05 0.111964)
(1.29952e-05 -7.9164e-06 0.107466)
(1.5228e-05 -1.09882e-05 0.107489)
(-2.40994e-05 -4.30527e-05 0.104384)
(8.88304e-06 5.94414e-06 0.11196)
(2.62379e-05 4.92879e-07 0.107472)
(-7.94047e-07 1.03754e-05 0.107397)
(-3.99688e-05 -3.03231e-06 0.104331)
(-3.79897e-05 -3.9181e-06 0.111903)
(2.6028e-05 -8.50513e-06 0.107435)
(-2.41022e-05 3.48935e-05 0.107403)
(-1.77478e-05 5.58658e-06 0.10439)
(-4.68293e-05 -4.39418e-05 0.111191)
(4.79565e-05 -1.8835e-05 0.107885)
(-2.32784e-05 5.65928e-05 0.107905)
(4.77391e-05 3.45084e-05 0.104996)
(-5.54269e-05 -6.40992e-05 0.104335)
(-8.15498e-06 -2.01798e-05 0.107527)
(4.76702e-06 -1.84302e-05 0.107525)
(5.261e-05 -6.28077e-05 0.104334)
(-1.24612e-05 -2.19562e-05 0.107529)
(-1.35146e-05 -2.85032e-06 0.107517)
(1.00494e-05 -1.96218e-05 0.107529)
(1.52401e-05 2.20817e-07 0.107518)
(-5.75299e-05 4.91262e-05 0.104319)
(-1.08069e-05 5.41472e-06 0.107517)
(1.28287e-05 7.35697e-06 0.107516)
(5.86459e-05 5.1475e-05 0.104319)
(1.10622e-05 4.91766e-06 0.104209)
(-6.60757e-05 -5.35793e-05 0.104215)
(-1.20233e-05 -2.33605e-05 0.107499)
(9.14374e-06 -2.14032e-05 0.107496)
(-1.81154e-05 -2.80198e-05 0.107372)
(2.06446e-05 -2.82344e-05 0.107371)
(-1.39284e-05 5.70374e-06 0.104206)
(6.752e-05 -5.49243e-05 0.104212)
(-1.79864e-05 -2.06168e-05 0.1075)
(-1.40573e-05 2.6517e-06 0.107476)
(-3.5079e-05 -4.09081e-06 0.10737)
(-2.26632e-05 2.2893e-05 0.107338)
(1.53511e-05 5.03277e-06 0.107479)
(3.52569e-05 -5.73949e-06 0.107368)
(2.23313e-05 2.10402e-05 0.107342)
(1.13256e-05 -1.71928e-05 0.104186)
(-5.26959e-05 6.66398e-05 0.104185)
(1.09005e-05 1.06677e-05 0.107474)
(-5.58763e-06 3.13177e-05 0.107335)
(4.41883e-06 3.11759e-05 0.107337)
(5.13576e-05 6.55417e-05 0.104188)
(5.71903e-06 1.81609e-05 0.104108)
(-3.12844e-05 -3.22902e-05 0.104259)
(-1.74625e-05 -3.01664e-05 0.107342)
(2.03887e-05 -3.17759e-05 0.107343)
(-1.23206e-05 -2.21832e-05 0.107348)
(9.02226e-06 -2.47723e-05 0.107352)
(-4.04218e-06 1.68229e-05 0.104105)
(2.89175e-05 -3.31212e-05 0.104262)
(-3.93047e-05 -6.58742e-07 0.10734)
(-2.95324e-05 2.63172e-05 0.107318)
(-2.60839e-05 -5.14528e-06 0.107353)
(-3.26719e-05 2.05553e-05 0.107371)
(2.87181e-05 2.42844e-05 0.107321)
(2.68818e-05 -5.41123e-06 0.10736)
(3.0574e-05 2.24566e-05 0.107374)
(1.7525e-05 -3.8893e-06 0.104083)
(-3.88458e-05 3.51076e-05 0.104288)
(5.68798e-06 3.94577e-05 0.107318)
(-1.63753e-05 3.64854e-05 0.107383)
(1.47304e-05 3.64899e-05 0.107383)
(3.70707e-05 3.64943e-05 0.104287)
(4.43209e-05 3.93833e-05 0.104182)
(6.16711e-06 -2.4419e-05 0.104507)
(-6.19534e-06 -1.40687e-05 0.107387)
(1.08177e-06 -1.54558e-05 0.10739)
(2.18777e-05 7.84118e-06 0.107592)
(-2.34218e-05 9.86264e-06 0.107588)
(-4.73779e-05 3.88805e-05 0.104184)
(-6.51377e-06 -2.39617e-05 0.104502)
(-1.29573e-05 -7.47249e-06 0.107394)
(-2.54774e-05 1.02958e-05 0.107424)
(2.91301e-05 -1.5687e-05 0.107597)
(7.06863e-06 -3.73842e-05 0.107623)
(2.38081e-05 1.33291e-05 0.107427)
(-3.13815e-05 -1.59185e-05 0.107595)
(-5.22334e-06 -3.66956e-05 0.107628)
(3.319e-05 -4.13741e-05 0.104214)
(-2.1955e-05 -1.26294e-05 0.104519)
(1.49608e-05 2.45466e-05 0.10744)
(-6.85889e-06 -3.17382e-05 0.107635)
(5.86695e-06 -2.98729e-05 0.107638)
(2.25305e-05 -1.23286e-05 0.10452)
(7.64457e-05 4.56859e-05 0.104413)
(-4.16257e-05 -3.40294e-05 0.104567)
(2.56097e-05 1.29809e-05 0.107667)
(-2.51805e-05 1.51235e-05 0.107661)
(9.4211e-06 2.89191e-05 0.107775)
(-8.88865e-06 2.75745e-05 0.107769)
(-7.59462e-05 4.59123e-05 0.104408)
(4.31941e-05 -3.60309e-05 0.104565)
(3.79571e-05 -1.78913e-05 0.107668)
(2.14018e-05 -4.7624e-05 0.107671)
(3.43112e-05 4.71021e-06 0.107755)
(4.88975e-05 -2.66556e-05 0.107666)
(-1.92555e-05 -4.83894e-05 0.107676)
(-3.49294e-05 1.01507e-06 0.107748)
(-5.13047e-05 -2.88197e-05 0.10766)
(5.05792e-05 -8.45941e-05 0.104409)
(-2.50268e-05 3.48593e-05 0.104455)
(-1.29795e-07 -4.9073e-05 0.107679)
(2.01853e-05 -5.66204e-05 0.10764)
(-2.60168e-05 -5.68851e-05 0.107633)
(2.26952e-05 3.34154e-05 0.104446)
(1.84829e-05 3.51908e-05 0.104419)
(-0.000105011 -6.59159e-05 0.104229)
(-2.52344e-06 2.55973e-05 0.107748)
(2.61849e-06 2.39443e-05 0.107741)
(-3.69736e-05 -2.21876e-05 0.107447)
(4.19059e-05 -1.8433e-05 0.107437)
(-1.67914e-05 3.35025e-05 0.104417)
(0.000110225 -5.9483e-05 0.104225)
(1.7975e-05 1.79711e-05 0.107722)
(4.51161e-05 -5.51047e-06 0.107614)
(-5.27062e-05 2.49072e-05 0.107431)
(-1.50257e-05 6.27496e-05 0.107347)
(-4.85105e-05 -7.37317e-06 0.107602)
(5.55589e-05 3.10289e-05 0.107415)
(1.73671e-05 6.00482e-05 0.107326)
(4.28379e-05 -2.22648e-05 0.104303)
(-6.16381e-05 0.000116508 0.104152)
(-3.19623e-05 -3.86136e-05 0.107569)
(1.46144e-05 5.57195e-05 0.107322)
(-6.51875e-06 5.14924e-05 0.107307)
(6.89184e-05 0.000112295 0.104138)
(-3.77675e-05 -4.81987e-06 0.104072)
(-6.85297e-05 -9.22978e-05 0.104022)
(-3.93455e-05 -4.3263e-05 0.107307)
(4.66117e-05 -3.77323e-05 0.107297)
(-2.69101e-05 -9.55124e-05 0.107042)
(3.32682e-05 -9.36162e-05 0.107038)
(4.36863e-05 1.80993e-06 0.104068)
(7.11444e-05 -9.20735e-05 0.104023)
(-7.06476e-05 1.33899e-05 0.1073)
(-4.40906e-05 7.22324e-05 0.107251)
(-9.03405e-05 -4.18235e-05 0.10706)
(-0.000120589 5.14076e-05 0.107125)
(4.89216e-05 6.86706e-05 0.107233)
(9.36239e-05 -4.099e-05 0.107057)
(0.000122627 4.88076e-05 0.107116)
(-3.74062e-06 5.21909e-05 0.104017)
(-0.000102835 8.08713e-05 0.104099)
(1.25103e-05 7.88911e-05 0.107225)
(-5.89225e-05 0.000120626 0.107146)
(6.29372e-05 0.00011849 0.107137)
(0.000103829 7.99579e-05 0.104097)
(2.91411e-06 -2.68389e-05 0.103951)
(-2.4802e-05 -5.3394e-05 0.104338)
(-2.68801e-05 -0.00010137 0.10704)
(3.07697e-05 -0.000102279 0.107039)
(-2.34445e-05 -7.28005e-05 0.107256)
(2.48758e-05 -7.83241e-05 0.107267)
(-1.26647e-06 -2.84158e-05 0.103953)
(2.42631e-05 -5.77208e-05 0.10435)
(-8.50021e-05 -6.14819e-05 0.107062)
(-0.000125474 3.89699e-05 0.107149)
(-4.50932e-05 -7.26717e-05 0.10727)
(-7.30324e-05 7.76992e-06 0.107358)
(0.000123898 3.70841e-05 0.107141)
(4.71965e-05 -7.64713e-05 0.107279)
(6.65324e-05 5.87662e-06 0.10734)
(-3.50654e-05 4.66181e-06 0.104032)
(-5.21739e-05 1.95065e-05 0.104408)
(7.12782e-05 0.000109077 0.107166)
(-5.97274e-05 4.48357e-05 0.107377)
(5.5493e-05 4.13002e-05 0.10736)
(4.66625e-05 1.8094e-05 0.104395)
(4.7396e-05 2.61368e-05 0.104305)
(-1.22413e-05 2.0814e-05 0.104716)
(-1.56773e-05 -4.80494e-05 0.10738)
(1.72289e-05 -5.251e-05 0.107393)
(3.11065e-06 4.7628e-05 0.107738)
(-1.03363e-05 5.04581e-05 0.107751)
(-4.78038e-05 2.29141e-05 0.104319)
(5.03371e-06 2.45002e-05 0.104725)
(-2.58049e-05 -5.46744e-05 0.107385)
(-3.96687e-05 -2.97186e-06 0.107455)
(3.61526e-05 2.33352e-05 0.107716)
(6.65337e-05 -1.82206e-05 0.107692)
(3.50407e-05 -4.2241e-06 0.107435)
(-3.83779e-05 3.13451e-05 0.107733)
(-6.10246e-05 -1.10973e-05 0.107701)
(3.0498e-05 -5.5181e-05 0.104358)
(1.96961e-05 6.38825e-06 0.104661)
(3.62032e-05 1.40924e-05 0.107448)
(3.60712e-05 -5.71275e-05 0.107679)
(-2.77886e-05 -5.28849e-05 0.107684)
(-1.82329e-05 1.07524e-05 0.10467)
(5.68073e-05 9.64885e-05 0.104608)
(-4.31875e-05 -3.94527e-06 0.104573)
(6.05069e-06 7.7715e-05 0.107802)
(-1.8929e-05 8.1598e-05 0.107808)
(1.41264e-05 8.84776e-05 0.10774)
(-2.80343e-05 9.12154e-05 0.107721)
(-6.62585e-05 9.9509e-05 0.104613)
(3.1875e-05 -8.33575e-06 0.104548)
(5.47407e-05 4.57261e-05 0.107774)
(9.03893e-05 -1.83074e-05 0.107718)
(5.9046e-05 6.65614e-05 0.107714)
(8.32309e-05 -1.35219e-05 0.107613)
(-8.56626e-05 -8.25772e-06 0.107743)
(-7.4375e-05 6.1873e-05 0.107704)
(-8.8161e-05 -7.53171e-06 0.107664)
(9.15674e-05 -6.16242e-05 0.104543)
(-1.43792e-05 3.95583e-05 0.10448)
(-4.44409e-05 -6.654e-05 0.107718)
(4.81521e-05 -6.60267e-05 0.107597)
(-6.01554e-05 -5.83554e-05 0.107637)
(5.23745e-06 4.56618e-05 0.104517)
(2.7679e-05 6.07103e-05 0.104411)
(-4.81801e-05 -4.20857e-05 0.104216)
(1.60368e-05 6.97848e-05 0.107653)
(-2.11491e-05 7.1423e-05 0.107633)
(1.08739e-05 8.18052e-06 0.107329)
(4.52385e-06 8.53928e-07 0.107338)
(-3.59852e-05 5.64058e-05 0.104385)
(5.93124e-05 -4.82998e-05 0.104229)
(4.58808e-05 6.08734e-05 0.107634)
(6.38906e-05 -6.55572e-06 0.107539)
(-3.39817e-06 3.52322e-05 0.107334)
(-6.5893e-06 1.79398e-05 0.107324)
(-6.90422e-05 -6.91545e-06 0.107588)
(1.51101e-05 2.39896e-05 0.107345)
(6.05428e-06 7.96209e-06 0.107349)
(4.9951e-05 -2.67926e-05 0.104329)
(-4.98335e-05 6.15737e-05 0.104237)
(-5.3291e-05 -4.31803e-05 0.107567)
(1.12783e-05 2.52166e-05 0.107331)
(-1.5251e-05 1.89825e-05 0.107354)
(5.06034e-05 5.50205e-05 0.104247)
(2.14753e-05 2.29456e-05 0.104091)
(-3.33216e-05 -6.37897e-05 0.104185)
(6.7233e-06 -9.3699e-06 0.107247)
(5.26792e-06 -2.04078e-05 0.107268)
(-1.15682e-05 -4.49699e-05 0.107171)
(-8.31501e-06 -5.6068e-05 0.107196)
(-1.16676e-05 1.67631e-05 0.104109)
(2.45998e-05 -7.1288e-05 0.104208)
(-1.9061e-05 2.29674e-05 0.10726)
(-3.25868e-05 2.1332e-05 0.107291)
(-3.7455e-05 -3.09508e-05 0.107211)
(-7.85604e-05 8.99374e-06 0.107336)
(3.20807e-05 1.41607e-05 0.107308)
(3.42935e-05 -3.86254e-05 0.107234)
(6.95407e-05 1.56945e-05 0.107321)
(1.34228e-05 -8.10683e-06 0.104132)
(-7.69289e-05 3.25012e-05 0.104333)
(1.03533e-07 4.1388e-05 0.107322)
(-5.37651e-05 5.85467e-05 0.107375)
(3.64263e-05 6.13764e-05 0.10736)
(7.00658e-05 3.86606e-05 0.104307)
(3.5206e-05 3.52749e-08 0.104113)
(-1.29726e-05 -7.60248e-05 0.104467)
(-1.57997e-05 -5.16352e-05 0.107206)
(-1.29601e-05 -5.80639e-05 0.107217)
(3.4604e-06 -5.67643e-05 0.107422)
(-8.61532e-06 -3.57635e-05 0.107366)
(-4.61098e-05 -5.8599e-06 0.104127)
(2.08882e-05 -5.51406e-05 0.104396)
(-3.50463e-05 -4.89709e-05 0.107251)
(-8.08523e-05 -1.98575e-06 0.107392)
(-1.17573e-05 -7.73745e-05 0.107469)
(-3.96753e-05 -2.73569e-05 0.107571)
(6.63663e-05 6.69359e-06 0.107356)
(-4.71809e-06 -5.5928e-05 0.107376)
(3.27862e-05 -3.93084e-05 0.107464)
(-9.43757e-06 -4.07342e-05 0.104262)
(-4.68088e-05 1.34499e-05 0.104542)
(4.19429e-05 4.9908e-05 0.107403)
(-3.66294e-05 4.0202e-07 0.107582)
(4.34343e-05 -1.28128e-05 0.107511)
(6.11738e-05 -3.35955e-06 0.104467)
(5.73966e-05 -3.32638e-06 0.10439)
(-3.55094e-05 -3.77213e-05 0.104559)
(1.41206e-05 -5.02857e-05 0.107505)
(5.08804e-06 -2.27791e-05 0.107433)
(2.37029e-05 -3.98972e-06 0.107621)
(4.68187e-05 1.31141e-05 0.107575)
(-4.05538e-05 2.00828e-05 0.104317)
(7.51614e-05 -1.77463e-05 0.104525)
(-1.87294e-08 -7.25223e-05 0.107544)
(-1.11169e-05 -2.45383e-05 0.107603)
(2.20694e-05 -1.29726e-05 0.107612)
(5.14561e-05 7.68393e-06 0.107543)
(1.82685e-05 -4.78304e-05 0.107486)
(1.62656e-05 1.02048e-05 0.107542)
(-1.23125e-05 -2.25978e-05 0.107485)
(3.32658e-05 -5.24339e-05 0.104436)
(-1.36794e-06 5.9721e-05 0.104456)
(4.03108e-05 -3.24324e-05 0.107525)
(5.22451e-05 -1.95951e-05 0.107512)
(1.60288e-05 -3.88538e-05 0.107478)
(4.00935e-05 3.45136e-05 0.104439)
(2.81373e-05 4.03688e-05 0.104431)
(-8.06123e-05 -1.65929e-06 0.104369)
(1.53424e-05 9.62886e-06 0.10761)
(5.03099e-05 1.53262e-05 0.107594)
(-2.86281e-05 2.8648e-05 0.107457)
(2.37366e-05 -5.10616e-06 0.107545)
(7.03783e-06 5.30083e-05 0.104417)
(5.97759e-05 -3.88331e-05 0.104474)
(1.78175e-05 1.1147e-05 0.107583)
(5.38434e-05 1.81818e-05 0.107487)
(-1.34852e-05 5.76204e-05 0.107404)
(1.65092e-05 2.61792e-05 0.107307)
(-1.46125e-05 -2.27547e-06 0.107474)
(3.18508e-05 2.22771e-05 0.107538)
(-8.9737e-06 5.2632e-05 0.107416)
(6.76138e-05 -7.11473e-06 0.10432)
(-4.00618e-05 5.94663e-05 0.104281)
(4.34049e-06 -2.37304e-05 0.107449)
(1.80068e-05 9.64376e-06 0.107305)
(-2.97319e-05 3.19127e-05 0.107366)
(1.51326e-05 9.10669e-05 0.10436)
(-1.3276e-05 6.61781e-05 0.104246)
(-6.12615e-05 -3.45472e-05 0.104327)
(-4.08545e-05 2.49165e-05 0.107403)
(8.47703e-06 -1.59402e-05 0.10751)
(-4.48078e-05 -7.12877e-06 0.107323)
(-2.61771e-05 -2.93578e-05 0.107407)
(-1.68885e-05 2.63462e-05 0.104353)
(1.95278e-05 -5.77658e-05 0.104399)
(-2.60663e-05 5.76649e-05 0.107354)
(-6.75678e-06 2.29527e-05 0.10728)
(-4.3776e-05 1.45994e-05 0.10731)
(-5.26117e-05 9.52595e-06 0.107308)
(-1.05947e-06 6.11064e-05 0.107404)
(1.08639e-05 -1.28902e-05 0.107432)
(2.0734e-05 4.55047e-05 0.107403)
(1.99919e-05 -1.255e-05 0.104177)
(-7.20643e-05 3.4163e-05 0.104347)
(-3.32533e-05 4.8557e-05 0.107358)
(-4.80031e-05 3.27774e-05 0.107331)
(-1.36079e-05 5.68233e-05 0.107388)
(3.40336e-05 6.15263e-05 0.104396)
(1.28633e-05 2.5912e-05 0.104239)
(-1.77622e-05 -6.78371e-05 0.104466)
(-3.73876e-05 -1.95383e-05 0.107334)
(-2.62883e-05 -2.85304e-05 0.107391)
(4.18258e-06 -3.45207e-05 0.107418)
(-8.21241e-06 -9.94856e-06 0.107388)
(-5.02178e-05 1.16323e-05 0.104292)
(2.91359e-05 -4.48062e-05 0.104417)
(-4.14054e-05 -5.8027e-06 0.107335)
(-5.66683e-05 6.90557e-06 0.107349)
(-1.0865e-05 -4.24787e-05 0.107447)
(-3.09386e-05 -4.38496e-06 0.107478)
(2.58287e-05 3.21614e-05 0.107418)
(-7.46085e-06 -2.04136e-05 0.107403)
(2.48117e-05 -1.69442e-05 0.107474)
(-3.22343e-06 -3.46156e-05 0.104269)
(-4.41267e-05 2.82775e-05 0.104505)
(-7.13962e-07 4.82489e-05 0.107417)
(-2.40727e-05 1.44428e-05 0.107492)
(2.76911e-05 2.93278e-06 0.107503)
(5.90019e-05 1.06272e-05 0.1045)
(5.39183e-05 7.03856e-07 0.104377)
(-1.97165e-05 -4.93122e-05 0.104512)
(1.5865e-05 -3.52666e-05 0.107452)
(1.82353e-06 -7.00798e-06 0.107403)
(2.87433e-05 -1.22681e-05 0.107505)
(1.93765e-05 -4.65587e-07 0.107457)
(-3.50977e-05 2.50089e-05 0.104321)
(5.05655e-05 -3.68828e-05 0.104472)
(-2.00935e-06 -4.629e-05 0.107483)
(-1.83374e-05 -5.60199e-06 0.107508)
(1.87624e-05 -2.38254e-05 0.107521)
(1.75014e-05 -7.24709e-06 0.107513)
(2.21109e-05 -2.82165e-05 0.107491)
(4.566e-06 -8.78112e-06 0.107455)
(1.46092e-06 -3.32424e-05 0.107496)
(2.92083e-05 -3.98314e-05 0.104408)
(-2.45214e-05 3.58636e-05 0.104499)
(3.24729e-05 -9.65563e-06 0.107522)
(1.56456e-05 -1.44457e-05 0.107512)
(1.81191e-05 -2.88274e-05 0.107512)
(4.73461e-05 1.84819e-05 0.104495)
(4.25325e-05 2.26971e-05 0.104406)
(-5.1702e-05 -2.00063e-05 0.104444)
(1.99679e-05 -8.93606e-06 0.107502)
(2.26547e-05 -6.08373e-06 0.10747)
(-7.01536e-06 9.40549e-06 0.10747)
(1.26905e-05 -8.58807e-06 0.10749)
(-1.48591e-05 2.97445e-05 0.104377)
(4.83243e-05 -3.5186e-05 0.104477)
(1.2664e-05 -1.40248e-05 0.107508)
(1.65177e-05 -2.99591e-06 0.107492)
(-2.21404e-06 1.8505e-05 0.107455)
(1.09952e-05 4.58796e-06 0.107429)
(9.29941e-07 -2.13868e-05 0.107484)
(1.76987e-05 3.6788e-06 0.107484)
(-9.92938e-06 1.15658e-05 0.107437)
(4.2451e-05 -3.00456e-05 0.104387)
(-3.22585e-05 4.34279e-05 0.104414)
(1.1271e-05 -1.97916e-05 0.107491)
(9.35988e-06 -3.82171e-06 0.107423)
(-1.56016e-05 2.69047e-06 0.107422)
(2.24663e-05 5.55863e-05 0.104416)
(7.09995e-06 4.25693e-05 0.104356)
(-4.57295e-05 -1.82007e-05 0.104389)
(-2.11037e-05 3.04927e-06 0.107443)
(1.47454e-05 -1.76323e-05 0.107476)
(-2.32755e-05 2.49681e-06 0.107431)
(-3.37189e-06 -8.67431e-06 0.107468)
(-1.45082e-05 2.64228e-05 0.104394)
(2.87636e-05 -2.71761e-05 0.104422)
(-1.67587e-05 1.81278e-05 0.107425)
(-3.51141e-06 1.35995e-05 0.107402)
(-2.1009e-05 1.75077e-05 0.10742)
(-1.4702e-05 1.04711e-05 0.107419)
(-5.89869e-07 2.69314e-05 0.107413)
(1.17834e-05 7.46585e-06 0.107467)
(2.07363e-06 2.82971e-05 0.107416)
(2.72437e-05 -1.72658e-05 0.104329)
(-3.51258e-05 3.54839e-05 0.104389)
(-1.40045e-05 1.99203e-05 0.107395)
(-8.14361e-06 1.67685e-05 0.107417)
(-1.46852e-05 2.66989e-05 0.107404)
(1.97579e-05 4.91666e-05 0.104381)
(-2.29623e-06 1.90911e-05 0.104396)
(-3.63225e-05 -4.88891e-05 0.104668)
(-3.3458e-05 -1.94903e-05 0.107407)
(9.39539e-06 -2.47094e-05 0.107435)
(-2.50181e-05 -6.75301e-05 0.107733)
(2.00771e-05 -5.87539e-05 0.107727)
(-1.3495e-05 1.33321e-05 0.104424)
(3.61522e-05 -4.06344e-05 0.104655)
(-3.72008e-05 -4.23225e-06 0.107401)
(-3.44073e-05 2.35058e-05 0.107404)
(-6.42717e-05 -3.46773e-05 0.107739)
(-6.98029e-05 2.52631e-05 0.107747)
(2.33392e-05 3.74843e-05 0.107394)
(5.54927e-05 -2.54982e-05 0.107728)
(6.66525e-05 2.39368e-05 0.107722)
(4.69994e-06 -5.88387e-06 0.104401)
(-4.5006e-05 3.96667e-05 0.104676)
(5.95775e-06 4.24299e-05 0.107388)
(-3.17623e-05 6.59455e-05 0.107747)
(3.17274e-05 6.49289e-05 0.107728)
(4.70814e-05 3.59541e-05 0.104661)
(-3.50484e-05 -4.95144e-05 0.105004)
(-1.61736e-05 -6.02619e-05 0.107893)
(1.42224e-05 -5.08795e-05 0.107884)
(3.68756e-05 -4.05774e-05 0.104989)
(-5.49358e-05 -2.86654e-05 0.1079)
(-6.01495e-05 1.75615e-05 0.107905)
(3.17422e-05 -3.50117e-05 0.111194)
(-4.87943e-05 4.47411e-05 0.111202)
(4.22202e-05 4.69575e-05 0.111168)
(5.89355e-05 1.4891e-05 0.107881)
(-4.39091e-05 3.92914e-05 0.10501)
(2.57439e-05 5.50258e-05 0.107888)
(-2.24465e-06 -2.91195e-05 0.0913928)
(-1.90418e-06 -1.50965e-05 0.0822202)
(8.78268e-07 -9.03497e-06 0.0715528)
(-1.75726e-05 1.23319e-06 0.0822197)
(-2.22968e-06 -1.65564e-05 0.112478)
(1.23175e-07 -1.38301e-05 0.112474)
(-4.34936e-06 -1.10838e-05 0.112476)
(7.64001e-06 -8.86559e-06 0.112474)
(3.36361e-05 -8.31028e-06 0.0985967)
(1.00627e-05 -1.48456e-05 0.107553)
(2.90045e-05 -1.41292e-05 0.0930423)
(1.95648e-05 -1.15187e-05 0.109964)
(-1.994e-06 -4.02903e-05 0.0914759)
(5.3712e-08 -1.30619e-05 0.0823131)
(-1.88248e-06 -3.18043e-05 0.0914007)
(-2.298e-06 -2.36239e-05 0.0824494)
(-2.62787e-06 -7.23613e-06 0.0716806)
(2.46211e-06 -1.00808e-05 0.0718204)
(-3.88393e-05 5.70145e-06 0.0914722)
(-1.42507e-05 3.567e-06 0.0823128)
(-3.19461e-05 5.43074e-06 0.0913976)
(-2.1951e-05 -2.4958e-06 0.0824478)
(-7.11536e-06 -8.23047e-06 0.112466)
(4.63257e-06 -2.04071e-05 0.112458)
(-1.83769e-06 -1.75565e-05 0.112457)
(-7.17611e-06 -3.71521e-06 0.112392)
(8.99914e-06 -4.28459e-06 0.112391)
(2.05466e-06 5.09548e-06 0.112355)
(-1.74822e-06 4.22578e-06 0.112356)
(5.78361e-05 3.56773e-06 0.0985292)
(3.37743e-05 -1.10783e-05 0.0930208)
(5.6481e-06 -1.71748e-05 0.109919)
(2.06979e-05 -1.70501e-05 0.107455)
(3.24974e-05 -2.63064e-06 0.0985051)
(5.25718e-05 -1.37888e-05 0.0930986)
(5.86162e-06 -1.24367e-05 0.10988)
(-5.64551e-06 5.30486e-08 0.0717012)
(-9.45635e-06 2.92105e-06 0.0718303)
(-4.22619e-06 5.46556e-05 0.0985173)
(-4.37781e-06 -1.96545e-06 0.109901)
(-1.37838e-05 3.21596e-05 0.093012)
(-9.29517e-06 1.33392e-05 0.107421)
(-4.63558e-06 3.17786e-05 0.0984919)
(-4.25456e-06 -1.94523e-06 0.109853)
(-1.68e-05 4.63763e-05 0.093092)
(2.15183e-05 1.20168e-05 0.0876063)
(7.74618e-06 2.4768e-05 0.0876056)
(5.68939e-05 6.30568e-05 0.104238)
(2.0351e-05 1.54143e-05 0.0877034)
(1.39756e-05 2.15344e-05 0.0877032)
(8.88581e-08 1.66183e-06 0.0916018)
(4.71098e-07 4.92375e-07 0.082522)
(-1.71814e-06 -2.83841e-06 0.0915321)
(5.83928e-07 -3.81305e-06 0.0825688)
(7.04874e-07 3.53993e-06 0.0718552)
(5.19961e-06 2.88795e-06 0.0718708)
(4.14874e-06 -8.14308e-06 0.0915926)
(6.60112e-06 -9.01049e-06 0.0825162)
(-3.38629e-07 -2.79378e-06 0.0915253)
(3.00829e-06 -1.28585e-05 0.0825595)
(2.2727e-05 -8.8297e-06 0.112349)
(-8.75094e-06 2.54261e-05 0.112315)
(9.00171e-06 2.32498e-05 0.112316)
(-4.39175e-05 -2.56545e-05 0.112229)
(4.60413e-05 -2.74674e-05 0.11224)
(-4.41024e-05 6.60896e-05 0.112249)
(4.35839e-05 6.55512e-05 0.112251)
(2.12113e-05 1.17091e-06 0.0986062)
(4.77623e-06 -4.2382e-06 0.0931275)
(3.22287e-05 1.04807e-05 0.109738)
(4.28865e-05 -1.69836e-06 0.107331)
(1.35743e-05 5.90744e-06 0.0985096)
(4.86689e-06 -1.00545e-05 0.0932105)
(4.64744e-05 1.42309e-05 0.109713)
(2.10601e-06 -4.31083e-06 0.0718408)
(7.57662e-07 -1.01682e-06 0.071831)
(-3.61715e-07 1.88633e-05 0.0986088)
(-1.12418e-06 3.37869e-05 0.109715)
(-2.91136e-06 8.94594e-08 0.0931257)
(-9.5059e-06 4.51614e-05 0.10732)
(-1.18717e-06 1.00628e-05 0.0985061)
(-1.26969e-06 5.10478e-05 0.109702)
(-4.54979e-06 2.46611e-06 0.0932096)
(-5.37484e-06 -5.93802e-06 0.0877466)
(2.48455e-06 -1.10076e-05 0.0877473)
(4.50755e-05 5.50632e-05 0.104203)
(-8.01651e-06 -7.70888e-06 0.0877947)
(5.3433e-06 -1.73057e-05 0.0877924)
(6.911e-06 3.7654e-05 0.0916231)
(4.91959e-06 2.36489e-05 0.0824495)
(4.67786e-06 4.09809e-05 0.0916089)
(4.70581e-06 1.60924e-05 0.0823773)
(1.5466e-06 1.59051e-05 0.0716857)
(2.87171e-06 1.06737e-05 0.0715896)
(3.56295e-05 -1.07495e-05 0.0916019)
(2.79931e-05 -7.26819e-06 0.082436)
(4.14228e-05 -1.225e-05 0.0915931)
(1.69547e-05 -1.6932e-06 0.0823654)
(4.40054e-05 -3.13579e-05 0.112224)
(-5.04641e-05 6.61919e-05 0.112249)
(4.96841e-05 6.72877e-05 0.112253)
(-1.8034e-05 -3.78572e-05 0.112263)
(1.34157e-05 -3.57148e-05 0.112267)
(-3.43584e-05 9.60542e-06 0.112319)
(3.50432e-05 1.26131e-05 0.112329)
(-3.53387e-05 -1.86951e-05 0.0987847)
(-5.14787e-05 1.47675e-06 0.0932023)
(4.4743e-05 6.18103e-06 0.109755)
(-5.348e-06 -8.77939e-06 0.107455)
(-3.74995e-05 -1.05888e-05 0.0986717)
(-4.63515e-05 2.14921e-06 0.0932436)
(3.07659e-05 -3.29419e-06 0.1098)
(1.35526e-05 -2.72513e-06 0.071625)
(8.35206e-06 2.63545e-06 0.0715382)
(-3.94138e-07 -3.14061e-05 0.0987925)
(-6.73871e-06 5.76324e-05 0.109787)
(1.01683e-05 -4.82446e-05 0.0932022)
(-1.42341e-05 6.40546e-06 0.107506)
(-2.98324e-07 -3.61584e-05 0.098683)
(-7.56521e-06 4.30729e-05 0.109843)
(7.72478e-06 -3.66016e-05 0.0932336)
(-2.84453e-05 -2.48513e-05 0.0877273)
(-1.05849e-05 -3.7993e-05 0.0877206)
(2.94238e-05 1.10796e-05 0.104417)
(-2.14352e-05 -1.71017e-05 0.0876976)
(-6.80376e-06 -2.66899e-05 0.087689)
(3.11036e-06 -3.03192e-06 0.091497)
(6.37589e-06 2.22375e-05 0.0821513)
(6.24319e-06 3.3702e-05 0.091517)
(2.28017e-06 -2.36165e-06 0.0821294)
(-3.58195e-06 9.47195e-06 0.07136)
(-9.87744e-08 -3.49142e-06 0.0713704)
(-4.92429e-06 1.14768e-05 0.0914691)
(1.81654e-05 1.17961e-05 0.082147)
(3.03613e-05 1.92374e-06 0.0914901)
(-6.17512e-06 1.1451e-05 0.0821274)
(-1.13444e-06 -3.53813e-05 0.112317)
(-1.96011e-05 -2.2105e-05 0.11236)
(2.00604e-05 -1.98443e-05 0.112371)
(3.95629e-05 -2.32715e-06 0.112518)
(-4.38692e-05 -4.45721e-06 0.112513)
(3.72162e-05 -8.98145e-05 0.112456)
(-4.4252e-05 -9.03378e-05 0.11246)
(-1.22038e-05 -2.03987e-06 0.0987949)
(-4.42401e-05 2.21029e-05 0.0931411)
(-1.38176e-05 -4.1457e-05 0.109998)
(-4.50592e-05 -1.79578e-05 0.107718)
(-5.52605e-05 -1.71677e-05 0.0987745)
(2.31313e-06 1.89367e-05 0.0931419)
(-3.16659e-05 -4.74458e-05 0.110062)
(9.08992e-06 1.7042e-06 0.0713713)
(-3.03779e-06 4.63343e-06 0.0714047)
(2.02798e-06 -1.23949e-05 0.0987422)
(-5.42994e-06 -2.73905e-05 0.110021)
(1.79548e-05 -3.52702e-05 0.0931059)
(4.73804e-06 -6.36722e-05 0.10769)
(3.90475e-07 -5.11472e-05 0.0987478)
(-5.54512e-06 -5.54534e-05 0.110055)
(1.11602e-05 3.94522e-06 0.0930933)
(-1.22209e-05 -9.19705e-06 0.0875501)
(-1.38476e-05 -6.98511e-06 0.0875446)
(2.05282e-05 -5.24998e-06 0.104529)
(7.95305e-06 9.64644e-06 0.0875431)
(-3.24631e-06 1.70503e-05 0.087537)
(-1.97564e-06 -7.55885e-05 0.0914704)
(7.54194e-07 -1.41607e-05 0.08215)
(-9.76485e-07 -3.98809e-05 0.0914235)
(-3.74547e-06 -3.93098e-05 0.0823183)
(-2.53392e-06 -9.55601e-06 0.0714686)
(3.28842e-06 -2.05591e-05 0.0716908)
(-6.9734e-05 9.07956e-06 0.0914424)
(-1.37319e-05 6.1739e-06 0.0821464)
(-3.71093e-05 1.49422e-05 0.0913962)
(-3.7291e-05 -3.1118e-06 0.0823098)
(-5.15597e-05 1.86743e-05 0.112562)
(5.48347e-05 -8.95808e-05 0.112465)
(-6.42943e-05 -9.05279e-05 0.112463)
(2.70343e-05 7.88802e-05 0.112532)
(-2.90495e-05 7.98269e-05 0.11251)
(6.72835e-05 -1.3903e-05 0.112383)
(-6.97492e-05 -1.529e-05 0.112366)
(7.52679e-05 2.94019e-05 0.0985953)
(3.50887e-05 1.17175e-05 0.0930432)
(-5.54354e-05 -1.02073e-05 0.110101)
(4.15482e-06 2.81902e-05 0.107643)
(1.76251e-05 2.44361e-05 0.0986323)
(8.14666e-05 -1.16511e-05 0.0930873)
(-4.51966e-05 1.66261e-05 0.110044)
(-9.2235e-06 -3.28352e-06 0.0715093)
(-1.89985e-05 -1.28298e-06 0.0717001)
(4.88924e-06 6.69009e-05 0.0985404)
(-2.73975e-07 -7.88848e-05 0.109989)
(6.33677e-06 2.73832e-05 0.0929962)
(3.043e-05 -9.66399e-06 0.107503)
(4.75416e-06 1.21435e-05 0.0985647)
(5.66142e-06 -6.09263e-05 0.109919)
(-1.10173e-05 6.92629e-05 0.0930466)
(2.66571e-05 1.60789e-05 0.0875319)
(2.30926e-06 3.32135e-05 0.0875227)
(3.68716e-05 8.01175e-05 0.104297)
(4.62915e-05 2.64379e-05 0.0876339)
(1.87407e-05 4.73007e-05 0.0876207)
(-4.97094e-06 -5.5652e-05 0.0916933)
(-7.68149e-06 -2.42815e-05 0.0826008)
(-3.12408e-06 -6.53128e-05 0.0915679)
(-1.28983e-05 -2.48943e-05 0.0828031)
(4.65133e-06 -1.04449e-05 0.0720044)
(1.05437e-05 -8.79537e-06 0.0721925)
(-5.106e-05 -1.99749e-05 0.0916601)
(-2.30276e-05 -1.21578e-05 0.0825807)
(-5.86592e-05 -1.04853e-05 0.0915356)
(-2.62585e-05 -1.596e-05 0.082775)
(-4.0593e-07 7.18887e-05 0.112409)
(4.19388e-05 3.23773e-05 0.112316)
(-3.92021e-05 3.04802e-05 0.112295)
(-7.97919e-05 -4.20651e-05 0.112008)
(8.78275e-05 -3.99444e-05 0.111986)
(-8.66391e-05 0.000138217 0.112064)
(9.21747e-05 0.000133758 0.11204)
(9.23911e-05 -1.22953e-05 0.0985293)
(6.90438e-05 -3.30495e-05 0.0931302)
(2.3211e-05 6.85633e-05 0.109708)
(8.60627e-05 4.77576e-06 0.10717)
(8.45804e-05 9.4262e-06 0.098467)
(6.28843e-05 -4.72742e-05 0.0932615)
(5.12235e-05 5.9738e-05 0.109575)
(-8.73851e-06 -2.43537e-06 0.0719349)
(-6.77407e-06 5.92086e-06 0.072077)
(-2.53765e-06 9.13709e-05 0.098537)
(1.46575e-05 3.79709e-05 0.109651)
(-2.29249e-05 5.93778e-05 0.0931067)
(-2.10459e-05 0.000104666 0.107176)
(1.241e-06 7.7658e-05 0.0984534)
(8.65077e-06 7.53022e-05 0.109566)
(-3.36957e-05 6.18816e-05 0.093243)
(3.49949e-05 1.58905e-05 0.0877897)
(2.04657e-05 2.86729e-05 0.0877752)
(0.000100051 0.000110944 0.104062)
(2.63686e-05 1.8411e-05 0.0879297)
(2.67311e-05 1.94585e-05 0.0879192)
(-7.37453e-06 1.94504e-05 0.0919159)
(-1.41735e-05 1.40043e-05 0.0829017)
(-7.54058e-06 4.35926e-06 0.0918142)
(-1.62681e-05 1.44159e-05 0.0829211)
(1.15579e-05 1.11191e-05 0.0722065)
(1.66956e-05 1.27832e-05 0.0721634)
(1.69065e-05 -4.71888e-07 0.0918836)
(6.70367e-06 -4.83663e-06 0.0828624)
(4.18638e-06 -1.51215e-05 0.0917831)
(4.36996e-06 2.07881e-06 0.0828798)
(0.000103515 -8.45252e-05 0.111882)
(-0.000123174 0.000145614 0.112007)
(0.000124731 0.000140704 0.111982)
(-9.94211e-05 -0.000145314 0.11177)
(0.00010494 -0.000150833 0.111772)
(-0.000141336 9.85766e-05 0.111932)
(0.000134854 9.24079e-05 0.111901)
(2.92529e-05 -2.26176e-05 0.0987867)
(2.51671e-07 -2.74096e-05 0.0933692)
(0.000139009 -2.17148e-05 0.10937)
(7.64166e-05 -7.97123e-05 0.107105)
(3.55104e-05 -3.06487e-05 0.0986195)
(-6.99614e-06 -9.63421e-06 0.0934907)
(0.000144569 -4.78094e-05 0.109388)
(1.39411e-05 1.55227e-05 0.072076)
(1.52994e-05 2.42702e-05 0.0720492)
(-5.26292e-06 3.29475e-05 0.0988107)
(-2.32547e-05 0.000165985 0.109474)
(-1.92196e-05 6.37089e-06 0.093358)
(-7.7958e-05 9.33093e-05 0.107227)
(-6.29406e-06 3.97355e-05 0.0986452)
(-3.10889e-05 0.000164363 0.109505)
(-1.09005e-05 -2.87969e-06 0.0934782)
(-1.62306e-05 5.88675e-06 0.0880208)
(7.88447e-06 -1.5341e-05 0.0880257)
(8.38617e-05 4.56403e-05 0.104217)
(-3.01193e-05 1.01981e-05 0.0880839)
(3.44003e-06 -2.20693e-05 0.0880949)
(-3.81091e-06 3.83414e-05 0.0918948)
(-9.24983e-06 3.8937e-05 0.0826938)
(-5.79006e-06 5.92065e-05 0.0919248)
(-3.28612e-06 1.57507e-05 0.082585)