/*--------------------------------*- C++ -*----------------------------------*\
| =========                 |                                                 |
| \\      /  F ield         | OpenFOAM: The Open Source CFD Toolbox           |
|  \\    /   O peration     | Version:  2312                                  |
|   \\  /    A nd           | Website:  www.openfoam.com                      |
|    \\/     M anipulation  |                                                 |
\*---------------------------------------------------------------------------*/
FoamFile
{
    version     2.0;
    format      ascii;
    arch        "LSB;label=32;scalar=64";
    class       volScalarField;
    location    "850";
    object      epsilon;
}
// * * * * * * * * * * * * * * * * * * * * * * * * * * * * * * * * * * * * * //

dimensions      [0 2 -3 0 0 0 0];

internalField   nonuniform List<scalar> 
43496
(
4.23893e-06
1.90948e-05
1.18669e-06
3.64745e-06
2.29549e-06
9.35007e-07
4.23887e-06
9.56734e-06
2.29546e-06
1.18669e-06
9.35046e-07
3.64773e-06
1.41728e-06
5.65218e-06
5.65074e-06
1.90923e-05
9.56707e-06
1.26559e-05
4.239e-06
4.88462e-06
1.12474e-05
4.88473e-06
1.12453e-05
1.26587e-05
2.2763e-05
7.24531e-06
7.24553e-06
2.27698e-05
1.909e-05
1.26561e-05
4.23893e-06
1.12473e-05
4.88448e-06
1.12452e-05
4.88456e-06
1.26585e-05
2.27629e-05
7.24371e-06
9.56516e-06
7.24392e-06
2.27697e-05
9.96432e-06
2.23955e-05
2.2396e-05
2.23894e-05
2.23898e-05
9.96394e-06
4.71004e-06
9.93503e-06
5.65221e-06
2.97599e-06
9.93328e-06
2.97615e-06
4.70968e-06
4.7041e-06
9.93068e-06
5.65076e-06
2.97486e-06
2.97504e-06
9.92816e-06
4.70376e-06
1.90876e-05
9.56534e-06
4.50825e-07
6.59556e-07
4.50956e-07
3.64764e-06
2.22352e-06
2.22405e-06
1.66663e-06
2.29567e-06
2.54093e-06
1.54348e-06
2.54118e-06
1.5445e-06
1.66434e-06
1.84555e-06
3.02287e-06
3.02331e-06
1.84352e-06
1.66629e-06
2.29561e-06
1.5435e-06
2.54079e-06
1.54445e-06
2.541e-06
1.66464e-06
1.84496e-06
3.02252e-06
3.64793e-06
2.22373e-06
3.02287e-06
1.84383e-06
2.22426e-06
2.82875e-06
1.41875e-06
1.96842e-06
1.96832e-06
1.96904e-06
1.96914e-06
2.82843e-06
6.51862e-07
1.18288e-06
1.18298e-06
1.41524e-06
6.5801e-07
1.18592e-06
1.18603e-06
1.41812e-06
1.41516e-06
1.41586e-06
1.18298e-06
1.18285e-06
1.18531e-06
1.18524e-06
1.4151e-06
1.41585e-06
1.1828e-06
1.18298e-06
1.18513e-06
1.18531e-06
1.18305e-06
1.1852e-06
1.18527e-06
1.41519e-06
1.41594e-06
1.18285e-06
1.18531e-06
1.1852e-06
1.41597e-06
1.41807e-06
1.18602e-06
1.18586e-06
1.41801e-06
1.18585e-06
1.18603e-06
1.18614e-06
1.41809e-06
1.18589e-06
4.23633e-06
9.54971e-06
9.55487e-06
4.23567e-06
1.9061e-05
1.90716e-05
4.2364e-06
9.5513e-06
9.55607e-06
4.2358e-06
6.51845e-07
6.51995e-07
6.51986e-07
6.56522e-07
6.56533e-07
6.56646e-07
6.56616e-07
2.29404e-06
3.64452e-06
9.2987e-07
1.18368e-06
3.64498e-06
9.31005e-07
2.29377e-06
1.90624e-05
1.90729e-05
2.29406e-06
9.29997e-07
3.64453e-06
1.18379e-06
9.31099e-07
3.64501e-06
2.29379e-06
5.64524e-06
5.64697e-06
1.4145e-06
5.64634e-06
5.64808e-06
9.56134e-06
4.23828e-06
1.90832e-05
9.56281e-06
4.23839e-06
6.57991e-07
6.5814e-07
6.58137e-07
2.29551e-06
3.64705e-06
9.34091e-07
2.29536e-06
9.35066e-07
1.90846e-05
2.29554e-06
9.3422e-07
3.64706e-06
2.29536e-06
9.35152e-07
5.64959e-06
5.65134e-06
1.41722e-06
5.6506e-06
5.65237e-06
1.90587e-05
1.90692e-05
1.9062e-05
1.90725e-05
5.64522e-06
5.64696e-06
1.41441e-06
5.64627e-06
5.64807e-06
1.90803e-05
1.90699e-05
1.90835e-05
1.90732e-05
1.41667e-06
5.64844e-06
5.65025e-06
5.64744e-06
5.64918e-06
4.23627e-06
9.54989e-06
9.55506e-06
4.23561e-06
2.29398e-06
3.64431e-06
9.29853e-07
1.18379e-06
3.64479e-06
9.30966e-07
2.29366e-06
2.29393e-06
3.64474e-06
9.29784e-07
1.1837e-06
3.64517e-06
9.30918e-07
2.29361e-06
4.237e-06
9.56067e-06
9.55558e-06
4.23762e-06
4.23694e-06
9.56078e-06
9.55576e-06
4.23757e-06
2.2945e-06
1.18457e-06
3.64605e-06
9.33076e-07
3.64562e-06
9.32046e-07
2.29477e-06
2.29445e-06
1.18443e-06
3.64643e-06
9.33031e-07
3.64604e-06
9.31974e-07
2.29471e-06
5.64678e-06
5.64541e-06
1.41441e-06
5.64775e-06
5.64649e-06
1.90601e-05
1.90706e-05
1.90826e-05
1.90722e-05
1.41661e-06
5.64992e-06
5.64867e-06
5.649e-06
5.64764e-06
1.90816e-05
1.90713e-05
2.29401e-06
3.64487e-06
9.29842e-07
1.18361e-06
3.64536e-06
9.30949e-07
2.29374e-06
4.23634e-06
9.55072e-06
9.55589e-06
4.23572e-06
2.29396e-06
9.29883e-07
3.6448e-06
1.18379e-06
9.3099e-07
3.6453e-06
2.29369e-06
4.23712e-06
9.56189e-06
9.55715e-06
4.2377e-06
2.29458e-06
1.18439e-06
3.64662e-06
9.33061e-07
3.64618e-06
9.32037e-07
2.29479e-06
4.23705e-06
9.56166e-06
9.55659e-06
4.23764e-06
2.29452e-06
1.18457e-06
9.331e-07
3.64656e-06
9.32078e-07
3.64611e-06
2.29474e-06
4.23651e-06
9.55072e-06
9.5555e-06
4.23595e-06
2.29401e-06
9.29927e-07
3.64442e-06
1.18378e-06
9.3102e-07
3.6449e-06
2.29373e-06
4.23639e-06
9.5504e-06
9.55557e-06
4.23576e-06
2.29461e-06
1.18446e-06
3.64624e-06
9.33115e-07
3.64582e-06
9.32064e-07
2.29482e-06
4.23728e-06
9.56129e-06
9.55658e-06
4.2378e-06
2.29457e-06
1.18466e-06
9.33126e-07
3.64616e-06
9.32123e-07
3.64572e-06
2.29478e-06
4.2371e-06
9.56134e-06
9.55626e-06
4.23768e-06
5.6468e-06
5.64539e-06
1.4145e-06
5.64789e-06
5.64647e-06
1.906e-05
1.90705e-05
1.90839e-05
1.90736e-05
1.41669e-06
5.65007e-06
5.64864e-06
5.64902e-06
5.64761e-06
1.90815e-05
1.90711e-05
2.29398e-06
9.29926e-07
3.6449e-06
1.18368e-06
9.31021e-07
3.64539e-06
2.29372e-06
4.23651e-06
9.55089e-06
9.55567e-06
4.23595e-06
4.23646e-06
9.5511e-06
9.55627e-06
4.23596e-06
2.29463e-06
1.18457e-06
9.33207e-07
3.64627e-06
9.3219e-07
3.64583e-06
2.29485e-06
2.29456e-06
1.18443e-06
9.33129e-07
3.64665e-06
9.32119e-07
3.64621e-06
2.29478e-06
4.23728e-06
9.56146e-06
9.55675e-06
4.2378e-06
4.23729e-06
9.56204e-06
9.55697e-06
4.23775e-06
1.90609e-05
1.90714e-05
1.90632e-05
1.90737e-05
1.41674e-06
5.64852e-06
5.65025e-06
5.64746e-06
5.64918e-06
1.90824e-05
1.9072e-05
1.90847e-05
1.90743e-05
1.90809e-05
1.90842e-05
5.64959e-06
5.65133e-06
9.56172e-06
4.23822e-06
3.64685e-06
9.34076e-07
2.29525e-06
3.64728e-06
9.34004e-07
2.2952e-06
5.65115e-06
5.64978e-06
1.90822e-05
3.64741e-06
9.34067e-07
2.29533e-06
9.56235e-06
4.23832e-06
9.34106e-07
3.64734e-06
2.29527e-06
4.23901e-06
9.56235e-06
4.23854e-06
2.29547e-06
9.34154e-07
3.64694e-06
1.18661e-06
2.29532e-06
9.3506e-07
3.64732e-06
4.2389e-06
9.56201e-06
4.23836e-06
9.567e-06
5.65116e-06
5.64975e-06
1.90821e-05
2.29547e-06
9.34148e-07
3.64744e-06
1.1866e-06
2.29527e-06
9.35073e-07
3.64783e-06
4.23902e-06
9.56247e-06
4.23853e-06
4.23897e-06
9.56271e-06
4.23855e-06
9.56771e-06
1.9083e-05
1.90933e-05
1.90853e-05
1.90956e-05
1.26407e-05
1.12337e-05
4.88179e-06
4.23633e-06
1.12307e-05
4.88185e-06
1.26432e-05
2.27383e-05
9.55196e-06
7.2392e-06
7.23902e-06
2.27314e-05
2.27378e-05
7.2403e-06
9.55265e-06
7.24049e-06
2.27447e-05
1.26393e-05
4.23568e-06
1.12273e-05
4.88111e-06
1.12302e-05
4.88105e-06
1.26368e-05
1.9066e-05
1.90666e-05
1.26408e-05
4.88181e-06
1.12336e-05
4.23646e-06
4.8819e-06
1.12314e-05
1.26432e-05
2.2738e-05
9.55317e-06
7.23924e-06
7.23905e-06
2.27311e-05
2.27375e-05
7.24033e-06
9.55422e-06
7.24052e-06
2.27445e-05
1.26394e-05
4.23572e-06
4.88115e-06
1.12278e-05
4.88106e-06
1.12301e-05
1.26369e-05
1.90673e-05
1.9068e-05
9.95762e-06
2.2374e-05
2.23733e-05
2.23677e-05
2.2367e-05
9.95731e-06
4.70063e-06
2.97319e-06
5.64523e-06
9.91403e-06
2.97301e-06
9.91659e-06
4.70095e-06
4.70641e-06
2.97434e-06
5.64697e-06
9.91881e-06
2.97418e-06
9.92135e-06
4.70671e-06
4.70167e-06
9.91952e-06
5.64636e-06
2.97342e-06
2.9736e-06
9.917e-06
4.70133e-06
4.70742e-06
9.92427e-06
5.64808e-06
2.9746e-06
2.97476e-06
9.92178e-06
4.70712e-06
9.9555e-06
2.23619e-05
2.23612e-05
2.23681e-05
2.23674e-05
9.9558e-06
2.27638e-05
7.24427e-06
9.56346e-06
2.27569e-05
7.24406e-06
1.26545e-05
4.23825e-06
1.12412e-05
4.884e-06
1.26521e-05
1.12442e-05
4.88393e-06
1.9088e-05
2.27635e-05
7.2443e-06
9.5648e-06
2.27567e-05
7.24409e-06
1.26546e-05
4.23833e-06
4.88405e-06
1.12419e-05
1.26522e-05
4.88395e-06
1.1244e-05
1.90894e-05
9.9647e-06
2.23969e-05
2.23962e-05
2.23907e-05
2.239e-05
9.96432e-06
4.70333e-06
2.97473e-06
9.9257e-06
5.64958e-06
4.7037e-06
2.97453e-06
9.9282e-06
4.7091e-06
2.97589e-06
9.93047e-06
5.65132e-06
4.70945e-06
2.97571e-06
9.93295e-06
9.9626e-06
2.2385e-05
2.23843e-05
9.96296e-06
2.23912e-05
2.23905e-05
4.70432e-06
9.93102e-06
5.65063e-06
2.97486e-06
2.97506e-06
9.92848e-06
4.70396e-06
4.7101e-06
9.93583e-06
5.65239e-06
2.97604e-06
2.97623e-06
9.9333e-06
4.70974e-06
1.90637e-05
1.90643e-05
1.90669e-05
1.90676e-05
9.95767e-06
2.23735e-05
2.23728e-05
2.23672e-05
2.23665e-05
9.95734e-06
4.70047e-06
2.97311e-06
5.64515e-06
9.91406e-06
9.91595e-06
2.97292e-06
4.70085e-06
4.70627e-06
2.97425e-06
5.64696e-06
9.9188e-06
9.92136e-06
2.97408e-06
4.70662e-06
4.70156e-06
9.91888e-06
5.64634e-06
2.97334e-06
9.917e-06
4.70118e-06
2.97353e-06
4.70734e-06
9.9243e-06
5.64807e-06
2.97449e-06
9.92177e-06
4.70698e-06
2.97467e-06
9.95553e-06
2.23614e-05
2.23607e-05
2.23677e-05
2.23669e-05
9.95585e-06
1.90754e-05
1.90748e-05
1.90787e-05
1.9078e-05
9.95914e-06
2.2373e-05
2.23723e-05
9.95947e-06
2.23793e-05
2.23786e-05
4.70295e-06
2.97411e-06
5.64852e-06
9.92471e-06
9.92286e-06
2.97431e-06
4.70255e-06
4.70872e-06
2.97527e-06
5.65026e-06
9.93006e-06
9.92757e-06
2.97546e-06
4.70835e-06
4.70188e-06
9.91997e-06
2.97393e-06
5.64737e-06
4.70226e-06
9.92185e-06
2.97374e-06
4.70767e-06
9.92472e-06
2.97507e-06
5.64917e-06
4.70804e-06
9.92721e-06
2.97489e-06
9.96126e-06
2.23851e-05
2.23843e-05
2.23788e-05
2.23781e-05
9.96092e-06
1.26409e-05
1.12336e-05
4.88169e-06
4.23628e-06
1.12307e-05
4.88173e-06
1.26434e-05
2.27387e-05
9.55215e-06
7.23789e-06
7.23773e-06
2.27317e-05
2.27382e-05
7.23901e-06
9.55284e-06
7.23918e-06
2.27451e-05
1.26395e-05
4.23562e-06
1.12272e-05
4.88099e-06
1.12301e-05
4.88095e-06
1.2637e-05
1.2647e-05
1.12343e-05
4.88258e-06
4.23698e-06
1.26445e-05
1.12372e-05
4.88251e-06
2.27506e-05
9.55844e-06
7.24282e-06
2.27575e-05
7.24302e-06
2.27511e-05
7.24176e-06
9.55776e-06
2.27442e-05
7.24156e-06
1.26484e-05
4.23765e-06
1.12407e-05
4.88323e-06
1.26508e-05
1.12378e-05
4.8833e-06
1.26472e-05
1.12342e-05
4.88246e-06
4.23693e-06
1.26447e-05
1.12371e-05
4.88241e-06
2.2751e-05
9.55868e-06
7.24153e-06
7.24171e-06
2.27578e-05
2.27515e-05
7.24045e-06
9.55794e-06
2.27446e-05
7.24028e-06
1.26486e-05
4.23759e-06
1.12406e-05
4.88313e-06
1.12377e-05
4.88318e-06
1.2651e-05
9.95772e-06
2.23733e-05
2.23738e-05
2.2367e-05
2.23675e-05
9.95738e-06
4.70637e-06
2.9742e-06
5.64663e-06
9.91842e-06
9.92097e-06
2.97403e-06
4.70668e-06
4.70055e-06
2.97318e-06
5.64538e-06
9.91457e-06
2.973e-06
9.91646e-06
4.70091e-06
4.70739e-06
9.92392e-06
5.6479e-06
2.97445e-06
9.92139e-06
2.97462e-06
4.70707e-06
4.70162e-06
9.91939e-06
5.64653e-06
2.97341e-06
2.9736e-06
9.9175e-06
4.70126e-06
9.95557e-06
2.23611e-05
2.23617e-05
2.23674e-05
2.2368e-05
9.9559e-06
1.9065e-05
1.90657e-05
1.90777e-05
1.90771e-05
9.95917e-06
2.23728e-05
2.23733e-05
9.95952e-06
2.2379e-05
2.23796e-05
4.70877e-06
2.97522e-06
5.65008e-06
9.92969e-06
2.97541e-06
9.92721e-06
4.70843e-06
4.703e-06
2.97419e-06
5.64872e-06
9.92533e-06
9.92328e-06
2.97438e-06
4.70262e-06
4.70776e-06
9.92435e-06
2.97502e-06
5.64884e-06
2.97484e-06
4.70809e-06
9.92683e-06
4.70195e-06
9.92046e-06
2.974e-06
5.64759e-06
4.70232e-06
9.92237e-06
2.97381e-06
9.96131e-06
2.23848e-05
2.23854e-05
2.23785e-05
2.23791e-05
9.96094e-06
1.90768e-05
1.90761e-05
1.26409e-05
1.12335e-05
4.88165e-06
4.23639e-06
1.12312e-05
4.88173e-06
1.26434e-05
2.2738e-05
9.55297e-06
7.23762e-06
7.23743e-06
2.2731e-05
2.27375e-05
7.23871e-06
9.55367e-06
7.23889e-06
2.27444e-05
1.26396e-05
4.23567e-06
1.12277e-05
4.88099e-06
1.123e-05
4.88091e-06
1.2637e-05
1.2647e-05
4.88263e-06
1.12348e-05
4.23706e-06
1.26446e-05
4.88254e-06
1.12371e-05
2.27503e-05
9.56005e-06
7.24285e-06
2.27572e-05
7.24305e-06
2.27508e-05
7.2418e-06
9.55903e-06
2.2744e-05
7.24159e-06
1.26484e-05
4.23776e-06
4.88325e-06
1.12406e-05
1.26509e-05
4.88335e-06
1.12383e-05
1.26472e-05
1.12348e-05
4.88246e-06
4.237e-06
1.26447e-05
1.1237e-05
4.88238e-06
2.27503e-05
9.55946e-06
7.24124e-06
7.24143e-06
2.27571e-05
2.27508e-05
7.24017e-06
9.55879e-06
2.27439e-05
7.23998e-06
1.26486e-05
4.2377e-06
1.12405e-05
4.88309e-06
1.12383e-05
4.88318e-06
1.2651e-05
1.26402e-05
4.8818e-06
1.12335e-05
4.23662e-06
4.88204e-06
1.12312e-05
1.26427e-05
2.27371e-05
9.55259e-06
7.23908e-06
7.23868e-06
2.27299e-05
2.27364e-05
7.23996e-06
9.55365e-06
7.24036e-06
2.27436e-05
1.26389e-05
4.23584e-06
4.8813e-06
1.12277e-05
4.88106e-06
1.123e-05
1.26364e-05
1.26408e-05
1.12333e-05
4.88162e-06
4.23644e-06
1.12311e-05
4.88172e-06
1.26432e-05
2.27379e-05
9.55265e-06
7.23742e-06
7.23724e-06
2.2731e-05
2.27375e-05
7.23851e-06
9.55335e-06
7.23871e-06
2.27444e-05
1.26394e-05
4.23571e-06
1.12276e-05
4.88097e-06
1.12298e-05
4.88088e-06
1.26369e-05
1.26466e-05
4.88277e-06
1.12347e-05
4.23716e-06
1.2644e-05
4.88252e-06
1.1237e-05
2.27492e-05
9.55948e-06
7.24248e-06
7.24289e-06
2.27563e-05
2.275e-05
7.24163e-06
9.55845e-06
2.27428e-05
7.24123e-06
1.26479e-05
4.23792e-06
4.88323e-06
1.12404e-05
4.88348e-06
1.12383e-05
1.26504e-05
1.26471e-05
1.12346e-05
4.88245e-06
4.23704e-06
1.26446e-05
1.12369e-05
4.88235e-06
2.27502e-05
9.55913e-06
7.24103e-06
7.24124e-06
2.27571e-05
2.27507e-05
7.23998e-06
9.55846e-06
2.27439e-05
7.23978e-06
1.26484e-05
4.23774e-06
1.12403e-05
4.88306e-06
1.12381e-05
4.88316e-06
1.26509e-05
9.95722e-06
2.23726e-05
2.2373e-05
2.23664e-05
2.23668e-05
9.95687e-06
4.70631e-06
2.97424e-06
5.64678e-06
9.91875e-06
9.92065e-06
2.97411e-06
4.70664e-06
4.70039e-06
2.97315e-06
5.64536e-06
9.91374e-06
2.97298e-06
9.91628e-06
4.7007e-06
4.70735e-06
9.92358e-06
5.64791e-06
2.97452e-06
9.9217e-06
2.97466e-06
4.70702e-06
4.70142e-06
9.91921e-06
5.64651e-06
2.97339e-06
2.97357e-06
9.91671e-06
4.7011e-06
9.95507e-06
2.23605e-05
2.23609e-05
2.23668e-05
2.23672e-05
9.9554e-06
1.90649e-05
1.90656e-05
1.90791e-05
1.90784e-05
9.95867e-06
2.23722e-05
2.23726e-05
9.95902e-06
2.23784e-05
2.23788e-05
4.70873e-06
2.9753e-06
5.65009e-06
9.92939e-06
2.97545e-06
9.92756e-06
4.70838e-06
4.7028e-06
2.97417e-06
5.64869e-06
9.92499e-06
9.9225e-06
2.97435e-06
4.70246e-06
4.70771e-06
9.92466e-06
2.97507e-06
5.64898e-06
2.97492e-06
4.70805e-06
9.92655e-06
4.70179e-06
9.91965e-06
2.97397e-06
5.64757e-06
4.70212e-06
9.92212e-06
2.97379e-06
9.9608e-06
2.23841e-05
2.23846e-05
2.23779e-05
2.23784e-05
9.96044e-06
1.90767e-05
1.9076e-05
1.26405e-05
4.88184e-06
1.12334e-05
4.23662e-06
4.88192e-06
1.12312e-05
1.2643e-05
2.27374e-05
9.55277e-06
7.23885e-06
7.23868e-06
2.27304e-05
2.27369e-05
7.23996e-06
9.55382e-06
7.24014e-06
2.27438e-05
1.26392e-05
4.23584e-06
4.88118e-06
1.12277e-05
4.8811e-06
1.12299e-05
1.26367e-05
1.26408e-05
4.88169e-06
1.12332e-05
4.23663e-06
4.88186e-06
1.1231e-05
1.26433e-05
2.27388e-05
9.55336e-06
7.23788e-06
7.23768e-06
2.27319e-05
2.27383e-05
7.23896e-06
9.55405e-06
7.23916e-06
2.27452e-05
1.26395e-05
4.23579e-06
4.88112e-06
1.12275e-05
4.88095e-06
1.12297e-05
1.2637e-05
1.26468e-05
4.88265e-06
1.12347e-05
4.23717e-06
1.26443e-05
4.88257e-06
1.12369e-05
2.27497e-05
9.55965e-06
7.24248e-06
7.24267e-06
2.27565e-05
2.27502e-05
7.24141e-06
9.55862e-06
2.27433e-05
7.24123e-06
1.26482e-05
4.23791e-06
4.88328e-06
1.12404e-05
4.88336e-06
1.12382e-05
1.26506e-05
1.26472e-05
4.88259e-06
1.12345e-05
4.23712e-06
1.26447e-05
4.88242e-06
1.12367e-05
2.27511e-05
9.55983e-06
7.24148e-06
7.2417e-06
2.2758e-05
2.27516e-05
7.24044e-06
9.55916e-06
2.27447e-05
7.24022e-06
1.26485e-05
4.23793e-06
4.88313e-06
1.12402e-05
4.8833e-06
1.1238e-05
1.2651e-05
1.90658e-05
1.90665e-05
1.90681e-05
1.90688e-05
9.9591e-06
2.23735e-05
2.23728e-05
9.95941e-06
2.23798e-05
2.2379e-05
4.70304e-06
2.97419e-06
5.64853e-06
9.92533e-06
4.70269e-06
2.97437e-06
9.9228e-06
4.7088e-06
2.97537e-06
5.65027e-06
9.93009e-06
4.70847e-06
2.97554e-06
9.92757e-06
4.70202e-06
9.91995e-06
2.974e-06
5.64746e-06
4.70237e-06
2.97382e-06
9.92241e-06
4.7078e-06
9.92472e-06
2.97516e-06
5.64917e-06
4.70812e-06
2.97499e-06
9.92716e-06
9.96119e-06
2.23855e-05
2.23848e-05
9.96087e-06
2.23793e-05
2.23786e-05
1.90776e-05
1.90769e-05
1.90799e-05
1.90792e-05
1.90857e-05
1.9089e-05
4.70321e-06
2.97468e-06
9.92575e-06
5.64951e-06
4.70362e-06
9.92751e-06
2.97447e-06
4.709e-06
2.97582e-06
9.93055e-06
5.6513e-06
4.70938e-06
9.93284e-06
2.97562e-06
9.96268e-06
2.23846e-05
2.23838e-05
9.96303e-06
2.23908e-05
2.239e-05
2.27641e-05
7.24296e-06
9.56345e-06
2.27573e-05
7.24277e-06
1.26547e-05
4.23819e-06
1.12412e-05
4.88388e-06
1.12439e-05
1.26523e-05
4.88383e-06
4.70909e-06
2.97577e-06
9.93019e-06
5.65098e-06
9.93247e-06
4.70944e-06
2.97558e-06
4.7033e-06
2.97475e-06
9.92587e-06
5.64975e-06
2.97456e-06
4.70367e-06
9.9284e-06
9.9627e-06
2.23843e-05
2.23848e-05
2.23905e-05
9.96308e-06
2.23911e-05
2.27634e-05
7.24268e-06
9.5645e-06
2.27566e-05
7.24248e-06
1.26548e-05
4.23826e-06
1.12417e-05
4.88388e-06
1.12439e-05
1.26523e-05
4.88379e-06
1.26554e-05
4.23915e-06
1.12473e-05
4.88488e-06
1.12452e-05
2.27626e-05
7.24413e-06
9.56409e-06
7.24371e-06
2.27555e-05
1.26542e-05
4.23841e-06
4.88418e-06
1.12417e-05
4.88392e-06
1.26516e-05
1.12439e-05
2.27618e-05
1.2656e-05
4.23897e-06
1.12471e-05
4.88442e-06
1.1245e-05
4.88454e-06
1.26583e-05
2.27634e-05
7.24248e-06
9.56418e-06
2.27566e-05
7.24226e-06
1.26547e-05
4.2383e-06
1.12416e-05
4.88385e-06
1.26522e-05
1.12438e-05
4.88375e-06
2.27628e-05
7.24348e-06
9.56483e-06
7.24371e-06
2.27697e-05
4.70904e-06
2.97581e-06
9.9304e-06
5.65113e-06
9.93227e-06
4.70939e-06
2.97565e-06
4.70312e-06
2.9747e-06
9.92538e-06
5.64973e-06
2.97452e-06
4.70345e-06
9.92781e-06
9.9622e-06
2.23837e-05
2.23841e-05
2.23898e-05
9.96257e-06
2.23903e-05
1.90869e-05
1.26557e-05
4.23913e-06
4.88465e-06
1.12472e-05
4.88472e-06
1.12451e-05
1.26581e-05
2.27628e-05
7.24391e-06
9.56431e-06
7.24371e-06
2.2756e-05
1.26544e-05
4.23842e-06
4.88405e-06
1.12416e-05
4.88398e-06
1.26519e-05
1.12438e-05
2.27623e-05
7.24493e-06
7.24514e-06
2.27691e-05
1.2656e-05
4.23915e-06
4.88451e-06
1.1247e-05
4.88467e-06
1.12449e-05
1.26585e-05
2.27643e-05
7.24295e-06
9.56489e-06
2.27574e-05
7.24272e-06
1.26548e-05
4.23837e-06
4.88398e-06
1.12414e-05
1.26522e-05
4.88383e-06
1.12437e-05
2.27637e-05
7.24394e-06
9.56553e-06
7.24418e-06
2.27705e-05
1.90879e-05
1.90885e-05
1.90902e-05
1.90908e-05
4.41777e-07
4.41714e-07
6.53452e-07
4.43669e-07
4.43597e-07
2.35633e-07
2.33703e-07
2.82693e-06
1.9672e-06
1.96742e-06
1.41373e-06
1.9665e-06
1.96672e-06
2.82724e-06
4.49151e-07
4.49084e-07
2.43235e-07
2.41362e-07
2.82819e-06
1.96869e-06
1.96891e-06
1.41664e-06
2.82853e-06
1.96797e-06
1.9682e-06
2.82685e-06
1.96716e-06
1.96737e-06
1.41365e-06
1.96647e-06
1.96667e-06
2.82716e-06
2.82819e-06
1.41739e-06
1.96762e-06
1.96782e-06
1.96832e-06
1.96854e-06
2.82786e-06
2.82688e-06
1.96727e-06
1.9672e-06
1.41365e-06
1.96651e-06
1.96658e-06
2.8272e-06
2.82822e-06
1.41732e-06
1.96772e-06
1.96765e-06
1.96843e-06
1.96837e-06
2.82789e-06
2.82685e-06
1.96731e-06
1.96722e-06
1.41373e-06
1.96653e-06
1.96662e-06
2.82715e-06
2.82817e-06
1.41741e-06
1.96777e-06
1.96767e-06
1.96848e-06
1.96838e-06
2.82786e-06
2.82825e-06
1.41744e-06
1.96765e-06
1.96787e-06
2.82794e-06
1.96835e-06
1.96858e-06
2.82816e-06
1.96867e-06
1.96888e-06
1.41653e-06
2.82849e-06
1.96795e-06
1.96815e-06
2.82818e-06
1.96878e-06
1.96871e-06
1.41654e-06
1.96799e-06
2.82852e-06
1.96807e-06
2.82815e-06
1.96882e-06
1.96872e-06
1.41662e-06
1.96801e-06
2.82847e-06
1.9681e-06
4.41759e-07
4.41743e-07
6.5346e-07
4.43662e-07
4.4362e-07
2.35639e-07
2.3371e-07
4.41855e-07
4.41842e-07
6.53577e-07
4.43736e-07
4.43732e-07
2.35705e-07
2.33775e-07
4.41887e-07
4.41809e-07
6.53547e-07
4.43745e-07
4.43729e-07
2.35717e-07
2.33776e-07
6.55011e-07
4.47355e-07
4.47282e-07
4.45532e-07
4.45472e-07
2.37559e-07
2.39462e-07
6.54993e-07
4.47348e-07
4.47305e-07
4.45514e-07
4.45501e-07
2.37566e-07
2.39469e-07
6.55145e-07
4.47419e-07
4.47418e-07
4.45613e-07
4.45598e-07
2.37632e-07
2.39535e-07
6.55136e-07
4.47427e-07
4.4742e-07
4.45648e-07
4.45559e-07
2.37632e-07
2.39548e-07
1.66446e-06
2.53952e-06
1.54153e-06
2.29421e-06
2.53976e-06
1.54248e-06
1.66288e-06
1.84149e-06
2.22245e-06
3.64433e-06
3.02097e-06
2.22194e-06
3.02059e-06
1.84275e-06
1.84329e-06
3.02105e-06
3.64518e-06
2.2223e-06
2.22281e-06
3.02145e-06
1.84195e-06
1.66246e-06
2.29361e-06
2.53936e-06
1.5419e-06
2.53913e-06
1.54094e-06
1.66392e-06
1.66457e-06
1.54156e-06
2.5396e-06
2.29422e-06
1.54252e-06
2.53981e-06
1.6629e-06
1.84154e-06
2.22247e-06
3.64436e-06
3.02099e-06
2.22198e-06
3.02064e-06
1.84283e-06
1.84338e-06
3.02111e-06
3.64519e-06
2.22233e-06
2.22283e-06
3.02147e-06
1.842e-06
1.6625e-06
2.29363e-06
1.54194e-06
2.53941e-06
1.54098e-06
2.53921e-06
1.66401e-06
2.8276e-06
1.416e-06
1.96691e-06
1.96713e-06
1.96761e-06
1.96783e-06
2.82729e-06
4.49133e-07
4.49121e-07
4.50848e-07
2.43242e-07
2.41369e-07
4.49227e-07
4.49214e-07
4.50968e-07
2.43308e-07
2.41435e-07
4.49269e-07
4.49169e-07
6.59551e-07
4.50962e-07
4.50987e-07
2.43322e-07
2.41433e-07
1.66642e-06
2.2957e-06
2.5409e-06
1.54349e-06
2.54115e-06
1.54453e-06
1.6646e-06
1.8433e-06
2.22378e-06
3.02277e-06
3.64685e-06
1.84493e-06
2.22324e-06
3.02235e-06
1.66421e-06
2.29517e-06
2.54084e-06
1.54406e-06
1.66612e-06
2.54059e-06
1.54305e-06
1.66664e-06
2.29568e-06
1.5436e-06
2.54097e-06
1.54454e-06
2.54119e-06
1.66455e-06
1.84328e-06
2.22378e-06
3.02279e-06
3.64687e-06
1.84503e-06
2.22326e-06
3.02241e-06
1.6642e-06
2.29521e-06
1.54408e-06
2.54088e-06
1.66628e-06
1.54313e-06
2.54067e-06
1.84553e-06
3.02282e-06
3.02318e-06
1.84371e-06
2.82882e-06
1.41876e-06
1.96826e-06
1.96848e-06
1.969e-06
1.96922e-06
2.82849e-06
2.82752e-06
1.41593e-06
1.96688e-06
1.96708e-06
2.82721e-06
1.96757e-06
1.96779e-06
2.82755e-06
1.41515e-06
1.96796e-06
1.96817e-06
2.82786e-06
1.96726e-06
1.96746e-06
1.66435e-06
2.53953e-06
1.54153e-06
2.29409e-06
2.53974e-06
1.54238e-06
1.66308e-06
1.84158e-06
2.22237e-06
3.64414e-06
3.02097e-06
3.0206e-06
2.22189e-06
1.84268e-06
1.84319e-06
3.02108e-06
3.64498e-06
2.22225e-06
3.02144e-06
2.22274e-06
1.84213e-06
1.66252e-06
2.29356e-06
2.53934e-06
1.5418e-06
2.53913e-06
1.54096e-06
1.66385e-06
1.66424e-06
2.53939e-06
1.54148e-06
2.29404e-06
2.53958e-06
1.54233e-06
1.663e-06
1.84146e-06
2.22259e-06
3.64451e-06
3.02066e-06
3.02033e-06
2.2221e-06
1.84255e-06
1.84306e-06
3.0208e-06
3.6454e-06
2.22245e-06
3.02114e-06
1.84201e-06
2.22295e-06
1.66243e-06
2.29351e-06
2.53918e-06
1.54175e-06
2.539e-06
1.5409e-06
1.66374e-06
1.66361e-06
2.54012e-06
1.54293e-06
2.29439e-06
1.66481e-06
2.5399e-06
1.54208e-06
1.84414e-06
2.2229e-06
3.64625e-06
3.02197e-06
2.2234e-06
3.02235e-06
1.84317e-06
1.84266e-06
3.0219e-06
2.22308e-06
3.64543e-06
2.22258e-06
1.84368e-06
3.02153e-06
1.66524e-06
2.29489e-06
2.54026e-06
1.5426e-06
2.54048e-06
1.54345e-06
1.66407e-06
1.6635e-06
2.53996e-06
1.54287e-06
2.29433e-06
1.6647e-06
2.53976e-06
1.54202e-06
1.84402e-06
2.2231e-06
3.64667e-06
3.0217e-06
3.02204e-06
2.22362e-06
1.84301e-06
1.84255e-06
3.02159e-06
2.2233e-06
3.64581e-06
1.84355e-06
3.02126e-06
2.22279e-06
1.66515e-06
2.29484e-06
2.54012e-06
1.54254e-06
2.54032e-06
1.5434e-06
1.66394e-06
2.82756e-06
1.41587e-06
1.96698e-06
1.96692e-06
1.96762e-06
1.96768e-06
2.82723e-06
2.82757e-06
1.41515e-06
1.96807e-06
1.968e-06
1.96736e-06
2.8279e-06
1.9673e-06
1.66449e-06
2.53955e-06
1.54149e-06
2.29417e-06
2.53977e-06
1.54245e-06
1.66281e-06
1.84147e-06
2.2227e-06
3.64471e-06
3.02109e-06
3.02071e-06
2.22221e-06
1.84278e-06
1.84335e-06
3.02118e-06
3.64553e-06
2.22257e-06
3.02157e-06
2.22307e-06
1.84192e-06
1.66241e-06
2.29358e-06
2.53937e-06
1.54186e-06
2.53916e-06
1.54091e-06
1.66393e-06
1.66431e-06
1.54146e-06
2.53943e-06
2.29412e-06
1.54242e-06
2.53962e-06
1.66288e-06
1.84149e-06
2.22265e-06
3.64464e-06
3.02069e-06
3.02036e-06
2.22219e-06
1.8426e-06
1.84311e-06
3.02084e-06
3.64546e-06
2.22255e-06
3.02115e-06
1.84202e-06
2.22302e-06
1.66241e-06
2.29353e-06
1.54183e-06
2.53923e-06
1.54088e-06
2.53904e-06
1.66381e-06
1.66317e-06
2.54015e-06
1.54301e-06
2.29441e-06
1.66511e-06
2.53993e-06
1.54203e-06
1.84457e-06
2.22322e-06
3.6468e-06
3.02207e-06
2.22374e-06
3.02248e-06
1.84278e-06
1.84233e-06
3.02203e-06
2.22341e-06
3.646e-06
2.22291e-06
1.84394e-06
3.02164e-06
1.66577e-06
2.29496e-06
2.54029e-06
1.54255e-06
2.54052e-06
1.54354e-06
1.66364e-06
1.66328e-06
1.54297e-06
2.54e-06
2.29436e-06
1.66482e-06
1.542e-06
2.5398e-06
1.84406e-06
2.22319e-06
3.64673e-06
3.02172e-06
3.02204e-06
2.22368e-06
1.84305e-06
1.84254e-06
3.02161e-06
2.22336e-06
3.64594e-06
1.8436e-06
3.02128e-06
2.22288e-06
1.66538e-06
2.29491e-06
1.54252e-06
2.54015e-06
1.54349e-06
2.54035e-06
1.66363e-06
1.6644e-06
1.54151e-06
2.53943e-06
2.29416e-06
1.54246e-06
2.53965e-06
1.66282e-06
1.84139e-06
2.22238e-06
3.64424e-06
3.02059e-06
2.22191e-06
3.02021e-06
1.84265e-06
1.84319e-06
3.02068e-06
3.64508e-06
2.22226e-06
2.22275e-06
3.02107e-06
1.84186e-06
1.6624e-06
2.29358e-06
1.54187e-06
2.53925e-06
1.54093e-06
2.53903e-06
1.66386e-06
1.66323e-06
2.54014e-06
1.54304e-06
2.29444e-06
1.66505e-06
2.53989e-06
1.54207e-06
1.84443e-06
2.22294e-06
3.64644e-06
3.02194e-06
1.8428e-06
2.22347e-06
3.02235e-06
1.84236e-06
3.02191e-06
2.22315e-06
3.64562e-06
1.84384e-06
2.22264e-06
3.02151e-06
1.66569e-06
2.295e-06
2.54025e-06
1.54258e-06
1.66372e-06
2.5405e-06
1.54357e-06
1.66318e-06
1.54302e-06
2.54003e-06
2.29441e-06
1.66498e-06
1.54205e-06
2.5398e-06
1.84432e-06
2.2229e-06
3.64634e-06
3.02156e-06
3.02196e-06
2.2234e-06
1.84266e-06
1.84227e-06
3.02152e-06
2.22309e-06
3.64554e-06
1.84373e-06
3.02113e-06
2.22259e-06
1.66562e-06
2.29495e-06
1.54256e-06
2.54015e-06
1.54354e-06
2.54039e-06
1.6636e-06
2.82751e-06
1.41595e-06
1.96703e-06
1.96693e-06
1.96763e-06
1.96772e-06
2.8272e-06
2.82754e-06
1.41523e-06
1.96811e-06
1.96801e-06
1.96741e-06
2.82785e-06
1.96731e-06
1.66439e-06
1.54149e-06
2.53941e-06
2.29415e-06
1.54245e-06
2.53964e-06
1.66281e-06
1.84142e-06
2.22271e-06
3.64474e-06
3.02075e-06
2.22223e-06
3.02038e-06
1.84267e-06
1.84319e-06
3.02086e-06
3.64557e-06
2.22259e-06
2.22307e-06
3.02123e-06
1.84194e-06
1.66238e-06
2.29355e-06
1.54186e-06
2.53924e-06
1.54091e-06
2.53902e-06
1.66385e-06
1.66326e-06
1.54308e-06
2.54019e-06
2.29446e-06
1.66518e-06
1.5421e-06
2.53998e-06
1.84455e-06
2.22297e-06
3.64646e-06
3.022e-06
1.84285e-06
2.22349e-06
3.02237e-06
1.8424e-06
3.02193e-06
2.22317e-06
3.64565e-06
1.84395e-06
2.22267e-06
3.02157e-06
1.66583e-06
2.29501e-06
1.54263e-06
2.54033e-06
1.66376e-06
1.5436e-06
2.54055e-06
1.66319e-06
1.543e-06
2.54001e-06
2.29439e-06
1.66493e-06
1.54204e-06
2.53978e-06
1.8441e-06
2.22323e-06
3.64683e-06
3.02174e-06
3.02211e-06
2.22373e-06
1.84293e-06
1.84244e-06
3.02168e-06
2.22341e-06
3.64603e-06
1.84366e-06
3.02131e-06
2.22291e-06
1.66552e-06
2.29492e-06
1.54257e-06
2.54013e-06
1.54351e-06
2.54037e-06
1.66359e-06
2.82762e-06
1.41525e-06
1.96799e-06
1.96822e-06
2.82794e-06
1.96729e-06
1.96751e-06
1.84358e-06
2.22371e-06
3.02277e-06
3.64665e-06
3.02239e-06
1.84456e-06
2.22318e-06
1.66448e-06
2.29512e-06
2.54082e-06
1.54395e-06
2.5406e-06
1.66565e-06
1.5431e-06
1.84341e-06
2.22392e-06
3.02246e-06
3.64702e-06
1.84449e-06
3.02212e-06
2.22339e-06
1.66432e-06
2.29507e-06
2.54066e-06
1.54389e-06
1.6656e-06
2.54046e-06
1.54305e-06
1.84316e-06
2.22404e-06
3.0229e-06
3.64723e-06
3.0225e-06
1.84506e-06
2.22351e-06
1.66402e-06
2.29515e-06
2.54086e-06
1.54403e-06
2.54063e-06
1.66619e-06
1.54305e-06
1.84348e-06
2.22398e-06
3.02246e-06
3.64716e-06
1.8445e-06
3.02213e-06
2.22347e-06
1.66399e-06
2.2951e-06
1.54399e-06
2.54069e-06
1.66593e-06
1.54302e-06
2.54049e-06
1.66645e-06
2.29566e-06
1.54347e-06
2.54079e-06
1.5445e-06
2.54104e-06
1.66436e-06
1.84303e-06
2.2237e-06
3.02238e-06
3.64675e-06
2.22317e-06
1.8449e-06
3.02198e-06
1.66401e-06
2.29514e-06
1.54403e-06
2.54072e-06
1.54305e-06
1.66608e-06
2.54049e-06
1.84544e-06
3.02235e-06
3.64753e-06
2.22343e-06
2.22397e-06
3.02278e-06
1.84338e-06
1.66604e-06
2.2956e-06
1.54356e-06
2.54078e-06
1.54444e-06
2.54101e-06
1.66472e-06
1.84344e-06
2.22403e-06
3.02253e-06
3.64725e-06
2.22351e-06
1.84453e-06
3.02215e-06
1.66418e-06
2.29513e-06
1.54399e-06
2.5407e-06
1.54308e-06
1.66594e-06
2.54046e-06
1.84493e-06
3.02257e-06
3.64802e-06
2.22378e-06
2.22431e-06
3.02293e-06
1.84392e-06
8.63141e-07
1.1484e-06
8.63024e-07
9.16182e-06
3.4754e-06
1.84287e-05
5.46357e-06
5.46195e-06
1.84267e-05
3.475e-06
9.16195e-06
2.20549e-05
9.15932e-06
7.08873e-06
7.08907e-06
2.20615e-05
1.84237e-05
4.54476e-06
2.81235e-06
5.4633e-06
9.5045e-06
2.8118e-06
9.50083e-06
4.54517e-06
4.53887e-06
2.81118e-06
5.46197e-06
9.49966e-06
9.49672e-06
2.81068e-06
4.5389e-06
9.73629e-06
2.17294e-05
2.17298e-05
2.17231e-05
2.17235e-05
9.73592e-06
1.84217e-05
2.20526e-05
9.15948e-06
7.0895e-06
7.09003e-06
2.20595e-05
2.66829e-06
1.14965e-06
1.76764e-06
1.76754e-06
1.76839e-06
1.76825e-06
2.66829e-06
1.61838e-06
2.03227e-06
3.47483e-06
2.86049e-06
2.85982e-06
2.03212e-06
1.61647e-06
1.61844e-06
2.03231e-06
3.4744e-06
2.86042e-06
2.03155e-06
2.86027e-06
1.61657e-06
3.23771e-07
8.69031e-07
8.69167e-07
1.15424e-06
3.39807e-07
8.92458e-07
8.92593e-07
1.17359e-06
3.56087e-07
9.1489e-07
9.15031e-07
1.19201e-06
3.72529e-07
9.36313e-07
9.36459e-07
1.20954e-06
3.89053e-07
9.56722e-07
9.56875e-07
1.22618e-06
4.05578e-07
9.76141e-07
9.76294e-07
1.24199e-06
4.22028e-07
9.94572e-07
9.94721e-07
1.25697e-06
4.38325e-07
1.01202e-06
1.01216e-06
1.27116e-06
4.54398e-07
1.0285e-06
1.02863e-06
1.28457e-06
4.70179e-07
1.04403e-06
1.04415e-06
1.2973e-06
4.85609e-07
1.05862e-06
1.05874e-06
1.30925e-06
5.00637e-07
1.07232e-06
1.07243e-06
1.3205e-06
5.15215e-07
1.08513e-06
1.08524e-06
1.33106e-06
5.29301e-07
1.09708e-06
1.09718e-06
1.34096e-06
5.42859e-07
1.1082e-06
1.10831e-06
1.35024e-06
5.5586e-07
1.11852e-06
1.11863e-06
1.3589e-06
5.68275e-07
1.12807e-06
1.12818e-06
1.36696e-06
5.80087e-07
1.13685e-06
1.13697e-06
1.37444e-06
5.9128e-07
1.14492e-06
1.14503e-06
1.38135e-06
6.01844e-07
1.15227e-06
1.15239e-06
1.38772e-06
6.11772e-07
1.15895e-06
1.15906e-06
1.39356e-06
6.21061e-07
1.16496e-06
1.16508e-06
1.39887e-06
6.2971e-07
1.17034e-06
1.17046e-06
1.40369e-06
6.37723e-07
1.17511e-06
1.17522e-06
1.40802e-06
6.45104e-07