/*--------------------------------*- C++ -*----------------------------------*\
| =========                 |                                                 |
| \\      /  F ield         | OpenFOAM: The Open Source CFD Toolbox           |
|  \\    /   O peration     | Version:  2312                                  |
|   \\  /    A nd           | Website:  www.openfoam.com                      |
|    \\/     M anipulation  |                                                 |
\*---------------------------------------------------------------------------*/
FoamFile
{
    version     2.0;
    format      ascii;
    arch        "LSB;label=32;scalar=64";
    class       volScalarField;
    location    "850";
    object      k;
}
// * * * * * * * * * * * * * * * * * * * * * * * * * * * * * * * * * * * * * //

dimensions      [0 2 -2 0 0 0 0];

internalField   nonuniform List<scalar> 
43496
(
6.85752e-05
7.11957e-05
5.14165e-05
6.47963e-05
6.06299e-05
4.67109e-05
6.85733e-05
7.344e-05
6.0628e-05
5.14121e-05
4.67116e-05
6.47933e-05
5.35251e-05
6.99405e-05
6.99375e-05
7.11944e-05
7.34447e-05
7.18485e-05
6.85636e-05
7.16014e-05
7.16307e-05
7.15897e-05
7.16183e-05
7.18622e-05
7.16831e-05
7.97879e-05
7.978e-05
7.16974e-05
7.11839e-05
7.1847e-05
6.85622e-05
7.16302e-05
7.15955e-05
7.16178e-05
7.15857e-05
7.18612e-05
7.16813e-05
7.97688e-05
7.3431e-05
7.9761e-05
7.16956e-05
9.4981e-05
7.34964e-05
7.35026e-05
7.34829e-05
7.34891e-05
9.49835e-05
7.41987e-05
7.3281e-05
6.99368e-05
6.52493e-05
7.32686e-05
6.52365e-05
7.42041e-05
7.41517e-05
7.32711e-05
6.99344e-05
6.52441e-05
6.52317e-05
7.32625e-05
7.41564e-05
7.11826e-05
7.34335e-05
3.19043e-05
3.89084e-05
3.19095e-05
6.47855e-05
6.03754e-05
6.03749e-05
5.62971e-05
6.06114e-05
6.23239e-05
5.50204e-05
6.23058e-05
5.50173e-05
5.62917e-05
5.73872e-05
6.42066e-05
6.41938e-05
5.7389e-05
5.62958e-05
6.06099e-05
5.50194e-05
6.2318e-05
5.50162e-05
6.23043e-05
5.62877e-05
5.73918e-05
6.41983e-05
6.47823e-05
6.03731e-05
6.41882e-05
5.73774e-05
6.03725e-05
6.59273e-05
5.35452e-05
5.94748e-05
5.94773e-05
5.94803e-05
5.94778e-05
6.59316e-05
3.83871e-05
5.111e-05
5.11132e-05
5.32901e-05
3.88048e-05
5.13558e-05
5.13589e-05
5.34932e-05
5.32919e-05
5.34436e-05
5.11104e-05
5.11051e-05
5.12966e-05
5.1292e-05
5.32998e-05
5.34305e-05
5.11078e-05
5.11087e-05
5.12941e-05
5.12949e-05
5.11102e-05
5.12956e-05
5.12946e-05
5.33008e-05
5.34343e-05
5.11073e-05
5.12994e-05
5.12941e-05
5.34321e-05
5.34874e-05
5.13561e-05
5.13502e-05
5.34964e-05
5.13537e-05
5.13545e-05
5.1357e-05
5.34959e-05
5.13531e-05
6.85139e-05
7.33595e-05
7.3384e-05
6.84877e-05
7.1114e-05
7.11402e-05
6.85148e-05
7.33603e-05
7.33867e-05
6.84862e-05
3.83861e-05
3.83916e-05
3.83905e-05
3.87027e-05
3.87021e-05
3.87069e-05
3.87056e-05
6.05243e-05
6.46957e-05
4.6329e-05
5.11727e-05
6.47267e-05
4.6409e-05
6.04756e-05
7.11153e-05
7.11413e-05
6.05243e-05
4.63328e-05
6.46961e-05
5.11765e-05
4.64124e-05
6.47273e-05
6.04756e-05
6.98616e-05
6.98698e-05
5.33435e-05
6.98799e-05
6.98882e-05
7.34189e-05
6.85507e-05
7.1169e-05
7.342e-05
6.85493e-05
3.88038e-05
3.88092e-05
3.88082e-05
6.06296e-05
6.47683e-05
4.66389e-05
6.05858e-05
4.67123e-05
7.11704e-05
6.06268e-05
4.66428e-05
6.47686e-05
6.0587e-05
4.67154e-05
6.99167e-05
6.99249e-05
5.35218e-05
6.99332e-05
6.99418e-05
7.11128e-05
7.11389e-05
7.11158e-05
7.11419e-05
6.98653e-05
6.98737e-05
5.33461e-05
6.98841e-05
6.98918e-05
7.11663e-05
7.11406e-05
7.11693e-05
7.11436e-05
5.339e-05
6.99114e-05
6.99193e-05
6.98936e-05
6.9902e-05
6.85124e-05
7.33563e-05
7.33807e-05
6.84861e-05
6.05226e-05
6.46941e-05
4.63283e-05
5.11737e-05
6.47251e-05
4.64081e-05
6.04775e-05
6.05209e-05
6.46904e-05
4.63258e-05
5.11688e-05
6.4721e-05
4.6406e-05
6.04759e-05
6.85199e-05
7.34137e-05
7.33895e-05
6.85451e-05
6.85184e-05
7.34108e-05
7.33862e-05
6.85434e-05
6.05343e-05
5.1236e-05
6.47608e-05
4.65631e-05
6.47314e-05
4.64868e-05
6.05765e-05
6.05327e-05
5.12305e-05
6.47568e-05
4.6561e-05
6.47277e-05
4.64842e-05
6.05749e-05
6.98652e-05
6.98667e-05
5.33335e-05
6.98843e-05
6.98858e-05
7.11142e-05
7.11404e-05
7.11677e-05
7.11417e-05
5.33983e-05
6.99116e-05
6.99127e-05
6.98934e-05
6.9895e-05
7.11678e-05
7.1142e-05
6.05242e-05
6.46962e-05
4.63278e-05
5.11711e-05
6.47274e-05
4.64075e-05
6.04753e-05
6.85133e-05
7.3357e-05
7.33815e-05
6.84847e-05
6.05229e-05
4.63286e-05
6.46929e-05
5.1172e-05
4.64083e-05
6.47234e-05
6.0474e-05
6.85184e-05
7.34163e-05
7.33903e-05
6.85461e-05
6.0532e-05
5.12335e-05
6.47632e-05
4.65625e-05
6.47335e-05
4.64863e-05
6.05783e-05
6.85169e-05
7.34112e-05
7.3387e-05
6.85443e-05
6.05307e-05
5.12344e-05
4.65633e-05
6.47595e-05
4.64871e-05
6.47302e-05
6.0577e-05
6.85131e-05
7.3359e-05
7.33854e-05
6.8485e-05
6.0524e-05
4.63299e-05
6.46912e-05
5.11724e-05
4.64092e-05
6.47219e-05
6.04752e-05
6.8514e-05
7.33566e-05
7.33811e-05
6.84855e-05
6.05323e-05
5.12357e-05
6.47624e-05
4.6564e-05
6.47329e-05
4.64874e-05
6.05783e-05
6.85172e-05
7.3415e-05
7.3389e-05
6.8544e-05
6.05319e-05
5.12362e-05
4.6564e-05
6.47577e-05
4.64884e-05
6.47284e-05
6.0578e-05
6.85177e-05
7.34107e-05
7.33866e-05
6.8545e-05
6.98685e-05
6.98661e-05
5.33357e-05
6.98873e-05
6.9884e-05
7.1114e-05
7.114e-05
7.11687e-05
7.1143e-05
5.34005e-05
6.99148e-05
6.99114e-05
6.98968e-05
6.98944e-05
7.11674e-05
7.11417e-05
6.05215e-05
4.633e-05
6.46934e-05
5.11713e-05
4.64094e-05
6.47242e-05
6.04729e-05
6.85127e-05
7.33597e-05
7.33862e-05
6.84845e-05
6.85085e-05
7.33581e-05
7.33826e-05
6.84808e-05
6.05323e-05
5.12389e-05
4.65673e-05
6.47627e-05
4.64912e-05
6.47333e-05
6.05776e-05
6.05296e-05
5.12328e-05
4.65642e-05
6.47597e-05
4.64884e-05
6.47306e-05
6.05736e-05
6.85164e-05
7.34157e-05
7.33898e-05
6.85425e-05
6.85135e-05
7.34122e-05
7.33881e-05
6.85386e-05
7.11137e-05
7.11397e-05
7.11163e-05
7.11423e-05
5.33872e-05
6.99072e-05
6.99156e-05
6.98899e-05
6.9898e-05
7.11671e-05
7.11414e-05
7.11697e-05
7.11441e-05
7.11679e-05
7.11709e-05
6.99205e-05
6.99289e-05
7.34144e-05
6.8549e-05
6.47669e-05
4.66384e-05
6.05878e-05
6.4763e-05
4.66358e-05
6.05862e-05
6.99203e-05
6.99222e-05
7.11693e-05
6.47689e-05
4.6638e-05
6.05856e-05
7.34164e-05
6.85476e-05
4.66388e-05
6.47655e-05
6.05843e-05
6.85732e-05
7.34184e-05
6.85478e-05
6.06294e-05
4.66401e-05
6.47637e-05
5.14108e-05
6.05854e-05
4.6712e-05
6.4791e-05
6.85742e-05
7.34159e-05
6.85483e-05
7.34394e-05
6.99238e-05
6.99213e-05
7.11691e-05
6.06241e-05
4.66401e-05
6.4766e-05
5.14118e-05
6.05843e-05
4.67124e-05
6.47932e-05
6.85713e-05
7.34192e-05
6.85479e-05
6.85677e-05
7.34175e-05
6.85443e-05
7.34409e-05
7.11688e-05
7.1194e-05
7.11714e-05
7.11967e-05
7.17908e-05
7.157e-05
7.15454e-05
6.85041e-05
7.15606e-05
7.15364e-05
7.18046e-05
7.16305e-05
7.33692e-05
7.97179e-05
7.97265e-05
7.1616e-05
7.16295e-05
7.97395e-05
7.33745e-05
7.97313e-05
7.16441e-05
7.179e-05
6.8498e-05
7.15457e-05
7.15216e-05
7.15553e-05
7.15309e-05
7.1776e-05
7.11264e-05
7.11279e-05
7.1791e-05
7.15459e-05
7.15717e-05
6.85023e-05
7.15335e-05
7.15593e-05
7.18049e-05
7.16308e-05
7.33718e-05
7.97161e-05
7.97246e-05
7.16162e-05
7.16298e-05
7.97377e-05
7.33754e-05
7.97293e-05
7.16443e-05
7.17902e-05
6.84988e-05
7.15189e-05
7.15446e-05
7.15313e-05
7.15568e-05
7.17761e-05
7.11274e-05
7.11292e-05
9.49251e-05
7.3453e-05
7.34463e-05
7.34393e-05
7.34327e-05
9.4928e-05
7.40734e-05
6.51185e-05
6.98657e-05
7.319e-05
6.51326e-05
7.31993e-05
7.40689e-05
7.41213e-05
6.51262e-05
6.9874e-05
7.31997e-05
6.51409e-05
7.3209e-05
7.41167e-05
7.4086e-05
7.32137e-05
6.98759e-05
6.51555e-05
6.51418e-05
7.32045e-05
7.40904e-05
7.41338e-05
7.32234e-05
6.98841e-05
6.51638e-05
6.51496e-05
7.32142e-05
7.41382e-05
9.49134e-05
7.34265e-05
7.34199e-05
7.34402e-05
7.34336e-05
9.49104e-05
7.1684e-05
7.97696e-05
7.34285e-05
7.16697e-05
7.97775e-05
7.18479e-05
6.85604e-05
7.16052e-05
7.15793e-05
7.18338e-05
7.16142e-05
7.15875e-05
7.11813e-05
7.16843e-05
7.97678e-05
7.34304e-05
7.16699e-05
7.97757e-05
7.18475e-05
6.85607e-05
7.15767e-05
7.16041e-05
7.18341e-05
7.1588e-05
7.16161e-05
7.11823e-05
9.49816e-05
7.35031e-05
7.34964e-05
7.34896e-05
7.3483e-05
9.49839e-05
7.41391e-05
6.52082e-05
7.32474e-05
6.99204e-05
7.41352e-05
6.52205e-05
7.32563e-05
7.41866e-05
6.52159e-05
7.32571e-05
6.99288e-05
7.41828e-05
6.5229e-05
7.3266e-05
9.49702e-05
7.34772e-05
7.34705e-05
9.4968e-05
7.34907e-05
7.3484e-05
7.41505e-05
7.327e-05
6.99297e-05
6.52409e-05
6.52291e-05
7.32614e-05
7.41552e-05
7.41982e-05
7.32797e-05
6.9938e-05
6.52493e-05
6.52369e-05
7.3271e-05
7.42027e-05
7.1125e-05
7.11267e-05
7.1128e-05
7.11297e-05
9.49288e-05
7.34529e-05
7.34461e-05
7.34391e-05
7.34324e-05
9.49314e-05
7.4076e-05
6.51212e-05
6.987e-05
7.31894e-05
7.3202e-05
6.51336e-05
7.40703e-05
7.41221e-05
6.51277e-05
6.98776e-05
7.32004e-05
7.32098e-05
6.51418e-05
7.41165e-05
7.40876e-05
7.32164e-05
6.98796e-05
6.51567e-05
7.3204e-05
7.4093e-05
6.51446e-05
7.41338e-05
7.32242e-05
6.9888e-05
6.51649e-05
7.32149e-05
7.41392e-05
6.51511e-05
9.49168e-05
7.34264e-05
7.34196e-05
7.34401e-05
7.34333e-05
9.49141e-05
7.11543e-05
7.11527e-05
7.11573e-05
7.11557e-05
9.49459e-05
7.34519e-05
7.34451e-05
9.49433e-05
7.34656e-05
7.34588e-05
7.41207e-05
6.52009e-05
6.99071e-05
7.32451e-05
7.32326e-05
6.51896e-05
7.4126e-05
7.41672e-05
6.52091e-05
6.99157e-05
7.32528e-05
7.32438e-05
6.51961e-05
7.41713e-05
7.41098e-05
7.32185e-05
6.51673e-05
6.98979e-05
7.41044e-05
7.32307e-05
6.51791e-05
7.41551e-05
7.32295e-05
6.51739e-05
6.99059e-05
7.41506e-05
7.32388e-05
6.51872e-05
9.49576e-05
7.34782e-05
7.34713e-05
7.34645e-05
7.34577e-05
9.49601e-05
7.179e-05
7.15697e-05
7.15403e-05
6.85025e-05
7.15603e-05
7.15312e-05
7.18037e-05
7.16299e-05
7.33658e-05
7.96997e-05
7.97081e-05
7.16154e-05
7.16289e-05
7.97212e-05
7.33712e-05
7.97128e-05
7.16434e-05
7.17892e-05
6.84964e-05
7.15454e-05
7.15163e-05
7.15549e-05
7.15257e-05
7.17752e-05
7.18191e-05
7.15754e-05
7.15509e-05
6.85298e-05
7.18055e-05
7.15851e-05
7.156e-05
7.16564e-05
7.34044e-05
7.97651e-05
7.16708e-05
7.97571e-05
7.16575e-05
7.97443e-05
7.33991e-05
7.1643e-05
7.97524e-05
7.18199e-05
6.85355e-05
7.15999e-05
7.15741e-05
7.18334e-05
7.15902e-05
7.15651e-05
7.18183e-05
7.15752e-05
7.15457e-05
6.85283e-05
7.18046e-05
7.15848e-05
7.15549e-05
7.16558e-05
7.34008e-05
7.97467e-05
7.97389e-05
7.16702e-05
7.16568e-05
7.97259e-05
7.33958e-05
7.16424e-05
7.97341e-05
7.1819e-05
6.8534e-05
7.15994e-05
7.1569e-05
7.159e-05
7.156e-05
7.18326e-05
9.49276e-05
7.34469e-05
7.3453e-05
7.34331e-05
7.34392e-05
9.49297e-05
7.41213e-05
6.51248e-05
6.98701e-05
7.31988e-05
7.32083e-05
6.51376e-05
7.41171e-05
7.40746e-05
6.51215e-05
6.98716e-05
7.31903e-05
6.5135e-05
7.32029e-05
7.40707e-05
7.41342e-05
7.32225e-05
6.98795e-05
6.51607e-05
7.32133e-05
6.51481e-05
7.41383e-05
7.40878e-05
7.32173e-05
6.9881e-05
6.51581e-05
6.51448e-05
7.32049e-05
7.40917e-05
9.4915e-05
7.34204e-05
7.34264e-05
7.34341e-05
7.34402e-05
9.49129e-05
7.11265e-05
7.11281e-05
7.11554e-05
7.1154e-05
9.49441e-05
7.34458e-05
7.34519e-05
9.49421e-05
7.34596e-05
7.34656e-05
7.41674e-05
6.52049e-05
6.99069e-05
7.32511e-05
6.51931e-05
7.3242e-05
7.41712e-05
7.41209e-05
6.52023e-05
6.99087e-05
7.32453e-05
7.32339e-05
6.51897e-05
7.41247e-05
7.41549e-05
7.32277e-05
6.51708e-05
6.9898e-05
6.51831e-05
7.4151e-05
7.32371e-05
7.41083e-05
7.32195e-05
6.51676e-05
6.98995e-05
7.41045e-05
7.32313e-05
6.51804e-05
9.49564e-05
7.34721e-05
7.34782e-05
7.34585e-05
7.34646e-05
9.49583e-05
7.11557e-05
7.11541e-05
7.17897e-05
7.15712e-05
7.15408e-05
6.85009e-05
7.15588e-05
7.15285e-05
7.18035e-05
7.16289e-05
7.33666e-05
7.96969e-05
7.97052e-05
7.16144e-05
7.1628e-05
7.97184e-05
7.3372e-05
7.97101e-05
7.16425e-05
7.17889e-05
6.84973e-05
7.15441e-05
7.15139e-05
7.15563e-05
7.15261e-05
7.17748e-05
7.18192e-05
7.15483e-05
7.15744e-05
6.85306e-05
7.18056e-05
7.15603e-05
7.15867e-05
7.16566e-05
7.3405e-05
7.97633e-05
7.1671e-05
7.97551e-05
7.16577e-05
7.97423e-05
7.34015e-05
7.16432e-05
7.97506e-05
7.18203e-05
6.8534e-05
7.15747e-05
7.16017e-05
7.18333e-05
7.15625e-05
7.15892e-05
7.18179e-05
7.15739e-05
7.15433e-05
6.85291e-05
7.18043e-05
7.15862e-05
7.15554e-05
7.16548e-05
7.34019e-05
7.97441e-05
7.9736e-05
7.16692e-05
7.16559e-05
7.97232e-05
7.33966e-05
7.16415e-05
7.97314e-05
7.18188e-05
6.85324e-05
7.16009e-05
7.15694e-05
7.15887e-05
7.15576e-05
7.18321e-05
7.17891e-05
7.15415e-05
7.1571e-05
6.85012e-05
7.15305e-05
7.15584e-05
7.18035e-05
7.16298e-05
7.33705e-05
7.97136e-05
7.97176e-05
7.16146e-05
7.16282e-05
7.97307e-05
7.33741e-05
7.97268e-05
7.16433e-05
7.17889e-05
6.84971e-05
7.15157e-05
7.15437e-05
7.15268e-05
7.15561e-05
7.17745e-05
7.17897e-05
7.15711e-05
7.15416e-05
6.85017e-05
7.15587e-05
7.15293e-05
7.18036e-05
7.16293e-05
7.33662e-05
7.96959e-05
7.97046e-05
7.16147e-05
7.16283e-05
7.97177e-05
7.33716e-05
7.97091e-05
7.16428e-05
7.1789e-05
6.8498e-05
7.1544e-05
7.15147e-05
7.15562e-05
7.1527e-05
7.17749e-05
7.1818e-05
7.15452e-05
7.15735e-05
6.85288e-05
7.18037e-05
7.15559e-05
7.1586e-05
7.1655e-05
7.34037e-05
7.97562e-05
7.97525e-05
7.167e-05
7.16567e-05
7.97398e-05
7.34002e-05
7.16417e-05
7.97436e-05
7.18183e-05
6.85327e-05
7.15699e-05
7.16007e-05
7.15594e-05
7.15882e-05
7.18321e-05
7.18179e-05
7.15738e-05
7.1544e-05
6.85298e-05
7.18043e-05
7.15862e-05
7.15561e-05
7.16551e-05
7.34014e-05
7.97431e-05
7.9735e-05
7.16696e-05
7.16562e-05
7.97221e-05
7.33961e-05
7.16418e-05
7.97305e-05
7.18188e-05
6.85332e-05
7.16008e-05
7.157e-05
7.15886e-05
7.15582e-05
7.18322e-05
9.49244e-05
7.34462e-05
7.34524e-05
7.34325e-05
7.34387e-05
9.49272e-05
7.41229e-05
6.51254e-05
6.98732e-05
7.31974e-05
7.32099e-05
6.51403e-05
7.4117e-05
7.40744e-05
6.51211e-05
6.98699e-05
7.31911e-05
6.51353e-05
7.32003e-05
7.407e-05
7.41342e-05
7.32243e-05
6.98827e-05
6.51633e-05
7.3212e-05
6.51488e-05
7.41398e-05
7.40872e-05
7.32147e-05
6.98804e-05
6.51584e-05
6.51444e-05
7.32055e-05
7.40914e-05
9.49125e-05
7.34198e-05
7.34259e-05
7.34334e-05
7.34396e-05
9.49096e-05
7.11262e-05
7.11279e-05
7.11567e-05
7.11551e-05
9.49416e-05
7.34453e-05
7.34514e-05
9.49389e-05
7.34589e-05
7.3465e-05
7.41672e-05
6.52077e-05
6.99102e-05
7.32528e-05
6.51938e-05
7.32406e-05
7.41726e-05
7.41203e-05
6.52026e-05
6.99081e-05
7.32433e-05
7.32344e-05
6.51892e-05
7.41243e-05
7.41566e-05
7.32265e-05
6.51716e-05
6.99013e-05
6.51857e-05
7.4151e-05
7.32386e-05
7.41081e-05
7.32201e-05
6.51671e-05
6.9898e-05
7.41039e-05
7.32294e-05
6.51808e-05
9.49532e-05
7.34715e-05
7.34776e-05
7.34579e-05
7.34641e-05
9.49557e-05
7.11554e-05
7.11538e-05
7.17908e-05
7.15464e-05
7.15707e-05
6.85006e-05
7.15341e-05
7.15581e-05
7.18047e-05
7.16309e-05
7.33713e-05
7.97144e-05
7.97231e-05
7.16164e-05
7.163e-05
7.97363e-05
7.33748e-05
7.97277e-05
7.16444e-05
7.17901e-05
6.84965e-05
7.15195e-05
7.15435e-05
7.15318e-05
7.15558e-05
7.1776e-05
7.17886e-05
7.15377e-05
7.15697e-05
6.84972e-05
7.15259e-05
7.15569e-05
7.18027e-05
7.16298e-05
7.33677e-05
7.96973e-05
7.97058e-05
7.16152e-05
7.16288e-05
7.97189e-05
7.33731e-05
7.97106e-05
7.16433e-05
7.17882e-05
6.84926e-05
7.15112e-05
7.15423e-05
7.1523e-05
7.15548e-05
7.17738e-05
7.1819e-05
7.15488e-05
7.15732e-05
6.85281e-05
7.18054e-05
7.15609e-05
7.15857e-05
7.16568e-05
7.34044e-05
7.97618e-05
7.97535e-05
7.16712e-05
7.16578e-05
7.97407e-05
7.3401e-05
7.16434e-05
7.97491e-05
7.18199e-05
6.85327e-05
7.15749e-05
7.16003e-05
7.1563e-05
7.15879e-05
7.18333e-05
7.18171e-05
7.15406e-05
7.1572e-05
6.85237e-05
7.18032e-05
7.15519e-05
7.15847e-05
7.16556e-05
7.3403e-05
7.97444e-05
7.97364e-05
7.16701e-05
7.16568e-05
7.97237e-05
7.33977e-05
7.16422e-05
7.97317e-05
7.18177e-05
6.85291e-05
7.15649e-05
7.15993e-05
7.15556e-05
7.15868e-05
7.18312e-05
7.11258e-05
7.11276e-05
7.11284e-05
7.11302e-05
9.49423e-05
7.3452e-05
7.34454e-05
9.49397e-05
7.34656e-05
7.3459e-05
7.41191e-05
6.51994e-05
6.99034e-05
7.32424e-05
7.41233e-05
6.51866e-05
7.32332e-05
7.41668e-05
6.52078e-05
6.99116e-05
7.32521e-05
7.41711e-05
6.51944e-05
7.32429e-05
7.4107e-05
7.3219e-05
6.51645e-05
6.98937e-05
7.41028e-05
6.51778e-05
7.32283e-05
7.41548e-05
7.32287e-05
6.51722e-05
6.99019e-05
7.41506e-05
6.5186e-05
7.3238e-05
9.49539e-05
7.34782e-05
7.34715e-05
9.49564e-05
7.34646e-05
7.3458e-05
7.11551e-05
7.11534e-05
7.11578e-05
7.11561e-05
7.11799e-05
7.11829e-05
7.41421e-05
6.52111e-05
7.32468e-05
6.9925e-05
7.41367e-05
7.32595e-05
6.52223e-05
7.4188e-05
6.52177e-05
7.32575e-05
6.99332e-05
7.4183e-05
7.32675e-05
6.52304e-05
9.49742e-05
7.34771e-05
7.34703e-05
9.49717e-05
7.34907e-05
7.34839e-05
7.16834e-05
7.97514e-05
7.34259e-05
7.16691e-05
7.97591e-05
7.18471e-05
6.85588e-05
7.16046e-05
7.15743e-05
7.16147e-05
7.18332e-05
7.15825e-05
7.4187e-05
6.52145e-05
7.32557e-05
6.99252e-05
7.32657e-05
7.41833e-05
6.52261e-05
7.41405e-05
6.52113e-05
7.32492e-05
6.99259e-05
6.52235e-05
7.41369e-05
7.32583e-05
9.49722e-05
7.3471e-05
7.34771e-05
7.34847e-05
9.49705e-05
7.34907e-05
7.16825e-05
7.97486e-05
7.34258e-05
7.16681e-05
7.97565e-05
7.18466e-05
6.8559e-05
7.16034e-05
7.15717e-05
7.16155e-05
7.18332e-05
7.15827e-05
7.18471e-05
6.85623e-05
7.163e-05
7.15867e-05
7.16173e-05
7.16833e-05
7.9765e-05
7.34297e-05
7.97688e-05
7.16683e-05
7.18467e-05
6.85587e-05
7.15733e-05
7.1603e-05
7.15834e-05
7.18328e-05
7.16153e-05
7.16816e-05
7.18468e-05
6.85628e-05
7.16301e-05
7.1597e-05
7.16176e-05
7.15853e-05
7.18616e-05
7.16828e-05
7.97475e-05
7.34252e-05
7.16684e-05
7.97555e-05
7.18466e-05
6.85597e-05
7.16033e-05
7.15722e-05
7.18332e-05
7.16154e-05
7.15836e-05
7.16816e-05
7.97676e-05
7.34305e-05
7.97598e-05
7.16959e-05
7.41885e-05
6.52154e-05
7.3255e-05
6.99279e-05
7.32669e-05
7.41833e-05
6.52286e-05
7.41402e-05
6.52106e-05
7.32483e-05
6.99247e-05
6.52236e-05
7.41362e-05
7.32575e-05
9.49697e-05
7.34704e-05
7.34766e-05
7.3484e-05
9.49673e-05
7.34901e-05
7.1181e-05
7.1848e-05
6.85627e-05
7.15999e-05
7.16296e-05
7.15916e-05
7.1617e-05
7.18626e-05
7.16844e-05
7.9766e-05
7.34302e-05
7.9774e-05
7.16701e-05
7.18477e-05
6.85572e-05
7.1577e-05
7.16027e-05
7.15878e-05
7.18343e-05
7.16149e-05
7.16833e-05
7.9786e-05
7.97784e-05
7.16975e-05
7.18456e-05
6.8559e-05
7.15913e-05
7.16286e-05
7.15834e-05
7.16158e-05
7.18607e-05
7.16833e-05
7.9749e-05
7.34268e-05
7.16689e-05
7.97567e-05
7.18457e-05
6.85536e-05
7.15697e-05
7.16016e-05
7.18322e-05
7.15783e-05
7.16139e-05
7.16821e-05
7.97688e-05
7.3432e-05
7.97613e-05
7.16964e-05
7.11806e-05
7.11823e-05
7.11833e-05
7.11849e-05
3.1271e-05
3.12687e-05
3.84939e-05
3.14015e-05
3.13988e-05
2.22637e-05
2.21123e-05
6.58138e-05
5.93009e-05
5.93027e-05
5.32948e-05
5.93089e-05
5.93097e-05
6.58065e-05
3.17836e-05
3.17811e-05
2.28615e-05
2.27137e-05
6.59089e-05
5.94431e-05
5.94462e-05
5.34783e-05
6.59035e-05
5.94424e-05
5.94446e-05
6.58155e-05
5.93053e-05
5.93052e-05
5.32966e-05
5.93103e-05
5.93109e-05
6.58081e-05
6.58815e-05
5.34397e-05
5.94144e-05
5.94149e-05
5.94096e-05
5.94109e-05
6.58885e-05
6.58134e-05
5.93038e-05
5.93069e-05
5.3284e-05
5.93069e-05
5.93035e-05
6.58083e-05
6.58817e-05
5.34482e-05
5.94081e-05
5.9411e-05
5.94085e-05
5.94113e-05
6.58863e-05
6.58136e-05
5.93048e-05
5.9309e-05
5.32858e-05
5.93089e-05
5.93047e-05
6.58077e-05
6.58815e-05
5.34508e-05
5.94106e-05
5.94122e-05
5.94113e-05
5.9413e-05
6.58864e-05
6.58803e-05
5.34416e-05
5.94104e-05
5.941e-05
6.58859e-05
5.94086e-05
5.9411e-05
6.59119e-05
5.94434e-05
5.94443e-05
5.34906e-05
6.59047e-05
5.94485e-05
5.9449e-05
6.59094e-05
5.94429e-05
5.94458e-05
5.34745e-05
5.94426e-05
6.59048e-05
5.94389e-05
6.59093e-05
5.94431e-05
5.94456e-05
5.34805e-05
5.9445e-05
6.59047e-05
5.94425e-05
3.12702e-05
3.12697e-05
3.84933e-05
3.1401e-05
3.13995e-05
2.2264e-05
2.21127e-05
3.12743e-05
3.12741e-05
3.84982e-05
3.14044e-05
3.14046e-05
2.22676e-05
2.21162e-05
3.12754e-05
3.12726e-05
3.84969e-05
3.14046e-05
3.14043e-05
2.22681e-05
2.21163e-05
3.85994e-05
3.16577e-05
3.16551e-05
3.15307e-05
3.15284e-05
2.24147e-05
2.25644e-05
3.85984e-05
3.16573e-05
3.16557e-05
3.15298e-05
3.15295e-05
2.2415e-05
2.25647e-05
3.86039e-05
3.16605e-05
3.16608e-05
3.1534e-05
3.15338e-05
2.24186e-05
2.25683e-05
3.86028e-05
3.16606e-05
3.16608e-05
3.15353e-05
3.15321e-05
2.24186e-05
2.25689e-05
5.61411e-05
6.22267e-05
5.4852e-05
6.05043e-05
6.22079e-05
5.48473e-05
5.6136e-05
5.72164e-05
6.02268e-05
6.47081e-05
6.40863e-05
6.02358e-05
6.40997e-05
5.72128e-05
5.72493e-05
6.4122e-05
6.47145e-05
6.02659e-05
6.02576e-05
6.41087e-05
5.72525e-05
5.60939e-05
6.04959e-05
6.21822e-05
5.48009e-05
6.2201e-05
5.48058e-05
5.60991e-05
5.61431e-05
5.48527e-05
6.22294e-05
6.05043e-05
5.48481e-05
6.22098e-05
5.6138e-05
5.72184e-05
6.02279e-05
6.47087e-05
6.40878e-05
6.02369e-05
6.41024e-05
5.72148e-05
5.72513e-05
6.41246e-05
6.47149e-05
6.0267e-05
6.02586e-05
6.41102e-05
5.72545e-05
5.6096e-05
6.04959e-05
5.48017e-05
6.21842e-05
5.48067e-05
6.22037e-05
5.61011e-05
6.58318e-05
5.33401e-05
5.93437e-05
5.9343e-05
5.93375e-05
5.93391e-05
6.58377e-05
3.17827e-05
3.17825e-05
3.19049e-05
2.28618e-05
2.2714e-05
3.17868e-05
3.17866e-05
3.19103e-05
2.28654e-05
2.27176e-05
3.17883e-05
3.17845e-05
3.89081e-05
3.19094e-05
3.19112e-05
2.28661e-05
2.27176e-05
5.62979e-05
6.06115e-05
6.2323e-05
5.50204e-05
6.23056e-05
5.50173e-05
5.62924e-05
5.73586e-05
6.03462e-05
6.41737e-05
6.47797e-05
5.73559e-05
6.03514e-05
6.41857e-05
5.62543e-05
6.06041e-05
6.22827e-05
5.49753e-05
5.62604e-05
6.22999e-05
5.49791e-05
5.63004e-05
6.06131e-05
5.5011e-05
6.23225e-05
5.5024e-05
6.23099e-05
5.62906e-05
5.73554e-05
6.03458e-05
6.41759e-05
6.47798e-05
5.73565e-05
6.03482e-05
6.41871e-05
5.62548e-05
6.06023e-05
5.49756e-05
6.22853e-05
5.62623e-05
5.49739e-05
6.23013e-05
5.73953e-05
6.42064e-05
6.41961e-05
5.7383e-05
6.59263e-05
5.3542e-05
5.94728e-05
5.94741e-05
5.94772e-05
5.94779e-05
6.5931e-05
6.58334e-05
5.33421e-05
5.93453e-05
5.93472e-05
6.58405e-05
5.93404e-05
5.93401e-05
6.58647e-05
5.3394e-05
5.93748e-05
5.9375e-05
6.58576e-05
5.93797e-05
5.93808e-05
5.61431e-05
6.22258e-05
5.4843e-05
6.05065e-05
6.22116e-05
5.48558e-05
5.61329e-05
5.72089e-05
6.0229e-05
6.47065e-05
6.40871e-05
6.41001e-05
6.02301e-05
5.72194e-05
5.72555e-05
6.41224e-05
6.4713e-05
6.02606e-05
6.411e-05
6.02596e-05
5.72453e-05
5.60914e-05
6.04943e-05
6.21856e-05
5.48089e-05
6.22003e-05
5.47972e-05
5.61012e-05
5.61388e-05
6.2221e-05
5.4841e-05
6.05048e-05
6.22067e-05
5.48539e-05
5.61285e-05
5.72026e-05
6.02254e-05
6.47024e-05
6.40797e-05
6.40921e-05
6.02263e-05
5.72131e-05
5.72492e-05
6.41143e-05
6.47093e-05
6.02567e-05
6.41023e-05
5.72389e-05
6.02559e-05
5.6087e-05
6.04927e-05
6.21808e-05
5.48072e-05
6.21955e-05
5.47954e-05
5.60969e-05
5.61738e-05
6.22371e-05
5.48986e-05
6.05501e-05
5.6184e-05
6.22512e-05
5.4886e-05
5.73271e-05
6.03186e-05
6.47494e-05
6.41655e-05
6.03188e-05
6.4154e-05
5.73162e-05
5.72805e-05
6.41318e-05
6.02889e-05
6.47432e-05
6.029e-05
5.72917e-05
6.41444e-05
5.6224e-05
6.05615e-05
6.22757e-05
5.49272e-05
6.2262e-05
5.49417e-05
5.62136e-05
5.61694e-05
6.22322e-05
5.48969e-05
6.05485e-05
5.61797e-05
6.22465e-05
5.48842e-05
5.73207e-05
6.03146e-05
6.47456e-05
6.41576e-05
6.41463e-05
6.0315e-05
5.73098e-05
5.72742e-05
6.41244e-05
6.02852e-05
6.47391e-05
5.72853e-05
6.41364e-05
6.02862e-05
5.62197e-05
6.05598e-05
6.22709e-05
5.49253e-05
6.22571e-05
5.49397e-05
5.62092e-05
6.58333e-05
5.33495e-05
5.93395e-05
5.9343e-05
5.93426e-05
5.93396e-05
6.58384e-05
6.58626e-05
5.33834e-05
5.9374e-05
5.93769e-05
5.93745e-05
6.58579e-05
5.93779e-05
5.61396e-05
6.22273e-05
5.4851e-05
6.0504e-05
6.22078e-05
5.48464e-05
5.61344e-05
5.7214e-05
6.02265e-05
6.47088e-05
6.40861e-05
6.41004e-05
6.02355e-05
5.72104e-05
5.72471e-05
6.41227e-05
6.47151e-05
6.02657e-05
6.41086e-05
6.02573e-05
5.72503e-05
5.60922e-05
6.04957e-05
6.21821e-05
5.48002e-05
6.22015e-05
5.48049e-05
5.60974e-05
5.6138e-05
5.48499e-05
6.22239e-05
6.05027e-05
5.48454e-05
6.22042e-05
5.61316e-05
5.72047e-05
6.02271e-05
6.47048e-05
6.40804e-05
6.40928e-05
6.02285e-05
5.72149e-05
5.7251e-05
6.41151e-05
6.47118e-05
6.0259e-05
6.4103e-05
5.72411e-05
6.02577e-05
5.60894e-05
6.04945e-05
5.47992e-05
6.21786e-05
5.4804e-05
6.21981e-05
5.60958e-05
5.6175e-05
6.22336e-05
5.48897e-05
6.05517e-05
5.61806e-05
6.22526e-05
5.48939e-05
5.73185e-05
6.03239e-05
6.47514e-05
6.41661e-05
6.03162e-05
6.41524e-05
5.73214e-05
5.72865e-05
6.41309e-05
6.02867e-05
6.47455e-05
6.02946e-05
5.72836e-05
6.41446e-05
5.62203e-05
6.05592e-05
6.2277e-05
5.4937e-05
6.22585e-05
5.49331e-05
5.62146e-05
5.6172e-05
5.48886e-05
6.22299e-05
6.05504e-05
5.61789e-05
5.48929e-05
6.22491e-05
5.73223e-05
6.03175e-05
6.4748e-05
6.41584e-05
6.41468e-05
6.03167e-05
5.73125e-05
5.72763e-05
6.4125e-05
6.02871e-05
6.47416e-05
5.72873e-05
6.41371e-05
6.02884e-05
5.62189e-05
6.05579e-05
5.49359e-05
6.22735e-05
5.4932e-05
6.22548e-05
5.62118e-05
5.61387e-05
5.48514e-05
6.22248e-05
6.05038e-05
5.48467e-05
6.22054e-05
5.61338e-05
5.72119e-05
6.02256e-05
6.47035e-05
6.40794e-05
6.02271e-05
6.40937e-05
5.72083e-05
5.7245e-05
6.4116e-05
6.471e-05
6.02574e-05
6.02561e-05
6.41018e-05
5.72482e-05
5.60916e-05
6.04957e-05
5.48006e-05
6.21797e-05
5.48055e-05
6.2199e-05
5.60964e-05
5.61764e-05
6.22336e-05
5.48906e-05
6.05516e-05
5.6182e-05
6.22519e-05
5.48948e-05
5.73205e-05
6.03239e-05
6.47508e-05
6.41651e-05
5.73235e-05
6.0316e-05
6.41526e-05
5.72886e-05
6.41309e-05
6.02869e-05
6.47448e-05
5.72857e-05
6.02946e-05
6.41438e-05
5.62216e-05
6.05596e-05
6.22766e-05
5.49377e-05
5.62158e-05
6.22584e-05
5.4934e-05
5.61743e-05
5.489e-05
6.22311e-05
6.05514e-05
5.61797e-05
5.48943e-05
6.225e-05
5.73164e-05
6.03158e-05
6.47462e-05
6.41591e-05
6.41456e-05
6.03153e-05
5.73192e-05
5.72843e-05
6.4124e-05
6.02859e-05
6.474e-05
5.72815e-05
6.41377e-05
6.0287e-05
5.62194e-05
6.0559e-05
5.49373e-05
6.22744e-05
5.49333e-05
6.2256e-05
5.62139e-05
6.58329e-05
5.33516e-05
5.93399e-05
5.93432e-05
5.93429e-05
5.93406e-05
6.58384e-05
6.58628e-05
5.33854e-05
5.93763e-05
5.93781e-05
5.93756e-05
6.58576e-05
5.93784e-05
5.61373e-05
5.48502e-05
6.22222e-05
6.05016e-05
5.48457e-05
6.2203e-05
5.61318e-05
5.72105e-05
6.02274e-05
6.47056e-05
6.4079e-05
6.02288e-05
6.40936e-05
5.7207e-05
5.72435e-05
6.41157e-05
6.47122e-05
6.0259e-05
6.02577e-05
6.41016e-05
5.72463e-05
5.60899e-05
6.04931e-05
5.47996e-05
6.21774e-05
5.48045e-05
6.21965e-05
5.60951e-05
5.61783e-05
5.48913e-05
6.22355e-05
6.05517e-05
5.61839e-05
5.48953e-05
6.22545e-05
5.73223e-05
6.03222e-05
6.47512e-05
6.41675e-05
5.73251e-05
6.03172e-05
6.41539e-05
5.72905e-05
6.41324e-05
6.0288e-05
6.47453e-05
5.72876e-05
6.02954e-05
6.41465e-05
5.62235e-05
6.05595e-05
5.49366e-05
6.22789e-05
5.62173e-05
5.49341e-05
6.22605e-05
5.61718e-05
5.48888e-05
6.2229e-05
6.05486e-05
5.61782e-05
5.48928e-05
6.22463e-05
5.73197e-05
6.03171e-05
6.47488e-05
6.41576e-05
6.41461e-05
6.0317e-05
5.73121e-05
5.72781e-05
6.41241e-05
6.02874e-05
6.47422e-05
5.72797e-05
6.41366e-05
6.02886e-05
5.62182e-05
6.05576e-05
5.49317e-05
6.22693e-05
5.49311e-05
6.22552e-05
5.62108e-05
6.58622e-05
5.33874e-05
5.93725e-05
5.93742e-05
6.58565e-05
5.93766e-05
5.9376e-05
5.73492e-05
6.03469e-05
6.41749e-05
6.4778e-05
6.41858e-05
5.73623e-05
6.03486e-05
5.62513e-05
6.06033e-05
6.22866e-05
5.49861e-05
6.22991e-05
5.62627e-05
5.49677e-05
5.7343e-05
6.03432e-05
6.41673e-05
6.4774e-05
5.73558e-05
6.41778e-05
6.03444e-05
5.62468e-05
6.06017e-05
6.22817e-05
5.49843e-05
5.62583e-05
6.22944e-05
5.49658e-05
5.73555e-05
6.03459e-05
6.41737e-05
6.47803e-05
6.41864e-05
5.73533e-05
6.03503e-05
5.6253e-05
6.06043e-05
6.22827e-05
5.49753e-05
6.23006e-05
5.62592e-05
5.49787e-05
5.73458e-05
6.0344e-05
6.41675e-05
6.47764e-05
5.73562e-05
6.41788e-05
6.03452e-05
5.62503e-05
6.0603e-05
5.49743e-05
6.22791e-05
5.62578e-05
5.49777e-05
6.22966e-05
5.62961e-05
6.06111e-05
5.50204e-05
6.23212e-05
5.50175e-05
6.23031e-05
5.62908e-05
5.73535e-05
6.0343e-05
6.41666e-05
6.47746e-05
6.03431e-05
5.73511e-05
6.41795e-05
5.62522e-05
6.06039e-05
5.49756e-05
6.22802e-05
5.4979e-05
5.62582e-05
6.22979e-05
5.73842e-05
6.41995e-05
6.47808e-05
6.03695e-05
6.03704e-05
6.41868e-05
5.73865e-05
5.62957e-05
6.06105e-05
5.50082e-05
6.23155e-05
5.50231e-05
6.23033e-05
5.62851e-05
5.7345e-05
6.03452e-05
6.41671e-05
6.47768e-05
6.03471e-05
5.73563e-05
6.41783e-05
5.62489e-05
6.05995e-05
5.49778e-05
6.22798e-05
5.49711e-05
5.62575e-05
6.22931e-05
5.73922e-05
6.41979e-05
6.47832e-05
6.03717e-05
6.03717e-05
6.41877e-05
5.73771e-05
3.64644e-05
4.1784e-05
3.6464e-05
7.1355e-05
6.01873e-05
6.95324e-05
6.68972e-05
6.68937e-05
6.95306e-05
6.01873e-05
7.13567e-05
7.01867e-05
7.1339e-05
7.73911e-05
7.7372e-05
7.02006e-05
6.95197e-05
7.00872e-05
5.93337e-05
6.68827e-05
7.11445e-05
5.92831e-05
7.113e-05
7.01098e-05
7.00365e-05
5.93256e-05
6.68791e-05
7.11371e-05
7.11189e-05
5.92773e-05
7.00577e-05
9.23428e-05
7.2031e-05
7.20366e-05
7.20171e-05
7.20227e-05
9.23516e-05
6.95179e-05
7.01847e-05
7.13412e-05
7.74001e-05
7.73813e-05
7.01994e-05
5.95218e-05
4.17613e-05
5.05158e-05
5.05128e-05
5.04703e-05
5.04713e-05
5.95546e-05
4.80471e-05
5.25235e-05
6.0143e-05
5.85158e-05
5.84575e-05
5.24824e-05
4.80883e-05
4.80498e-05
5.25203e-05
6.01448e-05
5.85182e-05
5.24876e-05
5.84617e-05
4.80903e-05
2.10415e-05
3.66943e-05
3.66986e-05
4.19536e-05
2.18001e-05
3.75996e-05
3.76044e-05
4.26761e-05
2.25768e-05
3.8479e-05
3.8484e-05
4.33759e-05
2.3368e-05
3.93316e-05
3.93367e-05
4.40468e-05
2.41697e-05
4.01564e-05
4.01615e-05
4.46979e-05
2.4978e-05
4.0953e-05
4.09579e-05
4.53205e-05
2.57894e-05
4.17208e-05
4.17256e-05
4.59243e-05
2.66002e-05
4.24598e-05
4.24643e-05
4.64996e-05
2.7407e-05
4.317e-05
4.31741e-05
4.70531e-05
2.82066e-05
4.38512e-05
4.38551e-05
4.75858e-05
2.89962e-05
4.45041e-05
4.45078e-05
4.80909e-05
2.97732e-05
4.51288e-05
4.51323e-05
4.85806e-05
3.05353e-05
4.57256e-05
4.57288e-05
4.90457e-05
3.12802e-05
4.62947e-05
4.62979e-05
4.94943e-05
3.2006e-05
4.68365e-05
4.68397e-05
4.99143e-05
3.27112e-05
4.73514e-05
4.73548e-05
5.03217e-05
3.33942e-05
4.78399e-05
4.78433e-05
5.0703e-05
3.40536e-05
4.83022e-05
4.83056e-05
5.10696e-05
3.46886e-05
4.87387e-05
4.87423e-05
5.14164e-05
3.5298e-05
4.915e-05
4.91537e-05
5.17403e-05
3.58812e-05
4.95363e-05
4.954e-05
5.20456e-05
3.64376e-05
4.98983e-05
4.9902e-05
5.23314e-05
3.69666e-05
5.02362e-05
5.02398e-05
5.25965e-05
3.7468e-05
5.05506e-05
5.0554e-05
5.28447e-05
3.79415e-05
5.08416e-05
5.0845e-05