/*--------------------------------*- C++ -*----------------------------------*\
| =========                 |                                                 |
| \\      /  F ield         | OpenFOAM: The Open Source CFD Toolbox           |
|  \\    /   O peration     | Version:  2312                                  |
|   \\  /    A nd           | Website:  www.openfoam.com                      |
|    \\/     M anipulation  |                                                 |
\*---------------------------------------------------------------------------*/
FoamFile
{
    version     2.0;
    format      ascii;
    arch        "LSB;label=32;scalar=64";
    class       volScalarField;
    location    "850";
    object      nut;
}
// * * * * * * * * * * * * * * * * * * * * * * * * * * * * * * * * * * * * * //

dimensions      [0 2 -1 0 0 0 0];

internalField   nonuniform List<scalar> 
43496
(
9.98437e-05
2.3891e-05
0.000200498
0.000103599
0.000144125
0.000210021
9.98395e-05
5.0736e-05
0.000144119
0.000200464
0.000210019
0.000103581
0.000181929
7.78903e-05
7.79035e-05
2.38933e-05
5.0744e-05
3.67102e-05
9.98084e-05
9.44615e-05
4.10573e-05
9.44285e-05
4.10507e-05
3.6716e-05
2.03164e-05
7.90786e-05
7.90606e-05
2.03185e-05
2.38891e-05
3.67079e-05
9.98058e-05
4.1057e-05
9.44487e-05
4.10505e-05
9.44213e-05
3.67155e-05
2.03155e-05
7.90583e-05
5.07352e-05
7.90405e-05
2.03175e-05
8.14833e-05
2.17077e-05
2.17109e-05
2.17057e-05
2.17089e-05
8.14907e-05
0.000105199
4.8647e-05
7.78819e-05
0.000128755
4.86391e-05
0.000128697
0.000105222
0.000105198
4.86552e-05
7.78962e-05
0.000128783
0.000128726
4.86561e-05
0.000105219
2.38913e-05
5.07377e-05
0.000203204
0.000206574
0.000203211
0.000103559
0.000147544
0.000147506
0.00017115
0.000144026
0.000137581
0.000176518
0.000137488
0.000176381
0.000171352
0.000160601
0.000122739
0.000122672
0.000160787
0.000171177
0.000144023
0.000176509
0.000137563
0.00017638
0.000137491
0.000171297
0.000160677
0.000122721
0.00010354
0.000147519
0.000122669
0.000160696
0.000147481
0.000138286
0.000181877
0.00016173
0.000161752
0.000161709
0.000161687
0.00013832
0.00020345
0.000198754
0.000198761
0.000180595
0.00020596
0.000200156
0.000200161
0.000181604
0.000180617
0.000181557
0.000198739
0.00019872
0.000199796
0.000199772
0.000180679
0.000181469
0.000198749
0.000198726
0.000199807
0.000199783
0.000198725
0.000199807
0.000199787
0.000180674
0.000181484
0.000198737
0.000199818
0.000199796
0.000181466
0.000181572
0.000200141
0.000200121
0.00018164
0.000200151
0.000200127
0.000200126
0.000181627
0.000200138
9.97266e-05
5.07184e-05
5.07249e-05
9.96657e-05
2.38784e-05
2.38829e-05
9.97274e-05
5.0711e-05
5.07222e-05
9.96583e-05
0.000203444
0.000203456
0.000203448
0.000205341
0.000205331
0.000205347
0.000205343
0.000143715
0.00010336
0.000207742
0.000199106
0.000103446
0.000208207
0.0001435
2.38775e-05
2.38819e-05
0.000143714
0.000207748
0.000103361
0.000199118
0.000208217
0.000103447
0.000143499
7.78103e-05
7.78047e-05
0.000181052
7.78358e-05
7.78304e-05
5.07388e-05
9.97877e-05
2.38876e-05
5.07324e-05
9.97809e-05
0.000205955
0.000205965
0.000205956
0.000144123
0.00010352
0.00020958
0.000143924
0.000210021
2.38868e-05
0.000144107
0.000209586
0.000103521
0.00014393
0.00021003
7.78731e-05
7.78673e-05
0.000181914
7.7896e-05
7.78908e-05
2.38805e-05
2.38849e-05
2.38785e-05
2.38829e-05
7.78188e-05
7.78136e-05
0.00018108
7.78463e-05
7.78387e-05
2.38895e-05
2.38852e-05
2.38875e-05
2.38831e-05
0.000181089
7.78771e-05
7.78699e-05
7.78512e-05
7.7846e-05
9.97233e-05
5.07129e-05
5.07192e-05
9.96625e-05
0.00014371
0.000103361
0.000207741
0.000199096
0.000103446
0.000208208
0.000143516
0.000143705
0.000103337
0.000207734
0.000199072
0.000103423
0.0002082
0.000143512
9.97281e-05
5.07351e-05
5.07287e-05
9.97867e-05
9.9725e-05
5.07304e-05
5.07231e-05
9.97831e-05
0.000143733
0.00019945
0.000103525
0.000209126
0.000103443
0.000208672
0.000143917
0.000143729
0.000199431
0.000103501
0.000209118
0.000103419
0.000208665
0.000143913
7.7797e-05
7.78194e-05
0.000180995
7.78263e-05
7.7847e-05
2.38798e-05
2.38842e-05
2.38875e-05
2.38831e-05
0.000181154
7.78573e-05
7.78768e-05
7.78293e-05
7.78518e-05
2.38888e-05
2.38844e-05
0.000143716
0.000103352
0.000207739
0.000199106
0.000103437
0.000208206
0.000143501
9.97245e-05
5.07096e-05
5.0716e-05
9.96559e-05
0.000143713
0.000207737
0.000103343
0.000199083
0.000208204
0.000103427
0.000143498
9.97211e-05
5.07323e-05
5.07214e-05
9.97878e-05
0.000143718
0.00019946
0.000103516
0.000209125
0.000103434
0.00020867
0.000143924
9.97181e-05
5.07263e-05
5.07199e-05
9.97841e-05
0.000143715
0.000199436
0.000209123
0.000103506
0.000208668
0.000103425
0.000143921
9.97199e-05
5.07122e-05
5.07234e-05
9.96514e-05
0.000143715
0.000207738
0.000103349
0.000199087
0.000208205
0.000103433
0.000143501
9.97255e-05
5.07106e-05
5.07171e-05
9.96572e-05
0.000143717
0.000199465
0.000103524
0.000209126
0.000103442
0.000208673
0.000143922
9.97137e-05
5.07336e-05
5.07227e-05
9.97794e-05
0.000143717
0.000199435
0.000209123
0.000103512
0.000208669
0.00010343
0.000143923
9.97193e-05
5.07274e-05
5.0721e-05
9.97851e-05
7.78042e-05
7.78183e-05
0.000180999
7.78311e-05
7.78433e-05
2.38798e-05
2.38841e-05
2.38865e-05
2.38822e-05
0.000181158
7.78622e-05
7.78744e-05
7.78366e-05
7.78506e-05
2.38887e-05
2.38844e-05
0.000143705
0.000207739
0.000103342
0.000199096
0.000208207
0.000103426
0.000143491
9.97185e-05
5.07124e-05
5.07236e-05
9.96497e-05
9.97074e-05
5.0709e-05
5.07155e-05
9.96389e-05
0.000143716
0.000199471
0.000209135
0.000103525
0.000208679
0.000103443
0.000143917
0.000143708
0.000199447
0.000209125
0.000103504
0.00020867
0.000103424
0.000143902
9.97114e-05
5.07337e-05
5.07228e-05
9.97749e-05
9.97027e-05
5.07258e-05
5.07194e-05
9.97649e-05
2.38784e-05
2.38827e-05
2.38773e-05
2.38816e-05
0.000181062
7.78668e-05
7.78615e-05
7.78426e-05
7.78371e-05
2.38873e-05
2.38831e-05
2.38862e-05
2.3882e-05
2.38898e-05
2.38877e-05
7.78815e-05
7.78762e-05
5.07304e-05
9.9784e-05
0.000103521
0.000209579
0.00014394
0.000103497
0.000209572
0.000143936
7.78595e-05
7.78826e-05
2.3889e-05
0.000103512
0.000209578
0.000143925
5.07299e-05
9.97777e-05
0.000209576
0.000103503
0.000143923
9.98359e-05
5.07327e-05
9.97729e-05
0.000144124
0.000209577
0.000103509
0.000200467
0.000143925
0.000210019
0.000103585
9.98416e-05
5.0731e-05
9.97786e-05
5.0737e-05
7.78673e-05
7.78812e-05
2.3889e-05
0.000144099
0.000209578
0.000103502
0.000200477
0.000143923
0.00021002
0.000103578
9.98303e-05
5.07331e-05
9.97737e-05
9.98209e-05
5.07295e-05
9.97627e-05
5.07354e-05
2.38877e-05
2.38918e-05
2.38866e-05
2.38908e-05
3.66953e-05
4.10378e-05
9.43685e-05
9.96977e-05
4.10376e-05
9.43435e-05
3.67021e-05
2.03086e-05
5.07198e-05
7.90067e-05
7.90256e-05
2.03066e-05
2.03085e-05
7.90374e-05
5.07235e-05
7.90191e-05
2.03106e-05
3.66983e-05
9.96955e-05
4.10332e-05
9.43188e-05
4.10337e-05
9.43445e-05
3.66914e-05
2.38805e-05
2.38808e-05
3.66952e-05
9.43693e-05
4.104e-05
9.96897e-05
9.43348e-05
4.10338e-05
3.67022e-05
2.0309e-05
5.0717e-05
7.90026e-05
7.90216e-05
2.0307e-05
2.03089e-05
7.90336e-05
5.07163e-05
7.90148e-05
2.03109e-05
3.66983e-05
9.96969e-05
9.43109e-05
4.10299e-05
9.43452e-05
4.10357e-05
3.66913e-05
2.38796e-05
2.38799e-05
8.14422e-05
2.17029e-05
2.16997e-05
2.17009e-05
2.16977e-05
8.14496e-05
0.000105054
0.00012836
7.78195e-05
4.8629e-05
0.000128423
4.86289e-05
0.000105034
0.00010506
0.00012834
7.7814e-05
4.86185e-05
0.000128405
4.86184e-05
0.000105041
0.000105066
4.86337e-05
7.78267e-05
0.000128496
0.000128434
4.86337e-05
0.000105086
0.000105073
4.86232e-05
7.78212e-05
0.000128478
0.000128414
4.86232e-05
0.000105093
8.14393e-05
2.1699e-05
2.16958e-05
2.1701e-05
2.16978e-05
8.14318e-05
2.03162e-05
7.90538e-05
5.07408e-05
2.03142e-05
7.90718e-05
3.67135e-05
9.98166e-05
4.10505e-05
9.44151e-05
3.6706e-05
4.10499e-05
9.44383e-05
2.38898e-05
2.03166e-05
7.90499e-05
5.07362e-05
2.03146e-05
7.90679e-05
3.67127e-05
9.98155e-05
9.44072e-05
4.10469e-05
3.67062e-05
9.44392e-05
4.10527e-05
2.38888e-05
8.14813e-05
2.17103e-05
2.17071e-05
2.17083e-05
2.17051e-05
8.14881e-05
0.00010518
0.000128647
4.86481e-05
7.78815e-05
0.00010516
0.000128704
4.86477e-05
0.000105186
0.000128627
4.86376e-05
7.78762e-05
0.000105167
0.000128686
4.86373e-05
8.14788e-05
2.17065e-05
2.17033e-05
8.14721e-05
2.17085e-05
2.17052e-05
0.00010519
4.8652e-05
7.78878e-05
0.00012877
0.000128715
4.8653e-05
0.000105211
0.000105196
4.86413e-05
7.78819e-05
0.000128753
0.000128695
4.86423e-05
0.000105217
2.38826e-05
2.38829e-05
2.38805e-05
2.38808e-05
8.14481e-05
2.17033e-05
2.17e-05
2.17013e-05
2.1698e-05
8.14553e-05
0.000105064
0.000128374
7.78302e-05
4.86281e-05
4.86356e-05
0.000128431
0.00010504
0.000105066
0.00012835
7.78223e-05
4.86195e-05
4.86194e-05
0.000128413
0.000105042
0.000105073
4.86404e-05
7.78352e-05
0.000128504
4.86331e-05
0.000105097
0.000128448
0.000105075
4.86241e-05
7.78301e-05
0.000128486
4.86242e-05
0.000105098
0.000128424
8.14449e-05
2.16994e-05
2.16961e-05
2.17014e-05
2.16981e-05
8.14377e-05
2.38875e-05
2.38872e-05
2.38854e-05
2.38852e-05
8.14654e-05
2.17032e-05
2.16999e-05
8.14583e-05
2.17052e-05
2.17019e-05
0.000105136
0.000128645
7.78665e-05
4.86499e-05
4.86423e-05
0.000128592
0.00010516
0.000105139
0.000128627
7.78616e-05
4.86338e-05
4.86341e-05
0.000128568
0.000105159
0.000105129
4.86378e-05
0.00012852
7.78619e-05
0.000105105
4.86448e-05
0.000128575
0.000105128
4.86291e-05
0.000128497
7.78548e-05
0.000105107
4.86293e-05
0.000128557
8.14681e-05
2.17071e-05
2.17037e-05
2.1705e-05
2.17017e-05
8.14753e-05
3.66939e-05
4.10376e-05
9.43569e-05
9.96944e-05
4.10375e-05
9.4332e-05
3.67006e-05
2.0308e-05
5.07141e-05
7.89848e-05
7.90032e-05
2.03059e-05
2.03078e-05
7.90153e-05
5.0718e-05
7.89969e-05
2.03099e-05
3.66968e-05
9.96922e-05
4.1033e-05
9.43073e-05
4.10335e-05
9.43328e-05
3.669e-05
3.67058e-05
4.10416e-05
9.43677e-05
9.97574e-05
3.66992e-05
4.10422e-05
9.4393e-05
2.03123e-05
5.0734e-05
7.90607e-05
2.03144e-05
7.90426e-05
2.03125e-05
7.9031e-05
5.07304e-05
2.03104e-05
7.90493e-05
3.67027e-05
9.97582e-05
4.10464e-05
9.44163e-05
3.67093e-05
4.10457e-05
9.43913e-05
3.67044e-05
4.10416e-05
9.43563e-05
9.97541e-05
3.66978e-05
4.1042e-05
9.43814e-05
2.03116e-05
5.07278e-05
7.90382e-05
7.9021e-05
2.03137e-05
2.03118e-05
7.90089e-05
5.07249e-05
2.03097e-05
7.90271e-05
3.67011e-05
9.97551e-05
4.10462e-05
9.44048e-05
4.10459e-05
9.43801e-05
3.6708e-05
8.14457e-05
2.17e-05
2.17031e-05
2.1698e-05
2.1701e-05
8.14519e-05
0.000105061
0.000128341
7.78101e-05
4.86192e-05
4.86193e-05
0.000128399
0.000105043
0.000105059
0.000128372
7.78307e-05
4.86268e-05
0.000128433
4.86342e-05
0.00010504
0.000105075
4.86238e-05
7.78136e-05
0.000128472
4.86238e-05
0.000128415
0.000105094
0.000105072
4.8639e-05
7.78357e-05
0.000128506
0.000128446
4.86318e-05
0.000105092
8.14415e-05
2.16961e-05
2.16991e-05
2.16981e-05
2.17012e-05
8.14353e-05
2.38819e-05
2.38821e-05
2.38854e-05
2.38852e-05
8.14621e-05
2.16999e-05
2.17029e-05
8.14557e-05
2.17019e-05
2.17049e-05
0.000105138
0.000128613
7.78446e-05
4.86334e-05
0.000128558
4.86336e-05
0.000105157
0.000105135
0.000128647
7.78673e-05
4.86471e-05
4.8642e-05
0.000128589
0.000105154
0.000105125
4.86286e-05
0.000128487
7.78416e-05
0.000128543
0.000105107
4.86288e-05
0.000105123
4.86367e-05
0.000128518
7.78623e-05
0.000105104
4.86431e-05
0.000128577
8.14657e-05
2.17037e-05
2.17068e-05
2.17017e-05
2.17048e-05
8.1472e-05
2.38867e-05
2.38865e-05
3.66934e-05
4.10398e-05
9.43591e-05
9.96869e-05
4.10336e-05
9.4325e-05
3.67003e-05
2.03081e-05
5.07109e-05
7.89822e-05
7.90008e-05
2.0306e-05
2.03079e-05
7.9013e-05
5.07146e-05
7.89945e-05
2.031e-05
3.66965e-05
9.96936e-05
4.10296e-05
9.43008e-05
4.10354e-05
9.43345e-05
3.66895e-05
3.67057e-05
9.43597e-05
4.10384e-05
9.97577e-05
3.6699e-05
9.43935e-05
4.10442e-05
2.03127e-05
5.07264e-05
7.90569e-05
2.03147e-05
7.90383e-05
2.03128e-05
7.90268e-05
5.0727e-05
2.03108e-05
7.90454e-05
3.67029e-05
9.97513e-05
9.44175e-05
4.10488e-05
3.67089e-05
9.43835e-05
4.10427e-05
3.6704e-05
4.10381e-05
9.43499e-05
9.9755e-05
3.66973e-05
4.10441e-05
9.43835e-05
2.03117e-05
5.07252e-05
7.90364e-05
7.90182e-05
2.03138e-05
2.03119e-05
7.90065e-05
5.07214e-05
2.03098e-05
7.90249e-05
3.67009e-05
9.97482e-05
4.10484e-05
9.44066e-05
4.10423e-05
9.43737e-05
3.67074e-05
3.66949e-05
9.4358e-05
4.10396e-05
9.96826e-05
9.43242e-05
4.10332e-05
3.67023e-05
2.03092e-05
5.07182e-05
7.89995e-05
7.90116e-05
2.03071e-05
2.0309e-05
7.90237e-05
5.07176e-05
7.90116e-05
2.03112e-05
3.66984e-05
9.96889e-05
9.42996e-05
4.10292e-05
9.43336e-05
4.10352e-05
3.66911e-05
3.66939e-05
4.10403e-05
9.43616e-05
9.96882e-05
4.10341e-05
9.43273e-05
3.67008e-05
2.03083e-05
5.0712e-05
7.89824e-05
7.90017e-05
2.03062e-05
2.03081e-05
7.90137e-05
5.07157e-05
7.89946e-05
2.03102e-05
3.6697e-05
9.96946e-05
4.10301e-05
9.43033e-05
4.10359e-05
9.43373e-05
3.669e-05
3.6706e-05
9.43489e-05
4.10377e-05
9.97502e-05
3.66987e-05
9.43821e-05
4.10439e-05
2.03128e-05
5.07277e-05
7.90467e-05
7.90349e-05
2.03149e-05
2.03131e-05
7.90235e-05
5.07282e-05
2.03109e-05
7.90354e-05
3.67024e-05
9.97437e-05
9.44053e-05
4.10481e-05
9.43726e-05
4.10419e-05
3.67094e-05
3.67045e-05
4.10386e-05
9.43521e-05
9.97559e-05
3.66977e-05
4.10446e-05
9.43859e-05
2.03119e-05
5.07262e-05
7.90367e-05
7.90184e-05
2.0314e-05
2.03121e-05
7.90066e-05
5.07225e-05
2.031e-05
7.90253e-05
3.67014e-05
9.97494e-05
4.10488e-05
9.44089e-05
4.10427e-05
9.43759e-05
3.67079e-05
8.14442e-05
2.17003e-05
2.17035e-05
2.16982e-05
2.17015e-05
8.14518e-05
0.000105067
0.000128341
7.7815e-05
4.86158e-05
4.86231e-05
0.000128406
0.000105043
0.000105062
0.000128372
7.78272e-05
4.86319e-05
0.000128435
4.86318e-05
0.000105042
0.000105076
4.86278e-05
7.78205e-05
0.000128479
4.86207e-05
0.000128416
0.000105099
0.000105075
4.86365e-05
7.78347e-05
0.000128508
0.000128446
4.86365e-05
0.000105094
8.14414e-05
2.16963e-05
2.16996e-05
2.16984e-05
2.17016e-05
8.14337e-05
2.38818e-05
2.38821e-05
2.38845e-05
2.38842e-05
8.14618e-05
2.17001e-05
2.17034e-05
8.14544e-05
2.17021e-05
2.17054e-05
0.000105139
0.00012862
7.78517e-05
4.86372e-05
0.000128559
4.86299e-05
0.000105162
0.000105138
0.000128649
7.78662e-05
4.86461e-05
4.86465e-05
0.000128589
0.000105157
0.000105131
4.86255e-05
0.000128488
7.7847e-05
0.00012855
0.000105108
4.86323e-05
0.000105126
4.86415e-05
0.000128518
7.78592e-05
0.000105107
4.86417e-05
0.000128579
8.14643e-05
2.1704e-05
2.17072e-05
2.1702e-05
2.17052e-05
8.14716e-05
2.38867e-05
2.38864e-05
3.66957e-05
9.43701e-05
4.10395e-05
9.96807e-05
9.4336e-05
4.10331e-05
3.67027e-05
2.03097e-05
5.07184e-05
7.90035e-05
7.90227e-05
2.03076e-05
2.03096e-05
7.90347e-05
5.07177e-05
7.90157e-05
2.03116e-05
3.66989e-05
9.96873e-05
9.4312e-05
4.10292e-05
9.4346e-05
4.10352e-05
3.66918e-05
3.66925e-05
9.435e-05
4.10391e-05
9.96705e-05
9.43156e-05
4.10325e-05
3.66997e-05
2.03078e-05
5.07104e-05
7.89803e-05
7.89993e-05
2.03057e-05
2.03076e-05
7.90113e-05
5.07141e-05
7.89926e-05
2.03097e-05
3.66959e-05
9.96771e-05
9.42913e-05
4.10285e-05
9.43255e-05
4.10347e-05
3.66886e-05
3.67063e-05
9.43608e-05
4.10377e-05
9.97481e-05
3.66996e-05
9.43942e-05
4.10438e-05
2.03134e-05
5.07277e-05
7.90578e-05
7.90394e-05
2.03154e-05
2.03135e-05
7.90277e-05
5.07285e-05
2.03115e-05
7.90464e-05
3.67032e-05
9.9744e-05
9.44174e-05
4.1048e-05
9.43844e-05
4.10418e-05
3.67097e-05
3.67034e-05
9.43402e-05
4.1037e-05
9.97364e-05
3.66964e-05
9.43735e-05
4.10433e-05
2.03114e-05
5.07247e-05
7.90343e-05
7.9016e-05
2.03135e-05
2.03116e-05
7.90045e-05
5.07209e-05
2.03095e-05
7.90229e-05
3.67e-05
9.97332e-05
9.43941e-05
4.10476e-05
9.43662e-05
4.10412e-05
3.67067e-05
2.38804e-05
2.38807e-05
2.38793e-05
2.38797e-05
8.14596e-05
2.17028e-05
2.16995e-05
8.14524e-05
2.17048e-05
2.17015e-05
0.000105129
0.000128636
7.7858e-05
4.86432e-05
0.000105149
0.000128578
4.86435e-05
0.000105136
0.000128618
7.78523e-05
4.86328e-05
0.000105155
0.000128557
4.8633e-05
0.000105118
4.86386e-05
0.000128506
7.78512e-05
0.000105098
0.000128566
4.86389e-05
0.000105124
4.86281e-05
0.000128486
7.7846e-05
0.000105105
0.000128548
4.86285e-05
8.14623e-05
2.17066e-05
2.17034e-05
8.14693e-05
2.17046e-05
2.17014e-05
2.38854e-05
2.3885e-05
2.38843e-05
2.3884e-05
2.38918e-05
2.38897e-05
0.000105191
0.000128661
4.8647e-05
7.78928e-05
0.000105166
4.86552e-05
0.000128714
0.000105192
0.000128637
4.86377e-05
7.78862e-05
0.000105169
4.86398e-05
0.000128696
8.14851e-05
2.17069e-05
2.17036e-05
8.14777e-05
2.17089e-05
2.17056e-05
2.03155e-05
7.90321e-05
5.07373e-05
2.03135e-05
7.90492e-05
3.6712e-05
9.98132e-05
4.10499e-05
9.44042e-05
4.10514e-05
3.67048e-05
9.44269e-05
0.000105187
0.000128627
4.86372e-05
7.78728e-05
4.86393e-05
0.000105168
0.000128681
0.000105184
0.000128658
4.86497e-05
7.78914e-05
0.000128715
0.000105166
4.86493e-05
8.14813e-05
2.17036e-05
2.17066e-05
2.17056e-05
8.14754e-05
2.17086e-05
2.03156e-05
7.90296e-05
5.07315e-05
2.03136e-05
7.90474e-05
3.67112e-05
9.98123e-05
4.10466e-05
9.43974e-05
4.10523e-05
3.67048e-05
9.44282e-05
3.67101e-05
9.98011e-05
4.10568e-05
9.44177e-05
4.10499e-05
2.03168e-05
7.90462e-05
5.0739e-05
7.90582e-05
2.03147e-05
3.6713e-05
9.98078e-05
9.43958e-05
4.10462e-05
9.44276e-05
3.67064e-05
4.10521e-05
2.03166e-05
3.67082e-05
9.98066e-05
4.10575e-05
9.44538e-05
4.10509e-05
9.44208e-05
3.67164e-05
2.03159e-05
7.90296e-05
5.07324e-05
2.03138e-05
7.90477e-05
3.67117e-05
9.98134e-05
4.10471e-05
9.43992e-05
3.67053e-05
4.10528e-05
9.44313e-05
2.03157e-05
7.90584e-05
5.07362e-05
7.90405e-05
2.03177e-05
0.000105192
0.000128629
4.86351e-05
7.78768e-05
4.86418e-05
0.00010517
0.000128688
0.000105187
0.000128658
4.86509e-05
7.78891e-05
0.000128717
0.000105169
4.86512e-05
8.14812e-05
2.17038e-05
2.17071e-05
2.17058e-05
8.1474e-05
2.17091e-05
2.3891e-05
3.67101e-05
9.98023e-05
9.44571e-05
4.10567e-05
9.44336e-05
4.10499e-05
3.6718e-05
2.03173e-05
7.90506e-05
5.07386e-05
7.90687e-05
2.03153e-05
3.67135e-05
9.98034e-05
9.44081e-05
4.10462e-05
9.44381e-05
3.67071e-05
4.1052e-05
2.03171e-05
7.9079e-05
7.90617e-05
2.03192e-05
3.67068e-05
9.97913e-05
9.44371e-05
4.10562e-05
9.4413e-05
4.10493e-05
3.6715e-05
2.03154e-05
7.90273e-05
5.07308e-05
2.03133e-05
7.90453e-05
3.67104e-05
9.97938e-05
9.43902e-05
4.10455e-05
3.67041e-05
9.4416e-05
4.10515e-05
2.03152e-05
7.90559e-05
5.07347e-05
7.90383e-05
2.03172e-05
2.38896e-05
2.38899e-05
2.38885e-05
2.38889e-05
0.000199215
0.000199214
0.000204086
0.000200025
0.000200024
0.000189322
0.000188299
0.000137899
0.000160886
0.000160877
0.00018082
0.000160986
0.000160972
0.000137853
0.000202421
0.00020242
0.000193387
0.000192376
0.000138236
0.000161536
0.000161534
0.000181692
0.000138197
0.000161591
0.000161584
0.00013791
0.000160913
0.000160895
0.000180842
0.000160996
0.000160983
0.000137864
0.000138122
0.000181335
0.000161468
0.000161454
0.000161384
0.000161373
0.000138167
0.0001379
0.000160895
0.000160917
0.000180756
0.000160974
0.000160951
0.000137863
0.000138121
0.000181401
0.000161424
0.000161446
0.000161369
0.000161389
0.000138157
0.000137902
0.000160898
0.000160928
0.000180758
0.000160984
0.000160953
0.000137863
0.000138122
0.000181408
0.000161435
0.000161451
0.00016138
0.000161397
0.000138158
0.000138114
0.000181341
0.000161443
0.000161422
0.000138152
0.000161376
0.00016137
0.000138251
0.000161539
0.000161526
0.000181791
0.000138204
0.000161626
0.000161612
0.000138239
0.000161527
0.000161549
0.00018168
0.00016159
0.000138203
0.000161563
0.00013824
0.000161525
0.000161547
0.000181711
0.000161602
0.000138205
0.000161581
0.000199213
0.000199215
0.000204077
0.000200022
0.000200022
0.000189321
0.000188299
0.000199222
0.000199226
0.000204092
0.000200031
0.000200036
0.00018933
0.000188307
0.000199222
0.000199222
0.000204088
0.00020003
0.000200034
0.00018933
0.000188308
0.000204718
0.000201628
0.000201626
0.00020083
0.000200829
0.000190343
0.00019136
0.000204712
0.000201625
0.000201624
0.000200828
0.00020083
0.000190343
0.00019136
0.000204724
0.000201634
0.000201639
0.000200837
0.00020084
0.000190351
0.000191369
0.000204715
0.000201632
0.000201638
0.000200838
0.000200836
0.000190351
0.000191368
0.000170425
0.000137229
0.000175661
0.000143609
0.000137133
0.000175522
0.000170555
0.000159998
0.000146889
0.000103405
0.000122356
0.000146967
0.000122423
0.000159868
0.000160026
0.000122489
0.000103402
0.00014709
0.000147016
0.000122422
0.00016016
0.000170342
0.000143607
0.000137041
0.000175292
0.000137137
0.000175432
0.000170224
0.000170425
0.000175662
0.000137236
0.000143608
0.000175523
0.000137138
0.000170565
0.000160005
0.000146894
0.000103406
0.000122361
0.00014697
0.000122431
0.000159873
0.000160029
0.000122497
0.000103402
0.000147093
0.000147019
0.000122427
0.000160167
0.000170351
0.000143606
0.000175293
0.000137047
0.000175433
0.000137144
0.000170228
0.000137942
0.000180836
0.000161142
0.00016112
0.000161051
0.000161041
0.000137982
0.000202418
0.000202421
0.000203202
0.000193387
0.000192376
0.000202427
0.000202431
0.000203217
0.000193395
0.000192384
0.000202429
0.000202425
0.000206573
0.000203208
0.000203219
0.000193395
0.000192384
0.000171176
0.000144025
0.000137579
0.000176517
0.000137488
0.000176379
0.00017133
0.000160637
0.000147384
0.000122617
0.000103563
0.000160479
0.000147445
0.00012268
0.000171138
0.000144023
0.000137404
0.000176163
0.000170979
0.000137494
0.000176302
0.000171169
0.000144033
0.000176444
0.000137573
0.000176421
0.000137505
0.000171324
0.00016062
0.000147382
0.000122625
0.000103562
0.000160474
0.000147429
0.000122683
0.000171142
0.000144012
0.000176162
0.000137413
0.000170974
0.00017626
0.000137496
0.000160648
0.00012274
0.000122686
0.000160737
0.000138278
0.000181854
0.000161732
0.000161721
0.000161696
0.000161682
0.000138315
0.000137952
0.000180859
0.000161153
0.000161147
0.000137997
0.00016107
0.00016105
0.000138082
0.000181312
0.000161224
0.000161208
0.000138037
0.000161308
0.000161298
0.000170448
0.000137224
0.000175603
0.000143627
0.00013715
0.000175588
0.000170516
0.000159948
0.000146905
0.000103405
0.00012236
0.000122424
0.000146942
0.000159911
0.000160069
0.00012249
0.000103402
0.000147067
0.000122428
0.00014703
0.000160104
0.000170321
0.000143602
0.000137057
0.000175354
0.000137133
0.000175375
0.000170244
0.000170433
0.000137211
0.000175596
0.000143622
0.000137137
0.000175583
0.000170498
0.000159923
0.000146873
0.000103382
0.000122344
0.000122404
0.00014691
0.000159887
0.000160045
0.00012247
0.000103379
0.000147035
0.000122411
0.000160079
0.000146998
0.000170303
0.000143598
0.000137044
0.000175349
0.000137119
0.00017537
0.00017023
0.00017071
0.000137242
0.0001758
0.000143816
0.000170649
0.000137316
0.000175816
0.000160387
0.000147308
0.000103483
0.000122618
0.000147275
0.000122559
0.00016041
0.000160254
0.000122493
0.000147151
0.000103486
0.000147189
0.000160229
0.000122555
0.000170848
0.000143838
0.000137405
0.000176021
0.000137332
0.000176016
0.000170905
0.000170695
0.000137229
0.000175795
0.000143811
0.000170634
0.000137303
0.000175811
0.000160362
0.000147275
0.000103459
0.000122599
0.000122542
0.000147243
0.000160389
0.000160229
0.000122477
0.000147118
0.000103462
0.000160205
0.000122536
0.000147156
0.000170831
0.000143834
0.000137391
0.000176015
0.000137319
0.00017601
0.000170891
0.00013795
0.000180917
0.000161113
0.000161137
0.000161078
0.000161056
0.000137987
0.000138072
0.00018124
0.000161211
0.000161233
0.000161272
0.000138037
0.000161295
0.000170412
0.000137229
0.000175659
0.00014361
0.000137132
0.00017552
0.000170552
0.000159986
0.000146871
0.000103397
0.000122351
0.000122421
0.000146948
0.000159852
0.000160008
0.000122487
0.000103393
0.000147071
0.000122417
0.000146997
0.00016015
0.000170337
0.000143608
0.00013704
0.000175291
0.000137137
0.00017543
0.000170214
0.00017042
0.000175656
0.000137221
0.000143607
0.000175518
0.000137124
0.000170528
0.000159932
0.000146878
0.000103386
0.000122345
0.000122406
0.000146915
0.000159893
0.00016005
0.000122472
0.000103385
0.00014704
0.000122413
0.00016009
0.000147002
0.00017032
0.000143605
0.000175289
0.000137032
0.000175428
0.000137129
0.000170216
0.000170762
0.000137225
0.000175734
0.000143821
0.000170597
0.000137321
0.000175873
0.000160301
0.000147312
0.000103473
0.000122617
0.00014724
0.000122548
0.000160473
0.000160317
0.000122484
0.000147118
0.000103477
0.00014719
0.000160161
0.000122552
0.000170771
0.000143823
0.000137409
0.00017609
0.000137315
0.000175952
0.000170955
0.000170733
0.000175732
0.000137217
0.000143818
0.000170616
0.000175869
0.000137312
0.000160367
0.000147283
0.000103465
0.000122601
0.000122544
0.000147247
0.0001604
0.000160242
0.000122478
0.000147123
0.000103467
0.000160211
0.000122538
0.000147162
0.000170803
0.00014382
0.000176086
0.000137401
0.00017595
0.000137307
0.000170939
0.000170416
0.00017566
0.000137225
0.00014361
0.000175522
0.000137128
0.000170548
0.000159982
0.000146888
0.000103393
0.000122345
0.000146927
0.000122415
0.000159852
0.00016001
0.000122482
0.00010339
0.000147051
0.000147012
0.000122412
0.000160144
0.000170334
0.000143607
0.000175293
0.000137036
0.000175432
0.000137133
0.000170214
0.000170765
0.000137225
0.000175736
0.000143819
0.000170612
0.000137319
0.000175874
0.000160325
0.000147331
0.000103482
0.000122618
0.000160484
0.000147257
0.000122554
0.000160326
0.000122489
0.000147136
0.000103486
0.000160181
0.000147208
0.000122554
0.000170787
0.000143822
0.000137409
0.00017609
0.000170954
0.000137315
0.000175954
0.000170757
0.000175735
0.000137221
0.00014382
0.000170605
0.000175873
0.000137316
0.000160311
0.000147294
0.00010347
0.00012261
0.000122543
0.000147258
0.000160472
0.00016031
0.000122478
0.000147135
0.000103473
0.000160167
0.000122546
0.000147174
0.000170781
0.000143822
0.00017609
0.000137405
0.000175953
0.000137311
0.000170954
0.000137951
0.000180921
0.000161111
0.000161137
0.000161079
0.000161058
0.000137989
0.000138075
0.000181243
0.00016122
0.000161238
0.000161274
0.000138038
0.000161297
0.000170408
0.000175654
0.000137215
0.0001436
0.000175516
0.000137118
0.000170537
0.000159971
0.000146875
0.000103386
0.000122337
0.000146914
0.000122408
0.000159843
0.000160002
0.000122473
0.000103383
0.000147037
0.000146999
0.000122404
0.000160126
0.000170326
0.000143597
0.000175288
0.000137026
0.000175427
0.000137122
0.000170207
0.000170773
0.000175736
0.000137232
0.000143819
0.00017061
0.000175873
0.000137326
0.000160324
0.00014732
0.000103483
0.000122625
0.000160487
0.000147262
0.000122558
0.000160333
0.000122493
0.00014714
0.000103487
0.000160182
0.00014721
0.000122562
0.000170785
0.000143821
0.000176077
0.000137415
0.000170959
0.000175951
0.000137322
0.000170741
0.000175729
0.000137212
0.000143808
0.000170601
0.000175864
0.000137301
0.000160349
0.000147279
0.000103464
0.000122597
0.000122538
0.000147244
0.000160408
0.00016026
0.000122472
0.000147121
0.000103466
0.000160164
0.000122535
0.00014716
0.000170784
0.000143818
0.000176053
0.000137383
0.000175942
0.000137308
0.000170936
0.000138068
0.000181254
0.000161209
0.0001612
0.000138029
0.000161289
0.000161268
0.000160559
0.000147392
0.000122622
0.000103562
0.000122679
0.000160547
0.000147435
0.000171092
0.000144022
0.000137422
0.000176245
0.00013749
0.000171041
0.000176223
0.000160539
0.00014736
0.000122605
0.00010354
0.000160517
0.000122659
0.000147401
0.000171081
0.000144018
0.000137409
0.000176239
0.00017102
0.000137476
0.000176217
0.000160631
0.000147366
0.000122612
0.000103554
0.000122677
0.000160453
0.000147422
0.000171149
0.000144025
0.000137403
0.000176166
0.000137495
0.000170964
0.0001763
0.000160549
0.00014736
0.000122606
0.000103543
0.000160519
0.000122663
0.000147399
0.000171136
0.000144022
0.000176165
0.000137396
0.000170982
0.000176297
0.000137484
0.000171162
0.000144026
0.000176519
0.000137577
0.000176383
0.000137484
0.000171345
0.000160631
0.000147374
0.000122606
0.000103549
0.000147409
0.000160455
0.000122671
0.000171145
0.000144024
0.000176167
0.000137399
0.000176302
0.00017097
0.00013749
0.000160593
0.000122733
0.000103547
0.000147522
0.00014749
0.000122667
0.000160785
0.000171202
0.000144026
0.00017643
0.000137552
0.000176426
0.000137486
0.000171272
0.000160548
0.000147363
0.000122602
0.000103542
0.000147406
0.000160516
0.00012266
0.000171109
0.000144004
0.000176187
0.000137399
0.000176248
0.000170979
0.000137471
0.000160682
0.000122718
0.000103541
0.000147508
0.000147474
0.000122664
0.000160685
0.000138643
0.000136826
0.000138659
5.00161e-05
9.38096e-05
2.36114e-05
7.37195e-05
7.37336e-05
2.36127e-05
9.38203e-05
5.00178e-05
2.01023e-05
5.00074e-05
7.60425e-05
7.60012e-05
2.01043e-05
2.36093e-05
9.72766e-05
0.000112662
7.36911e-05
4.79288e-05
0.000112492
4.79276e-05
9.73307e-05
9.72622e-05
0.000112678
7.37012e-05
4.79432e-05
4.79336e-05
0.000112514
9.73203e-05
7.88234e-05
2.14898e-05
2.14928e-05
2.14878e-05
2.14907e-05
7.88413e-05
2.36105e-05
2.01033e-05
5.00095e-05
7.60519e-05
7.60093e-05
2.01054e-05
0.000119498
0.000136529
0.000129928
0.00012992
0.000129639
0.000129655
0.00011963
0.00012838
0.000122171
9.36869e-05
0.000107733
0.000107543
0.000121989
0.000128752
0.000128389
0.000122154
9.37043e-05
0.000107744
0.000122047
0.000107542
0.000128755
0.000123072
0.000139445
0.000139457
0.000137241
0.000125871
0.000142568
0.000142582
0.000139667
0.000128829
0.000145654
0.000145669
0.000142056
0.000131925
0.000148698
0.000148713
0.000144361
0.000135137
0.000151694
0.000151707
0.000146643
0.000138447
0.000154633
0.000154645
0.000148838
0.000141835
0.000157511
0.000157524
0.000151009
0.000145284
0.000160328
0.000160339
0.000153088
0.000148775
0.00016308
0.000163091
0.000155117
0.000152293
0.000165766
0.000165775
0.000157094
0.000155825
0.000168384
0.000168393
0.000158982
0.000159357
0.000170933
0.000170942
0.000160854
0.000162877
0.000173413
0.00017342
0.000162647
0.000166371
0.000175819
0.000175827
0.000164413
0.000169832
0.000178153
0.00017816
0.000166067
0.000173249
0.000180411
0.000180419
0.000167713
0.000176614
0.000182595
0.000182603
0.00016926
0.000179919
0.000184702
0.00018471
0.000170783
0.000183156
0.000186732
0.00018674
0.000172243
0.00018632
0.000188684
0.000188693
0.000173619
0.000189403
0.000190558
0.000190567
0.000174938
0.000192401
0.000192354
0.000192363
0.000176193
0.000195308
0.000194072
0.000194081
0.000177371
0.000198121
0.000195712