/*--------------------------------*- C++ -*----------------------------------*\
| =========                 |                                                 |
| \\      /  F ield         | OpenFOAM: The Open Source CFD Toolbox           |
|  \\    /   O peration     | Version:  2312                                  |
|   \\  /    A nd           | Website:  www.openfoam.com                      |
|    \\/     M anipulation  |                                                 |
\*---------------------------------------------------------------------------*/
FoamFile
{
    version     2.0;
    format      ascii;
    arch        "LSB;label=32;scalar=64";
    class       surfaceScalarField;
    location    "850";
    object      phi;
}
// * * * * * * * * * * * * * * * * * * * * * * * * * * * * * * * * * * * * * //

dimensions      [0 3 -1 0 0 0 0];

oriented        oriented;

internalField   nonuniform List<scalar> 
125567
(
-7.02116e-08
-1.55672e-10
-0.000229369
2.15219e-09
2.99817e-08
-6.91372e-09
-1.9729e-08
-9.80153e-05
1.241e-06
-1.22903e-07
2.69121e-07
-2.15105e-07
-1.19371e-06
2.77493e-07
-2.36804e-07
-0.00113202
-5.54078e-08
-8.52629e-07
9.11335e-07
2.07793e-08
4.3618e-08
-0.000245491
-1.02571e-07
-1.66919e-08
-1.6676e-09
-0.00025013
4.05232e-09
-1.93208e-07
-3.25542e-09
-1.52991e-07
-9.38563e-07
8.31125e-07
-7.56614e-07
1.01142e-06
-0.00115229
-7.02035e-08
-0.000229329
2.99706e-08
2.20123e-09
-4.35392e-08
3.24788e-09
-0.000193597
-0.000250103
-1.93208e-07
4.33814e-09
-4.98577e-08
1.27246e-06
-1.28193e-07
-8.57951e-07
2.69021e-07
9.16508e-07
-2.1517e-07
-1.2279e-06
2.80229e-07
-2.42377e-07
-0.00113153
-1.58763e-07
-9.38632e-07
8.31145e-07
-7.56651e-07
1.01146e-06
-0.00115224
2.32272e-08
-1.67313e-08
-0.000245388
-1.02493e-07
-0.000268079
2.4186e-07
2.46811e-07
1.05172e-08
-0.00027816
-4.61781e-08
1.9809e-08
1.05224e-08
-0.000278296
-4.84618e-08
-6.85673e-09
-9.80381e-05
-0.000193655
3.36001e-09
1.24212e-08
-7.93877e-10
0.000143419
-5.39388e-11
-0.00014343
7.39771e-10
-1.11214e-08
1.61713e-11
2.86535e-08
-0.000229387
-0.000223421
2.88768e-08
4.37845e-09
-7.17166e-08
-0.000171124
-3.33561e-10
8.87284e-12
8.98958e-10
3.30226e-08
-0.000223442
2.57194e-12
-0.000171136
1.46819e-09
1.70216e-08
7.92981e-05
-7.93151e-05
-0.000263317
2.42607e-08
-6.15997e-08
3.32205e-08
-0.000263336
5.00437e-09
1.1285e-08
-9.80316e-05
-7.9198e-10
1.23698e-08
0.000143346
-4.08777e-11
-0.000143358
-1.11219e-08
9.34091e-10
2.86549e-08
-0.000229348
-0.000171089
-1.29757e-10
-0.000223323
2.88315e-08
4.39022e-09
-6.92451e-08
-0.000171101
9.21262e-10
3.05752e-08
-0.000223341
1.51783e-09
1.69858e-08
7.92537e-05
-7.92707e-05
-0.000263189
2.41489e-08
-5.91235e-08
-3.88037e-09
2.25647e-08
-0.000193611
3.08282e-08
-0.000263206
-7.02869e-09
-7.01376e-09
0.000213783
1.22321e-08
1.01601e-08
-0.000213792
-8.05424e-05
-1.227e-08
-1.20114e-08
-8.0566e-05
-1.22393e-08
-1.20375e-08
9.39067e-09
-8.05588e-05
9.40104e-09
-8.05824e-05
-2.70392e-08
-2.49719e-08
-1.43091e-08
1.57859e-08
0.000221868
2.90771e-08
-0.000221886
-0.000183016
-3.11651e-08
-7.3433e-09
2.0373e-08
1.21918e-08
-0.000278174
-0.000250575
3.60219e-08
-5.49561e-08
-9.97441e-08
-0.000183028
3.19849e-08
6.12489e-08
-0.000250632
-5.75122e-08
1.58041e-08
-1.42824e-08
0.000221956
3.11924e-08
-0.000221979
-0.000183097
-3.1149e-08
2.25812e-08
-7.33508e-09
-1.13044e-08
9.74927e-09
-0.00027831
-0.000250748
3.60985e-08
-5.23961e-08
-9.97765e-08
2.94142e-08
6.11597e-08
-0.000250801
-0.00018311
-5.95816e-08
4.99966e-09
-9.80544e-05
2.25498e-08
-0.000193668
-3.85131e-09
2.23284e-09
-0.00121558
-1.00019e-07
-7.51766e-08
-0.00118363
-1.03957e-07
-0.0012147
-1.17925e-07
6.40343e-08
-0.000245527
4.05767e-09
-0.000260376
-2.73849e-08
-0.000260506
8.0387e-09
-1.53054e-07
1.52883e-09
0.000265678
-1.05537e-08
-0.000266455
4.96794e-10
1.32112e-07
3.08301e-10
-0.000250234
-0.000249561
-2.11793e-07
1.03614e-08
-0.000265854
7.06712e-09
-6.61059e-09
7.98561e-10
-0.000249681
3.86551e-09
-0.000266481
2.70807e-08
-1.39142e-07
0.000264002
-0.000264718
-0.000250756
-1.86138e-07
-0.000250855
-2.23911e-09
-1.50455e-07
0.000265609
2.20591e-09
-0.000266397
1.3212e-07
1.40559e-09
-0.000250208
-0.000265836
5.56664e-09
-0.000249476
-2.11754e-07
1.03894e-08
-0.000266459
7.671e-10
-0.000249595
1.42573e-08
-1.36684e-07
0.000263902
-8.09565e-09
-0.000264613
-0.000250651
-1.88622e-07
4.0548e-09
6.16646e-08
-0.000245419
-2.74208e-08
-0.000260269
-0.000250752
-0.000260398
7.49188e-08
7.75209e-08
0.00024288
-0.000242972
-2.03188e-07
-1.9825e-07
-0.000270099
-0.000261131
1.12524e-07
-0.000260783
1.09923e-07
-0.000261087
-0.000261433
1.19298e-07
1.19601e-07
-7.10049e-08
-7.11153e-08
0.00118445
-0.00118455
-1.19688e-06
-1.19579e-07
-5.4318e-08
0.00113224
-2.37043e-07
1.24124e-06
2.74926e-07
9.11269e-07
-2.15442e-07
2.69169e-07
-8.53091e-07
-0.00113226
-1.19421e-06
-1.19648e-07
-4.86123e-08
0.0011321
-2.34324e-07
1.23849e-06
2.74916e-07
9.11265e-07
-2.15443e-07
2.69231e-07
-8.53049e-07
-0.00113213
1.22548e-06
1.18891e-06
-1.98242e-07
-2.0094e-07
0.000268045
-0.00027006
1.22039e-07
1.2803e-07
-0.00118417
-7.42745e-08
-7.44492e-08
-0.00113216
-1.19649e-06
-1.22355e-07
-3.87722e-08
-2.36817e-07
1.24109e-06
2.74773e-07
9.11181e-07
-2.15197e-07
-8.52623e-07
2.69081e-07
-0.00113203
-1.19378e-06
-1.22331e-07
-6.64141e-08
-2.36845e-07
1.23833e-06
2.74783e-07
9.1127e-07
-2.15149e-07
-8.52667e-07
2.69151e-07
-0.000270066
1.22772e-06
1.18315e-06
-1.92872e-07
-2.03336e-07
0.000268051
1.23636e-06
1.19441e-06
-1.95713e-07
-2.03526e-07
0.000268099
-0.00027013
-1.2805e-06
-1.23862e-06
0.000270136
-0.000268103
2.39216e-07
2.47063e-07
-4.84961e-08
0.00113168
-2.39809e-07
1.28059e-06
2.77507e-07
9.13972e-07
-2.12744e-07
2.6638e-07
-8.55884e-07
-0.00113171
-1.23381e-06
-1.19295e-07
-4.84167e-08
0.00113175
-2.42707e-07
1.278e-06
2.8033e-07
9.19141e-07
-2.15457e-07
2.69091e-07
-8.60991e-07
-0.00113178
0.00113161
-1.21366e-07
-0.00113164
-4.93396e-08
-1.23603e-06
2.77417e-07
-2.39615e-07
-8.55555e-07
2.6633e-07
-2.12517e-07
9.13981e-07
1.27521e-06
0.00113168
-1.21502e-07
-0.0011317
-4.93567e-08
-1.23348e-06
2.77512e-07
-2.42488e-07
-8.60646e-07
2.69051e-07
-2.15205e-07
9.16507e-07
-1.98387e-07
-2.00858e-07
0.000268084
-0.000270116
-1.24114e-06
0.000270119
-0.000268088
2.41983e-07
2.44322e-07
-4.86377e-08
0.00113269
-2.37202e-07
1.23871e-06
2.75045e-07
9.16637e-07
-2.15493e-07
2.69272e-07
-8.58395e-07
-0.00113271
-1.22837e-06
-1.19285e-07
-4.84756e-08
0.00113162
-2.42671e-07
1.27259e-06
2.80356e-07
9.16545e-07
-2.1278e-07
2.66424e-07
-8.58434e-07
-0.00113165
0.00113261
-1.21667e-07
-0.00113264
-4.94728e-08
-1.19409e-06
2.74952e-07
-2.36995e-07
-8.58072e-07
2.69222e-07
-2.15285e-07
9.16638e-07
1.27252e-06
0.00113155
-1.27013e-07
-0.00113157
-4.93355e-08
-1.22806e-06
2.80273e-07
-2.42465e-07
-8.58114e-07
2.66364e-07
-2.12558e-07
9.16545e-07
-1.19451e-07
-4.85297e-08
0.00113125
-2.39775e-07
1.2697e-06
2.77504e-07
9.08453e-07
-2.09967e-07
2.63681e-07
-8.50335e-07
-0.00113128
-1.2175e-07
-0.00113219
-4.4001e-08
-1.19657e-06
2.74839e-07
-2.36843e-07
-8.52729e-07
2.69121e-07
9.11311e-07
-2.15201e-07
1.2696e-06
0.00113118
-1.21326e-07
-0.0011312
-4.93576e-08
-1.22519e-06
2.77424e-07
-2.39611e-07
-8.50049e-07
2.66301e-07
-2.09791e-07
9.08428e-07
-1.98462e-07
-2.03436e-07
0.000268068
-0.000270089
-1.23835e-06
0.000270097
-0.000268075
2.41981e-07
2.4691e-07
-1.19591e-07
-4.86252e-08
0.00113224
-2.37152e-07
1.23319e-06
2.74989e-07
9.13707e-07
-2.15459e-07
2.69203e-07
-8.55462e-07
-0.00113227
-1.21671e-07
-0.00113205
-5.49382e-08
-1.19119e-06
2.74813e-07
-2.36903e-07
-8.52762e-07
2.69166e-07
9.1132e-07
-2.15225e-07
1.23306e-06
0.00113215
-1.21732e-07
-0.00113219
-3.26584e-08
-1.18859e-06
2.74851e-07
-2.36957e-07
-8.55226e-07
2.69105e-07
-2.15233e-07
9.13797e-07
-0.000268049
2.41736e-07
2.44439e-07
1.23595e-06
1.194e-06
-1.95518e-07
-2.0334e-07
0.000268105
-5.52045e-08
-2.39591e-07
1.28047e-06
2.77401e-07
9.13942e-07
-2.15175e-07
-8.55464e-07
2.69023e-07
-1.23071e-06
-1.219e-07
-4.39815e-08
-2.39713e-07
1.27518e-06
2.7747e-07
9.16453e-07
-2.15186e-07
-8.5795e-07
2.69008e-07
-1.98215e-07
-2.00692e-07
0.00026809
-4.97628e-08
-2.36945e-07
1.2386e-06
2.74922e-07
9.16632e-07
-2.15194e-07
-8.57977e-07
2.69203e-07
-1.22798e-06
-1.27668e-07
-4.96266e-08
-2.42405e-07
1.27249e-06
2.80259e-07
9.16555e-07
-2.12491e-07
-8.58026e-07
2.69049e-07
-1.4496e-07
-4.3939e-08
0.00113117
-2.42278e-07
1.26955e-06
2.80207e-07
9.11186e-07
-2.12394e-07
2.69016e-07
-8.49902e-07
-1.98276e-07
-2.03225e-07
0.000268077
-1.22206e-07
-1.56941e-08
0.00113208
-2.31429e-07
1.23843e-06
2.74884e-07
9.13835e-07
-2.15147e-07
2.69095e-07
-8.55172e-07
-1.22882e-10
-7.02646e-08
0.000229341
3.00588e-08
1.95662e-09
-0.000229303
-5.10418e-09
2.25531e-08
0.000193573
-3.76699e-09
-0.000193587
6.77468e-09
-4.37576e-08
0.000193627
3.43935e-09
-0.000193593
5.10722e-11
2.88316e-08
0.000229283
-1.11504e-08
1.1804e-09
-0.000229302
5.16173e-09
1.34443e-08
9.79676e-05
-9.79863e-05
-6.75936e-09
-2.23278e-08
9.80072e-05
-9.79782e-05
-7.02833e-08
-1.54975e-10
0.000229329
1.91948e-09
3.00712e-08
-0.00022929
-5.13281e-09
2.25327e-08
0.000193556
-3.72288e-09
-0.00019357
6.80624e-09
-4.37787e-08
0.000193609
3.43093e-09
-0.000193576
2.88324e-08
1.48523e-10
0.000229271
1.16887e-09
-1.11491e-08
-0.00022929
-7.10446e-08
-7.10721e-08
0.00118423
-0.00118433
-7.10881e-08
-7.10802e-08
0.00118399
-0.00118409
-7.10878e-08
-7.12215e-08
0.00118396
-0.00118406
-0.00118427
-7.93029e-08
-6.77711e-08
0.00118394
-0.00118404
-7.36077e-08
-6.78715e-08
0.00118371
-0.00118381
-7.36113e-08
-7.9347e-08
0.00118366
-0.00118377
-7.36133e-08
-6.21239e-08
7.01474e-08
-1.54565e-09
0.00025019
3.78556e-09
-1.93083e-07
-0.000250069
-1.22353e-08
-2.24998e-08
6.65089e-08
0.000245406
6.56326e-09
-0.000245445
0.00115237
3.66162e-09
-1.40127e-07
1.00563e-06
-7.52207e-07
8.27962e-07
-9.3144e-07
-0.00115244
-4.33668e-08
1.24122e-06
0.00113221
-1.20353e-07
-8.52921e-07
2.69159e-07
-2.15349e-07
9.11316e-07
-1.19675e-06
2.74905e-07
-2.36959e-07
2.32396e-08
4.37267e-08
0.000245483
-1.91791e-08
-0.000245426
-1.051e-07
-3.34235e-09
0.00115233
-1.41707e-07
-9.33874e-07
8.25329e-07
-7.54693e-07
1.00305e-06
-2.87103e-08
1.5425e-09
0.000250056
2.17639e-09
1.32604e-07
-0.000250163
5.14943e-09
1.11308e-08
9.7963e-05
-9.79793e-05
-6.81007e-09
-1.99563e-08
9.80003e-05
-9.79736e-05
-8.40478e-10
7.0144e-08
0.000250179
-1.93082e-07
3.84027e-09
-0.00025006
0.00115219
3.15006e-09
-1.40148e-07
1.00569e-06
-7.54979e-07
8.27967e-07
-9.34182e-07
-0.00115225
-1.22461e-08
-2.2497e-08
6.4121e-08
0.000245398
4.17539e-09
-0.000245432
-4.88294e-08
1.23575e-06
0.00113207
-1.20365e-07
-8.52959e-07
2.692e-07
-2.15365e-07
9.11312e-07
-1.19139e-06
2.74883e-07
-2.37016e-07
-4.81314e-09
0.00115215
-1.41643e-07
-9.33936e-07
8.28059e-07
-7.54739e-07
1.00577e-06
2.31338e-08
4.37718e-08
0.00024547
-1.66961e-08
-0.000245417
-1.02737e-07
7.87023e-10
-2.87468e-08
0.000250046
1.32649e-07
2.29042e-09
-0.000250153
1.22813e-08
-1.11684e-08
2.48531e-08
0.000278111
-7.03144e-09
-0.00027813
1.2271e-08
-1.11647e-08
2.25484e-08
0.000278036
-7.4996e-09
-0.000278052
-1.26968e-06
-1.23317e-06
0.000270063
-0.000268046
2.41859e-07
2.44587e-07
-2.3154e-08
2.00106e-08
0.000278181
9.92714e-09
-0.000278136
-5.10264e-08
-2.32424e-08
1.99445e-08
0.000278103
1.05406e-08
-0.000278061
-4.87048e-08
-0.000193666
-4.98743e-09
2.25789e-08
-3.89666e-09
0.000193653
-0.00022938
4.39326e-11
2.86747e-08
0.000229361
-1.11229e-08
1.2018e-09
-9.80281e-05
5.0358e-09
1.35725e-08
9.80095e-05
-0.000193649
-5.02089e-09
2.25688e-08
-3.85147e-09
0.000193635
-0.000229368
2.86773e-08
1.63456e-10
0.000229349
9.62329e-10
-1.11254e-08
-6.2759e-08
-5.12029e-08
-7.4454e-08
-9.75577e-08
-3.9227e-08
-4.53144e-08
0.00118348
7.00697e-08
-8.588e-10
-0.000250125
3.06096e-09
-1.93131e-07
-0.000245519
-1.21242e-08
-2.25222e-08
6.6437e-08
4.01243e-09
0.000245483
0.00115217
-0.00115222
1.36843e-08
-1.51725e-07
1.00592e-06
-7.54018e-07
-9.33287e-07
8.2826e-07
-0.000250216
-2.85472e-08
1.72948e-09
0.000250109
1.97071e-09
1.32122e-07
2.56458e-08
-1.70381e-07
-9.33067e-07
8.31109e-07
-7.53799e-07
1.00875e-06
-9.80212e-05
5.03333e-09
1.12511e-08
9.80049e-05
-1.66517e-09
7.00607e-08
-0.000250114
-1.93094e-07
4.08674e-09
0.00115201
-0.00115205
-2.25632e-08
-1.45956e-07
1.00593e-06
-7.54075e-07
-9.33353e-07
8.28243e-07
-0.000245508
-1.21514e-08
-2.25224e-08
6.40205e-08
4.0762e-09
0.000245475
-0.000250206
3.24418e-10
-2.85887e-08
0.0002501
1.32169e-07
2.31167e-09
-5.79124e-08
-1.53066e-07
-9.33164e-07
8.28301e-07
-7.51173e-07
1.00596e-06
-0.000278231
1.22235e-08
-1.12873e-08
2.26255e-08
-6.92592e-09
0.000278215
-0.000278153
1.21551e-08
-1.12969e-08
2.26126e-08
-7.34478e-09
0.000278137
-1.2647e-06
-1.30803e-06
-0.000268072
2.5453e-07
2.41849e-07
-2.31712e-08
1.98059e-08
1.05119e-08
-0.000278243
-4.84801e-08
-2.32724e-08
1.97278e-08
1.06616e-08
-0.000278163
-4.84975e-08
1.12355e-08
9.79903e-05
-9.80067e-05
-2.00509e-08
9.80277e-05
-9.80008e-05
1.1189e-08
9.79792e-05
-9.79956e-05
-2.00026e-08
9.80166e-05
-9.79898e-05
1.22232e-08
2.48671e-08
0.000278161
-9.57672e-09
-0.000278177
9.86741e-09
2.48171e-08
0.000278093
-6.94048e-09
-0.000278109
0.000270133
-1.28057e-06
-1.23868e-06
-0.0002681
2.39338e-07
2.47195e-07
0.000278228
-2.31162e-08
1.24782e-08
-0.000278186
-5.10123e-08
0.00027816
-2.08373e-08
9.97556e-09
-0.000278118
-5.10099e-08
-1.99459e-08
-6.81596e-09
9.80485e-05
-9.80218e-05
1.12927e-08
5.04514e-09
9.80113e-05
-1.98937e-08
-6.85407e-09
9.80375e-05
-9.80107e-05
1.12451e-08
5.07326e-09
9.80003e-05
1.23613e-06
1.19418e-06
0.000268102
-1.956e-07
-2.03411e-07
-2.31226e-08
0.000278279
-5.09027e-08
-0.000278237
1.25199e-08
-2.08504e-08
0.000278211
-5.08958e-08
-0.000278169
1.00214e-08
1.21708e-08
-9.51178e-09
2.4893e-08
0.000278212
9.81087e-09
-6.87076e-09
2.48392e-08
0.000278144
-7.02717e-08
0.000229301
3.006e-08
2.10714e-09
-0.000229263
2.47136e-08
0.00019351
-3.80946e-09
-0.000193525
-4.59621e-08
0.000193565
3.60318e-09
-0.00019353
2.88314e-08
0.000229243
-1.11485e-08
9.02535e-10
-0.000229262
-9.04071e-10
0.000250204
3.10032e-09
-1.93159e-07
-0.000250083
6.65358e-08
0.000245408
4.13308e-09
-0.000245444
0.00115266
3.48456e-09
-1.39996e-07
1.00859e-06
-7.57772e-07
8.30782e-07
-9.37084e-07
-0.00115271
-4.87985e-08
0.00113166
-1.20016e-07
-1.23623e-06
2.77476e-07
-2.39733e-07
-8.55758e-07
2.66369e-07
-2.12657e-07
9.13985e-07
0.000245482
-1.66915e-08
-0.000245427
-1.05068e-07
-4.02276e-09
0.00115261
-1.41524e-07
-9.36848e-07
8.30872e-07
-7.57527e-07
1.00868e-06
8.21529e-10
0.00025007
2.8849e-09
1.32691e-07
-0.000250178
0.000250176
4.71213e-09
-1.93171e-07
-0.000250059
-1.22382e-08
6.65206e-08
0.000245306
4.09516e-09
-0.000245339
0.0011526
-1.3999e-07
1.01381e-06
-7.57741e-07
8.30761e-07
-9.42264e-07
-0.00115265
-4.87875e-08
0.00113173
1.27798e-06
-1.20144e-07
-8.60847e-07
2.69091e-07
9.19164e-07
-2.15349e-07
-1.23368e-06
2.80312e-07
-2.42611e-07
0.000245377
2.30365e-08
-1.6564e-08
-0.000245325
-1.05075e-07
0.00115254
-1.41553e-07
-9.42034e-07
8.3085e-07
-7.57493e-07
1.01389e-06
0.000250046
1.15231e-09
1.32693e-07
-0.00025015
4.96591e-11
2.87428e-08
-1.11313e-08
1.18883e-09
0.000229322
-4.36756e-08
-0.000193633
3.3745e-09
2.25618e-08
-3.83145e-09
0.000193613
-1.32343e-10
-7.02416e-08
-0.000229342
3.00244e-08
1.96256e-09
2.87426e-08
-1.11299e-08
9.16047e-10
0.000229282
-4.58699e-08
6.8011e-09
0.000193605
-0.000193569
3.53301e-09
2.47209e-08
-5.09635e-09
-3.88055e-09
0.000193549
-7.02491e-08
0.00022934
-0.000229302
3.00185e-08
2.11687e-09
8.13347e-10
2.90004e-09
1.32436e-07
0.000250097
-5.468e-08
-1.20758e-07
1.28053e-06
-2.39674e-07
2.77446e-07
9.13992e-07
-2.12577e-07
2.6636e-07
-8.55659e-07
0.00024552
-1.04973e-07
-0.000245465
-1.67049e-08
-0.00115255
-4.96033e-09
0.0011525
-1.44456e-07
-9.36409e-07
8.31035e-07
-7.57063e-07
1.0088e-06
4.08031e-09
6.64768e-08
0.000245446
3.01095e-09
-1.43062e-07
1.00874e-06
-7.57291e-07
-9.36648e-07
8.30944e-07
-9.41041e-10
0.00025023
-0.00025011
3.3555e-09
-1.9319e-07
1.1704e-09
1.32438e-07
0.000250072
-4.90104e-08
-1.23358e-06
-1.20733e-07
9.1915e-07
-2.15299e-07
-8.60773e-07
2.69058e-07
1.27795e-06
-2.42568e-07
2.80275e-07
2.30589e-08
0.000245416
-1.04979e-07
-0.000245363
-1.65862e-08
-0.00115249
0.00115244
-1.44472e-07
-9.41601e-07
8.31012e-07
-7.5703e-07
1.0113e-06
-1.21806e-08
4.03503e-09
6.64632e-08
0.000245344
-1.43064e-07
1.01395e-06
-7.57259e-07
-9.41821e-07
8.30923e-07
0.000250203
-0.000250085
4.48076e-09
-1.93205e-07
2.24969e-08
0.000278036
-7.65e-09
-0.000278049
-1.1199e-08
2.48739e-08
0.000278176
-6.9394e-09
-0.000278195
0.000270118
-0.000268085
2.42126e-07
2.44441e-07
0.0002781
1.04546e-08
-0.000278061
-4.86927e-08
1.99662e-08
0.000278245
1.00321e-08
-0.000278201
-5.10368e-08
5.15431e-09
9.7986e-05
-9.80024e-05
9.80233e-05
-6.86492e-09
-9.79965e-05
-2.22205e-08
-9.79991e-05
1.35059e-08
9.79886e-05
1.19665e-06
0.000268087
-1.98285e-07
-2.00749e-07
0.00027815
-4.85768e-08
-0.000278112
1.0506e-08
1.985e-08
-2.32504e-08
0.000278296
-5.09193e-08
-0.000278252
1.00939e-08
-7.57271e-09
2.25193e-08
0.000278086
-1.12486e-08
1.21763e-08
-6.87418e-09
2.48939e-08
0.000278226
-6.90569e-09
9.80442e-05
-9.80175e-05
5.09134e-09
9.8007e-05
-1.68417e-09
0.000250197
3.79362e-09
-1.95774e-07
-0.000250074
6.41522e-08
0.000245371
6.61086e-09
-0.00024541
0.00115249
3.62673e-09
-1.40067e-07
1.01113e-06
-7.57728e-07
8.30755e-07
-9.39599e-07
-0.00115255
-4.89145e-08
0.00113266
-1.2033e-07
-1.19429e-06
2.75017e-07
-2.37116e-07
-8.5827e-07
2.69256e-07
-2.15412e-07
9.16644e-07
0.000245448
-1.91987e-08
-0.00024539
-1.02769e-07
-3.65188e-09
0.00115244
-1.41571e-07
-9.39354e-07
8.30846e-07
-7.57481e-07
1.01121e-06
1.65599e-09
0.00025006
2.16293e-09
1.35275e-07
-0.000250171
-7.02646e-08
0.000229289
3.00566e-08
2.18356e-09
-0.000229251
2.251e-08
0.000193498
-3.72385e-09
-0.000193512
-4.37143e-08
0.000193552
3.40929e-09
-0.000193518
2.88298e-08
0.000229232
-1.11453e-08
8.93127e-10
-0.00022925
0.000250167
-1.95767e-07
4.30909e-09
-0.000250047
0.00115243
-1.4004e-07
1.01116e-06
-7.57762e-07
8.30766e-07
-9.39612e-07
-0.00115248
-1.23177e-08
6.17492e-08
0.000245293
4.17675e-09
-0.000245324
-4.87785e-08
0.0011316
1.27258e-06
-1.19973e-07
-8.58308e-07
2.66409e-07
9.16551e-07
-2.127e-07
-1.22826e-06
2.80327e-07
-2.42592e-07
0.00115237
-1.41514e-07
-9.39377e-07
8.30853e-07
-7.57516e-07
1.01123e-06
0.000245362
2.31992e-08
-1.67267e-08
-0.000245312
-1.00253e-07
0.000250034
1.3529e-07
1.59541e-09
-0.00025014
2.87413e-08
1.55951e-10
1.17549e-09
-1.11334e-08
0.00022931
-4.37082e-08
-0.000193616
3.36565e-09
2.25444e-08
-3.79154e-09
0.000193596
-7.02563e-08
-1.5094e-10
-0.00022933
2.14764e-09
3.00286e-08
1.66618e-09
2.17667e-09
1.32425e-07
0.000250089
-4.924e-08
-1.2105e-07
1.23865e-06
-2.37053e-07
2.7499e-07
9.16647e-07
-2.15333e-07
2.69242e-07
-8.58167e-07
0.000245486
-1.02681e-07
-0.000245428
-1.92144e-08
-0.00115238
-3.47666e-09
0.00115234
-1.50321e-07
-9.38931e-07
8.31002e-07
-7.57016e-07
1.01134e-06
6.55431e-09
6.40934e-08
0.000245409
3.72743e-09
-1.43124e-07
1.01127e-06
-7.57244e-07
-9.39149e-07
8.30926e-07
-1.67421e-09
0.000250224
-0.000250103
4.04343e-09
-1.93203e-07
2.87391e-08
-1.11292e-08
9.0871e-10
0.00022927
-4.36357e-08
6.86121e-09
0.000193591
-0.000193558
3.3323e-09
2.25226e-08
-5.09032e-09
-3.79039e-09
0.000193538
-7.024e-08
0.000229328
-0.00022929
3.00167e-08
2.19494e-09
1.32443e-07
1.61712e-09
0.000250063
-4.90838e-08
-1.22815e-06
-1.20708e-07
9.16555e-07
-2.12615e-07
-8.5821e-07
2.66396e-07
1.27254e-06
-2.42518e-07
2.80301e-07
-0.00115233
0.00115228
-1.50244e-07
-9.38958e-07
8.31011e-07
-7.57053e-07
1.01135e-06
2.32211e-08
0.0002454
-1.00166e-07
-0.00024535
-1.67475e-08
-1.43089e-07
1.01129e-06
-7.57282e-07
-9.39165e-07
8.30935e-07
-1.22669e-08
4.12073e-09
6.16928e-08
0.000245331
0.000250193
-0.000250076
-1.93196e-07
4.32212e-09
-5.74338e-11
0.000229324
2.07986e-09
3.21191e-08
-0.000229288
0.00019356
-3.627e-09
-0.000193574
0.000193613
3.29066e-09
-0.00019358
3.72824e-11
0.000229268
1.02656e-09
-1.32055e-08
-0.000229285
7.02091e-08
0.000250157
-1.90509e-07
4.53774e-09
-0.000250043
0.00115229
-1.40167e-07
1.00564e-06
-7.5497e-07
8.27985e-07
-9.34109e-07
-0.00115234
-2.24902e-08
6.64572e-08
0.000245328
4.18101e-09
-0.000245363
-4.87988e-08
0.00113122
-1.14315e-07
-1.22538e-06
2.7746e-07
-2.39728e-07
-8.5024e-07
2.63649e-07
-2.09918e-07
9.08445e-07
0.00115222
-1.3578e-07
-9.33869e-07
8.28073e-07
-7.54721e-07
1.00571e-06
4.37272e-08
0.000245401
-1.6703e-08
-0.000245347
-1.05026e-07
-2.87839e-08
0.00025003
1.30048e-07
1.39009e-09
-0.000250131
0.000229287
3.00367e-08
2.19257e-09
-0.000229249
-5.14322e-09
0.000193503
-3.68856e-09
-0.000193517
0.000193556
6.78124e-09
3.43979e-09
-0.000193523
0.000229229
-1.11356e-08
8.61532e-10
-0.000229248
-2.86214e-08
1.56937e-09
2.19026e-09
1.32349e-07
0.000250082
-5.49283e-08
-1.21036e-07
1.24118e-06
-2.36899e-07
2.74874e-07
9.11279e-07
-2.15285e-07
-8.5287e-07
2.69135e-07
4.36401e-08
-1.05017e-07
-0.000245464
-1.67571e-08
-0.00115226
-5.24441e-10
-1.44636e-07
-9.33456e-07
8.28218e-07
1.0059e-06
-7.54213e-07
-2.25053e-08
6.50427e-09
6.64487e-08
0.000245445
4.46589e-09
-1.43196e-07
1.00578e-06
-7.51721e-07
-9.30996e-07
8.28125e-07
7.01191e-08
-1.42713e-09
-0.000250096
3.55082e-09
-1.9311e-07
4.38357e-11
1.03935e-09
-1.31853e-08
0.000229307
0.000193653
-0.00019362
3.22644e-09
-3.69838e-09
0.0001936
-2.17889e-11
0.000229363
-0.000229327
1.86861e-09
3.2074e-08
-2.86995e-08
1.2979e-07
1.40366e-09
0.000250056
-4.91159e-08
-1.22526e-06
-1.26618e-07
9.08476e-07
-2.09787e-07
-8.50095e-07
2.6366e-07
1.26964e-06
-2.39641e-07
2.77443e-07
-0.00115218
0.00115213
-1.44505e-07
-9.3345e-07
8.28222e-07
-7.54252e-07
1.00584e-06
4.36597e-08
2.31953e-08
0.00024544
-1.02552e-07
-0.000245387
-1.6701e-08
-1.49051e-07
1.00578e-06
-7.54476e-07
-9.33658e-07
8.28151e-07
-2.24988e-08
-1.22252e-08
4.12301e-09
6.63903e-08
0.000245366
7.01856e-08
0.000250187
-0.000250069
-1.93131e-07
4.31054e-09
-1.11167e-08
8.71236e-10
0.000229268
6.82097e-09
0.000193596
-0.000193563
3.38057e-09
-5.08353e-09
-3.75835e-09
0.000193543
0.000229326
-0.000229288
2.99907e-08
2.19739e-09
2.02767e-08
0.000278034
-7.52657e-09
-0.000278048
-1.11648e-08
2.25602e-08
0.00027817
-1.01007e-08
-0.000278184
0.000270092
-0.000268072
2.42116e-07
2.4704e-07
0.000278098
1.04151e-08
-0.000278059
-4.64129e-08
2.00156e-08
0.000278234
1.30245e-08
-0.000278195
-4.87576e-08
5.14774e-09
9.79859e-05
-9.80022e-05
9.80232e-05
-6.77109e-09
-9.79964e-05
-1.98443e-08
-9.79945e-05
1.11915e-08
9.7984e-05
1.19127e-06
0.000268074
-1.98349e-07
-2.0331e-07
0.000278149
-4.63001e-08
-0.00027811
1.04701e-08
1.99058e-08
-2.31524e-08
0.000278285
-4.86479e-08
-0.000278246
1.30937e-08
-7.45408e-09
2.03037e-08
0.000278084
-1.12165e-08
1.21968e-08
-1.0037e-08
2.25868e-08
0.000278221
-6.81589e-09
9.8044e-05
-9.80173e-05
5.08646e-09
9.80069e-05
7.00774e-08
0.000250152
-1.9306e-07
5.02212e-09
-0.000250035
0.00115212
-1.40123e-07
1.00811e-06
-7.54936e-07
8.27918e-07
-9.36615e-07
-0.00115217
-2.25083e-08
6.41208e-08
0.000245295
4.19198e-09
-0.000245329
-4.89257e-08
0.00113222
-1.20376e-07
-1.18879e-06
2.74947e-07
-2.37083e-07
-8.55349e-07
2.69166e-07
-2.15387e-07
9.1378e-07
0.00115207
-1.41629e-07
-9.36379e-07
8.28019e-07
-7.54683e-07
1.00819e-06
4.37336e-08
0.000245367
-1.67869e-08
-0.000245314
-1.02708e-07
-2.86897e-08
0.000250022
1.32629e-07
9.31547e-10
-0.000250126
-1.50113e-10
0.000229316
2.23967e-09
3.21107e-08
-0.00022928
0.000193555
-3.6825e-09
-0.000193569
0.000193609
3.48168e-09
-0.000193575
1.73984e-10
0.000229261
7.75085e-10
-1.32271e-08
-0.000229277
0.000229276
2.22061e-09
3.41897e-08
-0.000229243
-5.15462e-09
0.000193495
-3.67276e-09
-0.000193509
0.000193549
6.858e-09
3.33789e-09
-0.000193515
0.000229223
8.91485e-10
-1.53114e-08
-0.000229237
7.15694e-10
-2.8657e-08
1.32393e-07
2.06329e-09
0.000250073
-4.91626e-08
-1.21092e-07
1.23572e-06
-2.36949e-07
2.74859e-07
9.11325e-07
-2.15284e-07
-8.5285e-07
2.69191e-07
-0.00115209
-1.32302e-08
-1.4452e-07
-9.33524e-07
8.28213e-07
1.0059e-06
-7.54267e-07
4.36985e-08
-1.0265e-07
-0.000245455
-1.67068e-08
2.50796e-10
-1.43206e-07
1.00583e-06
-7.54495e-07
-9.33734e-07
8.28138e-07
-2.25057e-08
4.12433e-09
6.40597e-08
0.000245436
-1.18285e-09
7.01181e-08
-0.000250086
-1.93108e-07
4.08472e-09
-2.85997e-08
1.32375e-07
7.19574e-10
0.000250049
-4.92747e-08
-1.18869e-06
-1.21032e-07
9.1377e-07
-2.15276e-07
-8.55298e-07
2.69153e-07
1.23312e-06
-2.37018e-07
2.74926e-07
-0.00115201
0.00115197
-1.44491e-07
-9.35955e-07
8.28184e-07
-7.54208e-07
1.00836e-06
4.36484e-08
2.32583e-08
0.000245405
-1.02608e-07
-0.000245352
-1.68096e-08
-1.43142e-07
1.00825e-06
-7.5445e-07
-9.36172e-07
8.28108e-07
-2.25255e-08
-1.22088e-08
4.13526e-09
6.40636e-08
0.000245333
7.00441e-08
0.000250179
-0.000250062
-1.93088e-07
4.79819e-09
1.5146e-10
7.81365e-10
-1.32062e-08
0.0002293
0.000193648
-0.000193615
3.4197e-09
-3.75068e-09
0.000193595
-2.49236e-10
0.000229355
-0.000229319
2.24634e-09
3.20728e-08
6.88298e-10
-1.52913e-08
0.000229262
6.90999e-09
0.000193588
-0.000193555
3.25544e-09
-5.08795e-09
-3.75052e-09
0.000193535
0.000229315
-0.000229282
2.23408e-09
3.4147e-08
9.79656e-05
-9.7982e-05
9.8003e-05
-9.79762e-05
9.79618e-05
-9.79781e-05
9.79991e-05
-9.79723e-05
0.000268048
-1.98137e-07
-2.00837e-07
1.99143e-08
-4.86296e-08
-0.000278189
9.98065e-09
1.98278e-08
-4.85857e-08
-0.000278112
1.06037e-08
-1.12208e-08
-6.97248e-09
2.48824e-08
0.000278162
-1.12304e-08
-7.42254e-09
2.2583e-08
0.000278087
9.80238e-05
-9.79971e-05
9.79866e-05
9.802e-05
-9.79932e-05
9.79828e-05
1.13525e-08
9.80322e-05
1.13065e-08
9.80211e-05
1.21218e-08
2.49342e-08
-9.44587e-09
0.000278262
9.75551e-09
2.488e-08
-6.79728e-09
0.000278194
2.47415e-08
-3.94868e-09
0.000193589
2.86726e-08
0.000229321
-1.11018e-08
9.33347e-10
6.64628e-08
4.02517e-09
0.000245484
1.35851e-09
-1.45877e-07
1.0088e-06
-7.56881e-07
-9.36234e-07
8.31077e-07
7.85447e-10
0.000250123
2.66448e-09
1.32223e-07
-1.2128e-08
6.64368e-08
3.98219e-09
0.000245382
-1.45838e-07
1.01133e-06
-7.56852e-07
-9.38713e-07
8.31059e-07
0.000250099
1.42492e-09
1.3223e-07
2.25697e-08
-7.49551e-09
0.000278137
-1.13126e-08
2.4943e-08
-6.81753e-09
0.000278277
5.03332e-09
6.40543e-08
6.50862e-09
0.000245448
3.98826e-09
-1.51729e-07
1.01138e-06
-7.56816e-07
-9.38756e-07
8.31044e-07
1.67127e-09
0.000250116
1.94597e-09
1.32205e-07
2.25489e-08
-3.85322e-09
0.000193578
2.86756e-08
0.00022931
-1.11201e-08
9.27631e-10
-1.51693e-07
1.01141e-06
-7.56854e-07
-9.3877e-07
8.31059e-07
-1.22123e-08
6.16602e-08
4.07167e-09
0.000245369
0.00025009
1.32224e-07
1.63464e-09
1.12383e-10
-0.000229366
3.20219e-08
-3.76529e-09
0.000193639
9.48871e-11
0.000229347
1.05948e-09
-1.31722e-08
7.01274e-08
-0.000250097
-1.95725e-07
4.55092e-09
0.00115211
-1.63362e-07
1.0059e-06
-7.51309e-07
8.28259e-07
-9.30546e-07
-2.25493e-08
6.15729e-08
6.51152e-09
0.000245406
-4.38258e-08
-3.60899e-07
-1.23309e-06
2.74797e-07
-2.4493e-07
-8.47246e-07
2.71646e-07
-2.09668e-07
9.13791e-07
-2.86284e-08
0.000250083
1.32151e-07
1.64983e-09
-1.99115e-07
-9.30354e-07
8.31069e-07
-7.53845e-07
1.00864e-06
4.35853e-08
-1.91392e-08
-0.000245425
-1.04885e-07
-0.000229327
2.99394e-08
2.19706e-09
-5.0319e-09
-3.8284e-09
0.000193582
0.000229307
-1.10985e-08
8.83271e-10
6.86637e-09
3.3247e-09
-0.000193602
2.03468e-08
-7.38044e-09
0.000278135
-1.12703e-08
2.25975e-08
-7.35984e-09
0.000278269
5.02584e-09
9.80277e-05
7.00058e-08
-0.000250089
-1.931e-07
3.83227e-09
0.00115193
-1.51736e-07
1.00847e-06
-7.54017e-07
8.28253e-07
-9.35827e-07
-2.25579e-08
6.40342e-08
4.07606e-09
0.000245371
1.48689e-07
-1.44754e-07
-1.15596e-06
2.832e-07
-2.28567e-07
-8.52321e-07
2.69099e-07
-2.15122e-07
9.13935e-07
-2.85358e-08
0.000250075
1.32147e-07
5.06011e-10
-1.94636e-07
-9.32905e-07
8.28331e-07
-7.51074e-07
1.00864e-06
4.35742e-08
-1.68125e-08
-0.00024539
-1.02531e-07
-2.87518e-10
-0.000229358
2.24574e-09
3.20168e-08
-3.81573e-09
0.000193635
1.98288e-11
0.000229339
1.01612e-09
-1.31907e-08
-0.000229321
2.02144e-09
3.41017e-08
-5.02206e-09
-3.83514e-09
0.000193575
0.000229301
7.04864e-10
-1.52847e-08
6.95456e-09
3.19447e-09
-0.000193594
9.80075e-05
-9.80179e-05
9.80036e-05
-9.8014e-05
-7.7838e-10
1.24314e-08
0.000143358
-1.04902e-10
-0.000143369
-0.000171053
-3.30024e-10
-3.1472e-11
0.000171084
-0.000223351
2.8954e-08
4.35297e-09
0.000223391
-7.17837e-08
-1.11386e-08
9.60136e-10
-0.000229321
-9.69349e-11
2.87878e-08
-0.000171065
-2.27589e-11
8.62591e-10
-0.000223371
3.3127e-08
1.42661e-09
0.000143385
-2.44588e-08
-7.92527e-05
7.92786e-05
-1.41341e-09
3.46963e-09
0.000193607
6.75042e-09
-4.37886e-08
0.000263191
-1.6962e-08
-8.47197e-10
3.31982e-08
-0.000263211
0.000263237
-4.34318e-09
-6.17876e-08
1.25839e-10
-7.92698e-05
1.6978e-08
7.92615e-05
-0.000263217
2.44195e-08
0.000263263
-6.17483e-08
-3.80114e-09
-5.07326e-09
2.25551e-08
3.31945e-08
7.92874e-05
3.34914e-10
-2.897e-08
-0.000143342
3.00818e-08
2.17561e-09
2.65094e-11
-7.02784e-08
0.000171035
7.72114e-10
-1.43552e-11
-0.000171047
0.000223331
-1.24428e-08
3.31777e-08
-0.000223351
-2.23982e-11
-7.1788e-08
-0.000143354
9.79968e-05
-6.73329e-09
-2.23764e-08
5.12737e-09
1.34724e-08
1.24408e-08
-7.63522e-10
0.000143356
-1.31155e-10
-0.000143368
-0.000223341
2.89664e-08
4.33378e-09
0.000223382
-7.1811e-08
-0.00017105
-3.59259e-10
1.3697e-11
0.000171081
9.47904e-10
-1.11385e-08
-0.000229309
6.23185e-12
2.8787e-08
8.37852e-10
-0.000223362
3.31461e-08
-0.000171062
-8.40523e-12
1.41065e-09
0.000143383
-2.44777e-08
-7.92544e-05
7.92802e-05
-1.39559e-09
3.46451e-09
0.00019359
6.78176e-09
-4.38135e-08
0.000263187
-1.69324e-08
-8.20952e-10
3.31797e-08
-0.000263206
0.000263232
-4.32211e-09
-6.18323e-08
1.53144e-10
-7.92715e-05
1.69496e-08
7.92632e-05
-0.000263213
2.44358e-08
0.000263258
-6.17911e-08
-3.75816e-09
-5.10152e-09
2.25353e-08
3.31778e-08
7.9289e-05
-2.89849e-08
3.68168e-10
-0.000143341
2.13918e-09
3.00871e-08
-6.36721e-12
-7.02982e-08
0.000223321
-1.24522e-08
3.31981e-08
-0.000223342
0.000171032
7.5771e-10
-8.61818e-13
-0.000171044
-7.18173e-08
2.24197e-11
-0.000143352
9.79898e-05
-6.78118e-09
-2.00096e-08
5.12015e-09
1.11608e-08
-6.96198e-09