/*--------------------------------*- C++ -*----------------------------------*\
| =========                 |                                                 |
| \\      /  F ield         | OpenFOAM: The Open Source CFD Toolbox           |
|  \\    /   O peration     | Version:  2312                                  |
|   \\  /    A nd           | Website:  www.openfoam.com                      |
|    \\/     M anipulation  |                                                 |
\*---------------------------------------------------------------------------*/
FoamFile
{
    version     2.0;
    format      ascii;
    arch        "LSB;label=32;scalar=64";
    class       volScalarField;
    location    "100";
    object      epsilon;
}
// * * * * * * * * * * * * * * * * * * * * * * * * * * * * * * * * * * * * * //

dimensions      [0 2 -3 0 0 0 0];

internalField   nonuniform List<scalar> 
42840
(
1.27422e-07
2.13948e-07
2.13519e-07
3.18218e-07
1.24845e-07
2.15315e-07
2.14946e-07
3.23873e-07
1.23134e-07
2.16404e-07
2.1634e-07
3.27921e-07
1.22135e-07
2.17181e-07
2.17234e-07
3.31052e-07
1.21679e-07
2.17539e-07
2.17871e-07
3.32805e-07
1.21555e-07
2.17904e-07
2.18266e-07
3.33744e-07
1.21546e-07
2.18228e-07
2.18589e-07
3.34446e-07
1.21549e-07
2.18525e-07
2.18814e-07
3.35149e-07
1.21564e-07
2.18748e-07
2.19019e-07
3.35574e-07
1.21575e-07
2.1881e-07
2.19169e-07
3.35554e-07
1.21586e-07
2.18821e-07
2.19268e-07
3.35381e-07
1.21595e-07
2.18824e-07
2.19347e-07
3.35323e-07
1.21603e-07
2.18845e-07
2.19375e-07
3.3544e-07
1.21613e-07
2.18939e-07
2.19389e-07
3.35609e-07
1.21614e-07
2.19006e-07
2.1941e-07
3.35905e-07
1.21606e-07
2.19002e-07
2.19465e-07
3.36118e-07
1.21596e-07
2.18991e-07
2.19476e-07
3.36227e-07
1.21581e-07
2.19041e-07
2.19478e-07
3.36382e-07
1.21563e-07
2.19131e-07
2.19444e-07
3.36406e-07
1.21548e-07
2.19258e-07
2.19402e-07
3.36615e-07
1.21545e-07
2.19371e-07
2.19375e-07
3.36708e-07
1.21553e-07
2.19488e-07
2.19436e-07
3.36719e-07
1.21581e-07
2.19635e-07
2.19487e-07
3.36963e-07
1.21617e-07
2.1973e-07
2.19571e-07
3.37071e-07
1.21666e-07
2.19775e-07
2.19659e-07
3.37304e-07
3.19537e-07
3.22723e-07
2.13955e-07
2.13973e-07
2.14903e-07
2.14967e-07
3.18982e-07
3.22632e-07
2.13727e-07
2.13529e-07
2.14632e-07
2.14426e-07
2.1384e-07
2.14902e-07
2.1492e-07
3.183e-07
3.21467e-07
2.13346e-07
2.14484e-07
2.14322e-07
3.21939e-07
3.24475e-07
3.26659e-07
2.15266e-07
2.15388e-07
2.16167e-07
2.16326e-07
3.24516e-07
3.26926e-07
2.15037e-07
2.1484e-07
2.15988e-07
2.15885e-07
2.15318e-07
2.16105e-07
2.162e-07
3.23348e-07
3.26194e-07
2.14762e-07
2.15982e-07
2.15813e-07
3.26328e-07
3.28256e-07
3.29652e-07
2.16389e-07
2.16514e-07
2.17037e-07
2.1716e-07
3.28459e-07
3.3027e-07
2.1623e-07
2.16182e-07
2.169e-07
2.16954e-07
2.16392e-07
2.16999e-07
2.17003e-07
3.27796e-07
3.29629e-07
2.16095e-07
2.16966e-07
2.16808e-07
3.29633e-07
3.31049e-07
3.3175e-07
2.17161e-07
2.17257e-07
2.17635e-07
2.17607e-07
3.31815e-07
3.3188e-07
2.17028e-07
2.17117e-07
2.17485e-07
2.17674e-07
2.17128e-07
2.17429e-07
2.17624e-07
3.31153e-07
3.32258e-07
2.16942e-07
2.17713e-07
2.17453e-07
3.31629e-07
3.32944e-07
3.32633e-07
2.177e-07
2.17682e-07
2.18026e-07
2.18057e-07
3.33182e-07
3.32252e-07
2.17566e-07
2.17775e-07
2.17961e-07
2.18193e-07
2.17701e-07
2.17783e-07
2.1803e-07
3.3344e-07
3.33441e-07
2.17557e-07
2.18144e-07
2.1799e-07
3.32643e-07
3.33898e-07
3.33047e-07
2.18073e-07
2.18113e-07
2.18394e-07
2.18355e-07
3.3359e-07
3.32643e-07
2.18032e-07
2.18261e-07
2.18397e-07
2.18621e-07
2.18071e-07
2.18124e-07
2.18311e-07
3.3443e-07
3.34038e-07
2.18061e-07
2.18494e-07
2.18413e-07
3.33362e-07
3.34373e-07
3.33701e-07
2.18434e-07
2.18381e-07
2.18647e-07
2.18621e-07
3.33853e-07
3.33102e-07
2.18441e-07
2.18628e-07
2.18638e-07
2.18844e-07
2.18339e-07
2.18397e-07
2.18617e-07
3.34984e-07
3.3437e-07
2.18424e-07
2.18717e-07
2.18643e-07
3.34025e-07
3.34691e-07
3.33922e-07
2.18664e-07
2.18639e-07
2.18841e-07
2.1886e-07
3.34366e-07
3.3358e-07
2.18643e-07
2.18874e-07
2.18767e-07
2.19066e-07
2.18681e-07
2.18675e-07
2.18969e-07
3.35588e-07
3.34874e-07
2.18674e-07
2.18945e-07
2.18809e-07
3.34626e-07
3.35121e-07
3.34157e-07
2.18859e-07
2.18855e-07
2.18988e-07
2.18991e-07
3.34887e-07
3.33788e-07
2.18764e-07
2.19056e-07
2.18862e-07
2.19192e-07
2.18969e-07
2.18793e-07
2.19158e-07
3.3598e-07
3.35301e-07
2.18783e-07
2.1912e-07
2.18822e-07
3.34615e-07
3.35473e-07
3.34609e-07
2.18997e-07
2.18991e-07
2.1911e-07
2.19043e-07
3.34857e-07
3.33843e-07
2.18862e-07
2.19197e-07
2.18988e-07
2.19311e-07
2.19156e-07
2.18817e-07
2.1925e-07
3.36262e-07
3.35292e-07
2.18823e-07
2.19238e-07
2.18809e-07
3.34472e-07
3.35578e-07
3.34559e-07
2.19086e-07
2.19038e-07
2.19185e-07
2.19036e-07
3.34701e-07
3.33585e-07
2.19e-07
2.19308e-07
2.1911e-07
2.1938e-07
2.19251e-07
2.18825e-07
2.19303e-07
3.36564e-07
3.35286e-07
2.18789e-07
2.19335e-07
2.18805e-07
3.34415e-07
3.35725e-07
3.34657e-07
2.19189e-07
2.19017e-07
2.19251e-07
2.19002e-07
3.34745e-07
3.33548e-07
2.19112e-07
2.19377e-07
2.19205e-07
2.19437e-07
2.19305e-07
2.18823e-07
2.19329e-07
3.36573e-07
3.35526e-07
2.18805e-07
2.19367e-07
2.18815e-07
3.34259e-07
3.35811e-07
3.34987e-07
2.19244e-07
2.19003e-07
2.19297e-07
2.19074e-07
3.34796e-07
3.33932e-07
2.19204e-07
2.19435e-07
2.19261e-07
2.19467e-07
2.19325e-07
2.1889e-07
2.19337e-07
3.36488e-07
3.35513e-07
2.18816e-07
2.19383e-07
2.18886e-07
3.34386e-07
3.35894e-07
3.35027e-07
2.19289e-07
2.1908e-07
2.19329e-07
2.19136e-07
3.34909e-07
3.34088e-07
2.19259e-07
2.19456e-07
2.19286e-07
2.19479e-07
2.19356e-07
2.18988e-07
2.1941e-07
3.36393e-07
3.35469e-07
2.18899e-07
2.19399e-07
2.19022e-07
3.3492e-07
3.3595e-07
3.34966e-07
2.19315e-07
2.19141e-07
2.19343e-07
2.19198e-07
3.34982e-07
3.34215e-07
2.19276e-07
2.19492e-07
2.19292e-07
2.19535e-07
2.19409e-07
2.19e-07
2.19435e-07
3.36393e-07
3.35554e-07
2.19031e-07
2.19454e-07
2.19148e-07
3.35181e-07
3.3596e-07
3.34779e-07
2.19343e-07
2.19204e-07
2.19352e-07
2.19272e-07
3.3513e-07
3.34349e-07
2.19289e-07
2.19511e-07
2.1929e-07
2.19549e-07
2.19422e-07
2.1899e-07
2.19419e-07
3.36749e-07
3.35455e-07
2.19154e-07
2.19464e-07
2.19228e-07
3.35228e-07
3.35928e-07
3.34567e-07
2.19352e-07
2.1929e-07
2.19337e-07
2.19407e-07
3.35283e-07
3.34583e-07
2.19288e-07
2.19545e-07
2.19284e-07
2.19549e-07
2.19414e-07
2.19007e-07
2.19404e-07
3.36601e-07
3.35488e-07
2.19223e-07
2.19477e-07
2.19246e-07
3.35194e-07
3.35838e-07
3.34385e-07
2.19305e-07
2.1938e-07
2.19291e-07
2.19489e-07
3.35797e-07
3.34773e-07
2.19286e-07
2.19549e-07
2.19273e-07
2.19528e-07
2.19369e-07
2.19097e-07
2.19351e-07
3.36466e-07
3.3538e-07
2.19247e-07
2.19449e-07
2.19252e-07
3.35207e-07
3.35646e-07
3.34289e-07
2.1926e-07
2.19495e-07
2.19226e-07
2.19576e-07
3.36095e-07
3.35001e-07
2.19231e-07
2.19517e-07
2.19201e-07
2.1947e-07
2.19347e-07
2.19195e-07
2.19371e-07
3.3627e-07
3.35183e-07
2.19246e-07
2.19417e-07
2.19272e-07
3.35378e-07
3.35538e-07
3.34333e-07
2.19208e-07
2.19568e-07
2.1922e-07
2.19627e-07
3.36285e-07
3.35342e-07
2.19151e-07
2.19449e-07
2.19153e-07
2.19454e-07
2.19399e-07
2.19304e-07
2.1948e-07
3.36339e-07
3.35037e-07
2.19289e-07
2.19364e-07
2.19367e-07
3.35695e-07
3.35615e-07
3.34502e-07
2.19221e-07
2.19627e-07
2.19296e-07
2.19675e-07
3.363e-07
3.35466e-07
2.19162e-07
2.19454e-07
2.19212e-07
2.19525e-07
2.19464e-07
2.19444e-07
2.1955e-07
3.36308e-07
3.35109e-07
2.19362e-07
2.1942e-07
2.1942e-07
3.35785e-07
3.35533e-07
3.3455e-07
2.19297e-07
2.19664e-07
2.19367e-07
2.19718e-07
3.36384e-07
3.35656e-07
2.19216e-07
2.19514e-07
2.19264e-07
2.1959e-07
2.19556e-07
2.19579e-07
2.19638e-07
3.36392e-07
3.35209e-07
2.19398e-07
2.19454e-07
2.19444e-07
3.35733e-07
3.3544e-07
3.34774e-07
2.19406e-07
2.19724e-07
2.19538e-07
2.1981e-07
3.36595e-07
3.35955e-07
2.19305e-07
2.19585e-07
2.19447e-07
2.19646e-07
2.19635e-07
2.19696e-07
2.19726e-07
3.36496e-07
3.35355e-07
2.19443e-07
2.1954e-07
2.19489e-07
3.36081e-07
3.35716e-07
3.35438e-07
2.19547e-07
2.19818e-07
2.19708e-07
2.19938e-07
3.36889e-07
3.3617e-07
2.1942e-07
2.19661e-07
2.196e-07
2.19755e-07
2.19732e-07
2.19757e-07
2.19808e-07
3.36644e-07
3.3552e-07
2.19476e-07
2.19625e-07
2.1955e-07
3.36346e-07
3.36418e-07
2.19731e-07
2.19935e-07
3.37097e-07
2.19623e-07
2.19752e-07
2.1981e-07
3.36919e-07
2.19546e-07
3.36633e-06
8.74244e-06
8.74556e-06
3.3521e-06
1.82677e-05
1.827e-05
3.37809e-06
8.7443e-06
8.74554e-06
3.37123e-06
1.27469e-07
1.27401e-07
1.27412e-07
1.25431e-07
1.25484e-07
1.25411e-07
1.2543e-07
9.71318e-07
2.62737e-06
1.5067e-07
2.1415e-07
2.62883e-06
1.50263e-07
9.67853e-07
1.8267e-05
1.82703e-05
9.73572e-07
1.50652e-07
2.62467e-06
2.13711e-07
1.50232e-07
2.63145e-06
9.68791e-07
4.97724e-06
4.97102e-06
3.1908e-07
4.98199e-06
4.97527e-06
3.39754e-06
8.74886e-06
3.39143e-06
8.74943e-06
1.82692e-05
1.82734e-05
3.39102e-06
8.74792e-06
3.39167e-06
8.74866e-06
1.24905e-07
1.24835e-07
1.24857e-07
1.23524e-07
1.23575e-07
1.23527e-07
1.23538e-07
9.98384e-07
2.64307e-06
1.49366e-07
2.15493e-07
9.9031e-07
2.64013e-06
1.49128e-07
1.82684e-05
1.8272e-05
9.97189e-07
1.49346e-07
2.64363e-06
2.15202e-07
9.90511e-07
1.49101e-07
2.64854e-06
4.9901e-06
4.9865e-06
3.24352e-07
4.99059e-06
4.99046e-06
3.40528e-06
8.74785e-06
3.40462e-06
8.74726e-06
1.82711e-05
1.82744e-05
3.40199e-06
8.74909e-06
3.40394e-06
8.74904e-06
1.23195e-07
1.23158e-07
1.23163e-07
1.22367e-07
1.22413e-07
1.22398e-07
1.22388e-07
1.01122e-06
2.65308e-06
1.48606e-07
2.16514e-07
1.00695e-06
2.65386e-06
1.48458e-07
1.82691e-05
1.82717e-05
1.00534e-06
1.48596e-07
2.65618e-06
2.16487e-07
1.00727e-06
1.4844e-07
2.65787e-06
4.99259e-06
4.99308e-06
3.28052e-07
4.99067e-06
4.99077e-06
3.40346e-06
8.74613e-06
3.40648e-06
8.7459e-06
1.82711e-05
1.82736e-05
3.40033e-06
8.7482e-06
3.40203e-06
8.7493e-06
1.22199e-07
1.22195e-07
1.22184e-07
1.2178e-07
1.218e-07
1.21825e-07
1.21803e-07
1.01616e-06
2.65853e-06
1.48153e-07
2.17219e-07
1.01541e-06
2.65803e-06
1.48066e-07
1.82669e-05
1.82692e-05
1.01027e-06
1.48144e-07
2.66166e-06
2.17318e-07
1.01367e-06
1.48054e-07
2.66056e-06
4.99084e-06
4.99078e-06
3.30801e-07
4.98922e-06
4.99004e-06
3.40391e-06
8.74605e-06
3.40475e-06
8.7458e-06
1.82687e-05
1.82705e-05
3.39976e-06
8.74851e-06
3.39953e-06
8.74856e-06
1.21717e-07
1.21749e-07
1.21725e-07
1.21577e-07
1.21564e-07
1.21615e-07
1.21582e-07
1.01335e-06
2.65766e-06
1.47923e-07
2.17549e-07
1.01486e-06
2.65598e-06
1.47893e-07
1.82638e-05
1.82656e-05
1.02077e-06
1.47945e-07
2.66205e-06
2.17888e-07
1.0201e-06
1.47922e-07
2.66186e-06
4.99045e-06
4.9906e-06
3.32161e-07
4.98941e-06
4.99009e-06
3.40238e-06
8.74394e-06
3.40278e-06
8.74395e-06
1.82645e-05
1.82674e-05
3.3993e-06
8.74861e-06
3.40215e-06
8.74879e-06
1.21558e-07
1.21611e-07
1.21574e-07
1.21548e-07
1.21525e-07
1.21585e-07
1.21546e-07
1.02305e-06
2.65797e-06
1.47878e-07
2.1794e-07
1.0225e-06
2.65653e-06
1.47889e-07
1.82638e-05
1.82687e-05
1.01907e-06
1.47918e-07
2.66512e-06
2.18277e-07
1.02015e-06
1.47922e-07
2.66376e-06
4.98998e-06
4.99313e-06
3.33e-07
4.98932e-06
4.9928e-06
3.40169e-06
8.74342e-06
3.40283e-06
8.74411e-06
1.82653e-05
1.82702e-05
3.39913e-06
8.74898e-06
3.40097e-06
8.74919e-06
1.21528e-07
1.21586e-07
1.2155e-07
1.21548e-07
1.21529e-07
1.21587e-07
1.21553e-07
1.02405e-06
2.65805e-06
1.4795e-07
2.18228e-07
1.02449e-06
2.65851e-06
1.4797e-07
1.82703e-05
1.82755e-05
1.01914e-06
1.47967e-07
2.66396e-06
2.18591e-07
1.01919e-06
1.47973e-07
2.66227e-06
4.98961e-06
4.99381e-06
3.33652e-07
4.98794e-06
4.99214e-06
3.40446e-06
8.74614e-06
3.40475e-06
8.74815e-06
1.827e-05
1.82744e-05
3.40729e-06
8.74932e-06
3.40756e-06
8.74985e-06
1.21538e-07
1.21594e-07
1.21556e-07
1.21563e-07
1.21556e-07
1.21599e-07
1.21578e-07
1.02658e-06
2.66188e-06
1.48046e-07
2.18545e-07
1.02623e-06
2.66215e-06
1.48059e-07
1.82717e-05
1.8275e-05
1.02179e-06
1.48044e-07
2.66371e-06
2.18838e-07
1.0199e-06
1.48052e-07
2.66341e-06
4.98727e-06
4.9944e-06
3.34453e-07
4.98735e-06
4.99462e-06
3.40897e-06
8.75021e-06
3.41053e-06
8.7509e-06
1.82719e-05
1.82754e-05
3.40921e-06
8.75113e-06
3.40871e-06
8.75125e-06
1.21563e-07
1.21607e-07
1.21584e-07
1.2157e-07
1.21588e-07
1.21622e-07
1.216e-07
1.02974e-06
2.6651e-06
1.48117e-07
2.18761e-07
1.02931e-06
2.66531e-06
1.48127e-07
1.82744e-05
1.82799e-05
1.02782e-06
1.48126e-07
2.66547e-06
2.1904e-07
1.02777e-06
1.48136e-07
2.66544e-06
4.99341e-06
4.9956e-06
3.34673e-07
4.99412e-06
4.99403e-06
3.4122e-06
8.75207e-06
3.40802e-06
8.75273e-06
1.82728e-05
1.82762e-05
3.40951e-06
8.75187e-06
3.41095e-06
8.75318e-06
1.21602e-07
1.21626e-07
1.2161e-07
1.21582e-07
1.21606e-07
1.21636e-07
1.21614e-07
1.03467e-06
2.66837e-06
1.48183e-07
2.18811e-07
1.03385e-06
2.66825e-06
1.48198e-07
1.82805e-05
1.82858e-05
1.02964e-06
1.48187e-07
2.66883e-06
2.19159e-07
1.02989e-06
1.48191e-07
2.66885e-06
4.99589e-06
4.99393e-06
3.34545e-07
4.99422e-06
4.99372e-06
3.41581e-06
8.75443e-06
3.41795e-06
8.75645e-06
1.82725e-05
1.82751e-05
3.41231e-06
8.75564e-06
3.41047e-06
8.75764e-06
1.21607e-07
1.21646e-07
1.21615e-07
1.21593e-07
1.21606e-07
1.21647e-07
1.21614e-07
1.03805e-06
2.67152e-06
1.48257e-07
2.1882e-07
1.03768e-06
2.67216e-06
1.48266e-07
1.8285e-05
1.82897e-05
1.02931e-06
1.48202e-07
2.67234e-06
2.19226e-07
1.03019e-06
1.48197e-07
2.67282e-06
4.99436e-06
4.99415e-06
3.34395e-07
4.99423e-06
4.99201e-06
3.41446e-06
8.75888e-06
3.41517e-06
8.7599e-06
1.82745e-05
1.82795e-05
3.41768e-06
8.75929e-06
3.41576e-06
8.75997e-06
1.21602e-07
1.21647e-07
1.21615e-07
1.21599e-07
1.21597e-07
1.2165e-07
1.21614e-07
1.04017e-06
2.67677e-06
1.48312e-07
2.18813e-07
1.04032e-06
2.67781e-06
1.48319e-07
1.82894e-05
1.82929e-05
1.0289e-06
1.48193e-07
2.6771e-06
2.19293e-07
1.02958e-06
1.48191e-07
2.67799e-06
4.99407e-06
4.99157e-06
3.34256e-07
4.99262e-06
4.99066e-06
3.41409e-06
8.76008e-06
3.41586e-06
8.76059e-06
1.82813e-05
1.8287e-05
3.41581e-06
8.76078e-06
3.41795e-06
8.76163e-06
1.21601e-07
1.21651e-07
1.21616e-07
1.21613e-07
1.21605e-07
1.21654e-07
1.21614e-07
1.04137e-06
2.68219e-06
1.48368e-07
2.18853e-07
1.04157e-06
2.68215e-06
1.48379e-07
1.82893e-05
1.82921e-05
1.03007e-06
1.48213e-07
2.6821e-06
2.19363e-07
1.03035e-06
1.48216e-07
2.68204e-06
4.99483e-06
4.99328e-06
3.34211e-07
4.99504e-06
4.99387e-06
3.41894e-06
8.76096e-06
3.41465e-06
8.76136e-06
1.82876e-05
1.82926e-05
3.41523e-06
8.76167e-06
3.41729e-06
8.76186e-06
1.21608e-07
1.21656e-07
1.2162e-07
1.21616e-07
1.21606e-07
1.21654e-07
1.21624e-07
1.04239e-06
2.68404e-06
1.48432e-07
2.18944e-07
1.0427e-06
2.68305e-06
1.48437e-07
1.82884e-05
1.82906e-05
1.03092e-06
1.48271e-07
2.68379e-06
2.1939e-07
1.03078e-06
1.48276e-07
2.6827e-06
4.9971e-06
4.99636e-06
3.34506e-07
4.99583e-06
4.99636e-06
3.42221e-06
8.76153e-06
3.42195e-06
8.7617e-06
1.82914e-05
1.82938e-05
3.41485e-06
8.76167e-06
3.41523e-06
8.76163e-06
1.21605e-07
1.21658e-07
1.21626e-07
1.21611e-07
1.21602e-07
1.21653e-07
1.21627e-07
1.04394e-06
2.68474e-06
1.48482e-07
2.19003e-07
1.04394e-06
2.68369e-06
1.48487e-07
1.82881e-05
1.82927e-05
1.03238e-06
1.4833e-07
2.68395e-06
2.19402e-07
1.03272e-06
1.48337e-07
2.68283e-06
4.99403e-06
4.99678e-06
3.35077e-07
4.99131e-06
4.99436e-06
3.42204e-06
8.76242e-06
3.4255e-06
8.76288e-06
1.82899e-05
1.8294e-05
3.4173e-06
8.76225e-06
3.41696e-06
8.76285e-06
1.216e-07
1.21651e-07
1.21628e-07
1.21603e-07
1.21589e-07
1.21649e-07
1.21618e-07
1.04609e-06
2.68498e-06
1.48523e-07
2.18986e-07
1.04598e-06
2.6836e-06
1.4853e-07
1.82923e-05
1.82966e-05
1.03539e-06
1.48385e-07
2.68423e-06
2.19452e-07
1.03481e-06
1.48393e-07
2.68331e-06
4.99358e-06
4.99428e-06
3.35178e-07
4.99332e-06
4.9937e-06
3.42922e-06
8.76198e-06
3.4283e-06
8.76194e-06
1.82927e-05
1.82965e-05
3.41735e-06
8.76306e-06
3.41828e-06
8.76357e-06
1.21591e-07
1.21644e-07
1.21617e-07
1.21585e-07
1.21583e-07
1.21631e-07
1.21602e-07
1.04831e-06
2.68461e-06
1.4856e-07
2.18983e-07
1.04819e-06
2.68338e-06
1.48568e-07
1.82958e-05
1.82985e-05
1.03816e-06
1.48447e-07
2.68493e-06
2.19476e-07
1.03795e-06
1.48457e-07
2.68399e-06
4.99305e-06
4.99385e-06
3.35303e-07
4.99089e-06
4.99185e-06
3.42787e-06
8.76162e-06
3.42997e-06
8.76174e-06
1.82946e-05
1.82988e-05
3.42494e-06
8.76365e-06
3.42016e-06
8.76379e-06
1.21585e-07
1.21639e-07
1.21601e-07
1.21574e-07
1.21588e-07
1.2161e-07
1.21591e-07
1.05039e-06
2.68487e-06
1.48602e-07
2.19056e-07
1.05027e-06
2.68401e-06
1.48611e-07
1.82956e-05
1.82989e-05
1.04125e-06
1.48511e-07
2.68541e-06
2.19466e-07
1.04089e-06
1.48516e-07
2.68435e-06
4.9932e-06
4.9936e-06
3.35136e-07
4.99375e-06
4.99407e-06
3.43547e-06
8.76206e-06
3.43374e-06
8.76256e-06
1.82977e-05
1.83016e-05
3.42301e-06
8.76337e-06
3.42335e-06
8.76344e-06
1.2159e-07
1.21612e-07
1.21584e-07
1.21555e-07
1.21594e-07
1.21596e-07
1.21579e-07
1.05244e-06
2.68571e-06
1.48653e-07
2.19143e-07
1.0524e-06
2.68473e-06
1.48662e-07
1.8296e-05
1.82997e-05
1.04509e-06
1.48569e-07
2.68574e-06
2.19412e-07
1.0445e-06
1.48571e-07
2.68464e-06
4.99495e-06
4.99465e-06
3.35208e-07
4.9945e-06
4.99367e-06
3.44239e-06
8.76298e-06
3.44129e-06
8.76329e-06
1.82982e-05
1.83019e-05
3.42383e-06
8.76381e-06
3.42763e-06
8.76414e-06
1.21602e-07
1.21595e-07
1.21587e-07
1.21545e-07
1.21612e-07
1.2159e-07
1.2159e-07
1.05407e-06
2.68628e-06
1.48704e-07
2.19266e-07
1.05419e-06
2.68521e-06
1.4871e-07
1.8299e-05
1.83031e-05
1.04845e-06
1.48618e-07
2.68577e-06
2.19364e-07
1.04786e-06
1.48619e-07
2.68458e-06
4.99699e-06
4.99499e-06
3.35592e-07
4.99639e-06
4.99452e-06
3.44166e-06
8.76445e-06
3.44553e-06
8.76447e-06
1.83006e-05
1.83038e-05
3.42971e-06
8.76382e-06
3.43157e-06
8.76395e-06
1.21615e-07
1.21589e-07
1.21593e-07
1.21549e-07
1.21628e-07
1.21595e-07
1.21606e-07
1.05578e-06
2.68659e-06
1.48755e-07
2.19383e-07
1.0558e-06
2.68549e-06
1.48761e-07
1.83028e-05
1.83072e-05
1.0522e-06
1.48668e-07
2.68575e-06
2.19377e-07
1.05162e-06
1.48668e-07
2.68461e-06
4.99594e-06
4.99777e-06
3.35782e-07
4.99464e-06
4.99816e-06
3.44072e-06
8.76405e-06
3.44196e-06
8.76528e-06
1.83024e-05
1.83072e-05
3.43743e-06
8.76358e-06
3.4359e-06
8.76369e-06
1.21631e-07
1.21606e-07
1.21613e-07
1.21575e-07
1.21647e-07
1.21613e-07
1.21625e-07
1.05728e-06
2.68696e-06
1.48804e-07
2.19489e-07
1.05744e-06
2.68583e-06
1.48812e-07
1.83069e-05
1.83115e-05
1.05385e-06
1.48711e-07
2.68575e-06
2.1943e-07
1.05406e-06
1.48709e-07
2.68459e-06
4.99024e-06
4.99721e-06
3.35778e-07
4.98742e-06
4.99369e-06
3.43252e-06
8.76683e-06
3.43775e-06
8.7671e-06
1.83073e-05
1.83114e-05
3.44446e-06
8.7646e-06
3.44473e-06
8.7651e-06
1.21658e-07
1.21622e-07
1.21631e-07
1.21607e-07
1.21671e-07
1.21639e-07
1.21641e-07
1.05807e-06
2.68704e-06
1.48852e-07
2.1961e-07
1.05851e-06
2.68577e-06
1.4886e-07
1.83099e-05
1.83138e-05
1.05475e-06
1.48736e-07
2.68581e-06
2.19502e-07
1.05509e-06
1.48735e-07
2.68469e-06
4.98844e-06
4.99245e-06
3.35954e-07
4.98857e-06
4.99049e-06
3.41548e-06
8.76652e-06
3.42042e-06
8.76625e-06
1.83108e-05
1.83162e-05
3.43163e-06
8.76611e-06
3.44009e-06
8.76629e-06
1.21681e-07
1.21641e-07
1.21655e-07
1.21653e-07
1.21695e-07
1.2166e-07
1.21664e-07
1.0584e-06
2.68724e-06
1.48896e-07
2.19726e-07
1.05896e-06
2.68625e-06
1.489e-07
1.83126e-05
1.83174e-05
1.05546e-06
1.48756e-07
2.68593e-06
2.19565e-07
1.05584e-06
1.48756e-07
2.68493e-06
4.99189e-06
4.99202e-06
3.36203e-07
4.99193e-06
4.99238e-06
3.4141e-06
8.76515e-06
3.41585e-06
8.76525e-06
1.83152e-05
1.83191e-05
3.42341e-06
8.76697e-06
3.42589e-06
8.76706e-06
1.21711e-07
1.21669e-07
1.21675e-07
1.05869e-06
2.68763e-06
1.48925e-07
2.19826e-07
1.05924e-06
2.68645e-06
1.48936e-07
1.83181e-05
1.83217e-05
1.05609e-06
1.48775e-07
2.68654e-06
2.19677e-07
1.05651e-06
1.48781e-07
2.68565e-06
4.99468e-06
4.99458e-06
3.36431e-07
4.99406e-06
4.99301e-06
1.82582e-05
1.82649e-05
1.82621e-05
1.82683e-05
4.97533e-06
4.97711e-06
3.2023e-07
4.97811e-06
4.98e-06
1.82685e-05
1.8263e-05
1.82726e-05
1.82664e-05
3.22092e-07
4.98684e-06
4.98768e-06
4.98171e-06
4.98266e-06
3.36936e-06
8.7477e-06
8.74855e-06
3.35329e-06
9.73466e-07
2.62318e-06
1.50641e-07
2.14184e-07
2.63053e-06
1.50226e-07
9.67342e-07
9.77571e-07
2.62642e-06
1.50761e-07
2.14206e-07
2.63172e-06
1.50343e-07
9.67085e-07
3.37241e-06
8.74864e-06
8.74628e-06
3.3857e-06
3.37468e-06
8.74876e-06
8.74847e-06
3.38631e-06
9.82528e-07
2.14563e-07
2.63945e-06
1.4961e-07
2.63658e-06
1.499e-07
9.88706e-07
9.80445e-07
2.14602e-07
2.64015e-06
1.49718e-07
2.63501e-06
1.50016e-07
9.87646e-07
4.98682e-06
4.9909e-06
3.1984e-07
4.98421e-06
4.98896e-06
1.8267e-05
1.82685e-05
1.82718e-05
1.82672e-05
3.21785e-07
4.98553e-06
4.98905e-06
4.98502e-06
4.99008e-06
1.82679e-05
1.8265e-05
9.77853e-07
2.62279e-06
1.50669e-07
2.13922e-07
2.62505e-06
1.50238e-07
9.70967e-07
3.36954e-06
8.74504e-06
8.746e-06
3.35687e-06
9.71151e-07
1.50664e-07
2.62082e-06
2.13718e-07
1.50228e-07
2.62725e-06
9.64482e-07
3.38079e-06
8.74776e-06
8.74597e-06
3.38433e-06
9.82519e-07
2.14308e-07
2.64027e-06
1.49591e-07
2.63318e-06
1.49897e-07
9.90227e-07
3.37554e-06
8.74868e-06
8.74617e-06
3.38592e-06
9.77785e-07
2.14124e-07
1.49583e-07
2.63982e-06
1.49889e-07
2.63104e-06
9.85306e-07
3.35876e-06
8.74348e-06
8.74361e-06
3.34943e-06
9.75196e-07
1.50762e-07
2.62491e-06
2.14084e-07
1.50345e-07
2.63191e-06
9.66755e-07
3.3654e-06
8.74867e-06
8.74976e-06
3.35522e-06
9.7961e-07
2.14548e-07
2.64092e-06
1.49629e-07
2.63361e-06
1.4991e-07
9.85123e-07
3.36562e-06
8.74322e-06
8.74333e-06
3.38237e-06
9.81289e-07
2.1456e-07
1.4972e-07
2.6433e-06
1.50017e-07
2.63544e-06
9.90947e-07
3.36966e-06
8.7494e-06
8.74953e-06
3.38648e-06
4.98671e-06
4.97847e-06
3.18893e-07
4.98673e-06
4.98312e-06
1.82628e-05
1.82688e-05
1.82713e-05
1.82675e-05
3.20851e-07
4.98791e-06
4.98598e-06
4.98808e-06
4.98541e-06
1.82715e-05
1.82664e-05
9.71556e-07
1.50647e-07
2.61756e-06
2.13567e-07
1.50206e-07
2.6241e-06
9.67731e-07
3.35893e-06
8.74386e-06
8.74508e-06
3.35436e-06
3.35637e-06
8.74016e-06
8.74246e-06
3.35666e-06
9.77828e-07
2.14099e-07
1.49597e-07
2.64075e-06
1.49889e-07
2.63449e-06
9.83922e-07
9.7722e-07
2.13968e-07
1.49553e-07
2.63833e-06
1.49865e-07
2.62882e-06
9.81935e-07
3.36011e-06
8.74677e-06
8.74566e-06
3.3714e-06
3.36231e-06
8.74566e-06
8.74312e-06
3.37733e-06
1.82631e-05
1.8269e-05
1.82534e-05
1.82619e-05
3.21097e-07
4.98859e-06
4.98329e-06
4.9843e-06
4.97806e-06
1.82697e-05
1.82664e-05
1.82679e-05
1.82605e-05
1.82657e-05
1.8268e-05
1.82702e-05
1.82748e-05
4.9889e-06
4.98985e-06
3.2487e-07
4.98824e-06
4.99167e-06
1.82643e-05
1.82641e-05
1.82738e-05
1.82717e-05
3.26549e-07
4.98585e-06
4.99159e-06
4.98873e-06
4.99283e-06
3.39689e-06
8.74853e-06
3.39148e-06
8.74878e-06
1.00034e-06
2.64681e-06
1.49358e-07
2.15521e-07
9.92765e-07
2.64987e-06
1.49124e-07
1.00039e-06
2.64331e-06
1.4946e-07
2.15634e-07
9.94525e-07
2.64458e-06
1.49212e-07
3.39861e-06
8.74826e-06
8.74872e-06
3.40182e-06
3.39865e-06
8.748e-06
8.74844e-06
3.39517e-06
1.0016e-06
2.15891e-07
2.64825e-06
1.48775e-07
2.65152e-06
1.48944e-07
1.0051e-06
1.00273e-06
2.16048e-07
2.65426e-06
1.48839e-07
2.64767e-06
1.49024e-07
1.0083e-06
4.98701e-06
4.98998e-06
3.25026e-07
4.9897e-06
4.98932e-06
1.82645e-05
1.82678e-05
1.82741e-05
1.82705e-05
3.26754e-07
4.99237e-06
4.99e-06
4.99152e-06
4.99064e-06
1.82674e-05
1.82645e-05
9.9574e-07
2.64208e-06
1.49325e-07
2.15298e-07
9.92345e-07
2.64841e-06
1.49082e-07
3.3964e-06
8.74866e-06
3.38548e-06
8.74875e-06
9.98084e-07
1.49324e-07
2.64146e-06
2.15108e-07
9.89813e-07
1.49083e-07
2.64871e-06
3.39678e-06
8.74936e-06
8.74868e-06
3.40236e-06
1.0009e-06
2.15703e-07
2.64799e-06
1.48729e-07
2.6505e-06
1.48899e-07
1.00542e-06
3.39808e-06
8.74795e-06
8.74804e-06
3.40058e-06
9.99695e-07
2.1555e-07
1.48737e-07
2.65e-06
1.48905e-07
2.65154e-06
1.00512e-06
3.39254e-06
8.74294e-06
3.38764e-06
8.74322e-06
9.9787e-07
1.49459e-07
2.64573e-06
2.1554e-07
9.94683e-07
1.49211e-07
2.64557e-06
3.39932e-06
8.74881e-06
3.39068e-06
8.74823e-06
9.98403e-07
2.15807e-07
2.65121e-06
1.48764e-07
2.64827e-06
1.48921e-07
1.00358e-06
3.40079e-06
8.74322e-06
8.74305e-06
3.39695e-06
1.00403e-06
2.15933e-07
1.48844e-07
2.6548e-06
1.49023e-07
2.64911e-06
1.00976e-06
3.39948e-06
8.74758e-06
8.74781e-06
3.40487e-06
4.98918e-06
4.98825e-06
3.23996e-07
4.98972e-06
4.98987e-06
1.82691e-05
1.82739e-05
1.82722e-05
1.8269e-05
3.25811e-07
4.9912e-06
4.99224e-06
4.99097e-06
4.99144e-06
1.82754e-05
1.82712e-05
9.92428e-07
1.49294e-07
2.64011e-06
2.15019e-07
9.89635e-07
1.49053e-07
2.64726e-06
3.38795e-06
8.74676e-06
3.37973e-06
8.74732e-06
3.38817e-06
8.74612e-06
3.38013e-06
8.74818e-06
1.00102e-06
2.15618e-07
1.48743e-07
2.65174e-06
1.48908e-07
2.65104e-06
1.00509e-06
9.99036e-07
2.15471e-07
1.48714e-07
2.65243e-06
1.4888e-07
2.64701e-06
1.00058e-06
3.39258e-06
8.74783e-06
8.74732e-06
3.39647e-06
3.39008e-06
8.7491e-06
8.7483e-06
3.39766e-06
1.82662e-05
1.82684e-05
1.8266e-05
1.82706e-05
3.26145e-07
4.9916e-06
4.99267e-06
4.99189e-06
4.99243e-06
1.82671e-05
1.82649e-05
1.82702e-05
1.82676e-05
1.82602e-05
1.82614e-05
1.82703e-05
1.82723e-05
4.98627e-06
4.9924e-06
3.28368e-07
4.98457e-06
4.99125e-06
1.82607e-05
1.8258e-05
1.82708e-05
1.8269e-05
3.29826e-07
4.9852e-06
4.99017e-06
4.98567e-06
4.99232e-06
3.39956e-06
8.74744e-06
3.39938e-06
8.74678e-06
1.00784e-06
2.6513e-06
1.48611e-07
2.1653e-07
1.00608e-06
2.65662e-06
1.48459e-07
1.00997e-06
2.65641e-06
1.48663e-07
2.16648e-07
1.01003e-06
2.6574e-06
1.48497e-07
3.4072e-06
8.74647e-06
8.74676e-06
3.40569e-06
3.40097e-06
8.74638e-06
8.74642e-06
3.40173e-06
1.01287e-06
2.16834e-07
2.65912e-06
1.48251e-07
2.65854e-06
1.48352e-07
1.01579e-06
1.00914e-06
2.16949e-07
2.65962e-06
1.48274e-07
2.65927e-06
1.48383e-07
1.01255e-06
4.99378e-06
4.99099e-06
3.2854e-07
4.99356e-06
4.98992e-06
1.82637e-05
1.82658e-05
1.82742e-05
1.82713e-05
3.30203e-07
4.99342e-06
4.98986e-06
4.9945e-06
4.9912e-06
1.82642e-05
1.82623e-05
1.01002e-06
2.65121e-06
1.48567e-07
2.16391e-07
1.00817e-06
2.65649e-06
1.48419e-07
3.4039e-06
8.74759e-06
3.40283e-06
8.7474e-06
1.00969e-06
1.4858e-07
2.65369e-06
2.16364e-07
1.00651e-06
1.48434e-07
2.65006e-06
3.40275e-06
8.7487e-06
8.74872e-06
3.40113e-06
1.01197e-06
2.16701e-07
2.65962e-06
1.48222e-07
2.65855e-06
1.48317e-07
1.01163e-06
3.40506e-06
8.74681e-06
8.74714e-06
3.4027e-06
1.01007e-06
2.16712e-07
1.48245e-07
2.6577e-06
1.48337e-07
2.65224e-06
1.01391e-06
3.3982e-06
8.74284e-06
3.39737e-06
8.74282e-06
1.01153e-06
1.48672e-07
2.65672e-06
2.16531e-07
1.01029e-06
1.48516e-07
2.65668e-06
3.40899e-06
8.74718e-06
3.40718e-06
8.7469e-06
1.01317e-06
2.1677e-07
2.65693e-06
1.48245e-07
2.6559e-06
1.48335e-07
1.01075e-06
3.3997e-06
8.7426e-06
8.74258e-06
3.3975e-06
1.01022e-06
2.16817e-07
1.48305e-07
2.65842e-06
1.48408e-07
2.65849e-06
1.01572e-06
3.41013e-06
8.74587e-06
8.74639e-06
3.40738e-06
4.99268e-06
4.99347e-06
3.27831e-07
4.99323e-06
4.99257e-06
1.82725e-05
1.82758e-05
1.82702e-05
1.82683e-05
3.29391e-07
4.99336e-06
4.99235e-06
4.99427e-06
4.9936e-06
1.82767e-05
1.8273e-05
1.00878e-06
1.48565e-07
2.65544e-06
2.16283e-07
1.00646e-06
1.48423e-07
2.65779e-06
3.40116e-06
8.74771e-06
3.4005e-06
8.74789e-06
3.39959e-06
8.74903e-06
3.39944e-06
8.74929e-06
1.01151e-06
2.16717e-07
1.48227e-07
2.6601e-06
1.48324e-07
2.65983e-06
1.01281e-06
1.00909e-06
2.16606e-07
1.48235e-07
2.65933e-06
1.48329e-07
2.65969e-06
1.00724e-06
3.40269e-06
8.74801e-06
8.74774e-06
3.40266e-06
3.40041e-06
8.74882e-06
8.74897e-06
3.39997e-06
1.82636e-05
1.82652e-05
1.82664e-05
1.8268e-05
3.29637e-07
4.99026e-06
4.99001e-06
4.99151e-06
4.9913e-06
1.82647e-05
1.82619e-05
1.82683e-05
1.82648e-05
1.82577e-05
1.8261e-05
1.82673e-05
1.82693e-05
4.9863e-06
4.9907e-06
3.308e-07
4.98575e-06
4.98822e-06
1.82623e-05
1.8258e-05
1.82692e-05
1.82662e-05
3.32108e-07
4.98565e-06
4.98768e-06
4.98629e-06
4.98895e-06
3.40175e-06
8.74607e-06
3.40294e-06
8.74551e-06
1.01727e-06
2.66045e-06
1.48151e-07
2.17255e-07
1.01699e-06
2.65983e-06
1.48069e-07
1.01536e-06
2.66091e-06
1.48172e-07
2.17362e-07
1.01484e-06
2.66041e-06
1.48087e-07
3.4039e-06
8.74635e-06
8.7458e-06
3.40362e-06
3.40291e-06
8.74527e-06
8.74525e-06
3.40035e-06
1.01813e-06
2.17481e-07
2.6603e-06
1.4799e-07
2.66115e-06
1.48028e-07
1.01451e-06
1.01407e-06
2.17474e-07
2.66203e-06
1.48002e-07
2.66201e-06
1.48043e-07
1.01717e-06
4.9945e-06
4.99025e-06
3.3136e-07
4.99313e-06
4.98778e-06
1.82602e-05
1.82619e-05
1.8272e-05
1.82702e-05
3.32772e-07
4.99153e-06
4.9868e-06
4.99379e-06
4.9886e-06
1.82615e-05
1.82585e-05
1.01686e-06
2.66147e-06
1.48126e-07
2.17142e-07
1.01486e-06
2.66078e-06
1.4805e-07
3.40235e-06
8.74644e-06
3.4029e-06
8.74617e-06
1.01537e-06
1.48156e-07
2.65991e-06
2.17253e-07
1.01566e-06
1.48083e-07
2.66081e-06
3.40052e-06
8.74881e-06
8.74906e-06
3.3986e-06
1.01772e-06
2.17327e-07
2.66188e-06
1.47974e-07
2.66194e-06
1.4801e-07
1.01718e-06
3.40333e-06
8.74578e-06
8.74589e-06
3.40318e-06
1.01621e-06
2.17483e-07
1.48022e-07
2.66104e-06
1.48052e-07
2.6623e-06
1.01536e-06
3.39858e-06
8.74229e-06
3.39808e-06
8.7424e-06
1.01853e-06
1.48207e-07
2.66004e-06
2.17201e-07
1.01782e-06
1.48123e-07
2.66004e-06
3.4074e-06
8.74546e-06
3.40811e-06
8.74523e-06
1.01703e-06
2.17321e-07
2.65668e-06
1.47965e-07
2.65896e-06
1.48006e-07
1.01257e-06
3.40007e-06
8.74192e-06
8.74209e-06
3.39986e-06
1.01921e-06
2.1744e-07
1.48044e-07
2.66064e-06
1.48083e-07
2.66133e-06
1.01567e-06
3.40775e-06
8.7446e-06
8.74492e-06
3.40586e-06
4.99448e-06
4.9934e-06
3.31156e-07
4.99342e-06
4.99111e-06
1.82739e-05
1.82762e-05
1.82675e-05
1.82657e-05
3.32521e-07
4.99174e-06
4.98888e-06
4.99386e-06
4.9915e-06
1.82728e-05
1.82725e-05
1.01291e-06
1.48144e-07
2.66062e-06
2.1706e-07
1.01167e-06
1.48061e-07
2.66014e-06
3.40344e-06
8.74788e-06
3.40412e-06
8.74857e-06
3.39976e-06
8.74864e-06
3.4011e-06
8.74899e-06
1.0136e-06
2.17532e-07
1.4797e-07
2.66079e-06
1.48007e-07
2.66169e-06
1.01808e-06
1.01453e-06
2.17282e-07
1.47981e-07
2.66166e-06
1.48022e-07
2.6618e-06
1.01927e-06
3.40327e-06
8.74782e-06
8.74843e-06
3.40285e-06
3.40088e-06
8.74942e-06
8.74902e-06
3.4016e-06
1.82614e-05
1.82646e-05
1.82655e-05
1.82695e-05
3.32103e-07
4.98962e-06
4.98987e-06
4.99019e-06
4.99091e-06
1.82651e-05
1.82617e-05
1.82698e-05
1.82666e-05
1.82598e-05
1.82646e-05
1.82663e-05
1.82695e-05
4.98679e-06
4.98866e-06
3.32304e-07
4.98754e-06
4.98752e-06
1.82657e-05
1.82619e-05
1.82713e-05
1.82667e-05
3.33498e-07
4.98912e-06
4.98852e-06
4.98882e-06
4.98855e-06
3.39893e-06
8.74505e-06
3.40071e-06
8.74532e-06