/*--------------------------------*- C++ -*----------------------------------*\
| =========                 |                                                 |
| \\      /  F ield         | OpenFOAM: The Open Source CFD Toolbox           |
|  \\    /   O peration     | Version:  2312                                  |
|   \\  /    A nd           | Website:  www.openfoam.com                      |
|    \\/     M anipulation  |                                                 |
\*---------------------------------------------------------------------------*/
FoamFile
{
    version     2.0;
    format      ascii;
    arch        "LSB;label=32;scalar=64";
    class       volScalarField;
    location    "250";
    object      nut;
}
// * * * * * * * * * * * * * * * * * * * * * * * * * * * * * * * * * * * * * //

dimensions      [0 2 -1 0 0 0 0];

internalField   nonuniform List<scalar> 
43496
(
9.6571e-05
2.36868e-05
0.000169245
9.92054e-05
0.000133553
0.000170713
9.65614e-05
5.02824e-05
0.00013347
0.000169241
0.000170687
9.91892e-05
0.000159278
7.60935e-05
7.6105e-05
2.36898e-05
5.02931e-05
3.64019e-05
9.65605e-05
9.18795e-05
4.06938e-05
9.18687e-05
4.06933e-05
3.64026e-05
2.01573e-05
7.78535e-05
7.78425e-05
2.01586e-05
2.3686e-05
3.6399e-05
9.65514e-05
4.06937e-05
9.18405e-05
4.06932e-05
9.18316e-05
3.63996e-05
2.01549e-05
7.7792e-05
5.02847e-05
7.7782e-05
2.01561e-05
8.03675e-05
2.15445e-05
2.15477e-05
2.15432e-05
2.15465e-05
8.03755e-05
0.000101648
4.82114e-05
7.60969e-05
0.000121101
4.82107e-05
0.000121081
0.000101663
0.000101634
4.82241e-05
7.61074e-05
0.000121075
0.00012111
4.82234e-05
0.000101631
2.36889e-05
5.02924e-05
0.000146667
0.000157438
0.000146416
9.9198e-05
0.000135324
0.00013539
0.000152322
0.000133531
0.000128361
0.000156005
0.000128343
0.000155988
0.000152311
0.00014513
0.000115906
0.000115883
0.000145272
0.000152207
0.000133481
0.000155762
0.000128207
0.000155996
0.000128218
0.00015221
0.000144908
0.000115822
9.91497e-05
0.000135191
0.00011578
0.000144979
0.000135262
0.000129268
0.000159212
0.000145861
0.000145854
0.000145792
0.000145806
0.0001293
0.000157594
0.000169347
0.000169266
0.000159516
0.000157458
0.000169322
0.000169291
0.000159563
0.000159471
0.000159494
0.000169342
0.000169308
0.000169348
0.000169331
0.000159378
0.000159587
0.000169382
0.000169287
0.000169376
0.000169277
0.000169405
0.000169396
0.000169436
0.000159295
0.000159212
0.000169386
0.000169278
0.000169381
0.000159563
0.000159499
0.000169295
0.000169352
0.000159427
0.000169349
0.000169284
0.000169461
0.000159174
0.000169406
9.65984e-05
5.02938e-05
5.02937e-05
9.65943e-05
2.36873e-05
2.36885e-05
9.65851e-05
5.02925e-05
5.02937e-05
9.65781e-05
0.000157418
0.000157425
0.000157468
0.000157687
0.000157472
0.000157468
0.000157483
0.000133586
9.91914e-05
0.000170779
0.000169364
9.92032e-05
0.000170784
0.000133509
2.36855e-05
2.36865e-05
0.000133444
0.000170685
9.91867e-05
0.000169258
0.000170672
9.92061e-05
0.000133413
7.61318e-05
7.61086e-05
0.000159562
7.61412e-05
7.61063e-05
5.02937e-05
9.65492e-05
2.3688e-05
5.02933e-05
9.65649e-05
0.000157515
0.000157542
0.00015754
0.000133555
9.92373e-05
0.00017083
0.000133581
0.000170815
2.36859e-05
0.000133413
0.000170716
9.9189e-05
0.000133395
0.000170748
7.613e-05
7.61032e-05
0.000159586
7.61362e-05
7.61174e-05
2.36881e-05
2.36888e-05
2.36868e-05
2.36877e-05
7.61051e-05
7.61152e-05
0.000159489
7.60962e-05
7.6117e-05
2.3689e-05
2.36879e-05
2.36877e-05
2.36868e-05
0.00015951
7.61076e-05
7.61045e-05
7.60962e-05
7.61115e-05
9.65962e-05
5.02921e-05
5.02925e-05
9.65877e-05
0.00013359
9.91482e-05
0.000170761
0.000169329
9.91562e-05
0.000170716
0.000133586
0.000133546
9.91563e-05
0.000170729
0.000169303
9.91573e-05
0.000170696
0.000133558
9.65848e-05
5.02938e-05
5.02932e-05
9.6582e-05
9.65829e-05
5.02933e-05
5.02921e-05
9.65888e-05
0.000133557
0.000169323
9.91985e-05
0.000170739
9.91674e-05
0.000170721
0.000133576
0.000133504
0.000169308
9.91872e-05
0.00017073
9.91393e-05
0.000170746
0.000133456
7.61047e-05
7.61288e-05
0.000159537
7.61137e-05
7.61514e-05
2.36892e-05
2.36904e-05
2.36888e-05
2.36876e-05
0.000159376
7.61184e-05
7.61463e-05
7.61009e-05
7.61445e-05
2.36906e-05
2.36896e-05
0.00013357
9.92275e-05
0.000170743
0.00016936
9.92387e-05
0.000170722
0.000133583
9.6582e-05
5.02877e-05
5.0286e-05
9.65703e-05
0.000133588
0.000170699
9.91774e-05
0.000169263
0.000170694
9.91683e-05
0.000133608
9.65729e-05
5.02938e-05
5.02933e-05
9.65818e-05
0.000133557
0.000169366
9.92075e-05
0.00017075
9.91973e-05
0.000170738
0.000133592
9.65716e-05
5.02846e-05
5.02849e-05
9.65808e-05
0.000133595
0.000169286
0.000170714
9.91786e-05
0.000170706
9.91469e-05
0.000133609
9.65963e-05
5.02936e-05
5.02945e-05
9.65777e-05
0.000133559
0.000170824
9.92267e-05
0.000169411
0.000170818
9.92038e-05
0.000133571
9.65956e-05
5.02913e-05
5.02915e-05
9.65948e-05
0.000133575
0.00016937
9.92482e-05
0.000170818
9.9214e-05
0.000170799
0.000133609
9.65822e-05
5.02953e-05
5.02943e-05
9.65912e-05
0.000133562
0.000169427
0.000170823
9.923e-05
0.000170817
9.921e-05
0.000133601
9.65832e-05
5.02912e-05
5.02909e-05
9.65906e-05
7.60943e-05
7.61153e-05
0.000159177
7.61033e-05
7.61236e-05
2.36887e-05
2.36897e-05
2.36867e-05
2.36857e-05
0.000159085
7.61057e-05
7.61236e-05
7.61019e-05
7.61194e-05
2.36897e-05
2.36888e-05
0.000133594
0.000170738
9.92034e-05
0.000169371
0.000170718
9.91841e-05
0.000133591
9.65269e-05
5.02922e-05
5.02924e-05
9.65242e-05
9.65574e-05
5.02893e-05
5.02899e-05
9.65482e-05
0.000133415
0.000169262
0.000170693
9.9201e-05
0.000170686
9.91679e-05
0.000133442
0.00013347
0.000169373
0.000170734
9.92084e-05
0.000170723
9.91957e-05
0.000133489
9.64967e-05
5.0292e-05
5.02917e-05
9.65036e-05
9.65404e-05
5.02909e-05
5.02897e-05
9.65299e-05
2.36884e-05
2.36893e-05
2.36865e-05
2.36876e-05
0.00015951
7.61408e-05
7.61128e-05
7.61357e-05
7.6113e-05
2.36894e-05
2.36885e-05
2.3688e-05
2.36868e-05
2.36882e-05
2.36869e-05
7.60945e-05
7.60989e-05
5.0293e-05
9.65763e-05
9.91874e-05
0.000170674
0.000133541
9.91707e-05
0.000170732
0.000133468
7.61153e-05
7.61488e-05
2.36898e-05
9.91876e-05
0.000170784
0.000133517
5.02844e-05
9.65655e-05
0.000170767
9.91716e-05
0.000133473
9.65665e-05
5.0295e-05
9.65739e-05
0.000133533
0.000170847
9.92176e-05
0.000169405
0.000133586
0.000170747
9.92629e-05
9.65698e-05
5.02907e-05
9.65556e-05
5.02915e-05
7.60992e-05
7.61181e-05
2.36889e-05
0.000133488
0.00017078
9.91724e-05
0.000169385
0.000133436
0.00017069
9.92266e-05
9.65273e-05
5.02918e-05
9.65067e-05
9.65598e-05
5.02906e-05
9.65293e-05
5.02917e-05
2.36885e-05
2.36895e-05
2.36872e-05
2.36883e-05
3.64019e-05
4.06956e-05
9.18772e-05
9.65883e-05
4.06952e-05
9.18642e-05
3.64026e-05
2.01566e-05
5.02939e-05
7.7808e-05
7.78189e-05
2.01553e-05
2.01553e-05
7.78161e-05
5.02933e-05
7.78056e-05
2.01565e-05
3.64026e-05
9.66073e-05
4.06954e-05
9.1867e-05
4.06958e-05
9.188e-05
3.6402e-05
2.36883e-05
2.36875e-05
3.64025e-05
9.18983e-05
4.06947e-05
9.65734e-05
9.18855e-05
4.06943e-05
3.64032e-05
2.01581e-05
5.02932e-05
7.78261e-05
7.78431e-05
2.01567e-05
2.0157e-05
7.78538e-05
5.0293e-05
7.78396e-05
2.01584e-05
3.64033e-05
9.65901e-05
9.18867e-05
4.06946e-05
9.1901e-05
4.0695e-05
3.64026e-05
2.36864e-05
2.36855e-05
8.0397e-05
2.15486e-05
2.15453e-05
2.15473e-05
2.1544e-05
8.04048e-05
0.000101715
0.00012123
7.61406e-05
4.82253e-05
0.000121236
4.82261e-05
0.000101711
0.000101703
0.000121161
7.61109e-05
4.82129e-05
0.00012116
4.82136e-05
0.000101697
0.000101684
4.82262e-05
7.61336e-05
0.000121239
0.000121229
4.82254e-05
0.000101701
0.000101678
4.82137e-05
7.61024e-05
0.000121153
0.000121105
4.82129e-05
0.000101706
8.04043e-05
2.15472e-05
2.15439e-05
2.15485e-05
2.15452e-05
8.03972e-05
2.01565e-05
7.779e-05
5.02926e-05
2.01552e-05
7.78057e-05
3.64024e-05
9.65788e-05
4.06944e-05
9.18564e-05
3.64017e-05
4.06948e-05
9.18697e-05
2.36891e-05
2.01586e-05
7.78437e-05
5.02937e-05
2.01573e-05
7.78553e-05
3.64027e-05
9.65776e-05
9.18748e-05
4.06935e-05
3.64021e-05
9.18867e-05
4.06939e-05
2.36868e-05
8.04002e-05
2.15489e-05
2.15457e-05
2.15476e-05
2.15445e-05
8.04081e-05
0.000101708
0.000121263
4.82257e-05
7.61329e-05
0.000101688
0.000121276
4.82264e-05
0.000101698
0.000121125
4.8214e-05
7.61232e-05
0.000101691
0.000121144
4.82149e-05
8.04074e-05
2.15476e-05
2.15444e-05
8.04002e-05
2.15488e-05
2.15456e-05
0.000101704
4.82269e-05
7.61195e-05
0.000121244
0.000121219
4.8226e-05
0.000101722
0.000101713
4.82156e-05
7.61161e-05
0.000121187
0.000121116
4.82147e-05
0.000101732
2.36889e-05
2.3688e-05
2.36877e-05
2.36869e-05
8.03909e-05
2.15471e-05
2.15439e-05
2.15458e-05
2.15426e-05
8.0399e-05
0.000101679
0.000121172
7.60987e-05
4.82229e-05
4.82234e-05
0.000121126
0.000101684
0.000101686
0.000121154
7.61231e-05
4.82114e-05
4.8212e-05
0.000121178
0.000101679
0.000101679
4.82233e-05
7.60931e-05
0.000121139
4.82226e-05
0.000101691
0.000121109
0.000101663
4.82119e-05
7.61147e-05
0.000121163
4.82112e-05
0.000101698
0.000121123
8.03985e-05
2.15458e-05
2.15426e-05
2.1547e-05
2.15439e-05
8.03916e-05
2.36881e-05
2.36888e-05
2.36869e-05
2.36877e-05
8.03994e-05
2.15459e-05
2.15427e-05
8.03919e-05
2.15472e-05
2.1544e-05
0.000101687
0.000121136
7.61042e-05
4.82237e-05
4.82227e-05
0.000121102
0.000101703
0.00010169
0.00012112
7.61069e-05
4.8212e-05
4.82113e-05
0.00012114
0.000101695
0.000101676
4.82225e-05
0.000121139
7.60995e-05
0.000101673
4.82232e-05
0.00012116
0.000101704
4.82112e-05
0.000121159
7.61153e-05
0.000101687
4.8212e-05
0.000121172
8.03938e-05
2.15473e-05
2.15441e-05
2.1546e-05
2.15428e-05
8.04011e-05
3.64012e-05
4.06957e-05
9.18757e-05
9.65846e-05
4.06952e-05
9.18633e-05
3.64019e-05
2.01575e-05
5.02925e-05
7.78222e-05
7.7834e-05
2.01563e-05
2.01563e-05
7.78337e-05
5.0292e-05
7.78222e-05
2.01576e-05
3.64019e-05
9.66007e-05
4.06954e-05
9.1867e-05
4.06959e-05
9.18798e-05
3.64013e-05
3.64025e-05
4.06949e-05
9.18645e-05
9.65958e-05
3.64019e-05
4.06954e-05
9.18785e-05
2.01552e-05
5.02933e-05
7.7807e-05
2.01565e-05
7.77966e-05
2.01565e-05
7.78024e-05
5.02936e-05
2.01552e-05
7.78127e-05
3.64018e-05
9.65613e-05
4.06951e-05
9.18745e-05
3.64025e-05
4.06946e-05
9.18619e-05
3.64018e-05
4.0695e-05
9.18623e-05
9.65939e-05
3.64011e-05
4.06955e-05
9.1876e-05
2.01565e-05
5.02925e-05
7.78361e-05
7.78242e-05
2.01578e-05
2.01577e-05
7.78234e-05
5.02926e-05
2.01564e-05
7.78354e-05
3.64011e-05
9.6577e-05
4.06953e-05
9.18766e-05
4.06948e-05
9.18618e-05
3.64018e-05
8.03933e-05
2.15449e-05
2.1548e-05
2.15437e-05
2.15468e-05
8.04006e-05
0.000101689
0.000121129
7.61132e-05
4.82124e-05
4.82131e-05
0.000121119
0.000101661
0.000101715
0.000121244
7.61488e-05
4.82254e-05
0.000121256
4.82263e-05
0.000101702
0.000101682
4.82133e-05
7.61059e-05
0.000121174
4.82125e-05
0.000121151
0.000101692
0.000101705
4.82265e-05
7.61408e-05
0.000121254
0.00012123
4.82257e-05
0.000101702
8.04011e-05
2.15436e-05
2.15467e-05
2.15449e-05
2.1548e-05
8.03944e-05
2.36902e-05
2.36894e-05
2.36878e-05
2.36886e-05
8.04e-05
2.15437e-05
2.15468e-05
8.03931e-05
2.1545e-05
2.15481e-05
0.000101689
0.000121175
7.61027e-05
4.82138e-05
0.000121168
4.82129e-05
0.000101699
0.000101699
0.00012124
7.6138e-05
4.82269e-05
4.8226e-05
0.000121234
0.000101715
0.000101702
4.82126e-05
0.00012117
7.61164e-05
0.000121154
0.000101684
4.82134e-05
0.000101699
4.82259e-05
0.000121266
7.6147e-05
0.000101699
4.82266e-05
0.00012129
8.0394e-05
2.15451e-05
2.15481e-05
2.15438e-05
2.15469e-05
8.04009e-05
2.36896e-05
2.36905e-05
3.63999e-05
4.06945e-05
9.1869e-05
9.65603e-05
4.06941e-05
9.18592e-05
3.64005e-05
2.01564e-05
5.02865e-05
7.77977e-05
7.78089e-05
2.01552e-05
2.01551e-05
7.7804e-05
5.02872e-05
7.77938e-05
2.01563e-05
3.64007e-05
9.65934e-05
4.06944e-05
9.1866e-05
4.06948e-05
9.18778e-05
3.64001e-05
3.6403e-05
9.18848e-05
4.0694e-05
9.65853e-05
3.64024e-05
9.18973e-05
4.06944e-05
2.01573e-05
5.02933e-05
7.78563e-05
2.01586e-05
7.78448e-05
2.01585e-05
7.78441e-05
5.02938e-05
2.01572e-05
7.78565e-05
3.64022e-05
9.65698e-05
9.18927e-05
4.06941e-05
3.64029e-05
9.18808e-05
4.06937e-05
3.64003e-05
4.06939e-05
9.18537e-05
9.65845e-05
3.63997e-05
4.06943e-05
9.1864e-05
2.0155e-05
5.02842e-05
7.77962e-05
7.77854e-05
2.01562e-05
2.01562e-05
7.77902e-05
5.02849e-05
2.0155e-05
7.78002e-05
3.63994e-05
9.65689e-05
4.06941e-05
9.18568e-05
4.06936e-05
9.18463e-05
3.64e-05
3.64034e-05
9.1869e-05
4.06969e-05
9.65817e-05
9.18504e-05
4.06963e-05
3.64044e-05
2.01582e-05
5.02942e-05
7.77939e-05
7.78163e-05
2.01567e-05
2.01569e-05
7.78172e-05
5.0294e-05
7.78041e-05
2.01584e-05
3.64038e-05
9.65951e-05
9.18284e-05
4.06963e-05
9.186e-05
4.06969e-05
3.64026e-05
3.64016e-05
4.0697e-05
9.18722e-05
9.65849e-05
4.06966e-05
9.1862e-05
3.64022e-05
2.01576e-05
5.02917e-05
7.77964e-05
7.78087e-05
2.01564e-05
2.01563e-05
7.78084e-05
5.02912e-05
7.77968e-05
2.01575e-05
3.64024e-05
9.66088e-05
4.06966e-05
9.18695e-05
4.06971e-05
9.18805e-05
3.64018e-05
3.64047e-05
9.18575e-05
4.06963e-05
9.65944e-05
3.64038e-05
9.18731e-05
4.06969e-05
2.01571e-05
5.02947e-05
7.78185e-05
7.78053e-05
2.01584e-05
2.01584e-05
7.78061e-05
5.02949e-05
2.01571e-05
7.78135e-05
3.6404e-05
9.65784e-05
9.18725e-05
4.06968e-05
9.18578e-05
4.06963e-05
3.64048e-05
3.64021e-05
4.06964e-05
9.18577e-05
9.65949e-05
3.64015e-05
4.06969e-05
9.18698e-05
2.01561e-05
5.02907e-05
7.78072e-05
7.77921e-05
2.01573e-05
2.01574e-05
7.77981e-05
5.02914e-05
2.01562e-05
7.78099e-05
3.64013e-05
9.65792e-05
4.06967e-05
9.18675e-05
4.06962e-05
9.1854e-05
3.64019e-05
8.03645e-05
2.15441e-05
2.15474e-05
2.15428e-05
2.15461e-05
8.03721e-05
0.000101663
0.000121112
7.61004e-05
4.82099e-05
4.82106e-05
0.000121137
0.000101647
0.000101633
0.000121112
7.61164e-05
4.8223e-05
0.000121098
4.82237e-05
0.000101621
0.000101653
4.82107e-05
7.60881e-05
0.000121125
4.82099e-05
0.000121106
0.000101649
0.000101621
4.82237e-05
7.61177e-05
0.000121144
0.00012112
4.8223e-05
0.000101622
8.0372e-05
2.15427e-05
2.1546e-05
2.1544e-05
2.15473e-05
8.03649e-05
2.36896e-05
2.36887e-05
2.36858e-05
2.36866e-05
8.03718e-05
2.15429e-05
2.15462e-05
8.03646e-05
2.15441e-05
2.15475e-05
0.000101649
0.00012111
7.60988e-05
4.82112e-05
0.000121092
4.82104e-05
0.000101667
0.000101605
0.000121105
7.61157e-05
4.82236e-05
4.82229e-05
0.000121126
0.000101619
0.000101659
4.82102e-05
0.000121124
7.61065e-05
0.000121145
0.000101648
4.8211e-05
0.000101617
4.82228e-05
0.000121142
7.61236e-05
0.000101587
4.82236e-05
0.000121157
8.0366e-05
2.15443e-05
2.15475e-05
2.1543e-05
2.15463e-05
8.03736e-05
2.36888e-05
2.36897e-05
3.64021e-05
9.18367e-05
4.06932e-05
9.65158e-05
9.18275e-05
4.06927e-05
3.64027e-05
2.01579e-05
5.02926e-05
7.78017e-05
7.78121e-05
2.01567e-05
2.01566e-05
7.78059e-05
5.0292e-05
7.77966e-05
2.01579e-05
3.64028e-05
9.65351e-05
9.18374e-05
4.06927e-05
9.1847e-05
4.06932e-05
3.64022e-05
3.64004e-05
9.18765e-05
4.06935e-05
9.65453e-05
9.18635e-05
4.06929e-05
3.64012e-05
2.01573e-05
5.02898e-05
7.7812e-05
7.78198e-05
2.01559e-05
2.01561e-05
7.78229e-05
5.02894e-05
7.78097e-05
2.01574e-05
3.64012e-05
9.65629e-05
9.18662e-05
4.06928e-05
9.18802e-05
4.06934e-05
3.64004e-05
3.64026e-05
9.18201e-05
4.06926e-05
9.65175e-05
3.6402e-05
9.18297e-05
4.06933e-05
2.01566e-05
5.02915e-05
7.77954e-05
7.77875e-05
2.01579e-05
2.01578e-05
7.77885e-05
5.02921e-05
2.01566e-05
7.78007e-05
3.64019e-05
9.64984e-05
9.18218e-05
4.06934e-05
9.18116e-05
4.06928e-05
3.64026e-05
3.64013e-05
9.18621e-05
4.06929e-05
9.65515e-05
3.64005e-05
9.18753e-05
4.06936e-05
2.01565e-05
5.02902e-05
7.78365e-05
7.78244e-05
2.01578e-05
2.01577e-05
7.78203e-05
5.02905e-05
2.01563e-05
7.78346e-05
3.64005e-05
9.65269e-05
9.18731e-05
4.06935e-05
9.18589e-05
4.0693e-05
3.64013e-05
2.36893e-05
2.36884e-05
2.36874e-05
2.36866e-05
8.04051e-05
2.15474e-05
2.15441e-05
8.03979e-05
2.15487e-05
2.15454e-05
0.000101689
0.000121286
7.6132e-05
4.82263e-05
0.000101717
0.000121228
4.82255e-05
0.000101683
0.000121158
7.61088e-05
4.82144e-05
0.000101693
0.000121175
4.82136e-05
0.000101694
4.82255e-05
0.00012126
7.61382e-05
0.000101694
0.000121274
4.82261e-05
0.000101679
4.82132e-05
0.000121168
7.61127e-05
0.000101684
0.000121196
4.8214e-05
8.03996e-05
2.15487e-05
2.15455e-05
8.04071e-05
2.15475e-05
2.15442e-05
2.36885e-05
2.36894e-05
2.3687e-05
2.36878e-05
2.36891e-05
2.36877e-05
0.000101685
0.000121097
4.8223e-05
7.61091e-05
0.000101691
4.82239e-05
0.000121161
0.000101664
0.000121132
4.82112e-05
7.60981e-05
0.000101671
4.82118e-05
0.000121162
8.04008e-05
2.15462e-05
2.15429e-05
8.03937e-05
2.15475e-05
2.15442e-05
2.01578e-05
7.78257e-05
5.02937e-05
2.01565e-05
7.78379e-05
3.64019e-05
9.65894e-05
4.06947e-05
9.18654e-05
4.06952e-05
3.64012e-05
9.1881e-05
0.000101708
0.000121167
4.82132e-05
7.61225e-05
4.82142e-05
0.000101675
0.000121181
0.000101707
0.000121223
4.82263e-05
7.6154e-05
0.000121227
0.000101701
4.8227e-05
8.04004e-05
2.15439e-05
2.15469e-05
2.15452e-05
8.03933e-05
2.15482e-05
2.01561e-05
7.77845e-05
5.02856e-05
2.01549e-05
7.77953e-05
3.63998e-05
9.6576e-05
4.06934e-05
9.18405e-05
4.06939e-05
3.63992e-05
9.18507e-05
3.64041e-05
9.65473e-05
4.06964e-05
9.18555e-05
4.06959e-05
2.01584e-05
7.78022e-05
5.02957e-05
7.78137e-05
2.01571e-05
3.64049e-05
9.65846e-05
9.18579e-05
4.06961e-05
9.18723e-05
3.64041e-05
4.06966e-05
2.0157e-05
3.64009e-05
9.65586e-05
4.06961e-05
9.18598e-05
4.06957e-05
9.18484e-05
3.64015e-05
2.01572e-05
7.77903e-05
5.02912e-05
2.0156e-05
7.78051e-05
3.64017e-05
9.65746e-05
4.06959e-05
9.1853e-05
3.64011e-05
4.06964e-05
9.18653e-05
2.01559e-05
7.78012e-05
5.02909e-05
7.77872e-05
2.01571e-05
0.000101647
0.000121068
4.82106e-05
7.61055e-05
4.82112e-05
0.000101648
0.000121125
0.000101633
0.000121123
4.82231e-05
7.61161e-05
0.000121149
0.000101604
4.82239e-05
8.03742e-05
2.15431e-05
2.15464e-05
2.15444e-05
8.03666e-05
2.15476e-05
2.36898e-05
3.64021e-05
9.65122e-05
9.18268e-05
4.06941e-05
9.18024e-05
4.06934e-05
3.64031e-05
2.0158e-05
7.77821e-05
5.02925e-05
7.7798e-05
2.01567e-05
3.64027e-05
9.65257e-05
9.18067e-05
4.0693e-05
9.18159e-05
3.6402e-05
4.06938e-05
2.01569e-05
7.78006e-05
7.77897e-05
2.01583e-05
3.64007e-05
9.6542e-05
9.1878e-05
4.06941e-05
9.18609e-05
4.06933e-05
3.64015e-05
2.01579e-05
7.78261e-05
5.02912e-05
2.01566e-05
7.78381e-05
3.64014e-05
9.65529e-05
9.18595e-05
4.0693e-05
3.64006e-05
9.18748e-05
4.06938e-05
2.01567e-05
7.7839e-05
5.0291e-05
7.7827e-05
2.01579e-05
2.36894e-05
2.36885e-05
2.36882e-05
2.36874e-05
0.000146681
0.000146699
0.000157626
0.000146716
0.00014671
0.000135789
0.000135769
0.000129419
0.000146129
0.00014603
0.000159562
0.000146055
0.000146067
0.000129351
0.000146654
0.000146781
0.000135498
0.000135839
0.000129424
0.000146106
0.000146112
0.000159565
0.000129414
0.000146154
0.00014614
0.000129354
0.000146044
0.000146108
0.000159471
0.000146074
0.000146153
0.00012938
0.000129355
0.0001595
0.000146067
0.000145882
0.000146014
0.00014584
0.000129369
0.000129333
0.000146062
0.00014611
0.00015949
0.000146145
0.000146096
0.000129355
0.000129362
0.000159446
0.00014617
0.000146236
0.000146122
0.000146192
0.00012935
0.000129252
0.000145948
0.000145886
0.000159381
0.000145929
0.000145964
0.000129222
0.000129277
0.000159154
0.000145862
0.000145856
0.000145835
0.000145912
0.000129298
0.000129403
0.000159542
0.000146085
0.000146115
0.000129415
0.00014604
0.000146084
0.00012936
0.000145913
0.000145897
0.000159344
0.000129346
0.000145966
0.000145965
0.000129379
0.000146012
0.000146075
0.000159586
0.000146112
0.000129394
0.000146059
0.000129231
0.000145878
0.000145856
0.000159235
0.000145931
0.000129259
0.00014595
0.00014645
0.000146502
0.000157424
0.000146444
0.000146462
0.000135501
0.000135461
0.000146521
0.000146432
0.000157402
0.000146529
0.000146462
0.000135518
0.000135486
0.000146481
0.000146441
0.000157469
0.000146462
0.000146402
0.000135401
0.000135357
0.000157679
0.000146762
0.000146763
0.000146725
0.000146746
0.000135788
0.000135805
0.00015744
0.000146486
0.000146523
0.00014648
0.000146552
0.000135508
0.00013551
0.000157441
0.000146546
0.000146521
0.000146585
0.000146477
0.000135475
0.000135567
0.000157472
0.000146544
0.000146488
0.000146516
0.00014645
0.000135431
0.000135449
0.00015229
0.000128342
0.000155844
0.000133569
0.000128318
0.000155939
0.000152279
0.000145076
0.000135464
9.92239e-05
0.000115747
0.000135489
0.000115832
0.000145035
0.000145094
0.000115839
9.9201e-05
0.000135491
0.000135472
0.000115802
0.000145119
0.000152329
0.000133557
0.000128288
0.000155901
0.000128324
0.00015589
0.000152242
0.000152274
0.000155912
0.000128163
0.000133422
0.000155909
0.000128138
0.000152199
0.000145092
0.000135372
9.92171e-05
0.000115834
0.000135397
0.000115841
0.000145044
0.000145065
0.000115817
9.91912e-05
0.000135398
0.00013538
0.000115776
0.000145158
0.000152112
0.000133438
0.000155941
0.000128182
0.000155908
0.000128177
0.000152278
0.000129378
0.000159534
0.00014612
0.000146072
0.000146062
0.000146059
0.000129429
0.000146539
0.000146515
0.000146433
0.000135388
0.000135583
0.000146579
0.000146579
0.000146465
0.00013542
0.000135531
0.000146581
0.000146514
0.000157484
0.000146492
0.00014645
0.000135306
0.000135506
0.000152301
0.000133579
0.000128299
0.000155793
0.000128294
0.000155968
0.000152317
0.000145203
0.000135498
0.000115775
9.92624e-05
0.000145134
0.000135525
0.000115827
0.000152344
0.000133591
0.000128314
0.000155954
0.000152259
0.000128359
0.000156
0.000152286
0.000133391
0.000155931
0.000128065
0.000155924
0.000128067
0.00015231
0.00014504
0.000135393
0.000115792
9.92127e-05
0.000145028
0.000135414
0.000115813
0.000152289
0.000133424
0.000155941
0.000128105
0.000152264
0.000155945
0.000128066
0.000144929
0.00011581
0.000115767
0.000144942
0.000129428
0.000159537
0.00014606
0.000146181
0.000146018
0.000146146
0.000129417
0.000129389
0.00015948
0.00014612
0.000146047
0.000129412
0.000146074
0.000146007
0.000129387
0.000159506
0.000145978
0.000145903
0.000129374
0.000146017
0.000145969
0.000151957
0.000128158
0.000155855
0.00013356
0.000128167
0.000155785
0.000151985
0.000144917
0.000135265
9.91499e-05
0.000115772
0.000115788
0.000135289
0.000144787
0.000144869
0.0001158
9.91543e-05
0.000135293
0.000115769
0.000135274
0.000144976
0.000152012
0.000133577
0.000128207
0.000155825
0.000128173
0.000155894
0.000151944
0.000152066
0.000128205
0.000155851
0.000133524
0.000128165
0.000155807
0.000152063
0.000144971
0.000135216
9.91738e-05
0.000115815
0.000115854
0.000135242
0.000144882
0.000144937
0.000115804
9.913e-05
0.000135231
0.000115777
0.000144987
0.000135222
0.000152053
0.000133547
0.00012825
0.000155848
0.000128253
0.000155893
0.000152045
0.000152028
0.000128148
0.000155649
0.000133547
0.000152026
0.000128183
0.000155689
0.000144973
0.000135282
9.91752e-05
0.000115781
0.000135298
0.000115786
0.000145001
0.000144964
0.000115736
0.000135293
9.91699e-05
0.000135314
0.000144929
0.000115806
0.000152012
0.000133547
0.000128287
0.000155767
0.000128263
0.000155695
0.000152117
0.000152138
0.000128105
0.000155867
0.000133487
0.000152105
0.000128193
0.000155939
0.00014498
0.000135135
9.91655e-05
0.00011581
0.000115807
0.000135182
0.00014509
0.000145029
0.000115759
0.00013522
9.9152e-05
0.00014498
0.000115835
0.000135215
0.000152128
0.000133458
0.000128181
0.000155933
0.000128153
0.000155884
0.000152192
0.000129369
0.000159383
0.000146133
0.000146175
0.000146139
0.000146094
0.000129391
0.000129386
0.000159561
0.000146118
0.00014616
0.000146148
0.00012938
0.00014621
0.000152136
0.000128392
0.000155858
0.000133565
0.000128369
0.000155869
0.000152099
0.00014503
0.000135285
9.92443e-05
0.00011591
0.000115935
0.000135315
0.000144972
0.000145026
0.00011592
9.9224e-05
0.000135328
0.0001159
0.000135304
0.000145089
0.000152124
0.000133588
0.000128362
0.000155915
0.000128368
0.000155953
0.000152069
0.000152145
0.000155914
0.00012833
0.000133587
0.000155879
0.00012833
0.000152135
0.000145074
0.00013541
9.92017e-05
0.000115856
0.000115877
0.000135429
0.000144941
0.000145018
0.000115858
9.91615e-05
0.000135364
0.00011582
0.000145111
0.000135407
0.000152346
0.000133617
0.000155919
0.000128333
0.00015598
0.000128362
0.000152266
0.000152258
0.000128382
0.000155944
0.000133571
0.00015221
0.000128415
0.000155976
0.000145138
0.000135366
9.91887e-05
0.000115933
0.000135345
0.000115903
0.000145201
0.000145132
0.000115895
0.000135333
9.92015e-05
0.000135357
0.000145102
0.000115923
0.000152261
0.000133581
0.000128428
0.000155958
0.000128417
0.00015597
0.000152371
0.000152169
0.000155969
0.000128329
0.000133598
0.000152147
0.000155992
0.000128331
0.000145035
0.000135238
9.91493e-05
0.000115867
0.000115843
0.000135211
0.000145035
0.000145088
0.000115832
0.000135201
9.91683e-05
0.00014505
0.000115858
0.000135216
0.000152161
0.000133575
0.000155943
0.000128354
0.000155973
0.000128318
0.000152239
0.000152224
0.000155981
0.000128184
0.000133508
0.000155954
0.0001282
0.00015223
0.000145168
0.000135515
9.92204e-05
0.000115833
0.000135538
0.00011586
0.000145145
0.00014498
0.000115835
9.92067e-05
0.000135531
0.000135517
0.000115782
0.000145038
0.000152272
0.00013358
0.000156003
0.000128217
0.000155998
0.000128252
0.000152202
0.000152205
0.000128316
0.000155953
0.000133605
0.000152266
0.000128324
0.000155927
0.000145149
0.000135514
9.92183e-05
0.000115829
0.000145244
0.000135495
0.000115793
0.000145147
0.00011582
0.000135491
9.92372e-05
0.000145112
0.00013551
0.000115843
0.000152255
0.000133609
0.000128322
0.000155982
0.000152355
0.000128306
0.00015594
0.000152154
0.000155923
0.000128207
0.000133578
0.000152221
0.000155966
0.000128198
0.000145093
0.000135542
9.91885e-05
0.000115893
0.000115832
0.000135525
0.000145106
0.000145158
0.000115781
0.000135527
9.92247e-05
0.000145026
0.000115825
0.000135543
0.000152067
0.00013359
0.000155986
0.00012827
0.000155968
0.0001282
0.000152155
0.000129254
0.00015911
0.0001459
0.000145918
0.000145906
0.000145973
0.000129273
0.00012928
0.000159265
0.000145888
0.000145894
0.000145966
0.000129264
0.00014586
0.000152333
0.000155964
0.000128344
0.000133576
0.000155949
0.000128321
0.000152323
0.000145237
0.000135434
9.91941e-05
0.000115807
0.000135448
0.000115838
0.000145203
0.000145224
0.000115886
9.91788e-05
0.000135426
0.000135423
0.000115793
0.000145279
0.000152358
0.000133625
0.000155991
0.000128348
0.000155994
0.000128371
0.000152317
0.000152319
0.000155945
0.000128127
0.000133363
0.000152235
0.000155939
0.000128135
0.000145145
0.000135412
9.91547e-05
0.000115824
0.000145175
0.000135395
0.000115769
0.00014522
0.00011578
0.000135396
9.91883e-05
0.000145117
0.000135413
0.00011582
0.000152259
0.000133385
0.000156002
0.00012812
0.000152332
0.000155957
0.000128073
0.000152335
0.000155941
0.000128278
0.0001335
0.000152315
0.000155938
0.000128277
0.000145006
0.000135357
9.91819e-05
0.000115818
0.000115842
0.000135379
0.000145084
0.000145149
0.000115852
0.000135415
9.92217e-05
0.000145147
0.000115899
0.00013541
0.00015232
0.000133475
0.000155982
0.00012825
0.000155963
0.000128196
0.000152315
0.000129406
0.000159632
0.00014601
0.000146054
0.000129402
0.000145986
0.000146113
0.000145028
0.000135256
0.000115795
9.92064e-05
0.00011583
0.000144985
0.000135234
0.00015204
0.000133567
0.000128294
0.000155726
0.00012833
0.000152096
0.000155771
0.000145091
0.000135296
0.000115828
9.92e-05
0.000145038
0.000115871
0.000135341
0.000152257
0.000133517
0.000128213
0.000155837
0.000152186
0.000128271
0.000155865
0.0001452
0.000135361
0.000115866
9.92104e-05
0.000115907
0.000145125
0.00013538
0.000152321
0.000133545
0.000128358
0.000155958
0.000128362
0.000152304
0.000156001
0.000145108
0.000135244
0.000115827
9.91863e-05
0.00014503
0.000115844
0.000135271
0.00015224
0.000133503
0.000155938
0.000128304
0.000152171
0.000155971
0.000128323
0.000152195
0.00013353
0.000155973
0.000128349
0.000155958
0.000128349
0.000152259
0.000145176
0.000135535
0.00011585
9.92496e-05
0.000135552
0.000145135
0.000115888
0.000152231
0.000133609
0.000155928
0.000128295
0.000156018
0.000152121
0.000128353
0.000145048
0.00011588
9.92397e-05
0.000135548
0.000135532
0.000115869
0.000145076
0.000152135
0.000133444
0.000155778
0.000128281
0.000155882
0.00012816
0.00015214
0.000144974
0.000135356
0.000115807
9.92054e-05
0.000135374
0.000144867
0.000115848
0.000152173
0.000133406
0.000155956
0.000128192
0.000155949
0.000152128
0.000128192
0.000144776
0.000115869
9.92055e-05
0.000135408
0.000135383
0.000115832
0.000144854
0.00013826
0.000136513
0.000138247
5.00108e-05
9.3835e-05
2.3605e-05
7.37787e-05
7.37903e-05
2.36065e-05
9.38551e-05
5.00098e-05
2.00966e-05
5.00028e-05
7.61134e-05
7.60663e-05
2.00983e-05
2.36032e-05
9.73229e-05
0.000112622
7.37441e-05
4.79288e-05
0.000112457
4.79192e-05
9.73916e-05
9.73144e-05
0.00011264
7.37596e-05
4.79372e-05
4.79352e-05
0.000112483
9.73791e-05
7.88826e-05
2.14854e-05
2.14884e-05
2.14835e-05
2.14865e-05
7.89026e-05
2.36047e-05
2.00982e-05
5.0009e-05
7.61247e-05
7.60786e-05
2.01e-05
0.000119434
0.000136151
0.000129673
0.000129674
0.000129445
0.000129461
0.000119567
0.000128183
0.000121971
9.3688e-05
0.000107681
0.000107485
0.000121813
0.000128416
0.000128169
0.000122003
9.37146e-05
0.000107703
0.000121848
0.000107502
0.000128374
0.000122789
0.000139113
0.000139124
0.000136941
0.000125429
0.000142108
0.000142114
0.000139019
0.000128166
0.000145022
0.00014503
0.000141195
0.000130962
0.000147831
0.000147841
0.000143137
0.000133779
0.000150511
0.000150526
0.000145059
0.000136574
0.000153038
0.000153056
0.00014672
0.000139303
0.000155383
0.000155415
0.000148314
0.000141918
0.000157546
0.000157592
0.000149789
0.000144392
0.000159544
0.000159593
0.000151417
0.000146681
0.000161363
0.000161398
0.000152889
0.000148761
0.000162978
0.000162978
0.000154105
0.00015063
0.000164363
0.000164356
0.000155223
0.000152282
0.000165538
0.000165545
0.000156127
0.000153698
0.000166529
0.000166548
0.000156863
0.000154864
0.000167362
0.000167385
0.000157495
0.000155779
0.000168019
0.000168036
0.000158033
0.00015644
0.000168495
0.00016852
0.00015849
0.000156876
0.000168828
0.000168866
0.000158851
0.000157141
0.000169078
0.000169085
0.000158928
0.000157279
0.000169212
0.000169196
0.000159142
0.000157378
0.000169264
0.000169248
0.000159304
0.000157375
0.000169295
0.000169218
0.000159437
0.000157416
0.000169284
0.000169233
0.000159492
0.000157417
0.00016929
0.000169226
0.000159539