/*--------------------------------*- C++ -*----------------------------------*\
| =========                 |                                                 |
| \\      /  F ield         | OpenFOAM: The Open Source CFD Toolbox           |
|  \\    /   O peration     | Version:  2312                                  |
|   \\  /    A nd           | Website:  www.openfoam.com                      |
|    \\/     M anipulation  |                                                 |
\*---------------------------------------------------------------------------*/
FoamFile
{
    version     2.0;
    format      ascii;
    arch        "LSB;label=32;scalar=64";
    class       volScalarField;
    location    "250";
    object      p;
}
// * * * * * * * * * * * * * * * * * * * * * * * * * * * * * * * * * * * * * //

dimensions      [0 2 -2 0 0 0 0];

internalField   nonuniform List<scalar> 
43496
(
0.000730772
0.000730759
0.000732905
0.000730813
0.00073086
0.000732909
0.000730772
0.000730765
0.00073086
0.000732905
0.000732909
0.000730811
0.000731316
0.000730761
0.000730764
0.000730761
0.000730765
0.00073508
0.000735064
0.000730768
0.000730759
0.000735065
0.00073508
0.000730756
0.000735079
0.000730754
0.000735078
0.000730755
0.000735075
0.000735083
0.000735065
0.000730758
0.00073077
0.000735081
0.000735069
0.000730757
0.000735082
0.000730757
0.000735071
0.000735081
0.000730758
0.000735086
0.000730751
0.000730752
0.000735082
0.000735083
0.000730748
0.000735048
0.000730763
0.000735074
0.000730819
0.000735071
0.000735014
0.000730787
0.000735049
0.000730765
0.000735076
0.00073082
0.000735014
0.000735072
0.000730788
0.000735078
0.000735072
0.00073291
0.000732917
0.00073291
0.000735027
0.000730958
0.000734868
0.000734734
0.000734971
0.000730855
0.00073108
0.000734975
0.000734737
0.000731084
0.000734768
0.000730839
0.000734991
0.00073105
0.000734733
0.00073497
0.00073108
0.000730856
0.000734736
0.000734976
0.000731084
0.00073477
0.000730842
0.000735025
0.000730958
0.000734996
0.000731051
0.000734867
0.000734938
0.000734498
0.000731062
0.000731061
0.000734769
0.000734769
0.000730899
0.000777205
0.000777192
0.000777189
0.000778782
0.000741778
0.000741765
0.000741763
0.000743363
0.00077878
0.000749028
0.000777187
0.000777188
0.000750619
0.000750622
0.000778782
0.00074903
0.000777188
0.000777186
0.000750619
0.000750618
0.000777188
0.000750622
0.000750624
0.00077878
0.000749028
0.000777189
0.00075062
0.000750621
0.000749034
0.000743356
0.000741763
0.000741764
0.000743355
0.000741764
0.000741763
0.000741768
0.000743356
0.000741768
0.000766192
0.00077935
0.000766183
0.000779343
0.000779353
0.00076618
0.000766191
0.000779348
0.000766185
0.000779341
0.000777206
0.000777204
0.000777204
0.000750633
0.000750634
0.000750632
0.000750634
0.000766286
0.000779302
0.000777196
0.000768335
0.000766232
0.000768339
0.000779252
0.000779354
0.000766183
0.000766283
0.000777193
0.000779302
0.000768332
0.000768337
0.000766231
0.000779251
0.000779355
0.000779355
0.000766743
0.000766185
0.000766186
0.000743922
0.000743915
0.000743924
0.000743923
0.000743919
0.000741776
0.000741774
0.000741776
0.000730868
0.000743881
0.000741769
0.000743829
0.00073291
0.000743929
0.000730867
0.000741768
0.000743881
0.00074383
0.000732911
0.000743932
0.000743931
0.000731322
0.000730764
0.000730762
0.000779355
0.000766178
0.000779353
0.000766181
0.000779353
0.000779351
0.000766739
0.000766181
0.000766183
0.000748468
0.000761638
0.000748468
0.000761641
0.000761064
0.000748469
0.000748469
0.000761637
0.000761639
0.000766193
0.000779349
0.000766184
0.000779343
0.000766283
0.000779302
0.000777192
0.000768332
0.000766229
0.000768336
0.000779251
0.000766281
0.000779302
0.000777192
0.000768332
0.000766231
0.000768336
0.000779251
0.00076163
0.000748472
0.000761633
0.000748477
0.00076163
0.000748468
0.000761633
0.000748475
0.000761539
0.000759475
0.000748518
0.000750625
0.000761587
0.00075948
0.000748569
0.000761536
0.000759477
0.000748513
0.000750625
0.000761588
0.000759481
0.000748571
0.000779351
0.000779352
0.000766743
0.000766183
0.000766183
0.000779353
0.000766181
0.000748465
0.000761638
0.000761069
0.000748468
0.000748474
0.000761637
0.000761639
0.000748472
0.000761642
0.000766281
0.000779301
0.000777193
0.000768332
0.000766229
0.000768338
0.00077925
0.000766192
0.000779349
0.000766189
0.000779342
0.000766281
0.000777193
0.000779302
0.000768328
0.000768336
0.000766234
0.00077925
0.000761629
0.000748473
0.000761636
0.00074848
0.000761537
0.000759474
0.000748517
0.000750624
0.000761588
0.00075948
0.000748569
0.000761629
0.000748473
0.000761639
0.000748481
0.000761537
0.000759472
0.000750624
0.000748519
0.000759479
0.000761594
0.000748569
0.000766195
0.000779348
0.000766186
0.000779342
0.000766286
0.000777193
0.000779306
0.000768332
0.000768338
0.000766233
0.000779253
0.000766195
0.000779352
0.000766188
0.000779344
0.000761541
0.000759479
0.000748522
0.000750626
0.000761591
0.000759483
0.000748574
0.000761632
0.000748476
0.000761637
0.000748484
0.000761542
0.000759478
0.000750627
0.000748522
0.000759483
0.000761591
0.000748574
0.000761632
0.000748477
0.000761638
0.000748484
0.000779353
0.000779352
0.000766741
0.000766186
0.000766184
0.000779354
0.000766183
0.000748468
0.000761643
0.000761068
0.00074847
0.000748471
0.000761641
0.00076164
0.00074847
0.000761642
0.000766285
0.000777193
0.000779304
0.000768333
0.000768337
0.000766235
0.000779252
0.000766196
0.00077935
0.000766187
0.000779343
0.000766197
0.000779352
0.000766189
0.000779344
0.000761539
0.000759476
0.000750624
0.000748521
0.000759481
0.00076159
0.000748575
0.000761539
0.000759477
0.000750624
0.000748524
0.000759481
0.000761595
0.000748576
0.000761632
0.000748475
0.000761638
0.000748485
0.000761633
0.000748479
0.000761641
0.000748487
0.000779356
0.000766184
0.000779356
0.000766184
0.000761071
0.000748475
0.000748475
0.000761641
0.000761643
0.000748473
0.000761643
0.000748473
0.000761645
0.000743927
0.000743927
0.000743924
0.000743925
0.000743918
0.000743914
0.000743877
0.000741769
0.000743824
0.000743872
0.000741768
0.000743825
0.000743923
0.00074393
0.000743932
0.000743876
0.000741767
0.000743824
0.000743925
0.00074392
0.000741767
0.000743878
0.000743825
0.000730779
0.000743927
0.000743922
0.000730866
0.00074177
0.000743883
0.000732912
0.00074383
0.000732912
0.000730813
0.000730779
0.000743928
0.000743923
0.000730768
0.000743927
0.000743929
0.000743931
0.00073087
0.000741769
0.000743881
0.000732914
0.000743833
0.000732913
0.00073081
0.000730773
0.000743927
0.000743922
0.000730776
0.000743928
0.000743922
0.000730764
0.000743933
0.000730762
0.000743932
0.000730759
0.000770502
0.000766179
0.000766187
0.000770485
0.000770502
0.000770488
0.000766176
0.000775035
0.00077504
0.000779359
0.000775033
0.00077936
0.000770501
0.000766174
0.00077049
0.0007705
0.000766176
0.000775035
0.000775048
0.000779359
0.000779347
0.000775036
0.000775046
0.00077936
0.000775036
0.000770496
0.000770502
0.000766187
0.000766178
0.000770486
0.000770487
0.000770501
0.000766176
0.000775033
0.000775041
0.000779357
0.000775032
0.000779357
0.000770501
0.000766175
0.000770491
0.0007705
0.000766177
0.000775033
0.000775047
0.000779344
0.000779358
0.000775044
0.000775035
0.000779358
0.000775039
0.000770499
0.00077051
0.000766176
0.000766176
0.000770508
0.000770507
0.000766173
0.000775067
0.000779293
0.000775042
0.000779352
0.000775099
0.000775045
0.000779328
0.000775067
0.000779291
0.000775043
0.000779352
0.000775098
0.000775045
0.000779328
0.000770472
0.000766188
0.000770498
0.000766243
0.000770438
0.000770496
0.00076621
0.000770472
0.000766188
0.000770498
0.000766243
0.000770439
0.000770495
0.000766211
0.000775029
0.000779364
0.000779364
0.000775033
0.000775033
0.000779367
0.000739607
0.00074393
0.000739616
0.000743931
0.000739606
0.000739607
0.000739623
0.000743932
0.000743917
0.000743932
0.00073961
0.000739619
0.000739609
0.000739611
0.000743934
0.000739616
0.000743935
0.000739609
0.000739611
0.000739626
0.000743922
0.000743935
0.000743936
0.000739622
0.000739613
0.000739615
0.000735087
0.000730753
0.000730753
0.000735084
0.000735084
0.00073075
0.000739645
0.000743871
0.000743929
0.00073962
0.000743905
0.000739678
0.000739622
0.000739644
0.000743871
0.000743928
0.000739618
0.000743905
0.000739676
0.00073962
0.000739606
0.000743941
0.00074394
0.000743943
0.00073961
0.000739609
0.00073505
0.000730766
0.000735077
0.000730823
0.000735018
0.000735073
0.000730789
0.000735049
0.000730764
0.000735074
0.000730821
0.000735015
0.000735071
0.000730788
0.000775038
0.000770496
0.000775037
0.000770497
0.000770507
0.000766172
0.000766173
0.000770504
0.000770504
0.000766169
0.000775064
0.00077929
0.00077504
0.000779349
0.000775042
0.000775094
0.000779325
0.000775064
0.00077929
0.000775038
0.000779349
0.000775041
0.000775096
0.000779324
0.000770469
0.000766184
0.000770494
0.00076624
0.000770492
0.000766209
0.000770433
0.000770469
0.000766185
0.000770495
0.000766241
0.000770491
0.000766209
0.000770436
0.000775026
0.000779361
0.000779361
0.000775029
0.000775029
0.000779364
0.000752784
0.000757323
0.000752784
0.000757325
0.000757313
0.000761647
0.000761648
0.000761651
0.000757316
0.000757317
0.000752756
0.000748528
0.000752782
0.000748472
0.00075278
0.000752722
0.000748495
0.000752756
0.000748527
0.000752782
0.000748472
0.00075278
0.000752723
0.000748494
0.000757352
0.000761635
0.00076158
0.000757325
0.000761614
0.000757328
0.000757384
0.000757352
0.000761636
0.000761579
0.000757327
0.000761614
0.000757329
0.000757383
0.000752795
0.00074846
0.00074846
0.000752792
0.000752792
0.000748457
0.000770503
0.000766179
0.000766189
0.000770486
0.000770502
0.00077049
0.000766177
0.000775035
0.000775042
0.000779359
0.000775033
0.00077936
0.000770502
0.000766176
0.000770492
0.000770502
0.000766177
0.000775035
0.000775049
0.000779359
0.000779347
0.000775036
0.000775046
0.000779361
0.000757319
0.000761644
0.000761628
0.000757334
0.000761644
0.000757321
0.000757329
0.000752788
0.000752778
0.000748462
0.000748464
0.000752787
0.00075732
0.000761642
0.000757327
0.000761643
0.000757318
0.000752788
0.000752771
0.000748465
0.000748473
0.000748463
0.000752787
0.000752772
0.000757319
0.000761645
0.000761631
0.000757335
0.000761645
0.000757321
0.000757331
0.000752786
0.000752776
0.000748459
0.000752785
0.000748461
0.000757319
0.000761642
0.000757326
0.000761644
0.000757317
0.000752787
0.000752771
0.000748464
0.000748471
0.000752787
0.000752772
0.000748461
0.000770507
0.000766173
0.000766173
0.000770504
0.000770505
0.00076617
0.000775063
0.000779291
0.000775039
0.000779348
0.000775041
0.000775096
0.000779325
0.000775064
0.000779291
0.00077504
0.000779348
0.000775096
0.000775041
0.000779325
0.000770469
0.000766185
0.000770494
0.000766239
0.000770492
0.000770434
0.000766208
0.000770469
0.000766185
0.000770496
0.000766241
0.000770435
0.000770492
0.000766207
0.000775026
0.00077936
0.000779361
0.000775029
0.00077503
0.000779363
0.000775038
0.000770497
0.000752781
0.000757321
0.000757314
0.000761647
0.000761649
0.000761651
0.000757316
0.000757318
0.000752756
0.000748527
0.00075278
0.000748472
0.00075272
0.000752779
0.000748496
0.000752757
0.000748531
0.000752786
0.000748476
0.000752782
0.000752724
0.000748498
0.000757351
0.000761635
0.000761579
0.000757324
0.000757383
0.000761613
0.000757328
0.000757352
0.000761636
0.000761579
0.000757328
0.000761613
0.00075733
0.000757386
0.000752796
0.000748461
0.000748463
0.000752792
0.000752794
0.000748459
0.000752787
0.000757327
0.000770505
0.000766179
0.00076619
0.000770487
0.000770503
0.000770491
0.000766179
0.000775036
0.000775043
0.000779359
0.000775034
0.00077936
0.000770504
0.000766179
0.000770495
0.000770504
0.00076618
0.000775036
0.000775049
0.000779359
0.000779346
0.000775036
0.000775048
0.000779361
0.000757321
0.00076163
0.000761644
0.000757335
0.000761645
0.000757332
0.000757322
0.000752789
0.000752779
0.000748465
0.000748466
0.000752789
0.000757321
0.000761644
0.000757329
0.000761645
0.00075732
0.00075279
0.000752773
0.000748478
0.000748468
0.000748466
0.000752775
0.000752789
0.000757322
0.000761645
0.000761633
0.000757335
0.000761647
0.000757322
0.000757333
0.00075279
0.00075278
0.000748465
0.000752789
0.000748467
0.000757323
0.000761647
0.00075733
0.000761648
0.000757321
0.000752792
0.000752774
0.000748468
0.000748478
0.00075279
0.000752777
0.000748467
0.000770504
0.000766192
0.000766182
0.000770488
0.000770489
0.000770504
0.00076618
0.000775035
0.000775043
0.000779356
0.000775034
0.000779357
0.000770504
0.000766179
0.000770493
0.000770503
0.00076618
0.000775035
0.000775051
0.000779344
0.000779359
0.000775048
0.000775037
0.000779358
0.000770506
0.000766182
0.000766192
0.000770489
0.000770505
0.000770492
0.00076618
0.000775039
0.000775046
0.000779363
0.000775037
0.000779364
0.000770506
0.000766179
0.000770496
0.000770505
0.000766181
0.000775038
0.000775051
0.00077936
0.00077935
0.000775038
0.000775049
0.000779364
0.000757325
0.000761634
0.000761648
0.00075734
0.000761649
0.000757337
0.000757326
0.000752794
0.000752783
0.000748469
0.000752793
0.00074847
0.000757325
0.000761647
0.000757332
0.000761649
0.000757324
0.000752794
0.000752777
0.000748482
0.000748472
0.000752779
0.000752793
0.00074847
0.000757324
0.000761648
0.000761633
0.000757339
0.000761649
0.000757326
0.000757334
0.000752793
0.000752782
0.000748468
0.000752791
0.00074847
0.000757324
0.000761646
0.000757331
0.000761648
0.000757322
0.000752793
0.000752777
0.000748472
0.00074848
0.000752793
0.000752777
0.00074847
0.000770508
0.000766175
0.000766175
0.000770506
0.000770506
0.000766171
0.000775066
0.00077929
0.000775041
0.00077935
0.000775043
0.000775096
0.000779327
0.000775064
0.000779291
0.000775039
0.00077935
0.000775097
0.000775042
0.000779326
0.000770472
0.000766187
0.000770498
0.000766244
0.000770494
0.000770438
0.000766209
0.00077047
0.000766187
0.000770496
0.00076624
0.000770436
0.000770493
0.000766208
0.000775027
0.000779362
0.000779362
0.00077503
0.00077503
0.000779365
0.000775038
0.000770498
0.000752785
0.000757326
0.000757314
0.00076165
0.00076165
0.000761652
0.000757318
0.000757318
0.000752757
0.000748527
0.000752783
0.000748474
0.000752724
0.00075278
0.000748496
0.000752758
0.000748531
0.000752783
0.000748473
0.00075278
0.000752724
0.000748496
0.000757351
0.000761638
0.000761581
0.000757327
0.000757384
0.000761613
0.00075733
0.000757352
0.000761637
0.000761577
0.000757328
0.000761613
0.00075733
0.000757383
0.000752795
0.000748461
0.000748461
0.000752792
0.000752792
0.000748457
0.000752786
0.000757326
0.000770506
0.000766192
0.000766182
0.000770489
0.000770492
0.000770505
0.000766181
0.000775037
0.000775043
0.00077936
0.000775035
0.000779361
0.000770505
0.00076618
0.000770494
0.000770504
0.000766181
0.000775037
0.00077505
0.000779347
0.00077936
0.000775047
0.000775038
0.000779362
0.000770506
0.000766194
0.000766183
0.000770489
0.000770492
0.000770505
0.000766182
0.000775037
0.000775045
0.000779361
0.000775036
0.000779361
0.000770504
0.00076618
0.000770495
0.000770504
0.000766181
0.000775037
0.000775052
0.000779348
0.00077936
0.000775049
0.000775038
0.000779362
0.000757324
0.000761635
0.000761648
0.000757338
0.000761649
0.000757335
0.000757326
0.000752792
0.000752781
0.000748466
0.000752791
0.000748468
0.000757325
0.000761648
0.000757331
0.000761649
0.000757323
0.000752793
0.000752776
0.000748481
0.000748469
0.000752779
0.000752792
0.000748468
0.000757327
0.000761637
0.000761649
0.000757341
0.000761651
0.000757339
0.000757327
0.000752797
0.000752787
0.000748471
0.000752797
0.000748472
0.000757329
0.00076165
0.000757336
0.000761651
0.000757328
0.000752796
0.000752778
0.000748484
0.00074847
0.000752782
0.000752793
0.00074847
0.00077504
0.0007705
0.00077504
0.000770499
0.000757317
0.000761652
0.000761652
0.000761654
0.000757321
0.000757321
0.00075276
0.000748532
0.000752785
0.000748477
0.000748499
0.000752727
0.000752783
0.000752761
0.000748532
0.000752788
0.000748476
0.0007485
0.000752727
0.000752784
0.000757355
0.000761639
0.000761583
0.000757329
0.000761616
0.000757387
0.000757332
0.000757355
0.00076164
0.000761582
0.000757331
0.000761617
0.000757388
0.000757334
0.000752798
0.000748465
0.000748464
0.000748461
0.000752795
0.000752796
0.000752787
0.000757327
0.00075279
0.000757331
0.000739611
0.000739611
0.000739639
0.000743868
0.000743923
0.000739612
0.0007439
0.000739616
0.000739672
0.000739639
0.000743865
0.000743922
0.000739613
0.000743899
0.000739616
0.000739671
0.000739601
0.000743935
0.000743935
0.000743938
0.000739603
0.000739604
0.000739607
0.000743929
0.000739613
0.00074393
0.000739605
0.000739607
0.000739622
0.000743931
0.000743915
0.000739611
0.000743931
0.000739618
0.000739641
0.000743867
0.000743922
0.000739612
0.000739616
0.000743902
0.000739673
0.000739643
0.00074387
0.000743927
0.000739617
0.000739676
0.000743904
0.00073962
0.000739604
0.000743936
0.000743938
0.000739605
0.00074394
0.000739607
0.000739613
0.000743935
0.00073962
0.000743936
0.000739611
0.000739613
0.000739627
0.000743936
0.000743923
0.000739614
0.000743937
0.000739624
0.000735086
0.000735069
0.000730764
0.000735072
0.000735085
0.000739616
0.000743937
0.000739621
0.000739614
0.000743939
0.000739616
0.000739632
0.000743923
0.000743939
0.000739629
0.000743939
0.000739618
0.000735083
0.000735086
0.00073507
0.000730764
0.000730774
0.000735086
0.000735072
0.000730762
0.000739617
0.000743939
0.000739622
0.00074394
0.000739615
0.000739617
0.000739631
0.00074394
0.000743925
0.00074394
0.000739618
0.000739627
0.000735086
0.000730761
0.000735074
0.000735085
0.000730762
0.000739641
0.000743866
0.000743925
0.000739615
0.000739618
0.000743901
0.000739673
0.000739642
0.000743869
0.000743925
0.000739618
0.000739674
0.000743902
0.00073962
0.000739603
0.000743937
0.000743938
0.000739606
0.00074394
0.000739607
0.000739617
0.000735079
0.000735066
0.000730767
0.000730758
0.000735066
0.000735081
0.000730754
0.000739612
0.000743936
0.00073962
0.000739611
0.000743936
0.000739611
0.000739628
0.000743924
0.000743936
0.000739623
0.000743937
0.000739614
0.00073508
0.000730756
0.000735081
0.000730756
0.000735082
0.000735065
0.00073077
0.00073076
0.000735066
0.000735081
0.000730758
0.000739614
0.000743938
0.00073962
0.000743939
0.000739613
0.000739613
0.000739628
0.000743925
0.000743936
0.000743938
0.000739625
0.000739614
0.000735082
0.000730756
0.00073507
0.000735081
0.000730758
0.000739617
0.000735078
0.000739616
0.000735075
0.000777201
0.000777201
0.000768347
0.000768344
0.000768344
0.000768342
0.0007772
0.000775177
0.00077905
0.00077905
0.000775598
0.000775342
0.00077534
0.000779215
0.000741773
0.00074177
0.000732908
0.000741769
0.000739756
0.000743629
0.000743632
0.000740179
0.000743794
0.000739921
0.000739921
0.000775175
0.000779047
0.000779049
0.000775597
0.000775338
0.000775339
0.000779213
0.000752646
0.000752209
0.000748771
0.000748771
0.000752479
0.00075248
0.000748606
0.000775175
0.000779049
0.000779049
0.0007756
0.00077534
0.000775341
0.000779213
0.000752646
0.000752214
0.000748773
0.000748773
0.000752481
0.000752482
0.000748609
0.000775176
0.000779047
0.000779049
0.000775598
0.000775341
0.000775339
0.000779214
0.000752647
0.000752211
0.000748771
0.000748772
0.00075248
0.000752481
0.000748608
0.00075265
0.000752216
0.000748775
0.000748775
0.000748611
0.000752485
0.000752484
0.000739751
0.000743625
0.000743625
0.000740173
0.00074379
0.000739916
0.000739916
0.000739756
0.000743626
0.000743626
0.000740173
0.000739919
0.000743794
0.000739917
0.000739753
0.000743624
0.000743625
0.000740173
0.000739916
0.000743791
0.000739917
0.000777202
0.000777202
0.000768349
0.000768346
0.000768346
0.000768343
0.000777201
0.000777202
0.0007772
0.000768346
0.000768344
0.000768344
0.000768343
0.0007772
0.000777202
0.000777202
0.000768349
0.000768347
0.000768345
0.000768344
0.000777201
0.000759489
0.000750631
0.000750629
0.000759488
0.000759487
0.000759486
0.000750629
0.000759493
0.000750632
0.000750632
0.000759489
0.000759489
0.000759486
0.00075063
0.000759489
0.00075063
0.000750631
0.000759487
0.000759488
0.000759487
0.000750629
0.000759492
0.000750632
0.000750631
0.00075949
0.000759488
0.000759487
0.00075063
0.000770162
0.000766281
0.000766508
0.000770397
0.000770402
0.000770165
0.000766512
0.000775334
0.000779145
0.000775087
0.000779272
0.000775236
0.00077512
0.000779052
0.000770197
0.000766264
0.000770447
0.000766382
0.00077029
0.000770418
0.000766478
0.000775368
0.000775142
0.000779256
0.000779022
0.000775138
0.000775364
0.000779018
0.000770158
0.000766504
0.000766278
0.000770395
0.000770161
0.000770399
0.000766508
0.00077533
0.000779145
0.000775087
0.000779272
0.000775235
0.000775117
0.000779049
0.000770193
0.000766262
0.000770446
0.000766379
0.000770289
0.000770416
0.000766474
0.000775365
0.00077514
0.000779019
0.000779254
0.000775362
0.000775133
0.000779014
0.000770361
0.000769925
0.000766486
0.000766486
0.000770195
0.000770196
0.000766321
0.000741774
0.000741775
0.000732916
0.000732912
0.000741772
0.000741771
0.000741773
0.000732915
0.000732908
0.000741769
0.000741774
0.000741774
0.000732917
0.000732914
0.000732915
0.00073291
0.000741772
0.000734737
0.000734976
0.000730861
0.000731082
0.000734979
0.00073474
0.000731088
0.000739911
0.000743724
0.000743851
0.000739666
0.000743629
0.000739815
0.000739698
0.000739944
0.000739721
0.000743834
0.000743596
0.000743594
0.000739716
0.00073994
0.000734738
0.000734977
0.000731084
0.00073086
0.000734741
0.00073498
0.000731088
0.00073991
0.000743724
0.000743854
0.000739666
0.000743629
0.000739814
0.000739699
0.000739945
0.000739721
0.000743596
0.000743835
0.000743592
0.000739941
0.000739715
0.000734772
0.000730843
0.000734998
0.000731052
0.000734941
0.000734505
0.000731065
0.000731066
0.000734773
0.000734777
0.000730902
0.000770359
0.000769923
0.000766482
0.000766482
0.000766321
0.000770192
0.000770194
0.000757464
0.000757882
0.000761335
0.000761335
0.000761504
0.000757625
0.000757625
0.000770159
0.000766278
0.000766504
0.000770393
0.000770398
0.000770161
0.000766511
0.000775331
0.000779144
0.000775086
0.000779271
0.000775118
0.000775234
0.000779049
0.000770194
0.000766261
0.000770444
0.000766379
0.000770414
0.000770289
0.000766476
0.000775365
0.000775139
0.000779257
0.000779017
0.000775136
0.000775361
0.000779014
0.000770157
0.000766277
0.000766503
0.000770394
0.000770399
0.000770161
0.000766508
0.000775331
0.000779144
0.000775087
0.000779273
0.000775119
0.000775236
0.000779049
0.000770192
0.000766261
0.000770445
0.000766379
0.000770415
0.000766474
0.000770288
0.000775365
0.000775139
0.000779256
0.000779017
0.000775136
0.000775361
0.000779014
0.000757654
0.000761544
0.000761305
0.000757426
0.000761305
0.000757421
0.000757649
0.00075248
0.000748666
0.000752733
0.000748547
0.000752576
0.000752701
0.000748761
0.000757618
0.000761557
0.000761433
0.000757373
0.000757522
0.000761339
0.000757403
0.000752447
0.00075268
0.000748563
0.000748793
0.000752683
0.00075245
0.000748798
0.000757653
0.000761542
0.000761304
0.000757425
0.000761302
0.000757421
0.000757648
0.000752482
0.000748667
0.000752729
0.000748547
0.000752701
0.000752575
0.000748765
0.000757619
0.000761559
0.000761433
0.000757372
0.000761337
0.000757404
0.000757523
0.000752448
0.000752681
0.000748565
0.000748796
0.000752685
0.000752451
0.000748801
0.000770358
0.000769926
0.000766483
0.000766485
0.000770194
0.000770193
0.000766319
0.000757464
0.000757887
0.000761336
0.000761338
0.000757629
0.000761502
0.000757629
0.000770158
0.000766276
0.000766504
0.000770393
0.000770396
0.00077016
0.00076651
0.00077533
0.000779144
0.000775086
0.00077927
0.000775116
0.000775234
0.000779049
0.000770192
0.000766259
0.000770444
0.000766377
0.000770412
0.000770288
0.000766474
0.000775365
0.000775139
0.000779255
0.000779018
0.000775133
0.000775361
0.000779015
0.000770157
0.000766504
0.000766278
0.000770393
0.000770159
0.0007704
0.000766508
0.000775329
0.000779144
0.000775088
0.000779272
0.000775119
0.000775233
0.000779049
0.000770192
0.000766263
0.000770448
0.000766379
0.000770417
0.000766473
0.000770289
0.000775364
0.000775139
0.000779017
0.000779255
0.00077536
0.000775136
0.000779014
0.000757652
0.000761541
0.000761305
0.000757425
0.000761302
0.00075742
0.000757648
0.000752481
0.000748667
0.000752732
0.000748549
0.000752576
0.000752702
0.000748763
0.000757618
0.000761557
0.000761431
0.000757372
0.000757521
0.000761336
0.000757404
0.000752445
0.00075268
0.000748566
0.000748791
0.000752684
0.000752448
0.000748796
0.000757652
0.000761305
0.000761544
0.000757426
0.000761302
0.000757648
0.000757421
0.000752481
0.000748666
0.000752734
0.000748549
0.000752703
0.000752577
0.000748761
0.000757616
0.00076156
0.000761434
0.000757376
0.000761336
0.000757405
0.000757522
0.000752445
0.00075268
0.00074879
0.000748566
0.000752447
0.000752686
0.000748796
0.000770161
0.000766508
0.000766281
0.000770397
0.000770164
0.000770402
0.000766512
0.000775334
0.000779149
0.00077509
0.000779278
0.000775237
0.000775124
0.000779053
0.000770196
0.000766266
0.000770449
0.000766382
0.000770292
0.00077042
0.000766477
0.000775367
0.000775141
0.00077902
0.000779259
0.000775363
0.000775139
0.000779016
0.000757656
0.000761545
0.000761309
0.000757429
0.000761305
0.000757425
0.000757651
0.000752484
0.000748671
0.000752737
0.000748554
0.000748766
0.000752579
0.000752707
0.000757621
0.000761561
0.000761435
0.000757377
0.00076134
0.000757525
0.000757408
0.000752449
0.000752685
0.00074857
0.000748796
0.0007488
0.00075269
0.000752452
0.00075766
0.00076131
0.000761546
0.000757431
0.000761308
0.000757653
0.000757427
0.000752487
0.000748671
0.000752736
0.000748554
0.000752706
0.000752582
0.000748767
0.000757623
0.000761563
0.000761438
0.000757376
0.000761343
0.000757409
0.000757526
0.000752454
0.000752686
0.000748796
0.000748571
0.000752454
0.000752692
0.000748803
0.000770361
0.000769925
0.000766486
0.000766485
0.000770196
0.000770195
0.000766321
0.000757462
0.000757885
0.000761338
0.000761337
0.000757629
0.000761502
0.000757627
0.00077016
0.000766505
0.000766282
0.000770395
0.000770162
0.000770402
0.000766511
0.000775333
0.000779145
0.000775089
0.000779274
0.000775236
0.000775121
0.00077905
0.000770197
0.000766267
0.000770449
0.000766383
0.000770292
0.000770419
0.000766479
0.000775367
0.000775141
0.000779018
0.000779256
0.000775362
0.000775138
0.000779015
0.000757655
0.000761306
0.000761543
0.000757428
0.000761303
0.000757651
0.000757423
0.000752484
0.00074867
0.000752735
0.000748554
0.000748767
0.000752578
0.000752705
0.000757619
0.00076156
0.000761432
0.000757375
0.000761337
0.000757523
0.000757406
0.000752449
0.000752685
0.000748795
0.000748571
0.000748799
0.000752452
0.000752689
0.000757655
0.000761306
0.000761546
0.000757428
0.000761303
0.000757649
0.000757427
0.000752485
0.000748673
0.000752741
0.000748559
0.000752712
0.000752582
0.000748768
0.000757622
0.000761566
0.000761438
0.000757381
0.000761341
0.000757413
0.000757528
0.000752448
0.000752685
0.000748795
0.000748574
0.000752451
0.000752693
0.0007488
0.000757466
0.000757888
0.00076134
0.00076134
0.000761505
0.000757631
0.00075763
0.000739905
0.00074372
0.000743845
0.000739661
0.000739692
0.000743624
0.00073981
0.00073994
0.000739713
0.000743828
0.000743593
0.000739709
0.000743591
0.000739935
0.000739907
0.000743721
0.000743845
0.000739659
0.000743626
0.000739692
0.000739812
0.000739941
0.000739713
0.000743829
0.000743594
0.000743591
0.000739707
0.000739936
0.000739906
0.00074372
0.000743846
0.000739662
0.000739693
0.000743625
0.00073981
0.00073994
0.000739715
0.000743829
0.000743591
0.00073971
0.000743587
0.000739936
0.000739907
0.000743721
0.000743847
0.000739664
0.000743624
0.000739696
0.000739812
0.00073994
0.000739715
0.00074359
0.00074383
0.000743588
0.000739934
0.000739711
0.000734738
0.000734976
0.000731083
0.000730861
0.000734741
0.000734979
0.000731088
0.000739912
0.000743727
0.000743853
0.000739669
0.000739818
0.000743631
0.0007397
0.000739945
0.00073972
0.000743597
0.000743835
0.00073994
0.000743595
0.000739716
0.000734775
0.000730845
0.000735028
0.000730962
0.000734872
0.000734998
0.000731055
0.000734743
0.000734978
0.000731086
0.000730864
0.000734745
0.000734982
0.000731093
0.000739914
0.000743727
0.000743855
0.000739666
0.000739817
0.000743632
0.000739701
0.000739949
0.000739723
0.000743598
0.000743838
0.000739944
0.000743595
0.000739718
0.000734778
0.000730845
0.000735025
0.000730962
0.000734872
0.000734999
0.000731059
0.00167489
0.00167323
0.00167489
0.00167253
0.00167261
0.00167253
0.00167254
0.00167254
0.00167252
0.00167261
0.00167253
0.00167693
0.00167692
0.00167253
0.00167693
0.00167252
0.00167692
0.00167691
0.00167263
0.00167693
0.00167254
0.0016769
0.00167692
0.00167258
0.00167691
0.00167263
0.00167693
0.00167254
0.00167692
0.0016769
0.00167258
0.00167694
0.00167252
0.00167252
0.00167693
0.00167693
0.00167252
0.00167692
0.00167693
0.00167692
0.00167253
0.00167693
0.00167252
0.00167682
0.00167648
0.00167293
0.00167293
0.00167668
0.00167669
0.00167273
0.0016767
0.00167277
0.00167689
0.00167266
0.00167688
0.00167675
0.00167291
0.0016767
0.00167277
0.00167689
0.00167266
0.00167675
0.00167687
0.00167291
0.00166593
0.00166586
0.00166586
0.00166744
0.00162981
0.00162974
0.00162973
0.00163132
0.00159371
0.00159364
0.00159364
0.00159522
0.00155765
0.00155757
0.00155757
0.00155916
0.00152164
0.00152156
0.00152156
0.00152315
0.00148571
0.00148563
0.00148563
0.00148721
0.00144987
0.00144979
0.0014498
0.00145138
0.00141415
0.00141407
0.00141408
0.00141565
0.00137854
0.00137846
0.00137847
0.00138004
0.00134304
0.00134297
0.00134297
0.00134454
0.00130763
0.00130758
0.00130757
0.00130914
0.0012723
0.00127225
0.00127224
0.00127382
0.00123701
0.00123696
0.00123696
0.00123854
0.00120175
0.0012017
0.00120171
0.00120328
0.00116648
0.00116645
0.00116645
0.00116802
0.0011312
0.00113117
0.00113117
0.00113275
0.00109589
0.00109586
0.00109587
0.00109745
0.00106055
0.00106053
0.00106053
0.00106211
0.00102518
0.00102516
0.00102515
0.00102674
0.000989772
0.000989751
0.000989751
0.000991342
0.000954345
0.000954327
0.000954328
0.000955918
0.000918917
0.000918896
0.0009189
0.000920491
0.000883487
0.000883466
0.000883467
0.00088506
0.000848056
0.000848039
0.000848039
0.000849628
0.00081263
0.000812614
0.000812613
0.000814201
0.00166744
0.00163711
0.00166586
0.00166586
0.00163876