/*--------------------------------*- C++ -*----------------------------------*\
| =========                 |                                                 |
| \\      /  F ield         | OpenFOAM: The Open Source CFD Toolbox           |
|  \\    /   O peration     | Version:  2312                                  |
|   \\  /    A nd           | Website:  www.openfoam.com                      |
|    \\/     M anipulation  |                                                 |
\*---------------------------------------------------------------------------*/
FoamFile
{
    version     2.0;
    format      ascii;
    arch        "LSB;label=32;scalar=64";
    class       volScalarField;
    location    "50";
    object      k;
}
// * * * * * * * * * * * * * * * * * * * * * * * * * * * * * * * * * * * * * //

dimensions      [0 2 -2 0 0 0 0];

internalField   nonuniform List<scalar> 
172512
(
2.08793e-05
2.00808e-05
2.00767e-05
1.96938e-05
1.96877e-05
2.00781e-05
2.00793e-05
1.96607e-05
2.00783e-05
2.0077e-05
2.00813e-05
2.00804e-05
1.96422e-05
2.00767e-05
2.00772e-05
1.96974e-05
1.96979e-05
2.00773e-05
2.00792e-05
1.9647e-05
2.00771e-05
2.00755e-05
2.0081e-05
1.96361e-05
2.00789e-05
6.89546e-05
2.99209e-05
6.89611e-05
2.08798e-05
2.08774e-05
2.08789e-05
2.08765e-05
7.25776e-05
2.00778e-05
2.89725e-05
2.99226e-05
6.89594e-05
2.99265e-05
6.89605e-05
7.25654e-05
7.25661e-05
2.99184e-05
6.89598e-05
2.9926e-05
6.89551e-05
2.08769e-05
2.08767e-05
2.08759e-05
1.99093e-05
2.89878e-05
2.04315e-05
2.00809e-05
1.98337e-05
2.89786e-05
2.04306e-05
7.25691e-05
7.25677e-05
1.99224e-05
2.04304e-05
2.89715e-05
2.00779e-05
1.9867e-05
2.04298e-05
2.89595e-05
4.19757e-05
4.17993e-05
1.96837e-05
4.18921e-05
4.18153e-05
7.25824e-05
7.25753e-05
1.96909e-05
4.18668e-05
4.17348e-05
7.25788e-05
7.25792e-05
7.25686e-05
7.25714e-05
1.96734e-05
4.19219e-05
4.17634e-05
4.18975e-05
4.1751e-05
2.00785e-05
2.89703e-05
2.99246e-05
6.89573e-05
6.89584e-05
2.99206e-05
2.991e-05
6.89588e-05
6.89613e-05
2.99012e-05
1.99021e-05
2.00783e-05
2.89703e-05
2.04334e-05
2.8978e-05
2.04335e-05
1.98998e-05
1.98845e-05
2.00787e-05
2.89673e-05
2.0432e-05
2.89789e-05
2.04317e-05
1.98732e-05
7.25688e-05
7.25724e-05
1.97151e-05
4.17863e-05
4.19001e-05
4.1859e-05
7.25835e-05
1.98836e-05
2.00784e-05
2.89663e-05
2.04284e-05
2.99096e-05
6.89604e-05
1.98832e-05
2.00759e-05
2.04281e-05
2.89693e-05
2.9926e-05
6.89582e-05
6.89629e-05
2.99208e-05
1.98841e-05
2.00786e-05
2.89613e-05
2.04316e-05
2.89724e-05
2.04309e-05
1.98797e-05
2.9913e-05
6.89575e-05
6.89602e-05
2.99033e-05
1.9887e-05
2.00777e-05
2.04321e-05
2.89648e-05
2.04311e-05
2.89762e-05
1.98833e-05
2.89792e-05
2.04315e-05
1.98174e-05
6.8961e-05
2.99023e-05
2.04325e-05
2.89782e-05
1.98941e-05
6.89501e-05
2.99064e-05
1.96792e-05
4.17501e-05
4.18963e-05
7.2581e-05
7.25719e-05
7.2574e-05
1.96949e-05
4.17724e-05
4.17061e-05
4.17768e-05
4.19121e-05
7.25726e-05
7.25785e-05
6.89613e-05
1.9819e-05
2.00774e-05
2.04305e-05
2.89644e-05
2.04304e-05
2.89798e-05
1.98473e-05
1.98958e-05
2.00771e-05
2.04305e-05
2.89647e-05
2.04319e-05
2.89683e-05
1.99057e-05
2.99029e-05
6.8962e-05
6.89624e-05
2.98976e-05
2.99086e-05
6.89549e-05
6.895e-05
2.99012e-05
1.9749e-05
4.19327e-05
4.17775e-05
4.17259e-05
7.25865e-05
7.25753e-05
7.25692e-05
7.25764e-05
7.25765e-05
7.2566e-05
7.25665e-05
4.19304e-05
4.17709e-05
1.9655e-05
4.19097e-05
4.17327e-05
7.25741e-05
7.25651e-05
1.96503e-05
4.19057e-05
4.17724e-05
2.99006e-05
6.89606e-05
2.99051e-05
6.8955e-05
1.99032e-05
2.8979e-05
2.04326e-05
2.00774e-05
1.99075e-05
2.89732e-05
2.04323e-05
1.98895e-05
2.89751e-05
2.04314e-05
2.00795e-05
1.98737e-05
2.89681e-05
2.04314e-05
2.99283e-05
6.89632e-05
2.99062e-05
6.89575e-05
1.9921e-05
2.00783e-05
2.89828e-05
2.04323e-05
1.98996e-05
2.00807e-05
2.89774e-05
2.04317e-05
4.17538e-05
4.19103e-05
1.96731e-05
4.18208e-05
4.18544e-05
7.258e-05
7.25778e-05
7.2564e-05
1.97182e-05
4.18339e-05
4.18883e-05
7.25748e-05
1.98969e-05
2.89689e-05
2.04301e-05
2.00771e-05
1.98803e-05
2.89623e-05
2.04297e-05
2.99031e-05
6.89594e-05
2.99079e-05
6.89501e-05
1.9908e-05
2.04307e-05
2.89728e-05
2.00756e-05
1.99e-05
2.04303e-05
2.89631e-05
2.99224e-05
6.89563e-05
1.98951e-05
2.00776e-05
2.89716e-05
2.04296e-05
2.99088e-05
6.89516e-05
1.98957e-05
2.00766e-05
2.04303e-05
2.89715e-05
2.99036e-05
6.89614e-05
2.99077e-05
6.89578e-05
1.99159e-05
2.04306e-05
2.89866e-05
2.00814e-05
1.99157e-05
2.04305e-05
2.89766e-05
2.99039e-05
6.8951e-05
2.99106e-05
6.89487e-05
1.99164e-05
2.00818e-05
2.89873e-05
2.04302e-05
2.99101e-05
6.89595e-05
1.99143e-05
2.00816e-05
2.04302e-05
2.89836e-05
2.99093e-05
6.89499e-05
4.178e-05
4.17206e-05
1.96679e-05
4.17781e-05
4.17291e-05
7.25675e-05
7.25652e-05
7.25649e-05
1.97063e-05
4.17852e-05
4.17318e-05
7.25615e-05
1.98776e-05
2.04287e-05
2.89746e-05
2.008e-05
1.98869e-05
2.0429e-05
2.89698e-05
2.99001e-05
6.89644e-05
2.99035e-05
6.89593e-05
2.99e-05
6.89584e-05
2.9906e-05
6.89549e-05
1.99289e-05
2.00795e-05
2.04298e-05
2.89673e-05
1.98771e-05
2.0081e-05
2.04305e-05
2.89776e-05
2.9907e-05
6.8959e-05
2.99062e-05
6.89564e-05
7.25839e-05
7.25816e-05
7.25734e-05
7.25754e-05
1.97096e-05
4.17888e-05
4.17098e-05
7.25782e-05
7.25718e-05
7.18531e-05
5.40223e-05
6.89553e-05
5.39297e-05
7.18618e-05
7.40506e-05
2.99258e-05
3.43112e-05
7.53037e-05
3.43199e-05
7.53049e-05
7.40504e-05
7.1863e-05
5.41588e-05
6.89631e-05
5.41619e-05
7.18682e-05
7.25773e-05
7.40521e-05
2.99268e-05
7.53044e-05
3.42647e-05
7.53058e-05
3.42704e-05
7.40517e-05
7.1869e-05
5.4039e-05
6.89581e-05
7.18617e-05
5.40145e-05
7.40515e-05
2.99206e-05
7.53054e-05
3.42698e-05
7.4052e-05
7.53047e-05
3.42627e-05
7.18667e-05
5.40507e-05
6.89617e-05
5.4136e-05
7.18736e-05
7.25668e-05
7.25645e-05
7.40526e-05
2.99247e-05
3.41751e-05
7.5304e-05
3.42323e-05
7.53051e-05
7.40587e-05
7.18657e-05
5.4084e-05
6.89574e-05
7.18599e-05
5.40224e-05
7.40524e-05
2.99199e-05
3.42912e-05
7.5305e-05
7.40525e-05
3.424e-05
7.53039e-05
7.18575e-05
5.39137e-05
6.8958e-05
5.39158e-05
7.18608e-05
7.25699e-05
7.25671e-05
6.21941e-05
7.29617e-05
7.29563e-05
7.29549e-05
7.29494e-05
6.21718e-05
3.31454e-05
2.29883e-05
6.74656e-05
4.19038e-05
3.31577e-05
2.29838e-05
6.74632e-05
3.31808e-05
2.29795e-05
6.74581e-05
4.17722e-05
3.31943e-05
2.29768e-05
6.74564e-05
6.20752e-05
7.29527e-05
7.29471e-05
6.2131e-05
7.29586e-05
7.2953e-05
3.31483e-05
6.74649e-05
4.19349e-05
2.29824e-05
2.29874e-05
6.74678e-05
3.3135e-05
3.31852e-05
6.74619e-05
4.18501e-05
2.29797e-05
2.29827e-05
6.74663e-05
3.31768e-05
7.25811e-05
7.25764e-05
6.21164e-05
7.29484e-05
7.29438e-05
7.29436e-05
7.29392e-05
6.20907e-05
3.31469e-05
6.74576e-05
4.18833e-05
2.29735e-05
6.74603e-05
3.3131e-05
2.29782e-05
3.31769e-05
6.74679e-05
4.17853e-05
2.29723e-05
6.74864e-05
3.31629e-05
2.29787e-05
7.25776e-05
7.25802e-05
7.25676e-05
7.25707e-05
6.20701e-05
7.29412e-05
7.29364e-05
6.19913e-05
7.29476e-05
7.29426e-05
3.312e-05
2.29752e-05
4.19226e-05
6.74558e-05
6.74578e-05
2.29789e-05
3.31052e-05
3.31577e-05
2.29711e-05
4.1775e-05
6.74563e-05
6.74589e-05
2.29753e-05
3.31444e-05
3.31172e-05
6.74585e-05
2.29774e-05
4.19083e-05
3.31325e-05
6.74563e-05
2.29743e-05
3.31531e-05
6.74638e-05
2.29753e-05
4.16973e-05
3.31663e-05
6.74586e-05
2.2971e-05
6.20925e-05
7.29482e-05
7.2943e-05
7.29421e-05
7.2937e-05
6.20575e-05
7.40525e-05
7.53055e-05
3.42665e-05
2.99193e-05
7.40539e-05
7.53046e-05
3.42615e-05
7.18599e-05
6.89593e-05
5.40337e-05
7.18664e-05
5.40844e-05
7.18655e-05
5.40975e-05
6.89573e-05
7.1858e-05
5.41081e-05
7.40525e-05
2.99252e-05
7.53043e-05
3.42632e-05
7.40516e-05
7.53057e-05
3.42686e-05
7.40663e-05
7.53047e-05
3.39524e-05
2.99026e-05
7.40669e-05
7.5304e-05
3.38926e-05
7.18718e-05
6.89608e-05
5.41654e-05
5.41148e-05
7.18774e-05
7.18784e-05
5.41693e-05
6.89594e-05
7.18718e-05
5.41749e-05
7.40695e-05
2.99072e-05
7.53038e-05
3.39017e-05
7.53052e-05
3.39566e-05
7.40671e-05
7.25683e-05
7.25722e-05
3.31481e-05
2.29705e-05
4.17755e-05
6.74589e-05
2.2975e-05
6.74614e-05
3.31363e-05
3.31176e-05
2.29839e-05
4.1915e-05
6.74645e-05
6.74674e-05
2.29883e-05
3.31048e-05
2.29776e-05
4.17966e-05
2.29719e-05
6.19234e-05
7.29434e-05
7.29476e-05
7.29347e-05
7.29389e-05
6.20226e-05
7.25833e-05
7.40587e-05
2.99156e-05
7.53031e-05
3.41007e-05
7.53043e-05
3.41796e-05
7.40616e-05
7.18637e-05
5.40537e-05
6.89645e-05
5.41026e-05
7.18682e-05
7.40512e-05
3.43117e-05
7.53051e-05
2.99209e-05
7.40516e-05
3.43005e-05
7.53038e-05
7.18601e-05
6.89609e-05
5.4073e-05
7.18654e-05
5.41022e-05
7.18669e-05
5.41643e-05
6.896e-05
7.18624e-05
5.41099e-05
7.40523e-05
2.99261e-05
3.42909e-05
7.53038e-05
7.40519e-05
3.43024e-05
7.53051e-05
7.40654e-05
7.53047e-05
3.39874e-05
2.9906e-05
7.40651e-05
7.53035e-05
3.39397e-05
7.18633e-05
6.89601e-05
5.40613e-05
5.41307e-05
7.18688e-05
7.18684e-05
5.40092e-05
6.89582e-05
7.18611e-05
5.41042e-05
7.4067e-05
2.99098e-05
7.53036e-05
3.39346e-05
7.53048e-05
3.395e-05
7.40772e-05
7.18533e-05
6.8965e-05
5.39855e-05
5.39397e-05
7.18565e-05
7.40455e-05
2.9908e-05
3.42132e-05
7.53004e-05
3.42223e-05
7.53017e-05
7.4044e-05
7.18445e-05
6.89545e-05
5.38938e-05
5.38883e-05
7.18503e-05
7.40544e-05
2.99128e-05
7.53025e-05
3.40579e-05
7.53037e-05
3.40794e-05
7.40546e-05
6.2062e-05
7.29472e-05
7.29508e-05
7.29418e-05
7.29453e-05
6.20369e-05
3.3194e-05
6.74644e-05
4.17566e-05
2.29743e-05
6.74692e-05
2.29811e-05
3.31786e-05
3.31675e-05
6.74605e-05
4.18931e-05
2.29775e-05
2.29827e-05
6.74629e-05
3.31526e-05
7.25808e-05
7.2571e-05
7.25742e-05
6.20925e-05
7.29416e-05
7.29455e-05
6.2075e-05
7.2948e-05
7.29521e-05
3.31711e-05
2.2968e-05
4.17726e-05
6.74582e-05
2.29727e-05
6.74608e-05
3.3157e-05
3.31504e-05
2.29675e-05
4.17518e-05
6.74658e-05
6.74686e-05
2.29739e-05
3.3138e-05
3.31664e-05
6.74638e-05
2.29758e-05
4.17606e-05
2.29701e-05
3.31801e-05
6.74606e-05
3.31435e-05
6.74677e-05
2.29795e-05
4.17545e-05
3.31549e-05
6.74664e-05
2.29727e-05
6.212e-05
7.29485e-05
7.29527e-05
7.29426e-05
7.29467e-05
6.21265e-05
7.25728e-05
7.25777e-05
6.89646e-05
7.40549e-05
3.40119e-05
7.53017e-05
2.98972e-05
7.40658e-05
3.40509e-05
7.53002e-05
7.18572e-05
6.89647e-05
5.40339e-05
5.41035e-05
7.18612e-05
7.18639e-05
5.40701e-05
6.89606e-05
7.18587e-05
5.40891e-05
7.40481e-05
2.99028e-05
3.40822e-05
7.52999e-05
3.40782e-05
7.53014e-05
7.40469e-05
7.40443e-05
3.41544e-05
7.52983e-05
2.99023e-05
7.40447e-05
3.41047e-05
7.52968e-05
7.18599e-05
6.89546e-05
5.41304e-05
5.4101e-05
7.18694e-05
7.18614e-05
5.39953e-05
6.89497e-05
7.18525e-05
5.3974e-05
7.40452e-05
2.99076e-05
3.40575e-05
7.52967e-05
3.40906e-05
7.52982e-05
7.40443e-05
6.22176e-05
7.29596e-05
7.29537e-05
3.31653e-05
2.29843e-05
4.20084e-05
6.74644e-05
3.3152e-05
2.29883e-05
6.74669e-05
3.31934e-05
2.29743e-05
4.1833e-05
6.74561e-05
3.31836e-05
2.2977e-05
6.74574e-05
3.31561e-05
4.19548e-05
2.29839e-05
6.74657e-05
3.31834e-05
2.29741e-05
4.18007e-05
2.29716e-05
6.74547e-05
6.22385e-05
7.29591e-05
7.29533e-05
6.20953e-05
7.29546e-05
7.29487e-05
7.25862e-05
7.25887e-05
7.25731e-05
7.25732e-05
7.25775e-05
7.25752e-05
7.25671e-05
7.2565e-05
6.20892e-05
7.29541e-05
7.29489e-05
7.29468e-05
7.29416e-05
6.20945e-05
3.30975e-05
2.2979e-05
6.74574e-05
4.19256e-05
3.311e-05
6.74553e-05
2.29752e-05
3.31381e-05
2.29745e-05
6.74567e-05
4.17509e-05
3.31502e-05
6.74546e-05
2.29702e-05
6.21365e-05
7.29438e-05
7.29385e-05
6.21098e-05
7.29514e-05
7.29461e-05
3.31022e-05
6.74544e-05
4.19282e-05
2.29745e-05
6.74567e-05
3.30188e-05
2.29793e-05
3.31426e-05
6.74542e-05
4.17794e-05
2.29705e-05
6.74561e-05
3.30589e-05
2.29746e-05
7.25748e-05
7.25666e-05
6.22017e-05
7.29488e-05
7.29437e-05
6.20452e-05
7.29578e-05
7.29527e-05
3.30406e-05
6.74557e-05
2.29776e-05
4.18554e-05
3.30483e-05
6.74532e-05
2.29728e-05
3.30774e-05
6.74562e-05
2.29743e-05
4.1752e-05
3.30869e-05
6.74546e-05
2.29702e-05
7.40712e-05
2.99055e-05
7.53037e-05
3.39444e-05
7.53052e-05
3.3971e-05
7.40686e-05
7.18764e-05
5.41965e-05
6.89583e-05
7.18715e-05
5.42017e-05
7.40684e-05
2.98999e-05
7.53056e-05
3.39516e-05
7.53041e-05
7.40693e-05
3.39605e-05
7.18655e-05
5.40261e-05
6.89593e-05
5.4071e-05
7.18656e-05
7.40522e-05
7.53059e-05
3.42695e-05
2.99241e-05
7.40525e-05
7.53046e-05
3.42632e-05
7.18733e-05
5.40864e-05
6.89621e-05
7.18681e-05
5.40931e-05
7.40543e-05
7.53052e-05
3.39689e-05
2.99023e-05
7.40754e-05
7.53037e-05
3.39745e-05
7.18539e-05
5.39844e-05
6.89531e-05
7.18534e-05
5.39906e-05
6.21348e-05
7.29501e-05
7.29544e-05
7.29457e-05
7.295e-05
6.20542e-05
3.31023e-05
2.29734e-05
6.74595e-05
4.17871e-05
6.74578e-05
3.31414e-05
2.29693e-05
3.30725e-05
2.29867e-05
6.74651e-05
4.19089e-05
2.29821e-05
3.31111e-05
6.7463e-05
6.20945e-05
7.29417e-05
7.2946e-05
7.295e-05
6.21113e-05
7.29543e-05
3.31076e-05
6.74579e-05
4.18142e-05
2.29692e-05
6.74592e-05
2.29734e-05
3.30693e-05
3.30783e-05
6.74613e-05
4.19157e-05
2.29811e-05
2.2986e-05
6.74638e-05
3.30405e-05
7.25805e-05
7.25775e-05
7.25656e-05
6.19994e-05
7.29416e-05
7.29459e-05
6.20284e-05
7.29446e-05
7.29489e-05
3.30507e-05
6.74592e-05
2.29729e-05
4.18362e-05
2.29688e-05
3.3065e-05
6.74575e-05
3.30227e-05
6.74619e-05
2.2984e-05
4.18171e-05
3.30369e-05
6.74621e-05
2.29791e-05
7.25751e-05
7.40799e-05
2.99078e-05
7.53036e-05
3.3998e-05
7.53049e-05
3.39957e-05
7.40734e-05
7.1867e-05
5.41392e-05
6.89559e-05
7.18638e-05
5.40298e-05
7.40797e-05
2.99023e-05
7.53051e-05
3.39666e-05
7.53038e-05
7.40904e-05
3.39707e-05
7.18557e-05
5.37949e-05
6.89556e-05
5.39373e-05
7.18536e-05
7.408e-05
3.41526e-05
7.53055e-05
2.99167e-05
7.40675e-05
3.41442e-05
7.53043e-05
7.18548e-05
5.39179e-05
6.89534e-05
7.18524e-05
5.38644e-05
7.40794e-05
7.53049e-05
3.40109e-05
2.99039e-05
7.40737e-05
7.53037e-05
3.39753e-05
7.18384e-05
5.37659e-05
6.8947e-05
7.18391e-05
5.37506e-05
7.40437e-05
2.99083e-05
3.42065e-05
7.53003e-05
3.42138e-05
7.53017e-05
7.40424e-05
7.18478e-05
5.39832e-05
6.89581e-05
5.39066e-05
7.18454e-05
7.40432e-05
2.99022e-05
3.42169e-05
7.53018e-05
3.4208e-05
7.40443e-05
7.53004e-05
7.18392e-05
5.39414e-05
6.89612e-05
5.40032e-05
7.18444e-05
7.4067e-05
2.99093e-05
7.53029e-05
3.40044e-05
7.53042e-05
3.40222e-05
7.40663e-05
7.18528e-05
5.39528e-05
6.8949e-05
7.18459e-05
5.39771e-05
7.40652e-05
2.99044e-05
7.5304e-05
3.40559e-05
7.40702e-05
7.53029e-05
3.40208e-05
7.18481e-05
5.40085e-05
6.89509e-05
5.40126e-05
7.18535e-05
7.4042e-05
3.42135e-05
7.53016e-05
2.99057e-05
7.40429e-05
3.42071e-05
7.53002e-05
7.18466e-05
5.40683e-05
6.8956e-05
7.18394e-05
5.40821e-05
7.40768e-05
7.53044e-05
3.40148e-05
2.99047e-05
7.40797e-05
7.53031e-05
3.40096e-05
7.18506e-05
5.40171e-05
6.89472e-05
7.18465e-05
5.40105e-05
6.21145e-05
7.29491e-05
7.2953e-05
7.29438e-05
7.29478e-05
6.20688e-05
3.31252e-05
2.29706e-05
6.74586e-05
4.17767e-05
6.74563e-05
3.31631e-05
2.29656e-05
3.31069e-05
2.29693e-05
6.74718e-05
4.17236e-05
2.29634e-05
3.31448e-05
6.74676e-05
6.20064e-05
7.29424e-05
7.29465e-05
7.2948e-05
6.20797e-05
7.29521e-05
3.31267e-05
6.7455e-05
4.1782e-05
2.29641e-05
6.7457e-05
2.29686e-05
3.31155e-05
3.3108e-05
6.74624e-05
4.17339e-05
2.29603e-05
2.29659e-05
6.74605e-05
3.30956e-05
7.25681e-05
7.25647e-05
7.25656e-05
6.18776e-05
7.29406e-05
7.29443e-05
6.19918e-05
7.29429e-05
7.29465e-05
3.31103e-05
6.74557e-05
2.29677e-05
4.17571e-05
2.29635e-05
3.31218e-05
6.74535e-05
3.3088e-05
6.74522e-05
2.29628e-05
4.17016e-05
3.31007e-05
6.74469e-05
2.29579e-05
7.25624e-05
7.40606e-05
2.99047e-05
3.40517e-05
7.53001e-05
3.4065e-05
7.53013e-05
7.40586e-05
7.18557e-05
5.40418e-05
6.89628e-05
5.39896e-05
7.18531e-05
7.40466e-05
2.98982e-05
3.40937e-05
7.53013e-05
3.40623e-05
7.4047e-05
7.53e-05
7.18465e-05
5.38745e-05
6.89653e-05
5.39896e-05
7.18474e-05
7.40598e-05
2.99056e-05
3.40483e-05
7.52972e-05
3.40442e-05
7.52984e-05
7.4067e-05
7.1871e-05
5.41598e-05
6.89569e-05
7.18657e-05
5.40871e-05
7.40461e-05
2.98998e-05
3.40008e-05
7.52983e-05
7.40541e-05
3.40173e-05
7.52969e-05
7.18618e-05
5.39694e-05
6.89577e-05
5.39836e-05
7.18643e-05
7.40743e-05
3.40649e-05
7.53016e-05
2.99029e-05
7.40658e-05
3.40375e-05
7.53004e-05
7.18378e-05
5.38425e-05
6.89553e-05
7.18365e-05
5.38329e-05
7.40682e-05
3.40602e-05
7.52989e-05
2.9901e-05
7.40802e-05
3.40486e-05
7.52975e-05
7.1857e-05
5.40131e-05
6.89531e-05
7.18557e-05
5.39249e-05
7.25843e-05
7.25813e-05
7.25748e-05
7.25735e-05
6.21695e-05
7.2957e-05
7.29517e-05
6.22042e-05
7.29624e-05
7.29572e-05
3.31257e-05
6.74696e-05
2.29839e-05
4.17403e-05
3.31395e-05
2.29776e-05
6.74673e-05
3.31748e-05
6.74768e-05
2.29827e-05
4.16076e-05
3.31862e-05
2.2977e-05
6.74689e-05
7.25757e-05
7.25706e-05
2.08798e-05
2.12098e-05
2.12119e-05
2.12117e-05
2.08791e-05
2.12121e-05
2.1211e-05
2.148e-05
2.14802e-05
2.20199e-05
1.99313e-05
1.99199e-05
1.96796e-05
2.20245e-05
1.99251e-05
1.99248e-05
2.20132e-05
1.96785e-05
1.9903e-05
1.99139e-05
1.99046e-05
1.99255e-05
2.20065e-05
2.20144e-05
1.9668e-05
1.99193e-05
1.99506e-05
1.99171e-05
1.99425e-05
2.20083e-05
2.20186e-05
1.96487e-05
1.99204e-05
1.99062e-05
1.99043e-05
1.99157e-05
2.20125e-05
2.20242e-05
1.97021e-05
1.99455e-05
1.99334e-05
2.20196e-05
1.99284e-05
1.99166e-05
2.20036e-05
1.99029e-05
1.99139e-05
1.96614e-05
2.20099e-05
1.98991e-05
1.99054e-05
2.2005e-05
1.99145e-05
1.99266e-05
1.96452e-05
1.99189e-05
2.20117e-05
1.99324e-05
2.20106e-05
1.99016e-05
1.99094e-05
1.96476e-05
1.99147e-05
2.20168e-05
1.98969e-05
2.08759e-05
2.12091e-05
2.08797e-05
2.12115e-05
2.12119e-05
2.1211e-05
2.12118e-05
2.14801e-05
2.14801e-05
2.08777e-05
2.12107e-05
2.12108e-05
2.12111e-05
2.12104e-05
2.14792e-05
2.14791e-05
2.08785e-05
2.12119e-05
2.12124e-05
2.12116e-05
2.12117e-05
2.14794e-05
2.14793e-05
2.08783e-05
2.12087e-05
2.12108e-05
2.12082e-05
2.12104e-05
2.14791e-05
2.1479e-05
2.89823e-05
2.0307e-05
2.03027e-05
2.12099e-05
2.12088e-05
2.08766e-05
2.12098e-05
2.12086e-05
2.14792e-05
2.14792e-05
2.12092e-05
2.12102e-05
2.08766e-05
2.12091e-05
2.12099e-05
2.14793e-05
2.14793e-05
2.12087e-05
2.12097e-05
2.08766e-05
2.12087e-05
2.12098e-05
2.14792e-05
2.14792e-05
2.08782e-05
2.12118e-05
2.12096e-05
2.14792e-05
2.08766e-05
2.12097e-05
2.12085e-05
2.14788e-05
2.08766e-05
2.1209e-05
2.12096e-05
2.1479e-05
2.0877e-05
2.12089e-05
2.12101e-05
2.1479e-05
1.93742e-05
1.98812e-05
2.06244e-05
1.93531e-05
2.06262e-05
1.93803e-05
1.94031e-05
1.95767e-05
2.0342e-05
2.36878e-05
2.89781e-05
1.95913e-05
2.03452e-05
2.3681e-05
1.93699e-05
1.98403e-05
2.06119e-05
1.93496e-05
1.9401e-05
2.06105e-05
1.93555e-05
1.96144e-05
2.36841e-05
2.89872e-05
2.03596e-05
2.03565e-05
2.36884e-05
1.96074e-05
1.94248e-05
1.99221e-05
1.93547e-05
2.06659e-05
1.9351e-05
2.06623e-05
1.94508e-05
1.96157e-05
2.03552e-05
2.36731e-05
2.89615e-05
1.96201e-05
2.03515e-05
2.36664e-05
1.942e-05
1.98661e-05
1.93639e-05
2.06266e-05
1.93798e-05
1.93555e-05
2.0636e-05
1.96391e-05
2.36642e-05
2.89691e-05
2.03507e-05
2.03534e-05
2.36716e-05
1.96254e-05
2.20245e-05
1.97035e-05
1.99219e-05
1.99529e-05
1.99304e-05
1.99584e-05
2.20198e-05
2.20186e-05
1.96977e-05
1.9922e-05
1.99506e-05
2.2013e-05
1.99041e-05
1.99342e-05
2.20099e-05
1.96653e-05
1.99115e-05
1.99311e-05
2.20163e-05
1.99071e-05
1.9923e-05
1.95967e-05
2.36707e-05
2.89802e-05
2.03009e-05
2.36738e-05
2.03037e-05
1.9586e-05
1.94014e-05
2.06448e-05
1.93575e-05
1.98926e-05
1.94109e-05
2.06427e-05
1.93467e-05
1.95969e-05
2.03061e-05
2.89786e-05
2.36837e-05
2.03062e-05
2.36868e-05
1.9609e-05
1.95961e-05
2.36798e-05
2.03036e-05
2.89695e-05
2.03013e-05
1.95895e-05
2.36772e-05
1.94023e-05
1.99096e-05
2.06568e-05
1.93509e-05
2.0658e-05
1.93747e-05
1.94193e-05
1.94005e-05
2.06142e-05
1.93373e-05
1.98791e-05
1.9408e-05
2.0611e-05
1.93627e-05
1.95977e-05
2.03797e-05
2.89767e-05
2.36794e-05
2.36842e-05
2.0382e-05
1.95941e-05
1.95846e-05
2.36836e-05
2.03338e-05
2.89681e-05
1.9575e-05
2.36779e-05
2.03512e-05
1.93862e-05
1.98785e-05
2.06221e-05
1.93621e-05
2.06205e-05
1.93496e-05
1.93892e-05
1.96896e-05
1.99198e-05
1.99224e-05
1.93872e-05
1.98879e-05
2.06281e-05
1.93865e-05
2.06306e-05
1.9342e-05
1.93961e-05
1.95603e-05
2.367e-05
2.89774e-05
2.02973e-05
2.3676e-05
2.02999e-05
1.95865e-05
1.93907e-05
1.9883e-05
1.93813e-05
2.06133e-05
1.93491e-05
2.0617e-05
1.93799e-05
1.95749e-05
2.36709e-05
2.89803e-05
2.03064e-05
2.36778e-05
1.95717e-05
2.0302e-05
1.93575e-05
2.06306e-05
1.93804e-05
1.98818e-05
1.93647e-05
2.06275e-05
1.93955e-05
1.95991e-05
2.03189e-05
2.89705e-05
2.36674e-05
2.02991e-05
2.36736e-05
1.95882e-05
1.95617e-05
2.36752e-05
2.02998e-05
2.89624e-05
2.02971e-05
1.95654e-05
2.36681e-05
1.93501e-05
1.98839e-05
2.06366e-05
1.9381e-05
2.06299e-05
1.94054e-05
1.93464e-05
1.93751e-05
1.93476e-05
2.06138e-05
1.98865e-05
1.9385e-05
1.93398e-05
2.06086e-05
1.96031e-05
2.0337e-05
2.89741e-05
2.36716e-05
2.36773e-05
2.03378e-05
1.95739e-05
1.95862e-05
2.3676e-05
2.03107e-05
2.89662e-05
1.95765e-05
2.3671e-05
2.03143e-05
1.93838e-05
1.98915e-05
1.93623e-05
2.06109e-05
1.93337e-05
2.06133e-05
1.93881e-05
1.95667e-05
2.03289e-05
2.89883e-05
2.36822e-05
1.95633e-05
2.03292e-05
2.3688e-05
1.93848e-05
1.9821e-05
2.06071e-05
1.93659e-05
1.93828e-05
2.06096e-05
1.9332e-05
1.95855e-05
2.03439e-05
2.89875e-05
2.36628e-05
2.36687e-05
2.0344e-05
1.95846e-05
1.93949e-05
1.98923e-05
1.93476e-05
2.06287e-05
1.93423e-05
2.06306e-05
1.93889e-05
2.20235e-05
1.96743e-05
1.9914e-05
1.99433e-05
1.99374e-05
1.99404e-05
2.20176e-05
2.20151e-05
1.96607e-05
1.99093e-05
1.99424e-05
1.99247e-05
2.20207e-05
1.99451e-05
1.94056e-05
1.9331e-05
2.06038e-05
1.98467e-05
1.93851e-05
1.93207e-05
2.06012e-05
1.95831e-05
2.03528e-05
2.89752e-05
2.36676e-05
1.96189e-05
2.03393e-05
2.36739e-05
1.95641e-05
2.36743e-05
2.03111e-05
2.89686e-05
1.95707e-05
2.03102e-05
2.36683e-05
1.93713e-05
1.98504e-05
1.93302e-05
2.0612e-05
1.94013e-05
1.93508e-05
2.06095e-05
1.93812e-05
1.93318e-05
2.06096e-05
1.98942e-05
1.93589e-05
1.93223e-05
2.06064e-05
1.96056e-05
2.03458e-05
2.8972e-05
2.36652e-05
2.36684e-05
2.03453e-05
1.95786e-05
1.95922e-05
2.36622e-05
2.0332e-05
2.89616e-05
1.95948e-05
2.36592e-05
2.03348e-05
1.93521e-05
1.99051e-05
1.93189e-05
2.06093e-05
1.93439e-05
2.06105e-05
1.93795e-05
2.20195e-05
1.97138e-05
1.99246e-05
1.99342e-05
1.99244e-05
2.20079e-05
1.96605e-05
1.99351e-05
1.99317e-05
2.20012e-05
1.99371e-05
1.99288e-05
2.19976e-05
1.96641e-05
1.99277e-05
1.99383e-05
2.20042e-05
1.9922e-05
1.99297e-05
1.94048e-05
1.99113e-05
2.06753e-05
1.93407e-05
2.06744e-05
1.93718e-05
1.93859e-05
1.9596e-05
2.03273e-05
2.36925e-05
2.89712e-05
2.36894e-05
1.9609e-05
2.03314e-05
1.93804e-05
1.99058e-05
2.06648e-05
1.93428e-05
2.06649e-05
1.93916e-05
1.93479e-05
1.96159e-05
2.36962e-05
2.8981e-05
2.03449e-05
2.36993e-05
2.0333e-05
1.96354e-05
1.94233e-05
1.98951e-05
2.06605e-05
1.93365e-05
2.065e-05
1.9373e-05
1.94044e-05
1.96085e-05
2.03773e-05
2.36856e-05
2.89666e-05
1.95945e-05
2.36812e-05
2.03774e-05
1.93968e-05
1.98715e-05
2.06374e-05
1.93642e-05
1.94169e-05
2.06372e-05
1.93603e-05
1.96296e-05
2.36794e-05
2.89764e-05
2.03782e-05
2.36859e-05
1.9636e-05
2.03931e-05
1.94434e-05
2.06877e-05
1.93652e-05
1.99118e-05
1.94012e-05
2.06973e-05
1.93461e-05
1.96794e-05
2.37043e-05
2.0387e-05
2.89752e-05
2.03966e-05
1.96572e-05
2.37014e-05
1.9426e-05
2.06701e-05
1.93677e-05
1.9904e-05
1.94189e-05
2.06692e-05
1.93544e-05
1.96209e-05
2.36836e-05
2.03817e-05
2.89693e-05
1.96525e-05
2.36772e-05
2.03796e-05
2.20086e-05
1.96416e-05
1.99245e-05
1.99236e-05
1.99277e-05
1.99199e-05
2.20019e-05
2.19982e-05
1.9697e-05
1.99502e-05
1.99256e-05
1.9931e-05
2.20049e-05
1.99244e-05
1.93695e-05
1.98939e-05
2.06589e-05
1.93641e-05
2.06574e-05
1.93428e-05
1.93792e-05
1.95864e-05
2.03245e-05
2.36762e-05
2.89604e-05
2.36729e-05
1.95853e-05
2.03227e-05
1.93673e-05
1.9891e-05
2.06484e-05
1.93722e-05
2.06478e-05
1.93617e-05
1.9387e-05
1.95769e-05
2.36761e-05
2.89699e-05
2.03649e-05
2.36805e-05
2.03318e-05
1.95721e-05
1.93751e-05
1.98986e-05
1.93441e-05
2.06698e-05
1.93513e-05
2.06624e-05
1.93712e-05
1.95893e-05
2.03476e-05
2.36778e-05
2.89638e-05
1.95699e-05
2.36709e-05
2.03463e-05
1.9381e-05
1.98912e-05
1.93545e-05
2.06245e-05
1.94097e-05
1.93476e-05
2.06344e-05
1.95716e-05
2.36649e-05
2.8972e-05
2.03581e-05
2.36741e-05
1.95686e-05
2.03558e-05
1.94092e-05
2.06728e-05
1.93564e-05
1.99094e-05
1.93952e-05
2.06707e-05
1.93457e-05
1.95919e-05
2.3684e-05
2.03715e-05
2.89641e-05
2.03696e-05
1.95872e-05
2.36801e-05
1.94258e-05
1.93426e-05
2.06768e-05
1.99101e-05
1.93912e-05
1.93409e-05
2.06755e-05
1.95896e-05
2.36671e-05
2.03636e-05
2.89626e-05
1.95663e-05
2.36582e-05
2.03635e-05
1.93896e-05
1.99293e-05
1.93736e-05
2.06413e-05
1.93486e-05
2.06459e-05
1.93865e-05
1.95857e-05
2.03631e-05
2.36696e-05
2.89775e-05
2.03825e-05
1.95841e-05
2.36648e-05
1.9406e-05
1.9913e-05
1.93503e-05
2.06395e-05
1.93439e-05
1.94157e-05
2.06336e-05
1.96003e-05
2.36666e-05
2.89859e-05
2.03727e-05
2.03783e-05
2.36719e-05
1.95984e-05
1.93727e-05
2.06466e-05
1.93444e-05
1.99117e-05
1.93782e-05
2.06457e-05
1.93466e-05
1.9624e-05
2.36921e-05
2.03791e-05
2.89785e-05
1.96027e-05
2.04033e-05
2.36882e-05
1.93989e-05
1.93779e-05
2.06498e-05
1.99084e-05
1.93749e-05
1.93797e-05
2.06502e-05
1.96097e-05
2.36727e-05
2.03725e-05
2.8973e-05
1.95985e-05
2.36672e-05
2.03687e-05
2.20138e-05
1.96417e-05
1.98876e-05
1.9905e-05
1.99327e-05
1.98949e-05
2.20081e-05
2.20076e-05
1.97059e-05
1.99277e-05
1.99067e-05
1.99185e-05
2.20125e-05
1.99229e-05
1.94314e-05
1.98829e-05
1.93405e-05
2.06596e-05
1.9322e-05
2.06576e-05
1.94363e-05
1.95779e-05
2.03659e-05
2.36734e-05
2.89674e-05
2.03698e-05
1.95963e-05
2.36687e-05
1.93869e-05
1.98886e-05
1.93153e-05
2.06179e-05
1.93442e-05
1.93574e-05
2.06311e-05
1.95822e-05
2.36682e-05
2.89777e-05
2.03698e-05
2.0372e-05
2.36743e-05
1.96013e-05
1.94061e-05
1.93425e-05
2.06723e-05
1.99285e-05
1.94147e-05
1.93374e-05
2.06724e-05
1.96063e-05
2.36674e-05
2.03701e-05
2.89577e-05
1.96096e-05
2.03612e-05
2.36598e-05
1.94335e-05
1.93697e-05
2.06663e-05
1.98736e-05
1.94607e-05
1.93418e-05
2.06645e-05
1.95796e-05
2.36742e-05
2.03806e-05
2.89674e-05
1.95826e-05
2.36678e-05
2.0381e-05
2.20191e-05
1.96913e-05
1.9933e-05
1.99606e-05
2.20243e-05
1.9949e-05
1.99666e-05
2.08785e-05
2.00839e-05
2.00829e-05
1.9663e-05
2.08758e-05
2.00841e-05
2.00841e-05
1.96638e-05
2.08723e-05
2.00808e-05
2.0083e-05
1.96383e-05
2.08674e-05
2.00762e-05
2.00766e-05
1.9641e-05
2.08645e-05
2.00725e-05
2.0072e-05
1.96688e-05
2.08627e-05
2.00666e-05
2.00681e-05
1.96787e-05
2.08615e-05
2.00637e-05
2.00669e-05
1.96777e-05
2.08613e-05
2.00618e-05
2.00653e-05
1.96619e-05
2.08658e-05
2.00676e-05
2.00657e-05
1.96336e-05
2.08701e-05
2.00717e-05
2.00719e-05
1.9671e-05
2.08738e-05
2.00728e-05
2.00726e-05
1.96534e-05
2.08751e-05
2.00747e-05
2.00726e-05
1.96668e-05
2.08754e-05
2.00758e-05
2.00748e-05
1.96539e-05
2.08756e-05
2.0077e-05
2.00761e-05
1.96834e-05
2.08757e-05
2.0077e-05
2.0077e-05
1.97223e-05
2.08759e-05
2.00771e-05
2.00767e-05
1.96672e-05
2.08761e-05
2.00783e-05
2.00792e-05
1.9679e-05
2.08764e-05
2.00784e-05
2.00806e-05
1.96662e-05
2.08768e-05
2.00756e-05
2.00795e-05
1.96391e-05
2.07961e-05
2.02655e-05
2.02724e-05
1.97016e-05
1.97075e-05
2.00793e-05
2.00812e-05
1.96858e-05
2.00788e-05
2.00775e-05
2.00831e-05
2.00816e-05
1.96945e-05
2.0081e-05
2.00814e-05
1.96725e-05
1.96743e-05
1.96635e-05
2.0081e-05
2.0082e-05
2.00835e-05
2.00829e-05
1.96744e-05
1.96824e-05
2.00795e-05
2.00791e-05
2.00801e-05
2.00808e-05
2.00813e-05
2.00841e-05
2.00823e-05
1.97085e-05
1.97163e-05
2.00818e-05
2.00842e-05
2.00832e-05
1.96704e-05
1.96937e-05
1.96781e-05
2.00821e-05
2.00823e-05
2.00825e-05
2.00793e-05
1.96812e-05
1.96726e-05
2.00808e-05
2.00807e-05
2.00816e-05
2.00789e-05
2.00819e-05
2.00816e-05
2.00796e-05
1.96735e-05
1.96704e-05
2.00828e-05
2.00836e-05
2.0081e-05
1.96513e-05
1.9676e-05
1.96973e-05
2.00819e-05
2.0078e-05
2.00769e-05
2.00758e-05
1.9663e-05
1.97049e-05
2.00814e-05
2.00784e-05
2.00785e-05
2.00758e-05
2.00782e-05
2.00773e-05
2.00743e-05
1.96904e-05
1.96545e-05
2.00797e-05
2.00777e-05
2.00748e-05
1.96839e-05
1.96842e-05
1.96641e-05
2.00751e-05
2.00742e-05
2.00695e-05
2.00707e-05
1.96739e-05
1.9696e-05
2.00774e-05
2.00744e-05
2.00728e-05
2.00708e-05
2.0071e-05
2.00732e-05
2.00689e-05
1.96557e-05
1.9659e-05
2.00714e-05
2.0073e-05
2.00698e-05
1.96614e-05
1.96569e-05
1.96576e-05
2.0068e-05
2.00685e-05
2.00662e-05
2.00646e-05
1.96557e-05
1.96223e-05
2.00711e-05
2.00695e-05
2.00673e-05
2.00655e-05
2.0069e-05
2.00672e-05
2.00686e-05
1.96525e-05
1.96299e-05
2.00696e-05
2.0069e-05
2.00692e-05
1.97108e-05
1.9654e-05
1.9643e-05
2.00648e-05
2.00633e-05
2.00647e-05
2.00627e-05
1.96245e-05
1.96531e-05
2.00668e-05
2.0063e-05
2.00667e-05
2.00636e-05
2.00673e-05
2.00641e-05
2.00649e-05
1.96272e-05
1.96642e-05
2.00679e-05
2.00669e-05
2.0065e-05
1.96661e-05
1.96414e-05
1.96567e-05
2.00647e-05
2.00608e-05
2.00655e-05
2.00602e-05
1.96121e-05
1.96232e-05
2.00658e-05
2.00637e-05
2.0066e-05
2.00628e-05
2.00644e-05
2.00618e-05
2.00632e-05
1.96604e-05
1.96622e-05
2.0065e-05
2.00654e-05
2.00647e-05
1.96654e-05
1.96488e-05
1.96829e-05
2.00651e-05
2.00601e-05
2.00681e-05
2.00651e-05
1.96162e-05
1.96743e-05
2.00665e-05
2.00627e-05
2.00693e-05
2.00645e-05
2.0063e-05
2.00642e-05
2.00641e-05
1.96713e-05
1.96913e-05
2.00647e-05
2.00647e-05
2.00658e-05
1.96453e-05
1.96857e-05
1.9712e-05
2.00694e-05
2.00671e-05
2.00714e-05
2.00714e-05
1.9671e-05
1.96736e-05
2.00706e-05
2.00662e-05
2.00735e-05
2.0071e-05
2.00645e-05
2.00703e-05
2.00675e-05
1.96618e-05
1.96755e-05
2.00657e-05
2.00698e-05
2.00685e-05
1.96818e-05
1.97285e-05
1.96956e-05
2.00709e-05
2.00713e-05
2.0074e-05
2.00727e-05
1.96992e-05
1.96654e-05
2.00736e-05
2.00702e-05
2.00755e-05
2.00731e-05
2.00677e-05
2.00727e-05
2.00689e-05
1.96986e-05
1.96945e-05
2.00683e-05
2.00726e-05
2.00704e-05
1.96674e-05
1.96635e-05
1.96617e-05
2.00742e-05
2.0073e-05
2.00748e-05
2.00734e-05
1.9656e-05
1.96722e-05
2.00749e-05
2.00731e-05
2.00762e-05
2.0073e-05
2.00706e-05
2.00738e-05
2.00747e-05
1.96697e-05
1.96906e-05
2.00707e-05
2.00722e-05
2.00732e-05
1.9679e-05
1.9659e-05
1.96649e-05
2.00753e-05
2.00739e-05
2.00753e-05
2.00743e-05
1.9687e-05
1.96631e-05
2.00766e-05
2.00729e-05
2.00762e-05
2.00745e-05
2.00742e-05
2.00754e-05
2.00738e-05
1.96556e-05
1.97024e-05
2.00735e-05
2.00739e-05
2.00737e-05
1.96978e-05
1.96806e-05
1.96768e-05
2.00746e-05
2.00741e-05
2.00748e-05