/*--------------------------------*- C++ -*----------------------------------*\
| =========                 |                                                 |
| \\      /  F ield         | OpenFOAM: The Open Source CFD Toolbox           |
|  \\    /   O peration     | Version:  2312                                  |
|   \\  /    A nd           | Website:  www.openfoam.com                      |
|    \\/     M anipulation  |                                                 |
\*---------------------------------------------------------------------------*/
FoamFile
{
    version     2.0;
    format      ascii;
    arch        "LSB;label=32;scalar=64";
    class       volVectorField;
    location    "150";
    object      U;
}
// * * * * * * * * * * * * * * * * * * * * * * * * * * * * * * * * * * * * * //

dimensions      [0 1 -1 0 0 0 0];

internalField   nonuniform List<vector> 
43496
(
(-1.91157e-05 -1.00186e-08 0.0917441)
(-8.13232e-06 4.34215e-06 0.070962)
(2.57745e-06 -1.24242e-06 0.108963)
(-9.50491e-06 1.81448e-05 0.0934483)
(-2.64198e-05 -4.1566e-07 0.0999667)
(1.76634e-06 1.345e-07 0.110756)
(-1.90034e-05 4.46939e-07 0.0917544)
(-1.43114e-05 2.21552e-06 0.0818834)
(-2.62534e-05 1.12306e-06 0.0999637)
(1.64905e-06 -2.10313e-06 0.108961)
(1.69045e-06 4.54415e-07 0.11075)
(-1.80721e-05 1.02361e-05 0.0934489)
(-5.69775e-05 5.75331e-05 0.106176)
(-8.92958e-06 7.95406e-06 0.0874777)
(-7.25831e-06 9.13976e-06 0.0874798)
(-3.69029e-06 8.3939e-06 0.0709592)
(-1.52659e-06 1.44782e-05 0.0818794)
(8.40707e-06 -6.42616e-08 0.0763067)
(1.67281e-05 4.0479e-07 0.0916617)
(-1.80856e-05 -9.4437e-07 0.0900429)
(-8.52084e-06 1.15696e-07 0.0781986)
(1.59596e-05 1.04206e-06 0.0899544)
(8.32356e-06 8.04781e-08 0.0781285)
(-8.9421e-06 5.64127e-07 0.0763863)
(8.27065e-06 -4.09383e-07 0.0677708)
(-1.42063e-05 -1.38808e-06 0.0856277)
(1.29776e-05 3.99697e-07 0.0855359)
(-8.44109e-06 9.30957e-08 0.0678696)
(8.4455e-06 -3.70047e-06 0.0708721)
(8.32539e-06 6.32382e-07 0.0763236)
(1.6703e-05 -1.39977e-07 0.091672)
(-8.5598e-06 6.93913e-08 0.0782111)
(-1.79892e-05 1.4885e-06 0.0900555)
(8.20366e-06 5.62482e-08 0.0781411)
(1.59839e-05 -4.7662e-07 0.0899679)
(-8.90344e-06 2.91221e-08 0.0764027)
(8.303e-06 1.00698e-06 0.0677814)
(-1.39277e-05 1.97514e-06 0.0856361)
(1.47526e-05 -4.20715e-07 0.0818017)
(1.32428e-05 2.04198e-07 0.0855455)
(-8.40248e-06 4.64167e-07 0.06788)
(7.78549e-06 -7.43938e-06 0.0834348)
(-4.53864e-06 7.45895e-06 0.0679981)
(-7.26489e-06 4.72539e-06 0.0680036)
(4.63071e-06 -7.08206e-06 0.067906)
(7.34024e-06 -4.41393e-06 0.0679112)
(-7.76396e-06 8.08348e-06 0.0835123)
(1.95296e-05 -9.98567e-06 0.0918988)
(-8.37733e-06 5.44553e-06 0.0812959)
(9.45675e-06 -7.65877e-06 0.0873909)
(-2.64505e-05 1.23254e-05 0.0970911)
(8.51856e-06 -5.04741e-06 0.0812089)
(2.64338e-05 -1.29048e-05 0.0969961)
(-2.00792e-05 1.03556e-05 0.0919873)
(1.03732e-05 -1.9102e-05 0.0919062)
(-4.99371e-06 8.63128e-06 0.0813007)
(8.215e-06 -9.18007e-06 0.0873916)
(-1.19185e-05 2.69818e-05 0.0970959)
(1.34396e-05 -2.61083e-05 0.0969997)
(5.48418e-06 -8.21417e-06 0.0812129)
(-1.00191e-05 2.05843e-05 0.0919952)
(4.31042e-06 -8.24703e-06 0.070869)
(1.01833e-06 -1.46257e-05 0.0817978)
(-6.80291e-07 9.29911e-07 0.112641)
(-1.34657e-06 1.71342e-06 0.111842)
(-7.14705e-07 -2.45814e-07 0.11264)
(9.39221e-06 -1.91931e-05 0.093343)
(-9.27947e-06 5.88774e-05 0.100776)
(1.1375e-05 -6.03431e-05 0.100654)
(6.28244e-05 2.0544e-06 0.104557)
(2.48841e-05 8.40965e-07 0.0998526)
(-2.63357e-05 -2.54742e-06 0.0987537)
(-6.60318e-05 9.06293e-08 0.10557)
(2.41917e-05 2.08107e-06 0.0986264)
(6.32048e-05 4.03914e-07 0.105391)
(-6.64012e-05 -1.71702e-06 0.104774)
(6.35505e-05 6.41848e-06 0.102834)
(-2.42367e-05 -5.95076e-06 0.0964473)
(2.27926e-05 4.65413e-06 0.0963197)
(-6.53249e-05 -5.5931e-06 0.103036)
(6.2629e-05 -1.67562e-06 0.104548)
(2.46844e-05 -2.47181e-07 0.0998502)
(-6.59499e-05 6.31912e-07 0.105559)
(-2.63461e-05 3.02448e-06 0.0987532)
(6.30425e-05 2.77501e-07 0.105381)
(2.40995e-05 -1.6539e-06 0.0986274)
(-6.63585e-05 2.26096e-06 0.104762)
(6.36557e-05 -5.90756e-06 0.102831)
(-2.41225e-05 6.45504e-06 0.0964491)
(1.92996e-05 -8.7184e-06 0.0933444)
(-5.86158e-05 9.89542e-06 0.100773)
(2.2912e-05 -4.07577e-06 0.0963231)
(-6.51225e-05 6.07452e-06 0.103031)
(6.05394e-05 -1.0752e-05 0.100652)
(2.3939e-05 -2.35359e-05 0.0983821)
(5.27399e-05 -5.23079e-05 0.105949)
(-2.82887e-05 5.22775e-05 0.10291)
(-5.18468e-05 2.87859e-05 0.102914)
(5.1609e-05 -2.76075e-05 0.102771)
(2.80409e-05 -5.11837e-05 0.102767)
(-2.50115e-05 2.54966e-05 0.0984988)
(-1.65981e-06 -1.32488e-06 0.111844)
(-1.28206e-06 2.08263e-06 0.108954)
(1.71864e-06 -8.94083e-07 0.108965)
(-5.25088e-05 -5.21401e-05 0.105954)
(-1.31945e-06 -1.12068e-06 0.111843)
(-1.2254e-06 2.31832e-06 0.108953)
(2.13553e-06 -9.28868e-07 0.108964)
(-5.22545e-05 -5.23926e-05 0.105951)
(5.22318e-05 5.24362e-05 0.105955)
(-5.65579e-05 -5.6399e-05 0.106178)
(2.02344e-06 1.33073e-06 0.108961)
(-1.94756e-06 1.3712e-06 0.108956)
(2.38411e-06 1.33656e-06 0.108959)
(-2.02259e-06 1.38274e-06 0.108955)
(-5.23487e-05 5.21424e-05 0.105943)
(5.68383e-05 -5.65276e-05 0.106169)
(8.96e-07 2.31185e-06 0.108969)
(1.02286e-06 -1.7648e-06 0.108963)
(1.18573e-06 2.46861e-06 0.108967)
(1.50183e-06 -2.19413e-06 0.108962)
(-1.24068e-06 -1.94648e-06 0.108962)
(-1.13346e-06 2.22082e-06 0.108952)
(-1.57456e-06 -2.42163e-06 0.108962)
(5.23368e-05 -5.22105e-05 0.105951)
(-5.69058e-05 5.7121e-05 0.106177)
(-2.126e-06 -8.31538e-07 0.108967)
(2.43499e-06 -1.27166e-06 0.108964)
(-2.5616e-06 -1.34558e-06 0.108966)
(5.67038e-05 5.65948e-05 0.106177)
(5.24208e-05 5.25802e-05 0.105952)
(2.41844e-06 1.5741e-06 0.108959)
(-1.89629e-06 1.62904e-06 0.108956)
(-5.22716e-05 5.25597e-05 0.105943)
(1.2108e-06 2.54383e-06 0.108967)
(1.31129e-06 -1.80455e-06 0.108961)
(-1.29493e-06 -2.02589e-06 0.10896)
(5.25973e-05 -5.23288e-05 0.105949)
(-2.08496e-06 -1.15749e-06 0.108966)
(-2.5987e-07 -1.87204e-05 0.0917812)
(7.08364e-07 1.47477e-05 0.0818087)
(-1.72966e-06 -1.43897e-05 0.0818907)
(5.23311e-07 1.68565e-05 0.091699)
(-3.73932e-06 8.40397e-06 0.0708646)
(4.38695e-06 -7.90108e-06 0.0709595)
(-1.89069e-05 -1.18045e-07 0.0917407)
(1.45565e-05 9.05594e-07 0.0817922)
(-1.46326e-05 -1.64081e-06 0.0818748)
(1.68679e-05 3.49465e-07 0.0916576)
(1.61081e-06 -1.52325e-06 0.111839)
(-1.766e-06 1.76543e-06 0.111843)
(1.31853e-06 1.67645e-06 0.111844)
(-1.4454e-06 -1.24767e-06 0.111843)
(1.64244e-06 -1.4879e-06 0.111838)
(-1.5236e-06 1.68316e-06 0.111843)
(1.3097e-06 1.50792e-06 0.111844)
(2.60237e-05 -6.55263e-07 0.0999568)
(-1.95679e-05 8.94932e-06 0.0933442)
(-1.11857e-06 -2.8289e-07 0.110743)
(-1.18175e-06 2.17249e-06 0.108953)
(1.77782e-05 -9.82145e-06 0.0934506)
(-1.36928e-06 -2.46627e-07 0.110743)
(-2.49791e-05 4.887e-07 0.0998416)
(8.40609e-06 -3.80844e-06 0.0708687)
(-8.13457e-06 4.28404e-06 0.0709591)
(-7.39065e-07 2.6467e-05 0.0999571)
(-2.71411e-07 -7.92476e-07 0.110754)
(8.96168e-06 -1.93917e-05 0.0933416)
(2.22164e-06 -1.2013e-06 0.108964)
(-1.6242e-07 -1.15267e-06 0.110753)
(-9.96798e-06 1.80628e-05 0.0934475)
(5.68625e-07 -2.51365e-05 0.0998411)
(-9.41914e-06 -7.92703e-06 0.087387)
(-7.78112e-06 -9.59989e-06 0.0873804)
(5.65037e-05 5.67744e-05 0.106178)
(8.88218e-06 7.5789e-06 0.0874762)
(7.71254e-06 8.76066e-06 0.0874684)
(4.48754e-07 1.4884e-05 0.0818085)
(4.68538e-07 1.71238e-05 0.0916991)
(-3.41577e-06 8.58781e-06 0.0708658)
(1.44421e-05 1.05169e-06 0.0817945)
(1.68086e-05 4.35097e-07 0.0916603)
(1.62306e-06 -1.33266e-06 0.111839)
(-1.43239e-06 1.7087e-06 0.111843)
(1.31339e-06 1.49693e-06 0.111843)
(2.63343e-05 -5.95132e-07 0.0999581)
(-1.9328e-05 9.24526e-06 0.0933447)
(-1.06778e-06 -7.87024e-08 0.110743)
(-2.46048e-05 6.27036e-07 0.0998432)
(-1.28002e-06 -1.23609e-07 0.110742)
(8.466e-06 -3.75713e-06 0.0708716)
(-5.61652e-07 2.64068e-05 0.099959)
(-4.9228e-08 -7.84549e-07 0.110754)
(9.27723e-06 -1.9431e-05 0.0933426)
(7.66138e-07 -2.51395e-05 0.0998432)
(-9.18575e-09 -1.25807e-06 0.110753)
(-9.49942e-06 -8.1713e-06 0.0873875)
(-8.04253e-06 -9.62576e-06 0.0873812)
(5.67767e-05 5.66727e-05 0.106177)
(8.95027e-06 7.63577e-06 0.0874766)
(7.70178e-06 8.80504e-06 0.0874694)
(3.84085e-06 8.43106e-06 0.0708695)
(-4.05913e-06 -8.25436e-06 0.0709607)
(8.27056e-06 4.04439e-06 0.0708649)
(-8.40258e-06 -3.92533e-06 0.070956)
(7.68802e-06 9.51922e-06 0.0873888)
(9.29029e-06 7.95736e-06 0.0873857)
(-5.67132e-05 -5.6571e-05 0.106179)
(-7.72309e-06 -8.81052e-06 0.0874783)
(-9.14546e-06 -7.53507e-06 0.0874749)
(-4.32133e-06 -8.12155e-06 0.0709607)
(3.99024e-06 8.36743e-06 0.0708697)
(-8.35137e-06 -3.78495e-06 0.070957)
(8.24995e-06 4.11279e-06 0.0708662)
(5.23717e-05 5.24407e-05 0.105953)
(-7.70018e-06 -8.66774e-06 0.087478)
(-9.24388e-06 -7.53308e-06 0.0874759)
(7.86002e-06 9.57101e-06 0.0873884)
(9.24655e-06 8.00505e-06 0.0873867)
(6.50561e-07 -1.85361e-05 0.0917758)
(-3.73283e-07 1.49201e-05 0.0817995)
(2.25973e-06 -1.40085e-05 0.0818836)
(5.59966e-08 1.6922e-05 0.0916943)
(-3.85792e-07 -2.61522e-05 0.0999467)
(8.91715e-06 1.92238e-05 0.0933455)
(-2.08055e-07 1.5584e-06 0.110734)
(2.14173e-06 1.1592e-06 0.108961)
(-9.82261e-06 -1.80838e-05 0.0934518)
(-1.29519e-07 1.41956e-06 0.110733)
(6.06898e-07 2.49385e-05 0.0998346)
(1.12742e-06 -2.62364e-05 0.099948)
(-8.84853e-06 1.95376e-05 0.0933382)
(3.16289e-07 1.53717e-06 0.110736)
(-2.04267e-06 1.23977e-06 0.108956)
(1.02137e-05 -1.79028e-05 0.0934461)
(3.71728e-07 1.40829e-06 0.110736)
(-2.27254e-07 2.48292e-05 0.0998353)
(2.52148e-07 1.7024e-05 0.0916996)
(-2.02608e-06 -1.42383e-05 0.0818904)
(8.72904e-07 1.47339e-05 0.0818085)
(-1.58164e-07 -1.85443e-05 0.0917808)
(2.52395e-07 1.71388e-05 0.0916943)
(2.38141e-06 -1.39961e-05 0.0818841)
(-2.65497e-07 1.50558e-05 0.0818001)
(1.04549e-06 -1.84004e-05 0.0917754)
(9.12437e-07 2.51468e-05 0.0998332)
(2.22467e-06 1.5343e-06 0.10896)
(-9.86684e-06 -1.80208e-05 0.093452)
(3.57688e-08 1.50619e-06 0.110732)
(9.14178e-06 1.9341e-05 0.0933457)
(-5.03908e-08 1.76936e-06 0.110733)
(-3.51156e-07 -2.61568e-05 0.0999457)
(-1.09615e-07 2.50867e-05 0.0998347)
(-1.94499e-06 1.53077e-06 0.108956)
(1.03438e-05 -1.78373e-05 0.0934468)
(4.4735e-07 1.51184e-06 0.110735)
(-8.69417e-06 1.95653e-05 0.0933387)
(4.47154e-07 1.65995e-06 0.110736)
(1.12703e-06 -2.58834e-05 0.0999473)
(-7.6481e-06 9.58241e-06 0.0873823)
(-9.58643e-06 7.77734e-06 0.0873967)
(5.68267e-05 -5.66658e-05 0.106169)
(7.94747e-06 -8.65371e-06 0.0874732)
(8.78647e-06 -7.52695e-06 0.0874858)
(-8.39379e-06 3.90958e-06 0.0708755)
(8.21003e-06 -3.97835e-06 0.0709666)
(4.47592e-06 -7.87995e-06 0.07096)
(-3.59054e-06 8.57282e-06 0.0708651)
(-5.22943e-05 5.2453e-05 0.105943)
(8.05043e-06 -8.54237e-06 0.0874741)
(9.01636e-06 -7.4117e-06 0.0874865)
(-7.59493e-06 9.68582e-06 0.0873831)
(-9.55179e-06 8.07265e-06 0.0873971)
(8.31764e-06 -3.91966e-06 0.070967)
(-8.31514e-06 4.06927e-06 0.0708758)
(-2.6657e-05 -5.5291e-07 0.0999686)
(1.91008e-05 9.03155e-06 0.0933411)
(8.94388e-07 1.34262e-07 0.110758)
(9.5778e-07 2.42531e-06 0.108968)
(-1.84264e-05 -9.89242e-06 0.0934471)
(1.26583e-06 1.32817e-07 0.110757)
(2.50335e-05 6.19919e-07 0.0998543)
(-1.888e-05 6.02348e-07 0.0917507)
(1.46177e-05 -4.95427e-07 0.081799)
(-1.44306e-05 1.98813e-06 0.0818809)
(1.68767e-05 -1.59822e-07 0.0916677)
(-2.6414e-05 9.59639e-07 0.0999648)
(9.06784e-07 3.38939e-07 0.110752)
(1.92189e-05 -8.86538e-06 0.0933426)
(1.3051e-06 -2.1846e-06 0.108962)
(1.28349e-06 3.11825e-07 0.110751)
(-1.83032e-05 1.01273e-05 0.0934475)
(2.47693e-05 -3.85806e-07 0.0998509)
(1.68691e-05 4.27802e-07 0.0916587)
(-1.46455e-05 -1.54097e-06 0.081876)
(1.44957e-05 9.87579e-07 0.0817932)
(-1.89545e-05 -5.32127e-08 0.091742)
(2.46438e-05 6.77443e-07 0.0998539)
(1.07457e-06 2.49082e-06 0.108968)
(-1.84336e-05 -9.80527e-06 0.0934476)
(1.46817e-06 1.03937e-07 0.110757)
(1.9002e-05 9.12324e-06 0.0933417)
(1.02223e-06 1.60554e-07 0.110757)
(-2.64773e-05 -4.73195e-07 0.0999676)
(1.67819e-05 3.39832e-08 0.0916693)
(-1.43969e-05 2.03438e-06 0.0818821)
(1.46328e-05 -5.98922e-07 0.0817998)
(-1.89737e-05 5.14479e-07 0.0917524)
(2.47793e-05 -3.88555e-07 0.0998507)
(1.16472e-06 -1.86978e-06 0.108962)
(1.48844e-06 3.88529e-07 0.11075)
(-1.81099e-05 1.01373e-05 0.0934483)
(1.03273e-06 3.77226e-07 0.110751)
(1.9156e-05 -8.89358e-06 0.0933432)
(-2.65748e-05 1.10136e-06 0.099964)
(1.84515e-05 -6.07716e-08 0.0917458)
(-1.4844e-05 6.27644e-07 0.0818039)
(1.42109e-05 -1.9282e-06 0.0818867)
(-1.70544e-05 2.6776e-07 0.0916622)
(2.61637e-05 6.02026e-07 0.0999557)
(-1.2516e-06 1.00217e-07 0.110746)
(-1.94035e-05 -9.00576e-06 0.0933409)
(-1.55348e-06 -2.41178e-06 0.108963)
(-1.51053e-06 1.71494e-08 0.110745)
(1.7901e-05 9.81102e-06 0.0934469)
(-2.52359e-05 -6.18581e-07 0.0998419)
(1.84347e-05 5.94054e-07 0.0917481)
(-1.47939e-05 -5.20249e-07 0.0817979)
(1.42879e-05 1.97319e-06 0.0818807)
(-1.72208e-05 -1.22922e-07 0.0916652)
(-2.51914e-05 5.82429e-07 0.0998423)
(-1.25386e-06 2.20631e-06 0.108953)
(1.80553e-05 -9.75427e-06 0.0934508)
(-1.34595e-06 -2.30418e-07 0.110742)
(-1.95112e-05 9.18178e-06 0.0933443)
(-1.09436e-06 -2.00669e-07 0.110742)
(2.65239e-05 -6.22132e-07 0.0999571)
(-1.72359e-05 2.98585e-07 0.0916627)
(1.43578e-05 -1.80634e-06 0.081887)
(-1.47994e-05 7.96058e-07 0.0818041)
(1.85489e-05 -2.38155e-08 0.0917463)
(-2.50041e-05 -6.93044e-07 0.0998422)
(-1.30666e-06 -2.03039e-06 0.108961)
(-1.47867e-06 -4.14289e-08 0.110745)
(1.80447e-05 9.71074e-06 0.0934474)
(-1.28943e-06 4.84952e-09 0.110745)
(-1.94588e-05 -9.23466e-06 0.093341)
(2.62255e-05 7.43547e-07 0.0999563)
(-1.72253e-05 5.17963e-09 0.0916664)
(1.43606e-05 1.73169e-06 0.0818816)
(-1.48072e-05 -7.59726e-07 0.0817991)
(1.86084e-05 7.11892e-07 0.091749)
(9.41688e-06 -7.69894e-06 0.087388)
(7.95604e-06 -9.41907e-06 0.0873889)
(-5.70666e-05 5.72299e-05 0.106177)
(-8.94286e-06 7.74685e-06 0.0874756)
(-7.55486e-06 8.9845e-06 0.0874778)
(4.00085e-06 -8.29963e-06 0.0708661)
(-4.07178e-06 8.22068e-06 0.0709569)
(-8.16663e-06 4.22646e-06 0.0709608)
(8.33298e-06 -3.78155e-06 0.0708703)
(5.23457e-05 -5.22571e-05 0.10595)
(-8.93156e-06 7.77864e-06 0.0874765)
(-7.49326e-06 9.04014e-06 0.0874788)
(9.46749e-06 -7.84108e-06 0.0873892)
(8.00533e-06 -9.36982e-06 0.0873898)
(-3.99998e-06 8.31989e-06 0.0709587)
(3.94209e-06 -8.32214e-06 0.0708674)
(6.16582e-07 2.62607e-05 0.0999568)
(-1.64511e-07 -9.32349e-07 0.110755)
(-9.10002e-06 -1.95673e-05 0.093338)
(-2.55215e-06 -1.18954e-06 0.108967)
(-2.2467e-07 -1.23153e-06 0.110754)
(9.99213e-06 1.7882e-05 0.0934438)
(-5.5976e-07 -2.49592e-05 0.0998408)
(-1.67557e-07 1.84389e-05 0.0917297)
(6.87905e-07 -1.4721e-05 0.0817951)
(-1.97445e-06 1.43238e-05 0.0818772)
(3.48094e-07 -1.71979e-05 0.0916463)
(6.14955e-07 1.84988e-05 0.0917311)
(-5.13199e-07 -1.4863e-05 0.0817903)
(2.14017e-06 1.42898e-05 0.0818729)
(-1.65626e-08 -1.71775e-05 0.0916459)
(6.68028e-07 -2.50036e-05 0.099842)
(2.02525e-06 -8.95026e-07 0.108964)
(-1.20424e-07 -1.14382e-06 0.110753)
(-9.77743e-06 1.80347e-05 0.0934479)
(-1.29534e-07 -6.3764e-07 0.110753)
(9.04588e-06 -1.93603e-05 0.0933423)
(-6.46428e-07 2.62046e-05 0.0999581)
(-7.13453e-07 -2.51995e-05 0.0998418)
(-2.14999e-06 -1.04575e-06 0.108966)
(-1.26984e-07 -1.23924e-06 0.110754)
(9.99209e-06 1.79676e-05 0.0934439)
(-1.65245e-07 -8.94705e-07 0.110754)
(-9.01247e-06 -1.94872e-05 0.0933381)
(7.05726e-07 2.61103e-05 0.0999575)
(5.25795e-07 -1.72486e-05 0.091646)
(-1.89512e-06 1.4369e-05 0.0818783)
(6.66575e-07 -1.47879e-05 0.0817961)
(8.80075e-09 1.86193e-05 0.0917299)
(1.12824e-07 -1.72695e-05 0.0916462)
(2.08245e-06 1.42667e-05 0.0818742)
(-5.31219e-07 -1.48025e-05 0.0817915)
(5.21018e-07 1.8613e-05 0.0917319)
(-8.38541e-06 -3.89198e-06 0.0708672)
(8.14688e-06 4.02616e-06 0.0709586)
(-3.89717e-06 -8.35779e-06 0.0708598)
(4.19006e-06 8.18723e-06 0.0709507)
(-5.24035e-05 -5.23369e-05 0.105952)
(8.87471e-06 7.38919e-06 0.0874762)
(7.62212e-06 8.77528e-06 0.0874691)
(-9.49816e-06 -8.08241e-06 0.0873876)
(-7.93172e-06 -9.54995e-06 0.0873807)
(8.38229e-06 3.85305e-06 0.0709596)
(-8.33286e-06 -4.11298e-06 0.0708686)
(4.17679e-06 8.13741e-06 0.0709518)
(-3.88706e-06 -8.42785e-06 0.0708609)
(3.6998e-06 8.52158e-06 0.07087)
(8.16605e-06 4.2382e-06 0.0708673)
(7.74772e-06 9.63823e-06 0.0873882)
(9.22092e-06 8.0729e-06 0.0873876)
(-9.75211e-08 1.50801e-05 0.0818006)
(5.79191e-07 1.72891e-05 0.0916942)
(9.08114e-06 1.95185e-05 0.0933456)
(1.06166e-07 1.7143e-06 0.110732)
(8.44498e-07 2.48642e-05 0.0998327)
(-8.53904e-06 1.96855e-05 0.0933394)
(4.97673e-07 1.7268e-06 0.110735)
(-1.02575e-07 2.51308e-05 0.0998342)
(-7.45159e-06 9.8055e-06 0.0873838)
(-9.32567e-06 8.11433e-06 0.0873978)
(-8.23405e-06 4.13424e-06 0.0708764)
(1.9075e-05 9.2396e-06 0.0933422)
(1.26391e-06 2.21114e-07 0.110756)
(2.49049e-05 7.97739e-07 0.099853)
(1.4733e-05 -5.00877e-07 0.0818011)
(1.67717e-05 -9.23796e-09 0.0916711)
(1.21588e-06 4.21105e-07 0.11075)
(1.92693e-05 -8.7599e-06 0.0933439)
(2.48148e-05 -2.47648e-07 0.0998502)
(1.87326e-05 7.6626e-08 0.0917464)
(-1.46176e-05 8.74571e-07 0.0818046)
(-1.71639e-05 4.64201e-07 0.0916631)
(2.61875e-05 7.94461e-07 0.0999569)
(-1.23348e-06 -4.93325e-08 0.110745)
(-1.94598e-05 -9.29951e-06 0.0933415)
(-1.65847e-06 -2.39527e-06 0.10896)
(-2.49851e-05 -5.51084e-07 0.0998428)
(-1.47312e-06 -2.73248e-08 0.110744)
(1.79881e-05 9.79093e-06 0.0934478)
(1.86829e-05 7.11882e-07 0.0917507)
(-1.47392e-05 -8.34459e-07 0.0818)
(-1.71412e-05 1.85327e-07 0.0916677)
(1.44093e-05 1.86958e-06 0.0818827)
(9.49586e-06 -7.7429e-06 0.0873903)
(8.06314e-06 -9.30175e-06 0.087391)
(4.16767e-06 -8.29639e-06 0.0708688)
(8.07916e-07 2.65052e-05 0.0999584)
(-6.2826e-08 -9.79928e-07 0.110754)
(-9.10755e-06 -1.95438e-05 0.0933382)
(-2.51125e-06 -1.54307e-06 0.108965)
(-5.21992e-07 -2.50432e-05 0.0998426)
(-3.91571e-08 -1.34524e-06 0.110753)
(9.99174e-06 1.79237e-05 0.0934441)
(-2.32024e-07 1.88137e-05 0.0917315)
(8.4274e-07 -1.46874e-05 0.0817972)
(6.47854e-07 -1.71126e-05 0.0916468)
(5.83968e-07 1.87634e-05 0.0917336)
(-6.39426e-07 -1.48513e-05 0.0817927)
(8.01328e-09 -1.71606e-05 0.0916476)
(2.04245e-06 1.42539e-05 0.081875)
(-8.21178e-06 -4.16574e-06 0.0708695)
(8.20564e-06 4.01056e-06 0.07096)
(-3.97386e-06 -8.37935e-06 0.0708619)
(4.18207e-06 8.18104e-06 0.0709523)
(-1.49257e-07 8.62006e-06 0.0763567)
(2.02087e-07 -8.52744e-06 0.078251)
(-1.06755e-06 -1.79316e-05 0.0900802)
(2.86277e-07 1.69417e-05 0.0916994)
(1.61307e-07 8.2338e-06 0.078181)
(9.3317e-07 1.61382e-05 0.0899919)
(4.19969e-07 -8.63688e-06 0.0764362)
(-7.66348e-08 -8.30702e-06 0.067899)
(-1.77218e-06 -1.43527e-05 0.0818909)
(3.03188e-07 1.32245e-05 0.0855616)
(-1.34384e-06 -1.39512e-05 0.0856531)
(-6.06398e-07 8.2888e-06 0.0678001)
(-5.28593e-07 8.38967e-06 0.0678001)
(-1.30613e-06 -1.39342e-05 0.0856532)
(8.11042e-07 1.47786e-05 0.0818087)
(4.48331e-07 1.33071e-05 0.0855618)
(-9.21816e-08 -8.29638e-06 0.0678989)
(5.40279e-07 -8.69783e-06 0.0764359)
(-1.43919e-07 -1.86781e-05 0.0917808)
(3.36234e-07 8.32485e-06 0.0781801)
(1.07002e-06 1.60885e-05 0.0899912)
(2.72116e-07 -8.51749e-06 0.0782504)
(-9.87093e-07 -1.78772e-05 0.0900797)
(-9.10449e-09 8.47448e-06 0.0763562)
(4.29223e-06 -7.91807e-06 0.0709593)
(-3.58899e-06 8.62526e-06 0.0708648)
(8.35363e-06 -2.3106e-07 0.0763024)
(-1.81256e-05 -1.1636e-06 0.0900405)
(-8.62492e-06 1.00351e-07 0.0781932)
(1.68891e-05 3.83293e-07 0.0916582)
(1.60369e-05 8.14021e-07 0.0899514)
(8.2519e-06 6.87078e-08 0.0781231)
(-8.89799e-06 3.7661e-07 0.0763819)
(-8.40739e-06 -1.41597e-07 0.0678658)
(-1.45804e-05 -1.64339e-06 0.0818742)
(1.31374e-05 2.39282e-07 0.0855321)
(-1.41308e-05 -1.50198e-06 0.0856242)
(8.27021e-06 -6.68e-07 0.0677666)
(8.32093e-06 -6.26667e-07 0.0677676)
(-1.41495e-05 -1.41679e-06 0.0856248)
(1.45194e-05 9.98637e-07 0.0817927)
(1.31206e-05 2.85469e-07 0.085533)
(-8.48094e-06 -7.24998e-08 0.0678667)
(-8.9449e-06 3.14757e-07 0.0763809)
(-1.88536e-05 -1.60489e-07 0.0917403)
(1.60991e-05 7.93972e-07 0.0899508)
(8.33844e-06 5.0103e-08 0.0781219)
(-1.80438e-05 -1.18699e-06 0.09004)
(-8.51131e-06 6.40273e-08 0.0781919)
(8.38155e-06 -3.20711e-07 0.0763014)
(-8.11458e-06 4.28852e-06 0.0709584)
(8.44339e-06 -3.80717e-06 0.0708694)
(-7.46541e-06 -7.91485e-06 0.0834281)
(4.60452e-06 7.1443e-06 0.0679977)
(7.49554e-06 4.38812e-06 0.0679901)
(-4.50971e-06 -7.46334e-06 0.0679057)
(-7.06556e-06 -4.78404e-06 0.0678983)
(8.02977e-06 7.64047e-06 0.0835049)
(2.02922e-05 1.00526e-05 0.0919909)
(-2.63731e-05 -1.31798e-05 0.0969965)
(8.89074e-06 7.60938e-06 0.0874759)
(-8.36663e-06 -5.32461e-06 0.0812068)
(2.63616e-05 1.19569e-05 0.0970935)
(8.46833e-06 5.0778e-06 0.0812952)
(-1.92835e-05 -1.02464e-05 0.0919015)
(1.02155e-05 2.00338e-05 0.0919812)
(-1.31521e-05 -2.6265e-05 0.0969936)
(7.77918e-06 8.73791e-06 0.0874683)
(-4.98621e-06 -8.55003e-06 0.0811997)
(1.21247e-05 2.64629e-05 0.0970907)
(5.42897e-06 8.31258e-06 0.0812867)
(-1.02036e-05 -1.95496e-05 0.0918927)
(-1.9442e-05 -1.04063e-05 0.0919017)
(8.43746e-06 5.06424e-06 0.0812956)
(-9.48394e-06 -7.96295e-06 0.0873878)
(2.66939e-05 1.21568e-05 0.0970932)
(-2.64133e-05 -1.32682e-05 0.0969967)
(-8.38867e-06 -5.41178e-06 0.0812073)
(2.01856e-05 9.9721e-06 0.0919909)
(-1.01709e-05 -1.95557e-05 0.0918926)
(5.36324e-06 8.28465e-06 0.0812867)
(-7.88677e-06 -9.61148e-06 0.0873807)
(1.20822e-05 2.63202e-05 0.0970905)
(-1.32364e-05 -2.6452e-05 0.0969941)
(-5.11464e-06 -8.5762e-06 0.0811998)
(1.02274e-05 1.99992e-05 0.0919813)
(8.07401e-06 7.6143e-06 0.0835048)
(-4.48328e-06 -7.37159e-06 0.0679054)
(-7.00923e-06 -4.79998e-06 0.0678982)
(4.68381e-06 7.15136e-06 0.0679976)
(7.53294e-06 4.39047e-06 0.06799)
(-7.41423e-06 -7.88073e-06 0.083428)
(-6.12349e-07 -8.15327e-06 0.0678979)
(-2.34179e-09 1.35484e-05 0.0855622)
(-2.16445e-06 -1.41267e-05 0.0818906)
(-1.015e-06 8.49345e-06 0.0677993)
(-1.83836e-06 -1.35661e-05 0.0856537)
(4.80016e-08 -8.60034e-06 0.0764357)
(-5.91266e-08 -1.83197e-05 0.0917803)
(4.28809e-07 8.26337e-06 0.0781814)
(6.40859e-07 1.63609e-05 0.0899934)
(-4.24343e-07 8.66182e-06 0.0763566)
(4.30465e-07 -8.51642e-06 0.0782507)
(-1.44385e-06 -1.75812e-05 0.0900817)
(4.52694e-06 -7.83429e-06 0.0709601)
(-8.3752e-06 7.29196e-08 0.0678693)
(1.30283e-05 4.07263e-07 0.0855351)
(-1.46568e-05 -1.54907e-06 0.0818766)
(8.30354e-06 -4.2703e-07 0.0677701)
(-1.42277e-05 -1.36913e-06 0.0856271)
(-8.80065e-06 4.87965e-07 0.0763852)
(-1.89515e-05 -8.75968e-08 0.0917431)
(1.60536e-05 9.74956e-07 0.0899537)
(8.22515e-06 1.19941e-07 0.0781272)
(8.42106e-06 -5.70149e-08 0.0763054)
(-1.80496e-05 -9.87159e-07 0.0900425)
(-8.46096e-06 9.41892e-08 0.0781973)
(-8.03447e-06 4.3022e-06 0.0709613)
(-7.68459e-06 -7.774e-06 0.0834273)
(4.61728e-06 7.29178e-06 0.0679974)
(7.36661e-06 4.57624e-06 0.0679893)
(-4.53355e-06 -7.33681e-06 0.0679053)
(-7.24815e-06 -4.5925e-06 0.0678976)
(7.84813e-06 7.76123e-06 0.0835042)
(2.0193e-05 9.91165e-06 0.0919909)
(-2.64542e-05 -1.33817e-05 0.0969969)
(-8.48213e-06 -5.35771e-06 0.0812078)
(8.89903e-06 7.44096e-06 0.0874763)
(-1.94379e-05 -1.04482e-05 0.0919015)
(2.64396e-05 1.19033e-05 0.0970941)
(8.39403e-06 5.11325e-06 0.0812958)
(1.01872e-05 2.00214e-05 0.0919819)
(-1.31038e-05 -2.64605e-05 0.0969934)
(-5.34673e-06 -8.76933e-06 0.0811992)
(7.56563e-06 8.6969e-06 0.0874692)
(-1.02069e-05 -1.96056e-05 0.0918931)
(1.21691e-05 2.63582e-05 0.0970904)
(5.21964e-06 8.17184e-06 0.0812861)
(7.85846e-06 7.73698e-06 0.0835044)
(-4.53323e-06 -7.32538e-06 0.0679054)
(-7.23339e-06 -4.62271e-06 0.0678977)
(-7.69889e-06 -7.78314e-06 0.0834275)
(4.6576e-06 7.2447e-06 0.0679975)
(7.34876e-06 4.57643e-06 0.0679894)
(-1.94141e-05 -1.03882e-05 0.0919017)
(8.39561e-06 5.20366e-06 0.0812959)
(-9.46993e-06 -8.03705e-06 0.0873879)
(2.63394e-05 1.19497e-05 0.0970942)
(-2.64813e-05 -1.33603e-05 0.0969978)
(-8.45345e-06 -5.30599e-06 0.0812078)
(2.01798e-05 1.00054e-05 0.0919913)
(-1.02056e-05 -1.95677e-05 0.0918933)
(5.28235e-06 8.24619e-06 0.081286)
(-8.01277e-06 -9.62885e-06 0.0873815)
(1.21655e-05 2.62855e-05 0.0970904)
(-1.31958e-05 -2.65936e-05 0.0969941)
(-5.2856e-06 -8.67032e-06 0.0811992)
(1.02406e-05 2.0076e-05 0.0919825)
(-4.13062e-06 -8.24007e-06 0.0709605)
(3.90526e-06 8.35203e-06 0.0708697)
(-8.31512e-06 -3.97397e-06 0.0709554)
(8.21543e-06 4.12975e-06 0.0708654)
(7.50818e-06 7.89861e-06 0.0834305)
(-7.57983e-06 -4.32352e-06 0.0680002)
(-4.74176e-06 -7.11591e-06 0.067994)
(7.02597e-06 4.84162e-06 0.0679071)
(4.4794e-06 7.44503e-06 0.0679012)
(-8.02381e-06 -7.60928e-06 0.0835085)
(-1.02921e-05 -2.01186e-05 0.0919909)
(1.29693e-05 2.6254e-05 0.0969977)
(-7.75021e-06 -8.76928e-06 0.0874785)
(4.95629e-06 8.58253e-06 0.0812086)
(-5.47155e-06 -8.15894e-06 0.0812985)
(-1.23009e-05 -2.66304e-05 0.0970948)
(1.00026e-05 1.94111e-05 0.0919006)
(-2.02783e-05 -1.00785e-05 0.091984)
(2.60603e-05 1.31277e-05 0.0969946)
(-9.09829e-06 -7.59198e-06 0.0874743)
(8.38901e-06 5.3239e-06 0.0812034)
(-8.50808e-06 -5.08147e-06 0.0812921)
(-2.67319e-05 -1.21137e-05 0.0970919)
(1.92539e-05 1.02599e-05 0.0918938)
(1.00818e-05 1.9483e-05 0.0919008)
(-5.47137e-06 -8.14434e-06 0.0812986)
(7.81622e-06 9.60358e-06 0.0873888)
(-1.22121e-05 -2.64378e-05 0.0970946)
(4.94527e-06 8.63466e-06 0.0812089)
(-1.03014e-05 -2.00547e-05 0.0919911)
(1.30798e-05 2.63383e-05 0.0969982)
(1.922e-05 1.02802e-05 0.0918941)
(-8.53556e-06 -5.05815e-06 0.0812924)
(9.26912e-06 8.04822e-06 0.0873865)
(-2.67074e-05 -1.20893e-05 0.0970917)
(8.368e-06 5.40706e-06 0.0812039)
(-2.02339e-05 -1.00467e-05 0.0919844)
(2.61018e-05 1.31964e-05 0.096995)
(-8.04792e-06 -7.695e-06 0.0835083)
(7.03433e-06 4.8061e-06 0.0679069)
(4.55132e-06 7.32606e-06 0.0679011)
(-7.58357e-06 -4.34272e-06 0.0679999)
(-4.70361e-06 -7.16012e-06 0.0679938)
(7.51087e-06 7.77411e-06 0.0834302)
(3.79836e-06 8.49851e-06 0.0708697)
(-4.12513e-06 -8.17597e-06 0.0709605)
(8.22545e-06 4.21815e-06 0.0708667)
(-8.3211e-06 -3.89628e-06 0.0709565)
(-8.05425e-06 -7.57351e-06 0.0835086)
(6.95553e-06 4.88782e-06 0.0679072)
(4.43615e-06 7.54912e-06 0.0679014)
(7.49563e-06 7.98632e-06 0.0834307)
(-7.6279e-06 -4.36739e-06 0.0680002)
(-4.82598e-06 -7.03621e-06 0.0679941)
(1.00009e-05 1.94599e-05 0.0919012)
(-1.21429e-05 -2.63201e-05 0.0970944)
(7.85475e-06 9.59385e-06 0.0873884)
(-5.47677e-06 -8.09725e-06 0.0812985)
(4.998e-06 8.666e-06 0.0812087)
(1.31925e-05 2.65577e-05 0.0969975)
(-1.03403e-05 -2.00351e-05 0.0919914)
(1.92471e-05 1.035e-05 0.0918944)
(-2.67192e-05 -1.2081e-05 0.0970913)
(9.1523e-06 7.99855e-06 0.0873872)
(-8.60284e-06 -5.06424e-06 0.0812932)
(8.28294e-06 5.36808e-06 0.0812046)
(2.61025e-05 1.32295e-05 0.0969943)
(-2.02592e-05 -1.00194e-05 0.0919847)
(-1.03149e-05 -2.01407e-05 0.0919912)
(4.93642e-06 8.65251e-06 0.0812088)
(1.30258e-05 2.63336e-05 0.0969977)
(-7.64356e-06 -8.70857e-06 0.0874783)
(1.00093e-05 1.9472e-05 0.0919013)
(-5.45726e-06 -8.16436e-06 0.0812986)
(-1.20079e-05 -2.62431e-05 0.0970953)
(-2.02877e-05 -1.00035e-05 0.0919846)
(8.32874e-06 5.40947e-06 0.0812043)
(2.62313e-05 1.32937e-05 0.0969944)
(-9.19014e-06 -7.54643e-06 0.0874757)
(1.93292e-05 1.03508e-05 0.0918948)
(-8.59327e-06 -5.03226e-06 0.0812929)
(-2.66861e-05 -1.20087e-05 0.0970921)
(7.57444e-06 7.96164e-06 0.0834307)
(-7.63904e-06 -4.35043e-06 0.0680005)
(-4.78404e-06 -7.12572e-06 0.0679946)
(6.94304e-06 4.79726e-06 0.0679073)
(4.39017e-06 7.48522e-06 0.0679016)
(-7.99669e-06 -7.59436e-06 0.0835087)
(9.55183e-07 8.62844e-06 0.0763423)
(4.1168e-07 -8.54849e-06 0.0782455)
(1.76968e-06 -1.77237e-05 0.0900658)
(1.515e-07 1.70637e-05 0.0916945)
(4.06821e-07 8.26601e-06 0.0781758)
(-2.81218e-07 1.63251e-05 0.0899786)
(3.66e-07 -8.65084e-06 0.0764211)
(5.99212e-07 -8.22639e-06 0.0678859)
(2.22604e-06 -1.41059e-05 0.0818834)
(2.24431e-07 1.3518e-05 0.0855481)
(2.03308e-06 -1.36542e-05 0.0856389)
(1.08276e-06 8.41714e-06 0.0677874)
(1.15524e-06 8.47747e-06 0.067788)
(2.06623e-06 -1.36212e-05 0.085639)
(-2.43998e-07 1.50511e-05 0.0817999)
(3.49763e-07 1.36459e-05 0.0855484)
(6.87094e-07 -8.20633e-06 0.0678862)
(3.11378e-07 -8.67066e-06 0.0764207)
(5.87043e-07 -1.86037e-05 0.0917758)
(4.02754e-07 8.36373e-06 0.0781751)
(-4.79189e-07 1.62993e-05 0.0899784)
(3.71854e-07 -8.47203e-06 0.078245)
(1.59107e-06 -1.77205e-05 0.0900656)
(9.25721e-07 8.61055e-06 0.0763417)
(3.12223e-07 -8.57847e-06 0.0764364)
(1.67927e-07 8.3917e-06 0.0781814)
(8.94225e-07 1.61631e-05 0.0899928)
(-1.44156e-07 -1.85941e-05 0.0917818)
(-3.0296e-07 8.73944e-06 0.0763568)
(2.42711e-07 -8.32863e-06 0.0782513)
(-1.07279e-06 -1.78355e-05 0.0900811)
(-8.63105e-07 8.50583e-06 0.0677997)
(6.95188e-07 1.48084e-05 0.0818085)
(-1.56748e-06 -1.3723e-05 0.0856536)
(-3.83241e-07 -8.18887e-06 0.0678983)
(3.00676e-07 1.3396e-05 0.0855621)
(-2.56023e-07 -8.16165e-06 0.0678988)
(4.47741e-07 1.33407e-05 0.085562)
(-1.78402e-06 -1.43202e-05 0.0818906)
(-6.64932e-07 8.47049e-06 0.0677998)
(-1.41753e-06 -1.3824e-05 0.0856537)
(-3.69175e-07 8.76764e-06 0.0763568)
(3.14428e-07 1.70896e-05 0.0916999)
(3.40039e-07 -8.52046e-06 0.0782512)
(-1.27958e-06 -1.77573e-05 0.0900815)
(2.24237e-07 -8.56092e-06 0.0764361)
(2.44678e-07 8.39083e-06 0.0781815)
(8.00227e-07 1.62838e-05 0.0899937)
(5.04517e-07 -8.4532e-06 0.0764213)
(5.39054e-07 8.31463e-06 0.0781763)
(-1.46816e-07 1.63731e-05 0.089979)
(7.78545e-07 -1.85244e-05 0.091776)
(1.04148e-06 8.78452e-06 0.0763425)
(5.71986e-07 -8.40078e-06 0.0782458)
(1.85922e-06 -1.76319e-05 0.0900665)
(1.34024e-06 8.53456e-06 0.0677882)
(-1.65996e-07 1.50473e-05 0.0818003)
(2.22461e-06 -1.35455e-05 0.0856397)
(4.13639e-07 1.37083e-05 0.0855486)
(8.70195e-07 -8.1268e-06 0.0678865)
(7.74065e-07 -8.10115e-06 0.0678864)
(3.34429e-07 1.36782e-05 0.0855484)
(2.29653e-06 -1.39712e-05 0.0818839)
(1.24453e-06 8.56578e-06 0.0677879)
(2.07646e-06 -1.3519e-05 0.0856395)
(1.20723e-06 8.82316e-06 0.0763428)
(4.27117e-07 1.72303e-05 0.0916946)
(8.17536e-07 -8.50071e-06 0.078246)
(2.07916e-06 -1.75605e-05 0.0900666)
(6.85367e-07 8.36785e-06 0.0781764)
(-2.74754e-08 1.647e-05 0.0899794)
(6.78814e-07 -8.57855e-06 0.0764216)
(-7.64e-06 7.79749e-06 0.0834331)
(7.56204e-06 -4.34671e-06 0.0679956)
(4.66155e-06 -7.19127e-06 0.0680048)
(-7.07969e-06 4.82617e-06 0.0679023)