/*--------------------------------*- C++ -*----------------------------------*\
| =========                 |                                                 |
| \\      /  F ield         | OpenFOAM: The Open Source CFD Toolbox           |
|  \\    /   O peration     | Version:  2312                                  |
|   \\  /    A nd           | Website:  www.openfoam.com                      |
|    \\/     M anipulation  |                                                 |
\*---------------------------------------------------------------------------*/
FoamFile
{
    version     2.0;
    format      ascii;
    arch        "LSB;label=32;scalar=64";
    class       volScalarField;
    location    "300";
    object      nut;
}
// * * * * * * * * * * * * * * * * * * * * * * * * * * * * * * * * * * * * * //

dimensions      [0 2 -1 0 0 0 0];

internalField   nonuniform List<scalar> 
43496
(
9.98009e-05
2.38385e-05
0.00019621
0.000103379
0.00014299
0.00020424
9.97769e-05
5.06514e-05
0.000142955
0.000196116
0.000204182
0.000103336
0.000178986
7.79081e-05
7.79353e-05
2.38417e-05
5.06567e-05
3.66368e-05
9.97756e-05
9.44969e-05
4.09658e-05
9.44748e-05
4.09641e-05
3.66382e-05
2.02752e-05
7.91447e-05
7.91297e-05
2.02768e-05
2.38372e-05
3.66326e-05
9.97624e-05
4.0964e-05
9.44448e-05
4.09625e-05
9.44243e-05
3.6634e-05
2.0273e-05
7.91036e-05
5.06444e-05
7.90904e-05
2.02745e-05
8.15693e-05
2.1666e-05
2.16694e-05
2.16645e-05
2.16679e-05
8.15789e-05
0.000105094
4.85683e-05
7.7901e-05
0.000128076
4.85684e-05
0.000128041
0.000105115
0.000105093
4.85824e-05
7.79239e-05
0.000128109
0.000128073
4.85812e-05
0.000105114
2.38403e-05
5.06535e-05
0.000193036
0.000198307
0.000192596
0.000103349
0.000146277
0.000146239
0.000168998
0.000142959
0.000136725
0.000174005
0.000136687
0.000173924
0.000168975
0.000158984
0.000122249
0.000122215
0.00015902
0.000168922
0.000142928
0.000173972
0.000136627
0.000173889
0.000136604
0.000168897
0.000158927
0.000122168
0.000103314
0.00014618
0.000122142
0.000158977
0.000146172
0.000137402
0.000178885
0.00015987
0.000159814
0.000159807
0.000159812
0.000137436
0.000197113
0.000195402
0.000195345
0.000178168
0.000198241
0.000196059
0.00019604
0.000178666
0.000178272
0.000178779
0.000195264
0.000195253
0.000195803
0.000195746
0.000178288
0.000178833
0.000195353
0.000195297
0.000195897
0.000195826
0.000195193
0.000195937
0.000195797
0.000178267
0.000178762
0.000195161
0.00019589
0.000195761
0.000178676
0.000178767
0.000195939
0.000195942
0.000178763
0.000196022
0.00019598
0.000195864
0.000178773
0.00019584
9.96677e-05
5.06401e-05
5.06474e-05
9.96155e-05
2.38347e-05
2.38372e-05
9.97106e-05
5.06387e-05
5.06453e-05
9.96569e-05
0.00019686
0.000196905
0.000196691
0.000198065
0.000197657
0.000197821
0.000197768
0.000142759
0.000103228
0.000203163
0.000195562
0.00010329
0.000203375
0.000142606
2.38318e-05
2.38343e-05
0.000142635
0.0002031
0.000103209
0.000195519
0.000203309
0.000103269
0.000142492
7.78442e-05
7.7836e-05
0.000178422
7.78643e-05
7.78562e-05
5.06516e-05
9.97111e-05
2.38391e-05
5.06547e-05
9.9756e-05
0.000198034
0.000198087
0.000197845
0.000143064
0.00010333
0.000204014
0.000142912
0.000204288
2.38362e-05
0.000142883
0.000203955
0.00010332
0.000142777
0.000204233
7.78783e-05
7.7874e-05
0.000178882
7.78969e-05
7.78916e-05
2.3835e-05
2.38376e-05
2.38337e-05
2.38363e-05
7.78695e-05
7.78683e-05
0.000178536
7.78939e-05
7.78896e-05
2.384e-05
2.38374e-05
2.38387e-05
2.38361e-05
0.000178528
7.79167e-05
7.79171e-05
7.7894e-05
7.78934e-05
9.96674e-05
5.06435e-05
5.06461e-05
9.96239e-05
0.000142617
0.000103198
0.00020302
0.000195457
0.00010326
0.000203202
0.000142489
0.000142638
0.000103228
0.00020298
0.00019541
0.000103292
0.000203166
0.000142512
9.96628e-05
5.06526e-05
5.06503e-05
9.97079e-05
9.96697e-05
5.06514e-05
5.06449e-05
9.97115e-05
0.000142646
0.000195611
0.000103326
0.000203643
0.000103261
0.000203477
0.000142755
0.000142644
0.000195609
0.000103347
0.000203607
0.000103287
0.000203441
0.000142764
7.78776e-05
7.78821e-05
0.000178577
7.78988e-05
7.79063e-05
2.38357e-05
2.38382e-05
2.38395e-05
2.38369e-05
0.000178527
7.79271e-05
7.7929e-05
7.79041e-05
7.79062e-05
2.38405e-05
2.3838e-05
0.000142738
0.000103236
0.00020318
0.000195551
0.00010329
0.000203374
0.00014259
9.96971e-05
5.06369e-05
5.06389e-05
9.96433e-05
0.000142707
0.000203126
0.000103202
0.00019546
0.000203325
0.000103247
0.000142594
9.97133e-05
5.06516e-05
5.06479e-05
9.97535e-05
0.000142736
0.0001957
0.000103342
0.00020386
0.000103281
0.000203644
0.000142864
9.96906e-05
5.06439e-05
5.06415e-05
9.97357e-05
0.000142734
0.000195652
0.000203813
0.000103295
0.000203589
0.000103245
0.000142843
9.97018e-05
5.06453e-05
5.06467e-05
9.96459e-05
0.000142761
0.00020304
0.00010321
0.00019541
0.000203302
0.000103274
0.000142621
9.97285e-05
5.06346e-05
5.06428e-05
9.96744e-05
0.000142756
0.000195741
0.000103326
0.000203882
0.000103285
0.000203627
0.0001429
9.96971e-05
5.06525e-05
5.06484e-05
9.97418e-05
0.000142784
0.00019554
0.00020383
0.000103327
0.000203494
0.000103271
0.000142922
9.97247e-05
5.06475e-05
5.06415e-05
9.9775e-05
7.78504e-05
7.78662e-05
0.000178514
7.78669e-05
7.78847e-05
2.38346e-05
2.38372e-05
2.38364e-05
2.38341e-05
0.000178532
7.789e-05
7.79089e-05
7.78696e-05
7.78889e-05
2.38395e-05
2.3837e-05
0.000142615
0.000202966
0.00010317
0.000195373
0.000203229
0.000103213
0.000142485
9.96573e-05
5.06384e-05
5.06456e-05
9.96081e-05
9.96404e-05
5.06291e-05
5.0636e-05
9.95889e-05
0.000142631
0.000195697
0.00020382
0.000103323
0.000203564
0.000103266
0.000142743
0.000142638
0.000195517
0.000203756
0.000103265
0.000203422
0.000103217
0.000142728
9.96518e-05
5.06505e-05
5.06485e-05
9.96945e-05
9.96436e-05
5.06416e-05
5.0635e-05
9.96787e-05
2.38327e-05
2.3835e-05
2.38307e-05
2.38332e-05
0.000178426
7.78787e-05
7.78788e-05
7.78621e-05
7.78575e-05
2.3837e-05
2.38347e-05
2.38354e-05
2.38329e-05
2.38397e-05
2.38384e-05
7.79152e-05
7.79154e-05
5.06495e-05
9.97085e-05
0.000103318
0.00020392
0.000142787
0.000103337
0.000203884
0.000142789
7.79278e-05
7.79267e-05
2.38402e-05
0.000103342
0.000204078
0.000142895
5.06469e-05
9.97393e-05
0.000204018
0.000103293
0.000142836
9.97653e-05
5.06562e-05
9.97448e-05
0.000143098
0.000203908
0.00010332
0.000196088
0.00014295
0.000204205
0.000103376
9.98152e-05
5.06459e-05
9.97788e-05
5.06519e-05
7.78917e-05
7.79131e-05
2.38392e-05
0.000142873
0.000203841
0.000103271
0.000196062
0.000142745
0.000204137
0.000103307
9.9743e-05
5.06528e-05
9.96952e-05
9.97269e-05
5.06397e-05
9.96775e-05
5.0646e-05
2.38367e-05
2.3839e-05
2.38351e-05
2.38374e-05
3.6625e-05
4.09533e-05
9.43855e-05
9.96423e-05
4.09488e-05
9.43595e-05
3.66268e-05
2.027e-05
5.06459e-05
7.907e-05
7.90884e-05
2.02684e-05
2.02694e-05
7.90955e-05
5.06437e-05
7.90792e-05
2.02711e-05
3.66247e-05
9.96458e-05
4.09462e-05
9.43473e-05
4.09512e-05
9.43675e-05
3.6623e-05
2.38361e-05
2.38358e-05
3.6629e-05
9.44196e-05
4.09566e-05
9.96896e-05
9.43988e-05
4.09562e-05
3.66306e-05
2.02719e-05
5.06431e-05
7.90806e-05
7.90977e-05
2.02702e-05
2.02713e-05
7.91076e-05
5.06464e-05
7.90926e-05
2.0273e-05
3.66285e-05
9.96874e-05
9.43721e-05
4.09533e-05
9.44002e-05
4.09531e-05
3.66268e-05
2.38332e-05
2.3833e-05
8.15251e-05
2.16642e-05
2.1661e-05
2.16626e-05
2.16595e-05
8.15349e-05
0.000104976
0.000127821
7.7855e-05
4.85621e-05
0.000127851
4.85654e-05
0.000104955
0.000104998
0.000127806
7.78485e-05
4.85524e-05
0.000127856
4.85535e-05
0.000104979
0.000104975
4.85672e-05
7.78502e-05
0.000127888
0.00012785
4.85638e-05
0.000104998
0.000105005
4.85559e-05
7.7845e-05
0.000127905
0.000127864
4.85556e-05
0.000105027
8.15287e-05
2.16618e-05
2.16586e-05
2.16633e-05
2.16602e-05
8.15194e-05
2.02742e-05
7.91059e-05
5.06563e-05
2.02725e-05
7.91246e-05
3.6633e-05
9.9732e-05
4.09587e-05
9.44124e-05
3.66312e-05
4.09596e-05
9.44409e-05
2.38405e-05
2.02759e-05
7.91184e-05
5.06551e-05
2.02743e-05
7.91373e-05
3.66365e-05
9.97791e-05
9.44476e-05
4.09615e-05
3.66347e-05
9.44774e-05
4.0963e-05
2.38375e-05
8.15447e-05
2.16672e-05
2.16641e-05
2.16657e-05
2.16626e-05
8.15539e-05
0.00010506
0.000127969
4.8572e-05
7.78905e-05
0.000105039
0.000128006
4.85732e-05
0.000105103
0.000128029
4.85622e-05
7.78849e-05
0.000105086
0.000128069
4.85643e-05
8.15503e-05
2.1665e-05
2.16619e-05
8.15415e-05
2.16665e-05
2.16634e-05
0.000105068
4.85769e-05
7.78858e-05
0.000128052
0.000128023
4.85749e-05
0.000105086
0.000105093
4.85658e-05
7.78828e-05
0.000128072
0.000128065
4.85654e-05
0.000105104
2.38364e-05
2.38362e-05
2.38351e-05
2.38349e-05
8.15505e-05
2.1666e-05
2.16628e-05
2.16645e-05
2.16612e-05
8.15598e-05
0.000105031
0.000127848
7.78799e-05
4.85696e-05
4.85707e-05
0.000127894
0.000105003
0.000105029
0.000127846
7.78798e-05
4.8556e-05
4.85585e-05
0.000127895
0.000105007
0.000105024
4.85734e-05
7.78795e-05
0.000127933
4.85719e-05
0.000105051
0.000127899
0.000105026
4.85619e-05
7.78796e-05
0.000127934
4.85601e-05
0.000105044
0.000127896
8.15523e-05
2.16635e-05
2.16602e-05
2.16651e-05
2.16618e-05
8.15432e-05
2.38386e-05
2.38388e-05
2.38373e-05
2.38375e-05
8.15671e-05
2.16654e-05
2.16621e-05
8.15582e-05
2.1667e-05
2.16637e-05
0.00010506
0.000128024
7.79062e-05
4.85786e-05
4.85766e-05
0.000127979
0.000105085
0.000105065
0.000128026
7.79071e-05
4.85659e-05
4.85651e-05
0.000127987
0.000105089
0.00010506
4.85741e-05
0.000127939
7.79029e-05
0.000105046
4.8576e-05
0.000127979
0.000105066
4.85614e-05
0.000127942
7.79066e-05
0.000105045
4.85639e-05
0.000127984
8.15664e-05
2.16679e-05
2.16646e-05
2.16663e-05
2.1663e-05
8.15754e-05
3.66243e-05
4.09539e-05
9.43892e-05
9.96493e-05
4.09512e-05
9.43628e-05
3.6626e-05
2.02704e-05
5.06424e-05
7.9065e-05
7.90812e-05
2.02688e-05
2.02697e-05
7.90877e-05
5.06461e-05
7.90728e-05
2.02713e-05
3.6624e-05
9.96447e-05
4.09491e-05
9.43502e-05
4.09504e-05
9.43705e-05
3.66224e-05
3.66289e-05
4.09532e-05
9.43849e-05
9.96901e-05
3.66272e-05
4.09553e-05
9.44043e-05
2.02715e-05
5.06533e-05
7.91132e-05
2.02732e-05
7.91e-05
2.02721e-05
7.90897e-05
5.06496e-05
2.02704e-05
7.9106e-05
3.66292e-05
9.96873e-05
4.09566e-05
9.44214e-05
3.6631e-05
4.09573e-05
9.43961e-05
3.66281e-05
4.09506e-05
9.4389e-05
9.9692e-05
3.66264e-05
4.09562e-05
9.44091e-05
2.02716e-05
5.06514e-05
7.91043e-05
7.90909e-05
2.02732e-05
2.02723e-05
7.90813e-05
5.06485e-05
2.02706e-05
7.90976e-05
3.66284e-05
9.96854e-05
4.09577e-05
9.44263e-05
4.09532e-05
9.43997e-05
3.66302e-05
8.15624e-05
2.16639e-05
2.16667e-05
2.16623e-05
2.16652e-05
8.1572e-05
0.00010505
0.000127878
7.7888e-05
4.85593e-05
4.85626e-05
0.000127922
0.000105033
0.000105046
0.000127901
7.78936e-05
4.85708e-05
0.000127953
4.8572e-05
0.000105025
0.000105053
4.85648e-05
7.78896e-05
0.000127959
4.85616e-05
0.000127923
0.00010507
0.000105045
4.85745e-05
7.78918e-05
0.000127993
0.000127952
4.85734e-05
0.000105066
8.15641e-05
2.16614e-05
2.16643e-05
2.1663e-05
2.16658e-05
8.15548e-05
2.38371e-05
2.38368e-05
2.38381e-05
2.38383e-05
8.15799e-05
2.16632e-05
2.1666e-05
8.15706e-05
2.16647e-05
2.16676e-05
0.000105092
0.000128064
7.79155e-05
4.85696e-05
0.000128017
4.85671e-05
0.000105117
0.00010509
0.000128085
7.79186e-05
4.85795e-05
4.85783e-05
0.000128043
0.00010511
0.000105093
4.85648e-05
0.000127966
7.79137e-05
0.000128008
0.000105072
4.85671e-05
0.000105089
4.85756e-05
0.000128
7.79171e-05
0.000105068
4.85771e-05
0.00012804
8.15796e-05
2.16656e-05
2.16685e-05
2.1664e-05
2.16669e-05
8.1589e-05
2.38391e-05
2.38394e-05
3.66252e-05
4.09554e-05
9.43841e-05
9.96692e-05
4.09537e-05
9.43661e-05
3.66267e-05
2.02699e-05
5.0636e-05
7.9051e-05
7.90645e-05
2.02683e-05
2.02693e-05
7.90728e-05
5.06351e-05
7.90594e-05
2.02709e-05
3.66249e-05
9.96749e-05
4.09505e-05
9.43496e-05
4.0954e-05
9.43667e-05
3.66234e-05
3.66326e-05
9.44106e-05
4.09586e-05
9.97346e-05
3.66308e-05
9.44398e-05
4.09577e-05
2.02733e-05
5.06479e-05
7.9125e-05
2.0275e-05
7.91104e-05
2.0274e-05
7.91039e-05
5.06491e-05
2.02723e-05
7.91183e-05
3.66328e-05
9.97283e-05
9.44577e-05
4.09607e-05
3.66346e-05
9.44296e-05
4.096e-05
3.66286e-05
4.09571e-05
9.43761e-05
9.97171e-05
3.6627e-05
4.09566e-05
9.44006e-05
2.02711e-05
5.06403e-05
7.90889e-05
7.90733e-05
2.02727e-05
2.02718e-05
7.90658e-05
5.06419e-05
2.02702e-05
7.90818e-05
3.6629e-05
9.97196e-05
4.09601e-05
9.44164e-05
4.09593e-05
9.4399e-05
3.66306e-05
3.66286e-05
9.43858e-05
4.09565e-05
9.96728e-05
9.43689e-05
4.0955e-05
3.663e-05
2.02721e-05
5.06438e-05
7.90686e-05
7.9082e-05
2.02704e-05
2.02713e-05
7.90869e-05
5.06483e-05
7.90763e-05
2.0273e-05
3.66282e-05
9.96767e-05
9.43523e-05
4.09528e-05
9.43707e-05
4.09542e-05
3.66267e-05
3.66276e-05
4.09584e-05
9.44135e-05
9.9698e-05
4.09567e-05
9.4377e-05
3.66293e-05
2.02709e-05
5.06395e-05
7.90519e-05
7.90687e-05
2.02693e-05
2.02702e-05
7.90751e-05
5.06408e-05
7.90624e-05
2.02718e-05
3.66275e-05
9.97075e-05
4.0954e-05
9.43684e-05
4.09564e-05
9.43893e-05
3.66259e-05
3.66318e-05
9.43836e-05
4.09572e-05
9.97322e-05
3.66303e-05
9.44018e-05
4.09586e-05
2.02731e-05
5.06489e-05
7.91046e-05
7.90934e-05
2.02748e-05
2.02739e-05
7.90841e-05
5.06504e-05
2.02722e-05
7.9097e-05
3.6632e-05
9.97264e-05
9.44126e-05
4.09606e-05
9.43931e-05
4.09593e-05
3.66335e-05
3.66311e-05
4.09589e-05
9.44056e-05
9.97516e-05
3.66296e-05
4.09604e-05
9.44255e-05
2.02719e-05
5.06474e-05
7.90883e-05
7.90781e-05
2.02734e-05
2.02726e-05
7.90725e-05
5.0645e-05
2.02711e-05
7.90831e-05
3.66313e-05
9.97545e-05
4.09623e-05
9.44338e-05
4.09614e-05
9.4417e-05
3.66327e-05
8.15411e-05
2.16627e-05
2.16661e-05
2.16611e-05
2.16645e-05
8.15506e-05
0.000105017
0.000127833
7.78605e-05
4.85551e-05
4.85579e-05
0.000127875
0.000105
0.00010501
0.00012785
7.78773e-05
4.85675e-05
0.000127895
4.85712e-05
0.000104992
0.000105016
4.85603e-05
7.78591e-05
0.000127908
4.85573e-05
0.000127875
0.000105043
0.000105008
4.85733e-05
7.78749e-05
0.000127933
0.000127893
4.85696e-05
0.00010503
8.15437e-05
2.16602e-05
2.16635e-05
2.16618e-05
2.16651e-05
8.15346e-05
2.3836e-05
2.38358e-05
2.38351e-05
2.38354e-05
8.1557e-05
2.1662e-05
2.16654e-05
8.15479e-05
2.16636e-05
2.16669e-05
0.000105054
0.000128006
7.78805e-05
4.85646e-05
0.000127969
4.85631e-05
0.000105079
0.000105048
0.000128022
7.78996e-05
4.85779e-05
4.85754e-05
0.000127983
0.000105077
0.000105063
4.85604e-05
0.000127922
7.78824e-05
0.00012796
0.000105037
4.85626e-05
0.000105051
4.85732e-05
0.000127935
7.78988e-05
0.00010503
4.85757e-05
0.000127982
8.15553e-05
2.16644e-05
2.16678e-05
2.16628e-05
2.16662e-05
8.15645e-05
2.38381e-05
2.38383e-05
3.66266e-05
9.43853e-05
4.09511e-05
9.964e-05
9.43698e-05
4.09518e-05
3.66281e-05
2.02718e-05
5.06437e-05
7.90767e-05
7.90921e-05
2.02701e-05
2.02711e-05
7.9098e-05
5.06418e-05
7.90837e-05
2.02728e-05
3.66262e-05
9.96366e-05
9.43461e-05
4.09496e-05
9.43709e-05
4.09502e-05
3.66245e-05
3.66227e-05
9.43582e-05
4.09508e-05
9.96168e-05
9.43392e-05
4.09502e-05
3.66244e-05
2.0269e-05
5.06334e-05
7.90393e-05
7.90533e-05
2.02673e-05
2.02683e-05
7.90606e-05
5.06361e-05
7.9046e-05
2.027e-05
3.66224e-05
9.96194e-05
9.4315e-05
4.09478e-05
9.43415e-05
4.09481e-05
3.66206e-05
3.663e-05
9.43853e-05
4.09536e-05
9.96773e-05
3.66285e-05
9.44025e-05
4.09536e-05
2.02731e-05
5.06517e-05
7.91145e-05
7.91005e-05
2.02747e-05
2.02738e-05
7.90931e-05
5.06476e-05
2.02721e-05
7.91082e-05
3.66302e-05
9.96793e-05
9.44175e-05
4.09563e-05
9.43936e-05
4.0956e-05
3.66318e-05
3.66264e-05
9.43497e-05
4.09529e-05
9.96637e-05
3.66247e-05
9.43744e-05
4.09531e-05
2.02702e-05
5.06416e-05
7.90762e-05
7.90619e-05
2.02719e-05
2.02709e-05
7.9054e-05
5.06386e-05
2.02693e-05
7.9069e-05
3.66267e-05
9.96516e-05
9.43908e-05
4.09555e-05
9.43716e-05
4.0955e-05
3.66283e-05
2.3834e-05
2.38337e-05
2.3832e-05
2.38318e-05
8.15404e-05
2.16635e-05
2.16603e-05
8.15311e-05
2.1665e-05
2.16618e-05
0.000105019
0.000127961
7.78725e-05
4.85713e-05
0.000105041
0.000127933
4.85696e-05
0.000105056
0.000128007
7.78676e-05
4.8561e-05
0.000105076
0.00012798
4.85602e-05
0.000105024
4.85672e-05
0.000127891
7.78704e-05
0.000104996
0.000127928
4.85692e-05
0.000105052
4.85574e-05
0.00012793
7.78719e-05
0.000105028
0.000127972
4.85586e-05
8.15372e-05
2.16658e-05
2.16626e-05
8.15461e-05
2.16643e-05
2.16611e-05
2.38357e-05
2.3836e-05
2.38341e-05
2.38343e-05
2.38411e-05
2.38398e-05
0.000105113
0.000128026
4.85791e-05
7.79308e-05
0.000105085
4.85804e-05
0.000128073
0.00010511
0.000128024
4.85672e-05
7.79305e-05
0.000105088
4.85684e-05
0.000128077
8.15827e-05
2.16672e-05
2.16639e-05
8.15736e-05
2.16687e-05
2.16655e-05
2.02741e-05
7.9097e-05
5.0654e-05
2.02725e-05
7.91133e-05
3.66321e-05
9.97384e-05
4.09581e-05
9.44265e-05
4.09598e-05
3.66305e-05
9.44522e-05
0.000105137
0.000128069
4.85693e-05
7.79398e-05
4.85731e-05
0.00010512
0.000128122
0.000105133
0.000128083
4.85806e-05
7.7939e-05
0.000128136
0.000105114
4.85812e-05
8.15972e-05
2.16649e-05
2.16678e-05
2.16665e-05
8.15876e-05
2.16694e-05
2.02737e-05
7.90825e-05
5.06471e-05
2.02721e-05
7.90978e-05
3.66324e-05
9.97597e-05
4.09602e-05
9.44078e-05
4.0962e-05
3.66308e-05
9.44336e-05
3.66354e-05
9.9757e-05
4.09641e-05
9.44249e-05
4.09632e-05
2.02756e-05
7.90978e-05
5.06566e-05
7.91126e-05
2.0274e-05
3.66351e-05
9.97573e-05
9.44113e-05
4.09614e-05
9.4428e-05
3.66337e-05
4.09625e-05
2.02748e-05
3.66343e-05
9.97994e-05
4.09659e-05
9.44441e-05
4.09649e-05
9.44364e-05
3.66353e-05
2.02742e-05
7.90845e-05
5.06495e-05
2.02727e-05
7.90953e-05
3.66342e-05
9.98077e-05
4.09628e-05
9.44283e-05
3.66329e-05
4.09644e-05
9.44483e-05
2.02735e-05
7.90988e-05
5.06528e-05
7.90913e-05
2.0275e-05
0.000105104
0.000128005
4.85657e-05
7.78995e-05
4.85665e-05
0.000105078
0.000128044
0.0001051
0.000128032
4.85786e-05
7.79229e-05
0.000128072
0.000105074
4.85803e-05
8.15717e-05
2.16637e-05
2.16671e-05
2.16652e-05
8.15622e-05
2.16686e-05
2.38406e-05
3.66339e-05
9.97194e-05
9.44546e-05
4.0961e-05
9.44358e-05
4.09593e-05
3.66353e-05
2.02756e-05
7.91098e-05
5.06545e-05
7.91239e-05
2.0274e-05
3.66335e-05
9.97215e-05
9.44171e-05
4.09568e-05
9.44351e-05
3.66321e-05
4.09588e-05
2.02749e-05
7.91298e-05
7.91204e-05
2.02764e-05
3.66305e-05
9.97037e-05
9.44265e-05
4.09602e-05
9.44078e-05
4.09587e-05
3.66318e-05
2.02728e-05
7.90734e-05
5.06453e-05
2.02712e-05
7.9088e-05
3.66302e-05
9.97084e-05
9.43834e-05
4.0956e-05
3.66285e-05
9.44097e-05
4.0958e-05
2.02721e-05
7.90929e-05
5.06424e-05
7.90789e-05
2.02737e-05
2.3838e-05
2.38377e-05
2.38364e-05
2.38361e-05
0.000191119
0.000191145
0.000197338
0.000191214
0.000191405
0.000178729
0.000178008
0.000137136
0.0001593
0.000159284
0.000178296
0.000159362
0.000159312
0.000137107
0.000192581
0.000192651
0.00018026
0.000180122
0.000137365
0.000159673
0.000159641
0.00017879
0.000137347
0.000159737
0.000159665
0.000137214
0.000159377
0.000159395
0.000178418
0.000159444
0.000159461
0.000137187
0.000137322
0.000178648
0.000159713
0.000159665
0.00015965
0.000159629
0.000137364
0.000137243
0.000159403
0.000159445
0.000178445
0.000159508
0.000159463
0.000137217
0.000137365
0.00017865
0.000159737
0.000159773
0.000159675
0.000159708
0.000137408
0.000137191
0.000159371
0.000159359
0.000178394
0.000159411
0.000159435
0.000137161
0.000137313
0.000178653
0.000159657
0.000159711
0.000159615
0.000159647
0.000137352
0.000137273
0.00017855
0.000159581
0.000159585
0.000137321
0.000159561
0.000159565
0.000137422
0.000159714
0.000159723
0.00017888
0.000137381
0.000159728
0.000159736
0.000137468
0.000159736
0.000159783
0.000178942
0.000159835
0.000137426
0.000159773
0.000137391
0.000159715
0.000159725
0.000178876
0.000159784
0.000137371
0.000159728
0.000190761
0.000190672
0.000197084
0.000190983
0.000191045
0.000178042
0.000177556
0.000190903
0.000190705
0.000197156
0.00019116
0.000191071
0.00017815
0.000177631
0.000190616
0.000190593
0.000197032
0.00019099
0.000190962
0.000177982
0.000177442
0.000197674
0.000192164
0.000192313
0.00019181
0.000191861
0.000178906
0.000179407
0.000197447
0.000191701
0.00019202
0.000191478
0.000191404
0.000178505
0.000178805
0.000197513
0.000192021
0.000192041
0.000191648
0.000191441
0.000178575
0.000178909
0.000197286
0.000191962
0.000191925
0.000191352
0.000191338
0.000178376
0.000178749
0.000168548
0.000136457
0.000173536
0.000142691
0.000136421
0.000173473
0.000168547
0.00015864
0.000145934
0.000103265
0.00012196
0.00014598
0.000122009
0.00015855
0.000158626
0.000122046
0.000103256
0.000146046
0.00014599
0.000122007
0.000158712
0.000168476
0.000142679
0.000136366
0.000173348
0.000136402
0.000173407
0.000168448
0.00016845
0.000173404
0.000136424
0.000142592
0.000173337
0.000136381
0.000168538
0.000158627
0.000145852
0.000103249
0.000121963
0.000145916
0.000122
0.000158486
0.000158579
0.000122036
0.000103238
0.000145998
0.000145932
0.000121991
0.000158708
0.000168408
0.000142558
0.000173201
0.000136319
0.000173265
0.00013637
0.000168347
0.000137163
0.000178298
0.000159453
0.000159395
0.000159389
0.000159372
0.000137204
0.000192218
0.000192093
0.000192609
0.000179626
0.00017949
0.000192358
0.000192138
0.000192636
0.000179696
0.000179558
0.000192032
0.00019204
0.000198266
0.000192585
0.000192542
0.00017953
0.000179367
0.000168945
0.000143019
0.000136647
0.000173969
0.000136603
0.00017393
0.000168939
0.000158909
0.000146185
0.000122104
0.000103357
0.000158894
0.000146253
0.000122145
0.000168854
0.000142979
0.000136552
0.000173812
0.000168827
0.000136605
0.000173873
0.000168908
0.000142852
0.000173841
0.000136645
0.000173828
0.000136602
0.000168981
0.000158963
0.000146142
0.000122109
0.000103359
0.000158904
0.000146197
0.00012216
0.000168885
0.000142829
0.000173715
0.000136524
0.000168812
0.00017377
0.000136591
0.000158987
0.000122195
0.000122153
0.000159039
0.000137395
0.000178775
0.000159768
0.000159732
0.000159754
0.000159718
0.000137419
0.00013723
0.000178398
0.000159483
0.00015948
0.000137262
0.000159453
0.000159463
0.000137308
0.000178663
0.000159549
0.000159565
0.000137285
0.000159569
0.000159627
0.000168456
0.000136405
0.000173419
0.000142586
0.000136357
0.000173337
0.000168523
0.000158533
0.000145829
0.000103238
0.000121931
0.000121981
0.000145864
0.000158464
0.00015855
0.000122018
0.000103229
0.00014596
0.000121972
0.000145919
0.000158663
0.000168387
0.000142554
0.000136277
0.000173201
0.000136341
0.000173283
0.000168325
0.000168421
0.000136424
0.000173417
0.000142591
0.000136357
0.000173332
0.000168544
0.000158575
0.000145896
0.000103269
0.000121969
0.000122006
0.000145938
0.000158508
0.000158611
0.000122051
0.000103262
0.00014601
0.000122014
0.000158712
0.000145968
0.000168439
0.000142558
0.000136315
0.000173188
0.000136366
0.000173279
0.000168307
0.000168673
0.000136395
0.000173454
0.000142695
0.000168555
0.00013646
0.000173558
0.000158708
0.000146075
0.000103294
0.0001221
0.000146052
0.000122061
0.000158794
0.000158753
0.000122013
0.000145956
0.000103295
0.000146008
0.000158612
0.000122058
0.000168628
0.000142717
0.000136517
0.000173677
0.000136473
0.000173573
0.000168788
0.000168646
0.00013644
0.000173457
0.000142702
0.000168589
0.000136486
0.000173555
0.000158779
0.000146133
0.000103313
0.000122134
0.000122105
0.000146078
0.00015883
0.00015879
0.000122044
0.000146038
0.000103321
0.000158679
0.000122089
0.000146083
0.000168728
0.000142723
0.000136551
0.000173681
0.000136502
0.000173581
0.000168816
0.000137263
0.000178412
0.000159541
0.000159548
0.000159507
0.000159483
0.000137291
0.000137345
0.000178705
0.000159572
0.000159601
0.000159593
0.000137314
0.000159644
0.000168557
0.000136504
0.000173552
0.000142675
0.000136456
0.000173466
0.000168656
0.000158591
0.000145872
0.000103262
0.000122
0.000122036
0.000145884
0.000158547
0.000158618
0.000122076
0.000103266
0.000146001
0.000122036
0.000145961
0.000158692
0.000168556
0.000142667
0.000136397
0.000173339
0.000136442
0.00017342
0.000168463
0.000168523
0.000173518
0.000136436
0.00014267
0.000173437
0.000136377
0.000168518
0.000158598
0.000145862
0.000103229
0.000121948
0.000121992
0.000145904
0.000158496
0.000158599
0.000122028
0.00010322
0.000145973
0.000122002
0.000158645
0.000145931
0.000168392
0.000142647
0.000173297
0.000136342
0.000173378
0.000136386
0.000168397
0.000168766
0.000136494
0.000173588
0.000142814
0.000168663
0.000136561
0.000173685
0.000158803
0.000146133
0.000103313
0.000122157
0.000146071
0.000122118
0.000158813
0.000158746
0.000122086
0.000146023
0.000103318
0.000146066
0.000158689
0.000122117
0.000168753
0.000142803
0.000136611
0.000173804
0.000136572
0.000173706
0.000168818
0.000168673
0.000173554
0.00013645
0.000142781
0.000168601
0.000173653
0.000136487
0.000158779
0.000146099
0.000103278
0.000122103
0.000122077
0.000146057
0.000158789
0.000158716
0.000122039
0.000145997
0.000103274
0.000158698
0.000122065
0.00014604
0.00016869
0.000142803
0.000173769
0.000136542
0.000173676
0.000136503
0.000168727
0.000168482
0.000173544
0.000136449
0.000142718
0.000173451
0.000136417
0.000168565
0.000158543
0.000145846
0.000103251
0.000121958
0.000145852
0.000122004
0.000158456
0.000158552
0.00012205
0.000103243
0.000145984
0.00014594
0.000122006
0.000158627
0.00016845
0.000142695
0.000173316
0.000136343
0.000173407
0.000136406
0.000168359
0.00016865
0.000136472
0.000173591
0.000142831
0.000168666
0.000136503
0.000173668
0.000158789
0.000146152
0.000103305
0.000122112
0.000158851
0.000146119
0.000122081
0.000158807
0.00012205
0.000146073
0.000103312
0.000158722
0.000146103
0.000122091
0.000168749
0.000142833
0.000136563
0.000173799
0.000168804
0.000136528
0.000173699
0.000168726
0.000173561
0.000136471
0.000142853
0.000168561
0.00017367
0.000136505
0.000158698
0.000146111
0.000103298
0.000122122
0.000122081
0.000146065
0.000158844
0.000158754
0.000122048
0.000146002
0.000103306
0.000158642
0.000122083
0.000146044
0.000168653
0.000142856
0.000173789
0.000136549
0.000173685
0.000136504
0.00016881
0.000137212
0.000178398
0.000159466
0.000159477
0.000159465
0.000159445
0.000137238
0.000137303
0.000178644
0.000159553
0.000159567
0.000159615
0.000137273
0.000159629
0.000168412
0.000173403
0.000136373
0.000142557
0.000173334
0.000136309
0.000168402
0.000158409
0.000145792
0.000103196
0.000121879
0.00014581
0.000121931
0.000158389
0.000158488
0.000121974
0.000103188
0.000145886
0.000145861
0.000121929
0.000158504
0.000168285
0.000142546
0.000173199
0.000136271
0.000173275
0.000136317
0.000168291
0.000168659
0.000173471
0.00013641
0.000142701
0.000168574
0.000173535
0.000136466
0.000158811
0.000146105
0.000103296
0.000122113
0.00015887
0.000146073
0.000122074
0.000158777
0.000122037
0.000146027
0.000103301
0.000158715
0.000146045
0.000122084
0.000168714
0.000142689
0.000173656
0.000136531
0.000168785
0.000173596
0.00013649
0.000168514
0.000173453
0.000136363
0.000142686
0.000168529
0.000173537
0.000136421
0.000158665
0.000146037
0.000103242
0.000122059
0.000122005
0.000145989
0.000158776
0.000158676
0.00012198
0.000145935
0.000103242
0.000158588
0.000122023
0.000145958
0.000168645
0.000142665
0.000173661
0.000136482
0.000173566
0.000136436
0.000168671
0.000137258
0.000178545
0.000159473
0.000159471
0.000137219
0.000159537
0.000159495
0.000158892
0.000146108
0.000122116
0.000103356
0.000122148
0.000158828
0.000146138
0.000168856
0.000142823
0.000136509
0.000173686
0.000136572
0.000168741
0.000173789
0.000158885
0.000146171
0.000122137
0.000103378
0.000158876
0.000122181
0.000146202
0.000168904
0.000142845
0.000136541
0.000173696
0.000168793
0.000136611
0.000173795
0.000158901
0.000146154
0.00012216
0.000103377
0.000122204
0.000158888
0.000146176
0.000168886
0.000142931
0.000136627
0.000173815
0.000136671
0.000168894
0.000173909
0.000158859
0.00014612
0.000122094
0.000103322
0.000158851
0.000122137
0.000146158
0.000168812
0.000142897
0.000173783
0.000136526
0.00016882
0.000173875
0.000136594
0.000168867
0.000143048
0.000173983
0.000136624
0.00017389
0.000136592
0.000168955
0.000158887
0.000146128
0.000122134
0.00010336
0.000146148
0.000158789
0.00012216
0.000168901
0.000143008
0.000173788
0.000136569
0.000173896
0.000168756
0.000136596
0.000158891
0.00012218
0.000103349
0.000146278
0.000146235
0.000122168
0.000158975
0.000168834
0.000142832
0.000173819
0.00013659
0.000173786
0.000136547
0.000168806
0.000158844
0.000146098
0.000122044
0.000103294
0.000146139
0.000158773
0.000122104
0.000168747
0.00014281
0.000173671
0.000136472
0.000173768
0.000168696
0.000136534
0.000158864
0.000122134
0.000103282
0.000146201
0.000146167
0.000122086
0.000158892
0.000138641
0.000136694
0.000138654
5.00134e-05
9.3807e-05
2.36113e-05
7.37184e-05
7.37318e-05
2.36125e-05
9.38152e-05
5.00174e-05
2.01022e-05
5.00112e-05
7.60438e-05
7.59977e-05
2.01042e-05
2.36092e-05
9.7276e-05
0.000112645
7.36896e-05
4.79285e-05
0.000112496
4.79266e-05
9.73286e-05
9.72652e-05
0.00011266
7.36997e-05
4.7942e-05
4.7934e-05
0.00011252
9.73158e-05
7.88236e-05
2.14897e-05
2.14927e-05
2.14877e-05
2.14906e-05
7.88414e-05
2.36104e-05
2.01032e-05
5.00093e-05
7.60517e-05
7.60071e-05
2.01053e-05
0.000119521
0.000136534
0.000129806
0.000129815
0.000129678
0.000129688
0.000119605
0.000128489
0.000122152
9.36829e-05
0.000107737
0.000107527
0.000121997
0.000128665
0.000128523
0.000122115
9.37046e-05
0.000107725
0.000122026
0.000107545
0.000128573
0.000123089
0.000139442
0.000139458
0.000137182
0.000125886
0.000142564
0.000142578
0.000139617
0.000128841
0.000145648
0.000145661
0.000141955
0.000131933
0.000148689
0.000148701
0.000144285
0.00013514
0.000151683
0.000151695
0.000146541
0.000138444
0.000154628
0.000154638
0.000148938
0.000141827
0.000157517
0.000157525
0.000151123
0.00014527
0.000160351
0.000160357
0.000153257
0.000148757
0.000163128
0.000163131
0.000155245
0.000152273
0.000165845
0.000165847
0.000157271
0.000155803
0.000168504
0.000168502
0.000159352
0.000159332
0.0001711
0.000171093
0.000161206
0.000162842
0.000173622
0.000173612
0.000163094
0.000166314
0.000176059
0.00017605
0.000164848
0.000169728
0.000178402
0.000178391
0.000166439
0.000173058
0.000180637
0.000180625
0.000168022
0.00017628
0.000182751
0.000182739
0.000169427
0.000179368
0.000184735
0.000184721
0.000170754
0.000182298
0.000186577
0.000186565
0.000171974
0.000185049
0.000188275
0.000188267
0.000173119
0.000187609
0.000189835
0.000189829
0.000174298
0.00018996
0.000191249
0.000191237
0.000175303
0.000192093
0.000192514
0.000192488
0.000176173
0.000193995
0.000193627
0.000193582