/*--------------------------------*- C++ -*----------------------------------*\
| =========                 |                                                 |
| \\      /  F ield         | OpenFOAM: The Open Source CFD Toolbox           |
|  \\    /   O peration     | Version:  2312                                  |
|   \\  /    A nd           | Website:  www.openfoam.com                      |
|    \\/     M anipulation  |                                                 |
\*---------------------------------------------------------------------------*/
FoamFile
{
    version     2.0;
    format      ascii;
    arch        "LSB;label=32;scalar=64";
    class       surfaceScalarField;
    location    "300";
    object      phi;
}
// * * * * * * * * * * * * * * * * * * * * * * * * * * * * * * * * * * * * * //

dimensions      [0 3 -1 0 0 0 0];

oriented        oriented;

internalField   nonuniform List<scalar> 
125567
(
-5.85293e-08
-4.55009e-10
-0.00022877
1.34477e-09
2.50934e-08
-6.03059e-09
-1.8281e-08
-9.76977e-05
1.23001e-06
-3.84493e-08
2.53014e-07
-2.35451e-07
-1.20953e-06
2.67222e-07
-2.51097e-07
-0.00113285
-2.1633e-08
-8.73736e-07
8.94563e-07
1.73796e-08
3.78865e-08
-0.000244917
-9.13994e-08
-1.31548e-08
-1.86504e-09
-0.000249742
2.23906e-09
-1.75443e-07
-3.14839e-09
-4.72432e-08
-9.65117e-07
8.09008e-07
-7.8413e-07
9.90115e-07
-0.0011539
-5.85618e-08
-0.000228728
2.50738e-08
8.43661e-10
-3.77846e-08
3.83392e-09
-0.000192985
-0.000249715
-1.75499e-07
2.094e-09
-1.34532e-08
1.26094e-06
-4.56193e-08
-8.7904e-07
2.52996e-07
8.9982e-07
-2.3556e-07
-1.24426e-06
2.69389e-07
-2.57224e-07
-0.00113233
-5.35533e-08
-9.6506e-07
8.0911e-07
-7.8412e-07
9.90291e-07
-0.00115384
1.94896e-08
-1.27167e-08
-0.000244807
-9.12653e-08
-0.000268051
2.30818e-07
2.35391e-07
8.93084e-09
-0.000277371
-3.92742e-08
1.82007e-08
9.18428e-09
-0.000277514
-4.15021e-08
-6.13939e-09
-9.77242e-05
-0.000193049
3.66926e-09
1.8005e-08
-5.85341e-10
0.000142946
-8.0913e-10
-0.000142962
-2.17085e-10
-1.74045e-08
-2.94138e-10
4.24669e-08
-0.000228794
-0.000222808
2.46597e-08
2.81885e-09
-6.09885e-08
-0.00017056
-4.03462e-10
-1.85905e-10
-8.42649e-10
4.57459e-08
-0.000222835
-1.97839e-10
-0.000170577
1.02263e-09
1.96708e-08
7.90404e-05
-7.90609e-05
-0.000262522
2.30266e-08
-5.40686e-08
4.24787e-08
-0.00026255
6.29811e-09
1.39048e-08
-9.77179e-05
-2.68422e-10
1.79026e-08
0.000142867
-9.38085e-10
-0.000142883
-1.74025e-08
-5.74761e-10
4.2421e-08
-0.000228753
-0.000170521
-5.19414e-10
-0.000222704
2.46603e-08
2.45649e-09
-5.86046e-08
-0.000170539
-1.24518e-09
4.32534e-08
-0.000222728
9.39051e-10
1.95158e-08
7.89916e-05
-7.9012e-05
-0.000262385
2.30239e-08
-5.16742e-08
-3.38945e-09
2.99157e-08
-0.000193005
4.00284e-08
-0.00026241
-8.87005e-09
-8.90474e-09
0.000213169
1.7393e-08
1.51808e-08
-0.000213184
-8.02935e-05
-1.12315e-08
-1.13465e-08
-8.03178e-05
-1.11263e-08
-1.1461e-08
1.08613e-08
-8.03132e-05
1.08022e-08
-8.03375e-05
-2.29073e-08
-2.10062e-08
-1.97635e-08
2.31955e-08
0.000221338
3.83065e-08
-0.000221363
-0.000182468
-2.71129e-08
-9.4013e-09
2.89407e-08
1.67841e-08
-0.000277393
-0.000250114
2.96695e-08
-4.70917e-08
-8.94523e-08
-0.000182487
4.0921e-08
7.41087e-08
-0.000250177
-5.04276e-08
2.29008e-08
-1.97752e-08
0.000221429
4.05642e-08
-0.000221458
-0.000182554
-2.70541e-08
3.1198e-08
-9.13739e-09
-1.40908e-08
1.39726e-08
-0.000277536
-0.000250292
3.00544e-08
-4.50064e-08
-8.93119e-08
3.78718e-08
7.42229e-08
-0.00025035
-0.000182572
-5.23516e-08
6.0698e-09
-9.77443e-05
2.98568e-08
-0.000193069
-3.71088e-09
3.50757e-09
-0.00121931
-3.19225e-08
-2.10784e-08
-0.00118635
-5.15477e-08
-0.00121843
-5.04294e-08
7.78005e-08
-0.00024496
8.37746e-09
-0.000260051
-2.13023e-08
-0.000260186
1.4989e-08
-1.7325e-07
4.57839e-09
0.000265531
-1.65642e-08
-0.000266311
-1.5123e-09
1.53443e-07
1.11198e-10
-0.000249851
-0.00024913
-1.95012e-07
7.0224e-09
-0.00026575
4.11189e-09
-6.69667e-09
-3.01844e-09
-0.000249256
3.7809e-09
-0.00026638
2.15247e-08
-1.55187e-07
0.000263767
-0.000264487
-0.000250251
-1.73168e-07
-0.000250356
1.02424e-09
-1.70587e-07
0.000265461
-4.08346e-09
-0.000266253
1.53408e-07
-1.05538e-09
-0.000249825
-0.000265732
2.43704e-09
-0.000249043
-1.95079e-07
6.58934e-09
-0.000266358
-3.51505e-09
-0.000249168
8.45607e-09
-1.5268e-07
0.000263665
-1.56488e-08
-0.000264379
-0.000250142
-1.7574e-07
8.84796e-09
7.5553e-08
-0.000244844
-2.07516e-08
-0.000259936
-0.00025025
-0.000260071
8.67533e-08
8.97482e-08
0.000242492
-0.00024259
-2.18072e-07
-2.12741e-07
-0.000270074
-0.000260919
1.03199e-07
-0.000260575
1.0099e-07
-0.000260884
-0.000261225
4.622e-08
4.70746e-08
-2.48684e-08
-2.38686e-08
0.00118699
-0.00118703
-1.2106e-06
-4.77942e-08
-2.47389e-08
0.00113305
-2.49401e-07
1.23174e-06
2.65991e-07
8.96571e-07
-2.33308e-07
2.54931e-07
-8.71532e-07
-0.00113306
-1.20822e-06
-4.76178e-08
-1.89319e-08
0.0011329
-2.47043e-07
1.22875e-06
2.6572e-07
8.96688e-07
-2.33127e-07
2.55243e-07
-8.7141e-07
-0.00113292
1.23935e-06
1.20355e-06
-2.1153e-07
-2.13534e-07
0.000268038
-0.000270056
3.96229e-08
4.76731e-08
-0.00118687
-2.33268e-08
-2.07446e-08
-0.001133
-1.21184e-06
-4.09315e-08
-3.91702e-09
-2.50635e-07
1.23043e-06
2.64792e-07
8.94752e-07
-2.35246e-07
-8.7337e-07
2.53173e-07
-0.00113285
-1.20918e-06
-4.06748e-08
-3.39036e-08
-2.50749e-07
1.22767e-06
2.64822e-07
8.95023e-07
-2.34954e-07
-8.73219e-07
2.5354e-07
-0.000270051
1.24319e-06
1.19931e-06
-2.07691e-07
-2.17293e-07
0.000268033
1.25041e-06
1.20868e-06
-2.08727e-07
-2.16423e-07
0.000268089
-0.000270123
-1.27013e-06
-1.22779e-06
0.000270118
-0.000268086
2.28514e-07
2.3656e-07
-1.85728e-08
0.00113253
-2.52533e-07
1.27083e-06
2.68258e-07
8.99277e-07
-2.30615e-07
2.52293e-07
-8.74423e-07
-0.00113254
-1.24818e-06
-4.80904e-08
-1.63628e-08
0.00113257
-2.55897e-07
1.26786e-06
2.70559e-07
9.04917e-07
-2.32757e-07
2.55507e-07
-8.79011e-07
-0.00113259
0.00113248
-4.12746e-08
-0.0011325
-1.73021e-08
-1.25107e-06
2.67706e-07
-2.53127e-07
-8.75675e-07
2.51118e-07
-2.31837e-07
8.98117e-07
1.26419e-06
0.00113253
-4.4197e-08
-0.00113254
-1.44967e-08
-1.24912e-06
2.67028e-07
-2.56754e-07
-8.80149e-07
2.54456e-07
-2.33811e-07
9.0123e-07
-2.1083e-07
-2.14037e-07
0.000268074
-0.000270108
-1.23082e-06
0.0002701
-0.00026807
2.31786e-07
2.33259e-07
-1.70088e-08
0.00113348
-2.50127e-07
1.22866e-06
2.65573e-07
9.0173e-07
-2.33444e-07
2.55002e-07
-8.77019e-07
-0.0011335
-1.24254e-06
-4.69116e-08
-1.74004e-08
0.00113238
-2.55568e-07
1.26263e-06
2.70884e-07
9.01787e-07
-2.30648e-07
2.52286e-07
-8.77001e-07
-0.0011324
0.00113343
-4.3118e-08
-0.00113344
-1.50832e-08
-1.2095e-06
2.64781e-07
-2.50943e-07
-8.78136e-07
2.5396e-07
-2.34564e-07
9.00643e-07
1.26167e-06
0.00113234
-4.91522e-08
-0.00113235
-1.51888e-08
-1.2435e-06
2.7e-07
-2.56523e-07
-8.78026e-07
2.51207e-07
-2.31771e-07
9.00746e-07
-4.59402e-08
-1.79827e-08
0.00113208
-2.52254e-07
1.2602e-06
2.68541e-07
8.9358e-07
-2.28084e-07
2.49255e-07
-8.69066e-07
-0.0011321
-4.27061e-08
-0.00113302
-1.08137e-08
-1.21145e-06
2.65167e-07
-2.50246e-07
-8.72916e-07
2.53633e-07
8.953e-07
-2.34664e-07
1.2593e-06
0.00113202
-4.10594e-08
-0.00113204
-1.59533e-08
-1.24022e-06
2.67737e-07
-2.5314e-07
-8.70457e-07
2.50569e-07
-2.2958e-07
8.92231e-07
-2.11327e-07
-2.16339e-07
0.000268053
-0.000270076
-1.22798e-06
0.000270075
-0.000268053
2.31523e-07
2.36154e-07
-4.84318e-08
-1.53309e-08
0.00113308
-2.50613e-07
1.22289e-06
2.65049e-07
8.99534e-07
-2.32849e-07
2.55605e-07
-8.73554e-07
-0.00113309
-4.25266e-08
-0.00113286
-2.32487e-08
-1.20617e-06
2.65113e-07
-2.50408e-07
-8.72694e-07
2.53978e-07
8.95491e-07
-2.34395e-07
1.222e-06
0.00113301
-4.37576e-08
-0.00113304
3.21393e-09
-1.20438e-06
2.64363e-07
-2.51339e-07
-8.74971e-07
2.54337e-07
-2.34071e-07
8.98256e-07
-0.000268034
2.30604e-07
2.3419e-07
1.25139e-06
1.20988e-06
-2.09917e-07
-2.17478e-07
0.000268084
-2.24154e-08
-2.53482e-07
1.26983e-06
2.67474e-07
8.97578e-07
-2.34999e-07
-8.76119e-07
2.53324e-07
-1.24677e-06
-4.2108e-08
-7.86348e-09
-2.54361e-07
1.26383e-06
2.66707e-07
9.00665e-07
-2.34412e-07
-8.77978e-07
2.53932e-07
-2.12078e-07
-2.15379e-07
0.000268069
-1.4308e-08
-2.51281e-07
1.22746e-06
2.64475e-07
9.002e-07
-2.35013e-07
-8.78621e-07
2.53542e-07
-1.24389e-06
-4.75157e-08
-1.43616e-08
-2.56885e-07
1.2613e-06
2.69706e-07
9.00277e-07
-2.32276e-07
-8.78535e-07
2.53471e-07
-6.30515e-08
-9.54438e-09
0.00113202
-2.56166e-07
1.25899e-06
2.70325e-07
8.94552e-07
-2.32807e-07
2.52865e-07
-8.70974e-07
-2.12399e-07
-2.1768e-07
0.000268052
-4.18344e-08
1.95018e-08
0.00113294
-2.46103e-07
1.22719e-06
2.64273e-07
8.97844e-07
-2.34652e-07
2.5388e-07
-8.75581e-07
-9.98914e-10
-6.00012e-08
0.000228778
2.57322e-08
1.56714e-09
-0.000228745
-6.28911e-09
2.90153e-08
0.000193019
-3.42771e-09
-0.000193038
5.9501e-09
-3.86336e-08
0.000193057
3.81966e-09
-0.000193028
-8.29352e-10
4.09358e-08
0.000228735
-1.67748e-08
6.32497e-10
-0.000228759
7.33039e-09
1.48899e-08
9.76858e-05
-9.7708e-05
-4.98517e-09
-2.18337e-08
9.77172e-05
-9.76904e-05
-5.96104e-08
-5.24735e-10
0.000228769
1.20961e-09
2.55294e-08
-0.000228736
-6.18086e-09
2.91796e-08
0.000193009
-3.52558e-09
-0.000193028
6.04919e-09
-3.84486e-08
0.000193047
3.80422e-09
-0.000193018
4.12714e-08
-2.3765e-10
0.000228727
3.53464e-10
-1.69237e-08
-0.000228752
-2.59461e-08
-2.5691e-08
0.00118678
-0.00118683
-2.5933e-08
-2.53503e-08
0.00118649
-0.00118653
-2.55245e-08
-2.3852e-08
0.00118653
-0.00118657
-0.00118691
-2.9421e-08
-1.57736e-08
0.00118665
-0.0011867
-2.35588e-08
-1.81272e-08
0.00118637
-0.00118641
-2.33539e-08
-3.0354e-08
0.00118639
-0.00118644
-2.31482e-08
-1.01316e-08
5.95328e-08
-1.41139e-09
0.000249845
1.91477e-09
-1.77226e-07
-0.000249728
-1.59133e-08
-2.91902e-08
7.88292e-08
0.000244896
1.05695e-08
-0.000244941
0.00115391
3.1161e-09
-5.069e-08
9.87504e-07
-7.75863e-07
8.09043e-07
-9.54214e-07
-0.00115396
-1.26205e-08
1.23148e-06
0.00113303
-4.63734e-08
-8.71949e-07
2.54549e-07
-2.33802e-07
8.96224e-07
-1.21086e-06
2.65753e-07
-2.49681e-07
2.03733e-08
3.82439e-08
0.000244956
-1.59012e-08
-0.000244904
-9.47132e-08
-3.75558e-09
0.0011539
-4.97307e-08
-9.57395e-07
8.05889e-07
-7.79036e-07
9.84398e-07
-4.09488e-08
1.61354e-09
0.000249723
1.27865e-10
1.51118e-07
-0.000249835
6.38181e-09
1.3509e-08
9.76759e-05
-9.76958e-05
-5.84787e-09
-1.86609e-08
9.7705e-05
-9.76805e-05
-1.41007e-09
5.98961e-08
0.000249831
-1.77647e-07
2.44822e-09
-0.000249714
0.00115375
1.09169e-09
-5.1016e-08
9.87735e-07
-7.78408e-07
8.09351e-07
-9.56826e-07
-0.00115378
-1.62934e-08
-2.89918e-08
7.62245e-08
0.000244881
8.29759e-09
-0.00024492
-1.85569e-08
1.22584e-06
0.00113288
-4.62813e-08
-8.71873e-07
2.54857e-07
-2.33588e-07
8.96398e-07
-1.2057e-06
2.6556e-07
-2.49956e-07
-6.91786e-09
0.00115372
-5.01175e-08
-9.57221e-07
8.08958e-07
-7.7883e-07
9.87369e-07
1.98492e-08
3.85293e-08
0.000244937
-1.33287e-08
-0.000244889
-9.26451e-08
2.229e-10
-4.06946e-08
0.000249708
1.50865e-07
6.9306e-10
-0.000249819
1.58192e-08
-1.42068e-08
3.28639e-08
0.0002774
-7.87577e-09
-0.000277426
1.7144e-08
-1.30351e-08
2.96759e-08
0.00027732
-1.02566e-08
-0.000277344
-1.25991e-06
-1.22259e-06
0.000270053
-0.000268037
2.31293e-07
2.34802e-07
-2.04892e-08
1.78881e-08
0.000277448
9.60692e-09
-0.00027741
-4.42341e-08
-1.92539e-08
1.90266e-08
0.000277366
8.39044e-09
-0.000277332
-4.28654e-08
-0.000193075
-6.10351e-09
2.97046e-08
-3.86858e-09
0.000193056
-0.000228797
-8.23507e-10
4.18245e-08
0.000228772
-1.71243e-08
6.94565e-10
-9.77259e-05
6.9358e-09
1.56216e-08
9.77033e-05
-0.000193064
-6.16987e-09
2.97303e-08
-3.58236e-09
0.000193044
-0.000228786
4.21595e-08
-1.35735e-10
0.000228762
-3.84375e-11
-1.72583e-08
-1.09167e-08
2.97713e-10
-2.23373e-08
-4.69947e-08
1.24708e-08
8.23968e-09
0.00118627
5.82373e-08
-4.46931e-10
-0.000249749
7.87119e-10
-1.75416e-07
-0.000244968
-1.60184e-08
-2.9955e-08
8.01897e-08
8.24834e-09
0.000244925
0.00115382
-0.00115384
1.36743e-08
-4.97729e-08
9.85424e-07
-7.80708e-07
-9.5911e-07
8.07064e-07
-0.000249855
-4.22084e-08
2.01734e-09
0.000249742
-3.52498e-10
1.52928e-07
2.54117e-08
-6.50076e-08
-9.59652e-07
8.09221e-07
-7.81142e-07
9.87533e-07
-9.77137e-05
6.34525e-09
1.38113e-08
9.76936e-05
-2.07321e-09
5.87333e-08
-0.000249735
-1.75728e-07
2.53265e-09
0.00115366
-0.00115368
-2.42112e-08
-4.45854e-08
9.85653e-07
-7.80511e-07
-9.58881e-07
8.07241e-07
-0.000244952
-1.63045e-08
-2.96837e-08
7.74727e-08
8.32738e-09
0.000244913
-0.000249841
-1.7709e-10
-4.1778e-08
0.00024973
1.52545e-07
6.23805e-10
-5.97133e-08
-4.72518e-08
-9.59486e-07
8.06555e-07
-7.78403e-07
9.84985e-07
-0.000277468
1.57512e-08
-1.4861e-08
3.17734e-08
-7.75042e-09
0.000277443
-0.000277387
1.69604e-08
-1.36136e-08
3.0743e-08
-9.72257e-09
0.000277363
-1.25381e-06
-1.29653e-06
-0.000268052
2.42913e-07
2.31036e-07
-2.04713e-08
1.73301e-08
1.00786e-08
-0.000277455
-4.07532e-08
-1.93873e-08
1.84646e-08
8.86809e-09
-0.000277372
-4.17513e-08
1.35068e-08
9.7704e-05
-9.77238e-05
-1.87944e-08
9.77337e-05
-9.77089e-05
1.36292e-08
9.76956e-05
-9.77154e-05
-1.86177e-08
9.77252e-05
-9.77005e-05
1.63014e-08
3.24152e-08
0.000277449
-1.15007e-08
-0.000277473
1.3893e-08
3.24864e-08
0.000277384
-8.63002e-09
-0.000277408
0.00027012
-1.2706e-06
-1.22838e-06
-0.000268088
2.29109e-07
2.37085e-07
0.000277495
-1.98201e-08
1.10162e-08
-0.000277461
-4.48155e-08
0.00027743
-1.75714e-08
8.69064e-09
-0.000277395
-4.46722e-08
-1.85278e-08
-6.04945e-09
9.7743e-05
-9.77185e-05
1.3708e-08
6.21705e-09
9.77138e-05
-1.84401e-08
-6.08376e-09
9.77343e-05
-9.77098e-05
1.37718e-08
6.17201e-09
9.77052e-05
1.25085e-06
1.20921e-06
0.000268087
-2.09258e-07
-2.16917e-07
-1.98949e-08
0.000277517
-4.4385e-08
-0.000277482
1.11636e-08
-1.74868e-08
0.000277451
-4.42896e-08
-0.000277416
8.67e-09
1.62634e-08
-1.13771e-08
3.2774e-08
0.000277471
1.39072e-08
-8.6177e-09
3.28373e-08
0.000277406
-6.00719e-08
0.000228738
2.57611e-08
-1.05199e-12
-0.000228705
3.06498e-08
0.000192961
-1.7616e-09
-0.000192982
-4.13183e-08
0.000193
5.72674e-09
-0.00019297
4.08525e-08
0.000228695
-1.6713e-08
-1.36638e-09
-0.000228718
-1.6412e-09
0.000249857
1.8129e-09
-1.77645e-07
-0.00024974
7.87356e-08
0.000244889
8.23043e-09
-0.000244931
0.00115427
2.3377e-09
-4.92799e-08
9.90452e-07
-7.81439e-07
8.12006e-07
-9.59944e-07
-0.0011543
-1.83032e-08
0.00113251
-4.51174e-08
-1.25065e-06
2.68076e-07
-2.52784e-07
-8.74806e-07
2.51952e-07
-2.30924e-07
8.98947e-07
0.000244947
-1.33349e-08
-0.000244897
-9.49813e-08
-5.5245e-09
0.00115425
-4.84328e-08
-9.60341e-07
8.11643e-07
-7.81846e-07
9.90097e-07
1.17818e-10
0.000249734
1.35065e-09
1.51121e-07
-0.000249846
0.000249828
1.96714e-09
-1.77756e-07
-0.000249714
-1.76747e-08
7.8192e-08
0.000244788
9.60862e-09
-0.000244827
0.0011542
-4.9962e-08
9.95885e-07
-7.81284e-07
8.12099e-07
-9.64895e-07
-0.00115422
-1.57325e-08
0.00113255
1.26751e-06
-4.72166e-08
-8.79314e-07
2.55254e-07
9.04631e-07
-2.3302e-07
-1.24851e-06
2.70271e-07
-2.56167e-07
0.000244843
1.84284e-08
-1.1768e-08
-0.000244796
-9.55276e-08
0.00115417
-4.90746e-08
-9.6533e-07
8.11735e-07
-7.81667e-07
9.95523e-07
0.000249709
-1.78008e-09
1.51007e-07
-0.000249817
-8.40505e-10
4.12911e-08
-1.68918e-08
6.76239e-10
0.000228754
-3.82331e-08
-0.000193047
3.57946e-09
2.9296e-08
-3.61937e-09
0.000193037
-1.0023e-09
-5.95144e-08
-0.000228763
2.55268e-08
1.5899e-09
4.12215e-08
-1.68502e-08
-1.33812e-09
0.000228714
-4.09724e-08
5.23121e-09
0.000193017
-0.000192987
5.4239e-09
3.09267e-08
-7.1734e-09
-1.93153e-09
0.000192979
-5.96014e-08
0.000228756
-0.000228723
2.55678e-08
4.83359e-11
7.83955e-11
1.3895e-09
1.5176e-07
0.000249746
-2.34738e-08
-4.34249e-08
1.27039e-06
-2.52928e-07
2.67905e-07
8.98603e-07
-2.31372e-07
2.51539e-07
-8.75181e-07
0.000244963
-9.43787e-08
-0.000244913
-1.33975e-08
-0.00115421
-6.73515e-09
0.00115419
-4.46301e-08
-9.61327e-07
8.10597e-07
-7.82831e-07
9.89089e-07
8.16896e-09
7.9246e-08
0.000244905
1.50743e-09
-4.66659e-08
9.89624e-07
-7.8228e-07
-9.60798e-07
8.11117e-07
-1.68725e-09
0.000249868
-0.000249751
2.08242e-09
-1.76829e-07
-1.78582e-09
1.51652e-07
0.00024972
-1.50902e-08
-1.24884e-06
-4.56694e-08
9.04263e-07
-2.334e-07
-8.79726e-07
2.54895e-07
1.2672e-06
-2.56554e-07
2.69982e-07
1.86045e-08
0.000244858
-9.49692e-08
-0.000244811
-1.18596e-08
-0.00115414
0.00115411
-4.58267e-08
-9.66249e-07
8.10746e-07
-7.82622e-07
9.918e-07
-1.75573e-08
9.58584e-09
7.86364e-08
0.000244804
-4.74104e-08
9.95008e-07
-7.82103e-07
-9.65747e-07
8.11241e-07
0.000249839
-0.000249725
1.73132e-09
-1.76958e-07
2.94491e-08
0.00027733
-1.09634e-08
-0.000277352
-1.40552e-08
3.2821e-08
0.000277475
-8.04591e-09
-0.000277501
0.000270105
-0.000268073
2.32494e-07
2.33916e-07
0.000277373
7.73507e-09
-0.000277341
-4.30541e-08
1.81217e-08
0.000277522
9.35931e-09
-0.000277485
-4.43443e-08
5.8751e-09
9.77047e-05
-9.77246e-05
9.77339e-05
-6.48774e-09
-9.77093e-05
-2.14276e-08
-9.76992e-05
1.51723e-08
9.76949e-05
1.21112e-06
0.000268071
-2.11353e-07
-2.14717e-07
0.000277393
-4.25546e-08
-0.000277361
8.09516e-09
1.79815e-08
-2.0249e-08
0.000277542
-4.39143e-08
-0.000277505
9.28126e-09
-1.06694e-08
2.9853e-08
0.000277351
-1.4226e-08
1.58244e-08
-7.97867e-09
3.3265e-08
0.000277495
-6.4666e-09
9.77428e-05
-9.77183e-05
5.80749e-09
9.77139e-05
-1.8882e-09
0.00024984
2.07782e-09
-1.79768e-07
-0.00024972
7.65071e-08
0.000244853
1.08048e-08
-0.000244897
0.00115399
4.25097e-09
-4.89541e-08
9.9254e-07
-7.8165e-07
8.11509e-07
-9.62715e-07
-0.00115402
-1.651e-08
0.00113346
-4.62466e-08
-1.20897e-06
2.65318e-07
-2.50398e-07
-8.77363e-07
2.54714e-07
-2.33747e-07
9.01426e-07
0.000244913
-1.56742e-08
-0.00024486
-9.24904e-08
-3.19353e-09
0.00115397
-4.84068e-08
-9.63072e-07
8.11171e-07
-7.82019e-07
9.9224e-07
1.48532e-09
0.000249715
2.41436e-10
1.54054e-07
-0.000249829
-5.96151e-08
0.000228728
2.55442e-08
7.34034e-10
-0.000228695
2.91046e-08
0.000192944
-2.99668e-09
-0.000192964
-3.84553e-08
0.000192981
4.30786e-09
-0.000192953
4.12538e-08
0.000228686
-1.6899e-08
-6.53797e-10
-0.00022871
0.000249809
-1.79795e-07
2.15859e-09
-0.000249693
0.00115392
-4.90057e-08
9.92715e-07
-7.81693e-07
8.11559e-07
-9.62642e-07
-0.00115395
-1.663e-08
7.40621e-08
0.00024477
8.76348e-09
-0.000244807
-1.6706e-08
0.00113237
1.26232e-06
-4.62942e-08
-8.77313e-07
2.51993e-07
9.01542e-07
-2.30985e-07
-1.24288e-06
2.70587e-07
-2.55923e-07
0.00115389
-4.85826e-08
-9.63006e-07
8.11212e-07
-7.82041e-07
9.92387e-07
0.000244823
1.95898e-08
-1.28122e-08
-0.000244778
-9.00667e-08
0.000249688
1.54054e-07
-7.09998e-10
-0.000249798
4.16329e-08
-2.06909e-10
2.91489e-10
-1.7058e-08
0.000228745
-3.81856e-08
-0.000193036
3.74629e-09
2.94091e-08
-3.55761e-09
0.000193027
-5.91426e-08
-4.65891e-10
-0.000228753
1.33665e-09
2.53483e-08
1.45176e-09
2.49087e-10
1.52122e-07
0.000249728
-1.59605e-08
-4.49526e-08
1.22813e-06
-2.50615e-07
2.65109e-07
9.01089e-07
-2.34147e-07
2.54366e-07
-8.77769e-07
0.000244927
-9.19517e-08
-0.000244875
-1.56169e-08
-0.00115394
-3.24454e-09
0.00115392
-5.12684e-08
-9.63992e-07
8.10169e-07
-7.82959e-07
9.91307e-07
1.08365e-08
7.69865e-08
0.000244868
4.09981e-09
-4.70348e-08
9.91771e-07
-7.82471e-07
-9.63509e-07
8.10683e-07
-1.89077e-09
0.00024985
-0.000249733
2.28232e-09
-1.76361e-07
4.16245e-08
-1.70658e-08
-6.70613e-10
0.000228704
-3.81709e-08
5.90086e-09
0.000192997
-0.000192969
4.1544e-09
2.93558e-08
-6.39969e-09
-3.04234e-09
0.000192961
-5.91532e-08
0.000228745
-0.000228712
2.53597e-08
7.40228e-10
1.52118e-07
-7.53485e-10
0.000249701
-1.59826e-08
-1.24318e-06
-4.48223e-08
9.0115e-07
-2.31377e-07
-8.77629e-07
2.5162e-07
1.26199e-06
-2.56183e-07
2.70322e-07
-0.00115387
0.00115385
-5.15404e-08
-9.63967e-07
8.10228e-07
-7.82968e-07
9.91449e-07
1.95322e-08
0.000244837
-8.95087e-08
-0.000244793
-1.27919e-08
-4.71791e-08
9.9195e-07
-7.82497e-07
-9.6342e-07
8.10735e-07
-1.66933e-08
8.80754e-09
7.45509e-08
0.000244786
0.000249819
-0.000249706
-1.76387e-07
2.11051e-09
1.32163e-10
0.000228775
9.4988e-10
2.75289e-08
-0.000228744
0.000193017
-3.59216e-09
-0.000193037
0.000193054
3.35573e-09
-0.000193026
2.24608e-10
0.000228735
-2.76949e-10
-1.89345e-08
-0.000228757
5.95399e-08
0.000249811
-1.74573e-07
2.90756e-09
-0.0002497
0.00115384
-4.96813e-08
9.87358e-07
-7.78771e-07
8.08956e-07
-9.57099e-07
-0.00115387
-2.9422e-08
7.90056e-08
0.000244813
8.03523e-09
-0.000244854
-1.74142e-08
0.00113206
-3.89867e-08
-1.23965e-06
2.68308e-07
-2.5256e-07
-8.69512e-07
2.48879e-07
-2.28577e-07
8.93154e-07
0.0011538
-4.2922e-08
-9.57497e-07
8.08517e-07
-7.79194e-07
9.86906e-07
3.79687e-08
0.00024487
-1.36574e-08
-0.00024482
-9.44259e-08
-4.109e-08
0.000249695
1.48656e-07
-4.76113e-10
-0.000249801
0.000228737
2.542e-08
1.46296e-09
-0.000228704
-5.79655e-09
0.000192956
-4.14022e-09
-0.000192976
0.000192994
6.63598e-09
2.89038e-09
-0.000192965
0.000228695
-1.68857e-08
-6.60938e-11
-0.000228719
-4.15231e-08
1.73645e-09
6.23009e-11
1.51973e-07
0.000249733
-2.3497e-08
-4.4602e-08
1.2312e-06
-2.49929e-07
2.6549e-07
8.95761e-07
-2.34188e-07
-8.72429e-07
2.54163e-07
3.78843e-08
-9.40662e-08
-0.000244919
-1.33591e-08
-0.00115386
-7.24397e-10
-4.5637e-08
-9.58436e-07
8.07527e-07
9.85984e-07
-7.80085e-07
-2.95549e-08
1.05376e-08
7.94641e-08
0.000244912
3.98568e-09
-4.76338e-08
9.86466e-07
-7.76852e-07
-9.552e-07
8.0804e-07
5.89045e-08
-1.17408e-09
-0.000249738
1.4894e-09
-1.76288e-07
2.50108e-10
-2.42132e-10
-1.91904e-08
0.000228752
0.00019307
-0.000193042
3.31145e-09
-3.76041e-09
0.000193034
2.11063e-10
0.000228791
-0.000228761
7.13653e-10
2.72348e-08
-4.16522e-08
1.49484e-07
-4.07054e-10
0.000249705
-1.67135e-08
-1.23992e-06
-4.87649e-08
8.92738e-07
-2.28993e-07
-8.69943e-07
2.48418e-07
1.25962e-06
-2.52793e-07
2.6806e-07
-0.00115379
0.00115376
-4.49529e-08
-9.58575e-07
8.0742e-07
-7.80243e-07
9.85809e-07
3.74632e-08
2.05137e-08
0.000244885
-9.12516e-08
-0.000244838
-1.36959e-08
-5.28384e-08
9.86399e-07
-7.79742e-07
-9.58058e-07
8.07974e-07
-2.99006e-08
-1.56655e-08
7.91071e-09
7.971e-08
0.000244828
5.88722e-08
0.000249823
-0.00024971
-1.76231e-07
2.75544e-09
-1.71652e-08
4.49974e-12
0.000228713
6.83459e-09
0.00019301
-0.000192982
2.60445e-09
-5.52593e-09
-4.53374e-09
0.000192974
0.000228753
-0.000228721
2.50745e-08
1.5626e-09
2.79359e-08
0.000277321
-9.42761e-09
-0.000277343
-1.3549e-08
3.00915e-08
0.000277462
-1.18761e-08
-0.000277483
0.000270074
-0.000268055
2.32092e-07
2.36852e-07
0.000277364
8.87199e-09
-0.000277331
-4.01204e-08
1.86073e-08
0.000277505
1.1663e-08
-0.000277473
-4.2503e-08
6.26991e-09
9.77013e-05
-9.77211e-05
9.77308e-05
-6.04309e-09
-9.77061e-05
-1.8485e-08
-9.76894e-05
1.36356e-08
9.7685e-05
1.2059e-06
0.000268054
-2.11784e-07
-2.16963e-07
0.000277384
-3.97083e-08
-0.000277352
8.88976e-09
1.8396e-08
-1.98402e-08
0.000277526
-4.20376e-08
-0.000277494
1.17448e-08
-9.45047e-09
2.82945e-08
0.000277342
-1.37944e-08
1.62595e-08
-1.1811e-08
3.0553e-08
0.000277484
-6.12216e-09
9.774e-05
-9.77154e-05
6.14621e-09
9.77108e-05
5.9902e-08
0.000249803
-1.77714e-07
2.54462e-09
-0.000249689
0.00115369
-5.09869e-08
9.90324e-07
-7.78316e-07
8.09394e-07
-9.59168e-07
-0.00115372
-2.86219e-08
7.58198e-08
0.000244774
9.20986e-09
-0.000244813
-1.4855e-08
0.00113306
-4.74728e-08
-1.20385e-06
2.64819e-07
-2.50876e-07
-8.73944e-07
2.55282e-07
-2.33227e-07
8.99183e-07
0.00115366
-5.01685e-08
-9.59559e-07
8.09026e-07
-7.78698e-07
9.89944e-07
3.88667e-08
0.00024483
-1.25115e-08
-0.000244782
-9.30549e-08
-4.05992e-08
0.000249684
1.50789e-07
-1.74598e-09
-0.000249792
-6.1928e-10
0.000228754
1.59363e-09
2.77608e-08
-0.000228723
0.000193005
-3.45044e-09
-0.000193024
0.000193043
3.72755e-09
-0.000193014
-3.2011e-10
0.000228714
-3.31336e-11
-1.87299e-08
-0.000228735
0.000228714
6.70596e-10
2.98773e-08
-0.000228685
-6.80467e-09
0.000192937
-2.42457e-09
-0.000192957
0.000192975
5.62402e-09
4.54365e-09
-0.000192947
0.000228675
-8.55061e-10
-2.08046e-08
-0.000228695
1.52407e-10
-4.11956e-08
1.51617e-07
4.52917e-10
0.00024972
-1.82607e-08
-4.44329e-08
1.2256e-06
-2.5016e-07
2.65367e-07
8.95972e-07
-2.33992e-07
-8.72265e-07
2.54463e-07
-0.0011537
-1.52942e-08
-4.61776e-08
-9.58254e-07
8.07823e-07
9.86245e-07
-7.79857e-07
3.81866e-08
-9.20191e-08
-0.000244905
-1.3255e-08
-1.90581e-09
-4.80946e-08
9.86801e-07
-7.7934e-07
-9.5777e-07
8.08409e-07
-2.93573e-08
8.27091e-09
7.68342e-08
0.000244897
-1.71939e-09
5.93432e-08
-0.000249725
-1.76734e-07
2.63553e-09
-4.10726e-08
1.51534e-07
-1.95979e-09
0.000249695
-1.43386e-08
-1.20415e-06
-4.55072e-08
8.98725e-07
-2.33592e-07
-8.74464e-07
2.54885e-07
1.22228e-06
-2.51147e-07
2.64591e-07
-0.00115363
0.00115361
-4.61462e-08
-9.60572e-07
8.0787e-07
-7.79733e-07
9.88861e-07
3.84315e-08
1.92956e-08
0.000244845
-9.23019e-08
-0.000244798
-1.25805e-08
-4.81265e-08
9.89397e-07
-7.79221e-07
-9.60082e-07
8.08464e-07
-2.90061e-08
-1.69833e-08
9.14875e-09
7.64521e-08
0.00024479
5.93028e-08
0.000249813
-0.0002497
-1.76752e-07
2.35454e-09
-2.95892e-10
-3.49562e-11
-1.89678e-08
0.000228732
0.000193061
-0.000193032
3.63408e-09
-3.6728e-09
0.000193023
-6.32794e-10
0.000228772
-0.000228741
1.53531e-09
2.75143e-08
-9.71967e-10
-2.10128e-08
0.000228694
5.74894e-09
0.000192993
-0.000192965
4.29489e-09
-6.64101e-09
-2.73114e-09
0.000192956
0.000228731
-0.000228703
7.61617e-10
2.96122e-08
9.76785e-05
-9.76985e-05
9.77075e-05
-9.7683e-05
9.76721e-05
-9.7692e-05
9.77016e-05
-9.76769e-05
0.000268036
-2.1221e-07
-2.14112e-07
1.75766e-08
-4.13078e-08
-0.000277433
9.64213e-09
1.87479e-08
-4.23108e-08
-0.000277353
8.67252e-09
-1.45393e-08
-7.73003e-09
3.34482e-08
0.000277421
-1.33447e-08
-9.95818e-09
3.01646e-08
0.000277343
9.77162e-05
-9.76918e-05
9.76875e-05
9.77106e-05
-9.76861e-05
9.76816e-05
1.40059e-08
9.77229e-05
1.39682e-08
9.77142e-05
1.61679e-08
3.32363e-08
-1.12146e-08
0.000277492
1.39883e-08
3.32571e-08
-8.64849e-09
0.000277426
3.13302e-08
-2.26337e-09
0.000192995
4.1734e-08
0.000228732
-1.70795e-08
-1.26e-09
7.98778e-08
8.12147e-09
0.000244921
-2.65992e-10
-4.20352e-08
9.88383e-07
-7.83403e-07
-9.61989e-07
8.09913e-07
3.72835e-11
0.000249756
1.191e-09
1.5262e-07
-1.73899e-08
7.93128e-08
9.46806e-09
0.000244818
-4.29294e-08
9.91205e-07
-7.83194e-07
-9.64122e-07
8.10067e-07
0.00024973
-1.54155e-09
1.52506e-07
3.04246e-08
-1.03011e-08
0.000277371
-1.43639e-08
3.36831e-08
-8.15905e-09
0.000277515
5.88387e-09
7.75658e-08
1.09043e-08
0.000244883
4.14071e-09
-4.94137e-08
9.90692e-07
-7.83534e-07
-9.64561e-07
8.09588e-07
1.44963e-09
0.000249738
-3.254e-11
1.52971e-07
2.9686e-08
-3.22918e-09
0.000192977
4.21502e-08
0.00022872
-1.72749e-08
-6.37311e-10
-4.97595e-08
9.90839e-07
-7.83552e-07
-9.64488e-07
8.09669e-07
-1.675e-08
7.51639e-08
8.83113e-09
0.0002448
0.000249711
1.5298e-07
-7.91696e-10
4.35125e-10
-0.000228776
2.70325e-08
-3.81001e-09
0.00019305
3.49719e-10
0.000228768
-2.42335e-10
-1.94982e-08
5.82479e-08
-0.00024972
-1.77961e-07
2.99962e-09
0.00115377
-6.11449e-08
9.8536e-07
-7.78082e-07
8.06949e-07
-9.56469e-07
-3.04586e-08
7.57344e-08
1.03041e-08
0.000244845
-8.53544e-09
-2.7557e-07
-1.24896e-06
2.64578e-07
-2.59201e-07
-8.68817e-07
2.55155e-07
-2.30575e-07
8.96674e-07
-4.23304e-08
0.000249715
1.52984e-07
-1.08117e-10
-9.29873e-08
-9.57042e-07
8.09135e-07
-7.81289e-07
9.87405e-07
3.70704e-08
-1.60514e-08
-0.000244852
-9.30243e-08
-0.000228736
2.49037e-08
1.76461e-09
-5.34358e-09
-4.81031e-09
0.00019299
0.000228729
-1.74763e-08
1.41718e-10
6.98196e-09
2.47032e-09
-0.000192997
2.87298e-08
-9.42826e-09
0.000277361
-1.39776e-08
3.09972e-08
-9.15716e-09
0.000277502
6.06952e-09
9.77199e-05
5.87105e-08
-0.000249709
-1.7577e-07
1.52097e-09
0.0011536
-5.05316e-08
9.88323e-07
-7.80425e-07
8.07289e-07
-9.6135e-07
-2.94687e-08
7.72668e-08
9.06509e-09
0.000244805
1.85848e-07
-6.13181e-08
-1.17245e-06
2.72372e-07
-2.4354e-07
-8.73341e-07
2.53413e-07
-2.35176e-07
8.97419e-07
-4.16935e-08
0.000249705
1.52496e-07
-2.11108e-09
-8.87629e-08
-9.59158e-07
8.06622e-07
-7.78306e-07
9.8776e-07
3.80436e-08
-1.26573e-08
-0.000244812
-9.15598e-08
-5.63735e-10
-0.000228758
1.45234e-09
2.72544e-08
-3.74551e-09
0.000193041
-3.2358e-10
0.00022875
1.02422e-10
-1.9223e-08
-0.00022872
7.00102e-10
2.93569e-08
-6.50931e-09
-3.01761e-09
0.000192973
0.000228711
-8.60017e-10
-2.12831e-08
5.94534e-09
3.92207e-09
-0.000192981
9.7696e-05
-9.77001e-05
9.76905e-05
-9.76947e-05
-8.78096e-10
1.74468e-08
0.000142907
-6.95162e-10
-0.000142923
-0.000170515
-1.26338e-10
-7.91568e-10
0.000170542
-0.000222778
2.52377e-08
3.10248e-09
0.000222813
-6.2344e-08
-1.68101e-08
4.32953e-10
-0.000228768
-9.64982e-10
4.10855e-08
-0.000170532
-8.03263e-10
-5.52839e-10
-0.000222804
4.44736e-08
1.13339e-09
0.000142931
-2.33775e-08
-7.90129e-05
7.90374e-05
-1.11289e-09
3.91899e-09
0.000193047
5.89752e-09
-3.87384e-08
0.00026246
-1.93102e-08
5.95548e-10
4.13718e-08
-0.000262486
0.000262499
-3.07198e-09
-5.51854e-08
7.08696e-10
-7.9033e-05
1.93507e-08
7.90174e-05
-0.000262473
2.33347e-08
0.000262511
-5.50388e-08
-3.50974e-09
-6.26181e-09
2.91375e-08
4.15164e-08
7.90419e-05
1.44893e-10
-2.52942e-08
-0.000142899
2.57481e-08
1.77035e-09
-8.42074e-10
-6.01528e-08
0.000170505
8.63039e-10
-8.14731e-10
-0.000170522
0.000222768
-1.73919e-08
4.43121e-08
-0.000222794
-8.13403e-10
-6.24946e-08
-0.000142915
9.77127e-05
-4.90476e-09
-2.19462e-08
7.25442e-09
1.50045e-08
1.7629e-08
-6.74195e-10
0.000142918
-7.29893e-10
-0.000142934
-0.000222774
2.50549e-08
2.92297e-09
0.000222809
-6.19913e-08
-0.000170526
-3.70489e-10
-2.81917e-10
0.000170552
8.20354e-11
-1.69723e-08
-0.00022876
-3.70169e-10
4.14472e-08
-7.25787e-10
-0.0002228
4.48127e-08
-0.000170543
-3.19764e-10
1.0521e-09
0.000142941
-2.32566e-08
-7.90208e-05
7.90452e-05
-1.1158e-09
3.80656e-09
0.000193038
6.04816e-09
-3.85637e-08
0.000262466
-1.94249e-08
6.91258e-10
4.15893e-08
-0.000262493
0.000262505
-2.96414e-09
-5.49651e-08
6.93529e-10
-7.90409e-05
1.94354e-08
7.9025e-05
-0.000262478
2.32707e-08
0.000262517
-5.48534e-08
-3.53094e-09
-6.17089e-09
2.92682e-08
4.17216e-08
7.90494e-05
-2.51044e-08
3.16252e-10
-0.00014291
1.45097e-09
2.55862e-08
-4.0341e-10
-5.97826e-08
0.000222765
-1.75754e-08
4.46672e-08
-0.000222791
0.000170517
7.2853e-10
-3.71479e-10
-0.000170534
-6.2158e-08
-3.28317e-10
-0.000142926
9.77005e-05
-5.82577e-09
-1.87121e-08
6.41751e-09
1.35515e-08