/*--------------------------------*- C++ -*----------------------------------*\
| =========                 |                                                 |
| \\      /  F ield         | OpenFOAM: The Open Source CFD Toolbox           |
|  \\    /   O peration     | Version:  2312                                  |
|   \\  /    A nd           | Website:  www.openfoam.com                      |
|    \\/     M anipulation  |                                                 |
\*---------------------------------------------------------------------------*/
FoamFile
{
    version     2.0;
    format      ascii;
    arch        "LSB;label=32;scalar=64";
    class       volScalarField;
    location    "550";
    object      k;
}
// * * * * * * * * * * * * * * * * * * * * * * * * * * * * * * * * * * * * * //

dimensions      [0 2 -2 0 0 0 0];

internalField   nonuniform List<scalar> 
43496
(
6.85733e-05
7.11957e-05
5.14162e-05
6.47966e-05
6.06267e-05
4.67098e-05
6.85717e-05
7.34407e-05
6.06251e-05
5.14113e-05
4.67104e-05
6.4792e-05
5.35373e-05
6.99399e-05
6.99376e-05
7.11944e-05
7.34444e-05
7.18503e-05
6.85646e-05
7.15991e-05
7.16288e-05
7.15912e-05
7.16199e-05
7.1861e-05
7.16831e-05
7.97875e-05
7.97799e-05
7.16975e-05
7.11838e-05
7.18492e-05
6.85631e-05
7.16283e-05
7.1594e-05
7.16194e-05
7.1586e-05
7.18598e-05
7.16812e-05
7.97682e-05
7.34296e-05
7.97604e-05
7.16955e-05
9.4981e-05
7.34964e-05
7.35026e-05
7.3483e-05
7.34891e-05
9.49834e-05
7.41992e-05
7.32791e-05
6.99369e-05
6.52488e-05
7.32704e-05
6.5236e-05
7.4204e-05
7.41509e-05
7.3273e-05
6.99339e-05
6.52444e-05
6.52316e-05
7.32605e-05
7.41565e-05
7.11826e-05
7.34337e-05
3.1904e-05
3.89081e-05
3.19093e-05
6.47852e-05
6.03801e-05
6.03725e-05
5.62985e-05
6.0613e-05
6.23201e-05
5.5009e-05
6.23079e-05
5.50261e-05
5.6286e-05
5.73942e-05
6.42048e-05
6.41944e-05
5.7379e-05
5.62954e-05
6.06115e-05
5.50078e-05
6.2316e-05
5.50248e-05
6.23038e-05
5.6283e-05
5.73903e-05
6.41971e-05
6.47818e-05
6.03701e-05
6.41868e-05
5.73753e-05
6.03714e-05
6.59262e-05
5.35342e-05
5.94792e-05
5.94818e-05
5.9477e-05
5.94744e-05
6.59336e-05
3.83865e-05
5.11093e-05
5.11129e-05
5.32993e-05
3.88042e-05
5.13551e-05
5.13586e-05
5.34946e-05
5.32909e-05
5.34427e-05
5.11095e-05
5.11044e-05
5.12957e-05
5.12913e-05
5.32891e-05
5.3441e-05
5.11068e-05
5.1108e-05
5.12932e-05
5.12941e-05
5.11089e-05
5.12948e-05
5.12934e-05
5.32923e-05
5.3444e-05
5.11062e-05
5.12991e-05
5.12931e-05
5.34313e-05
5.34866e-05
5.13553e-05
5.13497e-05
5.3485e-05
5.13528e-05
5.13538e-05
5.13559e-05
5.34874e-05
5.1352e-05
6.85139e-05
7.33595e-05
7.3384e-05
6.84875e-05
7.11139e-05
7.11402e-05
6.85129e-05
7.3361e-05
7.33856e-05
6.84865e-05
3.83858e-05
3.83913e-05
3.83898e-05
3.87021e-05
3.87018e-05
3.87066e-05
3.87049e-05
6.05235e-05
6.46951e-05
4.63282e-05
5.1172e-05
6.47258e-05
4.64083e-05
6.04747e-05
7.11152e-05
7.11412e-05
6.05238e-05
4.63321e-05
6.46957e-05
5.11762e-05
4.64117e-05
6.47271e-05
6.04751e-05
6.98613e-05
6.98697e-05
5.33335e-05
6.98793e-05
6.98881e-05
7.34177e-05
6.85504e-05
7.1169e-05
7.34206e-05
6.85499e-05
3.88035e-05
3.88089e-05
3.88075e-05
6.06288e-05
6.47675e-05
4.66382e-05
6.0585e-05
4.67116e-05
7.11703e-05
6.06289e-05
4.66421e-05
6.47683e-05
6.05852e-05
4.67148e-05
6.99166e-05
6.99251e-05
5.35205e-05
6.99329e-05
6.99417e-05
7.11128e-05
7.11388e-05
7.11157e-05
7.11418e-05
6.98648e-05
6.98728e-05
5.33451e-05
6.98842e-05
6.9892e-05
7.11663e-05
7.11405e-05
7.11692e-05
7.11435e-05
5.33891e-05
6.99116e-05
6.99195e-05
6.98931e-05
6.99011e-05
6.85134e-05
7.33552e-05
7.33817e-05
6.84848e-05
6.05237e-05
6.46937e-05
4.63274e-05
5.11728e-05
6.47246e-05
4.64072e-05
6.04748e-05
6.05223e-05
6.46901e-05
4.6325e-05
5.11681e-05
6.4721e-05
4.64052e-05
6.04734e-05
6.85197e-05
7.34141e-05
7.33895e-05
6.8545e-05
6.8517e-05
7.34113e-05
7.33853e-05
6.85445e-05
6.05316e-05
5.12351e-05
6.47604e-05
4.65622e-05
6.4731e-05
4.64858e-05
6.05778e-05
6.05301e-05
5.12298e-05
6.47566e-05
4.65602e-05
6.47273e-05
4.64833e-05
6.05763e-05
6.98656e-05
6.98667e-05
5.33434e-05
6.98833e-05
6.9885e-05
7.11141e-05
7.11402e-05
7.11676e-05
7.11417e-05
5.33874e-05
6.99106e-05
6.99122e-05
6.98939e-05
6.98949e-05
7.11676e-05
7.11419e-05
6.05214e-05
6.46957e-05
4.63268e-05
5.11702e-05
6.47267e-05
4.64065e-05
6.04761e-05
6.85114e-05
7.33566e-05
7.33816e-05
6.84851e-05
6.05199e-05
4.63275e-05
6.46919e-05
5.11713e-05
4.64072e-05
6.47225e-05
6.04749e-05
6.85188e-05
7.34153e-05
7.3391e-05
6.85441e-05
6.05331e-05
5.12326e-05
6.47624e-05
4.65615e-05
6.4733e-05
4.64853e-05
6.05755e-05
6.85174e-05
7.34116e-05
7.33859e-05
6.85425e-05
6.05317e-05
5.12336e-05
4.65621e-05
6.47585e-05
4.6486e-05
6.47292e-05
6.0574e-05
6.85126e-05
7.33588e-05
7.33852e-05
6.84845e-05
6.0523e-05
4.6329e-05
6.46905e-05
5.11712e-05
4.64083e-05
6.47215e-05
6.04743e-05
6.85134e-05
7.33555e-05
7.33819e-05
6.84849e-05
6.05315e-05
5.12349e-05
6.47615e-05
4.65632e-05
6.47322e-05
4.64866e-05
6.05775e-05
6.85167e-05
7.34147e-05
7.33888e-05
6.85435e-05
6.05309e-05
5.1235e-05
4.65631e-05
6.47573e-05
4.64875e-05
6.47277e-05
6.0577e-05
6.85171e-05
7.34115e-05
7.33855e-05
6.85444e-05
6.98685e-05
6.98653e-05
5.33464e-05
6.98864e-05
6.98846e-05
7.11139e-05
7.114e-05
7.11686e-05
7.1143e-05
5.33904e-05
6.99138e-05
6.99119e-05
6.98967e-05
6.98936e-05
7.11674e-05
7.11417e-05
6.05207e-05
4.6329e-05
6.46934e-05
5.11701e-05
4.64084e-05
6.4724e-05
6.04723e-05
6.85123e-05
7.33607e-05
7.33852e-05
6.84842e-05
6.85083e-05
7.33583e-05
7.33828e-05
6.84805e-05
6.05318e-05
5.12385e-05
4.65666e-05
6.47627e-05
4.64904e-05
6.4733e-05
6.05778e-05
6.05289e-05
5.12318e-05
4.65633e-05
6.47597e-05
4.64874e-05
6.47306e-05
6.05747e-05
6.85163e-05
7.34149e-05
7.33907e-05
6.85432e-05
6.85127e-05
7.34129e-05
7.33882e-05
6.85392e-05
7.11136e-05
7.11397e-05
7.11165e-05
7.11425e-05
5.33977e-05
6.99067e-05
6.99154e-05
6.98896e-05
6.9898e-05
7.11671e-05
7.11414e-05
7.11699e-05
7.11442e-05
7.11678e-05
7.11709e-05
6.992e-05
6.99282e-05
7.34147e-05
6.85475e-05
6.47666e-05
4.66375e-05
6.05851e-05
6.47628e-05
4.6635e-05
6.05836e-05
6.99207e-05
6.9922e-05
7.11692e-05
6.47686e-05
4.6637e-05
6.05869e-05
7.34152e-05
6.85482e-05
4.66376e-05
6.47645e-05
6.05854e-05
6.85727e-05
7.34182e-05
6.85473e-05
6.06285e-05
4.66392e-05
6.47631e-05
5.14097e-05
6.05844e-05
4.6711e-05
6.47909e-05
6.85736e-05
7.34149e-05
6.85477e-05
7.34406e-05
6.99237e-05
6.99207e-05
7.1169e-05
6.0626e-05
4.66391e-05
6.4766e-05
5.14108e-05
6.05824e-05
4.67115e-05
6.47934e-05
6.85724e-05
7.342e-05
6.85469e-05
6.85685e-05
7.34165e-05
6.85434e-05
7.34422e-05
7.11687e-05
7.11941e-05
7.11715e-05
7.11969e-05
7.17931e-05
7.15701e-05
7.15455e-05
6.85038e-05
7.15607e-05
7.15365e-05
7.18026e-05
7.16306e-05
7.33691e-05
7.97181e-05
7.97263e-05
7.16161e-05
7.16296e-05
7.97394e-05
7.33745e-05
7.97313e-05
7.16441e-05
7.1788e-05
6.84979e-05
7.15458e-05
7.15217e-05
7.15554e-05
7.1531e-05
7.17784e-05
7.11263e-05
7.11279e-05
7.1793e-05
7.15436e-05
7.15701e-05
6.85029e-05
7.15346e-05
7.15607e-05
7.18024e-05
7.16307e-05
7.33707e-05
7.97156e-05
7.9724e-05
7.16161e-05
7.16297e-05
7.97373e-05
7.3376e-05
7.97289e-05
7.16442e-05
7.17879e-05
6.84969e-05
7.15196e-05
7.15457e-05
7.1529e-05
7.15553e-05
7.17783e-05
7.11273e-05
7.11291e-05
9.49251e-05
7.3453e-05
7.34464e-05
7.34393e-05
7.34327e-05
9.49278e-05
7.40728e-05
6.51177e-05
6.98652e-05
7.31899e-05
6.51317e-05
7.31992e-05
7.40683e-05
7.41208e-05
6.51258e-05
6.98739e-05
7.31997e-05
6.51403e-05
7.3209e-05
7.41163e-05
7.40855e-05
7.32136e-05
6.98756e-05
6.51548e-05
6.51411e-05
7.32044e-05
7.409e-05
7.41335e-05
7.32234e-05
6.9884e-05
6.51634e-05
6.51492e-05
7.32142e-05
7.41379e-05
9.49131e-05
7.34266e-05
7.342e-05
7.34403e-05
7.34336e-05
9.49103e-05
7.16841e-05
7.97696e-05
7.34291e-05
7.16697e-05
7.97775e-05
7.18454e-05
6.85602e-05
7.16053e-05
7.15793e-05
7.18364e-05
7.16142e-05
7.15875e-05
7.11812e-05
7.16843e-05
7.97676e-05
7.34295e-05
7.16699e-05
7.97753e-05
7.18456e-05
6.85591e-05
7.15778e-05
7.16054e-05
7.18362e-05
7.15861e-05
7.16146e-05
7.11822e-05
9.49816e-05
7.35031e-05
7.34965e-05
7.34897e-05
7.34831e-05
9.49839e-05
7.41386e-05
6.52076e-05
7.32473e-05
6.99199e-05
7.41348e-05
6.522e-05
7.32563e-05
7.41864e-05
6.52156e-05
7.32571e-05
6.99286e-05
7.41827e-05
6.52286e-05
7.3266e-05
9.49702e-05
7.34772e-05
7.34706e-05
9.4968e-05
7.34907e-05
7.34841e-05
7.41501e-05
7.32703e-05
6.99296e-05
6.52405e-05
6.52285e-05
7.3261e-05
7.41549e-05
7.41981e-05
7.32797e-05
6.99381e-05
6.52491e-05
6.52366e-05
7.32711e-05
7.42027e-05
7.1125e-05
7.11267e-05
7.11279e-05
7.11297e-05
9.49284e-05
7.34528e-05
7.3446e-05
7.3439e-05
7.34323e-05
9.49316e-05
7.40756e-05
6.51206e-05
6.987e-05
7.31892e-05
7.32019e-05
6.51331e-05
7.407e-05
7.41215e-05
6.51271e-05
6.98777e-05
7.31984e-05
7.3211e-05
6.5141e-05
7.41161e-05
7.40873e-05
7.32163e-05
6.98792e-05
6.51562e-05
7.32039e-05
7.40927e-05
6.5144e-05
7.41335e-05
7.32255e-05
6.98871e-05
6.51642e-05
7.3213e-05
7.41388e-05
6.51505e-05
9.49169e-05
7.34262e-05
7.34195e-05
7.344e-05
7.34332e-05
9.49136e-05
7.11542e-05
7.11526e-05
7.11572e-05
7.11556e-05
9.4946e-05
7.34518e-05
7.3445e-05
9.4943e-05
7.34655e-05
7.34587e-05
7.41204e-05
6.52005e-05
6.99067e-05
7.3245e-05
7.32324e-05
6.51891e-05
7.41257e-05
7.41665e-05
6.52085e-05
6.99148e-05
7.32542e-05
7.32417e-05
6.51956e-05
7.41719e-05
7.41094e-05
7.32184e-05
6.51668e-05
6.98978e-05
7.41041e-05
7.32306e-05
6.51785e-05
7.41556e-05
7.32276e-05
6.51733e-05
6.99057e-05
7.41502e-05
7.32398e-05
6.51866e-05
9.49573e-05
7.34781e-05
7.34713e-05
7.34644e-05
7.34577e-05
9.49603e-05
7.17901e-05
7.15698e-05
7.15418e-05
6.85009e-05
7.15602e-05
7.15293e-05
7.18038e-05
7.163e-05
7.33668e-05
7.96995e-05
7.97083e-05
7.16155e-05
7.1629e-05
7.97214e-05
7.33703e-05
7.97128e-05
7.16435e-05
7.17893e-05
6.84974e-05
7.1545e-05
7.15148e-05
7.15553e-05
7.15272e-05
7.17752e-05
7.1817e-05
7.15756e-05
7.1551e-05
6.85297e-05
7.18076e-05
7.15852e-05
7.15601e-05
7.16565e-05
7.34038e-05
7.9765e-05
7.16709e-05
7.97572e-05
7.16575e-05
7.97443e-05
7.33992e-05
7.16431e-05
7.97523e-05
7.18222e-05
6.85352e-05
7.16e-05
7.15741e-05
7.18317e-05
7.15904e-05
7.15652e-05
7.18184e-05
7.15751e-05
7.15441e-05
6.85291e-05
7.18047e-05
7.15848e-05
7.15562e-05
7.16559e-05
7.34e-05
7.97469e-05
7.97386e-05
7.16703e-05
7.1657e-05
7.97258e-05
7.33965e-05
7.16425e-05
7.97342e-05
7.1819e-05
6.85326e-05
7.15995e-05
7.15705e-05
7.15901e-05
7.15584e-05
7.18328e-05
9.49274e-05
7.34468e-05
7.34529e-05
7.34331e-05
7.34391e-05
9.49295e-05
7.41213e-05
6.51243e-05
6.9869e-05
7.31982e-05
7.32085e-05
6.51374e-05
7.41166e-05
7.40744e-05
6.51209e-05
6.98708e-05
7.31917e-05
6.51344e-05
7.32015e-05
7.40702e-05
7.41338e-05
7.32224e-05
6.98799e-05
6.51605e-05
7.32131e-05
6.51477e-05
7.41383e-05
7.40874e-05
7.32156e-05
6.9881e-05
6.51575e-05
6.51443e-05
7.32063e-05
7.40916e-05
9.49148e-05
7.34203e-05
7.34263e-05
7.3434e-05
7.34401e-05
9.49127e-05
7.11264e-05
7.1128e-05
7.11554e-05
7.1154e-05
9.49439e-05
7.34458e-05
7.34518e-05
9.49419e-05
7.34595e-05
7.34655e-05
7.4167e-05
6.52046e-05
6.99076e-05
7.32509e-05
6.51926e-05
7.32419e-05
7.4171e-05
7.41206e-05
6.52017e-05
6.99086e-05
7.32442e-05
7.32351e-05
6.51891e-05
7.41244e-05
7.41549e-05
7.32276e-05
6.51705e-05
6.98971e-05
6.51828e-05
7.41506e-05
7.3237e-05
7.41081e-05
7.32208e-05
6.51669e-05
6.98987e-05
7.41042e-05
7.32301e-05
6.51798e-05
9.49563e-05
7.3472e-05
7.34781e-05
7.34584e-05
7.34644e-05
9.49581e-05
7.11556e-05
7.1154e-05
7.17916e-05
7.15695e-05
7.15385e-05
6.85015e-05
7.15601e-05
7.15294e-05
7.1801e-05
7.16287e-05
7.33664e-05
7.96962e-05
7.97046e-05
7.16142e-05
7.16278e-05
7.97178e-05
7.33712e-05
7.97094e-05
7.16423e-05
7.17865e-05
6.84954e-05
7.15452e-05
7.15146e-05
7.15547e-05
7.15239e-05
7.17769e-05
7.18169e-05
7.15492e-05
7.15755e-05
6.85288e-05
7.18075e-05
7.15583e-05
7.15852e-05
7.16566e-05
7.34059e-05
7.97629e-05
7.1671e-05
7.97551e-05
7.16577e-05
7.9742e-05
7.34007e-05
7.16432e-05
7.97502e-05
7.18221e-05
6.85345e-05
7.15725e-05
7.16e-05
7.18316e-05
7.15636e-05
7.15904e-05
7.18155e-05
7.1575e-05
7.15441e-05
6.85273e-05
7.18061e-05
7.15846e-05
7.15532e-05
7.16547e-05
7.34003e-05
7.97435e-05
7.97355e-05
7.16691e-05
7.16557e-05
7.97226e-05
7.33967e-05
7.16413e-05
7.97308e-05
7.18207e-05
6.8533e-05
7.15993e-05
7.15671e-05
7.159e-05
7.15585e-05
7.183e-05
7.1789e-05
7.1541e-05
7.15709e-05
6.85007e-05
7.153e-05
7.15583e-05
7.18035e-05
7.16297e-05
7.33702e-05
7.97131e-05
7.97171e-05
7.16145e-05
7.16281e-05
7.97302e-05
7.33738e-05
7.97263e-05
7.16432e-05
7.17889e-05
6.84966e-05
7.15152e-05
7.15436e-05
7.15263e-05
7.1556e-05
7.17744e-05
7.1792e-05
7.15711e-05
7.15398e-05
6.85011e-05
7.15585e-05
7.15308e-05
7.18014e-05
7.16294e-05
7.3367e-05
7.9696e-05
7.97043e-05
7.16148e-05
7.16284e-05
7.97174e-05
7.33705e-05
7.97092e-05
7.16429e-05
7.17869e-05
6.84974e-05
7.15436e-05
7.1516e-05
7.1556e-05
7.15253e-05
7.17773e-05
7.1818e-05
7.15447e-05
7.15734e-05
6.85283e-05
7.18037e-05
7.15555e-05
7.1586e-05
7.16549e-05
7.34035e-05
7.97557e-05
7.97519e-05
7.16699e-05
7.16566e-05
7.97393e-05
7.34e-05
7.16416e-05
7.97431e-05
7.18182e-05
6.85323e-05
7.15694e-05
7.16007e-05
7.15589e-05
7.15882e-05
7.18321e-05
7.18158e-05
7.15737e-05
7.15453e-05
6.85292e-05
7.18064e-05
7.15861e-05
7.15543e-05
7.16552e-05
7.34002e-05
7.97429e-05
7.97348e-05
7.16696e-05
7.16563e-05
7.97222e-05
7.33968e-05
7.16419e-05
7.97303e-05
7.1821e-05
6.85326e-05
7.16008e-05
7.15684e-05
7.15885e-05
7.15593e-05
7.18304e-05
9.49244e-05
7.34462e-05
7.34524e-05
7.34326e-05
7.34387e-05
9.49269e-05
7.4122e-05
6.5125e-05
6.98723e-05
7.31989e-05
7.32084e-05
6.514e-05
7.41174e-05
7.40751e-05
6.5121e-05
6.98704e-05
7.31893e-05
6.51353e-05
7.32018e-05
7.40691e-05
7.41346e-05
7.32227e-05
6.98827e-05
6.5163e-05
7.32135e-05
6.51485e-05
7.4139e-05
7.40863e-05
7.32163e-05
6.98797e-05
6.51584e-05
6.51443e-05
7.3204e-05
7.40921e-05
9.49122e-05
7.34198e-05
7.34259e-05
7.34335e-05
7.34396e-05
9.49096e-05
7.11261e-05
7.11279e-05
7.11567e-05
7.1155e-05
9.49413e-05
7.34453e-05
7.34514e-05
9.49389e-05
7.34589e-05
7.34651e-05
7.41679e-05
6.52072e-05
6.99104e-05
7.32513e-05
6.51935e-05
7.32423e-05
7.41718e-05
7.41194e-05
6.52027e-05
6.99072e-05
7.32448e-05
7.32325e-05
6.51891e-05
7.4125e-05
7.41556e-05
7.3228e-05
6.51712e-05
6.99004e-05
6.51854e-05
7.41514e-05
7.32373e-05
7.41089e-05
7.32184e-05
6.5167e-05
6.98982e-05
7.41031e-05
7.32306e-05
6.51807e-05
9.49532e-05
7.34715e-05
7.34777e-05
7.34579e-05
7.34641e-05
9.49555e-05
7.11554e-05
7.11538e-05
7.17908e-05
7.15462e-05
7.15707e-05
6.85003e-05
7.15338e-05
7.15581e-05
7.18046e-05
7.16308e-05
7.33703e-05
7.97143e-05
7.9723e-05
7.16163e-05
7.16299e-05
7.97361e-05
7.33757e-05
7.97275e-05
7.16444e-05
7.17901e-05
6.84963e-05
7.15192e-05
7.15435e-05
7.15316e-05
7.15559e-05
7.17759e-05
7.17911e-05
7.15362e-05
7.15698e-05
6.84968e-05
7.15273e-05
7.15571e-05
7.18006e-05
7.16301e-05
7.33679e-05
7.96975e-05
7.97058e-05
7.16155e-05
7.1629e-05
7.97189e-05
7.33733e-05
7.97107e-05
7.16436e-05
7.17862e-05
6.84923e-05
7.15124e-05
7.15424e-05
7.15217e-05
7.15549e-05
7.17765e-05
7.1819e-05
7.15486e-05
7.15732e-05
6.8528e-05
7.18054e-05
7.15607e-05
7.15858e-05
7.16568e-05
7.34055e-05
7.97616e-05
7.97533e-05
7.16711e-05
7.16578e-05
7.97406e-05
7.34002e-05
7.16434e-05
7.97489e-05
7.18199e-05
6.85318e-05
7.15746e-05
7.16004e-05
7.15628e-05
7.1588e-05
7.18333e-05
7.1815e-05
7.15418e-05
7.15721e-05
6.8524e-05
7.18055e-05
7.15508e-05
7.15848e-05
7.16559e-05
7.34024e-05
7.97445e-05
7.97366e-05
7.16703e-05
7.1657e-05
7.97238e-05
7.3398e-05
7.16425e-05
7.97318e-05
7.18201e-05
6.85283e-05
7.15647e-05
7.15995e-05
7.15561e-05
7.15869e-05
7.18295e-05
7.11258e-05
7.11276e-05
7.11286e-05
7.11304e-05
9.49422e-05
7.34521e-05
7.34454e-05
9.49396e-05
7.34657e-05
7.3459e-05
7.41186e-05
6.51989e-05
6.99033e-05
7.32423e-05
7.41229e-05
6.51859e-05
7.32332e-05
7.41666e-05
6.52076e-05
6.99117e-05
7.32521e-05
7.41708e-05
6.51942e-05
7.3243e-05
7.41065e-05
7.32189e-05
6.51638e-05
6.98933e-05
7.41023e-05
6.51772e-05
7.32283e-05
7.41544e-05
7.32287e-05
6.51719e-05
6.99018e-05
7.41503e-05
6.51858e-05
7.3238e-05
9.49539e-05
7.34782e-05
7.34716e-05
9.49564e-05
7.34647e-05
7.34581e-05
7.11551e-05
7.11535e-05
7.11579e-05
7.11562e-05
7.11799e-05
7.11828e-05
7.41418e-05
6.52107e-05
7.32466e-05
6.99251e-05
7.41364e-05
7.32593e-05
6.52217e-05
7.4188e-05
6.52171e-05
7.32559e-05
6.9933e-05
7.41824e-05
7.32686e-05
6.52299e-05
9.49744e-05
7.3477e-05
7.34702e-05
9.49714e-05
7.34906e-05
7.34838e-05
7.16835e-05
7.97511e-05
7.34261e-05
7.16692e-05
7.97594e-05
7.18472e-05
6.85595e-05
7.16047e-05
7.1572e-05
7.16148e-05
7.18332e-05
7.15844e-05
7.41869e-05
6.52142e-05
7.32556e-05
6.9925e-05
7.32656e-05
7.4183e-05
6.5226e-05
7.41402e-05
6.52106e-05
7.32493e-05
6.99253e-05
6.52229e-05
7.41366e-05
7.3258e-05
9.4972e-05
7.34709e-05
7.3477e-05
7.34846e-05
9.49704e-05
7.34906e-05
7.16823e-05
7.9748e-05
7.34262e-05
7.1668e-05
7.9756e-05
7.18444e-05
6.85576e-05
7.16047e-05
7.15724e-05
7.16141e-05
7.18349e-05
7.1581e-05
7.1847e-05
6.85619e-05
7.163e-05
7.15862e-05
7.16173e-05
7.16832e-05
7.97645e-05
7.34294e-05
7.97684e-05
7.16682e-05
7.18466e-05
6.85583e-05
7.15728e-05
7.1603e-05
7.1583e-05
7.18327e-05
7.16152e-05
7.16814e-05
7.18494e-05
6.85622e-05
7.16301e-05
7.1596e-05
7.16176e-05
7.15846e-05
7.18587e-05
7.16828e-05
7.97473e-05
7.34261e-05
7.16685e-05
7.97553e-05
7.18447e-05
6.85591e-05
7.16033e-05
7.15726e-05
7.18351e-05
7.16154e-05
7.15823e-05
7.16817e-05
7.97674e-05
7.34293e-05
7.97595e-05
7.1696e-05
7.41876e-05
6.5215e-05
7.32563e-05
6.99272e-05
7.32655e-05
7.41838e-05
6.52283e-05
7.41409e-05
6.52106e-05
7.32469e-05
6.99248e-05
6.52237e-05
7.41355e-05
7.32589e-05
9.49695e-05
7.34705e-05
7.34766e-05
7.3484e-05
9.49672e-05
7.34902e-05
7.1181e-05
7.1848e-05
6.85615e-05
7.16015e-05
7.16297e-05
7.15898e-05
7.1617e-05
7.18626e-05
7.16843e-05
7.97659e-05
7.34297e-05
7.9774e-05
7.167e-05
7.18478e-05
6.85579e-05
7.15767e-05
7.16028e-05
7.15881e-05
7.18343e-05
7.1615e-05
7.16832e-05
7.97861e-05
7.97781e-05
7.16975e-05
7.18484e-05
6.8558e-05
7.15914e-05
7.16286e-05
7.15835e-05
7.16159e-05
7.18579e-05
7.16835e-05
7.97491e-05
7.34278e-05
7.16691e-05
7.97569e-05
7.18438e-05
6.8554e-05
7.157e-05
7.16017e-05
7.18341e-05
7.15785e-05
7.1614e-05
7.16823e-05
7.97689e-05
7.34311e-05
7.97614e-05
7.16967e-05
7.11807e-05
7.11822e-05
7.11835e-05
7.11851e-05
3.12707e-05
3.12684e-05
3.84933e-05
3.14012e-05
3.13986e-05
2.22642e-05
2.21129e-05
6.58119e-05
5.93053e-05
5.93049e-05
5.32835e-05
5.9305e-05
5.93043e-05
6.58065e-05
3.17833e-05
3.17809e-05
2.28621e-05
2.27142e-05
6.59077e-05
5.94424e-05
5.94433e-05
5.34778e-05
6.59032e-05
5.94412e-05
5.94423e-05
6.58144e-05
5.93028e-05
5.93041e-05
5.32956e-05
5.93105e-05
5.93095e-05
6.58074e-05
6.58812e-05
5.34388e-05
5.94137e-05
5.94137e-05
5.94097e-05
5.94093e-05
6.58881e-05
6.58139e-05
5.93009e-05
5.93037e-05
5.32938e-05
5.93093e-05
5.93065e-05
6.58069e-05
6.58802e-05
5.34371e-05
5.94104e-05
5.94134e-05
5.94066e-05
5.94088e-05
6.58874e-05
6.58148e-05
5.93029e-05
5.93055e-05
5.3297e-05
5.93111e-05
5.93086e-05
6.5807e-05
6.58805e-05
5.34401e-05
5.94126e-05
5.94152e-05
5.94086e-05
5.94105e-05
6.58878e-05
6.588e-05
5.34479e-05
5.94088e-05
5.94107e-05
6.5885e-05
5.94087e-05
5.94106e-05
6.59116e-05
5.94432e-05
5.94433e-05
5.34898e-05
6.59041e-05
5.94478e-05
5.94481e-05
6.59109e-05
5.944e-05
5.94429e-05
5.34878e-05
5.94477e-05
6.59033e-05
5.94449e-05
6.59106e-05
5.94415e-05
5.9444e-05
5.34903e-05
5.94479e-05
6.59039e-05
5.94453e-05
3.12701e-05
3.12699e-05
3.8493e-05
3.14009e-05
3.13996e-05
2.22647e-05
2.21134e-05
3.12742e-05
3.12742e-05
3.84979e-05
3.14042e-05
3.14047e-05
2.22683e-05
2.2117e-05
3.12755e-05
3.12726e-05
3.84962e-05
3.14046e-05
3.14043e-05
2.2269e-05
2.21172e-05
3.85988e-05
3.16575e-05
3.16548e-05
3.15304e-05
3.15282e-05
2.24152e-05
2.25649e-05
3.85981e-05
3.16572e-05
3.16558e-05
3.15297e-05
3.15297e-05
2.24158e-05
2.25654e-05
3.86037e-05
3.16603e-05
3.16609e-05
3.15339e-05
3.15338e-05
2.24194e-05
2.2569e-05
3.86021e-05
3.16606e-05
3.16607e-05
3.15353e-05
3.1532e-05
2.24195e-05
2.25697e-05
5.614e-05
6.22259e-05
5.48509e-05
6.05034e-05
6.2207e-05
5.48463e-05
5.61349e-05
5.72149e-05
6.02291e-05
6.47072e-05
6.40849e-05
6.02302e-05
6.4099e-05
5.72114e-05
5.7248e-05
6.41214e-05
6.47138e-05
6.02605e-05
6.02594e-05
6.41076e-05
5.72511e-05
5.60928e-05
6.0495e-05
6.21813e-05
5.47999e-05
6.22002e-05
5.48048e-05
5.60979e-05
5.61405e-05
5.4852e-05
6.22288e-05
6.05038e-05
5.48474e-05
6.22093e-05
5.6137e-05
5.72179e-05
6.02276e-05
6.47085e-05
6.40875e-05
6.02366e-05
6.41021e-05
5.72143e-05
5.72507e-05
6.41243e-05
6.47145e-05
6.02667e-05
6.02583e-05
6.41099e-05
5.7254e-05
5.60945e-05
6.04954e-05
5.4801e-05
6.21837e-05
5.4806e-05
6.22032e-05
5.60976e-05
6.58317e-05
5.33491e-05
5.93396e-05
5.93399e-05
5.93394e-05
5.93407e-05
6.5837e-05
3.17826e-05
3.17826e-05
3.1905e-05
2.28626e-05
2.27148e-05
3.17866e-05
3.17866e-05
3.19103e-05
2.28661e-05
2.27183e-05
3.17883e-05
3.17844e-05
3.89074e-05
3.19094e-05
3.1911e-05
2.28669e-05
2.27184e-05
5.62968e-05
6.06107e-05
6.23222e-05
5.50194e-05
6.23047e-05
5.50163e-05
5.62915e-05
5.73573e-05
6.03454e-05
6.41728e-05
6.47786e-05
5.73545e-05
6.03485e-05
6.41846e-05
5.62533e-05
6.06033e-05
6.22819e-05
5.49743e-05
5.62593e-05
6.22991e-05
5.49781e-05
5.62988e-05
6.06108e-05
5.50203e-05
6.2325e-05
5.50171e-05
6.23068e-05
5.62937e-05
5.73596e-05
6.03447e-05
6.41748e-05
6.47799e-05
5.7357e-05
6.03526e-05
6.41878e-05
5.62552e-05
6.06035e-05
5.49751e-05
6.22841e-05
5.6261e-05
5.4979e-05
6.23019e-05
5.73901e-05
6.42076e-05
6.41948e-05
5.73923e-05
6.5926e-05
5.35407e-05
5.94716e-05
5.9473e-05
5.94759e-05
5.94767e-05
6.59304e-05
6.58329e-05
5.33411e-05
5.93462e-05
5.93446e-05
6.58397e-05
5.93392e-05
5.93397e-05
6.58639e-05
5.33931e-05
5.93738e-05
5.93743e-05
6.58572e-05
5.93796e-05
5.93792e-05
5.61412e-05
6.22254e-05
5.48501e-05
6.05035e-05
6.2211e-05
5.48459e-05
5.61329e-05
5.7208e-05
6.02279e-05
6.4706e-05
6.40869e-05
6.40996e-05
6.02291e-05
5.72185e-05
5.72547e-05
6.41219e-05
6.47126e-05
6.02596e-05
6.41098e-05
6.02586e-05
5.72445e-05
5.60911e-05
6.04953e-05
6.2185e-05
5.48002e-05
6.21998e-05
5.48041e-05
5.60994e-05
5.61326e-05
6.22228e-05
5.48485e-05
6.05021e-05
6.22031e-05
5.4844e-05
5.61296e-05
5.72086e-05
6.02213e-05
6.47024e-05
6.40783e-05
6.40929e-05
6.02303e-05
5.7205e-05
5.72415e-05
6.41151e-05
6.47089e-05
6.02604e-05
6.41008e-05
5.72447e-05
6.0252e-05
5.60866e-05
6.04939e-05
6.21776e-05
5.47979e-05
6.21972e-05
5.48028e-05
5.60889e-05
5.61737e-05
6.22365e-05
5.48891e-05
6.05512e-05
5.6182e-05
6.22508e-05
5.48932e-05
5.73263e-05
6.03194e-05
6.47491e-05
6.41651e-05
6.03182e-05
6.41539e-05
5.73156e-05
5.72797e-05
6.41317e-05
6.0288e-05
6.47427e-05
6.02893e-05
5.72909e-05
6.41439e-05
5.6222e-05
6.05589e-05
6.2275e-05
5.49361e-05
6.22614e-05
5.49324e-05
5.62135e-05
5.61702e-05
6.22289e-05
5.48871e-05
6.05497e-05
5.61743e-05
6.2248e-05
5.48913e-05
5.73128e-05
6.03184e-05
6.47452e-05
6.41582e-05
6.41446e-05
6.03108e-05
5.73159e-05
5.72807e-05
6.41229e-05
6.02814e-05
6.4739e-05
5.72778e-05
6.41368e-05
6.02892e-05
5.62146e-05
6.05574e-05
6.22727e-05
5.49342e-05
6.22538e-05
5.49303e-05
5.621e-05
6.58322e-05
5.33394e-05
5.93426e-05
5.93444e-05
5.93399e-05
5.93359e-05
6.58391e-05
6.58637e-05
5.33915e-05
5.93708e-05
5.9374e-05
5.93762e-05
6.58564e-05
5.93786e-05
5.61422e-05
6.2224e-05
5.48418e-05
6.05052e-05
6.22097e-05
5.48548e-05
5.61309e-05
5.72067e-05
6.02293e-05
6.4708e-05
6.40858e-05
6.40988e-05
6.02305e-05
5.72173e-05
5.72534e-05
6.41212e-05
6.47146e-05
6.02611e-05
6.41088e-05
6.026e-05
5.72431e-05
5.60895e-05
6.0493e-05
6.21836e-05
5.48078e-05
6.21983e-05
5.4796e-05
5.61007e-05
5.6138e-05
5.48402e-05
6.22199e-05
6.05038e-05
5.48533e-05
6.22056e-05
5.61266e-05
5.72027e-05
6.0226e-05
6.47039e-05
6.4079e-05
6.40916e-05
6.02274e-05
5.72129e-05
5.72491e-05
6.41138e-05
6.47108e-05
6.02579e-05
6.41016e-05
5.72392e-05
6.02565e-05
5.6085e-05
6.04916e-05
5.48064e-05
6.21796e-05
5.47946e-05
6.21944e-05
5.60963e-05
5.61717e-05
6.22353e-05
5.48976e-05
6.05489e-05
5.61829e-05
6.22495e-05
5.48846e-05
5.73245e-05
6.03191e-05
6.47513e-05
6.41646e-05
6.03193e-05
6.41531e-05
5.73144e-05
5.72782e-05
6.41307e-05
6.02894e-05
6.47448e-05
6.02905e-05
5.72896e-05
6.41433e-05
5.62227e-05
6.05604e-05
6.22738e-05
5.49274e-05
6.22603e-05
5.4941e-05
5.62114e-05
5.61681e-05
5.48962e-05
6.22311e-05
6.05475e-05
5.61791e-05
5.48833e-05
6.22454e-05
5.73204e-05
6.03163e-05
6.47472e-05
6.41571e-05
6.41456e-05
6.03157e-05
5.73105e-05
5.72743e-05
6.41237e-05
6.0286e-05
6.47407e-05
5.72853e-05
6.41358e-05
6.02873e-05
5.62192e-05
6.05589e-05
5.49259e-05
6.22697e-05
5.49395e-05
6.22561e-05
5.62081e-05
5.61391e-05
5.485e-05
6.22219e-05
6.05029e-05
5.48457e-05
6.22074e-05
5.61309e-05
5.72042e-05
6.02217e-05
6.4703e-05
6.40796e-05
6.02304e-05
6.40921e-05
5.72145e-05
5.72506e-05
6.41144e-05
6.47093e-05
6.02606e-05
6.02525e-05
6.41025e-05
5.72412e-05
5.60892e-05
6.04947e-05
5.47998e-05
6.21815e-05
5.48042e-05
6.21963e-05
5.60973e-05
5.61753e-05
6.22327e-05
5.48896e-05
6.05508e-05
5.61808e-05
6.2251e-05
5.48938e-05
5.73193e-05
6.03193e-05
6.47502e-05
6.41642e-05
5.73222e-05
6.03181e-05
6.41518e-05
5.72872e-05
6.41298e-05
6.0289e-05
6.47439e-05
5.72844e-05
6.02903e-05
6.41428e-05
5.62205e-05
6.05587e-05
6.22758e-05
5.49367e-05
5.62147e-05
6.22576e-05
5.49329e-05
5.6172e-05
5.48889e-05
6.22325e-05
6.05505e-05
5.61797e-05
5.48931e-05
6.22474e-05
5.73185e-05
6.03189e-05
6.47454e-05
6.41579e-05
6.41449e-05
6.03107e-05
5.73174e-05
5.7278e-05
6.41243e-05
6.02816e-05
6.47396e-05
5.72854e-05
6.41366e-05
6.02894e-05
5.62195e-05
6.05581e-05
5.49361e-05
6.22723e-05
5.49322e-05
6.22553e-05
5.62121e-05
6.58322e-05
5.33425e-05
5.93448e-05
5.93461e-05
5.93416e-05
5.93378e-05
6.58397e-05
6.5864e-05
5.33945e-05
5.93726e-05
5.93757e-05
5.93786e-05
6.58566e-05
5.93804e-05
5.61376e-05
5.48491e-05
6.22194e-05
6.05009e-05
5.48448e-05
6.2205e-05
5.61293e-05
5.72036e-05
6.02275e-05
6.47054e-05
6.40799e-05
6.02286e-05
6.40919e-05
5.7214e-05
5.72501e-05
6.41143e-05
6.47123e-05
6.02591e-05
6.0258e-05
6.41024e-05
5.72401e-05
5.60876e-05
6.04924e-05
5.4799e-05
6.21791e-05
5.48033e-05
6.21938e-05
5.60958e-05
5.61774e-05
5.48906e-05
6.2235e-05
6.05511e-05
5.6182e-05
5.48947e-05
6.22539e-05
5.73218e-05
6.03248e-05
6.47509e-05
6.41674e-05
5.73248e-05
6.03166e-05
6.41536e-05
5.729e-05
6.41321e-05
6.02876e-05
6.4745e-05
5.7287e-05
6.02954e-05
6.4146e-05
5.62219e-05
6.0559e-05
5.49376e-05
6.22787e-05
5.62168e-05
5.49338e-05
6.22598e-05
5.617e-05
5.4888e-05
6.22305e-05
6.05481e-05
5.61783e-05
5.48922e-05
6.22447e-05
5.73215e-05
6.03174e-05
6.47488e-05
6.41576e-05
6.41463e-05
6.0317e-05
5.73112e-05
5.72752e-05
6.41246e-05
6.02874e-05
6.47421e-05
5.72862e-05
6.41363e-05
6.02886e-05
5.62183e-05
6.0556e-05
5.49351e-05
6.2269e-05
5.49313e-05
6.22554e-05
5.62098e-05
6.58611e-05
5.33834e-05
5.93743e-05
5.93761e-05
6.58563e-05
5.9375e-05
5.93757e-05
5.73486e-05
6.03447e-05
6.41745e-05
6.47773e-05
6.41858e-05
5.73613e-05
6.03436e-05
5.62523e-05
6.06042e-05
6.22855e-05
5.4975e-05
6.22995e-05
5.62606e-05
5.4978e-05
5.73505e-05
6.03404e-05
6.41655e-05
6.47738e-05
5.73478e-05
6.41789e-05
6.03448e-05
5.62493e-05
6.06028e-05
6.22776e-05
5.49732e-05
5.6254e-05
6.2297e-05
5.49761e-05
5.73476e-05
6.03474e-05
6.41736e-05
6.47798e-05
6.41852e-05
5.73585e-05
6.03489e-05
5.62502e-05
6.06019e-05
6.22845e-05
5.49826e-05
6.22977e-05
5.62611e-05
5.49701e-05
5.73438e-05
6.03431e-05
6.41661e-05
6.47755e-05
5.73545e-05
6.41776e-05
6.03436e-05
5.62472e-05
6.06004e-05
5.49813e-05
6.22803e-05
5.62579e-05
5.49689e-05
6.22937e-05
5.62955e-05
6.06101e-05
5.50193e-05
6.23201e-05
5.50164e-05
6.2302e-05
5.62897e-05
5.73544e-05
6.03394e-05
6.41657e-05
6.47743e-05
6.03463e-05
5.73533e-05
6.41787e-05
5.62509e-05
6.06029e-05
5.49744e-05
6.22785e-05
5.49779e-05
5.6258e-05
6.22967e-05
5.73857e-05
6.41988e-05
6.478e-05
6.03734e-05
6.03668e-05
6.41861e-05
5.73873e-05
5.62945e-05
6.06081e-05
5.50183e-05
6.23153e-05
5.50154e-05
6.2303e-05
5.6286e-05
5.73442e-05
6.03447e-05
6.41672e-05
6.47768e-05
6.03445e-05
5.73558e-05
6.4178e-05
5.62484e-05
6.06006e-05
5.49735e-05
6.22796e-05
5.4977e-05
5.62569e-05
6.22928e-05
5.7391e-05
6.41976e-05
6.47831e-05
6.03726e-05
6.0373e-05
6.41877e-05
5.73763e-05
3.64642e-05
4.17688e-05
3.64628e-05
7.13551e-05
6.01872e-05
6.95326e-05
6.68972e-05
6.68938e-05
6.95303e-05
6.01868e-05
7.13561e-05
7.01868e-05
7.13397e-05
7.73908e-05
7.73726e-05
7.02007e-05
6.952e-05
7.00873e-05
5.93335e-05
6.68826e-05
7.11447e-05
5.9283e-05
7.11299e-05
7.01098e-05
7.00363e-05
5.93249e-05
6.68785e-05
7.1137e-05
7.11187e-05
5.92765e-05
7.00576e-05
9.23433e-05
7.20313e-05
7.20368e-05
7.20174e-05
7.20228e-05
9.2352e-05
6.95176e-05
7.01842e-05
7.13405e-05
7.73993e-05
7.73803e-05
7.01989e-05
5.95218e-05
4.1772e-05
5.05062e-05
5.05086e-05
5.04757e-05
5.04739e-05
5.95534e-05
4.80497e-05
5.25283e-05
6.01429e-05
5.85155e-05
5.84562e-05
5.2483e-05
4.80893e-05
4.80483e-05
5.2526e-05
6.0144e-05
5.85166e-05
5.24819e-05
5.84601e-05
4.80885e-05
2.10412e-05
3.66932e-05
3.66982e-05
4.19453e-05
2.17995e-05
3.75988e-05
3.76036e-05
4.26676e-05
2.25763e-05
3.84785e-05
3.84832e-05
4.33817e-05
2.33674e-05
3.93312e-05
3.93358e-05
4.40487e-05
2.41692e-05
4.01562e-05
4.01607e-05
4.46966e-05
2.49776e-05
4.09528e-05
4.09573e-05
4.53284e-05
2.5789e-05
4.17207e-05
4.17251e-05
4.59312e-05
2.65998e-05
4.24595e-05
4.24639e-05
4.65003e-05
2.74066e-05
4.31695e-05
4.31738e-05
4.70491e-05
2.82062e-05
4.38507e-05
4.38549e-05
4.75819e-05
2.89958e-05
4.45033e-05
4.45076e-05
4.8091e-05
2.97728e-05
4.51279e-05
4.51322e-05
4.85793e-05
3.05349e-05
4.57244e-05
4.57287e-05
4.90499e-05
3.12797e-05
4.62935e-05
4.62976e-05
4.94982e-05
3.20055e-05
4.68355e-05
4.68394e-05
4.99205e-05
3.27107e-05
4.73504e-05
4.73542e-05
5.03265e-05
3.33936e-05
4.7839e-05
4.78427e-05
5.07066e-05
3.40531e-05
4.83015e-05
4.8305e-05
5.10692e-05
3.4688e-05
4.87382e-05
4.87416e-05
5.14123e-05
3.52974e-05
4.91496e-05
4.91529e-05
5.17362e-05
3.58806e-05
4.9536e-05
4.95393e-05
5.2042e-05
3.6437e-05
4.9898e-05
4.99013e-05
5.23304e-05
3.6966e-05
5.02358e-05
5.02392e-05
5.25992e-05
3.74674e-05
5.05501e-05
5.05535e-05
5.28526e-05
3.79409e-05
5.08411e-05
5.08446e-05
5.30857e-05