/*--------------------------------*- C++ -*----------------------------------*\
| =========                 |                                                 |
| \\      /  F ield         | OpenFOAM: The Open Source CFD Toolbox           |
|  \\    /   O peration     | Version:  2312                                  |
|   \\  /    A nd           | Website:  www.openfoam.com                      |
|    \\/     M anipulation  |                                                 |
\*---------------------------------------------------------------------------*/
FoamFile
{
    version     2.0;
    format      ascii;
    arch        "LSB;label=32;scalar=64";
    class       volVectorField;
    location    "550";
    object      U;
}
// * * * * * * * * * * * * * * * * * * * * * * * * * * * * * * * * * * * * * //

dimensions      [0 1 -1 0 0 0 0];

internalField   nonuniform List<vector> 
43496
(
(-1.66097e-05 -2.83494e-07 0.0914273)
(-5.85665e-06 3.35088e-06 0.0716036)
(-6.1209e-06 1.13108e-05 0.107488)
(-7.79011e-06 2.04092e-05 0.0930677)
(-2.73014e-05 -6.8595e-07 0.0985811)
(-1.44058e-05 -2.60348e-06 0.109908)
(-1.66047e-05 3.0887e-07 0.0914272)
(-1.20307e-05 1.21972e-06 0.0822862)
(-2.72966e-05 7.13445e-07 0.0985809)
(-1.128e-05 6.10585e-06 0.107486)
(-1.43962e-05 2.59827e-06 0.109907)
(-2.04012e-05 7.77984e-06 0.0930665)
(-4.16191e-05 4.16159e-05 0.104317)
(-9.87531e-06 6.91796e-06 0.0876051)
(-6.94189e-06 9.86651e-06 0.0876078)
(-3.36092e-06 5.86974e-06 0.071604)
(-1.21814e-06 1.20398e-05 0.0822866)
(4.27078e-06 -7.06393e-07 0.0768854)
(5.01441e-06 -2.53465e-07 0.0913836)
(-1.60029e-05 -1.13421e-06 0.08995)
(-7.44251e-06 1.47785e-07 0.0787028)
(5.53057e-06 -5.49899e-07 0.0899003)
(3.87206e-06 -1.83942e-07 0.0786623)
(-7.4495e-06 5.39545e-07 0.0769323)
(4.92064e-06 -8.90436e-07 0.0684138)
(-1.23037e-05 -1.38326e-06 0.0858857)
(5.86603e-06 -7.5993e-07 0.0858296)
(-6.08202e-06 1.71954e-07 0.0684746)
(4.32978e-06 -2.58089e-06 0.0715506)
(4.25874e-06 7.05952e-07 0.0768849)
(5.01447e-06 2.44365e-07 0.0913835)
(-7.43923e-06 -1.19636e-07 0.0787027)
(-1.59866e-05 1.1606e-06 0.0899494)
(3.8728e-06 1.85691e-07 0.0786622)
(5.51444e-06 5.42e-07 0.0899004)
(-7.44059e-06 -5.06176e-07 0.0769315)
(4.91076e-06 8.98691e-07 0.0684157)
(-1.22756e-05 1.40256e-06 0.0858857)
(7.16908e-06 -6.34252e-07 0.0822355)
(5.85759e-06 7.65774e-07 0.0858303)
(-6.06119e-06 -1.3871e-07 0.0684762)
(3.12247e-06 -3.13761e-06 0.0836177)
(-3.60259e-06 5.11012e-06 0.0683751)
(-5.15082e-06 3.57028e-06 0.0683808)
(2.63713e-06 -4.07359e-06 0.0683195)
(4.05768e-06 -2.65388e-06 0.068325)
(-7.25316e-06 7.20947e-06 0.0836639)
(7.82018e-06 -3.81622e-06 0.091673)
(-8.07708e-06 4.00826e-06 0.0816084)
(3.57788e-06 -3.48144e-06 0.0875569)
(-2.39953e-05 1.42014e-05 0.0963246)
(3.86779e-06 -3.024e-06 0.0815579)
(1.10449e-05 -5.5456e-06 0.0962766)
(-1.67802e-05 1.02539e-05 0.0917201)
(3.79283e-06 -7.83271e-06 0.0916798)
(-4.04356e-06 8.04033e-06 0.0816146)
(3.44155e-06 -3.59913e-06 0.0875586)
(-1.42409e-05 2.39711e-05 0.0963281)
(5.52062e-06 -1.1027e-05 0.0962795)
(2.99053e-06 -3.87428e-06 0.0815632)
(-1.03021e-05 1.67573e-05 0.0917272)
(2.54575e-06 -4.35425e-06 0.0715504)
(6.01033e-07 -7.1772e-06 0.0822358)
(-1.16367e-05 -3.47763e-06 0.115012)
(-1.00301e-05 1.00513e-05 0.112469)
(-1.16306e-05 3.49676e-06 0.11501)
(3.087e-06 -8.78789e-06 0.0930118)
(-1.16752e-05 4.96026e-05 0.0995932)
(3.79273e-06 -3.18543e-05 0.0995327)
(2.74167e-05 -1.19882e-06 0.102872)
(8.05734e-06 -4.29578e-07 0.0985248)
(-2.72125e-05 -2.53046e-06 0.0976285)
(-5.2285e-05 -1.01351e-06 0.10362)
(8.98925e-06 -8.65809e-07 0.097563)
(2.59023e-05 -8.80437e-07 0.103526)
(-5.29853e-05 -3.57684e-06 0.102988)
(3.12535e-05 3.77247e-07 0.101328)
(-2.46913e-05 -5.06984e-06 0.0956756)
(1.03758e-05 4.85729e-08 0.0956081)
(-5.24102e-05 -7.70555e-06 0.101433)
(2.74112e-05 1.17294e-06 0.102872)
(8.05791e-06 4.07598e-07 0.0985248)
(-5.22812e-05 1.0386e-06 0.10362)
(-2.7202e-05 2.5567e-06 0.0976279)
(2.59076e-05 8.48114e-07 0.103526)
(8.97493e-06 8.46055e-07 0.0975632)
(-5.29967e-05 3.60129e-06 0.102987)
(3.1279e-05 -3.9832e-07 0.101328)
(-2.46636e-05 5.07612e-06 0.0956749)
(8.77506e-06 -3.12529e-06 0.0930108)
(-4.9609e-05 1.16591e-05 0.0995911)
(1.03725e-05 -4.64115e-08 0.0956083)
(-5.2403e-05 7.70931e-06 0.101431)
(3.18682e-05 -3.8316e-06 0.0995309)
(1.01341e-05 -1.01761e-05 0.0975424)
(2.38148e-05 -2.38448e-05 0.104202)
(-2.63443e-05 4.13609e-05 0.101507)
(-4.13909e-05 2.63332e-05 0.10151)
(2.74367e-05 -1.10442e-05 0.101443)
(1.10403e-05 -2.74718e-05 0.10144)
(-2.21916e-05 2.21715e-05 0.0975979)
(-9.59586e-06 -9.58559e-06 0.112516)
(1.11319e-05 -5.98628e-06 0.107501)
(-5.97462e-06 1.11287e-05 0.1075)
(-2.39804e-05 -2.3981e-05 0.104199)
(-9.96234e-06 -9.95466e-06 0.112479)
(1.12785e-05 -6.11173e-06 0.107492)
(-6.10503e-06 1.12839e-05 0.107491)
(-2.38494e-05 -2.38509e-05 0.104201)
(2.39742e-05 2.39832e-05 0.104199)
(-4.16807e-05 -4.16736e-05 0.104316)
(-5.9521e-06 -1.11002e-05 0.107499)
(5.9477e-06 -1.11092e-05 0.107499)
(-6.04933e-06 -1.12168e-05 0.107492)
(6.04142e-06 -1.12345e-05 0.107491)
(-2.40002e-05 2.39562e-05 0.104199)
(4.16742e-05 -4.16817e-05 0.104317)
(-1.11324e-05 -5.97243e-06 0.107501)
(-1.10996e-05 5.9497e-06 0.107497)
(-1.1249e-05 -6.06427e-06 0.107493)
(-1.1216e-05 6.04726e-06 0.10749)
(1.11176e-05 5.94602e-06 0.107498)
(1.12524e-05 -6.08236e-06 0.107494)
(1.12179e-05 6.05188e-06 0.107492)
(2.39676e-05 -2.40007e-05 0.104198)
(-4.16709e-05 4.16708e-05 0.104316)
(5.97848e-06 1.11269e-05 0.1075)
(-6.06836e-06 1.12448e-05 0.107493)
(6.0777e-06 1.12448e-05 0.107493)
(4.16681e-05 4.16647e-05 0.104316)
(2.38472e-05 2.38597e-05 0.104202)
(-6.07673e-06 -1.12572e-05 0.10749)
(6.07616e-06 -1.12485e-05 0.10749)
(-2.38801e-05 2.38442e-05 0.104202)
(-1.1288e-05 -6.09744e-06 0.107491)
(-1.12531e-05 6.08006e-06 0.107488)
(1.12822e-05 6.07864e-06 0.107488)
(2.38362e-05 -2.38689e-05 0.104201)
(6.10429e-06 1.12793e-05 0.10749)
(-3.08846e-07 -1.66446e-05 0.0913961)
(6.54812e-07 7.16321e-06 0.0821926)
(-1.18174e-06 -1.21093e-05 0.0822524)
(-2.67701e-07 5.03584e-06 0.0913445)
(-2.60031e-06 4.27038e-06 0.0715102)
(3.24191e-06 -5.89114e-06 0.0715755)
(-1.66499e-05 -2.87384e-07 0.0913962)
(7.14687e-06 6.78972e-07 0.0821934)
(-1.2114e-05 -1.17518e-06 0.0822531)
(5.03545e-06 -2.63349e-07 0.0913446)
(9.59443e-06 -9.58682e-06 0.112516)
(-9.59017e-06 9.60136e-06 0.112515)
(9.6045e-06 9.59732e-06 0.112514)
(-9.87409e-06 -9.86324e-06 0.112488)
(9.87855e-06 -9.87231e-06 0.112488)
(-9.86309e-06 9.88034e-06 0.112487)
(9.89056e-06 9.88372e-06 0.112487)
(2.72591e-05 -6.89034e-07 0.0985604)
(-8.77926e-06 3.14501e-06 0.0929754)
(1.39437e-05 -2.51279e-06 0.109933)
(1.11714e-05 -6.01598e-06 0.107498)
(2.04575e-05 -7.80546e-06 0.0930397)
(1.40511e-05 -2.53348e-06 0.109927)
(-8.13092e-06 -4.52865e-07 0.0984988)
(4.30162e-06 -2.65611e-06 0.0715123)
(-5.91454e-06 3.2988e-06 0.0715732)
(-7.20354e-07 2.72558e-05 0.09856)
(-2.50121e-06 1.39451e-05 0.109931)
(3.13222e-06 -8.78039e-06 0.0929755)
(-6.00375e-06 1.11691e-05 0.107497)
(-2.51882e-06 1.40425e-05 0.109926)
(-7.79287e-06 2.04578e-05 0.0930389)
(-4.04547e-07 -8.14863e-06 0.0984984)
(-3.54709e-06 -3.52635e-06 0.0875183)
(-3.52272e-06 -3.54395e-06 0.0875173)
(4.17322e-05 4.17232e-05 0.104315)
(9.95969e-06 6.91162e-06 0.087576)
(6.93485e-06 9.9509e-06 0.0875745)
(6.10605e-07 7.18463e-06 0.0822264)
(-2.64108e-07 5.01564e-06 0.0913757)
(-2.53704e-06 4.29465e-06 0.0715408)
(7.17085e-06 6.40883e-07 0.0822272)
(5.01449e-06 -2.55791e-07 0.0913758)
(9.97068e-06 -9.96202e-06 0.11248)
(-9.95728e-06 9.97028e-06 0.112478)
(9.95297e-06 9.97207e-06 0.112478)
(2.72551e-05 -6.75748e-07 0.0985814)
(-8.77905e-06 3.11135e-06 0.0930044)
(1.43254e-05 -2.6096e-06 0.109913)
(-8.03352e-06 -4.47886e-07 0.0985199)
(1.44148e-05 -2.62171e-06 0.109908)
(4.32346e-06 -2.59594e-06 0.071543)
(-7.24982e-07 2.72512e-05 0.098581)
(-2.58672e-06 1.43282e-05 0.109912)
(3.09496e-06 -8.78224e-06 0.0930045)
(-4.11397e-07 -8.05131e-06 0.0985195)
(-2.60625e-06 1.44038e-05 0.109907)
(-3.58575e-06 -3.48765e-06 0.0875503)
(-3.47941e-06 -3.57864e-06 0.0875492)
(4.16511e-05 4.16005e-05 0.104318)
(9.88214e-06 6.93182e-06 0.0876078)
(6.95647e-06 9.88197e-06 0.0876063)
(2.61866e-06 4.34183e-06 0.0715116)
(-3.29413e-06 -5.94027e-06 0.0715735)
(4.31447e-06 2.64435e-06 0.0715117)
(-5.92768e-06 -3.29942e-06 0.0715731)
(3.49466e-06 3.54238e-06 0.0875178)
(3.55477e-06 3.51757e-06 0.0875168)
(-4.17371e-05 -4.1732e-05 0.104315)
(-6.89906e-06 -9.93812e-06 0.0875765)
(-9.97344e-06 -6.91984e-06 0.0875744)
(-3.31994e-06 -5.91247e-06 0.0715887)
(2.58601e-06 4.35428e-06 0.0715269)
(-5.90053e-06 -3.32476e-06 0.0715884)
(4.32474e-06 2.61399e-06 0.071527)
(2.39016e-05 2.39111e-05 0.1042)
(-6.91007e-06 -9.90154e-06 0.0875923)
(-9.93757e-06 -6.92946e-06 0.0875902)
(3.47211e-06 3.56335e-06 0.0875338)
(3.57316e-06 3.49634e-06 0.0875328)
(2.82211e-07 -1.66491e-05 0.0913962)
(-6.37673e-07 7.13019e-06 0.0821923)
(1.13328e-06 -1.21021e-05 0.0822537)
(2.41565e-07 5.03484e-06 0.0913447)
(-7.08429e-07 -2.72892e-05 0.0985599)
(3.14675e-06 8.78759e-06 0.0929743)
(-2.50444e-06 -1.39299e-05 0.109932)
(-5.98592e-06 -1.11402e-05 0.107496)
(-7.77856e-06 -2.04486e-05 0.0930385)
(-2.52283e-06 -1.40302e-05 0.109927)
(-4.37325e-07 8.17019e-06 0.0984984)
(6.77262e-07 -2.72965e-05 0.0985601)
(-3.13725e-06 8.778e-06 0.0929741)
(2.49439e-06 -1.39325e-05 0.109932)
(5.97263e-06 -1.11526e-05 0.107496)
(7.74024e-06 -2.04513e-05 0.0930391)
(2.51588e-06 -1.40321e-05 0.109927)
(4.09342e-07 8.17299e-06 0.0984986)
(-2.65598e-07 5.02458e-06 0.0913601)
(-1.1974e-06 -1.20747e-05 0.0822692)
(6.31078e-07 7.16976e-06 0.0822095)
(-3.08929e-07 -1.66246e-05 0.0914116)
(2.41175e-07 5.02375e-06 0.0913603)
(1.15084e-06 -1.20691e-05 0.0822705)
(-6.16355e-07 7.14268e-06 0.0822092)
(2.82171e-07 -1.66299e-05 0.0914117)
(-4.36519e-07 8.11775e-06 0.0985088)
(-6.0176e-06 -1.11845e-05 0.107494)
(-7.78279e-06 -2.04262e-05 0.0930529)
(-2.56322e-06 -1.42202e-05 0.109917)
(3.12692e-06 8.78899e-06 0.0929888)
(-2.54351e-06 -1.41306e-05 0.109922)
(-7.09458e-07 -2.72915e-05 0.0985703)
(4.11093e-07 8.12132e-06 0.0985091)
(6.01389e-06 -1.11883e-05 0.107494)
(7.74482e-06 -2.04267e-05 0.0930535)
(2.55656e-06 -1.42225e-05 0.109917)
(-3.11672e-06 8.77757e-06 0.0929886)
(2.54174e-06 -1.41333e-05 0.109922)
(6.81974e-07 -2.72992e-05 0.0985705)
(-3.52704e-06 3.52188e-06 0.0875163)
(-3.56272e-06 3.50299e-06 0.0875186)
(4.17288e-05 -4.17372e-05 0.104316)
(6.89564e-06 -9.93778e-06 0.0875756)
(9.95575e-06 -6.94397e-06 0.0875766)
(-4.32006e-06 2.63563e-06 0.071512)
(5.91617e-06 -3.32611e-06 0.071574)
(3.26896e-06 -5.86247e-06 0.0715907)
(-2.56712e-06 4.28147e-06 0.0715255)
(-2.39308e-05 2.38894e-05 0.1042)
(6.90756e-06 -9.89891e-06 0.0875915)
(9.91574e-06 -6.94959e-06 0.0875925)
(-3.50253e-06 3.53983e-06 0.0875323)
(-3.57561e-06 3.48102e-06 0.0875346)
(5.88519e-06 -3.34635e-06 0.0715893)
(-4.32803e-06 2.60486e-06 0.0715273)
(-2.73022e-05 -6.85841e-07 0.0985601)
(8.78444e-06 3.16128e-06 0.092975)
(-1.39412e-05 -2.50454e-06 0.109932)
(-1.11731e-05 -6.00202e-06 0.107498)
(-2.04829e-05 -7.79134e-06 0.0930385)
(-1.4041e-05 -2.52283e-06 0.109927)
(8.17054e-06 -4.38904e-07 0.0984984)
(-1.66462e-05 3.08563e-07 0.091396)
(7.14049e-06 -6.78538e-07 0.0821933)
(-1.20945e-05 1.17712e-06 0.0822526)
(5.03448e-06 2.39119e-07 0.0913445)
(-2.72983e-05 7.0615e-07 0.0985599)
(-1.39349e-05 2.49677e-06 0.109931)
(8.76355e-06 -3.16762e-06 0.0929746)
(-1.11401e-05 5.98262e-06 0.107495)
(-1.40335e-05 2.51802e-06 0.109926)
(-2.04501e-05 7.7752e-06 0.0930375)
(8.17141e-06 4.00776e-07 0.0984983)
(5.02276e-06 -2.58557e-07 0.0913601)
(-1.20857e-05 -1.19254e-06 0.0822699)
(7.15389e-06 6.58503e-07 0.0822103)
(-1.66322e-05 -2.85181e-07 0.0914117)
(8.11611e-06 -4.33075e-07 0.0985089)
(-1.12163e-05 -6.03858e-06 0.107496)
(-2.04593e-05 -7.79416e-06 0.0930529)
(-1.42311e-05 -2.56475e-06 0.109917)
(8.7826e-06 3.14255e-06 0.0929895)
(-1.41434e-05 -2.54734e-06 0.109922)
(-2.73052e-05 -6.85873e-07 0.0985705)
(5.02189e-06 2.40621e-07 0.0913601)
(-1.20692e-05 1.19925e-06 0.0822694)
(7.1475e-06 -6.59679e-07 0.0822102)
(-1.66295e-05 3.09008e-07 0.0914116)
(8.11668e-06 4.04943e-07 0.0985089)
(-1.11846e-05 6.0193e-06 0.107493)
(-1.42226e-05 2.56012e-06 0.109917)
(-2.04298e-05 7.78117e-06 0.093052)
(-1.41372e-05 2.54004e-06 0.109921)
(8.76382e-06 -3.15076e-06 0.0929891)
(-2.7301e-05 7.09804e-07 0.0985703)
(1.66037e-05 -2.5534e-07 0.091397)
(-7.1341e-06 6.99303e-07 0.0821932)
(1.20917e-05 -1.22618e-06 0.0822536)
(-4.99564e-06 -3.15788e-07 0.0913441)
(2.72737e-05 7.03571e-07 0.0985602)
(1.39454e-05 2.49028e-06 0.109932)
(-8.759e-06 -3.17246e-06 0.092975)
(1.11518e-05 5.98838e-06 0.107496)
(1.40447e-05 2.51903e-06 0.109927)
(2.04442e-05 7.77326e-06 0.0930389)
(-8.1476e-06 3.97157e-07 0.0984988)
(1.66334e-05 3.2349e-07 0.0913963)
(-7.13973e-06 -6.80904e-07 0.0821934)
(1.21066e-05 1.17439e-06 0.0822531)
(-5.02396e-06 2.08877e-07 0.0913446)
(-8.07821e-06 -4.47246e-07 0.0985093)
(1.12139e-05 -6.0536e-06 0.107497)
(2.04309e-05 -7.80403e-06 0.0930541)
(1.4242e-05 -2.57363e-06 0.109918)
(-8.77505e-06 3.12695e-06 0.0929899)
(1.41458e-05 -2.55827e-06 0.109923)
(2.72605e-05 -6.87418e-07 0.0985708)
(-4.98384e-06 -3.12809e-07 0.0913597)
(1.20606e-05 -1.23928e-06 0.0822705)
(-7.14401e-06 6.80524e-07 0.0822101)
(1.65832e-05 -2.5171e-07 0.0914125)
(-8.0965e-06 4.0062e-07 0.0985092)
(1.12082e-05 6.01524e-06 0.107493)
(1.42349e-05 2.56806e-06 0.109917)
(2.04294e-05 7.77302e-06 0.0930533)
(1.41485e-05 2.52928e-06 0.109922)
(-8.75868e-06 -3.15034e-06 0.0929896)
(2.72773e-05 7.08113e-07 0.0985707)
(-5.01434e-06 2.09605e-07 0.0913602)
(1.20801e-05 1.1927e-06 0.08227)
(-7.15388e-06 -6.58296e-07 0.0822104)
(1.66119e-05 3.24835e-07 0.0914119)
(3.52886e-06 -3.53333e-06 0.087517)
(3.48602e-06 -3.53991e-06 0.0875185)
(-4.17292e-05 4.17291e-05 0.104315)
(-9.95454e-06 6.90104e-06 0.0875733)
(-6.92306e-06 9.93357e-06 0.0875761)
(2.62092e-06 -4.32611e-06 0.0715122)
(-3.31379e-06 5.91873e-06 0.0715736)
(-5.88567e-06 3.32596e-06 0.0715884)
(4.31249e-06 -2.62562e-06 0.0715277)
(2.38949e-05 -2.39273e-05 0.1042)
(-9.91684e-06 6.91258e-06 0.0875892)
(-6.9366e-06 9.90098e-06 0.0875919)
(3.54642e-06 -3.51196e-06 0.0875329)
(3.46568e-06 -3.55955e-06 0.0875345)
(-3.33884e-06 5.8897e-06 0.0715888)
(2.58932e-06 -4.33448e-06 0.0715276)
(6.85313e-07 2.72467e-05 0.0985604)
(2.50308e-06 1.39439e-05 0.109932)
(-3.1659e-06 -8.77528e-06 0.0929754)
(6.01368e-06 1.11742e-05 0.107497)
(2.52963e-06 1.40431e-05 0.109926)
(7.79811e-06 2.04662e-05 0.093039)
(4.26095e-07 -8.13536e-06 0.0984986)
(-3.51483e-07 1.65996e-05 0.0913967)
(6.55792e-07 -7.1486e-06 0.0821936)
(-1.18767e-06 1.21026e-05 0.082253)
(-2.14497e-07 -5.00692e-06 0.091344)
(2.79491e-07 1.65785e-05 0.0913973)
(-6.89844e-07 -7.14014e-06 0.082194)
(1.19558e-06 1.21056e-05 0.0822537)
(2.57049e-07 -4.98425e-06 0.0913436)
(-4.07722e-07 -8.09521e-06 0.0985089)
(-6.04514e-06 1.12136e-05 0.107495)
(-2.56159e-06 1.42314e-05 0.109916)
(-7.79661e-06 2.04352e-05 0.0930533)
(-2.5441e-06 1.4148e-05 0.109921)
(3.11471e-06 -8.77778e-06 0.09299)
(-7.23348e-07 2.72569e-05 0.0985704)
(4.25651e-07 -8.08245e-06 0.0985091)
(6.04708e-06 1.12125e-05 0.107495)
(2.57755e-06 1.42338e-05 0.109916)
(7.80086e-06 2.04429e-05 0.0930534)
(2.54502e-06 1.41433e-05 0.109922)
(-3.14753e-06 -8.77385e-06 0.0929899)
(6.83998e-07 2.72475e-05 0.0985708)
(-2.13877e-07 -4.996e-06 0.0913595)
(-1.20215e-06 1.20692e-05 0.0822698)
(6.33729e-07 -7.1569e-06 0.0822106)
(-3.51856e-07 1.65805e-05 0.0914122)
(2.55587e-07 -4.97266e-06 0.0913591)
(1.21224e-06 1.207e-05 0.0822705)
(-6.6646e-07 -7.14538e-06 0.0822109)
(2.7752e-07 1.6558e-05 0.0914128)
(-4.31656e-06 -2.64348e-06 0.0715124)
(5.92714e-06 3.29722e-06 0.071574)
(-2.65221e-06 -4.31116e-06 0.0715126)
(3.32129e-06 5.9169e-06 0.0715739)
(-2.39051e-05 -2.39041e-05 0.1042)
(9.92635e-06 6.92461e-06 0.0875919)
(6.94653e-06 9.91513e-06 0.0875904)
(-3.56369e-06 -3.50371e-06 0.0875343)
(-3.50078e-06 -3.5618e-06 0.0875333)
(5.90158e-06 3.32198e-06 0.0715892)
(-4.32792e-06 -2.61031e-06 0.0715278)
(3.34811e-06 5.88867e-06 0.0715891)
(-2.62029e-06 -4.32236e-06 0.0715279)
(2.5563e-06 4.36689e-06 0.0715422)
(4.33604e-06 2.58607e-06 0.0715423)
(3.45405e-06 3.58515e-06 0.0875498)
(3.59272e-06 3.47798e-06 0.0875487)
(-5.95332e-07 7.15109e-06 0.0822261)
(2.42769e-07 5.01639e-06 0.0913759)
(3.10805e-06 8.80028e-06 0.0930033)
(-2.58068e-06 -1.43114e-05 0.109913)
(-4.34831e-07 8.07524e-06 0.0985194)
(-3.09928e-06 8.78361e-06 0.0930031)
(2.58994e-06 -1.43135e-05 0.109913)
(4.15211e-07 8.0777e-06 0.0985197)
(-3.48227e-06 3.56146e-06 0.0875483)
(-3.598e-06 3.45984e-06 0.0875506)
(-4.34069e-06 2.57596e-06 0.0715425)
(8.78607e-06 3.12429e-06 0.093004)
(-1.43257e-05 -2.58674e-06 0.109913)
(8.07366e-06 -4.32474e-07 0.0985195)
(7.16414e-06 -6.43522e-07 0.0822271)
(5.01342e-06 2.43752e-07 0.0913757)
(-1.43189e-05 2.58085e-06 0.109912)
(8.77011e-06 -3.13301e-06 0.0930036)
(8.07426e-06 4.08814e-07 0.0985194)
(1.65574e-05 -2.44937e-07 0.091428)
(-7.15252e-06 6.62359e-07 0.0822269)
(-4.97241e-06 -3.12448e-07 0.0913753)
(2.72689e-05 7.06548e-07 0.0985812)
(1.43315e-05 2.55734e-06 0.109912)
(-8.76441e-06 -3.13242e-06 0.0930041)
(1.12595e-05 6.10285e-06 0.107488)
(-8.05161e-06 4.02435e-07 0.0985197)
(1.44077e-05 2.61231e-06 0.109907)
(2.0412e-05 7.77733e-06 0.0930678)
(1.65837e-05 3.25063e-07 0.0914274)
(-7.17263e-06 -6.35509e-07 0.0822272)
(-5.00229e-06 2.10879e-07 0.0913758)
(1.20461e-05 1.21092e-06 0.0822867)
(3.56677e-06 -3.49163e-06 0.0875489)
(3.44896e-06 -3.5882e-06 0.0875506)
(2.55945e-06 -4.34645e-06 0.0715428)
(6.83571e-07 2.72433e-05 0.0985813)
(2.58663e-06 1.43176e-05 0.109912)
(-3.12717e-06 -8.77964e-06 0.0930044)
(6.11992e-06 1.12964e-05 0.107489)
(4.25289e-07 -8.03906e-06 0.0985197)
(2.61731e-06 1.4406e-05 0.109907)
(7.79796e-06 2.0419e-05 0.0930678)
(-3.51838e-07 1.6554e-05 0.0914277)
(6.11111e-07 -7.16609e-06 0.0822274)
(-2.15641e-07 -4.98538e-06 0.0913751)
(2.74736e-07 1.65331e-05 0.0914284)
(-6.44498e-07 -7.1599e-06 0.0822278)
(2.54009e-07 -4.96408e-06 0.0913747)
(1.22728e-06 1.20416e-05 0.0822872)
(-4.34371e-06 -2.58017e-06 0.071543)
(5.87269e-06 3.34759e-06 0.0716044)
(-2.59001e-06 -4.33293e-06 0.0715432)
(3.37127e-06 5.85913e-06 0.0716043)
(-6.97109e-07 4.27349e-06 0.0768515)
(1.22784e-07 -7.46193e-06 0.0786688)
(-1.14215e-06 -1.60373e-05 0.0899174)
(-2.66241e-07 5.0293e-06 0.0913523)
(-1.97437e-07 3.87094e-06 0.0786282)
(-5.49318e-07 5.5438e-06 0.0898676)
(5.41303e-07 -7.46752e-06 0.0768985)
(2.12599e-07 -6.12114e-06 0.0684364)
(-1.17218e-06 -1.21245e-05 0.082244)
(-7.41484e-07 5.8483e-06 0.0857867)
(-1.36463e-06 -1.23746e-05 0.0858431)
(-8.47735e-07 4.92529e-06 0.0683753)
(-8.6397e-07 4.92569e-06 0.0683829)
(-1.37223e-06 -1.23586e-05 0.0858515)
(6.43806e-07 7.16866e-06 0.0822011)
(-7.51691e-07 5.85516e-06 0.0857952)
(1.99658e-07 -6.11277e-06 0.0684439)
(5.48041e-07 -7.47277e-06 0.0768901)
(-3.09856e-07 -1.6655e-05 0.0913883)
(-1.96632e-07 3.87317e-06 0.0786197)
(-5.43425e-07 5.55076e-06 0.0898595)
(1.22268e-07 -7.47191e-06 0.0786603)
(-1.13853e-06 -1.60473e-05 0.0899093)
(-6.87988e-07 4.27618e-06 0.0768431)
(3.22654e-06 -5.9042e-06 0.0715678)
(-2.58304e-06 4.27574e-06 0.0715179)
(4.27445e-06 -6.78746e-07 0.0768519)
(-1.6046e-05 -1.12286e-06 0.0899177)
(-7.46688e-06 1.45111e-07 0.0786689)
(5.02752e-06 -2.60918e-07 0.0913524)
(5.54656e-06 -5.33415e-07 0.0898679)
(3.87072e-06 -1.89435e-07 0.0786283)
(-7.47409e-06 5.6255e-07 0.0768989)
(-6.12739e-06 2.32829e-07 0.0684371)
(-1.21273e-05 -1.16624e-06 0.0822446)
(5.83592e-06 -7.14573e-07 0.0857872)
(-1.23853e-05 -1.34838e-06 0.0858435)
(4.91919e-06 -8.15544e-07 0.068376)
(4.91924e-06 -8.30992e-07 0.0683836)
(-1.23704e-05 -1.35544e-06 0.085852)
(7.15025e-06 6.68705e-07 0.0822019)
(5.84156e-06 -7.23923e-07 0.0857957)
(-6.11847e-06 2.20283e-07 0.0684446)
(-7.47918e-06 5.68265e-07 0.0768905)
(-1.66612e-05 -2.89925e-07 0.0913884)
(5.55722e-06 -5.29241e-07 0.0898598)
(3.87261e-06 -1.90604e-07 0.0786197)
(-1.60537e-05 -1.12088e-06 0.0899096)
(-7.47693e-06 1.43571e-07 0.0786604)
(4.27806e-06 -6.70971e-07 0.0768434)
(-5.92812e-06 3.28458e-06 0.0715655)
(4.30663e-06 -2.64059e-06 0.07152)
(-3.11133e-06 -3.13441e-06 0.0835876)
(3.61385e-06 5.14769e-06 0.0683541)
(5.15413e-06 3.61135e-06 0.0683478)
(-2.62785e-06 -4.0965e-06 0.0682982)
(-4.07726e-06 -2.64358e-06 0.0682922)
(7.27933e-06 7.26643e-06 0.0836336)
(1.68877e-05 1.03114e-05 0.0916923)
(-1.10173e-05 -5.57159e-06 0.0962497)
(9.97826e-06 6.90873e-06 0.0875681)
(-3.81761e-06 -3.05364e-06 0.0815235)
(2.41118e-05 1.42134e-05 0.096299)
(8.13323e-06 4.00231e-06 0.0815755)
(-7.77503e-06 -3.81011e-06 0.0916444)
(1.03484e-05 1.68854e-05 0.0916855)
(-5.57174e-06 -1.10018e-05 0.0962473)
(6.92928e-06 9.96836e-06 0.0875666)
(-3.05593e-06 -3.84062e-06 0.0815191)
(1.42458e-05 2.40993e-05 0.0962964)
(4.03233e-06 8.14546e-06 0.0815701)
(-3.80875e-06 -7.79675e-06 0.0916381)
(-7.78286e-06 -3.80938e-06 0.0916514)
(8.1183e-06 4.00702e-06 0.0815833)
(-3.5558e-06 -3.51532e-06 0.0875263)
(2.40859e-05 1.42083e-05 0.0963048)
(-1.10203e-05 -5.56357e-06 0.0962556)
(-3.8265e-06 -3.04506e-06 0.0815313)
(1.68628e-05 1.03017e-05 0.0916993)
(-3.80754e-06 -7.80364e-06 0.0916451)
(4.03732e-06 8.13017e-06 0.0815779)
(-3.51203e-06 -3.55342e-06 0.0875253)
(1.42447e-05 2.40724e-05 0.0963022)
(-5.56311e-06 -1.10027e-05 0.0962532)
(-3.04668e-06 -3.84962e-06 0.0815269)
(1.03392e-05 1.68595e-05 0.0916925)
(7.28986e-06 7.27715e-06 0.0836261)
(-2.62499e-06 -4.09991e-06 0.0682915)
(-4.08119e-06 -2.64038e-06 0.0682855)
(3.62238e-06 5.14934e-06 0.0683474)
(5.15615e-06 3.61978e-06 0.0683411)
(-3.10793e-06 -3.13134e-06 0.0835801)
(1.59954e-07 -6.08393e-06 0.0684665)
(-7.82895e-07 5.875e-06 0.0858206)
(-1.20798e-06 -1.2063e-05 0.0822776)
(-9.13526e-07 4.92557e-06 0.0684056)
(-1.39543e-06 -1.23067e-05 0.0858768)
(5.20687e-07 -7.44846e-06 0.0769235)
(-3.0893e-07 -1.66106e-05 0.0914193)
(-1.97199e-07 3.87377e-06 0.0786537)
(-5.67441e-07 5.53189e-06 0.0898919)
(-7.24746e-07 4.26813e-06 0.0768767)
(1.24538e-07 -7.44219e-06 0.0786942)
(-1.15477e-06 -1.60043e-05 0.0899415)
(3.28112e-06 -5.8459e-06 0.0715983)
(-6.09135e-06 1.83336e-07 0.0684672)
(5.85774e-06 -7.53265e-07 0.0858211)
(-1.20712e-05 -1.19717e-06 0.0822783)
(4.91978e-06 -8.76971e-07 0.0684063)
(-1.23223e-05 -1.37411e-06 0.0858773)
(-7.46393e-06 5.43574e-07 0.0769239)
(-1.66238e-05 -2.84015e-07 0.0914195)
(5.53268e-06 -5.47073e-07 0.0898922)
(3.869e-06 -1.8515e-07 0.0786539)
(4.26754e-06 -7.00229e-07 0.0768771)
(-1.60185e-05 -1.13183e-06 0.0899419)
(-7.45239e-06 1.46832e-07 0.0786943)
(-5.87232e-06 3.33855e-06 0.071596)
(-3.11969e-06 -3.14764e-06 0.0836177)
(3.57906e-06 5.14167e-06 0.0683808)
(5.14613e-06 3.57357e-06 0.0683745)
(-2.62982e-06 -4.09046e-06 0.0683251)
(-4.06051e-06 -2.64681e-06 0.0683191)
(7.23665e-06 7.22723e-06 0.0836637)
(1.67984e-05 1.02821e-05 0.0917204)
(-1.10313e-05 -5.54063e-06 0.0962733)
(-3.85651e-06 -3.02859e-06 0.0815548)
(9.91007e-06 6.93096e-06 0.0875998)
(-7.80973e-06 -3.81579e-06 0.0916725)
(2.40211e-05 1.42266e-05 0.0963224)
(8.06806e-06 4.02284e-06 0.0816065)
(1.03212e-05 1.67935e-05 0.0917137)
(-5.54109e-06 -1.10042e-05 0.0962709)
(-3.02209e-06 -3.8772e-06 0.0815503)
(6.95293e-06 9.90326e-06 0.0875983)
(-3.80349e-06 -7.83061e-06 0.0916662)
(1.42471e-05 2.40227e-05 0.0963198)
(4.05365e-06 8.08013e-06 0.0816012)
(7.2506e-06 7.23596e-06 0.0836562)
(-2.63231e-06 -4.0911e-06 0.0683184)
(-4.06427e-06 -2.65091e-06 0.0683124)
(-3.11896e-06 -3.14833e-06 0.0836101)
(3.59001e-06 5.14372e-06 0.0683742)
(5.1508e-06 3.58469e-06 0.0683679)
(-7.81652e-06 -3.82051e-06 0.0916796)
(8.04379e-06 4.01917e-06 0.0816144)
(-3.59632e-06 -3.47416e-06 0.0875583)
(2.39609e-05 1.42171e-05 0.0963283)
(-1.10405e-05 -5.53109e-06 0.0962794)
(-3.86203e-06 -3.02277e-06 0.0815626)
(1.67627e-05 1.02632e-05 0.0917273)
(-3.80803e-06 -7.83452e-06 0.0916733)
(4.05506e-06 8.05996e-06 0.0816089)
(-3.47358e-06 -3.59071e-06 0.0875572)
(1.42446e-05 2.40039e-05 0.0963257)
(-5.54097e-06 -1.10063e-05 0.0962769)
(-3.01531e-06 -3.8846e-06 0.0815581)
(1.03092e-05 1.67609e-05 0.0917206)
(-3.27991e-06 -5.95411e-06 0.0715658)
(2.60196e-06 4.34787e-06 0.0715192)
(-5.9409e-06 -3.28595e-06 0.0715655)
(4.31926e-06 2.62882e-06 0.0715194)
(3.13721e-06 3.12721e-06 0.083587)
(-5.1446e-06 -3.6226e-06 0.0683539)
(-3.61985e-06 -5.15865e-06 0.0683474)
(4.08844e-06 2.64126e-06 0.0682974)
(2.65161e-06 4.08206e-06 0.0682912)
(-7.27645e-06 -7.28871e-06 0.0836338)
(-1.03097e-05 -1.68701e-05 0.0916924)
(5.56967e-06 1.1011e-05 0.0962495)
(-6.8927e-06 -9.95497e-06 0.0875685)
(3.0247e-06 3.79532e-06 0.0815231)
(-3.98614e-06 -8.10278e-06 0.0815764)
(-1.42092e-05 -2.40784e-05 0.0962988)
(3.80328e-06 7.77151e-06 0.0916438)
(-1.68717e-05 -1.03376e-05 0.0916859)
(1.09872e-05 5.56538e-06 0.0962469)
(-9.9898e-06 -6.9141e-06 0.0875664)
(3.83229e-06 3.03186e-06 0.0815181)
(-8.14521e-06 -4.00989e-06 0.0815704)
(-2.41e-05 -1.42327e-05 0.0962964)
(7.77212e-06 3.80006e-06 0.0916374)
(3.80171e-06 7.77744e-06 0.0916509)
(-3.99037e-06 -8.08629e-06 0.0815842)
(3.48258e-06 3.55214e-06 0.0875258)
(-1.42103e-05 -2.40564e-05 0.0963047)
(3.01512e-06 3.80407e-06 0.0815309)
(-1.03027e-05 -1.6847e-05 0.0916994)
(5.56059e-06 1.10116e-05 0.0962554)
(7.77692e-06 3.79913e-06 0.0916444)
(-8.12986e-06 -4.01382e-06 0.0815782)
(3.56274e-06 3.50624e-06 0.0875248)
(-2.40778e-05 -1.42318e-05 0.0963022)
(3.84022e-06 3.02357e-06 0.081526)
(-1.68499e-05 -1.03294e-05 0.0916929)
(1.09862e-05 5.55654e-06 0.0962528)
(-7.28554e-06 -7.2987e-06 0.0836263)
(4.09279e-06 2.63902e-06 0.0682907)
(2.65032e-06 4.08539e-06 0.0682845)
(-5.14639e-06 -3.63139e-06 0.0683471)
(-3.62809e-06 -5.16067e-06 0.0683407)
(3.13525e-06 3.12387e-06 0.0835795)
(2.57087e-06 4.35995e-06 0.0715346)
(-3.3071e-06 -5.927e-06 0.0715811)
(4.32998e-06 2.59902e-06 0.0715347)
(-5.91451e-06 -3.31224e-06 0.0715808)
(-7.2673e-06 -7.27898e-06 0.0836413)
(4.0843e-06 2.64383e-06 0.0683042)
(2.65353e-06 4.07828e-06 0.068298)
(3.13921e-06 3.13021e-06 0.0835945)
(-5.14211e-06 -3.61507e-06 0.0683606)
(-3.61258e-06 -5.15608e-06 0.0683541)
(3.80327e-06 7.79491e-06 0.0916649)
(-1.421e-05 -2.40079e-05 0.0963164)
(3.46173e-06 3.57231e-06 0.0875418)
(-3.99589e-06 -8.0512e-06 0.0815998)
(2.9978e-06 3.82123e-06 0.0815466)
(5.54668e-06 1.10193e-05 0.0962671)
(-1.02829e-05 -1.67973e-05 0.0917134)
(7.79211e-06 3.80244e-06 0.0916585)
(-2.40304e-05 -1.4228e-05 0.0963139)
(3.58194e-06 3.48531e-06 0.0875408)
(-8.09527e-06 -4.01947e-06 0.0815937)
(3.85732e-06 3.00783e-06 0.0815416)
(1.0992e-05 5.54288e-06 0.0962646)
(-1.6802e-05 -1.03088e-05 0.0917069)
(-1.0294e-05 -1.68227e-05 0.0917064)
(3.00863e-06 3.81543e-06 0.0815388)
(5.55354e-06 1.10145e-05 0.0962612)
(-6.90501e-06 -9.92043e-06 0.0875844)
(3.80211e-06 7.7852e-06 0.0916579)
(-3.99227e-06 -8.06696e-06 0.081592)
(-1.42107e-05 -2.40327e-05 0.0963105)
(-1.68263e-05 -1.03205e-05 0.0916999)
(3.85118e-06 3.01822e-06 0.0815338)
(1.09879e-05 5.54979e-06 0.0962587)
(-9.95605e-06 -6.92603e-06 0.0875823)
(7.78341e-06 3.80054e-06 0.0916515)
(-8.11061e-06 -4.01556e-06 0.081586)
(-2.4055e-05 -1.42304e-05 0.0963081)
(3.14334e-06 3.1349e-06 0.0836021)
(-5.13997e-06 -3.60643e-06 0.0683673)
(-3.6037e-06 -5.15383e-06 0.0683608)
(4.08064e-06 2.64603e-06 0.0683109)
(2.65573e-06 4.07487e-06 0.0683047)
(-7.2564e-06 -7.26761e-06 0.0836488)
(6.77344e-07 4.26329e-06 0.0768516)
(-1.47055e-07 -7.46238e-06 0.0786689)
(1.11413e-06 -1.60475e-05 0.0899174)
(2.41109e-07 5.02859e-06 0.0913525)
(1.78911e-07 3.87225e-06 0.0786283)
(5.26456e-07 5.53774e-06 0.0898683)
(-5.64675e-07 -7.47042e-06 0.0768983)
(-2.44301e-07 -6.12304e-06 0.0684388)
(1.12325e-06 -1.21145e-05 0.0822452)
(7.47435e-07 5.84179e-06 0.0857881)
(1.31906e-06 -1.23891e-05 0.0858438)
(8.38661e-07 4.91798e-06 0.0683781)
(8.56065e-07 4.91826e-06 0.0683857)
(1.32689e-06 -1.23754e-05 0.0858523)
(-6.26231e-07 7.13415e-06 0.0822008)
(7.57575e-07 5.84724e-06 0.0857966)
(-2.31083e-07 -6.1152e-06 0.0684464)
(-5.70879e-07 -7.4758e-06 0.0768899)
(2.83702e-07 -1.66596e-05 0.0913884)
(1.78803e-07 3.87753e-06 0.0786198)
(5.20716e-07 5.54625e-06 0.0898602)
(-1.45305e-07 -7.47785e-06 0.0786604)
(1.11089e-06 -1.60547e-05 0.0899094)
(6.6777e-07 4.26405e-06 0.0768431)
(5.34142e-07 -7.46276e-06 0.0769068)
(-1.96682e-07 3.87055e-06 0.0786367)
(-5.55579e-07 5.53962e-06 0.0898757)
(-3.08322e-07 -1.66347e-05 0.0914038)
(-7.0615e-07 4.27021e-06 0.0768599)
(1.23495e-07 -7.45659e-06 0.0786773)
(-1.14611e-06 -1.6026e-05 0.0899254)
(-8.95856e-07 4.92543e-06 0.068398)
(6.20359e-07 7.17665e-06 0.082218)
(-1.3882e-06 -1.23247e-05 0.0858684)
(1.72316e-07 -6.09413e-06 0.068459)
(-7.72796e-07 5.86729e-06 0.0858122)
(1.86026e-07 -6.10281e-06 0.0684515)
(-7.62319e-07 5.86106e-06 0.0858037)
(-1.18735e-06 -1.20872e-05 0.0822608)
(-8.80774e-07 4.92558e-06 0.0683905)
(-1.38016e-06 -1.23411e-05 0.0858599)
(-7.15231e-07 4.26691e-06 0.0768683)
(-2.65499e-07 5.01843e-06 0.0913679)
(1.23972e-07 -7.4544e-06 0.0786857)
(-1.15099e-06 -1.60166e-05 0.0899335)
(5.25613e-07 -7.46035e-06 0.0769152)
(-1.97015e-07 3.87128e-06 0.0786452)
(-5.61943e-07 5.53455e-06 0.0898838)
(-5.57652e-07 -7.46106e-06 0.0769066)
(1.77975e-07 3.87242e-06 0.0786369)
(5.328e-07 5.53542e-06 0.0898764)
(2.8257e-07 -1.66382e-05 0.0914039)
(6.85594e-07 4.26147e-06 0.07686)
(-1.46514e-07 -7.45769e-06 0.0786773)
(1.11912e-06 -1.60331e-05 0.0899255)
(8.89138e-07 4.91869e-06 0.0684008)
(-6.05082e-07 7.14578e-06 0.0822177)
(1.34292e-06 -1.23427e-05 0.0858692)
(7.77952e-07 5.8601e-06 0.0858136)
(-2.05167e-07 -6.09758e-06 0.0684614)
(-2.17168e-07 -6.1052e-06 0.0684539)
(7.68298e-07 5.85503e-06 0.0858051)
(1.14069e-06 -1.20824e-05 0.0822621)
(8.73192e-07 4.91922e-06 0.0683933)
(1.33509e-06 -1.23549e-05 0.0858607)
(6.95461e-07 4.26082e-06 0.0768684)
(2.42697e-07 5.01793e-06 0.0913681)
(-1.45724e-07 -7.44812e-06 0.0786858)
(1.12346e-06 -1.60233e-05 0.0899335)
(1.79806e-07 3.86891e-06 0.0786454)
(5.40257e-07 5.53166e-06 0.0898844)
(-5.51151e-07 -7.4555e-06 0.076915)
(-3.13451e-06 3.10762e-06 0.0835873)
(5.13803e-06 -3.63619e-06 0.0683486)