/*--------------------------------*- C++ -*----------------------------------*\
| =========                 |                                                 |
| \\      /  F ield         | OpenFOAM: The Open Source CFD Toolbox           |
|  \\    /   O peration     | Version:  2312                                  |
|   \\  /    A nd           | Website:  www.openfoam.com                      |
|    \\/     M anipulation  |                                                 |
\*---------------------------------------------------------------------------*/
FoamFile
{
    version     2.0;
    format      ascii;
    arch        "LSB;label=32;scalar=64";
    class       volScalarField;
    location    "400";
    object      k;
}
// * * * * * * * * * * * * * * * * * * * * * * * * * * * * * * * * * * * * * //

dimensions      [0 2 -2 0 0 0 0];

internalField   nonuniform List<scalar> 
43008
(
1.57098e-05
1.61155e-05
1.52901e-05
1.60661e-05
1.60668e-05
1.76028e-05
1.72606e-05
1.75176e-05
1.6115e-05
1.61145e-05
1.60677e-05
1.60674e-05
1.75172e-05
1.61154e-05
1.61154e-05
1.60682e-05
1.60683e-05
1.60676e-05
1.60677e-05
1.7261e-05
1.75185e-05
1.6116e-05
1.60682e-05
1.60688e-05
1.75289e-05
1.76146e-05
1.60664e-05
1.60661e-05
1.76137e-05
1.60667e-05
1.6067e-05
1.60663e-05
1.76149e-05
1.60674e-05
5.00992e-05
6.99061e-05
4.93388e-05
6.99396e-05
6.9774e-05
5.01003e-05
6.99071e-05
4.93375e-05
6.99401e-05
1.57094e-05
1.57098e-05
1.57098e-05
1.53904e-05
1.53901e-05
1.53905e-05
1.53904e-05
2.60203e-05
1.60921e-05
4.29407e-05
1.53531e-05
6.97975e-05
6.97738e-05
2.60201e-05
1.54378e-05
4.24533e-05
1.60928e-05
2.54893e-05
1.53537e-05
4.29428e-05
1.73483e-05
5.7758e-05
5.7769e-05
5.19486e-05
6.9977e-05
5.1284e-05
7.00075e-05
6.97132e-05
6.96913e-05
5.19494e-05
6.99803e-05
5.12826e-05
7.00075e-05
1.52898e-05
1.52902e-05
1.52902e-05
2.76642e-05
4.3882e-05
1.51271e-05
1.60685e-05
2.71047e-05
4.4338e-05
1.50596e-05
6.9713e-05
6.96912e-05
2.76584e-05
1.51277e-05
4.38838e-05
1.60692e-05
2.71101e-05
1.50601e-05
4.43394e-05
5.83105e-05
5.83208e-05
1.77437e-05
5.85674e-05
5.85779e-05
6.97959e-05
6.97719e-05
6.97977e-05
6.97741e-05
5.74685e-05
5.74794e-05
1.73376e-05
5.77617e-05
5.77717e-05
6.97297e-05
6.97527e-05
6.9732e-05
6.97548e-05
1.74213e-05
5.818e-05
5.81902e-05
5.79053e-05
5.79164e-05
5.00983e-05
6.9903e-05
4.93377e-05
6.99363e-05
2.60132e-05
4.24528e-05
1.54373e-05
1.60923e-05
2.54922e-05
4.29365e-05
1.53531e-05
2.60135e-05
4.24517e-05
1.5437e-05
1.60918e-05
2.54904e-05
4.29418e-05
1.53528e-05
5.03453e-05
6.99746e-05
6.99422e-05
5.10585e-05
5.0344e-05
6.99716e-05
6.9939e-05
5.10574e-05
2.62906e-05
1.60791e-05
4.36492e-05
1.51979e-05
4.3184e-05
1.52738e-05
2.68265e-05
2.62886e-05
1.60787e-05
4.36563e-05
1.51976e-05
4.3182e-05
1.52735e-05
2.68258e-05
1.73366e-05
5.77677e-05
5.77641e-05
6.97725e-05
6.97319e-05
6.97547e-05
1.74212e-05
5.81859e-05
5.81807e-05
5.79125e-05
5.79059e-05
6.97303e-05
6.9753e-05
2.60135e-05
4.24529e-05
1.54376e-05
1.60928e-05
2.54943e-05
4.29391e-05
1.53535e-05
5.00994e-05
6.99026e-05
4.93375e-05
6.99361e-05
2.6013e-05
1.54374e-05
4.24519e-05
1.60927e-05
2.54946e-05
1.53532e-05
4.294e-05
5.03439e-05
6.99739e-05
6.99453e-05
5.10595e-05
2.6291e-05
1.60795e-05
4.36516e-05
1.51983e-05
4.3186e-05
1.52742e-05
2.68281e-05
5.03437e-05
6.99713e-05
6.99389e-05
5.10585e-05
2.62907e-05
1.60796e-05
1.51981e-05
4.36563e-05
1.5274e-05
4.31848e-05
2.68281e-05
5.00848e-05
6.99389e-05
2.60144e-05
1.60922e-05
1.53533e-05
4.29357e-05
5.00942e-05
6.99355e-05
2.62832e-05
1.60789e-05
4.36545e-05
1.5198e-05
4.31792e-05
1.52738e-05
2.68317e-05
5.03537e-05
6.99737e-05
6.99411e-05
5.10449e-05
2.62912e-05
1.6079e-05
1.51982e-05
4.36493e-05
1.5274e-05
4.31798e-05
2.68274e-05
5.03486e-05
6.99704e-05
6.99378e-05
5.10534e-05
5.74749e-05
5.74694e-05
1.73368e-05
5.77686e-05
5.77632e-05
6.97964e-05
6.97726e-05
6.97318e-05
6.97545e-05
1.74209e-05
5.81863e-05
5.81814e-05
5.79115e-05
5.79065e-05
6.97305e-05
6.97534e-05
2.60148e-05
1.54379e-05
4.24547e-05
1.60933e-05
2.54951e-05
1.53537e-05
4.29454e-05
5.00928e-05
6.99062e-05
4.93458e-05
6.99396e-05
5.00922e-05
6.99029e-05
4.93449e-05
6.99364e-05
2.62871e-05
1.60795e-05
1.51985e-05
4.36557e-05
1.52744e-05
4.31792e-05
2.68316e-05
2.6293e-05
1.60801e-05
1.51986e-05
4.3654e-05
1.52745e-05
4.3183e-05
2.68255e-05
5.03525e-05
6.99746e-05
6.99421e-05
5.10519e-05
5.03518e-05
6.99715e-05
6.99391e-05
5.10513e-05
6.97721e-05
6.9774e-05
1.7409e-05
5.81766e-05
5.81864e-05
5.79022e-05
5.7912e-05
6.973e-05
6.97527e-05
6.9732e-05
6.97547e-05
6.9711e-05
6.96892e-05
6.97132e-05
6.96913e-05
5.8314e-05
5.83244e-05
1.77295e-05
5.85718e-05
5.85809e-05
5.19475e-05
6.99736e-05
5.12827e-05
7.00046e-05
2.76573e-05
4.38873e-05
1.51271e-05
1.60688e-05
2.71105e-05
4.43393e-05
1.50595e-05
2.76566e-05
4.38842e-05
1.51268e-05
1.60685e-05
2.71085e-05
4.4343e-05
1.50593e-05
5.83208e-05
5.83152e-05
1.77286e-05
5.85774e-05
5.8572e-05
6.97115e-05
6.96898e-05
2.76586e-05
4.38911e-05
1.51275e-05
1.6069e-05
2.71097e-05
4.43349e-05
1.50599e-05
5.19483e-05
6.99735e-05
5.12824e-05
7.00049e-05
2.76591e-05
1.51273e-05
4.38856e-05
1.60694e-05
2.71107e-05
1.50597e-05
4.43419e-05
5.19362e-05
6.99758e-05
5.12913e-05
7.00072e-05
2.76631e-05
1.51274e-05
4.38823e-05
1.60688e-05
2.71115e-05
1.50598e-05
4.4338e-05
5.19438e-05
6.99726e-05
5.12869e-05
7.0004e-05
5.83202e-05
5.83153e-05
1.77294e-05
5.85773e-05
5.85728e-05
6.97119e-05
6.969e-05
2.76597e-05
1.51278e-05
4.38885e-05
1.60699e-05
2.71133e-05
1.50603e-05
4.43423e-05
5.19417e-05
6.9977e-05
5.12914e-05
7.00081e-05
5.1941e-05
6.99741e-05
5.12905e-05
7.00053e-05
6.97111e-05
6.96893e-05
6.97132e-05
6.96914e-05
6.9745e-05
4.98504e-05
6.90329e-05
5.70712e-05
6.90251e-05
5.6852e-05
6.97562e-05
7.11546e-05
7.30053e-05
6.99216e-05
7.11507e-05
7.31064e-05
6.97442e-05
4.95937e-05
6.90186e-05
5.64685e-05
6.97337e-05
6.90248e-05
5.66939e-05
7.11311e-05
7.32542e-05
6.99243e-05
7.31596e-05
7.11347e-05
6.97957e-05
6.97761e-05
6.97454e-05
4.98491e-05
5.70697e-05
6.90337e-05
5.68495e-05
6.90259e-05
6.97566e-05
7.11549e-05
7.30028e-05
6.9923e-05
7.1151e-05
7.31028e-05
6.97447e-05
4.95949e-05
5.64659e-05
6.90193e-05
6.97341e-05
5.66926e-05
6.90256e-05
7.11315e-05
7.32514e-05
6.99254e-05
7.31573e-05
7.11352e-05
6.97954e-05
6.97758e-05
8.65069e-05
7.26171e-05
7.26109e-05
7.26163e-05
7.261e-05
8.66095e-05
5.44832e-05
5.75388e-05
3.58133e-05
6.84901e-05
5.4552e-05
5.75495e-05
3.58324e-05
6.85013e-05
8.64625e-05
7.26398e-05
7.26335e-05
5.47202e-05
6.85383e-05
5.76871e-05
3.62435e-05
3.61034e-05
6.85035e-05
5.48386e-05
5.4788e-05
6.85496e-05
5.76972e-05
3.62606e-05
3.61231e-05
6.85153e-05
5.49043e-05
6.97969e-05
5.17279e-05
6.90956e-05
5.84336e-05
6.90789e-05
5.8237e-05
6.98093e-05
7.1075e-05
7.35735e-05
6.99916e-05
7.10716e-05
7.3659e-05
6.97955e-05
5.15122e-05
6.90618e-05
5.79124e-05
6.97833e-05
6.90761e-05
5.81141e-05
7.10516e-05
7.37794e-05
6.99939e-05
7.36993e-05
7.10549e-05
6.97114e-05
6.96929e-05
6.97974e-05
5.17265e-05
5.84322e-05
6.90963e-05
5.82346e-05
6.90798e-05
6.98098e-05
7.10755e-05
7.35724e-05
6.99908e-05
7.10722e-05
7.36557e-05
6.97961e-05
5.1513e-05
5.79099e-05
6.90628e-05
6.97838e-05
5.81127e-05
6.90767e-05
7.10522e-05
7.37766e-05
6.99973e-05
7.36978e-05
7.10555e-05
6.97113e-05
6.96928e-05
8.70519e-05
7.25265e-05
7.25204e-05
7.25259e-05
7.25198e-05
8.71373e-05
5.58405e-05
3.73703e-05
6.86419e-05
5.83754e-05
5.57335e-05
3.7503e-05
6.86737e-05
5.59082e-05
3.73886e-05
6.86541e-05
5.83853e-05
5.58013e-05
3.75264e-05
6.86853e-05
8.70136e-05
7.25485e-05
7.25423e-05
8.69239e-05
7.25491e-05
7.25429e-05
5.60511e-05
6.87159e-05
5.85047e-05
3.79145e-05
3.77824e-05
6.86851e-05
5.61556e-05
5.61183e-05
6.87277e-05
5.85151e-05
3.79361e-05
3.77993e-05
6.86971e-05
5.62223e-05
6.97936e-05
6.97741e-05
6.97955e-05
6.97761e-05
8.65126e-05
7.26184e-05
7.2612e-05
7.26175e-05
7.26112e-05
8.6615e-05
5.44845e-05
3.56721e-05
6.84551e-05
5.75417e-05
5.43661e-05
6.8491e-05
3.58123e-05
5.45467e-05
3.56912e-05
6.84691e-05
5.75524e-05
5.44344e-05
6.85008e-05
3.58286e-05
8.64687e-05
7.26401e-05
7.26338e-05
8.63626e-05
7.26412e-05
7.26348e-05
5.47224e-05
6.85394e-05
5.76907e-05
3.62446e-05
6.85046e-05
5.48403e-05
3.61039e-05
5.47917e-05
6.85498e-05
5.77014e-05
3.62581e-05
6.85185e-05
5.49023e-05
3.61225e-05
6.97317e-05
6.97507e-05
6.97338e-05
6.97528e-05
8.67556e-05
7.25948e-05
7.25885e-05
8.66584e-05
7.25956e-05
7.25893e-05
5.54048e-05
3.70875e-05
5.81128e-05
6.86311e-05
6.85982e-05
3.69504e-05
5.55154e-05
5.54763e-05
3.71054e-05
5.81238e-05
6.86428e-05
6.86107e-05
3.69713e-05
5.55802e-05
5.51833e-05
6.85521e-05
3.65287e-05
5.79751e-05
5.50681e-05
6.85862e-05
3.66711e-05
5.52467e-05
6.85639e-05
3.65491e-05
5.79842e-05
5.51391e-05
6.85975e-05
3.66857e-05
8.67965e-05
7.25728e-05
7.25665e-05
7.25721e-05
7.25658e-05
8.68895e-05
6.97441e-05
4.98493e-05
6.90326e-05
5.70678e-05
6.90248e-05
5.68463e-05
6.97552e-05
7.11538e-05
7.29797e-05
6.99185e-05
7.115e-05
7.30923e-05
6.97433e-05
4.9593e-05
6.90183e-05
5.6463e-05
6.90246e-05
6.97328e-05
5.66907e-05
7.11302e-05
7.32392e-05
6.99212e-05
7.3133e-05
7.11339e-05
6.97688e-05
6.90344e-05
5.72202e-05
5.05877e-05
6.97571e-05
6.90444e-05
5.74333e-05
7.10916e-05
6.99599e-05
7.35307e-05
7.10951e-05
7.34423e-05
7.11149e-05
7.33041e-05
6.99574e-05
7.11113e-05
7.33966e-05
6.977e-05
5.08232e-05
6.9059e-05
5.77808e-05
6.9782e-05
6.90468e-05
5.75736e-05
6.97678e-05
6.9034e-05
5.72144e-05
5.05865e-05
6.97562e-05
6.90441e-05
5.743e-05
7.10906e-05
6.99568e-05
7.35141e-05
7.34199e-05
7.10939e-05
7.1114e-05
7.32798e-05
6.99541e-05
7.11104e-05
7.33811e-05
6.9769e-05
5.08219e-05
6.90585e-05
5.77771e-05
6.90465e-05
5.75677e-05
6.9781e-05
8.65169e-05
7.26128e-05
7.2618e-05
7.26119e-05
7.26172e-05
8.66126e-05
5.45474e-05
5.75484e-05
6.85004e-05
3.58324e-05
5.44782e-05
5.75441e-05
3.58126e-05
6.84901e-05
8.64665e-05
7.26355e-05
7.26407e-05
5.47927e-05
6.85484e-05
5.76975e-05
3.6262e-05
6.85166e-05
3.61234e-05
5.4904e-05
5.47245e-05
6.85382e-05
5.76916e-05
3.62438e-05
3.61029e-05
6.85063e-05
5.48331e-05
6.9794e-05
6.97743e-05
6.97337e-05
6.97528e-05
8.67536e-05
7.25893e-05
7.25945e-05
8.66599e-05
7.25901e-05
7.25953e-05
5.54763e-05
3.71066e-05
5.81199e-05
6.86403e-05
3.69735e-05
6.8611e-05
5.55819e-05
5.5408e-05
3.70896e-05
5.8114e-05
6.86299e-05
6.8601e-05
3.69506e-05
5.55142e-05
5.52494e-05
6.85647e-05
3.65507e-05
5.79804e-05
3.66865e-05
5.5139e-05
6.85954e-05
5.51799e-05
6.85547e-05
3.65285e-05
5.7976e-05
5.50715e-05
6.85851e-05
3.66701e-05
8.67985e-05
7.25674e-05
7.25725e-05
7.25667e-05
7.25719e-05
8.68879e-05
6.97321e-05
6.97512e-05
6.97442e-05
4.9849e-05
6.90334e-05
5.70653e-05
6.90256e-05
5.68464e-05
6.97554e-05
7.11524e-05
7.29746e-05
6.99182e-05
7.11485e-05
7.30863e-05
6.97435e-05
4.95941e-05
6.90191e-05
5.6463e-05
6.90254e-05
6.9733e-05
5.66882e-05
7.11288e-05
7.32353e-05
6.99207e-05
7.31286e-05
7.11326e-05
6.97693e-05
5.72176e-05
6.90352e-05
5.05885e-05
6.97576e-05
5.74319e-05
6.90452e-05
7.1092e-05
6.9963e-05
7.3528e-05
7.10955e-05
7.34405e-05
7.11154e-05
7.33007e-05
6.9957e-05
7.11117e-05
7.33937e-05
6.97705e-05
5.08219e-05
5.77795e-05
6.90596e-05
6.97825e-05
5.7571e-05
6.90477e-05
6.9768e-05
6.90348e-05
5.72146e-05
5.05876e-05
6.97564e-05
6.90449e-05
5.74274e-05
7.10892e-05
6.99566e-05
7.35097e-05
7.34164e-05
7.10927e-05
7.11127e-05
7.32754e-05
6.99538e-05
7.1109e-05
7.33759e-05
6.97691e-05
5.08216e-05
6.90594e-05
5.77746e-05
6.90472e-05
5.7568e-05
6.97811e-05
6.97442e-05
4.98595e-05
5.70497e-05
6.90331e-05
5.68604e-05
6.90256e-05
6.97551e-05
7.11289e-05
7.32475e-05
6.99234e-05
7.31429e-05
7.11333e-05
6.97441e-05
4.9854e-05
6.90332e-05
5.70641e-05
6.90255e-05
5.68482e-05
6.97552e-05
7.1129e-05
7.32335e-05
6.99201e-05
7.31283e-05
7.11327e-05
6.97677e-05
5.72278e-05
6.90348e-05
5.05735e-05
6.97563e-05
5.74125e-05
6.90445e-05
7.10891e-05
6.99588e-05
7.35187e-05
7.34313e-05
7.10932e-05
7.11133e-05
7.32897e-05
6.99563e-05
7.11091e-05
7.33881e-05
6.97691e-05
5.0831e-05
5.77605e-05
6.90588e-05
5.75801e-05
6.90473e-05
6.97809e-05
6.97678e-05
6.90347e-05
5.7216e-05
5.05824e-05
6.97562e-05
6.90446e-05
5.74261e-05
7.10893e-05
6.99556e-05
7.35088e-05
7.34124e-05
7.10928e-05
7.11128e-05
7.3273e-05
6.99531e-05
7.11092e-05
7.33744e-05
6.9769e-05
5.08262e-05
6.90589e-05
5.77737e-05
6.90473e-05
5.75691e-05
6.97809e-05
8.65101e-05
7.26122e-05
7.26178e-05
7.26114e-05
7.2617e-05
8.66117e-05
5.45511e-05
3.56934e-05
6.8465e-05
5.75488e-05
6.85014e-05
5.44328e-05
3.58327e-05
5.44848e-05
3.56715e-05
6.84555e-05
5.75442e-05
3.58147e-05
5.43634e-05
6.84912e-05
8.64654e-05
7.26339e-05
7.26395e-05
7.26349e-05
8.63588e-05
7.26405e-05
5.47906e-05
6.85499e-05
5.76968e-05
3.62634e-05
6.85147e-05
3.61235e-05
5.49083e-05
5.47203e-05
6.8539e-05
5.76914e-05
3.62471e-05
3.61028e-05
6.85047e-05
5.4839e-05
6.97941e-05
6.97747e-05
6.97336e-05
6.97526e-05
8.67518e-05
7.25888e-05
7.25943e-05
8.66546e-05
7.25895e-05
7.25951e-05
5.54746e-05
3.71066e-05
5.81191e-05
6.86418e-05
3.69734e-05
6.86088e-05
5.55831e-05
5.54069e-05
3.70889e-05
5.81147e-05
6.86299e-05
6.86003e-05
3.69509e-05
5.55151e-05
5.52501e-05
6.85625e-05
3.655e-05
5.79815e-05
3.66856e-05
5.51368e-05
6.85967e-05
5.51796e-05
6.85546e-05
3.65276e-05
5.79752e-05
5.50682e-05
6.85848e-05
3.66699e-05
8.67938e-05
7.25668e-05
7.25724e-05
7.25661e-05
7.25717e-05
8.6885e-05
6.97325e-05
6.97513e-05
6.97451e-05
4.98576e-05
5.70669e-05
6.90335e-05
5.68528e-05
6.90257e-05
6.97563e-05
7.11543e-05
7.29958e-05
6.99215e-05
7.31031e-05
7.11506e-05
6.97444e-05
4.95875e-05
5.64694e-05
6.90193e-05
5.66896e-05
6.97339e-05
6.90254e-05
7.11308e-05
7.3252e-05
6.99244e-05
7.31486e-05
7.11344e-05
6.97438e-05
4.98568e-05
5.70652e-05
6.9033e-05
5.6847e-05
6.90252e-05
6.97549e-05
7.11528e-05
7.29827e-05
6.99184e-05
7.11491e-05
7.30822e-05
6.9743e-05
4.95869e-05
5.64635e-05
6.90187e-05
6.97325e-05
5.66879e-05
6.90249e-05
7.11294e-05
7.32309e-05
6.99212e-05
7.31354e-05
7.1133e-05
6.97689e-05
5.72207e-05
6.90349e-05
5.0581e-05
6.97572e-05
5.74292e-05
6.90449e-05
7.10911e-05
6.99599e-05
7.35267e-05
7.3433e-05
7.10945e-05
7.11145e-05
7.32943e-05
6.99572e-05
7.1111e-05
7.33935e-05
6.977e-05
5.08305e-05
5.77767e-05
6.90593e-05
5.75737e-05
6.90473e-05
6.9782e-05
6.97676e-05
5.72153e-05
6.90344e-05
5.05803e-05
6.9756e-05
5.74275e-05
6.90445e-05
7.10899e-05
6.99569e-05
7.3506e-05
7.34203e-05
7.10933e-05
7.11132e-05
7.32817e-05
6.99542e-05
7.11097e-05
7.33722e-05
6.97688e-05
5.08298e-05
5.7775e-05
6.90588e-05
5.75686e-05
6.90469e-05
6.97808e-05
6.97937e-05
6.97741e-05
6.97955e-05
6.97759e-05
8.67499e-05
7.25936e-05
7.25874e-05
8.66513e-05
7.25944e-05
7.25882e-05
5.54055e-05
3.70881e-05
5.81101e-05
6.86302e-05
5.5515e-05
3.69525e-05
6.85974e-05
5.54744e-05
3.71101e-05
5.81198e-05
6.86417e-05
5.55841e-05
3.69732e-05
6.86095e-05
5.51832e-05
6.85512e-05
3.65299e-05
5.79709e-05
5.50679e-05
3.66692e-05
6.85852e-05
5.52484e-05
6.85631e-05
3.65523e-05
5.79814e-05
5.51369e-05
3.66883e-05
6.85965e-05
8.67907e-05
7.25718e-05
7.25655e-05
8.68845e-05
7.2571e-05
7.25649e-05
6.97318e-05
6.97509e-05
6.97338e-05
6.97528e-05
6.97093e-05
6.96909e-05
6.97115e-05
6.96931e-05
8.70576e-05
7.25276e-05
7.25214e-05
7.25269e-05
7.25207e-05
8.71434e-05
5.58391e-05
3.73689e-05
6.86428e-05
5.8379e-05
5.57331e-05
6.86747e-05
3.75036e-05
5.59038e-05
3.73892e-05
6.86554e-05
5.83887e-05
5.58041e-05
6.86865e-05
3.7519e-05
8.70183e-05
7.25495e-05
7.25432e-05
8.69296e-05
7.25502e-05
7.25438e-05
5.6052e-05
6.87171e-05
5.85088e-05
3.7915e-05
6.86861e-05
5.61552e-05
3.77807e-05
5.61221e-05
6.87288e-05
5.8519e-05
3.7929e-05
6.86985e-05
5.62187e-05
3.78012e-05
6.97959e-05
5.17266e-05
6.90938e-05
5.84295e-05
6.90798e-05
5.82313e-05
6.98082e-05
7.10739e-05
7.35503e-05
6.99884e-05
7.10705e-05
7.36412e-05
6.97945e-05
5.15109e-05
6.90618e-05
5.79066e-05
6.90752e-05
6.97823e-05
5.81103e-05
7.10505e-05
7.37618e-05
6.99906e-05
7.36756e-05
7.10538e-05
8.70586e-05
7.25221e-05
7.25273e-05
7.25214e-05
7.25266e-05
8.71407e-05
5.59045e-05
3.73914e-05
6.86561e-05
5.83841e-05
6.86837e-05
5.58048e-05
3.75221e-05
5.58377e-05
3.73681e-05
6.86458e-05
5.83796e-05
3.75027e-05
5.57354e-05
6.86735e-05
8.70168e-05
7.25441e-05
7.25492e-05
7.25447e-05
8.69317e-05
7.25498e-05
5.61235e-05
6.87265e-05
5.8515e-05
3.79357e-05
6.8699e-05
3.78018e-05
5.62204e-05
5.60534e-05
6.87155e-05
5.85095e-05
3.79112e-05
3.7781e-05
6.86887e-05
5.6152e-05
6.97099e-05
6.96913e-05
6.97959e-05
5.1726e-05
6.90962e-05
5.84272e-05
6.90789e-05
5.82315e-05
6.98082e-05
7.10726e-05
7.35468e-05
6.99881e-05
7.10692e-05
7.36363e-05
6.97946e-05
5.15119e-05
6.90622e-05
5.7907e-05
6.90765e-05
6.97824e-05
5.81078e-05
7.10492e-05
7.37579e-05
6.99904e-05
7.36725e-05
7.10525e-05
6.97959e-05
5.17345e-05
5.84147e-05
6.90939e-05
5.82419e-05
6.90807e-05
6.98079e-05
7.10731e-05
7.35633e-05
6.99904e-05
7.36454e-05
7.10691e-05
6.97943e-05
5.1499e-05
5.7918e-05
6.90628e-05
5.80944e-05
6.97824e-05
6.90755e-05
7.10491e-05
7.3767e-05
6.99926e-05
7.36873e-05
7.10531e-05
6.97958e-05
5.17303e-05
6.90939e-05
5.84263e-05
6.90806e-05
5.82324e-05
6.9808e-05
7.10727e-05
7.35434e-05
6.99872e-05
7.10693e-05
7.36363e-05
6.97944e-05
5.15071e-05
6.90627e-05
5.79076e-05
6.97823e-05
6.90755e-05
5.81069e-05
7.10493e-05
7.37573e-05
6.99894e-05
7.36692e-05
7.10526e-05
8.70553e-05
7.25216e-05
7.25271e-05
7.2521e-05
7.25265e-05
8.71368e-05
5.59083e-05
3.73905e-05
6.86535e-05
5.83851e-05
6.86855e-05
5.58033e-05
3.75224e-05
5.58401e-05
3.73683e-05
6.86451e-05
5.83802e-05
3.75059e-05
5.5734e-05
6.86733e-05
8.70131e-05
7.25435e-05
7.25491e-05
7.25441e-05
8.69277e-05
7.25497e-05
5.6121e-05
6.87278e-05
5.85151e-05
3.79337e-05
6.86967e-05
3.78018e-05
5.62231e-05
5.60521e-05
6.87153e-05
5.851e-05
3.79171e-05
3.77798e-05
6.86884e-05
5.6155e-05
6.97101e-05
6.96916e-05
6.97967e-05
5.17353e-05
5.84296e-05
6.90943e-05
5.82369e-05
6.90807e-05
6.9809e-05
7.10744e-05
7.3566e-05
6.99914e-05
7.36544e-05
7.10712e-05
6.97954e-05
5.15053e-05
5.79123e-05
6.90627e-05
5.81101e-05
6.97832e-05
6.90759e-05
7.10511e-05
7.37755e-05
6.99939e-05
7.36905e-05
7.10543e-05
6.97957e-05
5.17343e-05
5.84277e-05
6.90939e-05
5.8232e-05
6.90803e-05
6.98079e-05
7.10733e-05
7.35532e-05
6.99885e-05
7.10701e-05
7.36333e-05
6.97943e-05
5.15045e-05
5.79073e-05
6.90623e-05
6.97821e-05
5.81083e-05
6.90755e-05
7.10501e-05
7.37537e-05
6.9991e-05
7.36784e-05
7.10532e-05
6.97095e-05
6.96909e-05
6.97115e-05
6.9693e-05
1.59853e-05
1.59856e-05
1.56002e-05
1.58588e-05
1.58592e-05
1.62834e-05
1.64156e-05
3.444e-05
1.72696e-05
2.26391e-05
2.26467e-05
1.5494e-05
1.54944e-05
1.51927e-05
1.5377e-05
1.53774e-05
1.57729e-05
1.58978e-05
3.6196e-05
2.36681e-05
2.36763e-05
1.76323e-05
3.60518e-05
2.37664e-05
2.3768e-05
3.44301e-05
2.25626e-05
2.25658e-05
1.72596e-05
3.42928e-05
2.26327e-05
2.26337e-05
3.56229e-05
1.75135e-05
2.34578e-05
2.34616e-05
2.33899e-05
2.33973e-05
3.57505e-05
3.4428e-05
1.72614e-05
2.26305e-05
2.2643e-05
3.56214e-05
1.75129e-05
2.34724e-05
2.34572e-05
2.33889e-05
2.33942e-05
3.57523e-05
3.44387e-05
2.25648e-05
2.25556e-05
1.72609e-05
2.26407e-05
3.42903e-05
2.2639e-05
3.56133e-05
1.75133e-05
2.34644e-05
2.34817e-05
2.33971e-05
2.33785e-05
3.57632e-05
3.56163e-05
1.75018e-05
2.34806e-05
2.34786e-05
3.57602e-05
2.33798e-05
2.33854e-05
3.61823e-05
2.36815e-05
2.36866e-05
1.76199e-05
3.60587e-05
2.37487e-05
2.37525e-05
3.61845e-05
2.36779e-05
2.36836e-05
1.76196e-05
2.37502e-05
3.60577e-05
2.37658e-05
3.61932e-05
2.3688e-05
2.36653e-05
1.76214e-05
2.377e-05
3.60478e-05
2.37573e-05
1.59851e-05
1.59854e-05
1.55998e-05
1.58586e-05
1.5859e-05
1.62833e-05
1.64155e-05
1.59853e-05
1.59856e-05
1.56002e-05
1.58588e-05
1.58592e-05
1.62833e-05
1.64155e-05
1.59852e-05
1.59856e-05
1.56001e-05
1.58588e-05
1.58591e-05
1.62833e-05
1.64155e-05
1.54939e-05
1.56132e-05
1.56136e-05
1.57349e-05
1.57353e-05
1.6153e-05
1.60245e-05
1.54936e-05
1.5613e-05
1.56134e-05
1.57347e-05
1.57351e-05
1.6153e-05
1.60244e-05
1.5494e-05
1.56132e-05
1.56136e-05
1.57349e-05
1.57353e-05
1.6153e-05
1.60244e-05
1.54939e-05
1.56132e-05
1.56135e-05
1.57349e-05
1.57352e-05
1.61529e-05
1.60244e-05
1.82882e-05
2.58836e-05
3.01541e-05
1.69994e-05
3.00153e-05
1.69706e-05
1.83312e-05
2.07065e-05
3.69354e-05
4.28198e-05
2.5361e-05
2.52627e-05
3.6819e-05
2.07717e-05
1.83016e-05
2.58863e-05
1.69943e-05
3.0155e-05
1.69769e-05
3.00186e-05
1.83189e-05
2.05486e-05
2.4943e-05
3.64028e-05
4.2576e-05
2.05197e-05
2.5052e-05
3.65407e-05
1.81873e-05
2.56204e-05
1.68921e-05
2.95924e-05
1.81717e-05
1.69062e-05
2.9729e-05
2.07224e-05
3.69529e-05
4.28202e-05
2.53681e-05
2.52561e-05
3.68122e-05
2.07526e-05
3.47309e-05
1.73278e-05
2.29104e-05
2.29173e-05
2.2822e-05
2.28254e-05
3.48846e-05
1.54938e-05
1.54942e-05
1.51924e-05
1.53768e-05
1.53772e-05
1.57728e-05
1.58977e-05
1.54941e-05
1.54944e-05
1.51928e-05
1.53771e-05
1.53774e-05
1.57729e-05
1.58977e-05
1.5494e-05
1.54944e-05
1.51927e-05
1.5377e-05
1.53773e-05
1.57728e-05
1.58977e-05
1.8886e-05
2.75224e-05
3.18644e-05
1.74392e-05
3.17238e-05
1.74016e-05
1.89369e-05
2.14301e-05
2.6231e-05
3.8038e-05
4.40006e-05
2.13577e-05
2.63454e-05
3.81506e-05
1.87768e-05
2.7247e-05
3.12946e-05
1.72811e-05
1.87249e-05
3.14379e-05
1.7317e-05
2.15898e-05
3.85459e-05
4.42241e-05
2.66758e-05
2.65622e-05
3.84338e-05
2.16597e-05
1.88987e-05
2.75296e-05
1.74343e-05
3.18676e-05
1.74073e-05
3.17277e-05
1.89213e-05
2.14108e-05
2.62319e-05
3.80288e-05
4.40008e-05
2.13747e-05
2.63413e-05
3.8163e-05
1.87584e-05
2.72411e-05
1.72872e-05
3.12991e-05
1.87377e-05
1.7312e-05
3.14395e-05
2.1606e-05
3.85619e-05
4.42257e-05
2.66846e-05
2.65644e-05
3.84254e-05
2.16448e-05
3.64797e-05
1.77107e-05
2.40656e-05
2.40719e-05
2.39626e-05
2.3971e-05
3.66228e-05
3.4739e-05
1.73364e-05
2.28974e-05
2.29041e-05
3.4874e-05
2.28338e-05
2.28331e-05
3.53141e-05
1.74244e-05
2.31072e-05
2.31112e-05
3.51829e-05
2.3173e-05
2.31813e-05
1.83025e-05
2.58881e-05
3.01547e-05
1.69905e-05
3.00198e-05
1.69766e-05
1.83196e-05
2.05559e-05
2.49473e-05
3.64034e-05
4.2572e-05
3.65407e-05
2.05202e-05
2.50504e-05
1.81881e-05
2.56161e-05
2.95946e-05
1.68913e-05
2.97291e-05
1.81729e-05
1.69031e-05
2.07236e-05
3.69417e-05
4.28213e-05
2.53703e-05
3.68158e-05
2.52604e-05
2.07603e-05
1.82916e-05
2.5886e-05
3.01475e-05
1.6992e-05
3.00183e-05
1.69753e-05
1.83342e-05
2.057e-05
2.49616e-05
3.63946e-05
4.25788e-05
2.05082e-05
3.65381e-05
2.50428e-05
1.82028e-05
2.56162e-05
2.95936e-05
1.68904e-05
1.81626e-05
2.97224e-05
1.69039e-05
2.07093e-05
3.69503e-05
4.2819e-05
2.53598e-05
3.6805e-05
2.07739e-05
2.52745e-05
1.8457e-05
3.04469e-05
1.70719e-05
2.64173e-05
1.84393e-05
3.05806e-05
1.70876e-05
2.11508e-05
2.60179e-05
4.35391e-05
3.77528e-05
2.59016e-05
3.76392e-05
2.11899e-05
2.09724e-05
3.72317e-05
2.55761e-05
4.32961e-05
2.56906e-05
2.09333e-05
3.73528e-05
1.8585e-05
2.66978e-05
3.10057e-05
1.7193e-05
3.08753e-05
1.71746e-05
1.86046e-05
1.84736e-05
3.04441e-05
1.70701e-05
2.64164e-05
1.84277e-05
3.05753e-05
1.70897e-05
2.11372e-05
2.60075e-05
4.3537e-05
3.77623e-05
3.76215e-05
2.59189e-05
2.12056e-05
2.09841e-05
3.72128e-05
2.55937e-05
4.3304e-05
2.09198e-05
3.73581e-05
2.56844e-05
1.85739e-05
2.6696e-05
3.10045e-05
1.71953e-05
3.08703e-05
1.71731e-05
1.86228e-05
3.47415e-05
1.73367e-05
2.29082e-05
2.28988e-05
2.28307e-05
2.28255e-05
3.48703e-05
3.53172e-05
1.74236e-05
2.3104e-05
2.31102e-05
2.31864e-05
3.5183e-05
2.31756e-05
1.83041e-05
2.5889e-05
3.01496e-05
1.70018e-05
3.0017e-05
1.69708e-05
1.83201e-05
2.05517e-05
2.49577e-05
3.63987e-05
4.25803e-05
3.65399e-05
2.05236e-05
2.50437e-05
1.81895e-05
2.56151e-05
2.95895e-05
1.68852e-05
2.97311e-05
1.81746e-05
1.69137e-05
2.07268e-05
3.69422e-05
4.28212e-05
2.5362e-05
3.68138e-05
2.52729e-05
2.0756e-05
1.83037e-05
2.58892e-05
1.70018e-05
3.01519e-05
1.69705e-05
3.00193e-05
1.83199e-05
2.05507e-05
2.49487e-05
3.63973e-05
4.25784e-05
2.05218e-05
3.65315e-05
2.50585e-05
1.8189e-05
2.56146e-05
1.68851e-05
2.9595e-05
1.81737e-05
1.69136e-05
2.97245e-05
2.07248e-05
3.69486e-05
4.28201e-05
2.53726e-05
3.68095e-05
2.07546e-05
2.52634e-05
1.84579e-05
3.04472e-05
1.70645e-05
2.64177e-05
1.84412e-05
3.05764e-05
1.71001e-05
2.11524e-05
2.60102e-05
4.3542e-05
3.77494e-05
2.59145e-05
3.76381e-05
2.11881e-05
2.09687e-05
3.72305e-05
2.55903e-05
4.32999e-05
2.56844e-05
2.09359e-05
3.73456e-05
1.85866e-05
2.66983e-05
3.10059e-05
1.72068e-05
3.08741e-05
1.71674e-05
1.86057e-05
1.84583e-05
1.70642e-05
3.04441e-05
2.64179e-05
1.84409e-05
1.71e-05
3.05801e-05
2.11518e-05
2.60089e-05
4.35398e-05
3.77593e-05
3.7622e-05
2.59172e-05
2.11856e-05
2.09676e-05
3.72153e-05
2.55883e-05
4.33008e-05
2.09345e-05
3.7357e-05
2.56849e-05
1.85866e-05
2.66983e-05
1.72068e-05
3.10066e-05
1.71672e-05
3.08718e-05
1.86054e-05
1.82924e-05
2.58898e-05
1.70001e-05
3.01553e-05
1.69717e-05
3.0013e-05
1.83367e-05
2.0704e-05
3.69469e-05
4.28165e-05
2.53529e-05
2.52674e-05
3.68043e-05
2.07795e-05
1.84709e-05
3.04402e-05
1.7065e-05
2.64217e-05
1.84246e-05
3.05823e-05
1.70959e-05
2.11316e-05
2.60135e-05
4.35344e-05
3.7746e-05
2.12054e-05
2.59042e-05
3.76375e-05
2.09817e-05
3.72311e-05
2.55828e-05
4.33002e-05
2.09158e-05
2.56878e-05
3.73436e-05
1.85706e-05
2.66924e-05
3.10084e-05
1.72016e-05
1.86214e-05
3.0867e-05
1.7169e-05
1.84751e-05
1.70659e-05
3.04404e-05
2.64177e-05
1.84283e-05
1.70963e-05
3.05802e-05
2.11301e-05
2.60003e-05
4.35339e-05
3.77583e-05
3.76206e-05
2.59126e-05
2.12103e-05
2.09889e-05
3.72118e-05
2.5587e-05
4.32986e-05
2.09133e-05
3.73527e-05
2.56732e-05
1.8574e-05
2.66995e-05
1.72023e-05
3.10109e-05
1.71697e-05
3.08694e-05
1.86241e-05
3.47331e-05
1.73375e-05
2.29062e-05
2.29164e-05
2.28223e-05
2.28359e-05
3.48858e-05
3.53243e-05
1.74234e-05
2.31127e-05
2.30941e-05
2.31803e-05
3.51745e-05
2.31953e-05
1.83047e-05
2.58904e-05
1.69944e-05
3.01518e-05
1.69769e-05
3.00208e-05
1.83224e-05
2.05582e-05
2.49519e-05
3.64079e-05
4.25793e-05
2.50567e-05
2.05189e-05
3.65251e-05
1.81905e-05
2.56167e-05
1.68917e-05
2.95964e-05
1.69061e-05
1.81743e-05
2.97244e-05
2.07227e-05
3.69367e-05
4.28219e-05
2.53692e-05
2.52653e-05
3.6818e-05
2.07615e-05
1.84564e-05
1.70718e-05
3.04454e-05
2.64241e-05
1.84382e-05
1.70922e-05
3.05848e-05
2.1149e-05
2.60124e-05
4.35357e-05
3.77655e-05
2.11835e-05
2.59016e-05
3.76273e-05
2.09663e-05
3.7219e-05
2.55752e-05
4.3301e-05
2.09316e-05
2.56909e-05
3.73603e-05
1.85845e-05
2.66951e-05
1.7198e-05
3.10114e-05
1.86034e-05
1.7175e-05
3.08712e-05
1.84606e-05
1.7072e-05
3.04487e-05
2.64175e-05
1.84425e-05
1.70924e-05
3.05771e-05
2.11528e-05
2.6016e-05
4.35392e-05
3.77455e-05
3.76357e-05
2.59132e-05
2.11884e-05
2.09725e-05
3.72278e-05
2.5587e-05
4.33032e-05
2.09337e-05
3.73442e-05
2.56902e-05
1.85886e-05
2.6701e-05
1.71975e-05
3.10042e-05
1.71751e-05
3.08756e-05
1.86078e-05
3.5323e-05
1.74339e-05
2.30961e-05
2.31002e-05
3.51749e-05
2.31933e-05
2.31968e-05
3.64868e-05
1.77215e-05
2.40516e-05
2.40553e-05
3.6612e-05
2.39742e-05
2.39785e-05
1.89011e-05
2.7528e-05
3.18621e-05
1.74308e-05
3.1732e-05
1.74071e-05
1.89234e-05
2.14167e-05
2.62287e-05
3.80428e-05
4.39968e-05
3.81494e-05
2.13764e-05
2.63443e-05
1.87606e-05
2.72409e-05
3.13044e-05
1.72869e-05
3.14323e-05
1.874e-05
1.73076e-05
2.16071e-05
3.85478e-05
4.42281e-05
2.66783e-05
3.84395e-05
2.65633e-05
2.16496e-05
1.88892e-05
2.75259e-05
3.1857e-05
1.74319e-05
3.1727e-05
1.74059e-05
1.89415e-05
2.14306e-05
2.6248e-05
3.80216e-05
4.40007e-05
2.13615e-05
3.81587e-05
2.6337e-05
1.87794e-05
2.72405e-05
3.1299e-05
1.72852e-05
1.87276e-05
3.14308e-05
1.73095e-05
2.15951e-05
3.85549e-05
4.42273e-05
2.66699e-05
3.84212e-05
2.16635e-05
2.65823e-05
3.64872e-05
1.77209e-05
2.40657e-05
2.40503e-05
2.39766e-05
2.39712e-05
3.66127e-05
1.89024e-05
2.75266e-05
3.18589e-05
1.74449e-05
3.17307e-05
1.7399e-05
1.89241e-05
2.1416e-05
2.62455e-05
3.80409e-05
4.39961e-05
3.81494e-05
2.13778e-05
2.63381e-05
1.87619e-05
2.72424e-05
3.13027e-05
1.72782e-05
3.14318e-05
1.87417e-05
1.73222e-05
2.16072e-05
3.85459e-05
4.42338e-05
2.66702e-05
3.84393e-05
2.65788e-05
2.16499e-05
1.89024e-05
2.75269e-05
1.7444e-05
3.18591e-05
1.73989e-05
3.17289e-05
1.89241e-05
2.14132e-05
2.6247e-05
3.80235e-05
4.40036e-05
2.1378e-05
3.8158e-05
2.63385e-05
1.87618e-05
2.72414e-05
1.7278e-05
3.13005e-05
1.87415e-05
1.73219e-05
3.14333e-05
2.16079e-05
3.85561e-05
4.42265e-05
2.66722e-05
3.84221e-05
2.16463e-05
2.65812e-05
1.88894e-05
2.75255e-05
1.744e-05
3.18677e-05
1.74024e-05
3.17234e-05
1.89426e-05
2.14357e-05
2.62398e-05
3.80209e-05
4.39965e-05
2.63395e-05
2.13547e-05
3.81607e-05
1.87808e-05
2.72453e-05
1.72812e-05
3.12952e-05
1.73169e-05
1.87276e-05
3.14392e-05
2.15887e-05
3.85568e-05
4.4224e-05
2.66767e-05
2.6566e-05
3.84184e-05
2.16669e-05
3.64804e-05
1.77228e-05
2.40503e-05
2.4067e-05
2.39609e-05
2.39845e-05
3.6624e-05
1.8905e-05
2.75302e-05
1.74333e-05
3.18637e-05
1.74087e-05
3.17288e-05
1.89265e-05
2.14147e-05
2.62421e-05
3.80376e-05
4.4003e-05
2.63452e-05
2.13791e-05
3.81489e-05
1.8764e-05
2.72409e-05
1.72875e-05
3.1302e-05
1.73117e-05
1.87437e-05
3.1434e-05
2.16098e-05
3.85463e-05
4.42285e-05
2.66852e-05
2.65759e-05
3.84325e-05
2.16482e-05
3.60233e-05
3.60197e-05
3.60197e-05
3.60086e-05
3.39295e-05
3.38855e-05
3.38854e-05
3.39591e-05
3.21567e-05
3.2002e-05
3.20018e-05
3.19441e-05
3.05323e-05
3.0221e-05
3.02209e-05
2.9977e-05
2.90294e-05
2.8544e-05
2.85441e-05
2.81094e-05
2.76309e-05
2.6976e-05
2.69761e-05
2.6377e-05
2.63254e-05
2.55188e-05
2.55191e-05
2.47933e-05
2.51051e-05
2.41719e-05
2.41723e-05
2.33637e-05
2.39642e-05
2.29369e-05
2.29371e-05
2.20889e-05
2.28984e-05
2.18126e-05
2.18125e-05
2.09702e-05
2.19041e-05
2.07964e-05
2.07962e-05
1.99964e-05
2.0978e-05
1.98854e-05
1.98851e-05
1.91627e-05
2.01152e-05
1.90776e-05
1.90772e-05
1.84693e-05
1.93144e-05
1.83695e-05
1.83693e-05
1.79096e-05
1.85746e-05
1.77582e-05
1.77582e-05
1.74787e-05
1.78933e-05
1.7242e-05
1.72422e-05
1.71678e-05
1.7268e-05
1.68201e-05
1.68205e-05
1.69844e-05
1.66967e-05
1.64916e-05
1.64921e-05
1.69405e-05
1.61781e-05
1.62565e-05
1.62571e-05
1.70332e-05
1.61148e-05
1.7253e-05
3.62978e-05
3.62919e-05
3.62919e-05
3.62977e-05
3.62919e-05
3.62919e-05
3.62908e-05
3.62908e-05
3.62908e-05
3.62908e-05
3.62919e-05
3.62919e-05
3.62978e-05
3.62919e-05
3.62919e-05
3.62978e-05
3.60086e-05
3.42659e-05
3.60197e-05
3.60197e-05