/*--------------------------------*- C++ -*----------------------------------*\
| =========                 |                                                 |
| \\      /  F ield         | OpenFOAM: The Open Source CFD Toolbox           |
|  \\    /   O peration     | Version:  2312                                  |
|   \\  /    A nd           | Website:  www.openfoam.com                      |
|    \\/     M anipulation  |                                                 |
\*---------------------------------------------------------------------------*/
FoamFile
{
    version     2.0;
    format      ascii;
    arch        "LSB;label=32;scalar=64";
    class       volScalarField;
    location    "400";
    object      nut;
}
// * * * * * * * * * * * * * * * * * * * * * * * * * * * * * * * * * * * * * //

dimensions      [0 2 -1 0 0 0 0];

internalField   nonuniform List<scalar> 
43008
(
0.000158322
0.000108539
0.000154165
0.000104783
0.000104783
8.33449e-05
8.52931e-05
8.37573e-05
0.000108514
0.000108499
0.000105629
0.000105612
8.36973e-05
0.000108539
0.000108501
0.000105654
0.000105616
0.000105653
0.000105624
8.5244e-05
8.37342e-05
0.000108527
0.000105652
0.000105642
8.39536e-05
8.35571e-05
0.000104758
0.000104742
8.34894e-05
0.000104782
0.000104747
0.000104754
8.35001e-05
0.000104773
6.51419e-05
4.9507e-05
6.39687e-05
4.9523e-05
2.36525e-05
6.51336e-05
4.95016e-05
6.3974e-05
4.95167e-05
0.000158318
0.000158315
0.000158312
0.000155198
0.000155192
0.000155189
0.000155187
6.16746e-05
0.000107536
6.23537e-05
0.000133378
2.36552e-05
2.36514e-05
6.16585e-05
0.000134453
6.15964e-05
0.000107534
6.08155e-05
0.000133372
6.236e-05
8.48017e-05
5.93406e-05
5.93419e-05
6.77297e-05
4.95325e-05
6.66869e-05
4.95462e-05
2.36419e-05
2.36381e-05
6.77517e-05
4.95323e-05
6.66924e-05
4.95374e-05
0.00015416
0.000154157
0.000154155
6.42199e-05
6.36955e-05
0.000130142
0.000103908
6.32798e-05
6.44367e-05
0.0001291
2.36409e-05
2.36373e-05
6.41318e-05
0.000130132
6.36974e-05
0.00010391
6.32878e-05
0.000129089
6.43889e-05
6.00621e-05
6.00625e-05
8.31669e-05
6.04238e-05
6.04482e-05
2.36583e-05
2.36546e-05
2.36559e-05
2.36522e-05
5.8949e-05
5.89336e-05
8.45739e-05
5.9331e-05
5.93458e-05
2.36474e-05
2.36513e-05
2.3645e-05
2.36489e-05
8.43513e-05
5.98965e-05
5.99114e-05
5.95308e-05
5.9516e-05
6.51389e-05
4.95014e-05
6.39648e-05
4.95174e-05
6.15924e-05
6.15948e-05
0.00013445
0.000107511
6.08726e-05
6.23439e-05
0.000133365
6.16523e-05
6.15781e-05
0.000134447
0.000107493
6.0828e-05
6.2317e-05
0.000133364
6.53647e-05
4.95358e-05
4.95199e-05
6.64845e-05
6.53639e-05
4.95298e-05
4.9514e-05
6.64821e-05
6.2066e-05
0.000106583
6.34e-05
0.000131206
6.26661e-05
0.000132271
6.28534e-05
6.20206e-05
0.000106567
6.33703e-05
0.000131207
6.26686e-05
0.00013227
6.28942e-05
8.45849e-05
5.93418e-05
5.93341e-05
2.36535e-05
2.36451e-05
2.36491e-05
8.43139e-05
5.99047e-05
5.9896e-05
5.95108e-05
5.95286e-05
2.36466e-05
2.36501e-05
6.16343e-05
6.15858e-05
0.000134452
0.000107535
6.0848e-05
6.23379e-05
0.000133371
6.51416e-05
4.94978e-05
6.39622e-05
4.9514e-05
6.16397e-05
0.000134441
6.1579e-05
0.000107496
6.08425e-05
0.000133359
6.23381e-05
6.53707e-05
4.95259e-05
4.95199e-05
6.6473e-05
6.20353e-05
0.000106607
6.33955e-05
0.000131214
6.26619e-05
0.000132275
6.28891e-05
6.536e-05
4.95268e-05
4.95107e-05
6.64857e-05
6.20273e-05
0.000106571
0.000131201
6.34054e-05
0.000132264
6.26553e-05
6.28939e-05
6.50957e-05
4.95194e-05
6.16131e-05
0.000107506
0.000133372
6.23395e-05
6.51148e-05
4.95152e-05
6.19975e-05
0.000106608
6.34149e-05
0.000131222
6.26542e-05
0.000132285
6.29043e-05
6.53949e-05
4.95318e-05
4.95152e-05
6.64413e-05
6.20563e-05
0.000106578
0.000131211
6.33648e-05
0.000132276
6.26534e-05
6.28554e-05
6.53847e-05
4.95274e-05
4.95112e-05
6.6459e-05
5.8927e-05
5.8949e-05
8.45766e-05
5.93424e-05
5.93313e-05
2.36575e-05
2.36535e-05
2.36442e-05
2.36479e-05
8.43691e-05
5.99056e-05
5.98966e-05
5.95086e-05
5.95311e-05
2.36464e-05
2.36502e-05
6.16351e-05
0.000134445
6.15851e-05
0.000107523
6.08406e-05
0.000133367
6.23321e-05
6.51202e-05
4.9503e-05
6.39811e-05
4.95194e-05
6.51203e-05
4.94971e-05
6.39785e-05
4.95133e-05
6.20065e-05
0.000106606
0.000131212
6.3418e-05
0.000132275
6.26511e-05
6.29083e-05
6.20341e-05
0.000106597
0.00013121
6.33653e-05
0.000132272
6.26672e-05
6.28759e-05
6.53823e-05
4.95318e-05
4.95158e-05
6.64652e-05
6.53803e-05
4.95256e-05
4.95101e-05
6.64641e-05
2.36521e-05
2.3651e-05
8.41609e-05
5.99065e-05
5.99049e-05
5.95103e-05
5.95091e-05
2.3645e-05
2.36487e-05
2.36438e-05
2.36475e-05
2.36441e-05
2.36403e-05
2.36418e-05
2.36381e-05
6.00848e-05
6.00695e-05
8.30574e-05
6.04346e-05
6.04299e-05
6.7722e-05
4.95257e-05
6.66856e-05
4.95408e-05
6.41459e-05
6.37167e-05
0.000130127
0.000103885
6.33289e-05
6.43933e-05
0.000129084
6.42004e-05
6.3719e-05
0.000130127
0.000103868
6.32917e-05
6.43918e-05
0.000129085
6.00653e-05
6.00838e-05
8.30118e-05
6.04258e-05
6.04633e-05
2.36434e-05
2.36398e-05
6.41989e-05
6.37173e-05
0.000130132
0.000103908
6.32991e-05
6.43689e-05
0.000129091
6.77436e-05
4.95227e-05
6.66817e-05
4.95387e-05
6.42134e-05
0.000130121
6.36929e-05
0.000103873
6.33003e-05
0.000129078
6.44355e-05
6.77085e-05
4.95278e-05
6.67127e-05
4.95437e-05
6.41825e-05
0.000130132
6.37212e-05
0.000103882
6.33278e-05
0.00012909
6.43892e-05
6.77276e-05
4.95238e-05
6.67044e-05
4.95395e-05
6.00634e-05
6.00841e-05
8.30512e-05
6.04481e-05
6.0461e-05
2.36432e-05
2.36396e-05
6.41712e-05
0.000130131
6.37184e-05
0.0001039
6.33024e-05
0.000129089
6.44354e-05
6.77059e-05
4.95279e-05
6.67032e-05
4.95436e-05
6.77011e-05
4.95224e-05
6.67012e-05
4.95379e-05
2.36417e-05
2.3638e-05
2.36405e-05
2.3637e-05
3.61703e-05
6.46745e-05
4.0305e-05
6.75588e-05
4.03027e-05
6.71508e-05
3.61732e-05
2.0241e-05
6.67529e-05
4.95166e-05
2.02405e-05
6.69381e-05
3.61701e-05
6.44403e-05
4.03008e-05
6.66331e-05
3.61674e-05
4.03026e-05
6.70485e-05
2.02377e-05
6.71463e-05
4.95134e-05
6.6978e-05
2.02382e-05
2.36562e-05
2.36527e-05
3.61703e-05
6.46834e-05
6.75571e-05
4.03046e-05
6.71454e-05
4.03024e-05
3.61732e-05
2.02414e-05
6.67589e-05
4.9512e-05
2.02409e-05
6.69234e-05
3.61701e-05
6.44303e-05
6.66285e-05
4.03004e-05
3.61674e-05
6.70468e-05
4.03022e-05
2.02382e-05
6.71401e-05
4.95079e-05
6.69829e-05
2.02386e-05
2.3655e-05
2.36515e-05
6.93107e-05
2.15791e-05
2.15759e-05
2.15789e-05
2.15758e-05
6.94775e-05
7.01942e-05
5.90504e-05
6.60493e-05
4.70419e-05
7.02427e-05
5.90505e-05
6.60518e-05
4.70325e-05
6.92642e-05
2.15824e-05
2.15793e-05
7.04917e-05
4.70584e-05
5.92199e-05
6.6695e-05
6.64577e-05
4.7043e-05
7.06952e-05
7.05389e-05
4.7049e-05
5.92191e-05
6.66962e-05
6.64709e-05
4.70339e-05
7.07349e-05
3.61837e-05
6.73245e-05
4.03246e-05
6.94546e-05
4.03171e-05
6.90752e-05
3.6187e-05
2.02298e-05
6.76021e-05
4.95418e-05
2.02294e-05
6.77581e-05
3.61835e-05
6.71242e-05
4.03129e-05
6.86161e-05
3.61802e-05
4.03181e-05
6.9002e-05
2.02265e-05
6.79471e-05
4.95388e-05
6.78008e-05
2.0227e-05
2.36416e-05
2.36383e-05
3.61838e-05
6.73231e-05
6.94537e-05
4.03242e-05
6.90686e-05
4.0317e-05
3.61871e-05
2.02302e-05
6.76037e-05
4.95316e-05
2.02297e-05
6.77518e-05
3.61835e-05
6.71188e-05
6.86106e-05
4.0313e-05
3.61803e-05
6.90005e-05
4.03175e-05
2.02268e-05
6.79427e-05
4.95383e-05
6.78002e-05
2.02273e-05
2.36407e-05
2.36374e-05
7.01193e-05
2.15656e-05
2.15625e-05
2.15655e-05
2.15624e-05
7.0265e-05
7.21364e-05
6.84015e-05
4.70903e-05
6.01786e-05
7.19506e-05
6.8633e-05
4.7105e-05
7.21503e-05
6.84123e-05
4.70813e-05
6.01786e-05
7.20042e-05
6.8655e-05
4.70957e-05
7.00772e-05
2.15689e-05
2.15657e-05
6.99261e-05
2.1569e-05
2.15658e-05
7.24004e-05
4.71197e-05
6.03342e-05
6.92458e-05
6.90582e-05
4.71049e-05
7.25988e-05
7.24668e-05
4.71104e-05
6.03293e-05
6.92965e-05
6.90544e-05
4.70959e-05
7.2606e-05
2.36581e-05
2.3655e-05
2.36557e-05
2.36523e-05
6.93169e-05
2.15797e-05
2.15765e-05
2.15795e-05
2.15763e-05
6.94833e-05
7.01996e-05
6.5815e-05
4.70289e-05
5.90379e-05
6.99987e-05
4.70447e-05
6.60516e-05
7.02318e-05
6.58265e-05
4.70228e-05
5.90562e-05
7.00481e-05
4.7029e-05
6.60526e-05
6.92709e-05
2.15828e-05
2.15796e-05
6.90997e-05
2.15831e-05
2.15798e-05
7.04966e-05
4.70614e-05
5.92417e-05
6.67101e-05
4.70457e-05
7.07036e-05
6.64591e-05
7.05497e-05
4.70474e-05
5.92266e-05
6.6697e-05
4.70397e-05
7.07343e-05
6.64726e-05
2.36477e-05
2.3651e-05
2.36453e-05
2.36486e-05
6.96902e-05
2.15762e-05
2.15729e-05
6.95298e-05
2.15765e-05
2.15731e-05
7.14654e-05
6.79914e-05
5.9811e-05
4.70931e-05
4.70783e-05
6.77485e-05
7.16646e-05
7.15216e-05
6.80039e-05
5.97934e-05
4.70818e-05
4.70669e-05
6.7766e-05
7.1701e-05
7.11928e-05
4.7062e-05
6.70999e-05
5.96221e-05
7.09847e-05
4.70777e-05
6.73637e-05
7.12259e-05
4.70501e-05
6.71188e-05
5.96315e-05
7.10414e-05
4.70656e-05
6.73576e-05
6.97341e-05
2.15733e-05
2.15697e-05
2.15732e-05
2.15696e-05
6.98892e-05
3.61689e-05
6.46734e-05
4.03049e-05
6.75447e-05
4.03026e-05
6.71475e-05
3.61718e-05
2.02404e-05
6.67314e-05
4.95114e-05
2.02398e-05
6.69165e-05
3.61687e-05
6.44382e-05
4.03007e-05
6.66284e-05
4.03026e-05
3.6166e-05
6.70346e-05
2.0237e-05
6.71327e-05
4.95077e-05
6.69511e-05
2.02375e-05
3.61765e-05
4.03053e-05
6.76546e-05
6.58258e-05
3.61735e-05
4.03084e-05
6.80549e-05
2.02321e-05
4.95266e-05
6.75606e-05
2.02327e-05
6.73993e-05
2.02354e-05
6.71943e-05
4.95298e-05
2.02349e-05
6.73636e-05
3.61768e-05
6.60371e-05
4.03128e-05
6.8538e-05
3.61799e-05
4.03088e-05
6.81429e-05
3.6175e-05
4.03053e-05
6.76498e-05
6.58201e-05
3.61721e-05
4.03083e-05
6.80388e-05
2.02314e-05
4.95205e-05
6.75438e-05
6.73787e-05
2.0232e-05
2.02347e-05
6.71671e-05
4.95237e-05
2.02341e-05
6.73435e-05
3.61753e-05
6.60344e-05
4.03125e-05
6.85194e-05
4.03088e-05
6.81394e-05
3.61784e-05
6.93233e-05
2.15765e-05
2.15794e-05
2.15763e-05
2.15793e-05
6.94788e-05
7.02048e-05
5.90521e-05
4.70301e-05
6.60577e-05
7.01589e-05
5.90416e-05
6.60361e-05
4.70396e-05
6.92668e-05
2.15796e-05
2.15825e-05
7.05695e-05
4.70463e-05
5.92194e-05
6.67049e-05
4.70379e-05
6.647e-05
7.07141e-05
7.05262e-05
4.70561e-05
5.92431e-05
6.66948e-05
6.64726e-05
4.70475e-05
7.06641e-05
2.36571e-05
2.36537e-05
2.36455e-05
2.36488e-05
6.96857e-05
2.1573e-05
2.15759e-05
6.95317e-05
2.15731e-05
2.1576e-05
7.15384e-05
6.79987e-05
5.9788e-05
4.70778e-05
6.7768e-05
4.70705e-05
7.16789e-05
7.14961e-05
6.7991e-05
5.98103e-05
4.70873e-05
4.70811e-05
6.77672e-05
7.16395e-05
7.12016e-05
4.70544e-05
6.71185e-05
5.96263e-05
6.73507e-05
7.10559e-05
4.70623e-05
7.1153e-05
4.70649e-05
6.71149e-05
5.96223e-05
7.10157e-05
4.70723e-05
6.73463e-05
6.97363e-05
2.15699e-05
2.15726e-05
2.15696e-05
2.15725e-05
6.98855e-05
2.36469e-05
2.36502e-05
3.61686e-05
6.46704e-05
4.03045e-05
6.75384e-05
4.03022e-05
6.71495e-05
3.61715e-05
2.02404e-05
6.67193e-05
4.95079e-05
2.02398e-05
6.69202e-05
3.61684e-05
6.44399e-05
4.03003e-05
6.66298e-05
4.03022e-05
3.61657e-05
6.70294e-05
2.0237e-05
6.71409e-05
4.95041e-05
6.69441e-05
2.02376e-05
3.61765e-05
6.76493e-05
4.03051e-05
6.58124e-05
3.61735e-05
6.80527e-05
4.03079e-05
2.02325e-05
4.95263e-05
6.7555e-05
2.0233e-05
6.7402e-05
2.02358e-05
6.71911e-05
4.95207e-05
2.02353e-05
6.73536e-05
3.61768e-05
6.60433e-05
6.85356e-05
4.03122e-05
3.618e-05
6.81373e-05
4.03088e-05
3.61748e-05
4.03048e-05
6.76521e-05
6.58246e-05
3.61718e-05
4.03079e-05
6.80355e-05
2.02314e-05
4.95173e-05
6.75486e-05
6.7372e-05
2.02319e-05
2.02348e-05
6.71579e-05
4.95206e-05
2.02342e-05
6.73397e-05
3.61751e-05
6.60298e-05
4.03123e-05
6.85169e-05
4.03083e-05
6.81401e-05
3.61782e-05
3.61704e-05
6.47088e-05
6.75011e-05
4.03041e-05
6.71859e-05
4.0302e-05
3.61732e-05
2.02381e-05
6.71426e-05
4.95092e-05
6.69591e-05
2.02388e-05
3.61691e-05
6.46972e-05
4.03048e-05
6.75402e-05
4.03026e-05
6.7152e-05
3.61719e-05
2.02372e-05
6.71324e-05
4.95054e-05
6.69445e-05
2.02378e-05
3.61764e-05
6.76846e-05
4.03047e-05
6.57793e-05
3.61735e-05
6.79992e-05
4.03074e-05
2.02325e-05
4.95221e-05
6.75466e-05
6.7391e-05
2.0233e-05
2.02359e-05
6.71782e-05
4.95258e-05
2.02353e-05
6.73511e-05
3.61768e-05
6.60635e-05
6.84785e-05
4.03114e-05
6.81717e-05
4.03085e-05
3.61798e-05
3.61752e-05
4.03054e-05
6.76537e-05
6.57984e-05
3.61722e-05
4.03081e-05
6.80366e-05
2.02316e-05
4.95181e-05
6.75431e-05
6.7368e-05
2.02321e-05
2.02349e-05
6.71587e-05
4.95214e-05
2.02344e-05
6.73409e-05
3.61755e-05
6.60543e-05
4.03121e-05
6.85155e-05
4.03092e-05
6.81411e-05
3.61786e-05
6.93156e-05
2.15767e-05
2.15798e-05
2.15766e-05
2.15797e-05
6.9481e-05
7.02401e-05
6.58313e-05
4.70178e-05
5.9051e-05
4.70335e-05
7.00426e-05
6.6056e-05
7.02019e-05
6.58108e-05
4.70288e-05
5.90411e-05
6.60596e-05
6.99955e-05
4.70451e-05
6.92687e-05
2.15799e-05
2.1583e-05
2.15801e-05
6.90972e-05
2.15832e-05
7.05448e-05
4.70503e-05
5.92205e-05
6.67064e-05
4.70348e-05
6.64729e-05
7.07457e-05
7.04958e-05
4.70602e-05
5.9241e-05
6.67099e-05
6.64579e-05
4.70454e-05
7.07002e-05
2.36571e-05
2.36538e-05
2.36444e-05
2.36478e-05
6.96868e-05
2.15732e-05
2.15764e-05
6.95266e-05
2.15733e-05
2.15765e-05
7.15164e-05
6.79963e-05
5.97864e-05
4.70818e-05
6.77722e-05
4.70673e-05
7.17031e-05
7.14725e-05
6.79961e-05
5.98121e-05
4.70892e-05
4.70819e-05
6.77504e-05
7.16621e-05
7.12309e-05
4.7051e-05
6.71194e-05
5.96287e-05
6.73474e-05
7.1034e-05
4.70666e-05
7.11832e-05
4.70674e-05
6.70974e-05
5.96195e-05
7.09887e-05
4.7074e-05
6.73597e-05
6.97324e-05
2.15699e-05
2.15731e-05
2.15698e-05
2.1573e-05
6.98846e-05
2.36467e-05
2.36499e-05
3.61708e-05
6.46915e-05
6.7547e-05
4.03046e-05
6.71566e-05
4.03022e-05
3.61737e-05
2.02421e-05
6.67405e-05
4.9513e-05
6.6939e-05
2.02415e-05
3.61707e-05
6.44203e-05
6.66379e-05
4.03004e-05
6.70364e-05
3.61679e-05
4.03022e-05
2.02387e-05
6.71507e-05
4.95094e-05
6.69642e-05
2.02392e-05
3.61679e-05
6.46885e-05
6.75405e-05
4.03039e-05
6.715e-05
4.03016e-05
3.61708e-05
2.024e-05
6.67299e-05
4.9507e-05
2.02396e-05
6.69122e-05
3.61677e-05
6.44204e-05
6.66295e-05
4.02997e-05
3.6165e-05
6.70292e-05
4.03015e-05
2.02367e-05
6.71208e-05
4.95035e-05
6.69515e-05
2.02372e-05
3.6177e-05
6.7659e-05
4.03049e-05
6.58007e-05
3.6174e-05
6.80436e-05
4.03079e-05
2.0233e-05
4.95223e-05
6.75621e-05
6.73866e-05
2.02335e-05
2.02364e-05
6.7182e-05
4.95258e-05
2.02359e-05
6.73658e-05
3.61773e-05
6.60523e-05
6.85251e-05
4.03121e-05
6.81463e-05
4.03085e-05
3.61804e-05
3.61741e-05
6.76515e-05
4.03042e-05
6.57991e-05
3.61711e-05
6.80358e-05
4.03073e-05
2.02311e-05
4.95166e-05
6.75351e-05
6.73763e-05
2.02316e-05
2.02344e-05
6.71715e-05
4.95196e-05
2.02339e-05
6.7337e-05
3.61744e-05
6.60505e-05
6.85152e-05
4.03114e-05
6.81407e-05
4.03078e-05
3.61775e-05
2.36558e-05
2.36523e-05
2.36546e-05
2.36511e-05
6.96834e-05
2.15756e-05
2.15724e-05
6.95214e-05
2.15757e-05
2.15725e-05
7.14841e-05
6.79859e-05
5.97879e-05
4.709e-05
7.1637e-05
6.77556e-05
4.70752e-05
7.15334e-05
6.80054e-05
5.97871e-05
4.70808e-05
7.16837e-05
6.77722e-05
4.70661e-05
7.11616e-05
4.70589e-05
6.71051e-05
5.96261e-05
7.09873e-05
6.73454e-05
4.70747e-05
7.12017e-05
4.70498e-05
6.71257e-05
5.96262e-05
7.10374e-05
6.73554e-05
4.70652e-05
6.97272e-05
2.15724e-05
2.15692e-05
6.98833e-05
2.15722e-05
2.15691e-05
2.36452e-05
2.36486e-05
2.3644e-05
2.36474e-05
2.36437e-05
2.36406e-05
2.36415e-05
2.36384e-05
7.01263e-05
2.15664e-05
2.15628e-05
2.15664e-05
2.15628e-05
7.02724e-05
7.21323e-05
6.84043e-05
4.70932e-05
6.01701e-05
7.19418e-05
4.71079e-05
6.86467e-05
7.21688e-05
6.84141e-05
4.70823e-05
6.01839e-05
7.19954e-05
4.70968e-05
6.8648e-05
7.00825e-05
2.15698e-05
2.15662e-05
6.99327e-05
2.157e-05
2.15663e-05
7.24023e-05
4.71228e-05
6.03546e-05
6.92976e-05
4.71081e-05
7.26033e-05
6.90442e-05
7.24536e-05
4.71115e-05
6.03413e-05
6.92886e-05
4.70971e-05
7.26363e-05
6.90586e-05
3.61823e-05
6.7328e-05
4.03216e-05
6.94338e-05
4.03196e-05
6.90738e-05
3.61854e-05
2.02291e-05
6.75768e-05
4.95357e-05
2.02286e-05
6.77407e-05
3.61819e-05
6.71161e-05
4.03135e-05
6.86125e-05
4.03171e-05
3.61788e-05
6.89877e-05
2.02257e-05
6.79301e-05
4.95323e-05
6.77734e-05
2.02263e-05
7.01273e-05
2.15632e-05
2.15659e-05
2.15632e-05
2.15658e-05
7.02673e-05
7.21383e-05
6.84181e-05
4.70875e-05
6.01775e-05
4.7093e-05
7.20121e-05
6.86398e-05
7.21316e-05
6.84114e-05
4.70969e-05
6.01717e-05
6.86282e-05
7.19584e-05
4.71022e-05
7.00792e-05
2.15665e-05
2.15692e-05
2.15666e-05
6.99358e-05
2.15692e-05
7.24841e-05
4.71087e-05
6.03357e-05
6.92806e-05
4.71024e-05
6.90704e-05
7.2591e-05
7.24116e-05
4.71164e-05
6.03447e-05
6.92632e-05
6.90622e-05
4.71115e-05
7.25913e-05
2.36431e-05
2.36399e-05
3.6182e-05
6.73141e-05
4.03245e-05
6.94332e-05
4.03161e-05
6.90725e-05
3.61852e-05
2.02291e-05
6.75708e-05
4.95326e-05
2.02285e-05
6.77371e-05
3.61817e-05
6.71245e-05
4.03123e-05
6.86126e-05
4.03177e-05
3.61785e-05
6.89843e-05
2.02257e-05
6.79281e-05
4.95289e-05
6.7769e-05
2.02262e-05
3.61838e-05
6.73441e-05
6.94013e-05
4.03201e-05
6.91025e-05
4.03198e-05
3.61868e-05
2.02302e-05
6.75923e-05
4.95376e-05
6.77416e-05
2.02296e-05
3.61833e-05
6.7086e-05
6.86424e-05
4.03135e-05
6.89522e-05
3.61803e-05
4.03158e-05
2.02267e-05
6.79327e-05
4.95338e-05
6.77866e-05
2.02273e-05
3.61825e-05
6.73348e-05
4.03207e-05
6.94424e-05
4.03206e-05
6.90712e-05
3.61856e-05
2.02292e-05
6.75696e-05
4.95333e-05
2.02287e-05
6.77403e-05
3.61821e-05
6.71059e-05
4.03142e-05
6.86132e-05
3.6179e-05
4.03164e-05
6.89869e-05
2.02259e-05
6.79299e-05
4.95299e-05
6.77664e-05
2.02264e-05
7.01254e-05
2.15632e-05
2.15663e-05
2.15631e-05
2.15663e-05
7.02648e-05
7.21755e-05
6.84179e-05
4.70821e-05
6.01799e-05
4.70969e-05
7.19919e-05
6.86444e-05
7.2108e-05
6.84004e-05
4.70974e-05
6.01718e-05
6.8634e-05
7.19516e-05
4.71038e-05
7.00769e-05
2.15665e-05
2.15696e-05
2.15666e-05
6.99327e-05
2.15697e-05
7.24505e-05
4.71116e-05
6.03301e-05
6.92735e-05
4.7097e-05
6.90665e-05
7.26416e-05
7.2428e-05
4.71178e-05
6.0346e-05
6.92888e-05
6.90574e-05
4.71126e-05
7.25569e-05
2.36429e-05
2.36397e-05
3.61842e-05
6.7346e-05
6.94465e-05
4.03209e-05
6.90775e-05
4.03196e-05
3.61874e-05
2.02307e-05
6.75942e-05
4.95376e-05
6.77583e-05
2.02302e-05
3.61839e-05
6.70984e-05
6.86184e-05
4.03133e-05
6.89924e-05
3.61807e-05
4.03166e-05
2.02274e-05
6.79475e-05
4.95342e-05
6.77896e-05
2.02278e-05
3.61814e-05
6.73443e-05
6.94274e-05
4.03202e-05
6.90762e-05
4.03189e-05
3.61844e-05
2.02287e-05
6.75832e-05
4.95318e-05
2.02283e-05
6.77293e-05
3.61809e-05
6.70968e-05
6.86133e-05
4.03126e-05
3.61779e-05
6.89819e-05
4.03159e-05
2.02255e-05
6.7917e-05
4.95285e-05
6.77801e-05
2.02258e-05
2.36415e-05
2.36383e-05
2.36404e-05
2.36371e-05
0.000180006
0.000180016
0.000157276
0.00017914
0.000179152
0.000197116
0.000197817
6.89049e-05
8.52769e-05
7.04626e-05
7.04869e-05
0.000176555
0.000176566
0.000153126
0.000175694
0.000175706
0.000194309
0.000195011
7.15162e-05
7.11909e-05
7.12072e-05
8.36263e-05
7.12864e-05
7.15004e-05
7.14605e-05
6.88732e-05
7.03306e-05
7.03189e-05
8.50541e-05
6.86403e-05
7.04271e-05
7.04094e-05
7.0622e-05
8.39452e-05
7.10849e-05
7.1095e-05
7.09867e-05
7.10091e-05
7.08382e-05
6.88078e-05
8.50827e-05
7.02786e-05
7.03563e-05
7.06597e-05
8.39344e-05
7.10097e-05
7.09497e-05
7.10605e-05
7.11235e-05
7.07899e-05
6.89073e-05
7.03745e-05
7.02588e-05
8.50723e-05
7.04798e-05
6.86218e-05
7.03482e-05
7.05851e-05
8.39183e-05
7.1095e-05
7.12315e-05
7.09964e-05
7.09044e-05
7.08831e-05
7.06199e-05
8.36828e-05
7.12308e-05
7.11838e-05
7.08299e-05
7.0906e-05
7.0907e-05
7.1482e-05
7.12935e-05
7.13064e-05
8.3394e-05
7.12961e-05
7.13803e-05
7.12697e-05
7.14483e-05
7.13267e-05
7.1387e-05
8.33838e-05
7.12632e-05
7.13222e-05
7.13256e-05
7.1523e-05
7.12985e-05
7.11797e-05
8.33961e-05
7.15131e-05
7.12497e-05
7.14035e-05
0.000180003
0.000180017
0.000157271
0.000179139
0.000179151
0.000197115
0.000197816
0.000180001
0.000180012
0.000157267
0.000179136
0.000179148
0.000197112
0.000197813
0.000180002
0.000180008
0.000157265
0.000179137
0.000179144
0.000197111
0.000197812
0.000156241
0.000177415
0.000177426
0.000178278
0.000178289
0.000196415
0.000195713
0.000156236
0.000177413
0.000177425
0.000178275
0.000178289
0.000196414
0.000195712
0.000156233
0.00017741
0.000177422
0.000178272
0.000178284
0.000196411
0.000195709
0.000156231
0.000177411
0.000177419
0.000178274
0.000178281
0.00019641
0.000195708
7.29803e-05
6.13928e-05
6.32062e-05
7.6878e-05
6.29977e-05
7.67475e-05
7.32771e-05
6.68241e-05
6.37571e-05
6.21251e-05
6.52078e-05
6.49752e-05
6.36288e-05
6.71394e-05
7.30011e-05
6.14061e-05
7.68208e-05
6.32353e-05
7.67941e-05
6.29687e-05
7.31116e-05
6.68674e-05
6.4525e-05
6.29456e-05
6.18268e-05
6.67723e-05
6.4839e-05
6.32032e-05
7.33228e-05
6.10548e-05
7.72282e-05
6.23258e-05
7.32065e-05
7.72245e-05
6.25742e-05
6.69205e-05
6.38535e-05
6.21258e-05
6.52566e-05
6.49366e-05
6.35623e-05
6.70161e-05
6.92503e-05
8.45955e-05
7.0662e-05
7.06852e-05
7.04328e-05
7.04173e-05
6.95691e-05
0.000176552
0.000176566
0.00015312
0.000175691
0.000175704
0.000194308
0.00019501
0.00017655
0.000176561
0.000153117
0.000175689
0.000175701
0.000194305
0.000195007
0.000176551
0.000176559
0.000153115
0.00017569
0.000175699
0.000194304
0.000195006
7.22817e-05
6.39499e-05
6.5881e-05
7.57632e-05
6.56856e-05
7.55852e-05
7.27851e-05
6.77248e-05
6.63597e-05
6.55206e-05
6.39306e-05
6.73703e-05
6.66278e-05
6.56804e-05
7.28482e-05
6.35567e-05
6.49956e-05
7.58525e-05
7.2471e-05
6.52139e-05
7.59911e-05
6.76084e-05
6.63244e-05
6.42061e-05
6.7093e-05
6.68403e-05
6.61286e-05
6.79985e-05
7.23623e-05
6.39812e-05
7.55266e-05
6.59335e-05
7.57596e-05
6.56562e-05
7.2622e-05
6.74796e-05
6.63537e-05
6.54665e-05
6.39294e-05
6.75934e-05
6.66067e-05
6.57248e-05
7.26706e-05
6.3527e-05
7.59832e-05
6.49698e-05
7.25403e-05
7.58125e-05
6.52412e-05
6.77918e-05
6.63672e-05
6.42249e-05
6.71458e-05
6.68456e-05
6.60893e-05
6.79489e-05
7.1929e-05
8.30554e-05
7.18426e-05
7.17088e-05
7.14862e-05
7.15627e-05
7.22339e-05
6.92942e-05
8.47629e-05
7.05841e-05
7.05972e-05
6.95242e-05
7.05158e-05
7.04784e-05
7.01761e-05
8.4174e-05
7.07277e-05
7.0723e-05
6.99644e-05
7.08077e-05
7.08396e-05
7.3156e-05
6.14575e-05
6.32093e-05
7.66517e-05
6.30071e-05
7.69121e-05
7.29384e-05
6.67617e-05
6.45609e-05
6.29598e-05
6.18179e-05
6.318e-05
6.68969e-05
6.47932e-05
7.30876e-05
6.10138e-05
6.23521e-05
7.73279e-05
6.25542e-05
7.33564e-05
7.7063e-05
6.70366e-05
6.37733e-05
6.21303e-05
6.5232e-05
6.35989e-05
6.49671e-05
6.69226e-05
7.30245e-05
6.14039e-05
6.32011e-05
7.66756e-05
6.29852e-05
7.6906e-05
7.33061e-05
6.70057e-05
6.4611e-05
6.29188e-05
6.18256e-05
6.67005e-05
6.32135e-05
6.47217e-05
7.34738e-05
6.10597e-05
6.23401e-05
7.73281e-05
7.32969e-05
6.25549e-05
7.7084e-05
6.68401e-05
6.38373e-05
6.21221e-05
6.51394e-05
6.35505e-05
6.71492e-05
6.50126e-05
7.26869e-05
6.36585e-05
7.65764e-05
6.22271e-05
7.29333e-05
6.38504e-05
7.63351e-05
6.73916e-05
6.61492e-05
6.31924e-05
6.50406e-05
6.58704e-05
6.49055e-05
6.72905e-05
6.70824e-05
6.42502e-05
6.53917e-05
6.2873e-05
6.56833e-05
6.72011e-05
6.44111e-05
7.28415e-05
6.26848e-05
6.45119e-05
7.60241e-05
6.43402e-05
7.62685e-05
7.26179e-05
7.30957e-05
6.36405e-05
7.65714e-05
6.22565e-05
7.27684e-05
6.38692e-05
7.63662e-05
6.72015e-05
6.60673e-05
6.32046e-05
6.50751e-05
6.48511e-05
6.59299e-05
6.75137e-05
6.73263e-05
6.41862e-05
6.54536e-05
6.28543e-05
6.70113e-05
6.44511e-05
6.56181e-05
7.26348e-05
6.26445e-05
6.45505e-05
7.60564e-05
6.43027e-05
7.6265e-05
7.29621e-05
6.93464e-05
8.47258e-05
7.04872e-05
7.04771e-05
7.06053e-05
7.04997e-05
6.94688e-05
7.01284e-05
8.4175e-05
7.07655e-05
7.08309e-05
7.07724e-05
6.99972e-05
7.07324e-05
7.30856e-05
6.14279e-05
6.32108e-05
7.6901e-05
6.29695e-05
7.67476e-05
7.29716e-05
6.67452e-05
6.45999e-05
6.29407e-05
6.18308e-05
6.31812e-05
6.69245e-05
6.47394e-05
7.3145e-05
6.10423e-05
6.23163e-05
7.71832e-05
6.25946e-05
7.33774e-05
7.73116e-05
6.70614e-05
6.37726e-05
6.21204e-05
6.51649e-05
6.35998e-05
6.50151e-05
6.69038e-05
7.3126e-05
6.14135e-05
7.69007e-05
6.32155e-05
7.67375e-05
6.29839e-05
7.31778e-05
6.67468e-05
6.45648e-05
6.29367e-05
6.18221e-05
6.69195e-05
6.31749e-05
6.47539e-05
7.32974e-05
6.1053e-05
7.7178e-05
6.23367e-05
7.33879e-05
7.73072e-05
6.25598e-05
6.7049e-05
6.38282e-05
6.21142e-05
6.51484e-05
6.35621e-05
6.68977e-05
6.50254e-05
7.27478e-05
6.36488e-05
7.6405e-05
6.22485e-05
7.29966e-05
6.38621e-05
7.65881e-05
6.74105e-05
6.60979e-05
6.31915e-05
6.50181e-05
6.59152e-05
6.49029e-05
6.72723e-05
6.70651e-05
6.42537e-05
6.54421e-05
6.28716e-05
6.56381e-05
6.72209e-05
6.43955e-05
7.28831e-05
6.26595e-05
6.45435e-05
7.63071e-05
6.43139e-05
7.60929e-05
7.26841e-05
7.29523e-05
7.63966e-05
6.36352e-05
6.22555e-05
7.28568e-05
7.65857e-05
6.38809e-05
6.74084e-05
6.60046e-05
6.31788e-05
6.5094e-05
6.4822e-05
6.59884e-05
6.72525e-05
6.70606e-05
6.41822e-05
6.54877e-05
6.2871e-05
6.72139e-05
6.44662e-05
6.55718e-05
7.27171e-05
6.26555e-05
7.6301e-05
6.45478e-05
7.60813e-05
6.43048e-05
7.28029e-05
7.29495e-05
6.14597e-05
7.68913e-05
6.32444e-05
7.67561e-05
6.29476e-05
7.32752e-05
6.68061e-05
6.38328e-05
6.21147e-05
6.51503e-05
6.5002e-05
6.355e-05
6.71919e-05
7.30552e-05
6.36435e-05
7.64181e-05
6.22641e-05
7.27293e-05
6.38603e-05
7.65461e-05
6.71647e-05
6.61369e-05
6.31776e-05
6.50247e-05
6.75098e-05
6.58852e-05
6.4906e-05
6.73131e-05
6.4259e-05
6.54343e-05
6.28861e-05
6.69869e-05
6.56629e-05
6.43927e-05
7.26057e-05
6.26358e-05
6.45141e-05
7.62648e-05
7.29334e-05
6.43156e-05
7.61199e-05
7.30553e-05
7.642e-05
6.36134e-05
6.22345e-05
7.27235e-05
7.65503e-05
6.38959e-05
6.71421e-05
6.60584e-05
6.31878e-05
6.50986e-05
6.48187e-05
6.59129e-05
6.75408e-05
6.73568e-05
6.41758e-05
6.545e-05
6.28723e-05
6.69606e-05
6.44594e-05
6.55843e-05
7.25986e-05
6.26829e-05
7.6253e-05
6.45711e-05
7.61069e-05
6.42888e-05
7.29369e-05
6.92655e-05
8.47706e-05
7.06411e-05
7.06857e-05
7.04262e-05
7.0534e-05
6.95669e-05
7.02187e-05
8.41414e-05
7.07447e-05
7.06295e-05
7.08364e-05
6.99261e-05
7.09488e-05
7.31888e-05
6.14226e-05
7.6696e-05
6.31692e-05
7.69203e-05
6.30266e-05
7.29749e-05
6.67791e-05
6.45605e-05
6.29628e-05
6.18243e-05
6.47881e-05
6.689e-05
6.31671e-05
7.32029e-05
6.10409e-05
7.73005e-05
6.23711e-05
7.71037e-05
7.33185e-05
6.25206e-05
6.70345e-05
6.37938e-05
6.21281e-05
6.51946e-05
6.4964e-05
6.35913e-05
6.6935e-05
7.28898e-05
7.64612e-05
6.36304e-05
6.22806e-05
7.27877e-05
7.6504e-05
6.38953e-05
6.73718e-05
6.6144e-05
6.31783e-05
6.5109e-05
6.72713e-05
6.5855e-05
6.483e-05
6.70856e-05
6.41882e-05
6.53808e-05
6.28839e-05
6.70997e-05
6.56909e-05
6.44612e-05
7.26744e-05
6.26369e-05
7.60901e-05
6.45637e-05
7.27507e-05
7.61752e-05
6.42944e-05
7.27697e-05
7.65739e-05
6.36865e-05
6.22463e-05
7.30144e-05
7.63789e-05
6.38282e-05
6.74082e-05
6.61125e-05
6.32052e-05
6.50216e-05
6.48791e-05
6.58996e-05
6.72871e-05
6.70879e-05
6.42225e-05
6.54166e-05
6.28535e-05
6.72066e-05
6.44193e-05
6.56501e-05
7.28837e-05
6.26638e-05
7.6068e-05
6.44933e-05
7.62699e-05
6.43552e-05
7.2656e-05
7.01695e-05
8.43857e-05
7.06493e-05
7.06365e-05
6.99223e-05
7.09257e-05
7.09228e-05
7.19427e-05
8.31752e-05
7.17541e-05
7.15647e-05
7.21885e-05
7.15867e-05
7.16815e-05
7.25681e-05
6.40036e-05
6.59235e-05
7.55052e-05
6.5693e-05
7.57775e-05
7.24449e-05
6.76677e-05
6.63384e-05
6.5528e-05
6.38831e-05
6.56716e-05
6.75462e-05
6.66109e-05
7.25266e-05
6.35126e-05
6.50158e-05
7.59841e-05
6.52045e-05
7.27539e-05
7.57844e-05
6.77202e-05
6.62955e-05
6.42519e-05
6.71033e-05
6.61512e-05
6.68469e-05
6.79224e-05
7.23584e-05
6.39591e-05
6.5841e-05
7.55322e-05
6.56982e-05
7.57757e-05
7.28238e-05
6.77305e-05
6.64096e-05
6.5474e-05
6.38836e-05
6.74082e-05
6.56763e-05
6.65422e-05
7.29172e-05
6.35429e-05
6.49822e-05
7.59838e-05
7.25449e-05
6.5202e-05
7.58122e-05
6.76362e-05
6.62937e-05
6.42406e-05
6.70331e-05
6.6124e-05
6.80115e-05
6.69119e-05
7.20036e-05
8.31737e-05
7.1624e-05
7.157e-05
7.17113e-05
7.16541e-05
7.2098e-05
7.25921e-05
6.39676e-05
6.58944e-05
7.56564e-05
6.56851e-05
7.56526e-05
7.24657e-05
6.74958e-05
6.64002e-05
6.55303e-05
6.38714e-05
6.56366e-05
6.76001e-05
6.65244e-05
7.2564e-05
6.35343e-05
6.49939e-05
7.5804e-05
6.52073e-05
7.27927e-05
7.59877e-05
6.78028e-05
6.62522e-05
6.42571e-05
6.695e-05
6.6174e-05
6.69576e-05
6.79681e-05
7.24409e-05
6.39567e-05
7.56431e-05
6.59022e-05
7.56491e-05
6.56724e-05
7.267e-05
6.7457e-05
6.64544e-05
6.54514e-05
6.39265e-05
6.76118e-05
6.57157e-05
6.64873e-05
7.27529e-05
6.3538e-05
7.57982e-05
6.4983e-05
7.263e-05
7.59735e-05
6.52178e-05
6.78749e-05
6.63562e-05
6.42006e-05
6.69478e-05
6.60824e-05
6.76778e-05
6.69703e-05
7.23389e-05
6.39855e-05
7.56129e-05
6.58947e-05
7.56787e-05
6.56684e-05
7.2809e-05
6.77695e-05
6.63811e-05
6.54489e-05
6.38829e-05
6.66029e-05
6.73652e-05
6.57078e-05
7.28995e-05
6.35316e-05
7.58307e-05
6.49569e-05
7.59341e-05
7.25167e-05
6.52376e-05
6.76456e-05
6.63169e-05
6.42375e-05
6.71408e-05
6.68324e-05
6.61064e-05
6.77955e-05
7.19199e-05
8.3209e-05
7.17163e-05
7.18413e-05
7.14956e-05
7.16179e-05
7.22197e-05
7.26042e-05
6.39913e-05
7.57643e-05
6.58661e-05
7.57225e-05
6.57129e-05
7.24739e-05
6.76584e-05
6.63764e-05
6.5523e-05
6.39301e-05
6.65875e-05
6.75668e-05
6.56648e-05
7.25615e-05
6.35218e-05
7.59729e-05
6.50203e-05
7.58746e-05
7.27912e-05
6.51936e-05
6.77395e-05
6.62715e-05
6.42087e-05
6.7111e-05
6.68787e-05
6.61499e-05
6.79147e-05
0.000233968
0.000233541
0.00023354
0.00023343
0.00023252
0.000227492
0.000227484
0.000223698
0.000230465
0.00022003
0.000220022
0.000208858
0.000227719
0.000211396
0.000211391
0.000193562
0.000224334
0.000202407
0.000202405
0.00017957
0.000220442
0.000193557
0.000193557
0.000167281
0.00021619
0.000185087
0.000185088
0.000156574
0.000211707
0.00017707
0.000177072
0.000147249
0.000207097
0.000169546
0.000169547
0.000139031
0.00020244
0.000162486
0.000162486
0.000131754
0.000197789
0.000155836
0.000155834
0.000125106
0.000193179
0.000149542
0.000149537
0.000118937
0.000188592
0.000143562
0.000143554
0.000113211
0.000184063
0.000137843
0.000137833
0.000107894
0.000179621
0.000132345
0.000132334
0.000102971
0.000175254
0.000127056
0.000127048
9.83004e-05
0.000170951
0.000122
0.000121994
9.40079e-05
0.000166699
0.000117203
0.000117201
9.03527e-05
0.000162498
0.000112696
0.000112695
8.7399e-05
0.00010854
8.50933e-05
0.000234252
0.000234467
0.000234465
0.000234248
0.000234467
0.000234466
0.00023426
0.00023426
0.00023426
0.000234261
0.000234466
0.00023447
0.000234248
0.000234467
0.000234471
0.000234255
0.000233443
0.000226085