/*--------------------------------*- C++ -*----------------------------------*\
| =========                 |                                                 |
| \\      /  F ield         | OpenFOAM: The Open Source CFD Toolbox           |
|  \\    /   O peration     | Version:  2312                                  |
|   \\  /    A nd           | Website:  www.openfoam.com                      |
|    \\/     M anipulation  |                                                 |
\*---------------------------------------------------------------------------*/
FoamFile
{
    version     2.0;
    format      ascii;
    arch        "LSB;label=32;scalar=64";
    class       surfaceScalarField;
    location    "400";
    object      phi;
}
// * * * * * * * * * * * * * * * * * * * * * * * * * * * * * * * * * * * * * //

dimensions      [0 3 -1 0 0 0 0];

oriented        oriented;

internalField   nonuniform List<scalar> 
124832
(
-8.75963e-07
-8.82685e-07
4.56067e-07
4.56959e-07
0.00114044
-0.00113959
-1.51898e-06
8.77084e-07
4.45221e-07
0.00113302
-5.32517e-07
1.10757e-06
1.27656e-07
7.24749e-07
-5.90814e-07
-1.27334e-06
5.83541e-08
-0.00113244
-8.56763e-07
-8.57818e-07
-0.00114291
4.42757e-07
4.43356e-07
0.00114374
-0.00113482
-1.51676e-06
8.57407e-07
4.19092e-07
0.00113536
-5.21532e-07
1.1169e-06
1.34219e-07
7.32302e-07
-5.75148e-07
-1.25932e-06
6.76308e-08
-0.00113469
-1.51394e-06
8.57716e-07
4.24498e-07
0.00113523
-5.21484e-07
1.11432e-06
1.34268e-07
7.32262e-07
-5.75386e-07
-1.25951e-06
6.7712e-08
-0.000276279
1.54564e-06
1.50868e-06
-4.99877e-07
-5.02968e-07
0.000274228
1.56152e-06
1.52207e-06
-5.0787e-07
-5.15929e-07
0.00027407
-0.00027613
-1.15829e-06
-1.11537e-06
0.000276354
-0.000274237
7.57397e-08
8.12732e-08
4.35864e-07
0.0011326
-5.35198e-07
1.15055e-06
1.30722e-07
7.30143e-07
-5.90849e-07
-1.27888e-06
5.82353e-08
-0.00113201
8.71279e-07
4.36319e-07
0.00113267
1.14769e-06
1.33259e-07
7.2992e-07
-5.90866e-07
-1.27873e-06
5.81098e-08
-0.00113208
-1.55653e-06
-5.35708e-07
0.00113427
8.61558e-07
-0.00113374
4.38909e-07
-1.55801e-06
1.4151e-07
-5.29954e-07
-1.2686e-06
6.5328e-08
-5.79359e-07
7.35985e-07
1.1528e-06
0.00113435
8.62042e-07
-0.0011338
4.2856e-07
-1.55554e-06
1.38205e-07
-5.27433e-07
-1.2685e-06
6.52198e-08
-5.79227e-07
7.35752e-07
-1.11524e-06
0.000276335
-0.000274221
7.57768e-08
7.84401e-08
4.34795e-07
0.00113358
-5.32827e-07
1.11035e-06
1.27554e-07
7.30182e-07
-5.90748e-07
-1.27866e-06
5.86103e-08
-0.001133
-1.55373e-06
8.7632e-07
4.36232e-07
0.00113255
-5.38267e-07
1.1423e-06
1.33338e-07
7.30215e-07
-5.9078e-07
-1.27857e-06
5.48972e-08
-0.00113197
0.00113527
8.62553e-07
-0.00113472
4.27247e-07
-1.51841e-06
1.32453e-07
-5.24625e-07
-1.26845e-06
6.55991e-08
-5.79238e-07
7.3594e-07
1.14739e-06
0.00113424
8.61377e-07
-0.00113369
4.28746e-07
-1.55005e-06
1.38332e-07
-5.30077e-07
-1.26832e-06
6.21817e-08
-5.76374e-07
7.35967e-07
8.62257e-07
-0.00113427
4.32696e-07
-1.51811e-06
1.32526e-07
-5.24403e-07
-1.26286e-06
6.53709e-08
7.30433e-07
-5.78971e-07
1.14452e-06
0.00113386
8.61681e-07
-0.00113331
4.28483e-07
-1.54697e-06
1.35548e-07
-5.26999e-07
-1.25994e-06
5.87319e-08
-5.73389e-07
7.2772e-07
-5.10891e-07
-5.15745e-07
0.000274045
-0.000276091
-1.10992e-06
0.000276309
-0.000274209
7.61271e-08
8.11416e-08
7.76173e-07
2.55306e-07
0.00113308
1.06639e-06
1.15396e-07
7.27208e-07
-5.8793e-07
5.85927e-08
-1.27574e-06
-1.5866e-06
-0.00113209
-5.43549e-07
8.62438e-07
-0.00113414
4.26929e-07
-1.51254e-06
1.32665e-07
-5.24292e-07
-1.26316e-06
6.5497e-08
7.30427e-07
-5.79216e-07
1.10711e-06
0.00113484
8.62229e-07
-0.00113428
4.27253e-07
-1.51005e-06
1.32529e-07
-5.2451e-07
-1.26538e-06
6.56587e-08
-5.7913e-07
7.33036e-07
-0.000274182
7.58315e-08
7.86098e-08
1.55945e-06
1.51705e-06
-5.00103e-07
-5.05587e-07
0.000274283
4.14533e-07
0.00113482
-5.30003e-07
1.1599e-06
1.42997e-07
7.37784e-07
-5.75579e-07
-1.26502e-06
6.74688e-08
-1.55417e-06
8.5749e-07
4.26129e-07
0.00113489
-5.27298e-07
1.15447e-06
1.39885e-07
7.37781e-07
-5.75364e-07
-1.26486e-06
6.41952e-08
-5.00397e-07
-5.02502e-07
0.000274267
4.2482e-07
0.00113581
-5.21905e-07
1.11701e-06
1.34042e-07
7.37814e-07
-5.75462e-07
-1.26486e-06
6.78516e-08
-1.54871e-06
8.56551e-07
4.26299e-07
0.00113478
-5.27264e-07
1.14904e-06
1.39945e-07
7.37889e-07
-5.72563e-07
-1.26475e-06
6.4496e-08
8.56835e-07
4.25969e-07
0.0011344
-5.24219e-07
1.14619e-06
1.37152e-07
7.29666e-07
-5.6953e-07
6.10121e-08
-1.25638e-06
-5.00365e-07
-5.05269e-07
0.000274252
8.57511e-07
4.24697e-07
0.00113538
-5.21699e-07
1.10878e-06
1.34156e-07
7.34896e-07
-5.75286e-07
6.78873e-08
-1.26175e-06
-2.78176e-10
9.36617e-08
0.000237626
-0.000237701
-1.06119e-08
-8.28049e-09
-3.73103e-09
1.51421e-07
-2.08149e-08
0.000198049
-0.000198175
-1.58268e-10
2.76908e-07
0.000237944
-9.49774e-08
-1.29087e-08
-0.000238113
1.50389e-08
3.11139e-08
0.000197839
-5.58833e-09
-0.00019788
-1.48946e-08
5.44818e-09
9.9282e-05
-9.92725e-05
9.35784e-08
-3.13416e-10
0.000237614
-0.000237689
-8.3156e-09
-1.05492e-08
-3.95366e-09
1.5131e-07
-2.0811e-08
0.000198031
-0.000198157
2.76832e-07
4.15179e-11
0.000237931
-1.32875e-08
-9.4933e-08
-0.0002381
1.54011e-08
3.08493e-08
0.000197823
-5.87685e-09
-0.000197864
4.62042e-07
4.35383e-07
0.0011402
-8.7704e-07
-0.00113935
4.5663e-07
4.84312e-07
0.00114001
-0.0011392
4.06488e-07
4.29229e-07
0.00113994
-1.04325e-06
-0.00113896
-0.00114209
4.55721e-07
4.50873e-07
0.0011427
-0.00114188
4.50521e-07
4.51004e-07
0.00114249
-0.00114167
4.50448e-07
4.50683e-07
0.00114245
-0.00114163
4.50395e-07
4.50931e-07
-9.3803e-08
-1.7231e-09
0.000261358
-0.000261287
-2.75333e-08
5.21775e-08
4.27031e-07
1.11184e-06
0.0011337
8.72033e-07
-1.26971e-06
6.07798e-08
-5.8673e-07
7.26527e-07
-1.52067e-06
1.29148e-07
-5.2994e-07
-0.00113313
4.77803e-09
-3.11845e-08
0.000254114
2.02182e-08
-0.000254148
4.0479e-08
-1.76395e-08
0.00113384
9.24255e-07
-1.38039e-06
5.7444e-07
-1.20856e-06
7.71307e-07
-0.00113308
4.28487e-09
6.75518e-08
9.9332e-05
-9.94038e-05
-1.48761e-08
7.80654e-09
9.92745e-05
-9.92674e-05
-4.25021e-10
-9.37988e-08
0.000261344
-0.000261277
5.4951e-08
-2.80087e-08
0.00113295
5.28602e-08
9.28313e-07
7.71574e-07
-1.21095e-06
-1.38333e-06
5.72043e-07
-0.00113223
-7.04633e-08
-1.51344e-07
3.37785e-07
7.61572e-08
0.000254363
-0.000254555
4.4283e-07
1.10658e-06
0.00113358
8.72109e-07
-1.26998e-06
6.08393e-08
-5.86919e-07
7.26643e-07
-1.51773e-06
1.29359e-07
-5.2977e-07
1.69442e-09
-2.76881e-07
0.000261428
5.31066e-07
-3.52456e-08
-0.000261648
1.86633e-08
0.00113368
9.241e-07
-1.38064e-06
5.77188e-07
-1.206e-06
7.74116e-07
4.64e-09
-3.10761e-08
0.000254103
2.01079e-08
-0.00025414
4.30436e-08
-1.14666e-06
-1.09828e-06
0.000276178
-0.000274074
6.54669e-08
7.61044e-08
-4.69307e-09
-7.76593e-09
0.000285614
2.26267e-08
-0.000285685
6.06909e-08
-4.73415e-09
-7.8775e-09
0.000285531
2.31975e-08
-0.000285602
6.06462e-08
-1.15936e-10
7.70686e-08
-0.000236781
-5.78002e-09
-6.63715e-09
-0.000197527
-3.41203e-09
1.40541e-07
-1.77088e-08
0.000197408
-0.000237161
-3.65578e-11
2.57441e-07
0.000237003
-8.82636e-08
-1.13159e-08
1.39606e-08
2.26062e-08
-3.65883e-09
-0.000197257
-9.91576e-05
4.92546e-09
6.36609e-08
9.9089e-05
-1.3941e-08
4.56109e-09
-9.9029e-05
7.70488e-08
-1.93005e-10
-0.00023677
-6.63864e-09
-5.7604e-09
-0.000197507
-4.90399e-09
1.40357e-07
-1.80849e-08
0.00019739
-0.000237149
2.57404e-07
1.05801e-10
0.000236992
-1.15163e-08
-8.82914e-08
1.40247e-08
2.26248e-08
-3.72469e-09
-0.00019724
4.48628e-07
4.49122e-07
0.00114352
4.48523e-07
4.48749e-07
0.00114331
4.48485e-07
4.48959e-07
0.00114327
-7.72674e-08
-1.48017e-09
-0.000260653
-2.28314e-08
3.60842e-08
-0.000253674
-6.77276e-08
-1.42487e-07
3.23002e-07
6.88721e-08
0.000253492
0.00113603
-0.00113532
2.66435e-09
9.10892e-07
7.81059e-07
-1.19895e-06
-1.36954e-06
5.84129e-07
4.27721e-07
1.1185e-06
8.52578e-07
-1.25574e-06
6.98404e-08
-5.71305e-07
7.34314e-07
-1.51531e-06
1.35864e-07
-5.18759e-07
-0.000261044
-2.57271e-07
1.59653e-09
0.000260816
-3.03007e-08
5.14028e-07
7.78628e-09
-2.05369e-08
1.46235e-08
-0.00025328
2.85082e-08
-4.30638e-09
9.06584e-07
-1.36922e-06
5.8362e-07
-1.19917e-06
7.80553e-07
-9.91511e-05
4.94813e-09
6.34462e-08
9.90827e-05
-1.40639e-08
4.63253e-09
-9.9024e-05
-7.63175e-10
-7.73312e-08
-0.000260642
3.62333e-08
-2.2735e-08
0.00113587
-0.00113515
4.44214e-09
9.11223e-07
7.8108e-07
-1.20203e-06
-1.37258e-06
5.8117e-07
-0.000253665
-6.78744e-08
-1.40352e-07
3.20652e-07
6.9034e-08
0.000253483
4.22156e-07
1.11595e-06
8.5283e-07
-1.25586e-06
6.99812e-08
-5.71512e-07
7.34202e-07
-1.51242e-06
1.32925e-07
-5.18648e-07
-0.000261033
9.53166e-10
-2.57486e-07
0.000260805
5.14355e-07
-3.05573e-08
-3.30242e-09
9.0687e-07
-1.36953e-06
5.86303e-07
-1.19672e-06
7.83325e-07
7.5985e-09
-2.26763e-08
1.46228e-08
-0.000253272
3.11562e-08
-0.000285134
6.80075e-08
-6.35183e-08
1.79772e-07
-1.35761e-08
0.000284964
-0.000285052
6.80018e-08
-6.35067e-08
1.74958e-07
-1.3911e-08
0.000284886
-1.14786e-06
-1.11042e-06
-0.000274269
8.09017e-08
8.36869e-08
-7.68901e-09
-4.5875e-09
2.12415e-08
-0.000284735
4.89852e-08
-7.70973e-09
-4.63024e-09
2.17841e-08
-0.000284658
5.35679e-08
6.93803e-08
9.93594e-05
-9.94325e-05
7.82556e-09
9.93041e-05
-9.92969e-05
6.74649e-08
9.93484e-05
-9.94199e-05
7.41002e-09
9.92908e-05
-9.92828e-05
7.29268e-08
1.8884e-07
-1.32175e-08
0.00028599
-0.000286169
7.03668e-08
1.9082e-07
-1.30231e-08
0.000285913
-0.000286094
0.000276249
-1.15223e-06
-1.11204e-06
-0.000274129
6.8058e-08
7.61871e-08
0.000285667
-1.9734e-09
2.52006e-08
-0.000285741
5.82934e-08
0.000285592
-2.09864e-09
2.25144e-08
-0.000285663
5.78894e-08
6.07481e-09
-1.39929e-08
9.91786e-05
-9.91707e-05
6.56711e-08
4.76412e-09
9.92337e-05
6.09394e-09
-1.44696e-08
9.91673e-05
-9.9159e-05
6.55958e-08
4.57898e-09
9.92206e-05
1.55928e-06
1.51974e-06
0.000274184
-5.02783e-07
-5.10848e-07
-6.05081e-09
0.000285188
5.3511e-08
-0.000285251
2.17765e-08
-3.61437e-09
0.000285113
5.33668e-08
-0.000285178
2.19584e-08
6.79782e-08
-1.59709e-08
1.85597e-07
0.000285495
6.79431e-08
-1.33046e-08
1.85153e-07
0.000285418
9.36165e-08
0.000237584
-0.000237659
-1.05877e-08
-8.38932e-09
1.53622e-07
-2.05084e-08
0.000197983
-4.12209e-09
-0.000198112
2.76856e-07
0.000237902
-9.49287e-08
-1.36394e-08
-0.000238071
2.8841e-08
0.00019778
-5.27344e-09
-0.000197819
-1.01567e-09
0.000261372
-0.000261302
-2.77138e-08
5.20317e-08
3.40423e-07
7.59564e-08
0.000254376
-0.000254568
0.00113337
3.69439e-09
9.29193e-07
7.77472e-07
-1.21644e-06
-1.38872e-06
5.80587e-07
-0.00113262
4.32712e-07
0.00113317
8.70999e-07
-1.56041e-06
1.35337e-07
-5.32516e-07
-1.27553e-06
6.05903e-08
-5.86976e-07
7.32021e-07
6.88949e-10
0.000261452
-3.39742e-08
5.31102e-07
-0.000261673
0.000254113
2.01015e-08
-0.000254145
4.05919e-08
-3.59545e-09
0.00113412
9.18981e-07
-1.38631e-06
5.82932e-07
-1.21429e-06
7.79935e-07
0.000261343
-0.000261276
-2.66889e-08
5.19841e-08
3.40286e-07
7.62986e-08
0.000254268
-0.000254458
-7.30595e-08
0.00113331
9.23722e-07
7.77252e-07
-1.21641e-06
-1.38847e-06
5.80556e-07
-0.00113255
4.33874e-07
0.00113324
1.14941e-06
8.71942e-07
-1.27542e-06
6.05527e-08
7.31817e-07
-5.87094e-07
-1.55803e-06
1.34906e-07
-5.357e-07
0.000261426
-3.59021e-08
5.31066e-07
-0.000261644
0.000254006
4.3472e-09
2.04372e-08
-0.000254042
4.04958e-08
0.00113406
9.1923e-07
-1.38596e-06
5.82901e-07
-1.21426e-06
7.79618e-07
-1.19499e-10
2.66991e-07
-9.14201e-08
-1.20248e-08
0.000237463
2.65405e-08
-0.000197563
-4.01394e-09
1.45732e-07
-2.16283e-08
0.00019772
-2.69955e-10
8.51149e-08
-0.000237231
-7.93861e-09
-7.33595e-09
2.66936e-07
-9.14034e-08
-1.2657e-08
0.000237421
2.68017e-08
1.4094e-08
0.000197457
-0.000197494
-3.92459e-09
1.47989e-07
-4.7733e-09
-1.89923e-08
0.000197656
8.51155e-08
0.000237119
-0.000237189
-7.98664e-09
-7.69166e-09
7.3793e-10
-3.184e-08
5.22792e-07
0.000261147
4.24918e-07
8.66524e-07
1.15387e-06
-5.32656e-07
1.3686e-07
7.33965e-07
-5.83232e-07
6.28997e-08
-1.2722e-06
0.000253675
3.41995e-08
-0.000253707
1.74157e-08
-0.00113485
-3.61084e-09
0.0011356
9.15678e-07
-1.38092e-06
5.84779e-07
-1.20702e-06
7.84577e-07
6.99608e-08
3.31831e-07
0.000253925
3.57584e-09
9.20216e-07
7.82158e-07
-1.20936e-06
-1.38368e-06
5.82435e-07
-9.83369e-10
0.000261058
-0.00026099
-2.55793e-08
4.39417e-08
-3.39451e-08
5.22744e-07
0.000261122
4.31506e-07
-1.55687e-06
8.67e-07
7.33791e-07
-5.83154e-07
-1.27202e-06
6.29097e-08
1.15111e-06
-5.30174e-07
1.33567e-07
3.39346e-09
0.000253568
3.44426e-08
-0.000253597
1.75891e-08
-0.0011348
0.00113553
9.15827e-07
-1.38058e-06
5.8474e-07
-1.20698e-06
7.84404e-07
-7.05263e-08
7.26267e-08
3.31682e-07
0.00025382
9.20376e-07
7.82049e-07
-1.2093e-06
-1.38332e-06
5.82401e-07
0.000261029
-0.000260965
-2.42656e-08
4.39325e-08
0.000276233
-0.000274116
7.06631e-08
7.33381e-08
0.000285529
2.29651e-08
-0.000285603
6.07544e-08
-7.93287e-09
0.000285681
2.29416e-08
-0.000285749
5.84601e-08
9.92978e-05
-1.49552e-08
-9.92907e-05
6.60744e-09
-9.91501e-05
6.79645e-08
9.92092e-05
1.51952e-06
0.000274171
-5.05854e-07
-5.07909e-07
0.000285055
5.36973e-08
-0.000285121
2.22437e-08
-4.02179e-09
-6.37493e-09
0.000285199
5.36696e-08
-0.000285264
2.23449e-08
-1.3392e-08
1.85383e-07
0.000285355
-6.54896e-08
7.02635e-08
-1.32419e-08
1.85281e-07
0.000285504
-1.46314e-08
9.91768e-05
-9.91662e-05
4.49386e-09
9.92278e-05
-1.86313e-09
0.000261365
-0.000261295
-2.72671e-08
5.20274e-08
3.37645e-07
7.61154e-08
0.000254337
-0.000254529
0.00113322
2.79507e-09
9.34073e-07
7.77335e-07
-1.21358e-06
-1.38856e-06
5.77718e-07
-0.00113247
4.31949e-07
0.00113416
8.72116e-07
-1.52085e-06
1.29173e-07
-5.30059e-07
-1.27533e-06
6.10644e-08
-5.86818e-07
7.32106e-07
1.62892e-09
0.000261445
-3.51033e-08
5.31011e-07
-0.000261666
0.000254077
1.99509e-08
-0.000254111
4.28538e-08
-4.46182e-09
0.00113397
9.23927e-07
-1.38604e-06
5.80079e-07
-1.21142e-06
7.79656e-07
9.35711e-08
0.000237573
-0.000237647
-1.05665e-08
-8.77636e-09
1.51387e-07
-2.05098e-08
0.000197971
-0.000198098
2.76804e-07
0.00023789
-9.49125e-08
-1.33164e-08
-0.000238059
3.12662e-08
0.000197764
-5.51386e-09
-0.000197804
0.000261334
-0.000261267
5.20217e-08
-2.71673e-08
0.00113317
9.28472e-07
7.77346e-07
-1.21358e-06
-1.38844e-06
5.77774e-07
-0.00113242
-7.31939e-08
3.35217e-07
7.62151e-08
0.000254254
-0.000254441
4.33855e-07
0.00113312
1.14401e-06
8.82245e-07
-1.27522e-06
5.74242e-08
7.32134e-07
-5.8416e-07
-1.55253e-06
1.35017e-07
-5.35539e-07
0.000261418
5.30968e-07
-3.55935e-08
-0.000261635
0.00113391
9.29806e-07
-1.38576e-06
5.80132e-07
-1.21141e-06
7.79914e-07
0.00025399
4.68091e-09
1.98844e-08
-0.000254029
4.59534e-08
2.66933e-07
5.09889e-11
-1.2347e-08
-9.14036e-08
0.000237451
2.66033e-08
-0.000197543
-4.48174e-09
1.45689e-07
-1.93172e-08
0.000197702
8.50878e-08
-2.38654e-10
-0.000237219
-7.4507e-09
-7.98127e-09
1.64339e-09
-3.2961e-08
5.22735e-07
0.000261141
4.29534e-07
8.67347e-07
1.11369e-06
-5.2744e-07
1.30734e-07
7.33987e-07
-5.83084e-07
6.32406e-08
-1.27194e-06
0.000253639
3.68765e-08
-0.00025367
1.72029e-08
-0.0011347
-4.1876e-09
0.00113543
9.15355e-07
-1.38077e-06
5.84729e-07
-1.20688e-06
7.843e-07
7.24957e-08
3.29087e-07
0.000253889
2.81048e-09
9.25107e-07
7.81935e-07
-1.20923e-06
-1.38333e-06
5.82341e-07
-1.81983e-09
0.000261052
-0.000260981
-2.45949e-08
4.11786e-08
2.66902e-07
-9.13961e-08
-1.23617e-08
0.00023741
2.68811e-08
1.44259e-08
0.000197447
-0.000197484
-4.61985e-09
1.45684e-07
-4.6633e-09
-1.91619e-08
0.000197642
8.50875e-08
0.000237108
-0.000237177
-7.99593e-09
-7.76983e-09
5.22746e-07
-3.34437e-08
0.000261113
4.25912e-07
-1.55135e-06
8.66295e-07
7.34022e-07
-5.80276e-07
-1.27182e-06
5.98653e-08
1.14567e-06
-5.32839e-07
1.36641e-07
-0.00113464
0.00113537
9.155e-07
-1.38048e-06
5.84767e-07
-1.20691e-06
7.84559e-07
6.27754e-09
0.000253552
3.98582e-08
-0.000253588
1.69874e-08
9.25356e-07
7.82244e-07
-1.20924e-06
-1.38319e-06
5.82391e-07
-7.05396e-08
7.25297e-08
3.26526e-07
0.000253807
0.00026102
-0.000260954
4.11695e-08
-2.44259e-08
3.73259e-11
0.000237609
-0.000237686
-8.68281e-09
-8.53073e-09
0.000197828
-5.51766e-09
-0.000197868
-9.36706e-08
0.000261326
-0.000261259
5.20483e-08
-2.72227e-08
4.49554e-07
0.00113275
8.76766e-07
-1.54942e-06
1.35215e-07
-5.32661e-07
-1.2696e-06
5.73997e-08
-5.86636e-07
7.23855e-07
-0.0011322
0.00113376
9.23969e-07
-1.38025e-06
5.77335e-07
-1.20857e-06
7.74217e-07
-0.00113302
-3.12034e-08
0.000254031
1.99458e-08
-0.00025407
4.59701e-08
0.00023757
-0.000237645
-1.06256e-08
-8.72041e-09
0.000197768
1.4872e-08
-5.50523e-09
-0.000197809
-2.66786e-07
1.44502e-09
-3.27181e-08
5.22635e-07
0.000261133
4.244e-07
8.67143e-07
1.11353e-06
-5.2722e-07
1.30826e-07
7.2844e-07
-5.82785e-07
-1.26639e-06
6.30369e-08
-2.45716e-08
3.44075e-08
-0.000253707
1.72979e-08
-0.00113457
-5.42049e-09
9.15361e-07
-1.37508e-06
5.79022e-07
7.75972e-07
-1.20408e-06
-1.45506e-07
7.23902e-08
3.31353e-07
0.000253926
-1.11906e-09
9.19787e-07
7.7639e-07
-1.20365e-06
-1.37506e-06
5.79497e-07
-8.53452e-08
-1.52334e-09
-0.000260976
-2.51002e-08
4.41529e-08
4.19549e-11
-1.24141e-08
-9.34998e-08
0.000237449
0.000197513
-0.000197547
-4.64789e-09
-1.91716e-08
0.000197706
3.04646e-11
0.000237144
-0.000237216
-7.89187e-09
-5.97893e-09
-2.66835e-07
5.22612e-07
-3.34764e-08
0.000261106
4.36307e-07
-1.55098e-06
8.66612e-07
7.25735e-07
-5.79942e-07
-1.26347e-06
5.63106e-08
1.14556e-06
-5.32574e-07
1.36842e-07
-0.0011345
0.00113523
9.15423e-07
-1.37491e-06
5.81947e-07
-1.20407e-06
7.78879e-07
-2.68095e-08
6.25857e-09
0.000253593
3.45439e-08
-0.000253625
1.72202e-08
9.19721e-07
7.76554e-07
-1.20638e-06
-1.37762e-06
5.79602e-07
-1.45602e-07
-7.04998e-08
7.24354e-08
3.28892e-07
0.000253846
-8.52309e-08
0.000261009
-0.000260948
4.68478e-08
-2.43492e-08
-9.13744e-08
-1.24634e-08
0.000237407
1.43931e-08
0.000197451
-0.000197488
-4.55514e-09
-4.60589e-09
-1.91753e-08
0.000197646
0.000237105
-0.000237175
-8.0646e-09
-7.37801e-09
1.8634e-07
-1.37208e-08
0.000285853
-0.000286032
-6.77046e-08
1.88753e-07
-1.35777e-08
0.000285996
-0.000286174
0.000276208
-0.000274105
7.10122e-08
7.60317e-08
0.000285528
2.30015e-08
-0.000285602
6.3075e-08
-7.80166e-09
0.00028567
2.31128e-08
-0.000285742
6.07754e-08
4.12894e-09
9.93554e-05
-9.94272e-05
9.92979e-05
-1.48963e-08
-9.92908e-05
6.14694e-09
-9.91429e-05
6.54355e-08
9.92044e-05
1.51383e-06
0.000274159
-5.05716e-07
-5.10616e-07
0.000285049
5.82284e-08
-0.000285117
2.23276e-08
-6.09896e-09
-6.20438e-09
0.000285191
5.58893e-08
-0.000285259
2.50365e-08
-1.3911e-08
1.80552e-07
0.000285357
-6.55814e-08
7.03294e-08
-1.63495e-08
1.82998e-07
0.000285499
-1.44066e-08
9.91745e-05
-9.91662e-05
4.56205e-09
9.92278e-05
-9.11838e-08
0.000261312
-0.000261247
5.21218e-08
-2.5583e-08
0.00113287
9.57349e-07
7.74251e-07
-1.21082e-06
5.7201e-07
-1.38568e-06
-0.00113227
-1.51388e-07
3.40212e-07
7.6259e-08
0.000254252
-7.30343e-08
-0.000254444
3.9405e-07
0.00113372
8.66579e-07
-1.51531e-06
1.23104e-07
-5.32783e-07
-1.27234e-06
6.09872e-08
-5.84121e-07
7.29251e-07
-2.79295e-07
0.000261398
5.3365e-07
-3.54582e-08
-0.000261615
0.00113359
9.24238e-07
-1.38301e-06
5.77163e-07
-1.20588e-06
7.76616e-07
-3.10893e-08
0.000253993
2.00527e-08
-0.000254029
4.29161e-08
6.83877e-11
0.000237603
-0.000237677
-8.42701e-09
-1.06825e-08
-2.05866e-08
0.00019803
-0.000198157
2.92566e-10
0.000237921
-1.35185e-08
-9.4923e-08
-0.000238089
0.000197823
-5.35252e-09
-0.000197863
0.000237563
-0.000237635
-8.14411e-09
-1.06192e-08
-2.05743e-08
0.000197967
-0.000198093
-4.20681e-09
0.000237878
-1.34274e-08
-9.48869e-08
-0.000238049
0.000197759
1.49681e-08
-5.5101e-09
-0.0001978
1.22887e-09
-2.66975e-07
5.20172e-07
-3.29028e-08
0.000261123
4.35038e-07
8.67373e-07
1.10822e-06
-5.27069e-07
1.30985e-07
7.28498e-07
-5.83039e-07
-1.26663e-06
6.31604e-08
-0.00113442
-1.03283e-09
9.15529e-07
-1.37538e-06
5.81734e-07
7.78782e-07
-1.2016e-06
-2.66981e-08
3.69688e-08
-0.000253699
1.72335e-08
1.1267e-08
9.20057e-07
7.76538e-07
-1.20662e-06
-1.37798e-06
5.76632e-07
-1.4568e-07
7.25153e-08
3.29037e-07
0.000253917
-7.53143e-10
-8.53356e-08
-0.000260966
4.42319e-08
-2.52298e-08
-2.69401e-07
5.22662e-07
-3.37944e-08
0.000261093
4.24278e-07
-1.51135e-06
8.67232e-07
7.31123e-07
-5.82968e-07
-1.2689e-06
6.33375e-08
1.10542e-06
-5.27272e-07
1.30841e-07
-0.00113434
0.00113507
9.15227e-07
-1.3776e-06
5.81764e-07
-1.20136e-06
7.81266e-07
-2.67641e-08
6.30016e-09
0.000253555
3.95706e-08
-0.000253591
1.71453e-08
9.19662e-07
7.78939e-07
-1.20646e-06
-1.3803e-06
5.76615e-07
-1.4566e-07
-7.04196e-08
7.25718e-08
3.28987e-07
0.000253807
-8.27169e-08
0.000261
-0.000260936
4.13121e-08
-2.33571e-08
2.85607e-10
-1.26337e-08
-9.13858e-08
0.000237439
0.000197506
-0.000197543
-4.41323e-09
-1.9207e-08
0.000197701
-2.69191e-11
0.000237138
-0.000237207
-7.50597e-09
-8.14484e-09
-1.24673e-08
-9.13565e-08
0.000237397
1.44706e-08
0.000197443
-0.000197479
-4.59062e-09
-4.5731e-09
-1.92341e-08
0.000197637
0.000237098
-0.000237165
-7.17576e-09
-8.08201e-09
9.9277e-05
-9.92699e-05
9.92725e-05
-9.92654e-05
0.000274129
-5.05292e-07
-5.08321e-07
-6.08985e-09
5.35093e-08
-0.000285197
2.19056e-08
-6.18197e-09
5.81363e-08
-0.00028512
2.24832e-08
-6.55262e-08
-1.33451e-08
1.82946e-07
0.000285439
-6.55279e-08
-1.37004e-08
1.82925e-07
0.000285357
9.91536e-05
-9.91453e-05
9.92069e-05
9.91491e-05
-9.91408e-05
9.92024e-05
6.38386e-08
9.91113e-05
4.41161e-09
-9.90522e-05
6.34952e-08
9.90989e-05
4.48011e-09
-9.90403e-05
6.81218e-08
1.79964e-07
-1.36609e-08
0.000285017
6.79976e-08
1.79681e-07
-1.36447e-08
0.000284942
-1.15878e-06
-1.11861e-06
-0.000274327
8.07833e-08
8.62692e-08
-7.43249e-09
2.06461e-08
-0.000284789
5.12726e-08
-7.53532e-09
2.09038e-08
-0.000284714
4.88986e-08
7.70581e-08
-0.00023674
-5.7666e-09
-6.69773e-09
1.40371e-07
-1.80346e-08
0.000197339
2.5742e-07
0.000236962
-8.8291e-08
-1.17395e-08
2.26501e-08
-3.57423e-09
-0.000197192
-9.14488e-10
-0.000260668
-2.26206e-08
3.58649e-08
3.23387e-07
6.91488e-08
0.000253492
0.0011363
3.62895e-09
9.11259e-07
7.86804e-07
-1.2074e-06
-1.37818e-06
5.89858e-07
4.28915e-07
8.5203e-07
-1.55529e-06
1.41678e-07
-5.24394e-07
-1.26147e-06
6.98008e-08
-5.71696e-07
7.39808e-07
7.78421e-10
0.00026083
-2.97695e-08
5.14171e-07
1.46451e-08
-0.00025328
3.11666e-08
-3.57926e-09
9.07115e-07
-1.37509e-06
5.92171e-07
-1.2049e-06
7.89167e-07
-0.000260642
-2.16874e-08
3.58523e-08
-6.52993e-08
3.23239e-07
6.90246e-08
0.000253381
0.00113626
9.11376e-07
7.86758e-07
-1.20736e-06
-1.37777e-06
5.89829e-07
4.23717e-07
1.15606e-06
8.52576e-07
-1.26129e-06
6.65048e-08
7.3973e-07
-5.68809e-07
-1.55275e-06
1.41478e-07
-5.24488e-07
0.000260805
-3.1484e-08
5.14138e-07
4.71569e-09
1.47375e-08
-0.000253172
3.12955e-08
9.07151e-07
-1.37473e-06
5.92139e-07
-1.20486e-06
7.89041e-07
1.79667e-07
-1.30986e-08
0.000284887
-6.58521e-08
1.79696e-07
-1.33708e-08
0.00028503
-0.000274308
8.08781e-08
8.34951e-08
2.35126e-08
-0.000284656
4.892e-08
-2.51004e-09
2.16449e-08
-0.000284802
4.91234e-08
4.88503e-09
9.91061e-05
-1.42477e-08
-9.90474e-05
-1.79185e-09
-0.000260659
-2.21063e-08
3.31107e-08
3.20677e-07
6.90623e-08
0.000253458
0.00113615
3.09667e-09
9.10977e-07
7.86617e-07
-1.20453e-06
-1.37793e-06
5.86986e-07
4.22421e-07
8.52909e-07
-1.51564e-06
1.3566e-07
-5.19075e-07
-1.2612e-06
7.00497e-08
-5.71601e-07
7.39747e-07
1.68842e-09
0.000260821
-3.08356e-08
5.16845e-07
1.45813e-08
-0.000253246
3.10482e-08
-4.08723e-09
9.06643e-07
-1.37486e-06
5.89258e-07
-1.20206e-06
7.88938e-07
7.70487e-08
-0.000236728
-5.76344e-09
-6.88521e-09
1.40363e-07
-1.80694e-08
0.00019733
2.57387e-07
0.00023695
-8.82765e-08
-1.14238e-08
2.28463e-08
-3.92487e-09
-0.00019718
-0.000260631
3.31048e-08
-2.18727e-08
0.0011361
9.11086e-07
7.86859e-07
-1.20455e-06
-1.37769e-06
5.87027e-07
-6.80736e-08
3.18104e-07
6.90869e-08
0.000253373
4.23731e-07
1.15069e-06
8.51653e-07
-1.26117e-06
6.67261e-08
7.39803e-07
-5.68728e-07
-1.54721e-06
1.41637e-07
-5.24421e-07
0.000260794
5.16857e-07
-3.1248e-08
9.06785e-07
-1.37466e-06
5.89291e-07
-1.20209e-06
7.89129e-07
7.69368e-09
1.43313e-08
-0.000253162
3.40195e-08
5.8779e-12
-0.000236767
-6.99663e-09
-3.72101e-09
-1.80961e-08
0.000197393
3.21163e-11
0.000236989
-1.12462e-08
-9.04e-08
-3.90872e-09
-0.000197243
-7.71829e-08
-0.000260626
3.88497e-08
-2.16339e-08
0.00113596
9.10944e-07
7.81181e-07
-1.20169e-06
5.84218e-07
-1.37211e-06
-1.40299e-07
3.2307e-07
6.9044e-08
0.00025341
4.23537e-07
8.51922e-07
-1.54415e-06
1.388e-07
-5.21367e-07
-1.25285e-06
6.33102e-08
-5.65749e-07
7.31521e-07
-2.57317e-07
0.000260788
5.11294e-07
-3.13477e-08
9.06668e-07
-1.36908e-06
5.86477e-07
-1.19923e-06
7.83435e-07
-2.27932e-08
1.46198e-08
-0.000253198
2.8646e-08
-0.000236726
-5.83018e-09
-6.55745e-09
-4.92825e-09
-1.80441e-08
0.000197334
0.000236948
-8.82787e-08
-1.16125e-08
1.40362e-08
-3.84443e-09
-0.000197184
1.74955e-07
-1.40578e-08
0.000284883
-6.35499e-08
1.77369e-07
-1.6524e-08
0.000285025
-0.000274294
8.1213e-08
8.62626e-08
2.16501e-08
-0.000284655
5.36812e-08
-4.55977e-09
2.43349e-08
-0.000284797
5.13361e-08
4.8969e-09
9.9106e-05
-1.39999e-08
-9.90473e-05
-7.47117e-08
-0.000260614
3.32954e-08
-2.10771e-08
0.0011358
9.10949e-07
7.83541e-07
-1.20178e-06
5.81127e-07
-1.37486e-06
-1.40322e-07
3.17985e-07
6.90483e-08
0.000253376
4.22178e-07
8.52681e-07
-1.50719e-06
1.35772e-07
-5.18862e-07
-1.25819e-06
7.01484e-08
-5.71449e-07
7.36857e-07
-2.59882e-07
0.000260776
5.16816e-07
-3.1834e-08
9.06667e-07
-1.37182e-06
5.86283e-07
-1.19649e-06
7.85859e-07
-2.27105e-08
1.44554e-08
-0.000253165
3.37126e-08
-2.85026e-11
-0.000236758
-6.6891e-09
-5.94469e-09
-1.80434e-08
0.000197388
2.11095e-10
0.00023698
-1.1776e-08
-8.82911e-08
-3.65921e-09
-0.000197238
-0.000236716
-6.53214e-09
-5.86943e-09
-4.88926e-09
-1.80681e-08
0.000197325
0.000236938
-1.15813e-08
-8.8258e-08
1.40842e-08
-3.83353e-09
-0.000197175
9.90852e-05
-9.90265e-05
9.90807e-05
-9.9022e-05
-4.86615e-10
8.64452e-08
0.000145583
-0.000145665
-3.68979e-09
-9.31529e-08
-1.26484e-08
-0.000237867
-3.39603e-10
2.7189e-07
-0.000173726
-1.38685e-10
-1.84767e-10
0.000173716
-0.000230528
-7.30275e-09
-8.555e-09
0.000230465
6.99315e-08
-0.00017382
-2.60379e-10
-0.000230686
-1.71028e-08
2.4891e-07
-1.43868e-10
0.000145576
-8.03654e-05
-1.38305e-08
-1.69355e-10
8.03794e-05
-6.16561e-08
0.000270219
1.7525e-08
1.99045e-07
-0.000270395
-6.64355e-09
0.000198004
1.74332e-08
3.36042e-08
3.40129e-09
-8.04304e-05
8.83435e-09
0.000270147
4.25401e-08
-0.000145674
-2.52954e-10
8.62712e-09
-1.20814e-08
-8.67636e-09
-1.50607e-10
9.80689e-08
8.34753e-10
0.000173832
-2.15576e-10
-0.000173928
-8.80393e-08
0.000230751
2.53419e-07
-0.000230912
-0.000145758
-1.85949e-10
7.39498e-08
6.04877e-08
8.03152e-05
-0.000269975
1.47376e-08
0.000269907
3.95827e-08
-1.99664e-08
-4.44281e-09
1.4862e-07
1.95461e-07
8.03298e-05
9.93461e-05
-1.53316e-08
6.37353e-09
-9.93371e-05
4.52189e-09
6.89947e-08
8.6466e-08
-3.53965e-10
0.000145582
-0.000145665
-3.8194e-09
-1.30148e-08
-9.31206e-08
-0.000237854
-1.16796e-10
2.7183e-07
-0.000230519
-7.29542e-09
-8.48635e-09
0.000230456
6.98618e-08
-0.000173724
-1.27699e-10
-1.12532e-10
0.000173714
-0.000230677
-1.72221e-08
2.48871e-07
-0.000173817
-1.02162e-10
-9.98774e-11
0.000145575
-8.03672e-05
-1.41386e-08
-1.10868e-10
8.03815e-05
-6.16316e-08
0.000270215
1.77105e-08
1.98945e-07
-0.000270391
-6.00311e-09
0.000197988
1.5403e-08
3.32375e-08
3.5327e-09
-8.04324e-05
9.09776e-09
0.000270144
4.23502e-08
-0.000145673
8.53708e-09
-1.8417e-10
-8.62994e-09
-1.20189e-08
-1.35583e-10
9.80165e-08
-8.80296e-08
0.000230742
2.53396e-07
-0.000230902
7.17145e-10
0.00017383
-9.70335e-11
-0.000173925
-0.000145757
7.38299e-08
-8.41294e-11
6.05771e-08
8.03171e-05
-0.000269972
1.47873e-08
0.000269903
3.94191e-08
-2.00552e-08
-3.81176e-09
1.48345e-07
1.95435e-07
8.03318e-05
9.93384e-05
-1.51274e-08
8.71181e-09
4.49271e-09
6.6464e-08
-4.09203e-08
-4.10038e-08
0.000218974
-0.000219099
1.02436e-07
1.04709e-07
-8.19488e-05
8.38421e-09
-1.71719e-08
8.19576e-05
-8.19367e-05
8.39647e-09
-1.72067e-08
8.19456e-05
-8.2014e-05
2.42811e-08
-8.2002e-05
2.42077e-08
3.85556e-08
3.85271e-08
0.000218914
7.03631e-08
-3.85121e-08
-4.03236e-08
0.00022902
5.74057e-08
-0.000229069
6.32638e-08
2.34716e-08
0.000285865
-8.68134e-09
-0.000285939
-3.78908e-09
0.000260211
7.78461e-08
-0.000260234
7.9234e-08
1.73209e-08
0.000187189
-0.000187222
7.27757e-08
-3.84726e-08
-3.82437e-08
0.000228944
5.74958e-08
-0.000228997
6.31712e-08
2.35366e-08
0.00028578
-8.76625e-09
-3.8484e-09
-0.000285854
0.000260088
7.32147e-08
8.4073e-08
-0.00026011
1.73467e-08
0.000187134
-0.000187167
-9.08463e-09
-9.08573e-09
-0.000219159
-8.20057e-05
-8.19937e-05
1.46345e-07
-1.28164e-07
0.000228869
2.35237e-07
-0.000187072
3.47623e-08
0.000187043
1.88211e-07
-1.32557e-08
-6.65692e-08
7.17515e-08
-0.000260028
-6.99739e-08
0.000260008
7.23667e-08
7.85978e-08
3.28163e-07
1.89606e-07
0.000228815
5.72466e-08
1.46312e-07
-1.26227e-07
0.000228797
2.30997e-07
-0.000187019
3.67667e-08
0.000186988
1.85834e-07
-1.36382e-08
-6.65813e-08
7.17019e-08
-0.000259908
-7.22428e-08
0.00025989
6.99452e-08
8.09431e-08
3.22993e-07
1.89593e-07
0.000228745
5.50685e-08
9.54993e-10
8.06766e-08
0.000145245
-0.000145322
-4.82945e-09
-8.68597e-08
-1.117e-08
-0.000236936
-1.37485e-10
2.52831e-07
-0.00017334
-1.24787e-09
-2.47451e-11
-0.000229691
-2.80189e-09
-6.94518e-09
5.52377e-08
-0.000173426
-2.31313e-11
-0.000229838
-1.57274e-08
2.31686e-07
-7.95945e-10
-8.01725e-05
-1.67768e-08
7.48554e-10
8.01886e-05
-5.74663e-08
0.000269283
1.62383e-08
-0.000269444
1.8518e-07
-3.81168e-09
0.000197373
1.40272e-08
2.47278e-08
4.64809e-09
-8.02346e-05
7.4915e-09
0.000269224
3.12198e-08
-0.000145326
1.08441e-09
3.88656e-09
-6.85244e-09
-7.09613e-09
4.38611e-11
8.10596e-08
-6.10946e-10
0.000173432
-0.000173519
-1.07993e-10
-8.19983e-08
0.000229892
-0.000230041
2.3591e-07
-0.000145404
2.30584e-13
5.88281e-08
5.66694e-08
8.01271e-05
-0.000269065
1.74241e-08
2.85016e-08
-1.74786e-08
-5.1235e-09
1.37809e-07
1.82016e-07
9.9097e-05
-1.38786e-08
5.86733e-09
5.28703e-09
6.27538e-08
8.06733e-08
9.23887e-10
0.000145244
-0.000145321
-4.79794e-09
-1.13707e-08
-8.68475e-08
-0.000236924
-2.49307e-11
2.52791e-07
-0.000229682
-2.79063e-09
-6.93881e-09
5.52319e-08
-0.000173338
-1.25293e-09
7.37647e-12