0 	6.82071e-12 	1.60223e-11 	7.92343e-09
0.010101 	8.08785e-12 	1.61626e-08 	6.99867e-06
0.020202 	4.43789e-12 	3.23108e-08 	1.39894e-05
0.030303 	2.39257e-12 	3.87335e-08 	2.16711e-05
0.040404 	7.10915e-13 	4.29522e-08 	2.95095e-05
0.0505051 	-6.07435e-12 	4.21131e-08 	3.73312e-05
0.0606061 	-6.05046e-12 	3.16881e-08 	4.51295e-05
0.0707071 	-6.02656e-12 	2.12632e-08 	5.29278e-05
0.0808081 	-6.00267e-12 	1.08382e-08 	6.07261e-05
0.0909091 	-5.97878e-12 	4.13194e-10 	6.85245e-05
0.10101 	-6.98587e-12 	-4.6993e-09 	7.50831e-05
0.111111 	-6.11082e-12 	-3.5973e-09 	8.01889e-05
0.121212 	-5.23576e-12 	-2.4953e-09 	8.52948e-05
0.131313 	-4.36071e-12 	-1.3933e-09 	9.04007e-05
0.141414 	-3.48565e-12 	-2.913e-10 	9.55065e-05
0.151515 	-2.45836e-12 	5.43258e-10 	0.000100519
0.161616 	-1.28963e-12 	1.12934e-09 	0.000105443
0.171717 	-1.20906e-13 	1.71542e-09 	0.000110368
0.181818 	1.04782e-12 	2.30151e-09 	0.000115293
0.191919 	2.21655e-12 	2.88759e-09 	0.000120218
0.20202 	2.99448e-12 	3.21815e-09 	0.000124381
0.212121 	3.32608e-12 	3.33332e-09 	0.000127901
0.222222 	3.65767e-12 	3.44849e-09 	0.000131422
0.232323 	4.01693e-12 	3.56364e-09 	0.000134943
0.242424 	4.39927e-12 	3.67879e-09 	0.000138464
0.252525 	4.7816e-12 	3.79393e-09 	0.000141984
0.262626 	5.16394e-12 	3.90908e-09 	0.000145505
0.272727 	5.54627e-12 	4.02422e-09 	0.000149026
0.282828 	5.92861e-12 	4.13937e-09 	0.000152546
0.292929 	6.31094e-12 	4.25451e-09 	0.000156067
0.30303 	5.92951e-12 	4.06494e-09 	0.000158285
0.313131 	4.84234e-12 	3.61701e-09 	0.000159399
0.323232 	3.75517e-12 	3.16909e-09 	0.000160513
0.333333 	2.66799e-12 	2.72116e-09 	0.000161628
0.343434 	1.58082e-12 	2.27323e-09 	0.000162742
0.353535 	4.93651e-13 	1.8253e-09 	0.000163856
0.363636 	-5.9352e-13 	1.37737e-09 	0.00016497
0.373737 	-1.68069e-12 	9.29437e-10 	0.000166084
0.383838 	-2.76786e-12 	4.81508e-10 	0.000167198
0.393939 	-3.85504e-12 	3.35779e-11 	0.000168313
0.40404 	-4.71454e-12 	-1.68114e-10 	0.000169001
0.414141 	-5.15237e-12 	-1.49472e-10 	0.000169308
0.424242 	-5.59021e-12 	-1.30829e-10 	0.000169615
0.434343 	-6.02804e-12 	-1.12187e-10 	0.000169922
0.444444 	-6.46588e-12 	-9.35441e-11 	0.00017023
0.454545 	-6.90371e-12 	-7.49015e-11 	0.000170537
0.464646 	-7.34155e-12 	-5.62589e-11 	0.000170844
0.474747 	-7.77938e-12 	-3.76163e-11 	0.000171151
0.484848 	-8.21722e-12 	-1.89737e-11 	0.000171458
0.494949 	-8.65505e-12 	-3.31165e-13 	0.000171765
0.505051 	-8.36198e-12 	1.83604e-11 	0.000171765
0.515152 	-7.65772e-12 	3.67806e-11 	0.000171458
0.525253 	-6.95346e-12 	5.52008e-11 	0.000171151
0.535354 	-6.2492e-12 	7.3621e-11 	0.000170843
0.545455 	-5.54495e-12 	9.20411e-11 	0.000170536
0.555556 	-4.84069e-12 	1.10461e-10 	0.000170229
0.565657 	-4.13643e-12 	1.28882e-10 	0.000169922
0.575758 	-3.43217e-12 	1.47302e-10 	0.000169614
0.585859 	-2.72791e-12 	1.65722e-10 	0.000169307
0.59596 	-2.02365e-12 	1.84142e-10 	0.000169
0.606061 	-1.28987e-12 	-1.78397e-11 	0.000168311
0.616162 	-3.53539e-13 	-4.65618e-10 	0.000167196
0.626263 	5.82796e-13 	-9.13396e-10 	0.000166082
0.636364 	1.51913e-12 	-1.36117e-09 	0.000164968
0.646465 	2.45547e-12 	-1.80895e-09 	0.000163853
0.656566 	3.3918e-12 	-2.25673e-09 	0.000162739
0.666667 	4.32814e-12 	-2.70451e-09 	0.000161624
0.676768 	5.26447e-12 	-3.15229e-09 	0.00016051
0.686869 	6.20081e-12 	-3.60007e-09 	0.000159396
0.69697 	7.13714e-12 	-4.04784e-09 	0.000158281
0.707071 	6.99247e-12 	-4.2371e-09 	0.00015606
0.717172 	6.5692e-12 	-4.123e-09 	0.000152539
0.727273 	6.14594e-12 	-4.0089e-09 	0.000149018
0.737374 	5.72267e-12 	-3.8948e-09 	0.000145497
0.747475 	5.2994e-12 	-3.7807e-09 	0.000141976
0.757576 	4.87614e-12 	-3.6666e-09 	0.000138455
0.767677 	4.45287e-12 	-3.5525e-09 	0.000134934
0.777778 	4.0296e-12 	-3.4384e-09 	0.000131413
0.787879 	3.60607e-12 	-3.3243e-09 	0.000127892
0.79798 	3.12894e-12 	-3.21011e-09 	0.000124371
0.808081 	2.38799e-12 	-2.88033e-09 	0.000120206
0.818182 	1.21642e-12 	-2.29625e-09 	0.000115281
0.828283 	4.48495e-14 	-1.71217e-09 	0.000110356
0.838384 	-1.12672e-12 	-1.12809e-09 	0.00010543
0.848485 	-2.29829e-12 	-5.44004e-10 	0.000100505
0.858586 	-3.32427e-12 	2.90047e-10 	9.54928e-05
0.868687 	-4.19472e-12 	1.39113e-09 	9.03868e-05
0.878788 	-5.06516e-12 	2.49221e-09 	8.52809e-05
0.888889 	-5.93561e-12 	3.59329e-09 	8.01749e-05
0.89899 	-6.80606e-12 	4.69437e-09 	7.5069e-05
0.909091 	-5.85984e-12 	-4.42718e-10 	6.85045e-05
0.919192 	-5.93719e-12 	-1.08661e-08 	6.07062e-05
0.929293 	-6.01455e-12 	-2.12894e-08 	5.29079e-05
0.939394 	-6.0919e-12 	-3.17127e-08 	4.51096e-05
0.949495 	-6.16926e-12 	-4.21361e-08 	3.73112e-05
0.959596 	6.24232e-13 	-4.29389e-08 	2.94896e-05
0.969697 	2.44427e-12 	-3.87188e-08 	2.16516e-05
0.979798 	4.58232e-12 	-3.22669e-08 	1.39721e-05
0.989899 	8.10173e-12 	-1.61207e-08 	6.98138e-06
