/*--------------------------------*- C++ -*----------------------------------*\
| =========                 |                                                 |
| \\      /  F ield         | OpenFOAM: The Open Source CFD Toolbox           |
|  \\    /   O peration     | Version:  2312                                  |
|   \\  /    A nd           | Website:  www.openfoam.com                      |
|    \\/     M anipulation  |                                                 |
\*---------------------------------------------------------------------------*/
FoamFile
{
    version     2.0;
    format      ascii;
    arch        "LSB;label=32;scalar=64";
    class       volScalarField;
    location    "950";
    object      epsilon;
}
// * * * * * * * * * * * * * * * * * * * * * * * * * * * * * * * * * * * * * //

dimensions      [0 2 -3 0 0 0 0];

internalField   nonuniform List<scalar> 
43496
(
4.23891e-06
1.90948e-05
1.18669e-06
3.64744e-06
2.29547e-06
9.34997e-07
4.23884e-06
9.56728e-06
2.29541e-06
1.18668e-06
9.35036e-07
3.64769e-06
1.41727e-06
5.65215e-06
5.65074e-06
1.90923e-05
9.56709e-06
1.26559e-05
4.23898e-06
4.88461e-06
1.12474e-05
4.88472e-06
1.12453e-05
1.26583e-05
2.2763e-05
7.24531e-06
7.24553e-06
2.27698e-05
1.909e-05
1.26561e-05
4.23891e-06
1.12473e-05
4.88444e-06
1.12452e-05
4.88453e-06
1.26589e-05
2.27628e-05
7.24366e-06
9.5651e-06
7.24387e-06
2.27696e-05
9.96429e-06
2.23955e-05
2.23959e-05
2.23893e-05
2.23897e-05
9.96391e-06
4.71003e-06
9.93516e-06
5.65217e-06
2.97596e-06
9.93308e-06
2.97613e-06
4.70966e-06
4.70409e-06
9.93065e-06
5.65075e-06
2.97485e-06
2.97503e-06
9.92813e-06
4.70374e-06
1.90875e-05
9.56527e-06
4.50823e-07
6.59557e-07
4.50957e-07
3.64763e-06
2.22353e-06
2.22407e-06
1.66654e-06
2.29565e-06
2.54091e-06
1.54345e-06
2.54116e-06
1.54449e-06
1.66423e-06
1.84532e-06
3.02286e-06
3.02329e-06
1.84368e-06
1.66669e-06
2.29559e-06
1.54342e-06
2.54076e-06
1.54445e-06
2.54099e-06
1.66406e-06
1.84551e-06
3.02245e-06
3.64789e-06
2.2237e-06
3.02285e-06
1.84324e-06
2.22423e-06
2.82875e-06
1.41876e-06
1.96841e-06
1.96832e-06
1.96904e-06
1.96913e-06
2.82842e-06
6.5186e-07
1.18287e-06
1.18298e-06
1.4152e-06
6.58007e-07
1.18591e-06
1.18603e-06
1.41811e-06
1.41515e-06
1.41585e-06
1.18298e-06
1.18285e-06
1.18531e-06
1.18524e-06
1.41511e-06
1.41584e-06
1.18279e-06
1.18298e-06
1.18512e-06
1.1853e-06
1.18304e-06
1.1852e-06
1.18526e-06
1.41518e-06
1.41594e-06
1.18284e-06
1.18531e-06
1.18519e-06
1.41596e-06
1.41807e-06
1.18602e-06
1.18587e-06
1.41802e-06
1.18584e-06
1.18602e-06
1.18613e-06
1.4181e-06
1.18589e-06
4.23634e-06
9.54972e-06
9.55489e-06
4.23569e-06
1.9061e-05
1.90716e-05
4.23639e-06
9.55129e-06
9.55608e-06
4.23579e-06
6.51847e-07
6.51997e-07
6.51977e-07
6.5652e-07
6.56534e-07
6.56647e-07
6.56608e-07
2.29402e-06
3.6445e-06
9.29863e-07
1.18367e-06
3.64496e-06
9.30998e-07
2.29376e-06
1.90624e-05
1.90729e-05
2.29405e-06
9.29992e-07
3.64452e-06
1.18379e-06
9.31095e-07
3.64501e-06
2.29379e-06
5.64527e-06
5.64702e-06
1.41452e-06
5.64635e-06
5.6481e-06
9.56135e-06
4.23829e-06
1.90832e-05
9.5629e-06
4.23837e-06
6.57992e-07
6.58141e-07
6.58129e-07
2.2955e-06
3.64703e-06
9.34083e-07
2.29535e-06
9.35056e-07
1.90846e-05
2.29553e-06
9.34216e-07
3.64705e-06
2.29537e-06
9.35147e-07
5.64963e-06
5.65138e-06
1.4172e-06
5.65062e-06
5.6524e-06
1.90588e-05
1.90693e-05
1.9062e-05
1.90725e-05
5.64522e-06
5.64697e-06
1.41441e-06
5.64627e-06
5.64806e-06
1.90803e-05
1.90699e-05
1.90835e-05
1.90732e-05
1.41667e-06
5.64845e-06
5.65024e-06
5.64745e-06
5.64918e-06
4.23629e-06
9.54992e-06
9.55508e-06
4.23564e-06
2.29399e-06
3.64432e-06
9.29853e-07
1.18379e-06
3.6448e-06
9.30966e-07
2.29366e-06
2.29394e-06
3.64474e-06
9.29786e-07
1.18371e-06
3.64517e-06
9.3092e-07
2.29361e-06
4.23702e-06
9.56069e-06
9.55558e-06
4.23763e-06
4.23697e-06
9.56083e-06
9.55579e-06
4.23758e-06
2.2945e-06
1.18456e-06
3.64606e-06
9.33076e-07
3.64563e-06
9.32046e-07
2.29477e-06
2.29445e-06
1.18443e-06
3.64643e-06
9.33032e-07
3.64605e-06
9.31976e-07
2.29472e-06
5.64679e-06
5.64539e-06
1.41442e-06
5.64774e-06
5.64649e-06
1.90601e-05
1.90706e-05
1.90826e-05
1.90722e-05
1.41661e-06
5.64992e-06
5.64866e-06
5.64901e-06
5.64761e-06
1.90816e-05
1.90712e-05
2.294e-06
3.64486e-06
9.29834e-07
1.1836e-06
3.64536e-06
9.30942e-07
2.29373e-06
4.23633e-06
9.55068e-06
9.55584e-06
4.2357e-06
2.29394e-06
9.29877e-07
3.64476e-06
1.18378e-06
9.30984e-07
3.64526e-06
2.29367e-06
4.2371e-06
9.56188e-06
9.55714e-06
4.23769e-06
2.29456e-06
1.18439e-06
3.64661e-06
9.33053e-07
3.64617e-06
9.32029e-07
2.29478e-06
4.23704e-06
9.56161e-06
9.55654e-06
4.23762e-06
2.2945e-06
1.18457e-06
9.33093e-07
3.64652e-06
9.32071e-07
3.64607e-06
2.29472e-06
4.2365e-06
9.5507e-06
9.55548e-06
4.23594e-06
2.29399e-06
9.29917e-07
3.64442e-06
1.18377e-06
9.3101e-07
3.6449e-06
2.29372e-06
4.23638e-06
9.55044e-06
9.5556e-06
4.23575e-06
2.2946e-06
1.18446e-06
3.64622e-06
9.33107e-07
3.6458e-06
9.32056e-07
2.29481e-06
4.23727e-06
9.56126e-06
9.55655e-06
4.23779e-06
2.29456e-06
1.18465e-06
9.33116e-07
3.64616e-06
9.32113e-07
3.64573e-06
2.29477e-06
4.23709e-06
9.56137e-06
9.5563e-06
4.23767e-06
5.64675e-06
5.64538e-06
1.4145e-06
5.64787e-06
5.64646e-06
1.90599e-05
1.90704e-05
1.90839e-05
1.90735e-05
1.41669e-06
5.65004e-06
5.64863e-06
5.64896e-06
5.6476e-06
1.90814e-05
1.90711e-05
2.29397e-06
9.29918e-07
3.64492e-06
1.18367e-06
9.31014e-07
3.64541e-06
2.29372e-06
4.23651e-06
9.55067e-06
9.55584e-06
4.23595e-06
4.23646e-06
9.55113e-06
9.5563e-06
4.23597e-06
2.29463e-06
1.18457e-06
9.33203e-07
3.64626e-06
9.32185e-07
3.64582e-06
2.29483e-06
2.29456e-06
1.18443e-06
9.33123e-07
3.64667e-06
9.32111e-07
3.64622e-06
2.29476e-06
4.23728e-06
9.56161e-06
9.55653e-06
4.2378e-06
4.2373e-06
9.56207e-06
9.55699e-06
4.23775e-06
1.9061e-05
1.90715e-05
1.90633e-05
1.90737e-05
1.41671e-06
5.64853e-06
5.65028e-06
5.64749e-06
5.64923e-06
1.90825e-05
1.90721e-05
1.90848e-05
1.90744e-05
1.90809e-05
1.90842e-05
5.6496e-06
5.65134e-06
9.56174e-06
4.23824e-06
3.64686e-06
9.34076e-07
2.29526e-06
3.64728e-06
9.34006e-07
2.2952e-06
5.65116e-06
5.64976e-06
1.90822e-05
3.6474e-06
9.34058e-07
2.29531e-06
9.5623e-06
4.2383e-06
9.34099e-07
3.6473e-06
2.29525e-06
4.239e-06
9.56232e-06
4.23853e-06
2.29546e-06
9.34144e-07
3.64695e-06
1.1866e-06
2.29531e-06
9.35049e-07
3.64733e-06
4.23889e-06
9.56205e-06
4.23836e-06
9.56704e-06
5.65111e-06
5.64973e-06
1.90821e-05
2.29545e-06
9.34143e-07
3.64746e-06
1.18659e-06
2.2953e-06
9.35067e-07
3.64785e-06
4.23901e-06
9.56229e-06
4.23854e-06
4.23897e-06
9.56275e-06
4.23856e-06
9.56774e-06
1.90831e-05
1.90934e-05
1.90854e-05
1.90956e-05
1.26407e-05
1.12334e-05
4.8818e-06
4.23637e-06
1.12311e-05
4.88186e-06
1.26432e-05
2.27383e-05
9.55198e-06
7.23921e-06
7.23903e-06
2.27314e-05
2.27379e-05
7.24031e-06
9.55267e-06
7.2405e-06
2.27448e-05
1.26393e-05
4.23567e-06
1.12276e-05
4.88111e-06
1.12299e-05
4.88105e-06
1.26368e-05
1.9066e-05
1.90666e-05
1.26408e-05
4.8818e-06
1.12336e-05
4.23644e-06
4.88189e-06
1.12313e-05
1.26432e-05
2.2738e-05
9.55317e-06
7.23923e-06
7.23905e-06
2.27311e-05
2.27376e-05
7.24032e-06
9.55422e-06
7.24052e-06
2.27445e-05
1.26394e-05
4.2357e-06
4.88114e-06
1.12278e-05
4.88105e-06
1.12301e-05
1.26369e-05
1.90673e-05
1.9068e-05
9.95767e-06
2.23741e-05
2.23734e-05
2.23678e-05
2.23671e-05
9.95736e-06
4.70063e-06
2.97318e-06
5.64523e-06
9.91441e-06
2.97301e-06
9.91631e-06
4.70097e-06
4.70643e-06
2.97435e-06
5.64698e-06
9.91919e-06
2.97419e-06
9.92109e-06
4.70673e-06
4.70168e-06
9.91924e-06
5.64639e-06
2.97342e-06
2.9736e-06
9.91736e-06
4.70134e-06
4.70745e-06
9.92401e-06
5.64812e-06
2.9746e-06
2.97477e-06
9.92213e-06
4.70714e-06
9.95555e-06
2.2362e-05
2.23613e-05
2.23682e-05
2.23675e-05
9.95586e-06
2.27638e-05
7.24428e-06
9.56347e-06
2.2757e-05
7.24407e-06
1.26545e-05
4.23825e-06
1.12416e-05
4.884e-06
1.26521e-05
1.12437e-05
4.88393e-06
1.90881e-05
2.27635e-05
7.2443e-06
9.56476e-06
2.27567e-05
7.24408e-06
1.26546e-05
4.23831e-06
4.88404e-06
1.12419e-05
1.26521e-05
4.88393e-06
1.1244e-05
1.90894e-05
9.96476e-06
2.2397e-05
2.23963e-05
2.23908e-05
2.23901e-05
9.96438e-06
4.70334e-06
2.97473e-06
9.92609e-06
5.64959e-06
4.70372e-06
2.97453e-06
9.9279e-06
4.70912e-06
2.9759e-06
9.93085e-06
5.65134e-06
4.70948e-06
2.97573e-06
9.93271e-06
9.96265e-06
2.23851e-05
2.23844e-05
9.96302e-06
2.23913e-05
2.23906e-05
4.70434e-06
9.93063e-06
5.65066e-06
2.97487e-06
2.97507e-06
9.92888e-06
4.70397e-06
4.71013e-06
9.93571e-06
5.65243e-06
2.97606e-06
2.97625e-06
9.93347e-06
4.70977e-06
1.90637e-05
1.90644e-05
1.90669e-05
1.90676e-05
9.95768e-06
2.23735e-05
2.23728e-05
2.23673e-05
2.23665e-05
9.95736e-06
4.70048e-06
2.97311e-06
5.64516e-06
9.91407e-06
9.91597e-06
2.97292e-06
4.70085e-06
4.70627e-06
2.97425e-06
5.64694e-06
9.91914e-06
9.92106e-06
2.97407e-06
4.70662e-06
4.70157e-06
9.9189e-06
5.64634e-06
2.97334e-06
9.91702e-06
4.70119e-06
2.97353e-06
4.70734e-06
9.92397e-06
5.64808e-06
2.97449e-06
9.92209e-06
4.70698e-06
2.97467e-06
9.95555e-06
2.23614e-05
2.23607e-05
2.23677e-05
2.2367e-05
9.95586e-06
1.90755e-05
1.90748e-05
1.90787e-05
1.9078e-05
9.95915e-06
2.23731e-05
2.23723e-05
9.95948e-06
2.23793e-05
2.23786e-05
4.70295e-06
2.97411e-06
5.64853e-06
9.92472e-06
9.92288e-06
2.97431e-06
4.70255e-06
4.70872e-06
2.97526e-06
5.65027e-06
9.9298e-06
9.92795e-06
2.97545e-06
4.70834e-06
4.70188e-06
9.91998e-06
2.97393e-06
5.64737e-06
4.70227e-06
9.92187e-06
2.97374e-06
4.70767e-06
9.92505e-06
2.97507e-06
5.64916e-06
4.70804e-06
9.92695e-06
2.97488e-06
9.96127e-06
2.23851e-05
2.23843e-05
2.23789e-05
2.23781e-05
9.96093e-06
1.26403e-05
1.12333e-05
4.88171e-06
4.23631e-06
1.12311e-05
4.88173e-06
1.2644e-05
2.27387e-05
9.55218e-06
7.2379e-06
7.23775e-06
2.27318e-05
2.27383e-05
7.23902e-06
9.55287e-06
7.23919e-06
2.27452e-05
1.26401e-05
4.23562e-06
1.12275e-05
4.88098e-06
1.12298e-05
4.88097e-06
1.26364e-05
1.2647e-05
1.12346e-05
4.88259e-06
4.23699e-06
1.26445e-05
1.12369e-05
4.88252e-06
2.27507e-05
9.55845e-06
7.24283e-06
2.27575e-05
7.24303e-06
2.27512e-05
7.24177e-06
9.55778e-06
2.27443e-05
7.24157e-06
1.26484e-05
4.23767e-06
1.12404e-05
4.88323e-06
1.26509e-05
1.12381e-05
4.8833e-06
1.26478e-05
1.12346e-05
4.88246e-06
4.23694e-06
1.26442e-05
1.12368e-05
4.88243e-06
2.2751e-05
9.55867e-06
7.24154e-06
7.24172e-06
2.27579e-05
2.27515e-05
7.24046e-06
9.55796e-06
2.27447e-05
7.24029e-06
1.2648e-05
4.23761e-06
1.12403e-05
4.88314e-06
1.12381e-05
4.88318e-06
1.26515e-05
9.95772e-06
2.23732e-05
2.23738e-05
2.2367e-05
2.23675e-05
9.95738e-06
4.70636e-06
2.9742e-06
5.64663e-06
9.91879e-06
9.92069e-06
2.97403e-06
4.70668e-06
4.70055e-06
2.97318e-06
5.64537e-06
9.91421e-06
2.97299e-06
9.91677e-06
4.7009e-06
4.7074e-06
9.92362e-06
5.6479e-06
2.97445e-06
9.92173e-06
2.97462e-06
4.70707e-06
4.70162e-06
9.9197e-06
5.64651e-06
2.97341e-06
2.97359e-06
9.91718e-06
4.70126e-06
9.95556e-06
2.23611e-05
2.23617e-05
2.23674e-05
2.2368e-05
9.95589e-06
1.9065e-05
1.90657e-05
1.90777e-05
1.90771e-05
9.95917e-06
2.23728e-05
2.23733e-05
9.95952e-06
2.2379e-05
2.23796e-05
4.70878e-06
2.97522e-06
5.65009e-06
9.92945e-06
2.97541e-06
9.9276e-06
4.70843e-06
4.703e-06
2.97418e-06
5.64869e-06
9.92553e-06
9.92299e-06
2.97438e-06
4.70263e-06
4.70776e-06
9.92471e-06
2.97503e-06
5.64884e-06
2.97484e-06
4.7081e-06
9.92659e-06
4.70195e-06
9.92013e-06
2.974e-06
5.64758e-06
4.70232e-06
9.92261e-06
2.9738e-06
9.96131e-06
2.23848e-05
2.23854e-05
2.23786e-05
2.23791e-05
9.96095e-06
1.90767e-05
1.90761e-05
1.26405e-05
1.12335e-05
4.88163e-06
4.23638e-06
1.12312e-05
4.88169e-06
1.26437e-05
2.27379e-05
9.55293e-06
7.23758e-06
7.23738e-06
2.2731e-05
2.27374e-05
7.23866e-06
9.55362e-06
7.23885e-06
2.27443e-05
1.26399e-05
4.23565e-06
1.12277e-05
4.88096e-06
1.123e-05
4.8809e-06
1.26365e-05
1.2647e-05
4.88262e-06
1.12348e-05
4.23705e-06
1.26446e-05
4.88252e-06
1.12371e-05
2.27503e-05
9.56005e-06
7.24284e-06
2.27572e-05
7.24305e-06
2.27509e-05
7.24179e-06
9.55902e-06
2.2744e-05
7.24159e-06
1.26484e-05
4.23774e-06
4.88324e-06
1.12406e-05
1.26509e-05
4.88334e-06
1.12383e-05
1.26474e-05
1.12347e-05
4.88243e-06
4.23698e-06
1.26446e-05
1.1237e-05
4.88236e-06
2.27502e-05
9.55941e-06
7.24119e-06
7.24139e-06
2.27571e-05
2.27507e-05
7.24012e-06
9.55874e-06
2.27439e-05
7.23993e-06
1.26485e-05
4.23768e-06
1.12404e-05
4.88307e-06
1.12382e-05
4.88315e-06
1.2651e-05
1.26402e-05
4.88178e-06
1.12335e-05
4.23661e-06
4.88203e-06
1.12313e-05
1.26427e-05
2.27371e-05
9.55258e-06
7.23905e-06
7.23865e-06
2.27299e-05
2.27364e-05
7.23993e-06
9.55362e-06
7.24034e-06
2.27435e-05
1.26389e-05
4.23583e-06
4.88128e-06
1.12277e-05
4.88104e-06
1.123e-05
1.26364e-05
1.26408e-05
1.12333e-05
4.88162e-06
4.23643e-06
1.12311e-05
4.88172e-06
1.26433e-05
2.2738e-05
9.55269e-06
7.23744e-06
7.23726e-06
2.27311e-05
2.27375e-05
7.23853e-06
9.55338e-06
7.23873e-06
2.27444e-05
1.26395e-05
4.2357e-06
1.12276e-05
4.88097e-06
1.12299e-05
4.88088e-06
1.26369e-05
1.26466e-05
4.88275e-06
1.12348e-05
4.23715e-06
1.2644e-05
4.8825e-06
1.1237e-05
2.27492e-05
9.55945e-06
7.24246e-06
7.24286e-06
2.27563e-05
2.27499e-05
7.24161e-06
9.55842e-06
2.27428e-05
7.2412e-06
1.26479e-05
4.23791e-06
4.88321e-06
1.12405e-05
4.88347e-06
1.12383e-05
1.26504e-05
1.26471e-05
1.12346e-05
4.88245e-06
4.23704e-06
1.26446e-05
1.12369e-05
4.88235e-06
2.27503e-05
9.55917e-06
7.24105e-06
7.24126e-06
2.27572e-05
2.27508e-05
7.24e-06
9.5585e-06
2.27439e-05
7.2398e-06
1.26485e-05
4.23773e-06
1.12403e-05
4.88306e-06
1.12381e-05
4.88316e-06
1.26509e-05
9.95718e-06
2.23726e-05
2.2373e-05
2.23663e-05
2.23667e-05
9.95684e-06
4.7063e-06
2.97422e-06
5.64676e-06
9.91839e-06
9.92092e-06
2.97409e-06
4.70662e-06
4.70037e-06
2.97314e-06
5.64535e-06
9.91371e-06
2.97297e-06
9.91624e-06
4.70068e-06
4.70733e-06
9.92385e-06
5.64786e-06
2.97451e-06
9.92136e-06
2.97464e-06
4.70701e-06
4.7014e-06
9.91918e-06
5.6465e-06
2.97339e-06
2.97356e-06
9.91668e-06
4.70108e-06
9.95503e-06
2.23605e-05
2.23609e-05
2.23667e-05
2.23671e-05
9.95536e-06
1.90648e-05
1.90655e-05
1.90791e-05
1.90784e-05
9.95863e-06
2.23721e-05
2.23725e-05
9.95898e-06
2.23783e-05
2.23787e-05
4.70871e-06
2.97528e-06
5.65004e-06
9.92964e-06
2.97543e-06
9.92715e-06
4.70837e-06
4.70278e-06
2.97416e-06
5.64868e-06
9.92497e-06
9.92247e-06
2.97434e-06
4.70244e-06
4.7077e-06
9.9243e-06
2.97504e-06
5.64897e-06
2.9749e-06
4.70803e-06
9.92676e-06
4.70177e-06
9.91962e-06
2.97396e-06
5.64755e-06
4.7021e-06
9.92209e-06
2.97378e-06
9.96077e-06
2.23841e-05
2.23845e-05
2.23779e-05
2.23783e-05
9.96041e-06
1.90766e-05
1.90759e-05
1.26405e-05
4.88183e-06
1.12334e-05
4.23662e-06
4.88191e-06
1.12311e-05
1.2643e-05
2.27373e-05
9.55292e-06
7.23885e-06
7.23868e-06
2.27303e-05
2.27368e-05
7.23996e-06
9.55362e-06
7.24014e-06
2.27437e-05
1.26391e-05
4.23584e-06
4.88117e-06
1.12276e-05
4.88109e-06
1.12299e-05
1.26366e-05
1.26408e-05
4.8817e-06
1.12332e-05
4.23664e-06
4.88187e-06
1.1231e-05
1.26433e-05
2.27389e-05
9.55339e-06
7.2379e-06
7.2377e-06
2.27319e-05
2.27384e-05
7.23898e-06
9.55408e-06
7.23918e-06
2.27453e-05
1.26395e-05
4.23579e-06
4.88113e-06
1.12275e-05
4.88096e-06
1.12297e-05
1.2637e-05
1.26468e-05
4.88264e-06
1.12346e-05
4.23716e-06
1.26443e-05
4.88256e-06
1.12369e-05
2.27496e-05
9.5594e-06
7.24247e-06
7.24266e-06
2.27564e-05
2.27501e-05
7.24141e-06
9.55873e-06
2.27432e-05
7.24122e-06
1.26481e-05
4.23792e-06
4.88327e-06
1.12403e-05
4.88335e-06
1.12381e-05
1.26506e-05
1.26472e-05
4.8826e-06
1.12345e-05
4.23712e-06
1.26447e-05
4.88243e-06
1.12367e-05
2.27512e-05
9.55987e-06
7.2415e-06
7.24172e-06
2.27581e-05
2.27517e-05
7.24046e-06
9.5592e-06
2.27448e-05
7.24024e-06
1.26485e-05
4.23794e-06
4.88314e-06
1.12402e-05
4.88332e-06
1.1238e-05
1.2651e-05
1.90659e-05
1.90666e-05
1.90682e-05
1.90689e-05
9.95915e-06
2.23736e-05
2.23729e-05
9.95947e-06
2.23799e-05
2.23791e-05
4.70305e-06
2.97419e-06
5.64856e-06
9.92506e-06
4.7027e-06
2.97437e-06
9.92321e-06
4.70883e-06
2.97538e-06
5.65031e-06
9.92983e-06
4.7085e-06
2.97556e-06
9.92798e-06
4.70203e-06
9.92032e-06
2.974e-06
5.64747e-06
4.70238e-06
2.97382e-06
9.92221e-06
4.70783e-06
9.92509e-06
2.97518e-06
5.6492e-06
4.70815e-06
2.975e-06
9.92698e-06
9.96125e-06
2.23856e-05
2.23849e-05
9.96093e-06
2.23794e-05
2.23787e-05
1.90777e-05
1.9077e-05
1.90799e-05
1.90793e-05
1.90857e-05
1.9089e-05
4.70321e-06
2.97468e-06
9.92576e-06
5.64951e-06
4.70362e-06
9.92753e-06
2.97447e-06
4.709e-06
2.97581e-06
9.93084e-06
5.6513e-06
4.70939e-06
9.93261e-06
2.97562e-06
9.96269e-06
2.23846e-05
2.23839e-05
9.96304e-06
2.23908e-05
2.23901e-05
2.27642e-05
7.24297e-06
9.56347e-06
2.27574e-05
7.24278e-06
1.26552e-05
4.23819e-06
1.12416e-05
4.88388e-06
1.12437e-05
1.2652e-05
4.88384e-06
4.70909e-06
2.97577e-06
9.93049e-06
5.65098e-06
9.93225e-06
4.70945e-06
2.97558e-06
4.7033e-06
2.97474e-06
9.92588e-06
5.64974e-06
2.97455e-06
4.70367e-06
9.92849e-06
9.96271e-06
2.23843e-05
2.23848e-05
2.23905e-05
9.96309e-06
2.23911e-05
2.27634e-05
7.24264e-06
9.56444e-06
2.27566e-05
7.24243e-06
1.26548e-05
4.23824e-06
1.12417e-05
4.88385e-06
1.12439e-05
1.26523e-05
4.88376e-06
1.26552e-05
4.23914e-06
1.12473e-05
4.88486e-06
1.12452e-05
2.27626e-05
7.24411e-06
9.56406e-06
7.24368e-06
2.27555e-05
1.26545e-05
4.23841e-06
4.88417e-06
1.12417e-05
4.88391e-06
1.26516e-05
1.12439e-05
2.27618e-05
1.2656e-05
4.23896e-06
1.12471e-05
4.88443e-06
1.1245e-05
4.88454e-06
1.26588e-05
2.27635e-05
7.2425e-06
9.56422e-06
2.27566e-05
7.24229e-06
1.26547e-05
4.2383e-06
1.12416e-05
4.88386e-06
1.26522e-05
1.12438e-05
4.88375e-06
2.27629e-05
7.24351e-06
9.56487e-06
7.24373e-06
2.27697e-05
4.70903e-06
2.97579e-06
9.9301e-06
5.6511e-06
9.93245e-06
4.70938e-06
2.97563e-06
4.7031e-06
2.9747e-06
9.92535e-06
5.64971e-06
2.97452e-06
4.70344e-06
9.92779e-06
9.96217e-06
2.23836e-05
2.2384e-05
2.23898e-05
9.96254e-06
2.23902e-05
1.90869e-05
1.26557e-05
4.23915e-06
4.88463e-06
1.12471e-05
4.88473e-06
1.12451e-05
1.26584e-05
2.27627e-05
7.24391e-06
9.56441e-06
7.24371e-06
2.27559e-05
1.26544e-05
4.23841e-06
4.88405e-06
1.12416e-05
4.88396e-06
1.26519e-05
1.12438e-05
2.27622e-05
7.24493e-06
7.24514e-06
2.2769e-05
1.2656e-05
4.23917e-06
4.88452e-06
1.1247e-05
4.8847e-06
1.12449e-05
1.26585e-05
2.27644e-05
7.24296e-06
9.56492e-06
2.27575e-05
7.24274e-06
1.26548e-05
4.23837e-06
4.88402e-06
1.12414e-05
1.26522e-05
4.88384e-06
1.12436e-05
2.27638e-05
7.24396e-06
9.56557e-06
7.2442e-06
2.27706e-05
1.90879e-05
1.90886e-05
1.90902e-05
1.90909e-05
4.41775e-07
4.41713e-07
6.53449e-07
4.43668e-07
4.43596e-07
2.35633e-07
2.33703e-07
2.82693e-06
1.96718e-06
1.96741e-06
1.41376e-06
1.9665e-06
1.96672e-06
2.82724e-06
4.4915e-07
4.49083e-07
2.43236e-07
2.41362e-07
2.8282e-06
1.96868e-06
1.96891e-06
1.41664e-06
2.82854e-06
1.96796e-06
1.96819e-06
2.82685e-06
1.96716e-06
1.96737e-06
1.41364e-06
1.96647e-06
1.96666e-06
2.82716e-06
2.82818e-06
1.41738e-06
1.96761e-06
1.96782e-06
1.96832e-06
1.96853e-06
2.82786e-06
2.82688e-06
1.96727e-06
1.9672e-06
1.41366e-06
1.96651e-06
1.96658e-06
2.8272e-06
2.82822e-06
1.41732e-06
1.96772e-06
1.96765e-06
1.96843e-06
1.96836e-06
2.82788e-06
2.82684e-06
1.9673e-06
1.96721e-06
1.41374e-06
1.96653e-06
1.96662e-06
2.82714e-06
2.82816e-06
1.41741e-06
1.96777e-06
1.96767e-06
1.96847e-06
1.96838e-06
2.82785e-06
2.82825e-06
1.41742e-06
1.96764e-06
1.96787e-06
2.82795e-06
1.96834e-06
1.96858e-06
2.82816e-06
1.96866e-06
1.96888e-06
1.41652e-06
2.82849e-06
1.96795e-06
1.96815e-06
2.82818e-06
1.96878e-06
1.96871e-06
1.41649e-06
1.96798e-06
2.82852e-06
1.96805e-06
2.82815e-06
1.96881e-06
1.96872e-06
1.41662e-06
1.96801e-06
2.82847e-06
1.9681e-06
4.41759e-07
4.41743e-07
6.53461e-07
4.43662e-07
4.4362e-07
2.35641e-07
2.33711e-07
4.41857e-07
4.41843e-07
6.53579e-07
4.43738e-07
4.43733e-07
2.35708e-07
2.33778e-07
4.41884e-07
4.41805e-07
6.53539e-07
4.43742e-07
4.43725e-07
2.35718e-07
2.33777e-07
6.55009e-07
4.47354e-07
4.47281e-07
4.45531e-07
4.45471e-07
2.3756e-07
2.39463e-07
6.54994e-07
4.47348e-07
4.47304e-07
4.45515e-07
4.45501e-07
2.37568e-07
2.3947e-07
6.55147e-07
4.4742e-07
4.47418e-07
4.45614e-07
4.45598e-07
2.37635e-07
2.39538e-07
6.55128e-07
4.47423e-07
4.47416e-07
4.45645e-07
4.45556e-07
2.37633e-07
2.39548e-07
1.66444e-06
2.5395e-06
1.54151e-06
2.29419e-06
2.53974e-06
1.54247e-06
1.66286e-06
1.84147e-06
2.22242e-06
3.64431e-06
3.02095e-06
2.22193e-06
3.02056e-06
1.84273e-06
1.84326e-06
3.02103e-06
3.64516e-06
2.22228e-06
2.22278e-06
3.02143e-06
1.84194e-06
1.66245e-06
2.2936e-06
2.53934e-06
1.54189e-06
2.53911e-06
1.54093e-06
1.66391e-06
1.66457e-06
1.54155e-06
2.5396e-06
2.29422e-06
1.54252e-06
2.5398e-06
1.66289e-06
1.84153e-06
2.22246e-06
3.64435e-06
3.02099e-06
2.22197e-06
3.02064e-06
1.84282e-06
1.84338e-06
3.02111e-06
3.64518e-06
2.22233e-06
2.22282e-06
3.02147e-06
1.84199e-06
1.6625e-06
2.29363e-06
1.54193e-06
2.5394e-06
1.54098e-06
2.53921e-06
1.66401e-06
2.8276e-06
1.41597e-06
1.9669e-06
1.96713e-06
1.9676e-06
1.96783e-06
2.82729e-06
4.49133e-07
4.49121e-07
4.50847e-07
2.43243e-07
2.4137e-07
4.49228e-07
4.49214e-07
4.50968e-07
2.43311e-07
2.41437e-07
4.49265e-07
4.49165e-07
6.59544e-07
4.50958e-07
4.50984e-07
2.43323e-07
2.41434e-07
1.66685e-06
2.29568e-06
2.54087e-06
1.54347e-06
2.54114e-06
1.54451e-06
1.66411e-06
1.84301e-06
2.22375e-06
3.02275e-06
3.64682e-06
1.84505e-06
2.22322e-06
3.02232e-06
1.664e-06
2.29516e-06
2.54083e-06
1.54405e-06
1.66627e-06
2.54057e-06
1.54304e-06
1.66668e-06
2.29571e-06
1.54352e-06
2.54096e-06
1.54456e-06
2.5412e-06
1.66438e-06
1.84316e-06
2.22379e-06
3.0228e-06
3.64686e-06
1.84519e-06
2.22326e-06
3.0224e-06
1.6642e-06
2.29519e-06
1.54409e-06
2.54088e-06
1.66626e-06
1.54309e-06
2.54066e-06
1.84574e-06
3.02278e-06
3.0232e-06
1.84351e-06
2.82883e-06
1.41874e-06
1.96825e-06
1.96847e-06
1.96899e-06
1.96921e-06
2.82849e-06
2.82752e-06
1.41593e-06
1.96688e-06
1.96707e-06
2.82721e-06
1.96757e-06
1.96778e-06
2.82754e-06
1.41515e-06
1.96795e-06
1.96817e-06
2.82786e-06
1.96726e-06
1.96746e-06
1.66435e-06
2.53953e-06
1.54154e-06
2.2941e-06
2.53974e-06
1.54239e-06
1.66309e-06
1.84159e-06
2.22237e-06
3.64414e-06
3.02097e-06
3.02061e-06
2.22189e-06
1.84268e-06
1.84319e-06
3.02108e-06
3.64498e-06
2.22225e-06
3.02145e-06
2.22274e-06
1.84213e-06
1.66253e-06
2.29356e-06
2.53934e-06
1.54181e-06
2.53913e-06
1.54096e-06
1.66385e-06
1.66424e-06
2.5394e-06
1.54148e-06
2.29404e-06
2.53959e-06
1.54233e-06
1.663e-06
1.84146e-06
2.22259e-06
3.64452e-06
3.02067e-06
3.02034e-06
2.2221e-06
1.84255e-06
1.84306e-06
3.02081e-06
3.64541e-06
2.22246e-06
3.02114e-06
1.84202e-06
2.22295e-06
1.66244e-06
2.29351e-06
2.53919e-06
1.54175e-06
2.539e-06
1.54091e-06
1.66375e-06
1.66361e-06
2.54012e-06
1.54293e-06
2.29439e-06
1.66481e-06
2.5399e-06
1.54208e-06
1.84415e-06
2.22289e-06
3.64625e-06
3.02198e-06
2.2234e-06
3.02235e-06
1.84314e-06
1.84267e-06
3.0219e-06
2.22308e-06
3.64544e-06
2.22258e-06
1.84368e-06
3.02153e-06
1.66525e-06
2.29489e-06
2.54026e-06
1.5426e-06
2.54048e-06
1.54346e-06
1.66405e-06
1.66351e-06
2.53996e-06
1.54288e-06
2.29434e-06
1.6647e-06
2.53977e-06
1.54203e-06
1.84402e-06
2.2231e-06
3.64667e-06
3.0217e-06
3.02204e-06
2.22362e-06
1.84304e-06
1.84255e-06
3.0216e-06
2.2233e-06
3.64581e-06
1.84355e-06
3.02126e-06
2.22279e-06
1.66513e-06
2.29484e-06
2.54013e-06
1.54255e-06
2.54033e-06
1.5434e-06
1.66397e-06
2.82756e-06
1.41588e-06
1.96698e-06
1.96692e-06
1.96762e-06
1.96768e-06
2.82723e-06
2.82757e-06
1.41515e-06
1.96807e-06
1.96801e-06
1.96736e-06
2.8279e-06
1.9673e-06
1.66448e-06
2.53954e-06
1.54147e-06
2.29416e-06
2.53976e-06
1.54244e-06
1.66279e-06
1.84146e-06
2.22269e-06
3.6447e-06
3.02108e-06
3.0207e-06
2.2222e-06
1.84277e-06
1.84334e-06
3.02117e-06
3.64552e-06
2.22256e-06
3.02156e-06
2.22306e-06
1.84191e-06
1.6624e-06
2.29357e-06
2.53936e-06
1.54185e-06
2.53914e-06
1.54089e-06
1.66391e-06
1.66436e-06
1.54144e-06
2.5394e-06
2.2941e-06
1.5424e-06
2.5396e-06
1.66276e-06
1.84139e-06
2.22262e-06
3.64461e-06
3.02068e-06
3.02031e-06
2.22216e-06
1.84263e-06
1.84316e-06
3.02079e-06
3.64543e-06
2.22251e-06
3.02114e-06
1.84187e-06
2.22299e-06
1.66235e-06
2.29351e-06
1.54182e-06
2.53921e-06
1.54086e-06
2.53901e-06
1.66382e-06
1.66317e-06
2.54014e-06
1.54299e-06
2.2944e-06
1.66511e-06
2.53991e-06
1.54202e-06
1.84456e-06
2.22321e-06
3.64679e-06
3.02206e-06
2.22373e-06
3.02247e-06
1.8428e-06
1.84232e-06
3.02202e-06
2.2234e-06
3.64599e-06
2.2229e-06
1.84393e-06
3.02162e-06
1.66573e-06
2.29495e-06
2.54027e-06
1.54253e-06
2.5405e-06
1.54352e-06
1.66366e-06
1.66311e-06
1.54296e-06
2.53998e-06
2.29434e-06
1.66496e-06
1.54198e-06
2.53977e-06
1.84428e-06
2.22315e-06
3.64669e-06
3.02166e-06
3.02203e-06
2.22365e-06
1.84266e-06
1.84229e-06
3.02159e-06
2.22333e-06
3.6459e-06
1.8437e-06
3.02124e-06
2.22284e-06
1.66563e-06
2.29489e-06
1.5425e-06
2.54013e-06
1.54349e-06
2.54034e-06
1.66354e-06
1.66442e-06
1.54149e-06
2.53942e-06
2.29415e-06
1.54245e-06
2.53964e-06
1.66278e-06
1.84136e-06
2.22239e-06
3.64424e-06
3.02058e-06
2.2219e-06
3.0202e-06
1.84265e-06
1.8432e-06
3.02067e-06
3.64508e-06
2.22226e-06
2.22275e-06
3.02106e-06
1.84183e-06
1.66237e-06
2.29357e-06
1.54186e-06
2.53924e-06
1.54092e-06
2.53902e-06
1.66386e-06
1.66321e-06
2.54012e-06
1.54303e-06
2.29443e-06
1.66503e-06
2.53988e-06
1.54205e-06
1.84439e-06
2.22292e-06
3.64642e-06
3.02192e-06
1.84272e-06
2.22344e-06
3.02233e-06
1.84235e-06
3.02189e-06
2.22312e-06
3.6456e-06
1.8438e-06
2.22261e-06
3.02149e-06
1.66569e-06
2.29498e-06
2.54023e-06
1.54257e-06
1.66364e-06
2.54048e-06
1.54355e-06
1.66313e-06
1.54301e-06
2.54002e-06
2.2944e-06
1.66502e-06
1.54204e-06
2.53979e-06
1.84438e-06
2.2229e-06
3.64634e-06
3.02156e-06
3.02196e-06
2.22341e-06
1.84269e-06
1.84224e-06
3.02152e-06
2.22309e-06
3.64554e-06
1.84377e-06
3.02112e-06
2.22259e-06
1.66569e-06
2.29494e-06
1.54255e-06
2.54014e-06
1.54353e-06
2.54038e-06
1.66359e-06
2.8275e-06
1.41595e-06
1.96703e-06
1.96693e-06
1.96763e-06
1.96772e-06
2.8272e-06
2.82753e-06
1.41523e-06
1.96811e-06
1.96801e-06
1.96741e-06
2.82784e-06
1.96731e-06
1.66441e-06
1.54148e-06
2.53941e-06
2.29415e-06
1.54245e-06
2.53964e-06
1.66276e-06
1.8414e-06
2.22272e-06
3.64475e-06
3.02075e-06
2.22223e-06
3.02038e-06
1.84268e-06
1.84324e-06
3.02085e-06
3.64558e-06
2.22259e-06
2.22309e-06
3.02123e-06
1.84186e-06
1.66236e-06
2.29355e-06
1.54186e-06
2.53924e-06
1.54091e-06
2.53902e-06
1.66386e-06
1.66326e-06
1.54307e-06
2.54018e-06
2.29445e-06
1.66519e-06
1.5421e-06
2.53997e-06
1.84458e-06
2.22297e-06
3.64645e-06
3.02199e-06
1.84279e-06
2.22349e-06
3.02237e-06
1.84239e-06
3.02193e-06
2.22317e-06
3.64564e-06
1.84396e-06
2.22266e-06
3.02156e-06
1.66582e-06
2.29501e-06
1.54261e-06
2.54033e-06
1.66377e-06
1.5436e-06
2.54054e-06
1.66312e-06
1.543e-06
2.54002e-06
2.29438e-06
1.66502e-06
1.54203e-06
2.53979e-06
1.84442e-06
2.22324e-06
3.64685e-06
3.02174e-06
3.02213e-06
2.22375e-06
1.84267e-06
1.84227e-06
3.02169e-06
2.22343e-06
3.64605e-06
1.84381e-06
3.02131e-06
2.22293e-06
1.66568e-06
2.29494e-06
1.54254e-06
2.54015e-06
1.54353e-06
2.54039e-06
1.6636e-06
2.82762e-06
1.41525e-06
1.96798e-06
1.96821e-06
2.82794e-06
1.96729e-06
1.96751e-06
1.84354e-06
2.22371e-06
3.02277e-06
3.64666e-06
3.0224e-06
1.84462e-06
2.22318e-06
1.66443e-06
2.29512e-06
2.54082e-06
1.54395e-06
2.5406e-06
1.6657e-06
1.54311e-06
1.84346e-06
2.22392e-06
3.02246e-06
3.64702e-06
1.84444e-06
3.02212e-06
2.22339e-06
1.66438e-06
2.29507e-06
2.54067e-06
1.5439e-06
1.66555e-06
2.54047e-06
1.54305e-06
1.84326e-06
2.22403e-06
3.02289e-06
3.64722e-06
3.02249e-06
1.84498e-06
2.22351e-06
1.66407e-06
2.29514e-06
2.54084e-06
1.54402e-06
2.54061e-06
1.66613e-06
1.54303e-06
1.84302e-06
2.22395e-06
3.02245e-06
3.64712e-06
1.84488e-06
3.02209e-06
2.22344e-06
1.66387e-06
2.29508e-06
1.54398e-06
2.54067e-06
1.6661e-06
1.543e-06
2.54047e-06
1.66671e-06
2.29565e-06
1.54346e-06
2.54078e-06
1.5445e-06
2.54103e-06
1.66402e-06
1.84316e-06
2.22371e-06
3.02238e-06
3.64675e-06
2.22318e-06
1.84483e-06
3.02199e-06
1.66393e-06
2.29513e-06
1.54403e-06
2.54072e-06
1.54304e-06
1.66612e-06
2.54048e-06
1.84523e-06
3.02235e-06
3.64754e-06
2.22343e-06
2.22398e-06
3.02278e-06
1.8436e-06
1.66654e-06
2.29564e-06
1.54346e-06
2.54078e-06
1.54449e-06
2.54105e-06
1.66417e-06
1.84299e-06
2.22405e-06
3.02256e-06
3.64727e-06
2.22353e-06
1.84499e-06
3.02215e-06
1.66398e-06
2.29512e-06
1.54402e-06
2.54072e-06
1.54304e-06
1.66608e-06
2.54047e-06
1.84561e-06
3.02253e-06
3.64804e-06
2.2238e-06
2.22434e-06
3.02297e-06
1.84341e-06
8.63129e-07
1.14841e-06
8.63021e-07
9.16186e-06
3.47541e-06
1.84288e-05
5.46357e-06
5.46216e-06
1.84269e-05
3.47519e-06
9.16204e-06
2.2055e-05
9.15939e-06
7.08876e-06
7.08909e-06
2.20616e-05
1.84238e-05
4.54474e-06
2.81235e-06
5.46332e-06
9.50452e-06
2.8118e-06
9.50075e-06
4.5452e-06
4.53884e-06
2.81121e-06
5.46205e-06
9.49972e-06
9.49678e-06
2.81072e-06
4.53897e-06
9.73633e-06
2.17295e-05
2.17299e-05
2.17232e-05
2.17236e-05
9.73596e-06
1.84219e-05
2.20528e-05
9.15957e-06
7.0896e-06
7.09014e-06
2.20597e-05
2.66821e-06
1.14969e-06
1.76765e-06
1.76754e-06
1.76839e-06
1.76828e-06
2.66828e-06
1.61709e-06
2.03232e-06
3.47478e-06
2.86052e-06
2.85981e-06
2.03202e-06
1.61748e-06
1.61723e-06
2.03237e-06
3.47458e-06
2.8605e-06
2.03164e-06
2.86033e-06
1.61764e-06
3.23768e-07
8.69031e-07
8.69159e-07
1.15407e-06
3.39802e-07
8.92465e-07
8.92577e-07
1.17358e-06
3.5608e-07
9.14902e-07
9.15009e-07
1.19201e-06
3.72523e-07
9.36329e-07
9.36434e-07
1.20954e-06
3.89047e-07
9.56742e-07
9.56851e-07
1.2262e-06
4.05573e-07
9.76154e-07
9.7627e-07
1.24201e-06
4.22022e-07
9.94578e-07
9.94701e-07
1.257e-06
4.3832e-07
1.01202e-06
1.01215e-06
1.27118e-06
4.54393e-07
1.02849e-06
1.02862e-06
1.28458e-06
4.70176e-07
1.04401e-06
1.04415e-06
1.29725e-06
4.85607e-07
1.0586e-06
1.05875e-06
1.30919e-06
5.00636e-07
1.07229e-06
1.07243e-06
1.32044e-06
5.15214e-07
1.08511e-06
1.08524e-06
1.331e-06
5.29299e-07
1.09706e-06
1.09719e-06
1.34092e-06
5.42856e-07
1.10819e-06
1.10831e-06
1.35019e-06
5.55856e-07
1.11852e-06
1.11863e-06
1.35889e-06
5.68271e-07
1.12807e-06
1.12818e-06
1.36695e-06
5.80082e-07
1.13686e-06
1.13697e-06
1.37443e-06
5.91276e-07
1.14493e-06
1.14503e-06
1.38135e-06
6.0184e-07
1.15229e-06
1.15239e-06
1.38771e-06
6.11768e-07
1.15896e-06
1.15906e-06
1.39355e-06
6.21058e-07
1.16497e-06
1.16508e-06
1.39886e-06
6.29707e-07
1.17035e-06
1.17046e-06
1.40366e-06
6.3772e-07
1.17511e-06
1.17522e-06