/*--------------------------------*- C++ -*----------------------------------*\
| =========                 |                                                 |
| \\      /  F ield         | OpenFOAM: The Open Source CFD Toolbox           |
|  \\    /   O peration     | Version:  2312                                  |
|   \\  /    A nd           | Website:  www.openfoam.com                      |
|    \\/     M anipulation  |                                                 |
\*---------------------------------------------------------------------------*/
FoamFile
{
    version     2.0;
    format      ascii;
    arch        "LSB;label=32;scalar=64";
    class       surfaceScalarField;
    location    "950";
    object      phi;
}
// * * * * * * * * * * * * * * * * * * * * * * * * * * * * * * * * * * * * * //

dimensions      [0 3 -1 0 0 0 0];

oriented        oriented;

internalField   nonuniform List<scalar> 
125567
(
-7.02123e-08
-1.62365e-10
-0.000229369
2.15472e-09
2.99833e-08
-6.89509e-09
-1.97501e-08
-9.80153e-05
1.24102e-06
-1.22886e-07
2.69094e-07
-2.15134e-07
-1.19369e-06
2.77514e-07
-2.36781e-07
-0.00113202
-5.54558e-08
-8.52621e-07
9.11321e-07
2.08417e-08
4.35905e-08
-0.000245491
-1.02545e-07
-1.67544e-08
-1.67715e-09
-0.00025013
4.05687e-09
-1.93209e-07
-3.24997e-09
-1.52992e-07
-9.38549e-07
8.31122e-07
-7.56614e-07
1.01142e-06
-0.00115229
-7.01929e-08
-0.000229329
2.99648e-08
2.18442e-09
-4.35487e-08
3.27346e-09
-0.000193597
-0.000250104
-1.93197e-07
4.32242e-09
-4.98313e-08
1.27244e-06
-1.28194e-07
-8.57934e-07
2.6902e-07
9.1653e-07
-2.15169e-07
-1.22792e-06
2.80203e-07
-2.42399e-07
-0.00113153
-1.58771e-07
-9.38583e-07
8.31127e-07
-7.5665e-07
1.01145e-06
-0.00115224
2.32016e-08
-1.6717e-08
-0.000245388
-1.02497e-07
-0.000268079
2.41873e-07
2.46784e-07
1.04729e-08
-0.00027816
-4.61916e-08
1.97683e-08
1.05856e-08
-0.000278296
-4.84319e-08
-6.90203e-09
-9.8038e-05
-0.000193654
3.27982e-09
1.24049e-08
-7.91636e-10
0.000143419
-5.22069e-11
-0.00014343
7.43892e-10
-1.11225e-08
8.52749e-12
2.86528e-08
-0.000229387
-0.000223421
2.88882e-08
4.37278e-09
-7.17149e-08
-0.000171124
-3.37451e-10
1.23488e-11
8.93272e-10
3.30136e-08
-0.000223442
-2.45172e-12
-0.000171136
1.46728e-09
1.7019e-08
7.92981e-05
-7.93152e-05
-0.000263317
2.42646e-08
-6.15992e-08
3.32145e-08
-0.000263336
5.0246e-09
1.12633e-08
-9.80316e-05
-7.81306e-10
1.23736e-08
0.000143346
-5.68714e-11
-0.000143358
-1.11201e-08
9.15814e-10
2.86511e-08
-0.000229348
-0.000171089
-1.38945e-10
-0.000223323
2.88284e-08
4.36616e-09
-6.92426e-08
-0.000171101
9.09896e-10
3.05527e-08
-0.000223341
1.50177e-09
1.69669e-08
7.92537e-05
-7.92707e-05
-0.000263189
2.41663e-08
-5.91407e-08
-3.85535e-09
2.25541e-08
-0.000193611
3.08137e-08
-0.000263206
-7.00555e-09
-7.04043e-09
0.000213783
1.22592e-08
1.01301e-08
-0.000213792
-8.05423e-05
-1.23024e-08
-1.1978e-08
-8.0566e-05
-1.22083e-08
-1.20707e-08
9.40825e-09
-8.05588e-05
9.37167e-09
-8.05824e-05
-2.70111e-08
-2.50062e-08
-1.42852e-08
1.58131e-08
0.000221868
2.90512e-08
-0.000221886
-0.000183015
-3.11721e-08
-7.37573e-09
2.03543e-08
1.22201e-08
-0.000278174
-0.000250575
3.59903e-08
-5.49299e-08
-9.97577e-08
-0.000183028
3.201e-08
6.12283e-08
-0.000250632
-5.75335e-08
1.57632e-08
-1.4307e-08
0.000221956
3.12206e-08
-0.000221979
-0.000183097
-3.11213e-08
2.261e-08
-7.27298e-09
-1.13482e-08
9.69255e-09
-0.00027831
-0.000250748
3.61401e-08
-5.24403e-08
-9.97431e-08
2.93698e-08
6.1189e-08
-0.0002508
-0.00018311
-5.95501e-08
4.94912e-09
-9.80543e-05
2.25707e-08
-0.000193668
-3.93435e-09
2.26777e-09
-0.00121558
-1.00012e-07
-7.51851e-08
-0.00118363
-1.03941e-07
-0.0012147
-1.17911e-07
6.40576e-08
-0.000245527
3.99e-09
-0.000260376
-2.74266e-08
-0.000260505
7.99214e-09
-1.53046e-07
1.52537e-09
0.000265679
-1.05484e-08
-0.000266455
4.97059e-10
1.32113e-07
2.99769e-10
-0.000250234
-0.000249561
-2.1179e-07
1.03592e-08
-0.000265854
7.06966e-09
-6.61783e-09
7.97622e-10
-0.000249682
3.86203e-09
-0.000266481
2.70801e-08
-1.39139e-07
0.000264002
-0.000264718
-0.000250757
-1.86132e-07
-0.000250855
-2.23224e-09
-1.50422e-07
0.000265609
2.19986e-09
-0.000266397
1.3212e-07
1.38077e-09
-0.000250208
-0.000265836
5.55665e-09
-0.000249476
-2.11747e-07
1.03708e-08
-0.000266459
7.60091e-10
-0.000249595
1.42443e-08
-1.36667e-07
0.000263902
-8.10975e-09
-0.000264613
-0.000250651
-1.88642e-07
4.06925e-09
6.16577e-08
-0.000245419
-2.74009e-08
-0.000260269
-0.000250752
-0.000260398
7.48933e-08
7.75482e-08
0.00024288
-0.000242972
-2.03213e-07
-1.98231e-07
-0.000270099
-0.000261131
1.12494e-07
-0.000260783
1.09946e-07
-0.000261087
-0.000261433
1.19306e-07
1.19592e-07
-7.0991e-08
-7.1092e-08
0.00118445
-0.00118455
-1.19688e-06
-1.19646e-07
-5.43057e-08
0.00113224
-2.37053e-07
1.24123e-06
2.74912e-07
9.11281e-07
-2.15425e-07
2.69187e-07
-8.5308e-07
-0.00113226
-1.19421e-06
-1.19626e-07
-4.85743e-08
0.0011321
-2.3432e-07
1.23849e-06
2.74921e-07
9.11253e-07
-2.1546e-07
2.69213e-07
-8.53063e-07
-0.00113213
1.2255e-06
1.18889e-06
-1.98217e-07
-2.00951e-07
0.000268045
-0.00027006
1.22026e-07
1.28026e-07
-0.00118417
-7.42613e-08
-7.44212e-08
-0.00113216
-1.19648e-06
-1.22412e-07
-3.87623e-08
-2.3682e-07
1.24108e-06
2.74761e-07
9.11194e-07
-2.15202e-07
-8.5261e-07
2.69084e-07
-0.00113203
-1.19376e-06
-1.22296e-07
-6.64273e-08
-2.36822e-07
1.23835e-06
2.74806e-07
9.11255e-07
-2.15182e-07
-8.52684e-07
2.69117e-07
-0.000270066
1.22772e-06
1.18314e-06
-1.92864e-07
-2.03335e-07
0.000268051
1.23636e-06
1.19441e-06
-1.95714e-07
-2.03525e-07
0.000268099
-0.000270131
-1.28049e-06
-1.23862e-06
0.000270136
-0.000268103
2.39215e-07
2.47061e-07
-4.84543e-08
0.00113168
-2.3983e-07
1.28059e-06
2.77498e-07
9.13979e-07
-2.12734e-07
2.66389e-07
-8.55876e-07
-0.00113171
-1.23379e-06
-1.19262e-07
-4.84903e-08
0.00113175
-2.42681e-07
1.27802e-06
2.80355e-07
9.19132e-07
-2.15465e-07
2.69081e-07
-8.60997e-07
-0.00113178
0.00113161
-1.21369e-07
-0.00113164
-4.93086e-08
-1.23604e-06
2.77407e-07
-2.3961e-07
-8.55557e-07
2.66354e-07
-2.12515e-07
9.13994e-07
1.2752e-06
0.00113168
-1.21468e-07
-0.0011317
-4.94215e-08
-1.23344e-06
2.7751e-07
-2.42477e-07
-8.60647e-07
2.69063e-07
-2.15217e-07
9.16485e-07
-1.98391e-07
-2.00845e-07
0.000268084
-0.000270116
-1.24112e-06
0.000270118
-0.000268088
2.4196e-07
2.4432e-07
-4.86384e-08
0.00113269
-2.37185e-07
1.23872e-06
2.75051e-07
9.16632e-07
-2.15499e-07
2.69267e-07
-8.58401e-07
-0.00113271
-1.22839e-06
-1.1926e-07
-4.84551e-08
0.00113162
-2.4269e-07
1.27257e-06
2.80339e-07
9.16548e-07
-2.12779e-07
2.6643e-07
-8.58439e-07
-0.00113165
0.00113261
-1.21659e-07
-0.00113264
-4.94685e-08
-1.19409e-06
2.74954e-07
-2.36998e-07
-8.58077e-07
2.69218e-07
-2.15275e-07
9.16643e-07
1.2725e-06
0.00113155
-1.27013e-07
-0.00113157
-4.93093e-08
-1.22808e-06
2.80252e-07
-2.42487e-07
-8.58109e-07
2.66374e-07
-2.12552e-07
9.16543e-07
-1.19568e-07
-4.84747e-08
0.00113125
-2.39797e-07
1.26969e-06
2.77487e-07
9.08483e-07
-2.09935e-07
2.63711e-07
-8.50307e-07
-0.00113128
-1.21816e-07
-0.00113219
-4.39998e-08
-1.19655e-06
2.74826e-07
-2.36845e-07
-8.52717e-07
2.69132e-07
9.11308e-07
-2.15197e-07
1.2696e-06
0.00113118
-1.21424e-07
-0.00113121
-4.93325e-08
-1.2252e-06
2.77419e-07
-2.39615e-07
-8.50033e-07
2.66318e-07
-2.09769e-07
9.0845e-07
-1.98457e-07
-2.0346e-07
0.000268068
-0.000270089
-1.23837e-06
0.000270097
-0.000268075
2.41997e-07
2.46889e-07
-1.19558e-07
-4.87122e-08
0.00113224
-2.37138e-07
1.23321e-06
2.75009e-07
9.13707e-07
-2.15458e-07
2.69205e-07
-8.55465e-07
-0.00113227
-1.21635e-07
-0.00113205
-5.49517e-08
-1.19118e-06
2.74834e-07
-2.36883e-07
-8.52765e-07
2.69141e-07
9.11288e-07
-2.15241e-07
1.23308e-06
0.00113215
-1.21739e-07
-0.00113219
-3.27314e-08
-1.18858e-06
2.74867e-07
-2.3695e-07
-8.55207e-07
2.69115e-07
-2.15235e-07
9.1379e-07
-0.00026805
2.41746e-07
2.44446e-07
1.23595e-06
1.194e-06
-1.95524e-07
-2.03336e-07
0.000268105
-5.51678e-08
-2.39608e-07
1.28047e-06
2.77399e-07
9.13945e-07
-2.15181e-07
-8.5547e-07
2.69007e-07
-1.23068e-06
-1.21855e-07
-4.40298e-08
-2.39698e-07
1.2752e-06
2.77476e-07
9.16442e-07
-2.15206e-07
-8.57948e-07
2.68983e-07
-1.98211e-07
-2.00672e-07
0.00026809
-4.97567e-08
-2.36938e-07
1.2386e-06
2.74926e-07
9.16638e-07
-2.15223e-07
-8.57984e-07
2.69206e-07
-1.228e-06
-1.27672e-07
-4.95955e-08
-2.42428e-07
1.27247e-06
2.80236e-07
9.16535e-07
-2.12491e-07
-8.58007e-07
2.69064e-07
-1.45047e-07
-4.39159e-08
0.00113117
-2.42277e-07
1.26955e-06
2.80207e-07
9.11204e-07
-2.1239e-07
2.69026e-07
-8.49895e-07
-1.98261e-07
-2.03248e-07
0.000268077
-1.22215e-07
-1.57389e-08
0.00113208
-2.31428e-07
1.23844e-06
2.74882e-07
9.13824e-07
-2.15141e-07
2.69094e-07
-8.55143e-07
-1.11249e-10
-7.02666e-08
0.000229341
3.0062e-08
1.94486e-09
-0.000229303
-5.10995e-09
2.25465e-08
0.000193573
-3.75472e-09
-0.000193587
6.77056e-09
-4.37608e-08
0.000193627
3.44685e-09
-0.000193593
6.83228e-11
2.88307e-08
0.000229283
-1.11516e-08
1.16495e-09
-0.000229302
5.15328e-09
1.34503e-08
9.79677e-05
-9.79863e-05
-6.76365e-09
-2.23252e-08
9.80073e-05
-9.79782e-05
-7.02786e-08
-1.6897e-10
0.000229329
1.92875e-09
3.00685e-08
-0.00022929
-5.12979e-09
2.25357e-08
0.000193556
-3.72873e-09
-0.00019357
6.80776e-09
-4.37778e-08
0.00019361
3.42844e-09
-0.000193576
2.88377e-08
1.3234e-10
0.000229271
1.18125e-09
-1.1152e-08
-0.00022929
-7.11037e-08
-7.1034e-08
0.00118423
-0.00118433
-7.11111e-08
-7.10234e-08
0.00118399
-0.00118409
-7.10849e-08
-7.13346e-08
0.00118396
-0.00118406
-0.00118427
-7.92887e-08
-6.77467e-08
0.00118393
-0.00118404
-7.36655e-08
-6.78331e-08
0.00118371
-0.0011838
-7.36335e-08
-7.93068e-08
0.00118366
-0.00118377
-7.36162e-08
-6.22251e-08
7.01544e-08
-1.55752e-09
0.00025019
3.79495e-09
-1.93095e-07
-0.000250069
-1.22291e-08
-2.24958e-08
6.64994e-08
0.000245406
6.56135e-09
-0.000245445
0.00115237
3.64669e-09
-1.402e-07
1.00565e-06
-7.52192e-07
8.27978e-07
-9.31427e-07
-0.00115243
-4.33635e-08
1.24121e-06
0.00113221
-1.20419e-07
-8.52911e-07
2.69171e-07
-2.15337e-07
9.11327e-07
-1.19676e-06
2.74896e-07
-2.3697e-07
2.32426e-08
4.37289e-08
0.000245483
-1.91813e-08
-0.000245425
-1.05108e-07
-3.3603e-09
0.00115233
-1.41782e-07
-9.33861e-07
8.25345e-07
-7.54677e-07
1.00306e-06
-2.8703e-08
1.52703e-09
0.000250056
2.18793e-09
1.32593e-07
-0.000250163
5.16927e-09
1.11132e-08
9.7963e-05
-9.79793e-05
-6.79103e-09
-1.99748e-08
9.80003e-05
-9.79735e-05
-8.66975e-10
7.0137e-08
0.000250179
-1.93073e-07
3.87203e-09
-0.00025006
0.00115219
3.22664e-09
-1.40159e-07
1.00569e-06
-7.54981e-07
8.2796e-07
-9.34188e-07
-0.00115225
-1.21955e-08
-2.25245e-08
6.41432e-08
0.000245398
4.13308e-09
-0.000245432
-4.88068e-08
1.23576e-06
0.00113207
-1.20338e-07
-8.52973e-07
2.69178e-07
-2.15383e-07
9.11298e-07
-1.19138e-06
2.74896e-07
-2.37002e-07
-4.74859e-09
0.00115215
-1.41646e-07
-9.33943e-07
8.28048e-07
-7.54741e-07
1.00577e-06
2.31861e-08
4.37422e-08
0.00024547
-1.67442e-08
-0.000245417
-1.02712e-07
7.68925e-10
-2.87507e-08
0.000250046
1.32654e-07
2.31596e-09
-0.000250153
1.22875e-08
-1.11684e-08
2.4845e-08
0.000278112
-7.02986e-09
-0.000278131
1.22851e-08
-1.11446e-08
2.25505e-08
0.000278036
-7.52892e-09
-0.000278053
-1.26967e-06
-1.23319e-06
0.000270063
-0.000268047
2.41878e-07
2.44575e-07
-2.31558e-08
2.00037e-08
0.000278181
9.94546e-09
-0.000278137
-5.10379e-08
-2.32141e-08
1.99743e-08
0.000278103
1.05005e-08
-0.000278062
-4.87182e-08
-0.000193666
-4.98564e-09
2.25803e-08
-3.89728e-09
0.000193653
-0.00022938
4.63612e-11
2.86731e-08
0.000229362
-1.11158e-08
1.19631e-09
-9.80282e-05
5.0362e-09
1.3571e-08
9.80095e-05
-0.000193649
-5.02422e-09
2.25763e-08
-3.85095e-09
0.000193635
-0.000229368
2.8679e-08
1.51744e-10
0.000229349
9.67805e-10
-1.11261e-08
-6.28163e-08
-5.11598e-08
-7.44648e-08
-9.75271e-08
-3.92392e-08
-4.54012e-08
0.00118348
7.00757e-08
-8.59935e-10
-0.000250125
3.05881e-09
-1.9314e-07
-0.000245518
-1.21257e-08
-2.25252e-08
6.64399e-08
4.00543e-09
0.000245483
0.00115217
-0.00115222
1.36708e-08
-1.51793e-07
1.00592e-06
-7.54003e-07
-9.33264e-07
8.28274e-07
-0.000250217
-2.85411e-08
1.72299e-09
0.000250109
1.97492e-09
1.32112e-07
2.56375e-08
-1.70445e-07
-9.3306e-07
8.31125e-07
-7.53784e-07
1.00879e-06
-9.80212e-05
5.05109e-09
1.12327e-08
9.80049e-05
-1.70974e-09
7.00607e-08
-0.000250114
-1.93091e-07
4.13668e-09
0.00115201
-0.00115205
-2.25275e-08
-1.45969e-07
1.00591e-06
-7.54077e-07
-9.3336e-07
8.28237e-07
-0.000245508
-1.21016e-08
-2.2549e-08
6.40476e-08
4.01705e-09
0.000245474
-0.000250206
2.75658e-10
-2.85888e-08
0.0002501
1.32175e-07
2.36234e-09
-5.79141e-08
-1.53083e-07
-9.33156e-07
8.28295e-07
-7.51161e-07
1.00595e-06
-0.000278232
1.22105e-08
-1.13048e-08
2.26269e-08
-6.89302e-09
0.000278215
-0.000278154
1.2195e-08
-1.12477e-08
2.25887e-08
-7.40974e-09
0.000278138
-1.2647e-06
-1.30803e-06
-0.000268073
2.54524e-07
2.41853e-07
-2.31992e-08
1.97796e-08
1.05586e-08
-0.000278243
-4.84691e-08
-2.32201e-08
1.97805e-08
1.05906e-08
-0.000278163
-4.85232e-08
1.12305e-08
9.79904e-05
-9.80067e-05
-2.00545e-08
9.80277e-05
-9.80009e-05
1.11917e-08
9.79793e-05
-9.79956e-05
-2.00012e-08
9.80166e-05
-9.79898e-05
1.22337e-08
2.48637e-08
0.000278161
-9.58572e-09
-0.000278177
9.8613e-09
2.48185e-08
0.000278093
-6.93401e-09
-0.00027811
0.000270133
-1.28056e-06
-1.23869e-06
-0.0002681
2.39347e-07
2.47185e-07
0.000278228
-2.31078e-08
1.24744e-08
-0.000278187
-5.10191e-08
0.00027816
-2.08414e-08
9.97755e-09
-0.000278118
-5.10062e-08
-1.99461e-08
-6.81627e-09
9.80486e-05
-9.80218e-05
1.12907e-08
5.04664e-09
9.80114e-05
-1.98972e-08
-6.85021e-09
9.80375e-05
-9.80108e-05
1.12451e-08
5.07304e-09
9.80003e-05
1.23613e-06
1.19418e-06
0.000268102
-1.95595e-07
-2.03416e-07
-2.31277e-08
0.000278279
-5.09044e-08
-0.000278237
1.25247e-08
-2.08505e-08
0.000278211
-5.08971e-08
-0.000278169
1.00197e-08
1.21756e-08
-9.51285e-09
2.48892e-08
0.000278212
9.80938e-09
-6.87296e-09
2.48421e-08
0.000278144
-7.02713e-08
0.000229301
3.00613e-08
2.1174e-09
-0.000229263
2.47172e-08
0.00019351
-3.82269e-09
-0.000193525
-4.59585e-08
0.000193565
3.59474e-09
-0.00019353
2.8833e-08
0.000229243
-1.11497e-08
9.18919e-10
-0.000229262
-8.89417e-10
0.000250204
3.08628e-09
-1.93161e-07
-0.000250083
6.65279e-08
0.000245408
4.14688e-09
-0.000245444
0.00115266
3.53746e-09
-1.39985e-07
1.0086e-06
-7.5777e-07
8.30784e-07
-9.37079e-07
-0.00115271
-4.87614e-08
0.00113166
-1.20027e-07
-1.23624e-06
2.77475e-07
-2.39739e-07
-8.55752e-07
2.66373e-07
-2.12651e-07
9.13989e-07
0.000245482
-1.66805e-08
-0.000245427
-1.05073e-07
-3.96644e-09
0.00115261
-1.41514e-07
-9.36844e-07
8.30873e-07
-7.57526e-07
1.00869e-06
8.41206e-10
0.00025007
2.86658e-09
1.32689e-07
-0.000250178
0.000250176
4.72685e-09
-1.9317e-07
-0.000250059
-1.22227e-08
6.65248e-08
0.000245306
4.07632e-09
-0.000245339
0.0011526
-1.39963e-07
1.0138e-06
-7.57743e-07
8.30758e-07
-9.42269e-07
-0.00115264
-4.88622e-08
0.00113172
1.278e-06
-1.20106e-07
-8.60856e-07
2.69079e-07
9.19154e-07
-2.15359e-07
-1.23366e-06
2.80327e-07
-2.42596e-07
0.000245377
2.30461e-08
-1.65785e-08
-0.000245325
-1.05067e-07
0.00115254
-1.41525e-07
-9.42038e-07
8.30846e-07
-7.57496e-07
1.01388e-06
0.000250046
1.17214e-09
1.32694e-07
-0.00025015
6.0158e-11
2.87421e-08
-1.1133e-08
1.17884e-09
0.000229322
-4.3683e-08
-0.000193633
3.37863e-09
2.25568e-08
-3.82574e-09
0.000193613
-1.23916e-10
-7.02396e-08
-0.000229342
3.00152e-08
1.95653e-09
2.87438e-08
-1.11312e-08
9.25762e-10
0.000229282
-4.58703e-08
6.80035e-09
0.000193605
-0.000193569
3.53324e-09
2.47247e-08
-5.09481e-09
-3.88687e-09
0.000193549
-7.02459e-08
0.00022934
-0.000229302
3.00167e-08
2.12365e-09
8.27169e-10
2.88679e-09
1.32434e-07
0.000250097
-5.46478e-08
-1.20765e-07
1.28052e-06
-2.3968e-07
2.77442e-07
9.13994e-07
-2.12569e-07
2.66356e-07
-8.55654e-07
0.00024552
-1.04989e-07
-0.000245465
-1.66985e-08
-0.00115255
-4.915e-09
0.0011525
-1.44439e-07
-9.36413e-07
8.31034e-07
-7.57063e-07
1.00881e-06
4.08878e-09
6.64693e-08
0.000245446
3.05872e-09
-1.43049e-07
1.00874e-06
-7.5729e-07
-9.36645e-07
8.30944e-07
-9.28271e-10
0.00025023
-0.00025011
3.34194e-09
-1.93188e-07
1.18368e-09
1.3244e-07
0.000250072
-4.90792e-08
-1.23356e-06
-1.20694e-07
9.19138e-07
-2.15307e-07
-8.60781e-07
2.6904e-07
1.27796e-06
-2.42552e-07
2.80286e-07
2.30659e-08
0.000245416
-1.04984e-07
-0.000245363
-1.65835e-08
-0.00115249
0.00115244
-1.44439e-07
-9.41599e-07
8.31007e-07
-7.57032e-07
1.01128e-06
-1.21735e-08
4.0246e-09
6.64675e-08
0.000245344
-1.43034e-07
1.01394e-06
-7.57261e-07
-9.41823e-07
8.30919e-07
0.000250203
-0.000250085
4.49451e-09
-1.93202e-07
2.24985e-08
0.000278036
-7.6359e-09
-0.000278049
-1.12016e-08
2.48686e-08
0.000278176
-6.93171e-09
-0.000278195
0.000270118
-0.000268085
2.4212e-07
2.44455e-07
0.0002781
1.04609e-08
-0.000278061
-4.86894e-08
1.9964e-08
0.000278245
1.00374e-08
-0.000278201
-5.10412e-08
5.14961e-09
9.7986e-05
-9.80023e-05
9.80233e-05
-6.8685e-09
-9.79965e-05
-2.22227e-08
-9.79991e-05
1.35047e-08
9.79887e-05
1.19665e-06
0.000268087
-1.98293e-07
-2.00741e-07
0.00027815
-4.85753e-08
-0.000278112
1.05076e-08
1.98515e-08
-2.32485e-08
0.000278296
-5.09199e-08
-0.000278252
1.00888e-08
-7.56901e-09
2.25176e-08
0.000278086
-1.12506e-08
1.21732e-08
-6.86538e-09
2.48867e-08
0.000278226
-6.90622e-09
9.80442e-05
-9.80175e-05
5.08976e-09
9.8007e-05
-1.69434e-09
0.000250197
3.80161e-09
-1.9577e-07
-0.000250074
6.41565e-08
0.000245371
6.60303e-09
-0.00024541
0.00115249
3.63627e-09
-1.40058e-07
1.01113e-06
-7.57733e-07
8.30751e-07
-9.39605e-07
-0.00115255
-4.89122e-08
0.00113266
-1.20316e-07
-1.19428e-06
2.75015e-07
-2.37114e-07
-8.58273e-07
2.69254e-07
-2.15417e-07
9.16642e-07
0.000245448
-1.92041e-08
-0.00024539
-1.02767e-07
-3.64464e-09
0.00115244
-1.41562e-07
-9.39359e-07
8.30842e-07
-7.57485e-07
1.01121e-06
1.64471e-09
0.00025006
2.17337e-09
1.35281e-07
-0.000250171
-7.02596e-08
0.000229289
3.00549e-08
2.16192e-09
-0.000229251
2.25031e-08
0.000193498
-3.69274e-09
-0.000193512
-4.37237e-08
0.000193552
3.4401e-09
-0.000193518
2.88346e-08
0.000229232
-1.1148e-08
8.73449e-10
-0.00022925
0.000250167
-1.9576e-07
4.29307e-09
-0.000250047
0.00115243
-1.40021e-07
1.01116e-06
-7.57768e-07
8.3076e-07
-9.3962e-07
-0.00115248
-1.2348e-08
6.1746e-08
0.000245293
4.20344e-09
-0.000245324
-4.87576e-08
0.00113159
1.27256e-06
-1.1996e-07
-8.5831e-07
2.66417e-07
9.16552e-07
-2.12697e-07
-1.22828e-06
2.80307e-07
-2.4261e-07
0.00115237
-1.41498e-07
-9.39383e-07
8.30847e-07
-7.5752e-07
1.01123e-06
0.000245362
2.31714e-08
-1.67011e-08
-0.000245312
-1.00262e-07
0.000250034
1.35295e-07
1.58285e-09
-0.000250141
2.8745e-08
1.42119e-10
1.18432e-09
-1.11354e-08
0.00022931
-4.37043e-08
-0.000193616
3.36762e-09
2.25443e-08
-3.79148e-09
0.000193596
-7.02538e-08
-1.61085e-10
-0.00022933
2.1529e-09
3.00273e-08
1.65351e-09
2.18598e-09
1.32429e-07
0.000250089
-4.92359e-08
-1.21042e-07
1.23866e-06
-2.3705e-07
2.74993e-07
9.16648e-07
-2.15335e-07
2.69239e-07
-8.5817e-07
0.000245486
-1.02681e-07
-0.000245429
-1.92184e-08
-0.00115238
-3.46307e-09
0.00115234
-1.50317e-07
-9.38936e-07
8.31e-07
-7.57019e-07
1.01134e-06
6.55079e-09
6.40959e-08
0.000245409
3.7402e-09
-1.43118e-07
1.01127e-06
-7.57248e-07
-9.39155e-07
8.30922e-07
-1.68375e-09
0.000250224
-0.000250103
4.04942e-09
-1.93199e-07
2.87413e-08
-1.11302e-08
8.90378e-10
0.000229271
-4.36448e-08
6.84139e-09
0.000193591
-0.000193558
3.35999e-09
2.25142e-08
-5.1103e-09
-3.76085e-09
0.000193538
-7.02371e-08
0.000229328
-0.00022929
3.00155e-08
2.17957e-09
1.32445e-07
1.6015e-09
0.000250063
-4.90584e-08
-1.22817e-06
-1.20705e-07
9.16556e-07
-2.12612e-07
-8.58205e-07
2.66402e-07
1.27253e-06
-2.42539e-07
2.80281e-07
-0.00115233
0.00115228
-1.50234e-07
-9.38955e-07
8.31004e-07
-7.57053e-07
1.01135e-06
2.31914e-08
0.0002454
-1.00174e-07
-0.00024535
-1.67207e-08
-1.43078e-07
1.01129e-06
-7.57284e-07
-9.39167e-07
8.30928e-07
-1.22949e-08
4.14318e-09
6.16866e-08
0.000245331
0.000250194
-0.000250077
-1.9319e-07
4.30888e-09
-6.66355e-11
0.000229324
2.08745e-09
3.21218e-08
-0.000229288
0.00019356
-3.63152e-09
-0.000193574
0.000193613
3.28885e-09
-0.00019358
2.36179e-11
0.000229269
1.03774e-09
-1.32028e-08
-0.000229285
7.02188e-08
0.000250157
-1.90525e-07
4.52463e-09
-0.000250043
0.00115229
-1.40261e-07
1.00567e-06
-7.5495e-07
8.28006e-07
-9.34085e-07
-0.00115234
-2.2481e-08
6.64369e-08
0.000245328
4.19312e-09
-0.000245364
-4.87554e-08
0.00113122
-1.14433e-07
-1.22539e-06
2.7746e-07
-2.39734e-07
-8.50212e-07
2.63672e-07
-2.09891e-07
9.08471e-07
0.00115222
-1.35876e-07
-9.33846e-07
8.28093e-07
-7.54701e-07
1.00574e-06
4.37327e-08
0.000245402
-1.6698e-08
-0.000245347
-1.05043e-07
-2.87738e-08
0.00025003
1.30032e-07
1.37316e-09
-0.000250131
0.000229287
3.00403e-08
2.18357e-09
-0.000229249
-5.14363e-09
0.000193503
-3.68442e-09
-0.000193517
0.000193557
6.78755e-09
3.43473e-09
-0.000193523
0.000229229
-1.11312e-08
8.46847e-10
-0.000229248
-2.86145e-08
1.55847e-09
2.1979e-09
1.32337e-07
0.000250082
-5.49284e-08
-1.21103e-07
1.24118e-06
-2.36909e-07
2.74863e-07
9.11284e-07
-2.15275e-07
-8.52859e-07
2.69144e-07
4.36421e-08
-1.05022e-07
-0.000245464
-1.67532e-08
-0.00115226
-5.35471e-10
-1.44708e-07
-9.33434e-07
8.28233e-07
1.0059e-06
-7.54198e-07
-2.2503e-08
6.5021e-09
6.64419e-08
0.000245444
4.45123e-09
-1.43271e-07
1.00578e-06
-7.51706e-07
-9.30982e-07
8.2814e-07
7.01256e-08
-1.43527e-09
-0.000250096
3.56018e-09
-1.93123e-07
3.64064e-11
1.04539e-09
-1.31826e-08
0.000229308
0.000193653
-0.00019362
3.22935e-09
-3.69865e-09
0.0001936
-2.46825e-11
0.000229363
-0.000229327
1.87206e-09
3.20775e-08
-2.86898e-08
1.29776e-07
1.39106e-09
0.000250056
-4.9091e-08
-1.22526e-06
-1.26727e-07
9.08498e-07
-2.09764e-07
-8.50073e-07
2.63676e-07
1.26964e-06
-2.39643e-07
2.77438e-07
-0.00115218
0.00115213
-1.44598e-07
-9.33426e-07
8.28239e-07
-7.54234e-07
1.00586e-06
4.36605e-08
2.32105e-08
0.00024544
-1.02565e-07
-0.000245388
-1.67066e-08
-1.49148e-07
1.0058e-06
-7.54457e-07
-9.33635e-07
8.28169e-07
-2.24931e-08
-1.22211e-08
4.12593e-09
6.63727e-08
0.000245366
7.01938e-08
0.000250187
-0.00025007
-1.93144e-07
4.30384e-09
-1.11127e-08
8.63917e-10
0.000229268
6.83639e-09
0.000193596
-0.000193563
3.36284e-09
-5.07428e-09
-3.76714e-09
0.000193543
0.000229326
-0.000229288
2.99934e-08
2.1971e-09
2.02678e-08
0.000278034
-7.56301e-09
-0.000278048
-1.12093e-08
2.25929e-08
0.00027817
-1.00386e-08
-0.000278183
0.000270091
-0.000268072
2.42125e-07
2.47019e-07
0.000278098
1.03793e-08
-0.000278059
-4.64264e-08
1.99704e-08
0.000278234
1.30879e-08
-0.000278195
-4.87264e-08
5.10212e-09
9.79857e-05
-9.8002e-05
9.8023e-05
-6.81857e-09
-9.79962e-05
-1.98639e-08
-9.79945e-05
1.11733e-08
9.7984e-05
1.19126e-06
0.000268074
-1.98338e-07
-2.03332e-07
0.000278149
-4.6315e-08
-0.00027811
1.04316e-08
1.98631e-08
-2.32051e-08
0.000278285
-4.86176e-08
-0.000278246
1.31557e-08
-7.48888e-09
2.02909e-08
0.000278084
-1.12627e-08
1.2142e-08
-9.97243e-09
2.26175e-08
0.000278221
-6.85924e-09
9.80439e-05
-9.80172e-05
5.03804e-09
9.80067e-05
7.00765e-08
0.000250152
-1.93055e-07
4.99898e-09
-0.000250035
0.00115212
-1.40126e-07
1.00811e-06
-7.54935e-07
8.27915e-07
-9.36619e-07
-0.00115217
-2.24967e-08
6.41191e-08
0.000245295
4.20275e-09
-0.000245329
-4.90043e-08
0.00113222
-1.20359e-07
-1.18877e-06
2.74971e-07
-2.37059e-07
-8.55347e-07
2.69167e-07
-2.15385e-07
9.13775e-07
0.00115207
-1.41636e-07
-9.36381e-07
8.28011e-07
-7.54682e-07
1.00819e-06
4.37519e-08
0.000245367
-1.67628e-08
-0.000245314
-1.02716e-07
-2.86882e-08
0.000250022
1.32629e-07
9.20398e-10
-0.000250126
-2.00824e-10
0.000229316
2.29415e-09
3.21072e-08
-0.00022928
0.000193555
-3.75536e-09
-0.000193569
0.000193609
3.40355e-09
-0.000193575
1.32594e-10
0.000229261
8.22042e-10
-1.32297e-08
-0.000229277
0.000229276
2.17609e-09
3.41923e-08
-0.000229243
-5.17617e-09
0.000193496
-3.63383e-09
-0.000193509
0.000193549
6.82688e-09
3.39401e-09
-0.000193515
0.000229223
8.57153e-10
-1.53092e-08
-0.000229237
6.8409e-10
-2.866e-08
1.32394e-07
2.09886e-09
0.000250073
-4.91585e-08
-1.2106e-07
1.23573e-06
-2.36935e-07
2.74874e-07
9.11303e-07
-2.153e-07
-8.52864e-07
2.69165e-07
-0.00115209
-1.3188e-08
-1.44527e-07
-9.3353e-07
8.28195e-07
1.00589e-06
-7.54271e-07
4.3662e-08
-1.02624e-07
-0.000245455
-1.67569e-08
2.91181e-10
-1.43212e-07
1.00583e-06
-7.54493e-07
-9.3374e-07
8.28124e-07
-2.25316e-08
4.07498e-09
6.40795e-08
0.000245436
-1.22667e-09
7.01104e-08
-0.000250086
-1.93092e-07
4.1252e-09
-2.8596e-08
1.32371e-07
6.9025e-10
0.000250049
-4.93612e-08
-1.18866e-06
-1.21035e-07
9.13774e-07
-2.15277e-07
-8.55282e-07
2.69153e-07
1.23314e-06
-2.36995e-07
2.74936e-07
-0.00115201
0.00115197
-1.4451e-07
-9.35948e-07
8.28178e-07
-7.54206e-07
1.00836e-06
4.36778e-08
2.3219e-08
0.000245405
-1.02627e-07
-0.000245352
-1.67701e-08
-1.43161e-07
1.00825e-06
-7.54448e-07
-9.36169e-07
8.28085e-07
-2.25022e-08
-1.22392e-08
4.15469e-09
6.40512e-08
0.000245333
7.00481e-08
0.000250179
-0.000250062
-1.93083e-07
4.75725e-09
9.78309e-11
8.38387e-10
-1.32091e-08
0.0002293
0.000193648
-0.000193615
3.34155e-09
-3.82739e-09
0.000193595
-3.13359e-10
0.000229355
-0.000229319
2.30884e-09
3.20657e-08
6.38307e-10
-1.52879e-08
0.000229262
6.86578e-09
0.000193589
-0.000193555
3.33433e-09
-5.12093e-09
-3.69205e-09
0.000193535
0.000229315
-0.000229282
2.17435e-09
3.41497e-08
9.79658e-05
-9.79821e-05
9.80031e-05
-9.79763e-05
9.79619e-05
-9.79783e-05
9.79992e-05
-9.79724e-05
0.000268048
-1.98113e-07
-2.00832e-07
1.98975e-08
-4.86295e-08
-0.00027819
1.00119e-08
1.98716e-08
-4.86091e-08
-0.000278112
1.05457e-08
-1.12283e-08
-6.95451e-09
2.48743e-08
0.000278162
-1.11956e-08
-7.47007e-09
2.25669e-08
0.000278087
9.8024e-05
-9.79972e-05
9.79868e-05
9.80201e-05
-9.79934e-05
9.79829e-05
1.13565e-08
9.80323e-05
1.13036e-08
9.80212e-05
1.21255e-08
2.49389e-08
-9.44339e-09
0.000278262
9.76448e-09
2.48817e-08
-6.80897e-09
0.000278194
2.47462e-08
-3.95113e-09
0.000193589
2.8675e-08
0.000229321
-1.11146e-08
9.40408e-10
6.6466e-08
4.02758e-09
0.000245484
1.40334e-09
-1.45857e-07
1.0088e-06
-7.56882e-07
-9.36247e-07
8.31076e-07
7.91868e-10
0.000250123
2.65882e-09
1.32223e-07
-1.21278e-08
6.64462e-08
3.97065e-09
0.000245382
-1.45799e-07
1.01132e-06
-7.56855e-07
-9.38704e-07
8.31055e-07
0.000250099
1.43109e-09
1.32233e-07
2.25714e-08
-7.50259e-09
0.000278137
-1.13172e-08
2.4937e-08
-6.81538e-09
0.000278277
5.03496e-09
6.40693e-08
6.50025e-09
0.000245448
4.00331e-09
-1.51731e-07
1.01138e-06
-7.56818e-07
-9.38758e-07
8.31042e-07
1.6606e-09
0.000250117
1.95101e-09
1.32207e-07
2.25402e-08
-3.82849e-09
0.000193577
2.86756e-08
0.00022931
-1.11215e-08
9.10216e-10
-1.51694e-07
1.0114e-06
-7.56854e-07
-9.38764e-07
8.31047e-07
-1.22365e-08
6.1654e-08
4.08732e-09
0.000245369
0.00025009
1.32225e-07
1.61578e-09
1.12719e-10
-0.000229366
3.20272e-08
-3.76899e-09
0.000193639
9.33595e-11
0.000229347
1.05812e-09
-1.31683e-08
7.01339e-08
-0.000250097
-1.95736e-07
4.54991e-09
0.00115211
-1.63452e-07
1.0059e-06
-7.51293e-07
8.28274e-07
-9.30521e-07
-2.2553e-08
6.15702e-08
6.50154e-09
0.000245407
-4.38216e-08
-3.60986e-07
-1.23308e-06
2.74793e-07
-2.44924e-07
-8.47229e-07
2.71665e-07
-2.09648e-07
9.13797e-07
-2.86207e-08
0.000250083
1.32139e-07
1.64333e-09
-1.99202e-07
-9.30334e-07
8.31084e-07
-7.53829e-07
1.00867e-06
4.35825e-08
-1.91509e-08
-0.000245426
-1.04892e-07
-0.000229327
2.9938e-08
2.20086e-09
-5.01424e-09
-3.84935e-09
0.000193583
0.000229308
-1.1096e-08
8.8373e-10
6.8892e-09
3.29654e-09
-0.000193602
2.03313e-08
-7.41197e-09
0.000278135
-1.13148e-08
2.26261e-08
-7.29995e-09
0.000278269
4.97654e-09
9.80276e-05
7.00075e-08
-0.000250089
-1.93102e-07
3.79339e-09
0.00115193
-1.5176e-07
1.00844e-06
-7.54011e-07
8.28234e-07
-9.35797e-07
-2.2525e-08
6.40148e-08
4.10593e-09
0.000245372
1.48654e-07
-1.44766e-07
-1.15594e-06
2.83193e-07
-2.28566e-07
-8.52311e-07
2.69102e-07
-2.15104e-07
9.13964e-07
-2.85278e-08
0.000250075
1.32146e-07
4.557e-10
-1.94654e-07
-9.32851e-07
8.28328e-07
-7.51066e-07
1.00861e-06
4.36057e-08
-1.67717e-08
-0.000245391
-1.02548e-07
-3.56351e-10
-0.000229358
2.31254e-09
3.20155e-08
-3.89838e-09
0.000193635
-4.51115e-11
0.000229339
1.07986e-09
-1.31948e-08
-0.000229321
1.95068e-09
3.41063e-08
-5.06821e-09
-3.7564e-09
0.000193575
0.000229301
6.40097e-10
-1.52798e-08
6.89998e-09
3.285e-09
-0.000193595
9.80077e-05
-9.8018e-05
9.80038e-05
-9.80142e-05
-7.72018e-10
1.24294e-08
0.000143358
-1.10152e-10
-0.000143369
-0.000171053
-3.33496e-10
-2.55951e-11
0.000171084
-0.000223351
2.89541e-08
4.3434e-09
0.000223391
-7.17858e-08
-1.11396e-08
9.47837e-10
-0.000229321
-8.29525e-11
2.87859e-08
-0.000171065
-1.59264e-11
8.53086e-10
-0.000223371
3.31229e-08
1.42214e-09
0.000143385
-2.44638e-08
-7.92528e-05
7.92787e-05
-1.40735e-09
3.48133e-09
0.000193607
6.74491e-09
-4.37944e-08
0.000263192
-1.69546e-08
-8.34082e-10
3.31908e-08
-0.000263211
0.000263237
-4.33131e-09
-6.17918e-08
1.332e-10
-7.92699e-05
1.69721e-08
7.92616e-05
-0.000263218
2.44229e-08
0.000263263
-6.17517e-08
-3.7911e-09
-5.07813e-09
2.25498e-08
3.31895e-08
7.92874e-05
3.43382e-10
-2.89728e-08
-0.000143342
3.00789e-08
2.16302e-09
4.13096e-11
-7.02795e-08
0.000171035
7.6251e-10
-5.18084e-12
-0.000171047
0.000223331
-1.24399e-08
3.31729e-08
-0.000223351
-1.4598e-11
-7.17919e-08
-0.000143354
9.79968e-05
-6.73937e-09
-2.23735e-08
5.12245e-09
1.34753e-08
1.2443e-08
-7.68642e-10
0.000143356
-1.29374e-10
-0.000143368
-0.000223341
2.89645e-08
4.33928e-09
0.000223382
-7.18071e-08
-0.00017105
-3.55246e-10
4.29348e-12
0.000171081
9.58519e-10
-1.11409e-08
-0.000229309
-8.51438e-12
2.87913e-08
8.44093e-10
-0.000223362
3.31507e-08
-0.000171062
-1.88414e-11
1.41177e-09
0.000143383
-2.44753e-08
-7.92544e-05
7.92803e-05
-1.39844e-09
3.46053e-09
0.00019359
6.78399e-09
-4.3811e-08
0.000263187
-1.69355e-08
-8.29055e-10
3.31836e-08
-0.000263206
0.000263232
-4.3301e-09
-6.18287e-08
1.49579e-10
-7.92715e-05
1.69508e-08
7.92632e-05
-0.000263213
2.44357e-08
0.000263258
-6.17898e-08
-3.7618e-09
-5.09975e-09
2.25376e-08
3.31801e-08
7.92891e-05
-2.89822e-08
3.62224e-10
-0.000143341
2.15062e-09
3.00842e-08
-2.22434e-11
-7.0293e-08
0.000223321
-1.24551e-08
3.32038e-08
-0.000223342
0.000171032
7.64756e-10
-1.28451e-11
-0.000171044
-7.18123e-08
1.17952e-11
-0.000143352
9.79898e-05
-6.76189e-09
-2.00275e-08
5.14048e-09
1.11423e-08