/*--------------------------------*- C++ -*----------------------------------*\
| =========                 |                                                 |
| \\      /  F ield         | OpenFOAM: The Open Source CFD Toolbox           |
|  \\    /   O peration     | Version:  2312                                  |
|   \\  /    A nd           | Website:  www.openfoam.com                      |
|    \\/     M anipulation  |                                                 |
\*---------------------------------------------------------------------------*/
FoamFile
{
    version     2.0;
    format      ascii;
    arch        "LSB;label=32;scalar=64";
    class       volVectorField;
    location    "950";
    object      U;
}
// * * * * * * * * * * * * * * * * * * * * * * * * * * * * * * * * * * * * * //

dimensions      [0 1 -1 0 0 0 0];

internalField   nonuniform List<vector> 
43496
(
(-1.66073e-05 -2.89296e-07 0.0914272)
(-5.85596e-06 3.35318e-06 0.0716035)
(-6.11941e-06 1.13111e-05 0.107488)
(-7.78782e-06 2.04101e-05 0.0930676)
(-2.73001e-05 -6.91303e-07 0.0985809)
(-1.44049e-05 -2.6074e-06 0.109908)
(-1.66024e-05 3.02927e-07 0.0914271)
(-1.20277e-05 1.21983e-06 0.0822861)
(-2.72949e-05 7.05666e-07 0.0985808)
(-1.12789e-05 6.10444e-06 0.107486)
(-1.43954e-05 2.59566e-06 0.109907)
(-2.04006e-05 7.77941e-06 0.0930664)
(-4.16158e-05 4.16129e-05 0.104317)
(-9.87395e-06 6.91897e-06 0.087605)
(-6.93945e-06 9.86665e-06 0.0876077)
(-3.35958e-06 5.87062e-06 0.0716039)
(-1.21727e-06 1.20402e-05 0.0822865)
(4.2596e-06 -7.1422e-07 0.0768854)
(5.01643e-06 -2.58959e-07 0.0913835)
(-1.59984e-05 -1.14052e-06 0.0899499)
(-7.44145e-06 1.44575e-07 0.0787028)
(5.53313e-06 -5.56371e-07 0.0899002)
(3.86868e-06 -1.87536e-07 0.0786623)
(-7.4518e-06 5.32564e-07 0.0769322)
(4.92342e-06 -8.97131e-07 0.0684138)
(-1.22984e-05 -1.38812e-06 0.0858856)
(5.87032e-06 -7.66134e-07 0.0858295)
(-6.08002e-06 1.64569e-07 0.0684746)
(4.33104e-06 -2.57888e-06 0.0715505)
(4.26347e-06 7.04552e-07 0.0768848)
(5.01647e-06 2.40137e-07 0.0913834)
(-7.43856e-06 -1.20383e-07 0.0787027)
(-1.59881e-05 1.15662e-06 0.0899494)
(3.86789e-06 1.84365e-07 0.0786622)
(5.51534e-06 5.38686e-07 0.0899003)
(-7.43396e-06 -5.07658e-07 0.0769315)
(4.91075e-06 8.98144e-07 0.0684157)
(-1.22756e-05 1.40196e-06 0.0858856)
(7.17219e-06 -6.34754e-07 0.0822354)
(5.86007e-06 7.63916e-07 0.0858303)
(-6.06184e-06 -1.40096e-07 0.0684762)
(3.12506e-06 -3.13669e-06 0.0836176)
(-3.60232e-06 5.11183e-06 0.068375)
(-5.15009e-06 3.57145e-06 0.0683807)
(2.63925e-06 -4.07248e-06 0.0683195)
(4.05924e-06 -2.65229e-06 0.0683249)
(-7.25252e-06 7.21068e-06 0.0836638)
(7.82084e-06 -3.81508e-06 0.0916729)
(-8.06595e-06 4.00261e-06 0.0816083)
(3.57859e-06 -3.48142e-06 0.0875568)
(-2.39931e-05 1.42008e-05 0.0963245)
(3.86079e-06 -3.01647e-06 0.0815578)
(1.10446e-05 -5.54577e-06 0.0962765)
(-1.67795e-05 1.02545e-05 0.09172)
(3.79422e-06 -7.83052e-06 0.0916797)
(-4.04132e-06 8.0399e-06 0.0816145)
(3.44424e-06 -3.59805e-06 0.0875584)
(-1.42397e-05 2.3971e-05 0.0963281)
(5.52261e-06 -1.10255e-05 0.0962794)
(2.995e-06 -3.8764e-06 0.0815631)
(-1.03007e-05 1.67586e-05 0.0917271)
(2.54729e-06 -4.35342e-06 0.0715503)
(6.02143e-07 -7.17792e-06 0.0822357)
(-1.16356e-05 -3.47976e-06 0.115012)
(-1.00286e-05 1.00509e-05 0.112469)
(-1.16299e-05 3.49671e-06 0.11501)
(3.09107e-06 -8.78709e-06 0.0930117)
(-1.16746e-05 4.96058e-05 0.0995931)
(3.79476e-06 -3.18528e-05 0.0995326)
(2.74034e-05 -1.20726e-06 0.102872)
(8.0573e-06 -4.34162e-07 0.0985247)
(-2.72101e-05 -2.53708e-06 0.0976284)
(-5.22866e-05 -1.01794e-06 0.10362)
(8.98918e-06 -8.72277e-07 0.097563)
(2.58973e-05 -8.85131e-07 0.103526)
(-5.29802e-05 -3.58205e-06 0.102988)
(3.12572e-05 3.70963e-07 0.101328)
(-2.46877e-05 -5.0751e-06 0.0956755)
(1.03782e-05 4.1497e-08 0.095608)
(-5.24036e-05 -7.71103e-06 0.101433)
(2.74034e-05 1.17007e-06 0.102871)
(8.05795e-06 4.01651e-07 0.0985247)
(-5.22829e-05 1.03418e-06 0.10362)
(-2.72e-05 2.55151e-06 0.0976278)
(2.59024e-05 8.43599e-07 0.103526)
(8.97403e-06 8.41689e-07 0.0975632)
(-5.30044e-05 3.59836e-06 0.102987)
(3.12765e-05 -4.00231e-07 0.101328)
(-2.46657e-05 5.07648e-06 0.0956748)
(8.77553e-06 -3.12742e-06 0.0930107)
(-4.96069e-05 1.16575e-05 0.099591)
(1.0373e-05 -4.93673e-08 0.0956083)
(-5.2406e-05 7.70789e-06 0.101431)
(3.18677e-05 -3.83365e-06 0.0995308)
(1.01361e-05 -1.01771e-05 0.0975423)
(2.38177e-05 -2.38472e-05 0.104202)
(-2.63437e-05 4.13608e-05 0.101507)
(-4.13913e-05 2.63345e-05 0.10151)
(2.74382e-05 -1.10438e-05 0.101443)
(1.10406e-05 -2.74722e-05 0.10144)
(-2.21884e-05 2.21698e-05 0.0975978)
(-9.59223e-06 -9.5899e-06 0.112516)
(1.11386e-05 -5.98304e-06 0.107501)
(-5.97187e-06 1.11305e-05 0.1075)
(-2.39731e-05 -2.39813e-05 0.104199)
(-9.95794e-06 -9.95942e-06 0.112479)
(1.12831e-05 -6.11082e-06 0.107492)
(-6.10308e-06 1.12845e-05 0.107491)
(-2.38477e-05 -2.38517e-05 0.104201)
(2.39799e-05 2.39767e-05 0.104199)
(-4.16732e-05 -4.16803e-05 0.104316)
(-5.94494e-06 -1.11059e-05 0.107499)
(5.95552e-06 -1.11087e-05 0.107499)
(-6.04302e-06 -1.12221e-05 0.107492)
(6.04869e-06 -1.12341e-05 0.107491)
(-2.39927e-05 2.39591e-05 0.104199)
(4.16721e-05 -4.1674e-05 0.104317)
(-1.11297e-05 -5.97619e-06 0.107501)
(-1.10999e-05 5.94987e-06 0.107497)
(-1.12459e-05 -6.07074e-06 0.107493)
(-1.12158e-05 6.04696e-06 0.10749)
(1.11256e-05 5.9454e-06 0.107498)
(1.12571e-05 -6.08076e-06 0.107494)
(1.1222e-05 6.05312e-06 0.107492)
(2.39708e-05 -2.40028e-05 0.104198)
(-4.1668e-05 4.16692e-05 0.104316)
(5.98662e-06 1.11268e-05 0.1075)
(-6.06716e-06 1.12458e-05 0.107493)
(6.08324e-06 1.12446e-05 0.107493)
(4.16732e-05 4.16663e-05 0.104316)
(2.3854e-05 2.38513e-05 0.104202)
(-6.07059e-06 -1.12629e-05 0.10749)
(6.08314e-06 -1.12492e-05 0.10749)
(-2.38712e-05 2.38383e-05 0.104202)
(-1.12852e-05 -6.10366e-06 0.107491)
(-1.12523e-05 6.07868e-06 0.107488)
(1.12853e-05 6.07839e-06 0.107488)
(2.38407e-05 -2.38717e-05 0.104201)
(6.10839e-06 1.12802e-05 0.10749)
(-3.02893e-07 -1.6645e-05 0.091396)
(6.6179e-07 7.15985e-06 0.0821926)
(-1.17438e-06 -1.21138e-05 0.0822524)
(-2.59838e-07 5.03617e-06 0.0913444)
(-2.60154e-06 4.26857e-06 0.0715102)
(3.23795e-06 -5.89313e-06 0.0715755)
(-1.66476e-05 -2.93858e-07 0.0913961)
(7.1499e-06 6.69427e-07 0.0821934)
(-1.21111e-05 -1.18487e-06 0.0822531)
(5.03717e-06 -2.69303e-07 0.0913445)
(9.6016e-06 -9.58493e-06 0.112516)
(-9.58831e-06 9.60259e-06 0.112515)
(9.61236e-06 9.59659e-06 0.112515)
(-9.87029e-06 -9.86819e-06 0.112488)
(9.88593e-06 -9.87176e-06 0.112488)
(-9.86136e-06 9.88061e-06 0.112487)
(9.8966e-06 9.88345e-06 0.112488)
(2.72625e-05 -6.87379e-07 0.0985604)
(-8.77677e-06 3.14615e-06 0.0929754)
(1.39509e-05 -2.51092e-06 0.109933)
(1.11777e-05 -6.01352e-06 0.107498)
(2.04592e-05 -7.8056e-06 0.0930397)
(1.40576e-05 -2.53146e-06 0.109927)
(-8.12559e-06 -4.51201e-07 0.0984987)
(4.30181e-06 -2.65695e-06 0.0715123)
(-5.91376e-06 3.29944e-06 0.0715731)
(-7.20309e-07 2.72569e-05 0.0985598)
(-2.49549e-06 1.39472e-05 0.109931)
(3.13627e-06 -8.78034e-06 0.0929754)
(-6.00147e-06 1.11708e-05 0.107497)
(-2.51282e-06 1.40439e-05 0.109926)
(-7.78982e-06 2.04583e-05 0.0930388)
(-4.04025e-07 -8.14757e-06 0.0984983)
(-3.54547e-06 -3.52399e-06 0.0875183)
(-3.5236e-06 -3.54288e-06 0.0875172)
(4.17384e-05 4.17236e-05 0.104315)
(9.96032e-06 6.91534e-06 0.087576)
(6.93131e-06 9.95385e-06 0.0875745)
(6.17483e-07 7.1789e-06 0.0822264)
(-2.6093e-07 5.01564e-06 0.0913756)
(-2.54317e-06 4.29142e-06 0.0715408)
(7.17889e-06 6.35066e-07 0.0822272)
(5.01717e-06 -2.61348e-07 0.0913757)
(9.97727e-06 -9.96172e-06 0.11248)
(-9.95574e-06 9.97016e-06 0.112478)
(9.95905e-06 9.97269e-06 0.112478)
(2.72584e-05 -6.76563e-07 0.0985813)
(-8.77923e-06 3.10906e-06 0.0930044)
(1.43306e-05 -2.60832e-06 0.109913)
(-8.02988e-06 -4.47944e-07 0.0985198)
(1.44202e-05 -2.61923e-06 0.109908)
(4.32474e-06 -2.59396e-06 0.0715429)
(-7.24839e-07 2.72517e-05 0.0985808)
(-2.58201e-06 1.43289e-05 0.109912)
(3.0981e-06 -8.78163e-06 0.0930044)
(-4.09849e-07 -8.0512e-06 0.0985193)
(-2.60191e-06 1.44047e-05 0.109907)
(-3.58649e-06 -3.4818e-06 0.0875503)
(-3.48745e-06 -3.57276e-06 0.0875492)
(4.165e-05 4.15983e-05 0.104318)
(9.87923e-06 6.93797e-06 0.0876079)
(6.94538e-06 9.88899e-06 0.0876062)
(2.62602e-06 4.33843e-06 0.0715116)
(-3.28632e-06 -5.94409e-06 0.0715735)
(4.31872e-06 2.63485e-06 0.0715117)
(-5.92348e-06 -3.30885e-06 0.0715731)
(3.50333e-06 3.53786e-06 0.0875179)
(3.56132e-06 3.50708e-06 0.0875168)
(-4.17302e-05 -4.17376e-05 0.104315)
(-6.89024e-06 -9.94425e-06 0.0875765)
(-9.96676e-06 -6.9296e-06 0.0875744)
(-3.31269e-06 -5.91637e-06 0.0715887)
(2.59402e-06 4.35011e-06 0.071527)
(-5.89655e-06 -3.33279e-06 0.0715884)
(4.32891e-06 2.60506e-06 0.0715271)
(2.39078e-05 2.39043e-05 0.1042)
(-6.90182e-06 -9.90762e-06 0.0875924)
(-9.93175e-06 -6.93822e-06 0.0875903)
(3.48049e-06 3.55674e-06 0.0875339)
(3.57884e-06 3.487e-06 0.0875328)
(2.88492e-07 -1.66483e-05 0.0913961)
(-6.3885e-07 7.13025e-06 0.0821923)
(1.1301e-06 -1.2102e-05 0.0822536)
(2.49567e-07 5.03662e-06 0.0913446)
(-7.0021e-07 -2.72924e-05 0.0985598)
(3.15528e-06 8.78301e-06 0.0929743)
(-2.49539e-06 -1.39337e-05 0.109932)
(-5.97894e-06 -1.11459e-05 0.107496)
(-7.769e-06 -2.04529e-05 0.0930385)
(-2.5152e-06 -1.4034e-05 0.109927)
(-4.2674e-07 8.1676e-06 0.0984982)
(6.87259e-07 -2.72989e-05 0.09856)
(-3.13683e-06 8.77832e-06 0.0929741)
(2.5033e-06 -1.3934e-05 0.109932)
(5.98113e-06 -1.11524e-05 0.107496)
(7.73919e-06 -2.04521e-05 0.0930391)
(2.52499e-06 -1.40333e-05 0.109927)
(4.22259e-07 8.17134e-06 0.0984984)
(-2.59618e-07 5.02512e-06 0.09136)
(-1.19056e-06 -1.20799e-05 0.0822692)
(6.39812e-07 7.16886e-06 0.0822095)
(-3.02519e-07 -1.66267e-05 0.0914115)
(2.46086e-07 5.02549e-06 0.0913601)
(1.14022e-06 -1.20582e-05 0.0822704)
(-6.1873e-07 7.13823e-06 0.0822092)
(2.86324e-07 -1.66312e-05 0.0914116)
(-4.27258e-07 8.11596e-06 0.0985087)
(-6.01141e-06 -1.11899e-05 0.107494)
(-7.77366e-06 -2.04304e-05 0.0930529)
(-2.55725e-06 -1.42234e-05 0.109917)
(3.13569e-06 8.78352e-06 0.0929888)
(-2.53724e-06 -1.41343e-05 0.109922)
(-7.02417e-07 -2.72952e-05 0.0985702)
(4.19345e-07 8.11975e-06 0.0985089)
(6.02152e-06 -1.11879e-05 0.107494)
(7.74151e-06 -2.04292e-05 0.0930535)
(2.56409e-06 -1.42233e-05 0.109917)
(-3.12043e-06 8.77712e-06 0.0929885)
(2.54955e-06 -1.41343e-05 0.109922)
(6.87694e-07 -2.73023e-05 0.0985704)
(-3.52762e-06 3.52017e-06 0.0875163)
(-3.56108e-06 3.5003e-06 0.0875186)
(4.1737e-05 -4.17379e-05 0.104316)
(6.89209e-06 -9.94171e-06 0.0875756)
(9.95556e-06 -6.94656e-06 0.0875767)
(-4.32053e-06 2.63336e-06 0.071512)
(5.91479e-06 -3.32943e-06 0.0715741)
(3.26349e-06 -5.86581e-06 0.0715907)
(-2.57168e-06 4.27951e-06 0.0715256)
(-2.39245e-05 2.38896e-05 0.1042)
(6.90272e-06 -9.90521e-06 0.0875914)
(9.91699e-06 -6.95278e-06 0.0875925)
(-3.50694e-06 3.53594e-06 0.0875323)
(-3.5758e-06 3.47839e-06 0.0875346)
(5.88409e-06 -3.35094e-06 0.0715893)
(-4.32873e-06 2.60128e-06 0.0715273)
(-2.73011e-05 -6.92904e-07 0.0985599)
(8.78891e-06 3.15171e-06 0.092975)
(-1.39415e-05 -2.50782e-06 0.109932)
(-1.11705e-05 -6.00644e-06 0.107498)
(-2.04782e-05 -7.79998e-06 0.0930385)
(-1.40411e-05 -2.52648e-06 0.109927)
(8.17201e-06 -4.4339e-07 0.0984983)
(-1.66443e-05 3.03862e-07 0.091396)
(7.1426e-06 -6.81336e-07 0.0821932)
(-1.20988e-05 1.17862e-06 0.0822526)
(5.03651e-06 2.34545e-07 0.0913445)
(-2.72967e-05 7.01856e-07 0.0985598)
(-1.39352e-05 2.49439e-06 0.109931)
(8.76367e-06 -3.17199e-06 0.0929746)
(-1.11407e-05 5.98217e-06 0.107495)
(-1.40335e-05 2.51566e-06 0.109926)
(-2.04503e-05 7.77201e-06 0.0930374)
(8.17233e-06 3.98532e-07 0.0984982)
(5.02625e-06 -2.64736e-07 0.0913601)
(-1.20838e-05 -1.20098e-06 0.0822699)
(7.16055e-06 6.50611e-07 0.0822103)
(-1.66298e-05 -2.90602e-07 0.0914116)
(8.11766e-06 -4.40675e-07 0.0985088)
(-1.12134e-05 -6.04421e-06 0.107496)
(-2.04552e-05 -7.802e-06 0.0930529)
(-1.42304e-05 -2.5691e-06 0.109917)
(8.78695e-06 3.13416e-06 0.0929894)
(-1.41431e-05 -2.55151e-06 0.109922)
(-2.73039e-05 -6.92333e-07 0.0985703)
(5.02482e-06 2.36254e-07 0.09136)
(-1.20648e-05 1.19765e-06 0.0822694)
(7.15196e-06 -6.62286e-07 0.0822101)
(-1.66268e-05 3.05239e-07 0.0914115)
(8.11853e-06 4e-07 0.0985088)
(-1.11843e-05 6.01881e-06 0.107493)
(-1.42221e-05 2.55815e-06 0.109917)
(-2.04284e-05 7.77632e-06 0.0930519)
(-1.4137e-05 2.53832e-06 0.109921)
(8.76434e-06 -3.15413e-06 0.092989)
(-2.72996e-05 7.04803e-07 0.0985702)
(1.66048e-05 -2.54912e-07 0.0913969)
(-7.13339e-06 6.9809e-07 0.0821932)
(1.20917e-05 -1.22818e-06 0.0822536)
(-4.99326e-06 -3.15424e-07 0.0913441)
(2.72772e-05 7.05534e-07 0.0985601)
(1.3953e-05 2.49012e-06 0.109932)
(-8.75546e-06 -3.17161e-06 0.092975)
(1.11593e-05 5.98811e-06 0.107496)
(1.4052e-05 2.51934e-06 0.109927)
(2.04471e-05 7.77541e-06 0.0930389)
(-8.14226e-06 3.99256e-07 0.0984987)
(1.66345e-05 3.25082e-07 0.0913963)
(-7.14093e-06 -6.79253e-07 0.0821935)
(1.21054e-05 1.1771e-06 0.0822532)
(-5.0223e-06 2.10206e-07 0.0913446)
(-8.07464e-06 -4.46473e-07 0.0985092)
(1.12192e-05 -6.05083e-06 0.107497)
(2.0431e-05 -7.80536e-06 0.0930541)
(1.42475e-05 -2.5741e-06 0.109918)
(-8.77353e-06 3.12659e-06 0.0929899)
(1.41517e-05 -2.55738e-06 0.109923)
(2.72635e-05 -6.8733e-07 0.0985708)
(-4.98199e-06 -3.12223e-07 0.0913597)
(1.20596e-05 -1.2426e-06 0.0822705)
(-7.14401e-06 6.78275e-07 0.0822101)
(1.65849e-05 -2.52001e-07 0.0914124)
(-8.09262e-06 4.00506e-07 0.0985091)
(1.12146e-05 6.01567e-06 0.107493)
(1.42398e-05 2.56821e-06 0.109917)
(2.04309e-05 7.77889e-06 0.0930533)
(1.41547e-05 2.52855e-06 0.109922)
(-8.75634e-06 -3.14832e-06 0.0929896)
(2.72804e-05 7.07493e-07 0.0985706)
(-5.01217e-06 2.1075e-07 0.0913601)
(1.20768e-05 1.19546e-06 0.08227)
(-7.15269e-06 -6.54255e-07 0.0822104)
(1.66141e-05 3.2652e-07 0.0914118)
(3.52901e-06 -3.53501e-06 0.0875169)
(3.48812e-06 -3.53908e-06 0.0875184)
(-4.17289e-05 4.17288e-05 0.104315)
(-9.95274e-06 6.90003e-06 0.0875732)
(-6.92087e-06 9.93413e-06 0.087576)
(2.62241e-06 -4.32584e-06 0.0715121)
(-3.31277e-06 5.91951e-06 0.0715735)
(-5.88495e-06 3.32682e-06 0.0715884)
(4.31322e-06 -2.62555e-06 0.0715276)
(2.3896e-05 -2.39278e-05 0.1042)
(-9.91579e-06 6.91243e-06 0.0875891)
(-6.93478e-06 9.90156e-06 0.0875918)
(3.5473e-06 -3.51267e-06 0.0875329)
(3.46778e-06 -3.55956e-06 0.0875344)
(-3.33756e-06 5.89042e-06 0.0715888)
(2.59058e-06 -4.3345e-06 0.0715275)
(6.88395e-07 2.72472e-05 0.0985602)
(2.51064e-06 1.3945e-05 0.109932)
(-3.16361e-06 -8.77519e-06 0.0929753)
(6.02102e-06 1.11739e-05 0.107497)
(2.53746e-06 1.40441e-05 0.109926)
(7.7976e-06 2.04671e-05 0.0930388)
(4.29883e-07 -8.13527e-06 0.0984984)
(-3.52373e-07 1.65987e-05 0.0913965)
(6.56928e-07 -7.14877e-06 0.0821935)
(-1.18743e-06 1.21024e-05 0.0822529)
(-2.13828e-07 -5.00828e-06 0.0913438)
(2.79898e-07 1.65778e-05 0.0913971)
(-6.91065e-07 -7.13861e-06 0.0821939)
(1.19233e-06 1.21091e-05 0.0822536)
(2.59073e-07 -4.98525e-06 0.0913434)
(-4.0677e-07 -8.09449e-06 0.0985087)
(-6.04331e-06 1.12146e-05 0.107495)
(-2.55678e-06 1.42321e-05 0.109916)
(-7.79308e-06 2.04355e-05 0.0930532)
(-2.53915e-06 1.41488e-05 0.109921)
(3.11743e-06 -8.77744e-06 0.0929899)
(-7.22766e-07 2.72573e-05 0.0985702)
(4.26681e-07 -8.0821e-06 0.0985089)
(6.05318e-06 1.12128e-05 0.107495)
(2.58406e-06 1.42347e-05 0.109916)
(7.79652e-06 2.04456e-05 0.0930532)
(2.55235e-06 1.41441e-05 0.109922)
(-3.14802e-06 -8.77189e-06 0.0929898)
(6.84728e-07 2.72487e-05 0.0985706)
(-2.14725e-07 -4.99683e-06 0.0913593)
(-1.2015e-06 1.20691e-05 0.0822697)
(6.34461e-07 -7.15767e-06 0.0822104)
(-3.54212e-07 1.65799e-05 0.091412)
(2.54994e-07 -4.97343e-06 0.0913589)
(1.20647e-06 1.20778e-05 0.0822704)
(-6.72451e-07 -7.14603e-06 0.0822108)
(2.75237e-07 1.65584e-05 0.0914126)
(-4.31766e-06 -2.64095e-06 0.0715125)
(5.92517e-06 3.30048e-06 0.071574)
(-2.65424e-06 -4.30932e-06 0.0715126)
(3.3164e-06 5.91946e-06 0.0715739)
(-2.39003e-05 -2.3904e-05 0.1042)
(9.92569e-06 6.9305e-06 0.0875919)
(6.93921e-06 9.91982e-06 0.0875904)
(-3.56443e-06 -3.4996e-06 0.0875343)
(-3.50487e-06 -3.5586e-06 0.0875332)
(5.89906e-06 3.32719e-06 0.0715892)
(-4.32982e-06 -2.6066e-06 0.0715278)
(3.34009e-06 5.89295e-06 0.0715891)
(-2.626e-06 -4.31869e-06 0.0715279)
(2.56342e-06 4.36353e-06 0.0715422)
(4.33983e-06 2.57823e-06 0.0715423)
(3.46213e-06 3.5799e-06 0.0875498)
(3.59955e-06 3.4707e-06 0.0875488)
(-5.97204e-07 7.14575e-06 0.082226)
(2.46688e-07 5.01501e-06 0.0913758)
(3.11629e-06 8.79556e-06 0.0930033)
(-2.57535e-06 -1.4315e-05 0.109913)
(-4.27914e-07 8.07204e-06 0.0985193)
(-3.10236e-06 8.78184e-06 0.093003)
(2.59642e-06 -1.43145e-05 0.109913)
(4.17745e-07 8.07635e-06 0.0985195)
(-3.48936e-06 3.55868e-06 0.0875483)
(-3.59889e-06 3.45858e-06 0.0875506)
(-4.34235e-06 2.57193e-06 0.0715426)
(8.79149e-06 3.1177e-06 0.093004)
(-1.43248e-05 -2.59022e-06 0.109913)
(8.07564e-06 -4.37671e-07 0.0985194)
(7.16537e-06 -6.4298e-07 0.082227)
(5.01607e-06 2.39262e-07 0.0913756)
(-1.43182e-05 2.57869e-06 0.109912)
(8.77043e-06 -3.13371e-06 0.0930035)
(8.07636e-06 4.01211e-07 0.0985193)
(1.65597e-05 -2.46882e-07 0.091428)
(-7.15497e-06 6.57788e-07 0.0822269)
(-4.97066e-06 -3.12194e-07 0.0913753)
(2.72719e-05 7.07344e-07 0.0985812)
(1.43362e-05 2.55829e-06 0.109912)
(-8.7626e-06 -3.12621e-06 0.0930041)
(1.12632e-05 6.10349e-06 0.107488)
(-8.04878e-06 4.01129e-07 0.0985197)
(1.4413e-05 2.61405e-06 0.109907)
(2.04122e-05 7.78326e-06 0.0930678)
(1.65853e-05 3.25133e-07 0.0914274)
(-7.17461e-06 -6.32344e-07 0.0822272)
(-4.99997e-06 2.12412e-07 0.0913757)
(1.20421e-05 1.21383e-06 0.0822867)
(3.56817e-06 -3.49106e-06 0.0875488)
(3.45068e-06 -3.58687e-06 0.0875505)
(2.56083e-06 -4.34605e-06 0.0715428)
(6.81468e-07 2.72451e-05 0.0985812)
(2.59299e-06 1.43186e-05 0.109912)
(-3.13157e-06 -8.77595e-06 0.0930043)
(6.12387e-06 1.12977e-05 0.107488)
(4.239e-07 -8.03844e-06 0.0985195)
(2.62221e-06 1.44078e-05 0.109907)
(7.79276e-06 2.04236e-05 0.0930677)
(-3.53095e-07 1.65543e-05 0.0914275)
(6.12118e-07 -7.16589e-06 0.0822273)
(-2.17212e-07 -4.98639e-06 0.0913749)
(2.70667e-07 1.65351e-05 0.0914282)
(-6.54086e-07 -7.15836e-06 0.0822277)
(2.50555e-07 -4.96428e-06 0.0913746)
(1.21781e-06 1.2048e-05 0.0822871)
(-4.34559e-06 -2.57518e-06 0.0715431)
(5.86978e-06 3.35295e-06 0.0716044)
(-2.59886e-06 -4.32736e-06 0.0715432)
(3.35983e-06 5.8648e-06 0.0716043)
(-6.90374e-07 4.27188e-06 0.0768514)
(1.26981e-07 -7.46637e-06 0.0786687)
(-1.13419e-06 -1.60375e-05 0.0899173)
(-2.59869e-07 5.0291e-06 0.0913522)
(-1.92473e-07 3.87201e-06 0.0786281)
(-5.40993e-07 5.54325e-06 0.0898675)
(5.47006e-07 -7.47022e-06 0.0768984)
(2.19655e-07 -6.12261e-06 0.0684364)
(-1.16483e-06 -1.21281e-05 0.082244)
(-7.32984e-07 5.84532e-06 0.0857867)
(-1.35625e-06 -1.23769e-05 0.085843)
(-8.40043e-07 4.92357e-06 0.0683753)
(-8.56361e-07 4.92385e-06 0.0683829)
(-1.36357e-06 -1.2361e-05 0.0858515)
(6.51129e-07 7.16479e-06 0.0822011)
(-7.4296e-07 5.85203e-06 0.0857952)
(2.07005e-07 -6.11423e-06 0.0684439)
(5.54319e-07 -7.47617e-06 0.07689)
(-3.03768e-07 -1.66571e-05 0.0913882)
(-1.91633e-07 3.87576e-06 0.0786196)
(-5.34546e-07 5.55043e-06 0.0898594)
(1.2767e-07 -7.46852e-06 0.0786602)
(-1.13116e-06 -1.60477e-05 0.0899093)
(-6.81408e-07 4.27262e-06 0.076843)
(3.22417e-06 -5.90609e-06 0.0715678)
(-2.58614e-06 4.27401e-06 0.0715179)
(4.27582e-06 -6.85171e-07 0.0768519)
(-1.60422e-05 -1.13062e-06 0.0899176)
(-7.4692e-06 1.39799e-07 0.0786689)
(5.03065e-06 -2.67116e-07 0.0913523)
(5.5498e-06 -5.41571e-07 0.0898678)
(3.87268e-06 -1.94317e-07 0.0786283)
(-7.47294e-06 5.55514e-07 0.0768989)
(-6.12479e-06 2.23389e-07 0.068437)
(-1.21252e-05 -1.17606e-06 0.0822446)
(5.83899e-06 -7.2504e-07 0.0857871)
(-1.23827e-05 -1.35795e-06 0.0858434)
(4.92183e-06 -8.2576e-07 0.068376)
(4.92199e-06 -8.40334e-07 0.0683836)
(-1.23666e-05 -1.36429e-06 0.0858519)
(7.15401e-06 6.59435e-07 0.0822019)
(5.84503e-06 -7.33629e-07 0.0857956)
(-6.11653e-06 2.11494e-07 0.0684446)
(-7.47931e-06 5.61563e-07 0.0768905)
(-1.6659e-05 -2.96365e-07 0.0913883)
(5.5579e-06 -5.37246e-07 0.0898597)
(3.87654e-06 -1.95865e-07 0.0786198)
(-1.60515e-05 -1.12885e-06 0.0899096)
(-7.47171e-06 1.38912e-07 0.0786604)
(4.27702e-06 -6.78519e-07 0.0768435)
(-5.92736e-06 3.28449e-06 0.0715655)
(4.30714e-06 -2.64103e-06 0.07152)
(-3.11237e-06 -3.13129e-06 0.0835877)
(3.61039e-06 5.15219e-06 0.0683541)
(5.14999e-06 3.61547e-06 0.0683478)
(-2.63083e-06 -4.09237e-06 0.0682983)
(-4.08087e-06 -2.63985e-06 0.0682922)
(7.27807e-06 7.27047e-06 0.0836336)
(1.68909e-05 1.03124e-05 0.0916923)
(-1.10124e-05 -5.57093e-06 0.0962497)
(9.97892e-06 6.91098e-06 0.0875681)
(-3.81688e-06 -3.0513e-06 0.0815235)
(2.41163e-05 1.42143e-05 0.096299)
(8.13454e-06 4.00556e-06 0.0815755)
(-7.77115e-06 -3.80916e-06 0.0916444)
(1.03503e-05 1.68855e-05 0.0916855)
(-5.56805e-06 -1.10017e-05 0.0962472)
(6.92744e-06 9.97071e-06 0.0875665)
(-3.05748e-06 -3.83862e-06 0.081519)
(1.42487e-05 2.40998e-05 0.0962964)
(4.03056e-06 8.14918e-06 0.08157)
(-3.80649e-06 -7.79647e-06 0.091638)
(-7.78007e-06 -3.80737e-06 0.0916514)
(8.11792e-06 4.01122e-06 0.0815833)
(-3.55477e-06 -3.51195e-06 0.0875263)
(2.40895e-05 1.42101e-05 0.0963048)
(-1.10164e-05 -5.56205e-06 0.0962556)
(-3.82688e-06 -3.04189e-06 0.0815314)
(1.6865e-05 1.03043e-05 0.0916993)
(-3.80667e-06 -7.80263e-06 0.0916451)
(4.03372e-06 8.1347e-06 0.0815778)
(-3.51433e-06 -3.55125e-06 0.0875252)
(1.4246e-05 2.40738e-05 0.0963022)
(-5.56036e-06 -1.10018e-05 0.0962531)
(-3.04994e-06 -3.84648e-06 0.0815269)
(1.03393e-05 1.68614e-05 0.0916925)
(7.28927e-06 7.27904e-06 0.0836261)
(-2.62715e-06 -4.0973e-06 0.0682915)
(-4.08363e-06 -2.638e-06 0.0682855)
(3.61981e-06 5.15244e-06 0.0683474)
(5.15299e-06 3.62271e-06 0.0683411)
(-3.10785e-06 -3.12993e-06 0.0835802)
(1.67319e-07 -6.08554e-06 0.0684664)
(-7.74436e-07 5.87218e-06 0.0858206)
(-1.19433e-06 -1.20515e-05 0.0822776)
(-9.06334e-07 4.92504e-06 0.0684056)
(-1.38827e-06 -1.23088e-05 0.0858768)
(5.2637e-07 -7.45275e-06 0.0769234)
(-3.0234e-07 -1.66105e-05 0.0914193)
(-1.94651e-07 3.86459e-06 0.0786537)
(-5.60895e-07 5.53086e-06 0.0898918)
(-7.20787e-07 4.26073e-06 0.0768766)
(1.27548e-07 -7.44227e-06 0.0786941)
(-1.14593e-06 -1.60051e-05 0.0899415)
(3.27498e-06 -5.84763e-06 0.0715983)
(-6.08994e-06 1.78004e-07 0.0684671)
(5.86314e-06 -7.60614e-07 0.0858211)
(-1.20788e-05 -1.21057e-06 0.0822783)
(4.92172e-06 -8.84458e-07 0.0684063)
(-1.23192e-05 -1.38066e-06 0.0858772)
(-7.45455e-06 5.39123e-07 0.0769239)
(-1.66201e-05 -2.89681e-07 0.0914194)
(5.53643e-06 -5.54089e-07 0.0898921)
(3.87151e-06 -1.89256e-07 0.0786538)
(4.26487e-06 -7.07314e-07 0.0768771)
(-1.60125e-05 -1.13891e-06 0.0899418)
(-7.44565e-06 1.42454e-07 0.0786943)
(-5.87108e-06 3.33947e-06 0.071596)
(-3.12456e-06 -3.1382e-06 0.0836177)
(3.5713e-06 5.14904e-06 0.0683809)
(5.13711e-06 3.5807e-06 0.0683746)
(-2.63541e-06 -4.08255e-06 0.0683252)
(-4.06847e-06 -2.63866e-06 0.0683192)
(7.22871e-06 7.2346e-06 0.0836637)
(1.6795e-05 1.02872e-05 0.0917204)
(-1.10308e-05 -5.53606e-06 0.0962733)
(-3.85926e-06 -3.02291e-06 0.0815549)
(9.90817e-06 6.93729e-06 0.0875999)
(-7.8095e-06 -3.80956e-06 0.0916725)
(2.40188e-05 1.42318e-05 0.0963224)
(8.06624e-06 4.03064e-06 0.0816066)
(1.03155e-05 1.67964e-05 0.0917136)
(-5.5439e-06 -1.10004e-05 0.0962709)
(-3.03248e-06 -3.87249e-06 0.0815503)
(6.94298e-06 9.91007e-06 0.0875983)
(-3.80694e-06 -7.82453e-06 0.0916661)
(1.42447e-05 2.40255e-05 0.0963197)
(4.05384e-06 8.09998e-06 0.0816012)
(7.24265e-06 7.24071e-06 0.0836563)
(-2.63744e-06 -4.08474e-06 0.0683185)
(-4.07231e-06 -2.64348e-06 0.0683124)
(-3.12327e-06 -3.14064e-06 0.0836102)
(3.58364e-06 5.15098e-06 0.0683742)
(5.14179e-06 3.58995e-06 0.0683679)
(-7.81717e-06 -3.81401e-06 0.0916796)
(8.0467e-06 4.0315e-06 0.0816144)
(-3.59843e-06 -3.46814e-06 0.0875583)
(2.39589e-05 1.42219e-05 0.0963283)
(-1.10403e-05 -5.52714e-06 0.0962793)
(-3.86662e-06 -3.01686e-06 0.0815627)
(1.67584e-05 1.02686e-05 0.0917273)
(-3.81176e-06 -7.82684e-06 0.0916732)
(4.04968e-06 8.0746e-06 0.0816089)
(-3.48282e-06 -3.58217e-06 0.0875572)
(1.4241e-05 2.40079e-05 0.0963257)
(-5.54474e-06 -1.09995e-05 0.0962768)
(-3.03023e-06 -3.88287e-06 0.0815581)
(1.03037e-05 1.67662e-05 0.0917206)
(-3.27219e-06 -5.9576e-06 0.0715659)
(2.60959e-06 4.34371e-06 0.0715193)
(-5.9364e-06 -3.29563e-06 0.0715655)
(4.32354e-06 2.61943e-06 0.0715194)
(3.14478e-06 3.11888e-06 0.0835871)
(-5.13755e-06 -3.62849e-06 0.0683539)
(-3.61352e-06 -5.16575e-06 0.0683475)
(4.09589e-06 2.6351e-06 0.0682975)
(2.65803e-06 4.07484e-06 0.0682913)
(-7.26858e-06 -7.29658e-06 0.0836339)
(-1.03008e-05 -1.68758e-05 0.0916925)
(5.57732e-06 1.10047e-05 0.0962495)
(-6.88384e-06 -9.95981e-06 0.0875686)
(3.03286e-06 3.7897e-06 0.0815232)
(-3.97804e-06 -8.10879e-06 0.0815765)
(-1.42011e-05 -2.40845e-05 0.0962989)
(3.81237e-06 7.76566e-06 0.0916439)
(-1.68635e-05 -1.03461e-05 0.091686)
(1.09933e-05 5.55703e-06 0.0962469)
(-9.98284e-06 -6.92454e-06 0.0875664)
(3.83911e-06 3.02269e-06 0.0815182)
(-8.13812e-06 -4.01899e-06 0.0815704)
(-2.40931e-05 -1.42407e-05 0.0962964)
(7.78036e-06 3.79193e-06 0.0916375)
(3.80956e-06 7.77083e-06 0.0916509)
(-3.98262e-06 -8.09283e-06 0.0815843)
(3.49109e-06 3.54605e-06 0.0875259)
(-1.42023e-05 -2.40629e-05 0.0963047)
(3.02288e-06 3.79746e-06 0.081531)
(-1.02952e-05 -1.68542e-05 0.0916995)
(5.56831e-06 1.10047e-05 0.0962554)
(7.78464e-06 3.79151e-06 0.0916445)
(-8.12305e-06 -4.02241e-06 0.0815782)
(3.56964e-06 3.49644e-06 0.0875248)
(-2.40716e-05 -1.42397e-05 0.0963023)
(3.84683e-06 3.01486e-06 0.081526)
(-1.68425e-05 -1.03374e-05 0.0916929)
(1.09921e-05 5.5485e-06 0.0962528)
(-7.27715e-06 -7.3066e-06 0.0836264)
(4.10038e-06 2.63299e-06 0.0682907)
(2.65704e-06 4.07802e-06 0.0682846)
(-5.13868e-06 -3.63745e-06 0.0683472)
(-3.62147e-06 -5.16813e-06 0.0683408)
(3.1435e-06 3.11581e-06 0.0835795)
(2.57856e-06 4.35623e-06 0.0715346)
(-3.29952e-06 -5.93029e-06 0.0715811)
(4.33396e-06 2.59107e-06 0.0715347)
(-5.91051e-06 -3.3204e-06 0.0715808)
(-7.25955e-06 -7.28677e-06 0.0836414)
(4.09136e-06 2.6379e-06 0.0683042)
(2.65972e-06 4.07135e-06 0.0682981)
(3.14677e-06 3.12218e-06 0.0835946)
(-5.13518e-06 -3.62082e-06 0.0683607)
(-3.60669e-06 -5.16276e-06 0.0683542)
(3.8101e-06 7.78668e-06 0.091665)
(-1.42019e-05 -2.40142e-05 0.0963164)
(3.47012e-06 3.56567e-06 0.0875418)
(-3.98858e-06 -8.05764e-06 0.0815998)
(3.00517e-06 3.81431e-06 0.0815467)
(5.55429e-06 1.10123e-05 0.0962671)
(-1.02756e-05 -1.6805e-05 0.0917134)
(7.79853e-06 3.79454e-06 0.0916586)
(-2.4024e-05 -1.42359e-05 0.096314)
(3.58829e-06 3.47728e-06 0.0875408)
(-8.08828e-06 -4.02614e-06 0.0815938)
(3.86386e-06 3.00051e-06 0.0815417)
(1.09979e-05 5.53534e-06 0.0962646)
(-1.67949e-05 -1.03169e-05 0.0917069)
(-1.02861e-05 -1.68299e-05 0.0917065)
(3.01632e-06 3.80857e-06 0.0815388)
(5.56151e-06 1.10078e-05 0.0962613)
(-6.89602e-06 -9.92563e-06 0.0875845)
(3.8093e-06 7.77745e-06 0.091658)
(-3.98455e-06 -8.07371e-06 0.0815921)
(-1.4202e-05 -2.40387e-05 0.0963105)
(-1.68192e-05 -1.03283e-05 0.0916999)
(3.85792e-06 3.01017e-06 0.0815339)
(1.09942e-05 5.54203e-06 0.0962587)
(-9.9507e-06 -6.93477e-06 0.0875823)
(7.78995e-06 3.79239e-06 0.0916515)
(-8.1041e-06 -4.02302e-06 0.081586)
(-2.40483e-05 -1.42382e-05 0.0963081)
(3.15043e-06 3.12688e-06 0.0836022)
(-5.13302e-06 -3.61182e-06 0.0683674)
(-3.59835e-06 -5.15989e-06 0.0683609)
(4.08721e-06 2.6403e-06 0.068311)
(2.66146e-06 4.06813e-06 0.0683048)
(-7.24865e-06 -7.27511e-06 0.0836489)
(6.78434e-07 4.26464e-06 0.0768515)
(-1.42566e-07 -7.46708e-06 0.0786688)
(1.11756e-06 -1.60436e-05 0.0899173)
(2.48129e-07 5.0303e-06 0.0913523)
(1.82446e-07 3.87156e-06 0.0786282)
(5.30759e-07 5.5431e-06 0.0898682)
(-5.63927e-07 -7.46689e-06 0.0768982)
(-2.45833e-07 -6.12348e-06 0.0684388)
(1.12108e-06 -1.2114e-05 0.0822452)
(7.47181e-07 5.84335e-06 0.085788)
(1.31869e-06 -1.23891e-05 0.0858438)
(8.38669e-07 4.91825e-06 0.068378)
(8.54088e-07 4.91794e-06 0.0683856)
(1.32487e-06 -1.23757e-05 0.0858522)
(-6.2911e-07 7.13412e-06 0.0822007)
(7.55857e-07 5.84879e-06 0.0857965)
(-2.33917e-07 -6.11604e-06 0.0684464)
(-5.69865e-07 -7.4715e-06 0.0768898)
(2.91295e-07 -1.666e-05 0.0913883)
(1.82442e-07 3.87563e-06 0.0786197)
(5.25858e-07 5.55134e-06 0.0898601)
(-1.41853e-07 -7.47021e-06 0.0786603)
(1.11635e-06 -1.60524e-05 0.0899093)
(6.69599e-07 4.26866e-06 0.076843)
(5.40558e-07 -7.46286e-06 0.0769067)
(-1.92819e-07 3.87144e-06 0.0786366)
(-5.46878e-07 5.53845e-06 0.0898756)
(-3.02949e-07 -1.66363e-05 0.0914037)
(-6.99719e-07 4.26879e-06 0.0768598)
(1.27081e-07 -7.45731e-06 0.0786772)
(-1.13891e-06 -1.60274e-05 0.0899254)
(-8.88669e-07 4.9233e-06 0.068398)
(6.30634e-07 7.17767e-06 0.082218)
(-1.38076e-06 -1.23289e-05 0.0858683)
(1.80899e-07 -6.09601e-06 0.068459)
(-7.64316e-07 5.86377e-06 0.0858121)
(1.93734e-07 -6.10455e-06 0.0684514)
(-7.53992e-07 5.85767e-06 0.0858037)
(-1.18374e-06 -1.21005e-05 0.0822608)
(-8.72802e-07 4.92363e-06 0.0683905)
(-1.3714e-06 -1.23436e-05 0.0858599)
(-7.09676e-07 4.2679e-06 0.0768682)
(-2.59956e-07 5.01933e-06 0.0913678)
(1.2735e-07 -7.44684e-06 0.0786856)
(-1.14383e-06 -1.60199e-05 0.0899334)
(5.33949e-07 -7.45512e-06 0.0769151)
(-1.94393e-07 3.86762e-06 0.0786452)
(-5.54177e-07 5.5328e-06 0.0898837)
(-5.57373e-07 -7.46281e-06 0.0769065)
(1.81683e-07 3.87116e-06 0.0786368)
(5.35579e-07 5.53838e-06 0.0898762)
(2.87685e-07 -1.6639e-05 0.0914038)
(6.8645e-07 4.26262e-06 0.0768599)
(-1.43511e-07 -7.45841e-06 0.0786772)
(1.12144e-06 -1.60321e-05 0.0899254)
(8.85728e-07 4.91855e-06 0.0684008)
(-6.07383e-07 7.14024e-06 0.0822176)
(1.34059e-06 -1.23428e-05 0.0858691)
(7.74729e-07 5.85949e-06 0.0858135)
(-2.08897e-07 -6.09863e-06 0.0684614)
(-2.21239e-07 -6.10587e-06 0.0684539)
(7.65829e-07 5.8558e-06 0.085805)
(1.13756e-06 -1.20838e-05 0.082262)
(8.6973e-07 4.91846e-06 0.0683932)
(1.33265e-06 -1.23556e-05 0.0858607)
(6.9628e-07 4.25557e-06 0.0768683)
(2.4644e-07 5.01974e-06 0.0913679)
(-1.43573e-07 -7.44846e-06 0.0786857)
(1.12474e-06 -1.60249e-05 0.0899334)
(1.82096e-07 3.86695e-06 0.0786453)
(5.41352e-07 5.53261e-06 0.0898843)
(-5.51674e-07 -7.45192e-06 0.0769149)
(-3.1356e-06 3.10526e-06 0.0835873)
(5.13453e-06 -3.63936e-06 0.0683487)
(3.60766e-06 -5.16613e-06 0.0683541)