# Region type : patch wall
# Faces       : 1544
# Area        : 7.850266e-05
# Scale factor: 1.000000e+00
# Time        	areaAverage(wallShearStress)
1.33208e-05   	(0.000000e+00 0.000000e+00 0.000000e+00)
2.93057e-05   	(0.000000e+00 0.000000e+00 0.000000e+00)
4.79936e-05   	(0.000000e+00 0.000000e+00 0.000000e+00)
7.04191e-05   	(0.000000e+00 0.000000e+00 0.000000e+00)
9.73297e-05   	(0.000000e+00 0.000000e+00 0.000000e+00)
