/*--------------------------------*- C++ -*----------------------------------*\
| =========                 |                                                 |
| \\      /  F ield         | OpenFOAM: The Open Source CFD Toolbox           |
|  \\    /   O peration     | Version:  2312                                  |
|   \\  /    A nd           | Website:  www.openfoam.com                      |
|    \\/     M anipulation  |                                                 |
\*---------------------------------------------------------------------------*/
FoamFile
{
    version     2.0;
    format      ascii;
    arch        "LSB;label=32;scalar=64";
    class       volScalarField;
    location    "250";
    object      epsilon;
}
// * * * * * * * * * * * * * * * * * * * * * * * * * * * * * * * * * * * * * //

dimensions      [0 2 -3 0 0 0 0];

internalField   nonuniform List<scalar> 
43168
(
5.38679e-07
1.09529e-06
1.0954e-06
1.39493e-06
1.39269e-06
1.09544e-06
1.09534e-06
1.39263e-06
1.09523e-06
1.09547e-06
1.09529e-06
1.09549e-06
1.39278e-06
1.0954e-06
1.09532e-06
1.39281e-06
1.39483e-06
1.09544e-06
1.09536e-06
1.39478e-06
1.09524e-06
1.09547e-06
1.09549e-06
1.39491e-06
1.09532e-06
9.77777e-06
9.77914e-06
5.3867e-07
5.38674e-07
5.38781e-07
5.3878e-07
4.35892e-06
9.77775e-06
4.35903e-06
9.77801e-06
1.94421e-05
1.94436e-05
4.359e-06
9.77917e-06
4.3591e-06
9.77945e-06
5.38674e-07
5.38788e-07
5.38779e-07
2.33661e-06
3.75295e-06
8.02777e-07
1.09529e-06
2.33697e-06
3.75257e-06
8.02781e-07
1.94435e-05
1.94449e-05
2.33666e-06
8.02858e-07
3.75293e-06
1.09541e-06
2.33699e-06
8.0286e-07
3.75258e-06
5.80373e-06
5.80555e-06
1.39282e-06
5.80348e-06
5.80531e-06
1.94408e-05
1.94441e-05
1.39274e-06
5.80325e-06
5.80507e-06
1.94411e-05
1.94396e-05
1.94444e-05
1.94429e-05
1.39486e-06
5.80334e-06
5.80518e-06
5.8036e-06
5.8054e-06
1.09543e-06
3.75231e-06
4.35898e-06
9.77791e-06
9.77761e-06
4.35888e-06
4.35892e-06
9.77807e-06
9.77777e-06
4.35882e-06
2.33687e-06
1.09543e-06
3.75235e-06
8.02729e-07
3.75271e-06
8.02721e-07
2.33658e-06
2.33682e-06
1.0953e-06
3.75276e-06
8.02683e-07
3.75316e-06
8.02672e-07
2.33652e-06
1.94434e-05
1.94418e-05
1.39488e-06
5.80488e-06
5.80362e-06
5.80522e-06
1.94423e-05
1.09522e-06
3.75287e-06
4.35906e-06
9.77932e-06
9.77899e-06
4.35895e-06
2.33693e-06
1.09523e-06
3.75293e-06
8.02715e-07
3.75326e-06
8.0271e-07
2.33662e-06
4.359e-06
9.77888e-06
9.77857e-06
4.35888e-06
2.33687e-06
1.09547e-06
8.02772e-07
3.75284e-06
8.02767e-07
3.75318e-06
2.33657e-06
3.75255e-06
8.02775e-07
2.33668e-06
9.77866e-06
4.35906e-06
8.02809e-07
3.75247e-06
2.33664e-06
9.77859e-06
4.35894e-06
1.94447e-05
1.94432e-05
1.395e-06
5.80497e-06
5.80346e-06
5.80519e-06
5.80368e-06
1.94422e-05
1.94406e-05
2.33703e-06
1.09539e-06
8.02851e-07
3.75253e-06
8.02846e-07
3.75287e-06
2.3367e-06
2.33696e-06
1.09532e-06
8.02836e-07
3.75299e-06
8.02835e-07
3.75334e-06
2.33664e-06
4.35928e-06
9.77879e-06
9.77848e-06
4.35909e-06
4.35933e-06
9.77934e-06
9.77902e-06
4.35907e-06
1.39497e-06
5.80339e-06
5.80522e-06
5.80542e-06
1.94431e-05
1.94456e-05
1.9444e-05
1.94398e-05
1.94412e-05
1.94432e-05
1.94446e-05
5.8037e-06
5.80551e-06
1.39272e-06
5.80342e-06
5.80527e-06
1.94399e-05
1.94433e-05
1.39488e-06
5.80376e-06
5.80559e-06
4.35887e-06
9.7779e-06
4.35897e-06
9.77817e-06
2.33654e-06
3.75276e-06
8.02731e-07
1.09545e-06
2.33687e-06
3.7524e-06
8.02734e-07
2.33648e-06
3.7532e-06
8.02686e-07
1.09536e-06
2.33681e-06
3.7528e-06
8.02687e-07
4.35906e-06
9.77783e-06
4.35901e-06
9.77799e-06
2.33684e-06
1.09546e-06
3.7528e-06
8.02739e-07
2.33679e-06
1.09537e-06
3.75324e-06
8.02692e-07
5.8053e-06
5.80393e-06
1.39269e-06
5.80496e-06
5.80363e-06
1.94411e-05
1.94425e-05
1.94422e-05
1.39485e-06
5.80536e-06
5.80394e-06
1.94412e-05
2.33658e-06
3.75332e-06
8.02718e-07
1.09525e-06
2.33691e-06
3.75298e-06
8.02722e-07
4.35893e-06
9.77872e-06
4.35903e-06
9.779e-06
2.33652e-06
8.02774e-07
3.75323e-06
1.09548e-06
2.33686e-06
8.02777e-07
3.75288e-06
4.35914e-06
9.77928e-06
2.33689e-06
1.09526e-06
3.75337e-06
8.02728e-07
4.35907e-06
9.77883e-06
2.33683e-06
1.09549e-06
8.02783e-07
3.75327e-06
4.3591e-06
9.77849e-06
4.35927e-06
9.77875e-06
2.33658e-06
8.02808e-07
3.75287e-06
1.0955e-06
2.33693e-06
8.02814e-07
3.75251e-06
4.35898e-06
9.77843e-06
4.35909e-06
9.77869e-06
2.33692e-06
1.0953e-06
3.75297e-06
8.0278e-07
4.35931e-06
9.77857e-06
2.33689e-06
1.09551e-06
8.0282e-07
3.75291e-06
4.35913e-06
9.77851e-06
5.8053e-06
5.80382e-06
1.39279e-06
5.80506e-06
5.80358e-06
1.94409e-05
1.94424e-05
1.94436e-05
1.39495e-06
5.80537e-06
5.80392e-06
1.94411e-05
2.3366e-06
8.02835e-07
3.75339e-06
1.09532e-06
2.33693e-06
8.02836e-07
3.75304e-06
4.35914e-06
9.77863e-06
4.3593e-06
9.77892e-06
4.35912e-06
9.77919e-06
4.35934e-06
9.77948e-06
2.33698e-06
1.09542e-06
8.02867e-07
3.75298e-06
2.33692e-06
1.09533e-06
8.02839e-07
3.75344e-06
4.35935e-06
9.77875e-06
4.35939e-06
9.77931e-06
1.94419e-05
1.94433e-05
1.94443e-05
1.94458e-05
1.39498e-06
5.8038e-06
5.80562e-06
1.9442e-05
1.94445e-05
2.31895e-05
7.42097e-06
9.77754e-06
7.42135e-06
2.31922e-05
9.77891e-06
1.28897e-05
4.35905e-06
1.14467e-05
5.0224e-06
1.14465e-05
5.02254e-06
1.28901e-05
2.31926e-05
7.42151e-06
9.77796e-06
2.319e-05
7.42111e-06
1.28901e-05
4.3589e-06
1.14464e-05
5.02251e-06
1.28896e-05
1.14467e-05
5.02237e-06
2.31901e-05
7.42115e-06
9.7778e-06
7.42154e-06
2.31927e-05
1.94435e-05
1.94421e-05
1.28897e-05
4.35912e-06
5.02242e-06
1.14469e-05
5.02256e-06
1.14467e-05
1.28901e-05
2.31923e-05
7.42153e-06
9.77939e-06
2.31897e-05
7.42114e-06
1.28901e-05
4.35897e-06
5.02254e-06
1.14466e-05
1.28897e-05
5.0224e-06
1.14469e-05
2.31898e-05
7.42119e-06
9.77924e-06
7.42158e-06
2.31924e-05
1.94448e-05
1.94436e-05
1.02117e-05
2.28194e-05
2.28187e-05
2.28175e-05
2.28168e-05
1.02111e-05
4.84457e-06
3.05656e-06
1.01642e-05
5.80344e-06
4.84485e-06
3.05635e-06
1.01645e-05
4.85054e-06
3.05781e-06
1.01691e-05
5.80527e-06
4.8508e-06
3.05759e-06
1.01694e-05
1.02111e-05
2.28173e-05
2.28166e-05
1.02116e-05
2.28193e-05
2.28186e-05
4.84491e-06
1.01646e-05
5.80378e-06
3.05636e-06
3.05659e-06
1.01643e-05
4.84461e-06
4.85084e-06
1.01695e-05
5.8056e-06
3.0576e-06
3.05781e-06
1.01692e-05
4.85057e-06
1.94394e-05
1.94427e-05
1.02112e-05
2.28182e-05
2.28174e-05
2.28161e-05
2.28153e-05
1.02107e-05
4.84459e-06
1.01639e-05
5.80355e-06
3.05621e-06
1.01636e-05
4.84425e-06
3.05646e-06
4.85053e-06
1.01691e-05
5.80535e-06
3.05741e-06
1.01688e-05
4.85021e-06
3.05765e-06
1.94397e-05
1.94409e-05
1.94431e-05
1.94443e-05
1.02109e-05
2.28164e-05
2.28156e-05
1.02113e-05
2.28184e-05
2.28176e-05
4.84468e-06
3.05621e-06
5.80365e-06
1.01641e-05
1.01638e-05
3.05645e-06
4.84434e-06
4.85062e-06
3.05742e-06
5.80546e-06
1.01693e-05
1.0169e-05
3.05765e-06
4.85031e-06
4.8443e-06
1.01637e-05
3.05645e-06
5.80329e-06
4.84463e-06
1.0164e-05
3.05621e-06
4.85026e-06
1.01689e-05
3.05764e-06
5.80512e-06
4.85057e-06
1.01692e-05
3.05741e-06
1.02115e-05
2.28187e-05
2.28179e-05
2.28167e-05
2.28159e-05
1.0211e-05
1.28899e-05
1.14463e-05
5.02247e-06
4.35885e-06
1.28895e-05
1.14466e-05
5.02233e-06
2.31899e-05
9.77768e-06
7.42107e-06
2.31925e-05
7.42146e-06
2.31924e-05
7.4214e-06
9.77784e-06
2.31897e-05
7.42102e-06
1.28896e-05
4.35901e-06
1.14467e-05
5.02235e-06
1.289e-05
1.14464e-05
5.02249e-06
1.28901e-05
1.14463e-05
5.02235e-06
4.3588e-06
1.28896e-05
1.14465e-05
5.02221e-06
2.31901e-05
9.77784e-06
7.41972e-06
7.42008e-06
2.31927e-05
2.31926e-05
7.42003e-06
9.778e-06
2.319e-05
7.41967e-06
1.28897e-05
4.35895e-06
1.14466e-05
5.02224e-06
1.14463e-05
5.02238e-06
1.28901e-05
1.94419e-05
1.94433e-05
4.85077e-06
3.0574e-06
5.80526e-06
1.01689e-05
3.05762e-06
1.01686e-05
4.85044e-06
4.8448e-06
3.05631e-06
5.80391e-06
1.01647e-05
1.01644e-05
3.05653e-06
4.84447e-06
3.05763e-06
5.80484e-06
3.0574e-06
1.02117e-05
2.28185e-05
2.28195e-05
2.28165e-05
2.28173e-05
1.02112e-05
1.94408e-05
1.289e-05
5.02251e-06
1.14465e-05
4.35892e-06
1.28895e-05
5.02236e-06
1.14468e-05
2.31895e-05
9.77909e-06
7.42108e-06
2.31922e-05
7.42146e-06
2.3192e-05
7.42139e-06
9.77923e-06
2.31893e-05
7.42102e-06
1.28896e-05
4.35907e-06
5.02237e-06
1.14468e-05
1.289e-05
5.02251e-06
1.14466e-05
1.28901e-05
1.14464e-05
5.02232e-06
4.35885e-06
1.28896e-05
1.14467e-05
5.02217e-06
2.31893e-05
9.77865e-06
7.41941e-06
7.41979e-06
2.3192e-05
2.31918e-05
7.41972e-06
9.7788e-06
2.31891e-05
7.41935e-06
1.28897e-05
4.359e-06
1.14467e-05
5.02219e-06
1.14465e-05
5.02232e-06
1.28901e-05
2.31882e-05
9.77839e-06
7.42069e-06
7.42124e-06
2.31912e-05
1.2889e-05
4.35925e-06
5.02235e-06
1.14468e-05
5.02265e-06
1.14465e-05
1.28895e-05
2.31893e-05
9.77837e-06
7.41923e-06
7.41961e-06
2.31919e-05
1.28895e-05
4.35907e-06
1.14466e-05
5.02217e-06
1.14463e-05
5.02232e-06
1.289e-05
1.94434e-05
1.94446e-05
1.02102e-05
2.28152e-05
2.28157e-05
1.02107e-05
2.28172e-05
2.28177e-05
4.8506e-06
3.05748e-06
5.80525e-06
1.01688e-05
3.05766e-06
1.01685e-05
4.85031e-06
4.8445e-06
3.05627e-06
5.80374e-06
1.0164e-05
1.01637e-05
3.05648e-06
4.84422e-06
4.85027e-06
1.01684e-05
3.05767e-06
5.80492e-06
3.05747e-06
4.85055e-06
1.01687e-05
4.84418e-06
1.01636e-05
3.05649e-06
5.80341e-06
4.84445e-06
1.01638e-05
3.05627e-06
1.02109e-05
2.28175e-05
2.2818e-05
2.28155e-05
2.2816e-05
1.02104e-05
1.94408e-05
1.9442e-05
1.28896e-05
5.02251e-06
1.14463e-05
4.35906e-06
1.28891e-05
5.02236e-06
1.14466e-05
2.31886e-05
9.77856e-06
7.42066e-06
7.42103e-06
2.31912e-05
2.3191e-05
7.42097e-06
9.7787e-06
2.31884e-05
7.4206e-06
1.28892e-05
4.35927e-06
5.02238e-06
1.14467e-05
5.02251e-06
1.14464e-05
1.28897e-05
1.28901e-05
5.02254e-06
1.14462e-05
4.35905e-06
1.28896e-05
5.0223e-06
1.14465e-05
2.31903e-05
9.77911e-06
7.41971e-06
7.42011e-06
2.3193e-05
2.31928e-05
7.42004e-06
9.77925e-06
2.31901e-05
7.41965e-06
1.28897e-05
4.35932e-06
5.02231e-06
1.14466e-05
5.02254e-06
1.14462e-05
1.28902e-05
1.02107e-05
2.28188e-05
2.2818e-05
4.8448e-06
3.05635e-06
5.80367e-06
1.01644e-05
4.84451e-06
3.05656e-06
1.01641e-05
4.85075e-06
3.05759e-06
5.80549e-06
1.01693e-05
4.85049e-06
3.05781e-06
1.0169e-05
4.84444e-06
5.80333e-06
3.05633e-06
1.01642e-05
4.85041e-06
3.0578e-06
5.80515e-06
3.05759e-06
1.01691e-05
1.02114e-05
2.28191e-05
2.28184e-05
1.02109e-05
2.28171e-05
2.28163e-05
1.94418e-05
1.9443e-05
1.94442e-05
1.94454e-05
1.94412e-05
1.94399e-05
1.94445e-05
1.94433e-05
1.02117e-05
2.28189e-05
2.28182e-05
2.2817e-05
2.28162e-05
1.02111e-05
4.84439e-06
3.05645e-06
1.01639e-05
5.80339e-06
4.84473e-06
1.01642e-05
3.05622e-06
4.85035e-06
3.05766e-06
1.01691e-05
5.80523e-06
4.85067e-06
1.01694e-05
3.05742e-06
1.02111e-05
2.28169e-05
2.28161e-05
1.02116e-05
2.28189e-05
2.28181e-05
4.84477e-06
1.01642e-05
5.80374e-06
3.05623e-06
1.01639e-05
4.84442e-06
3.05646e-06
4.8507e-06
1.01694e-05
5.80556e-06
3.05744e-06
1.01692e-05
4.85038e-06
3.05767e-06
1.94412e-05
1.94446e-05
1.02111e-05
2.2817e-05
2.28163e-05
1.02117e-05
2.2819e-05
2.28182e-05
4.84443e-06
1.0164e-05
3.05647e-06
5.80343e-06
4.84479e-06
1.01643e-05
3.05624e-06
4.85039e-06
1.01692e-05
3.05768e-06
5.80529e-06
4.85073e-06
1.01695e-05
3.05745e-06
1.28898e-05
4.35899e-06
1.14466e-05
5.02229e-06
1.14464e-05
5.02241e-06
1.28902e-05
2.31928e-05
7.42012e-06
9.77813e-06
2.31903e-05
7.41976e-06
1.28902e-05
4.35884e-06
1.14463e-05
5.02239e-06
1.14466e-05
1.28897e-05
5.02226e-06
2.31903e-05
7.4198e-06
9.77796e-06
7.42017e-06
2.31929e-05
1.28901e-05
1.14465e-05
5.02256e-06
4.35893e-06
1.28897e-05
1.14467e-05
5.02241e-06
2.31927e-05
7.42156e-06
9.77803e-06
2.31902e-05
7.42116e-06
1.28902e-05
1.14464e-05
5.02242e-06
4.35887e-06
1.28898e-05
1.14466e-05
5.02229e-06
2.31929e-05
7.42019e-06
9.7782e-06
2.31904e-05
7.41981e-06
1.02118e-05
2.28186e-05
2.28193e-05
2.28166e-05
2.28174e-05
1.02112e-05
4.85049e-06
3.05762e-06
1.01687e-05
5.80493e-06
1.0169e-05
4.85076e-06
3.05741e-06
4.84449e-06
3.05654e-06
1.01644e-05
5.80362e-06
3.0563e-06
4.8448e-06
1.01647e-05
1.02112e-05
2.28165e-05
2.28174e-05
2.28185e-05
1.02118e-05
2.28193e-05
4.8508e-06
1.01691e-05
5.80535e-06
3.05742e-06
1.01688e-05
3.05764e-06
4.85051e-06
4.84484e-06
1.01647e-05
5.80394e-06
3.05631e-06
3.05655e-06
1.01644e-05
4.84452e-06
1.94424e-05
1.94411e-05
1.94436e-05
1.02112e-05
2.28167e-05
2.28174e-05
1.02118e-05
2.28186e-05
2.28193e-05
4.85052e-06
1.01688e-05
3.05765e-06
5.80497e-06
3.05743e-06
4.85082e-06
1.01691e-05
4.84453e-06
1.01645e-05
3.05656e-06
5.80362e-06
4.84487e-06
1.01647e-05
3.05631e-06
1.94425e-05
1.28898e-05
4.35905e-06
1.14468e-05
5.02225e-06
1.14465e-05
5.02238e-06
1.28902e-05
2.31921e-05
7.41985e-06
9.77895e-06
2.31895e-05
7.41947e-06
1.28902e-05
4.3589e-06
1.14465e-05
5.02234e-06
1.14468e-05
1.28898e-05
5.02222e-06
2.31896e-05
7.41951e-06
9.77879e-06
7.4199e-06
2.31922e-05
1.28902e-05
5.02259e-06
1.14467e-05
4.35901e-06
1.28897e-05
5.02244e-06
1.14469e-05
2.31925e-05
7.42161e-06
9.77948e-06
2.31899e-05
7.42121e-06
1.28903e-05
1.14466e-05
5.0224e-06
4.35894e-06
1.28898e-05
1.14468e-05
5.02226e-06
2.31922e-05
7.41993e-06
9.77903e-06
2.31897e-05
7.41953e-06
1.28891e-05
4.35929e-06
5.02239e-06
1.14468e-05
5.02269e-06
1.14465e-05
1.28896e-05
2.31913e-05
7.42129e-06
9.77871e-06
7.42072e-06
2.31884e-05
1.28896e-05
4.35908e-06
5.02267e-06
1.14465e-05
5.02235e-06
1.28891e-05
1.14468e-05
2.31884e-05
7.42075e-06
9.77854e-06
7.42132e-06
2.31913e-05
1.28896e-05
4.35911e-06
1.14466e-05
5.02221e-06
1.14464e-05
5.02235e-06
1.28901e-05
2.3192e-05
7.41966e-06
9.77865e-06
2.31894e-05
7.41927e-06
1.289e-05
4.35896e-06
1.14463e-05
5.02233e-06
1.28896e-05
1.14466e-05
5.02219e-06
2.31895e-05
7.4193e-06
9.77848e-06
7.4197e-06
2.31921e-05
1.28896e-05
5.02272e-06
1.14465e-05
4.35911e-06
1.28891e-05
5.02241e-06
1.14468e-05
2.31914e-05
7.42133e-06
9.77877e-06
2.31885e-05
7.42076e-06
1.28901e-05
1.14464e-05
5.02237e-06
4.35899e-06
1.28896e-05
1.14466e-05
5.02222e-06
2.31921e-05
7.41971e-06
9.77871e-06
2.31896e-05
7.41931e-06
1.02111e-05
2.28178e-05
2.28183e-05
2.28159e-05
2.28163e-05
1.02105e-05
4.85036e-06
3.05766e-06
1.01686e-05
5.80502e-06
1.01689e-05
4.85064e-06
3.05748e-06
4.84427e-06
3.0565e-06
1.01638e-05
5.80353e-06
3.05627e-06
4.84456e-06
1.01641e-05
1.02105e-05
2.28157e-05
2.28162e-05
2.28177e-05
1.0211e-05
2.28182e-05
4.85068e-06
1.01689e-05
5.80535e-06
3.05749e-06
1.01687e-05
3.05767e-06
4.85039e-06
4.8446e-06
1.01642e-05
5.80388e-06
3.05628e-06
3.05651e-06
1.01639e-05
4.8443e-06
1.94423e-05
1.9441e-05
1.94449e-05
1.02106e-05
2.28159e-05
2.28164e-05
1.02111e-05
2.28178e-05
2.28183e-05
4.85041e-06
1.01687e-05
3.05767e-06
5.80507e-06
3.05749e-06
4.85071e-06
1.0169e-05
4.84432e-06
1.0164e-05
3.05652e-06
5.80361e-06
4.84462e-06
1.01642e-05
3.05629e-06
1.94424e-05
1.28893e-05
4.35933e-06
5.02244e-06
1.14468e-05
5.02256e-06
1.14465e-05
1.28898e-05
2.31913e-05
7.42109e-06
9.77885e-06
7.42071e-06
2.31887e-05
1.28897e-05
4.35912e-06
5.02253e-06
1.14464e-05
5.02241e-06
1.28893e-05
1.14467e-05
2.31889e-05
7.42076e-06
9.7787e-06
7.42114e-06
2.31914e-05
1.28898e-05
4.35937e-06
5.02236e-06
1.14466e-05
5.02258e-06
1.14463e-05
1.28903e-05
2.31931e-05
7.42017e-06
9.77942e-06
2.31905e-05
7.41977e-06
1.28902e-05
4.35909e-06
5.02255e-06
1.14463e-05
1.28897e-05
5.02233e-06
1.14466e-05
2.31906e-05
7.41981e-06
9.77926e-06
7.42022e-06
2.31932e-05
1.28898e-05
5.02259e-06
1.14465e-05
4.35916e-06
1.28894e-05
5.02246e-06
1.14468e-05
2.31915e-05
7.42117e-06
9.77895e-06
2.31889e-05
7.42078e-06
1.28903e-05
5.02261e-06
1.14463e-05
4.35914e-06
1.28898e-05
5.02238e-06
1.14466e-05
2.31933e-05
7.42026e-06
9.77951e-06
2.31907e-05
7.41984e-06
1.94432e-05
1.9442e-05
1.94457e-05
1.94445e-05
1.02111e-05
2.28176e-05
2.28168e-05
1.02117e-05
2.28195e-05
2.28187e-05
4.84462e-06
1.01643e-05
3.0566e-06
5.80349e-06
4.84494e-06
3.05636e-06
1.01646e-05
4.85058e-06
1.01692e-05
3.05782e-06
5.80532e-06
4.85086e-06
3.0576e-06
1.01695e-05
1.94433e-05
1.94458e-05
5.38661e-07
3.39759e-07
3.39682e-07
5.38685e-07
3.39764e-07
3.39689e-07
1.81477e-07
1.8147e-07
2.90104e-06
1.98043e-06
1.98071e-06
1.3928e-06
2.90138e-06
1.97959e-06
1.97986e-06
2.90125e-06
1.39484e-06
1.97953e-06
1.97977e-06
1.98036e-06
1.98063e-06
2.9009e-06
2.90135e-06
1.39476e-06
1.97969e-06
1.97955e-06
1.98054e-06
1.98041e-06
2.90096e-06
2.90125e-06
1.39494e-06
1.97976e-06
1.97959e-06
1.98062e-06
1.98045e-06
2.9009e-06
2.90138e-06
1.39495e-06
1.9796e-06
1.97987e-06
2.90104e-06
1.98045e-06
1.98073e-06
2.90091e-06
1.98035e-06
1.98062e-06
1.39269e-06
2.90126e-06
1.97953e-06
1.97977e-06
2.90097e-06
1.98054e-06
1.98041e-06
1.39265e-06
1.97956e-06
2.90132e-06
1.9797e-06
2.90091e-06
1.9806e-06
1.98043e-06
1.39277e-06
1.97958e-06
2.90125e-06
1.97975e-06
5.38665e-07
3.39756e-07
3.39674e-07
3.39751e-07
3.39672e-07
1.81462e-07
1.81466e-07
5.38639e-07
3.39751e-07
3.39714e-07
3.39749e-07
3.39707e-07
1.81476e-07
1.81478e-07
5.38777e-07
3.39811e-07
3.39779e-07
3.39805e-07
3.39776e-07
1.81519e-07
1.81521e-07
5.38776e-07
3.39852e-07
3.3978e-07
3.39845e-07
3.39778e-07
1.81543e-07
1.81543e-07
3.39753e-07
3.39717e-07
5.38676e-07
3.39756e-07
3.39722e-07
1.81489e-07
1.81483e-07
3.39814e-07
3.39783e-07
5.38798e-07
3.39823e-07
3.3979e-07
1.81534e-07
1.81528e-07
3.3985e-07
3.3978e-07
5.38786e-07
3.39855e-07
3.39784e-07
1.81551e-07
1.81548e-07
5.38692e-07
3.39769e-07
3.39696e-07
1.81481e-07
5.38683e-07
3.39763e-07
3.39725e-07
1.81492e-07
5.38805e-07
3.3983e-07
3.39797e-07
1.81539e-07
5.38794e-07
3.39858e-07
3.39792e-07
1.81555e-07
1.63541e-06
2.33693e-06
2.59592e-06
1.50457e-06
2.59634e-06
1.50586e-06
1.63353e-06
1.84751e-06
2.25185e-06
3.10485e-06
3.75256e-06
1.84913e-06
2.25124e-06
3.10431e-06
1.6336e-06
2.33664e-06
2.59637e-06
1.50593e-06
1.63548e-06
2.59594e-06
1.50464e-06
1.84908e-06
3.10432e-06
3.75297e-06
2.25125e-06
2.25185e-06
3.10485e-06
1.84749e-06
1.63547e-06
2.33696e-06
1.5046e-06
2.59602e-06
1.50587e-06
2.59641e-06
1.6336e-06
1.84757e-06
2.25185e-06
3.10487e-06
3.75255e-06
1.84918e-06
2.25126e-06
3.10438e-06
1.63365e-06
2.33666e-06
1.50595e-06
2.59642e-06
1.63554e-06
1.50465e-06
2.59602e-06
1.84914e-06
3.1044e-06
3.75296e-06
2.25128e-06
2.25186e-06
3.10488e-06
1.84756e-06
2.90141e-06
1.39494e-06
1.97961e-06
1.97988e-06
1.98044e-06
1.98071e-06
2.90106e-06
2.90124e-06
1.39492e-06
1.97955e-06
1.9798e-06
2.90088e-06
1.98041e-06
1.98067e-06
2.90089e-06
1.39271e-06
1.98037e-06
1.98064e-06
2.90123e-06
1.97953e-06
1.97978e-06
1.84919e-06
3.10436e-06
3.75269e-06
2.25118e-06
3.10491e-06
2.25179e-06
1.84758e-06
1.63361e-06
2.59637e-06
1.50583e-06
2.33657e-06
1.63546e-06
2.59596e-06
1.50458e-06
1.84918e-06
2.2512e-06
3.75274e-06
3.10436e-06
2.25179e-06
3.1049e-06
1.84758e-06
1.84758e-06
3.10489e-06
2.25178e-06
3.75233e-06
2.25119e-06
1.84918e-06
3.10436e-06
1.63549e-06
2.33688e-06
2.59596e-06
1.5046e-06
2.59637e-06
1.50586e-06
1.63363e-06
1.6335e-06
2.59621e-06
1.50578e-06
2.33652e-06
1.63536e-06
2.59582e-06
1.50452e-06
1.84907e-06
2.25145e-06
3.75318e-06
3.10407e-06
3.10458e-06
2.25204e-06
1.84745e-06
1.84746e-06
3.10458e-06
2.25203e-06
3.75273e-06
1.84907e-06
3.10407e-06
2.25143e-06
1.63538e-06
2.33683e-06
2.59582e-06
1.50455e-06
2.59621e-06
1.5058e-06
1.63352e-06
1.39264e-06
1.9806e-06
1.97971e-06
3.75324e-06
2.2515e-06
2.25211e-06
1.63362e-06
2.5964e-06
1.50589e-06
2.33662e-06
1.63551e-06
2.59599e-06
1.50461e-06
1.84918e-06
2.25153e-06
3.75329e-06
3.10447e-06
2.25211e-06
3.105e-06
1.84756e-06
1.84758e-06
3.10501e-06
2.2521e-06
3.7529e-06
2.25152e-06
1.8492e-06
3.10447e-06
1.63549e-06
2.33693e-06
2.59598e-06
1.50462e-06
2.5964e-06
1.50588e-06
1.63361e-06
1.63358e-06
1.50586e-06
2.59625e-06
2.33657e-06
1.63545e-06
1.50459e-06
2.59586e-06
1.84911e-06
2.25152e-06
3.75321e-06
3.10408e-06
3.10456e-06
2.25209e-06
1.84752e-06
1.84754e-06
3.10458e-06
2.2521e-06
3.7528e-06
1.84914e-06
3.10408e-06
2.2515e-06
1.63543e-06
2.33688e-06
1.5046e-06
2.59585e-06
1.50586e-06
2.59624e-06
1.63357e-06
1.84914e-06
2.25124e-06
3.75293e-06
3.10431e-06
1.84755e-06
2.25183e-06
3.10484e-06
1.63548e-06
2.33699e-06
2.59597e-06
1.50468e-06
1.63364e-06
2.59638e-06
1.50592e-06
1.84909e-06
2.25124e-06
3.75284e-06
3.10398e-06
3.10451e-06
2.25182e-06
1.8475e-06
1.63548e-06
2.33695e-06
1.50466e-06
2.59588e-06
1.50591e-06
2.5963e-06
1.63362e-06
2.9009e-06
1.39282e-06
1.98065e-06
1.98049e-06
1.97978e-06
2.90126e-06
1.97962e-06
1.63372e-06
1.50597e-06
2.59645e-06
2.33672e-06
1.63558e-06
1.50472e-06
2.59605e-06
1.84921e-06
2.25125e-06
3.7529e-06
3.10438e-06
1.84761e-06
2.25184e-06
3.10487e-06
1.84763e-06
3.10489e-06
2.25184e-06
3.7525e-06
1.84924e-06
2.25124e-06
3.10438e-06
1.63558e-06
2.33702e-06
1.50472e-06
2.59604e-06
1.63371e-06
1.50599e-06
2.59644e-06
1.63362e-06
1.50592e-06
2.59633e-06
2.33666e-06
1.63549e-06
1.50467e-06
2.59591e-06
1.84915e-06
2.25159e-06
3.75337e-06
3.10418e-06
3.1047e-06
2.25218e-06
1.84755e-06
1.84757e-06
3.10472e-06
2.25219e-06
3.75296e-06
1.84918e-06
3.10418e-06
2.25158e-06
1.63549e-06
2.33696e-06
1.50467e-06
2.5959e-06
1.50594e-06
2.59632e-06
1.63362e-06
2.90105e-06
1.39283e-06
1.98075e-06
1.97962e-06
1.97989e-06
2.90128e-06
1.39484e-06
1.97955e-06
1.9798e-06
2.90094e-06
1.98037e-06
1.98063e-06
2.90096e-06
1.39276e-06
1.9804e-06
1.98066e-06
2.9013e-06
1.97958e-06
1.97983e-06
1.63544e-06
2.33685e-06
2.59594e-06
1.50453e-06
2.59635e-06
1.50582e-06
1.63356e-06
1.84755e-06
2.2518e-06
3.1049e-06
3.75237e-06
3.10437e-06
1.84916e-06
2.25121e-06
1.6336e-06
2.33655e-06
2.59637e-06
1.50586e-06
2.59595e-06
1.63548e-06
1.50458e-06
1.84914e-06
3.10438e-06
3.75279e-06
2.25123e-06
3.10491e-06
2.25181e-06
1.84754e-06
1.63534e-06
2.33679e-06
2.5958e-06
1.50448e-06
2.59619e-06
1.50576e-06
1.63344e-06
1.84743e-06
2.25205e-06
3.10458e-06
3.75278e-06
1.84905e-06
3.10408e-06
2.25145e-06
1.63349e-06
2.3365e-06
2.5962e-06
1.50581e-06
1.63538e-06
2.5958e-06
1.50452e-06
1.84902e-06
3.10409e-06
3.75323e-06
2.25147e-06
3.10459e-06
1.84741e-06
2.25206e-06
1.63357e-06
2.59636e-06
1.50579e-06
2.33654e-06
1.63542e-06
2.59594e-06
1.50453e-06
1.84757e-06
3.10492e-06
2.25182e-06
3.75241e-06
2.25124e-06
1.84915e-06
3.10438e-06
1.63346e-06
2.59619e-06
1.50573e-06
2.33649e-06
1.63532e-06
2.5958e-06
1.50448e-06
1.84744e-06
3.1046e-06
2.25207e-06
3.75281e-06
1.84903e-06
3.1041e-06
2.25148e-06
2.90135e-06
1.39481e-06
1.97972e-06
1.97958e-06
1.98042e-06
1.98056e-06
2.90099e-06
2.901e-06
1.39273e-06
1.9806e-06
1.98045e-06
1.97975e-06
2.90137e-06
1.97962e-06
1.63543e-06
2.33689e-06
2.59596e-06
1.50454e-06
2.59638e-06
1.50582e-06
1.63354e-06
1.84754e-06
2.25212e-06
3.105e-06
3.75295e-06
3.10447e-06
1.84915e-06
2.25153e-06
1.63358e-06
2.3366e-06
2.59639e-06
1.50587e-06
2.59597e-06
1.63548e-06
1.50459e-06
1.84913e-06
3.10448e-06
3.75335e-06
2.25155e-06
3.10501e-06
2.25213e-06
1.84752e-06
1.63537e-06
2.33684e-06
1.50451e-06
2.59583e-06
1.5058e-06
2.59621e-06
1.63349e-06
1.84749e-06
2.2521e-06
3.10457e-06
3.75286e-06
1.84908e-06
3.10408e-06
2.25153e-06
1.63353e-06
2.33654e-06
1.50585e-06
2.59623e-06
1.63541e-06
1.50457e-06
2.59583e-06
1.84905e-06
3.10409e-06
3.75326e-06
2.25154e-06
3.10457e-06
1.84747e-06
2.25211e-06
1.63355e-06
2.59637e-06
1.5058e-06
2.33658e-06
1.63541e-06
2.59596e-06
1.50454e-06
1.84755e-06
3.10502e-06
2.25215e-06
3.75299e-06
2.25156e-06
1.84914e-06
3.10449e-06
1.63351e-06
1.50577e-06
2.59621e-06
2.33652e-06
1.63535e-06
1.50452e-06
2.59583e-06
1.8475e-06
3.10458e-06
2.25212e-06
3.75289e-06
1.84906e-06
3.10409e-06
2.25155e-06
1.63541e-06
2.3369e-06
1.50456e-06
2.59585e-06
1.50585e-06
2.59626e-06
1.63353e-06
1.84747e-06
2.25184e-06
3.10452e-06
3.75249e-06
2.25125e-06
1.84908e-06
3.10398e-06
1.63358e-06
2.33661e-06
1.50591e-06
2.59628e-06
1.50463e-06
1.63546e-06
2.59586e-06
1.84905e-06
3.10399e-06
3.7529e-06
2.25127e-06
2.25185e-06
3.10452e-06
1.84745e-06
1.63355e-06
2.59634e-06
1.50581e-06
2.33663e-06
1.63538e-06
2.59593e-06
1.50457e-06
1.84751e-06
3.10486e-06
2.25185e-06
3.75257e-06
1.84909e-06
2.25126e-06
3.10433e-06
1.63356e-06
1.50581e-06
2.59626e-06
2.3366e-06
1.63538e-06
1.50457e-06
2.59586e-06
1.84748e-06
3.10453e-06
2.25186e-06
3.75252e-06
1.84905e-06
3.10399e-06
2.25128e-06
2.90126e-06
1.39491e-06
1.97977e-06
1.97961e-06
1.98044e-06
1.9806e-06
2.90093e-06
2.90095e-06
1.39283e-06
1.98063e-06
1.98047e-06
1.9798e-06
2.90129e-06
1.97964e-06
1.63539e-06
2.3369e-06
1.50455e-06
2.59588e-06
1.50582e-06
2.59628e-06
1.63351e-06
1.84751e-06
2.25219e-06
3.1047e-06
3.75302e-06
2.2516e-06
1.84912e-06
3.10418e-06
1.63355e-06
2.3366e-06
1.5059e-06
2.59629e-06
1.5046e-06
1.63545e-06
2.59587e-06
1.84908e-06
3.10419e-06
3.75342e-06
2.25161e-06
2.2522e-06
3.10471e-06
1.84749e-06
1.63366e-06
1.50587e-06
2.59643e-06
2.33669e-06
1.63548e-06
1.50465e-06
2.59604e-06
1.8476e-06
3.1049e-06
2.25188e-06
3.75259e-06
1.84916e-06
2.25129e-06
3.10441e-06
1.63356e-06
1.50582e-06
2.5963e-06
2.33663e-06
1.63539e-06
1.5046e-06
2.5959e-06
1.84753e-06
3.10472e-06
2.25221e-06
3.75306e-06
1.8491e-06
3.1042e-06
2.25162e-06
2.90108e-06
1.39287e-06
1.98047e-06
1.98074e-06
2.90143e-06
1.97965e-06
1.97991e-06
5.38704e-07
1.09531e-06
1.09543e-06
1.39503e-06
5.38719e-07
1.09532e-06
1.09543e-06
1.39497e-06
5.38729e-07
1.09532e-06
1.09543e-06
1.39495e-06
5.38727e-07
1.0953e-06
1.0954e-06
1.3949e-06
5.38728e-07
1.09526e-06
1.09537e-06
1.39485e-06
5.38771e-07
1.09531e-06
1.09543e-06
1.39494e-06
5.38823e-07
1.09539e-06
1.0955e-06
1.39506e-06
5.38838e-07
1.09541e-06
1.09552e-06
1.39502e-06
5.38844e-07
1.09543e-06
1.09553e-06
1.39499e-06
5.38839e-07
1.09542e-06
1.09553e-06
1.39501e-06
5.38831e-07
1.09541e-06
1.09552e-06
1.3951e-06
5.38824e-07
1.0954e-06
1.09551e-06
1.39515e-06
5.38821e-07
1.0954e-06
1.09551e-06
1.39511e-06
5.38822e-07
1.09541e-06
1.09552e-06
1.39507e-06
5.38827e-07
1.09542e-06
1.09553e-06
1.39503e-06
5.38835e-07
1.09543e-06
1.09554e-06
1.39501e-06
5.38848e-07
1.09545e-06
1.09556e-06
1.39501e-06
5.38847e-07
1.09545e-06
1.09556e-06
1.395e-06
5.37652e-07
1.09377e-06
1.09387e-06
1.3944e-06
6.11005e-07
1.00029e-06
1.00036e-06
1.33484e-06
1.39278e-06
1.09547e-06
1.09538e-06
1.39275e-06
1.09526e-06
1.0955e-06
1.09531e-06
1.09552e-06
1.39286e-06
1.09543e-06
1.09534e-06
1.3929e-06
1.39491e-06
1.39271e-06
1.09547e-06
1.09538e-06
1.09547e-06
1.09538e-06
1.39489e-06
1.39268e-06
1.09527e-06
1.0955e-06
1.09526e-06
1.0955e-06
1.09552e-06
1.09531e-06
1.09552e-06
1.395e-06
1.39279e-06
1.09534e-06
1.09543e-06
1.09534e-06
1.39282e-06
1.39488e-06
1.3927e-06
1.09547e-06
1.09539e-06
1.09547e-06
1.0954e-06
1.39485e-06
1.3927e-06
1.09527e-06
1.0955e-06
1.09527e-06
1.09551e-06
1.09552e-06
1.09532e-06
1.09553e-06
1.39495e-06
1.39278e-06
1.09534e-06
1.09543e-06
1.09535e-06
1.39283e-06
1.39482e-06
1.39267e-06
1.09547e-06
1.0954e-06
1.09545e-06
1.09538e-06
1.39482e-06
1.39268e-06
1.09526e-06
1.0955e-06
1.09524e-06
1.09548e-06
1.09553e-06
1.09531e-06
1.09551e-06
1.3949e-06
1.39275e-06
1.09534e-06
1.09541e-06
1.09533e-06
1.3928e-06
1.39477e-06
1.39259e-06
1.09544e-06
1.09537e-06
1.09541e-06
1.09533e-06
1.39478e-06
1.39259e-06
1.09523e-06
1.09547e-06
1.0952e-06
1.09544e-06
1.0955e-06
1.09526e-06
1.09547e-06
1.39485e-06
1.39268e-06
1.09531e-06
1.09537e-06
1.09529e-06
1.39272e-06
1.39472e-06
1.39263e-06
1.09541e-06
1.09533e-06
1.09544e-06
1.09536e-06
1.39472e-06
1.39261e-06
1.0952e-06
1.09544e-06
1.09524e-06
1.09547e-06
1.09547e-06
1.09528e-06
1.0955e-06
1.39481e-06
1.39271e-06
1.09528e-06
1.0954e-06
1.09532e-06
1.39275e-06
1.39482e-06
1.39273e-06
1.09546e-06
1.09538e-06
1.09553e-06
1.09545e-06
1.39481e-06
1.39271e-06
1.09526e-06
1.0955e-06
1.09532e-06
1.09556e-06
1.09553e-06
1.09537e-06
1.09559e-06
1.3949e-06
1.39281e-06
1.09535e-06
1.09549e-06
1.09541e-06
1.39286e-06
1.39493e-06
1.39274e-06
1.09554e-06
1.09547e-06
1.09556e-06
1.09548e-06
1.39492e-06
1.39273e-06
1.09534e-06
1.09558e-06
1.09535e-06
1.09559e-06
1.09561e-06
1.0954e-06
1.09562e-06
1.39501e-06
1.39281e-06
1.09543e-06
1.09551e-06
1.09544e-06
1.39286e-06
1.39491e-06
1.39276e-06
1.09556e-06
1.09548e-06
1.09557e-06
1.09549e-06
1.3949e-06
1.39274e-06
1.09535e-06
1.09559e-06
1.09537e-06
1.0956e-06
1.09563e-06
1.09542e-06
1.09564e-06
1.39498e-06
1.39282e-06
1.09544e-06
1.09552e-06
1.09545e-06
1.39287e-06
1.39489e-06
1.39282e-06
1.09558e-06
1.0955e-06
1.09557e-06
1.0955e-06
1.39488e-06
1.3928e-06
1.09537e-06
1.09561e-06
1.09537e-06
1.09561e-06
1.09564e-06
1.09542e-06
1.09564e-06
1.39496e-06
1.39289e-06
1.09546e-06
1.09553e-06
1.09546e-06
1.39296e-06
1.39489e-06
1.3929e-06
1.09557e-06
1.0955e-06
1.09556e-06
1.09549e-06
1.39487e-06
1.39288e-06
1.09537e-06
1.09561e-06
1.09536e-06
1.0956e-06
1.09564e-06
1.09541e-06
1.09563e-06
1.39496e-06
1.39298e-06
1.09546e-06
1.09552e-06
1.09545e-06
1.39304e-06
1.39496e-06
1.39288e-06
1.09556e-06
1.09549e-06
1.09554e-06
1.09547e-06
1.39494e-06
1.39288e-06
1.09536e-06
1.0956e-06
1.09534e-06
1.09558e-06
1.09563e-06
1.0954e-06
1.09561e-06
1.39503e-06
1.39296e-06
1.09545e-06
1.0955e-06
1.09543e-06
1.39302e-06
1.395e-06
1.39283e-06
1.09555e-06
1.09548e-06
1.09554e-06
1.09547e-06
1.39499e-06
1.39283e-06
1.09534e-06
1.09559e-06
1.09533e-06
1.09558e-06
1.09562e-06
1.09539e-06
1.09561e-06
1.39508e-06
1.39292e-06
1.09543e-06
1.0955e-06
1.09542e-06
1.39294e-06
1.39499e-06
1.3928e-06
1.09555e-06
1.09547e-06
1.09554e-06
1.09546e-06
1.39499e-06
1.39279e-06
1.09534e-06
1.09559e-06
1.09533e-06
1.09557e-06
1.09561e-06
1.09539e-06
1.0956e-06
1.39508e-06
1.39287e-06
1.09543e-06
1.0955e-06
1.09542e-06
1.39289e-06
1.39499e-06
1.39275e-06
1.09555e-06
1.09548e-06
1.09553e-06
1.09546e-06
1.39498e-06
1.39275e-06
1.09535e-06
1.09559e-06
1.09533e-06
1.09557e-06
1.09562e-06
1.09539e-06
1.0956e-06
1.39506e-06
1.39282e-06
1.09543e-06
1.09549e-06
1.09541e-06
1.39286e-06
1.39496e-06
1.3927e-06
1.09556e-06
1.09549e-06
1.09553e-06
1.09546e-06
1.39496e-06
1.39271e-06
1.09536e-06
1.0956e-06
1.09533e-06
1.09557e-06
1.09563e-06
1.09539e-06
1.0956e-06
1.39502e-06
1.39279e-06
1.09544e-06
1.09549e-06
1.09541e-06
1.39285e-06
1.39489e-06
1.39272e-06
1.09557e-06
1.0955e-06
1.09553e-06
1.09546e-06
1.39491e-06
1.3927e-06
1.09537e-06
1.09561e-06
1.09533e-06
1.09557e-06
1.09564e-06
1.09539e-06
1.0956e-06
1.39498e-06
1.3928e-06
1.09545e-06
1.0955e-06
1.09542e-06
1.39289e-06
1.39487e-06
1.39274e-06
1.09559e-06
1.09552e-06
1.09552e-06
1.09545e-06
1.39486e-06
1.39272e-06
1.09539e-06
1.09563e-06
1.09532e-06
1.09556e-06
1.09566e-06
1.09537e-06
1.09559e-06
1.39495e-06
1.39283e-06
1.09547e-06
1.09549e-06
1.09541e-06
1.39292e-06