/*--------------------------------*- C++ -*----------------------------------*\
| =========                 |                                                 |
| \\      /  F ield         | OpenFOAM: The Open Source CFD Toolbox           |
|  \\    /   O peration     | Version:  2312                                  |
|   \\  /    A nd           | Website:  www.openfoam.com                      |
|    \\/     M anipulation  |                                                 |
\*---------------------------------------------------------------------------*/
FoamFile
{
    version     2.0;
    format      ascii;
    arch        "LSB;label=32;scalar=64";
    class       volScalarField;
    location    "250";
    object      k;
}
// * * * * * * * * * * * * * * * * * * * * * * * * * * * * * * * * * * * * * //

dimensions      [0 2 -2 0 0 0 0];

internalField   nonuniform List<scalar> 
43168
(
4.08952e-05
5.31658e-05
5.31686e-05
5.57473e-05
5.57308e-05
5.31661e-05
5.31615e-05
5.57291e-05
5.31637e-05
5.31646e-05
5.31656e-05
5.31665e-05
5.57331e-05
5.31684e-05
5.31641e-05
5.57328e-05
5.57451e-05
5.31662e-05
5.31615e-05
5.57435e-05
5.31639e-05
5.31647e-05
5.31666e-05
5.57474e-05
5.31642e-05
7.45227e-05
7.45242e-05
4.08947e-05
4.08939e-05
4.0898e-05
4.08972e-05
7.07169e-05
7.45226e-05
7.07135e-05
7.4524e-05
7.20593e-05
7.2063e-05
7.07164e-05
7.45244e-05
7.07127e-05
7.45258e-05
4.08941e-05
4.08985e-05
4.08975e-05
6.28163e-05
6.69208e-05
4.80394e-05
5.3166e-05
6.28142e-05
6.69232e-05
4.80395e-05
7.20606e-05
7.2064e-05
6.28161e-05
4.8042e-05
6.69203e-05
5.31688e-05
6.28139e-05
4.80421e-05
6.6923e-05
7.1885e-05
7.18934e-05
5.57207e-05
7.18872e-05
7.18959e-05
7.20608e-05
7.20638e-05
5.57332e-05
7.18871e-05
7.18948e-05
7.20614e-05
7.20578e-05
7.20645e-05
7.20608e-05
5.57534e-05
7.18887e-05
7.18967e-05
7.18873e-05
7.18949e-05
5.31651e-05
6.69191e-05
7.07121e-05
7.45234e-05
7.45219e-05
7.07154e-05
7.07104e-05
7.45199e-05
7.45184e-05
7.07137e-05
6.28119e-05
5.31657e-05
6.69207e-05
4.8038e-05
6.69183e-05
4.80367e-05
6.28162e-05
6.28101e-05
5.31598e-05
6.69167e-05
4.80358e-05
6.69144e-05
4.80343e-05
6.28144e-05
7.20627e-05
7.20587e-05
5.57523e-05
7.18887e-05
7.189e-05
7.18881e-05
7.20626e-05
5.31627e-05
6.69206e-05
7.07109e-05
7.45251e-05
7.45235e-05
7.07145e-05
6.28109e-05
5.31634e-05
6.69224e-05
4.80371e-05
6.69197e-05
4.80363e-05
6.28155e-05
7.07095e-05
7.45205e-05
7.45189e-05
7.07132e-05
6.28097e-05
5.31643e-05
4.80382e-05
6.69184e-05
4.80373e-05
6.69158e-05
6.28143e-05
6.69217e-05
4.80387e-05
6.28163e-05
7.45234e-05
7.07138e-05
4.80397e-05
6.69179e-05
6.28161e-05
7.45203e-05
7.07144e-05
7.20635e-05
7.20599e-05
5.57535e-05
7.18915e-05
7.18882e-05
7.18898e-05
7.18865e-05
7.20622e-05
7.20584e-05
6.28115e-05
5.31681e-05
4.80413e-05
6.69212e-05
4.80405e-05
6.69186e-05
6.2816e-05
6.28092e-05
5.31637e-05
4.80396e-05
6.69199e-05
4.80387e-05
6.69171e-05
6.28136e-05
7.07098e-05
7.4524e-05
7.45224e-05
7.07131e-05
7.07066e-05
7.4522e-05
7.45204e-05
7.07098e-05
5.5752e-05
7.18847e-05
7.18931e-05
7.18911e-05
7.2062e-05
7.20649e-05
7.20611e-05
7.20583e-05
7.20618e-05
7.20615e-05
7.2065e-05
7.1889e-05
7.1897e-05
5.57206e-05
7.18909e-05
7.18993e-05
7.20586e-05
7.20619e-05
5.57413e-05
7.1891e-05
7.18993e-05
7.07152e-05
7.4519e-05
7.07118e-05
7.45204e-05
6.28161e-05
6.69197e-05
4.80383e-05
5.31664e-05
6.28138e-05
6.69223e-05
4.80384e-05
6.28143e-05
6.69158e-05
4.80362e-05
5.31617e-05
6.2812e-05
6.69184e-05
4.80362e-05
7.07151e-05
7.45231e-05
7.07133e-05
7.45195e-05
6.28138e-05
5.3168e-05
6.69215e-05
4.80386e-05
6.28121e-05
5.31634e-05
6.69177e-05
4.80364e-05
7.18895e-05
7.18902e-05
5.57192e-05
7.18911e-05
7.18919e-05
7.20595e-05
7.20629e-05
7.20596e-05
5.57401e-05
7.18918e-05
7.18918e-05
7.20597e-05
6.28157e-05
6.69214e-05
4.80377e-05
5.31643e-05
6.28132e-05
6.69244e-05
4.80379e-05
7.0715e-05
7.45198e-05
7.07113e-05
7.45212e-05
6.28144e-05
4.80387e-05
6.69174e-05
5.31649e-05
6.28119e-05
4.80388e-05
6.69202e-05
7.07146e-05
7.45249e-05
6.28135e-05
5.3166e-05
6.69236e-05
4.80382e-05
7.07131e-05
7.45203e-05
6.28122e-05
5.31663e-05
4.80392e-05
6.69194e-05
7.07152e-05
7.45226e-05
7.07122e-05
7.45239e-05
6.2816e-05
4.80403e-05
6.69169e-05
5.31668e-05
6.28138e-05
4.80405e-05
6.69196e-05
7.07158e-05
7.45195e-05
7.07125e-05
7.45208e-05
6.28141e-05
5.31675e-05
6.69224e-05
4.80397e-05
7.07136e-05
7.4523e-05
6.28137e-05
5.31679e-05
4.80407e-05
6.69187e-05
7.07139e-05
7.45199e-05
7.18918e-05
7.18886e-05
5.57211e-05
7.18939e-05
7.18909e-05
7.20592e-05
7.20627e-05
7.20609e-05
5.57404e-05
7.18941e-05
7.18911e-05
7.20596e-05
6.28139e-05
4.80401e-05
6.6919e-05
5.31644e-05
6.28116e-05
4.80403e-05
6.6922e-05
7.07149e-05
7.45232e-05
7.07114e-05
7.45247e-05
7.07116e-05
7.45212e-05
7.07084e-05
7.45227e-05
6.2814e-05
5.31701e-05
4.80424e-05
6.69223e-05
6.28118e-05
5.31658e-05
4.80405e-05
6.69212e-05
7.07133e-05
7.45238e-05
7.07103e-05
7.45218e-05
7.20589e-05
7.20624e-05
7.20619e-05
7.20654e-05
5.57399e-05
7.18872e-05
7.1896e-05
7.20592e-05
7.20622e-05
7.25758e-05
8.1699e-05
7.45216e-05
8.16968e-05
7.25813e-05
7.45231e-05
7.27335e-05
7.07142e-05
7.24744e-05
7.37195e-05
7.24733e-05
7.37163e-05
7.27352e-05
7.25822e-05
8.16993e-05
7.45237e-05
7.25768e-05
8.17016e-05
7.2735e-05
7.07161e-05
7.24732e-05
7.37155e-05
7.27334e-05
7.24743e-05
7.37186e-05
7.2577e-05
8.17024e-05
7.45229e-05
8.17002e-05
7.25824e-05
7.20629e-05
7.20595e-05
7.27336e-05
7.07136e-05
7.37179e-05
7.24745e-05
7.37146e-05
7.24734e-05
7.27353e-05
7.25824e-05
8.16969e-05
7.45255e-05
7.25769e-05
8.16992e-05
7.27351e-05
7.07154e-05
7.37136e-05
7.24733e-05
7.27334e-05
7.37169e-05
7.24744e-05
7.25772e-05
8.17004e-05
7.45247e-05
8.16981e-05
7.25826e-05
7.20638e-05
7.20608e-05
9.72417e-05
7.44254e-05
7.44186e-05
7.44212e-05
7.44144e-05
9.72421e-05
7.64507e-05
6.75676e-05
7.44152e-05
7.1886e-05
7.64486e-05
6.75698e-05
7.44166e-05
7.64988e-05
6.75754e-05
7.44251e-05
7.18946e-05
7.64966e-05
6.75776e-05
7.44265e-05
9.72399e-05
7.44208e-05
7.44141e-05
9.72391e-05
7.44251e-05
7.44183e-05
7.64505e-05
7.4417e-05
7.18863e-05
6.75713e-05
6.75687e-05
7.44156e-05
7.64526e-05
7.64984e-05
7.44269e-05
7.18949e-05
6.75793e-05
6.75765e-05
7.44255e-05
7.65007e-05
7.20574e-05
7.20604e-05
9.72366e-05
7.44235e-05
7.44165e-05
7.44191e-05
7.44121e-05
9.72365e-05
7.64474e-05
7.44164e-05
7.18866e-05
6.75698e-05
7.4415e-05
7.64484e-05
6.75678e-05
7.64936e-05
7.44257e-05
7.18942e-05
6.75767e-05
7.44243e-05
7.6495e-05
6.75745e-05
7.20581e-05
7.20611e-05
7.20612e-05
7.20642e-05
9.72381e-05
7.44196e-05
7.44127e-05
9.72377e-05
7.44241e-05
7.44171e-05
7.64486e-05
6.75703e-05
7.1888e-05
7.44173e-05
7.44158e-05
6.75685e-05
7.64499e-05
7.64949e-05
6.75774e-05
7.18958e-05
7.44267e-05
7.44252e-05
6.75755e-05
7.64965e-05
7.6449e-05
7.44153e-05
6.75683e-05
7.18878e-05
7.64478e-05
7.44168e-05
6.75701e-05
7.64955e-05
7.44247e-05
6.75752e-05
7.18956e-05
7.64941e-05
7.44262e-05
6.75771e-05
9.72401e-05
7.44247e-05
7.44177e-05
7.44203e-05
7.44133e-05
9.72407e-05
7.27346e-05
7.24728e-05
7.37139e-05
7.07147e-05
7.27329e-05
7.24739e-05
7.37171e-05
7.25765e-05
7.45223e-05
8.17007e-05
7.2582e-05
8.16985e-05
7.25817e-05
8.16976e-05
7.45231e-05
7.25762e-05
8.16998e-05
7.27331e-05
7.07128e-05
7.24741e-05
7.37179e-05
7.27348e-05
7.2473e-05
7.37147e-05
7.27335e-05
7.24724e-05
7.37085e-05
7.0713e-05
7.27318e-05
7.24736e-05
7.37117e-05
7.25756e-05
7.45187e-05
8.16817e-05
8.16795e-05
7.2581e-05
7.25807e-05
8.16786e-05
7.45195e-05
7.25753e-05
8.16809e-05
7.2732e-05
7.07111e-05
7.24738e-05
7.37124e-05
7.24726e-05
7.37093e-05
7.27337e-05
7.2059e-05
7.20623e-05
7.64959e-05
6.75745e-05
7.18886e-05
7.4425e-05
6.75726e-05
7.44235e-05
7.64975e-05
7.64489e-05
6.75714e-05
7.18893e-05
7.44181e-05
7.44166e-05
6.75695e-05
7.64505e-05
6.75723e-05
7.18881e-05
6.75741e-05
9.72384e-05
7.44183e-05
7.44253e-05
7.4414e-05
7.44205e-05
9.72387e-05
7.20593e-05
7.27346e-05
7.37117e-05
7.24727e-05
7.07136e-05
7.27328e-05
7.3715e-05
7.2474e-05
7.25766e-05
7.45239e-05
8.16981e-05
7.25821e-05
8.16958e-05
7.25817e-05
8.16947e-05
7.45247e-05
7.25761e-05
8.1697e-05
7.27331e-05
7.07118e-05
7.37159e-05
7.24742e-05
7.27349e-05
7.37127e-05
7.2473e-05
7.2733e-05
7.24722e-05
7.37072e-05
7.07122e-05
7.27312e-05
7.24734e-05
7.37104e-05
7.25745e-05
7.45194e-05
8.16788e-05
8.16766e-05
7.258e-05
7.25796e-05
8.16756e-05
7.45201e-05
7.25741e-05
8.16777e-05
7.27315e-05
7.07104e-05
7.24737e-05
7.37114e-05
7.24725e-05
7.37082e-05
7.27333e-05
7.25747e-05
7.45223e-05
8.1693e-05
8.16916e-05
7.25809e-05
7.27314e-05
7.07115e-05
7.37129e-05
7.24735e-05
7.37104e-05
7.24722e-05
7.27334e-05
7.25749e-05
7.45192e-05
8.16784e-05
8.16762e-05
7.25803e-05
7.27316e-05
7.07118e-05
7.24736e-05
7.37124e-05
7.24724e-05
7.37093e-05
7.27333e-05
7.20603e-05
7.20632e-05
9.72326e-05
7.44123e-05
7.44187e-05
9.72323e-05
7.44167e-05
7.44231e-05
7.64951e-05
6.75754e-05
7.18906e-05
7.44249e-05
6.75734e-05
7.44235e-05
7.64966e-05
7.64471e-05
6.75706e-05
7.18874e-05
7.44168e-05
7.44153e-05
6.75687e-05
7.64487e-05
7.64957e-05
7.4423e-05
6.75731e-05
7.18904e-05
6.75752e-05
7.64943e-05
7.44244e-05
7.64478e-05
7.44148e-05
6.75683e-05
7.18872e-05
7.64464e-05
7.44163e-05
6.75704e-05
9.72346e-05
7.44173e-05
7.44237e-05
7.4413e-05
7.44193e-05
9.72351e-05
7.20588e-05
7.20618e-05
7.27339e-05
7.37124e-05
7.24716e-05
7.07122e-05
7.27322e-05
7.37156e-05
7.24729e-05
7.25762e-05
7.45228e-05
8.16958e-05
8.16936e-05
7.25816e-05
7.25812e-05
8.16927e-05
7.45236e-05
7.25757e-05
8.16949e-05
7.27325e-05
7.07106e-05
7.37164e-05
7.24732e-05
7.37132e-05
7.24719e-05
7.27342e-05
7.27325e-05
7.37051e-05
7.24707e-05
7.07089e-05
7.27305e-05
7.37081e-05
7.24721e-05
7.25756e-05
7.45208e-05
8.16795e-05
8.16773e-05
7.25811e-05
7.25807e-05
8.16763e-05
7.45216e-05
7.25751e-05
8.16784e-05
7.27308e-05
7.07075e-05
7.37089e-05
7.24724e-05
7.3706e-05
7.2471e-05
7.27327e-05
9.72334e-05
7.44239e-05
7.44171e-05
7.64471e-05
6.75691e-05
7.18838e-05
7.44162e-05
7.6449e-05
6.75672e-05
7.44146e-05
7.64951e-05
6.75769e-05
7.18921e-05
7.4426e-05
7.6497e-05
6.75749e-05
7.44245e-05
7.64477e-05
7.18836e-05
6.75687e-05
7.44156e-05
7.64956e-05
6.75743e-05
7.18918e-05
6.75765e-05
7.44254e-05
9.72359e-05
7.44246e-05
7.44178e-05
9.72368e-05
7.44202e-05
7.44134e-05
7.20586e-05
7.20616e-05
7.20615e-05
7.20645e-05
7.20617e-05
7.20585e-05
7.20648e-05
7.20617e-05
9.72442e-05
7.44252e-05
7.44183e-05
7.4421e-05
7.44141e-05
9.72442e-05
7.64515e-05
6.75688e-05
7.44163e-05
7.18899e-05
7.64498e-05
7.44177e-05
6.7571e-05
7.64981e-05
6.75758e-05
7.44257e-05
7.18981e-05
7.64961e-05
7.44272e-05
6.75781e-05
9.72429e-05
7.44207e-05
7.44138e-05
9.72427e-05
7.44251e-05
7.44181e-05
7.64515e-05
7.44181e-05
7.18902e-05
6.75726e-05
7.44166e-05
7.64532e-05
6.757e-05
7.64978e-05
7.44275e-05
7.18983e-05
6.75799e-05
7.44261e-05
7.64998e-05
6.75771e-05
7.20619e-05
7.20651e-05
9.72447e-05
7.44211e-05
7.44142e-05
9.72449e-05
7.44253e-05
7.44183e-05
7.64545e-05
7.44169e-05
6.75719e-05
7.18914e-05
7.64531e-05
7.44182e-05
6.75745e-05
7.65012e-05
7.44264e-05
6.75791e-05
7.18999e-05
7.64995e-05
7.44277e-05
6.75819e-05
7.27324e-05
7.07125e-05
7.2474e-05
7.37138e-05
7.24729e-05
7.37106e-05
7.2734e-05
7.25813e-05
8.16803e-05
7.45202e-05
7.25759e-05
8.16826e-05
7.27339e-05
7.07144e-05
7.24728e-05
7.37099e-05
7.24739e-05
7.27322e-05
7.37131e-05
7.25761e-05
8.16834e-05
7.45193e-05
8.16812e-05
7.25814e-05
7.27352e-05
7.24733e-05
7.37171e-05
7.07177e-05
7.27336e-05
7.24744e-05
7.37203e-05
7.25824e-05
8.1701e-05
7.45241e-05
7.25771e-05
8.17031e-05
7.2734e-05
7.2473e-05
7.37114e-05
7.0716e-05
7.27324e-05
7.2474e-05
7.37146e-05
7.25815e-05
8.16819e-05
7.45205e-05
7.25762e-05
8.16841e-05
9.7243e-05
7.44189e-05
7.44255e-05
7.44147e-05
7.44214e-05
9.72432e-05
7.64992e-05
6.7573e-05
7.4424e-05
7.18898e-05
7.44254e-05
7.64971e-05
6.75753e-05
7.64522e-05
6.75699e-05
7.44171e-05
7.18911e-05
6.75722e-05
7.64503e-05
7.44186e-05
9.72412e-05
7.44144e-05
7.44212e-05
7.44187e-05
9.72407e-05
7.44254e-05
7.64989e-05
7.44258e-05
7.18908e-05
6.7577e-05
7.44244e-05
6.75743e-05
7.6501e-05
7.64521e-05
7.44189e-05
7.18912e-05
6.75738e-05
6.75712e-05
7.44175e-05
7.64541e-05
7.20628e-05
7.20597e-05
7.20631e-05
9.72443e-05
7.44148e-05
7.44213e-05
9.72444e-05
7.44189e-05
7.44254e-05
7.65023e-05
7.44246e-05
6.75763e-05
7.18919e-05
6.7579e-05
7.65006e-05
7.44259e-05
7.64555e-05
7.44177e-05
6.75731e-05
7.18924e-05
7.64538e-05
7.44189e-05
6.75757e-05
7.20629e-05
7.2732e-05
7.07122e-05
7.2474e-05
7.37132e-05
7.24729e-05
7.371e-05
7.27336e-05
7.25803e-05
8.16777e-05
7.45209e-05
7.25749e-05
8.16799e-05
7.27335e-05
7.0714e-05
7.24727e-05
7.37091e-05
7.24739e-05
7.27318e-05
7.37123e-05
7.25751e-05
8.16809e-05
7.45201e-05
8.16787e-05
7.25805e-05
7.27353e-05
7.37157e-05
7.24735e-05
7.07174e-05
7.27337e-05
7.3719e-05
7.24746e-05
7.25827e-05
8.16992e-05
7.4526e-05
7.25774e-05
8.17014e-05
7.27337e-05
7.24729e-05
7.37109e-05
7.07159e-05
7.27321e-05
7.2474e-05
7.37141e-05
7.25806e-05
8.16797e-05
7.45213e-05
7.25752e-05
8.16817e-05
7.27318e-05
7.07129e-05
7.37143e-05
7.24737e-05
7.37118e-05
7.24725e-05
7.27337e-05
7.25811e-05
8.16925e-05
7.45237e-05
8.16939e-05
7.2575e-05
7.27336e-05
7.07145e-05
7.37111e-05
7.24724e-05
7.37136e-05
7.27316e-05
7.24736e-05
7.25752e-05
8.16946e-05
7.45228e-05
8.16933e-05
7.25812e-05
7.2732e-05
7.07132e-05
7.24738e-05
7.37139e-05
7.24727e-05
7.37108e-05
7.27336e-05
7.25806e-05
8.1677e-05
7.45206e-05
7.25751e-05
8.16792e-05
7.27335e-05
7.0715e-05
7.24726e-05
7.371e-05
7.27318e-05
7.24737e-05
7.37132e-05
7.25753e-05
8.168e-05
7.45197e-05
8.16779e-05
7.25807e-05
7.27337e-05
7.37126e-05
7.24726e-05
7.07159e-05
7.27318e-05
7.37151e-05
7.24737e-05
7.25813e-05
8.1694e-05
7.4524e-05
7.25753e-05
8.16952e-05
7.27337e-05
7.24727e-05
7.37116e-05
7.07165e-05
7.2732e-05
7.24738e-05
7.37147e-05
7.25807e-05
8.16786e-05
7.45209e-05
7.25754e-05
8.16806e-05
9.72388e-05
7.44179e-05
7.44243e-05
7.44138e-05
7.44201e-05
9.72387e-05
7.6498e-05
6.75736e-05
7.44239e-05
7.18927e-05
7.44253e-05
7.64962e-05
6.75759e-05
7.64501e-05
6.75689e-05
7.44158e-05
7.18896e-05
6.75711e-05
7.64483e-05
7.44173e-05
9.72374e-05
7.44134e-05
7.44198e-05
7.44177e-05
9.72372e-05
7.44241e-05
7.64978e-05
7.44257e-05
7.1893e-05
6.75774e-05
7.44244e-05
6.75746e-05
7.64997e-05
7.64499e-05
7.44177e-05
7.189e-05
6.75726e-05
6.75699e-05
7.44163e-05
7.64518e-05
7.20625e-05
7.20594e-05
7.20641e-05
9.72391e-05
7.44139e-05
7.44203e-05
9.72394e-05
7.4418e-05
7.44244e-05
7.65011e-05
7.44246e-05
6.75765e-05
7.18946e-05
6.75795e-05
7.64994e-05
7.44259e-05
7.64532e-05
7.44166e-05
6.75718e-05
7.18916e-05
7.64515e-05
7.44179e-05
6.75746e-05
7.20628e-05
7.2733e-05
7.07124e-05
7.37183e-05
7.24735e-05
7.3715e-05
7.24723e-05
7.27346e-05
7.25819e-05
8.16946e-05
7.45243e-05
8.16968e-05
7.25765e-05
7.27345e-05
7.07139e-05
7.37141e-05
7.24721e-05
7.37173e-05
7.27327e-05
7.24734e-05
7.25768e-05
8.16978e-05
7.45236e-05
8.16956e-05
7.25821e-05
7.27313e-05
7.07093e-05
7.37109e-05
7.24727e-05
7.37079e-05
7.24714e-05
7.27331e-05
7.25815e-05
8.16784e-05
7.45224e-05
7.25759e-05
8.16806e-05
7.2733e-05
7.07106e-05
7.37069e-05
7.24712e-05
7.27311e-05
7.37099e-05
7.24725e-05
7.25762e-05
8.16818e-05
7.45216e-05
8.16796e-05
7.25817e-05
7.27347e-05
7.3716e-05
7.24724e-05
7.07158e-05
7.27331e-05
7.37193e-05
7.24736e-05
7.25823e-05
8.16966e-05
7.45248e-05
7.25769e-05
8.16987e-05
7.27332e-05
7.3709e-05
7.24715e-05
7.07126e-05
7.27314e-05
7.3712e-05
7.24727e-05
7.25818e-05
8.16806e-05
7.45229e-05
7.25764e-05
8.16827e-05
7.20622e-05
7.20591e-05
7.20652e-05
7.20621e-05
9.72429e-05
7.44213e-05
7.44146e-05
9.7243e-05
7.44254e-05
7.44186e-05
7.64542e-05
7.44159e-05
6.75706e-05
7.18877e-05
7.64523e-05
6.75734e-05
7.44172e-05
7.65023e-05
7.44258e-05
6.75785e-05
7.18966e-05
7.65003e-05
6.75814e-05
7.44271e-05
7.20624e-05
7.20654e-05
4.08939e-05
3.4668e-05
3.46656e-05
4.0896e-05
3.46685e-05
3.46662e-05
2.80269e-05
2.80264e-05
6.8308e-05
6.1696e-05
6.16967e-05
5.57249e-05
6.83077e-05
6.16868e-05
6.16875e-05
6.83085e-05
5.57525e-05
6.16906e-05
6.16911e-05
6.17006e-05
6.17013e-05
6.83079e-05
6.83085e-05
5.57505e-05
6.16882e-05
6.16912e-05
6.16981e-05
6.17012e-05
6.83079e-05
6.83079e-05
5.5754e-05
6.16908e-05
6.16931e-05
6.17005e-05
6.17028e-05
6.83078e-05
6.83079e-05
5.57532e-05
6.16917e-05
6.16924e-05
6.8308e-05
6.17009e-05
6.17017e-05
6.83085e-05
6.16951e-05
6.16958e-05
5.57232e-05
6.83083e-05
6.16867e-05
6.16872e-05
6.83087e-05
6.16929e-05
6.16959e-05
5.57217e-05
6.16874e-05
6.83084e-05
6.16844e-05
6.83077e-05
6.16951e-05
6.16975e-05
5.5725e-05
6.16883e-05
6.83075e-05
6.1686e-05
4.08943e-05
3.46677e-05
3.4665e-05
3.46672e-05
3.46647e-05
2.80257e-05
2.8026e-05
4.0893e-05
3.46672e-05
3.46663e-05
3.46669e-05
3.4666e-05
2.80263e-05
2.80265e-05
4.08976e-05
3.467e-05
3.46692e-05
3.46695e-05
3.46688e-05
2.80287e-05
2.80289e-05
4.08969e-05
3.46714e-05
3.4669e-05
3.46709e-05
3.46687e-05
2.80297e-05
2.80299e-05
3.46675e-05
3.46666e-05
4.08945e-05
3.4668e-05
3.46672e-05
2.80273e-05
2.8027e-05
3.46704e-05
3.46697e-05
4.08993e-05
3.46711e-05
3.46703e-05
2.80299e-05
2.80295e-05
3.46717e-05
3.46693e-05
4.08982e-05
3.46723e-05
3.46699e-05
2.80306e-05
2.80303e-05
4.0897e-05
3.46691e-05
3.46668e-05
2.80272e-05
4.08956e-05
3.46686e-05
3.46677e-05
2.80277e-05
4.09004e-05
3.46718e-05
3.46711e-05
2.80304e-05
4.08994e-05
3.46729e-05
3.46707e-05
2.8031e-05
5.81518e-05
6.2814e-05
6.45336e-05
5.68295e-05
6.45308e-05
5.68487e-05
5.81259e-05
5.9508e-05
6.25172e-05
6.64557e-05
6.69224e-05
5.95212e-05
6.25133e-05
6.64574e-05
5.81352e-05
6.28164e-05
6.4531e-05
5.68521e-05
5.81556e-05
6.45338e-05
5.68373e-05
5.95173e-05
6.64577e-05
6.69215e-05
6.25131e-05
6.25166e-05
6.64558e-05
5.95014e-05
5.81532e-05
6.28138e-05
5.68301e-05
6.45353e-05
5.68492e-05
6.45321e-05
5.81273e-05
5.95092e-05
6.25173e-05
6.64563e-05
6.6922e-05
5.95226e-05
6.25135e-05
6.64584e-05
5.81367e-05
6.28162e-05
5.68525e-05
6.45323e-05
5.81573e-05
5.68377e-05
6.45354e-05
5.95183e-05
6.64588e-05
6.69211e-05
6.25132e-05
6.25166e-05
6.64566e-05
5.95025e-05
6.83096e-05
5.57403e-05
6.16858e-05
6.16864e-05
6.16924e-05
6.16931e-05
6.83106e-05
6.83087e-05
5.57486e-05
6.16946e-05
6.16951e-05
6.83093e-05
6.16997e-05
6.17003e-05
6.83091e-05
5.57356e-05
6.17023e-05
6.17029e-05
6.83092e-05
6.16955e-05
6.1696e-05
5.95071e-05
6.64563e-05
6.69174e-05
6.251e-05
6.64537e-05
6.25128e-05
5.94957e-05
5.81252e-05
6.45302e-05
5.68387e-05
6.28151e-05
5.81397e-05
6.45342e-05
5.68286e-05
5.95195e-05
6.25128e-05
6.6919e-05
6.64586e-05
6.2516e-05
6.64564e-05
5.9509e-05
5.95037e-05
6.64552e-05
6.25148e-05
6.69199e-05
6.25119e-05
5.95123e-05
6.64577e-05
5.81516e-05
6.28133e-05
6.45354e-05
5.6836e-05
6.45318e-05
5.68481e-05
5.81348e-05
5.8121e-05
6.4525e-05
5.68369e-05
6.28134e-05
5.81355e-05
6.45292e-05
5.68267e-05
5.95132e-05
6.25089e-05
6.69152e-05
6.64503e-05
6.6448e-05
6.25122e-05
5.95027e-05
5.94974e-05
6.64469e-05
6.2511e-05
6.69159e-05
5.95061e-05
6.64495e-05
6.25081e-05
5.81474e-05
6.28116e-05
6.45304e-05
5.68342e-05
6.45267e-05
5.68463e-05
5.81305e-05
5.57336e-05
6.16999e-05
6.16928e-05
6.69187e-05
6.25104e-05
6.25131e-05
5.81242e-05
6.45284e-05
5.68387e-05
6.28143e-05
5.81388e-05
6.45325e-05
5.68285e-05
5.95174e-05
6.25135e-05
6.69206e-05
6.64575e-05
6.25167e-05
6.64551e-05
5.95069e-05
5.95017e-05
6.64537e-05
6.25154e-05
6.69215e-05
6.25125e-05
5.95105e-05
6.64564e-05
5.81503e-05
6.28126e-05
6.45339e-05
5.68354e-05
6.45302e-05
5.68476e-05
5.81333e-05
5.81226e-05
5.6838e-05
6.45249e-05
6.28131e-05
5.81371e-05
5.68278e-05
6.45292e-05
5.95145e-05
6.25107e-05
6.69167e-05
6.64505e-05
6.64481e-05
6.25139e-05
5.95042e-05
5.94992e-05
6.64468e-05
6.25126e-05
6.69176e-05
5.95079e-05
6.64495e-05
6.25098e-05
5.81485e-05
6.28113e-05
5.68347e-05
6.45304e-05
5.68468e-05
6.45267e-05
5.81316e-05
5.95184e-05
6.25136e-05
6.692e-05
6.64571e-05
5.95083e-05
6.25168e-05
6.6455e-05
5.81501e-05
6.28136e-05
6.45337e-05
5.68364e-05
5.81336e-05
6.45303e-05
5.68483e-05
5.95161e-05
6.25109e-05
6.69162e-05
6.64517e-05
6.64495e-05
6.25141e-05
5.95059e-05
5.81494e-05
6.28132e-05
5.68362e-05
6.45323e-05
5.6848e-05
6.45287e-05
5.81329e-05
6.83085e-05
5.57362e-05
6.17009e-05
6.17031e-05
6.16945e-05
6.8308e-05
6.16968e-05
5.81263e-05
5.68399e-05
6.45297e-05
6.28147e-05
5.81408e-05
5.68297e-05
6.45339e-05
5.95201e-05
6.2514e-05
6.69195e-05
6.64581e-05
5.95098e-05
6.25172e-05
6.64557e-05
5.95046e-05
6.64544e-05
6.25158e-05
6.69204e-05
5.95133e-05
6.2513e-05
6.64571e-05
5.81523e-05
6.28131e-05
5.68369e-05
6.45353e-05
5.81356e-05
5.68489e-05
6.45315e-05
5.81218e-05
5.68379e-05
6.45243e-05
6.28124e-05
5.81364e-05
5.68277e-05
6.45284e-05
5.95148e-05
6.25122e-05
6.69181e-05
6.64512e-05
6.64488e-05
6.25154e-05
5.95045e-05
5.94992e-05
6.64474e-05
6.25139e-05
6.6919e-05
5.95079e-05
6.645e-05
6.25111e-05
5.8148e-05
6.28109e-05
5.68349e-05
6.45298e-05
5.68469e-05
6.45262e-05
5.81312e-05
6.83085e-05
5.57353e-05
6.17015e-05
6.16947e-05
6.16954e-05
6.83105e-05
5.57392e-05
6.16871e-05
6.16876e-05
6.83115e-05
6.16928e-05
6.16934e-05
6.83152e-05
5.57275e-05
6.16976e-05
6.16983e-05
6.83139e-05
6.16938e-05
6.16944e-05
5.81511e-05
6.28136e-05
6.45352e-05
5.68276e-05
6.45321e-05
5.68468e-05
5.8125e-05
5.95077e-05
6.2516e-05
6.64569e-05
6.69214e-05
6.64588e-05
5.95216e-05
6.25122e-05
5.81352e-05
6.28161e-05
6.45323e-05
5.68514e-05
6.45353e-05
5.81564e-05
5.68359e-05
5.95167e-05
6.64592e-05
6.69205e-05
6.25121e-05
6.64571e-05
6.25154e-05
5.95009e-05
5.81468e-05
6.28118e-05
6.45301e-05
5.68257e-05
6.45268e-05
5.68449e-05
5.81205e-05
5.95013e-05
6.25122e-05
6.64485e-05
6.69174e-05
5.95153e-05
6.64506e-05
6.25084e-05
5.81308e-05
6.28144e-05
6.45271e-05
5.68496e-05
5.81522e-05
6.45303e-05
5.6834e-05
5.95102e-05
6.6451e-05
6.69167e-05
6.25083e-05
6.64487e-05
5.94945e-05
6.25117e-05
5.81192e-05
6.45323e-05
5.68394e-05
6.28169e-05
5.81413e-05
6.45359e-05
5.68236e-05
5.94987e-05
6.64578e-05
6.25165e-05
6.69232e-05
6.25138e-05
5.95113e-05
6.64603e-05
5.81147e-05
6.4527e-05
5.68375e-05
6.28151e-05
5.81369e-05
6.45308e-05
5.68217e-05
5.94923e-05
6.64495e-05
6.25128e-05
6.69193e-05
5.95049e-05
6.64522e-05
6.25101e-05
6.83108e-05
5.57377e-05
6.16848e-05
6.16878e-05
6.16935e-05
6.16906e-05
6.83119e-05
6.83156e-05
5.57263e-05
6.16956e-05
6.16985e-05
6.16917e-05
6.83143e-05
6.16946e-05
5.81501e-05
6.28132e-05
6.4534e-05
5.68275e-05
6.45308e-05
5.68467e-05
5.81239e-05
5.95059e-05
6.25168e-05
6.64558e-05
6.69233e-05
6.64579e-05
5.95196e-05
6.25131e-05
5.81338e-05
6.28156e-05
6.45309e-05
5.68509e-05
6.4534e-05
5.8155e-05
5.68355e-05
5.9515e-05
6.64585e-05
6.69224e-05
6.2513e-05
6.64562e-05
6.25163e-05
5.94992e-05
5.8148e-05
6.28119e-05
5.68266e-05
6.45304e-05
5.68458e-05
6.45272e-05
5.81219e-05
5.95028e-05
6.25138e-05
6.64487e-05
6.69192e-05
5.95166e-05
6.64508e-05
6.251e-05
5.81319e-05
6.28144e-05
5.68501e-05
6.45273e-05
5.81531e-05
5.68348e-05
6.45305e-05
5.95117e-05
6.64513e-05
6.69183e-05
6.25099e-05
6.6449e-05
5.94961e-05
6.25131e-05
5.8118e-05
6.45311e-05
5.68393e-05
6.28166e-05
5.81404e-05
6.45349e-05
5.68233e-05
5.9497e-05
6.64572e-05
6.25175e-05
6.69255e-05
6.25148e-05
5.95096e-05
6.64598e-05
5.8116e-05
5.68384e-05
6.45274e-05
6.28153e-05
5.81382e-05
5.68225e-05
6.45312e-05
5.94938e-05
6.64498e-05
6.25142e-05
6.69213e-05
5.95063e-05
6.64525e-05
6.25116e-05
5.8151e-05
6.28136e-05
5.68291e-05
6.45321e-05
5.68484e-05
6.45292e-05
5.81249e-05
5.95055e-05
6.25143e-05
6.64501e-05
6.69186e-05
6.25106e-05
5.95187e-05
6.6452e-05
5.81344e-05
6.28162e-05
5.68518e-05
6.45294e-05
5.6837e-05
5.81548e-05
6.45324e-05
5.95147e-05
6.64523e-05
6.69178e-05
6.25104e-05
6.25137e-05
6.64503e-05
5.94988e-05
5.81193e-05
6.45308e-05
5.6841e-05
6.28168e-05
5.81419e-05
6.45341e-05
5.68249e-05
5.94985e-05
6.64564e-05
6.25173e-05
6.69241e-05
5.95115e-05
6.25144e-05
6.64586e-05
5.81183e-05
5.68406e-05
6.45291e-05
6.28165e-05
5.81409e-05
5.68246e-05
6.45327e-05
5.9496e-05
6.64509e-05
6.25146e-05
6.69205e-05
5.95089e-05
6.64533e-05
6.25119e-05
6.83091e-05
5.57405e-05
6.1685e-05
6.16874e-05
6.1694e-05
6.16916e-05
6.83101e-05
6.83138e-05
5.5726e-05
6.16948e-05
6.16972e-05
6.1691e-05
6.83122e-05
6.16934e-05
5.81491e-05
6.28116e-05
5.68281e-05
6.453e-05
5.68473e-05
6.4527e-05
5.81232e-05
5.9504e-05
6.25156e-05
6.64496e-05
6.69209e-05
6.25119e-05
5.95172e-05
6.64516e-05
5.81325e-05
6.28139e-05
5.68505e-05
6.4527e-05
5.68358e-05
5.81531e-05
6.45301e-05
5.95132e-05
6.64522e-05
6.69201e-05
6.25117e-05
6.25151e-05
6.645e-05
5.94975e-05
5.81207e-05
5.68416e-05
6.45322e-05
6.28168e-05
5.81433e-05
5.68254e-05
6.4536e-05
5.94996e-05
6.64573e-05
6.25175e-05
6.69242e-05
5.95125e-05
6.25148e-05
6.646e-05
5.81166e-05
5.68397e-05
6.45271e-05
6.28146e-05
5.81393e-05
5.68235e-05
6.45307e-05
5.94947e-05
6.64508e-05
6.25161e-05
6.69232e-05
5.95075e-05
6.64534e-05
6.25134e-05
6.83144e-05
5.57254e-05
6.16954e-05
6.16961e-05
6.83129e-05
6.16916e-05
6.16923e-05
4.08984e-05
5.31703e-05
5.31738e-05
5.5757e-05
4.08987e-05
5.31686e-05
5.31729e-05
5.57429e-05
4.08983e-05
5.31694e-05
5.31735e-05
5.57577e-05
4.08964e-05
5.3169e-05
5.31715e-05
5.57533e-05
4.08872e-05
5.31562e-05
5.31586e-05
5.57316e-05
4.08816e-05
5.31492e-05
5.31519e-05
5.57203e-05
4.08896e-05
5.31608e-05
5.31654e-05
5.57443e-05
4.09005e-05
5.31695e-05
5.31732e-05
5.57519e-05
4.09036e-05
5.31716e-05
5.31747e-05
5.57431e-05
4.09041e-05
5.31732e-05
5.31762e-05
5.57574e-05
4.0904e-05
5.3173e-05
5.31762e-05
5.57581e-05
4.09021e-05
5.31696e-05
5.31727e-05
5.57422e-05
4.09006e-05
5.31684e-05
5.31719e-05
5.57475e-05
4.08994e-05
5.31678e-05
5.31714e-05
5.57544e-05
4.0899e-05
5.31679e-05
5.31714e-05
5.57494e-05
4.08993e-05
5.31683e-05
5.31716e-05
5.57408e-05
4.09004e-05
5.31699e-05
5.31732e-05
5.57454e-05
4.09007e-05
5.31707e-05
5.31738e-05
5.57496e-05
4.08684e-05
5.31615e-05
5.31643e-05
5.57445e-05
4.30678e-05
5.10014e-05
5.10043e-05
5.52992e-05
5.57367e-05
5.31702e-05
5.31657e-05
5.57355e-05
5.31683e-05
5.31687e-05
5.31696e-05
5.31703e-05
5.5736e-05
5.31727e-05
5.31684e-05
5.57355e-05
5.57578e-05
5.57256e-05
5.3171e-05
5.31665e-05
5.31697e-05
5.31647e-05
5.57565e-05
5.57235e-05
5.31692e-05
5.31698e-05
5.31678e-05
5.31685e-05
5.31713e-05
5.31685e-05
5.31697e-05
5.57576e-05
5.57271e-05
5.31695e-05
5.31727e-05
5.31679e-05
5.57268e-05
5.57426e-05
5.57415e-05
5.31698e-05
5.31648e-05
5.31713e-05
5.31662e-05
5.57403e-05
5.5739e-05
5.31679e-05
5.31686e-05
5.31693e-05
5.317e-05
5.31696e-05
5.31701e-05
5.31709e-05
5.57437e-05
5.57424e-05
5.31679e-05
5.31744e-05
5.3169e-05
5.57402e-05
5.5758e-05
5.57307e-05
5.31702e-05
5.31654e-05
5.31693e-05
5.31651e-05
5.57562e-05
5.57302e-05
5.31682e-05
5.31691e-05
5.31671e-05
5.3168e-05
5.31701e-05
5.31691e-05
5.31694e-05
5.57592e-05
5.57317e-05
5.31682e-05
5.31721e-05
5.31673e-05
5.57316e-05
5.57523e-05
5.57144e-05
5.31687e-05
5.31649e-05
5.31584e-05
5.31551e-05
5.57525e-05
5.57155e-05
5.31665e-05
5.31675e-05
5.31563e-05
5.31577e-05
5.31689e-05
5.31596e-05
5.31592e-05
5.57533e-05
5.57156e-05
5.31668e-05
5.31618e-05
5.31572e-05
5.57146e-05
5.57311e-05
5.57039e-05
5.31553e-05
5.31517e-05
5.31494e-05
5.31451e-05
5.57316e-05
5.57039e-05
5.31531e-05
5.31545e-05
5.3147e-05
5.31479e-05
5.31561e-05
5.31494e-05
5.31497e-05
5.57326e-05
5.57046e-05
5.31539e-05
5.31519e-05
5.31472e-05
5.57048e-05
5.57199e-05
5.57239e-05
5.31494e-05
5.31449e-05
5.31574e-05
5.31514e-05
5.57194e-05
5.57213e-05
5.31469e-05
5.31479e-05
5.31558e-05
5.31568e-05
5.31496e-05
5.31559e-05
5.3158e-05
5.57205e-05
5.5725e-05
5.31471e-05
5.31609e-05
5.31565e-05
5.57239e-05
5.57437e-05
5.57332e-05
5.31621e-05
5.31563e-05
5.31699e-05
5.31651e-05
5.5741e-05
5.57321e-05
5.31606e-05
5.31614e-05
5.31677e-05
5.31683e-05
5.31628e-05
5.31689e-05
5.31702e-05
5.5745e-05
5.57325e-05
5.31611e-05
5.31725e-05
5.31683e-05
5.5732e-05
5.57541e-05
5.57241e-05
5.31703e-05
5.31656e-05
5.31699e-05
5.3165e-05
5.57533e-05
5.57226e-05
5.3168e-05
5.31686e-05
5.31679e-05
5.31684e-05
5.31707e-05
5.31697e-05
5.31706e-05
5.57533e-05
5.5725e-05
5.31689e-05
5.31732e-05
5.31688e-05
5.57261e-05
5.57433e-05
5.5741e-05
5.31716e-05
5.31664e-05
5.31737e-05
5.31691e-05
5.57416e-05
5.57399e-05
5.31698e-05
5.31702e-05
5.31714e-05
5.31719e-05
5.31719e-05
5.3173e-05
5.31735e-05
5.57435e-05
5.57411e-05
5.31698e-05
5.3176e-05
5.31714e-05
5.57414e-05
5.57562e-05
5.57381e-05
5.31735e-05
5.3169e-05
5.31735e-05
5.31688e-05
5.57556e-05
5.57364e-05
5.31712e-05
5.31717e-05
5.31715e-05
5.31724e-05
5.31735e-05
5.31732e-05
5.31736e-05
5.57563e-05
5.57391e-05
5.31714e-05
5.31763e-05
5.31715e-05
5.57365e-05
5.57592e-05
5.57238e-05
5.31734e-05
5.31688e-05
5.31698e-05
5.3165e-05
5.57577e-05
5.57223e-05
5.31715e-05
5.31725e-05
5.31676e-05
5.31682e-05
5.31735e-05
5.31693e-05
5.317e-05
5.57602e-05
5.57245e-05
5.31715e-05
5.31726e-05
5.31681e-05
5.57239e-05
5.57427e-05
5.57318e-05
5.31699e-05
5.31651e-05
5.31691e-05
5.31644e-05
5.57414e-05
5.57298e-05
5.31677e-05
5.31682e-05
5.3167e-05
5.31676e-05
5.31702e-05
5.31686e-05
5.31696e-05
5.57432e-05
5.57324e-05
5.31683e-05
5.31719e-05
5.31675e-05
5.57336e-05
5.57459e-05
5.57356e-05
5.31689e-05
5.31644e-05
5.3168e-05
5.31632e-05
5.57441e-05
5.57346e-05
5.31669e-05
5.31677e-05
5.31658e-05
5.31667e-05
5.31693e-05
5.31673e-05
5.31681e-05
5.57466e-05
5.57365e-05
5.31673e-05
5.31708e-05
5.31662e-05
5.57348e-05
5.57549e-05
5.57238e-05
5.31684e-05
5.31636e-05
5.3167e-05
5.31626e-05
5.57522e-05
5.57287e-05
5.31662e-05
5.31672e-05
5.3165e-05
5.31664e-05
5.31687e-05
5.31667e-05
5.31675e-05
5.57535e-05
5.57342e-05
5.31668e-05
5.31705e-05
5.31656e-05
5.57263e-05
5.57466e-05
5.57246e-05
5.31682e-05
5.31636e-05
5.31673e-05
5.31627e-05
5.57506e-05
5.57212e-05
5.31661e-05
5.31672e-05
5.31653e-05
5.31662e-05
5.31685e-05
5.31667e-05
5.31674e-05
5.57549e-05
5.57253e-05
5.31667e-05
5.317e-05
5.31652e-05
5.57223e-05
5.57412e-05
5.57323e-05
5.31688e-05
5.31642e-05
5.3168e-05
5.31632e-05
5.57419e-05
5.57257e-05
5.31667e-05
5.31678e-05
5.31658e-05
5.31664e-05
5.31689e-05
5.31673e-05
5.3168e-05
5.57482e-05
5.57252e-05
5.31667e-05
5.31706e-05
5.31661e-05
5.57304e-05
5.57473e-05
5.57358e-05
5.31705e-05
5.31657e-05
5.31683e-05
5.31634e-05
5.57422e-05
5.57303e-05
5.31684e-05
5.3169e-05
5.31662e-05
5.31667e-05
5.31704e-05
5.31676e-05
5.31682e-05
5.57437e-05
5.57315e-05
5.31685e-05
5.31707e-05