/*--------------------------------*- C++ -*----------------------------------*\
| =========                 |                                                 |
| \\      /  F ield         | OpenFOAM: The Open Source CFD Toolbox           |
|  \\    /   O peration     | Version:  2312                                  |
|   \\  /    A nd           | Website:  www.openfoam.com                      |
|    \\/     M anipulation  |                                                 |
\*---------------------------------------------------------------------------*/
FoamFile
{
    version     2.0;
    format      ascii;
    arch        "LSB;label=32;scalar=64";
    class       volScalarField;
    location    "250";
    object      k;
}
// * * * * * * * * * * * * * * * * * * * * * * * * * * * * * * * * * * * * * //

dimensions      [0 2 -2 0 0 0 0];

internalField   nonuniform List<scalar> 
43211
(
3.60232e-05
3.60198e-05
3.60198e-05
3.60083e-05
3.39295e-05
3.38866e-05
3.38866e-05
3.39612e-05
3.21574e-05
3.20055e-05
3.20055e-05
3.19506e-05
3.05338e-05
3.02267e-05
3.02267e-05
2.99864e-05
2.90318e-05
2.85515e-05
2.85515e-05
2.81202e-05
2.76341e-05
2.69848e-05
2.69847e-05
2.6388e-05
2.63294e-05
2.55287e-05
2.55286e-05
2.48046e-05
2.51097e-05
2.41827e-05
2.41826e-05
2.33754e-05
2.39694e-05
2.29484e-05
2.29483e-05
2.21019e-05
2.29042e-05
2.18247e-05
2.18246e-05
2.09833e-05
2.19105e-05
2.08093e-05
2.08091e-05
2.00106e-05
2.09849e-05
1.98992e-05
1.98991e-05
1.91798e-05
2.01226e-05
1.90927e-05
1.90927e-05
1.84853e-05
1.93223e-05
1.83864e-05
1.83865e-05
1.79302e-05
1.85832e-05
1.77776e-05
1.77774e-05
1.7504e-05
1.79027e-05
1.72636e-05
1.72634e-05
1.71989e-05
1.72783e-05
1.68446e-05
1.68444e-05
1.70206e-05
1.67081e-05
1.65193e-05
1.65192e-05
1.69793e-05
1.61908e-05
1.62878e-05
1.62879e-05
1.70766e-05
1.57239e-05
1.61499e-05
1.61503e-05
1.73018e-05
1.53058e-05
1.61055e-05
1.61058e-05
1.76557e-05
3.62984e-05
3.62919e-05
3.62919e-05
3.62984e-05
3.62919e-05
3.62919e-05
3.62908e-05
3.62908e-05
3.62908e-05
3.62908e-05
3.62919e-05
3.62919e-05
3.62984e-05
3.62919e-05
3.62919e-05
3.62984e-05
3.60083e-05
3.42676e-05
3.60198e-05
3.60198e-05
3.43745e-05
3.43744e-05
3.60083e-05
3.42677e-05
3.60198e-05
3.60198e-05
3.43745e-05
3.43744e-05
3.60198e-05
3.43745e-05
3.43745e-05
3.60083e-05
3.42677e-05
3.60198e-05
3.43745e-05
3.43745e-05
3.42676e-05
3.39612e-05
3.22619e-05
3.38865e-05
3.38865e-05
3.24658e-05
3.24657e-05
3.39612e-05
3.22619e-05
3.38865e-05
3.38865e-05
3.24659e-05
3.24657e-05
3.38865e-05
3.2466e-05
3.24658e-05
3.39612e-05
3.22619e-05
3.38865e-05
3.24659e-05
3.24659e-05
3.22618e-05
3.19506e-05
3.02973e-05
3.20054e-05
3.20053e-05
3.06617e-05
3.06616e-05
3.19506e-05
3.02973e-05
3.20054e-05
3.20052e-05
3.06618e-05
3.06615e-05
3.20053e-05
3.0662e-05
3.06617e-05
3.19506e-05
3.02972e-05
3.20054e-05
3.06619e-05
3.06618e-05
3.02971e-05
2.99865e-05
2.84231e-05
3.02264e-05
3.02263e-05
2.89599e-05
2.89597e-05
2.99865e-05
2.8423e-05
3.02266e-05
3.02262e-05
2.89601e-05
2.89596e-05
3.02264e-05
2.89603e-05
2.89598e-05
2.99864e-05
2.84229e-05
3.02265e-05
2.89602e-05
2.896e-05
2.84228e-05
2.81204e-05
2.66716e-05
2.85511e-05
2.85509e-05
2.73656e-05
2.73653e-05
2.81204e-05
2.66715e-05
2.85514e-05
2.85508e-05
2.73659e-05
2.73652e-05
2.8551e-05
2.73661e-05
2.73655e-05
2.81203e-05
2.66714e-05
2.85513e-05
2.7366e-05
2.73658e-05
2.66712e-05
2.63884e-05
2.50638e-05
2.69842e-05
2.6984e-05
2.58817e-05
2.58815e-05
2.63883e-05
2.50637e-05
2.69846e-05
2.69839e-05
2.58822e-05
2.58813e-05
2.69841e-05
2.58824e-05
2.58816e-05
2.63882e-05
2.50635e-05
2.69844e-05
2.58823e-05
2.5882e-05
2.50634e-05
2.4805e-05
2.361e-05
2.5528e-05
2.55277e-05
2.45079e-05
2.45077e-05
2.4805e-05
2.36099e-05
2.55285e-05
2.55276e-05
2.45085e-05
2.45075e-05
2.55279e-05
2.45087e-05
2.45078e-05
2.48048e-05
2.36097e-05
2.55283e-05
2.45086e-05
2.45083e-05
2.36095e-05
2.33759e-05
2.231e-05
2.41819e-05
2.41816e-05
2.32456e-05
2.32453e-05
2.33758e-05
2.23099e-05
2.41825e-05
2.41814e-05
2.32462e-05
2.32451e-05
2.41817e-05
2.32465e-05
2.32455e-05
2.33756e-05
2.23096e-05
2.41823e-05
2.32464e-05
2.32461e-05
2.23094e-05
2.21024e-05
2.11657e-05
2.29475e-05
2.29472e-05
2.20943e-05
2.2094e-05
2.21023e-05
2.11657e-05
2.29481e-05
2.2947e-05
2.20951e-05
2.20938e-05
2.29473e-05
2.20953e-05
2.20942e-05
2.21022e-05
2.11653e-05
2.2948e-05
2.20952e-05
2.20949e-05
2.1165e-05
2.0984e-05
2.01685e-05
2.18237e-05
2.18234e-05
2.1052e-05
2.10517e-05
2.09837e-05
2.01685e-05
2.18245e-05
2.18232e-05
2.10529e-05
2.10515e-05
2.18236e-05
2.10531e-05
2.10519e-05
2.09835e-05
2.01681e-05
2.18243e-05
2.10529e-05
2.10526e-05
2.01677e-05
2.00114e-05
1.93124e-05
2.08082e-05
2.08079e-05
2.01159e-05
2.01155e-05
2.00115e-05
1.93122e-05
2.0809e-05
2.08077e-05
2.01168e-05
2.01154e-05
2.08081e-05
2.01169e-05
2.01159e-05
2.00109e-05
1.93118e-05
2.08088e-05
2.01168e-05
2.01167e-05
1.93123e-05
1.91799e-05
1.85889e-05
1.98981e-05
1.98978e-05
1.92835e-05
1.92832e-05
1.9179e-05
1.85873e-05
1.9899e-05
1.98977e-05
1.92844e-05
1.92831e-05
1.9898e-05
1.92845e-05
1.92833e-05
1.9179e-05
1.85875e-05
1.98988e-05
1.92845e-05
1.92841e-05
1.85866e-05
1.84878e-05
1.79965e-05
1.90915e-05
1.90914e-05
1.85525e-05
1.85523e-05
1.84871e-05
1.79964e-05
1.90925e-05
1.90913e-05
1.85534e-05
1.85522e-05
1.90914e-05
1.85536e-05
1.85524e-05
1.84878e-05
1.79961e-05
1.90922e-05
1.85535e-05
1.85533e-05
1.7995e-05
1.79312e-05
1.75367e-05
1.83853e-05
1.83851e-05
1.79193e-05
1.79193e-05
1.79322e-05
1.75381e-05
1.83863e-05
1.83852e-05
1.79202e-05
1.79189e-05
1.83853e-05
1.79205e-05
1.79194e-05
1.79322e-05
1.75356e-05
1.83861e-05
1.79202e-05
1.79202e-05
1.75369e-05
1.75037e-05
1.72179e-05
1.77763e-05
1.77764e-05
1.73822e-05
1.73819e-05
1.75055e-05
1.72172e-05
1.77772e-05
1.77762e-05
1.7383e-05
1.73818e-05
1.77764e-05
1.7383e-05
1.7382e-05
1.7504e-05
1.72165e-05
1.77772e-05
1.73829e-05
1.73828e-05
1.72164e-05
1.72004e-05
1.70249e-05
1.72628e-05
1.72626e-05
1.6939e-05
1.6939e-05
1.71998e-05
1.70252e-05
1.72636e-05
1.72624e-05
1.69398e-05
1.6939e-05
1.72628e-05
1.69399e-05
1.69391e-05
1.71986e-05
1.70258e-05
1.72636e-05
1.69399e-05
1.69399e-05
1.70242e-05
1.7021e-05
1.69702e-05
1.68436e-05
1.68438e-05
1.65898e-05
1.659e-05
1.70215e-05
1.69704e-05
1.68444e-05
1.68435e-05
1.65905e-05
1.65899e-05
1.68437e-05
1.65906e-05
1.65901e-05
1.70215e-05
1.69707e-05
1.68445e-05
1.65907e-05
1.65908e-05
1.69704e-05
1.69785e-05
1.70406e-05
1.65184e-05
1.65187e-05
1.63345e-05
1.63346e-05
1.6979e-05
1.70405e-05
1.65192e-05
1.65185e-05
1.63351e-05
1.63348e-05
1.65186e-05
1.6335e-05
1.63349e-05
1.6979e-05
1.7041e-05
1.65193e-05
1.63353e-05
1.63356e-05
1.70418e-05
1.70751e-05
1.72405e-05
1.62872e-05
1.62874e-05
1.6173e-05
1.61731e-05
1.7075e-05
1.72406e-05
1.62878e-05
1.62874e-05
1.61736e-05
1.61734e-05
1.62873e-05
1.61733e-05
1.61735e-05
1.70758e-05
1.72407e-05
1.6288e-05
1.61736e-05
1.61742e-05
1.72425e-05
1.72998e-05
1.75696e-05
1.61496e-05
1.61497e-05
1.61051e-05
1.61054e-05
1.72992e-05
1.75708e-05
1.61502e-05
1.615e-05
1.61056e-05
1.61056e-05
1.61497e-05
1.61054e-05
1.61056e-05
1.73004e-05
1.75698e-05
1.61504e-05
1.61056e-05
1.61062e-05
1.75718e-05
1.76531e-05
1.61053e-05
1.61055e-05
1.76532e-05
1.61058e-05
1.61058e-05
1.61057e-05
1.76537e-05
1.61063e-05
3.73769e-05
3.73764e-05
3.73767e-05
3.73767e-05
3.73694e-05
3.73756e-05
3.73043e-05
3.73764e-05
3.73695e-05
3.73756e-05
3.73764e-05
3.73043e-05
3.73714e-05
3.72959e-05
3.72959e-05
3.58829e-05
4.08678e-05
3.6601e-05
4.51385e-05
5.51099e-05
6.48883e-05
3.58835e-05
4.08674e-05
3.66009e-05
4.51412e-05
3.60232e-05
3.60232e-05
3.60232e-05
3.44005e-05
3.44005e-05
3.44005e-05
3.44005e-05
3.52763e-05
3.56382e-05
3.60241e-05
3.53761e-05
3.60479e-05
3.42427e-05
3.53827e-05
5.51119e-05
6.489e-05
3.52764e-05
3.60241e-05
3.56379e-05
3.53761e-05
3.60478e-05
3.53827e-05
3.42432e-05
3.65941e-05
3.65948e-05
3.52782e-05
3.40673e-05
3.40664e-05
3.39695e-05
5.13493e-05
3.46835e-05
5.46194e-05
7.65442e-05
8.08619e-05
3.39704e-05
5.13498e-05
3.46829e-05
5.46227e-05
3.39295e-05
3.39295e-05
3.39295e-05
3.25851e-05
3.25851e-05
3.25851e-05
3.25851e-05
3.30546e-05
3.24826e-05
3.3929e-05
3.34062e-05
3.38971e-05
3.15832e-05
3.34673e-05
7.65468e-05
8.08628e-05
3.30547e-05
3.3929e-05
3.24821e-05
3.34062e-05
3.3897e-05
3.34673e-05
3.15844e-05
3.17215e-05
3.17218e-05
3.32624e-05
3.09281e-05
3.09264e-05
3.22516e-05
5.91652e-05
3.29222e-05
6.14361e-05
8.43927e-05
8.5069e-05
3.22515e-05
5.9167e-05
3.2922e-05
6.14393e-05
3.21574e-05
3.21574e-05
3.21574e-05
3.09274e-05
3.09274e-05
3.09274e-05
3.09274e-05
3.07891e-05
3.05187e-05
3.21369e-05
3.15514e-05
3.1637e-05
2.98912e-05
3.17094e-05
8.4394e-05
8.50696e-05
3.07893e-05
3.21369e-05
3.0518e-05
3.15514e-05
3.16368e-05
3.17094e-05
2.98911e-05
3.02183e-05
3.02181e-05
3.12712e-05
3.00046e-05
3.0004e-05
3.07526e-05
6.43452e-05
3.13494e-05
6.5723e-05
8.46119e-05
8.39134e-05
3.07527e-05
6.43481e-05
3.13494e-05
6.57258e-05
3.05338e-05
3.05338e-05
3.05338e-05
2.93969e-05
2.93969e-05
2.93969e-05
2.93969e-05
2.85999e-05
2.9145e-05
3.04686e-05
2.97979e-05
2.94127e-05
2.86779e-05
3.00678e-05
8.46131e-05
8.39123e-05
2.86002e-05
3.04685e-05
2.9145e-05
2.97979e-05
2.94124e-05
3.00678e-05
2.86779e-05
2.99406e-05
2.99405e-05
2.9346e-05
3.00348e-05
3.00348e-05
2.95173e-05
6.7315e-05
2.99995e-05
6.8031e-05
8.22131e-05
8.12231e-05
2.95174e-05
6.73176e-05
2.99996e-05
6.80334e-05
2.90317e-05
2.90317e-05
2.90317e-05
2.79744e-05
2.79744e-05
2.79743e-05
2.79743e-05
2.65667e-05
2.81251e-05
2.89017e-05
2.81495e-05
2.73166e-05
2.77832e-05
2.85246e-05
8.22142e-05
8.12214e-05
2.65672e-05
2.89016e-05
2.81252e-05
2.81494e-05
2.73162e-05
2.85246e-05
2.77833e-05
3.04347e-05
3.04376e-05
2.75304e-05
3.07771e-05
3.07756e-05
2.86034e-05
6.87382e-05
2.89462e-05
6.90337e-05
7.94332e-05
7.85353e-05
2.86035e-05
6.87404e-05
2.89463e-05
6.90356e-05
2.7634e-05
2.7634e-05
2.7634e-05
2.66473e-05
2.66472e-05
2.66472e-05
2.66472e-05
2.47426e-05
2.74072e-05
2.74276e-05
2.66103e-05
2.54135e-05
2.71924e-05
2.70731e-05
7.94347e-05
7.85333e-05
2.47432e-05
2.74275e-05
2.74074e-05
2.66103e-05
2.54129e-05
2.7073e-05
2.71925e-05
3.15621e-05
3.15634e-05
2.58484e-05
3.21328e-05
3.21334e-05
2.80578e-05
6.92485e-05
2.82433e-05
6.93097e-05
7.7003e-05
7.62896e-05
2.8058e-05
6.92501e-05
2.82435e-05
6.93111e-05
2.63293e-05
2.63293e-05
2.63293e-05
2.5407e-05
2.54069e-05
2.54069e-05
2.54069e-05
2.31627e-05
2.70017e-05
2.60433e-05
2.51817e-05
2.37458e-05
2.69217e-05
2.5711e-05
7.70045e-05
7.62874e-05
2.31634e-05
2.60431e-05
2.7002e-05
2.51817e-05
2.37451e-05
2.5711e-05
2.69217e-05
3.31795e-05
3.31821e-05
2.43172e-05
3.39236e-05
3.39264e-05
2.79127e-05
6.92987e-05
2.79263e-05
6.92709e-05
7.50713e-05
7.45366e-05
2.7913e-05
6.92999e-05
2.79266e-05
6.9272e-05
2.51097e-05
2.51096e-05
2.51096e-05
2.42473e-05
2.42472e-05
2.42471e-05
2.42471e-05
2.18456e-05
2.69338e-05
2.47477e-05
2.38636e-05
2.23364e-05
2.6982e-05
2.44375e-05
7.50729e-05
7.45351e-05
2.18461e-05
2.47475e-05
2.69339e-05
2.38635e-05
2.23359e-05
2.44374e-05
2.69824e-05
3.51694e-05
3.51721e-05
2.29395e-05
3.60217e-05
3.60249e-05
2.81573e-05
6.9198e-05
2.80302e-05
6.9165e-05
7.36071e-05
7.32116e-05
2.81577e-05
6.91988e-05
2.80305e-05
6.91659e-05
2.39694e-05
2.39693e-05
2.39693e-05
2.31636e-05
2.31636e-05
2.31635e-05
2.31635e-05
2.07997e-05
2.71996e-05
2.35398e-05
2.26571e-05
2.11947e-05
2.73539e-05
2.32509e-05
7.3607e-05
7.32117e-05
2.08e-05
2.35396e-05
2.71997e-05
2.2657e-05
2.11943e-05
2.32508e-05
2.73547e-05
3.74278e-05
3.74324e-05
2.17182e-05
3.83393e-05
3.83431e-05
2.8824e-05
6.91158e-05
2.8553e-05
6.91054e-05
7.2528e-05
7.22413e-05
2.88249e-05
6.91164e-05
2.85534e-05
6.91059e-05
2.29042e-05
2.29041e-05
2.29041e-05
2.21523e-05
2.21522e-05
2.21521e-05
2.21521e-05
2.00269e-05
2.7779e-05
2.2416e-05
2.15607e-05
2.03177e-05
2.80332e-05
2.21479e-05
7.25278e-05
7.22417e-05
2.0027e-05
2.24157e-05
2.77801e-05
2.15606e-05
2.03175e-05
2.21477e-05
2.80333e-05
3.98192e-05
3.98255e-05
2.06484e-05
4.07743e-05
4.078e-05
2.9936e-05
6.91037e-05
2.94704e-05
6.91191e-05
7.17498e-05
7.15485e-05
2.99371e-05
6.91042e-05
2.94702e-05
6.91193e-05
2.19104e-05
2.19103e-05
2.19103e-05
2.12099e-05
2.12098e-05
2.12097e-05
2.12097e-05
1.95207e-05
2.86489e-05
2.13757e-05
2.05719e-05
1.97021e-05
2.89911e-05
2.11286e-05
7.17507e-05
7.15479e-05
1.95209e-05
2.13755e-05
2.86471e-05
2.05719e-05
1.97021e-05
2.11285e-05
2.89937e-05
4.22839e-05
4.22918e-05
1.97225e-05
4.31306e-05
4.31361e-05
3.14482e-05
6.91541e-05
3.08e-05
6.91921e-05
7.12013e-05
7.10617e-05
3.14487e-05
6.91545e-05
3.08006e-05
6.91923e-05
2.09849e-05
2.09848e-05
2.09847e-05
2.03324e-05
2.03324e-05
2.03322e-05
2.03322e-05
1.92792e-05
2.97681e-05
2.04188e-05
1.96879e-05
1.93508e-05
3.01967e-05
2.0192e-05
7.12012e-05
7.10613e-05
1.92794e-05
2.04185e-05
2.97719e-05
1.96877e-05
1.93509e-05
2.01919e-05
3.01963e-05
4.4576e-05
4.45827e-05
1.89328e-05
4.55439e-05
4.55523e-05
3.33246e-05
6.92502e-05
3.25312e-05
6.92961e-05
7.08181e-05
7.07217e-05
3.3325e-05
6.92505e-05
3.25317e-05
6.92964e-05
2.01225e-05
2.01224e-05
2.01224e-05
1.95164e-05
1.95164e-05
1.95162e-05
1.95162e-05
1.92969e-05
3.11137e-05
1.95421e-05
1.89067e-05
1.92655e-05
3.15923e-05
1.9335e-05
7.08178e-05
7.07218e-05
1.92971e-05
1.95418e-05
3.11158e-05
1.89066e-05
1.92657e-05
1.93348e-05
3.15935e-05
4.68845e-05
4.68933e-05
1.82758e-05
4.77308e-05
4.77387e-05
3.55249e-05
6.93615e-05
3.46093e-05
6.94085e-05
7.05484e-05
7.04822e-05
3.55262e-05
6.93619e-05
3.4609e-05
6.94089e-05
1.93223e-05
1.93222e-05
1.93221e-05
1.87622e-05
1.87622e-05
1.8762e-05
1.87621e-05
1.95656e-05
3.26178e-05
1.87428e-05
1.82249e-05
1.94487e-05
3.31438e-05
1.85546e-05
7.05496e-05
7.04816e-05
1.9566e-05
1.87426e-05
3.26188e-05
1.82249e-05
1.94489e-05
1.85545e-05
3.31481e-05
4.89597e-05
4.89664e-05
1.77488e-05
4.97548e-05
4.97652e-05
3.79685e-05
6.94708e-05
3.69592e-05
6.95147e-05
7.03559e-05
7.03037e-05
3.79691e-05
6.94711e-05
3.69594e-05
6.95152e-05
1.85832e-05
1.85831e-05
1.85831e-05
1.80673e-05
1.80672e-05
1.80671e-05
1.80671e-05
2.00907e-05
3.42424e-05
1.80184e-05
1.76398e-05
1.98884e-05
3.47923e-05
1.78486e-05
7.0356e-05
7.03039e-05
2.00909e-05
1.80182e-05
3.42409e-05
1.76399e-05
1.98888e-05
1.78485e-05
3.47941e-05
5.0869e-05
5.08778e-05
1.73599e-05
5.1546e-05
5.15562e-05
4.05442e-05
6.95708e-05
3.94975e-05
6.96113e-05
7.02021e-05
7.01689e-05
4.05443e-05
6.95713e-05
3.94979e-05
6.96119e-05
1.79026e-05
1.79025e-05
1.79025e-05
1.7429e-05
1.7429e-05
1.74288e-05
1.74288e-05
2.08641e-05
3.59294e-05
1.73666e-05
1.71493e-05
2.05806e-05
3.6486e-05
1.72146e-05
7.02021e-05
7.01694e-05
2.08644e-05
1.73663e-05
3.59287e-05
1.71493e-05
2.0581e-05
1.72145e-05
3.64857e-05
5.25275e-05
5.25376e-05
1.71016e-05
5.31832e-05
5.31922e-05
4.31481e-05
6.96615e-05
4.21033e-05
6.96994e-05
7.00833e-05
7.00518e-05
4.31489e-05
6.96621e-05
4.21034e-05
6.97002e-05
1.72783e-05
1.72781e-05
1.72781e-05
1.68454e-05
1.68454e-05
1.68453e-05
1.68453e-05
2.18727e-05
3.76249e-05
1.67864e-05
1.67539e-05
2.15135e-05
3.81891e-05
1.66521e-05
7.00832e-05
7.00521e-05
2.18732e-05
1.67863e-05
3.76255e-05
1.67538e-05
2.15139e-05
1.6652e-05
3.81884e-05
5.4002e-05
5.40106e-05
1.6979e-05
5.4592e-05
5.46022e-05
4.56721e-05
6.97456e-05
4.46636e-05
6.97809e-05
6.99792e-05
6.99464e-05
4.56723e-05
6.97462e-05
4.4664e-05
6.97818e-05
1.67081e-05
1.6708e-05
1.6708e-05
1.6315e-05
1.6315e-05
1.63149e-05
1.63149e-05
2.30951e-05
3.92985e-05
1.62758e-05
1.64518e-05
2.26681e-05
3.98519e-05
1.61585e-05
6.99794e-05
6.99465e-05
2.30958e-05
1.62756e-05
3.92999e-05
1.64517e-05
2.26685e-05
1.61584e-05
3.98513e-05
5.53074e-05
5.53168e-05
1.69892e-05
5.58031e-05
5.58132e-05
4.80222e-05
6.98248e-05
4.70836e-05
6.98583e-05
6.9882e-05
6.98518e-05
4.80229e-05
6.98255e-05
4.70837e-05
6.98592e-05
1.61908e-05
1.61907e-05
1.61907e-05
1.58357e-05
1.58357e-05
1.58356e-05
1.58357e-05
2.45001e-05
4.09156e-05
1.58331e-05
1.62434e-05
2.40169e-05
4.14433e-05
1.57327e-05
6.98819e-05
6.98515e-05
2.4501e-05
1.5833e-05
4.09178e-05
1.62433e-05
2.40174e-05
1.57326e-05
4.14429e-05
5.64322e-05
5.64409e-05
1.71257e-05
5.68588e-05
5.68687e-05
5.01329e-05
6.99001e-05
4.9289e-05
6.99319e-05
6.97915e-05
6.97648e-05
5.01334e-05
6.99009e-05
4.92894e-05
6.99328e-05
1.57239e-05
1.57238e-05
1.57239e-05
1.54057e-05
1.54057e-05
1.54056e-05
1.54057e-05
2.60478e-05
4.24479e-05
1.5458e-05
1.61286e-05
2.55224e-05
4.29428e-05
1.53744e-05
6.9791e-05
6.97643e-05
2.60489e-05
1.5458e-05
4.24508e-05
1.61285e-05
2.55229e-05
1.53744e-05
4.29448e-05
5.74029e-05
5.7412e-05
1.73902e-05
5.77804e-05
5.77902e-05
5.19732e-05
6.9971e-05
5.1237e-05
7.00006e-05
6.97064e-05
6.96835e-05
5.19737e-05
6.99718e-05
5.12368e-05
7.00016e-05
1.53058e-05
1.53058e-05
1.53058e-05
2.76932e-05
4.3882e-05
1.51504e-05
1.61087e-05
2.71407e-05
4.43393e-05
1.50834e-05
6.97066e-05
2.76941e-05
1.51504e-05
4.38794e-05
2.71414e-05
1.50835e-05
5.82563e-05
5.82653e-05
1.77819e-05
5.85849e-05
5.85945e-05
3.73714e-05
3.72958e-05
3.72959e-05
5.31077e-05
3.71932e-05
5.31099e-05
3.71933e-05
3.70971e-05
3.72391e-05
3.72387e-05
3.71762e-05
3.71762e-05
3.73695e-05
3.73756e-05
3.73042e-05
3.73764e-05
3.73695e-05
3.73756e-05
3.73042e-05
3.73764e-05
3.71731e-05
3.94089e-05
3.7168e-05
3.67245e-05
3.71731e-05
3.9409e-05
3.7168e-05
3.67242e-05
3.70969e-05
3.71056e-05
3.60251e-05
3.62911e-05
3.71635e-05
3.71112e-05
3.63053e-05
3.70969e-05
3.71056e-05
3.60253e-05
3.62911e-05
3.71635e-05
3.71112e-05
3.63053e-05
3.73714e-05
3.72958e-05
3.72959e-05
5.3109e-05
3.71932e-05
3.70971e-05
3.72392e-05
3.72382e-05
3.71762e-05
3.71762e-05
5.31102e-05
3.71932e-05
3.73695e-05
3.73756e-05
3.73042e-05
3.73764e-05
3.73695e-05
3.73756e-05
3.73764e-05
3.73043e-05
3.71731e-05
3.94096e-05
3.7168e-05
3.67245e-05
3.70969e-05
3.71056e-05
3.60249e-05
3.62911e-05
3.71635e-05
3.71112e-05
3.63053e-05
3.71731e-05
3.94095e-05
3.7168e-05
3.67243e-05
3.70969e-05
3.71056e-05
3.62911e-05
3.60247e-05
3.71112e-05
3.71635e-05
3.63053e-05
3.73769e-05
3.73764e-05
3.73767e-05
3.73767e-05
3.73769e-05
3.73764e-05
3.73767e-05
3.73767e-05
3.73769e-05
3.73764e-05
3.73767e-05
3.73767e-05
3.71135e-05
3.71094e-05
3.62924e-05
3.62924e-05
3.71126e-05
3.71126e-05
3.62946e-05
3.71135e-05
3.71094e-05
3.62924e-05
3.62924e-05
3.71126e-05
3.71126e-05
3.62946e-05
3.71135e-05
3.71094e-05
3.62924e-05
3.62924e-05
3.71126e-05
3.71126e-05
3.62946e-05
3.71135e-05
3.71094e-05
3.62924e-05
3.62924e-05
3.71126e-05
3.71126e-05
3.62946e-05
3.73694e-05
3.73756e-05
3.73764e-05
3.73043e-05
3.70969e-05
3.71056e-05
3.60247e-05
3.62911e-05
3.71635e-05
3.71112e-05
3.63052e-05
3.71731e-05
3.94098e-05
3.7168e-05
3.67245e-05
3.70969e-05
3.71056e-05
3.62911e-05
3.6025e-05
3.71112e-05
3.71635e-05
3.63052e-05
3.71731e-05
3.94095e-05
3.7168e-05
3.67243e-05
3.73714e-05
3.72959e-05
3.72959e-05
5.31106e-05
3.71933e-05
3.70971e-05
3.72384e-05
3.72384e-05
3.71762e-05
3.71762e-05
5.311e-05
3.71932e-05
3.73695e-05
3.73756e-05
3.73764e-05
3.73043e-05
3.70969e-05
3.71056e-05
3.62911e-05
3.6025e-05
3.71112e-05
3.71635e-05
3.63053e-05
3.70969e-05
3.71056e-05
3.62911e-05
3.60251e-05
3.71112e-05
3.71635e-05
3.63053e-05
3.71731e-05
3.94096e-05
3.7168e-05
3.67246e-05
3.71731e-05
3.941e-05
3.7168e-05
3.67245e-05
3.70971e-05
3.72392e-05
3.72391e-05
3.71762e-05
3.71762e-05
5.3111e-05
3.71933e-05
5.31115e-05
3.71933e-05
5.51085e-05
6.48866e-05
5.51106e-05
6.48892e-05
3.65939e-05
3.65954e-05
3.52782e-05
3.40672e-05
3.40659e-05
7.47268e-05
6.7665e-05
7.47304e-05
6.76688e-05
3.49723e-05
3.20468e-05
3.20445e-05
3.34737e-05
3.34752e-05
3.58829e-05
4.08673e-05
3.66008e-05
4.51419e-05
3.52764e-05
3.5638e-05
3.60241e-05
3.53761e-05
3.60478e-05
3.42434e-05
3.53827e-05
3.52764e-05
3.56378e-05
3.60241e-05
3.53761e-05
3.60477e-05
3.42434e-05
3.53827e-05
3.56373e-05
5.02094e-05
4.6449e-05
3.48989e-05
3.5637e-05
5.02127e-05
4.64491e-05
3.48987e-05
3.50001e-05
3.48708e-05
3.27402e-05
3.44014e-05
3.38708e-05
3.48856e-05
3.41809e-05
3.5e-05
3.48708e-05
3.27402e-05
3.44014e-05
3.38705e-05
3.48856e-05
3.41808e-05
3.65948e-05
3.65954e-05
3.52782e-05
3.4067e-05
3.40655e-05
5.51108e-05
6.48891e-05
7.47291e-05
6.76672e-05
3.49723e-05
3.20464e-05
3.20448e-05
3.34743e-05
3.34754e-05
7.47292e-05
6.76682e-05
3.52765e-05
3.5638e-05
3.60241e-05
3.53761e-05
3.60478e-05
3.42428e-05
3.53827e-05
3.58833e-05
4.08688e-05
3.66005e-05
4.51412e-05
3.52764e-05
3.60241e-05
3.56382e-05
3.53761e-05
3.60477e-05
3.53827e-05
3.42428e-05
3.56367e-05
5.02125e-05
4.64491e-05
3.48994e-05
3.5e-05
3.48708e-05
3.27391e-05
3.44014e-05
3.38709e-05
3.48856e-05
3.41809e-05
3.56363e-05
5.0213e-05
4.64511e-05
3.48991e-05
3.5e-05
3.48708e-05
3.44014e-05
3.2739e-05
3.48856e-05
3.38708e-05
3.41808e-05
3.58826e-05
4.08675e-05
3.66012e-05
4.51409e-05
3.52764e-05
3.60241e-05
3.56381e-05
3.53762e-05
3.60478e-05
3.53827e-05
3.42432e-05
3.58828e-05
4.08689e-05
3.66007e-05
4.51402e-05
3.50003e-05
3.48708e-05
3.27394e-05
3.44014e-05
3.3871e-05
3.48856e-05
3.41807e-05
3.56377e-05
5.02116e-05
4.64493e-05
3.48978e-05
3.50001e-05
3.48708e-05
3.44014e-05
3.27404e-05
3.48856e-05
3.38707e-05
3.41807e-05
3.5637e-05
5.02126e-05
4.64516e-05
3.48983e-05
3.65956e-05
3.65947e-05
3.52782e-05
3.40661e-05
3.40664e-05
5.51109e-05
6.48886e-05
7.47305e-05
6.76702e-05
3.49723e-05
3.20446e-05
3.20456e-05
3.34745e-05
3.34744e-05
7.47289e-05
6.7668e-05
3.52764e-05
3.60241e-05
3.56381e-05
3.53761e-05
3.60478e-05
3.53827e-05
3.42431e-05
3.58831e-05
4.08677e-05
3.6601e-05
4.51408e-05
3.5883e-05
4.08687e-05
3.66007e-05
4.51426e-05
3.50002e-05
3.48708e-05
3.44014e-05
3.274e-05
3.48856e-05
3.38707e-05
3.41808e-05
3.5e-05
3.48708e-05
3.44014e-05
3.27398e-05
3.48856e-05
3.38708e-05
3.41808e-05
3.56372e-05
5.02107e-05
4.64491e-05
3.48986e-05
3.56369e-05
5.02126e-05
4.64514e-05
3.48993e-05
5.51118e-05
6.48899e-05
5.51124e-05
6.48907e-05
3.49723e-05
3.20471e-05
3.20454e-05
3.34742e-05
3.34743e-05
7.47305e-05
6.76693e-05
7.47312e-05
6.76709e-05
7.65417e-05
8.08591e-05
7.65458e-05
8.08621e-05
3.1721e-05
3.1722e-05
3.32624e-05
3.09278e-05
3.0925e-05
8.40044e-05
8.18473e-05
8.40073e-05
8.18521e-05
3.29533e-05
3.03113e-05
3.03091e-05
3.07476e-05
3.07485e-05
3.39695e-05
5.13498e-05
3.46831e-05
5.46224e-05
3.30548e-05
3.24822e-05
3.3929e-05
3.34061e-05
3.38968e-05
3.15846e-05
3.34673e-05
3.30547e-05
3.2482e-05
3.3929e-05
3.34061e-05
3.38967e-05
3.15843e-05
3.34673e-05
3.37813e-05
5.83638e-05
5.55937e-05
3.30857e-05
3.37805e-05
5.83666e-05
5.55946e-05
3.30852e-05
3.27695e-05
3.29327e-05
3.06568e-05
3.2572e-05
3.13982e-05
3.30152e-05
3.19187e-05
3.27693e-05
3.29326e-05
3.06566e-05
3.2572e-05
3.13975e-05
3.30152e-05
3.19185e-05
3.17218e-05
3.17227e-05
3.32625e-05
3.09275e-05
3.09256e-05
7.65441e-05
8.08605e-05
8.40069e-05
8.18501e-05
3.29533e-05
3.03108e-05
3.03097e-05
3.07479e-05
3.07498e-05
8.40057e-05
8.18504e-05
3.30548e-05
3.24824e-05
3.3929e-05
3.34062e-05
3.38967e-05
3.15827e-05
3.34673e-05
3.39705e-05
5.13519e-05
3.46826e-05
5.4624e-05
3.30547e-05
3.3929e-05
3.24819e-05
3.34061e-05
3.38966e-05
3.34673e-05
3.15835e-05
3.37802e-05
5.83673e-05
5.55953e-05
3.30854e-05
3.27695e-05
3.29327e-05
3.06554e-05
3.2572e-05
3.13987e-05
3.30152e-05
3.19186e-05
3.37797e-05
5.83684e-05
5.55965e-05
3.3085e-05
3.27693e-05
3.29326e-05
3.2572e-05
3.06561e-05
3.30152e-05
3.13975e-05
3.19184e-05
3.39688e-05
5.13503e-05
3.46851e-05
5.46217e-05
3.30547e-05
3.3929e-05
3.24822e-05
3.34062e-05
3.38968e-05
3.34673e-05
3.15846e-05
3.397e-05
5.13516e-05
3.4684e-05
5.46234e-05
3.27699e-05
3.29328e-05
3.0656e-05
3.2572e-05
3.1399e-05
3.30153e-05
3.19185e-05
3.37829e-05
5.83669e-05
5.55948e-05
3.30835e-05
3.27695e-05
3.29327e-05
3.2572e-05
3.06568e-05
3.30152e-05
3.13977e-05
3.19185e-05
3.37808e-05
5.8368e-05
5.55961e-05
3.30853e-05
3.17216e-05
3.17219e-05
3.32624e-05
3.09259e-05
3.09268e-05
7.65444e-05
8.08613e-05
8.40078e-05
8.1852e-05
3.29533e-05
3.03105e-05
3.03101e-05
3.07476e-05
3.07483e-05
8.40062e-05
8.18501e-05
3.30547e-05
3.3929e-05
3.2482e-05
3.34062e-05
3.38967e-05
3.34673e-05
3.1584e-05
3.39695e-05
5.13507e-05
3.46843e-05
5.46215e-05
3.39702e-05
5.13533e-05
3.4683e-05
5.46235e-05
3.27697e-05
3.29328e-05
3.2572e-05
3.06567e-05
3.30152e-05
3.13981e-05
3.19186e-05
3.27694e-05
3.29328e-05
3.2572e-05
3.06566e-05
3.30152e-05
3.13979e-05
3.19185e-05
3.37823e-05
5.83666e-05
5.55947e-05
3.30838e-05
3.37803e-05
5.83692e-05
5.55973e-05
3.30853e-05
7.65456e-05
8.08626e-05
7.65475e-05
8.08634e-05
3.29533e-05
3.03117e-05
3.03107e-05
3.0748e-05
3.07478e-05
8.40074e-05
8.1851e-05
8.40082e-05
8.18525e-05
8.43904e-05
8.50671e-05
8.43943e-05
8.50698e-05
3.0218e-05
3.02176e-05
3.12714e-05
3.00043e-05
3.00033e-05
8.48435e-05
8.50717e-05
8.48454e-05
8.50742e-05
3.09593e-05
2.99294e-05
2.99285e-05
2.99696e-05
2.99686e-05
3.22511e-05
5.91657e-05
3.29218e-05
6.14382e-05
3.07893e-05
3.05181e-05
3.21369e-05
3.15513e-05
3.16366e-05
2.98912e-05
3.17094e-05
3.07891e-05
3.05178e-05
3.21369e-05
3.15511e-05
3.16364e-05
2.98908e-05
3.17094e-05
3.21121e-05
6.38687e-05
6.20684e-05
3.14721e-05
3.21116e-05
6.38702e-05
6.20694e-05
3.14717e-05
3.05135e-05
3.11034e-05
2.92404e-05
3.08756e-05
2.97792e-05
3.12891e-05
2.96796e-05
3.05132e-05
3.11033e-05
2.924e-05
3.08755e-05
2.97789e-05
3.1289e-05
2.96794e-05
3.02183e-05
3.02189e-05
3.12713e-05
3.0004e-05
3.00041e-05
8.43927e-05
8.50686e-05
8.48446e-05
8.50732e-05
3.09593e-05
2.99294e-05
2.99293e-05
2.99696e-05
2.99696e-05
8.48446e-05
8.50731e-05
3.07892e-05
3.05181e-05
3.21369e-05
3.15513e-05
3.16365e-05
2.98907e-05
3.17094e-05
3.22511e-05
5.9168e-05
3.29216e-05
6.144e-05
3.0789e-05
3.21369e-05
3.05174e-05
3.15511e-05
3.16363e-05
3.17094e-05
2.98905e-05
3.2112e-05
6.38716e-05
6.2071e-05
3.14721e-05
3.05134e-05
3.11035e-05
2.924e-05
3.08755e-05
2.97788e-05
3.12891e-05
2.96795e-05
3.21116e-05
6.38722e-05
6.20719e-05
3.14717e-05
3.05132e-05
3.11032e-05
3.08755e-05
2.92397e-05
3.1289e-05
2.97786e-05
2.96793e-05
3.225e-05
5.91663e-05
3.29249e-05
6.14388e-05
3.07891e-05
3.21369e-05
3.0518e-05
3.15512e-05
3.16366e-05
3.17094e-05
2.9891e-05
3.22514e-05
5.91675e-05
3.29222e-05
6.14397e-05
3.05139e-05
3.11036e-05
2.92404e-05
3.08756e-05
2.97793e-05
3.12891e-05
2.96794e-05
3.21138e-05
6.38711e-05
6.20703e-05
3.14717e-05
3.05135e-05
3.11034e-05
3.08755e-05
2.92402e-05
3.12891e-05
2.97791e-05
2.96793e-05
3.2112e-05
6.38715e-05
6.20711e-05
3.1472e-05
3.02178e-05
3.02187e-05
3.12713e-05
3.00037e-05
3.00035e-05
8.43925e-05
8.50685e-05
8.48451e-05
8.50739e-05
3.09593e-05
2.99292e-05
2.99291e-05
2.99693e-05
2.99698e-05
8.48444e-05
8.5073e-05
3.07891e-05
3.21369e-05
3.05179e-05
3.15513e-05
3.16364e-05
3.17094e-05
2.9891e-05
3.22506e-05
5.91662e-05
3.29242e-05
6.14384e-05
3.22513e-05
5.91689e-05
3.2922e-05
6.14408e-05
3.05136e-05
3.11036e-05
3.08756e-05
2.92403e-05
3.12891e-05
2.97792e-05
2.96796e-05
3.05132e-05
3.11035e-05
3.08755e-05
2.92402e-05
3.1289e-05
2.97791e-05
2.96794e-05
3.21131e-05
6.38708e-05
6.20704e-05
3.14726e-05
3.21119e-05
6.38727e-05
6.20726e-05
3.1472e-05
8.43934e-05
8.50694e-05
8.43944e-05
8.50699e-05
3.09593e-05
2.99298e-05
2.99295e-05
2.99699e-05
2.99697e-05
8.4845e-05
8.50737e-05
8.48452e-05
8.50741e-05
8.46115e-05
8.3912e-05
8.46132e-05
8.39131e-05
2.99403e-05
2.99394e-05
2.93463e-05
3.00344e-05
3.00337e-05
8.2624e-05
8.3549e-05
8.26243e-05
8.355e-05
2.90385e-05
3.03194e-05
3.03193e-05
3.0107e-05
3.01063e-05
3.07522e-05
6.43461e-05
3.1349e-05
6.57237e-05
2.86002e-05
2.9145e-05
3.04685e-05
2.97976e-05
2.94124e-05
2.8678e-05
3.00678e-05
2.86e-05
2.91446e-05
3.04685e-05
2.97974e-05
2.94121e-05
2.86776e-05
3.00677e-05
3.06413e-05
6.70812e-05
6.60666e-05
3.00983e-05
3.0641e-05
6.70816e-05
6.60673e-05
3.0098e-05
2.83436e-05
2.93754e-05
2.81933e-05
2.92845e-05
2.85967e-05
2.96732e-05
2.75605e-05
2.83433e-05
2.93753e-05
2.8193e-05
2.92844e-05
2.85964e-05
2.96731e-05
2.75602e-05
2.99403e-05
2.99402e-05
2.93463e-05
3.00345e-05
3.00343e-05
8.46125e-05
8.39128e-05
8.2625e-05
8.35487e-05
2.90385e-05
3.03185e-05
3.03173e-05
3.01071e-05
3.01069e-05
8.26242e-05
8.35495e-05
2.86001e-05
2.91446e-05
3.04685e-05
2.97978e-05
2.94122e-05
2.86776e-05
3.00678e-05
3.07523e-05
6.43485e-05
3.1349e-05
6.57257e-05
2.85998e-05
3.04685e-05
2.91444e-05
2.97974e-05
2.9412e-05
3.00677e-05
2.86774e-05
3.06414e-05
6.70839e-05
6.60694e-05
3.00985e-05
2.83434e-05
2.93756e-05
2.8193e-05
2.92844e-05
2.85963e-05
2.96731e-05
2.75603e-05
3.06411e-05
6.70836e-05
6.60696e-05
3.00981e-05
2.83432e-05
2.93752e-05
2.92843e-05
2.81928e-05
2.9673e-05
2.85961e-05
2.75601e-05
3.07523e-05
6.43476e-05
3.13498e-05
6.57254e-05
2.85999e-05
3.04685e-05
2.91448e-05
2.97976e-05
2.94123e-05
3.00678e-05
2.86777e-05
3.07525e-05
6.43481e-05
3.13493e-05
6.57257e-05
2.83439e-05
2.93758e-05
2.81932e-05
2.92845e-05
2.85967e-05
2.96732e-05
2.75601e-05
3.06416e-05
6.70838e-05
6.60686e-05
3.0098e-05
2.83435e-05
2.93754e-05
2.92844e-05
2.81931e-05
2.96731e-05
2.85964e-05
2.75601e-05
3.06413e-05
6.70831e-05
6.60689e-05
3.00983e-05
2.99401e-05
2.99405e-05
2.93461e-05
3.00345e-05
3.00343e-05
8.46126e-05
8.39121e-05
8.26237e-05
8.35499e-05
2.90384e-05
3.03179e-05
3.03177e-05
3.01071e-05
3.01073e-05
8.26238e-05
8.35497e-05
2.86e-05
3.04685e-05
2.91449e-05
2.97977e-05
2.94121e-05
3.00677e-05
2.86778e-05
3.0753e-05
6.43472e-05
3.13498e-05
6.57245e-05
3.07525e-05
6.43494e-05
3.13492e-05
6.57265e-05
2.83436e-05
2.93757e-05
2.92845e-05
2.81933e-05
2.96732e-05
2.85967e-05
2.75605e-05
2.83432e-05
2.93756e-05
2.92844e-05
2.81933e-05
2.96731e-05
2.85966e-05
2.75602e-05
3.06418e-05
6.70829e-05
6.60688e-05
3.00987e-05
3.06413e-05
6.70833e-05
6.607e-05
3.00983e-05
8.46128e-05
8.39131e-05
8.46132e-05
8.39124e-05
2.90383e-05
3.03208e-05
3.03201e-05
3.01074e-05
3.01076e-05
8.26246e-05
8.35498e-05
8.26236e-05
8.355e-05
8.22136e-05
8.1222e-05
8.2214e-05
8.12217e-05
3.04382e-05
3.04376e-05
2.75308e-05
3.07822e-05
3.07824e-05
7.9836e-05
8.0805e-05
7.98352e-05
8.08049e-05
2.72364e-05
3.13939e-05
3.1395e-05
3.09257e-05
3.09254e-05
2.95169e-05
6.7316e-05
2.99992e-05
6.80315e-05
2.65672e-05
2.81252e-05
2.89017e-05
2.81491e-05
2.73162e-05
2.77835e-05
2.85246e-05
2.6567e-05
2.8125e-05
2.89016e-05
2.81488e-05
2.73159e-05
2.77832e-05
2.85245e-05
2.9432e-05
6.86562e-05
6.81773e-05
2.90168e-05
2.94317e-05
6.86566e-05
6.81781e-05
2.90165e-05
2.63374e-05
2.77539e-05
2.74492e-05
2.77876e-05