/*--------------------------------*- C++ -*----------------------------------*\
| =========                 |                                                 |
| \\      /  F ield         | OpenFOAM: The Open Source CFD Toolbox           |
|  \\    /   O peration     | Version:  2312                                  |
|   \\  /    A nd           | Website:  www.openfoam.com                      |
|    \\/     M anipulation  |                                                 |
\*---------------------------------------------------------------------------*/
FoamFile
{
    version     2.0;
    format      ascii;
    arch        "LSB;label=32;scalar=64";
    class       volScalarField;
    location    "250";
    object      nut;
}
// * * * * * * * * * * * * * * * * * * * * * * * * * * * * * * * * * * * * * //

dimensions      [0 2 -1 0 0 0 0];

internalField   nonuniform List<scalar> 
43168
(
0.000279419
0.000232262
0.000232262
0.00020051
0.000200714
0.000232233
0.000232213
0.000200711
0.000232256
0.000232213
0.000232261
0.000232226
0.000200718
0.000232263
0.000232241
0.000200712
0.00020051
0.000232234
0.00023221
0.000200505
0.000232256
0.000232214
0.000232226
0.000200515
0.000232242
5.11188e-05
5.11136e-05
0.000279417
0.000279404
0.000279405
0.000279396
0.000103255
5.11187e-05
0.000103242
5.11192e-05
2.4037e-05
2.40376e-05
0.000103252
5.11137e-05
0.000103238
5.11142e-05
0.000279407
0.000279408
0.000279399
0.000151985
0.000107397
0.000258727
0.000232264
0.000151952
0.000107416
0.000258727
2.40361e-05
2.40367e-05
0.000151981
0.00025873
0.000107396
0.000232263
0.000151949
0.00025873
0.000107415
8.01331e-05
8.01267e-05
0.000200623
8.01414e-05
8.01357e-05
2.40395e-05
2.40375e-05
0.000200724
8.01445e-05
8.01365e-05
2.40396e-05
2.4039e-05
2.40376e-05
2.4037e-05
0.000200565
8.01467e-05
8.0139e-05
8.014e-05
8.01321e-05
0.000232227
0.00010741
0.000103239
5.1119e-05
5.11185e-05
0.000103251
0.000103236
5.11133e-05
5.11128e-05
0.000103248
0.000151947
0.000232231
0.000107414
0.000258728
0.000107396
0.000258717
0.000151987
0.000151942
0.000232207
0.000107389
0.000258719
0.00010737
0.000258706
0.000151982
2.40376e-05
2.40369e-05
0.000200553
8.01255e-05
8.01458e-05
8.01194e-05
2.40389e-05
0.000232249
0.000107399
0.000103234
5.11139e-05
5.11134e-05
0.000103247
0.000151938
0.000232253
0.000107403
0.000258723
0.000107384
0.000258715
0.00015198
0.000103231
5.11099e-05
5.11094e-05
0.000103245
0.000151936
0.000232211
0.000258716
0.000107393
0.000258709
0.000107374
0.000151978
0.000107411
0.000258721
0.000151981
5.11151e-05
0.000103242
0.000258721
0.000107401
0.000151982
5.11111e-05
0.000103247
2.40366e-05
2.4036e-05
0.000200546
8.01303e-05
8.0144e-05
8.01236e-05
8.01372e-05
2.40388e-05
2.40382e-05
0.000151935
0.000232261
0.000258725
0.00010741
0.000258717
0.000107392
0.000151977
0.000151928
0.000232238
0.00025871
0.000107393
0.000258701
0.000107374
0.00015197
0.000103225
5.11152e-05
5.11146e-05
0.000103239
0.000103215
5.11096e-05
5.1109e-05
0.00010323
0.000200539
8.0137e-05
8.01306e-05
8.01232e-05
2.40374e-05
2.40364e-05
2.40358e-05
2.40391e-05
2.40397e-05
2.40371e-05
2.40377e-05
8.01426e-05
8.01351e-05
0.000200637
8.01506e-05
8.01436e-05
2.40392e-05
2.40372e-05
0.000200475
8.0146e-05
8.01393e-05
0.000103251
5.1113e-05
0.000103239
5.11135e-05
0.000151988
0.000107399
0.000258731
0.000232234
0.000151956
0.000107418
0.000258731
0.000151984
0.000107374
0.000258722
0.000232211
0.000151951
0.000107393
0.000258722
0.000103246
5.11189e-05
0.000103242
5.11132e-05
0.000151958
0.000232245
0.000107403
0.000258731
0.000151953
0.000232223
0.000107379
0.000258723
8.01214e-05
8.0142e-05
0.000200631
8.01297e-05
8.01498e-05
2.40384e-05
2.40389e-05
2.40371e-05
0.00020047
8.01257e-05
8.01454e-05
2.40384e-05
0.000151984
0.000107388
0.000258728
0.000232258
0.00015195
0.000107408
0.000258729
0.000103249
5.11097e-05
0.000103236
5.11102e-05
0.000151982
0.000258721
0.000107378
0.000232214
0.000151948
0.000258721
0.000107397
0.000103243
5.11139e-05
0.000151954
0.00023227
0.000107394
0.000258731
0.00010324
5.11099e-05
0.000151951
0.000232223
0.000258723
0.000107383
0.000103246
5.11148e-05
0.000103233
5.11152e-05
0.000151985
0.000258727
0.000107387
0.000232226
0.000151952
0.000258727
0.000107406
0.00010325
5.11108e-05
0.000103238
5.11113e-05
0.000151954
0.000232275
0.000107401
0.00025873
0.000103236
5.11149e-05
0.000151954
0.000232234
0.000258728
0.000107391
0.000103241
5.1111e-05
8.01265e-05
8.01399e-05
0.00020063
8.01346e-05
8.01483e-05
2.40383e-05
2.40389e-05
2.40361e-05
0.000200459
8.01306e-05
8.01441e-05
2.40384e-05
0.000151974
0.000258717
0.000107379
0.000232243
0.000151942
0.000258718
0.000107398
0.000103244
5.11149e-05
0.00010323
5.11154e-05
0.000103235
5.11093e-05
0.00010322
5.11098e-05
0.00015195
0.000232272
0.000258731
0.000107401
0.000151943
0.000232254
0.00025872
0.000107384
0.000103234
5.11151e-05
0.000103225
5.11095e-05
2.40369e-05
2.40375e-05
2.40359e-05
2.40365e-05
0.000200451
8.0137e-05
8.01316e-05
2.4037e-05
2.4036e-05
2.04425e-05
8.09497e-05
5.11184e-05
8.09412e-05
2.04433e-05
5.11132e-05
3.69378e-05
0.000103244
4.12981e-05
9.73859e-05
4.12978e-05
9.73746e-05
3.69382e-05
2.04434e-05
8.09445e-05
5.11191e-05
2.04426e-05
8.09532e-05
3.69381e-05
0.000103253
4.12978e-05
9.7373e-05
3.69377e-05
4.12981e-05
9.73841e-05
2.04427e-05
8.09546e-05
5.11188e-05
8.09459e-05
2.04434e-05
2.40376e-05
2.4037e-05
3.69377e-05
0.00010324
9.73813e-05
4.12976e-05
9.73698e-05
4.12973e-05
3.69381e-05
2.04438e-05
8.09395e-05
5.11141e-05
2.0443e-05
8.09484e-05
3.69381e-05
0.000103249
9.73676e-05
4.12972e-05
3.69376e-05
9.7379e-05
4.12976e-05
2.04431e-05
8.09502e-05
5.11138e-05
8.09413e-05
2.04438e-05
2.40366e-05
2.40361e-05
8.33396e-05
2.18464e-05
2.18431e-05
2.18458e-05
2.18425e-05
8.33444e-05
0.00010858
0.000134427
4.90335e-05
8.01393e-05
0.000108568
0.000134445
4.90339e-05
0.000108583
0.000134403
4.90229e-05
8.01331e-05
0.000108571
0.000134422
4.90234e-05
8.33411e-05
2.18457e-05
2.18424e-05
8.3336e-05
2.18463e-05
2.18431e-05
0.000108572
4.90341e-05
8.01353e-05
0.000134451
0.00013443
4.90336e-05
0.000108585
0.000108575
4.90235e-05
8.01294e-05
0.000134428
0.000134407
4.90231e-05
0.000108588
2.4039e-05
2.40369e-05
8.33347e-05
2.18465e-05
2.18432e-05
2.18459e-05
2.18425e-05
8.33385e-05
0.00010857
4.90366e-05
8.01392e-05
0.000134451
4.90361e-05
0.000108581
0.000134432
0.000108569
4.90239e-05
8.01313e-05
0.000134426
4.90234e-05
0.000108579
0.000134407
2.40391e-05
2.40396e-05
2.4037e-05
2.40375e-05
8.33399e-05
2.1846e-05
2.18426e-05
8.33354e-05
2.18466e-05
2.18433e-05
0.000108571
0.000134453
8.0141e-05
4.90368e-05
4.90364e-05
0.000134436
0.000108583
0.00010857
0.000134428
8.01332e-05
4.90242e-05
4.90237e-05
0.00013441
0.000108582
0.000108581
4.90362e-05
0.000134435
8.01454e-05
0.00010857
4.90367e-05
0.000134453
0.00010858
4.90235e-05
0.00013441
8.01374e-05
0.000108569
4.9024e-05
0.000134428
8.33383e-05
2.18467e-05
2.18434e-05
2.18461e-05
2.18427e-05
8.33432e-05
3.6938e-05
4.12977e-05
9.73696e-05
0.00010325
3.69376e-05
4.1298e-05
9.73808e-05
2.04426e-05
5.11186e-05
8.0952e-05
2.04434e-05
8.09434e-05
2.04433e-05
8.09423e-05
5.11189e-05
2.04426e-05
8.09508e-05
3.69377e-05
0.000103241
4.12981e-05
9.73826e-05
3.69381e-05
4.12977e-05
9.73714e-05
3.69365e-05
4.12976e-05
9.73578e-05
0.000103246
3.6936e-05
4.12979e-05
9.73688e-05
2.04419e-05
5.11129e-05
8.09291e-05
8.09207e-05
2.04426e-05
2.04426e-05
8.09196e-05
5.11132e-05
2.04418e-05
8.0928e-05
3.69361e-05
0.000103237
4.1298e-05
9.73703e-05
4.12976e-05
9.73594e-05
3.69365e-05
2.4037e-05
2.40375e-05
0.00010857
0.000134417
8.012e-05
4.90237e-05
0.0001344
4.90232e-05
0.000108581
0.00010857
0.000134453
8.01401e-05
4.90351e-05
4.90346e-05
0.000134436
0.000108582
0.000134399
8.01248e-05
0.000134416
8.33333e-05
2.18431e-05
2.18463e-05
2.18425e-05
2.18456e-05
8.33385e-05
2.40386e-05
3.69379e-05
9.73631e-05
4.12971e-05
0.000103245
3.69375e-05
9.73747e-05
4.12974e-05
2.0443e-05
5.11135e-05
8.09467e-05
2.04437e-05
8.09379e-05
2.04437e-05
8.09366e-05
5.11138e-05
2.04429e-05
8.09452e-05
3.69376e-05
0.000103236
9.73769e-05
4.12975e-05
3.6938e-05
9.73656e-05
4.12972e-05
3.6936e-05
4.12969e-05
9.7355e-05
0.000103243
3.69356e-05
4.12972e-05
9.73665e-05
2.04419e-05
5.11095e-05
8.09266e-05
8.09182e-05
2.04427e-05
2.04427e-05
8.09169e-05
5.11098e-05
2.04419e-05
8.09253e-05
3.69357e-05
0.000103234
4.12973e-05
9.73685e-05
4.12969e-05
9.73576e-05
3.69361e-05
2.04431e-05
5.11149e-05
8.09409e-05
8.09321e-05
2.04439e-05
3.69374e-05
0.000103231
9.73695e-05
4.1297e-05
9.7357e-05
4.12966e-05
3.69379e-05
2.04422e-05
5.11107e-05
8.09279e-05
8.09193e-05
2.04429e-05
3.69362e-05
0.000103236
4.12977e-05
9.73717e-05
4.12974e-05
9.73606e-05
3.69366e-05
2.4036e-05
2.40365e-05
8.33355e-05
2.18428e-05
2.18461e-05
8.3331e-05
2.18434e-05
2.18467e-05
0.000108571
0.000134418
8.01247e-05
4.90241e-05
0.000134402
4.90237e-05
0.000108582
0.000108572
0.000134452
8.01383e-05
4.90368e-05
4.90363e-05
0.000134435
0.000108582
0.00010858
4.90235e-05
0.0001344
8.01287e-05
0.000134417
0.00010857
4.9024e-05
0.000108581
4.90361e-05
0.000134433
8.01424e-05
0.000108571
4.90366e-05
0.000134451
8.33337e-05
2.18435e-05
2.18468e-05
2.18429e-05
2.18462e-05
8.33386e-05
2.40382e-05
2.40387e-05
3.69383e-05
9.73649e-05
4.12965e-05
0.000103238
3.69379e-05
9.73763e-05
4.12968e-05
2.04436e-05
5.11148e-05
8.09468e-05
8.09384e-05
2.04443e-05
2.04443e-05
8.09373e-05
5.1115e-05
2.04435e-05
8.09456e-05
3.6938e-05
0.000103228
9.73781e-05
4.12969e-05
9.73673e-05
4.12965e-05
3.69384e-05
3.69354e-05
9.73452e-05
4.1296e-05
0.000103228
3.69349e-05
9.73575e-05
4.12964e-05
2.04417e-05
5.11091e-05
8.09248e-05
8.09161e-05
2.04425e-05
2.04424e-05
8.09148e-05
5.11094e-05
2.04416e-05
8.09234e-05
3.6935e-05
0.000103218
9.73596e-05
4.12964e-05
9.73475e-05
4.1296e-05
3.69355e-05
8.33329e-05
2.18462e-05
2.18429e-05
0.000108565
0.000134442
8.01312e-05
4.90338e-05
0.000108576
0.000134425
4.90333e-05
0.000108568
0.000134419
8.01246e-05
4.90232e-05
0.000108579
0.000134401
4.90227e-05
0.000108574
8.01354e-05
0.000134442
4.90338e-05
0.000108577
0.000134399
8.01286e-05
0.000134417
4.9023e-05
8.33318e-05
2.18463e-05
2.1843e-05
8.3337e-05
2.18456e-05
2.18424e-05
2.40369e-05
2.40374e-05
2.40358e-05
2.40363e-05
2.40397e-05
2.40392e-05
2.40376e-05
2.40371e-05
8.33437e-05
2.18468e-05
2.18435e-05
2.18462e-05
2.18428e-05
8.33481e-05
0.000108586
0.000134437
4.90365e-05
8.01487e-05
0.000108574
4.9037e-05
0.000134455
0.000108585
0.000134412
4.90238e-05
8.01414e-05
0.000108573
4.90243e-05
0.000134431
8.33463e-05
2.18461e-05
2.18428e-05
8.33416e-05
2.18468e-05
2.18434e-05
0.000108578
4.90371e-05
8.01446e-05
0.000134461
4.90366e-05
0.000108591
0.000134441
0.000108577
4.90244e-05
8.01375e-05
0.000134437
4.9024e-05
0.000108589
0.000134416
2.40397e-05
2.40377e-05
8.3349e-05
2.18462e-05
2.18428e-05
8.33448e-05
2.18468e-05
2.18435e-05
0.000108594
4.90367e-05
0.000134448
8.01516e-05
0.000108582
4.90372e-05
0.000134469
0.000108593
4.90241e-05
0.000134424
8.01448e-05
0.000108581
4.90245e-05
0.000134445
3.69362e-05
0.00010324
4.1298e-05
9.73731e-05
4.12977e-05
9.73622e-05
3.69366e-05
2.04427e-05
8.09219e-05
5.11134e-05
2.04419e-05
8.09303e-05
3.69366e-05
0.000103249
4.12977e-05
9.73608e-05
4.1298e-05
3.69362e-05
9.73715e-05
2.04419e-05
8.09316e-05
5.11131e-05
8.09231e-05
2.04427e-05
3.69382e-05
4.12978e-05
9.73765e-05
0.000103257
3.69378e-05
4.12982e-05
9.73877e-05
2.04434e-05
8.09472e-05
5.11192e-05
2.04427e-05
8.09557e-05
3.69366e-05
4.12977e-05
9.7364e-05
0.000103253
3.69362e-05
4.1298e-05
9.7375e-05
2.04427e-05
8.09244e-05
5.11135e-05
2.0442e-05
8.09328e-05
8.33406e-05
2.18434e-05
2.18466e-05
2.18428e-05
2.18459e-05
8.33455e-05
0.000108585
0.000134402
4.90234e-05
8.01273e-05
4.90238e-05
0.000108573
0.00013442
0.000108586
0.000134437
4.90349e-05
8.01481e-05
0.000134457
0.000108574
4.90357e-05
8.33422e-05
2.18428e-05
2.18459e-05
2.18434e-05
8.33372e-05
2.18465e-05
0.000108578
4.9024e-05
8.01238e-05
0.000134427
4.90235e-05
0.000134406
0.00010859
0.000108578
4.90358e-05
8.0144e-05
0.000134463
0.000134442
4.90353e-05
0.000108591
2.40389e-05
2.40384e-05
2.40376e-05
8.33476e-05
2.18428e-05
2.18459e-05
8.33431e-05
2.18434e-05
2.18465e-05
0.000108594
4.90236e-05
0.000134414
8.01313e-05
0.000134434
0.000108582
4.9024e-05
0.000108595
4.90354e-05
0.000134449
8.0151e-05
0.000108582
4.90358e-05
0.00013447
2.40389e-05
3.69358e-05
0.000103238
4.12974e-05
9.73722e-05
4.12971e-05
9.73612e-05
3.69362e-05
2.04428e-05
8.09196e-05
5.11101e-05
2.0442e-05
8.09282e-05
3.69362e-05
0.000103247
4.1297e-05
9.73594e-05
4.12973e-05
3.69357e-05
9.73702e-05
2.0442e-05
8.09298e-05
5.11098e-05
8.09212e-05
2.04428e-05
3.69381e-05
9.73721e-05
4.12973e-05
0.000103254
3.69377e-05
9.73836e-05
4.12976e-05
2.04438e-05
8.09431e-05
5.11143e-05
2.04431e-05
8.09518e-05
3.69362e-05
4.12971e-05
9.73633e-05
0.000103251
3.69358e-05
4.12974e-05
9.73745e-05
2.04428e-05
8.09228e-05
5.11102e-05
2.04421e-05
8.09313e-05
3.69375e-05
0.000103234
9.73724e-05
4.1297e-05
9.736e-05
4.12967e-05
3.6938e-05
2.0444e-05
8.09333e-05
5.11151e-05
8.09422e-05
2.04431e-05
3.6938e-05
0.000103244
9.73584e-05
4.12967e-05
9.73711e-05
3.69375e-05
4.1297e-05
2.04431e-05
8.09434e-05
5.11149e-05
8.09346e-05
2.0444e-05
3.69363e-05
0.000103239
4.12978e-05
9.73749e-05
4.12975e-05
9.73638e-05
3.69367e-05
2.0443e-05
8.09205e-05
5.11112e-05
2.04422e-05
8.09291e-05
3.69367e-05
0.000103248
4.12974e-05
9.73622e-05
3.69362e-05
4.12978e-05
9.73732e-05
2.04422e-05
8.09304e-05
5.11109e-05
8.09217e-05
2.0443e-05
3.6938e-05
9.73614e-05
4.12967e-05
0.000103247
3.69376e-05
9.73741e-05
4.12971e-05
2.0444e-05
8.09358e-05
5.11153e-05
2.04431e-05
8.09445e-05
3.69367e-05
4.12975e-05
9.73655e-05
0.000103252
3.69363e-05
4.12978e-05
9.73765e-05
2.0443e-05
8.09229e-05
5.11113e-05
2.04423e-05
8.09314e-05
8.33391e-05
2.18436e-05
2.18469e-05
2.1843e-05
2.18463e-05
8.33435e-05
0.000108585
0.000134403
4.90238e-05
8.01324e-05
4.90243e-05
0.000108573
0.00013442
0.000108585
0.000134435
4.90362e-05
8.0146e-05
0.000134454
0.000108574
4.90367e-05
8.33416e-05
2.18429e-05
2.18462e-05
2.18436e-05
8.33369e-05
2.18469e-05
0.000108577
4.90244e-05
8.01286e-05
0.000134425
4.9024e-05
0.000134406
0.000108589
0.000108577
4.90368e-05
8.01421e-05
0.000134459
0.000134439
4.90364e-05
0.000108589
2.40389e-05
2.40384e-05
2.40367e-05
8.33441e-05
2.1843e-05
2.18463e-05
8.334e-05
2.18436e-05
2.18469e-05
0.000108592
4.90241e-05
0.000134414
8.01359e-05
0.000134434
0.000108581
4.90245e-05
0.000108593
4.90365e-05
0.000134446
8.01496e-05
0.000108581
4.90369e-05
0.000134467
2.40389e-05
3.69381e-05
0.000103232
9.73818e-05
4.1297e-05
9.73708e-05
4.12967e-05
3.69385e-05
2.04444e-05
8.09397e-05
5.11153e-05
8.09482e-05
2.04436e-05
3.69385e-05
0.000103241
9.7369e-05
4.12966e-05
9.73798e-05
3.6938e-05
4.1297e-05
2.04437e-05
8.09497e-05
5.1115e-05
8.09411e-05
2.04444e-05
3.69351e-05
0.000103222
9.7364e-05
4.12965e-05
9.73517e-05
4.12962e-05
3.69356e-05
2.04425e-05
8.09176e-05
5.11097e-05
2.04417e-05
8.09264e-05
3.69355e-05
0.000103232
9.73496e-05
4.12961e-05
3.6935e-05
9.73617e-05
4.12965e-05
2.04418e-05
8.09282e-05
5.11094e-05
8.09193e-05
2.04425e-05
3.69385e-05
9.7373e-05
4.12967e-05
0.000103246
3.69381e-05
9.73841e-05
4.1297e-05
2.04444e-05
8.09427e-05
5.11155e-05
2.04437e-05
8.09512e-05
3.69356e-05
9.73541e-05
4.12962e-05
0.000103237
3.69351e-05
9.73664e-05
4.12965e-05
2.04426e-05
8.09211e-05
5.11099e-05
2.04418e-05
8.09297e-05
2.40375e-05
2.4037e-05
2.40364e-05
2.40359e-05
8.33458e-05
2.18458e-05
2.18425e-05
8.33416e-05
2.18464e-05
2.18431e-05
0.000108589
4.90337e-05
0.000134437
8.01425e-05
0.000108576
0.000134459
4.90341e-05
0.000108592
4.90232e-05
0.000134415
8.0137e-05
0.00010858
0.000134436
4.90236e-05
2.40375e-05
2.40365e-05
0.000279412
0.000318368
0.000318396
0.000279427
0.000318373
0.000318401
0.000389556
0.000389557
0.000144754
0.00017298
0.00017296
0.000200656
0.000144736
0.000173002
0.000172983
0.000144746
0.000200561
0.000173029
0.000173011
0.000173012
0.000172993
0.000144761
0.000144741
0.000200558
0.000173002
0.00017303
0.000172983
0.000173011
0.000144758
0.000144744
0.000200557
0.00017301
0.000173037
0.000172989
0.000173017
0.000144761
0.000144737
0.000200551
0.000173029
0.000173009
0.000144754
0.000173007
0.000172986
0.000144763
0.000172982
0.000172963
0.00020066
0.000144745
0.000173008
0.000172989
0.000144761
0.000172953
0.000172982
0.000200655
0.000173008
0.000144742
0.000172979
0.00014476
0.000172961
0.000172989
0.000200662
0.000173011
0.000144742
0.000172984
0.000279414
0.000318366
0.000318393
0.000318361
0.000318388
0.000389557
0.000389557
0.000279411
0.000318361
0.00031838
0.000318357
0.000318379
0.000389542
0.000389545
0.000279403
0.000318356
0.000318371
0.000318352
0.000318367
0.000389516
0.000389519
0.000279393
0.000318344
0.000318366
0.000318341
0.000318363
0.000389494
0.000389497
0.000318364
0.000318382
0.000279412
0.00031837
0.000318388
0.000389545
0.000389545
0.000318361
0.000318376
0.000279414
0.000318365
0.000318382
0.000389518
0.000389519
0.00031835
0.000318372
0.000279406
0.000318357
0.00031838
0.000389502
0.000389499
0.000279437
0.000318378
0.000318405
0.000389557
0.000279423
0.000318376
0.000318393
0.000389547
0.000279425
0.000318372
0.000318389
0.000389521
0.000279418
0.000318364
0.000318386
0.000389505
0.000186098
0.000151953
0.000144385
0.000193187
0.00014435
0.000193152
0.000186146
0.000172507
0.000156208
0.000128017
0.000107413
0.000172432
0.000156231
0.000128045
0.000186199
0.000151984
0.000144349
0.000193166
0.000186115
0.000144385
0.000193231
0.000172414
0.000128046
0.000107399
0.000156229
0.000156205
0.000128017
0.000172471
0.0001861
0.00015195
0.000193187
0.000144387
0.000193154
0.000144352
0.000186147
0.000172508
0.000156208
0.000128018
0.000107412
0.000172436
0.00015623
0.000128047
0.000186202
0.000151981
0.000193166
0.000144352
0.000186118
0.000193232
0.000144388
0.000172414
0.000128047
0.000107398
0.000156227
0.000156204
0.000128019
0.00017247
0.000144743
0.000200459
0.000172994
0.000172975
0.000172959
0.000172939
0.000144764
0.000144747
0.000200521
0.000173049
0.000173031
0.000144768
0.000173003
0.000172984
0.000144767
0.000200746
0.000173021
0.000173001
0.00014475
0.000173056
0.000173037
0.000172345
0.000128039
0.000107393
0.000156218
0.000128007
0.000156189
0.000172429
0.000186133
0.000144345
0.000193088
0.000151982
0.000186015
0.000144386
0.00019318
0.000172418
0.00015623
0.000107397
0.000128048
0.000156206
0.000128017
0.000172507
0.000172475
0.000128013
0.0001562
0.000107412
0.000156227
0.000172376
0.000128045
0.000186088
0.000151953
0.000144391
0.000193227
0.000144352
0.000193148
0.000186192
0.000186118
0.00014433
0.000193083
0.000151977
0.000185999
0.000144371
0.000193174
0.000172392
0.000156194
0.000107372
0.000128028
0.000127998
0.000156169
0.000172482
0.00017245
0.000127994
0.000156164
0.000107388
0.000172351
0.000128025
0.000156191
0.000186073
0.000151948
0.000144376
0.000193222
0.000144338
0.000193143
0.000186178
0.000200742
0.000172988
0.000173026
0.000107382
0.000156198
0.000156169
0.000186125
0.000144335
0.000193081
0.000151975
0.000186004
0.000144377
0.000193174
0.000172406
0.000156211
0.000107386
0.000128039
0.000156187
0.000128008
0.000172496
0.000172464
0.000128002
0.000156181
0.000107401
0.000156207
0.000172363
0.000128035
0.000186079
0.000151946
0.000144383
0.000193221
0.000144343
0.000193142
0.000186184
0.00018612
0.000193079
0.000144328
0.000151972
0.000186
0.000193172
0.000144369
0.000172395
0.000156198
0.000107376
0.000128028
0.000127999
0.000156174
0.000172484
0.000172453
0.000127993
0.000156167
0.000107391
0.000172354
0.000128025
0.000156195
0.000186074
0.000151944
0.000193219
0.000144375
0.000193139
0.000144337
0.000186178
0.000172415
0.000156232
0.000107395
0.000128044
0.000172504
0.000156207
0.000128014
0.000186079
0.000151947
0.000144383
0.00019322
0.000186183
0.000144345
0.000193141
0.000172406
0.000156218
0.000107385
0.000128037
0.000128007
0.000156194
0.000172495
0.000186075
0.000151948
0.00019322
0.000144382
0.000193141
0.000144342
0.000186181
0.000144763
0.000200735
0.000172988
0.000173015
0.000173029
0.000144744
0.000173056
0.000186127
0.000193078
0.000144338
0.00015197
0.000186008
0.000193169
0.000144379
0.000172418
0.000156233
0.000107394
0.000128045
0.000172508
0.000156208
0.000128016
0.000172476
0.00012801
0.000156201
0.000107409
0.000172376
0.000156229
0.000128041
0.000186082
0.000151943
0.000193217
0.000144386
0.000186188
0.000193136
0.000144347
0.00018611
0.000193071
0.000144321
0.000151963
0.000185991
0.000193162
0.000144363
0.000172393
0.0001562
0.000107376
0.000128027
0.000127997
0.000156176
0.000172483
0.00017245
0.00012799
0.000156167
0.000107391
0.000172351
0.000128022
0.000156196
0.000186065
0.000151936
0.000193211
0.000144369
0.00019313
0.00014433
0.000186171
0.000144756
0.000200727
0.000172983
0.000173044
0.000173024
0.000144753
0.000200465
0.000173007
0.000172989
0.000144774
0.000172968
0.000172948
0.000144789
0.000200681
0.000172992
0.000172973
0.000144766
0.000173042
0.000173024
0.000186091
0.000151956
0.000144391
0.000193179
0.000144354
0.000193145
0.000186137
0.000172501
0.000156205
0.000128019
0.000107415
0.000128049
0.000172432
0.000156227
0.000186198
0.000151988
0.000144355
0.00019317
0.000144392
0.00018612
0.000193229
0.000172405
0.00012805
0.000107401
0.000156226
0.00012802
0.000156201
0.000172463
0.000186075
0.000151951
0.000144376
0.000193173
0.00014434
0.000193139
0.000186122
0.000172476
0.000156169
0.000128
0.000107391
0.000172406
0.000128029
0.000156191
0.000186183
0.000151983
0.000144341
0.000193165
0.000186105
0.000144377
0.000193224
0.000172379
0.00012803
0.000107376
0.00015619
0.000128001
0.000172437
0.000156165
0.000186099
0.000144355
0.000193098
0.000151992
0.00018603
0.000144394
0.000193152
0.000172448
0.000128022
0.000156206
0.00010742
0.000156233
0.000172373
0.000128054
0.000186083
0.000144341
0.000193092
0.000151987
0.000186014
0.000144379
0.000193146
0.000172422
0.000128003
0.00015617
0.000107396
0.000172347
0.000128034
0.000156198
0.000144751
0.00020046
0.000172979
0.000173008
0.000172968
0.000172938
0.000144774
0.000144788
0.000200676
0.000172964
0.000172993
0.000173015
0.000144765
0.000173044
0.000186085
0.000151951
0.000144385
0.000193177
0.000144347
0.000193143
0.000186133
0.000172492
0.000156187
0.000128011
0.000107405
0.000128041
0.000172421
0.000156209
0.000186192
0.000151983
0.000144347
0.000193165
0.000144385
0.000186111
0.000193226
0.000172396
0.000128043
0.000107391
0.000156207
0.000128012
0.000156183
0.000172455
0.000186079
0.000151949
0.000193175
0.000144376
0.00019314
0.00014434
0.000186125
0.000172479
0.000156173
0.000128001
0.000107394
0.00017241
0.000128029
0.000156194
0.000186185
0.00015198
0.000193163
0.00014434
0.000186106
0.000193223
0.000144376
0.000172384
0.000128031
0.00010738
0.000156192
0.000128002
0.000172442
0.000156169
0.000186094
0.000144349
0.000193096
0.000151989
0.000186025
0.000144389
0.000193149
0.000172439
0.000128015
0.000156188
0.000107411
0.000156216
0.000172364
0.000128047
0.000186086
0.000193093
0.000144341
0.000151986
0.000186019
0.000193146
0.00014438
0.000172425
0.000128005
0.000156173
0.0001074
0.000172352
0.000128035
0.000156201
0.000186093
0.000151954
0.000193186
0.000144383
0.000193151
0.000144346
0.00018614
0.000172496
0.000156194
0.000128009
0.000107403
0.000156216
0.000172423
0.000128038
0.000186195
0.000151985
0.000193166
0.000144346
0.000193231
0.000186112
0.000144383
0.000172402
0.000128039
0.000107389
0.000156214
0.00015619
0.000128009
0.000172459
0.000186102
0.00014435
0.000193106
0.000151986
0.000186038
0.000144387
0.000193155
0.000172451
0.000128019
0.000156208
0.000107418
0.00017238
0.000156235
0.000128049
0.000186095
0.000193104
0.000144346
0.000151987
0.000186031
0.000193153
0.000144384
0.00017244
0.000128011
0.000156193
0.000107408
0.000172368
0.000128042
0.000156221
0.000144748
0.000200465
0.000172977
0.000173004
0.000172969
0.000172941
0.000144769
0.000144783
0.000200659
0.000172956
0.000172983
0.000173007
0.00014476
0.000173035
0.000186084
0.000151944
0.000193181
0.000144371
0.000193147
0.000144335
0.000186131
0.000172484
0.000156176
0.000127999
0.000107395
0.000156199
0.000172411
0.000128029
0.000186186
0.000151974
0.000193159
0.000144335
0.000193226
0.000186101
0.000144372
0.000172391
0.00012803
0.000107381
0.000156197
0.000156173
0.000128
0.000172448
0.000186099
0.000193102
0.000144351
0.000151982
0.000186036
0.000193148
0.000144389
0.00017245
0.000128021
0.000156207
0.000107418
0.000172379
0.000156234
0.000128051
0.000186083
0.000193095
0.000144335
0.000151976
0.00018602
0.000193142
0.000144374
0.000172428
0.000128003
0.000156177
0.000107402
0.000172356
0.000128034
0.000156205
0.00014478
0.00020065
0.000172973
0.000172954
0.000144756
0.000173024
0.000173005
0.000279451
0.000232298
0.000232302
0.000200567
0.000279446
0.000232281
0.000232293
0.000200473
0.000279436
0.000232287
0.000232299
0.000200583
0.000279411
0.000232289
0.000232288
0.000200558
0.000279285
0.000232185
0.000232182
0.000200409
0.000279186
0.000232113
0.000232112
0.000200316
0.000279269
0.000232197
0.000232213
0.000200471
0.000279409
0.000232269
0.000232278
0.00020053
0.000279449
0.000232284
0.000232288
0.000200471
0.000279458
0.000232298
0.000232301
0.000200572
0.000279461
0.000232299
0.000232304
0.000200565
0.000279439
0.000232271
0.000232275
0.000200443
0.00027942
0.000232261
0.000232268
0.000200486
0.000279403
0.000232255
0.000232262
0.000200541
0.000279395
0.000232253
0.000232261
0.000200511
0.000279395
0.000232255
0.00023226
0.000200453
0.000279403
0.000232264
0.00023227
0.000200485
0.000279408
0.000232271
0.000232276
0.000200518
0.000279587
0.000232547
0.000232551
0.000200567
0.000273215
0.000234034
0.000234044
0.000206181
0.000200745
0.000232263
0.000232242
0.000200739
0.000232289
0.000232243
0.000232292
0.000232253
0.000200727
0.000232292
0.000232274
0.000200718
0.000200589
0.000200673
0.00023227
0.000232249
0.000232258
0.000232232
0.000200584
0.000200663
0.000232297
0.000232252
0.000232285
0.000232241
0.000232261
0.000232282
0.000232247
0.000200575
0.000200674
0.000232284
0.000232293
0.00023227
0.000200667
0.000200485
0.00020079
0.000232259
0.000232232
0.000232271
0.000232243
0.000200473
0.000200772
0.000232285
0.000232241
0.000232297
0.000232253
0.000232246
0.000232293
0.000232255
0.000200483
0.000200785
0.000232269
0.000232307
0.000232278
0.000200761
0.000200604
0.000200717
0.000232263
0.000232236
0.000232259
0.000232237
0.000200591
0.000200711
0.000232289
0.000232245
0.000232283
0.00023224
0.000232249
0.000232287
0.000232246
0.000200601
0.000200711
0.000232272
0.000232292
0.000232267
0.000200704
0.00020057
0.00020061
0.000232257
0.000232238
0.000232173
0.000232159
0.000200569
0.000200619
0.000232281
0.000232238
0.000232198
0.000232159
0.000232244
0.000232214
0.000232166
0.000200565
0.000200606
0.000232266
0.00023221
0.000232188
0.000200593
0.000200424
0.000200529
0.000232145
0.00023213
0.000232087
0.000232067
0.000200429
0.000200532
0.00023217
0.000232131
0.000232109
0.000232067
0.000232139
0.00023212
0.000232076
0.000200422
0.000200523
0.000232159
0.000232118
0.000232093
0.000200519
0.000200329
0.000200659
0.000232082
0.00023206
0.000232139
0.000232103
0.000200328
0.000200643
0.000232104
0.000232061
0.000232168
0.000232126
0.000232069
0.000232159
0.000232129
0.000200322
0.000200656
0.000232087
0.000232178
0.000232155
0.00020064
0.000200485
0.000200725
0.000232176
0.000232142
0.000232241
0.000232216
0.000200467
0.000200719
0.000232205
0.000232163
0.000232266
0.00023222
0.000232168
0.000232265
0.00023223
0.000200483
0.00020071
0.000232192
0.000232273
0.000232253
0.000200698
0.000200563
0.000200657
0.000232244
0.000232219
0.000232239
0.000232212
0.000200558
0.000200649
0.000232268
0.000232223
0.000232264
0.000232218
0.000232234
0.00023227
0.000232231
0.000200547
0.000200653
0.000232257
0.000232277
0.000232254
0.000200655
0.000200488
0.000200769
0.000232251
0.000232222
0.000232271
0.000232246
0.000200477
0.000200764
0.000232279
0.000232232
0.000232294
0.000232248
0.00023224
0.000232297
0.000232255
0.00020048
0.00020076
0.000232262
0.0002323
0.000232276
0.000200753
0.000200582
0.000200737
0.000232269
0.000232245
0.000232271
0.000232246
0.000200579
0.000200728
0.000232293
0.000232246
0.000232297
0.000232254
0.000232255
0.000232301
0.000232258
0.000200572
0.000200733
0.000232276
0.000232305
0.000232279
0.000200705
0.000200592
0.000200636
0.000232271
0.000232246
0.000232243
0.000232216
0.000200584
0.000200626
0.000232297
0.000232254
0.000232267
0.000232221
0.000232257
0.000232271
0.00023223
0.000200589
0.000200629
0.000232279
0.000232276
0.000232253
0.000200617
0.000200467
0.000200702
0.000232243
0.000232217
0.000232238
0.000232213
0.00020046
0.000200687
0.000232267
0.00023222
0.000232263
0.000232217
0.000232231
0.000232265
0.000232228
0.000200459
0.000200693
0.000232253
0.000232271
0.000232249
0.000200698
0.000200492
0.000200733
0.000232235
0.000232211
0.000232229
0.000232203
0.00020048
0.000200727
0.00023226
0.000232216
0.000232253
0.00023221
0.000232224
0.000232254
0.000232216
0.000200484
0.000200729
0.000232245
0.000232262
0.000232238
0.000200714
0.000200558
0.000200655
0.00023223
0.000232203
0.000232221
0.000232198
0.00020054
0.00020069
0.000232254
0.00023221
0.000232246
0.000232208
0.000232217
0.00023225
0.000232211
0.000200536
0.00020072
0.00023224
0.000232259
0.000232234
0.000200657
0.000200501
0.000200668
0.000232226
0.000232201
0.000232224
0.000232199
0.000200531
0.000200643
0.00023225
0.000232209
0.000232249
0.000232206
0.000232215
0.000232249
0.00023221
0.000200553
0.00020066
0.000232238
0.000232256
0.00023223
0.000200629
0.000200472
0.000200721
0.000232228
0.000232204
0.000232229
0.000232203
0.000200475
0.000200676
0.000232253
0.000232211
0.000232254
0.000232208
0.000232215
0.000232255
0.000232215
0.00020051
0.000200658
0.000232235
0.000232261
0.000232237
0.000200683
0.000200519
0.000200743
0.000232239
0.000232213
0.000232235
0.000232207
0.000200484
0.000200707
0.000232263
0.000232218
0.000232259
0.000232213
0.000232224
0.00023226
0.00023222
0.000200482
0.000200699
0.000232246
0.000232263
0.000232241
0.000200714
0.000200545