/*--------------------------------*- C++ -*----------------------------------*\
| =========                 |                                                 |
| \\      /  F ield         | OpenFOAM: The Open Source CFD Toolbox           |
|  \\    /   O peration     | Version:  2312                                  |
|   \\  /    A nd           | Website:  www.openfoam.com                      |
|    \\/     M anipulation  |                                                 |
\*---------------------------------------------------------------------------*/
FoamFile
{
    version     2.0;
    format      ascii;
    arch        "LSB;label=32;scalar=64";
    class       volScalarField;
    location    "250";
    object      p;
}
// * * * * * * * * * * * * * * * * * * * * * * * * * * * * * * * * * * * * * //

dimensions      [0 2 -2 0 0 0 0];

internalField   nonuniform List<scalar> 
43211
(
0.00361996
0.00362036
0.00362036
0.00362027
0.0035621
0.00356225
0.00356225
0.00356493
0.00351052
0.00351052
0.00351052
0.0035133
0.00345826
0.00345826
0.00345826
0.00346102
0.00340688
0.00340689
0.00340689
0.00340964
0.00335691
0.00335692
0.00335692
0.00335964
0.00330838
0.0033084
0.00330839
0.00331108
0.00326116
0.00326117
0.00326118
0.00326383
0.00321503
0.00321504
0.00321504
0.00321767
0.0031698
0.00316983
0.00316982
0.00317241
0.00312529
0.0031253
0.00312533
0.00312787
0.00308137
0.00308142
0.00308141
0.00308393
0.00303798
0.00303802
0.00303801
0.00304052
0.00299506
0.00299504
0.00299507
0.00299758
0.00295257
0.00295259
0.00295259
0.00295507
0.00291046
0.00291043
0.00291043
0.00291294
0.00286876
0.00286875
0.00286874
0.00287124
0.00282742
0.00282743
0.00282742
0.00282989
0.00278641
0.00278641
0.00278641
0.00278887
0.00274571
0.0027457
0.0027457
0.00274815
0.0027053
0.00270527
0.00270527
0.00270772
0.00363013
0.0036292
0.0036292
0.00363012
0.0036292
0.0036292
0.0036281
0.0036281
0.0036281
0.0036281
0.0036292
0.0036292
0.00363013
0.0036292
0.0036292
0.00363012
0.00362027
0.00357133
0.00362036
0.00362036
0.0035737
0.0035737
0.00362027
0.00357133
0.00362037
0.00362037
0.0035737
0.0035737
0.00362036
0.0035737
0.0035737
0.00362027
0.00357133
0.00362036
0.0035737
0.0035737
0.00357133
0.00356493
0.00352025
0.00356225
0.00356225
0.00352372
0.00352372
0.00356493
0.00352025
0.00356225
0.00356225
0.00352371
0.00352372
0.00356225
0.00352372
0.00352372
0.00356493
0.00352025
0.00356225
0.00352372
0.00352372
0.00352025
0.0035133
0.0034679
0.00351052
0.00351052
0.00347126
0.00347126
0.0035133
0.0034679
0.00351052
0.00351052
0.00347126
0.00347126
0.00351052
0.00347126
0.00347126
0.0035133
0.0034679
0.00351052
0.00347126
0.00347126
0.0034679
0.00346102
0.00341635
0.00345826
0.00345826
0.00341962
0.00341961
0.00346102
0.00341635
0.00345826
0.00345826
0.00341961
0.00341961
0.00345826
0.00341961
0.00341962
0.00346102
0.00341635
0.00345826
0.00341961
0.00341961
0.00341635
0.00340964
0.00336614
0.00340689
0.00340689
0.00336928
0.00336928
0.00340964
0.00336614
0.00340689
0.00340689
0.00336927
0.00336927
0.00340689
0.00336927
0.00336927
0.00340964
0.00336614
0.00340689
0.00336927
0.00336927
0.00336614
0.00335964
0.00331738
0.00335692
0.00335692
0.0033204
0.0033204
0.00335964
0.00331738
0.00335692
0.00335692
0.0033204
0.0033204
0.00335692
0.0033204
0.0033204
0.00335963
0.00331738
0.00335692
0.0033204
0.0033204
0.00331738
0.00331108
0.00326996
0.0033084
0.0033084
0.00327287
0.00327287
0.00331108
0.00326995
0.0033084
0.0033084
0.00327287
0.00327287
0.0033084
0.00327287
0.00327288
0.00331108
0.00326996
0.0033084
0.00327287
0.00327287
0.00326995
0.00326383
0.00322367
0.00326118
0.00326117
0.00322647
0.00322649
0.00326383
0.00322366
0.00326118
0.00326118
0.00322648
0.00322648
0.00326118
0.00322649
0.00322649
0.00326383
0.00322365
0.00326117
0.00322649
0.00322649
0.00322366
0.00321768
0.00317829
0.00321506
0.00321504
0.00318105
0.00318105
0.00321766
0.00317829
0.00321506
0.00321504
0.00318105
0.00318106
0.00321505
0.00318105
0.00318105
0.00321767
0.00317829
0.00321505
0.00318106
0.00318105
0.00317828
0.00317241
0.00313367
0.00316982
0.00316983
0.00313636
0.00313638
0.00317241
0.00313364
0.00316982
0.00316982
0.00313636
0.00313636
0.00316981
0.00313638
0.00313639
0.0031724
0.00313367
0.00316981
0.00313636
0.00313639
0.00313367
0.00312788
0.00308963
0.00312533
0.0031253
0.00309235
0.0030923
0.00312786
0.00308965
0.00312533
0.00312533
0.00309235
0.00309232
0.00312532
0.0030923
0.00309233
0.00312789
0.00308965
0.00312532
0.00309232
0.00309233
0.00308963
0.00308393
0.00304613
0.00308138
0.00308142
0.00304882
0.00304883
0.00308397
0.00304617
0.00308137
0.00308141
0.00304882
0.00304885
0.00308137
0.00304883
0.0030488
0.00308395
0.00304617
0.00308137
0.00304885
0.0030488
0.00304616
0.0030405
0.00300315
0.00303798
0.00303802
0.00300573
0.00300577
0.00304052
0.00300314
0.00303798
0.00303801
0.00300573
0.00300576
0.00303801
0.00300577
0.00300574
0.0030405
0.00300315
0.00303801
0.00300576
0.00300574
0.00300315
0.00299758
0.00296059
0.00299507
0.00299504
0.00296316
0.00296317
0.00299757
0.00296059
0.00299507
0.00299507
0.00296317
0.00296318
0.00299508
0.00296317
0.00296316
0.00299758
0.0029606
0.00299508
0.00296318
0.00296316
0.00296058
0.00295508
0.0029184
0.00295259
0.00295259
0.00292099
0.00292098
0.00295507
0.0029184
0.00295259
0.00295259
0.00292098
0.00292097
0.00295258
0.00292098
0.00292098
0.00295508
0.0029184
0.00295258
0.00292097
0.00292097
0.00291841
0.00291293
0.00287664
0.00291044
0.00291043
0.00287913
0.00287913
0.00291293
0.00287665
0.00291043
0.00291043
0.00287913
0.00287913
0.00291045
0.00287913
0.00287914
0.00291293
0.00287664
0.00291045
0.00287913
0.00287914
0.00287664
0.00287124
0.00283526
0.00286874
0.00286875
0.00283769
0.00283769
0.00287124
0.00283527
0.00286874
0.00286874
0.00283768
0.00283769
0.00286875
0.00283769
0.0028377
0.00287124
0.00283526
0.00286874
0.00283769
0.0028377
0.00283525
0.00282991
0.0027942
0.00282743
0.00282743
0.0027966
0.0027966
0.00282991
0.00279421
0.00282743
0.00282742
0.0027966
0.00279661
0.00282742
0.0027966
0.00279661
0.0028299
0.0027942
0.00282742
0.00279661
0.00279661
0.00279419
0.00278888
0.00275345
0.00278641
0.00278641
0.00275583
0.00275582
0.00278888
0.00275345
0.00278641
0.00278641
0.00275583
0.00275583
0.0027864
0.00275582
0.00275583
0.00278888
0.00275345
0.0027864
0.00275583
0.00275583
0.00275343
0.00274816
0.00271299
0.0027457
0.0027457
0.00271534
0.00271533
0.00274816
0.00271298
0.0027457
0.0027457
0.00271534
0.00271534
0.00274569
0.00271533
0.00271534
0.00274816
0.00271299
0.00274569
0.00271534
0.00271534
0.00271297
0.00270773
0.00270528
0.00270527
0.00270773
0.00270528
0.00270527
0.00270526
0.00270773
0.00270526
0.00363815
0.00364839
0.00364288
0.00364288
0.00366548
0.00365239
0.00368085
0.0036463
0.00366548
0.0036524
0.0036463
0.00368085
0.00365691
0.00368457
0.00368457
0.00359256
0.00361224
0.00362138
0.0035847
0.00358594
0.00358823
0.00359255
0.00361227
0.00362136
0.00358468
0.00361995
0.00361995
0.00361995
0.0035735
0.0035735
0.0035735
0.0035735
0.00359003
0.00361645
0.00361981
0.00359756
0.00361926
0.00358892
0.0035985
0.003586
0.00358821
0.00359003
0.00361981
0.00361645
0.00359756
0.00361927
0.0035985
0.00358891
0.0036223
0.0036223
0.00359285
0.00358863
0.00358863
0.00354735
0.00356639
0.00356778
0.00354588
0.00356529
0.00354543
0.00354735
0.00356641
0.00356778
0.00354588
0.0035621
0.0035621
0.0035621
0.00352379
0.00352379
0.00352379
0.00352379
0.00354597
0.00356651
0.00356198
0.00354989
0.00356533
0.00354649
0.00354971
0.0035653
0.00354543
0.00354597
0.00356198
0.00356651
0.00354989
0.00356533
0.00354971
0.00354649
0.0035675
0.0035675
0.00354624
0.0035468
0.0035468
0.00349494
0.00351376
0.00351484
0.00349392
0.0035134
0.00349364
0.00349494
0.00351376
0.00351484
0.00349392
0.00351052
0.00351052
0.00351052
0.00347124
0.00347124
0.00347124
0.00347124
0.00349404
0.00351417
0.00351041
0.00349738
0.0035136
0.0034944
0.00349728
0.0035134
0.00349364
0.00349404
0.00351041
0.00351417
0.00349738
0.0035136
0.00349728
0.0034944
0.00351441
0.00351441
0.00349402
0.00349447
0.00349447
0.00344245
0.0034611
0.00346196
0.00344168
0.00346089
0.0034415
0.00344245
0.0034611
0.00346196
0.00344168
0.00345826
0.00345826
0.00345826
0.0034196
0.0034196
0.0034196
0.0034196
0.00344194
0.00346151
0.00345821
0.00344531
0.00346122
0.00344213
0.00344527
0.00346089
0.0034415
0.00344194
0.00345821
0.00346151
0.00344531
0.00346122
0.00344527
0.00344213
0.00346154
0.00346154
0.00344199
0.00344206
0.00344206
0.00339125
0.00340961
0.00341024
0.00339069
0.00340946
0.00339056
0.00339125
0.00340961
0.00341024
0.00339069
0.00340688
0.00340688
0.00340688
0.00336926
0.00336926
0.00336926
0.00336926
0.00339098
0.00340996
0.00340686
0.00339426
0.00340978
0.00339109
0.00339423
0.00340946
0.00339056
0.00339098
0.00340686
0.00340996
0.00339426
0.00340978
0.00339423
0.00339109
0.00340994
0.00340994
0.00339106
0.00339099
0.003391
0.00334161
0.00335955
0.00336001
0.00334121
0.00335944
0.0033411
0.00334161
0.00335955
0.00336001
0.00334121
0.00335691
0.00335691
0.00335691
0.00332039
0.00332039
0.00332039
0.00332039
0.00334149
0.00335985
0.00335689
0.00334466
0.00335974
0.00334156
0.00334463
0.00335944
0.0033411
0.00334149
0.00335689
0.00335985
0.00334466
0.00335974
0.00334463
0.00334156
0.00335984
0.00335984
0.00334158
0.00334147
0.00334147
0.00329343
0.00331098
0.00331131
0.00329315
0.00331089
0.00329305
0.00329343
0.00331098
0.00331131
0.00329316
0.00330838
0.00330838
0.00330838
0.00327285
0.00327285
0.00327285
0.00327285
0.00329341
0.00331124
0.00330837
0.00329648
0.00331115
0.00329347
0.00329645
0.00331089
0.00329306
0.00329341
0.00330837
0.00331124
0.00329648
0.00331115
0.00329645
0.00329347
0.00331124
0.00331124
0.00329351
0.00329339
0.00329339
0.00324655
0.00326373
0.00326396
0.00324634
0.00326364
0.00324626
0.00324655
0.00326373
0.00326396
0.00324634
0.00326115
0.00326116
0.00326115
0.00322646
0.00322647
0.00322647
0.00322647
0.00324658
0.00326396
0.00326114
0.00324955
0.00326388
0.00324664
0.00324951
0.00326364
0.00324625
0.00324658
0.00326114
0.00326397
0.00324954
0.00326388
0.00324951
0.00324663
0.00326396
0.00326396
0.00324668
0.00324656
0.00324656
0.00320071
0.00321758
0.00321776
0.00320055
0.00321749
0.00320046
0.00320071
0.00321758
0.00321776
0.00320055
0.00321503
0.00321503
0.00321503
0.00318103
0.00318103
0.00318103
0.00318103
0.00320079
0.00321779
0.00321502
0.00320367
0.00321772
0.00320084
0.00320363
0.00321749
0.00320046
0.00320079
0.00321502
0.00321779
0.00320367
0.00321772
0.00320363
0.00320084
0.00321779
0.00321779
0.00320086
0.00320075
0.00320075
0.00315572
0.00317233
0.00317247
0.00315559
0.00317223
0.0031555
0.00315572
0.00317233
0.00317247
0.00315559
0.0031698
0.0031698
0.00316979
0.00313635
0.00313635
0.00313635
0.00313636
0.00315582
0.00317253
0.00316979
0.00315861
0.00317246
0.00315586
0.0031586
0.00317223
0.0031555
0.00315582
0.00316979
0.00317253
0.00315862
0.00317246
0.0031586
0.00315587
0.00317251
0.00317251
0.00315588
0.00315578
0.00315578
0.00311142
0.0031278
0.00312793
0.00311128
0.00312771
0.00311121
0.00311142
0.0031278
0.00312793
0.00311129
0.00312528
0.00312529
0.00312529
0.00309231
0.0030923
0.0030923
0.00309231
0.00311154
0.00312799
0.00312528
0.00311429
0.00312794
0.00311157
0.00311425
0.00312771
0.00311122
0.00311154
0.00312529
0.00312799
0.00311427
0.00312794
0.00311425
0.00311157
0.00312798
0.00312798
0.00311159
0.00311145
0.00311145
0.00306768
0.00308385
0.00308398
0.00306756
0.00308379
0.00306748
0.00306768
0.00308385
0.00308398
0.00306756
0.00308138
0.00308138
0.00308137
0.00304879
0.00304879
0.0030488
0.00304879
0.00306782
0.00308405
0.00308138
0.00307053
0.00308402
0.00306783
0.00307049
0.00308378
0.00306748
0.00306782
0.00308138
0.00308406
0.00307051
0.00308402
0.00307049
0.00306782
0.00308403
0.00308403
0.00306784
0.00306769
0.00306769
0.00302443
0.00304043
0.00304056
0.00302432
0.00304036
0.00302424
0.00302443
0.00304043
0.00304056
0.00302432
0.00303799
0.00303799
0.00303799
0.00300574
0.00300575
0.00300575
0.00300574
0.0030246
0.00304062
0.00303799
0.00302719
0.00304062
0.00302458
0.00302721
0.00304037
0.00302424
0.0030246
0.00303799
0.00304062
0.00302719
0.00304062
0.00302721
0.00302458
0.00304058
0.00304058
0.0030246
0.00302445
0.00302445
0.00298165
0.00299747
0.0029976
0.00298152
0.00299741
0.00298146
0.00298165
0.00299748
0.0029976
0.00298152
0.00299505
0.00299506
0.00299506
0.00296315
0.00296315
0.00296315
0.00296315
0.00298183
0.00299765
0.00299506
0.00298444
0.00299767
0.00298179
0.00298441
0.00299741
0.00298145
0.00298183
0.00299506
0.00299766
0.00298442
0.00299767
0.0029844
0.00298178
0.0029976
0.0029976
0.00298181
0.00298164
0.00298164
0.00293927
0.00295496
0.00295508
0.00293914
0.00295489
0.00293909
0.00293927
0.00295495
0.00295508
0.00293914
0.00295257
0.00295257
0.00295256
0.00292096
0.00292096
0.00292095
0.00292096
0.00293948
0.00295512
0.00295257
0.00294198
0.00295517
0.00293941
0.00294201
0.00295489
0.00293909
0.00293948
0.00295257
0.00295513
0.00294198
0.00295517
0.00294201
0.00293941
0.00295507
0.00295507
0.00293947
0.00293925
0.00293926
0.0028973
0.00291282
0.00291295
0.00289718
0.00291279
0.00289714
0.0028973
0.00291282
0.00291295
0.00289719
0.00291046
0.00291046
0.00291046
0.00287915
0.00287915
0.00287915
0.00287915
0.00289754
0.00291299
0.00291048
0.00290001
0.00291306
0.00289744
0.00290003
0.00291279
0.00289713
0.00289753
0.00291048
0.00291298
0.00290002
0.00291306
0.00290003
0.00289744
0.00291295
0.00291295
0.00289751
0.00289727
0.00289727
0.00285571
0.0028711
0.00287122
0.0028556
0.00287106
0.00285554
0.00285571
0.0028711
0.00287122
0.0028556
0.00286876
0.00286876
0.00286876
0.00283772
0.00283772
0.00283772
0.00283772
0.00285596
0.00287125
0.00286878
0.00285842
0.00287135
0.00285584
0.00285842
0.00287107
0.00285554
0.00285596
0.00286878
0.00287125
0.00285843
0.00287135
0.00285842
0.00285584
0.00287121
0.00287121
0.00285592
0.00285567
0.00285567
0.00281446
0.00282974
0.00282985
0.00281435
0.0028297
0.00281431
0.00281446
0.00282974
0.00282985
0.00281435
0.00282742
0.00282742
0.00282742
0.00279663
0.00279663
0.00279663
0.00279663
0.00281473
0.00282987
0.00282744
0.00281715
0.00282998
0.00281459
0.00281715
0.0028297
0.00281431
0.00281473
0.00282744
0.00282987
0.00281715
0.00282998
0.00281715
0.00281459
0.00282983
0.00282983
0.00281467
0.00281443
0.00281443
0.00277354
0.00278872
0.00278881
0.00277343
0.00278867
0.00277341
0.00277354
0.00278871
0.00278881
0.00277344
0.00278641
0.00278641
0.00278641
0.00275585
0.00275585
0.00275586
0.00275585
0.00277382
0.00278883
0.00278643
0.0027762
0.00278895
0.00277366
0.00277622
0.00278867
0.00277341
0.00277382
0.00278642
0.00278883
0.00277619
0.00278895
0.00277621
0.00277366
0.00278879
0.00278878
0.00277377
0.00277351
0.00277351
0.00273293
0.002748
0.00274808
0.00273283
0.00274796
0.0027328
0.00273293
0.002748
0.00274809
0.00273283
0.00274571
0.00274571
0.00274571
0.00271538
0.00271537
0.00271538
0.00271537
0.0027332
0.00274809
0.00274572
0.00273556
0.00274822
0.00273304
0.00273558
0.00274796
0.0027328
0.0027332
0.00274572
0.0027481
0.00273556
0.00274822
0.00273558
0.00273304
0.00274806
0.00274806
0.00273317
0.0027329
0.0027329
0.0026926
0.00270758
0.00270765
0.00269251
0.00270754
0.00269248
0.0026926
0.00270757
0.00270765
0.00269251
0.0027053
0.0027053
0.0027053
0.00269287
0.00270765
0.0027053
0.00269521
0.00270778
0.0026927
0.00269523
0.00270754
0.00269287
0.0027053
0.00270765
0.00270778
0.00269523
0.00270763
0.00270763
0.00269285
0.00269256
0.00269256
0.00365691
0.00368456
0.00368457
0.00364838
0.00368408
0.00364838
0.00368408
0.00365387
0.00364021
0.00364024
0.00367936
0.00367936
0.00366547
0.00365239
0.00368083
0.00364629
0.00366547
0.00365239
0.00368083
0.00364629
0.00367011
0.00364047
0.00368122
0.00363531
0.00367011
0.00364051
0.00368121
0.0036353
0.00366133
0.00364999
0.0036317
0.00362752
0.00367612
0.00364451
0.00363224
0.00366133
0.00364999
0.0036317
0.00362752
0.00367611
0.00364451
0.00363224
0.00365691
0.00368456
0.00368457
0.0036484
0.00368408
0.00365387
0.00364021
0.00364023
0.00367936
0.00367937
0.00364839
0.00368409
0.00366548
0.00365239
0.00368084
0.0036463
0.00366548
0.0036524
0.0036463
0.00368084
0.00367013
0.00364046
0.00368121
0.00363531
0.00366134
0.00364999
0.00363171
0.00362752
0.00367612
0.00364452
0.00363225
0.00367013
0.00364052
0.00368121
0.00363531
0.00366134
0.00364999
0.00362752
0.00363171
0.00364452
0.00367612
0.00363224
0.00363815
0.00364839
0.00364288
0.00364288
0.00363815
0.00364839
0.00364288
0.00364288
0.00363815
0.00364839
0.00364288
0.00364288
0.00363689
0.00364642
0.00362633
0.00362633
0.00364133
0.00364133
0.00362431
0.00363689
0.00364642
0.00362633
0.00362633
0.00364133
0.00364133
0.00362431
0.00363689
0.00364642
0.00362633
0.00362633
0.00364133
0.00364133
0.00362431
0.00363689
0.00364642
0.00362633
0.00362633
0.00364133
0.00364133
0.00362431
0.00366548
0.0036524
0.0036463
0.00368084
0.00366134
0.00364999
0.0036317
0.00362752
0.00367612
0.00364452
0.00363224
0.00367014
0.00364044
0.00368123
0.0036353
0.00366134
0.00364999
0.00362752
0.0036317
0.00364452
0.00367612
0.00363224
0.00367013
0.0036405
0.00368122
0.0036353
0.00365691
0.00368457
0.00368457
0.00364843
0.00368408
0.00365388
0.00364024
0.00364023
0.00367937
0.00367937
0.00364837
0.00368409
0.00366548
0.0036524
0.0036463
0.00368084
0.00366134
0.00364999
0.00362752
0.00363171
0.00364452
0.00367612
0.00363224
0.00366134
0.00364999
0.00362752
0.00363171
0.00364452
0.00367612
0.00363224
0.00367013
0.00364045
0.00368123
0.00363531
0.00367013
0.00364047
0.00368122
0.0036353
0.00365388
0.00364023
0.00364023
0.00367936
0.00367937
0.00364838
0.00368408
0.00364838
0.00368408
0.00358587
0.00358823
0.00358607
0.00358818
0.00362226
0.00362231
0.00359285
0.00358864
0.00358862
0.00357184
0.00358801
0.00357187
0.00358798
0.00358684
0.00357449
0.0035745
0.00358695
0.00358693
0.00359257
0.00361229
0.00362137
0.0035847
0.00359005
0.00361644
0.00361981
0.00359757
0.00361927
0.00358893
0.0035985
0.00359005
0.00361644
0.00361981
0.00359757
0.00361927
0.00358893
0.0035985
0.0035882
0.00357359
0.00358572
0.00357439
0.00358821
0.0035736
0.00358572
0.00357439
0.00358527
0.00358482
0.00357333
0.00357356
0.00358631
0.00358525
0.00357171
0.00358528
0.00358483
0.00357333
0.00357356
0.00358631
0.00358525
0.00357171
0.00362227
0.0036223
0.00359285
0.00358864
0.00358863
0.00358605
0.00358821
0.00357186
0.00358801
0.00358684
0.00357449
0.0035745
0.00358695
0.00358694
0.00357188
0.00358797
0.00359003
0.00361645
0.00361981
0.00359756
0.00361927
0.00358891
0.0035985
0.00359255
0.00361227
0.00362136
0.00358468
0.00359004
0.00361982
0.00361644
0.00359756
0.00361927
0.0035985
0.00358891
0.0035882
0.00357361
0.0035857
0.00357439
0.00358526
0.00358482
0.00357334
0.00357356
0.0035863
0.00358525
0.00357171
0.0035882
0.00357361
0.0035857
0.00357439
0.00358527
0.00358482
0.00357356
0.00357333
0.00358525
0.00358629
0.00357171
0.00359255
0.00361225
0.00362135
0.00358469
0.00359004
0.00361981
0.00361644
0.00359756
0.00361926
0.0035985
0.00358891
0.00359256
0.00361227
0.00362134
0.00358468
0.00358527
0.00358483
0.00357334
0.00357356
0.0035863
0.00358525
0.00357171
0.0035882
0.00357361
0.0035857
0.00357439
0.00358527
0.00358482
0.00357356
0.00357333
0.00358525
0.0035863
0.00357171
0.00358821
0.00357361
0.00358571
0.00357439
0.00362229
0.00362232
0.00359285
0.00358862
0.00358862
0.00358608
0.00358819
0.00357187
0.00358799
0.00358683
0.0035745
0.0035745
0.00358694
0.00358693
0.00357188
0.00358797
0.00359004
0.00361981
0.00361645
0.00359756
0.00361926
0.0035985
0.00358892
0.00359256
0.00361226
0.00362136
0.00358469
0.00359256
0.00361227
0.00362135
0.00358468
0.00358527
0.00358482
0.00357356
0.00357333
0.00358525
0.0035863
0.00357171
0.00358527
0.00358483
0.00357356
0.00357333
0.00358525
0.0035863
0.00357171
0.0035882
0.0035736
0.00358571
0.00357439
0.00358821
0.00357361
0.0035857
0.00357439
0.00358604
0.00358821
0.00358607
0.0035882
0.00358684
0.0035745
0.0035745
0.00358695
0.00358694
0.00357187
0.003588
0.00357187
0.00358798
0.00356529
0.00354544
0.00356532
0.00354542
0.00356749
0.00356751
0.00354624
0.0035468
0.0035468
0.00351995
0.00353899
0.00351995
0.00353898
0.00353938
0.00352102
0.00352102
0.00354033
0.00354032
0.00354736
0.0035664
0.00356778
0.00354588
0.00354597
0.0035665
0.00356198
0.00354989
0.00356533
0.00354649
0.00354971
0.00354597
0.0035665
0.00356198
0.00354989
0.00356532
0.00354649
0.00354971
0.00354081
0.00352036
0.00353949
0.00352146
0.00354082
0.00352036
0.0035395
0.00352146
0.00353941
0.00353691
0.00352083
0.00352361
0.00354003
0.0035368
0.00352029
0.00353941
0.00353691
0.00352083
0.00352361
0.00354003
0.0035368
0.00352029
0.00356749
0.0035675
0.00354624
0.0035468
0.0035468
0.0035653
0.00354543
0.00351995
0.00353899
0.00353938
0.00352102
0.00352102
0.00354033
0.00354033
0.00351995
0.00353899
0.00354597
0.00356651
0.00356198
0.00354989
0.00356533
0.00354649
0.00354971
0.00354736
0.0035664
0.00356778
0.00354588
0.00354597
0.00356198
0.00356651
0.00354989
0.00356533
0.00354971
0.00354649
0.00354081
0.00352036
0.00353949
0.00352146
0.00353941
0.00353691
0.00352083
0.00352361
0.00354002
0.0035368
0.00352029
0.00354082
0.00352036
0.0035395
0.00352146
0.00353941
0.00353691
0.00352361
0.00352083
0.0035368
0.00354003
0.00352029
0.00354735
0.00356641
0.00356778
0.00354588
0.00354597
0.00356198
0.00356651
0.00354989
0.00356533
0.00354971
0.00354649
0.00354736
0.0035664
0.00356778
0.00354588
0.00353941
0.00353691
0.00352083
0.00352361
0.00354003
0.0035368
0.00352029
0.00354081
0.00352036
0.00353949
0.00352146
0.00353941
0.00353691
0.00352361
0.00352083
0.0035368
0.00354003
0.00352029
0.00354082
0.00352036
0.00353949
0.00352146
0.0035675
0.0035675
0.00354624
0.0035468
0.0035468
0.0035653
0.00354543
0.00351995
0.00353899
0.00353938
0.00352102
0.00352102
0.00354033
0.00354033
0.00351995
0.00353899
0.00354597
0.00356198
0.00356651
0.00354989
0.00356533
0.00354971
0.00354649
0.00354735
0.0035664
0.00356778
0.00354588
0.00354735
0.0035664
0.00356778
0.00354588
0.00353941
0.00353691
0.00352361
0.00352083
0.0035368
0.00354003
0.00352029
0.00353941
0.00353691
0.00352361
0.00352083
0.0035368
0.00354003
0.00352029
0.00354081
0.00352036
0.00353949
0.00352146
0.00354081
0.00352036
0.00353949
0.00352146
0.00356529
0.00354543
0.0035653
0.00354543
0.00353938
0.00352102
0.00352102
0.00354033
0.00354033
0.00351995
0.00353899
0.00351995
0.00353899
0.0035134
0.00349364
0.0035134
0.00349364
0.0035144
0.00351441
0.00349402
0.00349447
0.00349447
0.00346743
0.00348701
0.00346743
0.00348701
0.00348708
0.0034681
0.0034681
0.00348781
0.00348781
0.00349494
0.00351376
0.00351484
0.00349392
0.00349404
0.00351417
0.0035104
0.00349738
0.0035136
0.0034944
0.00349728
0.00349404
0.00351417
0.00351041
0.00349738
0.0035136
0.0034944
0.00349728
0.00348827
0.00346765
0.00348728
0.00346854
0.00348827
0.00346765
0.00348728
0.00346854
0.00348732
0.0034843
0.00346813
0.0034712
0.00348771
0.00348422
0.00346787
0.00348732
0.0034843
0.00346812
0.0034712
0.0034877
0.00348422
0.00346787
0.00351441
0.00351441
0.00349402
0.00349447
0.00349447
0.0035134
0.00349364
0.00346743
0.00348701
0.00348708
0.0034681
0.0034681
0.00348781
0.00348781
0.00346743
0.00348701
0.00349404
0.00351417
0.0035104
0.00349738
0.0035136
0.0034944
0.00349728
0.00349494
0.00351376
0.00351484
0.00349392
0.00349404
0.00351041
0.00351417
0.00349738
0.0035136
0.00349728
0.0034944
0.00348827
0.00346765
0.00348728
0.00346854
0.00348732
0.0034843
0.00346812
0.0034712
0.00348771
0.00348422
0.00346787
0.00348827
0.00346765
0.00348728
0.00346854
0.00348732
0.0034843
0.0034712
0.00346812
0.00348422
0.0034877
0.00346787
0.00349494
0.00351376
0.00351484
0.00349392
0.00349404
0.00351041
0.00351417
0.00349738
0.0035136
0.00349728
0.0034944
0.00349494
0.00351376
0.00351484
0.00349392
0.00348732
0.0034843
0.00346813
0.0034712
0.00348771
0.00348422
0.00346787
0.00348827
0.00346765
0.00348728
0.00346854
0.00348732
0.0034843
0.0034712
0.00346812
0.00348422
0.0034877
0.00346787
0.00348827
0.00346765
0.00348728
0.00346854
0.00351441
0.00351441
0.00349402
0.00349447
0.00349447
0.0035134
0.00349364
0.00346743
0.00348702
0.00348708
0.0034681
0.0034681
0.00348781
0.00348781
0.00346743
0.00348702
0.00349404
0.00351041
0.00351417
0.00349738
0.0035136
0.00349728
0.0034944
0.00349494
0.00351376
0.00351484
0.00349392
0.00349494
0.00351376
0.00351484
0.00349392
0.00348732
0.0034843
0.0034712
0.00346813
0.00348422
0.00348771
0.00346787
0.00348732
0.0034843
0.0034712
0.00346812
0.00348422
0.0034877
0.00346787
0.00348827
0.00346765
0.00348728
0.00346854
0.00348827
0.00346765
0.00348728
0.00346854
0.0035134
0.00349364
0.0035134
0.00349364
0.00348708
0.0034681
0.0034681
0.00348781
0.00348781
0.00346743
0.00348701
0.00346743
0.00348701
0.00346089
0.0034415
0.00346089
0.0034415
0.00346154
0.00346154
0.00344199
0.00344206
0.00344206
0.00341585
0.00343502
0.00341585
0.00343502
0.00343519
0.00341634
0.00341634
0.00343557
0.00343557
0.00344245
0.0034611
0.00346196
0.00344168
0.00344194
0.00346151
0.00345821
0.00344531
0.00346122
0.00344213
0.00344527
0.00344194
0.00346151
0.00345821
0.00344531
0.00346122
0.00344213
0.00344527
0.00343594
0.00341601
0.00343519
0.00341666
0.00343594
0.00341601
0.00343519
0.00341666
0.00343536
0.00343242
0.00341642
0.00341958
0.00343557
0.00343239
0.00341628
0.00343536
0.00343243
0.00341642
0.00341958
0.00343557
0.00343239
0.00341628
0.00346154
0.00346154
0.00344199
0.00344206
0.00344206
0.00346089
0.0034415
0.00341585
0.00343502
0.00343519
0.00341634
0.00341634
0.00343557
0.00343557
0.00341585
0.00343502
0.00344194
0.00346151
0.00345821
0.00344531
0.00346122
0.00344213
0.00344527
0.00344245
0.0034611
0.00346196
0.00344168
0.00344194
0.00345821
0.00346151
0.00344531
0.00346122
0.00344527
0.00344213
0.00343594
0.003416
0.00343519
0.00341666
0.00343536
0.00343242
0.00341642
0.00341958
0.00343557
0.00343239
0.00341628
0.00343594
0.00341601
0.00343519
0.00341666
0.00343536
0.00343243
0.00341958
0.00341642
0.00343239
0.00343557
0.00341628
0.00344245
0.0034611
0.00346196
0.00344168
0.00344194
0.00345821
0.00346151
0.00344531
0.00346122
0.00344527
0.00344213
0.00344245
0.0034611
0.00346196
0.00344168
0.00343536
0.00343242
0.00341642
0.00341958
0.00343557
0.00343239
0.00341628
0.00343594
0.00341601
0.00343519
0.00341666
0.00343536
0.00343242
0.00341958
0.00341642
0.00343239
0.00343557
0.00341628
0.00343594
0.003416
0.00343519
0.00341666
0.00346154
0.00346154
0.00344199
0.00344206
0.00344206
0.00346089
0.0034415
0.00341585
0.00343502
0.00343519
0.00341634
0.00341634
0.00343557
0.00343557
0.00341585
0.00343502
0.00344194
0.00345821
0.00346151
0.00344531
0.00346122
0.00344527
0.00344213
0.00344245
0.0034611
0.00346196
0.00344168
0.00344245
0.0034611
0.00346196
0.00344168
0.00343536
0.00343242
0.00341958
0.00341642
0.00343239
0.00343557
0.00341628
0.00343536
0.00343242
0.00341958
0.00341642
0.00343239
0.00343557
0.00341628
0.00343594
0.00341601
0.00343519
0.00341666
0.00343594
0.003416
0.00343519
0.00341666
0.00346089
0.0034415
0.00346089
0.0034415
0.00343518
0.00341634
0.00341634
0.00343557
0.00343557
0.00341585
0.00343502
0.00341585
0.00343502
0.00340946
0.00339056
0.00340946
0.00339056
0.00340994
0.00340994
0.00339106
0.003391
0.00339099
0.00336564
0.00338426
0.00336564
0.00338426
0.00338445
0.00336604
0.00336604
0.0033847
0.0033847
0.00339125
0.00340961
0.00341024
0.00339069
0.00339098
0.00340996
0.00340686
0.00339426
0.00340978
0.00339109
0.00339423
0.00339098
0.00340996
0.00340686
0.00339426
0.00340978
0.00339109
0.00339423
0.00338493
0.00336577
0.00338439
0.00336624
0.00338493
0.00336576
0.00338439
0.00336624
0.00338457
0.00338172
0.00336613
0.00336925
0.00338471
0.00338169
0.00336605
0.00338457
0.00338172
0.00336613
0.00336925
0.00338471
0.00338169
0.00336605
0.00340994
0.00340994
0.00339106
0.003391
0.00339099
0.00340946
0.00339056
0.00336564
0.00338426
0.00338445
0.00336605
0.00336604
0.0033847
0.0033847
0.00336564
0.00338426
0.00339098
0.00340996
0.00340686
0.00339426
0.00340978
0.00339109
0.00339423
0.00339125
0.00340961
0.00341024
0.00339069
0.00339098
0.00340686
0.00340996
0.00339426
0.00340978
0.00339423
0.00339109
0.00338493
0.00336577
0.00338439
0.00336624
0.00338457
0.00338171
0.00336613
0.00336925
0.00338471
0.00338169
0.00336605
0.00338493
0.00336577
0.00338439
0.00336624
0.00338457
0.00338172
0.00336924
0.00336613
0.00338169
0.00338471
0.00336605
0.00339125
0.00340961
0.00341024
0.00339069
0.00339098
0.00340686
0.00340996
0.00339426
0.00340978
0.00339423
0.00339109
0.00339125
0.00340961
0.00341024
0.00339069
0.00338457
0.00338171
0.00336613
0.00336925
0.00338471
0.00338169
0.00336605
0.00338493
0.00336576
0.00338439
0.00336624
0.00338457
0.00338172
0.00336925
0.00336613
0.00338169
0.00338471
0.00336605
0.00338493
0.00336576
0.00338439
0.00336624
0.00340994
0.00340994
0.00339106
0.00339099
0.003391
0.00340946
0.00339056
0.00336564
0.00338426
0.00338445
0.00336604
0.00336604
0.0033847
0.0033847
0.00336564
0.00338426
0.00339098
0.00340686
0.00340996
0.00339425
0.00340978
0.00339423
0.00339109
0.00339125
0.00340961
0.00341024
0.00339069
0.00339125
0.00340961
0.00341024
0.00339069
0.00338457
0.00338171
0.00336925
0.00336613
0.00338169
0.00338471
0.00336605
0.00338457
0.00338172
0.00336925
0.00336613
0.00338169
0.00338471
0.00336605
0.00338493
0.00336576
0.00338439
0.00336624
0.00338493
0.00336576
0.00338439
0.00336624
0.00340946
0.00339056
0.00340946
0.00339056
0.00338445
0.00336604
0.00336604
0.0033847
0.0033847
0.00336564
0.00338426
0.00336564
0.00338426
0.00335944
0.0033411
0.00335944
0.0033411
0.00335984
0.00335984
0.00334158
0.00334147
0.00334147
0.00331692
0.00333499
0.00331691
0.00333499
0.00333518
0.00331726
0.00331726
0.00333537
0.00333536
0.00334161
0.00335955
0.00336001
0.00334121
0.00334149
0.00335985
0.00335689
0.00334466
0.00335974
0.00334156
0.00334463
0.00334149
0.00335985
0.00335689
0.00334466
0.00335974
0.00334156
0.00334463
0.00333548
0.00331702
0.00333509
0.00331735
0.00333548
0.00331702
0.00333509
0.00331735
0.00333527
0.00333248
0.00331735
0.00332037
0.00333537
0.00333246
0.00331728
0.00333527
0.00333248
0.00331735
0.00332037
0.00333537
0.00333246
0.00331728