/*--------------------------------*- C++ -*----------------------------------*\
| =========                 |                                                 |
| \\      /  F ield         | OpenFOAM: The Open Source CFD Toolbox           |
|  \\    /   O peration     | Version:  2312                                  |
|   \\  /    A nd           | Website:  www.openfoam.com                      |
|    \\/     M anipulation  |                                                 |
\*---------------------------------------------------------------------------*/
FoamFile
{
    version     2.0;
    format      ascii;
    arch        "LSB;label=32;scalar=64";
    class       volScalarField;
    location    "250";
    object      p;
}
// * * * * * * * * * * * * * * * * * * * * * * * * * * * * * * * * * * * * * //

dimensions      [0 2 -2 0 0 0 0];

internalField   nonuniform List<scalar> 
43168
(
0.000729069
0.00072904
0.00072904
0.000731128
0.00073611
0.000738186
0.000738187
0.000736105
0.000738185
0.000738186
0.000738189
0.000738185
0.00073611
0.000738186
0.000738186
0.000736111
0.000731127
0.00072904
0.000729039
0.000731124
0.00072904
0.00072904
0.000729039
0.000731127
0.000729039
0.000754211
0.000754211
0.000738214
0.000738206
0.000738214
0.000738215
0.000717638
0.000731326
0.000731324
0.000717633
0.000731326
0.000717633
0.000717638
0.000731326
0.000731324
0.000717633
0.000729071
0.00072907
0.000729076
0.000717693
0.000731296
0.000729048
0.000719893
0.000731273
0.000717664
0.000719901
0.000731326
0.000717634
0.000717694
0.000729048
0.000731297
0.000719895
0.000731273
0.000719901
0.000717664
0.00073133
0.00073133
0.000717821
0.000717631
0.000717631
0.000754212
0.000754212
0.000754401
0.000754209
0.000754209
0.000735924
0.000749614
0.000735924
0.000749614
0.000749417
0.000735921
0.000735921
0.000749618
0.000749618
0.000756475
0.000754242
0.000749612
0.000735922
0.000749615
0.000735926
0.000749612
0.000735922
0.000749615
0.000735926
0.00074956
0.000747331
0.000735953
0.000738194
0.000749584
0.00074734
0.00073598
0.00074956
0.000747335
0.000735953
0.000738195
0.000749584
0.00074734
0.00073598
0.000735924
0.000749614
0.000749421
0.000735921
0.00073592
0.000749618
0.000735924
0.000756475
0.000754241
0.000749612
0.000735922
0.000749614
0.000735926
0.000749559
0.000747331
0.000735953
0.000738194
0.000749584
0.00074734
0.00073598
0.000749612
0.000735922
0.000749614
0.000735926
0.00074956
0.000747331
0.000738194
0.000735953
0.00074734
0.000749584
0.00073598
0.000735953
0.000738195
0.000735979
0.000735922
0.000735926
0.000738195
0.000735953
0.000735979
0.000735922
0.000735926
0.000735924
0.000749614
0.000749417
0.000735921
0.000735921
0.000749618
0.000749618
0.000735924
0.000749614
0.00074956
0.000747332
0.000738195
0.000735953
0.00074734
0.000749584
0.00073598
0.000749559
0.000747334
0.000738195
0.000735953
0.00074734
0.000749584
0.00073598
0.000749612
0.000735922
0.000749614
0.000735926
0.000749611
0.000735922
0.000749614
0.000735927
0.00074941
0.00073592
0.000735921
0.000749617
0.000735924
0.000735924
0.000749613
0.000731326
0.000717634
0.000731326
0.000717634
0.00073133
0.00073133
0.000717822
0.000717631
0.000717631
0.000713035
0.000713035
0.000712839
0.000713039
0.000713039
0.000717638
0.000731326
0.000731324
0.000717633
0.000717693
0.000731296
0.000729047
0.000719895
0.000731273
0.000717664
0.000719901
0.000717693
0.000731296
0.000729047
0.000719893
0.000731273
0.000717664
0.0007199
0.000713034
0.000713036
0.000713034
0.000713036
0.000712984
0.000710751
0.000713006
0.000710757
0.000712984
0.00071075
0.000713005
0.000710756
0.00073133
0.000731329
0.000717822
0.000717631
0.00071763
0.000731325
0.000717634
0.000713034
0.000712838
0.000713038
0.000713039
0.000713034
0.000717694
0.000731296
0.000729048
0.000719895
0.000731273
0.000717664
0.000719901
0.000717638
0.000731326
0.000731324
0.000717633
0.000717694
0.000729047
0.000731296
0.000719895
0.000731273
0.000719901
0.000717664
0.000713034
0.000713036
0.000712985
0.000710751
0.000713006
0.000710757
0.000713034
0.000713036
0.000712985
0.000710751
0.000710756
0.000713006
0.000717638
0.000731326
0.000731323
0.000717633
0.000717693
0.000729048
0.000731296
0.000719894
0.000731273
0.000719901
0.000717664
0.000717638
0.000731326
0.000731323
0.000717633
0.000712984
0.000710749
0.000713006
0.000710756
0.000713034
0.000713036
0.000712985
0.000710751
0.000710756
0.000713006
0.000713034
0.000713036
0.00073133
0.00073133
0.000717822
0.000717631
0.000717631
0.000731326
0.000717634
0.000713035
0.000712839
0.000713039
0.000713039
0.000713035
0.000717694
0.000729048
0.000731296
0.000719893
0.000731273
0.000719901
0.000717664
0.000717638
0.000731326
0.000731324
0.000717633
0.000717639
0.000731326
0.000731323
0.000717633
0.000712985
0.000710751
0.000710756
0.000713006
0.000712985
0.00071075
0.000710757
0.000713006
0.000713034
0.000713036
0.000713034
0.000713036
0.000731325
0.000717634
0.000731326
0.000717634
0.000712839
0.000713039
0.000713039
0.000713035
0.000713035
0.000758758
0.00075421
0.00075876
0.000758763
0.000754216
0.00075876
0.000722187
0.00072218
0.000717631
0.000717637
0.000722188
0.00072218
0.000717632
0.000726784
0.000731329
0.000726778
0.000731324
0.000726778
0.000726777
0.000726783
0.000731332
0.000731324
0.000731331
0.000726776
0.000726782
0.00072218
0.000717633
0.000722182
0.000722185
0.000717639
0.000726779
0.00072218
0.000722187
0.00072218
0.000717637
0.000717631
0.00072218
0.000722188
0.000717632
0.000726784
0.000731329
0.000726778
0.000731324
0.000726778
0.000726777
0.000726783
0.000731324
0.000731332
0.000731331
0.000726782
0.000726776
0.00072218
0.000717633
0.000722182
0.000722185
0.000717639
0.00072678
0.000722181
0.000722186
0.000717632
0.000717632
0.000722181
0.000722181
0.000717627
0.000726788
0.000731321
0.000731327
0.000726776
0.000731318
0.000726784
0.000726778
0.000726788
0.000731323
0.000731327
0.000726776
0.000731319
0.000726786
0.000726778
0.000726774
0.000731326
0.000731326
0.000731332
0.000726778
0.000726778
0.000722172
0.000717632
0.000722185
0.000717639
0.000722176
0.000722182
0.000717642
0.000722173
0.000717632
0.000722185
0.000717639
0.000722177
0.000722182
0.000717641
0.000758758
0.000758759
0.000758764
0.000754211
0.000754211
0.000758759
0.000758759
0.000754206
0.00075875
0.00075421
0.000758762
0.000754217
0.00075876
0.000754221
0.000758753
0.00075875
0.00075421
0.000758763
0.000754217
0.00075876
0.000754221
0.000758753
0.00074047
0.000745068
0.00074047
0.000745068
0.000745063
0.000749615
0.000749615
0.00074962
0.000745067
0.000745067
0.000740463
0.00073593
0.000740474
0.000735923
0.000740472
0.000740466
0.000735933
0.000740463
0.00073593
0.000740474
0.000735923
0.000740472
0.000740466
0.000735933
0.000745077
0.000749616
0.000749609
0.000745065
0.000749606
0.000745067
0.000745074
0.000745077
0.000749615
0.000749609
0.000745065
0.000749606
0.000745067
0.000745074
0.000740476
0.000735923
0.000735923
0.000740471
0.000740471
0.000735919
0.000745064
0.00074962
0.000749612
0.00074507
0.000749619
0.000745063
0.000745069
0.000740467
0.00074047
0.000735921
0.000735928
0.000740473
0.000745071
0.000749617
0.000745066
0.000749612
0.000745065
0.000740474
0.000740467
0.00073592
0.000735925
0.00073592
0.000740475
0.000740468
0.000745064
0.00074962
0.000749612
0.00074507
0.000749619
0.000745063
0.000745069
0.000740467
0.00074047
0.000735921
0.000740472
0.000735928
0.000745071
0.000749617
0.000745067
0.000749612
0.000745065
0.000740474
0.000740467
0.000735919
0.000735925
0.000740475
0.000740468
0.00073592
0.00074047
0.000745068
0.000740463
0.000735931
0.000740474
0.000735922
0.000740468
0.000740472
0.000735933
0.000740463
0.000735929
0.000740474
0.000735922
0.000740471
0.000740465
0.000735933
0.000749609
0.000745065
0.000745074
0.000740476
0.000735923
0.000735923
0.000740471
0.000740471
0.000735919
0.00074047
0.000745064
0.000749612
0.000749619
0.00074507
0.000749618
0.000745069
0.000745063
0.000740467
0.00074047
0.000735921
0.000735928
0.000740473
0.000745072
0.000749617
0.000745066
0.000749612
0.000745065
0.000740474
0.000740468
0.000735925
0.00073592
0.00073592
0.000740468
0.000740475
0.000745064
0.000749619
0.000749612
0.00074507
0.000749618
0.000745063
0.000745069
0.000740467
0.00074047
0.000735921
0.000740473
0.000735928
0.000745071
0.000749617
0.000745066
0.000749612
0.000745065
0.000740474
0.000740467
0.00073592
0.000735925
0.000740475
0.000740468
0.00073592
0.000740467
0.00074047
0.000735921
0.000740472
0.000735927
0.000740474
0.000740467
0.000735925
0.000735919
0.000740467
0.000740475
0.00073592
0.000740467
0.00074047
0.000735921
0.000740472
0.000735927
0.000740474
0.000740467
0.000735919
0.000735925
0.000740475
0.000740467
0.00073592
0.00074047
0.000745068
0.000745063
0.000749614
0.000749615
0.00074962
0.000745067
0.000745067
0.000740463
0.00073593
0.000740474
0.000735923
0.000740466
0.000740472
0.000735933
0.000740463
0.00073593
0.000740474
0.000735923
0.000740472
0.000740466
0.000735933
0.000745077
0.000749615
0.000749609
0.000745064
0.000745073
0.000749606
0.000745066
0.000745077
0.000749615
0.000749609
0.000745065
0.000749606
0.000745066
0.000745073
0.000740476
0.000735923
0.000735923
0.000740471
0.000740471
0.000735919
0.00074047
0.000745068
0.000745064
0.000749612
0.00074962
0.00074507
0.000749619
0.000745069
0.000745063
0.000740467
0.00074047
0.000735921
0.000740473
0.000735928
0.000745072
0.000749617
0.000745066
0.000749612
0.000745065
0.000740474
0.000740467
0.000735925
0.00073592
0.000740468
0.000740475
0.00073592
0.000745064
0.000749612
0.000749619
0.000745071
0.000749618
0.000745069
0.000745063
0.000740467
0.00074047
0.000735921
0.000740472
0.000735927
0.000745071
0.000749617
0.000745066
0.000749612
0.000745065
0.000740474
0.000740467
0.000735925
0.00073592
0.000740467
0.000740475
0.00073592
0.000745062
0.000745067
0.000745067
0.000740461
0.000735929
0.000740474
0.000735922
0.000735932
0.000740465
0.000740471
0.000740463
0.000735931
0.000740474
0.000735922
0.000735934
0.000740466
0.000740471
0.000745076
0.000745065
0.000745074
0.000745066
0.000745077
0.000749607
0.000745064
0.000745071
0.000745066
0.000740476
0.000735923
0.000735923
0.000735918
0.00074047
0.00074047
0.000740469
0.000745068
0.000740469
0.000745067
0.00072678
0.000722181
0.00072678
0.000722181
0.000722186
0.000717632
0.000717632
0.000722181
0.000722181
0.000717627
0.000726788
0.000731322
0.000731328
0.000726777
0.000731318
0.000726778
0.000726785
0.000726788
0.000731322
0.000731327
0.000726776
0.000731318
0.000726778
0.000726785
0.000726774
0.000731326
0.000731326
0.000731332
0.000726778
0.000726778
0.000722172
0.000717632
0.000722185
0.000717639
0.000722182
0.000717642
0.000722176
0.000722172
0.000717632
0.000722185
0.000717639
0.000722182
0.000717642
0.000722176
0.000708488
0.000708488
0.000708481
0.000713035
0.000713035
0.00071304
0.000708486
0.000708486
0.000708495
0.000713036
0.000713029
0.000708485
0.000713026
0.000708486
0.000708492
0.000708495
0.000713036
0.00071303
0.000708484
0.000713026
0.000708486
0.000708492
0.000722187
0.00072218
0.000717631
0.000717637
0.000722188
0.00072218
0.000717632
0.000726784
0.000731329
0.000726778
0.000731324
0.000726777
0.000726777
0.000726782
0.000731331
0.000731324
0.000726776
0.000731331
0.000726782
0.000722179
0.000717632
0.000722181
0.000722184
0.000717639
0.000708485
0.000713042
0.000713035
0.000708491
0.000713041
0.000708485
0.000708491
0.000708493
0.000713039
0.000708487
0.000713034
0.000708486
0.000708485
0.000713042
0.000713035
0.000708491
0.000713041
0.000708485
0.00070849
0.000708492
0.000713039
0.000708487
0.000713034
0.000708486
0.000722185
0.000717632
0.000717632
0.00072218
0.00072218
0.000717627
0.000726787
0.000731322
0.000731327
0.000726776
0.000726777
0.000731318
0.000726784
0.000726788
0.000731321
0.000731327
0.000726776
0.000726785
0.000731318
0.000726778
0.000726773
0.000731326
0.000731326
0.000726778
0.000731332
0.000726778
0.000722172
0.000717631
0.000722184
0.000717638
0.000722182
0.000722175
0.000717641
0.000722172
0.000717632
0.000722185
0.000717638
0.000722176
0.000722182
0.000717641
0.000726779
0.00072218
0.000708487
0.000708481
0.000713034
0.000713034
0.000713039
0.000708486
0.000708486
0.000708495
0.000713035
0.000713029
0.000708484
0.000708492
0.000713025
0.000708485
0.000708495
0.000713035
0.000713029
0.000708484
0.000713025
0.000708485
0.000708492
0.000708488
0.000722187
0.00072218
0.000717631
0.000717637
0.000722188
0.00072218
0.000717632
0.000726784
0.000731329
0.000726778
0.000731324
0.000726778
0.000726777
0.000726783
0.000731332
0.000731324
0.000726776
0.000731331
0.000726782
0.00072218
0.000717633
0.000722182
0.000722185
0.000717639
0.000708485
0.000713035
0.000713042
0.000708491
0.000713041
0.000708491
0.000708485
0.000708492
0.000713039
0.000708487
0.000713034
0.000708486
0.000708485
0.000713042
0.000713035
0.000708491
0.000713041
0.000708485
0.000708491
0.000708493
0.000713039
0.000708487
0.000713034
0.000708486
0.000722186
0.000722179
0.000717638
0.000717631
0.000722179
0.000722187
0.000717632
0.000726783
0.000731328
0.000726778
0.000726777
0.000731323
0.000726776
0.000726782
0.000731323
0.000731331
0.000726782
0.00073133
0.000726776
0.000722179
0.000717633
0.000722181
0.000722184
0.000717639
0.000722187
0.000722179
0.000717631
0.000717637
0.000722187
0.00072218
0.000717632
0.000726784
0.000731328
0.000726778
0.000731323
0.000726777
0.000726776
0.000726782
0.000731331
0.000731323
0.00073133
0.000726776
0.000726781
0.000722179
0.000717632
0.000722181
0.000722184
0.000717639
0.000708486
0.000713034
0.000713042
0.000708492
0.000713041
0.000708491
0.000708485
0.000708492
0.000713038
0.000708487
0.000713034
0.000708487
0.000708485
0.000713042
0.000713035
0.000708491
0.000713041
0.000708485
0.000708491
0.000708493
0.000713039
0.000708487
0.000713034
0.000708486
0.000722186
0.000717633
0.000717633
0.000722181
0.000722181
0.000717628
0.000726788
0.000731323
0.000731328
0.000726777
0.000726778
0.000731319
0.000726785
0.000726788
0.000731322
0.000731328
0.000726777
0.000726785
0.000731319
0.000726778
0.000726774
0.000731327
0.000731327
0.000726779
0.000731332
0.000726779
0.000722173
0.000717632
0.000722185
0.000717639
0.000722182
0.000722177
0.000717642
0.000722173
0.000717632
0.000722185
0.000717639
0.000722177
0.000722182
0.000717642
0.00072678
0.000722181
0.000708488
0.000708481
0.000713035
0.000713035
0.00071304
0.000708486
0.000708486
0.000708495
0.000713036
0.00071303
0.000708484
0.000708492
0.000713026
0.000708486
0.000708495
0.000713036
0.00071303
0.000708485
0.000713026
0.000708486
0.000708492
0.000708488
0.000722187
0.00072218
0.000717637
0.000717632
0.000722181
0.000722188
0.000717632
0.000726784
0.000731329
0.000726778
0.000726778
0.000731324
0.000726777
0.000726783
0.000731324
0.000731331
0.000726782
0.000731331
0.000726776
0.00072218
0.000717633
0.000722182
0.000722185
0.000717639
0.000722187
0.000722179
0.000717638
0.000717632
0.00072218
0.000722188
0.000717632
0.000726784
0.000731329
0.000726778
0.000731324
0.000726777
0.000726777
0.000726783
0.000731324
0.000731331
0.000731331
0.000726782
0.000726776
0.00072218
0.000717633
0.000722182
0.000722185
0.000717639
0.000708486
0.000713035
0.000713042
0.000708492
0.000713042
0.000708491
0.000708485
0.000708493
0.000713039
0.000708487
0.000713034
0.000708486
0.000708486
0.000713035
0.000713042
0.000708492
0.000713041
0.000708491
0.000708485
0.000708493
0.000713039
0.000708487
0.000713034
0.000708486
0.000726779
0.00072218
0.00072678
0.000722181
0.000708481
0.000713035
0.000713035
0.00071304
0.000708486
0.000708486
0.000708495
0.000713036
0.00071303
0.000708484
0.000713026
0.000708492
0.000708486
0.000708495
0.000713036
0.00071303
0.000708484
0.000713026
0.000708492
0.000708486
0.000708488
0.000708488
0.000756503
0.000729058
0.000729059
0.000719924
0.000719914
0.000719914
0.000719907
0.000729053
0.000726874
0.000731241
0.000731243
0.000726965
0.000731236
0.000726866
0.000726867
0.00074038
0.000740271
0.000736012
0.000736011
0.000740386
0.000740386
0.000736019
0.000740378
0.000740266
0.000736014
0.000736009
0.000740388
0.000740382
0.00073602
0.000740379
0.000740272
0.000736012
0.000736012
0.000740385
0.000740386
0.000736019
0.000740379
0.000740272
0.000736012
0.000736013
0.000736019
0.000740388
0.000740385
0.000726874
0.000731242
0.000731242
0.000726966
0.000731235
0.000726867
0.000726867
0.000726875
0.000731242
0.00073124
0.000726966
0.000726867
0.000731236
0.000726867
0.000726874
0.000731241
0.000731242
0.000726966
0.000726867
0.000731236
0.000726867
0.000747358
0.000738203
0.000738204
0.000747348
0.000747348
0.000747345
0.000738199
0.000747348
0.000738205
0.000738204
0.000747349
0.000747347
0.000747346
0.0007382
0.000747357
0.000738205
0.000738205
0.000747349
0.000747349
0.000747347
0.0007382
0.000747351
0.000738206
0.000738206
0.000747349
0.000747349
0.000747347
0.0007382
0.000729061
0.00072906
0.000719932
0.000719916
0.000719915
0.000719907
0.000729053
0.00072906
0.000729059
0.000719926
0.000719914
0.000719914
0.000719906
0.000729052
0.00072906
0.000729061
0.00071993
0.000719914
0.000719915
0.000719906
0.000729052
0.00071078
0.000710769
0.00071077
0.000710761
0.000710787
0.00071077
0.000710769
0.000710761
0.000710781
0.00071077
0.000710768
0.000710761
0.000710782
0.000710768
0.000710768
0.000710762
0.000722077
0.00072213
0.000717692
0.000717724
0.000722132
0.000722083
0.000717733
0.000726859
0.000731296
0.000731284
0.000726809
0.000731242
0.000726803
0.000726827
0.000726877
0.000726837
0.000731274
0.000731227
0.000731221
0.000726835
0.000726869
0.000722099
0.000717682
0.000722152
0.000717657
0.000722152
0.00072214
0.000717715
0.000722077
0.00072213
0.000717725
0.000717692
0.000722083
0.000722133
0.000717733
0.00072686
0.000731297
0.000731284
0.00072681
0.000731244
0.000726803
0.000726827
0.000726878
0.000726838
0.000731228
0.000731275
0.000731222
0.00072687
0.000726835
0.0007221
0.000717683
0.000722152
0.000717658
0.000722153
0.000722141
0.000717716
0.000722089
0.000721983
0.000717721
0.000717721
0.000722096
0.000722096
0.000717726
0.000758665
0.000758562
0.000754299
0.000754298
0.000754305
0.000758673
0.000758673
0.000745162
0.000745256
0.000749529
0.00074953
0.000749522
0.000745156
0.000745155
0.000758678
0.000754258
0.000758729
0.000754235
0.000758717
0.00075873
0.000754293
0.000745168
0.000749562
0.000749518
0.000745123
0.000749511
0.00074512
0.000745159
0.000740388
0.000735947
0.00074044
0.00073597
0.000740441
0.000740426
0.000736004
0.000745148
0.00074957
0.000749585
0.000745097
0.000745091
0.000749532
0.000745113
0.000740366
0.000740415
0.000735977
0.000736014
0.000740417
0.000740373
0.000736023
0.000745168
0.000749562
0.000749517
0.000745123
0.000749511
0.00074512
0.000745159
0.000740386
0.000735946
0.00074044
0.000735969
0.000740426
0.00074044
0.000736003
0.000745147
0.00074957
0.000749585
0.000745097
0.000749531
0.000745112
0.000745091
0.000740365
0.000740415
0.000735977
0.000736014
0.000740417
0.000740372
0.000736022
0.000745259
0.000749527
0.000745156
0.00075873
0.000754235
0.00075873
0.000745167
0.000749561
0.000749517
0.000745123
0.00074951
0.00074512
0.000745159
0.000740387
0.000735947
0.00074044
0.00073597
0.000740441
0.000740426
0.000736004
0.000745149
0.00074957
0.000749585
0.000745097
0.000745091
0.000749532
0.000745113
0.000740366
0.000740415
0.000735977
0.000736014
0.000740417
0.000740373
0.000736023
0.000745167
0.000749517
0.000749562
0.000745123
0.00074951
0.000745159
0.00074512
0.000740387
0.000735946
0.00074044
0.00073597
0.000740427
0.000740441
0.000736004
0.000745147
0.000749571
0.000749585
0.000745097
0.000749531
0.000745113
0.00074509
0.000740366
0.000740415
0.000736014
0.000735977
0.000740373
0.000740417
0.000736023
0.000740386
0.000735945
0.00074044
0.00073597
0.000736002
0.000740439
0.000740427
0.000740363
0.000740415
0.000735977
0.000736013
0.00073602
0.000740417
0.000740371
0.000740386
0.000735945
0.00074044
0.000735969
0.000740426
0.000740439
0.000736003
0.000740365
0.000740415
0.000736013
0.000735977
0.000740372
0.000740417
0.000736022
0.000745162
0.000745256
0.000749528
0.000749529
0.000745155
0.000749521
0.000745155
0.000745167
0.000749518
0.000749562
0.000745123
0.000749511
0.000745159
0.00074512
0.000740388
0.000735947
0.00074044
0.000735969
0.000736004
0.000740441
0.000740427
0.000745148
0.000749571
0.000749585
0.000745097
0.000749532
0.000745091
0.000745113
0.000740367
0.000740415
0.000736015
0.000735977
0.000736023
0.000740373
0.000740417
0.000745166
0.000749517
0.000749561
0.000745123
0.000749508
0.000745159
0.00074512
0.000740387
0.000735947
0.00074044
0.00073597
0.000740427
0.000740441
0.000736004
0.000745147
0.000749571
0.000749584
0.000745097
0.000749531
0.000745113
0.00074509
0.000740366
0.000740415
0.000736015
0.000735978
0.000740373
0.000740417
0.000736023
0.000745161
0.00074525
0.000749523
0.00074516
0.00074515
0.000722088
0.000721983
0.000717721
0.00071772
0.000717726
0.000722096
0.000722097
0.000708579
0.000708677
0.00071295
0.00071295
0.000712941
0.000708574
0.000708574
0.000722076
0.00072213
0.000717692
0.000717724
0.000722133
0.000722083
0.000717733
0.00072686
0.000731297
0.000731284
0.000726809
0.000726827
0.000731244
0.000726803
0.000726878
0.000726838
0.000731275
0.000731228
0.000726836
0.000731221
0.000726869
0.000722099
0.000717682
0.000722152
0.000717657
0.000722141
0.000722152
0.000717715
0.000722076
0.00072213
0.000717691
0.000717724
0.000722133
0.000722083
0.000717734
0.00072686
0.000731295
0.000731284
0.000726809
0.000731242
0.000726827
0.000726802
0.000726878
0.000726838
0.000731275
0.000731227
0.000731221
0.000726835
0.000726869
0.000722098
0.000717682
0.000722151
0.000717657
0.000722141
0.000717715
0.000722151
0.000708588
0.000712987
0.000712938
0.000708546
0.000712932
0.000708544
0.000708579
0.000708569
0.000712994
0.000713006
0.000708518
0.000708511
0.000712954
0.000708535
0.000708589
0.000712987
0.000712938
0.000708546
0.000712931
0.000708544
0.000708579
0.00070857
0.000712994
0.000713006
0.000708517
0.000712953
0.000708535
0.000708511
0.000722088
0.000721983
0.00071772
0.000717721
0.000722097
0.000722096
0.000717725
0.000708579
0.000708676
0.000712949
0.000712949
0.000708574
0.00071294
0.000708574
0.000722077
0.00072213
0.000717692
0.000717724
0.000722133
0.000722083
0.000717733
0.00072686
0.000731297
0.000731284
0.000726809
0.000726827
0.000731243
0.000726803
0.000726878
0.000726838
0.000731275
0.000731228
0.000726836
0.000731221
0.00072687
0.000722099
0.000717683
0.000722152
0.000717658
0.000722141
0.000722152
0.000717715
0.000722077
0.00072213
0.000717724
0.000717692
0.000722083
0.000722133
0.000717733
0.00072686
0.000731298
0.000731284
0.000726809
0.000731244
0.000726827
0.000726803
0.000726878
0.000726838
0.000731228
0.000731275
0.000731221
0.00072687
0.000726836
0.0007221
0.000717683
0.000722152
0.000717657
0.000722141
0.000717715
0.000722153
0.000708588
0.000712987
0.000712938
0.000708546
0.000712931
0.000708544
0.00070858
0.00070857
0.000712994
0.000713006
0.000708517
0.000708511
0.000712954
0.000708535
0.000708588
0.000712938
0.000712987
0.000708546
0.000712931
0.00070858
0.000708544
0.000708569
0.000712995
0.000713007
0.000708518
0.000712954
0.000708535
0.000708511
0.000722076
0.00072213
0.000717724
0.000717691
0.000722083
0.000722132
0.000717733
0.00072686
0.000731296
0.000731283
0.000726809
0.000726802
0.000731243
0.000726826
0.000726878
0.000726837
0.000731227
0.000731274
0.000726869
0.000731221
0.000726835
0.0007221
0.000717682
0.000722152
0.000717658
0.000722153
0.00072214
0.000717715
0.000708587
0.000712987
0.000712938
0.000708546
0.000712932
0.000708544
0.000708579
0.000708569
0.000712994
0.000713006
0.000708517
0.000712954
0.000708512
0.000708535
0.000708588
0.000712938
0.000712987
0.000708546
0.000712931
0.000708578
0.000708544
0.000708569
0.000712994
0.000713007
0.000708517
0.000712954
0.000708535
0.000708511
0.000722089
0.000721983
0.000717721
0.000717721
0.000722097
0.000722096
0.000717727
0.000708579
0.000708677
0.00071295
0.00071295
0.000708574
0.000712941
0.000708574
0.000722078
0.00072213
0.000717725
0.000717692
0.000722083
0.000722133
0.000717734
0.00072686
0.000731297
0.000731284
0.000726809
0.000726803
0.000731243
0.000726827
0.000726879
0.000726838
0.000731228
0.000731275
0.00072687
0.000731222
0.000726836
0.000722099
0.000717683
0.000722152
0.000717658
0.000722153
0.000722141
0.000717716
0.000708588
0.000712938
0.000712987
0.000708547
0.000712932
0.000708579
0.000708545
0.00070857
0.000712995
0.000713007
0.000708518
0.000712954
0.000708511
0.000708535
0.000708588
0.000712938
0.000712987
0.000708547
0.000712932
0.000708579
0.000708545
0.00070857
0.000712995
0.000713007
0.000708518
0.000712954
0.000708535
0.000708512
0.000708579
0.000708676
0.00071295
0.00071295
0.000712941
0.000708574
0.000708574
0.000692487
0.000692459
0.00069246
0.000694547
0.000655902
0.000655873
0.000655873
0.000657961
0.000619312
0.000619283
0.000619283
0.000621372
0.000582714
0.000582688
0.000582688
0.000584776
0.000546122
0.000546096
0.000546097
0.000548185
0.000509549
0.000509521
0.000509522
0.000511609
0.000472981
0.000472951
0.00047295
0.000475036
0.000436403
0.000436375
0.000436375
0.000438462
0.000399823
0.000399797
0.000399797
0.000401884
0.000363237
0.000363208
0.000363209
0.000365296
0.000326647
0.000326619
0.00032662
0.000328708
0.000290058
0.000290031
0.000290031
0.000292119
0.00025347
0.000253443
0.000253443
0.00025553
0.000216882
0.000216857
0.000216858
0.000218944
0.000180294
0.000180272
0.000180271
0.000182359
0.000143704
0.000143685
0.000143685
0.000145773
0.000107107
0.000107097
0.000107097
0.000109189
7.0516e-05
7.04931e-05
7.0493e-05
7.2598e-05
3.47627e-05
3.41146e-05
3.41107e-05
3.6162e-05
1.08421e-05
6.65441e-06
6.64995e-06
5.02981e-06
0.000699531
0.000701606
0.000701606
0.000699531
0.000701606
0.000701606
0.000701605
0.000701606
0.000699531
0.000701607
0.000701606
0.00069953
0.000694546
0.000662945
0.00069246
0.00069246
0.000665018
0.000665018
0.000694546
0.000662944
0.00069246
0.00069246
0.000665018
0.000665018
0.000692459
0.000665018
0.000665018
0.000694547
0.000662944
0.00069246
0.000665018
0.000665018
0.000662944
0.000657961
0.000626357
0.000655874
0.000655873
0.000628432
0.000628432
0.000657961
0.000626358
0.000655874
0.000655873
0.000628432
0.000628432
0.000655874
0.000628432
0.000628433
0.000657961
0.000626357
0.000655873
0.000628432
0.000628432
0.000626357
0.000621371
0.000589762
0.000619283
0.000619283
0.000591838
0.000591839
0.000621371
0.000589763
0.000619282
0.000619283
0.000591838
0.000591838
0.000619283
0.000591839
0.000591838
0.000621371
0.000589762
0.000619283
0.000591838
0.000591838
0.000589762
0.000584775
0.000553168
0.000582687
0.000582688
0.000555242
0.000555241
0.000584776
0.000553168
0.000582687
0.000582687
0.000555241
0.000555242
0.000582687
0.000555241
0.000555242
0.000584776
0.000553168
0.000582687
0.000555242
0.000555241
0.000553168
0.000548184
0.00051659
0.000546097
0.000546096
0.000518663
0.000518663
0.000548184
0.00051659
0.000546096
0.000546097
0.000518663
0.000518663
0.000546097
0.000518663
0.000518664
0.000548185
0.00051659
0.000546097
0.000518663
0.000518663
0.00051659
0.000511609
0.000480018
0.000509522
0.000509522
0.000482094
0.000482094
0.000511609
0.000480018
0.000509522
0.000509522
0.000482094
0.000482094
0.000509522
0.000482094
0.000482094
0.000511609
0.000480018
0.000509522
0.000482094
0.000482094
0.000480018
0.000475035
0.000443446
0.00047295
0.00047295
0.000445521
0.000445521
0.000475035
0.000443446
0.00047295
0.00047295
0.00044552
0.00044552
0.000472951
0.000445521
0.00044552
0.000475035
0.000443445
0.00047295
0.00044552
0.00044552
0.000443445
0.000438462
0.000406867
0.000436375
0.000436375
0.000408941
0.00040894
0.000438462
0.000406867
0.000436375
0.000436375
0.000408941
0.000408941
0.000436375
0.000408941
0.000408941
0.000438462
0.000406867
0.000436375
0.000408941
0.000408941
0.000406866
0.000401884
0.00037028
0.000399797
0.000399797
0.000372355
0.000372355
0.000401883
0.00037028
0.000399797
0.000399797
0.000372355
0.000372355
0.000399797
0.000372355
0.000372355
0.000401884
0.00037028
0.000399797
0.000372355
0.000372355
0.00037028
0.000365295
0.000333692
0.000363208
0.000363207
0.000335767
0.000335767
0.000365295
0.000333692
0.000363208
0.000363208
0.000335767
0.000335767
0.000363208
0.000335766
0.000335766
0.000365295
0.000333692
0.000363209
0.000335766
0.000335766
0.000333692
0.000328707
0.000297103
0.000326619
0.000326619
0.000299176
0.000299176
0.000328707
0.000297103
0.000326619
0.000326619
0.000299176
0.000299176
0.00032662
0.000299177
0.000299176
0.000328707
0.000297103
0.00032662
0.000299176
0.000299176
0.000297102
0.000292119
0.000260514
0.000290031
0.000290031
0.000262589
0.000262589
0.000292119
0.000260514
0.000290031
0.000290031
0.000262589
0.000262589
0.000290031
0.000262589
0.000262589
0.000292119
0.000260514
0.000290031
0.000262589
0.000262588
0.000260513
0.00025553
0.000223927
0.000253443
0.000253443
0.000226003
0.000226002
0.00025553
0.000223927
0.000253443
0.000253443
0.000226002
0.000226002
0.000253443
0.000226002
0.000226003
0.00025553
0.000223927
0.000253442
0.000226002
0.000226003
0.000223927
0.000218943
0.000187342
0.000216858
0.000216857
0.000189415
0.000189415
0.000218943
0.000187341
0.000216857
0.000216857
0.000189415
0.000189415
0.000216858
0.000189415
0.000189415
0.000218943
0.000187341
0.000216858
0.000189415
0.000189415
0.000187341
0.000182359
0.000150753
0.000180273
0.000180272
0.000152827
0.000152827
0.000182358
0.000150754
0.000180272
0.000180271
0.000152827
0.000152828
0.000180272
0.000152827
0.000152827
0.000182357
0.000150754
0.000180272
0.000152827
0.000152827
0.000150753
0.000145772
0.000114162
0.000143684
0.000143685
0.000116239
0.000116239
0.000145772
0.000114163
0.000143684
0.000143685
0.000116239
0.000116239
0.000143685
0.000116239
0.000116239
0.000145772
0.000114163
0.000143685
0.000116239
0.000116239
0.000114162
0.000109188
7.75475e-05
0.000107096
0.000107097
7.96387e-05
7.9639e-05
0.000109188
7.75479e-05
0.000107097
0.000107097
7.96387e-05
7.96381e-05
0.000107097
7.96389e-05
7.96384e-05
0.000109189
7.75474e-05
0.000107096
7.96387e-05
7.96384e-05
7.75463e-05
7.25975e-05