/*--------------------------------*- C++ -*----------------------------------*\
| =========                 |                                                 |
| \\      /  F ield         | OpenFOAM: The Open Source CFD Toolbox           |
|  \\    /   O peration     | Version:  2312                                  |
|   \\  /    A nd           | Website:  www.openfoam.com                      |
|    \\/     M anipulation  |                                                 |
\*---------------------------------------------------------------------------*/
FoamFile
{
    version     2.0;
    format      ascii;
    arch        "LSB;label=32;scalar=64";
    class       surfaceScalarField;
    location    "250";
    object      phi;
}
// * * * * * * * * * * * * * * * * * * * * * * * * * * * * * * * * * * * * * //

dimensions      [0 3 -1 0 0 0 0];

oriented        oriented;

internalField   nonuniform List<scalar> 
125397
(
-0.000260899
-3.9613e-06
-3.95675e-06
3.15348e-06
3.16137e-06
0.000262502
-0.00026147
-3.7546e-06
3.95648e-06
-4.51671e-06
2.97044e-06
0.000262815
-0.000261463
-3.75972e-06
3.95644e-06
2.97055e-06
-4.51425e-06
0.00026281
-0.000261159
3.75112e-06
3.7597e-06
-4.23388e-06
-4.22708e-06
0.000262109
-1.77522e-06
-1.77684e-06
-0.00106079
1.0049e-06
1.00629e-06
0.00106233
-0.00106272
-1.63875e-06
1.77644e-06
8.94161e-07
0.00106396
-6.72946e-07
7.67577e-07
-1.60637e-07
3.55206e-07
-8.2669e-07
-1.42935e-06
-3.07209e-07
-0.00106261
-1.6387e-06
1.78164e-06
8.94107e-07
0.00106384
-6.75552e-07
7.67575e-07
-1.58104e-07
3.55249e-07
-8.29237e-07
-1.42933e-06
-3.07133e-07
-0.000261524
1.66599e-06
1.62853e-06
-7.37837e-07
-7.43496e-07
0.000259711
-1.36169e-06
-1.36256e-06
-0.00106652
6.83536e-07
6.79351e-07
0.00106788
-0.00106786
-1.55988e-06
1.36253e-06
6.99539e-07
0.0010692
-6.24597e-07
8.38046e-07
-1.0454e-07
4.25831e-07
-7.79767e-07
-1.35552e-06
-2.42496e-07
-0.00106774
-1.55463e-06
1.36251e-06
6.94461e-07
0.00106909
-6.24582e-07
8.32691e-07
-1.04619e-07
4.25872e-07
-7.79737e-07
-1.35289e-06
-2.42453e-07
-0.000262743
1.59001e-06
1.54697e-06
-6.75259e-07
-6.78294e-07
0.00026096
-1.3415e-06
-1.3425e-06
-0.00107199
6.64334e-07
6.65363e-07
0.00107334
-0.00107321
-1.5567e-06
1.34238e-06
6.6653e-07
0.00107453
-6.20961e-07
8.62629e-07
-8.24402e-08
4.38667e-07
-7.8271e-07
-1.3691e-06
-2.18209e-07
-0.00107309
-1.55405e-06
1.3423e-06
6.71883e-07
0.0010744
-6.18312e-07
8.59916e-07
-8.50261e-08
4.38651e-07
-7.8267e-07
-1.36906e-06
-2.18186e-07
-0.000264021
1.5844e-06
1.54903e-06
-6.65897e-07
-6.68943e-07
0.000262223
-1.29584e-06
-1.29678e-06
-0.00107734
6.42073e-07
6.43109e-07
0.00107864
-0.00107838
-1.5482e-06
1.2967e-06
6.31848e-07
0.00107964
-6.0803e-07
8.90902e-07
-5.67228e-08
4.60595e-07
-7.71053e-07
-1.37134e-06
-1.86653e-07
-0.00107827
-1.5456e-06
1.29655e-06
6.37192e-07
0.00107952
-6.0555e-07
8.88232e-07
-5.91107e-08
4.60886e-07
-7.70933e-07
-1.37126e-06
-1.86598e-07
-0.00026524
1.57602e-06
1.54045e-06
-6.48545e-07
-6.51621e-07
0.000263424
-1.24884e-06
-1.24967e-06
-0.00108249
6.20565e-07
6.21633e-07
0.00108375
-0.00108332
-1.5397e-06
1.24963e-06
6.01753e-07
0.00108452
-5.95784e-07
9.16306e-07
-3.50167e-08
4.84682e-07
-7.56929e-07
-1.3691e-06
-1.55931e-07
-0.0010832
-1.53694e-06
1.24938e-06
6.07024e-07
0.00108439
-5.92764e-07
9.13672e-07
-3.71257e-08
4.84698e-07
-7.56887e-07
-1.36891e-06
-1.56011e-07
-0.000266386
1.56749e-06
1.53177e-06
-6.31168e-07
-6.34224e-07
0.000264552
-1.20514e-06
-1.20573e-06
-0.00108744
6.01201e-07
6.02328e-07
0.00108865
-0.001088
-1.53315e-06
1.20561e-06
5.77655e-07
0.00108914
-5.86352e-07
9.39055e-07
-1.6805e-08
5.09594e-07
-7.43014e-07
-1.3654e-06
-1.27844e-07
-0.00108788
-1.5302e-06
1.20531e-06
5.82815e-07
0.00108902
-5.82861e-07
9.36445e-07
-1.87972e-08
5.09161e-07
-7.43135e-07
-1.36529e-06
-1.28002e-07
-0.000267457
1.56122e-06
1.52537e-06
-6.17082e-07
-6.20103e-07
0.000265607
-1.16607e-06
-1.16729e-06
-0.0010922
5.84778e-07
5.85853e-07
0.00109336
-0.00109245
-1.52842e-06
1.16719e-06
5.59041e-07
0.00109354
-5.79256e-07
9.59603e-07
-1.61019e-09
5.33799e-07
-7.31025e-07
-1.36166e-06
-1.03219e-07
-0.00109233
-1.52627e-06
1.16705e-06
5.64509e-07
0.00109341
-5.77908e-07
9.57093e-07
-3.27284e-09
5.3391e-07
-7.30633e-07
-1.36087e-06
-1.03244e-07
-0.000268459
1.55696e-06
1.5209e-06
-6.05208e-07
-6.08299e-07
0.000266595
-1.13241e-06
-1.13356e-06
-0.00109679
5.70737e-07
5.71527e-07
0.00109791
-0.0010967
-1.52683e-06
1.13355e-06
5.44983e-07
0.00109773
-5.75275e-07
9.76323e-07
1.67055e-08
5.55832e-07
-7.20768e-07
-1.35804e-06
-8.18515e-08
-0.00109658
-1.52429e-06
1.13376e-06
5.50706e-07
0.00109761
-5.72924e-07
9.73114e-07
1.1754e-08
5.56567e-07
-7.20643e-07
-1.35816e-06
-8.12987e-08
-0.0002694
1.55538e-06
1.51914e-06
-5.9635e-07
-5.99438e-07
0.000267521
-1.10359e-06
-1.10454e-06
-0.00110123
5.58959e-07
5.59736e-07
0.00110232
-0.00110075
-1.52759e-06
1.10438e-06
5.3355e-07
0.00110174
-5.75924e-07
9.92563e-07
3.34625e-08
5.78074e-07
-7.10395e-07
-1.3542e-06
-6.28e-08
-0.00110063
-1.52415e-06
1.10415e-06
5.38672e-07
0.00110162
-5.70533e-07
9.89665e-07
3.13226e-08
5.76904e-07
-7.11023e-07
-1.35493e-06
-6.31863e-08
-0.000270281
1.55581e-06
1.51948e-06
-5.89676e-07
-5.92708e-07
0.000268388
-1.07902e-06
-1.07994e-06
-0.00110555
5.49131e-07
5.49784e-07
0.00110661
-0.00110464
-1.52812e-06
1.07991e-06
5.24782e-07
0.00110559
-5.71649e-07
1.00542e-06
4.30432e-08
5.97017e-07
-7.02692e-07
-1.35321e-06
-4.6747e-08
-0.00110452
-1.52733e-06
1.08075e-06
5.31554e-07
0.00110546
-5.76586e-07
1.00309e-06
3.79076e-08
5.98892e-07
-7.00725e-07
-1.35123e-06
-4.53809e-08
-0.000271111
1.55647e-06
1.51995e-06
-5.84052e-07
-5.87263e-07
0.000269206
-1.05612e-06
-1.05679e-06
-0.00110974
5.39668e-07
5.40724e-07
0.00111078
-0.00110836
-1.53271e-06
1.05973e-06
5.1881e-07
0.00110929
-5.80624e-07
1.01769e-06
4.5959e-08
6.17775e-07
-6.90981e-07
-1.34829e-06
-3.09782e-08
-0.00110824
-1.52789e-06
1.05716e-06
5.20658e-07
0.00110916
-5.72486e-07
1.01715e-06
4.99314e-08
6.17e-07
-6.91643e-07
-1.34868e-06
-3.19791e-08
-0.000271882
1.55849e-06
1.522e-06
-5.78495e-07
-5.81451e-07
0.000269962
-1.03412e-06
-1.03497e-06
-0.00111384
5.31039e-07
5.31871e-07
0.00111484
-0.00111195
-1.53094e-06
1.03396e-06
5.03639e-07
0.00111282
-5.72935e-07
1.03515e-06
7.25864e-08
6.3314e-07
-6.79045e-07
-1.34259e-06
-2.09301e-08
-0.00111183
-1.52698e-06
1.03268e-06
5.07242e-07
0.00111269
-5.66394e-07
1.0332e-06
7.25297e-08
6.32348e-07
-6.79861e-07
-1.34304e-06
-2.17522e-08
-0.000272606
1.56134e-06
1.5246e-06
-5.76601e-07
-5.79817e-07
0.000270676
-1.01642e-06
-1.01709e-06
-0.00111783
5.23897e-07
5.24908e-07
0.00111881
-0.00111537
-1.53191e-06
1.01496e-06
4.96246e-07
0.00111621
-5.64061e-07
1.04443e-06
7.13003e-08
6.47959e-07
-6.7037e-07
-1.34014e-06
-1.02193e-08
-0.00111525
-1.5303e-06
1.01406e-06
5.00325e-07
0.00111609
-5.66173e-07
1.04293e-06
6.90271e-08
6.49434e-07
-6.68686e-07
-1.33862e-06
-9.39291e-09
-0.000273273
1.56288e-06
1.52606e-06
-5.71738e-07
-5.74795e-07
0.000271331
-9.92758e-07
-9.93605e-07
-0.00112172
5.13935e-07
5.14472e-07
0.00112268
-0.00111865
-1.53341e-06
9.92801e-07
4.84475e-07
0.00111945
-5.66643e-07
1.0604e-06
8.74237e-08
6.63087e-07
-6.52959e-07
-1.32905e-06
-1.3592e-09
-0.00111853
-1.53192e-06
9.94015e-07
4.92241e-07
0.00111932
-5.65757e-07
1.05638e-06
8.28105e-08
6.63241e-07
-6.5274e-07
-1.32877e-06
-1.31453e-09
-0.000273891
1.56223e-06
1.52527e-06
-5.62654e-07
-5.65801e-07
0.000271932
-9.70411e-07
-9.70494e-07
-0.00112552
5.03645e-07
5.04098e-07
0.00112645
-0.00112177
-1.52993e-06
9.70603e-07
4.70671e-07
0.00112253
-5.50556e-07
1.0717e-06
9.45719e-08
6.72173e-07
-6.40909e-07
-1.32317e-06
8.27055e-09
-0.00112165
-1.5279e-06
9.717e-07
4.78392e-07
0.0011224
-5.49402e-07
1.06758e-06
8.82061e-08
6.72599e-07
-6.40653e-07
-1.32307e-06
9.1493e-09
-0.000274449
1.56011e-06
1.52321e-06
-5.51586e-07
-5.54708e-07
0.000272472
-9.525e-07
-9.53251e-07
-0.00112922
4.96005e-07
4.96629e-07
0.00113013
-0.00112473
-1.53286e-06
9.52925e-07
4.63807e-07
0.00112546
-5.53363e-07
1.07956e-06
9.06081e-08
6.85038e-07
-6.23807e-07
-1.31252e-06
2.0982e-08
-0.00112461
-1.52964e-06
9.52955e-07
4.69693e-07
0.00112533
-5.49243e-07
1.07642e-06
8.72695e-08
6.84834e-07
-6.24185e-07
-1.31287e-06
2.09434e-08
-0.00027494
1.56087e-06
1.52398e-06
-5.45707e-07
-5.48712e-07
0.000272949
-9.3079e-07
-9.31585e-07
-0.00113283
4.86124e-07
4.8674e-07
0.00113372
-0.00112754
-1.53307e-06
9.31272e-07
4.58218e-07
0.00112823
-5.50601e-07
1.0903e-06
9.75402e-08
6.96035e-07
-6.0506e-07
-1.29885e-06
3.0643e-08
-0.00112741
-1.52998e-06
9.31425e-07
4.58458e-07
0.0011281
-5.46996e-07
1.08746e-06
9.45563e-08
6.95921e-07
-6.05277e-07
-1.29904e-06
3.07066e-08
-0.000275367
1.56062e-06
1.52362e-06
-5.39351e-07
-5.42372e-07
0.000273365
-9.0849e-07
-9.08847e-07
-0.00113635
4.75622e-07
4.76478e-07
0.00113721
-0.00113018
-1.53038e-06
9.09312e-07
4.47446e-07
0.00113081
-5.40133e-07
1.10027e-06
1.05841e-07
7.04385e-07
-5.87646e-07
-1.28487e-06
3.7819e-08
-0.00113005
-1.52691e-06
9.08437e-07
4.46173e-07
0.00113068
-5.35963e-07
1.09841e-06
1.04759e-07
7.04284e-07
-5.87671e-07
-1.28482e-06
3.77875e-08
-0.000275729
1.55774e-06
1.52068e-06
-5.29528e-07
-5.32522e-07
0.000273713
-8.87138e-07
-8.87565e-07
-0.00113977
4.65776e-07
4.66748e-07
0.00114061
-0.00113263
-1.52593e-06
8.88832e-07
4.32566e-07
0.00113322
-5.2748e-07
1.10852e-06
1.11654e-07
7.11429e-07
-5.7092e-07
-1.27063e-06
4.42602e-08
-0.0011325
-1.52244e-06
8.87358e-07
4.35768e-07
0.00113309
-5.23187e-07
1.10717e-06
1.11563e-07
7.1138e-07
-5.70861e-07
-1.27031e-06
4.41397e-08
-0.000276021
1.55305e-06
1.51592e-06
-5.17752e-07
-5.20754e-07
0.00027399
-8.67229e-07
-8.67752e-07
-0.0011431
4.57054e-07
4.57874e-07
0.00114392
-0.0011349
-1.51937e-06
8.67926e-07
4.22874e-07
0.00113545
-5.13166e-07
1.1164e-06
1.17372e-07
7.17914e-07
-5.54445e-07
-1.25542e-06
5.03795e-08
-0.00113478
-1.51682e-06
8.67196e-07
4.274e-07
-5.10414e-07
1.11437e-06
1.16188e-07
7.18052e-07
-5.54228e-07
-1.25492e-06
5.03271e-08
-0.000276241
1.547e-06
1.5098e-06
-5.05083e-07
-5.08084e-07
0.000274198
4.90981e-06
4.92067e-06
0.00026121
-0.00025962
-5.71645e-06
-5.70448e-06
5.15733e-06
0.000261468
-0.000259454
-6.14602e-06
3.88445e-06
-4.91472e-06
5.15191e-06
0.00026146
-0.000259438
-6.15054e-06
3.89181e-06
4.91009e-06
0.00026119
-0.000259594
-5.68962e-06
-5.73059e-06
5.15008e-06
0.000261506
-0.000259471
-6.15091e-06
3.88688e-06
5.14946e-06
-4.91216e-06
0.000261455
-0.000259431
3.88921e-06
-6.15058e-06
-0.000258103
3.75434e-06
3.7568e-06
-5.14732e-06
0.000260876
-0.000258087
3.75666e-06
3.75406e-06
-5.14478e-06
0.000260871
-0.000258082
3.75413e-06
3.75161e-06
-5.15174e-06
-5.14198e-06
0.00026085
-0.000258062
3.75141e-06
3.75395e-06
-0.000259446
-6.1406e-06
3.87908e-06
-4.90669e-06
0.000261417
-0.000259408
3.88141e-06
-6.13516e-06
4.90502e-06
0.000261185
-0.000259589
-5.68715e-06
-5.72542e-06
-0.000259444
3.87661e-06
-6.13554e-06
-4.91511e-06
0.000261458
-0.000259431
3.88662e-06
-6.14021e-06
-0.000259577
-5.70818e-06
-5.69616e-06
3.75171e-06
3.76017e-06
-4.23714e-06
-4.23274e-06
0.000262168
-7.40748e-07
-6.9943e-07
0.000261591
-0.000259518
-3.17635e-07
-3.15317e-07
-4.52471e-06
2.9707e-06
0.000262812
-3.75668e-06
3.96099e-06
-4.52929e-06
2.98067e-06
0.000262804
0.00106222
2.37803e-06
-0.00106122
1.14834e-06
-1.80474e-06
-2.01966e-07
-7.5106e-07
-1.56153e-06
-3.53136e-07
-8.96963e-07
2.94734e-07
7.35541e-07
0.00106231
2.37272e-06
-0.00106129
1.14813e-06
-1.79978e-06
-2.04601e-07
-7.51341e-07
-1.56122e-06
-3.50298e-07
-8.99208e-07
2.94741e-07
-4.23144e-06
-4.23261e-06
0.000262143
-7.01938e-07
0.000261575
-0.000259502
-3.20494e-07
-3.15095e-07
-4.52969e-06
2.97318e-06
0.000262866
-3.75674e-06
3.96364e-06
2.98321e-06
-4.52934e-06
0.000262794
0.00106314
2.38535e-06
-0.00106211
1.12664e-06
-1.76747e-06
-2.07161e-07
-7.516e-07
-1.56156e-06
-3.50532e-07
-8.99527e-07
2.94597e-07
7.35571e-07
0.00106219
2.38236e-06
-0.0010612
1.1583e-06
-1.79969e-06
-2.02036e-07
-7.51239e-07
-1.56111e-06
-3.50121e-07
-8.98937e-07
2.92156e-07
3.95824e-06
2.9779e-06
-4.51897e-06
0.000262751
2.37975e-06
-0.0010617
1.13697e-06
-1.76977e-06
-2.06962e-07
-7.48607e-07
-1.55616e-06
-3.50576e-07
2.89288e-07
-8.99453e-07
7.32766e-07
0.00106183
2.38238e-06
-0.00106084
1.15844e-06
-1.7968e-06
-2.01944e-07
-7.50972e-07
-1.55581e-06
-3.52756e-07
-8.96399e-07
2.86763e-07
-4.23411e-06
-4.23005e-06
0.000262132
-6.96755e-07
0.00026156
-0.000259492
-3.20368e-07
-3.15082e-07
3.95629e-06
2.97544e-06
-4.52407e-06
0.00026281
2.38994e-06
-0.0010616
1.14707e-06
-1.76704e-06
-2.06826e-07
-7.48424e-07
-1.55623e-06
-3.4803e-07
2.89344e-07
-8.99408e-07
6.88815e-07
0.00106275
2.39011e-06
-0.00106174
1.14177e-06
-1.75945e-06
-2.07085e-07
-7.48809e-07
-1.55327e-06
-3.52848e-07
-8.96686e-07
2.86584e-07
-0.000259467
-3.20312e-07
-3.15308e-07
1.67395e-06
1.63907e-06
-7.35216e-07
-7.41029e-07
0.000259754
-8.72265e-07
-8.31027e-07
0.000262808
-0.000260684
-2.15128e-07
-2.04926e-07
8.9533e-07
0.00106346
-6.78191e-07
8.06246e-07
-1.55796e-07
3.63291e-07
-8.26642e-07
-1.43476e-06
-3.04682e-07
-1.67411e-06
1.77994e-06
9.05424e-07
0.00106353
-6.81052e-07
8.06338e-07
-1.53328e-07
3.66086e-07
-8.3156e-07
-1.43697e-06
-3.0187e-07
0.00106736
1.37354e-06
-0.00106603
7.10107e-07
-1.5994e-06
-1.02823e-07
-6.30709e-07
-1.35519e-06
-2.50081e-07
-7.75543e-07
4.27935e-07
8.64421e-07
0.00106744
1.37322e-06
-0.0010661
7.04805e-07
-1.59436e-06
-1.05354e-07
-6.28298e-07
-1.35751e-06
-2.44879e-07
-7.77934e-07
4.30527e-07
-7.38299e-07
-7.40438e-07
0.000259741
-8.33491e-07
0.000262787
-0.000260672
-2.10071e-07
-2.07448e-07
8.99426e-07
0.00106437
-6.76032e-07
7.67695e-07
-1.58339e-07
3.63147e-07
-8.29412e-07
-1.43469e-06
-3.02232e-07
-1.66886e-06
1.77965e-06
9.05439e-07
0.00106342
-6.80996e-07
7.9848e-07
-1.53325e-07
3.607e-07
-8.26242e-07
-1.43171e-06
-3.06724e-07
0.00106828
1.37445e-06
-0.00106696
7.1432e-07
-1.55639e-06
-1.07714e-07
-6.23062e-07
-1.35259e-06
-2.47563e-07
-7.75685e-07
4.25131e-07
8.61794e-07
0.00106732
1.37308e-06
-0.00106599
7.04865e-07
-1.58909e-06
-1.07816e-07
-6.28274e-07
-1.35234e-06
-2.47324e-07
-7.75245e-07
4.25164e-07
1.77465e-06
9.05533e-07
0.00106305
-6.80751e-07
7.98299e-07
-1.53248e-07
3.57934e-07
-8.26246e-07
-3.04357e-07
-1.42637e-06
1.37956e-06
-0.00106653
7.03869e-07
-1.56132e-06
-1.07618e-07
-6.25428e-07
-1.35256e-06
-2.50104e-07
4.25051e-07
-7.756e-07
8.64266e-07
0.00106695
1.37315e-06
-0.00106563
7.09971e-07
-1.58875e-06
-1.05212e-07
-6.27964e-07
-1.34962e-06
-2.449e-07
-7.75177e-07
4.25102e-07
-7.38231e-07
-7.37855e-07
0.000259729
-8.30796e-07
0.000262769
-0.000260656
-2.12741e-07
-2.07396e-07
1.7766e-06
8.99231e-07
0.00106398
-6.75872e-07
7.57036e-07
-1.60792e-07
3.57826e-07
-8.26529e-07
-3.04477e-07
-1.42909e-06
1.37443e-06
-0.00106641
7.09188e-07
-1.55872e-06
-1.0764e-07
-6.25425e-07
-1.34728e-06
-2.50063e-07
4.19758e-07
-7.75549e-07
8.20275e-07
0.00106789
1.37949e-06
-0.00106656
7.09023e-07
-1.54846e-06
-1.12674e-07
-6.2303e-07
-1.34958e-06
-2.47396e-07
-7.78032e-07
4.22341e-07
-0.000260636
-2.12664e-07
-2.10194e-07
1.59539e-06
1.55752e-06
-6.7263e-07
-6.80893e-07
0.000261008
-8.97062e-07
-8.55586e-07
0.000264091
-0.000261961
-1.90301e-07
-1.87901e-07
7.00522e-07
0.00106869
-6.29873e-07
8.76877e-07
-9.97266e-08
4.28711e-07
-7.79688e-07
-1.35827e-06
-2.42468e-07
-1.59294e-06
1.36658e-06
6.9523e-07
0.00106877
-6.30132e-07
8.74277e-07
-9.9845e-08
4.31315e-07
-7.79489e-07
-1.35792e-06
-2.42238e-07
0.0010727
1.35094e-06
-0.00107138
6.81239e-07
-1.5991e-06
-8.44158e-08
-6.28953e-07
-1.37248e-06
-2.25725e-07
-7.84289e-07
4.39442e-07
8.91716e-07
0.00107278
1.35065e-06
-0.00107146
6.81133e-07
-1.59405e-06
-8.71127e-08
-6.26443e-07
-1.37219e-06
-2.2804e-07
-7.81481e-07
4.39415e-07
-6.78282e-07
-6.83012e-07
0.000260995
-8.55374e-07
0.000264073
-0.00026195
-1.9058e-07
-1.85308e-07
6.94315e-07
0.00106963
-6.27542e-07
8.35552e-07
-1.04698e-07
4.31201e-07
-7.79881e-07
-1.35822e-06
-2.42416e-07
-1.59027e-06
1.36643e-06
7.00583e-07
0.00106865
-6.30025e-07
8.71632e-07
-9.9873e-08
4.31316e-07
-7.79488e-07
-1.35798e-06
-2.44673e-07
0.00107364
1.35196e-06
-0.00107231
6.80222e-07
-1.55849e-06
-8.93502e-08
-6.23944e-07
-1.37245e-06
-2.23203e-07
-7.87117e-07
4.39323e-07
8.86432e-07
0.00107266
1.35066e-06
-0.00107134
6.81263e-07
-1.58874e-06
-8.45759e-08
-6.29073e-07
-1.37223e-06
-2.27974e-07
-7.81491e-07
4.39463e-07
1.36124e-06
7.00414e-07
0.0010683
-6.29765e-07
8.66204e-07
-1.02184e-07
4.23198e-07
-7.79386e-07
-2.47211e-07
-1.35262e-06
1.35185e-06
-0.00107188
6.85488e-07
-1.55825e-06
-8.92947e-08
-6.2361e-07
-1.36711e-06
-2.25749e-07
4.33973e-07
-7.84377e-07
8.83712e-07
0.0010723
1.35055e-06
-0.00107098
6.81065e-07
-1.58584e-06
-8.67831e-08
-6.26135e-07
-1.36421e-06
-2.30574e-07
-7.7877e-07
4.31233e-07
-6.757e-07
-6.80345e-07
0.00026098
-8.52691e-07
0.00026405
-0.000261935
-1.90517e-07
-1.853e-07
1.36768e-06
6.99487e-07
0.00106922
-6.22141e-07
8.27411e-07
-1.07181e-07
4.23099e-07
-7.76986e-07
-2.44757e-07
-1.34997e-06
1.35178e-06
-0.00107176
6.80319e-07
-1.55559e-06
-9.17891e-08
-6.20947e-07
-1.36709e-06
-2.2572e-07
4.33934e-07
-7.84356e-07
8.47453e-07
0.00107323
1.35181e-06
-0.0010719
6.80175e-07
-1.55052e-06
-8.92897e-08
-6.23828e-07
-1.36946e-06
-2.25544e-07
-7.84233e-07
4.36546e-07
-0.000261912
-1.90438e-07
-1.87875e-07
1.59763e-06
1.55697e-06
-6.65761e-07
-6.68909e-07
0.000262272
-9.25771e-07
-8.84124e-07
0.000265311
-0.000263179
-1.62104e-07
-1.59642e-07
6.72819e-07
0.00107402
-6.26398e-07
9.04346e-07
-7.76218e-08
4.44184e-07
-7.82603e-07
-1.37445e-06
-2.18176e-07
-1.59256e-06
1.3412e-06
6.72675e-07
0.0010741
-6.23792e-07
8.99017e-07
-8.02506e-08
4.44114e-07
-7.79836e-07
-1.37418e-06
-2.20513e-07
0.00107788
1.30768e-06
-0.0010766
6.4657e-07
-1.59157e-06
-5.84062e-08
-6.17022e-07
-1.37676e-06
-1.94383e-07
-7.74297e-07
4.60503e-07
9.20377e-07
0.00107796
1.30741e-06
-0.00107669
6.46456e-07
-1.5864e-06
-6.10694e-08
-6.14258e-07
-1.37642e-06
-1.9682e-07
-7.71513e-07
4.60324e-07
-6.6622e-07
-6.70943e-07
0.000262261
-8.83863e-07
0.000265293
-0.000263169
-1.62385e-07
-1.57076e-07
6.71797e-07
0.00107495
-6.21382e-07
8.62827e-07
-8.25464e-08
4.44076e-07
-7.85431e-07
-1.37441e-06
-2.15651e-07
-1.58724e-06
1.34123e-06
6.72815e-07
0.00107398
-6.26447e-07
8.93689e-07
-7.782e-08
4.44196e-07
-7.79811e-07
-1.37419e-06
-2.20449e-07
0.00107882
1.30865e-06
-0.00107754
6.45555e-07
-1.55076e-06
-6.33003e-08
-6.11988e-07
-1.37672e-06
-1.91853e-07
-7.77146e-07
4.60407e-07
9.15023e-07
0.00107784
1.30741e-06
-0.00107657
6.46555e-07
-1.58104e-06
-5.86212e-08
-6.16786e-07
-1.37651e-06
-1.96714e-07
-7.71564e-07
4.60512e-07
1.34113e-06
6.7266e-07
0.00107362
-6.23697e-07
8.9099e-07
-7.99731e-08
4.35998e-07
-7.77069e-07
-2.23024e-07
-1.36616e-06
1.30847e-06
-0.00107712
6.50794e-07
-1.5504e-06
-6.32698e-08
-6.11414e-07
-1.37141e-06
-1.94413e-07
4.55159e-07
-7.74381e-07
9.12502e-07
0.00107747
1.30728e-06
-0.0010762
6.46396e-07
-1.5783e-06
-6.04735e-08
-6.14244e-07
-1.36848e-06
-1.99291e-07
-7.68812e-07
4.52263e-07
-6.66251e-07
-6.70948e-07
0.000262246
-8.81155e-07
0.000265269
-0.000263154
-1.62349e-07
-1.57139e-07
1.34238e-06
6.71747e-07
0.00107454
-6.21389e-07
8.54699e-07
-8.24693e-08
4.41241e-07
-7.82527e-07
-2.17993e-07
-1.37135e-06
1.30841e-06
-0.00107699
6.45621e-07
-1.54773e-06
-6.5794e-08
-6.08647e-07
-1.37136e-06
-1.94441e-07
4.54873e-07
-7.74408e-07
8.76098e-07
0.0010784
1.30846e-06
-0.00107713
6.4547e-07
-1.54281e-06
-6.29621e-08
-6.11943e-07
-1.37358e-06
-1.94264e-07
-7.74248e-07
4.57454e-07
-0.00026313
-1.61934e-07
-1.59338e-07
1.58918e-06
1.54833e-06
-6.48172e-07
-6.51302e-07
0.000263473
-9.52446e-07
-9.10629e-07
0.000266457
-0.000264327
-1.34705e-07
-1.32173e-07
6.38127e-07
0.00107913
-6.13207e-07
9.32643e-07
-5.21554e-08
4.66362e-07
-7.70979e-07
-1.37675e-06
-1.86578e-07
-1.58419e-06
1.29556e-06
6.38013e-07
0.00107921
-6.10815e-07
9.27412e-07
-5.45384e-08
4.66481e-07
-7.6816e-07
-1.37649e-06
-1.86436e-07
0.00108281
1.2605e-06
-0.0010816
6.15029e-07
-1.5831e-06
-3.48908e-08
-6.04489e-07
-1.37536e-06
-1.63444e-07
-7.60245e-07
4.84432e-07
9.47234e-07
0.00108288
1.26033e-06
-0.00108167
6.14979e-07
-1.57798e-06
-3.47887e-08
-6.04546e-07
-1.37515e-06
-1.63355e-07
-7.60152e-07
4.8421e-07
-6.48906e-07
-6.53609e-07
0.000263463
-9.10512e-07
0.000266438
-0.000264316
-1.34697e-07
-1.29341e-07
6.37115e-07
0.00108007
-6.08169e-07
8.90961e-07
-5.70301e-08
4.66241e-07
-7.73833e-07
-1.37671e-06
-1.84052e-07
-1.57895e-06
1.29561e-06
6.38119e-07
0.00107909
-6.13701e-07
9.22157e-07
-5.19353e-08
4.66372e-07
-7.68107e-07
-1.37643e-06
-1.88909e-07
0.00108375
1.26138e-06
-0.00108254
6.14043e-07
-1.54211e-06
-3.97197e-08
-5.99442e-07
-1.37531e-06
-1.60907e-07
-7.63107e-07
4.84353e-07
9.41596e-07
0.00108277
1.26032e-06
-0.00108156
6.15078e-07
-1.57272e-06
-3.53003e-08
-6.04635e-07
-1.37503e-06
-1.65689e-07
-7.57442e-07
4.84497e-07
1.29555e-06
6.38041e-07
0.00107873
-6.10825e-07
9.19171e-07
-5.46047e-08
4.58157e-07
-7.6543e-07
-1.9143e-07
-1.36837e-06
1.26114e-06
-0.00108211
6.19241e-07
-1.54185e-06
-3.94688e-08
-5.99028e-07
-1.36984e-06
-1.63479e-07
4.79103e-07
-7.60256e-07
9.38711e-07
0.0010824
1.26018e-06
-0.00108119
6.1497e-07
-1.5697e-06
-3.77055e-08
-6.01551e-07
-1.36706e-06
-1.68206e-07
-7.54848e-07
4.76225e-07
-6.49083e-07
-6.5381e-07
0.000263448
-9.07613e-07
0.000266415
-0.000264301
-1.35098e-07
-1.29885e-07
1.29669e-06
6.37118e-07
0.00107966
-6.08488e-07
8.82731e-07
-5.70879e-08
4.63636e-07
-7.70901e-07
-1.8631e-07
-1.37369e-06
1.2612e-06
-0.00108199
6.14163e-07
-1.53924e-06
-4.23796e-08
-5.96474e-07
-1.37001e-06
-1.63368e-07
4.78877e-07
-7.60301e-07
9.02206e-07
0.00108334
1.26131e-06
-0.00108213
6.14065e-07
-1.53403e-06
-4.01356e-08
-5.99233e-07
-1.37236e-06
-1.63119e-07
-7.60339e-07
4.8144e-07
-0.000264277
-1.35306e-07
-1.32684e-07
1.58092e-06
1.53989e-06
-6.31164e-07
-6.34263e-07
0.000264601
-9.76302e-07
-9.3431e-07
0.000267528
-0.0002654
-1.0994e-07
-1.0732e-07
6.07998e-07
0.001084
-6.00858e-07
9.58357e-07
-3.02215e-08
4.90301e-07
-7.56784e-07
-1.37445e-06
-1.55949e-07
-1.57586e-06
1.24867e-06
6.07961e-07
0.00108408
-6.01267e-07
9.52953e-07
-3.04369e-08
4.90381e-07
-7.56627e-07
-1.37396e-06
-1.55756e-07
0.00108749
1.21522e-06
-0.00108634
5.89102e-07
-1.57592e-06
-1.50924e-08
-5.93694e-07
-1.37115e-06
-1.34815e-07
-7.46247e-07
5.092e-07
9.71146e-07
0.00108757
1.21496e-06
-0.00108642
5.88922e-07
-1.57069e-06
-1.4923e-08
-5.93683e-07
-1.37099e-06
-1.3474e-07
-7.46116e-07
5.094e-07
-6.3177e-07
-6.36561e-07
0.000264591
-9.34325e-07
0.000267509
-0.00026539
-1.09685e-07
-1.04345e-07
6.07007e-07
0.00108495
-5.95809e-07
9.16506e-07
-3.50257e-08
4.90215e-07
-7.59652e-07
-1.37442e-06
-1.53402e-07
-1.57044e-06
1.24858e-06
6.07932e-07
0.00108396
-6.00917e-07
9.47717e-07
-3.00536e-08
4.90352e-07
-7.54078e-07
-1.37419e-06
-1.58291e-07
0.00108844
1.21591e-06
-0.00108729
5.88127e-07
-1.53479e-06
-1.97758e-08
-5.88656e-07
-1.37107e-06
-1.32234e-07
-7.49067e-07
5.09084e-07
9.65652e-07
0.00108745
1.21505e-06
-0.0010863
5.89113e-07
-1.56576e-06
-1.51974e-08
-5.94596e-07
-1.37078e-06
-1.37078e-07
-7.43281e-07
5.09328e-07
1.24842e-06
6.078e-07
0.0010836
-5.98034e-07
9.44948e-07
-3.23627e-08
4.82035e-07
-7.51313e-07
-1.60948e-07
-1.36614e-06
1.2157e-06
-0.00108686
5.9333e-07
-1.53447e-06
-1.94282e-08
-5.88238e-07
-1.36565e-06
-1.34948e-07
5.03581e-07
-7.46306e-07
9.62823e-07
0.00108708
1.21473e-06
-0.00108594
5.88894e-07
-1.5625e-06
-1.73482e-08
-5.90777e-07
-1.36278e-06
-1.39824e-07
-7.40666e-07
5.00843e-07
-6.31605e-07
-6.36355e-07
0.000264575
-9.31498e-07
0.000267486
-0.000265374
-1.09984e-07
-1.04717e-07
1.24947e-06
6.06877e-07
0.00108453
-5.95709e-07
9.08374e-07
-3.48128e-08
4.87355e-07
-7.56747e-07
-1.55885e-07
-1.37121e-06
1.21567e-06
-0.00108673
5.88186e-07
-1.53214e-06
-2.20975e-08
-5.86418e-07
-1.36564e-06
-1.34754e-07
5.03856e-07
-7.46093e-07
9.26161e-07
0.00108802
1.21568e-06
-0.00108687
5.87973e-07
-1.52665e-06
-1.97238e-08
-5.88414e-07
-1.3681e-06
-1.34685e-07
-7.46127e-07
5.06441e-07
-0.000265351
-1.09931e-07
-1.07235e-07
1.57468e-06
1.53349e-06
-6.17163e-07
-6.20232e-07
0.000265657
-9.97077e-07
-9.55018e-07
0.000268531
-0.000266402
-9.15054e-08
-8.62281e-08
5.83975e-07
0.00108862
-5.91909e-07
9.81457e-07
-1.19856e-08
5.14987e-07
-7.42994e-07
-1.37072e-06
-1.27978e-07
-1.56948e-06
1.20501e-06
5.83949e-07
0.0010887
-5.91878e-07
9.75938e-07
-1.23222e-08
5.14677e-07
-7.42879e-07
-1.37031e-06
-1.2783e-07
0.00109194
1.17526e-06
-0.00109085
5.69222e-07
-1.57092e-06
-3.81702e-10
-5.85803e-07
-1.36711e-06
-1.09097e-07
-7.33595e-07
5.33122e-07
9.921e-07
0.00109202
1.17505e-06
-0.00109093
5.69091e-07
-1.5659e-06
3.42835e-10
-5.86535e-07
-1.36664e-06
-1.09001e-07
-7.33381e-07
5.33202e-07
-6.17377e-07
-6.22206e-07
0.000265646
-9.55153e-07
0.000268513
-0.000266394
-8.82462e-08
-8.28601e-08
5.82977e-07
0.00108957
-5.86861e-07
9.39417e-07
-1.66259e-08
5.14959e-07
-7.45799e-07
-1.37064e-06
-1.25397e-07
-1.56383e-06
1.20468e-06
5.83718e-07
0.00108858
-5.91015e-07
9.70603e-07
-1.1987e-08
5.14975e-07
-7.40275e-07
-1.37042e-06
-1.30273e-07
0.00109289
1.17618e-06
-0.0010918
5.68375e-07
-1.5295e-06
-4.60329e-09
-5.80702e-07
-1.36709e-06
-1.06555e-07
-7.36469e-07
5.3302e-07
9.86186e-07
0.0010919
1.17522e-06
-0.00109081
5.69336e-07
-1.56044e-06
-6.86834e-10
-5.85973e-07
-1.36699e-06
-1.11333e-07
-7.30975e-07
5.3315e-07
1.20459e-06
5.83738e-07
0.00108822
-5.89016e-07
9.67744e-07
-1.43764e-08
5.06818e-07
-7.37422e-07
-1.32733e-07
-1.36226e-06
1.17599e-06
-0.00109137
5.7365e-07
-1.52947e-06
-3.94358e-09
-5.81073e-07
-1.36112e-06
-1.09268e-07
5.27409e-07
-7.33586e-07
9.8389e-07
0.00109153
1.17496e-06
-0.00109044
5.69215e-07
-1.55747e-06
-1.86861e-09
-5.83054e-07
-1.35872e-06
-1.14214e-07
-7.28199e-07
5.24585e-07
-6.16809e-07
-6.21598e-07
0.000265631
-9.51945e-07
0.000268489
-0.000266378
-8.90395e-08
-8.37691e-08
1.20559e-06
5.82861e-07
0.00108916
-5.86704e-07
9.31078e-07
-1.67107e-08
5.11889e-07
-7.42917e-07
-1.2767e-07
-1.36746e-06
1.17594e-06
-0.00109124
5.68535e-07
-1.5266e-06
-6.88933e-09
-5.77742e-07
-1.36174e-06
-1.09046e-07
5.27514e-07
-7.33768e-07
9.47122e-07
0.00109247
1.17586e-06
-0.00109138
5.68261e-07
-1.52144e-06
-3.83453e-09
-5.8068e-07
-1.36393e-06
-1.09101e-07
-7.33643e-07
5.30057e-07
-0.000266355
-8.81128e-08
-8.54143e-08
1.57045e-06
1.52887e-06
-6.02501e-07
-6.08119e-07
0.000266643
-1.01404e-06
-9.71814e-07
0.000269471
-0.000267341
-7.4848e-08
-6.93879e-08
5.64991e-07
0.00109302
-5.85309e-07
1.00207e-06
5.36946e-09
5.39247e-07
-7.30907e-07
-1.36655e-06
-1.03341e-07
-1.56507e-06
1.16599e-06
5.64982e-07
0.0010931
-5.8494e-07
9.96463e-07
4.26728e-09
5.39209e-07
-7.30823e-07
-1.36639e-06
-1.03196e-07
0.00109618
1.14059e-06
-0.00109514
5.54629e-07
-1.56888e-06
1.66975e-08
-5.81422e-07
-1.36159e-06
-8.69119e-08
-7.23176e-07
5.52776e-07
1.00942e-06
0.00109626
1.14027e-06
-0.00109522
5.54295e-07
-1.56417e-06
1.83031e-08
-5.83169e-07
-1.36326e-06
-8.67693e-08
-7.22657e-07
5.55525e-07
-6.0516e-07
-6.09983e-07
0.000266635
-9.72346e-07
0.000269453
-0.000267335
-7.10575e-08
-6.55137e-08
5.64471e-07
0.00109397
-5.80053e-07
9.59987e-07
-1.2807e-09
5.39205e-07
-7.33725e-07
-1.36644e-06
-1.0074e-07
-1.56028e-06
1.16589e-06
5.64926e-07
0.00109298
-5.86285e-07
9.91334e-07
5.15598e-09
5.39506e-07
-7.27807e-07
-1.36596e-06
-1.056e-07
0.00109714
1.14187e-06
-0.00109609
5.53862e-07
-1.52733e-06
1.046e-08
-5.76154e-07
-1.36409e-06
-8.4194e-08
-7.2593e-07
5.55554e-07
1.00444e-06
0.00109614
1.13979e-06
-0.0010951
5.53757e-07
-1.55833e-06
1.97458e-08
-5.81953e-07
-1.36353e-06
-8.94563e-08
-7.20143e-07
5.55456e-07
1.16614e-06
5.65276e-07
0.00109261
-5.82534e-07
9.88026e-07
9.76252e-11
5.31234e-07
-7.25228e-07
-1.07972e-07
-1.35817e-06
1.14149e-06
-0.00109566
5.58812e-07
-1.52755e-06
1.23127e-08
-5.77458e-07
-1.35798e-06
-8.6701e-08
5.50566e-07
-7.22688e-07
1.00123e-06
0.00109577
1.14018e-06
-0.00109473
5.54256e-07
-1.55567e-06
1.5544e-08
-5.79847e-07
-1.35534e-06
-9.17485e-08
-7.17287e-07
5.4746e-07
-6.06407e-07
-6.11167e-07
0.00026662
-9.70077e-07
0.000269428
-0.000267319
-7.00021e-08
-6.44643e-08
1.16716e-06
5.64489e-07
0.00109355
-5.80174e-07
9.51248e-07
-2.19936e-09
5.36585e-07
-7.30728e-07
-1.02891e-07
-1.36342e-06
1.14128e-06
-0.00109553
5.53233e-07
-1.52442e-06
1.06085e-08
-5.73514e-07
-1.35809e-06
-8.69547e-08
5.49907e-07
-7.22778e-07
9.64372e-07
0.00109672
1.14146e-06
-0.00109567
5.53435e-07
-1.51955e-06
1.24262e-08
-5.77433e-07
-1.36042e-06
-8.66299e-08
-7.22713e-07
5.52634e-07
-0.000267295
-7.07806e-08
-6.79739e-08
1.56953e-06
1.52795e-06
-5.95199e-07
-6.00799e-07
0.00026757
-1.02999e-06
-9.87631e-07
0.000270354
-0.000268225
-5.87554e-08
-5.32451e-08
5.51186e-07
0.00109721
-5.83612e-07
1.01929e-06
2.30989e-08
5.59542e-07
-7.20105e-07
-1.36036e-06
-8.14868e-08
-1.56339e-06
1.13222e-06
5.5118e-07
0.00109729
-5.80858e-07
1.01341e-06
2.2589e-08
5.61696e-07
-7.2069e-07
-1.3636e-06
-8.17267e-08
0.00110024
1.11094e-06
-0.00109924
5.43192e-07
-1.56941e-06
3.20877e-08
-5.80507e-07
-1.35856e-06
-6.73615e-08
-7.13128e-07
5.7496e-07
1.02391e-06
0.00110031
1.11116e-06
-0.00109931
5.43509e-07
-1.56436e-06
2.97885e-08
-5.80548e-07
-1.36385e-06
-6.68398e-08
-7.13306e-07
5.80496e-07
-5.96168e-07
-6.00846e-07
0.00026756
-9.86901e-07
0.000270333
-0.000268216
-5.73158e-08
-4.92389e-08
5.50334e-07
0.00109817
-5.78351e-07
9.77039e-07
1.70751e-08
5.62246e-07
-7.22836e-07
-1.36283e-06
-7.87744e-08
-1.55827e-06
1.13243e-06
5.51371e-07
0.00109717
-5.81391e-07
1.00751e-06
2.08303e-08
5.61837e-07
-7.1805e-07
-1.36352e-06
-8.38456e-08
0.00110119
1.11193e-06
-0.0011002
5.42259e-07
-1.52772e-06
2.61376e-08
-5.75223e-07
-1.36108e-06
-6.71459e-08
-7.13199e-07
5.77699e-07
1.01916e-06
0.00110019
1.11107e-06
-0.0010992
5.48892e-07
-1.55944e-06
3.06465e-08
-5.82606e-07
-1.36081e-06
-6.90777e-08
-7.1011e-07
5.78326e-07
1.13235e-06
5.51154e-07
0.0010968
-5.7878e-07
1.00502e-06
1.88154e-08
5.53474e-07
-7.15022e-07
-8.65242e-08
-1.35504e-06
1.11236e-06
-0.00109976
5.48128e-07
-1.52759e-06
2.41783e-08
-5.7487e-07
-1.35647e-06
-6.6783e-08
5.72034e-07
-7.13499e-07
1.01729e-06
0.00109982
1.11023e-06
-0.00109883
5.42437e-07
-1.55548e-06
3.19892e-08
-5.77331e-07
-1.35274e-06