/*--------------------------------*- C++ -*----------------------------------*\
| =========                 |                                                 |
| \\      /  F ield         | OpenFOAM: The Open Source CFD Toolbox           |
|  \\    /   O peration     | Version:  2312                                  |
|   \\  /    A nd           | Website:  www.openfoam.com                      |
|    \\/     M anipulation  |                                                 |
\*---------------------------------------------------------------------------*/
FoamFile
{
    version     2.0;
    format      ascii;
    arch        "LSB;label=32;scalar=64";
    class       surfaceScalarField;
    location    "250";
    object      phi;
}
// * * * * * * * * * * * * * * * * * * * * * * * * * * * * * * * * * * * * * //

dimensions      [0 3 -1 0 0 0 0];

oriented        oriented;

internalField   nonuniform List<scalar> 
125280
(
1.01395e-09
-4.34769e-09
-0.00117913
-1.03148e-09
-1.07793e-09
0.00117913
-0.00113468
-1.20896e-06
1.03625e-08
-3.59363e-08
0.00113471
-2.26687e-07
1.20537e-06
2.22513e-07
8.55745e-07
-2.07535e-07
-8.58083e-07
2.04969e-07
-0.00113459
-1.20355e-06
-1.06636e-09
8.75023e-09
0.00113458
-2.24011e-07
1.20256e-06
2.22448e-07
8.55808e-07
-2.0752e-07
-8.55368e-07
2.04957e-07
-0.000271049
1.23518e-06
1.19825e-06
-2.1172e-07
-2.144e-07
0.000269042
-1.24797e-06
-1.20557e-06
0.00027112
-0.000269096
2.10959e-07
2.18701e-07
0.00113417
-1.14107e-09
-0.00113418
8.75069e-09
-1.24619e-06
2.25065e-07
-2.29451e-07
-8.5824e-07
2.02229e-07
-2.04802e-07
8.58584e-07
1.24552e-06
0.00113425
1.78591e-07
-0.00113441
-1.33069e-08
-1.24111e-06
2.279e-07
-2.26845e-07
-8.63486e-07
1.99544e-07
-2.07532e-07
8.5834e-07
-1.18366e-06
0.000271099
-0.000269095
2.05987e-07
2.18551e-07
0.00113518
-1.28023e-09
-0.00113518
3.10059e-09
-1.20374e-06
2.2257e-07
-2.24042e-07
-8.60791e-07
2.05081e-07
-2.07511e-07
8.61196e-07
1.23992e-06
0.00113412
4.33758e-09
-0.00113411
-2.25524e-09
-1.2381e-06
2.27919e-07
-2.29477e-07
-8.60788e-07
2.02227e-07
-2.07498e-07
8.61081e-07
5.44404e-08
-1.69359e-07
-1.26836e-06
2.19852e-07
-2.32195e-07
-8.60977e-07
2.02319e-07
8.53105e-07
-2.10142e-07
-0.00113445
1.23973e-06
0.00113374
2.13206e-08
3.45932e-09
-1.23232e-06
2.27911e-07
-2.26637e-07
-8.58077e-07
2.02187e-07
-2.07438e-07
8.52879e-07
-0.00113376
-1.20533e-06
0.000271081
-0.000269068
2.13701e-07
2.18578e-07
-1.18572e-09
-0.0011346
1.94617e-08
-1.2035e-06
2.22492e-07
-2.23954e-07
-8.55367e-07
2.0499e-07
8.55773e-07
-2.07472e-07
1.19724e-06
0.00113471
-5.58281e-10
-0.00113467
-3.0425e-08
-1.20358e-06
2.22562e-07
-2.26721e-07
-8.57975e-07
2.04966e-07
-2.07492e-07
8.58285e-07
-0.000269042
2.10898e-07
2.18763e-07
1.24627e-06
1.20381e-06
-2.09231e-07
-2.17003e-07
0.000269096
3.6174e-09
0.00113417
-2.26772e-07
1.24789e-06
2.2501e-07
8.58582e-07
-2.04827e-07
-8.58161e-07
2.02202e-07
-1.24354e-06
1.05736e-08
3.69258e-09
0.00113424
-2.29567e-07
1.24531e-06
2.27901e-07
8.61021e-07
-2.07602e-07
-8.6073e-07
2.04833e-07
-2.17077e-07
-2.14323e-07
0.000269078
3.33931e-09
0.00113517
-2.24109e-07
1.20551e-06
2.22523e-07
8.61236e-07
-2.07566e-07
-8.60745e-07
2.05045e-07
-1.23817e-06
4.41141e-09
3.5888e-09
0.00113411
-2.29534e-07
1.23983e-06
2.27857e-07
8.61117e-07
-2.04861e-07
-8.60753e-07
2.02194e-07
-6.59331e-10
3.67513e-09
0.00113374
-2.26681e-07
1.2369e-06
2.25051e-07
8.52901e-07
-2.04821e-07
1.99445e-07
-8.52612e-07
-2.11977e-07
-2.16854e-07
0.000269068
-5.44052e-10
-1.33747e-08
0.00113473
-2.24065e-07
1.19989e-06
2.22453e-07
8.58246e-07
-2.07558e-07
2.04909e-07
-8.57936e-07
4.26065e-09
-2.33012e-08
0.000194607
4.19034e-10
-0.000194589
4.2836e-09
-2.33749e-08
0.00019459
-0.000194571
-0.00117913
4.77592e-09
-1.16915e-09
0.0011788
-0.0011783
-8.21008e-08
-1.79822e-07
0.00117869
-0.0011787
-1.26618e-08
2.23021e-08
0.00117862
-0.00117856
-2.41919e-08
-2.42585e-08
-7.79294e-11
-3.66685e-08
0.000230473
-0.000230449
1.22542e-08
2.29376e-10
-0.000194608
-3.28254e-09
2.47682e-08
-2.99989e-09
0.000194589
-0.000230473
9.88787e-11
3.54837e-08
0.000230449
-1.16522e-08
3.51085e-10
4.32963e-09
-2.32166e-08
0.000194608
3.42021e-10
-0.000194589
-9.8546e-05
3.31573e-09
1.11743e-08
9.85315e-05
-4.30751e-09
-1.02141e-08
9.85461e-05
-9.85316e-05
-3.66783e-08
-1.76182e-10
0.000230461
-0.000230436
4.34809e-10
1.22628e-08
-0.00019459
-3.2872e-09
2.47446e-08
-2.9744e-09
0.000194572
-0.000230461
3.54973e-08
1.76007e-10
0.000230436
1.16325e-10
-1.16512e-08
4.34262e-09
-2.32812e-08
0.000194591
3.73961e-10
-0.000194572
-1.26873e-08
-4.68536e-08
0.00117888
-1.22576e-09
1.06335e-08
0.00117868
-6.72407e-09
-1.82395e-08
0.00117865
3.65851e-08
-1.75644e-09
0.000251389
-0.000251268
-7.26892e-11
-1.55927e-07
-0.000246686
-1.08727e-08
-2.47508e-08
8.60865e-08
3.79794e-09
0.000246632
0.00115227
-0.00115232
-1.27351e-08
1.78093e-08
9.45723e-07
-7.63529e-07
-9.46815e-07
7.64468e-07
-2.19536e-09
1.20805e-06
0.00113472
-5.13049e-10
-8.55345e-07
2.04962e-07
-2.07534e-07
8.55715e-07
-1.20633e-06
2.22512e-07
-2.23967e-07
-0.000251392
-3.54241e-08
9.87838e-10
0.000251271
1.02422e-09
1.54712e-07
1.1668e-08
2.32489e-08
0.000246686
-5.26373e-09
-0.000246632
-8.3944e-08
-9.65035e-09
0.00115228
1.0829e-09
-9.44032e-07
7.6163e-07
-7.63542e-07
9.42906e-07
-9.85392e-05
3.30108e-09
8.97714e-09
9.85269e-05
-4.33879e-09
-7.97763e-09
9.85392e-05
-9.85269e-05
-6.67909e-10
3.661e-08
0.000251379
-0.000251259
-1.55945e-07
-3.0184e-10
0.00115211
-0.00115211
1.31681e-08
7.84858e-10
9.45741e-07
-7.66318e-07
-9.44077e-07
7.6446e-07
-0.000246676
-1.08445e-08
-2.47451e-08
8.37047e-08
3.79694e-09
0.000246624
3.40162e-09
1.20253e-06
0.00113458
-8.78739e-10
-8.55353e-07
2.04975e-07
-2.07521e-07
8.55781e-07
-1.20086e-06
2.22469e-07
-2.24001e-07
-0.00025138
1.18892e-09
-3.54373e-08
0.000251259
1.54716e-07
2.42352e-10
-1.3417e-10
0.00115211
1.14608e-09
-9.4407e-07
7.64405e-07
-7.63579e-07
9.45681e-07
1.16205e-08
2.32526e-08
0.000246676
-5.28186e-09
-0.000246624
-8.15484e-08
-0.000279536
1.0946e-08
-8.99538e-09
2.39191e-08
-5.26381e-09
0.000279515
-0.000279458
1.08969e-08
-8.97237e-09
2.39042e-08
-5.79144e-09
0.000279438
-1.23687e-06
-1.19987e-06
0.000271049
-0.000269042
2.13436e-07
2.1613e-07
-1.16349e-08
7.98923e-09
0.000279536
5.93371e-09
-0.000279513
-2.52446e-08
-1.16595e-08
7.9917e-09
0.000279458
6.47192e-09
-0.000279438
-2.29487e-08
-8.11359e-09
9.85666e-05
-9.85542e-05
-8.11152e-09
9.85555e-05
-9.85431e-05
0.00027112
-1.24807e-06
-1.2084e-06
-0.000269093
2.11078e-07
2.18846e-07
0.000279584
-1.14141e-08
8.31926e-09
-0.000279563
-2.54374e-08
0.000279515
-9.101e-09
5.85895e-09
-0.000279495
-2.54056e-08
-8.04783e-09
-4.32163e-09
9.85668e-05
-9.85545e-05
8.90182e-09
3.3602e-09
9.85544e-05
-8.05105e-09
-4.33842e-09
9.85557e-05
-9.85433e-05
8.90744e-09
3.35625e-09
9.85432e-05
1.24612e-06
1.20642e-06
0.000269093
-2.09109e-07
-2.16856e-07
-1.16092e-08
0.000279584
-2.53585e-08
-0.000279563
8.44359e-09
-9.29566e-09
0.000279516
-2.53217e-08
-0.000279495
5.97391e-09
1.11078e-08
-7.96619e-09
2.61181e-08
0.000279563
8.68022e-09
-5.35501e-09
2.60451e-08
0.000279495
0.00113417
-1.14959e-09
-1.24611e-06
2.25266e-07
-2.26571e-07
-8.58212e-07
2.05027e-07
-2.07395e-07
8.58544e-07
8.29633e-09
0.000246688
-5.01427e-09
-0.000246634
-8.40154e-08
5.32048e-11
3.55526e-08
-1.16891e-08
1.20257e-10
0.000230449
-0.000230473
-2.32853e-08
-0.000194589
3.23506e-10
2.4743e-08
-2.89408e-09
0.000194589
-7.59978e-11
-3.67682e-08
-0.000230449
1.23558e-08
2.48486e-10
3.55466e-08
-1.16838e-08
9.44753e-11
0.000230409
-0.000230433
-2.54963e-08
4.30837e-09
0.000194545
-0.000194525
3.95831e-10
2.69132e-08
-3.36957e-09
-2.90897e-09
0.000194524
-0.000194545
-3.67712e-08
0.000230433
-0.000230409
1.23578e-08
4.36725e-10
8.2709e-10
9.43572e-10
1.54674e-07
0.000251283
-0.000251404
-2.58904e-09
-1.23069e-09
1.24805e-06
-2.26594e-07
2.27932e-07
8.58509e-07
-2.0472e-07
2.02312e-07
-8.58299e-07
0.000246688
-8.39278e-08
-0.000246634
-5.28499e-09
-0.00115256
1.08659e-09
0.00115257
9.55931e-10
-9.47052e-07
7.67317e-07
-7.66392e-07
9.4867e-07
4.10891e-09
8.6024e-08
0.000246634
2.9414e-10
-4.8111e-09
9.48518e-07
-7.66449e-07
-9.47175e-07
7.67259e-07
-0.00115256
-8.09475e-10
0.000251404
-0.000251283
-1.00692e-09
-1.56081e-07
-2.82504e-10
1.5467e-07
0.000251258
-0.000251376
1.9604e-08
-1.24903e-06
-1.8839e-07
8.63804e-07
-2.02104e-07
-8.5803e-07
2.04988e-07
1.24859e-06
-2.3212e-07
2.28107e-07
-0.00113424
1.15648e-08
0.000246583
-8.39215e-08
-0.000246528
-7.68335e-09
-0.00115253
0.0011525
2.35607e-08
-9.551e-07
7.67302e-07
-7.69123e-07
9.51191e-07
-1.10587e-08
6.50782e-09
8.59613e-08
0.000246528
-0.000246583
-3.39738e-08
9.56628e-07
-7.66417e-07
-9.49653e-07
7.70008e-07
-0.00115249
0.000251376
-0.000251258
6.63855e-10
-1.56083e-07
-1.02836e-08
-9.85314e-05
1.11019e-08
9.85313e-05
-9.85458e-05
0.000269094
-2.01554e-07
-0.000271104
1.18155e-06
-2.19164e-07
0.000279454
-2.30577e-08
-0.000279437
6.42609e-09
8.05449e-09
-1.17077e-08
0.000279598
-2.30838e-08
-0.000279578
6.48038e-09
2.37689e-08
0.000279436
-0.000279454
-5.94697e-09
-4.33359e-09
9.85623e-05
-9.855e-05
0.00113518
-1.46966e-09
-1.20642e-06
2.22729e-07
-2.23901e-07
2.05225e-07
-2.07387e-07
0.000246654
-0.000246597
-8.17425e-08
3.55263e-08
1.86069e-10
1.05899e-10
-1.16697e-08
0.000230436
-2.33507e-08
-0.000194572
3.5174e-10
2.47135e-08
-2.87463e-09
0.000194572
-3.67727e-08
-1.82627e-10
-0.000230436
4.59327e-10
1.23669e-08
1.71335e-09
2.08134e-10
1.54639e-07
0.000251276
2.75925e-09
-1.45845e-09
1.20838e-06
-2.23945e-07
2.22673e-07
8.61182e-07
-2.07426e-07
2.05163e-07
-8.6078e-07
0.000246654
-8.16317e-08
-0.000246597
-7.78821e-09
-0.0011524
-4.052e-09
0.00115241
9.89176e-10
-9.49644e-07
7.67251e-07
-7.66356e-07
9.51181e-07
6.53522e-09
8.36007e-08
0.000246597
3.56359e-09
6.67599e-09
9.51106e-07
-7.66383e-07
-9.49692e-07
7.67222e-07
-1.72603e-09
0.000251397
-0.000251276
-1.51585e-11
-1.56069e-07
3.55275e-08
-1.16712e-08
1.20999e-10
0.000230397
-2.32849e-08
4.32525e-09
0.000194532
-0.000194513
3.28289e-10
2.47169e-08
-3.35297e-09
-2.90179e-09
0.000194513
-3.67682e-08
0.00023042
-0.000230397
1.23621e-08
4.51315e-10
1.54658e-07
-3.4229e-11
0.000251249
2.8877e-09
-1.23804e-06
4.3287e-09
8.61079e-07
-2.07412e-07
-8.60772e-07
2.0501e-07
1.24e-06
-2.2938e-07
2.28049e-07
-0.00115235
0.00115233
6.52902e-09
-9.49636e-07
7.67272e-07
-7.66391e-07
9.512e-07
1.17034e-08
0.000246567
-7.91491e-08
-0.000246518
-5.33039e-09
1.23845e-08
9.51129e-07
-7.66425e-07
-9.49678e-07
7.67236e-07
-1.1149e-08
4.08633e-09
8.36056e-08
0.000246518
0.000251367
-0.000251249
-1.5607e-07
1.86456e-10
2.33143e-08
-8.1617e-08
-0.000246634
-5.33369e-09
-3.96423e-08
6.96074e-08
-9.52506e-07
7.64474e-07
9.457e-07
-7.69091e-07
-0.0011525
3.66816e-08
-2.06119e-09
-0.000251271
4.29199e-10
-1.5602e-07
0.000194594
-0.000194575
3.41943e-10
-2.70995e-10
0.000230456
-0.000230433
4.29322e-10
1.43752e-08
0.00115221
2.34082e-08
-9.46812e-07
7.61748e-07
-7.66295e-07
9.42923e-07
-0.00115226
2.32841e-08
1.1694e-08
0.000246607
-7.9164e-08
-0.000246558
-5.28793e-09
3.67256e-08
0.000251363
-0.000251243
-1.5861e-07
-5.63298e-11
4.32246e-09
0.000194537
-0.000194518
3.3881e-10
0.000230418
-0.000230394
1.23244e-08
2.52725e-10
-8.054e-09
-9.85268e-05
8.89577e-09
9.85266e-05
1.2062e-06
0.000269068
-2.11865e-07
-2.16747e-07
0.000279453
-2.07642e-08
-0.000279435
6.44036e-09
8.0438e-09
-1.16445e-08
0.00027959
-2.30406e-08
-0.00027957
6.39924e-09
-5.93449e-09
2.15347e-08
0.000279435
-8.90186e-09
8.64046e-09
-5.83018e-09
2.37487e-08
0.000279572
-4.32631e-09
9.85621e-05
-9.85498e-05
3.32859e-09
9.85496e-05
1.60136e-09
-3.54605e-08
1.5461e-07
2.17706e-10
0.00025126
8.2664e-09
-1.30984e-09
1.20537e-06
-2.26628e-07
2.22571e-07
8.55781e-07
-2.07383e-07
-8.55408e-07
2.05069e-07
-0.00115212
2.20498e-08
6.26676e-10
-9.44098e-07
7.6448e-07
9.4571e-07
-7.60762e-07
2.33148e-08
-8.15859e-08
-0.000246624
-5.3231e-09
5.77213e-08
6.19855e-09
9.45631e-07
-7.63551e-07
-9.44172e-07
7.61703e-07
-2.47151e-08
4.08517e-09
8.36092e-08
0.000246621
-2.82174e-10
3.6695e-08
-0.000251259
-1.56048e-07
-7.38854e-10
-3.54139e-08
1.54616e-07
4.36554e-10
0.000251235
-1.9717e-07
-1.27909e-06
2.0618e-08
8.55534e-07
-2.07404e-07
-8.58032e-07
2.05103e-07
1.17001e-06
-2.40411e-07
2.19863e-07
-0.00115205
0.00115203
6.33505e-09
-9.46689e-07
7.64396e-07
-7.60779e-07
9.48174e-07
2.33259e-08
1.16974e-08
0.000246572
-8.16073e-08
-0.00024652
-5.33549e-09
4.66532e-08
9.45366e-07
-7.6359e-07
-9.46836e-07
7.61612e-07
-2.47024e-08
-1.11004e-08
4.13213e-09
8.35713e-08
0.00024652
3.66471e-08
0.000251352
-0.000251235
-1.56012e-07
1.62277e-09
2.3367e-10
9.46036e-11
-1.36982e-08
0.000230426
0.000194589
-0.000194571
3.44083e-10
-2.91012e-09
0.00019457
6.63917e-11
0.000230448
-0.000230426
5.72145e-11
1.43743e-08
2.97119e-10
-1.57507e-08
0.000230388
4.32969e-09
0.000194529
-0.000194511
3.44986e-10
-3.35751e-09
-2.86254e-09
0.00019451
0.000230407
-0.000230388
6.88925e-10
1.64326e-08
0.000269055
-2.16968e-07
1.23548e-06
-2.24432e-07
8.07098e-09
-2.30955e-08
-0.000279515
5.95403e-09
8.06185e-09
-2.30564e-08
-0.000279438
6.47239e-09
-8.8897e-09
2.37632e-08
0.000279437
-5.88873e-09
9.85418e-05
-9.85294e-05
9.8538e-05
-9.85256e-05
9.85255e-05
8.99571e-09
9.85546e-05
-7.97874e-09
9.85669e-05
-9.85546e-05
8.99448e-09
9.85435e-05
-7.98049e-09
9.85558e-05
-9.85435e-05
1.0882e-08
2.62471e-08
-7.82822e-09
0.000279564
8.46115e-09
2.61778e-08
-5.22974e-09
0.000279495
0.00027112
-1.24789e-06
-1.2055e-06
-0.000269096
2.10958e-07
2.18691e-07
0.000279584
-1.15695e-08
8.4341e-09
-0.000279564
-2.52427e-08
0.000279516
-9.25256e-09
5.9587e-09
-0.000279495
-2.52042e-08
9.02072e-09
3.31384e-09
9.85546e-05
9.02318e-09
3.3214e-09
9.85435e-05
1.24627e-06
1.20379e-06
0.000269096
-2.09181e-07
-2.16956e-07
1.10377e-08
-7.9086e-09
2.63097e-08
0.000279564
8.62849e-09
-5.31649e-09
2.62387e-08
0.000279495
-3.66701e-08
0.000230433
-0.000230409
1.22561e-08
4.27838e-10
2.69465e-08
-3.00251e-09
0.000194525
3.54787e-08
0.000230409
-1.16473e-08
1.03624e-10
-2.53946e-08
0.000194546
4.11395e-10
-0.000194525
-8.24198e-10
0.000251404
-0.000251283
-1.05428e-09
-1.55982e-07
8.61185e-08
3.79492e-09
0.000246634
0.00115256
7.16058e-09
1.00139e-09
9.48679e-07
-7.66375e-07
-9.47005e-07
7.6731e-07
9.05181e-09
0.00113417
-8.48067e-10
-1.2463e-06
2.25053e-07
-2.26752e-07
-8.58156e-07
2.02229e-07
-2.04823e-07
8.5854e-07
9.61581e-10
0.000251283
9.86191e-10
1.54732e-07
0.000246688
-5.20786e-09
-0.000246634
-8.38943e-08
-1.88868e-09
0.00115257
1.24232e-09
-9.47012e-07
7.67228e-07
-7.66414e-07
9.48599e-07
0.000251376
-0.000251258
6.29655e-10
-1.55984e-07
-1.08344e-08
8.60792e-08
3.7633e-09
0.000246531
0.0011525
6.4427e-09
9.51238e-07
-7.6633e-07
-9.49486e-07
7.67297e-07
-1.91105e-09
0.00113424
1.24529e-06
-2.66334e-10
-8.63453e-07
2.04841e-07
8.63647e-07
-2.07608e-07
-1.24092e-06
2.27899e-07
-2.26825e-07
0.000251258
-2.31312e-10
1.54725e-07
0.000246583
1.15121e-08
-5.17847e-09
-0.000246531
-8.38309e-08
0.0011525
1.1415e-09
-9.52255e-07
7.67215e-07
-7.66363e-07
9.53892e-07
8.49218e-11
3.56404e-08
-1.17796e-08
3.31725e-10
0.000230449
2.48337e-08
-2.92228e-09
0.000194589
3.56383e-08
-1.17761e-08
9.53239e-11
0.000230409
2.70389e-08
-3.35376e-09
-2.93409e-09
0.000194525
8.89279e-10
1.16579e-09
1.54818e-07
0.000251283
3.36976e-09
-8.9435e-10
1.24794e-06
-2.26673e-07
2.25139e-07
8.58453e-07
-2.04779e-07
2.02272e-07
-8.5823e-07
0.00113417
4.0238e-09
8.61266e-08
0.000246634
4.53033e-09
1.45843e-09
9.48435e-07
-7.66511e-07
-9.47158e-07
7.67129e-07
0.00115256
-5.20581e-10
1.54811e-07
0.000251258
3.22448e-09
-1.24364e-06
-6.58518e-10
8.63587e-07
-2.07556e-07
-8.63519e-07
2.04911e-07
1.24536e-06
-2.29471e-07
2.27995e-07
0.00113424
-1.10091e-08
3.99293e-09
8.61387e-08
0.000246531
1.32101e-09
9.53745e-07
-7.6646e-07
-9.52394e-07
7.67119e-07
0.0011525
2.38577e-08
-5.8072e-09
0.000279437
-9.02491e-09
2.39487e-08
-5.72991e-09
0.000279578
0.000271104
-0.000269081
2.13688e-07
2.16006e-07
0.000279455
6.39659e-09
-0.000279437
-2.29051e-08
7.99662e-09
0.000279601
5.95703e-09
-0.000279578
-2.52546e-08
3.3009e-09
9.855e-05
9.85623e-05
-4.32642e-09
-9.855e-05
1.12035e-08
9.85315e-05
1.20632e-06
0.000269081
-2.11879e-07
-2.14246e-07
-5.91258e-09
2.39488e-08
0.000279437
-9.02624e-09
1.10472e-08
-5.32423e-09
2.62911e-08
0.000279578
3.34064e-09
9.855e-05
-1.73326e-09
0.000251397
-0.000251276
-4.79668e-11
-1.55973e-07
8.37137e-08
6.2224e-09
0.000246597
0.0011524
3.238e-09
6.59794e-09
9.51224e-07
-7.66359e-07
-9.49592e-07
7.67246e-07
3.26275e-09
0.00113517
-7.83664e-10
-1.20382e-06
2.22568e-07
-2.24085e-07
-8.60745e-07
2.05061e-07
-2.07573e-07
8.6119e-07
1.68504e-09
0.000251276
2.65075e-10
1.54743e-07
0.000246654
-7.72326e-09
-0.000246597
-8.15911e-08
-4.11267e-09
0.0011524
6.885e-09
-9.49593e-07
7.67183e-07
-7.66383e-07
9.51151e-07
-3.66745e-08
0.000230421
-0.000230397
1.22581e-08
4.39464e-10
2.47642e-08
-2.9923e-09
0.000194513
3.54966e-08
0.000230397
-1.16528e-08
1.19374e-10
-2.32144e-08
0.000194532
3.3271e-10
-0.000194513
0.000251366
-0.000251249
-1.55974e-07
1.45998e-10
0.00115234
1.00193e-09
9.51245e-07
-7.6639e-07
-9.49571e-07
7.67266e-07
-1.09495e-08
8.13563e-08
3.82867e-09
0.000246518
3.60237e-09
0.00113411
1.23982e-06
-8.26652e-10
-8.6074e-07
2.02225e-07
8.61088e-07
-2.04853e-07
-1.23818e-06
2.27885e-07
-2.29522e-07
0.000251249
1.54757e-07
-9.90773e-12
0.00115233
6.84271e-09
-9.4958e-07
7.67201e-07
-7.66414e-07
9.51167e-07
0.000246567
1.1662e-08
-5.26951e-09
-0.000246518
-7.91227e-08
3.56498e-08
1.85615e-10
9.08061e-11
-1.17802e-08
0.000230436
2.48148e-08
-2.8952e-09
0.000194572
1.68838e-09
2.14121e-10
1.5739e-07
0.000251273
2.95434e-09
-7.92676e-10
1.20556e-06
-2.24005e-07
2.22653e-07
8.61098e-07
-2.0753e-07
2.05108e-07
-8.6082e-07
0.00113517
6.45393e-09
8.3727e-08
0.000246597
3.26119e-09
1.57897e-09
9.50985e-07
-7.66484e-07
-9.4973e-07
7.67066e-07
0.00115239
3.56523e-08
-1.17833e-08
1.12552e-10
0.000230397
2.48358e-08
-3.31435e-09
-2.93673e-09
0.000194513
1.57405e-07
-5.57486e-11
0.000251246
3.39933e-09
-1.23817e-06
-8.01699e-10
8.61015e-07
-2.04803e-07
-8.608e-07
2.02281e-07
1.23985e-06
-2.29461e-07
2.27957e-07
0.00113411
1.56787e-09
9.51005e-07
-7.66521e-07
-9.49713e-07
7.67083e-07
0.00115233
-1.10973e-08
4.04514e-09
8.13617e-08
0.000246518
-1.81145e-10
0.000230456
-0.000230434
4.08872e-10
1.42802e-08
-2.94659e-09
0.000194575
-2.21014e-11
0.000230434
3.5276e-10
-1.36896e-08
0.000194594
3.79118e-10
-0.000194575
3.66361e-08
0.000251359
-0.000251242
-1.55955e-07
-8.08761e-11
0.00115219
6.40011e-09
9.42982e-07
-7.60746e-07
7.61741e-07
-9.41236e-07
-2.47652e-08
8.37278e-08
3.82001e-09
0.000246555
9.12111e-09
0.00113373
4.51553e-09
-1.23523e-06
2.25065e-07
-2.26678e-07
-8.52582e-07
1.99486e-07
-2.02123e-07
8.52903e-07
-3.54683e-08
0.000251242
1.57266e-07
-4.85798e-10
0.00115219
6.65334e-09
-9.43977e-07
7.6443e-07
-7.63548e-07
9.45654e-07
2.32003e-08
0.000246607
-5.25041e-09
-0.000246553
-8.38572e-08
0.000230418
-0.000230394
1.22348e-08
2.3434e-10
-3.29883e-09
-2.98045e-09
0.000194518
0.000230394
-1.1646e-08
1.13078e-10
0.000194537
4.33326e-09
3.39481e-10
-0.000194518
-3.5571e-08
1.4595e-09
4.57426e-10
1.54779e-07
0.000251268
-2.55524e-09
-9.4846e-10
1.20809e-06
-2.23906e-07
2.22577e-07
8.55668e-07
-2.07487e-07
-8.55453e-07
2.05015e-07
0.00113472
-2.48083e-08
4.0045e-09
8.61049e-08
0.000246632
1.36581e-09
1.26823e-09
9.45489e-07
-7.60872e-07
-9.41438e-07
7.64303e-07
0.00115227
1.0254e-10
3.31895e-10
-1.38019e-08
0.000230433
-2.85834e-09
0.000194575
-3.56126e-08
1.54793e-07
-5.47967e-11
0.000251242
3.50587e-09
-1.23523e-06
-6.89783e-09
8.52846e-07
-2.02073e-07
-8.5263e-07
1.99554e-07
1.2369e-06
-2.2662e-07
2.25148e-07
0.00113374
-4.56313e-09
9.45492e-07
-7.63645e-07
-9.44103e-07
7.64331e-07
0.00115219
-2.48347e-08
-1.10511e-08
4.00022e-09
8.61241e-08
0.000246553
-1.17621e-08
9.92032e-11
0.000230394
-3.31354e-09
-2.92914e-09
0.000194518
2.16479e-08
-5.81725e-09
0.000279435
-8.97564e-09
2.39173e-08
-8.30951e-09
0.000279572
0.000271078
-0.000269068
2.13696e-07
2.18568e-07
0.000279453
6.43148e-09
-0.000279435
-2.06531e-08
7.96625e-09
0.00027959
9.01713e-09
-0.000279573
-2.29565e-08
3.27664e-09
9.85499e-05
9.85622e-05
-4.34061e-09
-9.85499e-05
9.02293e-09
9.85269e-05
1.20086e-06
0.000269068
-2.11941e-07
-2.1682e-07
-5.88653e-09
2.17206e-08
0.000279435
-9.02457e-09
1.09739e-08
-8.36037e-09
2.39937e-08
0.000279573
3.28821e-09
9.85499e-05
3.65606e-08
0.000251352
-0.000251234
-1.55921e-07
1.12113e-09
0.00115203
8.29352e-10
9.48198e-07
-7.66311e-07
7.64388e-07
-9.46611e-07
-2.47459e-08
8.36927e-08
3.83211e-09
0.00024652
3.45443e-09
0.00113473
-5.81424e-10
-1.19826e-06
2.22466e-07
-2.24068e-07
-8.57883e-07
2.0493e-07
-2.07561e-07
8.58227e-07
-3.53961e-08
0.000251234
1.54724e-07
-4.73249e-10
0.00115202
1.14907e-09
-9.4657e-07
7.64349e-07
-7.63554e-07
9.48146e-07
2.32586e-08
0.000246572
-5.29938e-09
-0.00024652
-8.15364e-08
-6.53251e-11
0.000230448
-0.000230426
4.77475e-10
1.42961e-08
-2.9934e-09
0.000194571
2.25193e-10
0.000230426
8.15699e-11
-1.36921e-08
0.000194589
3.5089e-10
-0.000194571
0.000230408
-0.000230388
6.73718e-10
1.6351e-08
-3.30642e-09
-2.9507e-09
0.000194511
0.000230388
8.96309e-11
-1.57461e-08
0.000194529
4.3315e-09
3.63583e-10
-0.000194511
8.45453e-10
-3.55582e-08
1.54783e-07
4.23962e-10
0.000251259
3.24657e-09
-8.51811e-10
1.20256e-06
-2.23945e-07
2.22538e-07
8.55705e-07
-2.07478e-07
-8.55407e-07
2.05028e-07
0.00113458
4.99762e-09
1.4622e-09
9.45523e-07
-7.63658e-07
-9.44189e-07
7.64318e-07
0.0011521
-2.48157e-08
3.98121e-09
8.37197e-08
0.000246624
-3.55164e-08
1.54778e-07
-9.84165e-10
0.000251234
3.16579e-09
-1.19825e-06
-6.53165e-10
8.58114e-07
-2.07521e-07
-8.57931e-07
2.05015e-07
1.19991e-06
-2.24006e-07
2.22551e-07
0.00113473
1.45333e-09
9.48008e-07
-7.63621e-07
-9.46679e-07
7.64271e-07
0.00115203
-2.48231e-08
-1.10391e-08
4.00956e-09
8.3737e-08
0.00024652
1.14841e-10
7.77013e-11
-1.379e-08
0.000230426
-2.94995e-09
0.000194571
-1.39893e-10
-1.58438e-08
0.000230388
-3.32448e-09
-2.89388e-09
0.000194511
9.85295e-05
9.85419e-05
-9.85295e-05
9.85257e-05
9.85381e-05
-9.85258e-05
0.000269041
-2.11701e-07
-2.14402e-07
-9.03586e-09
-5.3464e-09
2.63051e-08
0.000279513
-9.02586e-09
-5.854e-09
2.39937e-08
0.000279438
9.85295e-05
9.85258e-05
1.26304e-08
7.97191e-05
-7.23227e-10
-0.000264528
1.1727e-08
0.000264554
-3.59943e-08
-1.45671e-09
-2.87519e-09
-3.36123e-09
2.47319e-08
3.57537e-08
7.53034e-11
7.97311e-05
-2.62848e-10
-3.35734e-09
2.47028e-08
-9.72458e-10
1.19765e-08
0.000144108
-0.00014412
7.46202e-10
-1.17093e-08
1.12774e-10
-0.000230473
-5.45252e-11
3.55419e-08
-0.000171945
-3.75366e-10
-1.8747e-11
0.000171957
-0.000224461
1.23853e-08
1.48564e-09
0.000224488
-3.98274e-08
-0.000171957
-1.6479e-11
-0.000224488
-1.88922e-11
3.84832e-08
2.74966e-10
0.00014412
-7.97193e-05
-1.16842e-08
-2.88435e-10
7.97313e-05
-1.2662e-08
0.000264529
-2.66493e-12
-0.000264555
3.57213e-08
3.00032e-10
0.000194608
4.34879e-09
-2.32547e-08
-7.49165e-10
-7.97313e-05
-1.51843e-09
0.000264555
-3.60231e-08
-0.000144108
3.68595e-10
-1.24514e-08
1.23284e-08
4.57059e-10
7.72507e-11
-3.67549e-08
9.75966e-10
0.000171944
-0.000171957
-8.96002e-12
-1.19259e-08
0.000224461
-0.000224488
3.84403e-08
-0.000144119
-9.39033e-12
-3.99136e-08
1.26901e-08
7.97194e-05
-0.000264529
1.16652e-08
0.000264555
-3.59526e-08
-2.988e-09
-3.27737e-09
2.48064e-08
3.57692e-08
7.97313e-05
9.85461e-05
-4.32822e-09
-1.02304e-08
3.31441e-09
1.12205e-08
1.19654e-08
-9.46815e-10
0.000144106
-0.000144118
7.27694e-10
-1.16403e-10
-1.17024e-08
-0.00023046
3.10654e-11
3.55456e-08
-0.000224452
1.2397e-08
1.46757e-09
0.000224478
-3.98283e-08
-0.000171941
-4.05576e-10
5.116e-12
0.000171954
-0.000224478
-3.18027e-11
3.8473e-08
-0.000171954
1.93837e-11
2.52694e-10
0.000144118
-7.9721e-05
-1.17247e-08
-2.65927e-10
7.9733e-05
-1.26422e-08
0.000264524
6.93041e-12
-0.00026455
3.57261e-08
3.33175e-10
0.000194591
4.36225e-09
-2.33222e-08
-7.31954e-10
-7.97329e-05
-1.50278e-09
0.00026455
-3.60565e-08
-0.000144106
-1.24656e-08
3.96053e-10
6.67281e-10
1.23411e-08
-3.24035e-11
-3.67645e-08
-1.19161e-08
0.000224452
-0.000224478
3.84289e-08
9.5158e-10
0.000171941
-0.000171954
2.37807e-11
-0.000144118
-3.99093e-08
8.77753e-12
1.26707e-08
7.9721e-05
-0.000264524
1.17014e-08
0.00026455
-3.59883e-08
-2.96175e-09
-3.28321e-09
2.47817e-08
3.57683e-08
7.9733e-05
9.85392e-05
-4.34665e-09
-8.00468e-09
3.29056e-09
9.02119e-09
-4.98415e-09
-5.00652e-09
0.000214725
-0.000214733
8.85975e-09
8.85069e-09
-8.09549e-05
-4.75555e-09
-4.60802e-09
8.09643e-05
-8.09433e-05
-4.73605e-09
-4.65176e-09
8.09527e-05
-8.09643e-05
4.39379e-09
-8.09527e-05
4.39546e-09
-8.58702e-09
-8.65496e-09
0.000214733
-0.00022294
-1.70149e-08
1.51328e-08
8.61312e-09
0.000222963
-2.94396e-08
-1.76858e-08
0.000251847
-0.000251895
5.97147e-08
3.06242e-08
1.54378e-08
0.000183938
-4.37273e-09
-0.000183954
-2.30057e-08
5.981e-09
0.000279536
8.0166e-09
-1.17484e-08
-8.81462e-09
-0.000222963
2.91614e-08
0.000251893
-5.73016e-08
-2.8913e-08
4.64094e-09
0.000183954
-0.000222871
-1.71017e-08
1.32068e-08
8.68309e-09
0.000222899
-3.18734e-08
-1.76742e-08
0.000251734
-0.000251785
6.21463e-08
3.06002e-08
1.34659e-08
0.000183886
-4.37834e-09
-0.0001839
-2.30035e-08
6.50647e-09
0.000279458
8.02622e-09
-1.17417e-08
-8.81263e-09
-0.000222898
3.15781e-08
0.000251785
-6.22323e-08
-2.89752e-08
4.67834e-09
0.000183901
-0.000214725
4.75847e-09
4.74358e-09
4.96484e-09
8.09549e-05
-8.09642e-05
4.98203e-09
8.09433e-05
-8.09527e-05
-0.000214733
1.76813e-08
-1.5527e-08
0.000222938
3.16182e-08
-0.000183938
-1.50693e-08
0.000183954
2.6285e-08
-5.27025e-09
-9.03661e-09
1.09284e-08
-0.000251847
1.69936e-08
0.000251893
-5.97393e-08
-2.89832e-08
5.97678e-08
3.04996e-08
0.000222963
-3.17211e-08
1.76667e-08
-1.35592e-08
0.000222872
3.1686e-08
-0.000183886
-1.31359e-08
0.000183901
2.39689e-08
-5.78883e-09
-9.01523e-09
1.09187e-08
-0.000251734
1.70894e-08
0.000251785
-6.21846e-08
-2.90456e-08
6.2206e-08
3.04828e-08
0.000222899
-3.1788e-08
8.89994e-09
8.90813e-09
-4.87799e-09
-4.92071e-09
0.00021475
1.09577e-08
8.82969e-09
-8.09624e-05
-4.89754e-09
-4.51408e-09
8.09718e-05
-8.09488e-05
-4.82649e-09
-4.63545e-09
8.09583e-05
4.40214e-09
4.40901e-09
-1.08789e-08
-8.89211e-09
0.00021476
-1.55491e-08
0.000222972
2.00996e-08
2.92376e-08
-0.000183952
-1.54937e-08
0.000183971
-7.97851e-09
2.61447e-08
1.10963e-08
1.94393e-08
-0.000251897
0.000251939
-5.98492e-08
-2.63469e-08
0.000222995
-2.96987e-08
5.95757e-08
2.79846e-08
-1.53712e-08
0.000222906
1.75924e-08
3.38906e-08
-0.000183898
-1.52843e-08
0.000183915
-5.3701e-09
2.60644e-08
8.68513e-09
1.70933e-08
-0.000251789
0.000251835
-6.23498e-08
-2.64402e-08
0.000222933
-3.43014e-08
6.2007e-08
2.79411e-08
-9.85667e-05
8.93477e-09
3.32361e-09
-8.09807e-09
-4.2806e-09
-9.85556e-05
8.93784e-09
3.32308e-09
-8.09727e-09
-4.30215e-09
-0.00021475
4.87616e-09
4.80966e-09
-1.08688e-08
-8.88216e-09
0.00021476
4.88261e-09
8.09625e-05
4.37273e-09
4.92194e-09
8.0949e-05
4.38242e-09
1.09548e-08
8.82444e-09
-4.54401e-09
8.09719e-05
-4.66101e-09
8.09584e-05
-1.55503e-08
2.01169e-08
0.000222972
-0.000222995
-1.09795e-08
2.92282e-08
-0.000251899
1.94507e-08
0.000251938
-5.72619e-08
-2.63371e-08
-7.89689e-09
2.61569e-08
-0.000279584
1.09928e-08
-0.000183952
-1.5415e-08
4.5552e-09
0.000183971
-0.000183971
-4.3514e-09
-0.000251941
5.72049e-08
3.06415e-08
1.08354e-08
0.000222995
-2.96339e-08
-1.53724e-08
1.75996e-08
0.000222906
-0.000222933
-8.8507e-09
3.38907e-08
-0.000251789
1.71119e-08
0.000251835
-6.22369e-08
-2.64348e-08
-5.29167e-09
2.60894e-08
-0.000279516
8.56931e-09
-0.000183899
-1.52081e-08
4.66659e-09
0.000183915
-0.000183915
-4.36674e-09
-0.000251835
6.20691e-08
2.80376e-08
8.84517e-09
0.000222933
-3.42277e-08
-0.000222972
1.54985e-08
-1.94321e-08
-2.97101e-08
1.55079e-08
0.000183952
-2.01222e-08
0.0002519
5.70738e-08
2.80899e-08
8.3647e-09
-2.54346e-08
-1.14753e-08
2.91942e-08
-5.74337e-08
-2.88256e-08
-0.000222906
1.52891e-08
-1.70917e-08
-3.43085e-08
1.53315e-08
0.000183898
-1.76093e-08
0.000251789
6.20025e-08
2.80345e-08
5.90271e-09
-2.53956e-08
-9.16796e-09
3.38546e-08
-6.23219e-08
-2.63838e-08
-4.92025e-09
-4.95415e-09
0.00021475
-8.09627e-05
-4.83143e-09
8.09721e-05
-8.09491e-05
-4.77038e-09
8.09585e-05
0.00021476
-0.000144108
3.73019e-10
-1.24476e-08
2.70646e-10
0.000144119
9.68704e-10
0.000171944
-1.64587e-11
-0.000171957
-1.1967e-08
0.000224461
-5.83631e-11
3.85371e-08
-0.000224488
1.23296e-08
4.67456e-10
0.000230473
4.19578e-11
-3.67295e-08
7.25458e-10
-0.000144119
0.000171957
-1.77038e-11
1.48643e-09
0.000224488
-3.98558e-08
7.97193e-05
1.26407e-08
-7.97312e-05
-7.37356e-10
-2.95116e-09
-0.000194608
2.47489e-08
1.17124e-08
-0.000264528
-1.516e-09
-3.60309e-08
-2.82377e-10
-0.000264554
1.81373e-11
3.57454e-08
-7.97192e-05
-1.1724e-08
-1.2636e-08
0.000264528
3.57725e-08
3.77806e-10
-2.32945e-08
-3.60022e-08
0.000144108
-9.74386e-10
1.19323e-08
-1.16553e-08
1.28351e-10
-6.23342e-11
3.55079e-08
-3.68713e-10
-0.000171944
-2.28478e-11
1.24749e-08
-0.000224461
-3.99196e-08
-2.28693e-11
3.84732e-08
-0.000144037
4.12436e-10
-1.24555e-08
2.50612e-10
0.000144049
9.33188e-10
0.000171909
-0.000171922
-1.19329e-08
0.000224362
-2.19726e-09
3.5993e-08
-0.000224384
1.23331e-08
4.33947e-10
0.000230433
-3.67341e-08
7.08329e-10
-0.000144049
0.000171922
3.55584e-09
0.000224384
-3.73573e-08
1.26136e-08
7.9677e-05
-7.96889e-05
-7.21783e-10
-2.95941e-09
-0.000194545
-3.34024e-09
2.69157e-08
-0.000264394
1.17204e-08
-3.57761e-09
0.00026442
-3.3488e-08
-0.00026442
2.16908e-09
3.31648e-08
-2.63861e-10
7.9689e-05
-7.96769e-05
-1.17356e-08
-1.26087e-08
0.000264394
3.31827e-08
-0.00026442
4.41821e-10
4.27753e-09
-2.55057e-08
-7.96888e-05
-3.34758e-08
-9.3772e-10
1.19017e-08
0.000144037
-1.16516e-08
1.01339e-10
3.55009e-08
-0.00017191
-4.06589e-10
0.000171922
-0.000224362
1.24788e-08
0.000224384
-3.74075e-08
3.59311e-08
0.000144049
-9.85459e-05
1.1133e-08
-1.03139e-08
1.77161e-08
-1.3641e-08
0.000222881
-1.33276e-08
3.40134e-08
-0.000222906
-0.000251734
1.95419e-08
0.000251778
-5.76104e-08
-2.88037e-08
2.37852e-08
-5.87386e-09
-0.000279454
1.09434e-08
-0.000183881
-1.3518e-08
6.33188e-09
0.000183895