/*--------------------------------*- C++ -*----------------------------------*\
| =========                 |                                                 |
| \\      /  F ield         | OpenFOAM: The Open Source CFD Toolbox           |
|  \\    /   O peration     | Version:  2312                                  |
|   \\  /    A nd           | Website:  www.openfoam.com                      |
|    \\/     M anipulation  |                                                 |
\*---------------------------------------------------------------------------*/
FoamFile
{
    version     2.0;
    format      ascii;
    arch        "LSB;label=32;scalar=64";
    class       volVectorField;
    location    "250";
    object      U;
}
// * * * * * * * * * * * * * * * * * * * * * * * * * * * * * * * * * * * * * //

dimensions      [0 1 -1 0 0 0 0];

internalField   nonuniform List<vector> 
43211
(
(0.000124338 0.000124328 0.100289)
(-0.000176456 0.000135325 0.100342)
(0.000135361 -0.000176471 0.100342)
(-0.000213132 -0.000213088 0.100397)
(9.66601e-05 9.66637e-05 0.100853)
(-0.00016402 0.000100732 0.100938)
(0.000100708 -0.000164024 0.100938)
(-0.000204352 -0.00020442 0.100966)
(9.47164e-05 9.47327e-05 0.101372)
(-0.000155627 9.38667e-05 0.10145)
(9.38655e-05 -0.000155628 0.101451)
(-0.000201904 -0.000201972 0.101471)
(9.37206e-05 9.37417e-05 0.101892)
(-0.000152277 9.06044e-05 0.101958)
(9.06138e-05 -0.000152289 0.101958)
(-0.000199383 -0.000199427 0.101964)
(9.10093e-05 9.10353e-05 0.102398)
(-0.000146337 8.5892e-05 0.102447)
(8.59066e-05 -0.000146346 0.102447)
(-0.000193865 -0.000193913 0.102432)
(8.8118e-05 8.81521e-05 0.102885)
(-0.000140684 8.18817e-05 0.102912)
(8.1901e-05 -0.000140697 0.102912)
(-0.00018836 -0.000188395 0.102871)
(8.53356e-05 8.53869e-05 0.103353)
(-0.00013554 7.86518e-05 0.103354)
(7.86591e-05 -0.000135551 0.103354)
(-0.000183991 -0.00018401 0.103281)
(8.28681e-05 8.28968e-05 0.103803)
(-0.000131098 7.61498e-05 0.103774)
(7.61292e-05 -0.000131076 0.103774)
(-0.000180457 -0.000180512 0.103664)
(8.06758e-05 8.06547e-05 0.104237)
(-0.0001274 7.44621e-05 0.104175)
(7.44337e-05 -0.000127373 0.104175)
(-0.000178255 -0.000178305 0.104023)
(7.87397e-05 7.87362e-05 0.104658)
(-0.000124112 7.30247e-05 0.104558)
(7.30356e-05 -0.000124136 0.104558)
(-0.00017708 -0.000177106 0.104358)
(7.71281e-05 7.71247e-05 0.105066)
(-0.000121361 7.19657e-05 0.104925)
(7.18766e-05 -0.00012126 0.104925)
(-0.000176108 -0.000176176 0.104675)
(7.55745e-05 7.56033e-05 0.105464)
(-0.000118667 7.07949e-05 0.105277)
(7.04478e-05 -0.000118521 0.105277)
(-0.000175785 -0.000175786 0.104965)
(7.41032e-05 7.41162e-05 0.105851)
(-0.000116328 6.94731e-05 0.105615)
(6.923e-05 -0.000116214 0.105615)
(-0.000176067 -0.000176139 0.10524)
(7.30098e-05 7.30302e-05 0.106229)
(-0.000113927 6.8375e-05 0.105938)
(6.79645e-05 -0.000113659 0.105939)
(-0.000175913 -0.000175959 0.10549)
(7.13531e-05 7.13176e-05 0.106598)
(-0.000111652 6.72951e-05 0.106248)
(6.7542e-05 -0.000111772 0.106248)
(-0.000174382 -0.000174434 0.105721)
(6.97186e-05 6.97483e-05 0.106957)
(-0.000109637 6.63146e-05 0.106542)
(6.66104e-05 -0.000109786 0.106542)
(-0.000172275 -0.000172287 0.105927)
(6.85769e-05 6.86184e-05 0.107308)
(-0.000107484 6.5381e-05 0.106822)
(6.54951e-05 -0.000107577 0.106822)
(-0.000171904 -0.000171856 0.106107)
(6.71351e-05 6.71585e-05 0.107649)
(-0.000105289 6.40633e-05 0.107087)
(6.41186e-05 -0.000105362 0.107086)
(-0.000171145 -0.000171111 0.106263)
(6.557e-05 6.56059e-05 0.107982)
(-0.000103414 6.30121e-05 0.107335)
(6.28494e-05 -0.000103373 0.107335)
(-0.000169045 -0.000169012 0.106393)
(6.39777e-05 6.40212e-05 0.108307)
(-0.000101617 6.21983e-05 0.107565)
(6.18577e-05 -0.000101468 0.107566)
(-0.000166062 -0.000166041 0.106496)
(6.24784e-05 6.25024e-05 0.108622)
(-9.96878e-05 6.12739e-05 0.107779)
(6.10645e-05 -9.95743e-05 0.107779)
(-0.00016249 -0.000162474 0.106572)
(0.000156341 0.000156373 0.100285)
(0.00012952 0.000155305 0.100244)
(-0.000129516 0.000155234 0.100244)
(-0.000156361 0.000156285 0.100285)
(0.00015531 0.000129491 0.100244)
(0.000155278 -0.00012951 0.100244)
(0.00012195 0.000121931 0.100218)
(-0.000121955 0.000121888 0.100218)
(0.000121921 -0.000121956 0.100218)
(-0.000121933 -0.000121927 0.100218)
(-0.000155324 0.000129447 0.100244)
(-0.000155295 -0.000129479 0.100244)
(0.000156313 -0.000156375 0.100285)
(0.000129478 -0.000155329 0.100244)
(-0.000129483 -0.000155283 0.100244)
(-0.000156348 -0.00015631 0.100285)
(0.000213128 0.000213184 0.100397)
(0.00011604 0.000115985 0.100892)
(0.000135403 0.000176451 0.100342)
(-0.000135398 0.000176378 0.100342)
(9.66212e-05 0.000156908 0.100824)
(-9.66488e-05 0.000156909 0.100824)
(-0.000213158 0.000213064 0.100397)
(-0.00011603 0.000115996 0.100892)
(0.000176452 0.000135377 0.100342)
(0.000176422 -0.000135394 0.100342)
(0.000156842 9.66453e-05 0.100824)
(0.00015684 -9.6627e-05 0.100824)
(-0.000176432 -0.000135363 0.100342)
(-0.000156843 9.66364e-05 0.100824)
(-0.000156863 -9.66479e-05 0.100824)
(0.000213097 -0.00021318 0.100397)
(0.00011597 -0.000116017 0.100892)
(-0.000135363 -0.000176424 0.100342)
(9.65976e-05 -0.000156842 0.100824)
(-9.66338e-05 -0.000156845 0.100824)
(-0.000116005 -0.000116034 0.100892)
(0.000204421 0.000204319 0.100966)
(0.00010543 0.000105327 0.101395)
(0.000100733 0.000164076 0.100938)
(-0.000100747 0.000164063 0.100938)
(9.43566e-05 0.000156089 0.101321)
(-9.43976e-05 0.000156091 0.101321)
(-0.000204425 0.000204313 0.100966)
(-0.000105423 0.00010536 0.101395)
(0.000164029 0.00010076 0.100938)
(0.00016403 -0.00010074 0.100938)
(0.000156032 9.43969e-05 0.101321)
(0.00015607 -9.4395e-05 0.101321)
(-0.000164042 -0.000100742 0.100938)
(-0.00015604 9.43681e-05 0.101321)
(-0.00015607 -9.43753e-05 0.101321)
(0.000204307 -0.00020441 0.100966)
(0.000105379 -0.000105405 0.101395)
(-0.000100742 -0.000164019 0.100938)
(9.43649e-05 -0.000156043 0.101321)
(-9.43899e-05 -0.00015603 0.101321)
(-0.000105387 -0.000105417 0.101395)
(0.000201969 0.000201838 0.101471)
(9.70648e-05 9.70068e-05 0.101893)
(9.3855e-05 0.000155676 0.10145)
(-9.38904e-05 0.000155674 0.10145)
(9.17675e-05 0.000153689 0.101833)
(-9.18051e-05 0.000153696 0.101833)
(-0.000201992 0.000201856 0.101471)
(-9.71147e-05 9.70699e-05 0.101893)
(0.000155619 9.38955e-05 0.101451)
(0.000155662 -9.38961e-05 0.101451)
(0.000153642 9.1799e-05 0.101833)
(0.000153694 -9.17925e-05 0.101833)
(-0.000155661 -9.38765e-05 0.101451)
(-0.000153643 9.17718e-05 0.101833)
(-0.000153683 -9.17804e-05 0.101833)
(0.000201876 -0.00020196 0.101471)
(9.70622e-05 -9.71096e-05 0.101893)
(-9.38947e-05 -0.000155625 0.101451)
(9.17773e-05 -0.000153654 0.101833)
(-9.17879e-05 -0.000153644 0.101833)
(-9.70556e-05 -9.70634e-05 0.101893)
(0.000199383 0.000199292 0.101964)
(8.63117e-05 8.62698e-05 0.102366)
(9.06022e-05 0.00015232 0.101958)
(-9.06393e-05 0.000152328 0.101958)
(8.70183e-05 0.000147846 0.102327)
(-8.7055e-05 0.000147852 0.102327)
(-0.000199414 0.00019929 0.101964)
(-8.63738e-05 8.63502e-05 0.102366)
(0.000152273 9.06309e-05 0.101958)
(0.000152328 -9.0625e-05 0.101958)
(0.000147806 8.70439e-05 0.102327)
(0.000147858 -8.70379e-05 0.102327)
(-0.000152313 -9.06135e-05 0.101958)
(-0.000147806 8.70219e-05 0.102327)
(-0.00014784 -8.70273e-05 0.102327)
(0.000199297 -0.000199411 0.101964)
(8.63444e-05 -8.63936e-05 0.102366)
(-9.06194e-05 -0.000152276 0.101958)
(8.70351e-05 -0.00014782 0.102327)
(-8.70316e-05 -0.000147807 0.102327)
(-8.624e-05 -8.62379e-05 0.102366)
(0.000193789 0.000193712 0.102432)
(7.62249e-05 7.62004e-05 0.102812)
(8.59007e-05 0.000146379 0.102447)
(-8.59293e-05 0.000146376 0.102447)
(8.28091e-05 0.000142098 0.102798)
(-8.28204e-05 0.000142089 0.102798)
(-0.000193887 0.000193792 0.102432)
(-7.61926e-05 7.61947e-05 0.102812)
(0.000146338 8.59245e-05 0.102447)
(0.000146385 -8.59054e-05 0.102447)
(0.000142061 8.28331e-05 0.102798)
(0.000142108 -8.28177e-05 0.102798)
(-0.000146371 -8.59058e-05 0.102447)
(-0.000142055 8.28075e-05 0.102798)
(-0.000142096 -8.28253e-05 0.102798)
(0.000193829 -0.000193943 0.102432)
(7.62988e-05 -7.63519e-05 0.102812)
(-8.59124e-05 -0.000146337 0.102447)
(8.28257e-05 -0.000142071 0.102798)
(-8.28295e-05 -0.000142065 0.102798)
(-7.63613e-05 -7.63661e-05 0.102812)
(0.00018838 0.000188322 0.102871)
(6.71651e-05 6.71571e-05 0.10323)
(8.18858e-05 0.000140724 0.102912)
(-8.18985e-05 0.000140715 0.102912)
(7.9369e-05 0.000136807 0.103246)
(-7.93653e-05 0.00013679 0.103246)
(-0.000188466 0.000188364 0.102871)
(-6.7104e-05 6.70907e-05 0.10323)
(0.000140685 8.19073e-05 0.102912)
(0.000140734 -8.18887e-05 0.102912)
(0.000136766 7.94014e-05 0.103246)
(0.000136796 -7.93447e-05 0.103246)
(-0.000140718 -8.18887e-05 0.102912)
(-0.000136754 7.9367e-05 0.103246)
(-0.00013679 -7.937e-05 0.103246)
(0.000188317 -0.000188426 0.102871)
(6.71709e-05 -6.72063e-05 0.10323)
(-8.18967e-05 -0.000140687 0.102912)
(7.93724e-05 -0.000136759 0.103246)
(-7.93813e-05 -0.000136759 0.103246)
(-6.71634e-05 -6.71514e-05 0.10323)
(0.000183987 0.000183938 0.103281)
(5.93165e-05 5.92781e-05 0.103621)
(7.86275e-05 0.000135579 0.103354)
(-7.86458e-05 0.000135581 0.103354)
(7.66825e-05 0.000132168 0.103671)
(-7.66727e-05 0.000132152 0.103671)
(-0.000184004 0.000183879 0.103281)
(-5.91644e-05 5.91625e-05 0.103621)
(0.000135534 7.86579e-05 0.103354)
(0.000135586 -7.8631e-05 0.103354)
(0.000132148 7.67292e-05 0.103671)
(0.0001322 -7.67005e-05 0.103671)
(-0.000135568 -7.86363e-05 0.103354)
(-0.000132135 7.66874e-05 0.103671)
(-0.000132168 -7.66962e-05 0.103671)
(0.000183733 -0.000183845 0.103281)
(5.93805e-05 -5.94288e-05 0.103621)
(-7.86472e-05 -0.00013554 0.103354)
(7.67523e-05 -0.000132172 0.103671)
(-7.67142e-05 -0.000132142 0.103671)
(-5.91168e-05 -5.91169e-05 0.103621)
(0.00018045 0.000180328 0.103664)
(5.30685e-05 5.31045e-05 0.103987)
(7.6157e-05 0.000131135 0.103774)
(-7.61589e-05 0.000131124 0.103774)
(7.49413e-05 0.000128319 0.104076)
(-7.48699e-05 0.000128268 0.104076)
(-0.000180387 0.000180219 0.103664)
(-5.2776e-05 5.28335e-05 0.103988)
(0.000131103 7.61743e-05 0.103774)
(0.000131115 -7.61113e-05 0.103774)
(0.000128284 7.48885e-05 0.104077)
(0.000128288 -7.48615e-05 0.104076)
(-0.000131126 -7.61506e-05 0.103774)
(-0.000128232 7.47892e-05 0.104077)
(-0.000128277 -7.48677e-05 0.104076)
(0.00018057 -0.000180752 0.103664)
(5.25529e-05 -5.24882e-05 0.103988)
(-7.61717e-05 -0.0001311 0.103774)
(7.47646e-05 -0.000128229 0.104077)
(-7.48239e-05 -0.000128243 0.104077)
(-5.27403e-05 -5.27009e-05 0.103988)
(0.000178651 0.000178613 0.104023)
(4.72018e-05 4.72284e-05 0.104333)
(7.44454e-05 0.000127353 0.104175)
(-7.45545e-05 0.000127429 0.104175)
(7.3456e-05 0.000124932 0.104464)
(-7.34682e-05 0.000124932 0.104464)
(-0.000178092 0.000178063 0.104023)
(-4.76168e-05 4.75794e-05 0.104333)
(0.000127316 7.43959e-05 0.104175)
(0.000127434 -7.45322e-05 0.104175)
(0.000124904 7.34171e-05 0.104464)
(0.000124935 -7.34441e-05 0.104464)
(-0.000127398 -7.44815e-05 0.104175)
(-0.000124891 7.33893e-05 0.104464)
(-0.000124939 -7.34289e-05 0.104463)
(0.00017818 -0.000178247 0.104023)
(4.73473e-05 -4.72907e-05 0.104333)
(-7.4444e-05 -0.00012736 0.104175)
(7.33559e-05 -0.000124867 0.104464)
(-7.33941e-05 -0.000124901 0.104464)
(-4.67251e-05 -4.66853e-05 0.104333)
(0.000177024 0.000176984 0.104359)
(4.19148e-05 4.19275e-05 0.104656)
(7.31196e-05 0.000124162 0.104558)
(-7.3086e-05 0.00012415 0.104558)
(7.22668e-05 0.000122009 0.104834)
(-7.21621e-05 0.000121988 0.104834)
(-0.000177315 0.000177201 0.104359)
(-4.11307e-05 4.11761e-05 0.104658)
(0.000124131 7.30817e-05 0.104558)
(0.000124205 -7.31273e-05 0.104558)
(0.000121982 7.22134e-05 0.104835)
(0.000122132 -7.23967e-05 0.104834)
(-0.000124182 -7.31552e-05 0.104558)
(-0.000121951 7.20981e-05 0.104835)
(-0.000121916 -7.21624e-05 0.104834)
(0.000176773 -0.00017685 0.10436)
(4.21433e-05 -4.2108e-05 0.104656)
(-7.31116e-05 -0.000124144 0.104558)
(7.23028e-05 -0.00012206 0.104834)
(-7.20995e-05 -0.00012188 0.104835)
(-4.21745e-05 -4.21843e-05 0.104657)
(0.000176842 0.000176783 0.104673)
(3.56406e-05 3.5649e-05 0.104963)
(7.18492e-05 0.000121248 0.104925)
(-7.20407e-05 0.0001214 0.104924)
(7.09531e-05 0.000119315 0.10519)
(-7.14822e-05 0.000119655 0.10519)
(-0.00017614 0.000176043 0.104673)
(-3.70478e-05 3.70259e-05 0.10496)
(0.000121221 7.18125e-05 0.104925)
(0.000121332 -7.19626e-05 0.104925)
(0.000119285 7.09387e-05 0.105191)
(0.000119449 -7.11611e-05 0.10519)
(-0.000121322 -7.18636e-05 0.104925)
(-0.000119615 7.14176e-05 0.10519)
(-0.000119493 -7.1112e-05 0.10519)
(0.000177252 -0.00017733 0.104673)
(3.6711e-05 -3.66855e-05 0.104961)
(-7.1825e-05 -0.000121285 0.104925)
(7.10712e-05 -0.000119374 0.10519)
(-7.10879e-05 -0.000119443 0.10519)
(-3.54923e-05 -3.54554e-05 0.104962)
(0.000175278 0.000175227 0.104967)
(3.08518e-05 3.08382e-05 0.105248)
(7.08535e-05 0.000118824 0.105277)
(-7.08618e-05 0.000118706 0.105277)
(6.97483e-05 0.000116838 0.105532)
(-6.99213e-05 0.00011685 0.105532)
(-0.000177483 0.000177398 0.104965)
(-3.24726e-05 3.24314e-05 0.105247)
(0.000118788 7.08604e-05 0.105277)
(0.000118602 -7.054e-05 0.105277)
(0.000116814 6.97305e-05 0.105532)
(0.000116812 -6.9841e-05 0.105532)
(-0.000118784 -7.08679e-05 0.105277)
(-0.000116809 6.98495e-05 0.105532)
(-0.000117054 -7.01087e-05 0.105531)
(0.000176394 -0.000176494 0.104967)
(3.21038e-05 -3.20927e-05 0.105248)
(-7.0859e-05 -0.000118735 0.105277)
(6.97482e-05 -0.000116731 0.105532)
(-7.00683e-05 -0.000117013 0.105531)
(-3.20052e-05 -3.20015e-05 0.105246)
(0.000174787 0.000174698 0.10524)
(2.60337e-05 2.61228e-05 0.10551)
(6.99048e-05 0.000116534 0.105614)
(-6.95362e-05 0.000116364 0.105615)
(6.8869e-05 0.00011475 0.105858)
(-6.85496e-05 0.000114523 0.105859)
(-0.00017552 0.000175323 0.105242)
(-2.52232e-05 2.53159e-05 0.105513)
(0.000116495 6.98886e-05 0.105614)
(0.000116288 -6.93309e-05 0.105615)
(0.000114692 6.88149e-05 0.105859)
(0.000114646 -6.87692e-05 0.105859)
(-0.000116528 -6.9987e-05 0.105615)
(-0.000114467 6.84895e-05 0.105859)
(-0.000114679 -6.87739e-05 0.105858)
(0.000174767 -0.000174915 0.105242)
(2.63528e-05 -2.63184e-05 0.105512)
(-6.99521e-05 -0.000116482 0.105615)
(6.86674e-05 -0.000114553 0.105859)
(-6.87066e-05 -0.000114625 0.105859)
(-2.64101e-05 -2.63557e-05 0.105511)
(0.000176196 0.000176114 0.105489)
(2.23863e-05 2.24399e-05 0.105755)
(6.85985e-05 0.000114016 0.105938)
(-6.84728e-05 0.00011399 0.105938)
(6.76096e-05 0.000112217 0.106172)
(-6.76253e-05 0.000112172 0.106172)
(-0.000174628 0.000174618 0.10549)
(-2.21233e-05 2.22992e-05 0.105756)
(0.000113939 6.85803e-05 0.105938)
(0.000113767 -6.80738e-05 0.105939)
(0.00011213 6.75196e-05 0.106172)
(0.000112415 -6.80147e-05 0.106172)
(-0.000114048 -6.85589e-05 0.105938)
(-0.000112095 6.75379e-05 0.106172)
(-0.00011215 -6.74797e-05 0.106172)
(0.000175477 -0.000175506 0.105491)
(2.28881e-05 -2.2771e-05 0.105755)
(-6.85186e-05 -0.000113983 0.105938)
(6.7904e-05 -0.000112292 0.106172)
(-6.73892e-05 -0.000112074 0.106172)
(-2.15928e-05 -2.15724e-05 0.105755)
(0.000174754 0.000174715 0.105721)
(1.48629e-05 1.49465e-05 0.10598)
(6.75145e-05 0.000111826 0.106248)
(-6.74021e-05 0.000111727 0.106248)
(6.61281e-05 0.000109841 0.106471)
(-6.61411e-05 0.000109871 0.106471)
(-0.000174419 0.000174407 0.105721)
(-1.47914e-05 1.48923e-05 0.10598)
(0.000111736 6.74204e-05 0.106248)
(0.000111898 -6.76559e-05 0.106248)
(0.000109836 6.6093e-05 0.106471)
(0.000109913 -6.61373e-05 0.10647)
(-0.000111791 -6.74768e-05 0.106248)
(-0.000109804 6.60316e-05 0.106471)
(-0.000109859 -6.62273e-05 0.10647)
(0.000174994 -0.000175024 0.105721)
(1.46853e-05 -1.45986e-05 0.105979)
(-6.73878e-05 -0.000111717 0.106248)
(6.60321e-05 -0.000109861 0.106471)
(-6.61971e-05 -0.000109863 0.106471)
(-1.55035e-05 -1.54436e-05 0.105979)
(0.000171507 0.000171486 0.105927)
(1.05467e-05 1.06596e-05 0.106176)
(6.64016e-05 0.00010964 0.106542)
(-6.64274e-05 0.000109704 0.106542)
(6.56477e-05 0.000108175 0.106753)
(-6.57482e-05 0.000108244 0.106753)
(-0.000171511 0.00017147 0.105927)
(-1.07877e-05 1.0869e-05 0.106176)
(0.000109661 6.63614e-05 0.106542)
(0.000109838 -6.67066e-05 0.106542)
(0.000108194 6.56258e-05 0.106754)
(0.000108226 -6.55767e-05 0.106753)
(-0.00010963 -6.64258e-05 0.106542)
(-0.00010817 6.56465e-05 0.106754)
(-0.00010806 -6.54815e-05 0.106753)
(0.000171754 -0.000171827 0.105926)
(1.03338e-05 -1.0232e-05 0.106176)
(-6.63902e-05 -0.000109669 0.106542)
(6.54917e-05 -0.000108154 0.106754)
(-6.54689e-05 -0.000108084 0.106754)
(-1.09133e-05 -1.07901e-05 0.106176)
(0.00017218 0.000172207 0.106106)
(7.8686e-06 7.94988e-06 0.106349)
(6.55254e-05 0.000107545 0.106822)
(-6.5475e-05 0.000107549 0.106822)
(6.48353e-05 0.000106205 0.107021)
(-6.49306e-05 0.000106258 0.107021)
(-0.00017234 0.000172297 0.106106)
(-8.01691e-06 8.11807e-06 0.106349)
(0.000107558 6.54843e-05 0.106822)
(0.000107651 -6.55801e-05 0.106822)
(0.000106199 6.47875e-05 0.107021)
(0.00010624 -6.47923e-05 0.107021)
(-0.000107559 -6.54535e-05 0.106822)
(-0.000106188 6.48257e-05 0.107021)
(-0.000106117 -6.46453e-05 0.107021)
(0.000172009 -0.000172042 0.106106)
(7.8023e-06 -7.71075e-06 0.106349)
(-6.54221e-05 -0.000107588 0.106822)
(6.46986e-05 -0.000106173 0.107021)
(-6.46133e-05 -0.000106145 0.107021)
(-7.49352e-06 -7.38916e-06 0.106349)
(0.000171937 0.000171944 0.106263)
(4.77079e-06 4.84685e-06 0.106497)
(6.42095e-05 0.000105375 0.107086)
(-6.41696e-05 0.000105364 0.107086)
(6.38602e-05 0.000104309 0.107273)
(-6.40129e-05 0.000104409 0.107273)
(-0.000171999 0.000171956 0.106263)
(-4.76163e-06 4.84164e-06 0.106497)
(0.000105364 6.41525e-05 0.107087)
(0.000105428 -6.42228e-05 0.107086)
(0.000104259 6.38076e-05 0.107273)
(0.000104268 -6.3794e-05 0.107273)
(-0.000105484 -6.43476e-05 0.107086)
(-0.000104319 6.39104e-05 0.107273)
(-0.000104225 -6.35801e-05 0.107273)
(0.000171772 -0.000171809 0.106263)
(4.75909e-06 -4.66165e-06 0.106497)
(-6.43024e-05 -0.000105499 0.107086)
(6.37067e-05 -0.000104198 0.107273)
(-6.35426e-05 -0.00010422 0.107273)
(-3.89403e-06 -3.79439e-06 0.106497)
(0.00016986 0.000169863 0.106393)
(1.18036e-06 1.24906e-06 0.106619)
(6.29999e-05 0.000103459 0.107334)
(-6.31293e-05 0.000103505 0.107334)
(6.27861e-05 0.000102359 0.107508)
(-6.29243e-05 0.000102499 0.107508)
(-0.000170018 0.000169974 0.106393)
(-9.78457e-07 1.06663e-06 0.106618)
(0.000103398 6.29528e-05 0.107335)
(0.000103439 -6.29576e-05 0.107334)
(0.00010232 6.27232e-05 0.107509)
(0.000102353 -6.27632e-05 0.107508)
(-0.000103639 -6.32744e-05 0.107334)
(-0.000102405 6.28244e-05 0.107508)
(-0.000102215 -6.23929e-05 0.107508)
(0.000169678 -0.000169718 0.106393)
(1.27763e-06 -1.19216e-06 0.106618)
(-6.32365e-05 -0.000103631 0.107334)
(6.26817e-05 -0.000102286 0.107509)
(-6.23431e-05 -0.000102213 0.107509)
(-2.11857e-07 -1.28134e-07 0.106618)
(0.000166909 0.000166905 0.106496)
(-2.29865e-06 -2.24872e-06 0.106712)
(6.19775e-05 0.000101541 0.107565)
(-6.23184e-05 0.000101711 0.107565)
(6.17336e-05 0.000100391 0.107726)
(-6.15766e-05 0.000100378 0.107726)
(-0.000167088 0.000167045 0.106496)
(2.91751e-06 -2.82553e-06 0.106712)
(0.000101496 6.19343e-05 0.107566)
(0.00010154 -6.19592e-05 0.107565)
(0.000100343 6.16515e-05 0.107727)
(0.000100373 -6.17057e-05 0.107726)
(-0.000101716 -6.22096e-05 0.107565)
(-0.000100273 6.14671e-05 0.107727)
(-0.000100123 -6.12278e-05 0.107726)
(0.000166814 -0.000166861 0.106496)
(-2.20331e-06 2.27984e-06 0.106712)
(-6.21754e-05 -0.000101715 0.107565)
(6.16161e-05 -0.000100291 0.107727)
(-6.1166e-05 -0.000100132 0.107727)
(3.10747e-06 3.18347e-06 0.106712)
(0.000163475 0.000163453 0.106572)
(6.12347e-05 9.96969e-05 0.107779)
(-6.13948e-05 9.97988e-05 0.107778)
(-0.000163187 0.000163152 0.106572)
(9.9642e-05 6.11678e-05 0.107779)
(9.96621e-05 -6.11471e-05 0.107778)
(-9.96694e-05 -6.11155e-05 0.107778)
(0.000163366 -0.000163425 0.106572)
(-6.10753e-05 -9.96747e-05 0.107778)
(1.24741e-06 1.245e-06 0.0999994)
(1.59791e-05 1.59737e-05 0.100001)
(1.53636e-06 1.37707e-05 0.0999998)
(1.37772e-05 1.53428e-06 0.0999998)
(-4.86826e-05 5.70121e-06 0.100008)
(-2.19193e-05 1.83012e-05 0.1)
(-0.000127869 6.03105e-05 0.100058)
(-1.76785e-05 1.76074e-06 0.0999985)
(5.69988e-06 -4.8669e-05 0.100008)
(1.83058e-05 -2.19165e-05 0.1)
(1.76231e-06 -1.76769e-05 0.0999985)
(6.0314e-05 -0.000127822 0.100058)
(-2.50342e-05 -2.50364e-05 0.100004)
(-0.000134778 -8.09385e-05 0.100055)
(-8.09378e-05 -0.000134727 0.100055)
(-3.43498e-05 0.000137154 0.100737)
(0.000175655 0.000388783 0.099425)
(2.26732e-06 0.000302181 0.100525)
(-8.50013e-05 0.000245499 0.0991603)
(-0.000303147 0.000837046 0.0977804)
(-0.000128464 0.000305698 0.0957324)
(0.000136991 -3.4414e-05 0.100737)
(0.000388953 0.000175049 0.099425)
(0.000302799 2.19752e-06 0.100526)
(0.000245614 -8.46918e-05 0.0991604)
(-0.00012434 0.000124283 0.100289)
(0.000124321 -0.000124344 0.100289)
(-0.000124326 -0.000124314 0.100289)
(9.51812e-05 9.51884e-05 0.100737)
(-9.51776e-05 9.51838e-05 0.100737)
(9.51658e-05 -9.51805e-05 0.100737)
(-9.51767e-05 -9.51915e-05 0.100737)
(-0.000285846 6.32209e-06 0.100768)
(-0.000389993 0.000227407 0.100533)
(-0.000157429 2.29445e-05 0.100284)
(-0.000160586 0.000101568 0.100585)
(-0.000350158 1.58155e-05 0.100488)
(-0.000153282 0.000198695 0.100753)
(-0.000159143 3.57046e-05 0.100524)
(0.000835859 -0.00030153 0.0977796)
(0.000305589 -0.000128429 0.0957326)
(6.30094e-06 -0.000285888 0.100768)
(2.29665e-05 -0.000157433 0.100284)
(0.000227475 -0.000389908 0.100533)
(0.000101585 -0.000160598 0.100585)
(1.58402e-05 -0.000350156 0.100488)
(3.57257e-05 -0.000159159 0.100524)
(0.000198709 -0.000153364 0.100753)
(-0.000369939 -0.000141101 0.100368)
(-0.00014113 -0.000369713 0.100368)
(-0.000118328 -0.000118307 0.100671)
(9.91704e-06 -8.01588e-05 0.100603)
(-8.02019e-05 9.84808e-06 0.100603)
(-1.65249e-05 0.000197745 0.100866)
(-5.55125e-05 0.0002894 0.0983218)
(-2.02268e-05 0.000209178 0.100778)
(-4.54306e-05 0.00027184 0.0979437)
(-0.000150565 0.000314311 0.0926229)
(-0.000136971 0.00027355 0.0909987)
(0.000197751 -1.65531e-05 0.100866)
(0.00028947 -5.5225e-05 0.0983218)
(0.000209232 -2.02765e-05 0.100779)
(0.000271909 -4.51989e-05 0.0979436)
(-9.66593e-05 9.6647e-05 0.100853)
(9.66412e-05 -9.66662e-05 0.100853)
(-9.66582e-05 -9.66756e-05 0.100853)
(9.52281e-05 9.52396e-05 0.101239)
(-9.52361e-05 9.52155e-05 0.101239)
(9.52278e-05 -9.52476e-05 0.101239)
(-9.52449e-05 -9.5248e-05 0.101239)
(-0.00026399 1.33312e-05 0.101152)
(-0.000220658 0.000213899 0.100819)
(-0.000170561 3.22029e-05 0.100893)
(-0.000161593 9.87918e-05 0.101062)
(-0.000300765 1.41741e-05 0.100978)
(-0.000183825 0.000197287 0.100943)
(-0.000170736 3.29929e-05 0.101016)
(0.000314054 -0.000150434 0.0926226)
(0.000273448 -0.000136945 0.0909982)
(1.33073e-05 -0.000264001 0.101151)
(3.21966e-05 -0.000170565 0.100893)
(0.000213895 -0.000220673 0.100819)
(9.87703e-05 -0.000161596 0.101062)
(1.41524e-05 -0.000300799 0.100978)
(3.29909e-05 -0.000170739 0.101016)
(0.000197288 -0.000183795 0.100943)
(-8.41983e-05 -9.74962e-05 0.100439)
(-9.73186e-05 -8.41622e-05 0.100439)
(-0.000112313 -0.000112364 0.101142)
(-8.67246e-05 -8.24079e-05 0.100429)
(-8.23605e-05 -8.66714e-05 0.100428)
(-9.42057e-06 0.000210246 0.100957)
(-2.26118e-05 0.000281948 0.0971375)
(-1.16442e-05 0.000229817 0.100903)
(-1.29258e-05 0.000257303 0.0967127)
(-0.000116976 0.000226243 0.0883851)
(-9.64977e-05 0.000187591 0.0870655)
(0.000210263 -9.46423e-06 0.100957)
(0.000281963 -2.25066e-05 0.0971374)
(0.000229833 -1.16976e-05 0.100903)
(0.000257311 -1.28248e-05 0.0967124)
(-9.47293e-05 9.47124e-05 0.101372)
(9.47231e-05 -9.47409e-05 0.101372)
(-9.4738e-05 -9.47382e-05 0.101372)
(9.42265e-05 9.42471e-05 0.101763)
(-9.42437e-05 9.42238e-05 0.101763)
(9.42389e-05 -9.42509e-05 0.101763)
(-9.42459e-05 -9.42516e-05 0.101763)
(-0.000250972 1.22275e-05 0.10158)
(-0.000222825 0.000189899 0.101028)
(-0.000167237 3.31039e-05 0.101409)
(-0.000155408 9.34927e-05 0.101579)
(-0.000289911 1.21094e-05 0.101414)
(-0.000182637 0.00016879 0.101123)
(-0.00016755 3.30787e-05 0.101539)
(0.000226132 -0.000116974 0.0883851)
(0.000187501 -9.64991e-05 0.0870645)
(1.22171e-05 -0.000250959 0.10158)
(3.31095e-05 -0.000167231 0.101409)
(0.000189876 -0.000222836 0.101028)
(9.34867e-05 -0.000155413 0.101579)
(1.2123e-05 -0.000289948 0.101414)
(3.30831e-05 -0.000167556 0.101539)
(0.000168786 -0.000182637 0.101123)
(-0.000116256 -9.10803e-05 0.100182)
(-9.10306e-05 -0.000116211 0.100182)
(-0.000101873 -0.000101889 0.101647)
(-0.000112234 -7.19176e-05 0.100086)
(-7.18741e-05 -0.000112185 0.100085)
(-7.02689e-06 0.000209778 0.100952)
(4.89443e-06 0.000258545 0.0958585)
(-7.92972e-06 0.000236002 0.100928)
(9.65131e-06 0.000229909 0.0954232)
(-7.68629e-05 0.000150306 0.0849764)
(-5.86309e-05 0.000119215 0.0839658)
(0.000209791 -7.06227e-06 0.100952)
(0.000258546 4.98275e-06 0.0958581)
(0.000236019 -7.96695e-06 0.100928)
(0.000229902 9.73206e-06 0.0954228)
(-9.37375e-05 9.3716e-05 0.101892)
(9.37342e-05 -9.37415e-05 0.101892)
(-9.37407e-05 -9.37464e-05 0.101892)
(9.17157e-05 9.17403e-05 0.102273)
(-9.17317e-05 9.17166e-05 0.102273)
(9.17343e-05 -9.1731e-05 0.102273)
(-9.17348e-05 -9.17369e-05 0.102273)
(-0.000238338 1.11526e-05 0.101978)
(-0.00022029 0.000162401 0.101142)
(-0.000165451 3.23891e-05 0.101924)
(-0.000150802 8.93936e-05 0.102082)
(-0.000282532 1.10029e-05 0.101822)
(-0.000175269 0.000140743 0.101213)
(-0.000163982 3.20296e-05 0.102051)
(0.000150241 -7.6857e-05 0.0849765)
(0.000119102 -5.86613e-05 0.0839646)
(1.11378e-05 -0.000238311 0.101978)
(3.2388e-05 -0.000165453 0.101924)
(0.00016234 -0.000220281 0.101142)
(8.94042e-05 -0.000150815 0.102082)
(1.10073e-05 -0.000282557 0.101822)
(3.20234e-05 -0.000163995 0.102051)
(0.000140758 -0.000175265 0.101213)
(-0.000133409 -7.92139e-05 0.0997182)
(-7.91827e-05 -0.000133376 0.0997183)
(-9.1714e-05 -9.17135e-05 0.102133)
(-0.000123996 -6.00998e-05 0.0995701)
(-6.00712e-05 -0.000123954 0.0995686)
(-6.51015e-06 0.000201926 0.100851)
(1.85462e-05 0.000227121 0.0945618)
(-6.93496e-06 0.000231026 0.100853)
(1.82163e-05 0.000197673 0.0941439)
(-4.49468e-05 9.55491e-05 0.0823417)
(-3.0777e-05 7.22092e-05 0.0815918)
(0.000201943 -6.51371e-06 0.100851)
(0.000227118 1.86064e-05 0.0945613)
(0.000231037 -6.94919e-06 0.100853)
(0.000197647 1.82902e-05 0.0941434)
(-9.103e-05 9.10103e-05 0.102398)
(9.10297e-05 -9.10213e-05 0.102398)
(-9.10363e-05 -9.10345e-05 0.102398)
(8.88464e-05 8.88783e-05 0.102765)
(-8.88587e-05 8.88658e-05 0.102765)
(8.88768e-05 -8.88605e-05 0.102765)
(-8.88764e-05 -8.8873e-05 0.102765)
(-0.000223301 1.02491e-05 0.102335)
(-0.00021119 0.000137283 0.101161)
(-0.000159105 3.09051e-05 0.102425)
(-0.000144888 8.4822e-05 0.102565)
(-0.000270764 9.90951e-06 0.102189)
(-0.000164274 0.000116908 0.101213)
(-0.000157398 3.05421e-05 0.102547)
(9.55552e-05 -4.4987e-05 0.0823421)
(7.21612e-05 -3.07758e-05 0.0815904)
(1.02605e-05 -0.000223294 0.102335)
(3.0894e-05 -0.000159108 0.102425)
(0.000137237 -0.000211123 0.101161)
(8.48389e-05 -0.000144905 0.102565)
(9.90454e-06 -0.000270803 0.10219)
(3.05378e-05 -0.000157412 0.102547)
(0.000116622 -0.000164202 0.101212)
(-0.000138032 -6.83949e-05 0.0991142)
(-6.83844e-05 -0.000138047 0.0991142)
(-8.12738e-05 -8.12779e-05 0.102593)
(-0.000125434 -5.05657e-05 0.098932)
(-5.05282e-05 -0.000125453 0.0989301)
(-6.21722e-06 0.00019035 0.100664)
(2.02395e-05 0.000194755 0.0933123)
(-6.71533e-06 0.000220838 0.100689)
(1.69996e-05 0.000165798 0.0929279)
(-2.38143e-05 6.02446e-05 0.0803346)
(-1.30303e-05 4.24379e-05 0.0797851)
(0.000190341 -6.24391e-06 0.100664)
(0.000194752 2.02851e-05 0.0933118)
(0.000220842 -6.7481e-06 0.100689)
(0.000165795 1.70112e-05 0.0929273)
(-8.81409e-05 8.81439e-05 0.102885)
(8.81464e-05 -8.81244e-05 0.102885)
(-8.81439e-05 -8.81358e-05 0.102885)
(8.59827e-05 8.6029e-05 0.103238)
(-8.59936e-05 8.60155e-05 0.103238)
(8.60263e-05 -8.59892e-05 0.103238)
(-8.6012e-05 -8.59956e-05 0.103238)
(-0.000207567 9.70832e-06 0.10265)
(-0.000199775 0.000116353 0.101096)
(-0.000152237 2.95252e-05 0.102905)
(-0.000139325 8.09849e-05 0.103025)
(-0.000257216 9.15907e-06 0.102514)
(-0.000152557 9.75106e-05 0.101131)
(-0.000150508 2.91968e-05 0.103021)
(6.01647e-05 -2.38459e-05 0.0803354)
(4.23687e-05 -1.3032e-05 0.0797835)
(9.71042e-06 -0.00020754 0.10265)
(2.95067e-05 -0.000152241 0.102905)
(0.000116524 -0.000199858 0.101097)
(8.09934e-05 -0.000139333 0.103025)
(9.15718e-06 -0.000257243 0.102514)
(2.91904e-05 -0.00015052 0.103021)
(9.75103e-05 -0.000152425 0.101131)
(-0.00013597 -6.0497e-05 0.0984163)
(-6.05205e-05 -0.000135973 0.0984162)
(-7.1571e-05 -7.15679e-05 0.103024)
(-0.000122268 -4.40494e-05 0.0982125)
(-4.40612e-05 -0.00012222 0.0982104)
(-5.09449e-06 0.000176691 0.100404)
(1.5168e-05 0.000164985 0.092148)
(-5.84342e-06 0.000207784 0.100449)
(1.06832e-05 0.00013719 0.091804)
(-1.1192e-05 3.88414e-05 0.0788033)
(-2.89882e-06 2.49568e-05 0.0784015)
(0.000176683 -5.13379e-06 0.100404)
(0.000164942 1.51019e-05 0.0921475)
(0.000207804 -5.88466e-06 0.100449)
(0.000137177 1.07181e-05 0.0918033)
(-8.53524e-05 8.53861e-05 0.103353)
(8.53686e-05 -8.53297e-05 0.103353)
(-8.53693e-05 -8.53552e-05 0.103353)
(8.34454e-05 8.34921e-05 0.103692)
(-8.34588e-05 8.34831e-05 0.103692)
(8.35016e-05 -8.34521e-05 0.103692)
(-8.34784e-05 -8.3455e-05 0.103692)
(-0.000192233 9.56088e-06 0.102924)
(-0.00018729 9.92605e-05 0.100959)
(-0.000145549 2.84043e-05 0.103363)
(-0.000134362 7.79523e-05 0.103461)
(-0.000243395 8.80078e-06 0.102796)
(-0.000140539 8.15134e-05 0.10098)
(-0.000143967 2.81464e-05 0.103475)
(3.87066e-05 -1.12227e-05 0.0788046)
(2.48172e-05 -2.72329e-06 0.0783994)
(9.53935e-06 -0.000192188 0.102924)
(2.8378e-05 -0.000145554 0.103363)
(9.94276e-05 -0.000187525 0.100959)
(7.79688e-05 -0.000134373 0.103461)
(8.79106e-06 -0.000243409 0.102796)
(2.81361e-05 -0.00014398 0.103475)
(8.17052e-05 -0.00014037 0.100979)
(-0.000128073 -5.46965e-05 0.097663)
(-5.46697e-05 -0.000128016 0.0976627)
(-6.29829e-05 -6.2967e-05 0.103428)
(-0.000113923 -3.87261e-05 0.097448)
(-3.87384e-05 -0.000113891 0.0974454)
(-3.14665e-06 0.000162252 0.100086)
(7.56922e-06 0.000139114 0.0910849)