/*--------------------------------*- C++ -*----------------------------------*\
| =========                 |                                                 |
| \\      /  F ield         | OpenFOAM: The Open Source CFD Toolbox           |
|  \\    /   O peration     | Version:  2312                                  |
|   \\  /    A nd           | Website:  www.openfoam.com                      |
|    \\/     M anipulation  |                                                 |
\*---------------------------------------------------------------------------*/
FoamFile
{
    version     2.0;
    format      ascii;
    arch        "LSB;label=32;scalar=64";
    class       volScalarField;
    location    "400";
    object      k;
}
// * * * * * * * * * * * * * * * * * * * * * * * * * * * * * * * * * * * * * //

dimensions      [0 2 -2 0 0 0 0];

internalField   nonuniform List<scalar> 
43496
(
6.85864e-05
7.1205e-05
5.14282e-05
6.48071e-05
6.0647e-05
4.67246e-05
6.85846e-05
7.34505e-05
6.06453e-05
5.14237e-05
4.67246e-05
6.48039e-05
5.35383e-05
6.99471e-05
6.99444e-05
7.12034e-05
7.34543e-05
7.18582e-05
6.85744e-05
7.16105e-05
7.16407e-05
7.15985e-05
7.1628e-05
7.18721e-05
7.16917e-05
7.97938e-05
7.97857e-05
7.17063e-05
7.11926e-05
7.18561e-05
6.85726e-05
7.16401e-05
7.16048e-05
7.16274e-05
7.15929e-05
7.18702e-05
7.16892e-05
7.97741e-05
7.34392e-05
7.97659e-05
7.17038e-05
9.49823e-05
7.35043e-05
7.35104e-05
7.34906e-05
7.34966e-05
9.49842e-05
7.42045e-05
7.32888e-05
6.99431e-05
6.52595e-05
7.32794e-05
6.5246e-05
7.42084e-05
7.41563e-05
7.32806e-05
6.99407e-05
6.52546e-05
6.52414e-05
7.32713e-05
7.41604e-05
7.1191e-05
7.34427e-05
3.19135e-05
3.89189e-05
3.19186e-05
6.47955e-05
6.03908e-05
6.03862e-05
5.63126e-05
6.06278e-05
6.23396e-05
5.50364e-05
6.23209e-05
5.50328e-05
5.63063e-05
5.74029e-05
6.42205e-05
6.4207e-05
5.74055e-05
5.63094e-05
6.06261e-05
5.50351e-05
6.23352e-05
5.50314e-05
6.23163e-05
5.6303e-05
5.73972e-05
6.42122e-05
6.47921e-05
6.0388e-05
6.41988e-05
5.7398e-05
6.03806e-05
6.59359e-05
5.35536e-05
5.94881e-05
5.94898e-05
5.949e-05
5.94878e-05
6.5941e-05
3.83933e-05
5.11176e-05
5.11199e-05
5.33001e-05
3.88137e-05
5.13663e-05
5.13683e-05
5.34985e-05
5.33025e-05
5.34556e-05
5.11192e-05
5.11138e-05
5.13086e-05
5.13038e-05
5.32983e-05
5.34442e-05
5.11159e-05
5.11155e-05
5.13051e-05
5.13049e-05
5.1118e-05
5.13062e-05
5.13066e-05
5.33015e-05
5.34481e-05
5.11156e-05
5.13094e-05
5.13066e-05
5.34543e-05
5.34996e-05
5.13682e-05
5.13622e-05
5.35078e-05
5.13648e-05
5.13639e-05
5.1368e-05
5.35027e-05
5.13646e-05
6.85253e-05
7.33675e-05
7.33931e-05
6.84977e-05
7.1121e-05
7.11481e-05
6.85238e-05
7.33672e-05
7.33947e-05
6.84937e-05
3.83922e-05
3.83969e-05
3.83966e-05
3.87123e-05
3.87117e-05
3.8716e-05
3.87162e-05
6.05382e-05
6.47035e-05
4.6337e-05
5.11818e-05
6.47355e-05
4.64193e-05
6.04881e-05
7.11211e-05
7.11481e-05
6.05369e-05
4.63405e-05
6.47034e-05
5.11853e-05
4.64225e-05
6.47349e-05
6.04906e-05
6.98674e-05
6.98763e-05
5.33561e-05
6.98868e-05
6.98959e-05
7.34294e-05
6.85634e-05
7.11784e-05
7.34291e-05
6.85589e-05
3.88128e-05
3.88169e-05
3.88172e-05
6.06477e-05
6.47786e-05
4.665e-05
6.0602e-05
4.67261e-05
7.11785e-05
6.06464e-05
4.66537e-05
6.47782e-05
6.06047e-05
4.67292e-05
6.99247e-05
6.99335e-05
5.3548e-05
6.99419e-05
6.99511e-05
7.11198e-05
7.11466e-05
7.11225e-05
7.11495e-05
6.98722e-05
6.98799e-05
5.33571e-05
6.98907e-05
6.98986e-05
7.11752e-05
7.11486e-05
7.11781e-05
7.11514e-05
5.3403e-05
6.99191e-05
6.99274e-05
6.99014e-05
6.9909e-05
6.85235e-05
7.33629e-05
7.33903e-05
6.84959e-05
6.05389e-05
6.47045e-05
4.63379e-05
5.1184e-05
6.47362e-05
4.64194e-05
6.04924e-05
6.05371e-05
6.47004e-05
4.63351e-05
5.11789e-05
6.47321e-05
4.6417e-05
6.04905e-05
6.85315e-05
7.34237e-05
7.33987e-05
6.85574e-05
6.85298e-05
7.34202e-05
7.33951e-05
6.85558e-05
6.05513e-05
5.12464e-05
6.47733e-05
4.65763e-05
6.4743e-05
4.6498e-05
6.05954e-05
6.05494e-05
5.12407e-05
6.47693e-05
4.6574e-05
6.4739e-05
4.64952e-05
6.05936e-05
6.98725e-05
6.98724e-05
5.33503e-05
6.98906e-05
6.9892e-05
7.11208e-05
7.11478e-05
7.11767e-05
7.11498e-05
5.34016e-05
6.9919e-05
6.99203e-05
6.99017e-05
6.99014e-05
7.11764e-05
7.11496e-05
6.05375e-05
6.47048e-05
4.63357e-05
5.11807e-05
6.47371e-05
4.64177e-05
6.0487e-05
6.8522e-05
7.33623e-05
7.33897e-05
6.8492e-05
6.05359e-05
4.63361e-05
6.46997e-05
5.11808e-05
4.64181e-05
6.47318e-05
6.04855e-05
6.85272e-05
7.34253e-05
7.33984e-05
6.85556e-05
6.05455e-05
5.1243e-05
6.47741e-05
4.65744e-05
6.47433e-05
4.64956e-05
6.05935e-05
6.85255e-05
7.34204e-05
7.33935e-05
6.85539e-05
6.05439e-05
5.12424e-05
4.65747e-05
6.47685e-05
4.64959e-05
6.4738e-05
6.05919e-05
6.85222e-05
7.33667e-05
7.33923e-05
6.84929e-05
6.05383e-05
4.63383e-05
6.47003e-05
5.11828e-05
4.64202e-05
6.47324e-05
6.04879e-05
6.85233e-05
7.33641e-05
7.33897e-05
6.84934e-05
6.05465e-05
5.12447e-05
6.47725e-05
4.65759e-05
6.47421e-05
4.64968e-05
6.05942e-05
6.85263e-05
7.34237e-05
7.33972e-05
6.85541e-05
6.05464e-05
5.12457e-05
4.65767e-05
6.47694e-05
4.64983e-05
6.47389e-05
6.05943e-05
6.85269e-05
7.34208e-05
7.33952e-05
6.85553e-05
6.9873e-05
6.98702e-05
5.33556e-05
6.98923e-05
6.98895e-05
7.11197e-05
7.11466e-05
7.11766e-05
7.11499e-05
5.34013e-05
6.99205e-05
6.99173e-05
6.99018e-05
6.98991e-05
7.11751e-05
7.11485e-05
6.05349e-05
4.63386e-05
6.47035e-05
5.11821e-05
4.64207e-05
6.47352e-05
6.04885e-05
6.85214e-05
7.3367e-05
7.33925e-05
6.84941e-05
6.85183e-05
7.33659e-05
7.33915e-05
6.84909e-05
6.05492e-05
5.12469e-05
4.6579e-05
6.47717e-05
4.65004e-05
6.47417e-05
6.05931e-05
6.05472e-05
5.12427e-05
4.65774e-05
6.47721e-05
4.64986e-05
6.4742e-05
6.05911e-05
6.85276e-05
7.34236e-05
7.3398e-05
6.85534e-05
6.85244e-05
7.34223e-05
7.33965e-05
6.85503e-05
7.11206e-05
7.11475e-05
7.11234e-05
7.11503e-05
5.34017e-05
6.99147e-05
6.99242e-05
6.98967e-05
6.99054e-05
7.1176e-05
7.11494e-05
7.11789e-05
7.11522e-05
7.11771e-05
7.11799e-05
6.99293e-05
6.99365e-05
7.34258e-05
6.85616e-05
6.47799e-05
4.66516e-05
6.06069e-05
6.47759e-05
4.66488e-05
6.06051e-05
6.99297e-05
6.99294e-05
7.11781e-05
6.47798e-05
4.6649e-05
6.06012e-05
7.3424e-05
6.85573e-05
4.66492e-05
6.47745e-05
6.05995e-05
6.85848e-05
7.34273e-05
6.85581e-05
6.06477e-05
4.66517e-05
6.47754e-05
5.14247e-05
6.0602e-05
4.67266e-05
6.48049e-05
6.85861e-05
7.34246e-05
6.85587e-05
7.34516e-05
6.99296e-05
6.99272e-05
7.11769e-05
6.06444e-05
4.66521e-05
6.47788e-05
5.14262e-05
6.06027e-05
4.67276e-05
6.48076e-05
6.85839e-05
7.34274e-05
6.85592e-05
6.85809e-05
7.34275e-05
6.85561e-05
7.34522e-05
7.11779e-05
7.12044e-05
7.11807e-05
7.12072e-05
7.18012e-05
7.15786e-05
7.15551e-05
6.85147e-05
7.15687e-05
7.15456e-05
7.1811e-05
7.16372e-05
7.33775e-05
7.97239e-05
7.97326e-05
7.16224e-05
7.16364e-05
7.9746e-05
7.33832e-05
7.97375e-05
7.16511e-05
7.17959e-05
6.85084e-05
7.1553e-05
7.15301e-05
7.15629e-05
7.15398e-05
7.17861e-05
7.11337e-05
7.11354e-05
7.17984e-05
7.15535e-05
7.15794e-05
6.85108e-05
7.15407e-05
7.15666e-05
7.18125e-05
7.1637e-05
7.33792e-05
7.97202e-05
7.97291e-05
7.16222e-05
7.16362e-05
7.97424e-05
7.33829e-05
7.97338e-05
7.1651e-05
7.17975e-05
6.85071e-05
7.15251e-05
7.15507e-05
7.15382e-05
7.15638e-05
7.17833e-05
7.11337e-05
7.11356e-05
9.49282e-05
7.34597e-05
7.34532e-05
7.34459e-05
7.34393e-05
9.49304e-05
7.4079e-05
6.51273e-05
6.98724e-05
7.31972e-05
6.51418e-05
7.32071e-05
7.40743e-05
7.41275e-05
6.51358e-05
6.98813e-05
7.32057e-05
6.51508e-05
7.32187e-05
7.41227e-05
7.40918e-05
7.32222e-05
6.98821e-05
6.51654e-05
6.51513e-05
7.32124e-05
7.40964e-05
7.41403e-05
7.32334e-05
6.9891e-05
6.51743e-05
6.51599e-05
7.32208e-05
7.4145e-05
9.49154e-05
7.34326e-05
7.3426e-05
7.34465e-05
7.34399e-05
9.49134e-05
7.16926e-05
7.9777e-05
7.34391e-05
7.1678e-05
7.97851e-05
7.18565e-05
6.85732e-05
7.16149e-05
7.15897e-05
7.18453e-05
7.16246e-05
7.15985e-05
7.11909e-05
7.16925e-05
7.9773e-05
7.34402e-05
7.16779e-05
7.97813e-05
7.18575e-05
6.85713e-05
7.15844e-05
7.16126e-05
7.18433e-05
7.15967e-05
7.16254e-05
7.11909e-05
9.49857e-05
7.35121e-05
7.35055e-05
7.34984e-05
7.34918e-05
9.49877e-05
7.41464e-05
6.52197e-05
7.32573e-05
6.99285e-05
7.41424e-05
6.52334e-05
7.32667e-05
7.41949e-05
6.52283e-05
7.3267e-05
6.99375e-05
7.41909e-05
6.52422e-05
7.32765e-05
9.49736e-05
7.34853e-05
7.34788e-05
9.49718e-05
7.34991e-05
7.34925e-05
7.41586e-05
7.32813e-05
6.99382e-05
6.52548e-05
6.52416e-05
7.3272e-05
7.41625e-05
7.4207e-05
7.32912e-05
6.99473e-05
6.52637e-05
6.52502e-05
7.32818e-05
7.42111e-05
7.11323e-05
7.11342e-05
7.11351e-05
7.1137e-05
9.49316e-05
7.34594e-05
7.34527e-05
7.34455e-05
7.34388e-05
9.49332e-05
7.40803e-05
6.51303e-05
6.98763e-05
7.31985e-05
7.32082e-05
6.51434e-05
7.40763e-05
7.41273e-05
6.51365e-05
6.98842e-05
7.32078e-05
7.32175e-05
6.51511e-05
7.41228e-05
7.40938e-05
7.32232e-05
6.98869e-05
6.51669e-05
7.32137e-05
7.40977e-05
6.51543e-05
7.41404e-05
7.32327e-05
6.98947e-05
6.51746e-05
7.3223e-05
7.41447e-05
6.51606e-05
9.49183e-05
7.34323e-05
7.34256e-05
7.34462e-05
7.34395e-05
9.49168e-05
7.11628e-05
7.11609e-05
7.11656e-05
7.11638e-05
9.49479e-05
7.34587e-05
7.3452e-05
9.49462e-05
7.34725e-05
7.34659e-05
7.41275e-05
6.52128e-05
6.99154e-05
7.3253e-05
7.32435e-05
6.52005e-05
7.41312e-05
7.41742e-05
6.52205e-05
6.99228e-05
7.32637e-05
7.32507e-05
6.52066e-05
7.41784e-05
7.41146e-05
7.32286e-05
6.51778e-05
6.99051e-05
7.41109e-05
7.32381e-05
6.51903e-05
7.41617e-05
7.32365e-05
6.51839e-05
6.99134e-05
7.41576e-05
7.32484e-05
6.5198e-05
9.49606e-05
7.34856e-05
7.3479e-05
7.34718e-05
7.34651e-05
9.49624e-05
7.17977e-05
7.15782e-05
7.15496e-05
6.8513e-05
7.15682e-05
7.154e-05
7.18121e-05
7.16365e-05
7.33751e-05
7.97052e-05
7.97139e-05
7.16218e-05
7.16358e-05
7.97272e-05
7.33786e-05
7.97189e-05
7.16505e-05
7.17968e-05
6.85066e-05
7.15525e-05
7.15244e-05
7.15625e-05
7.15342e-05
7.17828e-05
7.18259e-05
7.15843e-05
7.15608e-05
6.85416e-05
7.18163e-05
7.1594e-05
7.15699e-05
7.16642e-05
7.34141e-05
7.97721e-05
7.16788e-05
7.97641e-05
7.1665e-05
7.97509e-05
7.34084e-05
7.16503e-05
7.97592e-05
7.18311e-05
6.85478e-05
7.16092e-05
7.15843e-05
7.18408e-05
7.15997e-05
7.15755e-05
7.18261e-05
7.15838e-05
7.15552e-05
6.85399e-05
7.18127e-05
7.15936e-05
7.15645e-05
7.16636e-05
7.34106e-05
7.97534e-05
7.97454e-05
7.16782e-05
7.16644e-05
7.97322e-05
7.34053e-05
7.16497e-05
7.97405e-05
7.18295e-05
6.85461e-05
7.16088e-05
7.15789e-05
7.15993e-05
7.157e-05
7.18404e-05
9.49296e-05
7.34536e-05
7.34597e-05
7.34396e-05
7.34457e-05
9.49326e-05
7.41278e-05
6.51339e-05
6.98761e-05
7.32063e-05
7.3216e-05
6.51477e-05
7.4122e-05
7.40811e-05
6.51298e-05
6.98774e-05
7.31975e-05
6.5144e-05
7.32105e-05
7.40754e-05
7.41395e-05
7.32311e-05
6.98872e-05
6.51711e-05
7.32215e-05
6.5158e-05
7.41452e-05
7.40928e-05
7.32256e-05
6.9887e-05
6.51676e-05
6.51538e-05
7.32126e-05
7.40986e-05
9.49178e-05
7.34264e-05
7.34324e-05
7.34404e-05
7.34465e-05
9.49148e-05
7.11334e-05
7.11353e-05
7.11641e-05
7.11624e-05
9.49472e-05
7.34528e-05
7.34589e-05
9.49443e-05
7.34668e-05
7.34728e-05
7.41735e-05
6.5217e-05
6.99158e-05
7.32608e-05
6.52041e-05
7.32514e-05
7.41779e-05
7.41267e-05
6.52134e-05
6.99156e-05
7.32553e-05
7.32426e-05
6.51998e-05
7.4132e-05
7.41619e-05
7.32364e-05
6.51814e-05
6.9905e-05
6.51944e-05
7.41567e-05
7.3246e-05
7.41154e-05
7.32276e-05
6.5177e-05
6.99064e-05
7.41101e-05
7.32406e-05
6.51908e-05
9.49588e-05
7.34799e-05
7.3486e-05
7.34659e-05
7.3472e-05
9.49615e-05
7.11639e-05
7.11621e-05
7.17965e-05
7.15788e-05
7.15477e-05
6.85091e-05
7.15659e-05
7.1535e-05
7.18107e-05
7.16345e-05
7.33742e-05
7.97004e-05
7.97091e-05
7.16198e-05
7.16338e-05
7.97225e-05
7.33779e-05
7.97138e-05
7.16485e-05
7.17956e-05
6.85053e-05
7.15501e-05
7.15195e-05
7.15632e-05
7.15325e-05
7.17815e-05
7.18276e-05
7.15556e-05
7.1582e-05
6.854e-05
7.18134e-05
7.15682e-05
7.15948e-05
7.16641e-05
7.34138e-05
7.97685e-05
7.16787e-05
7.97602e-05
7.16649e-05
7.97471e-05
7.34102e-05
7.16502e-05
7.97556e-05
7.18282e-05
6.85434e-05
7.15824e-05
7.161e-05
7.18427e-05
7.15703e-05
7.15974e-05
7.18257e-05
7.15814e-05
7.15499e-05
6.85382e-05
7.18116e-05
7.15942e-05
7.15624e-05
7.16616e-05
7.34089e-05
7.97486e-05
7.97403e-05
7.16763e-05
7.16624e-05
7.97272e-05
7.34051e-05
7.16477e-05
7.97357e-05
7.18265e-05
6.85416e-05
7.16095e-05
7.15768e-05
7.15968e-05
7.15646e-05
7.18408e-05
7.1799e-05
7.15483e-05
7.15777e-05
6.85099e-05
7.1537e-05
7.15678e-05
7.1809e-05
7.16358e-05
7.33767e-05
7.97175e-05
7.97209e-05
7.16205e-05
7.16345e-05
7.97343e-05
7.33824e-05
7.9731e-05
7.16498e-05
7.17939e-05
6.85056e-05
7.15214e-05
7.15521e-05
7.15332e-05
7.15621e-05
7.17839e-05
7.17996e-05
7.15794e-05
7.15494e-05
6.85105e-05
7.15666e-05
7.15368e-05
7.18094e-05
7.16358e-05
7.33741e-05
7.97008e-05
7.97097e-05
7.1621e-05
7.1635e-05
7.9723e-05
7.33798e-05
7.97144e-05
7.16498e-05
7.17943e-05
6.85067e-05
7.15508e-05
7.15212e-05
7.15639e-05
7.15342e-05
7.17844e-05
7.18239e-05
7.1552e-05
7.15834e-05
6.85385e-05
7.18141e-05
7.15631e-05
7.15931e-05
7.16624e-05
7.34118e-05
7.97605e-05
7.97573e-05
7.16776e-05
7.16637e-05
7.97443e-05
7.3408e-05
7.16485e-05
7.97475e-05
7.18289e-05
6.85424e-05
7.15774e-05
7.16085e-05
7.15666e-05
7.15987e-05
7.18388e-05
7.18244e-05
7.1582e-05
7.15517e-05
6.85396e-05
7.18146e-05
7.15948e-05
7.15642e-05
7.16628e-05
7.34099e-05
7.97491e-05
7.97407e-05
7.16775e-05
7.16637e-05
7.97277e-05
7.34052e-05
7.1649e-05
7.97361e-05
7.18295e-05
6.8543e-05
7.16101e-05
7.15785e-05
7.15974e-05
7.15663e-05
7.18393e-05
9.49252e-05
7.34519e-05
7.3458e-05
7.34381e-05
7.34441e-05
9.49271e-05
7.41256e-05
6.51323e-05
6.98779e-05
7.32049e-05
7.3215e-05
6.51475e-05
7.41213e-05
7.40777e-05
6.51279e-05
6.98751e-05
7.31954e-05
6.51424e-05
7.32085e-05
7.40732e-05
7.41388e-05
7.32298e-05
6.98875e-05
6.51709e-05
7.32201e-05
6.51559e-05
7.4143e-05
7.40906e-05
7.32229e-05
6.98847e-05
6.51658e-05
6.51518e-05
7.32105e-05
7.4095e-05
9.49123e-05
7.34248e-05
7.34309e-05
7.34387e-05
7.34448e-05
9.49104e-05
7.11322e-05
7.11341e-05
7.11642e-05
7.11624e-05
9.49417e-05
7.34512e-05
7.34573e-05
9.49398e-05
7.34651e-05
7.34712e-05
7.41724e-05
6.52163e-05
6.99158e-05
7.32595e-05
6.52021e-05
7.325e-05
7.41764e-05
7.41242e-05
6.52112e-05
6.99132e-05
7.32514e-05
7.32418e-05
6.51975e-05
7.41284e-05
7.41599e-05
7.32351e-05
6.51793e-05
6.99066e-05
6.5194e-05
7.41558e-05
7.32446e-05
7.41119e-05
7.32266e-05
6.5175e-05
6.99038e-05
7.41077e-05
7.32372e-05
6.51889e-05
9.49542e-05
7.34782e-05
7.34843e-05
7.34644e-05
7.34705e-05
9.4956e-05
7.11627e-05
7.11609e-05
7.17979e-05
7.15522e-05
7.15788e-05
6.8511e-05
7.15427e-05
7.15658e-05
7.18113e-05
7.16362e-05
7.3377e-05
7.97183e-05
7.97269e-05
7.16215e-05
7.16355e-05
7.97402e-05
7.33827e-05
7.97318e-05
7.16501e-05
7.17955e-05
6.85047e-05
7.15272e-05
7.155e-05
7.15369e-05
7.15633e-05
7.1784e-05
7.17988e-05
7.15454e-05
7.15781e-05
6.85078e-05
7.1536e-05
7.1565e-05
7.18087e-05
7.16367e-05
7.33759e-05
7.9703e-05
7.97116e-05
7.16219e-05
7.16359e-05
7.9725e-05
7.33816e-05
7.97167e-05
7.16507e-05
7.17936e-05
6.85016e-05
7.15205e-05
7.15491e-05
7.15301e-05
7.15625e-05
7.17836e-05
7.18268e-05
7.15577e-05
7.15812e-05
6.85377e-05
7.18125e-05
7.15668e-05
7.15942e-05
7.16632e-05
7.34124e-05
7.97662e-05
7.97581e-05
7.16778e-05
7.1664e-05
7.97451e-05
7.3408e-05
7.16494e-05
7.97534e-05
7.18275e-05
6.85436e-05
7.15812e-05
7.16095e-05
7.15722e-05
7.15966e-05
7.18419e-05
7.18234e-05
7.15511e-05
7.15804e-05
6.85346e-05
7.18139e-05
7.15602e-05
7.15935e-05
7.16637e-05
7.34115e-05
7.97512e-05
7.97431e-05
7.16785e-05
7.16646e-05
7.97299e-05
7.34071e-05
7.16499e-05
7.97383e-05
7.18277e-05
6.85405e-05
7.15747e-05
7.16088e-05
7.15658e-05
7.15958e-05
7.18396e-05
7.11331e-05
7.1135e-05
7.11359e-05
7.11379e-05
9.4945e-05
7.34591e-05
7.34525e-05
9.4943e-05
7.34729e-05
7.34663e-05
7.41257e-05
6.52113e-05
6.99109e-05
7.3252e-05
7.41301e-05
6.51975e-05
7.32425e-05
7.41742e-05
6.522e-05
6.99196e-05
7.32619e-05
7.41786e-05
6.52061e-05
7.32522e-05
7.41134e-05
7.32275e-05
6.51747e-05
6.99007e-05
7.4109e-05
6.51888e-05
7.32371e-05
7.41619e-05
7.32367e-05
6.51833e-05
6.99104e-05
7.41575e-05
6.51975e-05
7.32478e-05
9.49574e-05
7.3486e-05
7.34794e-05
9.49595e-05
7.34722e-05
7.34656e-05
7.11637e-05
7.11618e-05
7.11665e-05
7.11646e-05
7.11894e-05
7.11923e-05
7.41474e-05
6.52228e-05
7.32582e-05
6.99331e-05
7.41439e-05
7.32679e-05
6.5235e-05
7.41946e-05
6.52288e-05
7.32657e-05
6.99412e-05
7.41906e-05
7.32787e-05
6.52427e-05
9.49766e-05
7.34848e-05
7.34782e-05
9.49747e-05
7.34987e-05
7.3492e-05
7.1692e-05
7.97583e-05
7.34357e-05
7.16774e-05
7.97666e-05
7.18544e-05
6.85717e-05
7.16143e-05
7.15841e-05
7.16243e-05
7.18448e-05
7.15933e-05
7.41942e-05
6.52263e-05
7.32662e-05
6.9933e-05
7.32757e-05
7.41902e-05
6.52393e-05
7.41484e-05
6.5222e-05
7.32573e-05
6.99341e-05
6.52356e-05
7.41432e-05
7.32702e-05
9.49756e-05
7.3479e-05
7.34851e-05
7.34929e-05
9.49731e-05
7.3499e-05
7.16901e-05
7.97532e-05
7.34358e-05
7.16755e-05
7.97615e-05
7.18554e-05
6.85695e-05
7.16121e-05
7.15789e-05
7.16249e-05
7.18413e-05
7.1591e-05
7.18585e-05
6.85734e-05
7.16398e-05
7.15949e-05
7.16284e-05
7.16914e-05
7.97701e-05
7.34391e-05
7.97734e-05
7.16762e-05
7.18536e-05
6.85697e-05
7.1581e-05
7.1614e-05
7.15915e-05
7.18439e-05
7.16238e-05
7.16899e-05
7.18592e-05
6.85741e-05
7.16408e-05
7.16065e-05
7.1628e-05
7.15946e-05
7.18687e-05
7.16913e-05
7.97535e-05
7.34365e-05
7.16767e-05
7.97619e-05
7.1854e-05
6.85709e-05
7.16127e-05
7.15806e-05
7.18445e-05
7.16255e-05
7.15927e-05
7.16904e-05
7.97744e-05
7.34399e-05
7.97662e-05
7.1705e-05
7.41925e-05
6.52242e-05
7.32648e-05
6.99343e-05
7.32742e-05
7.41887e-05
6.52381e-05
7.41445e-05
6.52197e-05
7.32566e-05
6.99309e-05
6.52334e-05
7.41405e-05
7.3266e-05
9.49702e-05
7.34775e-05
7.34836e-05
7.34913e-05
9.49683e-05
7.34973e-05
7.11892e-05
7.18572e-05
6.85745e-05
7.1609e-05
7.16401e-05
7.16003e-05
7.16272e-05
7.18713e-05
7.16916e-05
7.97711e-05
7.34391e-05
7.9779e-05
7.1677e-05
7.18565e-05
6.85688e-05
7.15864e-05
7.16119e-05
7.15952e-05
7.18424e-05
7.16248e-05
7.16907e-05
7.97915e-05
7.97837e-05
7.17053e-05
7.18556e-05
6.85715e-05
7.16026e-05
7.16381e-05
7.15941e-05
7.16273e-05
7.187e-05
7.16923e-05
7.9756e-05
7.34372e-05
7.16776e-05
7.9764e-05
7.18549e-05
6.85658e-05
7.158e-05
7.16111e-05
7.18415e-05
7.15888e-05
7.16238e-05
7.16913e-05
7.97765e-05
7.34427e-05
7.97688e-05
7.1706e-05
7.11902e-05
7.1192e-05
7.1193e-05
7.11949e-05
3.12757e-05
3.12729e-05
3.8502e-05
3.14082e-05
3.14055e-05
2.22675e-05
2.21148e-05
6.58221e-05
5.93119e-05
5.93122e-05
5.33049e-05
5.93168e-05
5.93196e-05
6.58147e-05
3.17908e-05
3.17876e-05
2.2867e-05
2.27176e-05
6.59206e-05
5.94534e-05
5.94542e-05
5.35023e-05
6.5914e-05
5.94573e-05
5.94592e-05
6.58234e-05
5.93147e-05
5.93135e-05
5.33061e-05
5.93201e-05
5.93204e-05
6.58158e-05
6.58913e-05
5.34516e-05
5.94262e-05
5.94259e-05
5.94216e-05
5.94212e-05
6.58981e-05
6.58231e-05
5.93098e-05
5.93135e-05
5.33028e-05
5.9319e-05
5.93174e-05
6.58156e-05
6.58914e-05
5.34584e-05
5.94205e-05
5.94245e-05
5.94205e-05
5.94227e-05
6.58966e-05
6.58197e-05
5.93109e-05
5.93155e-05
5.33048e-05
5.93153e-05
5.93158e-05
6.58139e-05
6.58887e-05
5.34485e-05
5.94218e-05
5.94209e-05
5.94164e-05
5.94218e-05
6.5894e-05
6.58898e-05
5.34503e-05
5.94235e-05
5.94246e-05
6.58969e-05
5.9419e-05
5.94197e-05
6.5922e-05
5.94556e-05
5.94555e-05
5.35032e-05
6.59153e-05
5.946e-05
5.94597e-05
6.59204e-05
5.94554e-05
5.94574e-05
5.34928e-05
5.94584e-05
6.59155e-05
5.94551e-05
6.59178e-05
5.94519e-05
5.94582e-05
5.34926e-05
5.94578e-05
6.59127e-05
5.94534e-05
3.12749e-05
3.1274e-05
3.85014e-05
3.14078e-05
3.14066e-05
2.22682e-05
2.2115e-05
3.12784e-05
3.12783e-05
3.85061e-05
3.14111e-05
3.14116e-05
2.22719e-05
2.21186e-05
3.128e-05
3.12773e-05
3.8506e-05
3.1412e-05
3.14119e-05
2.22727e-05
2.21189e-05
3.86069e-05
3.16658e-05
3.16629e-05
3.15366e-05
3.15337e-05
2.24178e-05
2.25689e-05
3.86058e-05
3.16654e-05
3.1664e-05
3.15358e-05
3.15349e-05
2.2418e-05
2.25697e-05
3.86103e-05
3.16683e-05
3.1669e-05
3.15391e-05
3.15391e-05
2.24216e-05
2.25733e-05
3.86103e-05
3.16693e-05
3.16696e-05
3.15411e-05
3.15379e-05
2.24219e-05
2.25742e-05
5.61483e-05
6.22392e-05
5.48654e-05
6.05178e-05
6.22197e-05
5.48606e-05
5.6146e-05
5.72267e-05
6.02364e-05
6.47166e-05
6.40948e-05
6.02453e-05
6.41095e-05
5.72228e-05
5.72608e-05
6.41325e-05
6.47231e-05
6.02763e-05
6.02676e-05
6.41184e-05
5.72645e-05
5.61072e-05
6.05092e-05
6.21925e-05
5.48149e-05
6.22127e-05
5.48201e-05
5.6107e-05
5.61571e-05
5.48573e-05
6.22393e-05
6.05201e-05
5.48702e-05
6.22242e-05
5.61465e-05
5.72207e-05
6.02399e-05
6.47159e-05
6.40974e-05
6.02415e-05
6.41105e-05
5.72313e-05
5.72696e-05
6.41334e-05
6.47228e-05
6.02721e-05
6.0271e-05
6.41208e-05
5.72589e-05
5.6103e-05
6.05077e-05
5.48248e-05
6.21972e-05
5.48116e-05
6.22126e-05
5.61145e-05
6.58404e-05
5.33514e-05
5.93532e-05
5.93548e-05
5.93478e-05
5.93503e-05
6.58475e-05
3.179e-05
3.17892e-05
3.19147e-05
2.28678e-05
2.27179e-05
3.17931e-05
3.17931e-05
3.19199e-05
2.28713e-05
2.27214e-05
3.17954e-05
3.17917e-05
3.89204e-05
3.19196e-05
3.19215e-05
2.28723e-05
2.27216e-05
5.63127e-05
6.06287e-05
6.23386e-05
5.50383e-05
6.23204e-05
5.50346e-05
5.6307e-05
5.73723e-05
6.03567e-05
6.41849e-05
6.47907e-05
5.73694e-05
6.03643e-05
6.41985e-05
5.62685e-05
6.06213e-05
6.2296e-05
5.4993e-05
5.62738e-05
6.23145e-05
5.4997e-05
5.63172e-05
6.06314e-05
5.50307e-05
6.23386e-05
5.50448e-05
6.23252e-05
5.63073e-05
5.73675e-05
6.03596e-05
6.41874e-05
6.47896e-05
5.73773e-05
6.03614e-05
6.41991e-05
5.62685e-05
6.062e-05
5.50034e-05
6.23008e-05
5.62787e-05
5.49894e-05
6.23147e-05
5.74092e-05
6.42201e-05
6.42086e-05
5.74043e-05
6.59376e-05
5.35453e-05
5.94905e-05
5.94922e-05
5.94869e-05
5.94879e-05
6.5944e-05
6.58417e-05
5.33528e-05
5.93561e-05
5.9356e-05
6.58491e-05
5.93507e-05
5.93514e-05
6.58741e-05
5.34074e-05
5.93869e-05
5.93867e-05
6.58669e-05
5.93919e-05
5.93917e-05
5.61586e-05
6.22415e-05
5.48578e-05
6.05221e-05
6.22265e-05
5.48708e-05
5.6148e-05
5.7222e-05
6.02408e-05
6.47172e-05
6.40998e-05
6.41129e-05
6.02424e-05
5.72327e-05
5.72713e-05
6.4136e-05
6.4724e-05
6.02732e-05
6.41233e-05
6.02721e-05
5.72603e-05
5.61045e-05
6.05096e-05
6.21994e-05
5.48253e-05
6.22148e-05
5.48121e-05
5.6116e-05
5.61544e-05
6.22363e-05
5.48559e-05
6.05202e-05
6.22212e-05
5.48688e-05
5.61417e-05
5.72149e-05
6.02368e-05
6.47131e-05
6.40911e-05
6.41043e-05
6.02382e-05
5.72257e-05
5.72643e-05
6.41274e-05
6.472e-05
6.02689e-05
6.41148e-05
5.72533e-05
6.02681e-05
5.60954e-05
6.05077e-05
6.2194e-05
5.48232e-05
6.22095e-05
5.481e-05
5.6116e-05
5.61898e-05
6.22529e-05
5.49168e-05
6.05676e-05
5.62002e-05
6.22674e-05
5.49033e-05
5.73447e-05
6.03331e-05
6.47616e-05
6.41804e-05
6.03325e-05
6.41686e-05
5.73335e-05
5.72975e-05
6.41464e-05
6.03029e-05
6.47551e-05
6.03035e-05
5.73084e-05
6.41585e-05
5.62408e-05
6.05797e-05
6.22925e-05
5.4948e-05
6.22786e-05
5.49612e-05
5.62306e-05
5.61836e-05
6.22478e-05
5.49148e-05
6.05657e-05
5.61972e-05
6.22622e-05
5.49013e-05
5.73377e-05
6.0329e-05
6.47577e-05
6.41719e-05
6.416e-05
6.03286e-05
5.73264e-05
5.72905e-05
6.41378e-05
6.0299e-05
6.4751e-05
5.73016e-05
6.415e-05
6.02994e-05
5.62365e-05
6.05779e-05
6.22873e-05
5.49458e-05
6.22733e-05
5.49591e-05
5.62245e-05
6.58412e-05
5.3349e-05
5.93525e-05
5.93547e-05
5.93496e-05
5.93464e-05
6.58485e-05
6.5872e-05
5.33969e-05
5.93837e-05
5.93849e-05
5.93863e-05
6.58664e-05
5.93891e-05
5.61509e-05
6.224e-05
5.48633e-05
6.05168e-05
6.22199e-05
5.48585e-05
5.61461e-05
5.72253e-05
6.0237e-05
6.47181e-05
6.40956e-05
6.41108e-05
6.0246e-05
5.72216e-05
5.72597e-05
6.41338e-05
6.47243e-05
6.0277e-05
6.41192e-05
6.02682e-05
5.72634e-05
5.61036e-05
6.05084e-05
6.21927e-05
5.48127e-05
6.22134e-05
5.48178e-05
5.61075e-05
5.61479e-05
5.4862e-05
6.22358e-05
6.05152e-05
5.48572e-05
6.22155e-05
5.61433e-05
5.72209e-05
6.02322e-05
6.47128e-05
6.40877e-05
6.41031e-05
6.02412e-05
5.72171e-05
5.72551e-05
6.4126e-05
6.47191e-05
6.02722e-05
6.41111e-05
5.72589e-05
6.02633e-05
5.61008e-05
6.05068e-05
5.48114e-05
6.21884e-05
5.48166e-05
6.22093e-05
5.61045e-05
5.61878e-05
6.22461e-05
5.49038e-05
6.0566e-05
5.61931e-05
6.22658e-05
5.49084e-05
5.73333e-05
6.03367e-05
6.47618e-05
6.4178e-05
6.03286e-05
6.41642e-05
5.73365e-05
5.73003e-05
6.4142e-05
6.02989e-05
6.47559e-05
6.03075e-05
5.72969e-05
6.41563e-05
5.62341e-05
6.05737e-05
6.22909e-05
5.49522e-05
6.22717e-05
5.4948e-05
5.62284e-05
5.61849e-05
5.49026e-05
6.22416e-05
6.05644e-05
5.619e-05
5.49072e-05
6.22616e-05
5.73286e-05
6.03316e-05
6.47565e-05
6.41701e-05
6.4156e-05
6.03234e-05
5.73318e-05
5.72957e-05
6.41338e-05
6.02938e-05
6.47505e-05
5.72922e-05
6.41484e-05
6.03025e-05
5.6231e-05
6.05721e-05
5.49509e-05
6.22866e-05
5.49467e-05
6.22672e-05
5.62254e-05
5.61477e-05
5.48652e-05
6.22386e-05
6.05176e-05
5.48603e-05
6.22187e-05
5.61454e-05
5.72245e-05
6.02339e-05
6.47134e-05
6.409e-05
6.02428e-05
6.4105e-05
5.72206e-05
5.72587e-05
6.4128e-05
6.47199e-05
6.02739e-05
6.0265e-05
6.41136e-05
5.72625e-05
5.61066e-05
6.05093e-05
5.48146e-05
6.21914e-05
5.48199e-05
6.22121e-05
5.61064e-05
5.61883e-05
6.22458e-05
5.49058e-05
6.05667e-05
5.6192e-05
6.22649e-05
5.49104e-05
5.73343e-05
6.03361e-05
6.47607e-05
6.41767e-05
5.73374e-05
6.03279e-05
6.41635e-05
5.73014e-05
6.41412e-05
6.02982e-05
6.47544e-05
5.7298e-05
6.03069e-05
6.4155e-05
5.62337e-05
6.05747e-05
6.22898e-05
5.49541e-05
5.6229e-05
6.22713e-05
5.49498e-05
5.61877e-05
5.49055e-05
6.22447e-05
6.05668e-05
5.61913e-05
5.49102e-05
6.22642e-05
5.73322e-05
6.03335e-05
6.47573e-05
6.41723e-05
6.41587e-05
6.03254e-05
5.73354e-05
5.72993e-05
6.41364e-05
6.02957e-05
6.47512e-05
5.72959e-05
6.41505e-05
6.03044e-05
5.62331e-05
6.05745e-05
5.49538e-05
6.22893e-05
5.49495e-05
6.22703e-05
5.62283e-05
6.58394e-05
5.33514e-05
5.9353e-05
5.93534e-05
5.93522e-05
5.93452e-05
6.58453e-05
6.58701e-05
5.34053e-05
5.93839e-05
5.9387e-05
5.93881e-05
6.58645e-05
5.93875e-05
5.61542e-05
5.48559e-05
6.22347e-05
6.05181e-05
5.48688e-05
6.22198e-05
5.61417e-05
5.72166e-05
6.02396e-05
6.47162e-05
6.40914e-05
6.02412e-05
6.41046e-05
5.72274e-05
5.72659e-05
6.41276e-05
6.4723e-05
6.02721e-05
6.02709e-05
6.4115e-05
5.7255e-05
5.60959e-05
6.05057e-05
5.48234e-05
6.21927e-05
5.48101e-05
6.2208e-05
5.61166e-05
5.61883e-05
5.49161e-05
6.22506e-05
6.05654e-05
5.61986e-05
5.49027e-05
6.2265e-05
5.7343e-05
6.03316e-05
6.47601e-05
6.41776e-05
5.73318e-05
6.0331e-05
6.41657e-05
5.7296e-05
6.41437e-05
6.03017e-05
6.47536e-05
5.73066e-05
6.03023e-05
6.41559e-05
5.62391e-05
6.05774e-05
5.49469e-05
6.22901e-05
5.62289e-05
5.496e-05
6.22761e-05
5.61842e-05
5.49144e-05
6.2246e-05
6.05635e-05
5.61957e-05
5.49012e-05
6.22604e-05
5.73392e-05
6.03318e-05
6.47605e-05
6.41719e-05
6.416e-05
6.03311e-05
5.73279e-05
5.72921e-05
6.41379e-05
6.03017e-05
6.4754e-05
5.73029e-05
6.41501e-05
6.03024e-05
5.6236e-05
6.05753e-05
5.49448e-05
6.22856e-05
5.49582e-05
6.22715e-05
5.62252e-05
6.58725e-05
5.34062e-05
5.93842e-05
5.93854e-05
6.58656e-05
5.93892e-05
5.93902e-05
5.73685e-05
6.03617e-05
6.41905e-05
6.47917e-05
6.42024e-05
5.73801e-05
6.03624e-05
5.62703e-05
6.0623e-05
6.23034e-05
5.50035e-05
6.23175e-05
5.62805e-05
5.49909e-05
5.73615e-05
6.03576e-05
6.41819e-05
6.47877e-05
5.7373e-05
6.41939e-05
6.03584e-05
5.62646e-05
6.06212e-05
6.22981e-05
5.50014e-05
5.62759e-05
6.23123e-05
5.49887e-05
5.73716e-05
6.03576e-05
6.41858e-05
6.47924e-05
6.41995e-05
5.73686e-05
6.03653e-05
5.62679e-05
6.06206e-05
6.22966e-05
5.49911e-05
6.23155e-05
5.62739e-05
5.49952e-05
5.73665e-05
6.03523e-05
6.41776e-05
6.47865e-05
5.73636e-05
6.41916e-05
6.03605e-05
5.62649e-05
6.0619e-05
5.49897e-05
6.2292e-05
5.62708e-05
5.49938e-05
6.23112e-05
5.63121e-05
6.06286e-05
5.50379e-05
6.2338e-05
5.50342e-05
6.23193e-05
5.63062e-05
5.73706e-05
6.03559e-05
6.41803e-05
6.47875e-05
6.0361e-05
5.73675e-05
6.41939e-05
5.6268e-05
6.06213e-05
5.49925e-05
6.22951e-05
5.49966e-05
5.62733e-05
6.23139e-05
5.74018e-05
6.42148e-05
6.47931e-05
6.03898e-05
6.03822e-05
6.42015e-05
5.74043e-05
5.63142e-05
6.06294e-05
5.50289e-05
6.23341e-05
5.5043e-05
6.23208e-05
5.63038e-05
5.73637e-05
6.03606e-05
6.41819e-05
6.47902e-05
6.03607e-05
5.73748e-05
6.41934e-05
5.62649e-05
6.06181e-05
5.50016e-05
6.22964e-05
5.49876e-05
5.62756e-05
6.23101e-05
5.74084e-05
6.42143e-05
6.47966e-05
6.03904e-05
6.03892e-05
6.42031e-05
5.73979e-05
3.64646e-05
4.17837e-05
3.64633e-05
7.13549e-05
6.01879e-05
6.95328e-05
6.68967e-05
6.68933e-05
6.95305e-05
6.01879e-05
7.13558e-05
7.01878e-05
7.13418e-05
7.73913e-05
7.73729e-05
7.02017e-05
6.95203e-05
7.0086e-05
5.93324e-05
6.68822e-05
7.11458e-05
5.92822e-05
7.11278e-05
7.01086e-05
7.00355e-05
5.93246e-05
6.68789e-05
7.1137e-05
7.11187e-05
5.92765e-05
7.00566e-05
9.23405e-05
7.20309e-05
7.20364e-05
7.20169e-05
7.20224e-05
9.23525e-05
6.95179e-05
7.01849e-05
7.13427e-05
7.74002e-05
7.73815e-05
7.01996e-05
5.95195e-05
4.1755e-05
5.05115e-05
5.05114e-05
5.04669e-05
5.04671e-05
5.95529e-05
4.8064e-05
5.25205e-05
6.01439e-05
5.85167e-05
5.8459e-05
5.24873e-05
4.80775e-05
4.80628e-05
5.25199e-05
6.01455e-05
5.85183e-05
5.24874e-05
5.84623e-05
4.80762e-05
2.10417e-05
3.66937e-05
3.66981e-05
4.19643e-05
2.18001e-05
3.75996e-05
3.76037e-05
4.26777e-05
2.25768e-05
3.84792e-05
3.84831e-05
4.33734e-05
2.33679e-05
3.93318e-05
3.93356e-05
4.40546e-05
2.41695e-05
4.01565e-05
4.01604e-05
4.46834e-05
2.49779e-05
4.09526e-05
4.09567e-05
4.5311e-05
2.57891e-05
4.17204e-05
4.17244e-05
4.59072e-05
2.65997e-05
4.24592e-05
4.24632e-05
4.64887e-05
2.74064e-05
4.31691e-05
4.31733e-05
4.70442e-05
2.8206e-05
4.38504e-05
4.38546e-05
4.75855e-05
2.89955e-05
4.45032e-05
4.45072e-05
4.80955e-05
2.97726e-05
4.51277e-05
4.51317e-05
4.85848e-05
3.05346e-05
4.57243e-05
4.57283e-05
4.90536e-05
3.12795e-05
4.62935e-05
4.62972e-05
4.94938e-05
3.20053e-05
4.68353e-05
4.68391e-05
4.99195e-05
3.27106e-05
4.73505e-05
4.73542e-05
5.03191e-05
3.33937e-05
4.78393e-05
4.78428e-05
5.07041e-05
3.40533e-05
4.83019e-05
4.83053e-05
5.10722e-05
3.46884e-05
4.87389e-05
4.87423e-05
5.14155e-05
3.52982e-05
4.91506e-05
4.91539e-05
5.17392e-05
3.58817e-05
4.95376e-05
4.95409e-05
5.20448e-05
3.64386e-05
4.99003e-05
4.99034e-05
5.23384e-05
3.69684e-05
5.0239e-05
5.0242e-05
5.26101e-05
3.74708e-05
5.05544e-05
5.05573e-05