/*--------------------------------*- C++ -*----------------------------------*\
| =========                 |                                                 |
| \\      /  F ield         | OpenFOAM: The Open Source CFD Toolbox           |
|  \\    /   O peration     | Version:  2312                                  |
|   \\  /    A nd           | Website:  www.openfoam.com                      |
|    \\/     M anipulation  |                                                 |
\*---------------------------------------------------------------------------*/
FoamFile
{
    version     2.0;
    format      ascii;
    arch        "LSB;label=32;scalar=64";
    class       volScalarField;
    location    "400";
    object      p;
}
// * * * * * * * * * * * * * * * * * * * * * * * * * * * * * * * * * * * * * //

dimensions      [0 2 -2 0 0 0 0];

internalField   nonuniform List<scalar> 
43496
(
0.000736126
0.000736128
0.00073829
0.000736164
0.000736209
0.000738311
0.000736126
0.000736129
0.000736209
0.00073829
0.000738311
0.000736164
0.000736679
0.000736122
0.000736122
0.000736128
0.000736129
0.000740438
0.000740415
0.000736125
0.000736121
0.000740418
0.000740436
0.000736121
0.000740439
0.000736116
0.000740432
0.000736125
0.000740435
0.000740438
0.000740415
0.000736121
0.000736125
0.000740436
0.000740419
0.00073612
0.000740439
0.000736115
0.000740427
0.000740432
0.000736125
0.000740441
0.000736123
0.000736123
0.000740445
0.000740445
0.000736114
0.000740404
0.00073613
0.000740427
0.000736175
0.00074043
0.00074037
0.000736145
0.000740404
0.00073613
0.000740427
0.000736175
0.000740371
0.00074043
0.000736145
0.000740435
0.000740428
0.000738378
0.000738344
0.000738378
0.00074038
0.000736325
0.000740232
0.000740101
0.000740332
0.000736206
0.000736446
0.000740336
0.000740103
0.000736451
0.000740129
0.000736191
0.00074035
0.000736412
0.000740101
0.000740332
0.000736446
0.000736205
0.000740103
0.000740336
0.000736451
0.000740129
0.00073619
0.00074038
0.000736325
0.00074035
0.000736411
0.000740233
0.000740302
0.000739863
0.00073642
0.00073642
0.000740141
0.00074014
0.000736247
0.000782472
0.000782414
0.000782414
0.000783985
0.000747173
0.000747117
0.000747117
0.00074869
0.000783984
0.000754332
0.000782414
0.000782414
0.000755943
0.000755943
0.000783984
0.000754332
0.000782414
0.000782414
0.000755943
0.000755943
0.000782414
0.000755943
0.000755943
0.000783984
0.000754332
0.000782414
0.000755943
0.000755943
0.000754332
0.000748689
0.000747117
0.000747117
0.000748688
0.000747117
0.000747117
0.000747117
0.00074869
0.000747117
0.000771426
0.000784545
0.000771428
0.000784534
0.000784553
0.000771427
0.000771426
0.000784546
0.000771428
0.000784534
0.000782472
0.000782472
0.000782472
0.000755999
0.000755999
0.000755999
0.000755999
0.00077151
0.000784498
0.000782436
0.000773592
0.000771464
0.000773613
0.000784451
0.000784553
0.000771427
0.00077151
0.000782436
0.000784498
0.000773592
0.000773613
0.000771464
0.000784451
0.000784545
0.000784545
0.000771981
0.000771421
0.000771421
0.000749254
0.000749241
0.000749261
0.000749254
0.000749242
0.000747172
0.000747172
0.000747172
0.000736209
0.000749206
0.000747138
0.000749158
0.00073831
0.000749261
0.000736209
0.000747138
0.000749206
0.000749158
0.00073831
0.000749253
0.000749253
0.000736679
0.000736122
0.000736122
0.000784553
0.000771427
0.000784553
0.000771427
0.000784545
0.000784545
0.000771981
0.000771422
0.000771421
0.00075378
0.000766909
0.00075378
0.000766909
0.000766339
0.000753774
0.000753774
0.000766901
0.000766901
0.000771426
0.000784545
0.000771428
0.000784534
0.00077151
0.000784498
0.000782436
0.000773592
0.000771464
0.000773613
0.000784451
0.00077151
0.000784498
0.000782436
0.000773592
0.000771464
0.000773613
0.000784451
0.00076689
0.000753781
0.000766902
0.000753779
0.00076689
0.000753781
0.000766902
0.000753779
0.000766807
0.000764768
0.000753816
0.000755964
0.000766855
0.00076479
0.000753862
0.000766807
0.000764768
0.000753817
0.000755964
0.000766854
0.000764789
0.000753862
0.000784545
0.000784545
0.000771981
0.000771422
0.000771421
0.000784553
0.000771427
0.00075378
0.000766909
0.000766339
0.000753774
0.000753774
0.000766901
0.000766901
0.00075378
0.000766909
0.00077151
0.000784498
0.000782436
0.000773592
0.000771464
0.000773613
0.000784451
0.000771426
0.000784546
0.000771428
0.000784534
0.00077151
0.000782436
0.000784498
0.000773592
0.000773613
0.000771463
0.000784451
0.00076689
0.000753781
0.000766902
0.000753779
0.000766807
0.000764768
0.000753816
0.000755964
0.000766855
0.00076479
0.000753862
0.00076689
0.000753781
0.000766902
0.000753779
0.000766807
0.000764768
0.000755964
0.000753816
0.000764789
0.000766855
0.000753862
0.000771426
0.000784545
0.000771428
0.000784533
0.00077151
0.000782436
0.000784499
0.000773592
0.000773613
0.000771464
0.000784451
0.000771426
0.000784546
0.000771428
0.000784534
0.000766807
0.000764768
0.000753816
0.000755964
0.000766854
0.00076479
0.000753862
0.000766889
0.000753781
0.000766902
0.000753779
0.000766807
0.000764768
0.000755964
0.000753816
0.000764789
0.000766855
0.000753862
0.00076689
0.000753781
0.000766902
0.000753779
0.000784545
0.000784545
0.000771981
0.000771421
0.000771421
0.000784553
0.000771427
0.00075378
0.000766909
0.000766339
0.000753774
0.000753774
0.000766902
0.000766901
0.00075378
0.000766909
0.00077151
0.000782436
0.000784499
0.000773592
0.000773613
0.000771464
0.000784451
0.000771426
0.000784546
0.000771428
0.000784533
0.000771427
0.000784546
0.000771428
0.000784533
0.000766807
0.000764768
0.000755964
0.000753816
0.000764789
0.000766855
0.000753862
0.000766807
0.000764768
0.000755965
0.000753816
0.00076479
0.000766855
0.000753862
0.00076689
0.000753781
0.000766902
0.000753779
0.000766889
0.000753781
0.000766902
0.000753779
0.000784553
0.000771427
0.000784553
0.000771427
0.00076634
0.000753774
0.000753774
0.000766902
0.000766902
0.00075378
0.000766909
0.00075378
0.000766909
0.000749261
0.000749261
0.000749253
0.000749253
0.000749253
0.000749241
0.000749206
0.000747138
0.000749158
0.000749205
0.000747138
0.000749158
0.000749252
0.000749253
0.000749261
0.000749206
0.000747138
0.000749158
0.000749253
0.000749242
0.000747138
0.000749206
0.000749158
0.000736127
0.000749253
0.000749241
0.000736209
0.000747138
0.000749206
0.00073829
0.000749158
0.00073831
0.000736164
0.000736126
0.000749254
0.000749241
0.000736128
0.000749253
0.000749253
0.000749261
0.000736209
0.000747138
0.000749206
0.000738291
0.000749158
0.00073831
0.000736164
0.000736127
0.000749254
0.000749241
0.000736127
0.000749253
0.000749241
0.000736128
0.000749261
0.000736127
0.000749261
0.000736128
0.000775734
0.00077142
0.000771424
0.000775712
0.000775732
0.000775715
0.00077142
0.000780246
0.00078025
0.00078455
0.000780237
0.000784557
0.000775736
0.000771415
0.000775724
0.000775728
0.000771424
0.000780241
0.000780248
0.000784553
0.000784537
0.000780241
0.000780246
0.000784555
0.000780249
0.000775732
0.000775734
0.000771424
0.00077142
0.000775712
0.000775715
0.000775732
0.00077142
0.000780246
0.00078025
0.00078455
0.000780237
0.000784557
0.000775736
0.000771415
0.000775724
0.000775728
0.000771424
0.000780242
0.000780248
0.000784537
0.000784554
0.000780246
0.000780241
0.000784555
0.000780248
0.000775732
0.000775738
0.000771422
0.000771423
0.000775742
0.000775742
0.000771413
0.000780267
0.000784489
0.000780243
0.000784548
0.000780297
0.000780251
0.000784522
0.000780267
0.000784489
0.000780243
0.000784549
0.000780297
0.000780251
0.000784522
0.0007757
0.00077143
0.000775724
0.000771475
0.000775667
0.000775727
0.000771445
0.000775701
0.00077143
0.000775724
0.000771475
0.000775668
0.000775727
0.000771445
0.000780235
0.000784563
0.000784563
0.000780244
0.000780244
0.000784559
0.000744951
0.000749258
0.000744955
0.000749265
0.000744942
0.000744947
0.000744953
0.000749261
0.000749244
0.000749264
0.000744947
0.000744952
0.000744954
0.000744952
0.000749258
0.000744955
0.000749265
0.000744942
0.000744947
0.000744953
0.000749245
0.000749262
0.000749264
0.000744952
0.000744947
0.000744954
0.000740441
0.000736123
0.000736123
0.000740444
0.000740445
0.000736113
0.000744972
0.000749197
0.000749256
0.000744948
0.000749229
0.000745002
0.000744957
0.000744972
0.000749197
0.000749256
0.000744948
0.00074923
0.000745002
0.000744957
0.00074494
0.000749271
0.000749271
0.000749267
0.00074495
0.00074495
0.000740403
0.00073613
0.000740427
0.000736175
0.000740369
0.00074043
0.000736145
0.000740403
0.00073613
0.000740427
0.000736175
0.00074037
0.00074043
0.000736145
0.000780249
0.000775732
0.000780249
0.000775732
0.000775738
0.000771422
0.000771422
0.000775742
0.000775742
0.000771413
0.000780267
0.000784489
0.000780243
0.000784548
0.000780251
0.000780297
0.000784521
0.000780267
0.000784489
0.000780243
0.000784548
0.000780251
0.000780297
0.000784522
0.0007757
0.000771429
0.000775724
0.000771476
0.000775727
0.000771445
0.000775667
0.0007757
0.000771429
0.000775724
0.000771476
0.000775727
0.000771445
0.000775667
0.000780235
0.000784563
0.000784563
0.000780244
0.000780244
0.000784559
0.000758086
0.000762604
0.000758086
0.000762604
0.00076259
0.000766919
0.000766919
0.000766916
0.000762599
0.0007626
0.000758054
0.000753828
0.000758078
0.000753782
0.000758081
0.000758021
0.000753798
0.000758054
0.000753828
0.000758078
0.000753783
0.000758081
0.000758021
0.000753798
0.000762622
0.000766905
0.000766845
0.000762599
0.000766878
0.000762607
0.000762652
0.000762622
0.000766905
0.000766845
0.000762598
0.000766878
0.000762607
0.000762652
0.000758092
0.000753775
0.000753775
0.000758096
0.000758096
0.000753766
0.000775734
0.00077142
0.000771424
0.000775712
0.000775732
0.000775715
0.00077142
0.000780246
0.00078025
0.00078455
0.000780237
0.000784557
0.000775736
0.000771415
0.000775724
0.000775728
0.000771424
0.000780241
0.000780248
0.000784553
0.000784537
0.000780241
0.000780246
0.000784555
0.000762597
0.00076691
0.000766893
0.000762603
0.000766912
0.000762597
0.000762601
0.00075809
0.000758078
0.000753768
0.000753777
0.000758083
0.000762601
0.000766906
0.000762605
0.000766914
0.000762592
0.000758088
0.000758066
0.000753772
0.000753777
0.000753772
0.000758086
0.000758069
0.000762597
0.00076691
0.000766893
0.000762603
0.000766912
0.000762597
0.000762601
0.00075809
0.000758078
0.000753768
0.000758082
0.000753777
0.000762601
0.000766906
0.000762605
0.000766914
0.000762592
0.000758088
0.000758066
0.000753772
0.000753777
0.000758086
0.00075807
0.000753773
0.000775738
0.000771422
0.000771422
0.000775741
0.000775742
0.000771413
0.000780267
0.000784489
0.000780244
0.000784548
0.000780251
0.000780298
0.000784522
0.000780267
0.000784489
0.000780243
0.000784548
0.000780298
0.000780251
0.000784521
0.0007757
0.000771429
0.000775723
0.000771475
0.000775727
0.000775667
0.000771445
0.0007757
0.00077143
0.000775724
0.000771476
0.000775667
0.000775727
0.000771445
0.000780235
0.000784563
0.000784563
0.000780244
0.000780244
0.000784559
0.000780249
0.000775732
0.000758086
0.000762604
0.00076259
0.000766919
0.000766919
0.000766915
0.000762599
0.000762599
0.000758054
0.000753828
0.000758077
0.000753782
0.000758021
0.000758081
0.000753797
0.000758054
0.000753828
0.000758078
0.000753782
0.000758081
0.000758021
0.000753798
0.000762622
0.000766905
0.000766844
0.000762599
0.000762652
0.000766878
0.000762606
0.000762622
0.000766905
0.000766844
0.000762598
0.000766878
0.000762607
0.000762652
0.000758092
0.000753775
0.000753775
0.000758096
0.000758096
0.000753766
0.000758086
0.000762604
0.000775734
0.00077142
0.000771424
0.000775712
0.000775732
0.000775716
0.00077142
0.000780246
0.000780249
0.00078455
0.000780237
0.000784557
0.000775736
0.000771415
0.000775724
0.000775728
0.000771424
0.000780241
0.000780248
0.000784554
0.000784537
0.000780241
0.000780246
0.000784555
0.000762597
0.000766893
0.00076691
0.000762603
0.000766912
0.000762601
0.000762597
0.00075809
0.000758078
0.000753768
0.000753777
0.000758083
0.000762601
0.000766906
0.000762605
0.000766914
0.000762592
0.000758088
0.000758066
0.000753777
0.000753773
0.000753773
0.000758069
0.000758086
0.000762597
0.00076691
0.000766893
0.000762603
0.000766912
0.000762597
0.000762601
0.00075809
0.000758078
0.000753768
0.000758083
0.000753777
0.000762601
0.000766906
0.000762605
0.000766914
0.000762592
0.000758088
0.000758066
0.000753773
0.000753777
0.000758086
0.00075807
0.000753773
0.000775734
0.000771425
0.00077142
0.000775712
0.000775715
0.000775732
0.00077142
0.000780246
0.00078025
0.000784549
0.000780238
0.000784557
0.000775736
0.000771416
0.000775724
0.000775728
0.000771424
0.000780242
0.000780249
0.000784536
0.000784553
0.000780247
0.000780242
0.000784555
0.000775734
0.00077142
0.000771424
0.000775712
0.000775732
0.000775715
0.00077142
0.000780246
0.00078025
0.00078455
0.000780237
0.000784557
0.000775736
0.000771415
0.000775724
0.000775728
0.000771424
0.000780242
0.000780248
0.000784554
0.000784537
0.000780242
0.000780246
0.000784556
0.000762597
0.000766892
0.00076691
0.000762603
0.000766912
0.000762602
0.000762597
0.00075809
0.000758078
0.000753768
0.000758082
0.000753777
0.000762601
0.000766905
0.000762605
0.000766914
0.000762593
0.000758088
0.000758066
0.000753778
0.000753773
0.000758069
0.000758086
0.000753773
0.000762597
0.00076691
0.000766893
0.000762603
0.000766912
0.000762597
0.000762601
0.00075809
0.000758078
0.000753768
0.000758082
0.000753777
0.000762601
0.000766906
0.000762605
0.000766914
0.000762592
0.000758088
0.000758066
0.000753773
0.000753777
0.000758086
0.000758069
0.000753773
0.000775738
0.000771422
0.000771423
0.000775742
0.000775742
0.000771413
0.000780267
0.00078449
0.000780243
0.000784548
0.000780251
0.000780297
0.000784522
0.000780267
0.000784489
0.000780243
0.000784549
0.000780297
0.000780251
0.000784522
0.000775701
0.000771429
0.000775724
0.000771475
0.000775727
0.000775668
0.000771445
0.000775701
0.00077143
0.000775724
0.000771475
0.000775667
0.000775727
0.000771445
0.000780235
0.000784563
0.000784563
0.000780244
0.000780244
0.000784559
0.000780249
0.000775732
0.000758086
0.000762604
0.00076259
0.000766919
0.000766919
0.000766916
0.000762599
0.000762599
0.000758055
0.000753827
0.000758078
0.000753782
0.000758022
0.000758081
0.000753797
0.000758055
0.000753828
0.000758078
0.000753782
0.000758081
0.000758021
0.000753797
0.000762622
0.000766905
0.000766846
0.000762598
0.000762652
0.000766878
0.000762606
0.000762622
0.000766905
0.000766845
0.000762598
0.000766878
0.000762606
0.000762652
0.000758092
0.000753775
0.000753775
0.000758096
0.000758096
0.000753766
0.000758086
0.000762604
0.000775734
0.000771424
0.00077142
0.000775712
0.000775715
0.000775732
0.00077142
0.000780246
0.00078025
0.00078455
0.000780237
0.000784557
0.000775736
0.000771415
0.000775724
0.000775728
0.000771424
0.000780241
0.000780248
0.000784537
0.000784553
0.000780246
0.000780242
0.000784556
0.000775734
0.000771425
0.00077142
0.000775712
0.000775715
0.000775732
0.00077142
0.000780246
0.00078025
0.00078455
0.000780237
0.000784557
0.000775736
0.000771415
0.000775724
0.000775728
0.000771424
0.000780242
0.000780249
0.000784536
0.000784553
0.000780247
0.000780242
0.000784555
0.000762597
0.000766893
0.00076691
0.000762603
0.000766912
0.000762601
0.000762597
0.00075809
0.000758079
0.000753768
0.000758083
0.000753777
0.000762601
0.000766906
0.000762605
0.000766914
0.000762592
0.000758088
0.000758066
0.000753777
0.000753773
0.00075807
0.000758086
0.000753773
0.000762597
0.000766892
0.00076691
0.000762604
0.000766912
0.000762602
0.000762597
0.00075809
0.000758078
0.000753768
0.000758083
0.000753777
0.000762601
0.000766906
0.000762605
0.000766914
0.000762592
0.000758089
0.000758066
0.000753778
0.000753773
0.000758069
0.000758086
0.000753773
0.000780249
0.000775732
0.000780249
0.000775732
0.00076259
0.000766919
0.000766919
0.000766916
0.000762599
0.0007626
0.000758054
0.000753828
0.000758078
0.000753782
0.000753797
0.000758021
0.000758081
0.000758055
0.000753828
0.000758078
0.000753782
0.000753797
0.000758022
0.000758081
0.000762622
0.000766905
0.000766845
0.000762598
0.000766878
0.000762652
0.000762606
0.000762622
0.000766905
0.000766845
0.000762598
0.000766879
0.000762652
0.000762607
0.000758092
0.000753775
0.000753775
0.000753766
0.000758096
0.000758096
0.000758086
0.000762604
0.000758086
0.000762604
0.000744954
0.000744954
0.000744972
0.000749196
0.000749256
0.000744949
0.000749229
0.000744957
0.000745003
0.000744972
0.000749196
0.000749257
0.000744949
0.000749229
0.000744957
0.000745002
0.00074494
0.000749271
0.000749271
0.000749267
0.00074495
0.00074495
0.000744951
0.000749257
0.000744955
0.000749265
0.000744942
0.000744947
0.000744953
0.000749261
0.000749245
0.000744947
0.000749263
0.000744952
0.000744972
0.000749196
0.000749256
0.000744949
0.000744957
0.000749229
0.000745002
0.000744972
0.000749196
0.000749256
0.000744949
0.000745002
0.000749229
0.000744957
0.000744941
0.000749271
0.000749271
0.00074495
0.000749267
0.00074495
0.000744951
0.000749258
0.000744955
0.000749265
0.000744942
0.000744947
0.000744953
0.000749262
0.000749245
0.000744947
0.000749264
0.000744951
0.000740437
0.000740415
0.00073612
0.000740417
0.000740435
0.000744951
0.000749257
0.000744955
0.000744943
0.000749265
0.000744947
0.000744954
0.000749244
0.000749262
0.000744952
0.000749263
0.000744947
0.000740439
0.000740437
0.000740415
0.00073612
0.000736125
0.000740435
0.000740418
0.00073612
0.000744951
0.000749258
0.000744955
0.000749265
0.000744942
0.000744947
0.000744953
0.000749262
0.000749245
0.000749264
0.000744947
0.000744952
0.000740439
0.000736116
0.000740427
0.000740431
0.000736125
0.000744972
0.000749197
0.000749256
0.000744948
0.000744957
0.00074923
0.000745002
0.000744972
0.000749197
0.000749256
0.000744948
0.000745002
0.00074923
0.000744957
0.00074494
0.000749271
0.000749271
0.00074495
0.000749267
0.00074495
0.000744954
0.000740437
0.000740415
0.000736125
0.00073612
0.000740418
0.000740435
0.00073612
0.000744951
0.000749258
0.000744955
0.000744942
0.000749265
0.000744947
0.000744953
0.000749245
0.000749261
0.000744951
0.000749264
0.000744947
0.000740439
0.000736115
0.000740432
0.000736125
0.000740437
0.000740414
0.000736125
0.000736121
0.000740418
0.000740435
0.000736121
0.000744951
0.000749257
0.000744955
0.000749265
0.000744942
0.000744947
0.000744953
0.000749244
0.000749261
0.000749263
0.000744952
0.000744947
0.000740439
0.000736116
0.000740427
0.000740431
0.000736125
0.000744954
0.000740435
0.000744954
0.000740435
0.000782507
0.000782507
0.000773649
0.000773683
0.000773683
0.000773731
0.000782555
0.000780369
0.000784261
0.000784262
0.000780803
0.000780544
0.000780543
0.000784421
0.000747206
0.000747206
0.000738425
0.000747253
0.000745074
0.000748967
0.00074897
0.000745506
0.000749128
0.000745247
0.000745248
0.000780369
0.000784261
0.000784261
0.000780803
0.000780544
0.000780543
0.000784421
0.000757953
0.000757515
0.000754073
0.000754073
0.000757793
0.000757793
0.0007539
0.00078037
0.00078426
0.000784261
0.000780803
0.000780544
0.000780544
0.00078442
0.000757953
0.000757515
0.000754073
0.000754073
0.000757792
0.000757793
0.000753899
0.000780369
0.000784261
0.000784262
0.000780803
0.000780543
0.000780544
0.000784421
0.000757953
0.000757515
0.000754073
0.000754073
0.000757792
0.000757792
0.000753899
0.000757953
0.000757515
0.000754074
0.000754074
0.000753899
0.000757792
0.000757793
0.000745074
0.000748967
0.000748968
0.000745506
0.000749128
0.000745248
0.000745247
0.000745074
0.000748967
0.000748967
0.000745506
0.000745248
0.000749127
0.000745247
0.000745073
0.000748967
0.000748968
0.000745506
0.000745247
0.000749128
0.000745248
0.000782507
0.000782507
0.000773649
0.000773683
0.000773683
0.000773731
0.000782555
0.000782507
0.000782507
0.000773649
0.000773683
0.000773683
0.000773731
0.000782555
0.000782507
0.000782507
0.000773649
0.000773683
0.000773683
0.000773731
0.000782555
0.000764825
0.000756033
0.000756033
0.000764859
0.000764859
0.000764906
0.00075608
0.000764825
0.000756033
0.000756033
0.000764859
0.000764859
0.000764906
0.00075608
0.000764824
0.000756033
0.000756033
0.000764859
0.000764859
0.000764906
0.00075608
0.000764824
0.000756033
0.000756033
0.000764859
0.000764859
0.000764906
0.00075608
0.0007754
0.000771507
0.000771747
0.00077563
0.000775633
0.000775403
0.000771752
0.000780535
0.000784351
0.000780286
0.000784469
0.000780448
0.000780313
0.000784249
0.000775428
0.000771491
0.000775677
0.000771626
0.00077553
0.000775648
0.000771712
0.000780574
0.000780332
0.000784455
0.000784225
0.000780329
0.00078057
0.000784222
0.0007754
0.000771747
0.000771506
0.000775629
0.000775403
0.000775634
0.000771752
0.000780534
0.000784352
0.000780286
0.000784469
0.000780448
0.000780312
0.000784249
0.000775427
0.00077149
0.000775677
0.000771626
0.00077553
0.000775648
0.000771712
0.000780574
0.000780332
0.000784225
0.000784455
0.00078057
0.000780328
0.000784222
0.000775599
0.000775162
0.000771722
0.000771721
0.000775439
0.000775439
0.000771547
0.000747206
0.000747206
0.000738377
0.000738426
0.000747253
0.000747206
0.000747206
0.000738377
0.000738425
0.000747253
0.000747205
0.000747206
0.000738345
0.000738376
0.000738378
0.000738425
0.000747253
0.000740101
0.000740332
0.000736206
0.000736445
0.000740336
0.000740103
0.00073645
0.000745238
0.000749058
0.000749176
0.000744991
0.000748955
0.000745153
0.000745017
0.000745278
0.000745036
0.000749162
0.00074893
0.000748928
0.000745033
0.000745273
0.000740101
0.000740332
0.000736445
0.000736206
0.000740103
0.000740336
0.00073645
0.000745238
0.000749059
0.000749177
0.00074499
0.000748955
0.000745152
0.000745017
0.000745278
0.000745036
0.00074893
0.000749162
0.000748928
0.000745273
0.000745033
0.000740128
0.00073619
0.000740351
0.000736411
0.000740301
0.000739862
0.000736419
0.00073642
0.000740138
0.000740142
0.000736247
0.000775599
0.000775162
0.000771721
0.000771721
0.000771547
0.000775439
0.00077544
0.000762724
0.000763157
0.000766617
0.000766617
0.000766777
0.000762898
0.000762898
0.0007754
0.000771506
0.000771747
0.00077563
0.000775633
0.000775403
0.000771752
0.000780535
0.000784352
0.000780286
0.000784469
0.000780313
0.000780448
0.000784249
0.000775427
0.000771491
0.000775677
0.000771626
0.000775648
0.00077553
0.000771712
0.000780574
0.000780332
0.000784455
0.000784224
0.000780328
0.00078057
0.000784222
0.000775399
0.000771506
0.000771747
0.00077563
0.000775634
0.000775403
0.000771752
0.000780535
0.000784351
0.000780286
0.000784469
0.000780313
0.000780448
0.000784248
0.000775427
0.000771491
0.000775677
0.000771626
0.000775648
0.000771713
0.00077553
0.000780575
0.000780332
0.000784455
0.000784224
0.000780329
0.00078057
0.000784221
0.000762928
0.000766811
0.000766579
0.000762686
0.000766577
0.000762683
0.000762924
0.00075778
0.000753978
0.000758031
0.000753843
0.000757884
0.000758002
0.000754064
0.000762889
0.000766825
0.000766708
0.000762641
0.000762802
0.000766604
0.000762668
0.000757753
0.000757983
0.000753859
0.000754099
0.000757987
0.000757755
0.000754104
0.000762929
0.000766811
0.000766579
0.000762686
0.000766576
0.000762683
0.000762924
0.00075778
0.000753978
0.000758031
0.000753843
0.000758002
0.000757884
0.000754064
0.000762889
0.000766825
0.000766707
0.000762641
0.000766604
0.000762668
0.000762803
0.000757753
0.000757983
0.000753858
0.000754099
0.000757987
0.000757755
0.000754104
0.000775599
0.000775162
0.000771722
0.000771721
0.000775439
0.000775439
0.000771547
0.000762724
0.000763157
0.000766615
0.000766616
0.000762898
0.000766776
0.000762898
0.000775399
0.000771506
0.000771748
0.00077563
0.000775633
0.000775402
0.000771752
0.000780535
0.000784352
0.000780286
0.000784469
0.000780313
0.000780448
0.000784249
0.000775427
0.000771491
0.000775677
0.000771626
0.000775648
0.00077553
0.000771713
0.000780575
0.000780332
0.000784455
0.000784224
0.000780328
0.00078057
0.000784221
0.0007754
0.000771747
0.000771506
0.00077563
0.000775402
0.000775634
0.000771752
0.000780534
0.000784353
0.000780285
0.000784469
0.000780312
0.000780447
0.000784249
0.000775428
0.00077149
0.000775677
0.000771625
0.000775648
0.000771712
0.000775531
0.000780574
0.000780332
0.000784224
0.000784455
0.00078057
0.000780328
0.000784222
0.000762929
0.000766811
0.00076658
0.000762686
0.000766577
0.000762683
0.000762924
0.00075778
0.000753978
0.000758031
0.000753843
0.000757884
0.000758002
0.000754065
0.000762889
0.000766825
0.000766708
0.000762641
0.000762803
0.000766604
0.000762668
0.000757752
0.000757983
0.000753859
0.000754099
0.000757987
0.000757755
0.000754104
0.000762928
0.00076658
0.000766811
0.000762686
0.000766577
0.000762924
0.000762683
0.000757781
0.000753978
0.000758031
0.000753843
0.000758002
0.000757885
0.000754064
0.000762888
0.000766826
0.000766709
0.00076264
0.000766605
0.000762667
0.000762802
0.000757753
0.000757983
0.000754099
0.000753858
0.000757755
0.000757988
0.000754104
0.0007754
0.000771747
0.000771506
0.00077563
0.000775403
0.000775634
0.000771752
0.000780534
0.000784353
0.000780286
0.000784469
0.000780447
0.000780313
0.00078425
0.000775427
0.000771491
0.000775677
0.000771625
0.000775531
0.000775648
0.000771712
0.000780574
0.000780332
0.000784225
0.000784455
0.00078057
0.000780329
0.000784222
0.000762928
0.000766811
0.00076658
0.000762687
0.000766577
0.000762683
0.000762924
0.000757781
0.000753978
0.000758031
0.000753843
0.000754064
0.000757883
0.000758002
0.000762889
0.000766825
0.000766707
0.000762641
0.000766604
0.000762803
0.000762668
0.000757753
0.000757983
0.000753859
0.000754099
0.000754104
0.000757987
0.000757756
0.000762928
0.00076658
0.000766811
0.000762686
0.000766578
0.000762924
0.000762683
0.00075778
0.000753978
0.000758031
0.000753843
0.000758001
0.000757885
0.000754064
0.000762888
0.000766825
0.000766709
0.00076264
0.000766605
0.000762667
0.000762802
0.000757753
0.000757983
0.000754099
0.000753859
0.000757756
0.000757987
0.000754104
0.000775599
0.000775162
0.000771721
0.000771721
0.000775439
0.000775439
0.000771547
0.000762724
0.000763157
0.000766616
0.000766617
0.000762898
0.000766777
0.000762898
0.0007754
0.000771747
0.000771506
0.000775629
0.000775402
0.000775634
0.000771752
0.000780535
0.000784352
0.000780286
0.000784469
0.000780448
0.000780313
0.000784249
0.000775427
0.000771491
0.000775677
0.000771626
0.00077553
0.000775648
0.000771712
0.000780575
0.000780332
0.000784224
0.000784455
0.00078057
0.000780329
0.000784221
0.000762928
0.00076658
0.000766811
0.000762686
0.000766577
0.000762924
0.000762683
0.000757781
0.000753978
0.000758031
0.000753843
0.000754064
0.000757884
0.000758002
0.000762889
0.000766825
0.000766708
0.000762641
0.000766605
0.000762803
0.000762667
0.000757753
0.000757983
0.000754099
0.000753858
0.000754104
0.000757755
0.000757987
0.000762929
0.00076658
0.000766811
0.000762687
0.000766577
0.000762924
0.000762683
0.00075778
0.000753978
0.000758031
0.000753843
0.000758001
0.000757884
0.000754064
0.000762889
0.000766825
0.000766708
0.000762641
0.000766605
0.000762667
0.000762803
0.000757753
0.000757983
0.000754099
0.000753859
0.000757755
0.000757987
0.000754104
0.000762724
0.000763157
0.000766617
0.000766617
0.000766777
0.000762898
0.000762898
0.000745238
0.000749058
0.000749176
0.000744991
0.000745018
0.000748955
0.000745153
0.000745278
0.000745036
0.000749162
0.00074893
0.000745033
0.000748928
0.000745273
0.000745239
0.000749058
0.000749176
0.000744991
0.000748954
0.000745018
0.000745153
0.000745278
0.000745036
0.000749162
0.00074893
0.000748927
0.000745033
0.000745273
0.000745239
0.000749059
0.000749177
0.000744991
0.000745017
0.000748955
0.000745153
0.000745278
0.000745036
0.000749162
0.00074893
0.000745033
0.000748927
0.000745273
0.000745238
0.00074906
0.000749177
0.00074499
0.000748956
0.000745017
0.000745152
0.000745278
0.000745036
0.00074893
0.000749163
0.000748928
0.000745273
0.000745032
0.000740101
0.000740332
0.000736445
0.000736205
0.000740103
0.000740336
0.00073645
0.000745238
0.00074906
0.000749177
0.000744991
0.000745153
0.000748957
0.000745017
0.000745278
0.000745036
0.00074893
0.000749162
0.000745273
0.000748928
0.000745033
0.000740129
0.00073619
0.000740379
0.000736325
0.000740233
0.00074035
0.00073641
0.000740101
0.000740332
0.000736445
0.000736206
0.000740103
0.000740336
0.00073645
0.000745238
0.000749059
0.000749177
0.00074499
0.000745152
0.000748955
0.000745017
0.000745278
0.000745036
0.00074893
0.000749162
0.000745273
0.000748928
0.000745033
0.000740129
0.00073619
0.00074038
0.000736325
0.000740232
0.00074035
0.000736411
0.00167574
0.00167409
0.00167574
0.0016734
0.00167347
0.00167339
0.0016734
0.0016734
0.00167339
0.00167347
0.0016734
0.00167776
0.00167775
0.00167339
0.00167776
0.00167339
0.00167775
0.00167774
0.00167349
0.00167776
0.0016734
0.00167772
0.00167775
0.00167344
0.00167774
0.00167349
0.00167776
0.0016734
0.00167775
0.00167772
0.00167344
0.00167777
0.00167338
0.00167338
0.00167776
0.00167776
0.00167338
0.00167775
0.00167776
0.00167775
0.00167339
0.00167776
0.00167339
0.00167765
0.00167731
0.00167378
0.00167378
0.00167752
0.00167752
0.00167359
0.00167753
0.00167363
0.00167772
0.00167352
0.0016777
0.00167758
0.00167377
0.00167753
0.00167363
0.00167772
0.00167352
0.00167758
0.0016777
0.00167377
0.00166685
0.00166677
0.00166677
0.00166834
0.00163104
0.00163096
0.00163095
0.00163252
0.00159529
0.00159521
0.00159521
0.00159678
0.00155962
0.00155953
0.00155953
0.00156109
0.001524
0.00152391
0.00152391
0.00152547
0.00148843
0.00148834
0.00148834
0.0014899
0.00145292
0.00145283
0.00145283
0.00145439
0.00141745
0.00141736
0.00141736
0.00141892
0.00138203
0.00138193
0.00138193
0.00138349
0.00134664
0.00134654
0.00134654
0.0013481
0.00131129
0.00131118
0.00131119
0.00131274
0.00127597
0.00127586
0.00127586
0.00127742
0.00124066
0.00124057
0.00124057
0.00124212
0.00120539
0.00120529
0.00120529
0.00120685
0.00117013
0.00117004
0.00117004
0.00117159
0.00113488
0.00113479
0.00113479
0.00113635
0.00109965
0.00109956
0.00109956
0.00110112
0.00106442
0.00106434
0.00106434
0.0010659
0.0010292
0.00102912
0.00102912
0.00103068
0.000993972
0.000993897
0.000993897
0.000995457
0.000958746
0.000958673
0.000958673
0.000960234
0.000923513
0.000923444
0.000923444
0.000925007
0.000888272
0.000888205
0.000888205
0.00088977
0.00085302
0.000852956
0.000852956
0.000854522
0.000817754
0.000817693
0.000817693
0.000819261
0.00166834
0.00163826
0.00166677
0.00166677
0.0016399
0.0016399