/*--------------------------------*- C++ -*----------------------------------*\
| =========                 |                                                 |
| \\      /  F ield         | OpenFOAM: The Open Source CFD Toolbox           |
|  \\    /   O peration     | Version:  2312                                  |
|   \\  /    A nd           | Website:  www.openfoam.com                      |
|    \\/     M anipulation  |                                                 |
\*---------------------------------------------------------------------------*/
FoamFile
{
    version     2.0;
    format      ascii;
    arch        "LSB;label=32;scalar=64";
    class       volVectorField;
    location    "400";
    object      U;
}
// * * * * * * * * * * * * * * * * * * * * * * * * * * * * * * * * * * * * * //

dimensions      [0 1 -1 0 0 0 0];

internalField   nonuniform List<vector> 
43496
(
(-1.67892e-05 -2.31986e-07 0.0914291)
(-5.87358e-06 3.3768e-06 0.0716079)
(-6.27901e-06 1.15158e-05 0.107486)
(-7.9307e-06 2.05621e-05 0.0930694)
(-2.75449e-05 -6.58817e-07 0.0985805)
(-1.46232e-05 -2.62826e-06 0.109905)
(-1.67773e-05 3.81816e-07 0.091429)
(-1.2105e-05 1.2667e-06 0.0822901)
(-2.75333e-05 7.77301e-07 0.0985804)
(-1.14933e-05 6.24587e-06 0.107484)
(-1.46077e-05 2.65982e-06 0.109904)
(-2.0569e-05 7.88546e-06 0.0930684)
(-4.17988e-05 4.17754e-05 0.104315)
(-9.99592e-06 6.99651e-06 0.0876086)
(-7.07172e-06 9.95506e-06 0.0876112)
(-3.43748e-06 5.86326e-06 0.0716082)
(-1.29757e-06 1.20895e-05 0.0822902)
(4.18366e-06 -6.40818e-07 0.0768893)
(4.80771e-06 -2.06325e-07 0.0913854)
(-1.61741e-05 -1.10141e-06 0.0899523)
(-7.51467e-06 2.16767e-07 0.0787066)
(5.3346e-06 -5.21682e-07 0.0899026)
(3.78239e-06 -1.17298e-07 0.078666)
(-7.5235e-06 6.08625e-07 0.0769362)
(4.86664e-06 -8.2638e-07 0.068418)
(-1.24405e-05 -1.34963e-06 0.0858893)
(5.70914e-06 -7.3008e-07 0.0858332)
(-6.11835e-06 2.37464e-07 0.068479)
(4.29514e-06 -2.54717e-06 0.0715549)
(4.18596e-06 7.75574e-07 0.0768889)
(4.81359e-06 3.14337e-07 0.0913853)
(-7.50317e-06 -4.42987e-08 0.0787065)
(-1.61419e-05 1.24732e-06 0.0899518)
(3.78963e-06 2.58204e-07 0.0786659)
(5.33476e-06 6.28107e-07 0.0899027)
(-7.49218e-06 -4.33747e-07 0.0769357)
(4.89081e-06 9.63895e-07 0.0684197)
(-1.23738e-05 1.48738e-06 0.0858891)
(7.08809e-06 -5.92611e-07 0.0822393)
(5.74085e-06 8.52776e-07 0.0858337)
(-6.06565e-06 -7.56753e-08 0.0684803)
(3.0041e-06 -3.06642e-06 0.0836219)
(-3.63577e-06 5.10571e-06 0.0683793)
(-5.20099e-06 3.55791e-06 0.068385)
(2.5938e-06 -4.0631e-06 0.0683238)
(3.99387e-06 -2.6551e-06 0.0683292)
(-7.36056e-06 7.26822e-06 0.0836681)
(7.64075e-06 -3.68867e-06 0.0916758)
(-8.15799e-06 4.02715e-06 0.0816126)
(3.44532e-06 -3.39192e-06 0.0875604)
(-2.41841e-05 1.43455e-05 0.0963257)
(3.77326e-06 -2.99538e-06 0.081562)
(1.08198e-05 -5.38403e-06 0.0962778)
(-1.69324e-05 1.03664e-05 0.0917229)
(3.61909e-06 -7.68316e-06 0.0916825)
(-4.11483e-06 8.07964e-06 0.0816188)
(3.3011e-06 -3.49434e-06 0.0875619)
(-1.44236e-05 2.41355e-05 0.0963292)
(5.32098e-06 -1.08243e-05 0.0962806)
(2.91267e-06 -3.82199e-06 0.0815673)
(-1.04622e-05 1.68784e-05 0.0917299)
(2.46512e-06 -4.34181e-06 0.0715545)
(5.25195e-07 -7.10835e-06 0.0822394)
(-1.17492e-05 -3.50335e-06 0.11501)
(-1.01592e-05 1.0169e-05 0.112467)
(-1.17395e-05 3.54114e-06 0.115008)
(2.93414e-06 -8.60546e-06 0.0930135)
(-1.18407e-05 4.97844e-05 0.0995929)
(3.61304e-06 -3.15816e-05 0.0995325)
(2.70963e-05 -1.22898e-06 0.10287)
(7.7783e-06 -4.05718e-07 0.0985244)
(-2.74527e-05 -2.53557e-06 0.0976284)
(-5.25221e-05 -1.00269e-06 0.103618)
(8.71442e-06 -8.76001e-07 0.0975631)
(2.55817e-05 -8.72392e-07 0.103524)
(-5.32223e-05 -3.60103e-06 0.102986)
(3.09376e-05 3.12556e-07 0.101327)
(-2.49183e-05 -5.09192e-06 0.0956764)
(1.0117e-05 1.69945e-08 0.0956091)
(-5.2636e-05 -7.76106e-06 0.101431)
(2.71048e-05 1.26475e-06 0.10287)
(7.78557e-06 4.70378e-07 0.0985244)
(-5.25125e-05 1.09728e-06 0.103618)
(-2.74258e-05 2.64903e-06 0.0976279)
(2.55929e-05 9.05433e-07 0.103524)
(8.71753e-06 9.38868e-07 0.0975634)
(-5.32239e-05 3.69297e-06 0.102985)
(3.09859e-05 -2.71462e-07 0.101327)
(-2.48596e-05 5.1871e-06 0.0956757)
(8.57954e-06 -3.007e-06 0.0930128)
(-4.98112e-05 1.17991e-05 0.0995909)
(1.01459e-05 6.92685e-08 0.0956093)
(-5.2599e-05 7.82786e-06 0.10143)
(3.159e-05 -3.68129e-06 0.0995308)
(9.90756e-06 -9.98016e-06 0.0975433)
(2.35738e-05 -2.36241e-05 0.1042)
(-2.65503e-05 4.15171e-05 0.101507)
(-4.15786e-05 2.65188e-05 0.10151)
(2.71865e-05 -1.08234e-05 0.101442)
(1.0801e-05 -2.72536e-05 0.101439)
(-2.2387e-05 2.2335e-05 0.0975988)
(-9.67988e-06 -9.66525e-06 0.112514)
(1.12923e-05 -6.07988e-06 0.1075)
(-6.0817e-06 1.12695e-05 0.107498)
(-2.3809e-05 -2.38037e-05 0.104198)
(-1.00779e-05 -1.00518e-05 0.112477)
(1.14872e-05 -6.22827e-06 0.10749)
(-6.24871e-06 1.14698e-05 0.107488)
(-2.3638e-05 -2.362e-05 0.1042)
(2.37882e-05 2.38198e-05 0.104198)
(-4.18569e-05 -4.18077e-05 0.104315)
(-6.05641e-06 -1.12468e-05 0.107497)
(6.0581e-06 -1.12587e-05 0.107497)
(-6.18558e-06 -1.14022e-05 0.10749)
(6.17961e-06 -1.14252e-05 0.107489)
(-2.38106e-05 2.37873e-05 0.104198)
(4.18459e-05 -4.1828e-05 0.104315)
(-1.12852e-05 -6.0576e-06 0.107499)
(-1.12452e-05 6.04528e-06 0.107496)
(-1.1453e-05 -6.168e-06 0.107491)
(-1.14045e-05 6.16954e-06 0.107489)
(1.12696e-05 6.04437e-06 0.107496)
(1.14595e-05 -6.1986e-06 0.107492)
(1.14044e-05 6.17542e-06 0.10749)
(2.37947e-05 -2.38412e-05 0.104197)
(-4.1836e-05 4.18186e-05 0.104314)
(6.07266e-06 1.12763e-05 0.107498)
(-6.20615e-06 1.14277e-05 0.107491)
(6.18678e-06 1.14363e-05 0.107491)
(4.18124e-05 4.18262e-05 0.104314)
(2.36e-05 2.36601e-05 0.1042)
(-6.21928e-06 -1.14408e-05 0.107487)
(6.21801e-06 -1.14417e-05 0.107488)
(-2.3635e-05 2.36249e-05 0.1042)
(-1.14952e-05 -6.20042e-06 0.107489)
(-1.14481e-05 6.20871e-06 0.107486)
(1.14749e-05 6.20671e-06 0.107486)
(2.36151e-05 -2.36664e-05 0.1042)
(6.21505e-06 1.14794e-05 0.107488)
(-3.35612e-07 -1.67965e-05 0.0913974)
(6.00607e-07 7.0986e-06 0.0821955)
(-1.24443e-06 -1.21527e-05 0.0822555)
(-2.85228e-07 4.87333e-06 0.0913458)
(-2.55873e-06 4.24507e-06 0.0715135)
(3.27666e-06 -5.90093e-06 0.071579)
(-1.67931e-05 -2.56583e-07 0.0913973)
(7.0429e-06 7.01907e-07 0.0821961)
(-1.22063e-05 -1.14279e-06 0.082256)
(4.88415e-06 -2.37345e-07 0.0913456)
(9.6868e-06 -9.66941e-06 0.112515)
(-9.67795e-06 9.68148e-06 0.112513)
(9.69109e-06 9.67858e-06 0.112513)
(-9.98992e-06 -9.964e-06 0.112486)
(9.99576e-06 -9.97711e-06 0.112486)
(-9.97473e-06 9.98209e-06 0.112485)
(9.99082e-06 9.98683e-06 0.112485)
(2.74608e-05 -6.92565e-07 0.0985602)
(-8.61215e-06 3.08144e-06 0.0929769)
(1.40999e-05 -2.54686e-06 0.109931)
(1.13507e-05 -6.12083e-06 0.107497)
(2.06143e-05 -7.86272e-06 0.0930412)
(1.42246e-05 -2.5704e-06 0.109926)
(-7.91349e-06 -4.57948e-07 0.0984987)
(4.27515e-06 -2.62989e-06 0.0715152)
(-5.92669e-06 3.32126e-06 0.0715763)
(-7.69273e-07 2.74456e-05 0.0985594)
(-2.54638e-06 1.40867e-05 0.10993)
(3.03113e-06 -8.64447e-06 0.0929765)
(-6.12482e-06 1.13267e-05 0.107496)
(-2.56813e-06 1.42e-05 0.109924)
(-7.89694e-06 2.05816e-05 0.09304)
(-4.43636e-07 -7.94512e-06 0.0984979)
(-3.45189e-06 -3.43776e-06 0.0875209)
(-3.47723e-06 -3.42719e-06 0.0875198)
(4.18587e-05 4.18605e-05 0.104314)
(1.00454e-05 6.99963e-06 0.0875788)
(6.96696e-06 1.00677e-05 0.0875773)
(5.30438e-07 7.11691e-06 0.0822302)
(-3.02695e-07 4.81333e-06 0.0913774)
(-2.49081e-06 4.26154e-06 0.0715452)
(7.03904e-06 6.88709e-07 0.0822309)
(4.82098e-06 -2.13144e-07 0.0913774)
(1.0089e-05 -1.0066e-05 0.112478)
(-1.00767e-05 1.00784e-05 0.112476)
(1.00594e-05 1.00821e-05 0.112476)
(2.75074e-05 -6.77456e-07 0.0985811)
(-8.56704e-06 3.03223e-06 0.0930064)
(1.45281e-05 -2.64518e-06 0.109911)
(-7.76061e-06 -4.51271e-07 0.0985197)
(1.4639e-05 -2.65914e-06 0.109905)
(4.29133e-06 -2.56317e-06 0.071547)
(-7.94258e-07 2.74887e-05 0.0985803)
(-2.64844e-06 1.45156e-05 0.109909)
(2.95608e-06 -8.6116e-06 0.0930061)
(-4.72548e-07 -7.79396e-06 0.0985189)
(-2.67539e-06 1.46113e-05 0.109904)
(-3.47285e-06 -3.36514e-06 0.0875538)
(-3.43533e-06 -3.42566e-06 0.0875527)
(4.18084e-05 4.17819e-05 0.104316)
(9.982e-06 7.04966e-06 0.0876117)
(6.98699e-06 1.00333e-05 0.08761)
(2.55273e-06 4.33151e-06 0.0715148)
(-3.36426e-06 -5.93148e-06 0.0715769)
(4.25988e-06 2.66564e-06 0.0715149)
(-5.97427e-06 -3.26293e-06 0.0715766)
(3.38116e-06 3.46399e-06 0.0875204)
(3.42924e-06 3.49275e-06 0.0875192)
(-4.18827e-05 -4.1848e-05 0.104314)
(-7.01578e-06 -1.00056e-05 0.0875792)
(-1.00986e-05 -6.93051e-06 0.087577)
(-3.40576e-06 -5.9001e-06 0.0715927)
(2.50664e-06 4.34644e-06 0.0715307)
(-5.95565e-06 -3.27581e-06 0.0715924)
(4.2603e-06 2.64676e-06 0.0715308)
(2.36916e-05 2.37356e-05 0.104199)
(-7.04632e-06 -9.97207e-06 0.0875956)
(-1.00852e-05 -6.93053e-06 0.0875934)
(3.33739e-06 3.48017e-06 0.0875368)
(3.42712e-06 3.47716e-06 0.0875357)
(2.91892e-07 -1.68018e-05 0.0913975)
(-6.05707e-07 7.05312e-06 0.0821952)
(1.16943e-06 -1.21735e-05 0.0822568)
(2.51688e-07 4.87264e-06 0.0913459)
(-7.32183e-07 -2.74925e-05 0.0985594)
(3.03233e-06 8.64074e-06 0.0929757)
(-2.53586e-06 -1.408e-05 0.109931)
(-6.10464e-06 -1.13043e-05 0.107495)
(-7.89495e-06 -2.05789e-05 0.09304)
(-2.56106e-06 -1.41994e-05 0.109925)
(-4.50439e-07 7.95315e-06 0.098498)
(7.00404e-07 -2.75011e-05 0.0985596)
(-3.03927e-06 8.62371e-06 0.0929755)
(2.53726e-06 -1.40836e-05 0.109931)
(6.09568e-06 -1.13195e-05 0.107494)
(7.8342e-06 -2.05923e-05 0.0930406)
(2.56313e-06 -1.42007e-05 0.109925)
(4.3264e-07 7.95435e-06 0.0984982)
(-2.93913e-07 4.84053e-06 0.0913616)
(-1.2764e-06 -1.21232e-05 0.0822728)
(5.66838e-07 7.10672e-06 0.0822129)
(-3.42147e-07 -1.67898e-05 0.0914131)
(2.47789e-07 4.83886e-06 0.0913617)
(1.18335e-06 -1.21375e-05 0.0822741)
(-5.8473e-07 7.05763e-06 0.0822125)
(2.85455e-07 -1.67957e-05 0.0914132)
(-4.61314e-07 7.87541e-06 0.0985084)
(-6.13982e-06 -1.13492e-05 0.107492)
(-7.91635e-06 -2.05681e-05 0.0930546)
(-2.60906e-06 -1.44111e-05 0.109915)
(2.9918e-06 8.62747e-06 0.0929904)
(-2.58387e-06 -1.42999e-05 0.10992)
(-7.39393e-07 -2.75159e-05 0.0985697)
(4.30416e-07 7.87706e-06 0.0985086)
(6.14117e-06 -1.13583e-05 0.107492)
(7.84644e-06 -2.05863e-05 0.0930552)
(2.60524e-06 -1.44144e-05 0.109915)
(-3.00842e-06 8.60483e-06 0.0929902)
(2.58873e-06 -1.43035e-05 0.10992)
(6.95126e-07 -2.75256e-05 0.0985699)
(-3.43624e-06 3.42607e-06 0.0875189)
(-3.4428e-06 3.45422e-06 0.0875211)
(4.18799e-05 -4.18662e-05 0.104315)
(6.97934e-06 -1.00275e-05 0.0875784)
(1.0072e-05 -6.98464e-06 0.0875794)
(-4.27657e-06 2.63378e-06 0.0715152)
(5.94672e-06 -3.31947e-06 0.0715775)
(3.30619e-06 -5.87587e-06 0.0715948)
(-2.52494e-06 4.2544e-06 0.0715294)
(-2.3722e-05 2.37038e-05 0.104199)
(6.99927e-06 -9.99985e-06 0.0875947)
(1.00442e-05 -6.99472e-06 0.0875958)
(-3.40419e-06 3.43494e-06 0.0875353)
(-3.44469e-06 3.42826e-06 0.0875376)
(5.92077e-06 -3.34128e-06 0.0715934)
(-4.28039e-06 2.60487e-06 0.0715311)
(-2.74933e-05 -6.74841e-07 0.0985595)
(8.61758e-06 3.11605e-06 0.0929763)
(-1.40889e-05 -2.53115e-06 0.109931)
(-1.1347e-05 -6.09719e-06 0.107496)
(-2.0642e-05 -7.8219e-06 0.0930399)
(-1.42065e-05 -2.5515e-06 0.109925)
(7.96849e-06 -4.2667e-07 0.0984979)
(-1.67839e-05 3.57515e-07 0.0913972)
(7.07549e-06 -6.48468e-07 0.0821958)
(-1.21495e-05 1.21344e-06 0.0822553)
(4.88747e-06 2.77669e-07 0.0913456)
(-2.74836e-05 7.49752e-07 0.0985593)
(-1.40792e-05 2.5339e-06 0.10993)
(8.62209e-06 -3.08439e-06 0.0929758)
(-1.13023e-05 6.09049e-06 0.107493)
(-1.41939e-05 2.55993e-06 0.109925)
(-2.05804e-05 7.85681e-06 0.0930388)
(7.97346e-06 4.35775e-07 0.0984979)
(4.85001e-06 -2.26232e-07 0.0913614)
(-1.21979e-05 -1.14976e-06 0.0822733)
(7.03575e-06 6.93566e-07 0.0822135)
(-1.67927e-05 -2.4419e-07 0.0914132)
(7.88611e-06 -4.20519e-07 0.0985084)
(-1.13952e-05 -6.13292e-06 0.107494)
(-2.06427e-05 -7.81716e-06 0.0930546)
(-1.4423e-05 -2.59205e-06 0.109915)
(8.59059e-06 3.1005e-06 0.092991)
(-1.43153e-05 -2.57417e-06 0.10992)
(-2.75222e-05 -6.66739e-07 0.0985699)
(4.85459e-06 2.91764e-07 0.0913614)
(-1.21237e-05 1.2382e-06 0.0822727)
(7.07662e-06 -6.26268e-07 0.0822131)
(-1.67821e-05 3.69167e-07 0.091413)
(7.8923e-06 4.50277e-07 0.0985084)
(-1.13545e-05 6.1306e-06 0.107491)
(-1.44082e-05 2.61092e-06 0.109914)
(-2.05784e-05 7.87253e-06 0.0930535)
(-1.43053e-05 2.58574e-06 0.109919)
(8.60245e-06 -3.05386e-06 0.0929905)
(-2.75117e-05 7.61751e-07 0.0985698)
(1.67567e-05 -2.47573e-07 0.0913985)
(-7.04183e-06 7.01742e-07 0.082196)
(1.21623e-05 -1.21833e-06 0.0822567)
(-4.83394e-06 -3.10288e-07 0.0913456)
(2.74719e-05 7.33888e-07 0.0985599)
(1.41e-05 2.52386e-06 0.10993)
(-8.60614e-06 -3.07709e-06 0.0929766)
(1.13175e-05 6.09822e-06 0.107495)
(1.42138e-05 2.55622e-06 0.109925)
(2.05825e-05 7.86955e-06 0.0930405)
(-7.93244e-06 4.21932e-07 0.0984987)
(1.67825e-05 3.56231e-07 0.0913979)
(-7.06764e-06 -6.44524e-07 0.0821964)
(1.21573e-05 1.21563e-06 0.0822563)
(-4.86423e-06 2.34318e-07 0.0913461)
(-7.83646e-06 -4.51028e-07 0.0985091)
(1.13969e-05 -6.15885e-06 0.107495)
(2.0608e-05 -7.86652e-06 0.0930559)
(1.44418e-05 -2.61169e-06 0.109915)
(-8.58707e-06 3.05556e-06 0.0929916)
(1.43238e-05 -2.59449e-06 0.109921)
(2.74877e-05 -6.88384e-07 0.0985706)
(-4.79961e-06 -3.04576e-07 0.0913614)
(1.21537e-05 -1.23654e-06 0.082274)
(-7.03392e-06 6.81924e-07 0.0822133)
(1.67526e-05 -2.39122e-07 0.0914143)
(-7.85763e-06 4.29998e-07 0.098509)
(1.13803e-05 6.12826e-06 0.107491)
(1.44269e-05 2.60963e-06 0.109915)
(2.05828e-05 7.88459e-06 0.0930551)
(1.43238e-05 2.56751e-06 0.10992)
(-8.58931e-06 -3.03835e-06 0.0929913)
(2.75008e-05 7.42631e-07 0.0985704)
(-4.83277e-06 2.42696e-07 0.0913619)
(1.21347e-05 1.24133e-06 0.0822737)
(-7.07106e-06 -6.13034e-07 0.0822138)
(1.67773e-05 3.643e-07 0.0914137)
(3.43149e-06 -3.46642e-06 0.0875192)
(3.39202e-06 -3.45777e-06 0.0875206)
(-4.18681e-05 4.18532e-05 0.104313)
(-1.00446e-05 6.96358e-06 0.0875758)
(-7.01735e-06 1.00075e-05 0.0875784)
(2.56976e-06 -4.3126e-06 0.071515)
(-3.36734e-06 5.91653e-06 0.0715766)
(-5.90129e-06 3.35112e-06 0.0715921)
(4.28392e-06 -2.59672e-06 0.0715311)
(2.37004e-05 -2.37478e-05 0.104198)
(-1.00225e-05 6.98266e-06 0.0875922)
(-7.04778e-06 9.98172e-06 0.0875947)
(3.43796e-06 -3.43591e-06 0.0875356)
(3.35605e-06 -3.47258e-06 0.0875371)
(-3.40377e-06 5.88478e-06 0.0715924)
(2.52735e-06 -4.32191e-06 0.0715308)
(6.74573e-07 2.74392e-05 0.0985598)
(2.53093e-06 1.40883e-05 0.10993)
(-3.10409e-06 -8.60994e-06 0.0929767)
(6.11579e-06 1.13384e-05 0.107496)
(2.55916e-06 1.42022e-05 0.109924)
(7.84894e-06 2.06209e-05 0.0930404)
(4.18082e-07 -7.9284e-06 0.0984981)
(-4.01341e-07 1.67422e-05 0.0913978)
(6.08967e-07 -7.09018e-06 0.0821959)
(-1.24113e-06 1.21397e-05 0.0822556)
(-2.53362e-07 -4.85563e-06 0.0913449)
(2.55166e-07 1.67267e-05 0.0913985)
(-6.99232e-07 -7.04215e-06 0.0821968)
(1.17608e-06 1.21836e-05 0.0822567)
(2.38133e-07 -4.82829e-06 0.0913447)
(-4.58332e-07 -7.86597e-06 0.0985083)
(-6.16878e-06 1.13766e-05 0.107493)
(-2.61954e-06 1.44144e-05 0.109914)
(-7.91543e-06 2.05728e-05 0.0930547)
(-2.59605e-06 1.43105e-05 0.109919)
(2.99488e-06 -8.62534e-06 0.0929913)
(-7.7998e-07 2.74705e-05 0.0985697)
(4.1199e-07 -7.84931e-06 0.0985085)
(6.14873e-06 1.1386e-05 0.107493)
(2.60578e-06 1.44196e-05 0.109914)
(7.84883e-06 2.06196e-05 0.093055)
(2.57364e-06 1.43109e-05 0.109919)
(-3.08373e-06 -8.58519e-06 0.0929914)
(6.6664e-07 2.74665e-05 0.0985701)
(-2.66296e-07 -4.82194e-06 0.0913607)
(-1.27022e-06 1.21155e-05 0.0822729)
(5.74037e-07 -7.08958e-06 0.0822133)
(-4.13013e-07 1.67372e-05 0.0914135)
(2.29571e-07 -4.79377e-06 0.0913605)
(1.1946e-06 1.21843e-05 0.082274)
(-6.84886e-07 -7.03484e-06 0.0822141)
(2.42599e-07 1.67218e-05 0.0914143)
(-4.29419e-06 -2.60154e-06 0.0715157)
(5.932e-06 3.3388e-06 0.0715775)
(-2.65516e-06 -4.2644e-06 0.0715158)
(3.30429e-06 5.95242e-06 0.0715774)
(-2.37204e-05 -2.37062e-05 0.104199)
(1.00195e-05 7.02787e-06 0.0875952)
(6.97725e-06 1.00474e-05 0.0875936)
(-3.4635e-06 -3.40044e-06 0.0875374)
(-3.45596e-06 -3.4282e-06 0.0875362)
(5.90535e-06 3.37334e-06 0.0715933)
(-4.30633e-06 -2.56085e-06 0.0715316)
(3.32561e-06 5.93124e-06 0.0715932)
(-2.6312e-06 -4.26774e-06 0.0715317)
(2.45983e-06 4.36159e-06 0.0715465)
(4.26107e-06 2.6299e-06 0.0715466)
(3.29714e-06 3.49536e-06 0.0875532)
(3.42431e-06 3.46662e-06 0.0875521)
(-5.60662e-07 7.05703e-06 0.0822299)
(2.44896e-07 4.81088e-06 0.0913776)
(2.95189e-06 8.62354e-06 0.0930052)
(-2.63104e-06 -1.45017e-05 0.10991)
(-4.70567e-07 7.80449e-06 0.098519)
(-2.97967e-06 8.58876e-06 0.093005)
(2.63812e-06 -1.45063e-05 0.10991)
(4.31198e-07 7.80591e-06 0.0985192)
(-3.37516e-06 3.44386e-06 0.0875518)
(-3.44935e-06 3.40136e-06 0.0875541)
(-4.28558e-06 2.57361e-06 0.0715469)
(8.56849e-06 3.08833e-06 0.0930058)
(-1.45244e-05 -2.61232e-06 0.10991)
(7.81307e-06 -4.11413e-07 0.0985191)
(7.08254e-06 -6.02661e-07 0.0822306)
(4.82668e-06 3.05998e-07 0.0913773)
(-1.45129e-05 2.637e-06 0.109909)
(8.58882e-06 -3.02398e-06 0.0930054)
(7.8203e-06 4.63116e-07 0.098519)
(1.67456e-05 -2.29805e-07 0.0914302)
(-7.04002e-06 6.65643e-07 0.0822307)
(-4.76938e-06 -2.99328e-07 0.0913773)
(2.7517e-05 7.53628e-07 0.0985809)
(1.453e-05 2.60475e-06 0.10991)
(-8.5762e-06 -3.00079e-06 0.0930061)
(1.14658e-05 6.24208e-06 0.107486)
(-7.78333e-06 4.39591e-07 0.0985196)
(1.4622e-05 2.66423e-06 0.109905)
(2.05797e-05 7.90485e-06 0.0930699)
(1.67674e-05 3.73809e-07 0.0914296)
(-7.08235e-06 -5.81653e-07 0.0822312)
(-4.80138e-06 2.51865e-07 0.0913778)
(1.21056e-05 1.26844e-06 0.082291)
(3.44423e-06 -3.4059e-06 0.0875521)
(3.31871e-06 -3.49156e-06 0.0875537)
(2.4854e-06 -4.335e-06 0.0715466)
(6.59842e-07 2.74882e-05 0.0985806)
(2.61479e-06 1.4511e-05 0.109909)
(-3.06283e-06 -8.56629e-06 0.0930062)
(6.23752e-06 1.15123e-05 0.107486)
(4.0546e-07 -7.77586e-06 0.0985191)
(2.64586e-06 1.46155e-05 0.109904)
(7.84617e-06 2.0619e-05 0.0930697)
(-4.27546e-07 1.67289e-05 0.0914294)
(5.41036e-07 -7.09934e-06 0.0822307)
(-2.79859e-07 -4.79436e-06 0.0913766)
(2.31072e-07 1.67175e-05 0.0914301)
(-6.70751e-07 -7.03565e-06 0.0822315)
(2.1644e-07 -4.76504e-06 0.0913763)
(1.19214e-06 1.21528e-05 0.0822913)
(-4.32103e-06 -2.52008e-06 0.0715474)
(5.87408e-06 3.4067e-06 0.0716091)
(-2.60607e-06 -4.27056e-06 0.0715475)
(3.33924e-06 5.90993e-06 0.0716089)
(-7.36751e-07 4.21022e-06 0.0768546)
(9.28838e-08 -7.52426e-06 0.0786717)
(-1.19682e-06 -1.61718e-05 0.0899192)
(-2.89464e-07 4.8556e-06 0.0913537)
(-2.24403e-07 3.79927e-06 0.078631)
(-6.02472e-07 5.38609e-06 0.0898694)
(4.9923e-07 -7.51354e-06 0.0769016)
(1.54039e-07 -6.12453e-06 0.0684394)
(-1.2286e-06 -1.21669e-05 0.0822469)
(-8.15929e-07 5.75571e-06 0.0857892)
(-1.43976e-06 -1.24495e-05 0.0858455)
(-9.07242e-07 4.90658e-06 0.0683783)
(-9.3077e-07 4.9073e-06 0.0683861)
(-1.45472e-06 -1.24364e-05 0.0858542)
(5.83959e-07 7.10224e-06 0.0822042)
(-8.34488e-07 5.75758e-06 0.0857979)
(1.34253e-07 -6.11473e-06 0.0684472)
(5.12157e-07 -7.51621e-06 0.076893)
(-3.31079e-07 -1.67964e-05 0.0913895)
(-2.20283e-07 3.80489e-06 0.0786223)
(-5.89389e-07 5.39998e-06 0.0898612)
(9.74129e-08 -7.52433e-06 0.078663)
(-1.18616e-06 -1.61752e-05 0.089911)
(-7.22487e-07 4.21621e-06 0.0768459)
(3.26141e-06 -5.91367e-06 0.0715711)
(-2.5417e-06 4.24923e-06 0.0715214)
(4.20879e-06 -6.35543e-07 0.0768547)
(-1.6181e-05 -1.10851e-06 0.0899194)
(-7.5234e-06 1.93548e-07 0.0786716)
(4.86568e-06 -2.32111e-07 0.0913535)
(5.39151e-06 -5.22103e-07 0.0898695)
(3.80273e-06 -1.43783e-07 0.0786309)
(-7.52912e-06 6.09407e-07 0.0769018)
(-6.15196e-06 2.64999e-07 0.06844)
(-1.22134e-05 -1.14009e-06 0.0822473)
(5.72026e-06 -7.09721e-07 0.0857896)
(-1.24872e-05 -1.34149e-06 0.0858459)
(4.88039e-06 -7.85572e-07 0.0683789)
(4.87802e-06 -7.94564e-07 0.0683867)
(-1.24793e-05 -1.34312e-06 0.0858546)
(7.03959e-06 6.97614e-07 0.0822048)
(5.71732e-06 -7.14658e-07 0.0857983)
(-6.14547e-06 2.59572e-07 0.0684478)
(-7.5302e-06 6.09301e-07 0.0768932)
(-1.6793e-05 -2.61726e-07 0.0913895)
(5.40787e-06 -5.20599e-07 0.0898613)
(3.80805e-06 -1.50298e-07 0.0786221)
(-1.61823e-05 -1.10921e-06 0.0899112)
(-7.52844e-06 1.87226e-07 0.0786629)
(4.21659e-06 -6.34024e-07 0.0768461)
(-5.93947e-06 3.30559e-06 0.0715684)
(4.28024e-06 -2.61318e-06 0.0715231)
(-3.05226e-06 -3.03836e-06 0.083591)
(3.60727e-06 5.18549e-06 0.0683575)
(5.144e-06 3.6443e-06 0.0683511)
(-2.6242e-06 -4.04643e-06 0.0683017)
(-4.07184e-06 -2.60054e-06 0.0682956)
(7.32633e-06 7.35175e-06 0.083637)
(1.69934e-05 1.04278e-05 0.0916943)
(-1.08503e-05 -5.43385e-06 0.0962506)
(1.00618e-05 6.98897e-06 0.0875707)
(-3.75985e-06 -3.00626e-06 0.0815266)
(2.42487e-05 1.43399e-05 0.0962998)
(8.1806e-06 4.04507e-06 0.0815786)
(-7.64862e-06 -3.68403e-06 0.0916464)
(1.04334e-05 1.70098e-05 0.0916875)
(-5.45976e-06 -1.08217e-05 0.0962481)
(6.96252e-06 1.0077e-05 0.0875691)
(-3.0472e-06 -3.7516e-06 0.0815221)
(1.43448e-05 2.42512e-05 0.0962971)
(4.03255e-06 8.22507e-06 0.081573)
(-3.71277e-06 -7.65255e-06 0.0916401)
(-7.65055e-06 -3.67637e-06 0.0916536)
(8.16456e-06 4.05351e-06 0.0815867)
(-3.45878e-06 -3.42018e-06 0.0875291)
(2.42301e-05 1.43445e-05 0.0963056)
(-1.08459e-05 -5.41496e-06 0.0962566)
(-3.76793e-06 -2.99343e-06 0.0815347)
(1.69684e-05 1.04226e-05 0.0917015)
(-3.70684e-06 -7.64993e-06 0.0916473)
(4.04296e-06 8.22547e-06 0.0815811)
(-3.46648e-06 -3.42728e-06 0.087528)
(1.43487e-05 2.42361e-05 0.096303)
(-5.4444e-06 -1.0811e-05 0.096254)
(-3.04483e-06 -3.76125e-06 0.0815301)
(1.04256e-05 1.69885e-05 0.0916947)
(7.33721e-06 7.35819e-06 0.0836292)
(-2.61993e-06 -4.05462e-06 0.0682947)
(-4.0751e-06 -2.60137e-06 0.0682886)
(3.61773e-06 5.18289e-06 0.0683505)
(5.1482e-06 3.65025e-06 0.0683442)
(-3.04973e-06 -3.04105e-06 0.0835832)
(7.77492e-08 -6.08267e-06 0.0684704)
(-8.88972e-07 5.76907e-06 0.0858239)
(-1.29041e-06 -1.21048e-05 0.0822815)
(-9.95385e-07 4.91186e-06 0.0684095)
(-1.5034e-06 -1.23899e-05 0.0858801)
(4.62415e-07 -7.492e-06 0.0769274)
(-3.46363e-07 -1.67844e-05 0.091421)
(-2.39653e-07 3.78254e-06 0.0786573)
(-6.40949e-07 5.35033e-06 0.0898942)
(-7.81487e-07 4.18669e-06 0.0768805)
(7.8045e-08 -7.50797e-06 0.0786978)
(-1.22861e-06 -1.61589e-05 0.0899438)
(3.31967e-06 -5.86121e-06 0.0716027)
(-6.12537e-06 2.42577e-07 0.0684712)
(5.71058e-06 -7.26267e-07 0.0858244)
(-1.21887e-05 -1.14919e-06 0.082282)
(4.86933e-06 -8.1895e-07 0.0684102)
(-1.24508e-05 -1.34664e-06 0.0858806)
(-7.52324e-06 6.09508e-07 0.0769276)
(-1.67907e-05 -2.3734e-07 0.0914211)
(5.34729e-06 -5.22425e-07 0.0898943)
(3.78521e-06 -1.23415e-07 0.0786572)
(4.18842e-06 -6.39397e-07 0.0768807)
(-1.61777e-05 -1.103e-06 0.0899441)
(-7.51796e-06 2.12328e-07 0.0786978)
(-5.88771e-06 3.36458e-06 0.0716)
(-3.05676e-06 -3.01913e-06 0.0836221)
(3.5629e-06 5.19733e-06 0.0683854)
(5.12449e-06 3.62568e-06 0.068379)
(-2.63251e-06 -4.02085e-06 0.0683297)
(-4.0653e-06 -2.58715e-06 0.0683236)
(7.28484e-06 7.34597e-06 0.0836682)
(1.69167e-05 1.04339e-05 0.0917231)
(-1.0825e-05 -5.35877e-06 0.0962745)
(-3.79309e-06 -2.95941e-06 0.0815591)
(1.00071e-05 7.04302e-06 0.0876034)
(-7.66043e-06 -3.65082e-06 0.0916753)
(2.41869e-05 1.4393e-05 0.0963236)
(8.12089e-06 4.08746e-06 0.0816108)
(1.04143e-05 1.6953e-05 0.0917163)
(-5.41031e-06 -1.07681e-05 0.096272)
(-3.02282e-06 -3.76043e-06 0.0815544)
(6.98349e-06 1.00452e-05 0.0876018)
(-3.69394e-06 -7.64369e-06 0.0916688)
(1.43599e-05 2.4223e-05 0.0963208)
(4.04022e-06 8.18316e-06 0.0816052)
(7.2975e-06 7.34599e-06 0.0836604)
(-2.63301e-06 -4.02645e-06 0.0683227)
(-4.06674e-06 -2.59497e-06 0.0683166)
(-3.0569e-06 -3.02791e-06 0.0836143)
(3.57586e-06 5.19493e-06 0.0683784)
(5.13103e-06 3.6319e-06 0.068372)
(-7.66154e-06 -3.64574e-06 0.0916826)
(8.10018e-06 4.09035e-06 0.0816189)
(-3.47922e-06 -3.34464e-06 0.0875621)
(2.4134e-05 1.43918e-05 0.0963296)
(-1.08242e-05 -5.33759e-06 0.0962807)
(-3.80014e-06 -2.95122e-06 0.0815672)
(1.68859e-05 1.04233e-05 0.0917303)
(-3.69642e-06 -7.63594e-06 0.0916761)
(4.03309e-06 8.16304e-06 0.0816133)
(-3.43008e-06 -3.42631e-06 0.0875609)
(1.43607e-05 2.42165e-05 0.0963268)
(-5.40423e-06 -1.07548e-05 0.0962781)
(-3.01571e-06 -3.75455e-06 0.0815625)
(1.04052e-05 1.69314e-05 0.0917235)
(-3.34277e-06 -5.9473e-06 0.071569)
(2.52976e-06 4.33942e-06 0.0715227)
(-5.98292e-06 -3.25534e-06 0.0715687)
(4.26039e-06 2.65579e-06 0.0715228)
(3.01951e-06 3.09245e-06 0.0835903)
(-5.20899e-06 -3.59159e-06 0.0683573)
(-3.67694e-06 -5.12166e-06 0.0683507)
(4.01328e-06 2.6611e-06 0.0683009)
(2.59011e-06 4.10345e-06 0.0682945)
(-7.38972e-06 -7.31242e-06 0.0836371)
(-1.04457e-05 -1.69579e-05 0.0916944)
(5.41297e-06 1.08553e-05 0.0962503)
(-6.9992e-06 -1.00217e-05 0.0875711)
(2.95349e-06 3.75844e-06 0.0815263)
(-4.05155e-06 -8.12622e-06 0.0815795)
(-1.43549e-05 -2.42031e-05 0.0962996)
(3.65927e-06 7.66122e-06 0.0916459)
(-1.70065e-05 -1.04021e-05 0.0916878)
(1.08e-05 5.46828e-06 0.0962477)
(-1.01059e-05 -6.92745e-06 0.0875689)
(3.73351e-06 3.0464e-06 0.081521)
(-8.23168e-06 -3.98404e-06 0.0815733)
(-2.42594e-05 -1.4315e-05 0.0962971)
(7.61857e-06 3.72298e-06 0.0916393)
(3.64766e-06 7.66554e-06 0.0916531)
(-4.06244e-06 -8.10714e-06 0.0815876)
(3.35898e-06 3.47227e-06 0.0875286)
(-1.43685e-05 -2.41868e-05 0.0963055)
(2.93753e-06 3.76937e-06 0.0815343)
(-1.04479e-05 -1.69343e-05 0.0917016)
(5.39155e-06 1.08507e-05 0.0962563)
(7.61356e-06 3.72224e-06 0.0916465)
(-8.21188e-06 -3.97351e-06 0.0815813)
(3.42843e-06 3.48467e-06 0.0875275)
(-2.42505e-05 -1.43165e-05 0.096303)
(3.72658e-06 3.03754e-06 0.0815291)
(-1.69934e-05 -1.03935e-05 0.091695)
(1.07865e-05 5.45621e-06 0.0962536)
(-7.38874e-06 -7.32449e-06 0.0836293)
(4.02413e-06 2.6547e-06 0.0682939)
(2.5939e-06 4.10224e-06 0.0682875)
(-5.20391e-06 -3.60482e-06 0.0683503)
(-3.67824e-06 -5.12865e-06 0.0683438)
(3.0255e-06 3.08679e-06 0.0835825)
(2.48265e-06 4.35321e-06 0.0715386)
(-3.38482e-06 -5.91539e-06 0.0715848)
(4.25987e-06 2.63808e-06 0.0715387)
(-5.96437e-06 -3.26951e-06 0.0715845)
(-7.38768e-06 -7.29886e-06 0.0836449)
(4.00133e-06 2.66727e-06 0.0683079)
(2.58502e-06 4.10459e-06 0.0683015)
(3.01089e-06 3.09697e-06 0.0835981)
(-5.2131e-06 -3.5798e-06 0.0683643)
(-3.67342e-06 -5.11263e-06 0.0683577)
(3.62275e-06 7.67403e-06 0.0916675)
(-1.43899e-05 -2.41481e-05 0.0963174)
(3.31599e-06 3.48692e-06 0.087545)
(-4.08317e-06 -8.06999e-06 0.0816037)
(2.90373e-06 3.78775e-06 0.0815505)
(5.35182e-06 1.08405e-05 0.0962682)
(-1.04521e-05 -1.689e-05 0.0917159)
(7.60046e-06 3.72307e-06 0.091661)
(-2.42308e-05 -1.43145e-05 0.0963149)
(3.42486e-06 3.47109e-06 0.0875439)
(-8.21599e-06 -3.98144e-06 0.0815974)
(3.72724e-06 3.03445e-06 0.0815453)
(1.07591e-05 5.43868e-06 0.0962656)
(-1.69696e-05 -1.03729e-05 0.0917093)
(-1.04505e-05 -1.69119e-05 0.0917087)
(2.92114e-06 3.77918e-06 0.0815424)
(5.37249e-06 1.08464e-05 0.0962622)
(-7.03071e-06 -9.98872e-06 0.0875874)
(3.63566e-06 7.66889e-06 0.0916603)
(-4.07232e-06 -8.08823e-06 0.0815957)
(-1.43793e-05 -2.41672e-05 0.0963114)
(-1.69809e-05 -1.0383e-05 0.0917021)
(3.72654e-06 3.03541e-06 0.0815372)
(1.0774e-05 5.44827e-06 0.0962596)
(-1.00915e-05 -6.93042e-06 0.0875852)
(7.6061e-06 3.72239e-06 0.0916537)
(-8.2186e-06 -3.98089e-06 0.0815893)
(-2.42401e-05 -1.43157e-05 0.0963089)
(3.00343e-06 3.10247e-06 0.0836059)
(-5.21791e-06 -3.56776e-06 0.0683712)
(-3.67122e-06 -5.10504e-06 0.0683647)
(3.98986e-06 2.67276e-06 0.0683149)
(2.58012e-06 4.10581e-06 0.0683086)
(-7.38763e-06 -7.28607e-06 0.0836526)
(6.88459e-07 4.19919e-06 0.0768546)
(-1.50827e-07 -7.52833e-06 0.0786717)
(1.15118e-06 -1.61816e-05 0.0899192)
(2.50493e-07 4.85471e-06 0.0913538)
(1.75331e-07 3.7964e-06 0.0786311)
(5.654e-07 5.38049e-06 0.0898701)
(-5.55549e-07 -7.51892e-06 0.0769014)
(-2.15799e-07 -6.13425e-06 0.0684418)
(1.15496e-06 -1.2171e-05 0.0822481)
(8.00649e-07 5.74263e-06 0.0857906)
(1.37109e-06 -1.2474e-05 0.0858463)
(8.71063e-07 4.89214e-06 0.068381)
(8.87819e-07 4.89081e-06 0.0683889)
(1.37979e-06 -1.24655e-05 0.085855)
(-5.9756e-07 7.0599e-06 0.0822039)
(8.1371e-07 5.74115e-06 0.0857992)
(-2.02471e-07 -6.12673e-06 0.0684496)
(-5.61779e-07 -7.51954e-06 0.0768928)
(2.93394e-07 -1.68014e-05 0.0913896)
(1.77294e-07 3.80322e-06 0.0786224)
(5.57294e-07 5.39846e-06 0.0898619)
(-1.47998e-07 -7.52845e-06 0.078663)
(1.14622e-06 -1.61832e-05 0.0899111)
(6.79619e-07 4.20853e-06 0.076846)
(4.87892e-07 -7.50472e-06 0.0769102)
(-2.29898e-07 3.79376e-06 0.0786398)
(-6.14962e-07 5.37226e-06 0.0898777)
(-3.38088e-07 -1.67915e-05 0.0914053)
(-7.50564e-07 4.2057e-06 0.0768633)
(8.75437e-08 -7.51832e-06 0.0786804)
(-1.2066e-06 -1.61671e-05 0.0899274)
(-9.72496e-07 4.91114e-06 0.0684017)
(5.48432e-07 7.11135e-06 0.0822216)
(-1.48679e-06 -1.24074e-05 0.0858714)
(9.62747e-08 -6.09443e-06 0.0684627)
(-8.70585e-07 5.76529e-06 0.0858152)
(1.16297e-07 -6.10347e-06 0.0684549)
(-8.52809e-07 5.76114e-06 0.0858065)
(-1.25968e-06 -1.21371e-05 0.0822642)
(-9.51564e-07 4.90902e-06 0.0683939)
(-1.4708e-06 -1.24209e-05 0.0858628)
(-7.66925e-07 4.189e-06 0.0768719)
(-2.98797e-07 4.825e-06 0.0913695)
(8.33085e-08 -7.51425e-06 0.0786891)
(-1.21769e-06 -1.61651e-05 0.0899356)
(4.76164e-07 -7.49113e-06 0.0769188)
(-2.35016e-07 3.78736e-06 0.0786485)
(-6.28088e-07 5.36071e-06 0.0898859)
(-5.46086e-07 -7.54113e-06 0.07691)
(1.73726e-07 3.79156e-06 0.0786399)
(5.72705e-07 5.36507e-06 0.0898783)
(2.89775e-07 -1.67974e-05 0.0914054)
(6.94878e-07 4.20237e-06 0.0768633)
(-1.56344e-07 -7.52361e-06 0.0786805)
(1.15527e-06 -1.6178e-05 0.0899274)
(9.2069e-07 4.88775e-06 0.0684045)
(-5.72268e-07 7.05679e-06 0.0822212)
(1.40063e-06 -1.24424e-05 0.0858723)
(8.37253e-07 5.74196e-06 0.0858166)
(-1.75402e-07 -6.1115e-06 0.0684652)
(-1.86832e-07 -6.11616e-06 0.0684574)
(8.26109e-07 5.7422e-06 0.0858079)
(1.17525e-06 -1.21485e-05 0.0822654)
(9.02804e-07 4.88974e-06 0.0683967)
(1.39044e-06 -1.24484e-05 0.0858636)
(7.02009e-07 4.20028e-06 0.0768719)
(2.47374e-07 4.82356e-06 0.0913696)
(-1.57518e-07 -7.51965e-06 0.0786892)
(1.1595e-06 -1.61793e-05 0.0899356)
(1.69892e-07 3.78424e-06 0.0786486)
(5.79687e-07 5.35222e-06 0.0898866)
(-5.4372e-07 -7.5185e-06 0.0769186)
(-3.03597e-06 3.04693e-06 0.0835907)
(5.17073e-06 -3.63373e-06 0.0683521)
(3.63981e-06 -5.15728e-06 0.0683575)
(-4.05435e-06 2.62792e-06 0.0682955)