/*--------------------------------*- C++ -*----------------------------------*\
| =========                 |                                                 |
| \\      /  F ield         | OpenFOAM: The Open Source CFD Toolbox           |
|  \\    /   O peration     | Version:  2312                                  |
|   \\  /    A nd           | Website:  www.openfoam.com                      |
|    \\/     M anipulation  |                                                 |
\*---------------------------------------------------------------------------*/
FoamFile
{
    version     2.0;
    format      ascii;
    arch        "LSB;label=32;scalar=64";
    class       volScalarField;
    location    "450";
    object      k;
}
// * * * * * * * * * * * * * * * * * * * * * * * * * * * * * * * * * * * * * //

dimensions      [0 2 -2 0 0 0 0];

internalField   nonuniform List<scalar> 
43008
(
1.571e-05
1.61158e-05
1.52903e-05
1.60664e-05
1.60669e-05
1.76143e-05
1.72542e-05
1.75304e-05
1.61151e-05
1.61153e-05
1.60679e-05
1.6068e-05
1.75302e-05
1.61154e-05
1.61149e-05
1.60681e-05
1.60677e-05
1.60679e-05
1.60677e-05
1.72546e-05
1.75298e-05
1.61157e-05
1.60684e-05
1.60684e-05
1.75183e-05
1.76052e-05
1.60665e-05
1.60666e-05
1.76043e-05
1.60667e-05
1.60663e-05
1.60662e-05
1.76043e-05
1.60671e-05
5.00988e-05
6.99082e-05
4.93382e-05
6.99375e-05
6.97728e-05
5.01008e-05
6.99095e-05
4.93378e-05
6.99386e-05
1.57099e-05
1.571e-05
1.57099e-05
1.53906e-05
1.53906e-05
1.53907e-05
1.53905e-05
2.60109e-05
1.60926e-05
4.29326e-05
1.53535e-05
6.9798e-05
6.9774e-05
2.60136e-05
1.54381e-05
4.24563e-05
1.60931e-05
2.5495e-05
1.53539e-05
4.29337e-05
1.73374e-05
5.77593e-05
5.77679e-05
5.19484e-05
6.99792e-05
5.12836e-05
7.00061e-05
6.97125e-05
6.96905e-05
5.19498e-05
6.99804e-05
5.12834e-05
7.00074e-05
1.52903e-05
1.52903e-05
1.52902e-05
2.76573e-05
4.38852e-05
1.51273e-05
1.60689e-05
2.711e-05
4.43338e-05
1.50598e-05
6.97137e-05
6.96916e-05
2.76603e-05
1.51278e-05
4.38888e-05
1.60694e-05
2.7112e-05
1.50603e-05
4.43351e-05
5.83115e-05
5.8321e-05
1.77291e-05
5.8568e-05
5.85782e-05
6.97958e-05
6.97718e-05
6.9798e-05
6.97742e-05
5.74664e-05
5.74799e-05
1.73511e-05
5.77589e-05
5.77719e-05
6.97297e-05
6.97527e-05
6.9732e-05
6.97551e-05
1.74103e-05
5.81769e-05
5.81895e-05
5.79038e-05
5.79162e-05
5.00987e-05
6.99041e-05
4.93379e-05
6.99332e-05
2.60163e-05
4.24538e-05
1.54375e-05
1.60924e-05
2.54886e-05
4.29343e-05
1.53533e-05
2.60166e-05
4.24573e-05
1.54374e-05
1.60927e-05
2.54904e-05
4.29361e-05
1.53532e-05
5.03451e-05
6.99729e-05
6.99444e-05
5.10583e-05
5.03446e-05
6.99685e-05
6.99402e-05
5.10579e-05
2.62872e-05
1.60792e-05
4.36458e-05
1.51982e-05
4.31824e-05
1.5274e-05
2.68292e-05
2.62868e-05
1.60794e-05
4.36497e-05
1.51981e-05
4.3186e-05
1.52739e-05
2.68308e-05
1.73498e-05
5.77668e-05
5.77613e-05
6.97721e-05
6.97309e-05
6.97539e-05
1.74121e-05
5.81845e-05
5.81794e-05
5.79114e-05
5.79061e-05
6.97301e-05
6.97528e-05
2.60183e-05
4.24593e-05
1.54375e-05
1.60927e-05
2.54875e-05
4.29377e-05
1.53534e-05
5.00989e-05
6.99045e-05
4.9337e-05
6.99337e-05
2.60139e-05
1.54371e-05
4.2457e-05
1.60923e-05
2.54871e-05
1.5353e-05
4.2934e-05
5.03448e-05
6.99739e-05
6.99457e-05
5.10599e-05
2.62863e-05
1.60794e-05
4.36513e-05
1.51983e-05
4.31879e-05
1.52741e-05
2.68301e-05
5.03437e-05
6.99691e-05
6.99408e-05
5.10582e-05
2.62861e-05
1.6079e-05
1.51978e-05
4.3647e-05
1.52736e-05
4.3186e-05
2.68284e-05
5.00829e-05
6.99362e-05
2.60168e-05
1.60922e-05
1.53534e-05
4.29338e-05
5.00929e-05
6.9933e-05
2.62889e-05
1.60792e-05
4.36465e-05
1.51983e-05
4.31828e-05
1.52741e-05
2.68223e-05
5.03519e-05
6.9971e-05
6.99429e-05
5.10436e-05
2.62866e-05
1.6079e-05
1.51983e-05
4.36446e-05
1.52741e-05
4.31829e-05
2.68304e-05
5.03473e-05
6.9968e-05
6.99397e-05
5.10522e-05
5.74755e-05
5.7468e-05
1.73505e-05
5.77674e-05
5.77613e-05
6.97961e-05
6.97722e-05
6.97321e-05
6.97551e-05
1.74113e-05
5.81852e-05
5.8179e-05
5.79119e-05
5.79058e-05
6.97302e-05
6.97531e-05
2.60216e-05
1.54379e-05
4.24581e-05
1.6093e-05
2.54905e-05
1.53538e-05
4.29391e-05
5.00923e-05
6.99078e-05
4.93455e-05
6.99369e-05
5.00917e-05
6.9905e-05
4.93447e-05
6.99343e-05
2.62928e-05
1.60798e-05
1.51987e-05
4.3646e-05
1.52746e-05
4.3185e-05
2.6826e-05
2.62869e-05
1.60798e-05
1.51987e-05
4.36502e-05
1.52745e-05
4.31874e-05
2.68316e-05
5.0352e-05
6.99722e-05
6.99441e-05
5.10507e-05
5.03512e-05
6.99695e-05
6.99413e-05
5.10501e-05
6.9772e-05
6.9774e-05
1.742e-05
5.81761e-05
5.81861e-05
5.79024e-05
5.79126e-05
6.97299e-05
6.97529e-05
6.9732e-05
6.97551e-05
6.97111e-05
6.96892e-05
6.97135e-05
6.96915e-05
5.83125e-05
5.83251e-05
1.77471e-05
5.85691e-05
5.85811e-05
5.19475e-05
6.99748e-05
5.12832e-05
7.00023e-05
2.76603e-05
4.38867e-05
1.51273e-05
1.60691e-05
2.71083e-05
4.43323e-05
1.50597e-05
2.76577e-05
4.38877e-05
1.51272e-05
1.6069e-05
2.71064e-05
4.4339e-05
1.50597e-05
5.83199e-05
5.83148e-05
1.77452e-05
5.85768e-05
5.85715e-05
6.97114e-05
6.96896e-05
2.7658e-05
4.38911e-05
1.51274e-05
1.60693e-05
2.7108e-05
4.43352e-05
1.50599e-05
5.19487e-05
6.99756e-05
5.12823e-05
7.00027e-05
2.76654e-05
1.51269e-05
4.38889e-05
1.60688e-05
2.71062e-05
1.50593e-05
4.43345e-05
5.19344e-05
6.99776e-05
5.12898e-05
7.00046e-05
2.76635e-05
1.51275e-05
4.38868e-05
1.60686e-05
2.71065e-05
1.50599e-05
4.43299e-05
5.1942e-05
6.99743e-05
5.12855e-05
7.00014e-05
5.83206e-05
5.83143e-05
1.77461e-05
5.85766e-05
5.85708e-05
6.97116e-05
6.96896e-05
2.76648e-05
1.51278e-05
4.38905e-05
1.60695e-05
2.71083e-05
1.50603e-05
4.43388e-05
5.19405e-05
6.99786e-05
5.12904e-05
7.00059e-05
5.19397e-05
6.99759e-05
5.12895e-05
7.00031e-05
6.97114e-05
6.96894e-05
6.97136e-05
6.96915e-05
6.97458e-05
4.98498e-05
6.90338e-05
5.70702e-05
6.90261e-05
5.68509e-05
6.9757e-05
7.11554e-05
7.30058e-05
6.99196e-05
7.11515e-05
7.31077e-05
6.9745e-05
4.95929e-05
6.90195e-05
5.64676e-05
6.97344e-05
6.90258e-05
5.66927e-05
7.11319e-05
7.32545e-05
6.99263e-05
7.31589e-05
7.11357e-05
6.97944e-05
6.97753e-05
6.97456e-05
4.98498e-05
5.70708e-05
6.90336e-05
5.68505e-05
6.90258e-05
6.97568e-05
7.11553e-05
7.30053e-05
6.99207e-05
7.11514e-05
7.31041e-05
6.97449e-05
4.9595e-05
5.6467e-05
6.90193e-05
6.97343e-05
5.66932e-05
6.90255e-05
7.11318e-05
7.3252e-05
6.99276e-05
7.31572e-05
7.11355e-05
6.97955e-05
6.97764e-05
8.65111e-05
7.26171e-05
7.2611e-05
7.26163e-05
7.26103e-05
8.66075e-05
5.44795e-05
5.75397e-05
3.58135e-05
6.84888e-05
5.45453e-05
5.75487e-05
3.58292e-05
6.85e-05
8.64616e-05
7.26398e-05
7.26337e-05
5.47243e-05
6.85369e-05
5.7688e-05
3.62417e-05
3.61039e-05
6.8505e-05
5.48368e-05
5.47914e-05
6.85484e-05
5.7698e-05
3.62597e-05
3.61243e-05
6.85168e-05
5.49022e-05
6.97979e-05
5.17273e-05
6.90948e-05
5.84328e-05
6.90815e-05
5.82362e-05
6.98101e-05
7.10757e-05
7.35697e-05
6.99897e-05
7.10723e-05
7.36605e-05
6.97965e-05
5.15117e-05
6.90634e-05
5.79115e-05
6.97843e-05
6.90764e-05
5.81134e-05
7.10523e-05
7.3781e-05
6.99959e-05
7.36949e-05
7.10555e-05
6.97105e-05
6.96922e-05
6.97975e-05
5.1727e-05
5.84328e-05
6.90948e-05
5.82355e-05
6.90813e-05
6.98098e-05
7.10755e-05
7.35739e-05
6.99909e-05
7.10722e-05
7.36557e-05
6.97961e-05
5.15135e-05
5.79108e-05
6.90631e-05
6.97839e-05
5.81135e-05
6.90763e-05
7.10522e-05
7.37761e-05
6.99971e-05
7.36976e-05
7.10555e-05
6.97117e-05
6.96935e-05
8.70518e-05
7.25265e-05
7.25204e-05
7.25259e-05
7.25199e-05
8.71366e-05
5.58362e-05
3.73704e-05
6.86437e-05
5.83757e-05
5.5736e-05
3.75035e-05
6.8672e-05
5.5905e-05
3.73899e-05
6.86556e-05
5.83856e-05
5.58023e-05
3.75233e-05
6.86839e-05
8.7012e-05
7.25485e-05
7.25424e-05
8.69263e-05
7.25491e-05
7.2543e-05
5.6054e-05
6.87136e-05
5.85052e-05
3.79126e-05
3.77814e-05
6.86869e-05
5.61503e-05
5.61195e-05
6.87254e-05
5.85148e-05
3.7933e-05
3.78008e-05
6.86989e-05
5.62192e-05
6.97935e-05
6.9774e-05
6.97956e-05
6.97765e-05
8.6516e-05
7.26181e-05
7.26119e-05
7.26173e-05
7.26111e-05
8.66107e-05
5.44789e-05
3.56717e-05
6.84567e-05
5.7539e-05
5.43668e-05
6.84885e-05
3.581e-05
5.45449e-05
3.56883e-05
6.84694e-05
5.75527e-05
5.44338e-05
6.85008e-05
3.58305e-05
8.64646e-05
7.26399e-05
7.26337e-05
8.63648e-05
7.26409e-05
7.26346e-05
5.47245e-05
6.85365e-05
5.76886e-05
3.62394e-05
6.8506e-05
5.4833e-05
3.61039e-05
5.47912e-05
6.85489e-05
5.77017e-05
3.62608e-05
6.85186e-05
5.4901e-05
3.61192e-05
6.97317e-05
6.97506e-05
6.97341e-05
6.97529e-05
8.67514e-05
7.25946e-05
7.25884e-05
8.66595e-05
7.25953e-05
7.25891e-05
5.54085e-05
3.70842e-05
5.81118e-05
6.86286e-05
6.86e-05
3.69534e-05
5.55102e-05
5.54754e-05
3.71053e-05
5.81238e-05
6.86413e-05
6.86127e-05
3.69669e-05
5.55788e-05
5.51753e-05
6.85538e-05
3.65307e-05
5.79718e-05
5.50717e-05
6.85837e-05
3.66654e-05
5.52432e-05
6.85666e-05
3.65463e-05
5.79843e-05
5.51382e-05
6.85961e-05
3.66861e-05
8.67982e-05
7.25726e-05
7.25664e-05
7.25719e-05
7.25657e-05
8.68865e-05
6.97445e-05
4.98494e-05
6.90333e-05
5.70682e-05
6.90255e-05
5.68468e-05
6.97557e-05
7.11535e-05
7.29847e-05
6.99152e-05
7.11498e-05
7.30878e-05
6.97438e-05
4.95931e-05
6.90189e-05
5.64634e-05
6.90251e-05
6.97333e-05
5.66913e-05
7.11301e-05
7.32362e-05
6.99221e-05
7.31373e-05
7.11337e-05
6.97697e-05
6.90354e-05
5.72195e-05
5.05872e-05
6.9758e-05
6.90453e-05
5.74326e-05
7.10924e-05
6.99621e-05
7.3532e-05
7.10958e-05
7.34414e-05
7.11159e-05
7.3304e-05
6.99559e-05
7.11123e-05
7.33987e-05
6.9771e-05
5.08229e-05
6.90597e-05
5.77801e-05
6.9783e-05
6.90479e-05
5.75726e-05
6.97683e-05
6.90348e-05
5.72149e-05
5.0587e-05
6.97567e-05
6.90448e-05
5.74305e-05
7.10903e-05
6.99579e-05
7.3511e-05
7.34231e-05
7.10936e-05
7.11137e-05
7.32823e-05
6.99515e-05
7.11102e-05
7.33779e-05
6.97695e-05
5.08224e-05
6.90592e-05
5.77777e-05
6.90473e-05
5.75683e-05
6.97815e-05
8.65124e-05
7.26122e-05
7.26175e-05
7.26113e-05
7.26166e-05
8.66134e-05
5.45495e-05
5.75472e-05
6.85007e-05
3.5829e-05
5.44826e-05
5.75417e-05
3.58087e-05
6.84908e-05
8.64674e-05
7.26349e-05
7.26402e-05
5.47892e-05
6.85488e-05
5.76967e-05
3.62591e-05
6.85146e-05
3.6123e-05
5.49056e-05
5.47189e-05
6.8539e-05
5.76911e-05
3.62386e-05
3.61039e-05
6.85046e-05
5.48357e-05
6.97936e-05
6.9774e-05
6.9733e-05
6.97517e-05
8.67536e-05
7.25887e-05
7.2594e-05
8.66574e-05
7.25895e-05
7.25948e-05
5.54727e-05
3.7105e-05
5.81187e-05
6.86411e-05
3.69722e-05
6.86085e-05
5.5581e-05
5.54046e-05
3.70871e-05
5.81139e-05
6.86309e-05
6.85983e-05
3.69514e-05
5.55135e-05
5.52484e-05
6.85626e-05
3.655e-05
5.79797e-05
3.66839e-05
5.51353e-05
6.85956e-05
5.51794e-05
6.85523e-05
3.65305e-05
5.7974e-05
5.50668e-05
6.85856e-05
3.66653e-05
8.67953e-05
7.25669e-05
7.25721e-05
7.25661e-05
7.25714e-05
8.68882e-05
6.97319e-05
6.97509e-05
6.97435e-05
4.98488e-05
6.90327e-05
5.70646e-05
6.90249e-05
5.68457e-05
6.97548e-05
7.11528e-05
7.2981e-05
6.99158e-05
7.11488e-05
7.30837e-05
6.97427e-05
4.95934e-05
6.90182e-05
5.64621e-05
6.90245e-05
6.97321e-05
5.66875e-05
7.11294e-05
7.32293e-05
6.99226e-05
7.31351e-05
7.11331e-05
6.97694e-05
5.72189e-05
6.90351e-05
5.05892e-05
6.97578e-05
5.7433e-05
6.90452e-05
7.10921e-05
6.99633e-05
7.35294e-05
7.10956e-05
7.34408e-05
7.11156e-05
7.33048e-05
6.99569e-05
7.1112e-05
7.33947e-05
6.97706e-05
5.08227e-05
5.77802e-05
6.90596e-05
6.97826e-05
5.75721e-05
6.90476e-05
6.97677e-05
6.90343e-05
5.72139e-05
5.05873e-05
6.97559e-05
6.90443e-05
5.74269e-05
7.109e-05
6.99587e-05
7.35045e-05
7.34225e-05
7.10935e-05
7.11134e-05
7.32798e-05
6.99521e-05
7.11097e-05
7.33735e-05
6.97689e-05
5.08216e-05
6.90588e-05
5.77741e-05
6.9047e-05
5.75673e-05
6.9781e-05
6.97435e-05
4.98581e-05
5.70484e-05
6.90322e-05
5.68596e-05
6.90245e-05
6.97545e-05
7.11288e-05
7.32437e-05
6.99253e-05
7.31474e-05
7.11332e-05
6.97435e-05
4.98531e-05
6.90322e-05
5.70634e-05
6.90244e-05
5.68478e-05
6.97546e-05
7.11293e-05
7.32306e-05
6.99223e-05
7.3135e-05
7.11329e-05
6.97671e-05
5.72265e-05
6.90338e-05
5.05718e-05
6.97557e-05
5.74114e-05
6.90437e-05
7.10891e-05
6.99607e-05
7.35188e-05
7.34326e-05
7.10933e-05
7.11133e-05
7.32939e-05
6.99541e-05
7.1109e-05
7.33841e-05
6.97684e-05
5.08296e-05
5.77598e-05
6.90582e-05
5.75793e-05
6.90461e-05
6.97803e-05
6.97672e-05
6.90337e-05
5.72153e-05
5.05811e-05
6.97556e-05
6.90438e-05
5.74255e-05
7.10895e-05
6.99575e-05
7.35036e-05
7.34198e-05
7.10928e-05
7.11129e-05
7.32811e-05
6.9951e-05
7.11095e-05
7.33701e-05
6.97684e-05
5.08251e-05
6.90583e-05
5.77729e-05
6.90461e-05
5.75684e-05
6.97804e-05
8.65119e-05
7.26122e-05
7.26177e-05
7.26115e-05
7.26169e-05
8.66092e-05
5.45467e-05
3.56885e-05
6.84667e-05
5.75487e-05
6.85001e-05
5.44347e-05
3.58333e-05
5.44797e-05
3.56729e-05
6.8457e-05
5.75417e-05
3.58113e-05
5.43653e-05
6.84889e-05
8.64625e-05
7.2634e-05
7.26395e-05
7.26349e-05
8.63615e-05
7.26404e-05
5.47931e-05
6.85482e-05
5.76972e-05
3.62619e-05
6.85162e-05
3.61209e-05
5.49018e-05
5.47235e-05
6.8537e-05
5.76904e-05
3.62398e-05
3.61039e-05
6.85063e-05
5.48341e-05
6.97938e-05
6.97744e-05
6.97342e-05
6.97529e-05
8.6749e-05
7.25888e-05
7.25943e-05
8.66568e-05
7.25895e-05
7.2595e-05
5.54774e-05
3.71076e-05
5.81196e-05
6.86402e-05
3.69694e-05
6.86106e-05
5.55807e-05
5.54086e-05
3.70848e-05
5.81136e-05
6.86302e-05
6.85991e-05
3.69536e-05
5.55114e-05
5.52451e-05
6.85638e-05
3.65485e-05
5.79797e-05
3.66878e-05
5.51402e-05
6.85952e-05
5.51765e-05
6.8554e-05
3.65312e-05
5.79744e-05
5.5071e-05
6.85846e-05
3.66662e-05
8.67952e-05
7.25668e-05
7.25723e-05
7.25662e-05
7.25716e-05
8.68839e-05
6.97322e-05
6.97511e-05
6.97448e-05
4.9857e-05
5.70664e-05
6.90332e-05
5.6852e-05
6.90255e-05
6.97559e-05
7.11543e-05
7.30005e-05
6.9919e-05
7.30988e-05
7.11505e-05
6.9744e-05
4.9587e-05
5.64688e-05
6.90189e-05
5.66889e-05
6.97336e-05
6.90251e-05
7.11309e-05
7.32472e-05
6.99258e-05
7.31526e-05
7.11345e-05
6.97442e-05
4.98561e-05
5.70646e-05
6.9033e-05
5.68466e-05
6.90253e-05
6.97553e-05
7.11533e-05
7.29769e-05
6.99163e-05
7.11495e-05
7.30884e-05
6.97435e-05
4.95864e-05
5.64634e-05
6.90187e-05
6.9733e-05
5.66878e-05
6.90249e-05
7.11298e-05
7.3235e-05
6.99231e-05
7.31308e-05
7.11335e-05
6.97686e-05
5.72201e-05
6.90347e-05
5.05803e-05
6.9757e-05
5.74286e-05
6.90447e-05
7.10913e-05
6.99617e-05
7.35237e-05
7.34385e-05
7.10946e-05
7.11146e-05
7.32995e-05
6.99552e-05
7.11112e-05
7.33894e-05
6.97698e-05
5.08296e-05
5.7776e-05
6.90591e-05
5.75729e-05
6.90472e-05
6.97817e-05
6.97679e-05
5.72146e-05
6.90345e-05
5.05795e-05
6.97563e-05
5.74267e-05
6.90444e-05
7.10901e-05
6.99588e-05
7.35119e-05
7.34134e-05
7.10936e-05
7.11136e-05
7.32761e-05
6.99524e-05
7.11099e-05
7.33771e-05
6.97691e-05
5.08288e-05
5.77743e-05
6.90589e-05
5.75679e-05
6.9047e-05
6.97811e-05
6.97936e-05
6.97743e-05
6.97955e-05
6.97764e-05
8.67479e-05
7.25937e-05
7.25877e-05
8.66548e-05
7.25945e-05
7.25884e-05
5.54084e-05
3.7087e-05
5.811e-05
6.86285e-05
5.55127e-05
3.69532e-05
6.8599e-05
5.54756e-05
3.71055e-05
5.81196e-05
6.86404e-05
5.55802e-05
3.69731e-05
6.86109e-05
5.5179e-05
6.85526e-05
3.65306e-05
5.79713e-05
5.50708e-05
3.66664e-05
6.85837e-05
5.52457e-05
6.85643e-05
3.65509e-05
5.79808e-05
5.51383e-05
3.66861e-05
6.85954e-05
8.67931e-05
7.25718e-05
7.25657e-05
8.68828e-05
7.25711e-05
7.2565e-05
6.9732e-05
6.97508e-05
6.97342e-05
6.97529e-05
6.97093e-05
6.96909e-05
6.97115e-05
6.96932e-05
8.70561e-05
7.25273e-05
7.25212e-05
7.25267e-05
7.25205e-05
8.71409e-05
5.58344e-05
3.73695e-05
6.86443e-05
5.83762e-05
5.57347e-05
6.86722e-05
3.75003e-05
5.59024e-05
3.73857e-05
6.8657e-05
5.83889e-05
5.58018e-05
6.86849e-05
3.75216e-05
8.70157e-05
7.25493e-05
7.25431e-05
8.69303e-05
7.25499e-05
7.25437e-05
5.60526e-05
6.8714e-05
5.85073e-05
3.79099e-05
6.86877e-05
5.61494e-05
3.7781e-05
5.61196e-05
6.87266e-05
5.85189e-05
3.79335e-05
6.87003e-05
5.62185e-05
3.77964e-05
6.97962e-05
5.17274e-05
6.90964e-05
5.84301e-05
6.90791e-05
5.82318e-05
6.98086e-05
7.10735e-05
7.35538e-05
6.99858e-05
7.10702e-05
7.36377e-05
6.97949e-05
5.15113e-05
6.90625e-05
5.79071e-05
6.90765e-05
6.97827e-05
5.81109e-05
7.10501e-05
7.37588e-05
6.99918e-05
7.36776e-05
7.10533e-05
8.70545e-05
7.25216e-05
7.25269e-05
7.25209e-05
7.25262e-05
8.71422e-05
5.59066e-05
3.7388e-05
6.86534e-05
5.83844e-05
6.86845e-05
5.58013e-05
3.75235e-05
5.58382e-05
3.73667e-05
6.86431e-05
5.83777e-05
3.75012e-05
5.57316e-05
6.86745e-05
8.70173e-05
7.25435e-05
7.25487e-05
7.25441e-05
8.69283e-05
7.25494e-05
5.61175e-05
6.8727e-05
5.85135e-05
3.79346e-05
6.86964e-05
3.7797e-05
5.6225e-05
5.60496e-05
6.87167e-05
5.85088e-05
3.79113e-05
3.77789e-05
6.86861e-05
5.6149e-05
6.97097e-05
6.96911e-05
6.97961e-05
5.17256e-05
6.90941e-05
5.84266e-05
6.90809e-05
5.82311e-05
6.98085e-05
7.10736e-05
7.35517e-05
6.99864e-05
7.10702e-05
7.3633e-05
6.97947e-05
5.15119e-05
6.90626e-05
5.79065e-05
6.90757e-05
6.97824e-05
5.81073e-05
7.10503e-05
7.37511e-05
6.99929e-05
7.36789e-05
7.10535e-05
6.97952e-05
5.17328e-05
5.84137e-05
6.90953e-05
5.82412e-05
6.90776e-05
6.98074e-05
7.10732e-05
7.35639e-05
6.99882e-05
7.36469e-05
7.10692e-05
6.97938e-05
5.14978e-05
5.79172e-05
6.90611e-05
5.80938e-05
6.97817e-05
6.90755e-05
7.10491e-05
7.37691e-05
6.99947e-05
7.36865e-05
7.10531e-05
6.97952e-05
5.17289e-05
6.90955e-05
5.84254e-05
6.90774e-05
5.82315e-05
6.98075e-05
7.10727e-05
7.35505e-05
6.99851e-05
7.10695e-05
7.3631e-05
6.97939e-05
5.15059e-05
6.9061e-05
5.79069e-05
6.97816e-05
6.90756e-05
5.81062e-05
7.10494e-05
7.37501e-05
6.99914e-05
7.3676e-05
7.10525e-05
8.70547e-05
7.25215e-05
7.2527e-05
7.2521e-05
7.25264e-05
8.7136e-05
5.5904e-05
3.73878e-05
6.86551e-05
5.83847e-05
6.86837e-05
5.58037e-05
3.75254e-05
5.5835e-05
3.73704e-05
6.86425e-05
5.83784e-05
3.75009e-05
5.57353e-05
6.86744e-05
8.70123e-05
7.25435e-05
7.2549e-05
7.25441e-05
8.69277e-05
7.25496e-05
5.61225e-05
6.87255e-05
5.85148e-05
3.79346e-05
6.86985e-05
3.77975e-05
5.62172e-05
5.60533e-05
6.87166e-05
5.85091e-05
3.79103e-05
3.7782e-05
6.8686e-05
5.61504e-05
6.97098e-05
6.96914e-05
6.97966e-05
5.17344e-05
5.8429e-05
6.90963e-05
5.82362e-05
6.90788e-05
6.98089e-05
7.10746e-05
7.35702e-05
6.99894e-05
7.36506e-05
7.10714e-05
6.97952e-05
5.15042e-05
5.79117e-05
6.90623e-05
5.81094e-05
6.97831e-05
6.90764e-05
7.10514e-05
7.37698e-05
6.99956e-05
7.36958e-05
7.10545e-05
6.97958e-05
5.17335e-05
5.84267e-05
6.90961e-05
5.82312e-05
6.90786e-05
6.98082e-05
7.10736e-05
7.35469e-05
6.99867e-05
7.10702e-05
7.36389e-05
6.97946e-05
5.15035e-05
5.79065e-05
6.90621e-05
6.97823e-05
5.81074e-05
6.90762e-05
7.10502e-05
7.376e-05
6.9993e-05
7.36708e-05
7.10535e-05
6.97094e-05
6.96911e-05
6.97116e-05
6.96934e-05
1.59855e-05
1.59858e-05
1.56004e-05
1.5859e-05
1.58593e-05
1.62835e-05
1.64158e-05
3.44316e-05
1.72603e-05
2.26294e-05
2.26315e-05
1.54942e-05
1.54945e-05
1.51929e-05
1.53772e-05
1.53775e-05
1.57731e-05
1.5898e-05
3.61895e-05
2.36784e-05
2.36858e-05
1.76205e-05
3.60535e-05
2.37521e-05
2.37538e-05
3.44279e-05
2.25511e-05
2.2554e-05
1.72678e-05
3.42931e-05
2.2639e-05
2.26432e-05
3.56212e-05
1.75025e-05
2.34718e-05
2.34763e-05
2.33775e-05
2.33779e-05
3.57516e-05
3.44381e-05
1.72707e-05
2.26446e-05
2.26268e-05
3.56125e-05
1.75029e-05
2.34599e-05
2.34729e-05
2.33968e-05
2.33791e-05
3.57553e-05
3.4426e-05
2.25506e-05
2.2564e-05
1.7272e-05
2.26258e-05
3.42948e-05
2.26462e-05
3.56208e-05
1.7502e-05
2.34815e-05
2.34593e-05
2.33785e-05
2.33917e-05
3.57526e-05
3.56213e-05
1.75138e-05
2.34611e-05
2.34612e-05
3.57548e-05
2.33899e-05
2.33959e-05
3.61873e-05
2.36677e-05
2.36712e-05
1.76334e-05
3.60523e-05
2.37657e-05
2.37713e-05
3.61885e-05
2.36839e-05
2.36697e-05
1.76321e-05
2.37602e-05
3.60509e-05
2.37502e-05
3.61871e-05
2.36699e-05
2.36806e-05
1.76331e-05
2.37469e-05
3.60529e-05
2.37713e-05
1.59854e-05
1.59857e-05
1.56003e-05
1.5859e-05
1.58593e-05
1.62835e-05
1.64157e-05
1.59854e-05
1.59858e-05
1.56004e-05
1.5859e-05
1.58594e-05
1.62835e-05
1.64157e-05
1.59854e-05
1.59857e-05
1.56002e-05
1.5859e-05
1.58593e-05
1.62834e-05
1.64156e-05
1.54941e-05
1.56134e-05
1.56137e-05
1.57351e-05
1.57354e-05
1.61532e-05
1.60247e-05
1.54941e-05
1.56134e-05
1.56137e-05
1.5735e-05
1.57353e-05
1.61531e-05
1.60246e-05
1.54942e-05
1.56134e-05
1.56138e-05
1.5735e-05
1.57355e-05
1.61531e-05
1.60246e-05
1.5494e-05
1.56133e-05
1.56137e-05
1.5735e-05
1.57354e-05
1.61531e-05
1.60245e-05
1.82993e-05
2.58883e-05
3.01477e-05
1.69911e-05
3.00162e-05
1.69785e-05
1.83158e-05
2.0718e-05
3.69341e-05
4.28221e-05
2.53543e-05
2.5267e-05
3.68224e-05
2.07584e-05
1.8289e-05
2.5891e-05
1.70037e-05
3.0152e-05
1.69707e-05
3.00211e-05
1.83345e-05
2.05719e-05
2.49504e-05
3.64079e-05
4.25698e-05
2.05028e-05
2.50421e-05
3.65299e-05
1.82025e-05
2.5616e-05
1.68842e-05
2.95962e-05
1.81602e-05
1.69134e-05
2.97261e-05
2.07049e-05
3.69405e-05
4.28238e-05
2.53564e-05
2.52664e-05
3.68212e-05
2.0773e-05
3.47392e-05
1.73338e-05
2.2894e-05
2.29012e-05
2.28322e-05
2.28361e-05
3.48764e-05
1.54942e-05
1.54944e-05
1.51929e-05
1.53771e-05
1.53774e-05
1.5773e-05
1.58979e-05
1.54941e-05
1.54946e-05
1.51929e-05
1.53771e-05
1.53775e-05
1.5773e-05
1.58979e-05
1.54942e-05
1.54945e-05
1.51928e-05
1.53771e-05
1.53775e-05
1.57729e-05
1.58978e-05
1.88989e-05
2.75264e-05
3.18594e-05
1.74271e-05
3.17244e-05
1.74082e-05
1.89192e-05
2.14107e-05
2.62373e-05
3.80375e-05
4.3995e-05
2.13713e-05
2.63339e-05
3.81479e-05
1.87586e-05
2.72387e-05
3.12993e-05
1.72867e-05
1.87374e-05
3.14318e-05
1.73056e-05
2.16017e-05
3.85585e-05
4.42259e-05
2.66693e-05
2.65689e-05
3.84276e-05
2.16428e-05
1.88829e-05
2.75279e-05
1.7448e-05
3.18624e-05
1.73977e-05
3.17286e-05
1.89464e-05
2.14286e-05
2.62388e-05
3.80388e-05
4.39936e-05
2.13562e-05
2.63304e-05
3.81505e-05
1.8774e-05
2.72416e-05
1.72775e-05
3.1302e-05
1.8723e-05
1.73209e-05
3.14347e-05
2.15851e-05
3.85461e-05
4.42287e-05
2.66644e-05
2.65714e-05
3.84364e-05
2.16691e-05
3.64834e-05
1.77236e-05
2.40483e-05
2.40494e-05
2.39748e-05
2.39798e-05
3.66153e-05
3.47401e-05
1.73269e-05
2.29153e-05
2.29157e-05
3.48709e-05
2.28207e-05
2.2824e-05
3.53107e-05
1.74337e-05
2.30947e-05
2.30995e-05
3.51818e-05
2.31845e-05
2.31914e-05
1.82891e-05
2.58841e-05
3.01565e-05
1.70016e-05
3.0013e-05
1.69699e-05
1.8334e-05
2.05716e-05
2.49517e-05
3.64093e-05
4.25692e-05
3.6528e-05
2.05074e-05
2.50412e-05
1.82018e-05
2.5619e-05
2.95903e-05
1.68835e-05
2.97307e-05
1.81603e-05
1.69116e-05
2.07091e-05
3.6937e-05
4.28212e-05
2.53545e-05
3.68228e-05
2.52677e-05
2.0773e-05
1.83015e-05
2.58834e-05
3.01533e-05
1.70002e-05
3.00137e-05
1.69708e-05
1.8319e-05
2.0555e-05
2.49472e-05
3.64083e-05
4.25711e-05
2.05191e-05
3.6522e-05
2.50556e-05
1.81878e-05
2.56186e-05
2.95892e-05
1.68841e-05
1.8173e-05
2.97278e-05
1.69103e-05
2.07195e-05
3.69345e-05
4.28254e-05
2.53713e-05
3.6819e-05
2.07583e-05
2.52645e-05
1.84741e-05
3.04414e-05
1.70641e-05
2.64226e-05
1.84284e-05
3.05827e-05
1.70979e-05
2.11353e-05
2.6001e-05
4.35385e-05
3.77501e-05
2.59125e-05
3.76403e-05
2.12028e-05
2.09854e-05
3.72324e-05
2.55875e-05
4.3294e-05
2.56748e-05
2.09181e-05
3.73442e-05
1.85724e-05
2.66933e-05
3.101e-05
1.72035e-05
3.0869e-05
1.71662e-05
1.86197e-05
1.84599e-05
3.0441e-05
1.70649e-05
2.64217e-05
1.84408e-05
3.05828e-05
1.70965e-05
2.11461e-05
2.60149e-05
4.354e-05
3.77451e-05
3.76351e-05
2.59072e-05
2.11876e-05
2.09657e-05
3.72279e-05
2.55823e-05
4.32977e-05
2.09285e-05
3.73439e-05
2.56877e-05
1.85863e-05
2.66932e-05
3.10084e-05
1.72023e-05
3.08666e-05
1.71674e-05
1.86064e-05
3.47308e-05
1.73305e-05
2.2899e-05
2.29156e-05
2.28192e-05
2.28372e-05
3.48823e-05
3.53226e-05
1.74317e-05
2.31127e-05
2.30963e-05
2.31781e-05
3.51734e-05
2.31854e-05
1.82911e-05
2.5884e-05
3.01518e-05
1.69911e-05
3.00193e-05
1.69781e-05
1.83358e-05
2.05741e-05
2.49472e-05
3.64123e-05
4.2575e-05
3.65272e-05
2.0505e-05
2.50547e-05
1.8203e-05
2.56193e-05
2.95947e-05
1.68901e-05
2.97258e-05
1.81609e-05
1.69025e-05
2.07075e-05
3.69391e-05
4.28263e-05
2.53695e-05
3.68236e-05
2.52635e-05
2.07752e-05
1.82874e-05
2.58835e-05
1.69903e-05
3.01501e-05
1.69772e-05
3.00105e-05
1.83313e-05
2.05643e-05
2.49566e-05
3.64015e-05
4.25708e-05
2.05044e-05
3.65192e-05
2.50433e-05
1.81994e-05
2.56165e-05
1.68893e-05
2.95843e-05
1.81583e-05
1.69018e-05
2.97252e-05
2.07061e-05
3.69273e-05
4.28247e-05
2.53579e-05
3.68155e-05
2.07655e-05
2.52708e-05
1.84767e-05
3.04462e-05
1.70719e-05
2.64204e-05
1.8431e-05
3.05786e-05
1.70872e-05
2.11337e-05
2.60102e-05
4.35423e-05
3.77519e-05
2.59074e-05
3.76387e-05
2.12063e-05
2.09893e-05
3.72326e-05
2.55835e-05
4.33e-05
2.56874e-05
2.09169e-05
3.73495e-05
1.85741e-05
2.66953e-05
3.10054e-05
1.71917e-05
3.08743e-05
1.71757e-05
1.86216e-05
1.84722e-05
1.7071e-05
3.04384e-05
2.64185e-05
1.84275e-05
1.70866e-05
3.05759e-05
2.1132e-05
2.60053e-05
4.35409e-05
3.77423e-05
3.763e-05
2.59154e-05
2.11965e-05
2.09787e-05
3.72247e-05
2.55899e-05
4.32964e-05
2.09152e-05
3.73386e-05
2.56814e-05
1.85708e-05
2.66935e-05
1.7191e-05
3.10053e-05
1.71745e-05
3.08668e-05
1.86172e-05
1.83002e-05
2.58849e-05
1.69919e-05
3.01497e-05
1.69783e-05
3.00174e-05
1.83182e-05
2.07177e-05
3.69307e-05
4.28208e-05
2.53668e-05
2.52535e-05
3.68165e-05
2.0758e-05
1.84573e-05
3.04427e-05
1.70721e-05
2.64172e-05
1.84391e-05
3.05751e-05
1.70871e-05
2.1146e-05
2.60027e-05
4.35369e-05
3.77498e-05
2.11875e-05
2.59086e-05
3.76354e-05
2.09647e-05
3.72301e-05
2.55853e-05
4.32941e-05
2.09279e-05
2.56764e-05
3.73469e-05
1.85839e-05
2.66965e-05
3.10005e-05
1.719e-05
1.86035e-05
3.08706e-05
1.71753e-05
1.84598e-05
1.70722e-05
3.04441e-05
2.64203e-05
1.84399e-05
1.70884e-05
3.05759e-05
2.11454e-05
2.6013e-05
4.35388e-05
3.77434e-05
3.76305e-05
2.58983e-05
2.1189e-05
2.09659e-05
3.72247e-05
2.55762e-05
4.32917e-05
2.09267e-05
3.73427e-05
2.5685e-05
1.85854e-05
2.66941e-05
1.71929e-05
3.10031e-05
1.71766e-05
3.08719e-05
1.8606e-05
3.47412e-05
1.73301e-05
2.2919e-05
2.28959e-05
2.28331e-05
2.2824e-05
3.48734e-05
3.53149e-05
1.74319e-05
2.30983e-05
2.3108e-05
2.31913e-05
3.5182e-05
2.31788e-05
1.82917e-05
2.58835e-05
1.70042e-05
3.01529e-05
1.69709e-05
3.00175e-05
1.83363e-05
2.05684e-05
2.49588e-05
3.64011e-05
4.25737e-05
2.50477e-05
2.05091e-05
3.65337e-05
1.82032e-05
2.56224e-05
1.6884e-05
2.95948e-05
1.69133e-05
1.8162e-05
2.97282e-05
2.07109e-05
3.69444e-05
4.28257e-05
2.53635e-05
2.52734e-05
3.68103e-05
2.07705e-05
1.84749e-05
1.70649e-05
3.04477e-05
2.6418e-05
1.84287e-05
1.70999e-05
3.05787e-05
2.11299e-05
2.60011e-05
4.35403e-05
3.77532e-05
2.12031e-05
2.59092e-05
3.7635e-05
2.09865e-05
3.7231e-05
2.55862e-05
4.3296e-05
2.09137e-05
2.56775e-05
3.7348e-05
1.85721e-05
2.66999e-05
1.72068e-05
3.10063e-05
1.86171e-05
1.71668e-05
3.08737e-05
1.8477e-05
1.70649e-05
3.04451e-05
2.64243e-05
1.8432e-05
1.71001e-05
3.05804e-05
2.11366e-05
2.60093e-05
4.35423e-05
3.77576e-05
3.76192e-05
2.5917e-05
2.12019e-05
2.09831e-05
3.72212e-05
2.55933e-05
4.32978e-05
2.09197e-05
3.73554e-05
2.56852e-05
1.85756e-05
2.66946e-05
1.72066e-05
3.10087e-05
1.71672e-05
3.08714e-05
1.86224e-05
3.5316e-05
1.74239e-05
2.31074e-05
2.31126e-05
3.51815e-05
2.31795e-05
2.31802e-05
3.6477e-05
1.77114e-05
2.4071e-05
2.40701e-05
3.66218e-05
2.3958e-05
2.39624e-05
1.8883e-05
2.75224e-05
3.18659e-05
1.74405e-05
3.17258e-05
1.73971e-05
1.89438e-05
2.14321e-05
2.62392e-05
3.80398e-05
4.39929e-05
3.81537e-05
2.13615e-05
2.63356e-05
1.87742e-05
2.72446e-05
3.12981e-05
1.72793e-05
3.14363e-05
1.87249e-05
1.73155e-05
2.15873e-05
3.85475e-05
4.4229e-05
2.66677e-05
3.84369e-05
2.65718e-05
2.16737e-05
1.89007e-05
2.75247e-05
3.18636e-05
1.74417e-05
3.1723e-05
1.73975e-05
1.89224e-05
2.1412e-05
2.62371e-05
3.80355e-05
4.39989e-05
2.1371e-05
3.81449e-05
2.63521e-05
1.87601e-05
2.72413e-05
3.12956e-05
1.72798e-05
1.87378e-05
3.14353e-05
1.73156e-05
2.16029e-05
3.85378e-05
4.42282e-05
2.66909e-05
3.84349e-05
2.16446e-05
2.65645e-05
3.64782e-05
1.77107e-05
2.40438e-05
2.40632e-05
2.3964e-05
2.39815e-05
3.66168e-05
1.88866e-05
2.75266e-05
3.18607e-05
1.74273e-05
3.17306e-05
1.74091e-05
1.8947e-05
2.14337e-05
2.62405e-05
3.80392e-05
4.39979e-05
3.81516e-05
2.13618e-05
2.63419e-05
1.87774e-05
2.72415e-05
3.13023e-05
1.72875e-05
3.14337e-05
1.87278e-05
1.7307e-05
2.15879e-05
3.85432e-05
4.42335e-05
2.66759e-05
3.84385e-05
2.65731e-05
2.16735e-05
1.88817e-05
2.75197e-05
1.74264e-05
3.18655e-05
1.74079e-05
3.17189e-05
1.89415e-05
2.14248e-05
2.62422e-05
3.80312e-05
4.39947e-05
2.13577e-05
3.81419e-05
2.63374e-05
1.87722e-05
2.72441e-05
1.72864e-05
3.12947e-05
1.87235e-05
1.7306e-05
3.14344e-05
2.15844e-05
3.85334e-05
4.42301e-05
2.66682e-05
3.84291e-05
2.16682e-05
2.6576e-05
1.88999e-05
2.75218e-05
1.7428e-05
3.18606e-05
1.74095e-05
3.17258e-05
1.89221e-05
2.14105e-05
2.62296e-05
3.80333e-05
4.39923e-05
2.63388e-05
2.13695e-05
3.81407e-05
1.87599e-05
2.7244e-05
1.72881e-05
3.12995e-05
1.73077e-05
1.87372e-05
3.14322e-05
2.16019e-05
3.85371e-05
4.42286e-05
2.66719e-05
2.65633e-05
3.84308e-05
2.16418e-05
3.64841e-05
1.77106e-05
2.40741e-05
2.404e-05
2.39767e-05
2.39626e-05
3.66097e-05
1.88866e-05
2.75253e-05
1.74479e-05
3.1867e-05
1.73974e-05
3.17243e-05
1.89477e-05
2.14315e-05
2.62481e-05
3.80256e-05
4.39984e-05
2.63358e-05
2.13622e-05
3.81573e-05
1.87777e-05
2.72443e-05
1.72802e-05
3.12993e-05
1.73197e-05
1.87282e-05
3.14378e-05
2.15887e-05
3.85544e-05
4.42311e-05
2.66681e-05
2.65819e-05
3.8422e-05
2.16759e-05
3.60233e-05
3.60197e-05
3.60197e-05
3.60085e-05
3.39295e-05
3.38856e-05
3.38855e-05
3.39585e-05
3.21568e-05
3.20022e-05
3.20018e-05
3.19436e-05
3.05324e-05
3.02212e-05
3.02207e-05
2.99764e-05
2.90296e-05
2.85444e-05
2.85439e-05
2.81089e-05
2.7631e-05
2.69766e-05
2.69759e-05
2.63759e-05
2.63255e-05
2.55195e-05
2.55189e-05
2.47918e-05
2.51052e-05
2.41726e-05
2.41721e-05
2.33619e-05
2.39643e-05
2.29375e-05
2.2937e-05
2.20876e-05
2.28987e-05
2.1813e-05
2.18126e-05
2.0969e-05
2.19044e-05
2.07967e-05
2.07964e-05
1.9996e-05
2.09784e-05
1.98857e-05
1.98855e-05
1.91636e-05
2.01156e-05
1.90778e-05
1.90778e-05
1.84702e-05
1.93147e-05
1.83699e-05
1.83701e-05
1.79104e-05
1.85749e-05
1.77587e-05
1.7759e-05
1.74796e-05
1.78935e-05
1.72425e-05
1.72429e-05
1.71697e-05
1.72682e-05
1.68207e-05
1.68211e-05
1.69876e-05
1.66969e-05
1.64922e-05
1.64926e-05
1.69401e-05
1.61783e-05
1.6257e-05
1.62575e-05
1.70346e-05
1.61153e-05
1.72591e-05
3.62976e-05
3.62919e-05
3.62919e-05
3.62977e-05
3.62919e-05
3.62919e-05
3.62908e-05
3.62908e-05
3.62908e-05
3.62908e-05
3.62919e-05
3.62919e-05
3.62977e-05
3.62919e-05
3.62919e-05
3.62977e-05
3.60085e-05
3.42659e-05
3.60197e-05