/*--------------------------------*- C++ -*----------------------------------*\
| =========                 |                                                 |
| \\      /  F ield         | OpenFOAM: The Open Source CFD Toolbox           |
|  \\    /   O peration     | Version:  2312                                  |
|   \\  /    A nd           | Website:  www.openfoam.com                      |
|    \\/     M anipulation  |                                                 |
\*---------------------------------------------------------------------------*/
FoamFile
{
    version     2.0;
    format      ascii;
    arch        "LSB;label=32;scalar=64";
    class       volScalarField;
    location    "450";
    object      nut;
}
// * * * * * * * * * * * * * * * * * * * * * * * * * * * * * * * * * * * * * //

dimensions      [0 2 -1 0 0 0 0];

internalField   nonuniform List<scalar> 
43008
(
0.000158325
0.000108542
0.000154168
0.000104784
0.000104786
8.35657e-05
8.50969e-05
8.39425e-05
0.000108518
0.000108501
0.000105632
0.000105615
8.39993e-05
0.000108538
0.000108501
0.000105651
0.000105617
0.000105653
0.000105628
8.51148e-05
8.40018e-05
0.000108531
0.000105655
0.000105644
8.37358e-05
8.33998e-05
0.000104762
0.000104744
8.33577e-05
0.000104784
0.000104747
0.000104756
8.33523e-05
0.000104775
6.51322e-05
4.9512e-05
6.39726e-05
4.95182e-05
2.36521e-05
6.51421e-05
4.95074e-05
6.39659e-05
4.9513e-05
0.000158319
0.00015832
0.000158315
0.000155201
0.000155194
0.000155194
0.00015519
6.16014e-05
0.000107537
6.23039e-05
0.000133376
2.36554e-05
2.36512e-05
6.16148e-05
0.000134454
6.16446e-05
0.000107539
6.08724e-05
0.000133375
6.23042e-05
8.45907e-05
5.93283e-05
5.93248e-05
6.77499e-05
4.95375e-05
6.66949e-05
4.95426e-05
2.36419e-05
2.3638e-05
6.7742e-05
4.95323e-05
6.66846e-05
4.95372e-05
0.000154162
0.000154162
0.000154158
6.41577e-05
6.37412e-05
0.000130142
0.00010391
6.33274e-05
6.43746e-05
0.000129099
2.36411e-05
2.36372e-05
6.42169e-05
0.000130133
6.37484e-05
0.000103911
6.33228e-05
0.000129095
6.44331e-05
6.00807e-05
6.008e-05
8.31795e-05
6.04537e-05
6.04258e-05
2.36583e-05
2.36546e-05
2.36561e-05
2.36521e-05
5.89299e-05
5.89517e-05
8.48313e-05
5.93451e-05
5.93298e-05
2.36473e-05
2.36513e-05
2.36449e-05
2.3649e-05
8.4178e-05
5.99078e-05
5.98933e-05
5.95145e-05
5.9531e-05
6.51234e-05
4.95065e-05
6.39798e-05
4.95122e-05
6.16627e-05
6.16344e-05
0.000134455
0.000107514
6.08156e-05
6.23099e-05
0.00013337
6.16373e-05
6.16357e-05
0.000134448
0.000107499
6.0856e-05
6.23024e-05
0.000133367
6.53742e-05
4.95315e-05
4.95248e-05
6.64738e-05
6.53791e-05
4.95246e-05
4.95188e-05
6.6469e-05
6.20126e-05
0.000106587
6.33578e-05
0.000131213
6.26923e-05
0.000132277
6.29104e-05
6.20364e-05
0.00010657
6.33536e-05
0.000131212
6.26898e-05
0.000132273
6.28803e-05
8.47823e-05
5.93252e-05
5.93492e-05
2.36534e-05
2.36448e-05
2.36491e-05
8.41689e-05
5.98859e-05
5.99124e-05
5.95242e-05
5.95161e-05
2.36465e-05
2.36501e-05
6.16223e-05
6.16391e-05
0.000134452
0.000107534
6.08424e-05
6.23052e-05
0.000133376
6.51302e-05
4.9503e-05
6.39727e-05
4.95089e-05
6.1596e-05
0.000134443
6.16337e-05
0.0001075
6.08428e-05
0.000133364
6.22914e-05
6.53645e-05
4.95258e-05
4.952e-05
6.64856e-05
6.20434e-05
0.000106608
6.33569e-05
0.000131216
6.26956e-05
0.000132278
6.28593e-05
6.53701e-05
4.95216e-05
4.95158e-05
6.64689e-05
6.20514e-05
0.000106572
0.000131208
6.33436e-05
0.000132269
6.26917e-05
6.28542e-05
6.51006e-05
4.9514e-05
6.16575e-05
0.00010751
0.000133372
6.22975e-05
6.51245e-05
4.95101e-05
6.20499e-05
0.000106608
6.33538e-05
0.000131222
6.26935e-05
0.000132285
6.28303e-05
6.53828e-05
4.95264e-05
4.95203e-05
6.64488e-05
6.20099e-05
0.000106581
0.000131217
6.33875e-05
0.000132277
6.26877e-05
6.29061e-05
6.53712e-05
4.95226e-05
4.95165e-05
6.64665e-05
5.89458e-05
5.89311e-05
8.4821e-05
5.93239e-05
5.93469e-05
2.36575e-05
2.36534e-05
2.36441e-05
2.36482e-05
8.41578e-05
5.98872e-05
5.99088e-05
5.95259e-05
5.95155e-05
2.36463e-05
2.36502e-05
6.16431e-05
0.000134449
6.16358e-05
0.000107526
6.08472e-05
0.000133371
6.2303e-05
6.51036e-05
4.95083e-05
6.39966e-05
4.95139e-05
6.51032e-05
4.95025e-05
6.39962e-05
4.95083e-05
6.2054e-05
0.000106611
0.000131216
6.33515e-05
0.000132279
6.26985e-05
6.28402e-05
6.20326e-05
0.000106601
0.000131213
6.33485e-05
0.000132275
6.26944e-05
6.28674e-05
6.53956e-05
4.95267e-05
4.95211e-05
6.64482e-05
6.53934e-05
4.95209e-05
4.95153e-05
6.64474e-05
2.3652e-05
2.36508e-05
8.43369e-05
5.98874e-05
5.98863e-05
5.95243e-05
5.95241e-05
2.36449e-05
2.36489e-05
2.36437e-05
2.36478e-05
2.36441e-05
2.36403e-05
2.36419e-05
2.36382e-05
6.00686e-05
6.00853e-05
8.34394e-05
6.04531e-05
6.04589e-05
6.77435e-05
4.95305e-05
6.66957e-05
4.95367e-05
6.42223e-05
6.3732e-05
0.000130132
0.00010389
6.32859e-05
6.44229e-05
0.00012909
6.41766e-05
6.37225e-05
0.000130129
0.000103871
6.33092e-05
6.44285e-05
0.00012909
6.00782e-05
6.00696e-05
8.345e-05
6.04532e-05
6.04343e-05
2.36434e-05
2.36397e-05
6.41493e-05
6.37322e-05
0.000130136
0.000103911
6.33206e-05
6.44155e-05
0.000129096
6.77489e-05
4.95279e-05
6.66926e-05
4.95328e-05
6.42407e-05
0.000130126
6.37359e-05
0.000103877
6.33159e-05
0.000129087
6.43626e-05
6.77184e-05
4.9533e-05
6.6703e-05
4.95377e-05
6.42323e-05
0.000130134
6.37124e-05
0.000103885
6.32815e-05
0.000129096
6.44107e-05
6.77278e-05
4.95287e-05
6.66936e-05
4.95338e-05
6.00804e-05
6.00691e-05
8.34077e-05
6.04247e-05
6.04307e-05
2.36432e-05
2.36393e-05
6.42319e-05
0.000130132
6.37391e-05
0.000103902
6.33066e-05
0.000129091
6.43723e-05
6.77255e-05
4.95329e-05
6.6711e-05
4.95384e-05
6.77228e-05
4.95273e-05
6.67088e-05
4.95323e-05
2.36418e-05
2.36381e-05
2.36407e-05
2.36368e-05
3.61705e-05
6.4682e-05
4.03052e-05
6.75487e-05
4.0303e-05
6.71579e-05
3.61734e-05
2.02411e-05
6.67617e-05
4.95119e-05
2.02406e-05
6.69338e-05
3.61703e-05
6.44322e-05
4.0301e-05
6.66407e-05
3.61676e-05
4.03028e-05
6.70385e-05
2.02378e-05
6.71441e-05
4.95182e-05
6.69864e-05
2.02384e-05
2.36558e-05
2.36527e-05
3.61704e-05
6.46752e-05
6.75534e-05
4.03046e-05
6.71507e-05
4.03023e-05
3.61733e-05
2.02415e-05
6.67528e-05
4.95067e-05
2.0241e-05
6.69342e-05
3.61702e-05
6.44368e-05
6.6633e-05
4.03004e-05
3.61675e-05
6.70428e-05
4.03022e-05
2.02382e-05
6.71414e-05
4.95135e-05
6.69735e-05
2.02387e-05
2.36548e-05
2.36518e-05
6.93174e-05
2.15791e-05
2.15759e-05
2.1579e-05
2.15758e-05
6.94738e-05
7.01584e-05
5.90352e-05
6.60281e-05
4.70391e-05
7.02034e-05
5.9032e-05
6.60337e-05
4.70289e-05
6.92624e-05
2.15824e-05
2.15793e-05
7.05232e-05
4.70552e-05
5.92389e-05
6.66746e-05
6.6485e-05
4.70465e-05
7.06711e-05
7.05671e-05
4.70456e-05
5.92383e-05
6.66834e-05
6.64948e-05
4.70375e-05
7.07141e-05
3.61841e-05
6.73228e-05
4.03211e-05
6.9442e-05
4.0321e-05
6.90832e-05
3.61871e-05
2.02299e-05
6.75998e-05
4.95372e-05
2.02294e-05
6.7761e-05
3.61836e-05
6.71189e-05
4.03145e-05
6.86234e-05
3.61805e-05
4.0317e-05
6.89919e-05
2.02266e-05
6.79524e-05
4.95434e-05
6.77935e-05
2.02271e-05
2.36414e-05
2.36383e-05
3.61839e-05
6.7317e-05
6.94391e-05
4.03205e-05
6.90792e-05
4.03202e-05
3.61869e-05
2.02302e-05
6.76033e-05
4.95318e-05
2.02297e-05
6.77521e-05
3.61835e-05
6.71267e-05
6.86166e-05
4.03135e-05
3.61804e-05
6.89933e-05
4.03166e-05
2.02269e-05
6.79405e-05
4.95379e-05
6.77975e-05
2.02273e-05
2.36406e-05
2.36377e-05
7.01191e-05
2.15656e-05
2.15625e-05
2.15655e-05
2.15624e-05
7.02638e-05
7.2094e-05
6.84211e-05
4.70945e-05
6.01649e-05
7.19508e-05
6.86304e-05
4.7101e-05
7.21658e-05
6.84355e-05
4.70854e-05
6.01616e-05
7.19894e-05
6.86315e-05
4.70918e-05
7.00744e-05
2.15689e-05
2.15658e-05
6.99299e-05
2.1569e-05
2.15658e-05
7.24303e-05
4.71147e-05
6.03376e-05
6.92767e-05
6.90492e-05
4.71094e-05
7.25351e-05
7.24505e-05
4.71052e-05
6.03451e-05
6.92969e-05
6.90698e-05
4.71006e-05
7.26276e-05
2.36581e-05
2.3655e-05
2.36555e-05
2.36526e-05
6.93234e-05
2.15796e-05
2.15764e-05
2.15795e-05
2.15763e-05
6.94773e-05
7.0164e-05
6.58281e-05
4.70335e-05
5.90521e-05
7.00248e-05
4.70402e-05
6.60338e-05
7.02053e-05
6.58343e-05
4.70233e-05
5.90398e-05
7.00688e-05
4.7029e-05
6.60459e-05
6.9265e-05
2.15828e-05
2.15796e-05
6.91042e-05
2.1583e-05
2.15798e-05
7.05243e-05
4.70564e-05
5.92251e-05
6.66773e-05
4.70502e-05
7.0669e-05
6.64797e-05
7.05698e-05
4.70452e-05
5.92415e-05
6.66956e-05
4.704e-05
7.0716e-05
6.64787e-05
2.36477e-05
2.3651e-05
2.36455e-05
2.36485e-05
6.96841e-05
2.15762e-05
2.1573e-05
6.95326e-05
2.15765e-05
2.1573e-05
7.14982e-05
6.7959e-05
5.97927e-05
4.70885e-05
4.70832e-05
6.77919e-05
7.16292e-05
7.15409e-05
6.79854e-05
5.98108e-05
4.70775e-05
4.70723e-05
6.777e-05
7.16752e-05
7.11443e-05
4.7067e-05
6.71262e-05
5.96314e-05
7.10136e-05
4.70732e-05
6.73205e-05
7.11899e-05
4.70567e-05
6.71273e-05
5.96198e-05
7.10577e-05
4.70621e-05
6.73504e-05
6.97378e-05
2.15733e-05
2.15697e-05
2.15732e-05
2.15696e-05
6.98849e-05
3.6169e-05
6.46882e-05
4.0305e-05
6.75504e-05
4.03028e-05
6.71419e-05
3.61719e-05
2.02403e-05
6.67305e-05
4.95059e-05
2.02398e-05
6.69138e-05
3.61688e-05
6.44255e-05
4.03009e-05
6.66255e-05
4.03026e-05
3.6166e-05
6.70436e-05
2.0237e-05
6.71372e-05
4.95122e-05
6.69564e-05
2.02375e-05
3.61767e-05
4.03057e-05
6.76616e-05
6.58157e-05
3.61737e-05
4.03085e-05
6.80459e-05
2.02323e-05
4.95318e-05
6.75622e-05
2.02328e-05
6.74012e-05
2.02355e-05
6.71974e-05
4.95257e-05
2.0235e-05
6.73597e-05
3.6177e-05
6.60444e-05
4.03125e-05
6.8523e-05
3.61801e-05
4.03095e-05
6.81494e-05
3.61752e-05
4.03056e-05
6.76457e-05
6.58118e-05
3.61721e-05
4.03084e-05
6.80466e-05
2.02314e-05
4.95252e-05
6.75416e-05
6.73804e-05
2.02319e-05
2.02346e-05
6.71678e-05
4.9519e-05
2.02341e-05
6.73412e-05
3.61754e-05
6.6046e-05
4.03126e-05
6.85279e-05
4.03092e-05
6.8134e-05
3.61785e-05
6.93172e-05
2.15764e-05
2.15793e-05
2.15762e-05
2.15792e-05
6.94815e-05
7.02399e-05
5.90324e-05
4.70331e-05
6.60183e-05
7.01995e-05
5.90596e-05
6.60502e-05
4.70431e-05
6.92698e-05
2.15796e-05
2.15824e-05
7.05401e-05
4.70495e-05
5.92364e-05
6.66737e-05
4.7034e-05
6.65019e-05
7.07457e-05
7.04911e-05
4.70598e-05
5.92286e-05
6.66912e-05
6.64692e-05
4.7044e-05
7.06957e-05
2.3657e-05
2.36538e-05
2.36455e-05
2.36484e-05
6.96871e-05
2.15729e-05
2.15758e-05
6.95288e-05
2.1573e-05
2.15759e-05
7.151e-05
6.79674e-05
5.98032e-05
4.70814e-05
6.77871e-05
4.70658e-05
7.17012e-05
7.14672e-05
6.79987e-05
5.97926e-05
4.70912e-05
4.70759e-05
6.77542e-05
7.16589e-05
7.1228e-05
4.70506e-05
6.71447e-05
5.9614e-05
6.73357e-05
7.103e-05
4.70651e-05
7.11821e-05
4.70608e-05
6.71141e-05
5.96356e-05
7.09863e-05
4.70753e-05
6.73467e-05
6.97323e-05
2.15698e-05
2.15726e-05
2.15695e-05
2.15724e-05
6.98873e-05
2.36469e-05
2.36501e-05
3.61683e-05
6.4679e-05
4.03042e-05
6.75451e-05
4.0302e-05
6.7141e-05
3.61713e-05
2.02404e-05
6.67354e-05
4.95026e-05
2.02398e-05
6.69089e-05
3.61682e-05
6.44302e-05
4.03e-05
6.66228e-05
4.03018e-05
3.61654e-05
6.70336e-05
2.02371e-05
6.7117e-05
4.95093e-05
6.69624e-05
2.02376e-05
3.61765e-05
6.76552e-05
4.0305e-05
6.58248e-05
3.61736e-05
6.8051e-05
4.0308e-05
2.02325e-05
4.95266e-05
6.75581e-05
2.0233e-05
6.73965e-05
2.02359e-05
6.71961e-05
4.95202e-05
2.02354e-05
6.73606e-05
3.61769e-05
6.60354e-05
6.85278e-05
4.03121e-05
3.618e-05
6.81427e-05
4.03087e-05
3.61746e-05
4.03048e-05
6.76436e-05
6.58099e-05
3.61715e-05
4.03075e-05
6.80424e-05
2.02315e-05
4.95229e-05
6.75293e-05
6.73894e-05
2.02319e-05
2.02348e-05
6.71704e-05
4.9516e-05
2.02343e-05
6.7334e-05
3.61749e-05
6.60424e-05
4.03116e-05
6.8522e-05
4.03086e-05
6.81311e-05
3.61781e-05
3.61701e-05
6.46952e-05
6.75138e-05
4.03039e-05
6.71717e-05
4.03016e-05
3.6173e-05
2.02381e-05
6.71364e-05
4.95149e-05
6.69614e-05
2.02387e-05
3.61689e-05
6.46808e-05
4.03046e-05
6.75436e-05
4.03023e-05
6.71462e-05
3.61718e-05
2.02373e-05
6.71234e-05
4.95112e-05
6.69579e-05
2.02378e-05
3.61763e-05
6.76708e-05
4.03043e-05
6.57849e-05
3.61733e-05
6.80141e-05
4.03073e-05
2.02325e-05
4.95278e-05
6.75474e-05
6.73903e-05
2.0233e-05
2.02359e-05
6.71826e-05
4.95208e-05
2.02353e-05
6.73479e-05
3.61766e-05
6.60524e-05
6.8495e-05
4.03117e-05
6.81568e-05
4.03077e-05
3.61797e-05
3.6175e-05
4.03049e-05
6.7647e-05
6.58052e-05
3.6172e-05
4.0308e-05
6.80405e-05
2.02317e-05
4.95234e-05
6.753e-05
6.73847e-05
2.02321e-05
2.0235e-05
6.7179e-05
4.95167e-05
2.02345e-05
6.73287e-05
3.61753e-05
6.60431e-05
4.03125e-05
6.85219e-05
4.03084e-05
6.81341e-05
3.61784e-05
6.93188e-05
2.15767e-05
2.15798e-05
2.15766e-05
2.15797e-05
6.94772e-05
7.02057e-05
6.58376e-05
4.70209e-05
5.9034e-05
4.70308e-05
7.0071e-05
6.60429e-05
7.01633e-05
6.58482e-05
4.70336e-05
5.90548e-05
6.60264e-05
7.00259e-05
4.70404e-05
6.92641e-05
2.15799e-05
2.15831e-05
2.15801e-05
6.91015e-05
2.15832e-05
7.05736e-05
4.70472e-05
5.92364e-05
6.66842e-05
4.70381e-05
6.6484e-05
7.07164e-05
7.05283e-05
4.70567e-05
5.92259e-05
6.66636e-05
6.64889e-05
4.70505e-05
7.06724e-05
2.3657e-05
2.36538e-05
2.36446e-05
2.36476e-05
6.96823e-05
2.15732e-05
2.15764e-05
6.95304e-05
2.15733e-05
2.15764e-05
7.15426e-05
6.79796e-05
5.98056e-05
4.70784e-05
6.77761e-05
4.70711e-05
7.16785e-05
7.1497e-05
6.79571e-05
5.9793e-05
4.70909e-05
4.708e-05
6.77894e-05
7.16369e-05
7.11915e-05
4.70541e-05
6.71368e-05
5.96135e-05
6.73496e-05
7.10594e-05
4.70635e-05
7.11473e-05
4.70666e-05
6.714e-05
5.96336e-05
7.10149e-05
4.70741e-05
6.73296e-05
6.97349e-05
2.15699e-05
2.15731e-05
2.15699e-05
2.1573e-05
6.98827e-05
2.36467e-05
2.36498e-05
3.61708e-05
6.4705e-05
6.75402e-05
4.03044e-05
6.71611e-05
4.03022e-05
3.61736e-05
2.0242e-05
6.67607e-05
4.95076e-05
6.69224e-05
2.02415e-05
3.61705e-05
6.44079e-05
6.66448e-05
4.03003e-05
6.70303e-05
3.61678e-05
4.0302e-05
2.02387e-05
6.71406e-05
4.95144e-05
6.69771e-05
2.02392e-05
3.6168e-05
6.47021e-05
6.75437e-05
4.03038e-05
6.71419e-05
4.03017e-05
3.61709e-05
2.02402e-05
6.67298e-05
4.9502e-05
2.02396e-05
6.69134e-05
3.61678e-05
6.44054e-05
6.66253e-05
4.02997e-05
3.61651e-05
6.70358e-05
4.03015e-05
2.02368e-05
6.71286e-05
4.95085e-05
6.69505e-05
2.02373e-05
3.61769e-05
6.76646e-05
4.0305e-05
6.57936e-05
3.61739e-05
6.80395e-05
4.03077e-05
2.02331e-05
4.95278e-05
6.75524e-05
6.74048e-05
2.02335e-05
2.02364e-05
6.71994e-05
4.9521e-05
2.02359e-05
6.735e-05
3.61772e-05
6.60613e-05
6.85176e-05
4.0312e-05
6.81506e-05
4.03086e-05
3.61803e-05
3.61742e-05
6.76458e-05
4.03044e-05
6.57924e-05
3.61711e-05
6.80386e-05
4.03071e-05
2.02311e-05
4.95217e-05
6.75431e-05
6.73698e-05
2.02317e-05
2.02345e-05
6.71632e-05
4.95153e-05
2.02339e-05
6.73393e-05
3.61744e-05
6.60594e-05
6.85216e-05
4.03114e-05
6.81333e-05
4.0308e-05
3.61776e-05
2.36557e-05
2.36525e-05
2.36544e-05
2.36514e-05
6.968e-05
2.15756e-05
2.15725e-05
6.95268e-05
2.15757e-05
2.15726e-05
7.14751e-05
6.79626e-05
5.98032e-05
4.70864e-05
7.16515e-05
6.77677e-05
4.70791e-05
7.15216e-05
6.79687e-05
5.98024e-05
4.70771e-05
7.16962e-05
6.77828e-05
4.707e-05
7.11825e-05
4.70626e-05
6.71267e-05
5.96174e-05
7.10043e-05
6.73351e-05
4.70715e-05
7.12257e-05
4.70535e-05
6.71398e-05
5.9615e-05
7.10496e-05
6.73465e-05
4.70621e-05
6.97311e-05
2.15723e-05
2.15692e-05
6.98804e-05
2.15723e-05
2.15691e-05
2.36453e-05
2.36484e-05
2.36442e-05
2.36472e-05
2.36437e-05
2.36406e-05
2.36415e-05
2.36385e-05
7.01246e-05
2.15664e-05
2.15627e-05
2.15664e-05
2.15628e-05
7.02693e-05
7.20861e-05
6.8432e-05
4.70977e-05
6.01836e-05
7.19653e-05
4.71034e-05
6.86133e-05
7.21313e-05
6.84236e-05
4.70868e-05
6.0172e-05
7.20084e-05
4.70924e-05
6.86376e-05
7.00789e-05
2.15698e-05
2.15662e-05
6.99348e-05
2.15699e-05
2.15663e-05
7.24384e-05
4.71172e-05
6.03359e-05
6.92451e-05
4.7113e-05
7.25381e-05
6.90788e-05
7.24803e-05
4.71062e-05
6.03444e-05
6.92699e-05
4.7102e-05
7.25861e-05
6.90669e-05
3.61823e-05
6.73258e-05
4.03253e-05
6.94486e-05
4.03169e-05
6.90637e-05
3.61856e-05
2.0229e-05
6.75819e-05
4.9531e-05
2.02286e-05
6.77342e-05
3.6182e-05
6.71219e-05
4.03134e-05
6.86067e-05
4.03181e-05
3.61788e-05
6.89962e-05
2.02257e-05
6.7924e-05
4.95368e-05
6.77759e-05
2.02262e-05
7.01217e-05
2.15632e-05
2.15658e-05
2.1563e-05
2.15657e-05
7.02713e-05
7.2174e-05
6.84262e-05
4.70826e-05
6.01662e-05
4.7097e-05
7.19899e-05
6.86633e-05
7.21059e-05
6.83943e-05
4.7092e-05
6.01849e-05
6.86437e-05
7.19478e-05
4.71062e-05
7.00812e-05
2.15664e-05
2.15691e-05
2.15665e-05
6.99313e-05
2.15692e-05
7.24417e-05
4.71122e-05
6.03362e-05
6.92965e-05
4.7097e-05
6.90479e-05
7.26502e-05
7.24235e-05
4.71211e-05
6.03407e-05
6.92865e-05
6.90413e-05
4.71064e-05
7.25367e-05
2.36431e-05
2.36399e-05
3.6182e-05
6.73214e-05
4.032e-05
6.94418e-05
4.03203e-05
6.90629e-05
3.61852e-05
2.02291e-05
6.75837e-05
4.95277e-05
2.02287e-05
6.77279e-05
3.61816e-05
6.71175e-05
4.03136e-05
6.8605e-05
4.0316e-05
3.61784e-05
6.89879e-05
2.02259e-05
6.79136e-05
4.95345e-05
6.7783e-05
2.02263e-05
3.61835e-05
6.73296e-05
6.9415e-05
4.03244e-05
6.9086e-05
4.0315e-05
3.61868e-05
2.02302e-05
6.75928e-05
4.95325e-05
6.77441e-05
2.02296e-05
3.61832e-05
6.70919e-05
6.86288e-05
4.03117e-05
6.89608e-05
3.618e-05
4.03173e-05
2.02267e-05
6.7937e-05
4.95393e-05
6.77842e-05
2.02273e-05
3.61822e-05
6.73266e-05
4.03253e-05
6.94343e-05
4.03155e-05
6.90677e-05
3.61855e-05
2.02292e-05
6.75837e-05
4.95286e-05
2.02288e-05
6.77279e-05
3.61819e-05
6.71061e-05
4.03123e-05
6.86068e-05
3.61787e-05
4.03181e-05
6.89861e-05
2.02259e-05
6.79148e-05
4.95351e-05
6.77811e-05
2.02263e-05
7.01245e-05
2.15632e-05
2.15663e-05
2.15631e-05
2.15663e-05
7.02637e-05
7.21342e-05
6.84257e-05
4.7086e-05
6.01634e-05
4.70932e-05
7.20093e-05
6.86547e-05
7.21246e-05
6.84318e-05
4.70929e-05
6.01831e-05
6.86164e-05
7.19575e-05
4.71073e-05
7.00757e-05
2.15665e-05
2.15696e-05
2.15666e-05
6.99327e-05
2.15697e-05
7.24837e-05
4.7107e-05
6.03476e-05
6.9298e-05
4.71013e-05
6.905e-05
7.25804e-05
7.2413e-05
4.71224e-05
6.03421e-05
6.92511e-05
6.90749e-05
4.7108e-05
7.25864e-05
2.36428e-05
2.36397e-05
3.61842e-05
6.7342e-05
6.94368e-05
4.03248e-05
6.90844e-05
4.0316e-05
3.61873e-05
2.02307e-05
6.76066e-05
4.95328e-05
6.77483e-05
2.02303e-05
3.61838e-05
6.7101e-05
6.86234e-05
4.03127e-05
6.89861e-05
3.61807e-05
4.03175e-05
2.02274e-05
6.79356e-05
4.95391e-05
6.78019e-05
2.02278e-05
3.61813e-05
6.73402e-05
6.94387e-05
4.03242e-05
6.90667e-05
4.03153e-05
3.61847e-05
2.02288e-05
6.75749e-05
4.9527e-05
2.02283e-05
6.77392e-05
3.61811e-05
6.71005e-05
6.86066e-05
4.03121e-05
3.61779e-05
6.89864e-05
4.0317e-05
2.02254e-05
6.79301e-05
4.95336e-05
6.77671e-05
2.02259e-05
2.36414e-05
2.36384e-05
2.36402e-05
2.36373e-05
0.000180009
0.000180019
0.000157278
0.000179144
0.000179155
0.000197119
0.00019782
6.88253e-05
8.51189e-05
7.03146e-05
7.02946e-05
0.000176559
0.000176569
0.000153129
0.000175698
0.000175709
0.000194312
0.000195014
7.15112e-05
7.13458e-05
7.13501e-05
8.34209e-05
7.12693e-05
7.13068e-05
7.13385e-05
6.88294e-05
7.03015e-05
7.03149e-05
8.5213e-05
6.86791e-05
7.0372e-05
7.03807e-05
7.06372e-05
8.37073e-05
7.10663e-05
7.10714e-05
7.09925e-05
7.09575e-05
7.0812e-05
6.89193e-05
8.52577e-05
7.04999e-05
7.03867e-05
7.05781e-05
8.37119e-05
7.10483e-05
7.11503e-05
7.0991e-05
7.09256e-05
7.08664e-05
6.88229e-05
7.0181e-05
7.04033e-05
8.52877e-05
7.03073e-05
6.86754e-05
7.04945e-05
7.06351e-05
8.36957e-05
7.10771e-05
7.09734e-05
7.09449e-05
7.10887e-05
7.08118e-05
7.06127e-05
8.38836e-05
7.10013e-05
7.09622e-05
7.08497e-05
7.10386e-05
7.10454e-05
7.14606e-05
7.12893e-05
7.12542e-05
8.36667e-05
7.129e-05
7.13972e-05
7.15302e-05
7.15173e-05
7.1277e-05
7.12239e-05
8.36587e-05
7.1428e-05
7.12728e-05
7.133e-05
7.14502e-05
7.12631e-05
7.13709e-05
8.36604e-05
7.12505e-05
7.1295e-05
7.13846e-05
0.000180006
0.000180018
0.000157272
0.000179142
0.000179152
0.000197118
0.000197819
0.000180005
0.000180016
0.000157272
0.00017914
0.000179151
0.000197115
0.000197816
0.000180005
0.000180012
0.000157269
0.000179139
0.000179148
0.000197114
0.000197814
0.000156244
0.000177419
0.000177429
0.000178282
0.000178292
0.000196418
0.000195716
0.000156238
0.000177416
0.000177426
0.000178279
0.00017829
0.000196417
0.000195715
0.000156238
0.000177414
0.000177425
0.000178277
0.000178288
0.000196414
0.000195712
0.000156234
0.000177413
0.000177422
0.000178276
0.000178285
0.000196412
0.000195711
7.30997e-05
6.14443e-05
6.32058e-05
7.66645e-05
6.29615e-05
7.69265e-05
7.29379e-05
6.70273e-05
6.37934e-05
6.21651e-05
6.50765e-05
6.50766e-05
6.35948e-05
6.69338e-05
7.30795e-05
6.14432e-05
7.67659e-05
6.31855e-05
7.68414e-05
6.30116e-05
7.3049e-05
6.68655e-05
6.46706e-05
6.30029e-05
6.17768e-05
6.67849e-05
6.46753e-05
6.31378e-05
7.32599e-05
6.10197e-05
7.72532e-05
6.23695e-05
7.32782e-05
7.71657e-05
6.25363e-05
6.69322e-05
6.37692e-05
6.21668e-05
6.50887e-05
6.50664e-05
6.36246e-05
6.70401e-05
6.93228e-05
8.47907e-05
7.05096e-05
7.05129e-05
7.05823e-05
7.05831e-05
6.94972e-05
0.000176556
0.000176568
0.000153122
0.000175695
0.000175705
0.000194311
0.000195013
0.000176554
0.000176565
0.000153122
0.000175694
0.000175704
0.000194308
0.00019501
0.000176554
0.000176562
0.000153118
0.000175692
0.000175702
0.000194306
0.000195009
7.26004e-05
6.39996e-05
6.59055e-05
7.54606e-05
6.56562e-05
7.57667e-05
7.24876e-05
6.74339e-05
6.64492e-05
6.54901e-05
6.38788e-05
6.75616e-05
6.65387e-05
6.56946e-05
7.25169e-05
6.34977e-05
6.49776e-05
7.60011e-05
7.27224e-05
6.52319e-05
7.57674e-05
6.77409e-05
6.63675e-05
6.42486e-05
6.70425e-05
6.69229e-05
6.61015e-05
6.77259e-05
7.24552e-05
6.39703e-05
7.585e-05
6.58481e-05
7.5547e-05
6.57034e-05
7.26882e-05
6.77151e-05
6.64771e-05
6.55418e-05
6.38879e-05
6.73759e-05
6.64727e-05
6.56489e-05
7.26338e-05
6.35184e-05
7.58303e-05
6.5009e-05
7.2588e-05
7.6036e-05
6.51933e-05
6.76438e-05
6.62618e-05
6.42325e-05
6.69506e-05
6.69474e-05
6.61587e-05
6.78335e-05
7.19324e-05
8.32466e-05
7.15703e-05
7.17153e-05
7.16673e-05
7.16064e-05
7.21726e-05
6.93342e-05
8.46174e-05
7.06083e-05
7.06027e-05
6.95112e-05
7.04931e-05
7.04884e-05
7.01428e-05
8.43942e-05
7.07192e-05
7.07233e-05
6.9974e-05
7.08286e-05
7.08631e-05
7.2939e-05
6.13971e-05
6.324e-05
7.69021e-05
6.29557e-05
7.67333e-05
7.3219e-05
6.70238e-05
6.46695e-05
6.29933e-05
6.17799e-05
6.31495e-05
6.67026e-05
6.46696e-05
7.33835e-05
6.10749e-05
6.2322e-05
7.71501e-05
6.25958e-05
7.30785e-05
7.72854e-05
6.68438e-05
6.37643e-05
6.21597e-05
6.5079e-05
6.36171e-05
6.50646e-05
6.71569e-05
7.3152e-05
6.14193e-05
6.32005e-05
7.68957e-05
6.29894e-05
7.67506e-05
7.29722e-05
6.67528e-05
6.46112e-05
6.30014e-05
6.17697e-05
6.68849e-05
6.31331e-05
6.4719e-05
7.32097e-05
6.10414e-05
6.23452e-05
7.71642e-05
7.33163e-05
6.25495e-05
7.72709e-05
6.7021e-05
6.37709e-05
6.21584e-05
6.5136e-05
6.36131e-05
6.69373e-05
6.50231e-05
7.30711e-05
6.36193e-05
7.63965e-05
6.22869e-05
7.27103e-05
6.39071e-05
7.65799e-05
6.71871e-05
6.59921e-05
6.32212e-05
6.5076e-05
6.599e-05
6.48918e-05
6.7495e-05
6.73392e-05
6.42503e-05
6.55222e-05
6.28531e-05
6.55729e-05
6.70051e-05
6.44079e-05
7.25936e-05
6.26282e-05
6.45774e-05
7.6264e-05
6.42817e-05
7.60627e-05
7.29223e-05
7.27743e-05
6.36483e-05
7.64145e-05
6.22532e-05
7.30119e-05
6.38875e-05
7.657e-05
6.73627e-05
6.60279e-05
6.32123e-05
6.50197e-05
6.4881e-05
6.59289e-05
6.72637e-05
6.7037e-05
6.42464e-05
6.54653e-05
6.28519e-05
6.71657e-05
6.4415e-05
6.56128e-05
7.28674e-05
6.26606e-05
6.45354e-05
7.62597e-05
6.43009e-05
7.609e-05
7.26501e-05
6.92523e-05
8.46542e-05
7.06009e-05
7.06998e-05
7.04186e-05
7.05231e-05
6.95814e-05
7.02329e-05
8.43254e-05
7.07314e-05
7.06605e-05
7.08298e-05
6.99169e-05
7.08856e-05
7.31555e-05
6.14347e-05
6.32006e-05
7.66611e-05
6.29889e-05
7.69217e-05
7.31227e-05
6.704e-05
6.4623e-05
6.29881e-05
6.17809e-05
6.31498e-05
6.66802e-05
6.47288e-05
7.33547e-05
6.10311e-05
6.23408e-05
7.73132e-05
6.2553e-05
7.32338e-05
7.70654e-05
6.68236e-05
6.37818e-05
6.21625e-05
6.51451e-05
6.36117e-05
6.50191e-05
6.71722e-05
7.2912e-05
6.14453e-05
7.66685e-05
6.31969e-05
7.69262e-05
6.29718e-05
7.32357e-05
6.69897e-05
6.4636e-05
6.29919e-05
6.17677e-05
6.67006e-05
6.31195e-05
6.46906e-05
7.34478e-05
6.10192e-05
7.73049e-05
6.23251e-05
7.31641e-05
7.70868e-05
6.25537e-05
6.6838e-05
6.37421e-05
6.21581e-05
6.51038e-05
6.36074e-05
6.71214e-05
6.50358e-05
7.30126e-05
6.36537e-05
7.65823e-05
6.22342e-05
7.28877e-05
6.38674e-05
7.63593e-05
6.71687e-05
6.60139e-05
6.32206e-05
6.50355e-05
6.59271e-05
6.48844e-05
6.75271e-05
6.73629e-05
6.42418e-05
6.54775e-05
6.28558e-05
6.56288e-05
6.69881e-05
6.44168e-05
7.27228e-05
6.26777e-05
6.45166e-05
7.60173e-05
6.43237e-05
7.62675e-05
7.29811e-05
7.30663e-05
7.65884e-05
6.36406e-05
6.22264e-05
7.27464e-05
7.63638e-05
6.38588e-05
6.7179e-05
6.60062e-05
6.32203e-05
6.50115e-05
6.48712e-05
6.59554e-05
6.74827e-05
6.73073e-05
6.42469e-05
6.54816e-05
6.28414e-05
6.70009e-05
6.44033e-05
6.55808e-05
7.25966e-05
6.26741e-05
7.60237e-05
6.45365e-05
7.62692e-05
6.43099e-05
7.29159e-05
7.31713e-05
6.14004e-05
7.66794e-05
6.31691e-05
7.69405e-05
6.30155e-05
7.29159e-05
6.70092e-05
6.37459e-05
6.21589e-05
6.51678e-05
6.49686e-05
6.36157e-05
6.69382e-05
7.27442e-05
6.36292e-05
7.65881e-05
6.22414e-05
7.29914e-05
6.3867e-05
7.63721e-05
6.73576e-05
6.60141e-05
6.32163e-05
6.50636e-05
6.72796e-05
6.59623e-05
6.48609e-05
6.70283e-05
6.42298e-05
6.55077e-05
6.28559e-05
6.71545e-05
6.55926e-05
6.44379e-05
7.28388e-05
6.26715e-05
6.45392e-05
7.60024e-05
7.26373e-05
6.43054e-05
7.62684e-05
7.27805e-05
7.65833e-05
6.36696e-05
6.22715e-05
7.29888e-05
7.63674e-05
6.38432e-05
6.73504e-05
6.60842e-05
6.32049e-05
6.50044e-05
6.48811e-05
6.58711e-05
6.73017e-05
6.70294e-05
6.4246e-05
6.54366e-05
6.28464e-05
6.71374e-05
6.44127e-05
6.56425e-05
7.28735e-05
6.26366e-05
7.6029e-05
6.4501e-05
7.62789e-05
6.43367e-05
7.26477e-05
6.93361e-05
8.46249e-05
7.05997e-05
7.04985e-05
7.05688e-05
7.04607e-05
6.95282e-05
7.01525e-05
8.43532e-05
7.07082e-05
7.07981e-05
7.0846e-05
6.99658e-05
7.07825e-05
7.29987e-05
6.1412e-05
7.69301e-05
6.32206e-05
7.67427e-05
6.2967e-05
7.3327e-05
6.70074e-05
6.46746e-05
6.29784e-05
6.17731e-05
6.46747e-05
6.67203e-05
6.31715e-05
7.3471e-05
6.1046e-05
7.71825e-05
6.23337e-05
7.73099e-05
7.32692e-05
6.25835e-05
6.68588e-05
6.38017e-05
6.21592e-05
6.50843e-05
6.507e-05
6.35847e-05
6.71425e-05
7.28629e-05
7.65106e-05
6.36711e-05
6.22424e-05
7.28775e-05
7.64755e-05
6.38675e-05
6.7202e-05
6.59721e-05
6.32266e-05
6.50138e-05
6.75211e-05
6.59751e-05
6.48943e-05
6.73269e-05
6.42608e-05
6.55191e-05
6.28551e-05
6.70474e-05
6.55956e-05
6.44161e-05
7.27203e-05
6.26724e-05
7.63013e-05
6.45111e-05
7.27255e-05
7.61502e-05
6.43245e-05
7.31014e-05
7.64049e-05
6.36348e-05
6.22591e-05
7.27843e-05
7.65922e-05
6.38822e-05
6.71989e-05
6.60132e-05
6.32224e-05
6.50552e-05
6.48341e-05
6.59849e-05
6.74909e-05
6.73259e-05
6.42254e-05
6.55252e-05
6.28439e-05
6.70189e-05
6.44529e-05
6.55911e-05
7.26314e-05
6.26569e-05
7.62861e-05
6.45661e-05
7.60743e-05
6.42915e-05
7.29513e-05
7.01998e-05
8.41732e-05
7.07875e-05
7.07949e-05
6.99695e-05
7.08186e-05
7.07973e-05
7.19472e-05
8.30209e-05
7.17202e-05
7.1817e-05
7.21817e-05
7.15898e-05
7.15097e-05
7.22766e-05
6.39334e-05
6.58986e-05
7.57704e-05
6.56594e-05
7.55411e-05
7.28187e-05
6.76145e-05
6.64471e-05
6.55013e-05
6.39226e-05
6.57113e-05
6.7445e-05
6.65615e-05
7.28343e-05
6.35648e-05
6.49657e-05
7.58037e-05
6.52302e-05
7.24911e-05
7.59799e-05
6.77076e-05
6.63342e-05
6.4227e-05
6.70795e-05
6.61226e-05
6.69228e-05
6.78399e-05
7.27213e-05
6.39787e-05
6.59315e-05
7.57922e-05
6.56604e-05
7.55541e-05
7.24491e-05
6.74421e-05
6.64063e-05
6.55058e-05
6.39263e-05
6.75432e-05
6.56799e-05
6.66008e-05
7.25387e-05
6.35263e-05
6.49784e-05
7.58178e-05
7.27319e-05
6.52333e-05
7.59863e-05
6.77402e-05
6.62945e-05
6.4211e-05
6.71381e-05
6.61333e-05
6.77256e-05
6.68628e-05
7.19184e-05
8.29769e-05
7.16558e-05
7.17949e-05
7.15391e-05
7.16108e-05
7.21884e-05
7.23401e-05
6.40054e-05
6.58681e-05
7.57157e-05
6.5699e-05
7.574e-05
7.28729e-05
6.77496e-05
6.64165e-05
6.55105e-05
6.39211e-05
6.56739e-05
6.74143e-05
6.66202e-05
7.29145e-05
6.35069e-05
6.50083e-05
7.59776e-05
6.52068e-05
7.25653e-05
7.58314e-05
6.76434e-05
6.6306e-05
6.42268e-05
6.70903e-05
6.61451e-05
6.68767e-05
6.78668e-05
7.23027e-05
6.39516e-05
7.57188e-05
6.59009e-05
7.57373e-05
6.56592e-05
7.28042e-05
6.77105e-05
6.64131e-05
6.5507e-05
6.38688e-05
6.74075e-05
6.56467e-05
6.65516e-05
7.28471e-05
6.35455e-05
7.59778e-05
6.49838e-05
7.25037e-05
7.58347e-05
6.522e-05
6.75917e-05
6.62327e-05
6.425e-05
6.70573e-05
6.61446e-05
6.80613e-05
6.69011e-05
7.27195e-05
6.39378e-05
7.57176e-05
6.5934e-05
7.57447e-05
6.56715e-05
7.2453e-05
6.74657e-05
6.63724e-05
6.55108e-05
6.3907e-05
6.65659e-05
6.7534e-05
6.56847e-05
7.2539e-05
6.35528e-05
7.59826e-05
6.50066e-05
7.58319e-05
7.27364e-05
6.52189e-05
6.77668e-05
6.63177e-05
6.42203e-05
6.70371e-05
6.6871e-05
6.61145e-05
6.79252e-05
7.19881e-05
8.29928e-05
7.16968e-05
7.1507e-05
7.17119e-05
7.15845e-05
7.20583e-05
7.23136e-05
6.39624e-05
7.56646e-05
6.59421e-05
7.56034e-05
6.56381e-05
7.28546e-05
6.76146e-05
6.64586e-05
6.54792e-05
6.38755e-05
6.6523e-05
6.74523e-05
6.57337e-05
7.28781e-05
6.35464e-05
7.58178e-05
6.49676e-05
7.59731e-05
7.25295e-05
6.52537e-05
6.77166e-05
6.63654e-05
6.42511e-05
6.70206e-05
6.69496e-05
6.60827e-05
6.7855e-05
0.000233969
0.000233541
0.000233543
0.000233424
0.000232521
0.000227497
0.000227491
0.000223687
0.000230466
0.000220035
0.000220024
0.000208858
0.000227721
0.000211399
0.000211388
0.000193575
0.000224338
0.00020241
0.000202401
0.000179525
0.000220446
0.000193561
0.000193552
0.0001672
0.000216194
0.000185091
0.000185083
0.00015646
0.000211709
0.000177074
0.000177068
0.000147108
0.000207098
0.00016955
0.000169545
0.000138878
0.000202441
0.000162489
0.000162484
0.00013156
0.00019779
0.000155838
0.000155833
0.000124945
0.000193182
0.000149543
0.000149538
0.000118824
0.000188595
0.000143562
0.000143557
0.000113134
0.000184066
0.000137842
0.000137837
0.000107903
0.000179623
0.000132342
0.000132339
0.000102983
0.000175256
0.000127053
0.000127052
9.83351e-05
0.000170953
0.000121995
0.000121998
9.41163e-05
0.000166701
0.000117199
0.000117202
9.05202e-05
0.0001625
0.000112692
0.000112698
8.75901e-05
0.000108538
8.52577e-05
0.000234277
0.00023447
0.000234474
0.000234276
0.000234471
0.000234474
0.00023426
0.00023426
0.000234261
0.000234261
0.000234467
0.000234469
0.000234277
0.000234468
0.000234471
0.000234254
0.000233431
0.000226086
0.00023354
0.000233538