/*--------------------------------*- C++ -*----------------------------------*\
| =========                 |                                                 |
| \\      /  F ield         | OpenFOAM: The Open Source CFD Toolbox           |
|  \\    /   O peration     | Version:  2312                                  |
|   \\  /    A nd           | Website:  www.openfoam.com                      |
|    \\/     M anipulation  |                                                 |
\*---------------------------------------------------------------------------*/
FoamFile
{
    version     2.0;
    format      ascii;
    arch        "LSB;label=32;scalar=64";
    class       volVectorField;
    location    "450";
    object      U;
}
// * * * * * * * * * * * * * * * * * * * * * * * * * * * * * * * * * * * * * //

dimensions      [0 1 -1 0 0 0 0];

internalField   nonuniform List<vector> 
43008
(
(6.34757e-05 6.35246e-05 0.108289)
(5.91129e-05 -9.5539e-05 0.107557)
(6.2265e-05 6.2287e-05 0.108604)
(-9.37017e-05 5.81436e-05 0.107771)
(5.80836e-05 -9.36899e-05 0.107771)
(-0.000149538 -0.000149577 0.106584)
(0.000152345 0.00015239 0.106508)
(1.25861e-05 1.26909e-05 0.106725)
(5.92966e-05 9.55105e-05 0.107557)
(-5.94393e-05 9.56316e-05 0.107556)
(5.857e-05 9.41813e-05 0.107719)
(-5.86401e-05 9.42592e-05 0.107718)
(-1.2625e-05 1.26625e-05 0.106725)
(9.55365e-05 5.92412e-05 0.107557)
(9.55162e-05 -5.93448e-05 0.107556)
(9.41824e-05 5.85041e-05 0.107719)
(9.41111e-05 -5.85635e-05 0.107718)
(-9.41718e-05 5.84168e-05 0.107719)
(-9.40504e-05 -5.85107e-05 0.107718)
(0.000152343 -0.000152427 0.106508)
(1.25622e-05 -1.25627e-05 0.106725)
(-5.91998e-05 -9.55272e-05 0.107557)
(5.83498e-05 -9.41433e-05 0.107719)
(-5.84155e-05 -9.41539e-05 0.107719)
(-1.26402e-05 -1.25835e-05 0.106724)
(0.000149546 0.000149549 0.106584)
(5.83205e-05 9.37364e-05 0.10777)
(-5.83661e-05 9.37826e-05 0.10777)
(-0.000149552 0.000149513 0.106584)
(9.373e-05 5.8236e-05 0.107771)
(9.36542e-05 -5.82929e-05 0.10777)
(-9.35746e-05 -5.82358e-05 0.10777)
(0.000149497 -0.000149585 0.106584)
(-5.81461e-05 -9.37063e-05 0.10777)
(2.05929e-06 2.08356e-05 0.0947511)
(-2.84117e-06 3.82963e-05 0.0840943)
(2.75817e-06 7.04408e-05 0.0947944)
(-5.21764e-06 -1.23387e-06 0.0840815)
(5.94413e-06 -4.84591e-06 0.0725363)
(2.08164e-05 2.15643e-06 0.0947508)
(3.82977e-05 -2.81985e-06 0.0840945)
(7.04472e-05 2.87637e-06 0.094794)
(-1.29757e-06 -5.36279e-06 0.0840817)
(-6.35662e-05 6.35036e-05 0.108289)
(6.34357e-05 -6.35109e-05 0.108289)
(-6.35207e-05 -6.35066e-05 0.108289)
(6.25663e-05 6.25933e-05 0.108526)
(-6.26224e-05 6.25683e-05 0.108526)
(6.25018e-05 -6.25728e-05 0.108526)
(-6.25776e-05 -6.25754e-05 0.108526)
(-6.22028e-05 6.3203e-06 0.103006)
(-9.51038e-05 5.89478e-05 0.107612)
(-3.03401e-05 2.14174e-06 0.0963714)
(-0.000104357 2.11161e-05 0.108127)
(1.63385e-05 -3.51941e-06 0.072507)
(-4.78946e-06 5.87818e-06 0.0725361)
(6.2655e-06 -6.21174e-05 0.103005)
(2.12358e-05 -0.000104764 0.108055)
(3.08623e-05 -7.53226e-05 0.0963602)
(5.88554e-05 -9.50643e-05 0.107612)
(7.54824e-06 -0.000126224 0.102968)
(2.10935e-05 -0.00010436 0.108127)
(2.15835e-06 -3.02233e-05 0.0963696)
(-1.41252e-05 -1.40167e-05 0.106681)
(-1.55962e-05 1.96429e-06 0.0899648)
(2.06666e-06 -1.56465e-05 0.089962)
(1.61619e-06 1.52925e-05 0.0943852)
(-1.87682e-06 3.51984e-05 0.0838209)
(2.32159e-06 6.3598e-05 0.0944194)
(-4.54462e-06 -3.32177e-06 0.0838168)
(-3.39289e-06 1.56378e-05 0.0723242)
(5.70397e-06 -5.14693e-06 0.0723581)
(1.52537e-05 1.67797e-06 0.094385)
(3.51999e-05 -1.96855e-06 0.0838212)
(6.36204e-05 2.3848e-06 0.0944189)
(-3.31957e-06 -4.52475e-06 0.0838169)
(-6.23136e-05 6.22616e-05 0.108604)
(6.21986e-05 -6.22654e-05 0.108604)
(-6.22676e-05 -6.22666e-05 0.108604)
(-5.54134e-05 5.15464e-06 0.102755)
(-6.98458e-05 2.83806e-05 0.0960255)
(-0.000103182 2.06784e-05 0.108337)
(-9.32176e-05 5.78822e-05 0.107821)
(-0.000118579 6.48512e-06 0.102725)
(-2.56024e-05 7.42664e-07 0.0960417)
(-0.000102803 2.05348e-05 0.108405)
(1.55267e-05 -3.57196e-06 0.072325)
(-5.21012e-06 5.67897e-06 0.0723582)
(5.12838e-06 -5.53963e-05 0.102754)
(2.06684e-05 -0.000103207 0.108337)
(2.84143e-05 -6.9855e-05 0.0960267)
(5.78053e-05 -9.32087e-05 0.107821)
(6.63021e-06 -0.000118618 0.102724)
(2.05282e-05 -0.000102811 0.108405)
(7.4738e-07 -2.55025e-05 0.0960399)
(-3.42869e-05 -1.83346e-05 0.0896681)
(-1.82314e-05 -3.43241e-05 0.0896675)
(-1.11746e-05 -1.11278e-05 0.106761)
(-1.30451e-05 2.59626e-06 0.0896668)
(2.65069e-06 -1.30578e-05 0.0896639)
(3.41624e-06 1.63046e-05 0.0725068)
(-6.06217e-06 -4.81642e-06 0.0725363)
(1.62967e-05 3.3359e-06 0.0725057)
(-4.97139e-06 -6.24235e-06 0.0725357)
(1.95273e-05 3.69051e-05 0.0899753)
(3.69196e-05 1.93734e-05 0.0899727)
(1.40156e-05 1.41404e-05 0.106682)
(-2.08112e-06 1.56246e-05 0.0899656)
(1.54082e-05 -2.1462e-06 0.0899633)
(-5.5713e-06 -4.9939e-06 0.0724451)
(3.51115e-06 1.60116e-05 0.0724136)
(-5.01802e-06 -5.87506e-06 0.0724448)
(1.58905e-05 3.33265e-06 0.0724123)
(0.000150997 0.000151035 0.10655)
(-2.25137e-06 1.4316e-05 0.089813)
(1.42657e-05 -2.36884e-06 0.0898109)
(1.88673e-05 3.56853e-05 0.0898186)
(3.55498e-05 1.87769e-05 0.0898158)
(-2.21331e-06 2.08307e-05 0.0947508)
(2.75961e-06 3.82209e-05 0.0840935)
(-2.98074e-06 7.04286e-05 0.0947943)
(5.11554e-06 -1.24704e-06 0.0840808)
(6.32321e-06 6.20684e-05 0.103006)
(3.08437e-05 7.53722e-05 0.0963593)
(2.12549e-05 0.000104718 0.108055)
(5.90562e-05 9.50705e-05 0.107612)
(7.48002e-06 0.00012626 0.102969)
(2.09728e-06 3.03126e-05 0.0963696)
(2.11151e-05 0.000104313 0.108127)
(-6.40724e-06 6.20589e-05 0.103006)
(-3.09121e-05 7.52935e-05 0.0963581)
(-2.13154e-05 0.000104737 0.108055)
(-5.91959e-05 9.51777e-05 0.107611)
(-7.63097e-06 0.000126225 0.102969)
(-2.24833e-06 3.02696e-05 0.096368)
(-2.1186e-05 0.000104335 0.108127)
(2.51162e-06 6.69029e-05 0.0946027)
(-4.65739e-06 -2.44111e-06 0.0839456)
(-2.25484e-06 3.66733e-05 0.0839541)
(1.80663e-06 1.78984e-05 0.0945639)
(-2.70477e-06 6.68965e-05 0.0946026)
(4.66855e-06 -2.30198e-06 0.0839448)
(2.27128e-06 3.66785e-05 0.0839535)
(-1.94616e-06 1.79235e-05 0.0945636)
(7.01751e-06 0.000122424 0.102849)
(5.88237e-05 9.46414e-05 0.107666)
(1.46197e-06 2.77647e-05 0.0962021)
(2.08411e-05 0.000103554 0.108268)
(2.96475e-05 7.25773e-05 0.0961901)
(2.09757e-05 0.000103937 0.108197)
(5.71054e-06 5.86353e-05 0.102883)
(-7.16104e-06 0.000122431 0.102849)
(-5.89134e-05 9.47104e-05 0.107665)
(-1.48235e-06 2.79283e-05 0.0962001)
(-2.08909e-05 0.000103565 0.108267)
(-2.96767e-05 7.25778e-05 0.096189)
(-2.10336e-05 0.000103948 0.108197)
(-5.77921e-06 5.86445e-05 0.102883)
(-1.41006e-05 1.40999e-05 0.106681)
(1.9757e-06 1.56157e-05 0.0899631)
(-1.56879e-05 -2.07537e-06 0.089967)
(4.74696e-06 -5.94296e-06 0.0725387)
(5.75967e-06 -4.8018e-06 0.0724451)
(-3.4452e-06 1.59422e-05 0.0724129)
(-0.000151073 0.000151004 0.10655)
(2.423e-06 1.45026e-05 0.0898104)
(-1.43278e-05 -2.39432e-06 0.0898145)
(-1.88375e-05 3.56294e-05 0.0898153)
(-3.56032e-05 1.88404e-05 0.0898169)
(5.01576e-06 -5.83063e-06 0.072448)
(-1.59597e-05 3.42632e-06 0.0724109)
(6.20472e-05 6.39281e-06 0.103006)
(7.53228e-05 3.08535e-05 0.0963594)
(0.000104696 2.12841e-05 0.108055)
(9.50765e-05 5.89898e-05 0.107612)
(0.000126218 7.56249e-06 0.102968)
(3.01598e-05 2.03138e-06 0.096369)
(0.000104288 2.11408e-05 0.108127)
(2.08062e-05 -2.11098e-06 0.0947506)
(3.82637e-05 2.66115e-06 0.0840942)
(7.04301e-05 -2.8528e-06 0.0947938)
(-1.21695e-06 5.13286e-06 0.0840812)
(6.20427e-05 -6.30856e-06 0.103006)
(0.000104695 -2.12656e-05 0.108055)
(7.52829e-05 -3.09595e-05 0.096359)
(9.5031e-05 -5.90926e-05 0.107612)
(0.000126199 -7.54459e-06 0.102968)
(0.000104279 -2.11344e-05 0.108127)
(3.02548e-05 -2.13226e-06 0.0963677)
(6.69026e-05 2.61595e-06 0.0946023)
(-2.36972e-06 -4.82187e-06 0.0839459)
(3.66472e-05 -2.35768e-06 0.0839541)
(1.79127e-05 1.91593e-06 0.0945637)
(0.000122404 7.11879e-06 0.102849)
(9.46388e-05 5.87551e-05 0.107666)
(2.77816e-05 1.41584e-06 0.0962016)
(0.000103523 2.08731e-05 0.108268)
(7.25442e-05 2.96122e-05 0.0961898)
(0.000103907 2.1003e-05 0.108197)
(5.86448e-05 5.78465e-06 0.102883)
(6.68943e-05 -2.59749e-06 0.0946022)
(-2.32418e-06 4.81693e-06 0.0839454)
(3.6653e-05 2.25635e-06 0.083954)
(1.78992e-05 -1.83648e-06 0.0945636)
(0.000122383 -7.07007e-06 0.102849)
(9.45689e-05 -5.88344e-05 0.107666)
(0.000103502 -2.08466e-05 0.108267)
(2.7813e-05 -1.386e-06 0.0962003)
(0.000103886 -2.09918e-05 0.108197)
(7.25034e-05 -2.96881e-05 0.0961898)
(5.86546e-05 -5.68984e-06 0.102883)
(-2.09461e-05 2.12907e-06 0.0947517)
(1.18025e-06 -5.19589e-06 0.0840834)
(-6.21185e-05 -6.43863e-06 0.103005)
(-9.50098e-05 -5.90329e-05 0.107612)
(-0.000104308 -2.11612e-05 0.108127)
(-3.03045e-05 -2.20287e-06 0.0963694)
(-2.08903e-05 -2.18909e-06 0.0947503)
(1.25857e-06 5.09962e-06 0.0840814)
(-0.000122417 6.94263e-06 0.102849)
(-9.46407e-05 5.86826e-05 0.107666)
(-2.79001e-05 1.39828e-06 0.0962039)
(-0.000103565 2.08221e-05 0.108267)
(-7.24861e-05 2.95554e-05 0.0961895)
(-0.000103958 2.09667e-05 0.108198)
(-5.87784e-05 5.74068e-06 0.102883)
(-6.69152e-05 2.45158e-06 0.0946008)
(2.31588e-06 -4.87518e-06 0.0839476)
(-3.667e-05 -2.31814e-06 0.0839529)
(-1.80389e-05 1.89083e-06 0.0945645)
(-0.000122417 -7.20544e-06 0.102849)
(-9.45292e-05 -5.8774e-05 0.107666)
(-0.000103528 -2.08829e-05 0.108267)
(-2.7926e-05 -1.46536e-06 0.0962018)
(-0.000103913 -2.10178e-05 0.108197)
(-7.24554e-05 -2.96985e-05 0.0961896)
(-5.8692e-05 -5.79264e-06 0.102882)
(-6.69286e-05 -2.76049e-06 0.0946016)
(2.36989e-06 4.78621e-06 0.0839453)
(-3.66803e-05 2.24462e-06 0.0839537)
(-1.79979e-05 -1.8965e-06 0.0945631)
(3.69026e-05 -1.95312e-05 0.0899731)
(1.94306e-05 -3.69596e-05 0.0899751)
(1.40219e-05 -1.40214e-05 0.106681)
(1.55987e-05 1.9491e-06 0.0899617)
(-2.00194e-06 -1.5641e-05 0.0899655)
(3.41731e-06 -1.63985e-05 0.0725067)
(-5.93987e-06 4.79547e-06 0.0725364)
(-5.02204e-06 5.77369e-06 0.0724451)
(1.59232e-05 -3.55221e-06 0.0724138)
(0.00015098 -0.00015106 0.10655)
(1.42687e-05 2.26002e-06 0.0898092)
(-2.30129e-06 -1.42933e-05 0.0898129)
(3.55487e-05 -1.89155e-05 0.0898166)
(1.88239e-05 -3.55781e-05 0.0898183)
(-5.80475e-06 5.01426e-06 0.0724453)
(3.45703e-06 -1.5979e-05 0.0724135)
(-6.40293e-06 -6.21094e-05 0.103005)
(-2.12901e-05 -0.000104707 0.108055)
(-3.09044e-05 -7.53573e-05 0.0963592)
(-5.89273e-05 -9.50694e-05 0.107612)
(-7.5651e-06 -0.000126198 0.102967)
(-2.11456e-05 -0.000104292 0.108127)
(-2.12306e-06 -3.02156e-05 0.0963682)
(2.10327e-06 -2.09208e-05 0.0947504)
(-2.71937e-06 -3.82967e-05 0.0840948)
(2.86758e-06 -7.04583e-05 0.0947933)
(-5.13366e-06 1.25568e-06 0.0840816)
(-2.159e-06 -2.08822e-05 0.0947508)
(2.72175e-06 -3.83034e-05 0.0840947)
(-2.8735e-06 -7.04329e-05 0.0947927)
(5.17653e-06 1.20346e-06 0.0840814)
(7.07925e-06 -0.000122442 0.102849)
(5.86063e-05 -9.4605e-05 0.107666)
(2.08118e-05 -0.000103564 0.108267)
(1.41479e-06 -2.77897e-05 0.0962021)
(2.09495e-05 -0.000103975 0.108197)
(2.96004e-05 -7.25176e-05 0.0961907)
(5.70641e-06 -5.87361e-05 0.102882)
(-7.08693e-06 -0.000122396 0.102848)
(-5.86745e-05 -9.46095e-05 0.107666)
(-2.08773e-05 -0.000103524 0.108267)
(-1.36571e-06 -2.77573e-05 0.0962005)
(-2.10038e-05 -0.000103927 0.108197)
(-2.96334e-05 -7.25503e-05 0.0961899)
(-5.78126e-06 -5.87231e-05 0.102882)
(2.64223e-06 -6.69174e-05 0.0946016)
(-4.79103e-06 2.35568e-06 0.0839457)
(-2.31563e-06 -3.6668e-05 0.0839544)
(1.85786e-06 -1.80118e-05 0.0945633)
(-2.62147e-06 -6.69037e-05 0.094601)
(4.86207e-06 2.301e-06 0.0839454)
(2.33105e-06 -3.66752e-05 0.0839543)
(-1.87578e-06 -1.79762e-05 0.0945637)
(4.8116e-06 5.87118e-06 0.0725366)
(5.98956e-06 4.74778e-06 0.0725358)
(-0.000151035 -0.000151042 0.10655)
(-1.42825e-05 2.28984e-06 0.0898122)
(2.37047e-06 -1.43054e-05 0.0898093)
(-3.5577e-05 -1.89355e-05 0.0898173)
(-1.88055e-05 -3.56195e-05 0.0898166)
(5.04302e-06 5.78342e-06 0.0724455)
(-1.5957e-05 -3.52689e-06 0.0724133)
(5.87323e-06 4.97273e-06 0.0724447)
(-3.44801e-06 -1.59675e-05 0.0724135)
(3.62805e-06 1.56454e-05 0.0723246)
(-5.69619e-06 -5.22672e-06 0.0723585)
(1.55655e-05 3.46777e-06 0.0723236)
(-5.23397e-06 -5.71424e-06 0.0723579)
(1.83272e-05 3.44348e-05 0.0896697)
(3.42882e-05 1.82785e-05 0.0896667)
(1.11614e-05 1.12735e-05 0.106762)
(-2.54686e-06 1.30307e-05 0.0896675)
(1.30149e-05 -2.57318e-06 0.0896655)
(-1.65706e-06 1.52887e-05 0.0943849)
(2.01916e-06 3.52631e-05 0.0838205)
(-2.43842e-06 6.36133e-05 0.0944192)
(4.54225e-06 -3.27623e-06 0.0838158)
(5.14074e-06 5.5293e-05 0.102755)
(2.84903e-05 6.99194e-05 0.0960261)
(2.06998e-05 0.000103191 0.108337)
(5.80508e-05 9.32695e-05 0.107821)
(6.5774e-06 0.000118603 0.102725)
(7.54583e-07 2.55217e-05 0.0960398)
(2.05594e-05 0.000102815 0.108405)
(-5.14452e-06 5.53054e-05 0.102755)
(-2.84094e-05 6.99111e-05 0.0960252)
(-2.07423e-05 0.000103192 0.108337)
(-5.80872e-05 9.32987e-05 0.107821)
(-6.65562e-06 0.000118612 0.102725)
(-7.56094e-07 2.55956e-05 0.0960378)
(-2.05963e-05 0.00010282 0.108405)
(-1.80687e-05 3.43378e-05 0.0896662)
(-3.42878e-05 1.82576e-05 0.0896677)
(-1.11826e-05 1.12257e-05 0.106761)
(2.54941e-06 1.31285e-05 0.089665)
(-1.30829e-05 -2.67489e-06 0.0896691)
(-1.55241e-05 3.44891e-06 0.0723221)
(5.23377e-06 -5.7374e-06 0.0723612)
(5.53383e-05 5.18842e-06 0.102755)
(6.9865e-05 2.84584e-05 0.0960257)
(0.000103153 2.0736e-05 0.108337)
(9.32579e-05 5.79639e-05 0.107821)
(0.00011859 6.63057e-06 0.102725)
(2.54741e-05 7.72641e-07 0.0960394)
(0.000102775 2.05914e-05 0.108405)
(1.5239e-05 -1.6072e-06 0.0943849)
(3.51856e-05 1.93977e-06 0.0838212)
(6.36007e-05 -2.34539e-06 0.0944189)
(-3.2842e-06 4.55762e-06 0.0838167)
(5.53013e-05 -5.09345e-06 0.102755)
(0.000103123 -2.06967e-05 0.108337)
(6.98555e-05 -2.84823e-05 0.0960258)
(9.31828e-05 -5.80081e-05 0.107821)
(0.000118563 -6.59153e-06 0.102725)
(0.000102747 -2.05507e-05 0.108405)
(2.55172e-05 -6.87085e-07 0.0960381)
(-1.53829e-05 1.68213e-06 0.0943857)
(-3.5189e-05 -1.99145e-06 0.0838199)
(-6.36209e-05 2.22388e-06 0.0944175)
(3.29477e-06 -4.61502e-06 0.0838187)
(-5.53249e-05 -5.17929e-06 0.102754)
(-0.000103141 -2.0731e-05 0.108337)
(-6.98571e-05 -2.85085e-05 0.0960253)
(-9.30945e-05 -5.79575e-05 0.107821)
(-0.000118585 -6.69901e-06 0.102725)
(-0.00010277 -2.05848e-05 0.108405)
(-2.56443e-05 -7.69917e-07 0.0960396)
(-1.53434e-05 -1.63221e-06 0.0943844)
(-3.52179e-05 1.94133e-06 0.0838206)
(-6.36402e-05 -2.4943e-06 0.0944182)
(3.33695e-06 4.53342e-06 0.0838164)
(3.42543e-05 -1.83299e-05 0.0896676)
(1.82723e-05 -3.42812e-05 0.0896692)
(1.1119e-05 -1.11155e-05 0.106761)
(1.30343e-05 2.56698e-06 0.0896638)
(-2.57812e-06 -1.30739e-05 0.0896675)
(3.49604e-06 -1.55826e-05 0.0723245)
(-5.72275e-06 5.21913e-06 0.0723585)
(-5.17076e-06 -5.53943e-05 0.102755)
(-2.07225e-05 -0.000103175 0.108337)
(-2.84354e-05 -6.98918e-05 0.0960259)
(-5.78669e-05 -9.32333e-05 0.107821)
(-6.60696e-06 -0.00011857 0.102724)
(-2.05719e-05 -0.000102773 0.108405)
(-6.87725e-07 -2.54636e-05 0.0960383)
(1.62892e-06 -1.53696e-05 0.0943845)
(-1.97053e-06 -3.52204e-05 0.0838214)
(2.40709e-06 -6.36252e-05 0.0944181)
(-4.53354e-06 3.30809e-06 0.0838167)
(-1.62038e-06 -1.53377e-05 0.094385)
(2.01539e-06 -3.52178e-05 0.0838213)
(-2.35914e-06 -6.36138e-05 0.0944175)
(4.60035e-06 3.24615e-06 0.0838165)
(-1.55617e-05 -3.54025e-06 0.0723243)
(5.23096e-06 5.67635e-06 0.0723585)
(-3.4733e-06 -1.5575e-05 0.0723246)
(5.772e-06 5.15761e-06 0.0723578)
(-1.16737e-06 1.33265e-05 0.0780385)
(2.62693e-06 6.86495e-05 0.0946975)
(1.99123e-07 -1.02859e-05 0.0799124)
(4.16071e-06 1.39049e-05 0.092816)
(4.61488e-08 8.38482e-06 0.0798528)
(6.3803e-06 5.9139e-05 0.0927535)
(1.47069e-07 -6.15906e-06 0.078109)
(2.29919e-06 -6.6751e-06 0.0694215)
(5.30328e-06 3.91888e-05 0.0880753)
(-5.59944e-06 -6.32149e-07 0.0841522)
(8.36936e-07 1.24701e-05 0.0693268)
(3.67247e-06 3.64279e-06 0.0881441)
(-1.32912e-07 -6.25234e-06 0.0781576)
(2.17509e-06 2.23766e-05 0.0948478)
(-5.48153e-08 8.16963e-06 0.0799014)
(6.59362e-06 6.06373e-05 0.0928435)
(-1.43308e-06 1.32503e-05 0.0780872)
(9.99735e-08 -1.05089e-05 0.0799607)
(4.34537e-06 1.52044e-05 0.0929056)
(8.92784e-07 1.23656e-05 0.0692836)
(3.62876e-06 2.92133e-06 0.0880648)
(-2.54802e-06 3.75034e-05 0.0840232)
(5.25619e-06 3.82327e-05 0.0879955)
(2.37937e-06 -6.72735e-06 0.069378)
(5.99739e-06 -4.73098e-06 0.0725836)
(-3.38262e-06 1.61497e-05 0.0724587)
(1.33235e-05 -1.0254e-06 0.0780384)
(6.86466e-05 2.74553e-06 0.0946971)
(1.39179e-05 4.22417e-06 0.0928158)
(-1.02978e-05 2.82681e-07 0.0799122)
(5.91694e-05 6.48804e-06 0.0927533)
(8.36723e-06 1.71876e-07 0.0798524)
(-6.18475e-06 1.76415e-07 0.078109)
(-6.73859e-06 2.36647e-06 0.0694219)
(3.91767e-05 5.40008e-06 0.0880755)
(-6.36514e-07 -5.35541e-06 0.0841525)
(1.25007e-05 9.17812e-07 0.0693274)
(3.56652e-06 3.78112e-06 0.0881442)
(-6.27552e-06 -3.27283e-08 0.0781577)
(2.23726e-05 2.30196e-06 0.0948475)
(6.06735e-05 6.6881e-06 0.0928433)
(8.15529e-06 7.92504e-08 0.0799011)
(1.32566e-05 -1.30091e-06 0.0780872)
(1.52194e-05 4.44819e-06 0.0929055)
(-1.05322e-05 2.19529e-07 0.0799606)
(1.23864e-05 9.94005e-07 0.0692842)
(2.86576e-06 3.62752e-06 0.0880648)
(3.74557e-05 -2.66583e-06 0.0840234)
(3.82869e-05 5.2626e-06 0.0879958)
(-6.81094e-06 2.38594e-06 0.0693784)
(-4.66852e-06 5.93384e-06 0.0725832)
(1.61335e-05 -3.53634e-06 0.0724599)
(-2.74883e-05 -2.75583e-05 0.085651)
(-3.65822e-07 6.24626e-06 0.0695838)
(6.31109e-06 -4.23687e-07 0.0695773)
(-1.00133e-05 -1.20458e-05 0.0695014)
(-1.19491e-05 -1.01059e-05 0.0694952)
(-8.45097e-06 -8.50927e-06 0.0857043)
(-1.61266e-05 -2.09115e-05 0.0946917)
(-1.62974e-05 1.81308e-06 0.090044)
(-3.27924e-05 -3.54609e-05 0.10001)
(-1.23892e-05 6.97297e-06 0.0834761)
(-2.0826e-05 -1.61063e-05 0.0946831)
(1.89713e-06 -1.63614e-05 0.0900411)
(-3.53143e-05 -3.28356e-05 0.100006)
(7.04985e-06 -1.24407e-05 0.0834704)
(-8.92932e-06 -8.96009e-06 0.0857768)
(-5.38238e-07 6.24517e-06 0.0696322)
(6.30049e-06 -5.86349e-07 0.0696256)
(-6.91686e-05 -4.42805e-05 0.0945369)
(-1.19247e-05 6.83431e-06 0.0834102)
(-3.62428e-05 -1.92128e-05 0.0898947)
(-3.16197e-05 -3.42e-05 0.0999311)
(-9.95724e-05 -6.26988e-05 0.0998518)
(-3.07358e-05 -5.80584e-06 0.0833397)
(-1.52989e-05 -1.99991e-05 0.0946081)
(-4.42359e-05 -6.91989e-05 0.0945293)
(6.9244e-06 -1.19674e-05 0.0834044)
(-1.91082e-05 -3.63001e-05 0.0898938)
(-3.4048e-05 -3.16679e-05 0.0999271)
(-6.26394e-05 -9.96185e-05 0.0998488)
(-5.72649e-06 -3.08753e-05 0.0833358)
(-1.9872e-05 -1.52971e-05 0.0945995)
(-2.4384e-07 1.35796e-05 0.0778572)
(2.22441e-06 6.20726e-05 0.0943308)
(4.34488e-07 -9.1752e-06 0.079735)
(3.41461e-06 9.47071e-06 0.0924799)
(3.73945e-07 9.44189e-06 0.0796748)
(5.70907e-06 5.37256e-05 0.092416)
(8.23356e-07 -5.82283e-06 0.0779277)
(2.45004e-06 -6.98663e-06 0.0692537)
(4.9288e-06 3.57537e-05 0.0877693)
(-4.58589e-06 -2.8211e-06 0.0838804)
(1.0464e-06 1.19894e-05 0.0691604)
(3.2236e-06 9.66099e-07 0.0878397)
(7.20458e-07 -5.88823e-06 0.0779711)
(1.73822e-06 1.6585e-05 0.0944735)
(3.19854e-07 9.15929e-06 0.079717)
(5.86703e-06 5.49891e-05 0.0924971)
(-4.79168e-07 1.35233e-05 0.0779005)
(4.24527e-07 -9.46827e-06 0.0797771)
(3.62836e-06 1.05062e-05 0.0925607)
(1.19842e-06 1.19952e-05 0.0691217)
(3.03836e-06 3.92451e-07 0.0877689)
(-1.81443e-06 3.45415e-05 0.0837573)
(4.79818e-06 3.50927e-05 0.0876983)
(2.45881e-06 -7.02187e-06 0.0692145)
(5.78645e-06 -5.05198e-06 0.0724009)
(-3.57479e-06 1.55532e-05 0.0722811)
(1.35685e-05 -2.30258e-07 0.077857)
(6.20679e-05 2.2749e-06 0.0943304)
(9.46763e-06 3.47718e-06 0.0924796)
(-9.16794e-06 4.5223e-07 0.0797349)
(5.37332e-05 5.74463e-06 0.0924157)
(9.43763e-06 3.86289e-07 0.0796745)
(-5.82915e-06 8.51735e-07 0.0779276)
(-6.96201e-06 2.50107e-06 0.0692542)
(3.58104e-05 4.98694e-06 0.0877694)
(-2.8521e-06 -4.65619e-06 0.0838805)
(1.21077e-05 1.19502e-06 0.069161)
(9.39117e-07 3.25133e-06 0.0878397)
(-5.91639e-06 7.20325e-07 0.0779711)
(1.65561e-05 1.7949e-06 0.0944732)
(5.50003e-05 5.92064e-06 0.0924968)
(9.15907e-06 3.51516e-07 0.0797167)
(1.35257e-05 -3.89204e-07 0.0779004)
(1.04954e-05 3.64756e-06 0.0925604)
(-9.47273e-06 4.2645e-07 0.079777)
(1.1998e-05 1.24654e-06 0.0691219)
(3.71746e-07 3.11051e-06 0.0877687)
(3.454e-05 -1.81478e-06 0.0837573)
(3.50804e-05 4.86462e-06 0.0876982)
(-7.01526e-06 2.51516e-06 0.0692148)
(-5.11277e-06 5.72504e-06 0.0724011)
(1.53456e-05 -3.57138e-06 0.0722821)
(-2.55061e-05 -2.56067e-05 0.0853787)
(2.88548e-07 6.18916e-06 0.069401)
(6.2702e-06 2.29448e-07 0.0693944)
(-9.41017e-06 -1.17492e-05 0.0693188)
(-1.16303e-05 -9.51008e-06 0.0693127)
(-6.70898e-06 -6.78378e-06 0.0854337)
(-1.29247e-05 -1.74354e-05 0.0943685)
(-9.52897e-05 -5.89905e-05 0.0996209)
(-2.93312e-05 -6.031e-06 0.0831504)
(-1.3657e-05 2.44697e-06 0.0897386)
(-6.60676e-05 -4.15686e-05 0.0942969)
(-2.83007e-05 -3.07147e-05 0.0996999)
(-1.04863e-05 6.503e-06 0.0832213)
(-1.72673e-05 -1.29379e-05 0.0943599)
(-5.88862e-05 -9.53209e-05 0.0996181)
(-5.94555e-06 -2.94649e-05 0.0831465)
(2.52079e-06 -1.36692e-05 0.0897357)
(-4.14454e-05 -6.61018e-05 0.0942893)
(-3.04589e-05 -2.83089e-05 0.0996957)
(6.5964e-06 -1.05172e-05 0.0832154)
(-7.11268e-06 -7.18957e-06 0.0854987)
(-9.55605e-06 -1.18238e-05 0.0693629)
(-1.17006e-05 -9.65691e-06 0.0693567)
(-2.59778e-05 -2.60774e-05 0.085444)
(1.34391e-07 6.20615e-06 0.0694451)
(6.28312e-06 7.48913e-08 0.0694385)
(-6.50673e-05 -4.07023e-05 0.0942205)
(-1.00235e-05 6.41131e-06 0.0831611)
(-3.36407e-05 -1.80523e-05 0.0895962)
(-2.72408e-05 -2.95904e-05 0.0996244)
(-9.39003e-05 -5.78088e-05 0.0995456)
(-2.88675e-05 -6.0915e-06 0.0830902)
(-1.2192e-05 -1.66536e-05 0.0942923)
(-4.05753e-05 -6.51078e-05 0.094213)
(6.49476e-06 -1.00614e-05 0.0831553)
(-1.79585e-05 -3.36957e-05 0.0895957)
(-2.93182e-05 -2.72427e-05 0.0996201)
(-5.76935e-05 -9.39277e-05 0.0995428)
(-6.00253e-06 -2.89964e-05 0.0830863)
(-1.64517e-05 -1.2176e-05 0.0942837)
(-6.2712e-06 -4.8799e-06 0.0725835)
(3.39757e-06 1.61286e-05 0.0724593)
(-4.52882e-06 -6.01948e-06 0.0725831)
(1.61293e-05 3.30388e-06 0.0724588)
(2.74549e-05 2.74964e-05 0.0856507)
(-6.25649e-06 3.93053e-07 0.0695844)
(3.03981e-07 -6.1951e-06 0.0695776)
(1.19279e-05 1.00256e-05 0.0695012)
(1.00479e-05 1.19638e-05 0.0694946)
(8.40553e-06 8.49146e-06 0.0857054)
(2.08001e-05 1.60252e-05 0.0946927)
(6.4003e-05 0.000101094 0.0999308)
(5.78241e-06 3.12947e-05 0.0834072)
(-1.97432e-06 1.6167e-05 0.0900448)
(4.51815e-05 7.03139e-05 0.0946211)
(-7.1105e-06 1.23443e-05 0.0834775)
(3.53181e-05 3.27626e-05 0.10001)
(1.61154e-05 2.07358e-05 0.0946847)
(0.000100961 6.39064e-05 0.0999268)
(3.12416e-05 5.58382e-06 0.0834012)
(1.63765e-05 -1.9578e-06 0.0900427)
(7.01568e-05 4.5204e-05 0.0946125)
(1.24206e-05 -7.17244e-06 0.0834718)
(3.27605e-05 3.52965e-05 0.100007)
(8.80386e-06 8.73073e-06 0.0857779)
(1.21731e-05 1.03809e-05 0.0695501)
(1.0128e-05 1.20901e-05 0.0695433)
(2.79323e-05 2.8134e-05 0.0857237)
(-6.36944e-06 3.79671e-07 0.0696332)
(4.3764e-07 -6.56392e-06 0.0696262)
(4.41953e-05 6.9197e-05 0.0945371)
(-6.84272e-06 1.19341e-05 0.0834115)
(1.9121e-05 3.63122e-05 0.0898958)
(3.41065e-05 3.16606e-05 0.0999318)
(5.68144e-06 3.07962e-05 0.0833407)
(1.99522e-05 1.53125e-05 0.0946091)
(6.26604e-05 9.96769e-05 0.0998523)
(6.90948e-05 4.4223e-05 0.0945287)
(1.18595e-05 -6.82355e-06 0.0834059)
(3.61673e-05 1.90758e-05 0.0898933)
(3.15568e-05 3.40726e-05 0.0999287)
(3.07973e-05 5.7694e-06 0.0833352)
(1.52117e-05 1.99124e-05 0.094601)
(9.94583e-05 6.25911e-05 0.0998484)
(3.561e-06 1.57926e-05 0.0723685)
(-6.00407e-06 -4.97175e-06 0.0724903)
(1.57605e-05 3.43288e-06 0.0723675)
(-4.89304e-06 -5.96063e-06 0.0724897)
(7.99999e-06 7.98544e-06 0.085635)
(1.1918e-05 9.95293e-06 0.0694541)
(9.90124e-06 1.19878e-05 0.0694474)
(2.69909e-05 2.70731e-05 0.0855798)
(-6.23279e-06 1.95468e-07 0.0695372)
(1.94389e-07 -6.2947e-06 0.0695304)
(4.24049e-05 6.71737e-05 0.0943756)
(3.17573e-05 2.94372e-05 0.0997768)
(1.85842e-05 3.50241e-05 0.0897432)
(-6.62097e-06 1.10375e-05 0.0832841)
(5.94136e-06 2.99025e-05 0.0832134)
(6.02014e-05 9.68297e-05 0.0996979)
(1.82303e-05 1.37695e-05 0.0944475)
(6.70674e-05 4.24305e-05 0.094367)
(2.93793e-05 3.17065e-05 0.0997737)
(3.49421e-05 1.85253e-05 0.0897404)
(1.09657e-05 -6.64373e-06 0.0832785)
(2.98819e-05 5.96105e-06 0.0832074)
(9.66714e-05 6.01554e-05 0.0996937)
(1.36833e-05 1.81738e-05 0.0944395)
(1.90813e-05 1.44928e-05 0.0945274)
(5.87356e-06 3.03525e-05 0.0832763)
(6.14315e-05 9.82544e-05 0.0997748)
(-2.22477e-06 1.48838e-05 0.0898884)
(4.33123e-05 6.82102e-05 0.0944554)
(-6.71026e-06 1.14326e-05 0.083347)
(3.29067e-05 3.05038e-05 0.0998539)
(1.44933e-05 1.90168e-05 0.0945194)
(3.03146e-05 5.86513e-06 0.0832704)
(9.80779e-05 6.13688e-05 0.0997707)
(1.49164e-05 -2.27349e-06 0.0898862)
(6.80714e-05 4.33492e-05 0.0944469)
(1.14449e-05 -6.78267e-06 0.0833414)
(3.04994e-05 3.28873e-05 0.0998508)
(2.65262e-05 2.65717e-05 0.085511)
(-6.36559e-06 4.13921e-08 0.069491)
(-8.11161e-09 -6.28857e-06 0.0694841)
(1.1857e-05 9.79198e-06 0.0694082)
(9.79347e-06 1.18955e-05 0.0694013)
(7.51345e-06 7.56675e-06 0.0855665)
(8.63622e-07 1.33238e-05 0.0780379)
(-2.85891e-06 6.8645e-05 0.0946974)
(-3.61765e-07 -1.0295e-05 0.0799122)
(-4.29274e-06 1.39008e-05 0.092815)
(-2.89387e-07 8.37406e-06 0.0798527)
(-6.60903e-06 5.91429e-05 0.0927537)
(-2.9016e-07 -6.17455e-06 0.078108)
(-2.44054e-06 -6.73969e-06 0.0694228)
(-5.47282e-06 3.91378e-05 0.0880762)
(5.31232e-06 -6.41496e-07 0.0841516)
(-9.71301e-07 1.24523e-05 0.0693292)
(-3.8842e-06 3.62865e-06 0.0881435)
(-6.82019e-08 -6.26457e-06 0.0781567)
(-2.36263e-06 2.23645e-05 0.0948475)
(-1.89247e-07 8.15328e-06 0.0799014)
(-6.79234e-06 6.06517e-05 0.0928437)
(-3.03614e-07 -1.0528e-05 0.0799606)
(1.20161e-06 1.32352e-05 0.0780867)
(-4.52486e-06 1.51907e-05 0.0929046)
(-1.10875e-06 1.24398e-05 0.0692859)
(-3.73133e-06 2.8859e-06 0.0880642)
(2.46526e-06 3.74921e-05 0.0840226)
(-5.43036e-06 3.83237e-05 0.0879964)
(-2.48214e-06 -6.75751e-06 0.0693794)
(3.45054e-07 -6.06504e-06 0.0780617)
(1.32179e-07 8.62225e-06 0.0798059)
(6.19272e-06 5.76803e-05 0.0926658)
(1.91822e-06 1.93474e-05 0.0946564)
(-9.41786e-07 1.33884e-05 0.0779912)
(2.48062e-07 -1.00278e-05 0.0798657)
(3.93155e-06 1.26986e-05 0.0927287)
(9.70597e-07 1.21516e-05 0.0692008)
(-1.97018e-06 3.59062e-05 0.0838868)
(3.30934e-06 1.32134e-06 0.0879126)
(2.17479e-06 -7.20966e-06 0.0692941)
(5.09704e-06 3.64618e-05 0.0878428)
(2.41419e-06 -6.73903e-06 0.0693357)
(5.18883e-06 3.73455e-05 0.087918)
(-5.01582e-06 -1.82657e-06 0.0840127)
(9.4769e-07 1.22023e-05 0.0692416)
(3.5057e-06 2.26256e-06 0.0879878)
(-7.72097e-07 1.34426e-05 0.0779452)
(2.38536e-06 6.52304e-05 0.09451)
(2.94172e-07 -9.76464e-06 0.0798207)
(3.69712e-06 1.15159e-05 0.0926436)
(2.97273e-07 -6.05329e-06 0.0780158)
(1.8556e-07 8.89336e-06 0.0797607)
(5.96005e-06 5.62824e-05 0.0925804)
(-4.43077e-07 -6.09711e-06 0.0780607)
(-3.30019e-07 8.62145e-06 0.0798058)
(-6.36571e-06 5.76884e-05 0.092666)
(-2.07649e-06 1.93452e-05 0.0946562)
(7.17115e-07 1.33807e-05 0.0779906)
(-4.02762e-07 -1.00273e-05 0.0798656)
(-4.07306e-06 1.27134e-05 0.0927276)
(-1.1579e-06 1.21939e-05 0.0692026)
(2.10613e-06 3.59601e-05 0.083886)
(-3.46767e-06 1.54945e-06 0.0879119)
(-5.14764e-06 3.66085e-05 0.0878433)
(-2.50719e-06 -6.9023e-06 0.0692954)
(-2.48309e-06 -6.8515e-06 0.0693368)
(-5.27659e-06 3.74197e-05 0.0879188)
(4.94132e-06 -1.81233e-06 0.0840117)
(-1.09846e-06 1.22867e-05 0.0692438)
(-3.56961e-06 2.21019e-06 0.0879869)
(5.19336e-07 1.34511e-05 0.0779445)
(-2.57453e-06 6.5229e-05 0.0945099)
(-4.53047e-07 -9.74696e-06 0.0798205)
(-3.87139e-06 1.15582e-05 0.0926425)
(-3.68025e-07 8.88635e-06 0.0797606)
(-6.16924e-06 5.63056e-05 0.0925805)
(-6.17336e-07 -5.99086e-06 0.0780148)
(-2.75625e-05 2.75377e-05 0.085651)
(6.27153e-06 3.34093e-07 0.0695783)
(-4.142e-07 -6.33239e-06 0.0695837)
(-1.20341e-05 1.01063e-05 0.0694953)
(-1.00327e-05 1.20072e-05 0.0695008)
(-8.51826e-06 8.39258e-06 0.085705)
(-2.09099e-05 1.60618e-05 0.0946839)
(1.80753e-06 1.62933e-05 0.0900423)
(6.95561e-06 1.2415e-05 0.0834715)
(-3.54614e-05 3.27978e-05 0.100006)
(-1.62032e-05 2.08233e-05 0.0946928)
(-1.63957e-05 -1.91527e-06 0.090046)
(-3.29355e-05 3.53392e-05 0.100011)
(-1.24698e-05 -7.07922e-06 0.0834774)
(-9.00931e-06 8.85422e-06 0.0857774)
(6.23639e-06 4.99608e-07 0.0696266)
(-6.00646e-07 -6.33915e-06 0.0696321)
(-4.43205e-05 6.91567e-05 0.0945285)
(6.84794e-06 1.19613e-05 0.0834058)
(-1.91343e-05 3.62916e-05 0.0898926)
(-3.42195e-05 3.16566e-05 0.0999277)
(-5.80027e-06 3.08255e-05 0.0833346)
(-6.26831e-05 9.95857e-05 0.099848)
(-1.99619e-05 1.52529e-05 0.0946004)
(-6.92484e-05 4.42719e-05 0.0945374)
(-1.19819e-05 -6.95407e-06 0.0834115)
(-3.62642e-05 1.91389e-05 0.0898943)
(-3.17755e-05 3.4087e-05 0.0999326)
(-9.95898e-05 6.26689e-05 0.099852)
(-3.07735e-05 5.78354e-06 0.0833402)
(-1.53644e-05 1.99108e-05 0.0946092)
(4.62813e-06 -6.01679e-06 0.0725856)
(-1.61561e-05 3.41278e-06 0.0724572)
(-3.442e-06 1.58012e-05 0.0723679)
(5.87257e-06 -4.92931e-06 0.0724899)
(-8.05315e-06 7.88441e-06 0.0856345)
(-1.19397e-05 9.96609e-06 0.0694481)
(-9.88345e-06 1.19212e-05 0.0694536)
(-2.70457e-05 2.70391e-05 0.0855802)
(6.3191e-06 1.20987e-07 0.069531)
(-2.57976e-07 -6.34218e-06 0.0695364)
(-4.24225e-05 6.70649e-05 0.0943666)
(-3.17547e-05 2.94283e-05 0.0997727)
(-1.84961e-05 3.50188e-05 0.0897399)
(6.75591e-06 1.10348e-05 0.0832787)
(-6.01391e-05 9.67465e-05 0.0996933)
(-5.89275e-06 2.9894e-05 0.0832068)
(-1.81459e-05 1.36305e-05 0.0944389)
(-6.71309e-05 4.23906e-05 0.0943756)
(-2.9497e-05 3.16695e-05 0.0997777)
(-3.49103e-05 1.85246e-05 0.0897414)
(-1.10133e-05 -6.75188e-06 0.0832841)
(-2.98327e-05 5.91612e-06 0.0832126)
(-9.67201e-05 6.01499e-05 0.0996975)
(-1.37448e-05 1.81258e-05 0.0944476)
(-1.90582e-05 1.44539e-05 0.0945187)
(-5.86488e-06 3.03636e-05 0.08327)
(-6.1402e-05 9.81462e-05 0.0997703)
(2.18754e-06 1.49707e-05 0.0898857)
(-3.29811e-05 3.05169e-05 0.0998499)
(-4.33545e-05 6.8098e-05 0.0944466)
(6.80154e-06 1.14895e-05 0.0833414)
(-1.45686e-05 1.90077e-05 0.0945274)
(-3.0303e-05 5.86909e-06 0.0832757)
(-9.81664e-05 6.14065e-05 0.0997744)
(-1.50088e-05 -2.24046e-06 0.0898899)