/*--------------------------------*- C++ -*----------------------------------*\
| =========                 |                                                 |
| \\      /  F ield         | OpenFOAM: The Open Source CFD Toolbox           |
|  \\    /   O peration     | Version:  2312                                  |
|   \\  /    A nd           | Website:  www.openfoam.com                      |
|    \\/     M anipulation  |                                                 |
\*---------------------------------------------------------------------------*/
FoamFile
{
    version     2.0;
    format      ascii;
    arch        "LSB;label=32;scalar=64";
    class       volScalarField;
    location    "550";
    object      nut;
}
// * * * * * * * * * * * * * * * * * * * * * * * * * * * * * * * * * * * * * //

dimensions      [0 2 -1 0 0 0 0];

internalField   nonuniform List<scalar> 
43168
(
0.000208363
0.000201473
0.000201485
0.000182483
0.000182447
0.000201135
0.000201116
0.000182415
0.000201146
0.000201124
0.000201147
0.000201126
0.000182463
0.00020116
0.000201135
0.00018238
0.000182446
0.00020146
0.000201439
0.000182446
0.000201471
0.000201448
0.00020145
0.000182451
0.00020146
5.07473e-05
5.07401e-05
0.000207771
0.000207764
0.000207778
0.000207769
9.99481e-05
5.07562e-05
9.98926e-05
5.07666e-05
2.38966e-05
2.39009e-05
9.99415e-05
5.07536e-05
9.98928e-05
5.07593e-05
0.000208356
0.00020837
0.000208361
0.000144493
0.000103662
0.000211327
0.000201787
0.000144313
0.000103733
0.000211741
2.38958e-05
2.38999e-05
0.000144491
0.000211331
0.000103665
0.0002018
0.00014431
0.00021175
0.000103736
7.79286e-05
7.79233e-05
0.000182826
7.79488e-05
7.7944e-05
2.38941e-05
2.3892e-05
0.000182015
7.7907e-05
7.79003e-05
2.38985e-05
2.38942e-05
2.38965e-05
2.38922e-05
0.000181994
7.79343e-05
7.7928e-05
7.79095e-05
7.79037e-05
0.000200475
0.000103598
9.98401e-05
5.0757e-05
5.07465e-05
9.98995e-05
9.98362e-05
5.07515e-05
5.0741e-05
9.98956e-05
0.000144128
0.000200809
0.000103669
0.000210893
0.000103595
0.000210462
0.000144316
0.000144124
0.000200791
0.000103645
0.000210886
0.00010357
0.000210455
0.000144312
2.38965e-05
2.38922e-05
0.000181998
7.7914e-05
7.79312e-05
7.78885e-05
2.38977e-05
0.000200486
0.000103589
9.98408e-05
5.07499e-05
5.07439e-05
9.98921e-05
0.000144138
0.00020082
0.00010366
0.000210893
0.000103586
0.000210462
0.000144304
9.98377e-05
5.07467e-05
5.07373e-05
9.98887e-05
0.000144134
0.000200798
0.00021089
0.000103649
0.000210459
0.000103576
0.0001443
0.000103666
0.000210893
0.000144312
5.07531e-05
9.98873e-05
0.000210892
0.000103657
0.000144313
5.07472e-05
9.98925e-05
2.38955e-05
2.38913e-05
0.000182021
7.79176e-05
7.7932e-05
7.78967e-05
7.791e-05
2.38977e-05
2.38935e-05
0.00014412
0.000200834
0.000210902
0.00010367
0.00021047
0.000103595
0.00014431
0.000144112
0.000200809
0.000210893
0.00010365
0.000210461
0.000103576
0.000144301
9.98261e-05
5.07534e-05
5.07424e-05
9.9886e-05
9.98156e-05
5.07477e-05
5.07367e-05
9.98759e-05
0.000182081
7.79229e-05
7.79181e-05
7.78965e-05
2.38963e-05
2.38953e-05
2.38911e-05
2.38987e-05
2.39029e-05
2.38967e-05
2.39008e-05
7.79369e-05
7.79308e-05
0.000182857
7.79602e-05
7.79539e-05
2.39031e-05
2.39011e-05
0.000182884
7.79621e-05
7.7956e-05
9.99452e-05
5.07506e-05
9.98886e-05
5.0761e-05
0.000144498
0.000103665
0.000211323
0.000201775
0.000144316
0.000103735
0.000211742
0.000144494
0.00010364
0.000211315
0.000201755
0.000144312
0.000103712
0.000211734
9.99414e-05
5.07656e-05
9.9938e-05
5.076e-05
0.000144499
0.00020209
0.00010373
0.000212161
0.000144494
0.00020207
0.000103706
0.000212153
7.79152e-05
7.79371e-05
0.000182843
7.79396e-05
7.79573e-05
2.3898e-05
2.39021e-05
2.3901e-05
0.000182875
7.79403e-05
7.79626e-05
2.39024e-05
0.000144487
0.000103656
0.000211323
0.000201787
0.000144326
0.000103726
0.000211742
9.99388e-05
5.07497e-05
9.98896e-05
5.07554e-05
0.000144484
0.000211321
0.000103646
0.000201764
0.000144323
0.000211739
0.000103715
9.99415e-05
5.07631e-05
0.000144506
0.000202102
0.000103722
0.000212161
9.99387e-05
5.07592e-05
0.000144503
0.000202079
0.000212159
0.000103712
9.9937e-05
5.07525e-05
9.98805e-05
5.07627e-05
0.000144495
0.000211323
0.000103652
0.000201765
0.000144313
0.000211741
0.000103723
9.99422e-05
5.07508e-05
9.98859e-05
5.07565e-05
0.000144493
0.000202104
0.000103728
0.000212164
9.99299e-05
5.07618e-05
0.000144495
0.00020208
0.000212161
0.000103717
9.99353e-05
5.07602e-05
7.79237e-05
7.79372e-05
0.00018286
7.79435e-05
7.79578e-05
2.3898e-05
2.39021e-05
2.39002e-05
0.000182881
7.79489e-05
7.79624e-05
2.39024e-05
0.000144484
0.000211322
0.000103647
0.000201775
0.000144302
0.000211741
0.000103716
9.99357e-05
5.07527e-05
9.98789e-05
5.0763e-05
9.99257e-05
5.07469e-05
9.98684e-05
5.07573e-05
0.000144491
0.000202115
0.000212169
0.000103731
0.000144485
0.000202091
0.00021216
0.000103711
9.99283e-05
5.0762e-05
9.99179e-05
5.07563e-05
2.38966e-05
2.39007e-05
2.38955e-05
2.38997e-05
0.000182888
7.79538e-05
7.79486e-05
2.3901e-05
2.38999e-05
2.03161e-05
7.90826e-05
5.07412e-05
7.90644e-05
2.03181e-05
5.07394e-05
3.67281e-05
9.99168e-05
4.10709e-05
9.45408e-05
4.10709e-05
9.45201e-05
3.6727e-05
2.03236e-05
7.90954e-05
5.07619e-05
2.03216e-05
7.91127e-05
3.67236e-05
9.9924e-05
4.10667e-05
9.45009e-05
3.67247e-05
4.10671e-05
9.45223e-05
2.03234e-05
7.9122e-05
5.07611e-05
7.91051e-05
2.03254e-05
2.38987e-05
2.38988e-05
3.67281e-05
9.99178e-05
9.45362e-05
4.10703e-05
9.45159e-05
4.10704e-05
3.67269e-05
2.0324e-05
7.90915e-05
5.07547e-05
2.0322e-05
7.91083e-05
3.67236e-05
9.99176e-05
9.44967e-05
4.10662e-05
3.67245e-05
9.45178e-05
4.10665e-05
2.03238e-05
7.91176e-05
5.07582e-05
7.9101e-05
2.03258e-05
2.38977e-05
2.3898e-05
8.15153e-05
2.17175e-05
2.17143e-05
2.17156e-05
2.17123e-05
8.15222e-05
0.000105294
0.000128907
4.86623e-05
7.79364e-05
0.000105272
0.000128959
4.86695e-05
0.000105299
0.000128889
4.86558e-05
7.79311e-05
0.000105279
0.000128943
4.86559e-05
8.1514e-05
2.17138e-05
2.17106e-05
8.1507e-05
2.17158e-05
2.17125e-05
0.000105298
4.86739e-05
7.79413e-05
0.00012902
0.000128968
4.86669e-05
0.00010532
0.000105305
4.86616e-05
7.79362e-05
0.000129002
0.00012895
4.86583e-05
0.000105325
2.3892e-05
2.389e-05
8.14865e-05
2.17107e-05
2.17074e-05
2.17087e-05
2.17054e-05
8.14945e-05
0.000105195
4.86591e-05
7.78955e-05
0.000128779
4.86515e-05
0.000105219
0.000128727
0.000105197
4.86465e-05
7.78896e-05
0.000128761
4.86389e-05
0.00010522
0.000128704
2.38965e-05
2.38963e-05
2.38945e-05
2.38942e-05
8.15034e-05
2.17105e-05
2.17072e-05
8.14958e-05
2.17126e-05
2.17093e-05
0.000105252
0.000128907
7.79233e-05
4.86681e-05
4.86606e-05
0.000128858
0.000105275
0.000105254
0.000128889
7.79173e-05
4.86555e-05
4.86481e-05
0.000128834
0.000105276
0.000105248
4.86563e-05
0.000128793
7.79204e-05
0.000105224
4.86633e-05
0.000128844
0.000105249
4.86438e-05
0.000128769
7.7914e-05
0.000105226
4.86507e-05
0.000128825
8.15046e-05
2.17144e-05
2.17111e-05
2.17124e-05
2.17091e-05
8.15121e-05
3.67166e-05
4.10586e-05
9.44598e-05
9.98731e-05
3.67177e-05
4.1059e-05
9.44823e-05
2.03198e-05
5.07512e-05
7.9103e-05
2.03218e-05
7.90854e-05
2.03199e-05
7.90753e-05
5.07519e-05
2.03179e-05
7.90928e-05
3.67207e-05
9.98665e-05
4.10628e-05
9.45028e-05
3.67205e-05
4.10626e-05
9.44801e-05
3.67187e-05
4.10555e-05
9.44435e-05
9.98698e-05
3.67118e-05
4.10615e-05
9.44746e-05
2.03191e-05
5.07456e-05
7.90807e-05
7.90634e-05
2.03211e-05
2.03193e-05
7.90531e-05
5.07465e-05
2.03173e-05
7.90706e-05
3.67159e-05
9.98627e-05
4.10656e-05
9.4495e-05
4.10597e-05
9.44641e-05
3.67222e-05
2.38944e-05
2.38943e-05
0.000105255
0.000128876
7.79018e-05
4.86549e-05
0.000128823
4.86476e-05
0.000105273
0.000105252
0.000128908
7.79239e-05
4.86628e-05
4.86634e-05
0.000128854
0.00010527
0.00012876
7.79001e-05
0.000128812
8.14997e-05
2.17108e-05
2.17139e-05
2.17088e-05
2.17119e-05
8.15062e-05
2.38961e-05
3.6716e-05
9.44558e-05
4.10585e-05
9.98663e-05
3.67172e-05
9.44774e-05
4.10583e-05
2.03202e-05
5.07489e-05
7.90986e-05
2.03222e-05
7.90813e-05
2.03203e-05
7.90714e-05
5.07454e-05
2.03183e-05
7.90884e-05
3.67206e-05
9.98663e-05
9.4498e-05
4.10621e-05
3.67207e-05
9.44756e-05
4.1062e-05
3.67142e-05
4.10583e-05
9.44455e-05
9.98633e-05
3.67155e-05
4.1058e-05
9.44671e-05
2.03192e-05
5.07441e-05
7.9078e-05
7.90609e-05
2.03212e-05
2.03193e-05
7.90505e-05
5.07428e-05
2.03173e-05
7.9068e-05
3.6719e-05
9.98634e-05
4.1062e-05
9.44872e-05
4.10619e-05
9.44656e-05
3.67186e-05
2.03203e-05
5.07475e-05
7.9089e-05
7.90769e-05
2.03224e-05
3.67166e-05
9.98543e-05
9.449e-05
4.10645e-05
9.44597e-05
4.10583e-05
3.67236e-05
2.03194e-05
5.07462e-05
7.90782e-05
7.90609e-05
2.03214e-05
3.67196e-05
9.98595e-05
4.10652e-05
9.44927e-05
4.10592e-05
9.4462e-05
3.67191e-05
2.38936e-05
2.38933e-05
8.14994e-05
2.17075e-05
2.17107e-05
8.14923e-05
2.17095e-05
2.17127e-05
0.000105256
0.000128883
7.79105e-05
4.86521e-05
0.000128827
4.86523e-05
0.000105277
0.000105254
0.000128913
7.79239e-05
4.86681e-05
4.86608e-05
0.000128858
0.000105275
0.00010525
4.86482e-05
0.000128763
7.7904e-05
0.000128819
0.000105229
4.86478e-05
0.000105248
4.86561e-05
0.000128793
7.79184e-05
0.000105225
4.86634e-05
0.000128849
8.15009e-05
2.17113e-05
2.17145e-05
2.17093e-05
2.17126e-05
8.15081e-05
2.38958e-05
2.38955e-05
3.67207e-05
9.44505e-05
4.1054e-05
9.98603e-05
3.67136e-05
9.4482e-05
4.10604e-05
2.03208e-05
5.07476e-05
7.90993e-05
7.9082e-05
2.03228e-05
2.0321e-05
7.90716e-05
5.07483e-05
2.0319e-05
7.90894e-05
3.67183e-05
9.98531e-05
9.45024e-05
4.10646e-05
9.44718e-05
4.10585e-05
3.67237e-05
3.67148e-05
9.44355e-05
4.10533e-05
9.985e-05
3.67147e-05
9.44587e-05
4.106e-05
2.03189e-05
5.07419e-05
7.90764e-05
7.90591e-05
2.03209e-05
2.03191e-05
7.9049e-05
5.07427e-05
2.03171e-05
7.90663e-05
3.67176e-05
9.98426e-05
9.4479e-05
4.10641e-05
9.44554e-05
4.10579e-05
3.67187e-05
8.14967e-05
2.17122e-05
2.17089e-05
0.000105245
0.000128898
7.79153e-05
4.86649e-05
0.000105267
0.000128844
4.86577e-05
0.000105252
0.000128881
7.791e-05
4.86511e-05
0.000105272
0.000128826
4.86513e-05
0.00010524
7.79098e-05
0.000128835
4.86593e-05
0.000105245
0.000128761
7.79044e-05
0.000128817
4.86467e-05
8.14984e-05
2.1714e-05
2.17107e-05
8.15054e-05
2.1712e-05
2.17088e-05
2.38944e-05
2.38941e-05
2.38933e-05
2.38931e-05
2.39007e-05
2.39009e-05
2.38987e-05
2.38989e-05
8.15214e-05
2.17179e-05
2.17146e-05
2.1716e-05
2.17127e-05
8.15286e-05
0.000105302
0.00012892
4.86656e-05
7.79473e-05
0.00010528
4.86726e-05
0.000128969
0.000105304
0.000128896
4.8653e-05
7.7941e-05
0.000105281
4.866e-05
0.00012895
8.15205e-05
2.17142e-05
2.17109e-05
8.15132e-05
2.17162e-05
2.17129e-05
0.000105306
4.8677e-05
7.79498e-05
0.000129029
4.86698e-05
0.000105328
0.000128981
0.000105307
4.86645e-05
7.79437e-05
0.00012901
4.86573e-05
0.000105329
0.000128958
2.39051e-05
2.3903e-05
8.15365e-05
2.17177e-05
2.17144e-05
8.15295e-05
2.17197e-05
2.17164e-05
0.000105354
4.86741e-05
0.000129041
7.79722e-05
0.000105331
4.86813e-05
0.000129087
0.000105355
4.86616e-05
0.000129017
7.79658e-05
0.000105333
4.86687e-05
0.000129069
3.67228e-05
9.99132e-05
4.10735e-05
9.45334e-05
4.10675e-05
9.45035e-05
3.67293e-05
2.03229e-05
7.90732e-05
5.07562e-05
2.03209e-05
7.90905e-05
3.6726e-05
9.99208e-05
4.10638e-05
9.44847e-05
4.10693e-05
3.67193e-05
9.45146e-05
2.03227e-05
7.90999e-05
5.07554e-05
7.90829e-05
2.03247e-05
3.67305e-05
4.10746e-05
9.45388e-05
9.99718e-05
3.67315e-05
4.10751e-05
9.45595e-05
2.03272e-05
7.91143e-05
5.07711e-05
2.03252e-05
7.9131e-05
3.67328e-05
4.10719e-05
9.4523e-05
9.99689e-05
3.67262e-05
4.10775e-05
9.45521e-05
2.03265e-05
7.90921e-05
5.07656e-05
2.03245e-05
7.9109e-05
8.15168e-05
2.17146e-05
2.17177e-05
2.17126e-05
2.17157e-05
8.15233e-05
0.0001053
0.000128886
4.86526e-05
7.79269e-05
4.86594e-05
0.000105282
0.000128937
0.000105297
0.000128918
4.86676e-05
7.79445e-05
0.00012897
0.000105279
4.86677e-05
8.15148e-05
2.17108e-05
2.1714e-05
2.17128e-05
8.15083e-05
2.17159e-05
0.000105308
4.86639e-05
7.79279e-05
0.000128997
4.86568e-05
0.000128947
0.000105325
0.000105306
4.86719e-05
7.79501e-05
0.00012903
0.000128979
4.86724e-05
0.000105323
2.38999e-05
2.39002e-05
2.3903e-05
8.15314e-05
2.17144e-05
2.17175e-05
8.1525e-05
2.17164e-05
2.17194e-05
0.00010535
4.86611e-05
0.000129007
7.79517e-05
0.000129055
0.000105333
4.86681e-05
0.000105348
4.86768e-05
0.000129038
7.79698e-05
0.000105331
4.86764e-05
0.000129089
2.39043e-05
3.67262e-05
9.99149e-05
4.10701e-05
9.45263e-05
4.10702e-05
9.45059e-05
3.67252e-05
2.0323e-05
7.90709e-05
5.07508e-05
2.0321e-05
7.90877e-05
3.67217e-05
9.99149e-05
4.1066e-05
9.44863e-05
4.10664e-05
3.67225e-05
9.45078e-05
2.03228e-05
7.90971e-05
5.07543e-05
7.90804e-05
2.03248e-05
3.67304e-05
9.45345e-05
4.10741e-05
9.99655e-05
3.67314e-05
9.45551e-05
4.10744e-05
2.03276e-05
7.91102e-05
5.07642e-05
2.03256e-05
7.91266e-05
3.67285e-05
4.10739e-05
9.45245e-05
9.99626e-05
3.67296e-05
4.10741e-05
9.45453e-05
2.03266e-05
7.90898e-05
5.07602e-05
2.03246e-05
7.91061e-05
3.67245e-05
9.99053e-05
9.4529e-05
4.10726e-05
9.44996e-05
4.10663e-05
3.67301e-05
2.03242e-05
7.9087e-05
5.07579e-05
7.90988e-05
2.03221e-05
3.6727e-05
9.99125e-05
9.44804e-05
4.10627e-05
9.451e-05
3.67212e-05
4.10684e-05
2.03239e-05
7.91083e-05
5.07571e-05
7.90964e-05
2.0326e-05
3.67266e-05
9.99105e-05
4.10733e-05
9.45318e-05
4.10673e-05
9.45022e-05
3.67259e-05
2.03232e-05
7.90708e-05
5.07519e-05
2.03212e-05
7.90879e-05
3.67227e-05
9.99178e-05
4.10636e-05
9.44831e-05
3.67224e-05
4.10691e-05
9.45127e-05
2.0323e-05
7.90973e-05
5.07555e-05
7.90804e-05
2.0325e-05
3.67331e-05
9.45187e-05
4.10707e-05
9.99605e-05
3.67286e-05
9.45467e-05
4.10766e-05
2.03278e-05
7.91055e-05
5.07673e-05
2.03257e-05
7.91173e-05
3.67293e-05
4.10717e-05
9.45218e-05
9.99658e-05
3.67299e-05
4.1077e-05
9.45505e-05
2.03268e-05
7.90896e-05
5.07613e-05
2.03248e-05
7.91064e-05
8.15177e-05
2.17149e-05
2.17181e-05
2.17129e-05
2.17162e-05
8.15247e-05
0.000105305
0.00012889
4.8656e-05
7.79309e-05
4.86577e-05
0.000105283
0.000128944
0.000105303
0.000128922
4.86654e-05
7.79452e-05
0.000128975
0.000105281
4.86723e-05
8.15166e-05
2.17111e-05
2.17144e-05
2.17131e-05
8.15095e-05
2.17163e-05
0.000105309
4.86636e-05
7.79365e-05
0.000129004
4.86581e-05
0.000128952
0.000105331
0.000105307
4.86768e-05
7.795e-05
0.000129035
0.000128983
4.86697e-05
0.000105328
2.38999e-05
2.39002e-05
2.3902e-05
8.15326e-05
2.17147e-05
2.17179e-05
8.15257e-05
2.17166e-05
2.17199e-05
0.000105356
4.86615e-05
0.000129011
7.79559e-05
0.000129063
0.000105335
4.86685e-05
0.000105354
4.86741e-05
0.000129042
7.79699e-05
0.000105332
4.8681e-05
0.000129093
2.39043e-05
3.67247e-05
9.99037e-05
9.45409e-05
4.10725e-05
9.45111e-05
4.10663e-05
3.67312e-05
2.03246e-05
7.90921e-05
5.07582e-05
7.9109e-05
2.03226e-05
3.67279e-05
9.99112e-05
9.44924e-05
4.10626e-05
9.4522e-05
3.67211e-05
4.10684e-05
2.03245e-05
7.91183e-05
5.07574e-05
7.91015e-05
2.03264e-05
3.67247e-05
9.98934e-05
9.45199e-05
4.10721e-05
9.44918e-05
4.10657e-05
3.67253e-05
2.03227e-05
7.9069e-05
5.07525e-05
2.03207e-05
7.90861e-05
3.67215e-05
9.99011e-05
9.44757e-05
4.10619e-05
3.67213e-05
9.44998e-05
4.10679e-05
2.03225e-05
7.90954e-05
5.07516e-05
7.90786e-05
2.03245e-05
3.67347e-05
9.45306e-05
4.10707e-05
9.99593e-05
3.67281e-05
9.45595e-05
4.10766e-05
2.03282e-05
7.91107e-05
5.07676e-05
2.03263e-05
7.91273e-05
3.67293e-05
9.45099e-05
4.107e-05
9.99492e-05
3.67272e-05
9.45391e-05
4.10761e-05
2.03263e-05
7.90878e-05
5.07619e-05
2.03243e-05
7.91044e-05
2.38985e-05
2.38988e-05
2.38975e-05
2.38977e-05
8.15302e-05
2.17173e-05
2.17141e-05
8.15233e-05
2.17193e-05
2.17161e-05
0.000105345
4.86712e-05
0.000129028
7.79611e-05
0.000105323
0.000129079
4.86781e-05
0.00010535
4.86614e-05
0.000129009
7.79561e-05
0.00010533
0.000129061
4.8667e-05
2.39029e-05
2.39018e-05
0.000206569
0.000205528
0.000205528
0.000208945
0.000206286
0.000206286
0.000197402
0.000196407
0.000138545
0.000162118
0.000162109
0.000182614
0.000138506
0.000162176
0.000162163
0.00013844
0.000182229
0.000162056
0.000162043
0.000161975
0.00016196
0.000138482
0.000138435
0.000182229
0.000162027
0.000162052
0.000161944
0.00016197
0.000138476
0.000138442
0.000182245
0.000162046
0.000162069
0.000161962
0.000161985
0.000138482
0.000138432
0.000182295
0.000162029
0.000162018
0.000138471
0.000161981
0.000161972
0.000138557
0.000162119
0.000162103
0.000182645
0.000138516
0.000162195
0.000162182
0.000138551
0.000162089
0.000162114
0.000182631
0.000162192
0.000138511
0.000162167
0.000138557
0.000162101
0.000162123
0.000182667
0.000162208
0.000138515
0.000162185
0.000207175
0.00020476
0.00020476
0.000203989
0.000203988
0.000194402
0.000195406
0.000207173
0.000204758
0.00020476
0.000203988
0.000203992
0.000194404
0.000195407
0.000207182
0.000204767
0.000204772
0.000203995
0.000204001
0.000194411
0.000195415
0.000207173
0.000204767
0.000204769
0.000203996
0.000203998
0.000194412
0.000195415
0.000205526
0.000205528
0.000208938
0.000206284
0.000206286
0.000197402
0.000196408
0.000205535
0.00020554
0.000208953
0.000206293
0.000206298
0.00019741
0.000196415
0.000205535
0.000205537
0.000208943
0.000206293
0.000206294
0.00019741
0.000196416
0.000209525
0.000207041
0.000207041
0.000198393
0.000209517
0.000207039
0.000207041
0.000198394
0.000209532
0.000207048
0.000207052
0.000198401
0.000209523
0.000207047
0.000207049
0.000198402
0.000171884
0.000144403
0.000137895
0.000177313
0.000137801
0.000177169
0.000172064
0.000161225
0.000147814
0.000122851
0.0001037
0.00016104
0.000147879
0.00012291
0.000171891
0.000144403
0.000137731
0.000176977
0.000171695
0.000137817
0.000177112
0.000161179
0.000122964
0.000103695
0.000147982
0.000147918
0.000122905
0.000161357
0.000171871
0.000144401
0.00017731
0.000137902
0.000177163
0.000137808
0.000172069
0.000161221
0.000147822
0.000122856
0.000103703
0.000161063
0.000147885
0.000122917
0.000171885
0.000144401
0.000176969
0.000137739
0.000171686
0.000177105
0.000137825
0.000161193
0.000122971
0.000103698
0.000147987
0.000147926
0.000122911
0.000161359
0.000138579
0.000182681
0.000162316
0.000162302
0.000162248
0.000162239
0.000138619
0.000138284
0.000181795
0.000161769
0.000161755
0.000138327
0.000161684
0.00016167
0.000138406
0.000182218
0.000161825
0.000161809
0.000138363
0.000161909
0.000161895
0.000160691
0.000122743
0.000103558
0.000147538
0.000122678
0.000147504
0.000160718
0.000171472
0.000137578
0.000176578
0.000144222
0.000171398
0.000137667
0.000176695
0.000160963
0.000147763
0.00010363
0.000122858
0.000147719
0.000122797
0.000161024
0.000160861
0.00012274
0.000147613
0.000103634
0.000147652
0.00016083
0.000122802
0.000171583
0.000144223
0.000137747
0.0001769
0.00013766
0.000176774
0.000171657
0.000171496
0.000137565
0.000176568
0.000144218
0.000171326
0.000137654
0.00017669
0.000160873
0.00014774
0.000103605
0.000122841
0.000122778
0.000147671
0.000161053
0.000160906
0.000122721
0.00014756
0.000103611
0.000160732
0.000122783
0.000147627
0.000171511
0.000144219
0.000137734
0.000176896
0.000137646
0.000176764
0.000171683
0.000182183
0.000161802
0.000161879
0.00010355
0.00014752
0.000147481
0.000171461
0.000137586
0.000176654
0.000144211
0.000171415
0.000137651
0.000176661
0.000160972
0.00014775
0.000103621
0.000122848
0.000147708
0.000122795
0.000160993
0.000160849
0.000122737
0.000147594
0.000103625
0.000147631
0.000160837
0.000122792
0.000171604
0.000144231
0.00013773
0.000176854
0.000137665
0.000176848
0.000171646
0.000171452
0.000176651
0.000137577
0.000144208
0.000171408
0.000176657
0.000137641
0.000160962
0.00014773
0.000103612
0.000122836
0.000122784
0.000147698
0.000160983
0.000160838
0.000122726
0.000147591
0.000103615
0.000160826
0.000122779
0.000147624
0.000171597
0.000144228
0.000176851
0.000137721
0.000176844
0.000137657
0.000171638
0.000160901
0.000147772
0.000103627
0.000122854
0.000161076
0.000147705
0.000122794
0.00017152
0.000144218
0.000137739
0.000176919
0.000171703
0.00013765
0.000176781
0.0001609
0.00014776
0.000103617
0.000122847
0.000122784
0.000147695
0.000161043
0.000171522
0.000144218
0.000176923
0.000137736
0.000176787
0.000137647
0.000171697
0.000138406
0.000182241
0.000161815
0.000161838
0.000161901
0.000138362
0.000161923
0.000171544
0.000176572
0.000137575
0.000144215
0.000171334
0.000176713
0.000137666
0.00016091
0.000147781
0.00010363
0.000122862
0.000161068
0.000147716
0.000122799
0.000160938
0.00012274
0.000147606
0.000103635
0.000160785
0.000147671
0.000122804
0.000171495
0.000144217
0.000176912
0.000137748
0.000171717
0.000176776
0.000137658
0.000171465
0.000176582
0.000137571
0.000144207
0.000171392
0.000176712
0.000137637
0.000160945
0.000147735
0.000103612
0.000122836
0.000122781
0.000147701
0.000161014
0.000160842
0.000122726
0.000147584
0.000103615
0.00016081
0.000122779
0.000147624
0.000171578
0.000144209
0.000176908
0.000137716
0.000176782
0.000137648
0.000171648
0.000138393
0.000182162
0.000161829
0.000161883
0.000161874
0.00013859
0.000182668
0.000162333
0.000162321
0.00013863
0.000162259
0.000162244
0.000138701
0.000183068
0.000162397
0.000162381
0.000138661
0.000162469
0.000162458
0.000171935
0.000144408
0.000137902
0.000177298
0.000137814
0.000177171
0.000172015
0.000161166
0.000147821
0.000122854
0.000103702
0.000122914
0.000161102
0.000147867
0.000171837
0.000144408
0.000137739
0.000176968
0.000137825
0.000171759
0.000177095
0.000161243
0.000122968
0.000103698
0.000147968
0.000122909
0.000147926
0.000161306
0.00017186
0.000144403
0.000137888
0.000177298
0.000137798
0.00017716
0.00017205
0.000161203
0.000147779
0.000122835
0.000103679
0.000161014
0.000122896
0.000147842
0.000171872
0.000144404
0.000137725
0.000176959
0.000171685
0.000137813
0.000177092
0.000161145
0.000122951
0.000103673
0.000147947
0.00012289
0.00016133
0.000147885
0.000172191
0.000137887
0.000177365
0.000144586
0.000172107
0.000137978
0.000177488
0.000161444
0.000122963
0.000148026
0.000103767
0.000148062
0.000161377
0.000123021
0.000172227
0.000137874
0.000177348
0.000144582
0.000172039
0.000137965
0.000177492
0.000161465
0.000122945
0.00014799
0.000103743
0.000161294
0.000123004
0.000148045
0.000138584
0.000182662
0.000162305
0.00016233
0.000162254
0.000162234
0.000138624
0.000138695
0.000183052
0.000162371
0.000162392
0.000162442
0.000138656
0.000162466
0.000171945
0.000144419
0.00013788
0.000177244
0.000137823
0.000177244
0.000171998
0.000161133
0.000147806
0.000122851
0.000103693
0.000122904
0.000161113
0.000147851
0.000171826
0.000144398
0.000137746
0.000177039
0.000137808
0.000171772
0.000177051
0.000161254
0.000122957
0.000103689
0.000147953
0.000122907
0.00014791
0.000161276
0.000171938
0.000144415
0.00017724
0.000137874
0.00017724
0.000137815
0.000171991
0.000161122
0.000147801
0.00012284
0.000103683
0.000161101
0.000122891
0.000147836
0.000171819
0.000144395
0.000177037
0.000137737
0.000171766
0.000177048
0.0001378
0.000161242
0.000122945
0.00010368
0.000147938
0.000122896
0.00016127
0.000147903
0.000172178
0.0001379
0.000177422
0.000144575
0.000172118
0.000137956
0.000177431
0.000161411
0.000122961
0.00014801
0.000103758
0.000148054
0.000161388
0.00012301
0.000172172
0.00017742
0.00013789
0.000144572
0.000172111
0.000177429
0.000137947
0.000161416
0.00012295
0.000148003
0.000103747
0.000161362
0.000122998
0.000148043
0.00017189
0.000144404
0.000177313
0.000137893
0.000177172
0.000137799
0.000172061
0.00016121
0.0001478
0.000122841
0.00010369
0.000147863
0.000161038
0.000122902
0.000171894
0.000144404
0.000176976
0.000137728
0.000177111
0.000171704
0.000137815
0.000161176
0.000122956
0.000103685
0.000147968
0.000147905
0.000122897
0.000161338
0.000172244
0.00013788
0.000177345
0.00014458
0.000172064
0.00013797
0.000177501
0.000161484
0.000122959
0.00014802
0.000103765
0.000161319
0.000148081
0.000123017
0.000172239
0.000177353
0.000137878
0.000144582
0.000172065
0.000177491
0.000137968
0.000161475
0.000122951
0.00014801
0.000103754
0.000161322
0.00012301
0.000148068
0.00013859
0.00018266
0.000162323
0.000162345
0.000162263
0.000162241
0.00013863
0.000138702
0.000183073
0.000162379
0.000162401
0.000162459
0.000138662
0.000162482
0.000171922
0.000144394
0.000177299
0.000137878
0.000177172
0.000137794
0.000172003
0.000161148
0.000147803
0.000122836
0.000103684
0.000147848
0.00016108
0.000122893
0.000171826
0.000144393
0.000176971
0.000137728
0.000177099
0.000171748
0.000137798
0.000161222
0.000122948
0.00010368
0.000147944
0.000147901
0.000122889
0.000161288
0.000172246
0.000177342
0.000137887
0.000144578
0.000172053
0.000177498
0.000137976
0.000161487
0.000122965
0.00014803
0.000103768
0.000161327
0.000148084
0.000123024
0.000172179
0.000177364
0.000137864
0.000144571
0.000172094
0.000177488
0.000137955
0.000161427
0.000122943
0.000148
0.000103748
0.000161357
0.000123001
0.000148043
0.00013869
0.000183041
0.000162388
0.000162378
0.000138651
0.000162459
0.000162447
0.00021066
0.000202715
0.000202726
0.000183284
0.000212847
0.000203879
0.00020389
0.000184053
0.000214925
0.000204966
0.000204977
0.000184744
0.000216894
0.000205977
0.000205987
0.000185384
0.000218752
0.000206914
0.000206924
0.000185982
0.000220503
0.000207772
0.000207781
0.000186526
0.000222146
0.000208557
0.000208566
0.000187015
0.000223685
0.000209271
0.000209279
0.000187497
0.000225121
0.000209915
0.000209923
0.000187876
0.000226458
0.000210491
0.000210499
0.000188213
0.000227695
0.000210998
0.000211005
0.000188537
0.000228829
0.000211438
0.000211446
0.00018874
0.000229855
0.000211826
0.000211835
0.000188919
0.000230786
0.000212157
0.000212166
0.000189054
0.000231631
0.00021243
0.000212436
0.000189166
0.000232387
0.000212652
0.000212651
0.000189241
0.000233057
0.000212822
0.000212817
0.000189277
0.000233647
0.000212939
0.00021294
0.000189276
0.000234283
0.000213179
0.000213185
0.000189238
0.000233965
0.0002137
0.00021371
0.000193741
0.000183272
0.000202396
0.000202375
0.000183257
0.000202407
0.000202384
0.000202408
0.000202385
0.000183277
0.00020242
0.000202396
0.000183251
0.000183296
0.000184055
0.000202702
0.000202681
0.000203578
0.000203556
0.000183285
0.000184039
0.000202713
0.00020269
0.00020359
0.000203567
0.000202691
0.00020359
0.000203567
0.000183296
0.000184058
0.000202702
0.000203603
0.000203578
0.000184039
0.00018407
0.000184792
0.000203866
0.000203844
0.000204682
0.00020466
0.000184061
0.000184753
0.000203878
0.000203855
0.000204695
0.000204671
0.000203855
0.000204695
0.000204672
0.000184071
0.000184793
0.000203866
0.000204707
0.000204683
0.000184777
0.000184761
0.000185468
0.000204953
0.000204931
0.000205709
0.000205687
0.000184779
0.000185417
0.000204965
0.000204942
0.000205722
0.000205697
0.000204943
0.000205722
0.000205698
0.000184761
0.000185468
0.000204954
0.000205733
0.00020571
0.000185452
0.000185404
0.00018608
0.000205964
0.000205942
0.000206659
0.000206637
0.000185435
0.000186031
0.000205977
0.000205952
0.000206672
0.000206647
0.000205953
0.000206673
0.000206648
0.000185403
0.000186079
0.000205965
0.000206683
0.000206661
0.000186064
0.000186002
0.000186636
0.000206901
0.000206878
0.000207539
0.000207516
0.000186032
0.000186589
0.000206914
0.000206889
0.000207552
0.000207527
0.00020689
0.000207552
0.000207528
0.000186
0.000186635
0.000206902
0.000207562
0.00020754
0.000186621
0.000186546
0.000187139
0.000207758
0.000207736
0.000208345
0.000208322
0.000186574
0.000187092
0.00020777
0.000207745
0.000208359
0.000208333
0.000207746
0.000208359
0.000208334
0.000186543
0.000187137
0.000207759
0.000208368
0.000208346
0.000187123
0.000187034
0.000187591
0.000208543
0.000208521
0.000209079
0.000209057
0.000187062
0.000187542
0.000208556
0.00020853
0.000209093
0.000209067
0.000208531
0.000209094
0.000209068
0.000187031
0.000187586
0.000208544
0.000209103
0.00020908
0.000187551
0.000187489
0.000187948
0.000209256
0.000209234
0.000209743
0.000209721
0.000187498
0.000187939
0.00020927
0.000209243
0.000209757
0.00020973
0.000209245
0.000209758
0.000209731
0.000187466
0.000187983
0.000209258
0.000209767
0.000209745
0.000187933
0.00018789
0.000188293
0.0002099
0.000209878
0.00021034
0.000210318
0.000187881
0.000188287
0.000209914
0.000209887
0.000210355
0.000210327
0.000209888
0.000210355
0.000210328
0.000187849
0.000188331
0.000209901
0.000210364
0.000210342
0.000188278
0.000188227
0.000188591
0.000210476
0.000210453
0.000210874
0.000210852
0.000188215
0.000188633
0.00021049
0.000210462
0.000210889
0.000210861
0.000210463
0.000210889
0.000210862
0.000188184
0.000188646
0.000210477
0.000210898
0.000210876
0.000188572
0.000188546
0.000188849
0.000210983
0.00021096
0.000211347
0.000211324
0.000188475
0.000188891
0.000210997
0.000210968
0.000211362
0.000211333
0.00021097
0.000211362
0.000211334
0.000188482
0.000188896
0.000210984
0.00021137
0.000211348
0.000188839
0.000188779
0.000189019
0.000211423
0.0002114
0.000211749
0.000211726
0.000188725
0.000189071
0.000211438
0.000211408
0.000211764
0.000211735
0.00021141
0.000211765
0.000211736
0.000188729
0.000189078
0.000211424
0.000211773
0.00021175
0.000189041
0.000188966
0.000189188
0.000211811
0.000211789
0.000212089
0.000212065
0.000188922
0.000189213
0.000211826
0.000211797
0.000212105
0.000212076
0.000211798
0.000212105
0.000212076
0.000188926
0.000189217
0.000211812
0.000212113
0.00021209
0.000189198
0.000189099
0.000189312
0.000212142
0.00021212
0.00021237
0.000212346
0.000189065
0.000189325
0.000212156
0.000212126
0.000212388
0.000212359
0.000212129
0.000212387
0.000212357
0.00018907
0.000189328
0.000212143
0.000212397
0.000212371
0.000189311
0.000189195
0.000189396
0.000212416
0.000212395
0.000212596
0.00021257
0.000189187
0.000189387
0.000212429
0.000212396
0.000212615
0.000212588
0.000212403
0.000212613
0.000212582
0.000189201
0.00018939
0.000212418
0.000212627
0.000212596
0.00018938
0.000189264
0.000189434
0.000212636
0.000212615
0.000212768
0.000212743
0.000189255
0.000189425
0.000212647
0.000212612
0.000212791
0.000212765
0.000212623
0.000212783
0.000212755
0.000189258
0.000189429
0.000212638
0.000212804
0.000212768
0.000189416
0.000189297
0.000189436
0.000212805
0.000212783
0.000212895
0.000212868
0.000189288
0.000189427
0.000212813
0.000212776
0.000212918
0.000212893
0.000212792
0.00021291
0.000212882
0.000189292
0.000189431
0.000212807
0.000212931
0.000212894
0.000189418
0.000189296
0.000189435