/*--------------------------------*- C++ -*----------------------------------*\
| =========                 |                                                 |
| \\      /  F ield         | OpenFOAM: The Open Source CFD Toolbox           |
|  \\    /   O peration     | Version:  2312                                  |
|   \\  /    A nd           | Website:  www.openfoam.com                      |
|    \\/     M anipulation  |                                                 |
\*---------------------------------------------------------------------------*/
FoamFile
{
    version     2.0;
    format      ascii;
    arch        "LSB;label=32;scalar=64";
    class       surfaceScalarField;
    location    "550";
    object      phi;
}
// * * * * * * * * * * * * * * * * * * * * * * * * * * * * * * * * * * * * * //

dimensions      [0 3 -1 0 0 0 0];

oriented        oriented;

internalField   nonuniform List<scalar> 
125280
(
1.24121e-07
1.188e-07
-0.00118378
-7.7086e-08
-7.70807e-08
0.0011837
-0.00113203
-1.19884e-06
-1.1324e-07
-8.97953e-08
0.00113205
-2.39383e-07
1.23825e-06
2.74646e-07
9.11175e-07
-2.14951e-07
-8.55067e-07
2.69021e-07
-0.00113194
-1.19347e-06
-1.24517e-07
-4.50649e-08
0.00113191
-2.36661e-07
1.23553e-06
2.74647e-07
9.11235e-07
-2.14997e-07
-8.5242e-07
2.68998e-07
-0.000270075
1.22478e-06
1.18819e-06
-1.97903e-07
-2.00635e-07
0.00026806
-1.28037e-06
-1.23847e-06
0.000270144
-0.000268111
2.38938e-07
2.4681e-07
0.00113153
-1.23608e-07
-0.00113155
-4.46899e-08
-1.2357e-06
2.7728e-07
-2.42185e-07
-8.55289e-07
2.66204e-07
-2.12353e-07
9.13968e-07
1.2778e-06
0.0011316
5.84493e-08
-0.00113178
-6.73131e-08
-1.23081e-06
2.8004e-07
-2.39697e-07
-8.60441e-07
2.63558e-07
-2.15012e-07
9.13718e-07
-1.2167e-06
0.000270124
-0.00026811
2.33914e-07
2.46604e-07
0.00113253
-1.23996e-07
-0.00113255
-5.03703e-08
-1.19381e-06
2.74781e-07
-2.36848e-07
-8.57771e-07
2.69124e-07
-2.1506e-07
9.16598e-07
1.27238e-06
0.00113147
-1.17901e-07
-0.00113149
-5.59017e-08
-1.22777e-06
2.80106e-07
-2.42321e-07
-8.57793e-07
2.66272e-07
-2.15057e-07
9.16504e-07
-6.70394e-08
-2.22296e-07
-1.25773e-06
2.71967e-07
-2.45012e-07
-8.57949e-07
2.6634e-07
9.0857e-07
-2.17707e-07
-0.00113182
1.27213e-06
0.0011311
-1.0089e-07
-5.02486e-08
-1.22216e-06
2.79987e-07
-2.39502e-07
-8.55068e-07
2.66243e-07
-2.14969e-07
9.08425e-07
-0.00113114
-1.23824e-06
0.000270105
-0.000268083
2.41743e-07
2.46622e-07
-1.24036e-07
-0.00113198
-3.35376e-08
-1.19354e-06
2.74691e-07
-2.36697e-07
-8.52451e-07
2.69032e-07
9.1126e-07
-2.15034e-07
1.23029e-06
0.00113207
-1.23847e-07
-0.00113204
-8.40021e-08
-1.19362e-06
2.74782e-07
-2.39528e-07
-8.54941e-07
2.69032e-07
-2.14995e-07
9.13781e-07
-0.000268058
2.38893e-07
2.46785e-07
1.23564e-06
1.19373e-06
-1.95438e-07
-2.03208e-07
0.000268114
-5.05609e-08
0.00113151
-2.394e-07
1.28033e-06
2.77241e-07
9.13885e-07
-2.12297e-07
-8.55241e-07
2.66175e-07
-1.23306e-06
-1.12877e-07
-5.06364e-08
0.00113157
-2.42328e-07
1.27769e-06
2.80065e-07
9.1639e-07
-2.15011e-07
-8.57691e-07
2.68889e-07
-2.03258e-07
-2.00563e-07
0.000268096
-5.06008e-08
0.0011325
-2.3682e-07
1.23842e-06
2.74743e-07
9.16574e-07
-2.15023e-07
-8.57726e-07
2.6909e-07
-1.2277e-06
-1.18469e-07
-5.0536e-08
0.00113144
-2.42268e-07
1.27233e-06
2.80063e-07
9.16478e-07
-2.12301e-07
-8.57755e-07
2.66242e-07
-1.24394e-07
-5.04932e-08
0.00113108
-2.39416e-07
1.26942e-06
2.77204e-07
9.0839e-07
-2.12226e-07
2.63499e-07
-8.49657e-07
-1.98149e-07
-2.03129e-07
0.000268086
-1.24391e-07
-6.7527e-08
0.00113206
-2.36738e-07
1.23293e-06
2.7471e-07
9.13691e-07
-2.14964e-07
2.69005e-07
-8.54895e-07
6.87881e-09
-4.35853e-08
0.000193706
3.28606e-09
-0.000193672
6.87059e-09
-4.36349e-08
0.000193689
-0.000193655
-0.00118389
-7.05813e-08
-7.64235e-08
0.00118345
-0.00118305
-1.57966e-07
-2.56303e-07
0.00118334
-0.00118345
-8.80688e-08
-5.32171e-08
0.00118328
-0.00118331
-9.95684e-08
-9.99688e-08
-1.08873e-10
-7.00473e-08
0.000229498
-0.00022946
2.98474e-08
1.98128e-09
-0.000193745
-4.86248e-09
2.26579e-08
-4.04246e-09
0.000193731
-0.000229459
8.29971e-11
2.859e-08
0.00022944
-1.11183e-08
1.23248e-09
6.95757e-09
-4.34079e-08
0.000193784
3.1707e-09
-0.000193751
-9.80695e-05
4.91949e-09
1.37074e-08
9.80509e-05
-6.94084e-09
-2.18912e-08
9.80899e-05
-9.80611e-05
-7.00982e-08
-1.50901e-10
0.000229486
-0.000229448
2.14091e-09
2.98728e-08
-0.000193728
-4.93153e-09
2.26192e-08
-3.94289e-09
0.000193714
-0.000229447
2.86016e-08
1.76886e-10
0.000229428
9.6075e-10
-1.11285e-08
6.95321e-09
-4.34587e-08
0.000193767
3.21855e-09
-0.000193734
-8.87383e-08
-1.23648e-07
0.00118344
-7.70986e-08
-6.54892e-08
0.00118324
-8.29801e-08
-9.47701e-08
0.00118321
6.99336e-08
-1.69716e-09
0.000250298
-0.000250178
4.0127e-09
-1.93043e-07
-0.000245595
-1.2067e-08
-2.26113e-08
6.64064e-08
3.97649e-09
0.000245559
0.00115197
-0.00115206
-1.27835e-08
-1.33617e-07
1.00604e-06
-7.5334e-07
-9.35425e-07
8.28452e-07
-5.64999e-08
1.2409e-06
0.00113203
-1.24952e-07
-8.52311e-07
2.68953e-07
-2.14937e-07
9.11188e-07
-1.19611e-06
2.74602e-07
-2.36609e-07
-0.000250274
-2.84693e-08
9.50982e-10
0.000250167
2.73386e-09
1.31795e-07
2.32568e-08
4.34143e-08
0.000245633
-1.67336e-08
-0.000245578
-1.04727e-07
-9.71057e-09
0.00115193
-1.51998e-07
-9.32495e-07
8.25776e-07
-7.53158e-07
1.00338e-06
-9.80626e-05
4.94649e-09
1.13547e-08
9.80463e-05
-6.98102e-09
-1.9541e-08
9.80831e-05
-9.80566e-05
-7.11266e-10
6.99298e-08
0.000250288
-0.000250169
-1.93038e-07
3.89528e-09
0.0011518
-0.00115185
1.34495e-08
-1.5091e-07
1.00611e-06
-7.56063e-07
-9.32704e-07
8.28465e-07
-0.000245584
-1.19822e-08
-2.26258e-08
6.40229e-08
3.93019e-09
0.000245551
-5.07792e-08
1.23547e-06
0.00113189
-1.24851e-07
-8.52389e-07
2.6895e-07
-2.14979e-07
9.11207e-07
-1.19073e-06
2.746e-07
-2.36639e-07
-0.000250261
1.20046e-09
-2.85024e-08
0.000250155
1.3182e-07
1.90808e-09
-6.0081e-11
0.00115175
-1.51841e-07
-9.32556e-07
8.28485e-07
-7.53196e-07
1.00611e-06
2.31982e-08
4.3415e-08
0.000245623
-1.67416e-08
-0.00024557
-1.02303e-07
-0.000278333
1.21377e-08
-1.1426e-08
2.27113e-08
-6.78183e-09
0.000278316
-0.000278255
1.20894e-08
-1.13928e-08
2.27129e-08
-7.25565e-09
0.000278239
-1.26937e-06
-1.23287e-06
0.000270079
-0.000268063
2.4131e-07
2.44038e-07
-2.31881e-08
1.95974e-08
0.000278383
1.01317e-08
-0.000278339
-5.05526e-08
-2.32432e-08
1.95426e-08
0.000278305
1.06962e-08
-0.000278264
-4.82474e-08
-1.98195e-08
9.80693e-05
-9.80426e-05
-1.98145e-08
9.80583e-05
-9.80316e-05
0.00027014
-1.28043e-06
-1.24124e-06
-0.000268104
2.39067e-07
2.46948e-07
0.000278329
-2.31621e-08
1.26037e-08
-0.000278288
-5.0772e-08
0.000278261
-2.0836e-08
1.00379e-08
-0.00027822
-5.07982e-08
-1.97118e-08
-6.91995e-09
9.80899e-05
-9.80632e-05
1.14277e-08
4.91516e-09
9.80529e-05
-1.97103e-08
-6.91168e-09
9.80789e-05
-9.80523e-05
1.13413e-08
4.98372e-09
9.80419e-05
1.23576e-06
1.19656e-06
0.000268106
-1.95481e-07
-2.03247e-07
-2.31674e-08
0.000278379
-5.06425e-08
-0.000278338
1.26502e-08
-2.08406e-08
0.000278312
-5.06808e-08
-0.00027827
1.00844e-08
1.20432e-08
-9.34477e-09
2.49895e-08
0.000278313
9.74181e-09
-6.77634e-09
2.49079e-08
0.000278245
0.00113157
-1.22549e-07
-1.23585e-06
2.77387e-07
-2.39537e-07
-8.55413e-07
2.6897e-07
-2.15156e-07
9.13992e-07
-4.42543e-08
0.000245558
-1.67183e-08
-0.000245503
-1.0488e-07
3.85752e-11
2.86207e-08
-1.11126e-08
1.00049e-09
0.000229401
-0.00022942
-4.34991e-08
-0.000193712
3.22805e-09
2.26087e-08
-3.9789e-09
0.000193692
-9.62362e-11
-7.01308e-08
-0.000229421
2.99106e-08
1.98305e-09
2.86183e-08
-1.11082e-08
9.43986e-10
0.000229361
-0.000229379
-4.57133e-08
6.90883e-09
0.000193684
-0.000193648
3.39445e-09
2.47804e-08
-4.96951e-09
-4.02515e-09
0.000193629
-0.000193644
-7.01398e-08
0.000229418
-0.00022938
2.99164e-08
2.13264e-09
8.03846e-10
2.69517e-09
1.32035e-07
0.000250151
-0.000250258
-5.57413e-08
-1.23136e-07
1.2804e-06
-2.3947e-07
2.8007e-07
9.13958e-07
-2.12347e-07
2.66262e-07
-8.55398e-07
0.000245596
-1.04758e-07
-0.000245542
-1.67271e-08
-0.00115235
1.30216e-09
0.00115231
-1.49607e-07
-9.35719e-07
8.31239e-07
-7.56284e-07
1.00898e-06
3.97506e-09
6.64147e-08
0.000245523
4.10226e-10
-1.54256e-07
1.0089e-06
-7.56495e-07
-9.35925e-07
8.31176e-07
-0.0011524
-8.34289e-10
0.000250285
-0.000250164
3.12651e-09
-1.93154e-07
1.43643e-09
1.32042e-07
0.000250126
-0.00025023
-3.31077e-08
-1.2386e-06
-3.10601e-07
9.19138e-07
-2.09683e-07
-8.5513e-07
2.68928e-07
1.28087e-06
-2.4502e-07
2.8023e-07
-0.00113164
2.30815e-08
0.000245492
-1.04731e-07
-0.000245437
-1.90279e-08
-0.00115232
0.00115224
-1.2644e-07
-9.43675e-07
8.31212e-07
-7.58993e-07
1.01143e-06
-1.20624e-08
6.37556e-09
6.63761e-08
0.000245418
-0.000245454
-1.83354e-07
1.01689e-06
-7.56464e-07
-9.3836e-07
8.33899e-07
-0.00115233
0.000250257
-0.00025014
4.74015e-09
-1.93169e-07
-2.19875e-08
-9.80406e-05
1.36404e-08
9.80303e-05
-9.80489e-05
0.000268108
-1.879e-07
-0.000270125
1.17196e-06
-2.0576e-07
0.000278251
-4.83253e-08
-0.000278213
1.06414e-08
1.9664e-08
-2.32551e-08
0.000278394
-4.83847e-08
-0.000278353
1.06507e-08
2.26241e-08
0.000278187
-0.000278201
-7.41888e-09
-6.98694e-09
9.80856e-05
-9.80589e-05
0.00113257
-1.229e-07
-1.19666e-06
2.74866e-07
-2.36928e-07
2.69179e-07
-2.15154e-07
0.000245524
-0.000245467
-1.02596e-07
2.86284e-08
1.71737e-10
9.50507e-10
-1.1116e-08
0.000229389
-4.35518e-08
-0.000193695
3.27982e-09
2.25743e-08
-3.88221e-09
0.000193675
-7.01685e-08
-1.50994e-10
-0.000229408
2.14607e-09
2.99344e-08
1.6755e-09
1.93038e-09
1.32025e-07
0.000250144
-5.01765e-08
-1.23512e-07
1.24121e-06
-2.36886e-07
2.74825e-07
9.16619e-07
-2.15091e-07
2.69153e-07
-8.57829e-07
0.000245562
-1.02496e-07
-0.000245505
-1.91888e-08
-0.00115219
-3.94704e-09
0.00115215
-1.49659e-07
-9.38234e-07
8.31219e-07
-7.56252e-07
1.01151e-06
6.49058e-09
6.40231e-08
0.000245486
3.62492e-09
-1.42675e-07
1.01145e-06
-7.56443e-07
-9.38388e-07
8.31155e-07
-1.67563e-09
0.000250278
-0.000250158
4.04552e-09
-1.93189e-07
2.86296e-08
-1.11148e-08
9.35568e-10
0.000229349
-4.3462e-08
6.9404e-09
0.00019367
-0.000193637
3.20361e-09
2.25514e-08
-4.99617e-09
-3.8857e-09
0.000193617
-7.01507e-08
0.000229407
-0.000229369
2.99218e-08
2.19881e-09
1.32045e-07
1.6354e-09
0.000250117
-5.00872e-08
-1.22785e-06
-1.17376e-07
9.16512e-07
-2.15107e-07
-8.57855e-07
2.69005e-07
1.27241e-06
-2.42362e-07
2.8017e-07
-0.00115214
0.00115207
-1.43766e-07
-9.38263e-07
8.31226e-07
-7.56288e-07
1.01152e-06
2.32218e-08
0.000245476
-9.99479e-08
-0.000245426
-1.67485e-08
-1.36747e-07
1.01147e-06
-7.56482e-07
-9.38406e-07
8.3116e-07
-1.21774e-08
4.01849e-09
6.40263e-08
0.000245407
0.000250248
-0.000250131
-1.93178e-07
4.33812e-09
4.35013e-08
-1.024e-07
-0.000245542
-1.67727e-08
-3.94948e-08
-7.95238e-08
-9.41144e-07
8.28387e-07
1.006e-06
-7.5899e-07
-0.00115229
6.99965e-08
-2.01416e-09
-0.000250153
4.4887e-09
-1.93065e-07
0.000193732
-0.000193698
3.12578e-09
-1.98499e-10
0.000229442
-0.000229406
2.07522e-09
3.19667e-08
0.00115195
-1.26614e-07
-9.35506e-07
8.25687e-07
-7.56248e-07
1.00328e-06
-0.00115205
4.34915e-08
2.32241e-08
0.000245516
-9.99354e-08
-0.000245466
-1.67194e-08
7.00507e-08
0.000250244
-0.000250125
-1.95677e-07
4.0604e-09
6.90781e-09
0.000193675
-0.000193642
3.2531e-09
0.000229404
-0.000229366
2.98681e-08
1.98397e-09
-1.96438e-08
-9.8036e-05
1.12867e-08
9.80257e-05
1.19632e-06
0.000268081
-1.98208e-07
-2.03203e-07
0.00027825
-4.60675e-08
-0.000278211
1.05332e-08
1.96609e-08
-2.321e-08
0.000278386
-4.83292e-08
-0.000278345
1.06136e-08
-7.34669e-09
2.0377e-08
0.000278186
-1.13836e-08
9.65111e-09
-7.2278e-09
2.26298e-08
0.000278322
-6.95074e-09
9.80854e-05
-9.80588e-05
4.9222e-09
9.80485e-05
1.62552e-09
-2.85543e-08
1.32e-07
1.89347e-09
0.000250128
-4.45961e-08
-1.23549e-07
1.23827e-06
-2.39496e-07
2.74734e-07
9.11295e-07
-2.15077e-07
-8.52558e-07
2.69066e-07
-0.00115191
2.2492e-08
-1.49856e-07
-9.32813e-07
8.28451e-07
1.00609e-06
-7.50746e-07
4.3507e-08
-1.02425e-07
-0.000245532
-1.67549e-08
5.77922e-08
-1.43034e-07
1.00601e-06
-7.53695e-07
-9.3301e-07
8.25644e-07
-2.25944e-08
3.96569e-09
6.4048e-08
0.00024551
-3.10524e-10
7.00133e-08
-0.000250141
-1.93093e-07
3.41414e-09
-2.84886e-08
1.31985e-07
2.14408e-09
0.000250103
-2.49547e-07
-1.26846e-06
-1.01017e-07
9.11029e-07
-2.15043e-07
-8.551e-07
2.69109e-07
1.20327e-06
-2.5332e-07
2.72075e-07
-0.00115183
0.00115177
-1.43947e-07
-9.3534e-07
8.28359e-07
-7.50752e-07
1.00851e-06
4.35126e-08
2.32541e-08
0.000245482
-1.02444e-07
-0.000245429
-1.67757e-08
-1.01513e-07
1.00571e-06
-7.53717e-07
-9.35628e-07
8.25551e-07
-2.25636e-08
-1.21169e-08
4.04533e-09
6.40075e-08
0.00024541
6.99416e-08
0.000250234
-0.000250117
-1.93047e-07
5.72622e-09
2.83903e-10
8.59682e-10
-1.32003e-08
0.000229378
0.000193727
-0.000193694
3.21487e-09
-3.96272e-09
0.000193674
-4.42278e-12
0.000229434
-0.000229398
1.86803e-09
3.19616e-08
1.09985e-09
-1.52798e-08
0.000229341
6.97171e-09
0.000193668
-0.000193634
3.19119e-09
-4.99371e-09
-3.84284e-09
0.000193615
0.000229394
-0.00022936
2.41775e-09
3.40486e-08
0.000268069
-2.03342e-07
1.22543e-06
-2.10928e-07
1.97065e-08
-4.83768e-08
-0.000278291
1.0084e-08
1.96431e-08
-4.83632e-08
-0.000278214
1.06589e-08
-1.13278e-08
2.26557e-08
0.000278188
-7.30758e-09
9.80652e-05
-9.80386e-05
9.80615e-05
-9.80349e-05
9.80246e-05
1.14928e-08
9.80735e-05
-1.96103e-08
9.81103e-05
-9.80838e-05
1.14057e-08
9.80625e-05
-1.9603e-08
9.80993e-05
-9.80728e-05
1.20102e-08
2.50473e-08
-9.28519e-09
0.000278363
9.70517e-09
2.49663e-08
-6.71243e-09
0.000278295
0.000270149
-1.28028e-06
-1.23837e-06
-0.000268116
2.3878e-07
2.46656e-07
0.00027843
-2.31623e-08
1.26893e-08
-0.000278388
-5.05211e-08
0.000278362
-2.08353e-08
1.01251e-08
-0.00027832
-5.05538e-08
1.15577e-08
4.81372e-09
9.8094e-05
1.14753e-08
4.8783e-09
9.8083e-05
1.23553e-06
1.19362e-06
0.000268119
-1.95408e-07
-2.03178e-07
1.19845e-08
-9.23178e-09
2.51131e-08
0.000278413
9.6776e-09
-6.6557e-09
2.50355e-08
0.000278345
-7.0055e-08
0.000229458
-0.00022942
2.98522e-08
2.12506e-09
2.4829e-08
-4.09066e-09
0.000193668
2.8591e-08
0.0002294
-1.11174e-08
9.56229e-10
-4.56167e-08
0.000193723
3.34231e-09
-0.000193687
-8.57149e-10
0.000250313
-0.000250192
3.12111e-09
-1.93108e-07
6.64317e-08
3.93414e-09
0.000245561
0.00115225
7.40301e-09
-1.50734e-07
1.00897e-06
-7.56148e-07
-9.35614e-07
8.31249e-07
-4.50718e-08
0.00113148
-1.24495e-07
-1.23558e-06
2.77193e-07
-2.39368e-07
-8.55188e-07
2.66135e-07
-2.12277e-07
9.13854e-07
9.40318e-10
0.000250178
2.71067e-09
1.31869e-07
0.000245635
-1.67089e-08
-0.00024558
-1.04646e-07
-1.74508e-09
0.00115221
-1.51675e-07
-9.35469e-07
8.31285e-07
-7.56007e-07
1.009e-06
0.000250285
-0.000250167
4.73077e-09
-1.93121e-07
-1.20365e-08
6.64208e-08
3.90025e-09
0.000245459
0.0011522
-1.45069e-07
1.01146e-06
-7.56121e-07
-9.38083e-07
8.31228e-07
-5.63291e-08
0.00113155
1.27768e-06
-1.24571e-07
-8.60307e-07
2.68852e-07
9.1904e-07
-2.14985e-07
-1.23034e-06
2.80016e-07
-2.39545e-07
0.000250153
1.46353e-09
1.31871e-07
0.00024553
2.30771e-08
-1.65763e-08
-0.000245478
-1.04654e-07
0.00115214
-1.51736e-07
-9.40662e-07
8.31263e-07
-7.55976e-07
1.0142e-06
6.04489e-11
2.85829e-08
-1.11309e-08
1.24099e-09
0.000229479
2.27097e-08
-4.10543e-09
0.00019377
2.85807e-08
-1.11282e-08
9.60936e-10
0.000229439
2.48721e-08
-4.87078e-09
-4.1491e-09
0.000193707
8.57672e-10
2.96146e-09
1.31746e-07
0.000250206
-5.08986e-08
-1.24936e-07
1.28024e-06
-2.39344e-07
2.77155e-07
9.13828e-07
-2.12255e-07
2.66085e-07
-8.55156e-07
0.00113146
3.91175e-09
6.64519e-08
0.000245599
4.50001e-09
-1.52713e-07
1.009e-06
-7.55871e-07
-9.35369e-07
8.31298e-07
0.00115216
1.22503e-09
1.31746e-07
0.000250181
-5.08681e-08
-1.23299e-06
-1.24991e-07
9.19024e-07
-2.14954e-07
-8.60262e-07
2.68814e-07
1.27765e-06
-2.42241e-07
2.79983e-07
0.00113153
-1.20057e-08
3.88417e-09
6.64281e-08
0.000245497
-1.52756e-07
1.01421e-06
-7.55835e-07
-9.4055e-07
8.31286e-07
0.0011521
2.26785e-08
-7.37603e-09
0.000278238
-1.14581e-08
2.27486e-08
-7.21757e-09
0.000278378
0.000270134
-0.000268101
2.41556e-07
2.43887e-07
0.000278302
1.06764e-08
-0.000278263
-4.82152e-08
1.95662e-08
0.000278447
1.01958e-08
-0.000278403
-5.05688e-08
4.94569e-09
9.80692e-05
9.8106e-05
-7.02207e-09
-9.80794e-05
1.37674e-08
9.80713e-05
1.19607e-06
0.000268104
-1.98044e-07
-2.00502e-07
-7.31939e-09
2.27383e-08
0.000278288
-1.15092e-08
1.20431e-08
-6.65806e-09
2.50996e-08
0.000278428
4.89801e-09
9.80896e-05
-1.68299e-09
0.000250306
-0.000250185
4.0485e-09
-1.93149e-07
6.4028e-08
6.46583e-09
0.000245524
0.00115209
3.28224e-09
-1.44995e-07
1.01152e-06
-7.56089e-07
-9.38123e-07
8.31249e-07
-5.07267e-08
0.00113248
-1.24895e-07
-1.19368e-06
2.74697e-07
-2.36792e-07
-8.57682e-07
2.69043e-07
-2.15004e-07
9.16549e-07
1.67502e-09
0.000250171
1.94457e-09
1.3186e-07
0.000245601
-1.91782e-08
-0.000245543
-1.02376e-07
-3.97695e-09
0.00115204
-1.45964e-07
-9.37977e-07
8.31282e-07
-7.55952e-07
1.01155e-06
-7.00806e-08
0.000229446
-0.000229408
2.98605e-08
2.19573e-09
2.25943e-08
-3.94506e-09
0.000193656
2.86021e-08
0.000229388
-1.11277e-08
9.58224e-10
-4.33716e-08
0.000193709
3.13906e-09
-0.000193676
0.000250276
-0.000250159
-1.93139e-07
4.33723e-09
0.00115203
-1.5076e-07
1.01153e-06
-7.56126e-07
-9.38137e-07
8.31252e-07
-1.21512e-08
6.16146e-08
4.02898e-09
0.000245446
-5.07054e-08
0.00113142
1.27228e-06
-1.24553e-07
-8.57714e-07
2.66188e-07
9.16442e-07
-2.12281e-07
-1.22763e-06
2.80019e-07
-2.42245e-07
0.000250145
1.31879e-07
1.66259e-09
0.00115197
-1.45891e-07
-9.38002e-07
8.31284e-07
-7.5599e-07
1.01155e-06
0.000245515
2.32246e-08
-1.67482e-08
-0.000245465
-9.98386e-08
2.85912e-08
1.81973e-10
9.69071e-10
-1.11365e-08
0.000229467
2.26712e-08
-4.00989e-09
0.000193753
1.68392e-09
1.95381e-09
1.34334e-07
0.000250197
-5.09249e-08
-1.25343e-07
1.23833e-06
-2.36768e-07
2.74656e-07
9.16516e-07
-2.14982e-07
2.69006e-07
-8.5765e-07
0.00113246
6.441e-09
6.40503e-08
0.000245562
3.43127e-09
-1.52843e-07
1.01155e-06
-7.5581e-07
-9.37873e-07
8.31291e-07
0.00115199
2.85963e-08
-1.11372e-08
9.7588e-10
0.000229428
2.26431e-08
-4.8933e-09
-4.00263e-09
0.000193695
1.3436e-07
1.68222e-09
0.00025017
-5.08816e-08
-1.22759e-06
-1.24991e-07
9.16405e-07
-2.12265e-07
-8.5767e-07
2.66148e-07
1.27223e-06
-2.42222e-07
2.79977e-07
0.0011314
-1.52771e-07
1.01155e-06
-7.5585e-07
-9.37885e-07
8.31291e-07
0.00115193
-1.21237e-08
4.00585e-09
6.16382e-08
0.000245484
-9.78703e-11
0.000229481
-0.000229445
2.07145e-09
3.19081e-08
-3.86671e-09
0.000193718
-1.21432e-10
0.000229425
1.285e-09
-1.31774e-08
0.000193771
3.07339e-09
-0.000193737
6.9985e-08
0.000250269
-0.000250152
-1.93068e-07
4.07187e-09
0.00115189
-1.45266e-07
1.00332e-06
-7.50601e-07
8.25743e-07
-9.29926e-07
-2.26095e-08
6.39811e-08
3.98968e-09
0.000245483
-4.50676e-08
0.00113105
-1.1902e-07
-1.22472e-06
2.77161e-07
-2.39357e-07
-8.49627e-07
2.63447e-07
-2.09487e-07
9.08362e-07
-2.8535e-08
0.000250138
1.34403e-07
1.20348e-09
0.00115183
-1.46114e-07
-9.32488e-07
8.28527e-07
-7.5319e-07
1.00606e-06
4.33906e-08
0.000245555
-1.66957e-08
-0.0002455
-1.04632e-07
0.000229444
-0.000229406
2.98148e-08
1.99693e-09
-4.91271e-09
-3.96067e-09
0.000193661
0.000229386
-1.10997e-08
9.1193e-10
0.000193714
6.95352e-09
3.18018e-09
-0.000193681
-2.84465e-08
1.42256e-09
2.25291e-09
1.31647e-07
0.000250192
-5.67384e-08
-1.25371e-07
1.24086e-06
-2.36591e-07
2.74554e-07
9.11165e-07
-2.14924e-07
-8.52324e-07
2.68908e-07
0.00113202
-2.26555e-08
3.94157e-09
6.64206e-08
0.000245597
1.51698e-09
-1.52956e-07
1.00606e-06
-7.50286e-07
-9.29707e-07
8.28529e-07
0.00115187
9.04191e-12
1.29154e-09
-1.31825e-08
0.000229464
-3.92592e-09
0.000193757
-2.85019e-08
1.31677e-07
1.70759e-09
0.000250165
-5.08614e-08
-1.22467e-06
-1.30832e-07
9.0833e-07
-2.09444e-07
-8.49592e-07
2.63411e-07
1.26933e-06
-2.39333e-07
2.77126e-07
0.00113103
-1.58738e-07
1.00607e-06
-7.53041e-07
-9.32369e-07
8.28537e-07
0.00115179
-2.26475e-08
-1.20576e-08
3.96651e-09
6.63678e-08
0.000245519
-1.11036e-08
9.32689e-10
0.000229425
-4.85517e-09
-4.03067e-09
0.0001937
2.04193e-08
-7.2827e-09
0.000278236
-1.14603e-08
2.27396e-08
-9.77279e-09
0.000278372
0.000270108
-0.000268088
2.41591e-07
2.46484e-07
0.0002783
1.05793e-08
-0.000278261
-4.59444e-08
1.95611e-08
0.000278436
1.32578e-08
-0.000278398
-4.82374e-08
4.86597e-09
9.80691e-05
9.81059e-05
-6.98317e-09
-9.80794e-05
1.14235e-08
9.80668e-05
1.19068e-06
0.000268091
-1.98125e-07
-2.03109e-07
-7.22737e-09
2.04889e-08
0.000278286
-1.15184e-08
1.19599e-08
-9.71552e-09
2.27961e-08
0.000278423
4.82257e-09
9.80896e-05
6.98631e-08
0.000250261
-0.000250144
-1.93008e-07
5.24549e-09
0.00115172
-1.50913e-07
1.00851e-06
-7.56042e-07
8.28395e-07
-9.35171e-07
-2.25968e-08
6.39969e-08
4.03031e-09
0.000245448
-5.0862e-08
0.00113204
-1.24834e-07
-1.18815e-06
2.74649e-07
-2.36727e-07
-8.54812e-07
2.68952e-07
-2.14956e-07
9.13661e-07
-2.84473e-08
0.00025013
1.31808e-07
1.20677e-09
0.00115167
-1.51847e-07
-9.34998e-07
8.28433e-07
-7.53155e-07
1.00853e-06
4.34204e-08
0.00024552
-1.67513e-08
-0.000245467
-1.02325e-07
-1.40122e-10
0.000229473
-0.000229437
2.30661e-09
3.19027e-08
-4.02296e-09
0.000193714
2.65977e-10
0.000229418
8.70379e-10
-1.31967e-08
0.000193766
3.16421e-09
-0.000193733
0.000229433
-0.0002294
2.41456e-09
3.39868e-08
-4.94267e-09
-3.90044e-09
0.000193654
0.00022938
8.9811e-10
-1.52827e-08
0.000193707
7.00638e-09
3.13792e-09
-0.000193673
8.41967e-10
-2.84916e-08
1.31697e-07
2.16462e-09
0.000250182
-5.09549e-08
-1.25294e-07
1.23543e-06
-2.36617e-07
2.74559e-07
9.11169e-07
-2.14952e-07
-8.52353e-07
2.68907e-07
0.00113188
4.99332e-09
-1.52894e-07
1.0061e-06
-7.53056e-07
-9.32469e-07
8.285e-07
0.0011517
-2.26745e-08
3.91594e-09
6.4043e-08
0.000245589
-2.84366e-08
1.31681e-07
7.35087e-10
0.000250158
-5.10114e-08
-1.18811e-06
-1.25292e-07
9.13575e-07
-2.14934e-07
-8.54782e-07
2.68924e-07
1.23282e-06
-2.3671e-07
2.74609e-07
0.00113202
-1.52892e-07
1.00854e-06
-7.53018e-07
-9.34889e-07
8.28453e-07
0.00115163
-2.26497e-08
-1.20679e-08
4.00759e-09
6.40274e-08
0.000245486
1.60359e-10
8.77122e-10
-1.32076e-08
0.000229457
-4.07709e-09
0.000193753
6.84765e-10
-1.52939e-08
0.000229419
-4.89342e-09
-3.96089e-09
0.000193693
9.80489e-05
9.80857e-05
-9.80591e-05
9.80452e-05
9.80819e-05
-9.80554e-05
0.000268065
-1.97894e-07
-2.00604e-07
-1.14927e-08
-6.7119e-09
2.50766e-08
0.000278364
-1.14594e-08
-7.20054e-09
2.27733e-08
0.000278289
9.80693e-05
9.80656e-05
1.70588e-08
7.92965e-05
1.36873e-11
-0.000263321
2.42252e-08
0.000263366
-6.15457e-08
-4.4146e-09
-3.94945e-09
-4.94384e-09
2.26022e-08
3.32277e-08
-9.41124e-10
7.93222e-05
-1.49781e-09
-5.00924e-09
2.25614e-08
-8.60923e-10
1.2403e-08
0.000143482
-0.000143494
7.57749e-11
-1.11226e-08
1.01267e-09
-0.000229478
-7.62887e-11
2.85858e-08
-0.000171201
-2.72243e-10
-3.04226e-11
0.000171231
-0.000223511
2.87587e-08
4.44629e-09
0.000223552
-7.15499e-08
-0.000171213
-2.01109e-11
-0.000223532
9.97778e-10
3.29614e-08
1.55016e-09
0.000143509
-7.93223e-05
-2.40854e-08
-1.53824e-09
7.9348e-05
-1.71304e-08
0.000263399
-9.84367e-10
-0.000263418
3.3303e-08
3.19996e-09
0.000193765
6.93708e-09
-4.34536e-08
-5.26536e-11
-7.93394e-05
-4.43873e-09
0.000263444
-6.13722e-08
-0.000143467
2.7864e-10
-2.87837e-08
2.98808e-08
2.20071e-09
4.86184e-11
-7.00883e-08
8.52011e-10
0.000171182
-0.000171194
-9.02066e-12
-1.24015e-08
0.000223491
-0.000223512
3.29748e-08
-0.000143478
-1.85746e-11
-7.15839e-08
1.71554e-08
7.93309e-05
-0.000263424
2.40433e-08
0.000263469
-6.13131e-08
-4.07493e-09
-4.83807e-09
2.26793e-08
3.33256e-08
7.93565e-05
9.80797e-05
-6.92038e-09
-2.19415e-08
4.89536e-09
1.37344e-08
1.24138e-08
-8.13828e-10
0.00014348
-0.000143492
9.48913e-12
7.37247e-10
-1.11322e-08
-0.000229466
3.1954e-11
2.86022e-08
-0.000223502
2.87838e-08
4.39014e-09
0.000223542
-7.15908e-08
-0.000171198
-3.26099e-10
2.31828e-11
0.000171228
-0.000223523
9.34513e-10
3.29731e-08
-0.000171209
1.20079e-11
1.50899e-09
0.000143507
-7.9324e-05
-2.4141e-08
-1.49678e-09
7.93497e-05
-1.70669e-08
0.000263395
-9.20648e-10
-0.000263414
3.32648e-08
3.24964e-09
0.000193748
6.93089e-09
-4.35062e-08
1.22928e-11
-7.93411e-05
-4.38501e-09
0.000263439
-6.14472e-08
-0.000143465
-2.88094e-08
3.31065e-10
2.36059e-09
2.99092e-08
-2.32274e-12
-7.01384e-08
-1.24149e-08
0.000223482
-0.000223502
3.29896e-08
8.06027e-10
0.000171179
-0.000171191
1.98477e-11
-0.000143477
-7.16252e-08
3.17441e-11
1.7093e-08
7.93326e-05
-0.00026342
2.40971e-08
0.000263465
-6.13882e-08
-3.97635e-09
-4.90594e-09
2.26427e-08
3.32903e-08
7.93582e-05
9.80729e-05
-6.95802e-09
-1.95959e-08
4.92125e-09
1.1387e-08
-7.01737e-09
-7.07067e-09
0.000213851
-0.000213858
1.01519e-08
1.01215e-08
-8.05861e-05
-1.21485e-08
-1.20399e-08
8.06103e-05
-8.05746e-05
-1.21328e-08
-1.20675e-08
8.05988e-05
-8.06025e-05
9.38039e-09
-8.0591e-05
9.34132e-09
-2.47201e-08
-2.48027e-08
0.000213877
-0.000221985
-3.59544e-08
3.29825e-08
2.47549e-08
0.000222021
-5.70432e-08
-1.58023e-08
0.000250743
-0.000250798
6.1186e-08
3.19149e-08
1.63368e-08
0.000183126
-9.39477e-09
-0.000183139
-4.83171e-08
1.01061e-08
0.000278358
1.96571e-08
-2.32172e-08
-1.01382e-08
-0.000222004
2.89082e-08
0.000250811
-9.70608e-08
-5.48547e-08
1.20388e-08
0.000183157
-0.000221917
-3.60481e-08
3.09994e-08
2.4842e-08
0.000221957
-5.9458e-08
-1.58078e-08
0.00025063
-0.000250687
6.36245e-08
3.1924e-08
1.43893e-08
0.000183074
-9.35109e-09
-0.000183086
-4.83072e-08
1.0675e-08
0.00027828
1.95943e-08
-2.32493e-08
-1.01027e-08
-0.00022194
3.1318e-08
0.000250703
-1.01942e-07
-5.49679e-08
1.20661e-08
0.000183103
-0.000213832
1.21762e-08
1.21607e-08
7.00559e-09
8.05783e-05
-8.05947e-05
7.06263e-09
8.05668e-05
-8.05832e-05
-0.000213839
1.58061e-08
-1.63694e-08
0.000222
3.12548e-08
-0.000183143
-3.29242e-08
0.000183174
2.50445e-08
-6.74857e-09
-1.1457e-08
1.20821e-08
-0.000250758
3.59221e-08
0.000250826
-9.94525e-08
-5.48521e-08
6.12089e-08
3.18827e-08
0.000222038
-5.92796e-08
1.58179e-08
-1.44168e-08
0.000221934
3.13547e-08
-0.000183091
-3.09462e-08
0.000183121
2.27442e-08
-7.22826e-09
-1.14266e-08
1.20793e-08
-0.000250646
3.60185e-08
0.000250719
-1.01871e-07
-5.49549e-08
6.36455e-08
3.19195e-08
0.000221974
-5.93837e-08
1.1394e-08
1.13108e-08
-7.03491e-09
-7.05466e-09
0.0002138
1.22589e-08
1.01953e-08
-8.05623e-05
-1.22729e-08
-1.20059e-08
8.05866e-05
-8.05489e-05
-1.22524e-08
-1.20583e-08
8.05732e-05
9.37024e-09
9.38378e-09
-2.70236e-08
-2.50358e-08
0.000213827
-1.65078e-08
0.000221965
1.82043e-08
2.89834e-08
-0.000183087
-3.3338e-08
0.000183121
-9.38043e-09
2.49703e-08
1.20722e-08
3.84516e-08
-0.000250746
0.000250808
-9.96364e-08
-5.23552e-08
0.000222001
-5.73457e-08
6.11333e-08
2.93973e-08
-1.62939e-08
0.000221899
1.5764e-08
3.35035e-08
-0.000183034
-3.31561e-08
0.000183065
-6.80296e-09
2.48872e-08
9.76141e-09
3.60503e-08
-0.000250638
0.000250706
-1.02172e-07
-5.24096e-08
0.000221939
-6.19411e-08
6.35596e-08
2.94101e-08
-9.80796e-05
1.14581e-08
4.8885e-09
-1.97684e-08
-6.89687e-09
-9.80686e-05
1.13723e-08
4.95735e-09
-1.97637e-08
-6.89288e-09
-0.000213819
1.22543e-08
1.22357e-08
-2.69986e-08
-2.50062e-08
0.000213846
7.0437e-09
8.05702e-05
9.35928e-09
7.06045e-09
8.05567e-05
9.37561e-09
1.22643e-08
1.02079e-08
-1.20035e-08
8.05945e-05
-1.20556e-08
8.0581e-05
-1.6555e-08
1.82006e-08
0.000221999
-0.000222018
-1.22789e-08
2.90279e-08
-0.000250779
3.84097e-08
0.000250839
-9.70228e-08
-5.2346e-08
-9.31371e-09
2.50153e-08
-0.000278354
1.20272e-08
-0.000183122
-3.32358e-08
1.2005e-08
0.000183156
-0.000183139
-9.34294e-09
-0.000250826
5.87494e-08
3.18946e-08
2.696e-08
0.000222035
-5.72018e-08
-1.63373e-08
1.57688e-08
0.000221933
-0.000221956
-1.02185e-08
3.35409e-08
-0.000250669
3.60079e-08
0.000250737
-1.02035e-07
-5.23981e-08
-6.74275e-09
2.49353e-08
-0.000278287
9.72247e-09
-0.000183069
-3.30553e-08
1.20588e-08
0.0001831
-0.000183083
-9.35711e-09
-0.000250721
6.35735e-08
2.93836e-08
2.49709e-08
0.000221973
-6.17979e-08
-0.000221982
3.32882e-08
-3.84341e-08
-5.72785e-08
1.65294e-08
0.000183105
-1.81905e-08
0.000250764
5.86622e-08
2.93656e-08
1.26265e-08
-5.0711e-08
-2.31637e-08
2.90042e-08
-9.71735e-08
-5.48936e-08
-0.000221916
3.31081e-08
-3.60282e-08
-6.18742e-08
1.63139e-08
0.000183052
-1.57672e-08
0.000250653
6.35581e-08
2.93972e-08
1.00586e-08
-5.07431e-08
-2.08355e-08
3.35215e-08
-1.02109e-07
-5.24024e-08
-7.05306e-09
-7.07186e-09
0.000213838
-8.05781e-05
-1.22269e-08
8.06023e-05
-8.05646e-05
-1.22053e-08
8.05889e-05
0.000213865
-0.000143436
2.9107e-10
-2.88389e-08
1.51108e-09
0.000143463
8.31363e-10
0.000171146
-1.71458e-11
-0.000171158
-1.2397e-08
0.000223451
9.5765e-10
3.29835e-08
-0.000223472
2.99375e-08
2.19701e-09
0.000229439
2.09296e-11
-7.01603e-08
4.33009e-12
-0.000143447
0.000171176
-2.39033e-11
4.42214e-09
0.000223492
-7.16597e-08
7.93137e-05
1.71025e-08
-7.93308e-05
-2.81918e-11
-4.01371e-09
-0.000193726
2.26322e-08
2.41359e-08
-0.000263373
-4.43036e-09
-6.14352e-08
-1.52668e-09
-0.000263392
-9.71483e-10
3.32676e-08
-7.93051e-05
-2.41797e-08
-1.70825e-08
0.000263347
3.32498e-08
3.25907e-09
-4.3543e-08
-6.14928e-08
0.000143451
-8.4237e-10
1.23956e-08
-1.11116e-08
1.00733e-09
-7.35149e-11
2.85922e-08
-2.83455e-10
-0.000171164
-3.01487e-11
2.8822e-08
-0.000223471
-7.16325e-08
-2.20285e-11
3.29682e-08
-0.000143366
3.403e-10
-2.88276e-08
1.46049e-09
0.000143393
7.95034e-10
0.000171111
-0.000171123
-1.23776e-08
0.000223353
-1.14509e-09
3.04988e-08
-0.000223369
2.99398e-08
2.13089e-09
0.000229399
-7.01669e-08
-1.31978e-11
-0.000143378
0.000171141
6.40575e-09
0.000223389
-6.91896e-08
1.70714e-08
7.92719e-05
-7.92889e-05
-6.11208e-12
-4.06106e-09
-0.000193664
-4.93466e-09
2.47888e-08
-0.00026324
2.41715e-08
-6.41429e-09
0.000263285
-5.89481e-08
-0.000263259
1.12536e-09
3.07428e-08
-1.47263e-09
7.92975e-05
-7.92633e-05
-2.42123e-08
-1.70515e-08
0.000263214
3.07163e-08
-0.000263233
3.41845e-09
6.89196e-09
-4.57512e-08
-7.92803e-05
-5.90015e-08
-8.06797e-10
1.23763e-08
0.000143381
-1.11072e-08
9.52893e-10
2.85891e-08
-0.000171129
-3.31317e-10
0.00017116
-0.000223373
2.88008e-08
0.000223409
-6.91571e-08
3.04831e-08
0.000143408
-9.80592e-05
1.36752e-08
-2.20296e-08
1.58684e-08
-1.46155e-08
0.00022191
-1.45841e-08
3.37324e-08
-0.00022193
-0.000250615
3.84762e-08
0.00025068
-9.71869e-08
-5.48648e-08
2.26527e-08
-7.39906e-09
-0.000278226