/*--------------------------------*- C++ -*----------------------------------*\
| =========                 |                                                 |
| \\      /  F ield         | OpenFOAM: The Open Source CFD Toolbox           |
|  \\    /   O peration     | Version:  2312                                  |
|   \\  /    A nd           | Website:  www.openfoam.com                      |
|    \\/     M anipulation  |                                                 |
\*---------------------------------------------------------------------------*/
FoamFile
{
    version     2.0;
    format      ascii;
    arch        "LSB;label=32;scalar=64";
    class       volScalarField;
    location    "350";
    object      epsilon;
}
// * * * * * * * * * * * * * * * * * * * * * * * * * * * * * * * * * * * * * //

dimensions      [0 2 -3 0 0 0 0];

internalField   nonuniform List<scalar> 
43496
(
4.25363e-06
1.91155e-05
1.19853e-06
3.66249e-06
2.31123e-06
9.45364e-07
4.25367e-06
9.58588e-06
2.31123e-06
1.19832e-06
9.45369e-07
3.66266e-06
1.42997e-06
5.66653e-06
5.6652e-06
1.91132e-05
9.5861e-06
1.26705e-05
4.25372e-06
4.89857e-06
1.12604e-05
4.89879e-06
1.12578e-05
1.26728e-05
2.27847e-05
7.25779e-06
7.25793e-06
2.27913e-05
1.91111e-05
1.26706e-05
4.25378e-06
1.126e-05
4.89878e-06
1.12579e-05
4.89894e-06
1.26729e-05
2.27846e-05
7.25621e-06
9.58406e-06
7.25632e-06
2.27912e-05
9.98004e-06
2.24177e-05
2.24182e-05
2.24118e-05
2.24123e-05
9.97978e-06
4.72579e-06
9.95649e-06
5.6665e-06
2.99137e-06
9.95461e-06
2.99137e-06
4.72568e-06
4.7199e-06
9.95227e-06
5.66512e-06
2.99023e-06
2.99027e-06
9.94972e-06
4.71982e-06
1.91087e-05
9.5839e-06
4.55719e-07
6.66734e-07
4.55766e-07
3.66255e-06
2.23865e-06
2.23902e-06
1.68031e-06
2.31122e-06
2.55647e-06
1.55771e-06
2.5566e-06
1.55855e-06
1.67904e-06
1.85921e-06
3.03787e-06
3.0381e-06
1.85822e-06
1.6803e-06
2.31122e-06
1.55768e-06
2.55651e-06
1.55853e-06
2.55664e-06
1.67897e-06
1.85917e-06
3.03748e-06
3.66275e-06
2.23876e-06
3.03773e-06
1.85801e-06
2.23914e-06
2.84411e-06
1.43133e-06
1.98293e-06
1.98286e-06
1.98343e-06
1.9835e-06
2.84394e-06
6.57726e-07
1.19248e-06
1.19243e-06
1.42565e-06
6.65037e-07
1.19735e-06
1.1974e-06
1.43046e-06
1.42535e-06
1.42764e-06
1.19259e-06
1.19254e-06
1.1963e-06
1.19624e-06
1.42546e-06
1.42771e-06
1.19217e-06
1.19233e-06
1.19591e-06
1.196e-06
1.19277e-06
1.19622e-06
1.19639e-06
1.42533e-06
1.42764e-06
1.1925e-06
1.19617e-06
1.19625e-06
1.42792e-06
1.43019e-06
1.19746e-06
1.19739e-06
1.43024e-06
1.19707e-06
1.1973e-06
1.19772e-06
1.43018e-06
1.1974e-06
4.24939e-06
9.56747e-06
9.57307e-06
4.24826e-06
1.90825e-05
1.90929e-05
4.24937e-06
9.56911e-06
9.57463e-06
4.24805e-06
6.57803e-07
6.57726e-07
6.57924e-07
6.63295e-07
6.63345e-07
6.63231e-07
6.63438e-07
2.30767e-06
3.65673e-06
9.385e-07
1.19366e-06
3.65778e-06
9.3991e-07
2.30664e-06
1.9085e-05
1.90951e-05
2.30788e-06
9.38544e-07
3.65696e-06
1.19359e-06
9.39922e-07
3.65807e-06
2.30683e-06
5.65755e-06
5.65904e-06
1.4255e-06
5.65905e-06
5.66063e-06
9.5802e-06
4.25282e-06
1.91041e-05
9.58179e-06
4.25265e-06
6.6514e-07
6.65096e-07
6.65258e-07
2.31132e-06
3.66114e-06
9.44345e-07
2.31036e-06
9.45743e-07
1.91061e-05
2.31145e-06
9.44411e-07
3.66148e-06
2.31065e-06
9.45774e-07
5.66332e-06
5.66492e-06
1.43011e-06
5.66473e-06
5.66637e-06
1.9081e-05
1.90914e-05
1.90845e-05
1.90949e-05
5.65758e-06
5.65918e-06
1.42521e-06
5.65911e-06
5.66081e-06
1.91021e-05
1.9092e-05
1.91056e-05
1.90955e-05
1.42784e-06
5.66214e-06
5.66382e-06
5.6606e-06
5.66221e-06
4.24938e-06
9.56769e-06
9.57292e-06
4.24812e-06
2.30799e-06
3.65683e-06
9.38577e-07
1.19382e-06
3.65793e-06
9.40025e-07
2.30716e-06
2.3079e-06
3.65708e-06
9.38515e-07
1.19376e-06
3.6581e-06
9.39984e-07
2.30688e-06
4.25055e-06
9.5791e-06
9.57409e-06
4.25181e-06
4.2504e-06
9.57907e-06
9.57405e-06
4.25157e-06
2.30902e-06
1.19507e-06
3.66018e-06
9.42963e-07
3.65914e-06
9.41563e-07
2.30995e-06
2.30878e-06
1.19502e-06
3.66032e-06
9.4293e-07
3.65936e-06
9.41508e-07
2.30979e-06
5.65871e-06
5.6574e-06
1.42529e-06
5.66014e-06
5.65896e-06
1.90818e-05
1.90921e-05
1.91036e-05
1.90935e-05
1.42794e-06
5.66307e-06
5.66186e-06
5.66171e-06
5.66036e-06
1.91028e-05
1.90928e-05
2.30754e-06
3.65709e-06
9.38202e-07
1.19341e-06
3.65821e-06
9.39602e-07
2.30672e-06
4.24937e-06
9.56881e-06
9.57406e-06
4.24806e-06
2.30752e-06
9.38207e-07
3.65718e-06
1.19347e-06
9.39599e-07
3.65829e-06
2.30669e-06
4.25043e-06
9.58072e-06
9.57571e-06
4.25159e-06
2.30859e-06
1.19467e-06
3.66049e-06
9.42595e-07
3.65942e-06
9.41208e-07
2.30952e-06
4.25045e-06
9.58004e-06
9.57513e-06
4.25159e-06
2.30858e-06
1.19486e-06
9.42601e-07
3.66053e-06
9.41225e-07
3.65948e-06
2.30949e-06
4.2492e-06
9.56819e-06
9.5735e-06
4.24798e-06
2.30772e-06
9.38554e-07
3.65699e-06
1.19386e-06
9.3997e-07
3.65806e-06
2.30691e-06
4.24928e-06
9.56785e-06
9.5734e-06
4.24798e-06
2.30853e-06
1.19498e-06
3.65999e-06
9.4295e-07
3.659e-06
9.41505e-07
2.30956e-06
4.25024e-06
9.57956e-06
9.57462e-06
4.25138e-06
2.30876e-06
1.19531e-06
9.43001e-07
3.66026e-06
9.41571e-07
3.65926e-06
2.30965e-06
4.25031e-06
9.57946e-06
9.57414e-06
4.25141e-06
5.65922e-06
5.6579e-06
1.42519e-06
5.66082e-06
5.65941e-06
1.90824e-05
1.90927e-05
1.91056e-05
1.90957e-05
1.42783e-06
5.66375e-06
5.66234e-06
5.66219e-06
5.66086e-06
1.91031e-05
1.90932e-05
2.30787e-06
9.38513e-07
3.65731e-06
1.19369e-06
9.39932e-07
3.6584e-06
2.30683e-06
4.24955e-06
9.56864e-06
9.5742e-06
4.24832e-06
4.24944e-06
9.56871e-06
9.57418e-06
4.24832e-06
2.30878e-06
1.19495e-06
9.42972e-07
3.66033e-06
9.41555e-07
3.65928e-06
2.30982e-06
2.30876e-06
1.195e-06
9.4297e-07
3.66065e-06
9.41527e-07
3.65962e-06
2.30978e-06
4.25069e-06
9.58026e-06
9.57496e-06
4.2518e-06
4.25066e-06
9.58023e-06
9.57526e-06
4.25173e-06
1.90821e-05
1.90924e-05
1.9084e-05
1.90943e-05
1.42814e-06
5.66196e-06
5.66358e-06
5.66047e-06
5.66202e-06
1.9103e-05
1.9093e-05
1.91049e-05
1.90949e-05
1.91026e-05
1.91062e-05
5.66355e-06
5.66517e-06
9.58018e-06
4.2526e-06
3.66136e-06
9.4442e-07
2.31075e-06
3.66154e-06
9.44368e-07
2.31059e-06
5.66457e-06
5.66321e-06
1.91034e-05
3.66166e-06
9.44096e-07
2.31036e-06
9.58114e-06
4.25259e-06
9.44118e-07
3.66168e-06
2.31034e-06
4.25351e-06
9.58066e-06
4.25253e-06
2.31127e-06
9.44426e-07
3.6614e-06
1.19861e-06
2.31049e-06
9.45721e-07
3.66236e-06
4.25354e-06
9.58015e-06
4.2524e-06
9.58528e-06
5.66507e-06
5.6637e-06
1.91037e-05
2.31156e-06
9.44388e-07
3.66182e-06
1.19853e-06
2.31067e-06
9.45709e-07
3.66279e-06
4.25394e-06
9.58096e-06
4.25298e-06
4.25395e-06
9.58135e-06
4.25291e-06
9.5861e-06
1.91035e-05
1.91132e-05
1.91055e-05
1.91151e-05
1.26549e-05
1.12459e-05
4.89425e-06
4.24939e-06
1.12436e-05
4.89431e-06
1.26575e-05
2.27609e-05
9.57002e-06
7.24974e-06
7.24965e-06
2.2754e-05
2.27603e-05
7.25126e-06
9.57073e-06
7.25137e-06
2.27672e-05
1.26539e-05
4.24819e-06
1.124e-05
4.89311e-06
1.12423e-05
4.89303e-06
1.26508e-05
1.90875e-05
1.9088e-05
1.26552e-05
4.89408e-06
1.12469e-05
4.24921e-06
4.894e-06
1.12447e-05
1.26589e-05
2.27611e-05
9.57162e-06
7.25003e-06
7.24993e-06
2.27542e-05
2.27605e-05
7.25154e-06
9.57245e-06
7.25166e-06
2.27673e-05
1.26551e-05
4.24823e-06
4.89279e-06
1.12411e-05
4.89294e-06
1.12434e-05
1.26515e-05
1.90898e-05
1.90904e-05
9.97119e-06
2.2396e-05
2.2395e-05
2.23898e-05
2.23889e-05
9.97101e-06
4.71412e-06
2.98619e-06
5.65756e-06
9.93424e-06
2.98578e-06
9.93631e-06
4.71425e-06
4.71966e-06
2.98692e-06
5.65914e-06
9.93843e-06
2.98699e-06
9.94114e-06
4.71974e-06
4.71551e-06
9.93952e-06
5.65901e-06
2.98685e-06
2.98714e-06
9.93748e-06
4.71538e-06
4.721e-06
9.94437e-06
5.66053e-06
2.98792e-06
2.98785e-06
9.94167e-06
4.72091e-06
9.96885e-06
2.23841e-05
2.23832e-05
2.23904e-05
2.23894e-05
9.96904e-06
2.27855e-05
7.25616e-06
9.58212e-06
2.27788e-05
7.25605e-06
1.26686e-05
4.25287e-06
1.1254e-05
4.89788e-06
1.26661e-05
1.12561e-05
4.89793e-06
1.91088e-05
2.27855e-05
7.25639e-06
9.58378e-06
2.27788e-05
7.25625e-06
1.26694e-05
4.25258e-06
4.89759e-06
1.12548e-05
1.26668e-05
4.89744e-06
1.1257e-05
1.91106e-05
9.97965e-06
2.24178e-05
2.24167e-05
2.24118e-05
2.24108e-05
9.97941e-06
4.71888e-06
2.9896e-06
9.94686e-06
5.66335e-06
4.71905e-06
2.98951e-06
9.94879e-06
4.7244e-06
2.99065e-06
9.95108e-06
5.66498e-06
4.72453e-06
2.9907e-06
9.95366e-06
9.97734e-06
2.24064e-05
2.24054e-05
9.97759e-06
2.24125e-05
2.24114e-05
4.72022e-06
9.95173e-06
5.6647e-06
2.99038e-06
2.99045e-06
9.94984e-06
4.72009e-06
4.72573e-06
9.95668e-06
5.66631e-06
2.99155e-06
2.99152e-06
9.95409e-06
4.7256e-06
1.90859e-05
1.90865e-05
1.90894e-05
1.90901e-05
9.9715e-06
2.23974e-05
2.23964e-05
2.23912e-05
2.23903e-05
9.97136e-06
4.71367e-06
2.98557e-06
5.65764e-06
9.93407e-06
9.9369e-06
2.98564e-06
4.71382e-06
4.71929e-06
2.98654e-06
5.65929e-06
9.93912e-06
9.94189e-06
2.98661e-06
4.71942e-06
4.71512e-06
9.94001e-06
5.65905e-06
2.98647e-06
9.93736e-06
4.71496e-06
2.98647e-06
4.72071e-06
9.94515e-06
5.66069e-06
2.98755e-06
9.9424e-06
4.72058e-06
2.98748e-06
9.96914e-06
2.23855e-05
2.23846e-05
2.23917e-05
2.23908e-05
9.96929e-06
1.90974e-05
1.90968e-05
1.91009e-05
1.91003e-05
9.97357e-06
2.23969e-05
2.23959e-05
9.97373e-06
2.24031e-05
2.2402e-05
4.71755e-06
2.98832e-06
5.66212e-06
9.94614e-06
9.94413e-06
2.98837e-06
4.71738e-06
4.72315e-06
2.98931e-06
5.66373e-06
9.95149e-06
9.94883e-06
2.98935e-06
4.72302e-06
4.71617e-06
9.94091e-06
2.98744e-06
5.66063e-06
4.71634e-06
9.94306e-06
2.9874e-06
4.7218e-06
9.94563e-06
2.98841e-06
5.66231e-06
4.72194e-06
9.94835e-06
2.98838e-06
9.97596e-06
2.24086e-05
2.24076e-05
2.24025e-05
2.24015e-05
9.97579e-06
1.26548e-05
1.12461e-05
4.8941e-06
4.24922e-06
1.12432e-05
4.89402e-06
1.26577e-05
2.27601e-05
9.56976e-06
7.24829e-06
7.24822e-06
2.27532e-05
2.27595e-05
7.24985e-06
9.57089e-06
7.24993e-06
2.27664e-05
1.26536e-05
4.24821e-06
1.12395e-05
4.8929e-06
1.12426e-05
4.89286e-06
1.26511e-05
1.26613e-05
1.12472e-05
4.89552e-06
4.25054e-06
1.26587e-05
1.12494e-05
4.89549e-06
2.27727e-05
9.57718e-06
7.25448e-06
2.27795e-05
7.25459e-06
2.27734e-05
7.25299e-06
9.57609e-06
2.27666e-05
7.25289e-06
1.26625e-05
4.25179e-06
1.12528e-05
4.89679e-06
1.26651e-05
1.12506e-05
4.89678e-06
1.26616e-05
1.12469e-05
4.89516e-06
4.25046e-06
1.26583e-05
1.12493e-05
4.8952e-06
2.27719e-05
9.57715e-06
7.25304e-06
7.25314e-06
2.27786e-05
2.27725e-05
7.25155e-06
9.57602e-06
2.27658e-05
7.25147e-06
1.26621e-05
4.25158e-06
1.12526e-05
4.89632e-06
1.12505e-05
4.89635e-06
1.26652e-05
9.97088e-06
2.23959e-05
2.23965e-05
2.23898e-05
2.23903e-05
9.97067e-06
4.71928e-06
2.98656e-06
5.65865e-06
9.9387e-06
9.94079e-06
2.98662e-06
4.71939e-06
4.71345e-06
2.98544e-06
5.65746e-06
9.93414e-06
2.98542e-06
9.9369e-06
4.71361e-06
4.72063e-06
9.94405e-06
5.66021e-06
2.98753e-06
9.94198e-06
2.98747e-06
4.72052e-06
4.71487e-06
9.94013e-06
5.65886e-06
2.98631e-06
2.98636e-06
9.9374e-06
4.71471e-06
9.9685e-06
2.2384e-05
2.23845e-05
2.23903e-05
2.23908e-05
9.96872e-06
1.90867e-05
1.90873e-05
1.90988e-05
1.90983e-05
9.97281e-06
2.23954e-05
2.23959e-05
9.97305e-06
2.24015e-05
2.24021e-05
4.72296e-06
2.98924e-06
5.66315e-06
9.95059e-06
2.98928e-06
9.94793e-06
4.72285e-06
4.71724e-06
2.98817e-06
5.66181e-06
9.94642e-06
9.94378e-06
2.98823e-06
4.71708e-06
4.72169e-06
9.94473e-06
2.98838e-06
5.66164e-06
2.98837e-06
4.72181e-06
9.94743e-06
4.7159e-06
9.9406e-06
2.98732e-06
5.66043e-06
4.71607e-06
9.94331e-06
2.98727e-06
9.97522e-06
2.24071e-05
2.24077e-05
2.24009e-05
2.24015e-05
9.97496e-06
1.90981e-05
1.90975e-05
1.26558e-05
1.1247e-05
4.8941e-06
4.24923e-06
1.12441e-05
4.89416e-06
1.26583e-05
2.27615e-05
9.57094e-06
7.24851e-06
7.24843e-06
2.27546e-05
2.27608e-05
7.25e-06
9.57185e-06
7.25009e-06
2.27676e-05
1.26545e-05
4.24825e-06
1.12405e-05
4.89296e-06
1.12436e-05
4.89285e-06
1.26519e-05
1.26624e-05
4.89522e-06
1.12482e-05
4.25045e-06
1.26589e-05
4.89519e-06
1.12503e-05
2.27728e-05
9.57879e-06
7.25471e-06
2.27795e-05
7.25484e-06
2.27735e-05
7.25327e-06
9.57769e-06
2.27667e-05
7.25314e-06
1.2663e-05
4.25161e-06
4.89634e-06
1.12536e-05
1.26659e-05
4.89643e-06
1.12515e-05
1.2662e-05
1.12479e-05
4.89536e-06
4.25044e-06
1.26596e-05
1.12502e-05
4.89531e-06
2.27729e-05
9.57817e-06
7.25315e-06
7.25325e-06
2.27796e-05
2.27737e-05
7.2517e-06
9.57708e-06
2.27669e-05
7.2516e-06
1.26633e-05
4.25163e-06
1.12535e-05
4.89653e-06
1.12513e-05
4.89662e-06
1.26657e-05
1.26544e-05
4.89372e-06
1.12466e-05
4.2491e-06
4.89384e-06
1.12437e-05
1.26575e-05
2.27591e-05
9.57047e-06
7.24932e-06
7.24899e-06
2.2752e-05
2.27582e-05
7.25056e-06
9.5715e-06
7.2509e-06
2.27653e-05
1.26537e-05
4.2481e-06
4.89266e-06
1.12401e-05
4.89255e-06
1.12431e-05
1.26506e-05
1.26545e-05
1.12463e-05
4.89391e-06
4.24914e-06
1.12434e-05
4.89391e-06
1.26578e-05
2.27599e-05
9.5703e-06
7.2477e-06
7.2476e-06
2.2753e-05
2.27593e-05
7.24918e-06
9.57103e-06
7.24929e-06
2.27661e-05
1.26542e-05
4.24816e-06
1.12398e-05
4.89271e-06
1.12429e-05
4.89281e-06
1.26505e-05
1.26612e-05
4.89503e-06
1.12471e-05
4.25029e-06
1.26581e-05
4.89491e-06
1.125e-05
2.27705e-05
9.57766e-06
7.25366e-06
7.25401e-06
2.27774e-05
2.27714e-05
7.25248e-06
9.57656e-06
2.27644e-05
7.25214e-06
1.26619e-05
4.25144e-06
4.89606e-06
1.12533e-05
4.89619e-06
1.12505e-05
1.26648e-05
1.26613e-05
1.12469e-05
4.89509e-06
4.25033e-06
1.26585e-05
1.12496e-05
4.89503e-06
2.27715e-05
9.57717e-06
7.25227e-06
7.2524e-06
2.27782e-05
2.27722e-05
7.25086e-06
9.57646e-06
2.27654e-05
7.25075e-06
1.26623e-05
4.25143e-06
1.12529e-05
4.89621e-06
1.12505e-05
4.89626e-06
1.26649e-05
9.97157e-06
2.23965e-05
2.23969e-05
2.23904e-05
2.23908e-05
9.97136e-06
4.71965e-06
2.98666e-06
5.65932e-06
9.93876e-06
9.94149e-06
2.98677e-06
4.71975e-06
4.71374e-06
2.98563e-06
5.65791e-06
9.93452e-06
2.98571e-06
9.9366e-06
4.71384e-06
4.72103e-06
9.94471e-06
5.6607e-06
2.98773e-06
9.94203e-06
2.98762e-06
4.72093e-06
4.71513e-06
9.93981e-06
5.65938e-06
2.98666e-06
2.98658e-06
9.93778e-06
4.71503e-06
9.96919e-06
2.23848e-05
2.23852e-05
2.23909e-05
2.23913e-05
9.9694e-06
1.90873e-05
1.90879e-05
1.9101e-05
1.91004e-05
9.9735e-06
2.23959e-05
2.23963e-05
9.97373e-06
2.24019e-05
2.24023e-05
4.72343e-06
2.98968e-06
5.66367e-06
9.95084e-06
2.98958e-06
9.9483e-06
4.72333e-06
4.71754e-06
2.98847e-06
5.66231e-06
9.94629e-06
9.94366e-06
2.98848e-06
4.71745e-06
4.72213e-06
9.94516e-06
2.98859e-06
5.66229e-06
2.98869e-06
4.72224e-06
9.94787e-06
4.71624e-06
9.94072e-06
2.98755e-06
5.66089e-06
4.71635e-06
9.94307e-06
2.98759e-06
9.97589e-06
2.24073e-05
2.24077e-05
2.24013e-05
2.24017e-05
9.97564e-06
1.90985e-05
1.90979e-05
1.26551e-05
4.89432e-06
1.12464e-05
4.24946e-06
4.89435e-06
1.1244e-05
1.26576e-05
2.27604e-05
9.57109e-06
7.24967e-06
7.2496e-06
2.27536e-05
2.27598e-05
7.25119e-06
9.57185e-06
7.25128e-06
2.27666e-05
1.26541e-05
4.24845e-06
4.89321e-06
1.12402e-05
4.89319e-06
1.12431e-05
1.26511e-05
1.2655e-05
4.89406e-06
1.12462e-05
4.24948e-06
4.89408e-06
1.1244e-05
1.26583e-05
2.27607e-05
9.57117e-06
7.24858e-06
7.24847e-06
2.27538e-05
2.276e-05
7.25009e-06
9.57209e-06
7.25021e-06
2.27668e-05
1.26546e-05
4.24828e-06
4.89288e-06
1.12405e-05
4.8929e-06
1.12427e-05
1.26509e-05
1.26613e-05
4.89554e-06
1.12475e-05
4.25066e-06
1.26588e-05
4.8955e-06
1.12497e-05
2.27719e-05
9.57799e-06
7.25433e-06
7.25443e-06
2.27786e-05
2.27726e-05
7.25287e-06
9.57727e-06
2.27659e-05
7.25279e-06
1.26625e-05
4.2519e-06
4.89671e-06
1.12531e-05
4.89679e-06
1.12509e-05
1.26649e-05
1.26619e-05
4.89532e-06
1.12475e-05
4.25061e-06
1.26591e-05
4.89528e-06
1.12496e-05
2.27722e-05
9.57833e-06
7.25327e-06
7.25341e-06
2.27789e-05
2.27729e-05
7.25184e-06
9.57723e-06
2.27661e-05
7.2517e-06
1.26629e-05
4.25179e-06
4.89646e-06
1.1253e-05
4.89652e-06
1.12509e-05
1.26654e-05
1.90869e-05
1.90876e-05
1.90889e-05
1.90895e-05
9.97314e-06
2.23954e-05
2.23945e-05
9.97335e-06
2.24016e-05
2.24005e-05
4.71786e-06
2.98868e-06
5.66192e-06
9.94576e-06
4.71774e-06
2.98875e-06
9.94378e-06
4.72336e-06
2.98982e-06
5.66351e-06
9.95062e-06
4.72328e-06
2.98975e-06
9.94803e-06
4.71658e-06
9.94065e-06
2.98793e-06
5.66053e-06
4.71671e-06
2.98781e-06
9.94265e-06
4.72209e-06
9.94485e-06
2.98879e-06
5.6621e-06
4.72218e-06
2.98885e-06
9.94753e-06
9.97549e-06
2.24071e-05
2.2406e-05
9.97528e-06
2.2401e-05
2.24e-05
1.90983e-05
1.90977e-05
1.91002e-05
1.90996e-05
1.91072e-05
1.91108e-05
4.7186e-06
2.98932e-06
9.94723e-06
5.66356e-06
4.71878e-06
9.94921e-06
2.98927e-06
4.72424e-06
2.9903e-06
9.95193e-06
5.66526e-06
4.72439e-06
9.9545e-06
2.99026e-06
9.97795e-06
2.2408e-05
2.2407e-05
9.97814e-06
2.24141e-05
2.2413e-05
2.27846e-05
7.25471e-06
9.58217e-06
2.27779e-05
7.25462e-06
1.26687e-05
4.25258e-06
1.12538e-05
4.89743e-06
1.12559e-05
1.2666e-05
4.8974e-06
4.72401e-06
2.99018e-06
9.95106e-06
5.66449e-06
9.95359e-06
4.72414e-06
2.99014e-06
4.71829e-06
2.98914e-06
9.94686e-06
5.66329e-06
2.9891e-06
4.71844e-06
9.94946e-06
9.97706e-06
2.24064e-05
2.2407e-05
2.24125e-05
9.97732e-06
2.24131e-05
2.27855e-05
7.2548e-06
9.583e-06
2.27788e-05
7.25469e-06
1.26694e-05
4.25261e-06
1.12547e-05
4.89769e-06
1.12567e-05
1.2667e-05
4.89768e-06
1.26693e-05
4.25356e-06
1.12596e-05
4.89849e-06
1.12575e-05
2.27834e-05
7.25553e-06
9.58256e-06
7.25518e-06
2.27765e-05
1.26684e-05
4.25246e-06
4.89734e-06
1.12543e-05
4.8972e-06
1.26657e-05
1.12564e-05
2.27823e-05
1.26692e-05
4.25356e-06
1.12593e-05
4.89848e-06
1.12572e-05
4.8984e-06
1.26724e-05
2.27842e-05
7.25392e-06
9.58245e-06
2.27775e-05
7.2538e-06
1.26687e-05
4.25243e-06
1.12539e-05
4.89727e-06
1.26658e-05
1.1256e-05
4.89732e-06
2.27833e-05
7.25531e-06
9.5831e-06
7.25544e-06
2.279e-05
4.72451e-06
2.99049e-06
9.95163e-06
5.66513e-06
9.95361e-06
4.72464e-06
2.99054e-06
4.71863e-06
2.98938e-06
9.94668e-06
5.66378e-06
2.98934e-06
4.71873e-06
9.94929e-06
9.97772e-06
2.24066e-05
2.2407e-05
2.24125e-05
9.97798e-06
2.2413e-05
1.91082e-05
1.26698e-05
4.2542e-06
4.89902e-06
1.12595e-05
4.89917e-06
1.12575e-05
1.2672e-05
2.27844e-05
7.25597e-06
9.58323e-06
7.25588e-06
2.27778e-05
1.26685e-05
4.25289e-06
4.89789e-06
1.12543e-05
4.89788e-06
1.26662e-05
1.12563e-05
2.27836e-05
7.2574e-06
7.2575e-06
2.27902e-05
1.26702e-05
4.25403e-06
4.89878e-06
1.12596e-05
4.89886e-06
1.12575e-05
1.26725e-05
2.27848e-05
7.25498e-06
9.58322e-06
2.27782e-05
7.25484e-06
1.2669e-05
4.25284e-06
4.8977e-06
1.12542e-05
1.26665e-05
4.89764e-06
1.12563e-05
2.2784e-05
7.25637e-06
9.58429e-06
7.25652e-06
2.27906e-05
1.91081e-05
1.91086e-05
1.91101e-05
1.91106e-05
4.45787e-07
4.45579e-07
6.59558e-07
4.47812e-07
4.47597e-07
2.37207e-07
2.35231e-07
2.83977e-06
1.97909e-06
1.97921e-06
1.42427e-06
1.97852e-06
1.97866e-06
2.83993e-06
4.5397e-07
4.53784e-07
2.45166e-07
2.43265e-07
2.84329e-06
1.98276e-06
1.98292e-06
1.42907e-06
2.84348e-06
1.98218e-06
1.98235e-06
2.83932e-06
1.97875e-06
1.97886e-06
1.42396e-06
1.97821e-06
1.9783e-06
2.83948e-06
2.84226e-06
1.42901e-06
1.98103e-06
1.98115e-06
1.98158e-06
1.98173e-06
2.84209e-06
2.83933e-06
1.97893e-06
1.97884e-06
1.42406e-06
1.97827e-06
1.97836e-06
2.83951e-06
2.8422e-06
1.4291e-06
1.98114e-06
1.98104e-06
1.98172e-06
1.98162e-06
2.84201e-06
2.83941e-06
1.97883e-06
1.97875e-06
1.42393e-06
1.97821e-06
1.97828e-06
2.83956e-06
2.84235e-06
1.42901e-06
1.98115e-06
1.98105e-06
1.9817e-06
1.9816e-06
2.84219e-06
2.84263e-06
1.42932e-06
1.98132e-06
1.98146e-06
2.84247e-06
1.98189e-06
1.98203e-06
2.84298e-06
1.98251e-06
1.98264e-06
1.42881e-06
2.84316e-06
1.98195e-06
1.98207e-06
2.84285e-06
1.9826e-06
1.9825e-06
1.42886e-06
1.98192e-06
2.84306e-06
1.98202e-06
2.84307e-06
1.98262e-06
1.98253e-06
1.42882e-06
1.98197e-06
2.84324e-06
1.98205e-06
4.45772e-07
4.45716e-07
6.59654e-07
4.4784e-07
4.47748e-07
2.37249e-07
2.35262e-07
4.45661e-07
4.45701e-07
6.59506e-07
4.47682e-07
4.47743e-07
2.37244e-07
2.35257e-07
4.45853e-07
4.45732e-07
6.59702e-07
4.47874e-07
4.47811e-07
2.37305e-07
2.353e-07
6.61447e-07
4.51956e-07
4.51748e-07
4.49944e-07
4.49739e-07
2.39264e-07
2.41213e-07
6.61538e-07
4.51953e-07
4.51909e-07
4.49935e-07
4.4989e-07
2.39299e-07
2.41258e-07
6.61475e-07
4.51818e-07
4.51905e-07
4.49832e-07
4.49871e-07
2.39292e-07
2.41253e-07
6.61665e-07
4.52026e-07
4.5197e-07
4.50028e-07
4.49895e-07
2.39334e-07
2.41315e-07
1.67668e-06
2.55291e-06
1.5539e-06
2.30758e-06
2.55297e-06
1.55461e-06
1.67544e-06
1.85336e-06
2.23454e-06
3.65666e-06
3.03318e-06
2.2342e-06
3.03293e-06
1.85436e-06
1.85541e-06
3.03388e-06
3.65786e-06
2.23509e-06
2.23545e-06
3.03414e-06
1.85441e-06
1.67444e-06
2.30671e-06
2.5521e-06
1.55356e-06
2.552e-06
1.55284e-06
1.67568e-06
1.67678e-06
1.55399e-06
2.55326e-06
2.30779e-06
1.55475e-06
2.55324e-06
1.67555e-06
1.85347e-06
2.23457e-06
3.65692e-06
3.03334e-06
2.23426e-06
3.03315e-06
1.85446e-06
1.85553e-06
3.03413e-06
3.65812e-06
2.23517e-06
2.23551e-06
3.03433e-06
1.85453e-06
1.67453e-06
2.30691e-06
1.55368e-06
2.55236e-06
1.55292e-06
2.5523e-06
1.67577e-06
2.84088e-06
1.42689e-06
1.97948e-06
1.9796e-06
1.98005e-06
1.98016e-06
2.84072e-06
4.53969e-07
4.53925e-07
4.55851e-07
2.45229e-07
2.43292e-07
4.53875e-07
4.53902e-07
4.55854e-07
2.45223e-07
2.43285e-07
4.5406e-07
4.53916e-07
6.66935e-07
4.55958e-07
4.55935e-07
2.45287e-07
2.43324e-07
1.68048e-06
2.31121e-06
2.5564e-06
1.558e-06
2.55653e-06
1.55872e-06
1.67923e-06
1.85731e-06
2.23804e-06
3.03696e-06
3.66105e-06
1.85831e-06
2.23768e-06
3.03671e-06
1.6783e-06
2.31044e-06
2.55569e-06
1.55776e-06
1.67956e-06
2.55559e-06
1.55702e-06
1.68069e-06
2.31152e-06
1.5581e-06
2.55685e-06
1.55894e-06
2.55698e-06
1.67942e-06
1.85746e-06
2.23816e-06
3.03725e-06
3.66142e-06
1.85848e-06
2.2378e-06
3.03704e-06
1.67847e-06
2.31068e-06
1.55795e-06
2.55613e-06
1.67974e-06
1.55715e-06
2.55604e-06
1.8595e-06
3.03796e-06
3.03818e-06
1.85845e-06
2.84439e-06
1.43157e-06
1.98302e-06
1.98318e-06
1.98362e-06
1.9838e-06
2.8442e-06
2.84046e-06
1.42659e-06
1.97917e-06
1.97926e-06
2.8403e-06
1.97972e-06
1.97983e-06
2.8412e-06
1.42646e-06
1.98068e-06
1.98081e-06
2.84137e-06
1.98013e-06
1.98023e-06
1.67693e-06
2.55343e-06
1.55404e-06
2.30806e-06
2.55348e-06
1.55486e-06
1.67564e-06
1.85353e-06
2.23463e-06
3.65679e-06
3.03347e-06
3.03323e-06
2.23429e-06
1.85463e-06
1.85569e-06
3.03421e-06
3.65799e-06
2.23519e-06
3.03445e-06
2.23555e-06
1.85458e-06
1.67465e-06
2.30701e-06
2.55259e-06
1.55379e-06
2.5525e-06
1.55296e-06
1.67593e-06
1.67691e-06
2.55325e-06
1.55399e-06
2.30782e-06
2.55328e-06
1.5548e-06
1.67556e-06
1.85335e-06
2.23479e-06
3.65697e-06
3.03306e-06
3.03284e-06
2.23444e-06
1.85449e-06
1.85555e-06
3.03382e-06
3.65822e-06
2.23533e-06
3.03404e-06
1.85441e-06
2.23571e-06
1.67456e-06
2.30693e-06
2.55239e-06
1.55373e-06
2.55231e-06
1.5529e-06
1.67591e-06
1.67663e-06
2.55442e-06
1.55596e-06
2.30891e-06
1.67792e-06
2.55437e-06
1.55514e-06
1.85767e-06
2.23698e-06
3.66025e-06
3.03614e-06
2.23734e-06
3.03639e-06
1.85654e-06
1.85557e-06
3.03543e-06
2.23648e-06
3.65908e-06
2.23611e-06
1.85669e-06
3.03519e-06
1.67891e-06
2.31002e-06
2.5553e-06
1.55617e-06
2.55534e-06
1.557e-06
1.67761e-06
1.67655e-06
2.5542e-06
1.55591e-06
2.30887e-06
1.67789e-06
2.55413e-06
1.55509e-06
1.85753e-06
2.23708e-06
3.66045e-06
3.03576e-06
3.03599e-06
2.23747e-06
1.85637e-06
1.85541e-06
3.03503e-06
2.23662e-06
3.65924e-06
1.85655e-06
3.03481e-06
2.23624e-06
1.67886e-06
2.3097e-06
2.55511e-06
1.55612e-06
2.5552e-06
1.55694e-06
1.67754e-06
2.84046e-06
1.4267e-06
1.9793e-06
1.97921e-06
1.97979e-06
1.97988e-06
2.84028e-06
2.84115e-06
1.42654e-06
1.98083e-06
1.98074e-06
1.98024e-06
2.84134e-06
1.98016e-06
1.67642e-06
2.55292e-06
1.5536e-06
2.30763e-06
2.55296e-06
1.55437e-06
1.67517e-06
1.85321e-06
2.23462e-06
3.65706e-06
3.03326e-06
3.03302e-06
2.2343e-06
1.85421e-06
1.85527e-06
3.034e-06
3.65826e-06
2.23522e-06
3.03424e-06
2.23556e-06
1.85426e-06
1.67416e-06
2.30657e-06
2.55208e-06
1.55331e-06
2.552e-06
1.55254e-06
1.67541e-06
1.67638e-06
1.55358e-06
2.55291e-06
2.3076e-06
1.55436e-06
2.55304e-06
1.6751e-06
1.85309e-06
2.23466e-06
3.65714e-06
3.03295e-06
3.03272e-06
2.23434e-06
1.85417e-06
1.85524e-06
3.03371e-06
3.65833e-06
2.23526e-06
3.03391e-06
1.85415e-06
2.2356e-06
1.67409e-06
2.30655e-06
1.55329e-06
2.55205e-06
1.55251e-06
2.55191e-06
1.67536e-06
1.67615e-06
2.5539e-06
1.55547e-06
2.30845e-06
1.67742e-06
2.55386e-06
1.5547e-06
1.85727e-06
2.23703e-06
3.66054e-06
3.03595e-06
2.23738e-06
3.03619e-06
1.85626e-06
1.85526e-06
3.03523e-06
2.2365e-06
3.65937e-06
2.23616e-06
1.85627e-06
3.03499e-06
1.67841e-06
2.30962e-06
2.55479e-06
1.55572e-06
2.55482e-06
1.55652e-06
1.67714e-06
1.67611e-06
1.55547e-06
2.55401e-06
2.30843e-06
1.67739e-06
1.55468e-06
2.55383e-06
1.85724e-06
2.23707e-06
3.66059e-06
3.03564e-06
3.03585e-06
2.23741e-06
1.85612e-06
1.85515e-06
3.0349e-06
2.23654e-06
3.65944e-06
1.85624e-06
3.03469e-06
2.2362e-06
1.67839e-06
2.3096e-06
1.5557e-06
2.55485e-06
1.55651e-06
2.55501e-06
1.6771e-06
1.67675e-06
1.55391e-06
2.55313e-06
2.30779e-06
1.55464e-06
2.55317e-06
1.67553e-06
1.85348e-06
2.23481e-06
3.65693e-06
3.03301e-06
2.23448e-06
3.03276e-06
1.85447e-06
1.85553e-06
3.03373e-06
3.65812e-06
2.23538e-06
2.23573e-06
3.03397e-06
1.85454e-06
1.67453e-06
2.30676e-06
1.55358e-06
2.55229e-06
1.55284e-06
2.55222e-06
1.67575e-06
1.6764e-06
2.55388e-06
1.55571e-06
2.30862e-06
1.67766e-06
2.55382e-06
1.55499e-06
1.85738e-06
2.23684e-06
3.66008e-06
3.03578e-06
1.85637e-06
2.2372e-06
3.03604e-06
1.85539e-06
3.0351e-06
2.23636e-06
3.65891e-06
1.8564e-06
2.236e-06
3.03484e-06
1.67863e-06
2.30945e-06
2.55474e-06
1.55601e-06
1.67737e-06
2.55479e-06
1.55674e-06
1.6765e-06
1.55574e-06
2.55409e-06
2.30862e-06
1.67774e-06
1.55501e-06
2.55405e-06
1.85751e-06
2.23714e-06
3.66033e-06
3.03563e-06
3.03588e-06
2.23748e-06
1.85651e-06
1.85552e-06
3.03494e-06
2.23664e-06
3.65919e-06
1.85652e-06
3.03469e-06
2.2363e-06
1.67871e-06
2.30975e-06
1.55602e-06
2.55493e-06
1.55677e-06
2.55498e-06
1.67747e-06
2.84055e-06
1.42658e-06
1.97925e-06
1.97917e-06
1.97972e-06
1.97981e-06
2.84039e-06
2.8413e-06
1.42645e-06
1.98079e-06
1.98069e-06
1.98023e-06
2.84146e-06
1.98013e-06
1.67683e-06
1.55394e-06
2.55321e-06
2.30778e-06
1.55473e-06
2.55326e-06
1.67551e-06
1.85339e-06
2.23497e-06
3.65727e-06
3.03321e-06
2.23463e-06
3.03298e-06
1.8545e-06
1.85558e-06
3.03397e-06
3.65846e-06
2.23554e-06
2.2359e-06
3.0342e-06
1.85446e-06
1.67452e-06
2.3069e-06
1.55365e-06
2.55236e-06
1.55285e-06
2.55227e-06
1.67583e-06
1.67654e-06
1.55587e-06
2.55422e-06
2.30888e-06
1.67779e-06
1.5551e-06
2.55418e-06
1.85753e-06
2.23695e-06
3.66039e-06
3.03609e-06
1.85652e-06
2.2373e-06
3.0363e-06
1.85553e-06
3.03533e-06
2.23644e-06
3.65923e-06
1.85653e-06
2.23609e-06
3.03513e-06
1.67879e-06
2.30972e-06
1.55613e-06
2.55524e-06
1.67753e-06
1.55692e-06
2.55529e-06
1.67652e-06
1.55584e-06
2.5542e-06
2.30885e-06
1.67782e-06
1.55505e-06
2.55415e-06
1.85757e-06
2.23732e-06
3.66072e-06
3.03592e-06
3.03616e-06
2.23768e-06
1.85643e-06
1.85546e-06
3.0352e-06
2.23682e-06
3.65955e-06
1.85658e-06
3.03496e-06
2.23646e-06
1.67881e-06
2.3097e-06
1.55608e-06
2.55508e-06
1.55688e-06
2.55512e-06
1.6775e-06
2.84159e-06
1.42674e-06
1.98101e-06
1.98112e-06
2.84177e-06
1.98043e-06
1.98055e-06
1.85748e-06
2.23823e-06
3.03734e-06
3.66128e-06
3.0371e-06
1.85863e-06
2.23786e-06
1.67854e-06
2.31069e-06
2.55621e-06
1.55801e-06
2.55608e-06
1.67985e-06
1.55718e-06
1.85735e-06
2.23833e-06
3.03693e-06
3.6614e-06
1.85848e-06
3.03671e-06
2.23794e-06
1.67845e-06
2.31057e-06
2.55598e-06
1.55795e-06
1.67978e-06
2.55586e-06
1.55711e-06
1.85722e-06
2.23827e-06
3.03715e-06
3.66161e-06
3.0369e-06
1.85823e-06
2.23792e-06
1.67809e-06
2.31037e-06
2.55569e-06
1.55754e-06
2.55565e-06
1.67936e-06
1.55673e-06
1.85709e-06
2.2383e-06
3.03679e-06
3.66162e-06
1.85821e-06
3.03658e-06
2.23795e-06
1.67806e-06
2.31037e-06
1.55753e-06
2.55576e-06
1.67935e-06
1.55671e-06
2.55579e-06
1.68056e-06
2.31133e-06
1.55802e-06
2.55653e-06
1.55876e-06
2.55665e-06
1.67932e-06
1.85745e-06
2.23834e-06
3.0368e-06
3.66133e-06
2.23799e-06
1.85844e-06
3.03655e-06
1.67839e-06
2.31049e-06
1.55778e-06
2.55581e-06
1.55702e-06
1.67964e-06
2.55576e-06
1.85939e-06
3.03746e-06
3.66246e-06
2.23877e-06
2.23915e-06
3.0377e-06
1.8584e-06
1.68068e-06
2.31169e-06
1.55806e-06
2.55677e-06
1.55891e-06
2.55691e-06
1.67935e-06
1.85739e-06
2.23854e-06
3.03712e-06
3.66174e-06
2.23818e-06
1.85853e-06
3.03686e-06
1.67844e-06
2.31077e-06
1.5579e-06
2.55601e-06
1.55709e-06
1.67975e-06
2.55595e-06
1.85951e-06
3.03779e-06
3.66289e-06
2.23898e-06
2.23935e-06
3.03807e-06
1.85835e-06
8.63135e-07
1.1486e-06
8.6301e-07
9.1619e-06
3.4751e-06
1.84288e-05
5.46336e-06
5.46202e-06
1.84268e-05
3.47487e-06
9.16203e-06
2.20553e-05
9.15934e-06
7.08877e-06
7.08911e-06
2.20619e-05
1.84238e-05
4.54464e-06
2.81224e-06
5.46332e-06
9.50418e-06
2.8117e-06
9.50115e-06
4.54511e-06
4.53862e-06
2.8111e-06
5.46194e-06
9.49964e-06
9.49658e-06
2.81062e-06
4.53898e-06
9.73619e-06
2.17294e-05
2.17298e-05
2.17231e-05
2.17235e-05
9.73582e-06
1.84217e-05
2.20526e-05
9.1594e-06
7.08949e-06
7.09002e-06
2.20595e-05
2.66818e-06
1.14917e-06
1.76804e-06
1.7677e-06
1.76794e-06
1.76803e-06
2.66819e-06
1.61842e-06
2.03212e-06
3.47494e-06
2.8605e-06
2.85979e-06
2.03215e-06
1.61644e-06
1.61845e-06
2.03199e-06
3.47472e-06
2.86038e-06
2.0321e-06
2.86025e-06
1.6165e-06
3.23771e-07
8.69015e-07
8.69148e-07
1.15471e-06
3.39804e-07
8.92438e-07
8.92571e-07
1.17381e-06
3.56082e-07
9.14868e-07
9.15006e-07
1.19208e-06
3.72525e-07
9.36293e-07
9.36431e-07
1.20952e-06
3.89051e-07
9.56708e-07
9.56839e-07
1.22613e-06
4.05578e-07
9.76129e-07
9.76254e-07
1.24191e-06
4.22028e-07
9.94562e-07
9.94685e-07
1.25689e-06
4.38325e-07
1.01201e-06
1.01214e-06
1.27117e-06
4.54398e-07
1.0285e-06
1.02862e-06
1.2847e-06
4.70181e-07
1.04404e-06
1.04416e-06
1.2974e-06
4.85618e-07
1.05866e-06
1.05879e-06
1.30936e-06
5.00659e-07
1.07238e-06
1.07252e-06
1.32059e-06
5.15259e-07
1.08525e-06
1.08538e-06
1.33125e-06
5.29382e-07
1.09729e-06
1.09741e-06
1.34126e-06
5.42997e-07
1.10854e-06
1.10865e-06
1.35069e-06
5.56085e-07
1.11903e-06
1.11913e-06
1.35957e-06
5.68629e-07
1.12881e-06
1.1289e-06
1.36787e-06
5.80624e-07
1.13792e-06
1.13799e-06
1.37572e-06
5.92074e-07
1.14641e-06
1.14646e-06
1.38315e-06
6.02987e-07
1.15434e-06
1.15436e-06
1.39021e-06
6.13376e-07
1.16176e-06
1.16174e-06
1.39686e-06
6.23252e-07
1.16871e-06
1.16865e-06
1.40321e-06
6.32625e-07
1.17525e-06
1.17515e-06
1.40924e-06
6.41497e-07
1.18138e-06