/*--------------------------------*- C++ -*----------------------------------*\
| =========                 |                                                 |
| \\      /  F ield         | OpenFOAM: The Open Source CFD Toolbox           |
|  \\    /   O peration     | Version:  2312                                  |
|   \\  /    A nd           | Website:  www.openfoam.com                      |
|    \\/     M anipulation  |                                                 |
\*---------------------------------------------------------------------------*/
FoamFile
{
    version     2.0;
    format      ascii;
    arch        "LSB;label=32;scalar=64";
    class       volScalarField;
    location    "350";
    object      p;
}
// * * * * * * * * * * * * * * * * * * * * * * * * * * * * * * * * * * * * * //

dimensions      [0 2 -2 0 0 0 0];

internalField   nonuniform List<scalar> 
43496
(
0.000740549
0.000740546
0.000742731
0.000740587
0.000740636
0.000742752
0.000740549
0.000740548
0.000740636
0.000742731
0.000742753
0.000740587
0.000741112
0.000740543
0.000740543
0.000740546
0.000740548
0.000744877
0.000744859
0.000740547
0.00074054
0.000744862
0.000744875
0.00074054
0.000744878
0.000740537
0.000744873
0.000740543
0.000744874
0.000744877
0.000744859
0.00074054
0.000740547
0.000744875
0.000744861
0.00074054
0.000744878
0.000740537
0.000744868
0.000744874
0.000740543
0.000744882
0.000740541
0.000740541
0.000744884
0.000744883
0.000740534
0.000744847
0.000740549
0.000744869
0.0007406
0.00074487
0.000744815
0.000740567
0.000744847
0.000740549
0.000744869
0.0007406
0.000744815
0.00074487
0.000740567
0.000744874
0.000744868
0.000742821
0.000742787
0.000742821
0.000744824
0.000740751
0.000744676
0.000744548
0.000744779
0.000740632
0.000740876
0.000744782
0.000744551
0.000740881
0.000744576
0.000740616
0.000744796
0.000740841
0.000744548
0.000744779
0.000740877
0.000740632
0.000744551
0.000744782
0.000740881
0.000744576
0.000740615
0.000744824
0.000740751
0.000744796
0.00074084
0.000744677
0.000744748
0.000744311
0.000740848
0.000740848
0.000744587
0.000744586
0.000740672
0.000787102
0.000787042
0.000787043
0.000788619
0.000751656
0.000751597
0.000751599
0.000753179
0.000788618
0.000758846
0.000787042
0.000787042
0.000760464
0.000760463
0.000788617
0.000758845
0.000787043
0.000787043
0.000760464
0.000760464
0.000787042
0.000760463
0.000760464
0.000788619
0.000758846
0.000787043
0.000760464
0.000760463
0.000758845
0.000753177
0.000751598
0.000751597
0.000753176
0.000751599
0.000751599
0.000751598
0.000753179
0.000751598
0.000776003
0.000789172
0.000776003
0.000789162
0.000789178
0.000776
0.000776005
0.000789173
0.000776004
0.000789164
0.000787101
0.000787102
0.000787102
0.000760522
0.000760521
0.000760522
0.000760521
0.000776091
0.000789128
0.000787065
0.000778185
0.000776042
0.000778208
0.000789083
0.00078918
0.000776002
0.000776092
0.000787066
0.00078913
0.000778186
0.000778209
0.000776043
0.000789085
0.000789173
0.000789174
0.000776568
0.000775998
0.000775998
0.000753734
0.000753724
0.00075374
0.000753734
0.000753726
0.000751655
0.000751656
0.000751655
0.000740634
0.00075369
0.00075162
0.000753645
0.000742752
0.000753741
0.000740636
0.000751621
0.000753691
0.000753646
0.000742752
0.000753735
0.000753736
0.000741112
0.000740542
0.000740542
0.000789178
0.000776
0.000789179
0.000776001
0.000789172
0.000789173
0.000776568
0.000775998
0.000775998
0.000758279
0.000771465
0.00075828
0.000771466
0.000770903
0.000758276
0.000758276
0.000771459
0.00077146
0.000776003
0.000789171
0.000776003
0.000789162
0.000776091
0.000789128
0.000787064
0.000778185
0.000776042
0.000778208
0.000789083
0.000776091
0.000789127
0.000787065
0.000778185
0.000776042
0.000778208
0.000789083
0.000771449
0.000758281
0.000771459
0.000758281
0.000771449
0.000758281
0.000771458
0.000758281
0.000771369
0.000769326
0.00075832
0.000760485
0.000771415
0.000769348
0.000758368
0.000771369
0.000769326
0.00075832
0.000760485
0.000771414
0.000769348
0.000758368
0.000789172
0.000789172
0.000776568
0.000775998
0.000775998
0.000789178
0.000776001
0.000758279
0.000771465
0.000770902
0.000758276
0.000758276
0.000771459
0.000771459
0.000758279
0.000771465
0.000776092
0.000789129
0.000787065
0.000778186
0.000776043
0.000778208
0.000789085
0.000776005
0.000789173
0.000776004
0.000789164
0.000776092
0.000787066
0.000789129
0.000778186
0.000778209
0.000776043
0.000789085
0.000771451
0.000758282
0.000771459
0.000758283
0.000771371
0.000769326
0.00075832
0.000760486
0.000771415
0.000769349
0.000758369
0.000771451
0.000758282
0.00077146
0.000758283
0.000771371
0.000769327
0.000760486
0.000758321
0.000769349
0.000771416
0.00075837
0.000776004
0.000789172
0.000776003
0.000789163
0.000776091
0.000787065
0.000789129
0.000778186
0.000778208
0.000776042
0.000789084
0.000776004
0.000789173
0.000776003
0.000789163
0.00077137
0.000769326
0.00075832
0.000760485
0.000771415
0.000769348
0.000758369
0.000771449
0.000758281
0.000771459
0.000758283
0.00077137
0.000769326
0.000760486
0.00075832
0.000769348
0.000771416
0.000758369
0.00077145
0.000758281
0.000771459
0.000758282
0.000789174
0.000789174
0.000776569
0.000775999
0.000775999
0.00078918
0.000776002
0.00075828
0.000771466
0.000770905
0.000758277
0.000758277
0.000771461
0.000771461
0.00075828
0.000771466
0.000776092
0.000787065
0.000789129
0.000778186
0.000778208
0.000776043
0.000789084
0.000776005
0.000789173
0.000776004
0.000789164
0.000776006
0.000789173
0.000776004
0.000789163
0.000771371
0.000769327
0.000760486
0.000758321
0.000769349
0.000771416
0.00075837
0.000771371
0.000769326
0.000760486
0.000758321
0.000769349
0.000771416
0.00075837
0.00077145
0.000758282
0.00077146
0.000758283
0.00077145
0.000758282
0.000771459
0.000758284
0.000789179
0.000776001
0.000789179
0.000776002
0.000770905
0.000758276
0.000758276
0.00077146
0.00077146
0.000758279
0.000771465
0.00075828
0.000771466
0.00075374
0.00075374
0.000753734
0.000753735
0.000753733
0.000753724
0.00075369
0.00075162
0.000753644
0.000753689
0.00075162
0.000753644
0.000753734
0.000753734
0.00075374
0.000753691
0.000751621
0.000753646
0.000753735
0.000753726
0.000751621
0.000753691
0.000753646
0.000740548
0.000753734
0.000753724
0.000740634
0.00075162
0.00075369
0.000742731
0.000753645
0.000742751
0.000740586
0.000740548
0.000753734
0.000753725
0.000740547
0.000753736
0.000753736
0.000753741
0.000740636
0.000751621
0.000753691
0.000742731
0.000753646
0.000742751
0.000740587
0.000740549
0.000753735
0.000753725
0.000740549
0.000753734
0.000753725
0.000740548
0.00075374
0.000740544
0.000753741
0.000740546
0.000780326
0.000775994
0.000776001
0.000780307
0.000780324
0.000780309
0.000775994
0.000784854
0.000784859
0.000789177
0.000784847
0.000789182
0.000780327
0.000775991
0.000780317
0.000780322
0.000775998
0.00078485
0.00078486
0.000789179
0.000789165
0.00078485
0.000784858
0.000789181
0.000784857
0.000780323
0.000780328
0.000776003
0.000775995
0.000780309
0.000780311
0.000780326
0.000775995
0.000784855
0.00078486
0.000789178
0.000784848
0.000789184
0.000780328
0.000775992
0.000780318
0.000780323
0.000775999
0.000784852
0.000784861
0.000789166
0.000789181
0.000784859
0.000784852
0.000789183
0.000784859
0.000780324
0.000780332
0.000775996
0.000775996
0.000780333
0.000780333
0.000775989
0.00078488
0.00078912
0.000784854
0.000789175
0.000784912
0.000784861
0.000789151
0.000784879
0.00078912
0.000784855
0.000789175
0.000784912
0.000784861
0.000789152
0.000780296
0.000776005
0.000780318
0.000776055
0.000780264
0.00078032
0.000776023
0.000780296
0.000776005
0.000780318
0.000776055
0.000780265
0.00078032
0.000776023
0.000784845
0.000789188
0.000789188
0.000784853
0.000784853
0.000789187
0.000749411
0.000753739
0.000749416
0.000753744
0.000749404
0.000749407
0.000749416
0.000753741
0.000753726
0.000753743
0.000749407
0.000749414
0.000749413
0.000749411
0.000753739
0.000749416
0.000753745
0.000749404
0.000749408
0.000749417
0.000753728
0.000753742
0.000753744
0.000749415
0.000749408
0.000749414
0.000744881
0.00074054
0.00074054
0.000744882
0.000744882
0.000740533
0.000749435
0.000753682
0.000753736
0.00074941
0.000753713
0.000749467
0.000749417
0.000749435
0.000753683
0.000753737
0.000749411
0.000753713
0.000749468
0.000749417
0.000749401
0.000753749
0.00075375
0.000753748
0.000749408
0.000749409
0.000744846
0.000740548
0.000744868
0.000740599
0.000744813
0.000744869
0.000740567
0.000744846
0.000740548
0.000744868
0.000740599
0.000744815
0.000744869
0.000740567
0.000784857
0.000780323
0.000784858
0.000780324
0.000780331
0.000775995
0.000775996
0.000780333
0.000780333
0.000775989
0.000784879
0.000789119
0.000784854
0.000789175
0.000784861
0.000784912
0.000789151
0.00078488
0.00078912
0.000784854
0.000789175
0.000784861
0.000784912
0.000789151
0.000780296
0.000776004
0.000780317
0.000776056
0.00078032
0.000776023
0.000780264
0.000780296
0.000776004
0.000780318
0.000776056
0.00078032
0.000776023
0.000780265
0.000784845
0.000789188
0.000789188
0.000784853
0.000784853
0.000789186
0.000762604
0.000767141
0.000762605
0.000767142
0.00076713
0.000771475
0.000771475
0.000771473
0.000767136
0.000767137
0.000762577
0.000758333
0.000762599
0.000758282
0.000762601
0.000762545
0.000758301
0.000762577
0.000758334
0.000762599
0.000758283
0.000762601
0.000762546
0.000758301
0.000767164
0.000771461
0.000771406
0.000767138
0.000771438
0.000767145
0.000767196
0.000767164
0.000771462
0.000771407
0.000767139
0.000771438
0.000767145
0.000767196
0.000762613
0.000758274
0.000758274
0.000762614
0.000762614
0.000758267
0.000780326
0.000775994
0.000776001
0.000780307
0.000780324
0.00078031
0.000775994
0.000784854
0.000784859
0.000789177
0.000784847
0.000789182
0.000780327
0.000775991
0.000780316
0.000780322
0.000775998
0.000784851
0.00078486
0.000789179
0.000789165
0.00078485
0.000784857
0.000789181
0.000767135
0.000771466
0.000771452
0.000767144
0.000771468
0.000767134
0.000767142
0.000762608
0.000762598
0.000758269
0.000758276
0.000762603
0.000767138
0.000771464
0.000767143
0.000771469
0.000767131
0.000762607
0.000762589
0.000758273
0.00075828
0.000758272
0.000762605
0.000762591
0.000767134
0.000771466
0.000771452
0.000767144
0.000771468
0.000767134
0.000767142
0.000762608
0.000762597
0.000758269
0.000762603
0.000758276
0.000767138
0.000771464
0.000767143
0.000771469
0.000767131
0.000762607
0.000762589
0.000758272
0.000758279
0.000762605
0.000762591
0.000758272
0.000780331
0.000775996
0.000775996
0.000780332
0.000780332
0.000775988
0.000784879
0.000789119
0.000784854
0.000789174
0.00078486
0.000784912
0.00078915
0.000784879
0.000789119
0.000784854
0.000789174
0.000784912
0.000784861
0.00078915
0.000780296
0.000776004
0.000780317
0.000776055
0.000780319
0.000780264
0.000776022
0.000780295
0.000776004
0.000780317
0.000776055
0.000780264
0.000780319
0.000776023
0.000784845
0.000789187
0.000789187
0.000784852
0.000784852
0.000789186
0.000784857
0.000780323
0.000762604
0.000767141
0.000767129
0.000771474
0.000771474
0.000771473
0.000767136
0.000767136
0.000762577
0.000758333
0.000762598
0.000758282
0.000762545
0.0007626
0.0007583
0.000762577
0.000758333
0.000762599
0.000758282
0.0007626
0.000762545
0.000758301
0.000767163
0.000771461
0.000771405
0.000767138
0.000767195
0.000771437
0.000767144
0.000767163
0.000771461
0.000771405
0.000767138
0.000771437
0.000767145
0.000767196
0.000762612
0.000758274
0.000758274
0.000762613
0.000762613
0.000758266
0.000762604
0.000767141
0.000780327
0.000775995
0.000776002
0.000780309
0.000780326
0.000780311
0.000775995
0.000784855
0.000784861
0.000789179
0.000784849
0.000789184
0.000780329
0.000775992
0.000780318
0.000780323
0.000775999
0.000784851
0.000784861
0.000789181
0.000789166
0.000784852
0.000784859
0.000789182
0.000767136
0.000771453
0.000771468
0.000767145
0.000771469
0.000767143
0.000767136
0.000762609
0.000762599
0.00075827
0.000758277
0.000762604
0.000767139
0.000771464
0.000767144
0.00077147
0.000767132
0.000762609
0.00076259
0.000758281
0.000758274
0.000758273
0.000762592
0.000762607
0.000767136
0.000771468
0.000771453
0.000767145
0.000771469
0.000767136
0.000767143
0.00076261
0.000762599
0.00075827
0.000762605
0.000758277
0.000767139
0.000771465
0.000767144
0.000771471
0.000767133
0.000762608
0.00076259
0.000758274
0.00075828
0.000762607
0.000762592
0.000758273
0.000780326
0.000776003
0.000775995
0.000780307
0.00078031
0.000780324
0.000775995
0.000784854
0.000784859
0.000789177
0.000784848
0.000789183
0.000780327
0.000775992
0.000780317
0.000780321
0.000775998
0.000784851
0.000784861
0.000789165
0.00078918
0.000784859
0.000784851
0.000789181
0.000780327
0.000775995
0.000776002
0.000780308
0.000780325
0.00078031
0.000775994
0.000784855
0.00078486
0.000789178
0.000784848
0.000789183
0.000780328
0.000775991
0.000780317
0.000780323
0.000775998
0.000784851
0.000784861
0.00078918
0.000789165
0.000784851
0.000784859
0.000789182
0.000767135
0.000771451
0.000771466
0.000767145
0.000771468
0.000767143
0.000767135
0.000762608
0.000762598
0.00075827
0.000762602
0.000758276
0.000767138
0.000771463
0.000767143
0.000771469
0.000767132
0.000762607
0.000762588
0.000758281
0.000758272
0.000762591
0.000762606
0.000758273
0.000767135
0.000771467
0.000771452
0.000767145
0.000771469
0.000767135
0.000767142
0.000762609
0.000762598
0.000758269
0.000762604
0.000758276
0.000767139
0.000771464
0.000767144
0.00077147
0.000767132
0.000762608
0.000762589
0.000758273
0.00075828
0.000762606
0.000762591
0.000758273
0.000780333
0.000775997
0.000775998
0.000780334
0.000780334
0.00077599
0.00078488
0.000789121
0.000784855
0.000789176
0.000784862
0.000784912
0.000789153
0.00078488
0.000789121
0.000784855
0.000789176
0.000784913
0.000784862
0.000789153
0.000780297
0.000776005
0.000780319
0.000776056
0.000780321
0.000780266
0.000776024
0.000780297
0.000776006
0.000780319
0.000776056
0.000780265
0.000780321
0.000776024
0.000784846
0.000789189
0.000789189
0.000784854
0.000784854
0.000789188
0.000784859
0.000780324
0.000762605
0.000767143
0.000767131
0.000771476
0.000771476
0.000771475
0.000767138
0.000767138
0.000762578
0.000758334
0.0007626
0.000758283
0.000762547
0.000762602
0.000758302
0.000762578
0.000758334
0.0007626
0.000758283
0.000762602
0.000762546
0.000758301
0.000767164
0.000771463
0.000771408
0.000767139
0.000767196
0.000771439
0.000767146
0.000767164
0.000771463
0.000771408
0.000767139
0.000771439
0.000767146
0.000767197
0.000762614
0.000758274
0.000758275
0.000762615
0.000762615
0.000758267
0.000762605
0.000767143
0.000780327
0.000776003
0.000775995
0.000780308
0.000780311
0.000780325
0.000775995
0.000784855
0.000784861
0.000789179
0.000784849
0.000789184
0.000780329
0.000775992
0.000780318
0.000780323
0.000775999
0.000784852
0.000784862
0.000789166
0.000789181
0.000784859
0.000784852
0.000789183
0.000780327
0.000776003
0.000775995
0.000780308
0.000780311
0.000780325
0.000775995
0.000784855
0.00078486
0.000789178
0.000784848
0.000789184
0.000780328
0.000775992
0.000780318
0.000780323
0.000775999
0.000784852
0.000784862
0.000789166
0.00078918
0.00078486
0.000784852
0.000789182
0.000767136
0.000771453
0.000771467
0.000767146
0.000771469
0.000767143
0.000767136
0.00076261
0.000762599
0.00075827
0.000762605
0.000758277
0.000767139
0.000771465
0.000767145
0.000771471
0.000767133
0.000762608
0.00076259
0.000758281
0.000758273
0.000762592
0.000762607
0.000758273
0.000767136
0.000771453
0.000771467
0.000767146
0.000771469
0.000767144
0.000767136
0.00076261
0.000762599
0.00075827
0.000762604
0.000758277
0.000767139
0.000771465
0.000767144
0.00077147
0.000767133
0.000762608
0.000762589
0.000758281
0.000758274
0.000762592
0.000762607
0.000758274
0.000784858
0.000780323
0.000784858
0.000780324
0.00076713
0.000771475
0.000771475
0.000771474
0.000767137
0.000767137
0.000762577
0.000758333
0.000762599
0.000758282
0.000758301
0.000762545
0.000762601
0.000762577
0.000758334
0.0007626
0.000758283
0.000758301
0.000762546
0.000762601
0.000767163
0.000771462
0.000771407
0.000767138
0.000771438
0.000767196
0.000767145
0.000767163
0.000771462
0.000771407
0.000767139
0.000771438
0.000767196
0.000767145
0.000762613
0.000758274
0.000758274
0.000758267
0.000762614
0.000762614
0.000762604
0.000767141
0.000762605
0.000767142
0.000749413
0.000749414
0.000749436
0.000753681
0.000753736
0.000749411
0.000753713
0.000749417
0.000749468
0.000749436
0.000753682
0.000753737
0.000749411
0.000753713
0.000749417
0.000749469
0.000749402
0.00075375
0.00075375
0.000753748
0.000749409
0.000749409
0.00074941
0.000753739
0.000749415
0.000753744
0.000749403
0.000749407
0.000749416
0.000753741
0.000753727
0.000749407
0.000753743
0.000749414
0.000749435
0.000753681
0.000753736
0.000749411
0.000749416
0.000753712
0.000749468
0.000749435
0.00075368
0.000753736
0.00074941
0.000749468
0.000753712
0.000749417
0.000749401
0.000753749
0.000753749
0.000749408
0.000753748
0.000749408
0.000749411
0.00075374
0.000749416
0.000753745
0.000749404
0.000749408
0.000749417
0.000753742
0.000753728
0.000749408
0.000753744
0.000749415
0.000744876
0.000744857
0.000740539
0.00074486
0.000744874
0.00074941
0.000753738
0.000749416
0.000749404
0.000753744
0.000749407
0.000749416
0.000753726
0.000753741
0.000749415
0.000753743
0.000749407
0.000744878
0.000744876
0.000744858
0.000740538
0.000740546
0.000744874
0.00074486
0.000740538
0.00074941
0.000753739
0.000749415
0.000753744
0.000749404
0.000749407
0.000749416
0.000753741
0.000753727
0.000753743
0.000749407
0.000749414
0.000744877
0.000740536
0.000744867
0.000744872
0.000740542
0.000749436
0.000753683
0.000753737
0.000749411
0.000749417
0.000753714
0.000749468
0.000749436
0.000753682
0.000753737
0.000749411
0.000749468
0.000753714
0.000749417
0.000749402
0.000753751
0.00075375
0.000749409
0.000753749
0.000749409
0.000749414
0.000744877
0.000744858
0.000740547
0.000740539
0.000744861
0.000744875
0.000740539
0.000749411
0.00075374
0.000749416
0.000749404
0.000753745
0.000749407
0.000749417
0.000753728
0.000753742
0.000749415
0.000753744
0.000749407
0.000744878
0.000740537
0.000744873
0.000740543
0.000744877
0.000744858
0.000740547
0.00074054
0.000744861
0.000744875
0.00074054
0.000749411
0.00075374
0.000749416
0.000753745
0.000749404
0.000749407
0.000749417
0.000753728
0.000753742
0.000753744
0.000749415
0.000749407
0.000744878
0.000740536
0.000744868
0.000744873
0.000740543
0.000749413
0.000744873
0.000749414
0.000744874
0.000787136
0.000787137
0.000778244
0.000778279
0.00077828
0.000778327
0.000787184
0.000784984
0.000788893
0.000788894
0.000785425
0.000785161
0.000785161
0.000789053
0.000751689
0.00075169
0.000742868
0.000751737
0.00074954
0.000753453
0.000753456
0.00074998
0.000753614
0.000749716
0.000749716
0.000784985
0.000788893
0.000788893
0.000785426
0.000785161
0.000785161
0.000789052
0.000762478
0.000762043
0.000758582
0.000758582
0.000762318
0.000762319
0.000758406
0.000784984
0.000788891
0.000788892
0.000785425
0.000785161
0.000785161
0.000789051
0.000762478
0.000762042
0.000758581
0.000758581
0.000762317
0.000762317
0.000758405
0.000784986
0.000788894
0.000788895
0.000785426
0.000785162
0.000785162
0.000789054
0.000762479
0.000762043
0.000758583
0.000758583
0.000762318
0.000762319
0.000758406
0.000762478
0.000762042
0.000758582
0.000758582
0.000758406
0.000762317
0.000762318
0.000749541
0.000753453
0.000753454
0.00074998
0.000753614
0.000749717
0.000749716
0.00074954
0.000753452
0.000753452
0.000749979
0.000749716
0.000753613
0.000749715
0.00074954
0.000753454
0.000753455
0.000749981
0.000749717
0.000753615
0.000749717
0.000787136
0.000787136
0.000778244
0.000778279
0.000778279
0.000778327
0.000787184
0.000787137
0.000787137
0.000778245
0.00077828
0.00077828
0.000778327
0.000787184
0.000787136
0.000787137
0.000778245
0.000778279
0.000778279
0.000778327
0.000787184
0.000769385
0.000760556
0.000760556
0.000769419
0.00076942
0.000769467
0.000760603
0.000769384
0.000760555
0.000760556
0.000769419
0.000769419
0.000769467
0.000760603
0.000769385
0.000760556
0.000760556
0.00076942
0.00076942
0.000769467
0.000760603
0.000769384
0.000760556
0.000760556
0.000769419
0.000769419
0.000769467
0.000760603
0.000779998
0.000776087
0.000776332
0.000780228
0.000780231
0.000780002
0.000776336
0.000785153
0.000788981
0.000784899
0.0007891
0.000785064
0.000784927
0.000788881
0.000780026
0.00077607
0.000780273
0.000776206
0.000780126
0.000780245
0.000776296
0.000785193
0.000784948
0.000789087
0.000788858
0.000784944
0.00078519
0.000788855
0.000779999
0.000776333
0.000776088
0.000780229
0.000780003
0.000780232
0.000776337
0.000785154
0.000788984
0.0007849
0.000789102
0.000785065
0.000784928
0.000788883
0.000780027
0.000776071
0.000780274
0.000776208
0.000780127
0.000780246
0.000776297
0.000785194
0.000784949
0.000788859
0.000789088
0.000785191
0.000784945
0.000788856
0.000780197
0.000779762
0.000776304
0.000776304
0.000780036
0.000780037
0.000776128
0.000751689
0.000751689
0.00074282
0.000742868
0.000751737
0.00075169
0.00075169
0.000742821
0.000742868
0.000751737
0.000751689
0.00075169
0.000742787
0.00074282
0.000742822
0.000742868
0.000751737
0.000744548
0.000744778
0.000740631
0.000740875
0.000744781
0.000744551
0.000740879
0.000749708
0.000753541
0.000753661
0.000749455
0.000753441
0.000749619
0.000749483
0.000749748
0.000749503
0.000753648
0.000753418
0.000753415
0.000749499
0.000749744
0.000744548
0.000744779
0.000740876
0.000740632
0.000744552
0.000744782
0.00074088
0.000749709
0.000753544
0.000753663
0.000749455
0.000753444
0.000749619
0.000749483
0.000749749
0.000749504
0.000753419
0.000753649
0.000753416
0.000749745
0.0007495
0.000744576
0.000740615
0.000744796
0.00074084
0.000744746
0.000744309
0.000740847
0.000740848
0.000744583
0.000744588
0.000740672
0.000780197
0.000779763
0.000776304
0.000776304
0.000776128
0.000780037
0.000780038
0.000767268
0.000767708
0.000771179
0.000771179
0.000771339
0.000767444
0.000767444
0.000779999
0.000776087
0.000776332
0.000780228
0.000780231
0.000780002
0.000776336
0.000785153
0.000788982
0.000784899
0.0007891
0.000784927
0.000785063
0.000788882
0.000780026
0.00077607
0.000780273
0.000776206
0.000780245
0.000780127
0.000776296
0.000785193
0.000784948
0.000789086
0.000788858
0.000784944
0.00078519
0.000788854
0.000779998
0.000776087
0.000776332
0.000780228
0.000780231
0.000780002
0.000776336
0.000785153
0.000788981
0.000784898
0.0007891
0.000784927
0.000785063
0.000788881
0.000780026
0.00077607
0.000780272
0.000776206
0.000780245
0.000776296
0.000780126
0.000785194
0.000784948
0.000789086
0.000788858
0.000784944
0.00078519
0.000788854
0.000767476
0.000771373
0.000771143
0.000767231
0.00077114
0.000767227
0.000767473
0.000762307
0.000758484
0.000762554
0.000758348
0.000762408
0.000762526
0.000758574
0.000767436
0.000771386
0.000771268
0.000767182
0.000767347
0.000771167
0.000767211
0.000762279
0.000762509
0.000758364
0.00075861
0.000762512
0.000762283
0.000758614
0.000767477
0.000771373
0.000771143
0.000767231
0.000771139
0.000767227
0.000767472
0.000762306
0.000758484
0.000762554
0.000758348
0.000762526
0.000762407
0.000758574
0.000767437
0.000771386
0.000771267
0.000767182
0.000771167
0.000767211
0.000767347
0.000762279
0.000762509
0.000758364
0.00075861
0.000762512
0.000762282
0.000758614
0.000780196
0.000779762
0.000776304
0.000776303
0.000780037
0.000780036
0.000776127
0.000767268
0.000767708
0.000771177
0.000771177
0.000767444
0.000771338
0.000767444
0.000779999
0.000776088
0.000776333
0.000780229
0.000780232
0.000780003
0.000776337
0.000785154
0.000788983
0.000784899
0.000789101
0.000784928
0.000785064
0.000788882
0.000780027
0.000776071
0.000780273
0.000776207
0.000780245
0.000780127
0.000776297
0.000785195
0.000784949
0.000789087
0.000788859
0.000784945
0.000785191
0.000788855
0.00078
0.000776334
0.000776088
0.000780229
0.000780003
0.000780233
0.000776337
0.000785154
0.000788984
0.000784899
0.000789102
0.000784928
0.000785064
0.000788884
0.000780027
0.000776071
0.000780274
0.000776207
0.000780246
0.000776297
0.000780128
0.000785195
0.000784949
0.000788859
0.000789088
0.000785191
0.000784945
0.000788856
0.000767478
0.000771374
0.000771145
0.000767232
0.000771141
0.000767228
0.000767474
0.000762307
0.000758485
0.000762555
0.000758349
0.000762408
0.000762527
0.000758575
0.000767437
0.000771387
0.000771269
0.000767183
0.000767348
0.000771168
0.000767212
0.000762279
0.00076251
0.000758366
0.000758611
0.000762513
0.000762283
0.000758615
0.000767478
0.000771145
0.000771375
0.000767232
0.000771142
0.000767474
0.000767228
0.000762307
0.000758485
0.000762555
0.000758349
0.000762527
0.000762409
0.000758574
0.000767437
0.000771388
0.000771271
0.000767183
0.000771169
0.000767212
0.000767347
0.00076228
0.00076251
0.000758611
0.000758365
0.000762283
0.000762514
0.000758615
0.000779999
0.000776332
0.000776087
0.000780228
0.000780002
0.000780231
0.000776336
0.000785153
0.000788983
0.000784899
0.0007891
0.000785063
0.000784927
0.000788883
0.000780026
0.000776071
0.000780273
0.000776206
0.000780127
0.000780245
0.000776296
0.000785193
0.000784948
0.000788859
0.000789087
0.00078519
0.000784944
0.000788855
0.000767476
0.000771373
0.000771144
0.000767232
0.00077114
0.000767228
0.000767473
0.000762307
0.000758484
0.000762554
0.000758348
0.000758573
0.000762407
0.000762526
0.000767436
0.000771386
0.000771267
0.000767182
0.000771167
0.000767347
0.000767211
0.000762279
0.000762509
0.000758365
0.00075861
0.000758613
0.000762512
0.000762282
0.000767476
0.000771144
0.000771373
0.000767231
0.000771141
0.000767472
0.000767227
0.000762306
0.000758484
0.000762554
0.000758348
0.000762526
0.000762408
0.000758573
0.000767436
0.000771387
0.00077127
0.000767182
0.000771169
0.000767211
0.000767347
0.000762279
0.000762509
0.00075861
0.000758365
0.000762282
0.000762512
0.000758614
0.000780198
0.000779763
0.000776305
0.000776305
0.000780038
0.000780037
0.000776129
0.000767269
0.000767709
0.000771179
0.00077118
0.000767445
0.00077134
0.000767445
0.000779999
0.000776333
0.000776088
0.000780229
0.000780003
0.000780232
0.000776337
0.000785154
0.000788983
0.000784899
0.000789101
0.000785064
0.000784928
0.000788883
0.000780027
0.000776071
0.000780274
0.000776207
0.000780127
0.000780246
0.000776297
0.000785195
0.000784949
0.000788859
0.000789088
0.000785191
0.000784945
0.000788855
0.000767478
0.000771145
0.000771375
0.000767233
0.000771142
0.000767474
0.000767228
0.000762307
0.000758485
0.000762555
0.000758349
0.000758574
0.000762408
0.000762527
0.000767437
0.000771388
0.00077127
0.000767184
0.000771169
0.000767348
0.000767212
0.000762279
0.00076251
0.00075861
0.000758366
0.000758615
0.000762283
0.000762513
0.000767478
0.000771145
0.000771374
0.000767233
0.000771141
0.000767474
0.000767229
0.000762307
0.000758485
0.000762555
0.000758349
0.000762527
0.000762407
0.000758574
0.000767437
0.000771388
0.000771269
0.000767183
0.000771169
0.000767212
0.000767347
0.00076228
0.00076251
0.000758611
0.000758366
0.000762283
0.000762513
0.000758615
0.000767268
0.000767708
0.000771179
0.00077118
0.000771339
0.000767444
0.000767444
0.000749708
0.000753542
0.000753661
0.000749455
0.000749483
0.000753442
0.000749619
0.000749748
0.000749503
0.000753648
0.000753418
0.000749499
0.000753415
0.000749744
0.000749708
0.000753541
0.000753661
0.000749455
0.000753441
0.000749483
0.000749619
0.000749748
0.000749503
0.000753648
0.000753418
0.000753414
0.000749499
0.000749745
0.000749709
0.000753543
0.000753662
0.000749455
0.000749483
0.000753443
0.00074962
0.00074975
0.000749504
0.000753649
0.000753419
0.0007495
0.000753416
0.000749745
0.000749709
0.000753545
0.000753663
0.000749455
0.000753444
0.000749483
0.000749619
0.000749749
0.000749504
0.00075342
0.00075365
0.000753416
0.000749745
0.0007495
0.000744547
0.000744777
0.000740875
0.000740631
0.00074455
0.000744781
0.000740879
0.000749708
0.000753545
0.000753662
0.000749454
0.000749619
0.000753444
0.000749482
0.000749748
0.000749503
0.000753418
0.000753648
0.000749744
0.000753415
0.000749499
0.000744575
0.000740614
0.000744823
0.00074075
0.000744676
0.000744794
0.000740839
0.000744547
0.000744778
0.000740876
0.000740632
0.000744551
0.000744782
0.00074088
0.000749708
0.000753544
0.000753663
0.000749455
0.000749619
0.000753443
0.000749483
0.000749749
0.000749504
0.000753419
0.000753649
0.000749745
0.000753416
0.0007495
0.000744575
0.000740615
0.000744824
0.00074075
0.000744675
0.000744795
0.00074084
0.00168067
0.00167902
0.00168067
0.00167833
0.0016784
0.00167832
0.00167834
0.00167834
0.00167832
0.0016784
0.00167833
0.0016827
0.00168268
0.00167833
0.0016827
0.00167832
0.00168269
0.00168267
0.00167842
0.00168269
0.00167833
0.00168266
0.00168269
0.00167837
0.00168267
0.00167842
0.00168269
0.00167833
0.00168269
0.00168266
0.00167837
0.0016827
0.00167832
0.00167832
0.0016827
0.0016827
0.00167832
0.00168269
0.0016827
0.00168268
0.00167833
0.0016827
0.00167832
0.00168258
0.00168224
0.00167872
0.00167872
0.00168245
0.00168245
0.00167852
0.00168246
0.00167857
0.00168265
0.00167845
0.00168264
0.00168252
0.0016787
0.00168246
0.00167857
0.00168265
0.00167845
0.00168252
0.00168264
0.0016787
0.00167178
0.0016717
0.0016717
0.00167328
0.00163597
0.00163589
0.00163589
0.00163746
0.00160023
0.00160014
0.00160014
0.00160171
0.00156455
0.00156446
0.00156446
0.00156603
0.00152893
0.00152884
0.00152884
0.0015304
0.00149337
0.00149327
0.00149327
0.00149484
0.00145785
0.00145776
0.00145776
0.00145932
0.00142239
0.00142229
0.00142229
0.00142385
0.00138696
0.00138686
0.00138686
0.00138842
0.00135157
0.00135147
0.00135147
0.00135303
0.00131622
0.00131612
0.00131612
0.00131768
0.0012809
0.00128079
0.00128079
0.00128235
0.0012456
0.0012455
0.0012455
0.00124706
0.00121033
0.00121023
0.00121023
0.00121179
0.00117507
0.00117498
0.00117498
0.00117653
0.00113983
0.00113974
0.00113974
0.0011413
0.0011046
0.00110452
0.00110452
0.00110608
0.00106938
0.0010693
0.0010693
0.00107086
0.00103417
0.00103409
0.00103409
0.00103564
0.000998943
0.000998867
0.000998866
0.00100043
0.000963708
0.000963635
0.000963635
0.000965196
0.000928454
0.000928384
0.000928383
0.000929947
0.000893173
0.000893105
0.000893106
0.000894671
0.000857858
0.000857793
0.000857793
0.000859362
0.000822502
0.00082244
0.00082244
0.000824013
0.00167328
0.00164319
0.0016717
0.0016717