/*--------------------------------*- C++ -*----------------------------------*\
| =========                 |                                                 |
| \\      /  F ield         | OpenFOAM: The Open Source CFD Toolbox           |
|  \\    /   O peration     | Version:  2312                                  |
|   \\  /    A nd           | Website:  www.openfoam.com                      |
|    \\/     M anipulation  |                                                 |
\*---------------------------------------------------------------------------*/
FoamFile
{
    version     2.0;
    format      ascii;
    arch        "LSB;label=32;scalar=64";
    class       volScalarField;
    location    "550";
    object      epsilon;
}
// * * * * * * * * * * * * * * * * * * * * * * * * * * * * * * * * * * * * * //

dimensions      [0 2 -3 0 0 0 0];

internalField   nonuniform List<scalar> 
42840
(
1.31328e-07
2.40754e-07
2.40772e-07
3.83922e-07
1.2995e-07
2.53404e-07
2.53422e-07
4.13172e-07
1.29351e-07
2.68084e-07
2.68102e-07
4.44629e-07
1.29534e-07
2.84724e-07
2.84747e-07
4.77743e-07
1.30476e-07
3.03243e-07
3.03268e-07
5.12939e-07
1.32179e-07
3.23532e-07
3.23562e-07
5.49872e-07
1.34643e-07
3.45475e-07
3.4551e-07
5.8673e-07
1.37866e-07
3.68929e-07
3.68974e-07
6.2405e-07
1.41853e-07
3.93752e-07
3.9381e-07
6.61438e-07
1.46607e-07
4.19789e-07
4.19862e-07
6.98468e-07
1.52133e-07
4.4688e-07
4.46961e-07
7.35115e-07
1.58437e-07
4.74855e-07
4.74948e-07
7.70946e-07
1.65522e-07
5.03542e-07
5.03644e-07
8.05762e-07
1.73392e-07
5.32761e-07
5.32869e-07
8.39462e-07
1.82046e-07
5.6234e-07
5.62451e-07
8.72055e-07
1.91482e-07
5.92111e-07
5.9222e-07
9.0344e-07
2.0169e-07
6.21899e-07
6.22003e-07
9.34276e-07
2.12656e-07
6.51548e-07
6.51661e-07
9.64464e-07
2.24358e-07
6.80914e-07
6.81033e-07
9.9229e-07
2.36772e-07
7.09864e-07
7.09989e-07
1.01886e-06
2.49863e-07
7.38282e-07
7.38406e-07
1.0443e-06
2.63591e-07
7.66047e-07
7.66184e-07
1.06863e-06
2.77905e-07
7.93073e-07
7.93216e-07
1.0919e-06
2.92749e-07
8.19283e-07
8.19431e-07
1.11414e-06
3.0806e-07
8.44608e-07
8.44762e-07
1.13529e-06
3.83728e-07
4.049e-07
2.40822e-07
2.40855e-07
2.50118e-07
2.50159e-07
3.84223e-07
4.05187e-07
2.40774e-07
2.4087e-07
2.5007e-07
2.50175e-07
2.40809e-07
2.50057e-07
2.50113e-07
3.83691e-07
4.05175e-07
2.40811e-07
2.50068e-07
2.50115e-07
4.05256e-07
4.12916e-07
4.36413e-07
2.53481e-07
2.53516e-07
2.64304e-07
2.64348e-07
4.12568e-07
4.35897e-07
2.53428e-07
2.53533e-07
2.6425e-07
2.64366e-07
2.53468e-07
2.64232e-07
2.643e-07
4.12789e-07
4.36177e-07
2.53467e-07
2.64249e-07
2.64298e-07
4.358e-07
4.44099e-07
4.69568e-07
2.68166e-07
2.6821e-07
2.8047e-07
2.8052e-07
4.44448e-07
4.69282e-07
2.6811e-07
2.68224e-07
2.80411e-07
2.80539e-07
2.68158e-07
2.8039e-07
2.80472e-07
4.44165e-07
4.69592e-07
2.68153e-07
2.8041e-07
2.80464e-07
4.6969e-07
4.77722e-07
5.03822e-07
2.84817e-07
2.84862e-07
2.98539e-07
2.98589e-07
4.77615e-07
5.03712e-07
2.84756e-07
2.8488e-07
2.98473e-07
2.98608e-07
2.84815e-07
2.98447e-07
2.98545e-07
4.77736e-07
5.04391e-07
2.84801e-07
2.98471e-07
2.98528e-07
5.04441e-07
5.13084e-07
5.40424e-07
3.03346e-07
3.03395e-07
3.18412e-07
3.18457e-07
5.13174e-07
5.40131e-07
3.03279e-07
3.03411e-07
3.18333e-07
3.1848e-07
3.03349e-07
3.18303e-07
3.18421e-07
5.12953e-07
5.40378e-07
3.03327e-07
3.18332e-07
3.18395e-07
5.39779e-07
5.49477e-07
5.77618e-07
3.23651e-07
3.23695e-07
3.39968e-07
3.40012e-07
5.49402e-07
5.76771e-07
3.23572e-07
3.23714e-07
3.39878e-07
3.40037e-07
3.23657e-07
3.39843e-07
3.39982e-07
5.49342e-07
5.77603e-07
3.23627e-07
3.39878e-07
3.39948e-07
5.77323e-07
5.86537e-07
6.14952e-07
3.45608e-07
3.45652e-07
3.63074e-07
3.63119e-07
5.86931e-07
6.14354e-07
3.45518e-07
3.45672e-07
3.62975e-07
3.63146e-07
3.45617e-07
3.62933e-07
3.63093e-07
5.86572e-07
6.14936e-07
3.45578e-07
3.62975e-07
3.63052e-07
6.15571e-07
6.24093e-07
6.52325e-07
3.6908e-07
3.69122e-07
3.87592e-07
3.87632e-07
6.24281e-07
6.51894e-07
3.68981e-07
3.69147e-07
3.87486e-07
3.87664e-07
3.69094e-07
3.87429e-07
3.87609e-07
6.24239e-07
6.52326e-07
3.69046e-07
3.87485e-07
3.87561e-07
6.53315e-07
6.61661e-07
6.89872e-07
3.93922e-07
3.93958e-07
4.13365e-07
4.13385e-07
6.61906e-07
6.89595e-07
3.93816e-07
3.93993e-07
4.13245e-07
4.13435e-07
3.93936e-07
4.13174e-07
4.13372e-07
6.61813e-07
6.89613e-07
3.93879e-07
4.13243e-07
4.13315e-07
6.90742e-07
6.99044e-07
7.26276e-07
4.19979e-07
4.20003e-07
4.40223e-07
4.40233e-07
6.98902e-07
7.25967e-07
4.19864e-07
4.20051e-07
4.40092e-07
4.40289e-07
4.19991e-07
4.40016e-07
4.40225e-07
6.99089e-07
7.26428e-07
4.19925e-07
4.40098e-07
4.40159e-07
7.27568e-07
7.35597e-07
7.62327e-07
4.47082e-07
4.47093e-07
4.68004e-07
4.68006e-07
7.35901e-07
7.61573e-07
4.46958e-07
4.47151e-07
4.67862e-07
4.6807e-07
4.47088e-07
4.67787e-07
4.68001e-07
7.35559e-07
7.61968e-07
4.47016e-07
4.67877e-07
4.67929e-07
7.63532e-07
7.71489e-07
7.97391e-07
4.75067e-07
4.75068e-07
4.96529e-07
4.96535e-07
7.7238e-07
7.96782e-07
4.74931e-07
4.75134e-07
4.96378e-07
4.96604e-07
4.75069e-07
4.96313e-07
4.96536e-07
7.71933e-07
7.968e-07
4.7499e-07
4.96411e-07
4.96448e-07
7.98523e-07
8.06123e-07
8.32193e-07
5.03755e-07
5.03756e-07
5.25635e-07
5.25634e-07
8.07426e-07
8.30799e-07
5.0361e-07
5.03825e-07
5.25475e-07
5.25714e-07
5.03765e-07
5.25415e-07
5.2564e-07
8.0745e-07
8.30856e-07
5.0367e-07
5.25524e-07
5.25539e-07
8.32412e-07
8.39414e-07
8.65195e-07
5.32977e-07
5.32972e-07
5.55144e-07
5.55139e-07
8.4124e-07
8.63599e-07
5.32821e-07
5.33049e-07
5.54972e-07
5.55221e-07
5.32985e-07
5.5492e-07
5.55143e-07
8.41301e-07
8.63658e-07
5.32878e-07
5.55035e-07
5.55033e-07
8.65148e-07
8.72136e-07
8.96886e-07
5.62559e-07
5.62552e-07
5.84879e-07
5.84874e-07
8.73856e-07
8.95192e-07
5.62393e-07
5.62625e-07
5.84699e-07
5.84952e-07
5.62562e-07
5.8466e-07
5.84879e-07
8.73898e-07
8.95619e-07
5.62445e-07
5.84774e-07
5.84757e-07
8.96693e-07
9.03633e-07
9.27307e-07
5.92328e-07
5.92316e-07
6.14677e-07
6.14669e-07
9.05245e-07
9.25589e-07
5.92152e-07
5.92385e-07
6.14492e-07
6.14738e-07
5.9233e-07
6.14459e-07
6.14683e-07
9.04433e-07
9.27215e-07
5.922e-07
6.14565e-07
6.14547e-07
9.26093e-07
9.33879e-07
9.56513e-07
6.22115e-07
6.22101e-07
6.44377e-07
6.44362e-07
9.35372e-07
9.54767e-07
6.21934e-07
6.22163e-07
6.44186e-07
6.44431e-07
6.22124e-07
6.44155e-07
6.44394e-07
9.33766e-07
9.5648e-07
6.21978e-07
6.4427e-07
6.44242e-07
9.54526e-07
9.62907e-07
9.84479e-07
6.51767e-07
6.51744e-07
6.73826e-07
6.73805e-07
9.64305e-07
9.82782e-07
6.5158e-07
6.51809e-07
6.73628e-07
6.73867e-07
6.51788e-07
6.73605e-07
6.73855e-07
9.6287e-07
9.84514e-07
6.51627e-07
6.73725e-07
6.73691e-07
9.82615e-07
9.9067e-07
1.01126e-06
6.81135e-07
6.81105e-07
7.02884e-07
7.02863e-07
9.92054e-07
1.00963e-06
6.80936e-07
6.81164e-07
7.02682e-07
7.02919e-07
6.81166e-07
7.02669e-07
7.02928e-07
9.90714e-07
1.01132e-06
6.80993e-07
7.02797e-07
7.02755e-07
1.00949e-06
1.01727e-06
1.03693e-06
7.10077e-07
7.10049e-07
7.31433e-07
7.31414e-07
1.01862e-06
1.03533e-06
7.09876e-07
7.10103e-07
7.31231e-07
7.31468e-07
7.1012e-07
7.31231e-07
7.31484e-07
1.01733e-06
1.03691e-06
7.0994e-07
7.31361e-07
7.31309e-07
1.03519e-06
1.04274e-06
1.06149e-06
7.38481e-07
7.38455e-07
7.59365e-07
7.59341e-07
1.04408e-06
1.05988e-06
7.38281e-07
7.38504e-07
7.59163e-07
7.59401e-07
7.38533e-07
7.59167e-07
7.59427e-07
1.04255e-06
1.05998e-06
7.3835e-07
7.59305e-07
7.59251e-07
1.05982e-06
1.06711e-06
1.08496e-06
7.66242e-07
7.66212e-07
7.86578e-07
7.86552e-07
1.06845e-06
1.08347e-06
7.6604e-07
7.6627e-07
7.86377e-07
7.86622e-07
7.66304e-07
7.8639e-07
7.86653e-07
1.06849e-06
1.08355e-06
7.66123e-07
7.86532e-07
7.86474e-07
1.08333e-06
1.09039e-06
1.10736e-06
7.93261e-07
7.93231e-07
8.1299e-07
8.12959e-07
1.09171e-06
1.10665e-06
7.9306e-07
7.93297e-07
8.12791e-07
8.13039e-07
7.93339e-07
8.12811e-07
8.13078e-07
1.09181e-06
1.10602e-06
7.93154e-07
8.12957e-07
8.12895e-07
1.10584e-06
1.1126e-06
1.12835e-06
8.1946e-07
8.19428e-07
8.38531e-07
8.38498e-07
1.11309e-06
1.12838e-06
8.1926e-07
8.19506e-07
8.38333e-07
8.38586e-07
8.19554e-07
8.3836e-07
8.38633e-07
1.11405e-06
1.1281e-06
8.19366e-07
8.38515e-07
8.38446e-07
1.12739e-06
1.13387e-06
8.44778e-07
8.44742e-07
1.13388e-06
8.4458e-07
8.44831e-07
8.44883e-07
1.13457e-06
8.44692e-07
3.7586e-06
8.92053e-06
8.9254e-06
3.73522e-06
1.84404e-05
1.84331e-05
3.75866e-06
8.92194e-06
8.9268e-06
3.73534e-06
1.31329e-07
1.31339e-07
1.31336e-07
1.3023e-07
1.30232e-07
1.30241e-07
1.30239e-07
1.24164e-06
2.86805e-06
1.59578e-07
2.43731e-07
2.89008e-06
1.60132e-07
1.21419e-06
1.84409e-05
1.84337e-05
1.24207e-06
1.59609e-07
2.86934e-06
2.43748e-07
1.60141e-07
2.88882e-06
1.21429e-06
5.1714e-06
5.17161e-06
3.90921e-07
5.17845e-06
5.1819e-06
3.81867e-06
8.93045e-06
3.80023e-06
8.93478e-06
1.84136e-05
1.84071e-05
3.81876e-06
8.93182e-06
3.80041e-06
8.93614e-06
1.29951e-07
1.2996e-07
1.29958e-07
1.29443e-07
1.29447e-07
1.29455e-07
1.29453e-07
1.32268e-06
2.92982e-06
1.62232e-07
2.56893e-07
1.29624e-06
2.94933e-06
1.63123e-07
1.84142e-05
1.84077e-05
1.32283e-06
1.62266e-07
2.93107e-06
2.56907e-07
1.2961e-06
1.63132e-07
2.94803e-06
5.19908e-06
5.2005e-06
4.20531e-07
5.20601e-06
5.20836e-06
3.86391e-06
8.93908e-06
3.85093e-06
8.94294e-06
1.83892e-05
1.83835e-05
3.86464e-06
8.94039e-06
3.8505e-06
8.94424e-06
1.29354e-07
1.29362e-07
1.2936e-07
1.2942e-07
1.29424e-07
1.29432e-07
1.2943e-07
1.39811e-06
2.98429e-06
1.6623e-07
2.72068e-07
1.37432e-06
3.00144e-06
1.67464e-07
1.83899e-05
1.83841e-05
1.39888e-06
1.66267e-07
2.98549e-06
2.72087e-07
1.37391e-06
1.67474e-07
3.00021e-06
5.223e-06
5.22399e-06
4.52369e-07
5.22839e-06
5.23049e-06
3.89871e-06
8.9466e-06
3.88912e-06
8.9499e-06
1.83672e-05
1.83623e-05
3.89944e-06
8.94807e-06
3.88864e-06
8.95105e-06
1.29539e-07
1.29547e-07
1.29546e-07
1.30169e-07
1.30175e-07
1.30182e-07
1.30183e-07
1.46862e-06
3.03226e-06
1.71589e-07
2.89187e-07
1.44677e-06
3.04736e-06
1.73166e-07
1.83679e-05
1.83629e-05
1.46872e-06
1.7163e-07
3.0334e-06
2.89208e-07
1.4468e-06
1.73177e-07
3.04619e-06
5.24273e-06
5.24435e-06
4.86112e-07
5.24742e-06
5.24937e-06
3.92515e-06
8.95324e-06
3.91805e-06
8.956e-06
1.83474e-05
1.83432e-05
3.92584e-06
8.95464e-06
3.91758e-06
8.95729e-06
1.30482e-07
1.3049e-07
1.3049e-07
1.31682e-07
1.31688e-07
1.31696e-07
1.31698e-07
1.53302e-06
3.07461e-06
1.78316e-07
3.0816e-07
1.51321e-06
3.08793e-06
1.80238e-07
1.8348e-05
1.83438e-05
1.5332e-06
1.78362e-07
3.07566e-06
3.08183e-07
1.51328e-06
1.80251e-07
3.0868e-06
5.25976e-06
5.26114e-06
5.22045e-07
5.26368e-06
5.26564e-06
3.94533e-06
8.95922e-06
3.94011e-06
8.9616e-06
1.83297e-05
1.83262e-05
3.94601e-06
8.96052e-06
3.93965e-06
8.9629e-06
1.32185e-07
1.32194e-07
1.32196e-07
1.33956e-07
1.33961e-07
1.33971e-07
1.33974e-07
1.59169e-06
3.11209e-06
1.86412e-07
3.28873e-07
1.57321e-06
3.12383e-06
1.88677e-07
1.83303e-05
1.83269e-05
1.59176e-06
1.86464e-07
3.11308e-06
3.28903e-07
1.57318e-06
1.88694e-07
3.12279e-06
5.27426e-06
5.27567e-06
5.59119e-07
5.27773e-06
5.27956e-06
3.9613e-06
8.96469e-06
3.95713e-06
8.96696e-06
1.83141e-05
1.83115e-05
3.96165e-06
8.96601e-06
3.95669e-06
8.96829e-06
1.34648e-07
1.34658e-07
1.34661e-07
1.3699e-07
1.36994e-07
1.37005e-07
1.3701e-07
1.64417e-06
3.14537e-06
1.95871e-07
3.51207e-07
1.62728e-06
3.15582e-06
1.98474e-07
1.83148e-05
1.83122e-05
1.64397e-06
1.95927e-07
3.14636e-06
3.51242e-07
1.62746e-06
1.98495e-07
3.15486e-06
5.28692e-06
5.28847e-06
5.95787e-07
5.29003e-06
5.2918e-06
3.97334e-06
8.97002e-06
3.97021e-06
8.97229e-06
1.83009e-05
1.8299e-05
3.97392e-06
8.97136e-06
3.97011e-06
8.97364e-06
1.37872e-07
1.37883e-07
1.37888e-07
1.40787e-07
1.40789e-07
1.40803e-07
1.40808e-07
1.69087e-06
3.17517e-06
2.06664e-07
3.75018e-07
1.67589e-06
3.18455e-06
2.09604e-07
1.83016e-05
1.82997e-05
1.691e-06
2.0673e-07
3.17615e-06
3.75065e-07
1.67594e-06
2.09629e-07
3.18366e-06
5.29826e-06
5.29986e-06
6.34401e-07
5.30101e-06
5.30279e-06
3.98353e-06
8.97545e-06
3.98103e-06
8.97778e-06
1.82899e-05
1.82889e-05
3.98378e-06
8.97678e-06
3.98091e-06
8.97918e-06
1.41857e-07
1.41871e-07
1.41876e-07
1.45349e-07
1.45349e-07
1.45366e-07
1.45372e-07
1.73228e-06
3.20208e-06
2.18772e-07
4.00158e-07
1.71958e-06
3.21056e-06
2.22038e-07
1.82906e-05
1.82896e-05
1.73272e-06
2.18847e-07
3.20304e-06
4.00219e-07
1.71936e-06
2.22074e-07
3.20972e-06
5.3086e-06
5.31023e-06
6.72143e-07
5.31111e-06
5.31289e-06
3.99192e-06
8.98115e-06
3.9898e-06
8.98362e-06
1.82812e-05
1.82811e-05
3.99213e-06
8.98251e-06
3.98977e-06
8.985e-06
1.46609e-07
1.46627e-07
1.46633e-07
1.50682e-07
1.50679e-07
1.50701e-07
1.50706e-07
1.76988e-06
3.22676e-06
2.32159e-07
4.2647e-07
1.75846e-06
3.23411e-06
2.35741e-07
1.8282e-05
1.82818e-05
1.77016e-06
2.32245e-07
3.22752e-06
4.26547e-07
1.75839e-06
2.35785e-07
3.23354e-06
5.31825e-06
5.3199e-06
7.09219e-07
5.32062e-06
5.32239e-06
3.9992e-06
8.98732e-06
3.9974e-06
8.98999e-06
1.8275e-05
1.82757e-05
3.99934e-06
8.9887e-06
3.99743e-06
8.99137e-06
1.52133e-07
1.52155e-07
1.5216e-07
1.56791e-07
1.56786e-07
1.56812e-07
1.56816e-07
1.80374e-06
3.24918e-06
2.46779e-07
4.53796e-07
1.7935e-06
3.25598e-06
2.50664e-07
1.82758e-05
1.82765e-05
1.80404e-06
2.46885e-07
3.25002e-06
4.53883e-07
1.79328e-06
2.50727e-07
3.2555e-06
5.32744e-06
5.3291e-06
7.45615e-07
5.32976e-06
5.33151e-06
4.00568e-06
8.99405e-06
4.00405e-06
8.99695e-06
1.82711e-05
1.82727e-05
4.0058e-06
8.99545e-06
4.00407e-06
8.99835e-06
1.58434e-07
1.58461e-07
1.58466e-07
1.63681e-07
1.63674e-07
1.63706e-07
1.63707e-07
1.83451e-06
3.2701e-06
2.62585e-07
4.81965e-07
1.82514e-06
3.27615e-06
2.66762e-07
1.82719e-05
1.82735e-05
1.8348e-06
2.62709e-07
3.27063e-06
4.82059e-07
1.825e-06
2.66839e-07
3.27601e-06
5.3364e-06
5.33805e-06
7.81116e-07
5.33869e-06
5.34042e-06
4.01162e-06
9.00142e-06
4.01008e-06
9.0046e-06
1.82696e-05
1.8272e-05
4.01171e-06
9.00281e-06
4.01015e-06
9.00597e-06
1.65518e-07
1.65549e-07
1.65553e-07
1.71354e-07
1.71346e-07
1.71383e-07
1.71382e-07
1.86268e-06
3.28959e-06
2.79521e-07
5.10801e-07
1.85402e-06
3.29553e-06
2.83969e-07
1.82705e-05
1.82729e-05
1.86284e-06
2.79661e-07
3.29031e-06
5.10905e-07
1.85399e-06
2.84063e-07
3.29537e-06
5.34523e-06
5.34686e-06
8.15545e-07
5.34751e-06
5.34923e-06
4.01724e-06
9.00951e-06
4.01575e-06
9.013e-06
1.82705e-05
1.82737e-05
4.01733e-06
9.01087e-06
4.01582e-06
9.01434e-06
1.73386e-07
1.73422e-07
1.73424e-07
1.79812e-07
1.79803e-07
1.79845e-07
1.79843e-07
1.88868e-06
3.30778e-06
2.9752e-07
5.40124e-07
1.88065e-06
3.31357e-06
3.02224e-07
1.82713e-05
1.82746e-05
1.88893e-06
2.97669e-07
3.30872e-06
5.40237e-07
1.88062e-06
3.02323e-07
3.3131e-06
5.35401e-06
5.35564e-06
8.48868e-07
5.35632e-06
5.35804e-06
4.02275e-06
9.01806e-06
4.02128e-06
9.02238e-06
1.82736e-05
1.82776e-05
4.02284e-06
9.0197e-06
4.02135e-06
9.02349e-06
1.82039e-07
1.82079e-07
1.8208e-07
1.89052e-07
1.89043e-07
1.89089e-07
1.89085e-07
1.91295e-06
3.32553e-06
3.16509e-07
5.69766e-07
1.90545e-06
3.33066e-06
3.21444e-07
1.82745e-05
1.82785e-05
1.91312e-06
3.16665e-07
3.32588e-06
5.69884e-07
1.90546e-06
3.21553e-07
3.33048e-06
5.36281e-06
5.36446e-06
8.81e-07
5.3652e-06
5.36691e-06
4.02834e-06
9.02771e-06
4.02679e-06
9.03234e-06
1.82789e-05
1.82838e-05
4.02838e-06
9.02933e-06
4.02685e-06
9.03344e-06
1.91474e-07
1.91517e-07
1.91518e-07
1.99067e-07
1.99058e-07
1.99107e-07
1.99104e-07
1.93575e-06
3.34238e-06
3.36403e-07
5.99558e-07
1.92865e-06
3.34708e-06
3.41554e-07
1.82798e-05
1.82846e-05
1.93589e-06
3.36562e-07
3.34251e-06
5.9967e-07
1.92863e-06
3.41663e-07
3.34681e-06
5.37173e-06
5.37335e-06
9.11966e-07
5.37412e-06
5.37585e-06
4.03409e-06
9.03814e-06
4.03248e-06
9.0431e-06
1.82863e-05
1.8292e-05
4.03407e-06
9.03976e-06
4.03257e-06
9.04419e-06
2.01681e-07
2.01727e-07
2.01728e-07
2.09843e-07
2.09835e-07
2.09886e-07
2.09885e-07
1.9573e-06
3.35814e-06
3.57119e-07
6.29325e-07
1.95058e-06
3.36293e-06
3.6246e-07
1.82873e-05
1.82928e-05
1.95744e-06
3.57281e-07
3.35846e-06
6.29438e-07
1.95059e-06
3.62574e-07
3.36243e-06
5.38076e-06
5.38235e-06
9.40054e-07
5.38316e-06
5.38486e-06
4.04001e-06
9.04937e-06
4.0384e-06
9.05463e-06
1.82958e-05
1.83021e-05
4.04005e-06
9.05096e-06
4.03847e-06
9.0558e-06
2.12645e-07
2.12696e-07
2.12698e-07
2.21364e-07
2.21355e-07
2.21409e-07
2.21411e-07
1.9778e-06
3.37336e-06
3.78557e-07
6.58917e-07
1.9714e-06
3.37794e-06
3.84068e-07
1.82967e-05
1.8303e-05
1.97794e-06
3.78732e-07
3.37366e-06
6.59036e-07
1.97143e-06
3.84193e-07
3.37764e-06
5.38985e-06
5.39144e-06
9.68758e-07
5.39227e-06
5.39398e-06
4.04646e-06
9.06139e-06
4.04463e-06
9.067e-06
1.8307e-05
1.83139e-05
4.04631e-06
9.06285e-06
4.04471e-06
9.06801e-06
2.24348e-07
2.24401e-07
2.24406e-07
2.33602e-07
2.33594e-07
2.3365e-07
2.33656e-07
1.99739e-06
3.38787e-06
4.00633e-07
6.88189e-07
1.99126e-06
3.39195e-06
4.0629e-07
1.83081e-05
1.8315e-05
1.99754e-06
4.00818e-07
3.38859e-06
6.88317e-07
1.99132e-06
4.06422e-07
3.39242e-06
5.39902e-06
5.40059e-06
9.96224e-07
5.40147e-06
5.40326e-06
4.05308e-06
9.07437e-06
4.05102e-06
9.07973e-06
1.832e-05
1.83276e-05
4.05301e-06
9.07564e-06
4.05123e-06
9.08098e-06
2.36762e-07
2.36819e-07
2.36826e-07
2.46528e-07
2.4652e-07
2.46579e-07
2.46588e-07
2.01616e-06
3.40248e-06
4.23247e-07
7.17018e-07
2.01032e-06
3.40602e-06
4.2902e-07
1.83212e-05
1.83287e-05
2.01636e-06
4.23441e-07
3.40276e-06
7.17149e-07
2.0104e-06
4.29161e-07
3.40677e-06
5.40825e-06
5.4098e-06
1.02244e-06
5.41075e-06
5.4126e-06
4.05974e-06
9.08775e-06
4.05784e-06
9.09337e-06
1.83347e-05
1.83429e-05
4.0599e-06
9.08904e-06
4.05804e-06
9.09465e-06
2.49854e-07
2.49914e-07
2.49924e-07
2.60101e-07
2.60094e-07
2.60156e-07
2.60168e-07
2.03428e-06
3.41617e-06
4.46294e-07
7.45281e-07
2.02863e-06
3.41955e-06
4.52155e-07
1.8336e-05
1.8344e-05
2.03443e-06
4.46493e-07
3.41604e-06
7.45416e-07
2.02876e-06
4.52303e-07
3.42021e-06
5.41755e-06
5.4191e-06
1.04759e-06
5.42014e-06
5.42196e-06
4.06716e-06
9.10177e-06
4.06504e-06
9.10762e-06
1.8351e-05
1.83597e-05
4.06713e-06
9.10308e-06
4.06526e-06
9.10894e-06
2.63581e-07
2.63647e-07
2.63659e-07
2.74274e-07
2.74267e-07
2.74336e-07
2.74349e-07
2.05163e-06
3.42957e-06
4.69664e-07
7.72872e-07
2.04623e-06
3.43259e-06
4.75587e-07
1.83523e-05
1.83609e-05
2.05179e-06
4.69864e-07
3.42908e-06
7.73011e-07
2.04635e-06
4.75734e-07
3.43313e-06
5.42682e-06
5.42854e-06
1.07164e-06
5.42962e-06
5.43133e-06
4.07464e-06
9.11635e-06
4.07251e-06
9.12242e-06
1.83687e-05
1.83778e-05
4.07459e-06
9.11769e-06
4.07271e-06
9.12377e-06
2.77897e-07
2.77968e-07
2.77982e-07
2.88991e-07
2.88986e-07
2.8906e-07
2.89077e-07
2.06833e-06
3.44204e-06
4.93247e-07
7.99705e-07
2.06314e-06
3.4452e-06
4.99209e-07
1.837e-05
1.83791e-05
2.06844e-06
4.93447e-07
3.44184e-06
7.99847e-07
2.06324e-06
4.99353e-07
3.44574e-06
5.43622e-06
5.43791e-06
1.09463e-06
5.43899e-06
5.4407e-06
4.08227e-06
9.13143e-06
4.07992e-06
9.13787e-06
1.83876e-05
1.83974e-05
4.08237e-06
9.13281e-06
4.08014e-06
9.13909e-06
2.92743e-07
2.9282e-07
2.92837e-07
3.04192e-07
3.04188e-07
3.04269e-07
3.04288e-07
2.08432e-06
3.4543e-06
5.16936e-07
8.25698e-07
2.07937e-06
3.45715e-06
5.22908e-07
1.8389e-05
1.83987e-05
2.08442e-06
5.17138e-07
3.45411e-06
8.25845e-07
2.07944e-06
5.23054e-07
3.45774e-06
5.4455e-06
5.44722e-06
1.11661e-06
5.44833e-06
5.45009e-06
4.09003e-06
9.14674e-06
4.08742e-06
9.15365e-06
1.84079e-05
1.8418e-05
4.0899e-06
9.14837e-06
4.08782e-06
9.1548e-06
3.08055e-07
3.08139e-07
3.08159e-07
2.09962e-06
3.46621e-06
5.40627e-07
8.50794e-07
2.09491e-06
3.46898e-06
5.46579e-07
1.84092e-05
1.84193e-05
2.0997e-06
5.40824e-07
3.46594e-06
8.50949e-07
2.09497e-06
5.46721e-07
3.46945e-06
5.45495e-06
5.45658e-06
1.13821e-06
5.45746e-06
5.45943e-06
1.84377e-05
1.84305e-05
1.84408e-05
1.84336e-05
5.17111e-06
5.17311e-06
3.90615e-07
5.17861e-06
5.18058e-06
1.84172e-05
1.84241e-05
1.84203e-05
1.84271e-05
3.97844e-07
5.19266e-06
5.19462e-06
5.18589e-06
5.18788e-06
3.75824e-06
8.92087e-06
8.92571e-06
3.73556e-06
1.24189e-06
2.86915e-06
1.59599e-07
2.43793e-07
2.88863e-06
1.60136e-07
1.21419e-06
1.24186e-06
2.86981e-06
1.59598e-07
2.43831e-07
2.88919e-06
1.60135e-07
1.21408e-06
3.76982e-06
8.93027e-06
8.92568e-06
3.79061e-06
3.77024e-06
8.93052e-06
8.92598e-06
3.79e-06
1.2556e-06
2.46897e-07
2.91915e-06
1.61465e-07
2.90105e-06
1.60762e-07
1.28263e-06
1.2556e-06
2.4693e-07
2.91974e-06
1.61465e-07
2.90167e-06
1.60763e-07
1.28257e-06
5.17299e-06
5.17019e-06
3.90696e-07
5.17997e-06
5.17975e-06
1.84381e-05
1.84309e-05
1.84198e-05
1.84267e-05
3.97876e-07
5.19499e-06
5.19373e-06
5.18736e-06
5.18473e-06
1.84176e-05
1.84244e-05
1.24187e-06
2.86976e-06
1.59597e-07
2.43743e-07
2.8892e-06
1.60133e-07
1.21434e-06
3.75875e-06
8.92135e-06
8.92622e-06
3.73503e-06
1.24177e-06
1.59614e-07
2.86861e-06
2.43847e-07
1.60149e-07
2.89069e-06
1.21416e-06
3.77004e-06
8.93166e-06
8.92708e-06
3.79074e-06
1.25569e-06
2.46848e-07
2.91973e-06
1.61463e-07
2.90165e-06
1.60761e-07
1.28263e-06
3.76983e-06
8.93105e-06
8.92649e-06
3.79078e-06
1.25573e-06
2.46948e-07
1.6148e-07
2.9211e-06
1.60777e-07
2.90058e-06
1.28282e-06
3.75898e-06
8.92095e-06
8.92584e-06
3.73513e-06
1.24205e-06
1.59586e-07
2.86941e-06
2.43788e-07
1.60124e-07
2.88886e-06
1.21416e-06
3.75812e-06
8.92109e-06
8.92595e-06
3.73574e-06
1.25574e-06
2.46825e-07
2.92054e-06
1.6146e-07
2.90002e-06
1.6074e-07
1.28263e-06
3.76981e-06
8.93065e-06
8.92609e-06
3.7908e-06
1.25547e-06
2.46884e-07
1.61453e-07
2.91942e-06
1.60749e-07
2.9013e-06
1.28286e-06
3.77036e-06
8.93077e-06
8.92622e-06
3.78999e-06
5.17158e-06
5.17014e-06
3.90764e-07
5.18171e-06
5.18029e-06
1.84387e-05
1.84315e-05
1.84204e-05
1.84273e-05
3.97843e-07
5.19566e-06
5.19401e-06
5.18649e-06
5.18493e-06
1.84182e-05
1.8425e-05
1.24174e-06
1.59616e-07
2.86866e-06
2.43791e-07
1.60146e-07
2.89068e-06
1.21432e-06
3.75919e-06
8.92129e-06
8.92617e-06
3.73526e-06
3.75909e-06
8.92165e-06
8.92653e-06
3.73523e-06
1.25573e-06
2.46842e-07
1.61468e-07
2.91925e-06
1.60772e-07
2.90119e-06
1.28319e-06
1.25588e-06
2.46885e-07
1.61477e-07
2.92112e-06
1.6078e-07
2.90062e-06
1.28266e-06
3.76991e-06
8.93098e-06
8.92642e-06
3.791e-06
3.76992e-06
8.93136e-06
8.9268e-06
3.79091e-06
1.84396e-05
1.84323e-05
1.84414e-05
1.84342e-05
3.97797e-07
5.19336e-06
5.19551e-06
5.1858e-06
5.18644e-06
1.8419e-05
1.84259e-05
1.84209e-05
1.84277e-05
1.8411e-05
1.84046e-05
1.84141e-05
1.84076e-05
5.19938e-06
5.20138e-06
4.20625e-07
5.20549e-06
5.20724e-06
1.83925e-05
1.83986e-05
1.83954e-05
1.84015e-05
4.27992e-07
5.21738e-06
5.2193e-06
5.21156e-06
5.21366e-06
3.81797e-06
8.93074e-06
3.80078e-06
8.93506e-06
1.32242e-06
2.93089e-06
1.62257e-07
2.56962e-07
1.29619e-06
2.94781e-06
1.63129e-07
1.3224e-06
2.9315e-06
1.6226e-07
2.57003e-07
1.29623e-06
2.94843e-06
1.63129e-07
3.82702e-06
8.93902e-06
8.93495e-06
3.84224e-06
3.82752e-06
8.93924e-06
8.93521e-06
3.84244e-06
1.33568e-06
2.60575e-07
2.97482e-06
1.65133e-07
2.959e-06
1.64089e-07
1.36109e-06
1.33571e-06
2.60614e-07
2.97542e-06
1.65134e-07
2.95958e-06
1.64093e-07
1.36103e-06
5.20055e-06
5.19852e-06
4.20118e-07
5.20715e-06
5.20645e-06
1.84113e-05
1.84049e-05
1.8395e-05
1.84011e-05
4.28432e-07
5.21958e-06
5.2182e-06
5.2132e-06
5.21081e-06
1.83928e-05
1.83989e-05
1.32227e-06
2.93149e-06
1.62257e-07
2.56909e-07
1.29628e-06
2.94842e-06
1.63129e-07
3.81872e-06
8.93126e-06
3.80032e-06
8.93561e-06
1.3228e-06
1.62274e-07
2.93055e-06
2.57022e-07
1.29619e-06
1.63143e-07
2.94979e-06
3.82718e-06
8.94032e-06
8.9363e-06
3.84328e-06
1.3359e-06
2.60521e-07
2.97542e-06
1.65134e-07
2.95957e-06
1.64092e-07
1.36106e-06
3.82713e-06
8.9398e-06
8.93575e-06
3.84238e-06
1.33556e-06
2.6063e-07
1.65147e-07
2.9767e-06
1.64108e-07
2.95862e-06
1.36137e-06
3.81878e-06
8.93084e-06
3.80039e-06
8.93521e-06
1.32275e-06
1.62246e-07
2.93119e-06
2.56959e-07
1.29606e-06
1.63117e-07
2.94808e-06
3.818e-06
8.93098e-06
3.80089e-06
8.93531e-06
1.33562e-06
2.60497e-07
2.97613e-06
1.65124e-07
2.95801e-06
1.64063e-07
1.36058e-06
3.82721e-06
8.93941e-06
8.93533e-06
3.84228e-06
1.33554e-06
2.60564e-07
1.65122e-07
2.97504e-06
1.64079e-07
2.95928e-06
1.36143e-06
3.82764e-06
8.93949e-06
8.93545e-06
3.8425e-06
5.20019e-06
5.19873e-06
4.20408e-07
5.20823e-06
5.2068e-06
1.8412e-05
1.84055e-05
1.83956e-05
1.84017e-05
4.28122e-07
5.21998e-06
5.21853e-06
5.21255e-06
5.211e-06
1.83934e-05
1.83995e-05
1.3225e-06
1.62276e-07
2.93059e-06
2.56958e-07
1.29642e-06
1.63141e-07
2.94983e-06
3.8189e-06
8.9312e-06
3.80045e-06
8.93552e-06
3.81883e-06
8.93157e-06
3.80048e-06
8.93591e-06
1.33567e-06
2.60512e-07
1.65133e-07
2.97486e-06
1.64099e-07
2.95914e-06
1.36155e-06
1.33585e-06
2.60562e-07
1.65145e-07
2.97676e-06
1.6411e-07
2.95866e-06
1.36128e-06
3.82721e-06
8.93971e-06
8.93568e-06
3.84338e-06
3.82723e-06
8.94011e-06
8.93607e-06
3.84333e-06
1.84128e-05
1.84063e-05
1.84147e-05
1.84082e-05
4.28134e-07
5.21742e-06
5.22004e-06
5.21151e-06
5.21248e-06
1.83942e-05
1.84003e-05
1.83961e-05
1.84022e-05
1.83867e-05
1.8381e-05
1.83896e-05
1.83839e-05
5.22288e-06
5.22482e-06
4.5219e-07
5.22806e-06
5.23002e-06
1.83701e-05
1.83754e-05
1.8373e-05
1.83783e-05
4.60516e-07
5.23825e-06
5.24049e-06
5.23321e-06
5.23508e-06
3.86382e-06
8.93935e-06
3.85095e-06
8.9432e-06
1.39835e-06
2.98532e-06
1.66259e-07
2.72144e-07
1.37399e-06
3.00002e-06
1.67472e-07
1.39844e-06
2.9859e-06
1.66264e-07
2.72192e-07
1.37402e-06
3.00059e-06
1.67474e-07
3.87139e-06
8.9465e-06
8.94302e-06
3.88235e-06
3.87134e-06
8.94679e-06
8.94326e-06
3.88241e-06
1.411e-06
2.76252e-07
3.02382e-06
1.70152e-07
3.01006e-06
1.68771e-07
1.43446e-06
1.41091e-06
2.76297e-07
3.02431e-06
1.70158e-07
3.01061e-06
1.68777e-07
1.43447e-06
5.2242e-06
5.22258e-06
4.52394e-07
5.22986e-06
5.22886e-06
1.8387e-05
1.83814e-05
1.83726e-05
1.83779e-05
4.60564e-07
5.23992e-06
5.23877e-06
5.23471e-06
5.23296e-06
1.83704e-05
1.83757e-05
1.39837e-06
2.98589e-06
1.66262e-07
2.72086e-07
1.37414e-06
3.00063e-06
1.67474e-07
3.8639e-06
8.9399e-06
3.85095e-06
8.94377e-06
1.39877e-06
1.66277e-07
2.98499e-06
2.7221e-07
1.37388e-06
1.67487e-07
3.00192e-06
3.87095e-06
8.94775e-06
8.94431e-06
3.88321e-06
1.41105e-06
2.76192e-07
3.02438e-06
1.70155e-07
3.01062e-06
1.68774e-07
1.43443e-06
3.87143e-06
8.9474e-06
8.94382e-06
3.88248e-06
1.41077e-06
2.76313e-07
1.70171e-07
3.02562e-06
1.6879e-07
3.00968e-06
1.43473e-06
3.8639e-06
8.93948e-06
3.85116e-06
8.94336e-06
1.39872e-06
1.6625e-07
2.98562e-06
2.72147e-07
1.37385e-06
1.67462e-07
3.00026e-06
3.86389e-06
8.93959e-06
3.85108e-06
8.94345e-06
1.41128e-06
2.76166e-07
3.02503e-06
1.70144e-07
3.00908e-06
1.68741e-07
1.43411e-06
3.87165e-06
8.94691e-06
8.94339e-06
3.88247e-06
1.41085e-06
2.76246e-07
1.70146e-07
3.02402e-06
1.68763e-07
3.01032e-06
1.43466e-06
3.87147e-06
8.94691e-06
8.94349e-06
3.88249e-06
5.22396e-06
5.22244e-06
4.52392e-07
5.2305e-06
5.22902e-06
1.83876e-05
1.83819e-05
1.83732e-05
1.83786e-05
4.60574e-07
5.24046e-06
5.23885e-06
5.23435e-06
5.23301e-06
1.8371e-05
1.83763e-05
1.39856e-06
1.66281e-07
2.98503e-06
2.72141e-07
1.37406e-06
1.67486e-07
3.00197e-06
3.86469e-06
8.93982e-06
3.85059e-06
8.94367e-06
3.86465e-06
8.94021e-06
3.85061e-06
8.94407e-06
1.41089e-06
2.76185e-07
1.70154e-07
3.02384e-06
1.6878e-07
3.01019e-06
1.43417e-06
1.41103e-06
2.76238e-07
1.7017e-07
3.02564e-06
1.68795e-07
3.0097e-06
1.43453e-06
3.871e-06
8.94725e-06
8.94373e-06
3.88327e-06
3.87101e-06
8.94766e-06
8.94412e-06
3.88325e-06
1.83883e-05
1.83826e-05
1.83903e-05
1.83845e-05
4.61145e-07
5.2385e-06
5.24045e-06
5.2332e-06
5.23413e-06
1.83717e-05
1.8377e-05
1.83736e-05
1.8379e-05
1.83647e-05
1.83598e-05
1.83676e-05
1.83626e-05
5.24274e-06
5.24447e-06
4.86299e-07
5.24732e-06
5.2491e-06
1.83499e-05
1.83545e-05
1.83528e-05
1.83573e-05
4.95103e-07
5.25584e-06
5.25766e-06
5.25155e-06
5.2534e-06
3.89864e-06
8.9469e-06
3.88913e-06
8.95024e-06
1.46892e-06
3.03325e-06
1.71622e-07
2.89272e-07
1.44647e-06
3.04602e-06
1.73172e-07
1.46886e-06
3.0338e-06
1.71629e-07
2.89323e-07
1.44641e-06
3.04767e-06
1.73179e-07
3.90463e-06
8.95301e-06
8.95e-06
3.91265e-06
3.90459e-06
8.95339e-06
8.95027e-06
3.91271e-06
1.48054e-06
2.93854e-07
3.06704e-06
1.76537e-07
3.05504e-06
1.74813e-07
1.50171e-06
1.48047e-06
2.93901e-07
3.06866e-06
1.76546e-07
3.05468e-06
1.74823e-07
1.5019e-06
5.24426e-06
5.24247e-06
4.85951e-07
5.24905e-06
5.24777e-06
1.83649e-05
1.836e-05
1.83524e-05
1.8357e-05
4.95473e-07
5.25732e-06
5.25613e-06
5.2529e-06
5.25133e-06
1.83501e-05
1.83546e-05
1.46896e-06
3.03382e-06
1.71626e-07
2.89211e-07
1.44654e-06
3.04656e-06
1.73177e-07
3.8987e-06
8.94747e-06
3.88918e-06
8.95077e-06
1.46923e-06
1.71642e-07
3.03291e-06
2.89343e-07
1.44627e-06
1.73193e-07
3.0478e-06
3.90417e-06
8.95426e-06
8.95153e-06
3.91348e-06
1.48046e-06
2.93789e-07
3.06758e-06
1.76546e-07
3.05561e-06
1.74823e-07
1.50205e-06
3.90464e-06
8.95392e-06
8.95087e-06
3.91277e-06
1.48026e-06
2.93917e-07
1.7656e-07
3.06874e-06
1.74837e-07
3.05465e-06
1.50218e-06
3.8987e-06
8.94701e-06
3.88942e-06
8.95031e-06
1.46905e-06
1.71616e-07
3.03353e-06
2.89282e-07
1.44639e-06
1.73168e-07
3.04622e-06
3.89871e-06
8.94703e-06
3.88924e-06
8.95048e-06
1.48081e-06
2.93756e-07
3.06821e-06
1.76531e-07
3.05413e-06
1.74784e-07
1.50156e-06
3.90488e-06
8.95341e-06
8.95036e-06
3.91275e-06
1.48047e-06
2.93852e-07
1.76537e-07
3.06723e-06
1.74812e-07
3.05529e-06
1.50201e-06
3.9047e-06
8.95358e-06
8.95049e-06
3.91279e-06
5.24392e-06
5.24239e-06
4.86339e-07
5.24935e-06
5.24799e-06
1.83656e-05
1.83606e-05
1.83531e-05
1.83577e-05
4.95027e-07
5.25775e-06
5.25635e-06
5.25264e-06
5.25135e-06
1.83507e-05
1.83553e-05
1.46896e-06
1.71647e-07
3.03295e-06
2.8927e-07
1.44656e-06
1.73192e-07
3.04784e-06
3.89945e-06
8.94736e-06
3.88875e-06
8.9507e-06
3.89944e-06
8.94776e-06
3.88875e-06
8.95107e-06
1.48086e-06
2.9378e-07
1.76543e-07
3.06705e-06
1.74826e-07
3.05514e-06
1.50159e-06
1.48056e-06
2.93834e-07
1.76561e-07
3.06877e-06
1.74844e-07
3.05468e-06
1.50208e-06
3.90424e-06
8.95381e-06
8.95073e-06
3.91352e-06
3.90424e-06
8.9542e-06
8.95115e-06
3.91351e-06
1.83663e-05
1.83614e-05
1.83682e-05
1.83632e-05
4.95388e-07
5.25581e-06
5.25786e-06
5.25153e-06
5.25264e-06
1.83515e-05
1.83561e-05
1.83534e-05
1.8358e-05
1.83449e-05
1.83407e-05
1.83477e-05
1.83435e-05
5.25968e-06
5.26151e-06
5.21396e-07
5.26367e-06
5.26549e-06
1.83319e-05
1.83357e-05
1.83347e-05
1.83385e-05
5.31423e-07
5.27098e-06
5.27275e-06
5.2672e-06
5.26901e-06
3.92505e-06
8.95358e-06