/*--------------------------------*- C++ -*----------------------------------*\
| =========                 |                                                 |
| \\      /  F ield         | OpenFOAM: The Open Source CFD Toolbox           |
|  \\    /   O peration     | Version:  2312                                  |
|   \\  /    A nd           | Website:  www.openfoam.com                      |
|    \\/     M anipulation  |                                                 |
\*---------------------------------------------------------------------------*/
FoamFile
{
    version     2.0;
    format      ascii;
    arch        "LSB;label=32;scalar=64";
    class       volScalarField;
    location    "250";
    object      k;
}
// * * * * * * * * * * * * * * * * * * * * * * * * * * * * * * * * * * * * * //

dimensions      [0 2 -2 0 0 0 0];

internalField   nonuniform List<scalar> 
172512
(
2.96845e-05
4.51031e-05
4.50798e-05
4.85094e-05
4.84245e-05
4.50979e-05
4.51035e-05
4.84416e-05
4.51001e-05
4.50803e-05
4.51028e-05
4.5118e-05
4.83813e-05
4.50804e-05
4.51132e-05
4.84798e-05
4.8456e-05
4.51013e-05
4.51056e-05
4.84728e-05
4.5102e-05
4.50805e-05
4.51195e-05
4.84079e-05
4.51135e-05
7.20779e-05
6.70139e-05
7.2092e-05
2.9684e-05
2.96834e-05
2.96785e-05
2.96895e-05
6.99371e-05
4.50817e-05
6.28611e-05
6.69939e-05
7.20856e-05
6.6997e-05
7.20892e-05
6.99408e-05
6.99473e-05
6.69808e-05
7.20917e-05
6.69843e-05
7.20937e-05
2.9685e-05
2.96797e-05
2.96903e-05
5.76619e-05
6.28727e-05
3.88627e-05
4.51036e-05
5.76732e-05
6.28894e-05
3.8864e-05
6.99355e-05
6.99427e-05
5.76955e-05
3.88535e-05
6.2861e-05
4.50796e-05
5.76922e-05
3.88555e-05
6.28615e-05
6.8561e-05
6.85661e-05
4.8483e-05
6.85532e-05
6.85655e-05
6.99329e-05
6.99376e-05
4.84139e-05
6.85327e-05
6.85452e-05
6.99364e-05
6.99286e-05
6.99396e-05
6.99328e-05
4.84425e-05
6.85384e-05
6.85476e-05
6.85367e-05
6.85461e-05
4.50945e-05
6.28565e-05
6.70035e-05
7.20859e-05
7.20796e-05
6.70025e-05
6.70032e-05
7.20922e-05
7.20905e-05
6.70037e-05
5.76883e-05
4.50961e-05
6.28591e-05
3.885e-05
6.28485e-05
3.8847e-05
5.76884e-05
5.76886e-05
4.51012e-05
6.288e-05
3.88518e-05
6.28808e-05
3.8851e-05
5.7688e-05
6.9946e-05
6.99391e-05
4.84659e-05
6.85645e-05
6.8565e-05
6.85587e-05
6.99438e-05
5.76989e-05
4.50989e-05
6.28655e-05
3.88532e-05
6.70103e-05
7.20727e-05
5.7685e-05
4.50838e-05
3.88497e-05
6.28559e-05
6.70064e-05
7.20928e-05
7.20907e-05
6.69901e-05
5.76794e-05
4.50996e-05
6.28655e-05
3.88513e-05
6.28613e-05
3.88527e-05
5.76761e-05
6.69998e-05
7.20803e-05
7.20726e-05
6.69975e-05
5.76644e-05
4.50828e-05
3.88466e-05
6.28523e-05
3.88487e-05
6.28558e-05
5.7664e-05
6.28745e-05
3.88611e-05
5.76763e-05
7.20931e-05
6.70062e-05
3.88596e-05
6.28651e-05
5.76667e-05
7.20874e-05
6.69979e-05
4.84125e-05
6.85335e-05
6.85319e-05
6.99389e-05
6.99399e-05
6.99325e-05
4.84119e-05
6.85371e-05
6.85303e-05
6.8535e-05
6.85338e-05
6.99401e-05
6.99339e-05
7.20904e-05
5.76652e-05
4.50813e-05
3.88505e-05
6.28637e-05
3.88457e-05
6.28532e-05
5.76906e-05
5.76892e-05
4.5114e-05
3.88517e-05
6.28838e-05
3.88543e-05
6.28806e-05
5.76828e-05
6.70032e-05
7.20938e-05
7.20898e-05
6.70177e-05
6.70152e-05
7.2098e-05
7.20957e-05
6.70009e-05
4.85121e-05
6.85594e-05
6.85645e-05
6.85624e-05
6.99454e-05
6.99484e-05
6.99423e-05
6.99319e-05
6.99393e-05
6.9935e-05
6.99417e-05
6.85417e-05
6.85549e-05
4.844e-05
6.85444e-05
6.85582e-05
6.99347e-05
6.99369e-05
4.84679e-05
6.85485e-05
6.85592e-05
6.69963e-05
7.20906e-05
6.69982e-05
7.20919e-05
5.76853e-05
6.28533e-05
3.88525e-05
4.51049e-05
5.76846e-05
6.28671e-05
3.88551e-05
5.76748e-05
6.28688e-05
3.88524e-05
4.51072e-05
5.76836e-05
6.28703e-05
3.88539e-05
6.69911e-05
7.20882e-05
6.6993e-05
7.20905e-05
5.76817e-05
4.51078e-05
6.28659e-05
3.88563e-05
5.76641e-05
4.51082e-05
6.28673e-05
3.88554e-05
6.85665e-05
6.85649e-05
4.84506e-05
6.8566e-05
6.85599e-05
6.99386e-05
6.9944e-05
6.9942e-05
4.84834e-05
6.85668e-05
6.85604e-05
6.99388e-05
5.76693e-05
6.28729e-05
3.88516e-05
4.51048e-05
5.76713e-05
6.28722e-05
3.88524e-05
6.69925e-05
7.20801e-05
6.69946e-05
7.20841e-05
5.76595e-05
3.88469e-05
6.28488e-05
4.50821e-05
5.76599e-05
3.8849e-05
6.28472e-05
6.69777e-05
7.20926e-05
5.76612e-05
4.5108e-05
6.28712e-05
3.88535e-05
6.69887e-05
7.20837e-05
5.76557e-05
4.50841e-05
3.88509e-05
6.28543e-05
6.69949e-05
7.20918e-05
6.69971e-05
7.20943e-05
5.76504e-05
3.88591e-05
6.28668e-05
4.51205e-05
5.7649e-05
3.88592e-05
6.28717e-05
6.69828e-05
7.20858e-05
6.69844e-05
7.20872e-05
5.76451e-05
4.51048e-05
6.2889e-05
3.88669e-05
6.6992e-05
7.20933e-05
5.76476e-05
4.5121e-05
3.88594e-05
6.287e-05
6.69772e-05
7.20862e-05
6.85395e-05
6.85361e-05
4.8391e-05
6.85418e-05
6.85356e-05
6.99353e-05
6.99414e-05
6.99381e-05
4.84185e-05
6.85406e-05
6.85364e-05
6.99364e-05
5.76495e-05
3.88523e-05
6.2893e-05
4.51136e-05
5.76666e-05
3.88532e-05
6.28933e-05
6.70174e-05
7.20933e-05
6.70155e-05
7.20965e-05
6.69947e-05
7.2097e-05
6.69925e-05
7.20988e-05
5.76921e-05
4.50813e-05
3.88597e-05
6.28604e-05
5.76423e-05
4.51139e-05
3.8854e-05
6.28899e-05
6.70083e-05
7.20957e-05
6.69908e-05
7.20976e-05
6.99403e-05
6.99455e-05
6.99434e-05
6.99493e-05
4.85046e-05
6.8556e-05
6.85644e-05
6.99402e-05
6.99443e-05
7.05124e-05
7.86247e-05
7.20738e-05
7.86194e-05
7.05221e-05
7.05894e-05
6.70137e-05
7.02175e-05
7.03193e-05
7.02168e-05
7.03174e-05
7.0592e-05
7.05198e-05
7.86598e-05
7.20905e-05
7.86594e-05
7.05286e-05
6.99314e-05
7.05862e-05
6.69934e-05
7.03192e-05
7.01947e-05
7.03171e-05
7.01942e-05
7.05889e-05
7.05261e-05
7.8641e-05
7.20879e-05
7.05169e-05
7.86428e-05
7.05889e-05
6.69969e-05
7.03171e-05
7.01988e-05
7.05863e-05
7.0319e-05
7.01987e-05
7.05173e-05
7.86408e-05
7.20872e-05
7.86388e-05
7.05263e-05
6.99467e-05
6.99414e-05
7.05895e-05
6.69795e-05
7.01976e-05
7.03196e-05
7.01946e-05
7.03174e-05
7.05924e-05
7.05283e-05
7.86552e-05
7.20932e-05
7.05196e-05
7.86554e-05
7.05921e-05
6.69846e-05
7.02038e-05
7.0317e-05
7.05892e-05
7.0204e-05
7.0319e-05
7.05194e-05
7.86543e-05
7.20921e-05
7.86541e-05
7.05282e-05
6.99414e-05
6.99368e-05
9.36966e-05
7.23728e-05
7.23669e-05
7.23643e-05
7.23583e-05
9.3694e-05
7.24551e-05
6.28555e-05
7.19229e-05
6.85574e-05
7.24571e-05
6.28592e-05
7.19252e-05
7.25019e-05
6.28366e-05
7.19322e-05
6.85662e-05
7.25014e-05
6.284e-05
7.19345e-05
9.3694e-05
7.23639e-05
7.23579e-05
9.36965e-05
7.23723e-05
7.23664e-05
7.2451e-05
7.19255e-05
6.85582e-05
6.28625e-05
6.28606e-05
7.19232e-05
7.24573e-05
7.25004e-05
7.19347e-05
6.85668e-05
6.28457e-05
6.28322e-05
7.19325e-05
7.24959e-05
6.99268e-05
6.99319e-05
9.36807e-05
7.23608e-05
7.23542e-05
7.23519e-05
7.23455e-05
9.36785e-05
7.24391e-05
7.19101e-05
6.85326e-05
6.28166e-05
7.19074e-05
7.24351e-05
6.28135e-05
7.24799e-05
7.19208e-05
6.85443e-05
6.28136e-05
7.19181e-05
7.24814e-05
6.28201e-05
6.99303e-05
6.99348e-05
6.99338e-05
6.99385e-05
9.36791e-05
7.23529e-05
7.23463e-05
9.36815e-05
7.23617e-05
7.2355e-05
7.24342e-05
6.2814e-05
6.85358e-05
7.19127e-05
7.19098e-05
6.28049e-05
7.24331e-05
7.24834e-05
6.28158e-05
6.85487e-05
7.19232e-05
7.19205e-05
6.2819e-05
7.24789e-05
7.24327e-05
7.19084e-05
6.28163e-05
6.85382e-05
7.24354e-05
7.19112e-05
6.28138e-05
7.24845e-05
7.19192e-05
6.28053e-05
6.85429e-05
7.24839e-05
7.1922e-05
6.28184e-05
9.36822e-05
7.23627e-05
7.23558e-05
7.23538e-05
7.23471e-05
9.368e-05
7.05894e-05
7.03174e-05
7.02048e-05
6.70073e-05
7.05869e-05
7.03192e-05
7.02061e-05
7.05155e-05
7.20831e-05
7.86401e-05
7.05252e-05
7.86313e-05
7.05236e-05
7.86272e-05
7.20829e-05
7.0514e-05
7.86301e-05
7.05865e-05
6.69984e-05
7.0319e-05
7.02038e-05
7.05891e-05
7.03171e-05
7.02026e-05
7.05941e-05
7.03182e-05
7.02175e-05
6.70047e-05
7.05915e-05
7.03199e-05
7.02191e-05
7.05228e-05
7.20908e-05
7.86448e-05
7.86443e-05
7.05316e-05
7.05315e-05
7.86446e-05
7.2092e-05
7.05225e-05
7.86453e-05
7.05913e-05
6.70023e-05
7.03197e-05
7.02173e-05
7.03178e-05
7.02159e-05
7.05939e-05
6.994e-05
6.99451e-05
7.24956e-05
6.28518e-05
6.85636e-05
7.19298e-05
6.28475e-05
7.19272e-05
7.24928e-05
7.24441e-05
6.2845e-05
6.85662e-05
7.19221e-05
7.19199e-05
6.28439e-05
7.24444e-05
6.28342e-05
6.85553e-05
6.2848e-05
9.36823e-05
7.23624e-05
7.23677e-05
7.23537e-05
7.23588e-05
9.36796e-05
6.99384e-05
7.05849e-05
6.70103e-05
7.03196e-05
7.01951e-05
7.03177e-05
7.01951e-05
7.05877e-05
7.05104e-05
7.86065e-05
7.20723e-05
7.86065e-05
7.05197e-05
7.05919e-05
7.02129e-05
7.03173e-05
6.70049e-05
7.05891e-05
7.02133e-05
7.03192e-05
7.05197e-05
7.20912e-05
7.8658e-05
7.05285e-05
7.86577e-05
7.05286e-05
7.86585e-05
7.20923e-05
7.05198e-05
7.8659e-05
7.0589e-05
6.69905e-05
7.02086e-05
7.03189e-05
7.05918e-05
7.02085e-05
7.03171e-05
7.05879e-05
7.03176e-05
7.01904e-05
6.70026e-05
7.0585e-05
7.03195e-05
7.01907e-05
7.05125e-05
7.20777e-05
7.86051e-05
7.86047e-05
7.05219e-05
7.05207e-05
7.86051e-05
7.20776e-05
7.05113e-05
7.86055e-05
7.05853e-05
6.6997e-05
7.03197e-05
7.01864e-05
7.03177e-05
7.01862e-05
7.05884e-05
7.05165e-05
7.20916e-05
7.8636e-05
7.86354e-05
7.05262e-05
7.05979e-05
6.70036e-05
7.02164e-05
7.03275e-05
7.02151e-05
7.03259e-05
7.06009e-05
7.05125e-05
7.20863e-05
7.86113e-05
7.86119e-05
7.05213e-05
7.05869e-05
6.69982e-05
7.03233e-05
7.01963e-05
7.03218e-05
7.01965e-05
7.05895e-05
9.36558e-05
7.23546e-05
7.23603e-05
7.23458e-05
7.23517e-05
9.36537e-05
7.24613e-05
7.19167e-05
6.85389e-05
6.27988e-05
7.19142e-05
6.27962e-05
7.24601e-05
7.2406e-05
7.1909e-05
6.85374e-05
6.27771e-05
6.27894e-05
7.19069e-05
7.23985e-05
6.99336e-05
6.9934e-05
6.99384e-05
9.36559e-05
7.23467e-05
7.23524e-05
9.36576e-05
7.23555e-05
7.2361e-05
7.24621e-05
6.2802e-05
6.85377e-05
7.19192e-05
6.27948e-05
7.19164e-05
7.24675e-05
7.23969e-05
6.27807e-05
6.85323e-05
7.19097e-05
7.19073e-05
6.27661e-05
7.23944e-05
7.24658e-05
7.19152e-05
6.2791e-05
6.85325e-05
6.28033e-05
7.24644e-05
7.19178e-05
7.23929e-05
7.1907e-05
6.27648e-05
6.85325e-05
7.24004e-05
7.19092e-05
6.27706e-05
9.36598e-05
7.23564e-05
7.23617e-05
7.23476e-05
7.23531e-05
9.36582e-05
6.99345e-05
6.99395e-05
7.20882e-05
7.05972e-05
7.02069e-05
7.03226e-05
6.70057e-05
7.0594e-05
7.02104e-05
7.03248e-05
7.05215e-05
7.20917e-05
7.86401e-05
7.86355e-05
7.0531e-05
7.05295e-05
7.86307e-05
7.20921e-05
7.052e-05
7.86334e-05
7.05949e-05
6.70126e-05
7.02209e-05
7.03252e-05
7.02148e-05
7.03231e-05
7.0598e-05
7.0596e-05
7.02255e-05
7.03204e-05
6.70017e-05
7.05932e-05
7.02274e-05
7.03221e-05
7.05228e-05
7.20964e-05
7.86485e-05
7.8647e-05
7.05316e-05
7.05319e-05
7.86501e-05
7.20974e-05
7.0523e-05
7.8651e-05
7.05928e-05
6.69996e-05
7.02223e-05
7.03212e-05
7.02219e-05
7.03195e-05
7.05954e-05
9.36927e-05
7.23715e-05
7.23655e-05
7.24507e-05
6.28471e-05
6.85553e-05
7.19247e-05
7.24552e-05
6.28535e-05
7.19223e-05
7.25089e-05
6.28478e-05
6.85652e-05
7.19341e-05
7.25025e-05
6.28464e-05
7.19319e-05
7.24556e-05
6.85582e-05
6.28539e-05
7.19242e-05
7.25074e-05
6.28415e-05
6.85623e-05
6.28452e-05
7.19336e-05
9.36957e-05
7.23719e-05
7.2366e-05
9.36935e-05
7.23634e-05
7.23574e-05
6.99398e-05
6.99449e-05
6.99429e-05
6.99478e-05
6.99379e-05
6.99333e-05
6.99408e-05
6.9936e-05
9.36838e-05
7.23642e-05
7.23571e-05
7.23554e-05
7.23485e-05
9.36816e-05
7.24336e-05
6.28137e-05
7.19112e-05
6.8541e-05
7.24341e-05
7.19141e-05
6.28137e-05
7.24762e-05
6.28268e-05
7.19217e-05
6.85561e-05
7.24798e-05
7.19245e-05
6.28283e-05
9.36808e-05
7.23547e-05
7.23478e-05
9.3683e-05
7.23635e-05
7.23565e-05
7.24362e-05
7.19157e-05
6.85438e-05
6.28244e-05
7.19128e-05
7.24404e-05
6.28082e-05
7.24858e-05
7.19257e-05
6.85582e-05
6.28358e-05
7.1923e-05
7.24867e-05
6.2821e-05
6.99406e-05
6.99427e-05
9.36819e-05
7.23561e-05
7.2349e-05
9.36845e-05
7.23648e-05
7.23576e-05
7.24487e-05
7.19143e-05
6.2828e-05
6.85497e-05
7.24476e-05
7.19172e-05
6.28308e-05
7.24878e-05
7.1924e-05
6.28395e-05
6.85611e-05
7.24886e-05
7.19265e-05
6.28334e-05
7.05911e-05
6.69957e-05
7.03197e-05
7.02123e-05
7.03177e-05
7.02111e-05
7.05938e-05
7.05318e-05
7.86435e-05
7.20919e-05
7.05229e-05
7.8644e-05
7.05939e-05
6.69987e-05
7.03176e-05
7.02135e-05
7.03195e-05
7.05912e-05
7.02148e-05
7.05231e-05
7.86434e-05
7.20905e-05
7.86428e-05
7.0532e-05
7.05891e-05
7.03175e-05
7.01904e-05
6.6992e-05
7.05862e-05
7.03197e-05
7.0191e-05
7.05264e-05
7.86368e-05
7.20899e-05
7.05175e-05
7.86387e-05
7.0594e-05
7.03179e-05
7.02087e-05
6.69932e-05
7.05912e-05
7.03199e-05
7.02102e-05
7.05322e-05
7.86425e-05
7.2092e-05
7.05233e-05
7.86435e-05
9.36824e-05
7.23635e-05
7.23681e-05
7.23548e-05
7.23597e-05
9.368e-05
7.24886e-05
6.28509e-05
7.19281e-05
6.85655e-05
7.19306e-05
7.24928e-05
6.28523e-05
7.24368e-05
6.2842e-05
7.19199e-05
6.85599e-05
6.28454e-05
7.24393e-05
7.1922e-05
9.36797e-05
7.23542e-05
7.23595e-05
7.23629e-05
9.36823e-05
7.23678e-05
7.24983e-05
7.19316e-05
6.85666e-05
6.2854e-05
7.1929e-05
6.285e-05
7.24978e-05
7.24398e-05
7.1922e-05
6.85624e-05
6.28339e-05
6.28358e-05
7.19199e-05
7.24402e-05
6.99439e-05
6.99387e-05
6.99478e-05
9.36801e-05
7.23553e-05
7.236e-05
9.36827e-05
7.2364e-05
7.23684e-05
7.24995e-05
7.19299e-05
6.28418e-05
6.85658e-05
6.28459e-05
7.25001e-05
7.19324e-05
7.24365e-05
7.19198e-05
6.28333e-05
6.85553e-05
7.24377e-05
7.19218e-05
6.28248e-05
6.99442e-05
7.0587e-05
6.69922e-05
7.03209e-05
7.01789e-05
7.03186e-05
7.01784e-05
7.05903e-05
7.05233e-05
7.8604e-05
7.20823e-05
7.05138e-05
7.86051e-05
7.05892e-05
6.69953e-05
7.0318e-05
7.01821e-05
7.03201e-05
7.05861e-05
7.01825e-05
7.05151e-05
7.86037e-05
7.20819e-05
7.8602e-05
7.05247e-05
7.0593e-05
7.01922e-05
7.03182e-05
6.69794e-05
7.05899e-05
7.01925e-05
7.03207e-05
7.05281e-05
7.8653e-05
7.20944e-05
7.05193e-05
7.86535e-05
7.05918e-05
7.03194e-05
7.01755e-05
6.69892e-05
7.05883e-05
7.03218e-05
7.01758e-05
7.05263e-05
7.86025e-05
7.2086e-05
7.05166e-05
7.86025e-05
7.05979e-05
6.69951e-05
7.0212e-05
7.03261e-05
7.02087e-05
7.03244e-05
7.06009e-05
7.05268e-05
7.86356e-05
7.20934e-05
7.86364e-05
7.0517e-05
7.0601e-05
6.70003e-05
7.02142e-05
7.0325e-05
7.02158e-05
7.05979e-05
7.03267e-05
7.05175e-05
7.86402e-05
7.20925e-05
7.86358e-05
7.05274e-05
7.05867e-05
6.69795e-05
7.03221e-05
7.01887e-05
7.03203e-05
7.0188e-05
7.05895e-05
7.05213e-05
7.86073e-05
7.20869e-05
7.05125e-05
7.86023e-05
7.05894e-05
6.69896e-05
7.03209e-05
7.01917e-05
7.05866e-05
7.03225e-05
7.01922e-05
7.05127e-05
7.86024e-05
7.20857e-05
7.86015e-05
7.05219e-05
7.06009e-05
7.02079e-05
7.03238e-05
6.69922e-05
7.05979e-05
7.02106e-05
7.03257e-05
7.05279e-05
7.86408e-05
7.2095e-05
7.05181e-05
7.86412e-05
7.05898e-05
7.032e-05
7.01843e-05
6.69767e-05
7.05869e-05
7.03219e-05
7.0185e-05
7.05229e-05
7.86012e-05
7.20879e-05
7.05136e-05
7.85998e-05
9.36634e-05
7.23582e-05
7.23631e-05
7.23494e-05
7.23545e-05
9.36612e-05
7.24658e-05
6.27991e-05
7.19177e-05
6.85397e-05
7.19203e-05
7.24697e-05
6.28026e-05
7.24004e-05
6.27821e-05
7.1908e-05
6.85356e-05
6.27787e-05
7.24036e-05
7.19104e-05
9.36602e-05
7.23485e-05
7.23538e-05
7.23573e-05
9.36621e-05
7.23624e-05
7.24673e-05
7.19216e-05
6.85417e-05
6.28055e-05
7.19189e-05
6.28031e-05
7.24668e-05
7.23953e-05
7.19111e-05
6.85368e-05
6.27908e-05
6.27899e-05
7.19087e-05
7.24004e-05
6.99409e-05
6.99359e-05
6.99441e-05
9.36622e-05
7.23502e-05
7.23552e-05
9.36645e-05
7.2359e-05
7.23637e-05
7.24594e-05
7.19201e-05
6.28056e-05
6.85452e-05
6.28067e-05
7.24654e-05
7.19227e-05
7.2406e-05
7.19094e-05
6.27876e-05
6.85342e-05
7.24022e-05
7.19119e-05
6.27821e-05
6.99419e-05
7.05957e-05
6.70162e-05
7.02269e-05
7.03248e-05
7.02241e-05
7.03229e-05
7.05984e-05
7.05322e-05
7.8644e-05
7.20953e-05
7.86484e-05
7.05229e-05
7.05983e-05
6.70175e-05
7.02214e-05
7.03232e-05
7.02254e-05
7.05955e-05
7.03251e-05
7.0524e-05
7.86562e-05
7.20946e-05
7.86532e-05
7.05331e-05
7.05914e-05
6.69937e-05
7.02158e-05
7.03197e-05
7.02154e-05
7.03179e-05
7.05938e-05
7.05313e-05
7.86477e-05
7.20985e-05
7.05226e-05
7.8648e-05
7.05947e-05
6.69956e-05
7.02186e-05
7.03186e-05
7.05921e-05
7.02192e-05
7.03203e-05
7.05222e-05
7.86447e-05
7.20973e-05
7.86435e-05
7.05308e-05
7.05982e-05
7.02243e-05
7.03224e-05
6.70114e-05
7.05956e-05
7.02262e-05
7.03242e-05
7.05335e-05
7.86566e-05
7.20974e-05
7.05246e-05
7.86578e-05
7.05931e-05
7.02119e-05
7.03174e-05
6.69906e-05
7.05906e-05
7.02123e-05
7.03193e-05
7.05303e-05
7.86433e-05
7.20991e-05
7.05217e-05
7.86433e-05
6.99456e-05
6.99404e-05
6.99489e-05
6.99439e-05
9.36936e-05
7.23647e-05
7.23588e-05
9.36965e-05
7.23732e-05
7.23673e-05
7.24574e-05
7.19234e-05
6.28583e-05
6.85536e-05
7.24569e-05
6.28589e-05
7.19255e-05
7.24905e-05
7.19328e-05
6.28353e-05
6.85679e-05
7.2495e-05
6.28438e-05
7.19351e-05
6.99454e-05
6.99498e-05
2.96843e-05
2.18163e-05
2.18151e-05
2.18143e-05
2.96852e-05
2.18153e-05
2.18139e-05
1.3769e-05
1.3769e-05
6.33402e-05
5.57554e-05
5.575e-05
4.84813e-05
6.33404e-05
5.57503e-05
5.5746e-05
6.32962e-05
4.84477e-05
5.57145e-05
5.57294e-05
5.57247e-05
5.57352e-05
6.32845e-05
6.33193e-05
4.84675e-05
5.57129e-05
5.57528e-05
5.57278e-05
5.57593e-05
6.33125e-05
6.32924e-05
4.84041e-05
5.56811e-05
5.56842e-05
5.56897e-05
5.56858e-05
6.32902e-05
6.33355e-05
4.85106e-05
5.5743e-05
5.57648e-05
6.33356e-05
5.57482e-05
5.57684e-05
6.33033e-05
5.57265e-05
5.57463e-05
4.84334e-05
6.3301e-05
5.57252e-05
5.57408e-05
6.3317e-05
5.57364e-05
5.5768e-05
4.84462e-05
5.5761e-05
6.333e-05
5.57146e-05
6.32848e-05
5.56922e-05
5.56698e-05
4.83858e-05
5.56686e-05
6.32912e-05
5.56866e-05
2.96785e-05
2.18079e-05
2.96838e-05
2.18147e-05
2.18158e-05
2.18146e-05
2.18165e-05
1.37703e-05
1.37685e-05
2.968e-05
2.18076e-05
2.18102e-05
2.18056e-05
2.18112e-05
1.37609e-05
1.37609e-05
2.96782e-05
2.18078e-05
2.18008e-05
2.18074e-05
2.18009e-05
1.37621e-05
1.3763e-05
2.9689e-05
2.18111e-05
2.17988e-05
2.18085e-05
2.17984e-05
1.3756e-05
1.37575e-05
6.28634e-05
5.71787e-05
5.72023e-05
2.1809e-05
2.18079e-05
2.96874e-05
2.18121e-05
2.18098e-05
1.37623e-05
1.37618e-05
2.18125e-05
2.18017e-05
2.96818e-05
2.18146e-05
2.1804e-05
1.37648e-05
1.37638e-05
2.18143e-05
2.17999e-05
2.96917e-05
2.18149e-05
2.18018e-05
1.37579e-05
1.37569e-05
2.96867e-05
2.18159e-05
2.18146e-05
1.37698e-05
2.96894e-05
2.18136e-05
2.18116e-05
1.37625e-05
2.96826e-05
2.18155e-05
2.18055e-05
1.37644e-05
2.96924e-05
2.1815e-05
2.18031e-05
1.37593e-05
5.19355e-05
5.76558e-05
5.96089e-05
5.02928e-05
5.96062e-05
5.03083e-05
5.18966e-05
5.35541e-05
5.72509e-05
6.18938e-05
6.28745e-05
5.35889e-05
5.72452e-05
6.18986e-05
5.19114e-05
5.76746e-05
5.96078e-05
5.02993e-05
5.19357e-05
5.96126e-05
5.02848e-05
5.35833e-05
6.18952e-05
6.28831e-05
5.72463e-05
5.72518e-05
6.18887e-05
5.35481e-05
5.19591e-05
5.76939e-05
5.03533e-05
5.96533e-05
5.0369e-05
5.96477e-05
5.19365e-05
5.35202e-05
5.71628e-05
6.18859e-05
6.28611e-05
5.35334e-05
5.71516e-05
6.18921e-05
5.19203e-05
5.76962e-05
5.03667e-05
5.96383e-05
5.19532e-05
5.03511e-05
5.9647e-05
5.3542e-05
6.18968e-05
6.28583e-05
5.71434e-05
5.71536e-05
6.18938e-05
5.35291e-05
6.3332e-05
4.85053e-05
5.57643e-05
5.57303e-05
5.57666e-05
5.57312e-05
6.33394e-05
6.33142e-05
4.84438e-05
5.57067e-05
5.57087e-05
6.3305e-05
5.5714e-05
5.57159e-05
6.33005e-05
4.84151e-05
5.57198e-05
5.5724e-05
6.33059e-05
5.5715e-05
5.57187e-05
5.35299e-05
6.1874e-05
6.2856e-05
5.71587e-05
6.18682e-05
5.71632e-05
5.35166e-05
5.18945e-05
5.96457e-05
5.03325e-05
5.76896e-05
5.19443e-05
5.9648e-05
5.03147e-05
5.35433e-05
5.71612e-05
6.28489e-05
6.18912e-05
5.7169e-05
6.18873e-05
5.35307e-05
5.35228e-05
6.18682e-05
5.71678e-05
6.28524e-05
5.71633e-05
5.35364e-05
6.18849e-05
5.19423e-05
5.76864e-05
5.96475e-05
5.0322e-05
5.96447e-05
5.03382e-05
5.19135e-05
5.19332e-05
5.96426e-05
5.03499e-05
5.76897e-05
5.19534e-05
5.96466e-05
5.03299e-05
5.35635e-05
5.72405e-05
6.28835e-05
6.189e-05
6.18893e-05
5.72438e-05
5.35507e-05
5.35472e-05
6.18879e-05
5.72338e-05
6.28836e-05
5.35634e-05
6.18944e-05
5.72324e-05
5.19596e-05
5.76863e-05
5.96446e-05
5.03357e-05
5.96426e-05
5.03556e-05
5.19316e-05
4.84395e-05
5.57198e-05
5.57122e-05
5.19752e-05
5.76978e-05
5.9654e-05
5.03816e-05
5.96533e-05
5.04046e-05
5.19491e-05
5.35702e-05
6.19093e-05
6.28616e-05
5.71993e-05
6.19088e-05
5.72044e-05
5.35588e-05
5.19473e-05
5.76857e-05
5.03485e-05
5.96121e-05
5.04044e-05
5.96142e-05
5.19254e-05
5.35178e-05
6.18699e-05
6.28478e-05
5.715e-05
6.18665e-05
5.34995e-05
5.71746e-05
5.19158e-05
5.96325e-05
5.03697e-05
5.76854e-05
5.19486e-05
5.96373e-05
5.03444e-05
5.35486e-05
5.71731e-05
6.28692e-05
6.1906e-05
5.71768e-05
6.19049e-05
5.35382e-05
5.35325e-05
6.19065e-05
5.71881e-05
6.287e-05
5.71674e-05
5.35516e-05
6.19068e-05
5.1943e-05
5.76758e-05
5.96273e-05
5.0343e-05
5.96194e-05
5.03632e-05
5.19133e-05
5.18907e-05
5.0372e-05
5.96071e-05
5.76622e-05
5.1923e-05
5.03527e-05
5.96101e-05
5.34731e-05
5.71445e-05
6.28534e-05
6.18619e-05
6.18578e-05
5.71499e-05
5.34574e-05
5.34767e-05
6.18573e-05
5.71529e-05
6.2858e-05
5.3492e-05
6.18582e-05
5.71305e-05
5.19153e-05
5.76479e-05
5.03492e-05
5.9591e-05
5.03734e-05
5.95976e-05
5.18918e-05
5.35795e-05
5.72442e-05
6.28694e-05
6.18824e-05
5.35646e-05
5.72489e-05
6.18846e-05
5.19299e-05
5.76702e-05
5.96165e-05
5.02794e-05
5.19076e-05
5.9617e-05
5.02992e-05
5.3544e-05
5.72441e-05
6.2881e-05
6.18517e-05
6.18688e-05
5.72503e-05
5.35292e-05
5.19251e-05
5.76635e-05
5.02953e-05
5.96261e-05
5.03215e-05
5.96265e-05
5.18951e-05
6.32877e-05
4.84319e-05
5.5694e-05
5.56878e-05
5.56884e-05
5.56966e-05
6.32883e-05
6.32905e-05
4.83793e-05
5.56814e-05
5.56762e-05
5.56748e-05
6.32914e-05
5.567e-05
5.19186e-05
5.03719e-05
5.95978e-05
5.76656e-05
5.19505e-05
5.03464e-05
5.96032e-05
5.35243e-05
5.71561e-05
6.28619e-05
6.18739e-05
5.35105e-05
5.71589e-05
6.18739e-05
5.35052e-05
6.1875e-05
5.71535e-05
6.28611e-05
5.35176e-05
5.7148e-05
6.18775e-05
5.19462e-05
5.76805e-05
5.03471e-05
5.96339e-05
5.19033e-05
5.03651e-05
5.96032e-05
5.18966e-05
5.03395e-05
5.96418e-05
5.76908e-05
5.19271e-05
5.03174e-05
5.96463e-05
5.35075e-05
5.72355e-05
6.28856e-05
6.19022e-05
6.19018e-05
5.7239e-05
5.34962e-05
5.34824e-05
6.19007e-05
5.72316e-05
6.28833e-05
5.34961e-05
6.19035e-05
5.72286e-05
5.19271e-05
5.76825e-05
5.03201e-05
5.96345e-05
5.03369e-05
5.9636e-05
5.19048e-05
6.33431e-05
4.84815e-05
5.57635e-05
5.57316e-05
5.57555e-05
6.33045e-05
4.84624e-05
5.57068e-05
5.57497e-05
6.32949e-05
5.57131e-05
5.57556e-05
6.33102e-05
4.84458e-05
5.5723e-05
5.57642e-05
6.33111e-05
5.57189e-05
5.57582e-05
5.19439e-05
5.7683e-05
5.96426e-05
5.03341e-05
5.96405e-05
5.03505e-05
5.19219e-05
5.3538e-05
5.71653e-05
6.18915e-05
6.28594e-05
6.18936e-05
5.35509e-05
5.71575e-05
5.19204e-05
5.76862e-05
5.96429e-05
5.03447e-05
5.96449e-05
5.19472e-05
5.03285e-05
5.3558e-05
6.18951e-05
6.28647e-05
5.7193e-05
6.18932e-05
5.71816e-05
5.35452e-05
5.19616e-05
5.76665e-05
5.96301e-05
5.03393e-05
5.96294e-05
5.03584e-05
5.19373e-05
5.35478e-05
5.72482e-05
6.1884e-05
6.28718e-05
5.35705e-05
6.18836e-05
5.72436e-05
5.19356e-05
5.76846e-05
5.96389e-05
5.03592e-05
5.1956e-05
5.96403e-05
5.0327e-05
5.35732e-05
6.18745e-05
6.28695e-05
5.72457e-05
6.1879e-05
5.35637e-05
5.72503e-05
5.19146e-05
5.9638e-05
5.03562e-05
5.76834e-05
5.19545e-05
5.96393e-05
5.03393e-05
5.35531e-05
6.18945e-05
5.72192e-05
6.28648e-05
5.72195e-05
5.3567e-05
6.18961e-05
5.19207e-05
5.96244e-05
5.03604e-05
5.76628e-05
5.19613e-05
5.96254e-05
5.03449e-05
5.3546e-05
6.18832e-05
5.72512e-05
6.28789e-05
5.35581e-05
6.18888e-05
5.72458e-05
6.33264e-05
4.84776e-05
5.57361e-05
5.57665e-05
5.5774e-05
5.57413e-05
6.3319e-05
6.3315e-05
4.84546e-05
5.57468e-05
5.57772e-05
5.5741e-05
6.33191e-05
5.57697e-05
5.19515e-05
5.76677e-05
5.9608e-05
5.03504e-05
5.96069e-05
5.03671e-05
5.19303e-05
5.35206e-05
5.71834e-05
6.18939e-05
6.28739e-05
6.19004e-05
5.3533e-05
5.71755e-05
5.19223e-05
5.76719e-05
5.96083e-05
5.03648e-05
5.96162e-05
5.19445e-05
5.03447e-05
5.35178e-05
6.18982e-05
6.28707e-05
5.71875e-05
6.18981e-05
5.71835e-05
5.35031e-05
5.19331e-05
5.76626e-05
5.03607e-05
5.95959e-05
5.0381e-05
5.95865e-05
5.18979e-05
5.34683e-05
5.71446e-05
6.18605e-05
6.28447e-05
5.34798e-05
6.18618e-05
5.71323e-05
5.19023e-05
5.76648e-05
5.03789e-05
5.95903e-05
5.19274e-05
5.03557e-05
5.95872e-05
5.34945e-05
6.18567e-05
6.28515e-05
5.71617e-05
6.18511e-05
5.34834e-05
5.71515e-05
5.19308e-05
5.95884e-05
5.03721e-05
5.76636e-05
5.19533e-05
5.95983e-05
5.03549e-05
5.35215e-05
6.18955e-05
5.72154e-05
6.28847e-05
5.7216e-05
5.35263e-05
6.18964e-05
5.19183e-05
5.03845e-05
5.96099e-05
5.76593e-05
5.19396e-05
5.03595e-05
5.96201e-05
5.34984e-05
6.18499e-05
5.71869e-05
6.28525e-05
5.35095e-05
6.18653e-05
5.71872e-05
5.19309e-05
5.76412e-05
5.02953e-05
5.96178e-05
5.03153e-05
5.96164e-05
5.18877e-05
5.35309e-05
5.72494e-05
6.18555e-05
6.28624e-05
5.72436e-05
5.35462e-05
6.18584e-05
5.18996e-05
5.76576e-05
5.03135e-05
5.96203e-05
5.02939e-05
5.19286e-05
5.96213e-05
5.35511e-05
6.18559e-05
6.28672e-05
5.72436e-05
5.72492e-05
6.18547e-05
5.35355e-05
5.18856e-05
5.9592e-05
5.03163e-05
5.76533e-05
5.19111e-05
5.95978e-05
5.03005e-05
5.35196e-05
6.18843e-05
5.72512e-05
6.28905e-05
5.35346e-05
5.72449e-05
6.18867e-05
5.18986e-05
5.03176e-05
5.96127e-05
5.76495e-05
5.19274e-05
5.03004e-05
5.96137e-05
5.354e-05
6.18457e-05
5.7249e-05
6.28706e-05
5.35539e-05
6.18485e-05
5.72434e-05
6.32755e-05
4.84134e-05
5.56955e-05
5.56508e-05
5.56569e-05
5.57017e-05
6.32598e-05
6.3275e-05
4.83956e-05
5.57094e-05
5.56682e-05
5.56991e-05
6.3272e-05
5.56461e-05
5.19355e-05
5.7648e-05
5.03278e-05
5.96098e-05
5.03432e-05
5.96062e-05
5.19099e-05
5.35102e-05
5.7244e-05
6.1899e-05
6.28879e-05
5.72399e-05
5.35217e-05
6.18988e-05
5.19108e-05
5.76536e-05
5.03408e-05
5.96271e-05
5.03249e-05
5.19325e-05
5.96265e-05
5.35342e-05
6.18907e-05
6.28925e-05
5.72426e-05
5.72468e-05
6.18855e-05
5.35219e-05
5.19399e-05
5.03712e-05
5.96513e-05
5.76931e-05
5.19666e-05
5.03553e-05
5.96549e-05
5.35388e-05
6.18921e-05
5.71672e-05
6.28583e-05
5.35514e-05
5.71768e-05
6.18826e-05
5.18952e-05
5.03454e-05
5.95964e-05
5.76307e-05
5.19499e-05
5.03272e-05
5.9588e-05
5.35314e-05
6.18885e-05
5.72493e-05
6.29018e-05
5.35443e-05
6.18904e-05
5.72448e-05
6.33347e-05
4.84809e-05
5.57514e-05
5.57186e-05
6.33372e-05
5.57441e-05
5.57124e-05
2.96875e-05
4.51044e-05
4.50841e-05
4.85047e-05
2.96911e-05
4.51061e-05
4.50919e-05
4.84536e-05
2.96924e-05
4.51084e-05
4.50985e-05
4.8464e-05
2.96944e-05
4.51083e-05
4.5105e-05
4.84287e-05
2.96991e-05
4.51067e-05
4.51135e-05
4.83724e-05
2.97051e-05
4.51071e-05
4.5124e-05
4.83858e-05
2.97118e-05
4.51092e-05
4.51314e-05
4.84358e-05
2.97181e-05
4.51102e-05
4.51366e-05
4.84349e-05
2.97244e-05
4.51106e-05
4.51372e-05
4.84637e-05
2.97306e-05
4.51137e-05
4.51353e-05
4.84562e-05
2.97382e-05
4.51173e-05
4.51348e-05
4.84835e-05
2.9743e-05
4.5118e-05
4.51328e-05
4.84738e-05
2.97449e-05
4.512e-05
4.51309e-05
4.84691e-05
2.97453e-05
4.51247e-05
4.51304e-05
4.84645e-05
2.97443e-05
4.51281e-05
4.51339e-05
4.85026e-05
2.97424e-05
4.51309e-05
4.51367e-05
4.85274e-05
2.97407e-05
4.51354e-05
4.51404e-05
4.84935e-05
2.97396e-05
4.51398e-05
4.51432e-05
4.85069e-05
2.96993e-05
4.51349e-05
4.51355e-05
4.84372e-05
3.14718e-05
4.26059e-05
4.26024e-05
4.78085e-05
4.84514e-05
4.51117e-05
4.51097e-05
4.846e-05
4.5112e-05
4.50868e-05
4.51035e-05
4.51226e-05
4.83998e-05
4.50818e-05
4.51141e-05
4.84787e-05
4.84786e-05
4.84519e-05
4.51135e-05
4.51105e-05
4.5119e-05
4.51135e-05
4.84862e-05
4.84688e-05
4.51135e-05
4.50877e-05
4.51178e-05
4.50928e-05
4.51231e-05
4.51057e-05
4.51258e-05
4.84304e-05
4.84177e-05
4.51145e-05
4.50904e-05
4.51165e-05
4.84291e-05
4.84654e-05
4.84542e-05
4.51211e-05
4.51144e-05
4.51236e-05
4.51174e-05
4.85004e-05
4.84349e-05
4.51209e-05
4.50957e-05
4.51208e-05
4.50989e-05
4.51268e-05
4.51081e-05
4.51274e-05
4.84481e-05
4.84384e-05
4.51174e-05
4.50972e-05
4.51173e-05
4.84415e-05
4.84803e-05
4.84348e-05
4.51245e-05
4.51166e-05
4.51255e-05
4.51127e-05
4.84343e-05
4.84263e-05
4.5121e-05
4.50998e-05
4.51214e-05
4.50998e-05
4.51273e-05
4.51084e-05
4.51279e-05
4.8438e-05
4.84149e-05
4.51173e-05
4.51031e-05
4.51172e-05
4.8421e-05
4.84344e-05
4.84334e-05
4.51255e-05
4.51125e-05
4.51253e-05
4.5112e-05
4.84257e-05
4.83812e-05
4.51209e-05
4.50997e-05
4.51206e-05
4.51003e-05
4.51283e-05
4.51066e-05
4.51263e-05
4.84431e-05
4.84062e-05
4.51169e-05
4.51117e-05
4.51167e-05
4.83748e-05
4.84332e-05
4.83958e-05
4.51253e-05
4.5112e-05
4.51234e-05
4.51137e-05
4.8406e-05
4.84049e-05
4.51209e-05
4.51023e-05
4.51218e-05
4.51046e-05
4.51261e-05
4.51069e-05
4.51237e-05
4.84373e-05
4.84348e-05
4.51167e-05
4.51219e-05
4.51192e-05
4.83848e-05
4.84265e-05
4.83919e-05
4.51233e-05
4.51148e-05
4.51228e-05
4.51157e-05
4.84047e-05
4.8352e-05
4.51221e-05
4.51054e-05
4.5122e-05
4.51078e-05
4.51241e-05
4.51079e-05
4.51247e-05
4.84616e-05
4.84185e-05
4.51222e-05
4.51307e-05
4.51241e-05
4.84038e-05
4.84243e-05
4.84384e-05
4.51231e-05
4.51156e-05
4.51243e-05
4.51153e-05
4.83843e-05
4.83648e-05
4.51222e-05
4.511e-05
4.51241e-05
4.51105e-05
4.51256e-05
4.51094e-05
4.51279e-05
4.84444e-05
4.84363e-05
4.5124e-05
4.51358e-05
4.51219e-05
4.84074e-05
4.84689e-05
4.84321e-05
4.51248e-05
4.51159e-05
4.51257e-05
4.51161e-05
4.83973e-05
4.83731e-05
4.51261e-05
4.51117e-05
4.5133e-05
4.51161e-05
4.51286e-05
4.51101e-05
4.51291e-05
4.84608e-05
4.83867e-05
4.51221e-05
4.51375e-05
4.51221e-05
4.84342e-05
4.84572e-05
4.84623e-05
4.51272e-05
4.51171e-05
4.51285e-05
4.51183e-05
4.84046e-05
4.84145e-05
4.51357e-05
4.51183e-05
4.51396e-05
4.51214e-05
4.51305e-05
4.51123e-05
4.51327e-05
4.84146e-05
4.84115e-05
4.51226e-05
4.51352e-05
4.51238e-05
4.8431e-05
4.84852e-05
4.84679e-05
4.51297e-05
4.51193e-05
4.51314e-05
4.51206e-05
4.8444e-05
4.84399e-05
4.51423e-05
4.51247e-05
4.5143e-05
4.51267e-05
4.51334e-05
4.51162e-05
4.51352e-05
4.84392e-05
4.83828e-05
4.51242e-05
4.51345e-05
4.51264e-05
4.84551e-05
4.84918e-05
4.84471e-05
4.51323e-05
4.51229e-05
4.51356e-05
4.51234e-05
4.84651e-05
4.84153e-05
4.5144e-05
4.51292e-05
4.51448e-05
4.51287e-05
4.51377e-05
4.51173e-05
4.51411e-05
4.84121e-05
4.83633e-05
4.51297e-05
4.51327e-05
4.5135e-05
4.84449e-05
4.84704e-05
4.84558e-05
4.51381e-05
4.51232e-05
4.51403e-05
4.51216e-05
4.84405e-05
4.84308e-05
4.51448e-05
4.51293e-05
4.51413e-05
4.51287e-05
4.5144e-05
4.51188e-05
4.51451e-05
4.83948e-05
4.83768e-05
4.51386e-05
4.51306e-05
4.51416e-05
4.84388e-05
4.84793e-05
4.84054e-05
4.51416e-05
4.51223e-05