/*--------------------------------*- C++ -*----------------------------------*\
| =========                 |                                                 |
| \\      /  F ield         | OpenFOAM: The Open Source CFD Toolbox           |
|  \\    /   O peration     | Version:                                        |
|   \\  /    A nd           | Website:  www.openfoam.com                      |
|    \\/     M anipulation  |                                                 |
\*---------------------------------------------------------------------------*/
FoamFile
{
    version     2.0;
    format      ascii;
    class       volScalarField;
    location    "21100.5";
    object      p;
}
// * * * * * * * * * * * * * * * * * * * * * * * * * * * * * * * * * * * * * //

dimensions      [0 2 -2 0 0 0 0];


internalField   nonuniform List<scalar> 
247096
(
1.14791e-07
1.14794e-07
1.14938e-07
1.15024e-07
1.15057e-07
1.15015e-07
1.14924e-07
1.1477e-07
1.14794e-07
1.14993e-07
1.1517e-07
1.15262e-07
1.15285e-07
1.15255e-07
1.15151e-07
1.14969e-07
1.14938e-07
1.1517e-07
1.1531e-07
1.15352e-07
1.15358e-07
1.15349e-07
1.15299e-07
1.15142e-07
1.1491e-07
1.15024e-07
1.15262e-07
1.15352e-07
1.15363e-07
1.15362e-07
1.15364e-07
1.15347e-07
1.1524e-07
1.14991e-07
1.14791e-07
1.15057e-07
1.15285e-07
1.15358e-07
1.15362e-07
1.15359e-07
1.15363e-07
1.15355e-07
1.15266e-07
1.15022e-07
1.15015e-07
1.15255e-07
1.15349e-07
1.15364e-07
1.15363e-07
1.15363e-07
1.15344e-07
1.15233e-07
1.14982e-07
1.14924e-07
1.15151e-07
1.15299e-07
1.15347e-07
1.15355e-07
1.15344e-07
1.15288e-07
1.15124e-07
1.14898e-07
1.1477e-07
1.14969e-07
1.15142e-07
1.1524e-07
1.15266e-07
1.15233e-07
1.15124e-07
1.14946e-07
1.1491e-07
1.14991e-07
1.15022e-07
1.14982e-07
1.14898e-07
1.11979e-07
1.11954e-07
1.11963e-07
1.11815e-07
1.11827e-07
1.11846e-07
1.11826e-07
1.12012e-07
1.1195e-07
1.11963e-07
1.11835e-07
1.11632e-07
1.11649e-07
1.11649e-07
1.11632e-07
1.11892e-07
1.11838e-07
1.11815e-07
1.11632e-07
1.1167e-07
1.1169e-07
1.1169e-07
1.1167e-07
1.11632e-07
1.11955e-07
1.12001e-07
1.11979e-07
1.11827e-07
1.11649e-07
1.1169e-07
1.11713e-07
1.11713e-07
1.1169e-07
1.11649e-07
1.11984e-07
1.12018e-07
1.11954e-07
1.11846e-07
1.11649e-07
1.1169e-07
1.11713e-07
1.11713e-07
1.1169e-07
1.11649e-07
1.11986e-07
1.11843e-07
1.11826e-07
1.11632e-07
1.1167e-07
1.1169e-07
1.1169e-07
1.1167e-07
1.11632e-07
1.1198e-07
1.12028e-07
1.12012e-07
1.11892e-07
1.11632e-07
1.11649e-07
1.11649e-07
1.11632e-07
1.11974e-07
1.11897e-07
1.1201e-07
1.1195e-07
1.11838e-07
1.11955e-07
1.11983e-07
1.11986e-07
1.1198e-07
1.11897e-07
1.12021e-07
1.12001e-07
1.12018e-07
1.11843e-07
1.12028e-07
1.1201e-07
1.10196e-07
1.10188e-07
1.10196e-07
1.10067e-07
1.10066e-07
1.10077e-07
1.10068e-07
1.1023e-07
1.10187e-07
1.10196e-07
1.10061e-07
1.09826e-07
1.09834e-07
1.09834e-07
1.09826e-07
1.10084e-07
1.10079e-07
1.10067e-07
1.09826e-07
1.09846e-07
1.09857e-07
1.09857e-07
1.09846e-07
1.09826e-07
1.10128e-07
1.1022e-07
1.10196e-07
1.10066e-07
1.09834e-07
1.09857e-07
1.09871e-07
1.09871e-07
1.09857e-07
1.09834e-07
1.10132e-07
1.10217e-07
1.10188e-07
1.10077e-07
1.09834e-07
1.09857e-07
1.09871e-07
1.09871e-07
1.09857e-07
1.09834e-07
1.10131e-07
1.10086e-07
1.10068e-07
1.09826e-07
1.09846e-07
1.09857e-07
1.09857e-07
1.09846e-07
1.09826e-07
1.10135e-07
1.10225e-07
1.1023e-07
1.10084e-07
1.09826e-07
1.09834e-07
1.09834e-07
1.09826e-07
1.10116e-07
1.10107e-07
1.1023e-07
1.10187e-07
1.10079e-07
1.10128e-07
1.10132e-07
1.10131e-07
1.10135e-07
1.10107e-07
1.10233e-07
1.1022e-07
1.10217e-07
1.10086e-07
1.10225e-07
1.1023e-07
1.08589e-07
1.08581e-07
1.08589e-07
1.08466e-07
1.08464e-07
1.08473e-07
1.08467e-07
1.0862e-07
1.08582e-07
1.08589e-07
1.08461e-07
1.08251e-07
1.08257e-07
1.08257e-07
1.08251e-07
1.08485e-07
1.0848e-07
1.08466e-07
1.08251e-07
1.08263e-07
1.08269e-07
1.08269e-07
1.08263e-07
1.08251e-07
1.08525e-07
1.08613e-07
1.08589e-07
1.08464e-07
1.08257e-07
1.08269e-07
1.08277e-07
1.08277e-07
1.08269e-07
1.08257e-07
1.08529e-07
1.08611e-07
1.08581e-07
1.08473e-07
1.08257e-07
1.08269e-07
1.08277e-07
1.08277e-07
1.08269e-07
1.08257e-07
1.08528e-07
1.08485e-07
1.08467e-07
1.08251e-07
1.08263e-07
1.08269e-07
1.08269e-07
1.08263e-07
1.08251e-07
1.08531e-07
1.08618e-07
1.0862e-07
1.08485e-07
1.08251e-07
1.08257e-07
1.08257e-07
1.08251e-07
1.08512e-07
1.08505e-07
1.08621e-07
1.08582e-07
1.0848e-07
1.08525e-07
1.08529e-07
1.08528e-07
1.08531e-07
1.08505e-07
1.08625e-07
1.08613e-07
1.08611e-07
1.08485e-07
1.08618e-07
1.08621e-07
1.07142e-07
1.07133e-07
1.07141e-07
1.07024e-07
1.07022e-07
1.07028e-07
1.07024e-07
1.07168e-07
1.07136e-07
1.07141e-07
1.07019e-07
1.0683e-07
1.06833e-07
1.06833e-07
1.0683e-07
1.07041e-07
1.07038e-07
1.07024e-07
1.0683e-07
1.06838e-07
1.06841e-07
1.06841e-07
1.06838e-07
1.0683e-07
1.0708e-07
1.07165e-07
1.07142e-07
1.07022e-07
1.06833e-07
1.06841e-07
1.06846e-07
1.06846e-07
1.06841e-07
1.06833e-07
1.07081e-07
1.07163e-07
1.07133e-07
1.07028e-07
1.06833e-07
1.06841e-07
1.06846e-07
1.06846e-07
1.06841e-07
1.06833e-07
1.0708e-07
1.07043e-07
1.07024e-07
1.0683e-07
1.06838e-07
1.06841e-07
1.06841e-07
1.06838e-07
1.0683e-07
1.07083e-07
1.07168e-07
1.07168e-07
1.07041e-07
1.0683e-07
1.06833e-07
1.06833e-07
1.0683e-07
1.07066e-07
1.07061e-07
1.0717e-07
1.07136e-07
1.07038e-07
1.0708e-07
1.07081e-07
1.0708e-07
1.07083e-07
1.07061e-07
1.07175e-07
1.07165e-07
1.07163e-07
1.07043e-07
1.07168e-07
1.0717e-07
1.05823e-07
1.05814e-07
1.05822e-07
1.0571e-07
1.05706e-07
1.05711e-07
1.05708e-07
1.05846e-07
1.05818e-07
1.05822e-07
1.05704e-07
1.05531e-07
1.05533e-07
1.05533e-07
1.05531e-07
1.05726e-07
1.05724e-07
1.0571e-07
1.05531e-07
1.05536e-07
1.05538e-07
1.05538e-07
1.05536e-07
1.05531e-07
1.05764e-07
1.05845e-07
1.05823e-07
1.05706e-07
1.05533e-07
1.05538e-07
1.0554e-07
1.0554e-07
1.05538e-07
1.05533e-07
1.05765e-07
1.05843e-07
1.05814e-07
1.05711e-07
1.05533e-07
1.05538e-07
1.0554e-07
1.0554e-07
1.05538e-07
1.05533e-07
1.05763e-07
1.05728e-07
1.05708e-07
1.05531e-07
1.05536e-07
1.05538e-07
1.05538e-07
1.05536e-07
1.05531e-07
1.05766e-07
1.05848e-07
1.05846e-07
1.05726e-07
1.05531e-07
1.05533e-07
1.05533e-07
1.05531e-07
1.0575e-07
1.05745e-07
1.05849e-07
1.05818e-07
1.05724e-07
1.05764e-07
1.05765e-07
1.05763e-07
1.05766e-07
1.05745e-07
1.05855e-07
1.05845e-07
1.05843e-07
1.05728e-07
1.05848e-07
1.05849e-07
1.04585e-07
1.04576e-07
1.04584e-07
1.04475e-07
1.04471e-07
1.04475e-07
1.04472e-07
1.04607e-07
1.04581e-07
1.04584e-07
1.04468e-07
1.04306e-07
1.04307e-07
1.04307e-07
1.04306e-07
1.04491e-07
1.0449e-07
1.04475e-07
1.04306e-07
1.04309e-07
1.04309e-07
1.04309e-07
1.04309e-07
1.04306e-07
1.0453e-07
1.04607e-07
1.04585e-07
1.04471e-07
1.04307e-07
1.04309e-07
1.0431e-07
1.0431e-07
1.04309e-07
1.04307e-07
1.0453e-07
1.04605e-07
1.04576e-07
1.04475e-07
1.04307e-07
1.04309e-07
1.0431e-07
1.0431e-07
1.04309e-07
1.04307e-07
1.04528e-07
1.04493e-07
1.04472e-07
1.04306e-07
1.04309e-07
1.04309e-07
1.04309e-07
1.04309e-07
1.04306e-07
1.0453e-07
1.0461e-07
1.04607e-07
1.04491e-07
1.04306e-07
1.04307e-07
1.04307e-07
1.04306e-07
1.04516e-07
1.0451e-07
1.0461e-07
1.04581e-07
1.0449e-07
1.0453e-07
1.0453e-07
1.04528e-07
1.0453e-07
1.0451e-07
1.04617e-07
1.04607e-07
1.04605e-07
1.04493e-07
1.0461e-07
1.0461e-07
1.03385e-07
1.03376e-07
1.03384e-07
1.03276e-07
1.03272e-07
1.03276e-07
1.03273e-07
1.03407e-07
1.03381e-07
1.03384e-07
1.0327e-07
1.03111e-07
1.03112e-07
1.03112e-07
1.03111e-07
1.03293e-07
1.03291e-07
1.03276e-07
1.03111e-07
1.03114e-07
1.03113e-07
1.03113e-07
1.03114e-07
1.03111e-07
1.03332e-07
1.03408e-07
1.03385e-07
1.03272e-07
1.03112e-07
1.03113e-07
1.03113e-07
1.03113e-07
1.03113e-07
1.03112e-07
1.03331e-07
1.03405e-07
1.03376e-07
1.03276e-07
1.03112e-07
1.03113e-07
1.03113e-07
1.03113e-07
1.03113e-07
1.03112e-07
1.03329e-07
1.03295e-07
1.03273e-07
1.03111e-07
1.03114e-07
1.03113e-07
1.03113e-07
1.03114e-07
1.03111e-07
1.03331e-07
1.03409e-07
1.03407e-07
1.03293e-07
1.03111e-07
1.03112e-07
1.03112e-07
1.03111e-07
1.03317e-07
1.03311e-07
1.0341e-07
1.03381e-07
1.03291e-07
1.03332e-07
1.03331e-07
1.03329e-07
1.03331e-07
1.03311e-07
1.03418e-07
1.03408e-07
1.03405e-07
1.03295e-07
1.03409e-07
1.0341e-07
1.02198e-07
1.02189e-07
1.02197e-07
1.02089e-07
1.02085e-07
1.02089e-07
1.02087e-07
1.02219e-07
1.02194e-07
1.02197e-07
1.02083e-07
1.01925e-07
1.01926e-07
1.01926e-07
1.01925e-07
1.02106e-07
1.02105e-07
1.02089e-07
1.01925e-07
1.01928e-07
1.01927e-07
1.01927e-07
1.01928e-07
1.01925e-07
1.02145e-07
1.02221e-07
1.02198e-07
1.02085e-07
1.01926e-07
1.01927e-07
1.01927e-07
1.01927e-07
1.01927e-07
1.01926e-07
1.02145e-07
1.02218e-07
1.02189e-07
1.02089e-07
1.01926e-07
1.01927e-07
1.01927e-07
1.01927e-07
1.01927e-07
1.01926e-07
1.02143e-07
1.02108e-07
1.02087e-07
1.01925e-07
1.01928e-07
1.01927e-07
1.01927e-07
1.01928e-07
1.01925e-07
1.02145e-07
1.02222e-07
1.02219e-07
1.02106e-07
1.01925e-07
1.01926e-07
1.01926e-07
1.01925e-07
1.02131e-07
1.02124e-07
1.02223e-07
1.02194e-07
1.02105e-07
1.02145e-07
1.02145e-07
1.02143e-07
1.02145e-07
1.02124e-07
1.0223e-07
1.02221e-07
1.02218e-07
1.02108e-07
1.02222e-07
1.02223e-07
1.01014e-07
1.01005e-07
1.01013e-07
1.00905e-07
1.00901e-07
1.00905e-07
1.00902e-07
1.01035e-07
1.0101e-07
1.01013e-07
1.00899e-07
1.00741e-07
1.00742e-07
1.00742e-07
1.00741e-07
1.00922e-07
1.0092e-07
1.00905e-07
1.00741e-07
1.00744e-07
1.00743e-07
1.00743e-07
1.00744e-07
1.00741e-07
1.00961e-07
1.01036e-07
1.01014e-07
1.00901e-07
1.00742e-07
1.00743e-07
1.00742e-07
1.00742e-07
1.00743e-07
1.00742e-07
1.00961e-07
1.01034e-07
1.01005e-07
1.00905e-07
1.00742e-07
1.00743e-07
1.00742e-07
1.00742e-07
1.00743e-07
1.00742e-07
1.00959e-07
1.00924e-07
1.00902e-07
1.00741e-07
1.00744e-07
1.00743e-07
1.00743e-07
1.00744e-07
1.00741e-07
1.0096e-07
1.01038e-07
1.01035e-07
1.00922e-07
1.00741e-07
1.00742e-07
1.00742e-07
1.00741e-07
1.00946e-07
1.0094e-07
1.01039e-07
1.0101e-07
1.0092e-07
1.00961e-07
1.00961e-07
1.00959e-07
1.0096e-07
1.0094e-07
1.01046e-07
1.01036e-07
1.01034e-07
1.00924e-07
1.01038e-07
1.01039e-07
9.98302e-08
9.9821e-08
9.98288e-08
9.97213e-08
9.97169e-08
9.97209e-08
9.97185e-08
9.98513e-08
9.98261e-08
9.98288e-08
9.97149e-08
9.95573e-08
9.95577e-08
9.95577e-08
9.95573e-08
9.97383e-08
9.97365e-08
9.97213e-08
9.95573e-08
9.95604e-08
9.95592e-08
9.95592e-08
9.95604e-08
9.95573e-08
9.97774e-08
9.98525e-08
9.98302e-08
9.97169e-08
9.95577e-08
9.95592e-08
9.95585e-08
9.95585e-08
9.95592e-08
9.95577e-08
9.9777e-08
9.98502e-08
9.9821e-08
9.97209e-08
9.95577e-08
9.95592e-08
9.95585e-08
9.95585e-08
9.95592e-08
9.95577e-08
9.97748e-08
9.97401e-08
9.97185e-08
9.95573e-08
9.95604e-08
9.95592e-08
9.95592e-08
9.95604e-08
9.95573e-08
9.97765e-08
9.98543e-08
9.98513e-08
9.97383e-08
9.95573e-08
9.95577e-08
9.95577e-08
9.95573e-08
9.97626e-08
9.97562e-08
9.98547e-08
9.98261e-08
9.97365e-08
9.97774e-08
9.9777e-08
9.97748e-08
9.97765e-08
9.97563e-08
9.98624e-08
9.98525e-08
9.98502e-08
9.97401e-08
9.98543e-08
9.98547e-08
9.86462e-08
9.86371e-08
9.86449e-08
9.85373e-08
9.85329e-08
9.8537e-08
9.85345e-08
9.86673e-08
9.86422e-08
9.86449e-08
9.85309e-08
9.83733e-08
9.83737e-08
9.83737e-08
9.83733e-08
9.85543e-08
9.85525e-08
9.85373e-08
9.83733e-08
9.83764e-08
9.83752e-08
9.83752e-08
9.83764e-08
9.83733e-08
9.85934e-08
9.86685e-08
9.86462e-08
9.85329e-08
9.83737e-08
9.83752e-08
9.83744e-08
9.83744e-08
9.83752e-08
9.83737e-08
9.8593e-08
9.86662e-08
9.8637e-08
9.8537e-08
9.83737e-08
9.83752e-08
9.83744e-08
9.83744e-08
9.83752e-08
9.83737e-08
9.85908e-08
9.85561e-08
9.85345e-08
9.83733e-08
9.83764e-08
9.83752e-08
9.83752e-08
9.83764e-08
9.83733e-08
9.85926e-08
9.86703e-08
9.86673e-08
9.85543e-08
9.83733e-08
9.83737e-08
9.83737e-08
9.83733e-08
9.85786e-08
9.85723e-08
9.86707e-08
9.86422e-08
9.85525e-08
9.85934e-08
9.8593e-08
9.85908e-08
9.85925e-08
9.85723e-08
9.86784e-08
9.86685e-08
9.86662e-08
9.85561e-08
9.86703e-08
9.86707e-08
9.74622e-08
9.7453e-08
9.74608e-08
9.73532e-08
9.73489e-08
9.73529e-08
9.73505e-08
9.74833e-08
9.74581e-08
9.74608e-08
9.73469e-08
9.71892e-08
9.71897e-08
9.71897e-08
9.71892e-08
9.73703e-08
9.73685e-08
9.73533e-08
9.71892e-08
9.71924e-08
9.71911e-08
9.71911e-08
9.71924e-08
9.71892e-08
9.74094e-08
9.74845e-08
9.74622e-08
9.73489e-08
9.71897e-08
9.71911e-08
9.71904e-08
9.71904e-08
9.71911e-08
9.71897e-08
9.7409e-08
9.74822e-08
9.7453e-08
9.73529e-08
9.71897e-08
9.71911e-08
9.71904e-08
9.71904e-08
9.71911e-08
9.71897e-08
9.74068e-08
9.73721e-08
9.73505e-08
9.71892e-08
9.71924e-08
9.71911e-08
9.71911e-08
9.71924e-08
9.71892e-08
9.74085e-08
9.74863e-08
9.74833e-08
9.73703e-08
9.71892e-08
9.71897e-08
9.71897e-08
9.71892e-08
9.73946e-08
9.73882e-08
9.74867e-08
9.74581e-08
9.73685e-08
9.74094e-08
9.7409e-08
9.74068e-08
9.74085e-08
9.73883e-08
9.74944e-08
9.74845e-08
9.74822e-08
9.73721e-08
9.74863e-08
9.74867e-08
9.62782e-08
9.6269e-08
9.62768e-08
9.61692e-08
9.61649e-08
9.61689e-08
9.61665e-08
9.62993e-08
9.62741e-08
9.62768e-08
9.61629e-08
9.60052e-08
9.60057e-08
9.60057e-08
9.60052e-08
9.61863e-08
9.61845e-08
9.61692e-08
9.60052e-08
9.60084e-08
9.60071e-08
9.60071e-08
9.60084e-08
9.60052e-08
9.62254e-08
9.63005e-08
9.62781e-08
9.61649e-08
9.60057e-08
9.60071e-08
9.60064e-08
9.60064e-08
9.60071e-08
9.60057e-08
9.6225e-08
9.62982e-08
9.6269e-08
9.61689e-08
9.60057e-08
9.60071e-08
9.60064e-08
9.60064e-08
9.60071e-08
9.60057e-08
9.62228e-08
9.61881e-08
9.61665e-08
9.60052e-08
9.60084e-08
9.60071e-08
9.60071e-08
9.60084e-08
9.60052e-08
9.62245e-08
9.63023e-08
9.62993e-08
9.61863e-08
9.60052e-08
9.60057e-08
9.60057e-08
9.60052e-08
9.62106e-08
9.62042e-08
9.63027e-08
9.62741e-08
9.61845e-08
9.62254e-08
9.6225e-08
9.62228e-08
9.62245e-08
9.62042e-08
9.63104e-08
9.63005e-08
9.62982e-08
9.61881e-08
9.63023e-08
9.63027e-08
9.50941e-08
9.5085e-08
9.50928e-08
9.49852e-08
9.49809e-08
9.49849e-08
9.49824e-08
9.51153e-08
9.50901e-08
9.50928e-08
9.49788e-08
9.48212e-08
9.48217e-08
9.48217e-08
9.48212e-08
9.50022e-08
9.50005e-08
9.49852e-08
9.48212e-08
9.48244e-08
9.48231e-08
9.48231e-08
9.48244e-08
9.48212e-08
9.50414e-08
9.51164e-08
9.50941e-08
9.49809e-08
9.48217e-08
9.48231e-08
9.48224e-08
9.48224e-08
9.48231e-08
9.48217e-08
9.5041e-08
9.51142e-08
9.5085e-08
9.49849e-08
9.48217e-08
9.48231e-08
9.48224e-08
9.48224e-08
9.48231e-08
9.48217e-08
9.50388e-08
9.50041e-08
9.49824e-08
9.48212e-08
9.48244e-08
9.48231e-08
9.48231e-08
9.48244e-08
9.48212e-08
9.50405e-08
9.51183e-08
9.51153e-08
9.50022e-08
9.48212e-08
9.48217e-08
9.48217e-08
9.48212e-08
9.50265e-08
9.50202e-08
9.51186e-08
9.50901e-08
9.50004e-08
9.50414e-08
9.5041e-08
9.50388e-08
9.50405e-08
9.50202e-08
9.51263e-08
9.51164e-08
9.51142e-08
9.50041e-08
9.51183e-08
9.51186e-08
9.39101e-08
9.3901e-08
9.39088e-08
9.38012e-08
9.37968e-08
9.38009e-08
9.37984e-08
9.39313e-08
9.39061e-08
9.39088e-08
9.37948e-08
9.36372e-08
9.36376e-08
9.36376e-08
9.36372e-08
9.38182e-08
9.38164e-08
9.38012e-08
9.36372e-08
9.36404e-08
9.36391e-08
9.36391e-08
9.36404e-08
9.36372e-08
9.38573e-08
9.39324e-08
9.39101e-08
9.37968e-08
9.36376e-08
9.36391e-08
9.36384e-08
9.36384e-08
9.36391e-08
9.36376e-08
9.3857e-08
9.39302e-08
9.3901e-08
9.38009e-08
9.36376e-08
9.36391e-08
9.36384e-08
9.36384e-08
9.36391e-08
9.36376e-08
9.38548e-08
9.38201e-08
9.37984e-08
9.36372e-08
9.36404e-08
9.36391e-08
9.36391e-08
9.36404e-08
9.36372e-08
9.38565e-08
9.39343e-08
9.39313e-08
9.38182e-08
9.36372e-08
9.36376e-08
9.36376e-08
9.36372e-08
9.38425e-08
9.38362e-08
9.39346e-08
9.39061e-08
9.38164e-08
9.38573e-08
9.3857e-08
9.38548e-08
9.38565e-08
9.38362e-08
9.39423e-08
9.39324e-08
9.39301e-08
9.38201e-08
9.39343e-08
9.39346e-08
9.27261e-08
9.2717e-08
9.27248e-08
9.26172e-08
9.26128e-08
9.26169e-08
9.26144e-08
9.27472e-08
9.27221e-08
9.27248e-08
9.26108e-08
9.24532e-08
9.24536e-08
9.24536e-08
9.24532e-08
9.26342e-08
9.26324e-08
9.26172e-08
9.24532e-08
9.24563e-08
9.24551e-08
9.24551e-08
9.24563e-08
9.24532e-08
9.26733e-08
9.27484e-08
9.27261e-08
9.26128e-08
9.24536e-08
9.24551e-08
9.24544e-08
9.24543e-08
9.24551e-08
9.24536e-08
9.26729e-08
9.27461e-08
9.27169e-08
9.26169e-08
9.24536e-08
9.24551e-08
9.24544e-08
9.24543e-08
9.24551e-08
9.24536e-08
9.26707e-08
9.2636e-08
9.26144e-08
9.24532e-08
9.24563e-08
9.24551e-08
9.24551e-08
9.24563e-08
9.24532e-08
9.26725e-08
9.27502e-08
9.27472e-08
9.26342e-08
9.24532e-08
9.24536e-08
9.24536e-08
9.24532e-08
9.26585e-08
9.26522e-08
9.27506e-08
9.27221e-08
9.26324e-08
9.26733e-08
9.2673e-08
9.26707e-08
9.26725e-08
9.26522e-08
9.27583e-08
9.27484e-08
9.27461e-08
9.2636e-08
9.27502e-08
9.27506e-08
9.15421e-08
9.15329e-08
9.15407e-08
9.14331e-08
9.14288e-08
9.14328e-08
9.14304e-08
9.15632e-08
9.1538e-08
9.15407e-08
9.14268e-08
9.12691e-08
9.12696e-08
9.12696e-08
9.12691e-08
9.14502e-08
9.14484e-08
9.14332e-08
9.12691e-08
9.12723e-08
9.1271e-08
9.1271e-08
9.12723e-08
9.12691e-08
9.14893e-08
9.15644e-08
9.15421e-08
9.14288e-08
9.12696e-08
9.1271e-08
9.12703e-08
9.12703e-08
9.1271e-08
9.12696e-08
9.14889e-08
9.15621e-08
9.15329e-08
9.14328e-08
9.12696e-08
9.1271e-08
9.12703e-08
9.12703e-08
9.1271e-08
9.12696e-08
9.14867e-08
9.1452e-08
9.14304e-08
9.12691e-08
9.12723e-08
9.1271e-08
9.1271e-08
9.12723e-08
9.12691e-08
9.14884e-08
9.15662e-08
9.15632e-08
9.14502e-08
9.12691e-08
9.12696e-08
9.12696e-08
9.12691e-08
9.14745e-08
9.14681e-08
9.15666e-08
9.1538e-08
9.14484e-08
9.14893e-08
9.14889e-08
9.14867e-08
9.14884e-08
9.14682e-08
9.15743e-08
9.15644e-08
9.15621e-08
9.1452e-08
9.15662e-08
9.15666e-08
9.0358e-08
9.03489e-08
9.03567e-08
9.02491e-08
9.02448e-08
9.02488e-08
9.02464e-08
9.03792e-08
9.0354e-08
9.03567e-08
9.02428e-08
9.00851e-08
9.00856e-08
9.00856e-08
9.00851e-08
9.02662e-08
9.02644e-08
9.02491e-08
9.00851e-08
9.00883e-08
9.0087e-08
9.0087e-08
9.00883e-08
9.00851e-08
9.03053e-08
9.03804e-08
9.0358e-08
9.02448e-08
9.00856e-08
9.0087e-08
9.00863e-08
9.00863e-08
9.0087e-08
9.00856e-08
9.03049e-08
9.03781e-08
9.03489e-08
9.02488e-08
9.00856e-08
9.0087e-08
9.00863e-08
9.00863e-08
9.0087e-08
9.00856e-08
9.03027e-08
9.0268e-08
9.02464e-08
9.00851e-08
9.00883e-08
9.0087e-08
9.0087e-08
9.00883e-08
9.00851e-08
9.03044e-08
9.03822e-08
9.03792e-08
9.02662e-08
9.00851e-08
9.00856e-08
9.00856e-08
9.00851e-08
9.02905e-08
9.02841e-08
9.03826e-08
9.0354e-08
9.02644e-08
9.03053e-08
9.03049e-08
9.03027e-08
9.03044e-08
9.02841e-08
9.03903e-08
9.03804e-08
9.03781e-08
9.0268e-08
9.03822e-08
9.03826e-08
8.9174e-08
8.91649e-08
8.91727e-08
8.90651e-08
8.90608e-08
8.90648e-08
8.90623e-08
8.91952e-08
8.917e-08
8.91727e-08
8.90587e-08
8.89011e-08
8.89016e-08
8.89016e-08
8.89011e-08
8.90821e-08
8.90804e-08
8.90651e-08
8.89011e-08
8.89043e-08
8.8903e-08
8.8903e-08
8.89043e-08
8.89011e-08
8.91212e-08
8.91963e-08
8.9174e-08
8.90608e-08
8.89016e-08
8.8903e-08
8.89023e-08
8.89023e-08
8.8903e-08
8.89016e-08
8.91209e-08
8.91941e-08
8.91649e-08
8.90648e-08
8.89016e-08
8.8903e-08
8.89023e-08
8.89023e-08
8.8903e-08
8.89016e-08
8.91187e-08
8.9084e-08
8.90623e-08
8.89011e-08
8.89043e-08
8.8903e-08
8.8903e-08
8.89043e-08
8.89011e-08
8.91204e-08
8.91982e-08
8.91952e-08
8.90821e-08
8.89011e-08
8.89016e-08
8.89016e-08
8.89011e-08
8.91064e-08
8.91001e-08
8.91985e-08
8.917e-08
8.90804e-08
8.91213e-08
8.91209e-08
8.91187e-08
8.91204e-08
8.91001e-08
8.92062e-08
8.91963e-08
8.91941e-08
8.9084e-08
8.91982e-08
8.91985e-08
8.799e-08
8.79809e-08
8.79887e-08
8.78811e-08
8.78767e-08
8.78808e-08
8.78783e-08
8.80112e-08
8.7986e-08
8.79887e-08
8.78747e-08
8.77171e-08
8.77175e-08
8.77175e-08
8.77171e-08
8.78981e-08
8.78963e-08
8.78811e-08
8.77171e-08
8.77202e-08
8.7719e-08
8.7719e-08
8.77202e-08
8.77171e-08
8.79372e-08
8.80123e-08
8.799e-08
8.78767e-08
8.77175e-08
8.7719e-08
8.77183e-08
8.77183e-08
8.7719e-08
8.77175e-08
8.79369e-08
8.801e-08
8.79809e-08
8.78808e-08
8.77175e-08
8.7719e-08
8.77183e-08
8.77183e-08
8.7719e-08
8.77175e-08
8.79347e-08
8.79e-08
8.78783e-08
8.77171e-08
8.77202e-08
8.7719e-08
8.7719e-08
8.77202e-08
8.77171e-08
8.79364e-08
8.80142e-08
8.80111e-08
8.78981e-08
8.77171e-08
8.77175e-08
8.77175e-08
8.77171e-08
8.79224e-08
8.79161e-08
8.80145e-08
8.7986e-08
8.78963e-08
8.79372e-08
8.79369e-08
8.79347e-08
8.79364e-08
8.79161e-08
8.80222e-08
8.80123e-08
8.801e-08
8.79e-08
8.80142e-08
8.80145e-08
8.6806e-08
8.67968e-08
8.68047e-08
8.66971e-08
8.66927e-08
8.66968e-08
8.66943e-08
8.68271e-08
8.6802e-08
8.68047e-08
8.66907e-08
8.65331e-08
8.65335e-08
8.65335e-08
8.65331e-08
8.67141e-08
8.67123e-08
8.66971e-08
8.65331e-08
8.65362e-08
8.6535e-08
8.6535e-08
8.65362e-08
8.65331e-08
8.67532e-08
8.68283e-08
8.6806e-08
8.66927e-08
8.65335e-08
8.6535e-08
8.65342e-08
8.65342e-08
8.6535e-08
8.65335e-08
8.67528e-08
8.6826e-08
8.67968e-08
8.66967e-08
8.65335e-08
8.6535e-08
8.65342e-08
8.65342e-08
8.6535e-08
8.65335e-08
8.67506e-08
8.67159e-08
8.66943e-08
8.65331e-08
8.65362e-08
8.6535e-08
8.6535e-08
8.65362e-08
8.65331e-08
8.67523e-08
8.68301e-08
8.68271e-08
8.67141e-08
8.65331e-08
8.65335e-08
8.65335e-08
8.65331e-08
8.67384e-08
8.67321e-08
8.68305e-08
8.68019e-08
8.67123e-08
8.67532e-08
8.67529e-08
8.67506e-08
8.67523e-08
8.67321e-08
8.68382e-08
8.68283e-08
8.6826e-08
8.67159e-08
8.68301e-08
8.68305e-08
8.5622e-08
8.56128e-08
8.56206e-08
8.5513e-08
8.55087e-08
8.55127e-08
8.55103e-08
8.56431e-08
8.56179e-08
8.56206e-08
8.55067e-08
8.5349e-08
8.53495e-08
8.53495e-08
8.5349e-08
8.55301e-08
8.55283e-08
8.55131e-08
8.5349e-08
8.53522e-08
8.5351e-08
8.5351e-08
8.53522e-08
8.5349e-08
8.55692e-08
8.56443e-08
8.5622e-08
8.55087e-08
8.53495e-08
8.5351e-08
8.53502e-08
8.53502e-08
8.5351e-08
8.53495e-08
8.55688e-08
8.5642e-08
8.56128e-08
8.55127e-08
8.53495e-08
8.5351e-08
8.53502e-08
8.53502e-08
8.5351e-08
8.53495e-08
8.55666e-08
8.55319e-08
8.55103e-08
8.5349e-08
8.53522e-08
8.5351e-08
8.5351e-08
8.53522e-08
8.5349e-08
8.55683e-08
8.56461e-08
8.56431e-08
8.55301e-08
8.5349e-08
8.53495e-08
8.53495e-08
8.5349e-08
8.55544e-08
8.5548e-08
8.56465e-08
8.56179e-08
8.55283e-08
8.55692e-08
8.55688e-08
8.55666e-08
8.55683e-08
8.55481e-08
8.56542e-08
8.56443e-08
8.5642e-08
8.55319e-08
8.56461e-08
8.56465e-08
8.4438e-08
8.44288e-08
8.44366e-08
8.4329e-08
8.43247e-08
8.43287e-08
8.43263e-08
8.44591e-08
8.44339e-08
8.44366e-08
8.43227e-08
8.4165e-08
8.41655e-08
8.41655e-08
8.4165e-08
8.43461e-08
8.43443e-08
8.4329e-08
8.4165e-08
8.41682e-08
8.41669e-08
8.41669e-08
8.41682e-08
8.4165e-08
8.43852e-08
8.44603e-08
8.4438e-08
8.43247e-08
8.41655e-08
8.41669e-08
8.41662e-08
8.41662e-08
8.41669e-08
8.41655e-08
8.43848e-08
8.4458e-08
8.44288e-08
8.43287e-08
8.41655e-08
8.41669e-08
8.41662e-08
8.41662e-08
8.41669e-08
8.41655e-08
8.43826e-08
8.43479e-08
8.43263e-08
8.4165e-08
8.41682e-08
8.41669e-08
8.41669e-08
8.41682e-08
8.4165e-08
8.43843e-08
8.44621e-08
8.44591e-08
8.43461e-08
8.4165e-08
8.41655e-08
8.41655e-08
8.4165e-08
8.43704e-08
8.4364e-08
8.44625e-08
8.44339e-08
8.43443e-08
8.43852e-08
8.43848e-08
8.43826e-08
8.43843e-08
8.4364e-08
8.44702e-08
8.44603e-08
8.4458e-08
8.43479e-08
8.44621e-08
8.44625e-08
8.32539e-08
8.32448e-08
8.32526e-08
8.3145e-08
8.31407e-08
8.31447e-08
8.31423e-08
8.32751e-08
8.32499e-08
8.32526e-08
8.31387e-08
8.2981e-08
8.29815e-08
8.29815e-08
8.2981e-08
8.31621e-08
8.31603e-08
8.3145e-08
8.2981e-08
8.29842e-08
8.29829e-08
8.29829e-08
8.29842e-08
8.2981e-08
8.32012e-08
8.32762e-08
8.32539e-08
8.31407e-08
8.29815e-08
8.29829e-08
8.29822e-08
8.29822e-08
8.29829e-08
8.29815e-08
8.32008e-08
8.3274e-08
8.32448e-08
8.31447e-08
8.29815e-08
8.29829e-08
8.29822e-08
8.29822e-08
8.29829e-08
8.29815e-08
8.31986e-08
8.31639e-08
8.31423e-08
8.2981e-08
8.29842e-08
8.29829e-08
8.29829e-08
8.29842e-08
8.2981e-08
8.32003e-08
8.32781e-08
8.32751e-08
8.3162e-08
8.2981e-08
8.29815e-08
8.29815e-08
8.2981e-08
8.31864e-08
8.318e-08
8.32785e-08
8.32499e-08
8.31603e-08
8.32012e-08
8.32008e-08
8.31986e-08
8.32003e-08
8.318e-08
8.32861e-08
8.32763e-08
8.3274e-08
8.31639e-08
8.32781e-08
8.32785e-08
8.20699e-08
8.20608e-08
8.20686e-08
8.1961e-08
8.19567e-08
8.19607e-08
8.19582e-08
8.20911e-08
8.20659e-08
8.20686e-08
8.19546e-08
8.1797e-08
8.17975e-08
8.17975e-08
8.1797e-08
8.1978e-08
8.19763e-08
8.1961e-08
8.1797e-08
8.18002e-08
8.17989e-08
8.17989e-08
8.18002e-08
8.1797e-08
8.20172e-08
8.20922e-08
8.20699e-08
8.19567e-08
8.17975e-08
8.17989e-08
8.17982e-08
8.17982e-08
8.17989e-08
8.17975e-08
8.20168e-08
8.209e-08
8.20608e-08
8.19607e-08
8.17975e-08
8.17989e-08
8.17982e-08
8.17982e-08
8.17989e-08
8.17975e-08
8.20146e-08
8.19799e-08
8.19582e-08
8.1797e-08
8.18002e-08
8.17989e-08
8.17989e-08
8.18002e-08
8.1797e-08
8.20163e-08
8.20941e-08
8.20911e-08
8.1978e-08
8.1797e-08
8.17975e-08
8.17975e-08
8.1797e-08
8.20023e-08
8.1996e-08
8.20944e-08
8.20659e-08
8.19763e-08
8.20172e-08
8.20168e-08
8.20146e-08
8.20163e-08
8.1996e-08
8.21021e-08
8.20922e-08
8.209e-08
8.19799e-08
8.20941e-08
8.20944e-08
8.08859e-08
8.08768e-08
8.08846e-08
8.0777e-08
8.07726e-08
8.07767e-08
8.07742e-08
8.09071e-08
8.08819e-08
8.08846e-08
8.07706e-08
8.0613e-08
8.06134e-08
8.06134e-08
8.0613e-08
8.0794e-08
8.07922e-08
8.0777e-08
8.0613e-08
8.06162e-08
8.06149e-08
8.06149e-08
8.06162e-08
8.0613e-08
8.08331e-08
8.09082e-08
8.08859e-08
8.07726e-08
8.06134e-08
8.06149e-08
8.06142e-08
8.06142e-08
8.06149e-08
8.06134e-08
8.08328e-08
8.0906e-08
8.08768e-08
8.07767e-08
8.06134e-08
8.06149e-08
8.06142e-08
8.06142e-08
8.06149e-08
8.06134e-08
8.08306e-08
8.07959e-08
8.07742e-08
8.0613e-08
8.06162e-08
8.06149e-08
8.06149e-08
8.06162e-08
8.0613e-08
8.08323e-08
8.09101e-08
8.09071e-08
8.0794e-08
8.0613e-08
8.06134e-08
8.06134e-08
8.0613e-08
8.08183e-08
8.0812e-08
8.09104e-08
8.08819e-08
8.07922e-08
8.08331e-08
8.08328e-08
8.08306e-08
8.08323e-08
8.0812e-08
8.09181e-08
8.09082e-08
8.09059e-08
8.07959e-08
8.09101e-08
8.09104e-08
7.97019e-08
7.96928e-08
7.97006e-08
7.9593e-08
7.95886e-08
7.95927e-08
7.95902e-08
7.9723e-08
7.96979e-08
7.97006e-08
7.95866e-08
7.9429e-08
7.94294e-08
7.94294e-08
7.9429e-08
7.961e-08
7.96082e-08
7.9593e-08
7.9429e-08
7.94321e-08
7.94309e-08
7.94309e-08
7.94321e-08
7.9429e-08
7.96491e-08
7.97242e-08
7.97019e-08
7.95886e-08
7.94294e-08
7.94309e-08
7.94302e-08
7.94302e-08
7.94309e-08
7.94294e-08
7.96487e-08
7.97219e-08
7.96927e-08
7.95927e-08
7.94294e-08
7.94309e-08
7.94302e-08
7.94302e-08
7.94309e-08
7.94294e-08
7.96465e-08
7.96118e-08
7.95902e-08
7.9429e-08
7.94321e-08
7.94309e-08
7.94309e-08
7.94321e-08
7.9429e-08
7.96483e-08
7.9726e-08
7.9723e-08
7.961e-08
7.9429e-08
7.94294e-08
7.94294e-08
7.9429e-08
7.96343e-08
7.9628e-08
7.97264e-08
7.96979e-08
7.96082e-08
7.96491e-08
7.96488e-08
7.96465e-08
7.96482e-08
7.9628e-08
7.97341e-08
7.97242e-08
7.97219e-08
7.96118e-08
7.9726e-08
7.97264e-08
7.85179e-08
7.85087e-08
7.85166e-08
7.8409e-08
7.84046e-08
7.84086e-08
7.84062e-08
7.8539e-08
7.85138e-08
7.85165e-08
7.84026e-08
7.8245e-08
7.82454e-08
7.82454e-08
7.8245e-08
7.8426e-08
7.84242e-08
7.8409e-08
7.8245e-08
7.82481e-08
7.82469e-08
7.82469e-08
7.82481e-08
7.8245e-08
7.84651e-08
7.85402e-08
7.85179e-08
7.84046e-08
7.82454e-08
7.82469e-08
7.82461e-08
7.82461e-08
7.82469e-08
7.82454e-08
7.84647e-08
7.85379e-08
7.85087e-08
7.84086e-08
7.82454e-08
7.82469e-08
7.82461e-08
7.82461e-08
7.82469e-08
7.82454e-08
7.84625e-08
7.84278e-08
7.84062e-08
7.8245e-08
7.82481e-08
7.82469e-08
7.82469e-08
7.82481e-08
7.8245e-08
7.84642e-08
7.8542e-08
7.8539e-08
7.8426e-08
7.8245e-08
7.82454e-08
7.82454e-08
7.8245e-08
7.84503e-08
7.8444e-08
7.85424e-08
7.85138e-08
7.84242e-08
7.84651e-08
7.84647e-08
7.84625e-08
7.84642e-08
7.8444e-08
7.85501e-08
7.85402e-08
7.85379e-08
7.84278e-08
7.8542e-08
7.85424e-08
7.73339e-08
7.73247e-08
7.73325e-08
7.72249e-08
7.72206e-08
7.72246e-08
7.72222e-08
7.7355e-08
7.73298e-08
7.73325e-08
7.72186e-08
7.70609e-08
7.70614e-08
7.70614e-08
7.70609e-08
7.7242e-08
7.72402e-08
7.7225e-08
7.7061e-08
7.70641e-08
7.70629e-08
7.70629e-08
7.70641e-08
7.7061e-08
7.72811e-08
7.73562e-08
7.73339e-08
7.72206e-08
7.70614e-08
7.70629e-08
7.70621e-08
7.70621e-08
7.70629e-08
7.70614e-08
7.72807e-08
7.73539e-08
7.73247e-08
7.72246e-08
7.70614e-08
7.70629e-08
7.70621e-08
7.70621e-08
7.70629e-08
7.70614e-08
7.72785e-08
7.72438e-08
7.72222e-08
7.7061e-08
7.70641e-08
7.70629e-08
7.70629e-08
7.70641e-08
7.7061e-08
7.72802e-08
7.7358e-08
7.7355e-08
7.7242e-08
7.7061e-08
7.70614e-08
7.70614e-08
7.7061e-08
7.72663e-08
7.72599e-08
7.73584e-08
7.73298e-08
7.72402e-08
7.72811e-08
7.72807e-08
7.72785e-08
7.72802e-08
7.726e-08
7.73661e-08
7.73562e-08
7.73539e-08
7.72438e-08
7.7358e-08
7.73584e-08
7.61499e-08
7.61407e-08
7.61485e-08
7.60409e-08
7.60366e-08
7.60406e-08
7.60382e-08
7.6171e-08
7.61458e-08
7.61485e-08
7.60346e-08
7.58769e-08
7.58774e-08
7.58774e-08
7.58769e-08
7.6058e-08
7.60562e-08
7.60409e-08
7.58769e-08
7.58801e-08
7.58789e-08
7.58788e-08
7.58801e-08
7.58769e-08
7.60971e-08
7.61722e-08
7.61499e-08
7.60366e-08
7.58774e-08
7.58788e-08
7.58781e-08
7.58781e-08
7.58788e-08
7.58774e-08
7.60967e-08
7.61699e-08
7.61407e-08
7.60406e-08
7.58774e-08
7.58788e-08
7.58781e-08
7.58781e-08
7.58789e-08
7.58774e-08
7.60945e-08
7.60598e-08
7.60382e-08
7.58769e-08
7.58801e-08
7.58788e-08
7.58788e-08
7.58801e-08
7.58769e-08
7.60962e-08
7.6174e-08
7.6171e-08
7.6058e-08
7.58769e-08
7.58774e-08
7.58774e-08
7.58769e-08
7.60823e-08
7.60759e-08
7.61744e-08
7.61458e-08
7.60562e-08
7.60971e-08
7.60967e-08
7.60945e-08
7.60962e-08
7.6076e-08
7.61821e-08
7.61722e-08
7.61699e-08
7.60598e-08
7.6174e-08
7.61744e-08
7.49659e-08
7.49567e-08
7.49645e-08
7.48569e-08
7.48526e-08
7.48566e-08
7.48542e-08
7.4987e-08
7.49618e-08
7.49645e-08
7.48506e-08
7.46929e-08
7.46934e-08
7.46934e-08
7.46929e-08
7.4874e-08
7.48722e-08
7.48569e-08
7.46929e-08
7.46961e-08
7.46948e-08
7.46948e-08
7.46961e-08
7.46929e-08
7.49131e-08
7.49882e-08
7.49659e-08
7.48526e-08
7.46934e-08
7.46948e-08
7.46941e-08
7.46941e-08
7.46948e-08
7.46934e-08
7.49127e-08
7.49859e-08
7.49567e-08
7.48566e-08
7.46934e-08
7.46948e-08
7.46941e-08
7.46941e-08
7.46948e-08
7.46934e-08
7.49105e-08
7.48758e-08
7.48542e-08
7.46929e-08
7.46961e-08
7.46948e-08
7.46948e-08
7.46961e-08
7.46929e-08
7.49122e-08
7.499e-08
7.4987e-08
7.4874e-08
7.46929e-08
7.46934e-08
7.46934e-08
7.46929e-08
7.48983e-08
7.48919e-08
7.49904e-08
7.49618e-08
7.48722e-08
7.49131e-08
7.49127e-08
7.49105e-08
7.49122e-08
7.48919e-08
7.49981e-08