/*--------------------------------*- C++ -*----------------------------------*\
| =========                 |                                                 |
| \\      /  F ield         | OpenFOAM: The Open Source CFD Toolbox           |
|  \\    /   O peration     | Version:  2312                                  |
|   \\  /    A nd           | Website:  www.openfoam.com                      |
|    \\/     M anipulation  |                                                 |
\*---------------------------------------------------------------------------*/
FoamFile
{
    version     2.0;
    format      ascii;
    arch        "LSB;label=32;scalar=64";
    class       volScalarField;
    location    "450";
    object      p;
}
// * * * * * * * * * * * * * * * * * * * * * * * * * * * * * * * * * * * * * //

dimensions      [0 2 -2 0 0 0 0];

internalField   nonuniform List<scalar> 
43496
(
0.000734956
0.000734957
0.000737119
0.000734993
0.000735038
0.00073714
0.000734956
0.000734958
0.000735038
0.000737119
0.00073714
0.000734994
0.000735508
0.000734951
0.000734951
0.000734957
0.000734958
0.000739269
0.000739247
0.000734955
0.00073495
0.00073925
0.000739267
0.00073495
0.00073927
0.000734946
0.000739263
0.000734954
0.000739266
0.000739269
0.000739247
0.00073495
0.000734955
0.000739267
0.00073925
0.00073495
0.00073927
0.000734945
0.000739258
0.000739263
0.000734954
0.000739272
0.000734952
0.000734952
0.000739276
0.000739276
0.000734943
0.000739235
0.000734959
0.000739258
0.000735004
0.000739261
0.000739202
0.000734974
0.000739235
0.000734959
0.000739258
0.000735005
0.000739201
0.000739261
0.000734974
0.000739266
0.000739259
0.000737206
0.000737173
0.000737206
0.000739211
0.000735155
0.000739063
0.000738931
0.000739163
0.000735035
0.000735275
0.000739167
0.000738934
0.00073528
0.000738959
0.00073502
0.000739181
0.000735241
0.000738932
0.000739163
0.000735275
0.000735036
0.000738934
0.000739167
0.00073528
0.000738959
0.00073502
0.000739211
0.000735155
0.000739181
0.000735241
0.000739063
0.000739133
0.000738693
0.00073525
0.00073525
0.000738972
0.000738971
0.000735076
0.000781316
0.000781259
0.000781258
0.00078283
0.000746005
0.000745949
0.00074595
0.000747524
0.000782829
0.000753168
0.000781258
0.000781259
0.000754779
0.000754779
0.000782829
0.000753168
0.000781258
0.000781258
0.000754779
0.000754779
0.000781258
0.000754779
0.000754779
0.000782829
0.000753168
0.000781258
0.000754779
0.000754779
0.000753168
0.000747523
0.00074595
0.00074595
0.000747522
0.00074595
0.00074595
0.00074595
0.000747523
0.00074595
0.000770268
0.000783391
0.00077027
0.000783379
0.000783398
0.000770268
0.000770268
0.000783391
0.00077027
0.000783379
0.000781316
0.000781316
0.000781316
0.000754834
0.000754834
0.000754834
0.000754834
0.000770352
0.000783344
0.00078128
0.000772433
0.000770306
0.000772455
0.000783296
0.000783398
0.000770268
0.000770352
0.00078128
0.000783344
0.000772433
0.000772455
0.000770306
0.000783296
0.000783391
0.000783391
0.000770822
0.000770263
0.000770263
0.000748088
0.000748076
0.000748095
0.000748088
0.000748076
0.000746004
0.000746004
0.000746004
0.000735038
0.00074804
0.000745971
0.000747992
0.000737139
0.000748095
0.000735038
0.00074597
0.000748041
0.000747992
0.000737139
0.000748087
0.000748088
0.000735508
0.000734951
0.000734951
0.000783398
0.000770269
0.000783398
0.000770269
0.000783391
0.000783391
0.000770822
0.000770263
0.000770263
0.000752616
0.000765749
0.000752616
0.00076575
0.000765179
0.00075261
0.00075261
0.000765742
0.000765742
0.000770268
0.000783391
0.00077027
0.000783379
0.000770351
0.000783344
0.00078128
0.000772433
0.000770306
0.000772455
0.000783296
0.000770351
0.000783344
0.00078128
0.000772433
0.000770306
0.000772455
0.000783296
0.00076573
0.000752617
0.000765742
0.000752615
0.00076573
0.000752617
0.000765742
0.000752615
0.000765647
0.000763607
0.000752652
0.0007548
0.000765695
0.000763628
0.000752698
0.000765647
0.000763607
0.000752653
0.0007548
0.000765694
0.000763628
0.000752698
0.00078339
0.000783391
0.000770822
0.000770264
0.000770263
0.000783398
0.000770269
0.000752615
0.000765749
0.000765178
0.00075261
0.00075261
0.000765741
0.000765742
0.000752616
0.000765749
0.000770351
0.000783344
0.00078128
0.000772433
0.000770306
0.000772455
0.000783297
0.000770268
0.000783391
0.000770269
0.000783379
0.000770351
0.00078128
0.000783344
0.000772433
0.000772455
0.000770305
0.000783296
0.00076573
0.000752617
0.000765742
0.000752615
0.000765647
0.000763607
0.000752652
0.0007548
0.000765695
0.000763628
0.000752698
0.00076573
0.000752616
0.000765742
0.000752615
0.000765647
0.000763607
0.0007548
0.000752652
0.000763628
0.000765695
0.000752698
0.000770268
0.000783391
0.00077027
0.000783379
0.000770351
0.00078128
0.000783344
0.000772433
0.000772455
0.000770306
0.000783297
0.000770268
0.000783391
0.00077027
0.000783379
0.000765647
0.000763607
0.000752652
0.0007548
0.000765695
0.000763628
0.000752698
0.00076573
0.000752617
0.000765742
0.000752615
0.000765647
0.000763607
0.0007548
0.000752652
0.000763628
0.000765695
0.000752698
0.00076573
0.000752617
0.000765742
0.000752615
0.000783391
0.000783391
0.000770822
0.000770263
0.000770263
0.000783398
0.000770269
0.000752615
0.000765749
0.000765179
0.00075261
0.00075261
0.000765742
0.000765742
0.000752616
0.00076575
0.000770352
0.00078128
0.000783344
0.000772433
0.000772455
0.000770306
0.000783296
0.000770268
0.000783391
0.00077027
0.000783379
0.000770269
0.000783391
0.00077027
0.000783379
0.000765647
0.000763607
0.0007548
0.000752652
0.000763628
0.000765695
0.000752698
0.000765647
0.000763607
0.0007548
0.000752652
0.000763628
0.000765695
0.000752698
0.00076573
0.000752617
0.000765742
0.000752615
0.00076573
0.000752617
0.000765742
0.000752616
0.000783398
0.000770269
0.000783398
0.000770269
0.000765179
0.00075261
0.00075261
0.000765742
0.000765742
0.000752616
0.00076575
0.000752616
0.000765749
0.000748095
0.000748095
0.000748087
0.000748088
0.000748088
0.000748076
0.00074804
0.00074597
0.000747992
0.00074804
0.00074597
0.000747992
0.000748087
0.000748087
0.000748095
0.000748041
0.000745971
0.000747992
0.000748088
0.000748076
0.000745971
0.000748041
0.000747992
0.000734956
0.000748088
0.000748075
0.000735038
0.00074597
0.000748041
0.00073712
0.000747992
0.000737139
0.000734993
0.000734956
0.000748088
0.000748076
0.000734958
0.000748088
0.000748088
0.000748095
0.000735038
0.000745971
0.000748041
0.000737121
0.000747992
0.000737139
0.000734994
0.000734956
0.000748088
0.000748076
0.000734956
0.000748088
0.000748075
0.000734958
0.000748095
0.000734957
0.000748095
0.000734957
0.000774577
0.000770261
0.000770266
0.000774556
0.000774575
0.000774559
0.000770262
0.00077909
0.000779094
0.000783395
0.000779081
0.000783403
0.000774579
0.000770257
0.000774567
0.000774572
0.000770266
0.000779086
0.000779092
0.000783399
0.000783382
0.000779086
0.000779091
0.000783401
0.000779093
0.000774574
0.000774577
0.000770266
0.000770261
0.000774556
0.000774559
0.000774575
0.000770262
0.00077909
0.000779094
0.000783395
0.000779081
0.000783403
0.000774579
0.000770257
0.000774567
0.000774572
0.000770266
0.000779086
0.000779092
0.000783382
0.000783399
0.000779091
0.000779086
0.000783401
0.000779093
0.000774575
0.000774581
0.000770264
0.000770264
0.000774585
0.000774585
0.000770255
0.000779111
0.000783335
0.000779088
0.000783394
0.000779142
0.000779096
0.000783368
0.000779111
0.000783335
0.000779088
0.000783394
0.000779142
0.000779096
0.000783368
0.000774544
0.000770271
0.000774567
0.000770317
0.000774511
0.00077457
0.000770287
0.000774544
0.000770271
0.000774567
0.000770317
0.000774511
0.00077457
0.000770287
0.000779079
0.000783408
0.000783408
0.000779089
0.000779089
0.000783405
0.000743784
0.000748092
0.000743788
0.0007481
0.000743775
0.00074378
0.000743786
0.000748096
0.000748079
0.000748098
0.00074378
0.000743785
0.000743787
0.000743784
0.000748092
0.000743788
0.0007481
0.000743775
0.00074378
0.000743786
0.000748079
0.000748096
0.000748098
0.000743785
0.00074378
0.000743787
0.000739272
0.000734952
0.000734952
0.000739275
0.000739276
0.000734943
0.000743805
0.000748031
0.000748091
0.000743781
0.000748064
0.000743835
0.00074379
0.000743805
0.000748031
0.000748091
0.000743781
0.000748064
0.000743835
0.000743789
0.000743773
0.000748105
0.000748105
0.000748102
0.000743782
0.000743782
0.000739234
0.000734959
0.000739258
0.000735005
0.0007392
0.000739261
0.000734975
0.000739234
0.000734959
0.000739258
0.000735004
0.000739201
0.000739261
0.000734974
0.000779093
0.000774574
0.000779093
0.000774575
0.000774581
0.000770264
0.000770264
0.000774585
0.000774585
0.000770255
0.000779112
0.000783334
0.000779088
0.000783394
0.000779096
0.000779142
0.000783367
0.000779112
0.000783335
0.000779088
0.000783394
0.000779096
0.000779142
0.000783367
0.000774543
0.000770271
0.000774567
0.000770317
0.00077457
0.000770287
0.00077451
0.000774544
0.000770271
0.000774567
0.000770317
0.00077457
0.000770287
0.000774511
0.000779079
0.000783408
0.000783408
0.000779089
0.000779089
0.000783405
0.000756923
0.000761443
0.000756923
0.000761443
0.000761429
0.000765759
0.000765759
0.000765756
0.000761438
0.000761438
0.000756892
0.000752664
0.000756915
0.000752618
0.000756919
0.000756858
0.000752634
0.000756892
0.000752664
0.000756916
0.000752618
0.000756919
0.000756859
0.000752634
0.000761461
0.000765745
0.000765685
0.000761438
0.000765718
0.000761445
0.000761491
0.000761461
0.000765745
0.000765685
0.000761437
0.000765718
0.000761445
0.000761491
0.00075693
0.000752611
0.000752611
0.000756933
0.000756933
0.000752602
0.000774577
0.000770261
0.000770266
0.000774556
0.000774575
0.000774559
0.000770261
0.00077909
0.000779094
0.000783395
0.000779081
0.000783403
0.000774579
0.000770257
0.000774567
0.000774572
0.000770266
0.000779086
0.000779092
0.000783399
0.000783382
0.000779086
0.000779091
0.000783401
0.000761436
0.00076575
0.000765733
0.000761442
0.000765752
0.000761436
0.00076144
0.000756927
0.000756916
0.000752604
0.000752613
0.00075692
0.00076144
0.000765746
0.000761444
0.000765754
0.000761431
0.000756926
0.000756904
0.000752608
0.000752613
0.000752608
0.000756924
0.000756907
0.000761436
0.00076575
0.000765733
0.000761442
0.000765752
0.000761436
0.00076144
0.000756927
0.000756916
0.000752604
0.00075692
0.000752613
0.00076144
0.000765746
0.000761444
0.000765754
0.000761431
0.000756926
0.000756904
0.000752608
0.000752613
0.000756924
0.000756907
0.000752609
0.000774581
0.000770264
0.000770264
0.000774584
0.000774584
0.000770255
0.000779111
0.000783334
0.000779088
0.000783394
0.000779096
0.000779142
0.000783367
0.000779112
0.000783334
0.000779088
0.000783394
0.000779142
0.000779096
0.000783367
0.000774544
0.000770271
0.000774567
0.000770317
0.00077457
0.00077451
0.000770287
0.000774543
0.000770271
0.000774567
0.000770317
0.00077451
0.00077457
0.000770287
0.000779079
0.000783408
0.000783408
0.000779089
0.000779089
0.000783405
0.000779093
0.000774574
0.000756923
0.000761443
0.000761429
0.000765759
0.000765759
0.000765756
0.000761438
0.000761438
0.000756892
0.000752664
0.000756915
0.000752618
0.000756858
0.000756918
0.000752633
0.000756892
0.000752664
0.000756915
0.000752618
0.000756918
0.000756858
0.000752634
0.000761461
0.000765745
0.000765685
0.000761438
0.000761491
0.000765718
0.000761445
0.000761461
0.000765745
0.000765685
0.000761437
0.000765718
0.000761445
0.000761491
0.000756929
0.000752611
0.000752611
0.000756933
0.000756933
0.000752602
0.000756923
0.000761443
0.000774577
0.000770261
0.000770266
0.000774556
0.000774575
0.000774559
0.000770261
0.00077909
0.000779094
0.000783395
0.000779081
0.000783403
0.000774579
0.000770257
0.000774567
0.000774572
0.000770265
0.000779086
0.000779092
0.000783399
0.000783382
0.000779086
0.000779091
0.000783401
0.000761436
0.000765733
0.00076575
0.000761442
0.000765752
0.000761441
0.000761436
0.000756928
0.000756916
0.000752604
0.000752613
0.00075692
0.00076144
0.000765747
0.000761444
0.000765754
0.000761431
0.000756926
0.000756904
0.000752613
0.000752609
0.000752609
0.000756907
0.000756924
0.000761436
0.00076575
0.000765734
0.000761442
0.000765752
0.000761436
0.00076144
0.000756927
0.000756916
0.000752604
0.00075692
0.000752613
0.00076144
0.000765747
0.000761444
0.000765754
0.000761431
0.000756926
0.000756904
0.000752609
0.000752613
0.000756924
0.000756907
0.000752609
0.000774577
0.000770267
0.000770262
0.000774555
0.000774558
0.000774575
0.000770262
0.00077909
0.000779094
0.000783395
0.000779082
0.000783403
0.000774579
0.000770257
0.000774567
0.000774571
0.000770266
0.000779086
0.000779093
0.000783381
0.000783399
0.000779092
0.000779086
0.000783401
0.000774577
0.000770261
0.000770266
0.000774555
0.000774575
0.000774559
0.000770262
0.00077909
0.000779094
0.000783396
0.000779082
0.000783403
0.000774579
0.000770257
0.000774567
0.000774572
0.000770266
0.000779086
0.000779092
0.000783399
0.000783382
0.000779086
0.000779091
0.000783401
0.000761436
0.000765732
0.00076575
0.000761442
0.000765752
0.000761441
0.000761436
0.000756927
0.000756916
0.000752604
0.000756919
0.000752613
0.00076144
0.000765746
0.000761444
0.000765754
0.000761432
0.000756925
0.000756903
0.000752614
0.000752609
0.000756906
0.000756924
0.000752609
0.000761436
0.00076575
0.000765733
0.000761442
0.000765752
0.000761436
0.000761441
0.000756927
0.000756916
0.000752604
0.00075692
0.000752613
0.00076144
0.000765747
0.000761444
0.000765754
0.000761431
0.000756926
0.000756904
0.000752609
0.000752613
0.000756924
0.000756907
0.000752609
0.000774581
0.000770264
0.000770264
0.000774585
0.000774585
0.000770255
0.000779111
0.000783335
0.000779087
0.000783394
0.000779096
0.000779141
0.000783368
0.000779111
0.000783335
0.000779088
0.000783394
0.000779142
0.000779096
0.000783368
0.000774544
0.000770271
0.000774567
0.000770317
0.00077457
0.000774511
0.000770287
0.000774544
0.000770271
0.000774567
0.000770317
0.000774511
0.00077457
0.000770287
0.000779079
0.000783408
0.000783409
0.000779089
0.000779089
0.000783405
0.000779093
0.000774575
0.000756923
0.000761443
0.000761429
0.000765759
0.000765759
0.000765756
0.000761439
0.000761438
0.000756892
0.000752663
0.000756916
0.000752618
0.000756859
0.000756919
0.000752633
0.000756892
0.000752664
0.000756915
0.000752618
0.000756919
0.000756859
0.000752633
0.00076146
0.000765745
0.000765686
0.000761437
0.000761491
0.000765719
0.000761446
0.000761461
0.000765745
0.000765685
0.000761437
0.000765719
0.000761445
0.000761491
0.00075693
0.000752611
0.000752611
0.000756933
0.000756933
0.000752602
0.000756923
0.000761443
0.000774577
0.000770266
0.000770262
0.000774555
0.000774559
0.000774575
0.000770262
0.00077909
0.000779094
0.000783396
0.000779081
0.000783403
0.000774579
0.000770257
0.000774567
0.000774572
0.000770266
0.000779086
0.000779093
0.000783382
0.000783399
0.000779091
0.000779086
0.000783401
0.000774577
0.000770267
0.000770262
0.000774555
0.000774558
0.000774575
0.000770262
0.00077909
0.000779094
0.000783395
0.000779081
0.000783403
0.000774579
0.000770257
0.000774567
0.000774572
0.000770266
0.000779086
0.000779093
0.000783382
0.000783399
0.000779091
0.000779086
0.000783401
0.000761436
0.000765734
0.00076575
0.000761443
0.000765752
0.00076144
0.000761436
0.000756927
0.000756916
0.000752604
0.00075692
0.000752613
0.00076144
0.000765747
0.000761444
0.000765754
0.000761431
0.000756926
0.000756904
0.000752613
0.000752609
0.000756907
0.000756924
0.000752609
0.000761436
0.000765733
0.00076575
0.000761443
0.000765752
0.000761441
0.000761436
0.000756928
0.000756916
0.000752604
0.00075692
0.000752613
0.00076144
0.000765747
0.000761444
0.000765754
0.000761431
0.000756926
0.000756903
0.000752614
0.000752609
0.000756907
0.000756924
0.000752609
0.000779093
0.000774575
0.000779093
0.000774575
0.000761429
0.00076576
0.000765759
0.000765756
0.000761438
0.000761439
0.000756892
0.000752664
0.000756915
0.000752618
0.000752633
0.000756859
0.000756919
0.000756892
0.000752664
0.000756916
0.000752618
0.000752633
0.000756859
0.000756919
0.000761461
0.000765745
0.000765685
0.000761437
0.000765719
0.000761491
0.000761445
0.000761461
0.000765745
0.000765685
0.000761437
0.000765719
0.000761491
0.000761446
0.00075693
0.000752611
0.000752611
0.000752602
0.000756933
0.000756933
0.000756923
0.000761443
0.000756923
0.000761443
0.000743787
0.000743787
0.000743805
0.00074803
0.000748091
0.000743782
0.000748064
0.00074379
0.000743835
0.000743805
0.000748031
0.000748091
0.000743782
0.000748064
0.00074379
0.000743835
0.000743773
0.000748105
0.000748105
0.000748102
0.000743782
0.000743782
0.000743784
0.000748092
0.000743788
0.000748099
0.000743775
0.00074378
0.000743786
0.000748096
0.000748079
0.00074378
0.000748098
0.000743785
0.000743805
0.00074803
0.00074809
0.000743782
0.00074379
0.000748064
0.000743835
0.000743805
0.00074803
0.00074809
0.000743781
0.000743835
0.000748063
0.00074379
0.000743773
0.000748105
0.000748105
0.000743783
0.000748101
0.000743783
0.000743784
0.000748092
0.000743788
0.0007481
0.000743775
0.00074378
0.000743786
0.000748096
0.000748079
0.00074378
0.000748098
0.000743784
0.000739269
0.000739246
0.00073495
0.000739249
0.000739266
0.000743784
0.000748091
0.000743788
0.000743776
0.000748099
0.00074378
0.000743786
0.000748078
0.000748096
0.000743785
0.000748098
0.00074378
0.000739271
0.000739268
0.000739246
0.00073495
0.000734954
0.000739266
0.000739249
0.00073495
0.000743784
0.000748092
0.000743788
0.0007481
0.000743775
0.00074378
0.000743786
0.000748096
0.000748079
0.000748098
0.00074378
0.000743785
0.00073927
0.000734945
0.000739258
0.000739263
0.000734954
0.000743805
0.000748031
0.000748091
0.000743781
0.000743789
0.000748064
0.000743834
0.000743805
0.000748031
0.000748091
0.000743781
0.000743835
0.000748064
0.00074379
0.000743773
0.000748105
0.000748105
0.000743782
0.000748102
0.000743783
0.000743787
0.000739269
0.000739246
0.000734954
0.00073495
0.00073925
0.000739266
0.00073495
0.000743784
0.000748092
0.000743788
0.000743775
0.0007481
0.00074378
0.000743786
0.000748079
0.000748096
0.000743784
0.000748098
0.00074378
0.00073927
0.000734945
0.000739263
0.000734954
0.000739268
0.000739246
0.000734955
0.00073495
0.000739249
0.000739266
0.00073495
0.000743784
0.000748092
0.000743788
0.000748099
0.000743775
0.00074378
0.000743786
0.000748078
0.000748096
0.000748098
0.000743785
0.00074378
0.00073927
0.000734945
0.000739258
0.000739263
0.000734954
0.000743787
0.000739266
0.000743787
0.000739266
0.00078135
0.000781351
0.00077249
0.000772524
0.000772524
0.000772572
0.000781398
0.000779214
0.000783106
0.000783107
0.000779647
0.000779388
0.000779388
0.000783266
0.000746038
0.000746038
0.000737253
0.000746085
0.000743907
0.000747801
0.000747804
0.000744339
0.000747962
0.00074408
0.00074408
0.000779214
0.000783106
0.000783107
0.000779647
0.000779388
0.000779388
0.000783266
0.00075679
0.000756352
0.000752909
0.000752909
0.000756629
0.00075663
0.000752735
0.000779214
0.000783105
0.000783106
0.000779648
0.000779388
0.000779388
0.000783266
0.00075679
0.000756352
0.000752909
0.000752909
0.000756629
0.000756629
0.000752735
0.000779214
0.000783106
0.000783107
0.000779647
0.000779388
0.000779388
0.000783267
0.000756791
0.000756352
0.000752909
0.000752909
0.000756629
0.00075663
0.000752735
0.00075679
0.000756351
0.000752909
0.000752909
0.000752735
0.000756629
0.00075663
0.000743907
0.000747801
0.000747802
0.000744339
0.000747962
0.00074408
0.00074408
0.000743907
0.0007478
0.0007478
0.000744339
0.00074408
0.000747961
0.00074408
0.000743906
0.000747801
0.000747802
0.000744338
0.00074408
0.000747963
0.00074408
0.00078135
0.00078135
0.00077249
0.000772524
0.000772524
0.000772572
0.000781398
0.000781351
0.00078135
0.00077249
0.000772524
0.000772524
0.000772572
0.000781398
0.00078135
0.000781351
0.00077249
0.000772524
0.000772524
0.000772572
0.000781398
0.000763663
0.000754868
0.000754868
0.000763697
0.000763697
0.000763744
0.000754915
0.000763663
0.000754868
0.000754868
0.000763697
0.000763697
0.000763744
0.000754915
0.000763663
0.000754868
0.000754868
0.000763697
0.000763697
0.000763744
0.000754915
0.000763663
0.000754868
0.000754868
0.000763697
0.000763697
0.000763744
0.000754915
0.000774243
0.000770348
0.000770589
0.000774472
0.000774476
0.000774245
0.000770593
0.000779379
0.000783196
0.000779131
0.000783314
0.000779292
0.000779158
0.000783094
0.00077427
0.000770333
0.00077452
0.000770468
0.000774372
0.00077449
0.000770554
0.000779418
0.000779176
0.0007833
0.00078307
0.000779173
0.000779414
0.000783067
0.000774242
0.000770589
0.000770348
0.000774472
0.000774245
0.000774477
0.000770593
0.000779379
0.000783197
0.00077913
0.000783315
0.000779292
0.000779157
0.000783095
0.00077427
0.000770332
0.00077452
0.000770467
0.000774373
0.000774491
0.000770554
0.000779418
0.000779176
0.00078307
0.000783301
0.000779414
0.000779173
0.000783067
0.000774442
0.000774005
0.000770563
0.000770563
0.000774281
0.000774282
0.000770389
0.000746038
0.000746038
0.000737206
0.000737254
0.000746085
0.000746038
0.000746037
0.000737206
0.000737253
0.000746085
0.000746037
0.000746038
0.000737174
0.000737205
0.000737207
0.000737253
0.000746085
0.000738932
0.000739162
0.000735036
0.000735274
0.000739167
0.000738934
0.000735279
0.000744071
0.000747892
0.00074801
0.000743824
0.000747789
0.000743985
0.000743851
0.00074411
0.000743869
0.000747996
0.000747764
0.000747761
0.000743866
0.000744105
0.000738931
0.000739162
0.000735274
0.000735035
0.000738934
0.000739167
0.00073528
0.00074407
0.000747893
0.000748011
0.000743823
0.000747789
0.000743985
0.00074385
0.00074411
0.000743869
0.000747764
0.000747997
0.000747762
0.000744105
0.000743865
0.000738959
0.00073502
0.000739182
0.00073524
0.000739132
0.000738693
0.000735248
0.000735249
0.000738968
0.000738973
0.000735076
0.000774442
0.000774005
0.000770563
0.000770563
0.000770389
0.000774282
0.000774283
0.000761563
0.000761996
0.000765456
0.000765457
0.000765617
0.000761737
0.000761736
0.000774242
0.000770348
0.000770589
0.000774472
0.000774476
0.000774245
0.000770593
0.000779379
0.000783197
0.00077913
0.000783315
0.000779157
0.000779292
0.000783094
0.00077427
0.000770333
0.00077452
0.000770467
0.000774491
0.000774373
0.000770554
0.000779418
0.000779176
0.0007833
0.000783069
0.000779173
0.000779414
0.000783067
0.000774242
0.000770348
0.000770589
0.000774472
0.000774477
0.000774245
0.000770594
0.000779379
0.000783196
0.000779131
0.000783315
0.000779157
0.000779292
0.000783094
0.00077427
0.000770332
0.00077452
0.000770468
0.000774491
0.000770554
0.000774373
0.000779419
0.000779176
0.0007833
0.000783069
0.000779173
0.000779414
0.000783066
0.000761767
0.000765651
0.000765419
0.000761525
0.000765417
0.000761522
0.000761762
0.000756617
0.000752813
0.000756868
0.000752679
0.000756721
0.000756839
0.0007529
0.000761727
0.000765666
0.000765548
0.00076148
0.000761641
0.000765444
0.000761506
0.00075659
0.000756821
0.000752695
0.000752934
0.000756825
0.000756592
0.000752939
0.000761767
0.000765651
0.000765419
0.000761525
0.000765416
0.000761522
0.000761762
0.000756617
0.000752814
0.000756868
0.000752679
0.000756839
0.00075672
0.0007529
0.000761728
0.000765665
0.000765547
0.00076148
0.000765444
0.000761506
0.000761642
0.000756589
0.000756821
0.000752694
0.000752935
0.000756825
0.000756592
0.00075294
0.000774442
0.000774005
0.000770563
0.000770563
0.000774282
0.000774282
0.000770389
0.000761563
0.000761996
0.000765455
0.000765456
0.000761737
0.000765616
0.000761737
0.000774242
0.000770348
0.000770589
0.000774472
0.000774476
0.000774245
0.000770594
0.000779379
0.000783197
0.00077913
0.000783315
0.000779157
0.000779292
0.000783094
0.00077427
0.000770333
0.00077452
0.000770467
0.000774491
0.000774373
0.000770554
0.000779419
0.000779176
0.0007833
0.000783069
0.000779173
0.000779414
0.000783066
0.000774243
0.000770589
0.000770348
0.000774472
0.000774245
0.000774477
0.000770593
0.000779378
0.000783198
0.00077913
0.000783315
0.000779157
0.000779291
0.000783095
0.00077427
0.000770332
0.00077452
0.000770467
0.000774491
0.000770553
0.000774374
0.000779418
0.000779176
0.000783069
0.0007833
0.000779414
0.000779173
0.000783067
0.000761767
0.000765651
0.000765419
0.000761525
0.000765416
0.000761522
0.000761762
0.000756617
0.000752814
0.000756869
0.000752679
0.000756721
0.000756839
0.0007529
0.000761728
0.000765666
0.000765547
0.00076148
0.000761641
0.000765444
0.000761507
0.000756589
0.000756821
0.000752694
0.000752935
0.000756825
0.000756592
0.00075294
0.000761767
0.000765419
0.000765651
0.000761525
0.000765417
0.000761762
0.000761522
0.000756618
0.000752813
0.000756869
0.000752679
0.00075684
0.000756722
0.000752899
0.000761727
0.000765666
0.000765549
0.000761479
0.000765445
0.000761506
0.000761641
0.00075659
0.00075682
0.000752935
0.000752694
0.000756592
0.000756825
0.000752939
0.000774243
0.000770589
0.000770348
0.000774472
0.000774245
0.000774476
0.000770593
0.000779378
0.000783198
0.00077913
0.000783315
0.000779292
0.000779157
0.000783095
0.00077427
0.000770333
0.00077452
0.000770467
0.000774373
0.000774491
0.000770553
0.000779418
0.000779176
0.00078307
0.000783301
0.000779414
0.000779173
0.000783067
0.000761767
0.000765651
0.00076542
0.000761525
0.000765417
0.000761522
0.000761762
0.000756618
0.000752814
0.000756868
0.000752679
0.0007529
0.00075672
0.000756839
0.000761728
0.000765665
0.000765547
0.00076148
0.000765444
0.000761641
0.000761507
0.00075659
0.00075682
0.000752695
0.000752934
0.000752939
0.000756824
0.000756592
0.000761767
0.00076542
0.000765651
0.000761525
0.000765417
0.000761762
0.000761522
0.000756617
0.000752814
0.000756868
0.000752679
0.000756839
0.000756722
0.0007529
0.000761727
0.000765666
0.000765549
0.000761479
0.000765445
0.000761507
0.000761641
0.00075659
0.00075682
0.000752934
0.000752694
0.000756592
0.000756825
0.000752939
0.000774443
0.000774005
0.000770563
0.000770563
0.000774282
0.000774282
0.000770389
0.000761563
0.000761995
0.000765456
0.000765457
0.000761737
0.000765617
0.000761736
0.000774242
0.000770589
0.000770348
0.000774472
0.000774245
0.000774476
0.000770593
0.000779379
0.000783197
0.00077913
0.000783315
0.000779292
0.000779157
0.000783094
0.00077427
0.000770333
0.00077452
0.000770467
0.000774373
0.000774491
0.000770554
0.000779419
0.000779176
0.00078307
0.0007833
0.000779414
0.000779173
0.000783067
0.000761767
0.00076542
0.000765651
0.000761526
0.000765417
0.000761762
0.000761522
0.000756618
0.000752814
0.000756869
0.000752679
0.0007529
0.000756721
0.000756839
0.000761727
0.000765666
0.000765548
0.00076148
0.000765445
0.000761641
0.000761506
0.00075659
0.00075682
0.000752934
0.000752694
0.000752939
0.000756592
0.000756825
0.000761767
0.000765419
0.000765651
0.000761526
0.000765417
0.000761762
0.000761522
0.000756618
0.000752814
0.000756869
0.000752679
0.000756839
0.000756721
0.0007529
0.000761727
0.000765666
0.000765548
0.00076148
0.000765445
0.000761507
0.000761641
0.00075659
0.00075682
0.000752935
0.000752695
0.000756592
0.000756824
0.000752939
0.000761563
0.000761995
0.000765456
0.000765457
0.000765617
0.000761737
0.000761736
0.000744071
0.000747892
0.000748011
0.000743824
0.00074385
0.000747789
0.000743985
0.00074411
0.000743869
0.000747996
0.000747764
0.000743866
0.000747761
0.000744106
0.000744071
0.000747891
0.000748011
0.000743824
0.000747788
0.00074385
0.000743985
0.000744111
0.000743869
0.000747996
0.000747764
0.000747761
0.000743866
0.000744106
0.000744071
0.000747893
0.000748011
0.000743824
0.000743851
0.000747789
0.000743985
0.000744111
0.000743869
0.000747996
0.000747764
0.000743866
0.000747761
0.000744105
0.00074407
0.000747894
0.000748011
0.000743823
0.000747789
0.00074385
0.000743985
0.00074411
0.000743869
0.000747764
0.000747997
0.000747762
0.000744105
0.000743865
0.000738932
0.000739162
0.000735274
0.000735035
0.000738934
0.000739166
0.000735279
0.000744071
0.000747894
0.000748011
0.000743824
0.000743985
0.00074779
0.00074385
0.00074411
0.000743869
0.000747764
0.000747996
0.000744105
0.000747762
0.000743865
0.000738959
0.00073502
0.000739211
0.000735155
0.000739064
0.000739181
0.00073524
0.000738931
0.000739163
0.000735275
0.000735035
0.000738934
0.000739167
0.000735279
0.000744071
0.000747893
0.000748011
0.000743823
0.000743985
0.000747789
0.00074385
0.00074411
0.000743869
0.000747764
0.000747996
0.000744105
0.000747761
0.000743866
0.000738959
0.00073502
0.000739211
0.000735155
0.000739063
0.000739181
0.00073524
0.00167461
0.00167297
0.00167461
0.00167227
0.00167234
0.00167227
0.00167228
0.00167228
0.00167227
0.00167234
0.00167227
0.00167664
0.00167663
0.00167227
0.00167664
0.00167227
0.00167663
0.00167662
0.00167237
0.00167664
0.00167228
0.0016766
0.00167663
0.00167232
0.00167662
0.00167237
0.00167664
0.00167228
0.00167663
0.0016766
0.00167232
0.00167665
0.00167226
0.00167226
0.00167664
0.00167664
0.00167226
0.00167663
0.00167664
0.00167663
0.00167227
0.00167664
0.00167227
0.00167653
0.00167619
0.00167266
0.00167266
0.00167639
0.00167639
0.00167247
0.0016764
0.00167251
0.00167659
0.00167239
0.00167658
0.00167646
0.00167264
0.0016764
0.00167251
0.00167659
0.00167239
0.00167646
0.00167658
0.00167264
0.00166573
0.00166565
0.00166565
0.00166722
0.00162991
0.00162983
0.00162983
0.0016314
0.00159417
0.00159409
0.00159409
0.00159565
0.00155849
0.0015584
0.0015584
0.00155997
0.00152287
0.00152278
0.00152278
0.00152435
0.00148731
0.00148722
0.00148722
0.00148878
0.0014518
0.0014517
0.0014517
0.00145326
0.00141633
0.00141623
0.00141623
0.00141779
0.0013809
0.00138081
0.00138081
0.00138236
0.00134552
0.00134542
0.00134542
0.00134697
0.00131017
0.00131006
0.00131006
0.00131162
0.00127485
0.00127474
0.00127474
0.00127629
0.00123954
0.00123944
0.00123944
0.001241
0.00120426
0.00120417
0.00120417
0.00120572
0.001169
0.00116891
0.00116891
0.00117047
0.00113376
0.00113367
0.00113367
0.00113523
0.00109852
0.00109844
0.00109844
0.00109999
0.0010633
0.00106321
0.00106321
0.00106477
0.00102807
0.00102799
0.00102799
0.00102955
0.000992846
0.00099277
0.00099277
0.00099433
0.000957618
0.000957545
0.000957545
0.000959107
0.000922382
0.000922313
0.000922313
0.000923876
0.000887138
0.000887071
0.000887071
0.000888636
0.00085188
0.000851817
0.000851816
0.000853383
0.000816607
0.000816547
0.000816546
0.000818116
0.00166722
0.00163713
0.00166565
0.00166565
0.00163878
0.00163878
0.00166722
0.00163713
0.00166565
0.00166565
0.00163878
0.00163878
0.00166565