/*--------------------------------*- C++ -*----------------------------------*\
| =========                 |                                                 |
| \\      /  F ield         | OpenFOAM: The Open Source CFD Toolbox           |
|  \\    /   O peration     | Version:  2312                                  |
|   \\  /    A nd           | Website:  www.openfoam.com                      |
|    \\/     M anipulation  |                                                 |
\*---------------------------------------------------------------------------*/
FoamFile
{
    version     2.0;
    format      ascii;
    arch        "LSB;label=32;scalar=64";
    class       volScalarField;
    location    "500";
    object      epsilon;
}
// * * * * * * * * * * * * * * * * * * * * * * * * * * * * * * * * * * * * * //

dimensions      [0 2 -3 0 0 0 0];

internalField   nonuniform List<scalar> 
42973
(
3.26903e-07
8.75229e-07
1.15869e-06
3.43e-07
8.97337e-07
8.98553e-07
1.17941e-06
3.59525e-07
9.20276e-07
9.19633e-07
1.19742e-06
3.75795e-07
9.42452e-07
9.42973e-07
1.21467e-06
3.92453e-07
9.63391e-07
9.62611e-07
1.23163e-06
4.09529e-07
9.80553e-07
9.81058e-07
1.24819e-06
4.25675e-07
9.99995e-07
1.00174e-06
1.26229e-06
4.42239e-07
1.01844e-06
1.01705e-06
1.27524e-06
4.58623e-07
1.03474e-06
1.03383e-06
1.29213e-06
4.73904e-07
1.04981e-06
1.05068e-06
1.30311e-06
4.89225e-07
1.06271e-06
1.06456e-06
1.31228e-06
5.05425e-07
1.08018e-06
1.07679e-06
1.32909e-06
5.1866e-07
1.09126e-06
1.09502e-06
1.33415e-06
5.33797e-07
1.10248e-06
1.09889e-06
1.35026e-06
5.46675e-07
1.11399e-06
1.115e-06
1.34473e-06
5.59188e-07
1.11423e-06
1.12634e-06
1.3867e-06
5.73756e-07
1.14882e-06
1.13576e-06
1.32886e-06
5.85351e-07
1.12414e-06
1.13586e-06
1.4158e-06
5.93399e-07
1.1636e-06
1.15858e-06
1.37891e-06
6.06113e-07
1.15265e-06
1.15449e-06
1.37821e-06
6.13073e-07
1.14782e-06
1.14798e-06
1.39064e-06
6.29882e-07
1.1906e-06
1.19001e-06
1.43311e-06
6.35167e-07
1.16591e-06
1.16588e-06
1.40099e-06
6.35917e-07
1.16905e-06
1.17053e-06
1.39341e-06
6.48716e-07
1.18851e-06
1.19041e-06
1.42416e-06
6.58641e-07
1.19346e-06
1.18941e-06
1.42597e-06
6.62235e-07
1.18953e-06
1.18936e-06
1.42049e-06
1.1596e-06
1.17329e-06
8.74765e-07
8.75334e-07
8.92282e-07
8.91881e-07
1.1609e-06
1.17219e-06
8.74528e-07
8.92041e-07
8.9301e-07
8.74342e-07
8.91753e-07
8.92314e-07
1.17434e-06
8.74108e-07
8.92905e-07
8.92083e-07
1.17351e-06
1.17894e-06
1.19265e-06
8.9812e-07
8.97452e-07
9.15376e-07
9.14667e-07
1.17747e-06
1.1915e-06
8.97918e-07
8.98654e-07
9.15185e-07
9.14134e-07
8.98377e-07
9.14607e-07
9.15486e-07
1.17939e-06
1.19011e-06
8.98182e-07
9.14089e-07
9.15309e-07
1.1925e-06
1.1979e-06
1.20863e-06
9.20941e-07
9.20353e-07
9.36478e-07
9.37036e-07
1.19704e-06
1.21067e-06
9.20718e-07
9.1969e-07
9.36261e-07
9.37571e-07
9.20782e-07
9.36922e-07
9.36677e-07
1.19575e-06
1.21157e-06
9.20568e-07
9.37486e-07
9.36472e-07
1.20944e-06
1.21324e-06
1.22579e-06
9.41381e-07
9.42553e-07
9.56993e-07
9.58526e-07
1.21613e-06
1.22865e-06
9.41197e-07
9.43047e-07
9.56788e-07
9.57775e-07
9.41999e-07
9.58457e-07
9.57477e-07
1.21674e-06
1.22689e-06
9.41825e-07
9.57715e-07
9.57297e-07
1.22658e-06
1.23131e-06
1.24431e-06
9.62377e-07
9.63463e-07
9.77898e-07
9.76456e-07
1.23322e-06
1.24039e-06
9.62143e-07
9.62679e-07
9.77663e-07
9.76549e-07
9.62599e-07
9.76409e-07
9.77761e-07
1.23155e-06
1.24098e-06
9.62382e-07
9.76515e-07
9.77523e-07
1.24351e-06
1.24935e-06
1.25748e-06
9.82928e-07
9.80612e-07
9.96174e-07
9.94967e-07
1.24443e-06
1.25661e-06
9.82693e-07
9.81095e-07
9.95949e-07
9.96665e-07
9.82503e-07
9.94856e-07
9.96048e-07
1.24557e-06
1.26032e-06
9.82266e-07
9.96556e-07
9.95852e-07
1.25789e-06
1.26079e-06
1.27234e-06
9.99811e-07
1.0001e-06
1.01309e-06
1.01421e-06
1.26213e-06
1.27384e-06
9.99617e-07
1.00184e-06
1.01296e-06
1.01373e-06
1.00052e-06
1.01423e-06
1.01316e-06
1.26563e-06
1.27079e-06
1.00035e-06
1.01379e-06
1.01305e-06
1.27099e-06
1.27866e-06
1.28786e-06
1.01846e-06
1.01842e-06
1.03194e-06
1.0308e-06
1.27811e-06
1.28668e-06
1.01831e-06
1.01697e-06
1.03167e-06
1.02918e-06
1.01719e-06
1.03068e-06
1.03041e-06
1.27384e-06
1.28443e-06
1.01706e-06
1.02906e-06
1.03015e-06
1.28691e-06
1.29035e-06
1.29615e-06
1.03512e-06
1.0349e-06
1.04508e-06
1.04614e-06
1.29093e-06
1.29845e-06
1.03483e-06
1.03399e-06
1.04488e-06
1.04705e-06
1.03521e-06
1.04615e-06
1.0478e-06
1.2898e-06
1.30007e-06
1.0349e-06
1.04704e-06
1.04762e-06
1.30051e-06
1.30044e-06
1.30853e-06
1.04886e-06
1.04974e-06
1.05964e-06
1.06001e-06
1.30214e-06
1.30837e-06
1.04868e-06
1.05061e-06
1.05937e-06
1.06107e-06
1.05074e-06
1.05998e-06
1.05895e-06
1.30383e-06
1.31094e-06
1.05058e-06
1.06107e-06
1.0587e-06
1.30696e-06
1.31339e-06
1.32806e-06
1.06365e-06
1.06281e-06
1.07726e-06
1.07436e-06
1.31181e-06
1.32379e-06
1.06342e-06
1.0646e-06
1.07727e-06
1.07361e-06
1.0631e-06
1.07435e-06
1.07667e-06
1.31479e-06
1.32018e-06
1.06289e-06
1.07361e-06
1.07668e-06
1.32651e-06
1.33133e-06
1.32529e-06
1.0807e-06
1.08017e-06
1.08555e-06
1.09082e-06
1.33086e-06
1.33421e-06
1.08063e-06
1.07676e-06
1.08503e-06
1.09107e-06
1.07959e-06
1.09065e-06
1.08569e-06
1.3239e-06
1.33977e-06
1.07955e-06
1.09084e-06
1.08505e-06
1.32777e-06
1.32851e-06
1.34798e-06
1.0878e-06
1.09146e-06
1.10092e-06
1.09467e-06
1.3347e-06
1.33669e-06
1.08717e-06
1.09523e-06
1.10134e-06
1.09864e-06
1.09035e-06
1.09488e-06
1.10317e-06
1.34483e-06
1.3332e-06
1.08982e-06
1.09883e-06
1.10345e-06
1.34975e-06
1.35263e-06
1.34729e-06
1.10509e-06
1.10195e-06
1.11082e-06
1.11485e-06
1.34825e-06
1.3581e-06
1.10552e-06
1.09862e-06
1.11016e-06
1.1074e-06
1.10416e-06
1.11458e-06
1.10483e-06
1.33377e-06
1.35228e-06
1.10449e-06
1.10707e-06
1.10461e-06
1.33487e-06
1.34897e-06
1.35966e-06
1.11205e-06
1.11444e-06
1.11974e-06
1.1102e-06
1.35516e-06
1.33054e-06
1.11096e-06
1.11563e-06
1.12014e-06
1.12579e-06
1.10838e-06
1.10992e-06
1.13008e-06
1.36377e-06
1.36309e-06
1.10746e-06
1.12581e-06
1.13045e-06
1.38719e-06
1.36433e-06
1.37355e-06
1.12262e-06
1.11387e-06
1.13317e-06
1.14712e-06
1.34565e-06
1.41582e-06
1.12382e-06
1.12607e-06
1.1329e-06
1.13072e-06
1.13065e-06
1.1474e-06
1.11969e-06
1.36317e-06
1.37334e-06
1.1313e-06
1.13119e-06
1.11951e-06
1.32687e-06
1.37895e-06
1.38153e-06
1.13822e-06
1.14889e-06
1.1452e-06
1.12837e-06
1.41616e-06
1.32288e-06
1.13711e-06
1.13605e-06
1.14434e-06
1.13829e-06
1.1194e-06
1.12748e-06
1.1471e-06
1.38137e-06
1.35823e-06
1.11893e-06
1.13724e-06
1.14656e-06
1.40617e-06
1.38166e-06
1.36988e-06
1.14461e-06
1.12466e-06
1.14095e-06
1.14888e-06
1.32217e-06
1.41483e-06
1.14418e-06
1.13647e-06
1.14149e-06
1.14605e-06
1.15481e-06
1.15036e-06
1.15434e-06
1.35752e-06
1.39857e-06
1.15488e-06
1.1475e-06
1.15481e-06
1.38041e-06
1.37722e-06
1.3941e-06
1.14286e-06
1.16247e-06
1.15898e-06
1.16591e-06
1.43103e-06
1.37364e-06
1.14317e-06
1.15742e-06
1.15853e-06
1.16364e-06
1.15009e-06
1.16573e-06
1.14937e-06
1.41491e-06
1.37975e-06
1.1501e-06
1.16371e-06
1.14884e-06
1.37357e-06
1.39422e-06
1.37663e-06
1.15954e-06
1.1534e-06
1.15493e-06
1.14099e-06
1.36325e-06
1.35598e-06
1.15912e-06
1.15515e-06
1.15482e-06
1.14264e-06
1.15183e-06
1.14066e-06
1.15449e-06
1.37033e-06
1.3551e-06
1.15147e-06
1.1423e-06
1.15444e-06
1.38518e-06
1.38505e-06
1.4351e-06
1.15563e-06
1.1477e-06
1.18131e-06
1.18812e-06
1.38296e-06
1.45201e-06
1.15552e-06
1.14798e-06
1.18105e-06
1.18745e-06
1.15614e-06
1.18817e-06
1.17927e-06
1.3805e-06
1.45074e-06
1.15613e-06
1.18746e-06
1.17902e-06
1.42763e-06
1.43899e-06
1.39146e-06
1.18593e-06
1.19064e-06
1.17873e-06
1.17206e-06
1.45128e-06
1.37683e-06
1.18567e-06
1.19006e-06
1.17855e-06
1.17194e-06
1.18469e-06
1.17213e-06
1.18339e-06
1.45032e-06
1.37644e-06
1.18442e-06
1.17197e-06
1.18318e-06
1.40287e-06
1.38962e-06
1.38325e-06
1.17102e-06
1.16571e-06
1.16352e-06
1.16357e-06
1.37623e-06
1.392e-06
1.17088e-06
1.1657e-06
1.16338e-06
1.16407e-06
1.17622e-06
1.16384e-06
1.16709e-06
1.37583e-06
1.39381e-06
1.17606e-06
1.16437e-06
1.16696e-06
1.38754e-06
1.39139e-06
1.42506e-06
1.16482e-06
1.16886e-06
1.18482e-06
1.1848e-06
1.40195e-06
1.42271e-06
1.16466e-06
1.17027e-06
1.18477e-06
1.18802e-06
1.16741e-06
1.1847e-06
1.18177e-06
1.40521e-06
1.42851e-06
1.16728e-06
1.18794e-06
1.18176e-06
1.41852e-06
1.4312e-06
1.42666e-06
1.1901e-06
1.18868e-06
1.19489e-06
1.1937e-06
1.42687e-06
1.42712e-06
1.19009e-06
1.19059e-06
1.19478e-06
1.19096e-06
1.18652e-06
1.19346e-06
1.19261e-06
1.43101e-06
1.4182e-06
1.18656e-06
1.19068e-06
1.19247e-06
1.42491e-06
1.42713e-06
1.41702e-06
1.19394e-06
1.19369e-06
1.18984e-06
1.19007e-06
1.42818e-06
1.41713e-06
1.19366e-06
1.18961e-06
1.1894e-06
1.1886e-06
1.19264e-06
1.19007e-06
1.19049e-06
1.4191e-06
1.418e-06
1.19243e-06
1.18856e-06
1.19005e-06
1.41859e-06
1.41988e-06
1.1897e-06
1.1895e-06
1.4186e-06
1.1893e-06
1.18929e-06
1.19027e-06
1.42176e-06
1.18989e-06
4.09783e-06
9.16544e-06
4.09494e-06
9.1727e-06
1.84387e-05
1.84474e-05
4.09714e-06
9.16703e-06
4.09445e-06
9.17376e-06
3.27052e-07
3.26888e-07
3.38944e-07
3.38927e-07
3.39213e-07
3.38984e-07
2.11746e-06
3.48048e-06
5.68429e-07
8.80829e-07
2.11214e-06
3.48236e-06
5.74355e-07
1.84455e-05
2.11686e-06
5.68469e-07
8.80803e-07
2.11177e-06
5.74305e-07
3.48166e-06
5.46223e-06
5.46377e-06
1.16288e-06
5.4651e-06
5.46647e-06
4.1047e-06
9.18113e-06
4.10161e-06
9.18752e-06
1.8453e-05
1.84608e-05
4.10562e-06
9.18181e-06
4.10236e-06
9.18878e-06
3.42922e-07
3.43254e-07
3.43119e-07
3.55383e-07
3.55147e-07
3.55218e-07
3.55487e-07
2.13085e-06
3.48815e-06
5.91634e-07
9.03055e-07
2.12527e-06
3.49198e-06
5.97438e-07
1.84559e-05
1.84706e-05
2.13174e-06
5.91925e-07
3.49178e-06
9.03823e-07
2.1259e-06
5.9776e-07
3.49366e-06
5.47483e-06
5.47658e-06
1.18377e-06
5.47842e-06
5.48057e-06
4.11287e-06
9.1977e-06
4.10962e-06
9.20539e-06
1.84785e-05
1.8492e-05
4.11205e-06
9.19986e-06
4.10901e-06
9.20636e-06
3.59302e-07
3.59302e-07
3.59576e-07
3.71729e-07
3.71855e-07
3.71966e-07
3.71908e-07
2.14438e-06
3.50052e-06
6.14817e-07
9.25855e-07
2.13936e-06
3.50349e-06
6.20615e-07
1.84792e-05
1.84842e-05
2.14346e-06
6.14874e-07
3.49695e-06
9.25542e-07
2.13889e-06
6.20508e-07
3.50256e-06
5.48234e-06
5.4839e-06
1.20063e-06
5.48451e-06
5.48585e-06
4.11979e-06
9.21503e-06
4.11716e-06
9.22092e-06
1.85051e-05
1.85174e-05
4.12065e-06
9.21564e-06
4.1179e-06
9.22289e-06
3.7608e-07
3.76209e-07
3.7603e-07
3.88242e-07
3.88836e-07
3.88736e-07
3.88518e-07
2.1568e-06
3.51113e-06
6.37643e-07
9.47928e-07
2.15177e-06
3.51458e-06
6.43328e-07
1.85074e-05
1.85241e-05
2.15756e-06
6.37809e-07
3.51354e-06
9.48044e-07
2.1524e-06
6.43509e-07
3.51506e-06
5.49128e-06
5.49326e-06
1.21823e-06
5.49443e-06
5.49662e-06
4.12823e-06
9.22949e-06
4.12477e-06
9.23825e-06
1.85313e-05
1.85417e-05
4.12769e-06
9.23143e-06
4.12424e-06
9.23911e-06
3.92992e-07
3.92862e-07
3.92719e-07
4.05239e-07
4.0505e-07
4.05017e-07
4.05301e-07
2.16897e-06
3.52239e-06
6.5999e-07
9.68016e-07
2.16426e-06
3.52484e-06
6.65472e-07
1.85301e-05
1.8535e-05
2.16837e-06
6.59978e-07
3.51977e-06
9.67444e-07
2.16385e-06
6.65339e-07
3.52379e-06
5.5007e-06
5.50222e-06
1.23523e-06
5.50438e-06
5.50571e-06
4.13424e-06
9.24992e-06
4.1318e-06
9.25652e-06
1.85516e-05
1.85593e-05
4.13432e-06
9.25063e-06
4.13202e-06
9.25827e-06
4.09003e-07
4.0911e-07
4.09483e-07
4.21772e-07
4.21261e-07
4.21887e-07
4.21825e-07
2.17919e-06
3.52769e-06
6.81245e-07
9.8499e-07
2.17549e-06
3.52928e-06
6.86402e-07
1.85543e-05
1.85659e-05
2.17941e-06
6.81398e-07
3.52843e-06
9.8594e-07
2.17572e-06
6.86627e-07
3.52959e-06
5.51082e-06
5.51249e-06
1.25087e-06
5.51289e-06
5.51466e-06
4.14171e-06
9.26713e-06
4.13938e-06
9.27339e-06
1.85706e-05
1.85912e-05
4.1425e-06
9.26857e-06
4.13945e-06
9.27431e-06
4.25517e-07
4.26153e-07
4.25918e-07
4.3796e-07
4.38192e-07
4.38384e-07
4.38071e-07
2.19042e-06
3.53872e-06
7.01894e-07
1.00502e-06
2.18572e-06
3.54274e-06
7.07155e-07
1.85769e-05
1.85949e-05
2.19115e-06
7.02266e-07
3.54171e-06
1.00639e-06
2.18578e-06
7.07545e-07
3.54615e-06
5.51847e-06
5.52017e-06
1.26465e-06
5.521e-06
5.52287e-06
4.14851e-06
9.27832e-06
4.1444e-06
9.28541e-06
1.86114e-05
1.86209e-05
4.14801e-06
9.28018e-06
4.14524e-06
9.28738e-06
4.42311e-07
4.42258e-07
4.42068e-07
4.54714e-07
4.5455e-07
4.53959e-07
4.54259e-07
2.19992e-06
3.5484e-06
7.2243e-07
1.02253e-06
2.1967e-06
3.55011e-06
7.27365e-07
1.86121e-05
1.86162e-05
2.1994e-06
7.22703e-07
3.54675e-06
1.02056e-06
2.19743e-06
7.27292e-07
3.54597e-06
5.5239e-06
5.52622e-06
1.27804e-06
5.5255e-06
5.52736e-06
4.15629e-06
9.30584e-06
4.15487e-06
9.31264e-06
1.86321e-05
1.86464e-05
4.15614e-06
9.30636e-06
4.15372e-06
9.31311e-06
4.58537e-07
4.58077e-07
4.58451e-07
4.70125e-07
4.70314e-07
4.70567e-07
4.70934e-07
2.2101e-06
3.55664e-06
7.41599e-07
1.03869e-06
2.2058e-06
3.55947e-06
7.46371e-07
1.86214e-05
1.86429e-05
2.20982e-06
7.41163e-07
3.5549e-06
1.03857e-06
2.20445e-06
7.46096e-07
3.56015e-06
5.5378e-06
5.53904e-06
1.29551e-06
5.54443e-06
5.5458e-06
4.16237e-06
9.3139e-06
4.1582e-06
9.31772e-06
1.86586e-05
1.86671e-05
4.16254e-06
9.31537e-06
4.1595e-06
9.3201e-06
4.74289e-07
4.74508e-07
4.74723e-07
4.85228e-07
4.85552e-07
4.86063e-07
4.85382e-07
2.2195e-06
3.5639e-06
7.60417e-07
1.05345e-06
2.21628e-06
3.56657e-06
7.64905e-07
1.86677e-05
1.8676e-05
2.21997e-06
7.6076e-07
3.56613e-06
1.05411e-06
2.21745e-06
7.65187e-07
3.56673e-06
5.54681e-06
5.54883e-06
1.30238e-06
5.54288e-06
5.54478e-06
4.16502e-06
9.33366e-06
4.16571e-06
9.33892e-06
1.86812e-05
1.86937e-05
4.1655e-06
9.33465e-06
4.16494e-06
9.33933e-06
4.89033e-07
4.89868e-07
4.89301e-07
5.01631e-07
5.00724e-07
5.00724e-07
5.01518e-07
2.22368e-06
3.56984e-06
7.773e-07
1.06553e-06
2.22297e-06
3.56766e-06
7.81268e-07
1.8683e-05
1.86949e-05
2.2244e-06
7.77647e-07
3.57046e-06
1.06779e-06
2.22214e-06
7.81732e-07
3.57306e-06
5.54372e-06
5.54499e-06
1.31799e-06
5.55467e-06
5.5564e-06
4.17983e-06
9.34511e-06
4.17151e-06
9.36287e-06
1.87067e-05
1.87248e-05
4.17806e-06
9.34747e-06
4.1738e-06
9.36618e-06
5.05153e-07
5.04348e-07
5.05131e-07
5.15281e-07
5.16802e-07
5.16671e-07
5.15312e-07
2.23794e-06
3.57859e-06
7.93957e-07
1.08538e-06
2.23031e-06
3.59223e-06
7.98694e-07
1.87128e-05
1.87257e-05
2.2362e-06
7.94215e-07
3.57668e-06
1.08081e-06
2.23255e-06
7.98377e-07
3.57849e-06
5.56899e-06
5.57136e-06
1.32545e-06
5.56231e-06
5.5638e-06
4.1765e-06
9.37728e-06
4.18291e-06
9.36884e-06
1.87583e-05
1.87621e-05
4.17788e-06
9.37722e-06
4.17738e-06
9.36648e-06
5.19678e-07
5.20766e-07
5.19375e-07
5.30038e-07
5.29155e-07
5.29975e-07
5.31184e-07
2.24052e-06
3.59424e-06
8.11574e-07
1.09154e-06
2.24363e-06
3.57718e-06
8.1464e-07
1.87431e-05
1.87612e-05
2.24219e-06
8.10827e-07
3.593e-06
1.09755e-06
2.23838e-06
8.14877e-07
3.59879e-06
5.55952e-06
5.55906e-06
1.34337e-06
5.57781e-06
5.57897e-06
4.18919e-06
9.36374e-06
4.17624e-06
9.38907e-06
1.873e-05
1.87442e-05
4.18848e-06
9.36782e-06
4.1878e-06
9.39887e-06
5.33561e-07
5.3229e-07
5.34083e-07
5.4365e-07
5.44673e-07
5.42541e-07
5.41638e-07
2.25074e-06
3.58018e-06
8.23802e-07
1.10952e-06
2.24143e-06
3.60751e-06
8.27952e-07
1.87692e-05
1.87617e-05
2.24963e-06
8.25541e-07
3.5884e-06
1.09918e-06
2.25141e-06
8.28164e-07
3.57695e-06
5.59081e-06
5.59596e-06
1.33618e-06
5.5661e-06
5.56936e-06
4.19285e-06
9.41558e-06
4.20141e-06
9.40926e-06
1.88138e-05
1.88287e-05
4.18913e-06
9.415e-06
4.18295e-06
9.39864e-06
5.46884e-07
5.47006e-07
5.46e-07
5.56005e-07
5.5299e-07
5.57796e-07
5.5962e-07
2.25189e-06
3.61865e-06
8.40261e-07
1.11115e-06
2.25739e-06
3.58327e-06
8.42607e-07
1.87518e-05
1.87926e-05
2.24907e-06
8.36765e-07
3.59375e-06
1.12088e-06
2.24133e-06
8.41025e-07
3.61579e-06
5.5533e-06
5.54785e-06
1.37032e-06
5.59732e-06
5.59439e-06
4.18361e-06
9.39734e-06
4.17748e-06
9.4093e-06
1.87444e-05
1.87481e-05
4.19809e-06
9.39963e-06
4.20245e-06
9.42795e-06
5.57491e-07
5.60518e-07
5.62101e-07
5.69716e-07
5.74276e-07
5.70464e-07
5.65864e-07
2.26072e-06
3.56311e-06
8.48557e-07
1.12813e-06
2.24949e-06
3.61033e-06
8.52824e-07
1.8865e-05
1.88605e-05
2.27172e-06
8.54334e-07
3.61553e-06
1.12664e-06
2.27303e-06
8.57193e-07
3.59837e-06
5.64285e-06
5.64945e-06
1.35021e-06
5.59076e-06
5.59962e-06
4.23171e-06
9.43007e-06
4.21891e-06
9.44652e-06
1.89039e-05
1.89616e-05
4.21028e-06
9.43853e-06
4.19348e-06
9.4344e-06
5.77491e-07
5.7388e-07
5.68107e-07
5.83451e-07
5.79388e-07
5.80219e-07
5.82588e-07
2.27648e-06
3.67358e-06
8.68955e-07
1.14656e-06
2.27694e-06
3.64336e-06
8.72022e-07
1.88044e-05
1.88266e-05
2.25616e-06
8.63222e-07
3.61096e-06
1.13787e-06
2.25375e-06
8.66083e-07
3.62718e-06
5.5231e-06
5.51831e-06
1.35231e-06
5.55953e-06
5.55199e-06
4.17915e-06
9.48014e-06
4.20543e-06
9.48119e-06
1.88406e-05
1.87205e-05
4.19703e-06
9.46929e-06
4.221e-06
9.48492e-06
5.79789e-07
5.81657e-07
5.87296e-07
5.90389e-07
5.92142e-07
5.92609e-07
5.95404e-07
2.25579e-06
3.55544e-06
8.7356e-07
1.12466e-06
2.26079e-06
3.54834e-06
8.73578e-07
1.88952e-05
1.88758e-05
2.27349e-06
8.74744e-07
3.60493e-06
1.13587e-06
2.275e-06
8.76552e-07
3.58543e-06
5.66354e-06
5.66714e-06
1.41231e-06
5.6603e-06
5.66792e-06
4.22978e-06
9.40631e-06
4.18834e-06
9.39723e-06
1.88071e-05
1.89737e-05
4.21947e-06
9.42174e-06
4.18251e-06
9.40231e-06
5.97985e-07
5.977e-07
5.9702e-07
6.03549e-07
6.0623e-07
6.05805e-07
6.02277e-07
2.29536e-06
3.65789e-06
8.85139e-07
1.16958e-06
2.27623e-06
3.69679e-06
8.91946e-07
1.882e-05
1.88937e-05
2.28508e-06
8.85626e-07
3.63339e-06
1.16442e-06
2.26976e-06
8.90798e-07
3.67365e-06
5.59259e-06
5.59429e-06
1.36848e-06
5.58365e-06
5.58141e-06
4.21482e-06
9.51791e-06
4.25655e-06
9.55431e-06
1.90506e-05
1.8927e-05
4.21868e-06
9.50904e-06
4.25413e-06
9.55229e-06
6.06305e-07
6.06055e-07
6.04393e-07
6.10775e-07
6.07066e-07
6.07346e-07
6.0958e-07
2.26995e-06
3.62612e-06
8.99308e-07
1.14353e-06
2.29712e-06
3.56605e-06
8.98363e-07
1.90089e-05
1.89575e-05
2.27423e-06
8.98353e-07
3.63644e-06
1.14564e-06
2.29652e-06
8.98044e-07
3.57646e-06
5.60992e-06
5.61091e-06
1.38024e-06
5.60317e-06
5.60697e-06
4.18767e-06
9.44249e-06
4.16287e-06
9.38968e-06
1.87376e-05
1.88412e-05
4.18637e-06
9.44967e-06
4.16443e-06
9.39301e-06
6.10382e-07
6.10816e-07
6.11944e-07
6.25708e-07
6.27449e-07
6.27397e-07
6.24786e-07
2.26335e-06
3.57272e-06
8.9459e-07
1.16607e-06
2.2453e-06
3.63937e-06
8.96102e-07
1.87612e-05
1.88316e-05
2.26159e-06
8.9512e-07
3.56804e-06
1.16501e-06
2.24667e-06
8.96437e-07
3.63578e-06
5.57939e-06
5.58244e-06
1.40409e-06
5.60596e-06
5.60733e-06
4.28205e-06
9.50791e-06
4.26834e-06
9.6124e-06
1.91235e-05
1.91708e-05
4.28157e-06
9.50651e-06
4.26747e-06
9.61256e-06
6.31384e-07
6.31321e-07
6.29313e-07
6.35139e-07
6.34281e-07
6.34293e-07
6.36478e-07
2.32775e-06
3.70813e-06
9.18826e-07
1.18956e-06
2.31844e-06
3.68081e-06
9.22978e-07
1.91141e-05
1.91701e-05
2.32721e-06
9.18651e-07
3.70706e-06
1.18907e-06
2.31765e-06
9.22836e-07
3.68e-06
5.68948e-06
5.69065e-06
1.42806e-06
5.69761e-06
5.6993e-06
4.19896e-06
9.60972e-06
4.22846e-06
9.50761e-06
1.8986e-05
1.88718e-05
4.19943e-06
9.6112e-06
4.22865e-06
9.50947e-06
6.34065e-07
6.34116e-07
6.36793e-07
6.35062e-07
6.34752e-07
6.35062e-07
6.36878e-07
2.27098e-06
3.61012e-06
9.22387e-07
1.16302e-06
2.29196e-06
3.59281e-06
9.19172e-07
1.89887e-05
1.88737e-05
2.27137e-06
9.22413e-07
3.60988e-06
1.16313e-06
2.29193e-06
9.19317e-07
3.59285e-06
5.62582e-06
5.62758e-06
1.38676e-06
5.58569e-06
5.58745e-06
4.21482e-06
9.42792e-06
4.19759e-06
9.45368e-06
1.88859e-05
1.89911e-05
4.21484e-06
9.43061e-06
4.19732e-06
9.45583e-06
6.36692e-07
6.37363e-07
6.37401e-07
6.44983e-07
6.45332e-07
6.46725e-07
6.4438e-07
2.28007e-06
3.61718e-06
9.16445e-07
1.17493e-06
2.26728e-06
3.63512e-06
9.17548e-07
1.88915e-05
1.89981e-05
2.28076e-06
9.16864e-07
3.61792e-06
1.17769e-06
2.2675e-06
9.18172e-07
3.63903e-06
5.59023e-06
5.59173e-06
1.40268e-06
5.6181e-06
5.61967e-06
4.24953e-06
9.5412e-06
4.24106e-06
9.58142e-06
1.90908e-05
1.91135e-05
4.25246e-06
9.54226e-06
4.24375e-06
9.58383e-06
6.48674e-07
6.49748e-07
6.47628e-07
6.57108e-07
6.56798e-07
6.56013e-07
6.56058e-07
2.30459e-06
3.65407e-06
9.28756e-07
1.19126e-06
2.29891e-06
3.65842e-06
9.32275e-07
1.91035e-05
1.9124e-05
2.30677e-06
9.29868e-07
3.66157e-06
1.19139e-06
2.30153e-06
9.33174e-07
3.66188e-06
5.65852e-06
5.66076e-06
1.42654e-06
5.66596e-06
5.66881e-06
4.24522e-06
9.60429e-06
4.25188e-06
9.5962e-06
1.91152e-05
1.91129e-05
4.24064e-06
9.60743e-06
4.24927e-06
9.59629e-06
6.58494e-07
6.57304e-07
6.57927e-07
6.61382e-07
6.61444e-07
6.60605e-07
6.61413e-07
2.30381e-06
3.66161e-06
9.38875e-07
1.19275e-06
2.30739e-06
3.65443e-06
9.39475e-07
1.91032e-05
1.90843e-05
2.29935e-06
9.37962e-07
3.65072e-06
1.18869e-06
2.30445e-06
9.3822e-07
3.64374e-06
5.66042e-06
5.66197e-06
1.42054e-06
5.65134e-06
5.65156e-06
9.56183e-06
4.23435e-06
1.90869e-05
4.23554e-06
9.55927e-06
4.23278e-06
6.62191e-07
6.61928e-07
6.6235e-07
3.64284e-06
9.39275e-07
2.29572e-06
1.90739e-05
1.90896e-05
2.29539e-06
9.38376e-07
3.64449e-06
1.19125e-06
2.29466e-06
9.38866e-07
3.64935e-06
5.6442e-06
5.64487e-06
1.42062e-06
5.64638e-06
5.64853e-06
1.84323e-05
1.84426e-05
1.84354e-05
1.84453e-05
5.46438e-06
5.46598e-06
1.16354e-06
5.46697e-06
5.46843e-06
1.84524e-05
1.84434e-05
1.84552e-05
1.84461e-05
1.16908e-06
5.47133e-06
5.47302e-06
5.46847e-06
5.46989e-06
4.09776e-06
9.16709e-06
4.09496e-06
9.17455e-06
2.11759e-06
3.47898e-06
5.68333e-07
8.80619e-07
2.11191e-06
3.48199e-06
5.74245e-07
2.11758e-06
3.48073e-06
5.68397e-07
8.80944e-07
2.11196e-06
3.48277e-06
5.743e-07
4.09844e-06
9.18005e-06
9.17389e-06
4.10097e-06
4.09835e-06
9.18031e-06
9.17557e-06
4.10077e-06
2.11895e-06
8.86447e-07
3.48721e-06
5.85929e-07
3.48393e-06
5.80107e-07
2.12408e-06
2.11892e-06
8.86412e-07
3.48639e-06
5.85896e-07
3.48419e-06
5.80125e-07
2.12392e-06
5.46798e-06
5.46664e-06
1.16406e-06
5.46854e-06
5.46704e-06
1.8437e-05
1.84455e-05
1.84532e-05
1.84475e-05
1.16896e-06
5.47024e-06
5.46879e-06
5.46905e-06
5.46752e-06
1.8451e-05
1.84455e-05
2.11707e-06
3.47933e-06
5.68314e-07
8.80354e-07
2.11169e-06
3.48223e-06
5.74182e-07
4.09701e-06
9.17231e-06
2.11694e-06
8.80887e-07
5.7425e-07
3.48206e-06
4.0979e-06
9.1807e-06
9.17485e-06
4.10138e-06
2.11847e-06
8.86181e-07
3.4877e-06
5.8586e-07
3.48416e-06
5.80023e-07
2.12416e-06
4.09783e-06
9.18029e-06
9.17336e-06
4.10142e-06
2.11837e-06
8.87015e-07
5.86006e-07
3.4899e-06
5.8012e-07
3.48502e-06
2.12425e-06
4.09739e-06
9.16789e-06
4.09538e-06
9.175e-06
2.11733e-06
5.68377e-07
3.47773e-06
8.80232e-07
2.11193e-06
5.74246e-07
3.48099e-06
4.09746e-06
9.16684e-06
4.09486e-06
9.17228e-06
2.11879e-06
8.86283e-07
3.48606e-06
5.85922e-07
3.48377e-06
5.80125e-07
2.12388e-06
4.09848e-06
9.18001e-06
9.17584e-06
4.10064e-06
2.11868e-06
8.8624e-07
5.85944e-07
3.48766e-06
5.80097e-07
3.4834e-06
2.12398e-06
4.09812e-06
9.17896e-06
9.17317e-06
4.10087e-06
1.16467e-06
5.46904e-06
5.46755e-06
1.84432e-05
1.84541e-05
1.84456e-05
1.17043e-06
5.47567e-06
5.47413e-06
5.47168e-06
5.47019e-06
1.84515e-05
1.84433e-05
2.11677e-06
5.68361e-07
3.47803e-06
8.79973e-07
2.11172e-06
5.74173e-07
3.48117e-06
4.09671e-06
4.09469e-06
9.17258e-06
4.09663e-06
9.16772e-06
4.09464e-06
9.17272e-06
2.11827e-06
8.86915e-07
5.86031e-07
3.4895e-06
5.8017e-07
3.4846e-06
2.12422e-06
2.11825e-06
8.85975e-07
5.85868e-07
3.48807e-06
5.80017e-07
3.48356e-06
2.12401e-06
4.09797e-06
9.17992e-06
9.17352e-06
4.10127e-06
4.09791e-06
9.17907e-06
9.17355e-06
4.10109e-06
1.8436e-05
1.84416e-05
1.8438e-05
1.84436e-05
1.16871e-06
5.47238e-06
5.47403e-06
5.46737e-06
5.46873e-06
1.8451e-05
1.84416e-05
1.84529e-05
1.84436e-05
1.8453e-05
1.84631e-05
1.84559e-05
1.84663e-05
5.47311e-06
5.47492e-06
1.18318e-06
5.47645e-06
5.47858e-06
1.84766e-05
1.84644e-05
1.84803e-05
1.84676e-05
1.18871e-06
5.48188e-06
5.4838e-06
5.47839e-06
5.48048e-06
4.10454e-06
9.18102e-06
4.1014e-06
9.18577e-06
2.13073e-06
3.48939e-06
5.91734e-07
9.03936e-07
2.12542e-06
3.49294e-06
5.97539e-07
2.13054e-06
3.48839e-06
5.91639e-07
9.03144e-07
2.12524e-06
3.49211e-06
5.97384e-07
4.10548e-06
9.19627e-06
9.18882e-06
4.10884e-06
4.10534e-06
9.19506e-06
9.18699e-06
4.10884e-06
2.13214e-06
9.09696e-07
3.49861e-06
6.09133e-07
3.49514e-06
6.03344e-07
2.13766e-06
2.13197e-06
9.0891e-07
3.49851e-06
6.0895e-07
3.49468e-06
6.03154e-07
2.1376e-06
5.47211e-06
5.47077e-06
1.18155e-06
5.47612e-06
5.4749e-06
1.84509e-05
1.84589e-05
1.84766e-05
1.84621e-05
1.18719e-06
5.48228e-06
5.48099e-06
5.47865e-06
5.47745e-06
1.84751e-05
1.84602e-05
2.13145e-06
3.49001e-06
5.91709e-07
9.03762e-07
2.12572e-06
3.49381e-06
5.97566e-07
4.10559e-06
9.18196e-06
4.10243e-06
9.19121e-06
2.13147e-06
5.91883e-07
3.49213e-06
9.03899e-07
2.12584e-06
5.97711e-07
3.49392e-06
4.10629e-06
9.19852e-06
9.1903e-06
4.10848e-06
2.13283e-06
9.09527e-07
3.49922e-06
6.09181e-07
3.49596e-06
6.034e-07
2.13763e-06
4.10622e-06
9.19774e-06
9.19258e-06
4.10821e-06
2.1328e-06
9.08949e-07
6.09131e-07
3.49547e-06
6.0346e-07
3.49469e-06
2.13735e-06
4.10479e-06
9.18075e-06
4.10191e-06
9.186e-06
2.13105e-06
5.91799e-07
3.49024e-06
9.04309e-07
2.12539e-06
5.97654e-07
3.49422e-06
4.10508e-06
9.18035e-06
4.1017e-06
9.18886e-06
2.13236e-06
9.08842e-07
3.49836e-06
6.0905e-07
3.49458e-06
6.03198e-07
2.13795e-06
4.10621e-06
9.19587e-06
9.18737e-06
4.1091e-06
2.13251e-06
9.10022e-07
6.09299e-07
3.49906e-06
6.03496e-07
3.49637e-06
2.13804e-06
4.10602e-06
9.1989e-06
9.19054e-06
4.10926e-06
5.47715e-06
5.47571e-06
1.18216e-06
5.47747e-06
5.47612e-06
1.84533e-05
1.84681e-05
1.84792e-05
1.84716e-05
1.18682e-06
5.47805e-06
5.47674e-06
5.47755e-06
5.47626e-06
1.84769e-05
1.84693e-05
2.13168e-06
5.9178e-07
3.49081e-06
9.04149e-07
2.12577e-06
5.97676e-07
3.49504e-06
4.10588e-06
9.18154e-06
4.10279e-06
9.19101e-06
4.10584e-06
9.18047e-06
4.10265e-06
9.18948e-06
2.13314e-06
9.08892e-07
6.09225e-07
3.49528e-06
6.03548e-07
3.49448e-06
2.13773e-06
2.13322e-06
9.09862e-07
6.09342e-07
3.49961e-06
6.03561e-07
3.49718e-06
2.13796e-06
4.10694e-06
9.19789e-06
9.19247e-06
4.10855e-06
4.10702e-06
9.20052e-06
9.19139e-06
4.10877e-06
1.84529e-05
1.84686e-05
1.84548e-05
1.8471e-05
1.18912e-06
5.48137e-06
5.48319e-06
5.47976e-06
5.48189e-06
1.84804e-05
1.84699e-05
1.84832e-05
1.84725e-05
1.84779e-05
1.84886e-05
1.84815e-05
1.84917e-05
5.48374e-06
5.48541e-06
1.20121e-06
5.48634e-06
5.48784e-06
1.84993e-05
1.84894e-05
1.85019e-05
1.84924e-05
1.20598e-06
5.48854e-06
5.49038e-06
5.48752e-06
5.48898e-06
4.11288e-06
9.19682e-06
4.10962e-06
9.20571e-06
2.14437e-06
3.50078e-06
6.14896e-07
9.26336e-07
2.13905e-06
3.50415e-06
6.20623e-07
2.14434e-06
3.50072e-06
6.14751e-07
9.25952e-07
2.13901e-06
3.50382e-06
6.20527e-07
4.11362e-06
9.21387e-06
9.20677e-06
4.11652e-06
4.11361e-06
9.214e-06
9.20712e-06
4.11659e-06
2.1457e-06
9.31508e-07
3.5082e-06
6.31949e-07
3.50608e-06
6.2631e-07
2.15066e-06
2.14566e-06
9.31502e-07
3.50929e-06
6.31962e-07
3.5059e-06
6.26261e-07
2.15066e-06
5.48407e-06
5.48274e-06
1.20112e-06
5.48699e-06
5.48551e-06
1.84769e-05
1.84899e-05
1.85041e-05
1.84931e-05
1.20657e-06
5.49247e-06
5.49092e-06
5.48899e-06
5.48747e-06
1.85019e-05
1.84911e-05
2.14365e-06
3.50118e-06
6.14899e-07
9.2609e-07
2.13885e-06
3.50441e-06
6.2057e-07
4.11188e-06
9.19824e-06
4.10873e-06
9.20159e-06
2.14339e-06
6.14764e-07
3.49714e-06
9.25617e-07
2.13853e-06
6.20423e-07
3.50291e-06
4.11306e-06
9.21428e-06
9.20751e-06
4.11699e-06
2.14511e-06
9.31264e-07
3.5088e-06
6.3187e-07
3.50635e-06
6.26224e-07
2.1508e-06
4.11297e-06
9.21277e-06
9.20274e-06
4.11713e-06
2.14495e-06
9.31684e-07
6.31953e-07
3.51182e-06
6.26155e-07
3.50664e-06
2.15093e-06
4.11263e-06
9.19759e-06
4.11035e-06
9.20601e-06
2.14429e-06
6.15051e-07
3.5006e-06
9.26033e-07
2.13938e-06
6.20745e-07
3.50283e-06
4.11262e-06
9.20019e-06
4.11e-06
9.20624e-06
2.14565e-06
9.31386e-07
3.50885e-06
6.3201e-07
3.50552e-06
6.26293e-07
2.15047e-06
4.11378e-06
9.21412e-06
9.20735e-06
4.11617e-06
2.14554e-06
9.31334e-07
6.32008e-07
3.508e-06
6.26394e-07
3.50461e-06
2.15033e-06
4.11328e-06
9.21274e-06
9.20717e-06
4.11612e-06
5.48004e-06
5.47877e-06
1.20089e-06
5.48699e-06
5.48551e-06
1.84768e-05
1.84818e-05
1.85035e-05
1.84853e-05
1.20703e-06
5.49576e-06
5.4942e-06
5.49045e-06
5.48902e-06
1.85009e-05
1.84829e-05
2.14354e-06
6.1506e-07
3.50093e-06
9.258e-07
2.13916e-06
6.20684e-07
3.50299e-06
4.11166e-06
9.19841e-06
4.10938e-06
9.20172e-06
4.11162e-06
9.20169e-06
4.10962e-06
9.20655e-06
2.14492e-06
9.31593e-07
6.32005e-07
3.5114e-06
6.26235e-07
3.50624e-06
2.1508e-06
2.14496e-06
9.31099e-07
6.31923e-07
3.50856e-06
6.26311e-07
3.50483e-06
2.15044e-06
4.11307e-06
9.21258e-06
9.20284e-06
4.1168e-06
4.11298e-06
9.21255e-06
9.20728e-06
4.11644e-06
1.84811e-05
1.849e-05
1.84838e-05
1.84921e-05
1.20573e-06
5.48935e-06
5.49115e-06
5.48604e-06
5.48745e-06
1.84996e-05
1.84907e-05
1.85013e-05
1.84927e-05
1.85003e-05
1.85101e-05
1.8503e-05
1.85137e-05
5.48924e-06
5.49131e-06
1.21635e-06
5.49174e-06
5.49403e-06
1.852e-05
1.85107e-05
1.85235e-05
1.85144e-05
1.22159e-06
5.49868e-06
5.50042e-06
5.49399e-06
5.49604e-06
4.11996e-06
9.21527e-06
4.11724e-06
9.22257e-06
2.15648e-06
3.50945e-06
6.37538e-07
9.46397e-07
2.1519e-06
3.5116e-06
6.43081e-07
2.15664e-06
3.51151e-06
6.37638e-07
9.48009e-07
2.15193e-06
3.51482e-06
6.43282e-07
4.12048e-06
9.22808e-06
9.22193e-06
4.1238e-06
4.12064e-06
9.23162e-06
9.22402e-06
4.1238e-06
2.1577e-06
9.51619e-07
3.51793e-06
6.5413e-07
3.51363e-06
6.48601e-07
2.16251e-06
2.15787e-06
9.5335e-07
3.52034e-06
6.54428e-07
3.51695e-06
6.4888e-07
2.16261e-06
5.49454e-06
5.49305e-06
1.22012e-06
5.49799e-06
5.49663e-06
1.85029e-05
1.85153e-05
1.85304e-05
1.85188e-05
1.22536e-06
5.50353e-06
5.5023e-06
5.50012e-06
5.49885e-06
1.85287e-05
1.85167e-05
2.15709e-06
3.51022e-06
6.37499e-07
9.4623e-07
2.15225e-06
3.51252e-06
6.43088e-07
4.12081e-06
9.21567e-06
4.11813e-06
9.22707e-06
2.15734e-06
6.37748e-07
3.51391e-06
9.48102e-07
2.15247e-06
6.43454e-07
3.51536e-06
4.12117e-06
9.2302e-06
9.22407e-06
4.12348e-06
2.15826e-06
9.51443e-07
3.51842e-06
6.54145e-07
3.51443e-06
6.4863e-07
2.16242e-06
4.12129e-06
9.23269e-06
9.22829e-06
4.1233e-06
2.15847e-06
9.52935e-07
6.54479e-07
3.51781e-06
6.49025e-07
3.51608e-06
2.16235e-06
4.12013e-06
9.21536e-06
4.11746e-06
9.22252e-06
2.15668e-06
6.37612e-07
3.51029e-06
9.47232e-07
2.15162e-06
6.43213e-07
3.51365e-06
4.12013e-06
9.21397e-06
4.11695e-06
9.22149e-06
2.15811e-06
9.53276e-07
3.52023e-06
6.54511e-07