/*--------------------------------*- C++ -*----------------------------------*\
| =========                 |                                                 |
| \\      /  F ield         | OpenFOAM: The Open Source CFD Toolbox           |
|  \\    /   O peration     | Version:  2312                                  |
|   \\  /    A nd           | Website:  www.openfoam.com                      |
|    \\/     M anipulation  |                                                 |
\*---------------------------------------------------------------------------*/
FoamFile
{
    version     2.0;
    format      ascii;
    arch        "LSB;label=32;scalar=64";
    class       volScalarField;
    location    "500";
    object      k;
}
// * * * * * * * * * * * * * * * * * * * * * * * * * * * * * * * * * * * * * //

dimensions      [0 2 -2 0 0 0 0];

internalField   nonuniform List<scalar> 
42973
(
2.12028e-05
3.6874e-05
4.22003e-05
2.19703e-05
3.78608e-05
3.78046e-05
4.27811e-05
2.27418e-05
3.86496e-05
3.87455e-05
4.3573e-05
2.35496e-05
3.953e-05
3.94673e-05
4.42232e-05
2.4334e-05
4.0385e-05
4.04304e-05
4.48623e-05
2.51462e-05
4.12367e-05
4.11819e-05
4.54732e-05
2.59881e-05
4.18601e-05
4.18678e-05
4.61406e-05
2.6792e-05
4.26456e-05
4.27569e-05
4.66856e-05
2.75891e-05
4.3423e-05
4.33465e-05
4.71341e-05
2.84346e-05
4.40885e-05
4.40276e-05
4.78605e-05
2.91834e-05
4.47226e-05
4.47645e-05
4.83246e-05
2.9922e-05
4.52659e-05
4.53672e-05
4.85543e-05
3.07973e-05
4.60082e-05
4.58078e-05
4.94152e-05
3.14383e-05
4.661e-05
4.67719e-05
4.93712e-05
3.22275e-05
4.6852e-05
4.69069e-05
5.04778e-05
3.29051e-05
4.76804e-05
4.7476e-05
4.96034e-05
3.35272e-05
4.74426e-05
4.81825e-05
5.2224e-05
3.4333e-05
4.93968e-05
4.8667e-05
4.92739e-05
3.50292e-05
4.81131e-05
4.8642e-05
5.32175e-05
3.53413e-05
4.99762e-05
4.96765e-05
5.16313e-05
3.61136e-05
4.9806e-05
4.9876e-05
5.17637e-05
3.6402e-05
4.91049e-05
4.91311e-05
5.17513e-05
3.74485e-05
5.1503e-05
5.14814e-05
5.41561e-05
3.78915e-05
5.04785e-05
5.04705e-05
5.2844e-05
3.78309e-05
5.03588e-05
5.03846e-05
5.23351e-05
3.84409e-05
5.14114e-05
5.15809e-05
5.37354e-05
3.92203e-05
5.18731e-05
5.17012e-05
5.3948e-05
4.21561e-05
4.27065e-05
3.69144e-05
3.6875e-05
3.76054e-05
3.76393e-05
4.21056e-05
4.2791e-05
3.69119e-05
3.76025e-05
3.75895e-05
3.69424e-05
3.76418e-05
3.75816e-05
4.26939e-05
3.69391e-05
3.75926e-05
3.75782e-05
4.2645e-05
4.28574e-05
4.33733e-05
3.7821e-05
3.7859e-05
3.8467e-05
3.84464e-05
4.29322e-05
4.33214e-05
3.78155e-05
3.7802e-05
3.84594e-05
3.85272e-05
3.77889e-05
3.84451e-05
3.84614e-05
4.28519e-05
4.34676e-05
3.77829e-05
3.85269e-05
3.84534e-05
4.3395e-05
4.35402e-05
4.41057e-05
3.86893e-05
3.86494e-05
3.93463e-05
3.93133e-05
4.3469e-05
4.40488e-05
3.86846e-05
3.87451e-05
3.93444e-05
3.92577e-05
3.86989e-05
3.93163e-05
3.93602e-05
4.36079e-05
4.39263e-05
3.86938e-05
3.92611e-05
3.93584e-05
4.40957e-05
4.42588e-05
4.4682e-05
3.95668e-05
3.95278e-05
4.01572e-05
4.01683e-05
4.42076e-05
4.47389e-05
3.95618e-05
3.94647e-05
4.01511e-05
4.02167e-05
3.95514e-05
4.01681e-05
4.01561e-05
4.40859e-05
4.48331e-05
3.95463e-05
4.02177e-05
4.01497e-05
4.47015e-05
4.47929e-05
4.531e-05
4.0326e-05
4.03852e-05
4.09416e-05
4.10263e-05
4.49037e-05
4.54671e-05
4.03232e-05
4.04293e-05
4.09387e-05
4.09745e-05
4.03691e-05
4.10286e-05
4.09565e-05
4.49796e-05
4.53491e-05
4.03658e-05
4.09772e-05
4.09546e-05
4.53341e-05
4.54862e-05
4.60217e-05
4.11618e-05
4.12336e-05
4.17608e-05
4.1718e-05
4.56007e-05
4.58691e-05
4.11562e-05
4.11792e-05
4.17539e-05
4.17084e-05
4.11563e-05
4.17196e-05
4.17749e-05
4.54924e-05
4.58713e-05
4.11513e-05
4.17107e-05
4.17669e-05
4.60086e-05
4.61825e-05
4.65474e-05
4.19766e-05
4.18587e-05
4.25378e-05
4.24271e-05
4.59545e-05
4.64874e-05
4.19707e-05
4.18654e-05
4.25332e-05
4.25207e-05
4.19594e-05
4.24273e-05
4.25015e-05
4.59652e-05
4.66981e-05
4.19526e-05
4.25205e-05
4.24981e-05
4.65523e-05
4.66048e-05
4.70741e-05
4.26473e-05
4.26456e-05
4.3147e-05
4.32514e-05
4.66689e-05
4.71823e-05
4.26431e-05
4.27575e-05
4.31477e-05
4.32347e-05
4.26871e-05
4.32566e-05
4.31845e-05
4.68772e-05
4.70585e-05
4.26832e-05
4.32414e-05
4.31854e-05
4.70337e-05
4.73364e-05
4.77605e-05
4.34053e-05
4.34159e-05
4.40079e-05
4.391e-05
4.72966e-05
4.76685e-05
4.34061e-05
4.33374e-05
4.39993e-05
4.38185e-05
4.33355e-05
4.39074e-05
4.38755e-05
4.71078e-05
4.75841e-05
4.33375e-05
4.38175e-05
4.38666e-05
4.76777e-05
4.77978e-05
4.80672e-05
4.41156e-05
4.40951e-05
4.45142e-05
4.45678e-05
4.78011e-05
4.81772e-05
4.41053e-05
4.40337e-05
4.45109e-05
4.46129e-05
4.40945e-05
4.45733e-05
4.46829e-05
4.77662e-05
4.82281e-05
4.40827e-05
4.46167e-05
4.46792e-05
4.82795e-05
4.82134e-05
4.84791e-05
4.46904e-05
4.47113e-05
4.50911e-05
4.51852e-05
4.82706e-05
4.85666e-05
4.46876e-05
4.47544e-05
4.50843e-05
4.51978e-05
4.47971e-05
4.51894e-05
4.50491e-05
4.83223e-05
4.86751e-05
4.47946e-05
4.52036e-05
4.50426e-05
4.83894e-05
4.85864e-05
4.94676e-05
4.52434e-05
4.52682e-05
4.59366e-05
4.56852e-05
4.86312e-05
4.90983e-05
4.52378e-05
4.53665e-05
4.5942e-05
4.57043e-05
4.52222e-05
4.56896e-05
4.59301e-05
4.87941e-05
4.89842e-05
4.52177e-05
4.571e-05
4.59353e-05
4.93806e-05
4.95457e-05
4.92403e-05
4.61259e-05
4.60023e-05
4.62831e-05
4.66152e-05
4.94092e-05
4.98094e-05
4.61291e-05
4.57991e-05
4.6272e-05
4.65415e-05
4.60672e-05
4.66101e-05
4.62071e-05
4.90389e-05
4.99909e-05
4.60723e-05
4.65314e-05
4.61969e-05
4.92305e-05
4.92615e-05
5.03205e-05
4.63258e-05
4.6616e-05
4.69557e-05
4.66241e-05
4.97185e-05
4.94832e-05
4.63089e-05
4.67828e-05
4.69781e-05
4.69339e-05
4.63672e-05
4.66307e-05
4.71668e-05
5.01905e-05
4.96391e-05
4.63384e-05
4.69478e-05
4.71874e-05
5.05126e-05
5.04621e-05
5.02261e-05
4.71828e-05
4.68224e-05
4.74449e-05
4.77182e-05
4.99463e-05
5.10913e-05
4.72173e-05
4.68864e-05
4.74363e-05
4.70516e-05
4.71935e-05
4.77079e-05
4.71133e-05
4.95435e-05
5.02974e-05
4.72192e-05
4.70496e-05
4.7111e-05
4.94628e-05
5.02345e-05
5.07485e-05
4.74734e-05
4.76966e-05
4.78474e-05
4.73644e-05
5.07938e-05
4.91884e-05
4.74478e-05
4.75105e-05
4.7833e-05
4.81804e-05
4.71907e-05
4.73551e-05
4.84471e-05
5.08014e-05
5.09635e-05
4.71708e-05
4.81856e-05
4.84689e-05
5.22426e-05
5.09013e-05
5.12452e-05
4.79587e-05
4.74383e-05
4.84029e-05
4.92624e-05
4.94376e-05
5.3517e-05
4.80413e-05
4.81661e-05
4.84099e-05
4.83059e-05
4.84833e-05
4.92937e-05
4.78908e-05
5.08025e-05
5.13907e-05
4.85261e-05
4.83539e-05
4.79006e-05
4.92859e-05
5.14511e-05
5.19452e-05
4.87072e-05
4.93954e-05
4.91746e-05
4.84315e-05
5.35243e-05
4.9222e-05
4.8642e-05
4.86506e-05
4.9127e-05
4.88424e-05
4.78436e-05
4.83759e-05
4.90315e-05
5.17707e-05
5.0869e-05
4.78323e-05
4.8785e-05
4.8971e-05
5.28385e-05
5.18548e-05
5.11498e-05
4.91511e-05
4.81422e-05
4.89133e-05
4.89236e-05
4.90246e-05
5.31589e-05
4.91181e-05
4.86873e-05
4.89463e-05
4.88832e-05
4.95563e-05
4.89998e-05
4.96094e-05
5.05849e-05
5.2249e-05
4.95513e-05
4.89286e-05
4.9651e-05
5.18333e-05
5.13138e-05
5.25895e-05
4.89605e-05
4.98894e-05
4.98711e-05
5.03149e-05
5.39552e-05
5.21116e-05
4.8989e-05
4.95755e-05
4.98543e-05
5.01935e-05
4.94422e-05
5.03367e-05
4.9438e-05
5.30571e-05
5.24531e-05
4.94568e-05
5.02175e-05
4.94172e-05
5.16285e-05
5.25281e-05
5.1358e-05
4.98956e-05
4.98341e-05
4.95836e-05
4.89559e-05
5.13057e-05
5.01997e-05
4.98805e-05
4.98944e-05
4.95828e-05
4.9012e-05
4.95466e-05
4.89387e-05
4.95298e-05
5.16775e-05
5.01549e-05
4.95258e-05
4.89955e-05
4.95319e-05
5.17085e-05
5.14539e-05
5.43127e-05
4.95946e-05
4.91134e-05
5.09156e-05
5.13252e-05
5.12106e-05
5.5066e-05
4.95937e-05
4.91413e-05
5.09103e-05
5.12976e-05
4.95437e-05
5.13304e-05
5.07744e-05
5.103e-05
5.50355e-05
4.95467e-05
5.13017e-05
5.07694e-05
5.39294e-05
5.44495e-05
5.26415e-05
5.12862e-05
5.15032e-05
5.11488e-05
5.08398e-05
5.50533e-05
5.19587e-05
5.12811e-05
5.14824e-05
5.11458e-05
5.08261e-05
5.12008e-05
5.08438e-05
5.12925e-05
5.50264e-05
5.19347e-05
5.11941e-05
5.08283e-05
5.12868e-05
5.30877e-05
5.23812e-05
5.1978e-05
5.07551e-05
5.04645e-05
5.02778e-05
5.02587e-05
5.17695e-05
5.2356e-05
5.07537e-05
5.04578e-05
5.0277e-05
5.02604e-05
5.10096e-05
5.02793e-05
5.04534e-05
5.17413e-05
5.23674e-05
5.10061e-05
5.02818e-05
5.04525e-05
5.21924e-05
5.22031e-05
5.37896e-05
5.02895e-05
5.03395e-05
5.11107e-05
5.11581e-05
5.26652e-05
5.36587e-05
5.02884e-05
5.03632e-05
5.11148e-05
5.13715e-05
5.04511e-05
5.11603e-05
5.09735e-05
5.27365e-05
5.39852e-05
5.04501e-05
5.13754e-05
5.09783e-05
5.3506e-05
5.40399e-05
5.40565e-05
5.14915e-05
5.14149e-05
5.18951e-05
5.18658e-05
5.38084e-05
5.40878e-05
5.15009e-05
5.15839e-05
5.18964e-05
5.17233e-05
5.12967e-05
5.18553e-05
5.17917e-05
5.40558e-05
5.36778e-05
5.13083e-05
5.17126e-05
5.17919e-05
5.39597e-05
5.40011e-05
5.18895e-05
5.18824e-05
5.40854e-05
5.18878e-05
5.17113e-05
5.18142e-05
5.36629e-05
5.18059e-05
6.48587e-05
7.13771e-05
6.4743e-05
7.14149e-05
6.95574e-05
6.95796e-05
6.48672e-05
7.13802e-05
6.47587e-05
7.14152e-05
2.11783e-05
2.12076e-05
2.17784e-05
2.17841e-05
2.17808e-05
2.1778e-05
5.36117e-05
6.02635e-05
2.92371e-05
3.71414e-05
5.33861e-05
6.04534e-05
2.94916e-05
6.95725e-05
5.3628e-05
2.92578e-05
3.71666e-05
5.34088e-05
2.95119e-05
6.04347e-05
6.70408e-05
6.70524e-05
4.23827e-05
6.70605e-05
6.70709e-05
6.50934e-05
7.14587e-05
6.50107e-05
7.14918e-05
6.95938e-05
6.96132e-05
6.5072e-05
7.1457e-05
6.49897e-05
7.1493e-05
2.19819e-05
2.19689e-05
2.19641e-05
2.25461e-05
2.25493e-05
2.25683e-05
2.25419e-05
5.40801e-05
6.06152e-05
3.0258e-05
3.80613e-05
5.3909e-05
6.06657e-05
3.05026e-05
6.95986e-05
6.96355e-05
5.40522e-05
3.025e-05
6.05194e-05
3.80353e-05
5.38892e-05
3.04884e-05
6.06803e-05
6.70381e-05
6.70395e-05
4.29781e-05
6.71835e-05
6.71812e-05
6.52985e-05
7.15445e-05
6.51998e-05
7.15844e-05
6.96574e-05
6.96914e-05
6.53255e-05
7.15505e-05
6.52252e-05
7.15843e-05
2.27371e-05
2.27689e-05
2.27445e-05
2.33456e-05
2.33279e-05
2.33297e-05
2.33544e-05
5.45112e-05
6.07917e-05
3.12068e-05
3.88681e-05
5.43179e-05
6.09462e-05
3.14455e-05
6.96573e-05
6.96698e-05
5.45532e-05
3.12287e-05
6.09329e-05
3.89285e-05
5.43435e-05
3.14754e-05
6.09506e-05
6.735e-05
6.73712e-05
4.37834e-05
6.74177e-05
6.74365e-05
6.55287e-05
7.16345e-05
6.54364e-05
7.16651e-05
6.97244e-05
6.97552e-05
6.55032e-05
7.16323e-05
6.54027e-05
7.16699e-05
2.35304e-05
2.35194e-05
2.35519e-05
2.4143e-05
2.41408e-05
2.41496e-05
2.41445e-05
5.49516e-05
6.11184e-05
3.21775e-05
3.97393e-05
5.47836e-05
6.12116e-05
3.2418e-05
6.97274e-05
6.97699e-05
5.49093e-05
3.21691e-05
6.09796e-05
3.97106e-05
5.47555e-05
3.24007e-05
6.12468e-05
6.7451e-05
6.74443e-05
4.43628e-05
6.74882e-05
6.74889e-05
6.57155e-05
7.17093e-05
6.56388e-05
7.17545e-05
6.97903e-05
6.98164e-05
6.57348e-05
7.17142e-05
6.56696e-05
7.17538e-05
2.43488e-05
2.43619e-05
2.4346e-05
2.49374e-05
2.49807e-05
2.49721e-05
2.49561e-05
5.53594e-05
6.13769e-05
3.31306e-05
4.05997e-05
5.5185e-05
6.15005e-05
3.33684e-05
6.97853e-05
6.97974e-05
5.53956e-05
3.31416e-05
6.14634e-05
4.06126e-05
5.52126e-05
3.33843e-05
6.14769e-05
6.76525e-05
6.76762e-05
4.50469e-05
6.76976e-05
6.77133e-05
6.59533e-05
7.18151e-05
6.58542e-05
7.18493e-05
6.98413e-05
6.98607e-05
6.59357e-05
7.18134e-05
6.58292e-05
7.1853e-05
2.51909e-05
2.51764e-05
2.51598e-05
2.5771e-05
2.57793e-05
2.57638e-05
2.57811e-05
5.57736e-05
6.16856e-05
3.40794e-05
4.14242e-05
5.56043e-05
6.17688e-05
3.4313e-05
6.98456e-05
6.98749e-05
5.5744e-05
3.40698e-05
6.16092e-05
4.13816e-05
5.5581e-05
3.42946e-05
6.17648e-05
6.77714e-05
6.77634e-05
4.56689e-05
6.78908e-05
6.78905e-05
6.61101e-05
7.19041e-05
6.60332e-05
7.19367e-05
6.98888e-05
6.99401e-05
6.61089e-05
7.19064e-05
6.60457e-05
7.19362e-05
2.59622e-05
2.59583e-05
2.59874e-05
2.66095e-05
2.65462e-05
2.65864e-05
2.65969e-05
5.61067e-05
6.17776e-05
3.49671e-05
4.20237e-05
5.59795e-05
6.18497e-05
3.51766e-05
6.99023e-05
6.99471e-05
5.61162e-05
3.49701e-05
6.17987e-05
4.20554e-05
5.59916e-05
3.51877e-05
6.18254e-05
6.79599e-05
6.79721e-05
4.62754e-05
6.79754e-05
6.79848e-05
6.63132e-05
7.19622e-05
6.62527e-05
7.19984e-05
6.99913e-05
7.00151e-05
6.6335e-05
7.19665e-05
6.62441e-05
7.20034e-05
2.67587e-05
2.68065e-05
2.68001e-05
2.73679e-05
2.74056e-05
2.74291e-05
2.73936e-05
5.65071e-05
6.21035e-05
3.58295e-05
4.28616e-05
5.63245e-05
6.22414e-05
3.60576e-05
6.99909e-05
7.00016e-05
5.65336e-05
3.58514e-05
6.22135e-05
4.29624e-05
5.63202e-05
3.60872e-05
6.23195e-05
6.81261e-05
6.81352e-05
4.68288e-05
6.81701e-05
6.8189e-05
6.64947e-05
7.21039e-05
6.63613e-05
7.21397e-05
7.0043e-05
7.00787e-05
6.64676e-05
7.21014e-05
6.63867e-05
7.21368e-05
2.76128e-05
2.7613e-05
2.75881e-05
2.82449e-05
2.82141e-05
2.8163e-05
2.81802e-05
5.682e-05
6.23213e-05
3.67285e-05
4.35767e-05
5.67153e-05
6.23693e-05
3.69335e-05
7.00139e-05
7.00672e-05
5.68039e-05
3.67433e-05
6.22561e-05
4.34699e-05
5.67463e-05
3.69275e-05
6.22388e-05
6.81112e-05
6.81303e-05
4.72825e-05
6.81658e-05
6.8157e-05
6.66761e-05
7.21464e-05
6.66641e-05
7.21655e-05
7.01097e-05
7.01308e-05
6.66872e-05
7.21486e-05
6.66256e-05
7.21726e-05
2.84113e-05
2.83675e-05
2.83927e-05
2.89928e-05
2.90075e-05
2.9019e-05
2.90614e-05
5.71974e-05
6.2561e-05
3.75339e-05
4.42653e-05
5.7021e-05
6.26446e-05
3.77455e-05
7.01302e-05
7.0151e-05
5.71837e-05
3.74951e-05
6.25188e-05
4.42435e-05
5.69567e-05
3.77199e-05
6.26993e-05
6.84824e-05
6.84747e-05
4.80897e-05
6.86013e-05
6.86112e-05
6.68874e-05
7.22478e-05
6.67198e-05
7.22754e-05
7.0166e-05
7.01974e-05
6.68617e-05
7.22477e-05
6.67591e-05
7.22721e-05
2.92077e-05
2.92167e-05
2.92515e-05
2.9731e-05
2.97796e-05
2.97923e-05
2.97369e-05
5.75403e-05
6.27148e-05
3.83673e-05
4.48877e-05
5.74041e-05
6.28748e-05
3.85632e-05
7.01684e-05
7.01981e-05
5.75526e-05
3.83859e-05
6.27865e-05
4.4903e-05
5.74612e-05
3.85758e-05
6.27882e-05
6.85424e-05
6.8563e-05
4.83003e-05
6.83794e-05
6.83836e-05
6.68521e-05
7.23066e-05
6.69178e-05
7.23975e-05
7.02299e-05
7.02744e-05
6.68836e-05
7.23132e-05
6.68885e-05
7.24093e-05
2.99354e-05
2.99884e-05
2.99246e-05
3.05855e-05
3.04913e-05
3.05239e-05
3.05888e-05
5.76562e-05
6.28819e-05
3.90966e-05
4.53271e-05
5.7657e-05
6.27051e-05
3.92492e-05
7.02429e-05
7.02752e-05
5.76973e-05
3.91095e-05
6.29e-05
4.55167e-05
5.76028e-05
3.92876e-05
6.301e-05
6.83783e-05
6.83831e-05
4.8976e-05
6.87995e-05
6.88303e-05
6.73811e-05
7.24734e-05
6.71156e-05
7.24309e-05
7.03588e-05
7.03696e-05
6.72598e-05
7.2468e-05
6.71799e-05
7.24133e-05
3.07306e-05
3.06831e-05
3.07812e-05
3.12868e-05
3.14088e-05
3.13455e-05
3.1247e-05
5.82569e-05
6.31399e-05
3.97873e-05
4.63042e-05
5.78992e-05
6.36569e-05
4.00265e-05
7.03183e-05
7.03639e-05
5.81472e-05
3.98119e-05
6.29983e-05
4.59813e-05
5.80092e-05
3.99997e-05
6.30523e-05
6.89893e-05
6.90243e-05
4.92631e-05
6.85856e-05
6.85688e-05
6.70794e-05
7.24027e-05
6.73185e-05
7.25317e-05
7.02888e-05
7.03223e-05
6.71931e-05
7.24172e-05
6.71676e-05
7.25768e-05
3.15656e-05
3.15822e-05
3.14533e-05
3.20199e-05
3.19472e-05
3.21025e-05
3.21304e-05
5.82833e-05
6.34489e-05
4.06897e-05
4.65875e-05
5.84074e-05
6.28005e-05
4.08045e-05
7.03847e-05
7.03668e-05
5.83668e-05
4.0597e-05
6.35337e-05
4.69184e-05
5.81888e-05
4.07894e-05
6.37129e-05
6.84216e-05
6.83949e-05
5.01096e-05
6.92452e-05
6.93319e-05
6.76521e-05
7.26703e-05
6.71761e-05
7.26391e-05
7.04965e-05
7.05363e-05
6.74857e-05
7.26628e-05
6.75196e-05
7.25793e-05
3.2166e-05
3.21878e-05
3.23023e-05
3.27646e-05
3.28118e-05
3.25793e-05
3.25815e-05
5.87371e-05
6.30461e-05
4.10988e-05
4.73471e-05
5.82927e-05
6.41662e-05
4.13161e-05
7.03402e-05
7.04402e-05
5.86498e-05
4.12881e-05
6.32354e-05
4.68892e-05
5.87493e-05
4.13818e-05
6.28181e-05
6.94042e-05
6.95598e-05
4.97242e-05
6.82219e-05
6.81963e-05
6.75182e-05
7.25767e-05
6.78569e-05
7.26368e-05
7.03265e-05
7.03313e-05
6.7581e-05
7.25809e-05
6.72918e-05
7.27269e-05
3.29739e-05
3.28422e-05
3.27742e-05
3.33691e-05
3.31907e-05
3.35188e-05
3.35762e-05
5.87469e-05
6.41877e-05
4.19989e-05
4.75327e-05
5.89521e-05
6.2881e-05
4.21001e-05
7.06231e-05
7.0614e-05
5.86125e-05
4.16729e-05
6.3548e-05
4.7892e-05
5.82666e-05
4.18862e-05
6.43131e-05
6.79987e-05
6.77859e-05
5.11348e-05
6.97764e-05
6.98615e-05
6.73293e-05
7.27439e-05
6.70656e-05
7.28275e-05
7.07179e-05
7.0866e-05
6.75989e-05
7.27836e-05
6.78568e-05
7.27618e-05
3.3303e-05
3.36652e-05
3.375e-05
3.40897e-05
3.43511e-05
3.414e-05
3.39832e-05
5.90595e-05
6.22827e-05
4.21986e-05
4.78728e-05
5.86097e-05
6.41134e-05
4.23298e-05
7.04722e-05
7.05255e-05
5.94963e-05
4.26357e-05
6.38919e-05
4.81811e-05
5.96083e-05
4.27834e-05
6.32862e-05
7.06417e-05
7.09656e-05
5.08103e-05
6.85104e-05
6.86066e-05
6.86643e-05
7.30015e-05
6.83609e-05
7.30092e-05
7.05725e-05
7.02682e-05
6.82212e-05
7.29389e-05
6.75193e-05
7.30217e-05
3.46008e-05
3.43361e-05
3.4027e-05
3.49074e-05
3.47718e-05
3.47507e-05
3.46853e-05
5.97258e-05
6.58259e-05
4.33905e-05
4.93252e-05
5.97227e-05
6.46727e-05
4.35544e-05
7.06991e-05
7.06535e-05
5.89453e-05
4.30235e-05
6.39994e-05
4.88229e-05
5.87796e-05
4.31386e-05
6.45778e-05
6.70055e-05
6.67355e-05
5.005e-05
6.89868e-05
6.88583e-05
6.68775e-05
7.26255e-05
6.76638e-05
7.25749e-05
7.0474e-05
7.08901e-05
6.73522e-05
7.27006e-05
6.831e-05
7.25966e-05
3.47699e-05
3.47968e-05
3.49962e-05
3.52253e-05
3.50481e-05
3.51903e-05
3.55944e-05
5.88562e-05
6.18259e-05
4.35255e-05
4.81067e-05
5.90984e-05
6.18579e-05
4.34923e-05
7.05102e-05
7.06905e-05
5.95257e-05
4.35615e-05
6.34478e-05
4.86028e-05
5.96874e-05
4.36096e-05
6.27326e-05
7.10558e-05
7.12804e-05
5.32654e-05
7.0185e-05
7.03702e-05
6.88746e-05
7.31902e-05
6.74998e-05
7.33825e-05
7.1091e-05
7.07895e-05
6.85728e-05
7.31389e-05
6.71501e-05
7.33664e-05
3.54937e-05
3.55427e-05
3.57021e-05
3.59293e-05
3.62344e-05
3.62033e-05
3.59181e-05
6.0532e-05
6.56465e-05
4.39085e-05
5.04279e-05
5.96477e-05
6.65414e-05
4.44358e-05
7.09822e-05
7.08607e-05
6.01135e-05
4.40462e-05
6.46809e-05
5.01762e-05
5.93526e-05
4.44109e-05
6.60603e-05
6.87922e-05
6.86831e-05
5.13705e-05
6.92199e-05
6.91046e-05
6.77222e-05
7.28167e-05
6.92884e-05
7.25383e-05
7.03079e-05
7.0559e-05
6.78605e-05
7.28485e-05
6.93033e-05
7.25505e-05
3.62339e-05
3.62155e-05
3.60308e-05
3.63491e-05
3.61744e-05
3.61776e-05
3.62192e-05
5.95358e-05
6.39174e-05
4.49041e-05
4.91975e-05
6.06481e-05
6.21373e-05
4.48383e-05
7.03656e-05
7.0533e-05
5.97229e-05
4.4854e-05
6.43878e-05
4.9297e-05
6.06173e-05
4.48174e-05
6.2383e-05
6.97862e-05
6.98145e-05
5.17925e-05
6.90446e-05
6.9115e-05
6.75876e-05
7.31335e-05
6.64459e-05
7.36734e-05
7.12643e-05
7.1387e-05
6.7531e-05
7.31209e-05
6.64583e-05
7.36687e-05
3.62085e-05
3.62129e-05
3.62842e-05
3.71318e-05
3.72235e-05
3.72233e-05
3.70588e-05
5.91563e-05
6.27751e-05
4.45213e-05
4.9781e-05
5.85181e-05
6.50756e-05
4.45594e-05
7.12383e-05
7.13829e-05
5.90664e-05
4.45378e-05
6.25254e-05
4.97329e-05
5.85488e-05
4.45712e-05
6.4995e-05
6.82299e-05
6.82431e-05
5.24428e-05
6.96376e-05
6.96215e-05
6.98489e-05
7.36742e-05
6.97231e-05
7.31522e-05
7.09352e-05
7.06464e-05
6.9835e-05
7.36764e-05
6.97107e-05
7.31562e-05
3.75676e-05
3.75636e-05
3.73874e-05
3.78951e-05
3.78482e-05
3.78431e-05
3.79651e-05
6.17311e-05
6.66264e-05
4.58666e-05
5.14831e-05
6.14348e-05
6.56294e-05
4.61902e-05
7.09398e-05
7.06488e-05
6.17143e-05
4.58556e-05
6.66236e-05
5.14622e-05
6.14181e-05
4.61811e-05
6.56075e-05
7.15433e-05
7.15494e-05
5.4184e-05
7.1235e-05
7.12433e-05
6.75067e-05
7.27346e-05
6.80669e-05
7.28621e-05
7.0675e-05
7.09362e-05
6.75172e-05
7.2743e-05
6.80769e-05
7.28679e-05
3.78269e-05
3.78233e-05
3.7985e-05
3.78316e-05
3.77863e-05
3.77913e-05
3.79489e-05
5.9651e-05
6.36159e-05
4.61997e-05
5.03022e-05
6.03496e-05
6.3397e-05
4.60247e-05
7.06864e-05
7.09512e-05
5.96638e-05
4.61947e-05
6.36121e-05
5.02967e-05
6.03494e-05
4.60262e-05
6.33749e-05
6.9102e-05
6.91099e-05
5.22533e-05
6.85639e-05
6.85732e-05
6.82512e-05
7.3311e-05
6.77445e-05
7.35184e-05
7.11866e-05
7.12442e-05
6.82451e-05
7.3311e-05
6.7712e-05
7.35252e-05
3.77976e-05
3.78118e-05
3.79444e-05
3.81444e-05
3.82317e-05
3.83401e-05
3.8122e-05
6.00801e-05
6.42474e-05
4.5809e-05
5.0594e-05
5.95458e-05
6.46885e-05
4.58214e-05
7.12158e-05
7.12683e-05
6.00903e-05
4.58239e-05
6.4231e-05
5.06963e-05
5.95358e-05
4.58415e-05
6.48053e-05
6.92095e-05
6.92044e-05
5.27546e-05
6.97814e-05
6.97874e-05
6.89397e-05
7.36379e-05
6.87516e-05
7.35984e-05
7.12489e-05
7.12435e-05
6.90259e-05
7.36486e-05
6.88362e-05
7.35938e-05
3.8467e-05
3.85596e-05
3.83723e-05
3.90876e-05
3.90592e-05
3.90364e-05
3.90066e-05
6.09494e-05
6.4996e-05
4.63565e-05
5.16224e-05
6.07245e-05
6.51471e-05
4.66096e-05
7.1218e-05
7.11708e-05
6.10356e-05
4.64379e-05
6.52483e-05
5.16839e-05
6.08317e-05
4.66805e-05
6.5243e-05
7.02935e-05
7.03397e-05
5.39549e-05
7.03649e-05
7.04146e-05
7.34222e-05
6.89585e-05
7.11796e-05
6.86254e-05
7.34036e-05
6.88332e-05
3.91933e-05
3.9138e-05
3.91472e-05
6.52313e-05
4.71145e-05
6.1066e-05
7.11439e-05
7.11821e-05
6.08236e-05
4.70726e-05
6.48706e-05
5.16775e-05
6.09781e-05
4.71066e-05
6.47205e-05
7.01236e-05
7.00953e-05
5.37902e-05
6.99538e-05
6.99045e-05
6.95458e-05
6.95717e-05
6.95487e-05
6.95737e-05
6.69622e-05
6.69781e-05
4.23543e-05
6.70565e-05
6.70673e-05
6.95964e-05
6.95738e-05
6.95986e-05
6.95757e-05
4.25189e-05
6.71355e-05
6.71382e-05
6.70741e-05
6.70829e-05
6.48586e-05
7.13814e-05
6.47406e-05
7.14204e-05
5.36014e-05
6.02711e-05
2.92524e-05
3.71484e-05
5.33937e-05
6.04098e-05
2.94985e-05
5.3601e-05
6.02588e-05
2.92373e-05
3.71411e-05
5.33879e-05
6.04456e-05
2.94891e-05
6.48808e-05
7.14531e-05
7.14211e-05
6.49937e-05
6.4881e-05
7.14504e-05
7.14257e-05
6.49948e-05
5.36463e-05
3.73808e-05
6.05596e-05
2.99982e-05
6.04368e-05
2.97476e-05
5.38608e-05
5.36468e-05
3.73991e-05
6.05991e-05
3.00008e-05
6.04777e-05
2.97449e-05
5.38641e-05
6.69962e-05
6.69976e-05
4.23968e-05
6.71217e-05
6.7124e-05
6.95563e-05
6.95779e-05
6.95942e-05
6.95798e-05
4.25919e-05
6.71802e-05
6.71746e-05
6.71456e-05
6.71471e-05
6.95919e-05
6.9578e-05
5.36155e-05
6.02812e-05
2.92549e-05
3.71471e-05
5.34084e-05
6.04178e-05
2.95036e-05
6.48685e-05
7.14054e-05
5.36177e-05
3.71657e-05
2.95091e-05
6.04277e-05
6.48854e-05
7.14512e-05
7.14209e-05
6.4976e-05
5.36576e-05
3.73794e-05
6.05571e-05
3.00021e-05
6.0443e-05
2.97535e-05
5.38523e-05
6.48855e-05
7.14467e-05
7.14109e-05
6.49699e-05
5.3659e-05
3.73833e-05
3.00035e-05
6.04981e-05
2.97588e-05
6.04417e-05
5.38477e-05
6.48706e-05
7.13863e-05
6.4743e-05
7.14235e-05
5.36147e-05
2.92554e-05
6.03185e-05
3.71697e-05
5.33925e-05
2.95063e-05
6.04348e-05
6.48717e-05
7.13782e-05
6.47473e-05
7.14065e-05
5.36585e-05
3.7401e-05
6.06014e-05
3.00068e-05
6.04862e-05
2.97493e-05
5.38705e-05
6.48923e-05
7.14496e-05
7.14279e-05
6.49932e-05
5.36596e-05
3.73788e-05
3.00027e-05
6.05048e-05
2.97559e-05
6.04481e-05
5.38632e-05
6.48921e-05
7.1441e-05
7.14111e-05
6.49885e-05
4.23642e-05
6.70608e-05
6.70624e-05
6.95716e-05
6.95941e-05
6.95728e-05
4.25191e-05
6.70505e-05
6.70502e-05
6.70577e-05
6.70597e-05
6.95923e-05
6.95719e-05
5.36273e-05
2.92578e-05
6.03269e-05
3.71677e-05
5.34074e-05
2.95111e-05
6.0441e-05
6.48796e-05
6.4763e-05
7.14106e-05
6.48775e-05
7.13808e-05
6.47617e-05
7.14068e-05
5.36703e-05
3.73855e-05
3.00097e-05
6.05038e-05
2.9764e-05
6.04494e-05
5.38557e-05
5.36696e-05
3.73767e-05
3.00061e-05
6.05036e-05
2.97613e-05
6.04533e-05
5.38543e-05
6.48965e-05
7.14485e-05
7.14155e-05
6.4971e-05
6.48944e-05
7.14396e-05
7.14111e-05
6.49706e-05
6.95508e-05
6.9565e-05
6.9553e-05
6.9567e-05
4.25185e-05
6.70309e-05
6.70354e-05
6.70527e-05
6.70628e-05
6.95883e-05
6.95651e-05
6.95901e-05
6.95671e-05
6.95981e-05
6.96234e-05
6.96004e-05
6.96263e-05
6.71425e-05
6.71438e-05
4.30247e-05
6.71855e-05
6.7184e-05
6.96572e-05
6.96265e-05
6.96614e-05
6.96297e-05
4.31756e-05
6.72845e-05
6.73013e-05
6.71986e-05
6.71986e-05
6.5092e-05
7.14541e-05
6.50116e-05
7.14786e-05
5.40891e-05
6.0579e-05
3.02473e-05
3.80325e-05
5.39023e-05
6.06749e-05
3.04926e-05
5.40899e-05
6.06144e-05
3.02532e-05
3.80613e-05
5.39055e-05
6.06718e-05
3.04995e-05
6.51061e-05
7.15371e-05
7.14985e-05
6.51838e-05
6.51038e-05
7.15265e-05
7.14849e-05
6.51774e-05
5.41242e-05
3.8247e-05
6.08105e-05
3.09739e-05
6.06951e-05
3.07342e-05
5.42911e-05
5.41239e-05
3.82536e-05
6.07618e-05
3.09733e-05
6.06815e-05
3.0739e-05
5.42851e-05
6.71785e-05
6.71722e-05
4.30557e-05
6.71589e-05
6.71482e-05
6.95915e-05
6.96113e-05
6.96528e-05
6.96163e-05
4.31782e-05
6.72278e-05
6.72306e-05
6.71575e-05
6.71474e-05
6.9652e-05
6.96146e-05
5.40646e-05
6.05746e-05
3.02469e-05
3.80246e-05
5.38894e-05
6.06661e-05
3.04873e-05
6.50686e-05
7.14553e-05
6.49831e-05
7.15033e-05
5.40598e-05
3.02441e-05
6.05155e-05
3.8034e-05
5.3884e-05
3.04847e-05
6.06837e-05
6.50899e-05
7.15436e-05
7.15009e-05
6.52035e-05
5.41021e-05
3.82382e-05
6.08156e-05
3.09666e-05
6.06871e-05
3.0726e-05
5.42957e-05
6.50882e-05
7.15375e-05
7.15105e-05
6.5209e-05
5.4099e-05
3.82822e-05
3.09777e-05
6.0905e-05
3.0729e-05
6.07378e-05
5.43023e-05
6.50783e-05
7.14534e-05
6.50069e-05
7.14805e-05
5.40735e-05
3.02469e-05
6.052e-05
3.80047e-05
5.39008e-05
3.04884e-05
6.06419e-05
6.5077e-05
7.14482e-05
6.50021e-05
7.14922e-05
5.41135e-05
3.82524e-05
6.07639e-05
3.09733e-05
6.06756e-05
3.07395e-05
5.42801e-05
6.50913e-05
7.15315e-05
7.14875e-05
6.51774e-05
5.41085e-05
3.82292e-05
3.097e-05
6.08341e-05
3.0729e-05
6.06733e-05
5.42846e-05
6.50911e-05
7.15444e-05
7.15009e-05
6.51825e-05
6.70661e-05
6.70623e-05
4.30743e-05
6.72611e-05
6.72537e-05
6.95966e-05
6.96341e-05
6.96575e-05
6.96382e-05
4.32574e-05
6.73911e-05
6.73886e-05
6.7313e-05
6.73069e-05
6.96564e-05
6.9637e-05
5.40493e-05
3.02461e-05
6.05167e-05
3.79964e-05
5.3888e-05
3.04828e-05
6.06325e-05
6.50565e-05
7.14569e-05
6.49813e-05
7.1506e-05
6.50549e-05
7.14468e-05
6.49813e-05
7.14934e-05
5.40903e-05
3.82822e-05
3.09783e-05
6.09062e-05
3.07307e-05
6.07351e-05
5.42975e-05
5.40867e-05
3.82198e-05
3.09625e-05
6.08391e-05
3.07204e-05
6.0665e-05
5.42881e-05
6.50769e-05
7.15421e-05
7.15136e-05
6.52081e-05
6.50741e-05
7.15508e-05
7.15033e-05
6.51999e-05
6.95931e-05
6.96326e-05
6.95949e-05
6.96357e-05
4.31555e-05
6.73325e-05
6.73498e-05
6.72147e-05
6.72176e-05
6.96623e-05
6.9636e-05
6.96665e-05
6.96395e-05
6.96604e-05
6.96873e-05
6.96645e-05
6.96902e-05
6.73028e-05
6.73228e-05
4.37496e-05
6.73899e-05
6.74093e-05
6.97144e-05
6.96894e-05
6.97159e-05
6.9692e-05
4.39121e-05
6.74886e-05
6.74834e-05
6.74049e-05
6.74215e-05
6.52953e-05
7.15356e-05
6.51933e-05
7.15819e-05
5.45065e-05
6.0835e-05
3.12135e-05
3.89097e-05
5.43265e-05
6.09596e-05
3.1454e-05
5.45001e-05
6.07875e-05
3.12064e-05
3.88662e-05
5.43198e-05
6.09375e-05
3.14426e-05
6.53175e-05
7.16285e-05
7.15916e-05
6.54193e-05
6.53155e-05
7.16249e-05
7.15892e-05
6.54202e-05
5.45457e-05
3.91276e-05
6.11079e-05
3.19377e-05
6.09834e-05
3.16955e-05
5.4737e-05
5.45402e-05
3.9091e-05
6.10974e-05
3.19277e-05
6.09681e-05
3.16837e-05
5.47359e-05
6.72589e-05
6.72623e-05
4.36697e-05
6.738e-05
6.73812e-05
6.96565e-05
6.96894e-05
6.97218e-05
6.96943e-05
4.38377e-05
6.74597e-05
6.74556e-05
6.74004e-05
6.74005e-05
6.97195e-05
6.96922e-05
5.45382e-05
6.08434e-05
3.12113e-05
3.8908e-05
5.43382e-05
6.09757e-05
3.14584e-05
6.53258e-05
7.15402e-05
6.52307e-05
7.15574e-05
5.45421e-05
3.12273e-05
6.09304e-05
3.89265e-05
5.43457e-05
3.14722e-05
6.0945e-05
6.53364e-05
7.16253e-05
7.15903e-05
6.53907e-05
5.45741e-05
3.91271e-05
6.11035e-05
3.19446e-05
6.09973e-05
3.17038e-05
5.47289e-05
6.53346e-05
7.16146e-05
7.15633e-05
6.538e-05
5.45753e-05
3.90867e-05
3.19359e-05
6.09381e-05
3.17082e-05
6.0933e-05
5.47158e-05
6.53073e-05
7.15404e-05
6.51965e-05
7.15841e-05
5.45201e-05
3.12136e-05
6.08639e-05
3.89339e-05
5.43236e-05
3.14594e-05
6.09983e-05
6.5313e-05
7.15511e-05
6.52019e-05
7.15826e-05
5.45525e-05
3.9094e-05
6.11e-05
3.19342e-05
6.09764e-05
3.16883e-05
5.47468e-05
6.53271e-05
7.16262e-05
7.15911e-05
6.54246e-05
5.45607e-05
3.91562e-05
3.19501e-05
6.10989e-05
3.17059e-05
6.10181e-05
5.475e-05
6.53323e-05
7.16162e-05
7.15875e-05
6.54257e-05
6.73897e-05
6.73874e-05
4.371e-05
6.72973e-05
6.72973e-05
6.96562e-05
6.96686e-05
6.97177e-05
6.96724e-05
4.38103e-05
6.72824e-05
6.72804e-05
6.72597e-05
6.72594e-05
6.9716e-05
6.9671e-05
5.4551e-05
3.12112e-05
6.08737e-05
3.89321e-05
5.43344e-05
3.14636e-05
6.10144e-05
6.53389e-05
7.15448e-05
6.52329e-05
7.15619e-05
6.53391e-05
7.15569e-05
6.52252e-05
7.15823e-05
5.45879e-05
3.90898e-05
3.19428e-05
6.0944e-05
3.17136e-05
6.09394e-05
5.47288e-05
5.4589e-05
3.91556e-05
3.19571e-05
6.10953e-05
3.17142e-05
6.10325e-05
5.47427e-05
6.53481e-05
7.16175e-05
7.15676e-05
6.53866e-05
6.53509e-05
7.16132e-05
7.15861e-05
6.53974e-05
6.96641e-05
6.96865e-05
6.9668e-05
6.96889e-05
4.39385e-05
6.74497e-05
6.74463e-05
6.74255e-05
6.74424e-05
6.97107e-05
6.96883e-05
6.97121e-05
6.96905e-05
6.97169e-05
6.97415e-05
6.97187e-05
6.97456e-05
6.75105e-05
6.75022e-05
4.44279e-05
6.75741e-05
6.75789e-05
6.97662e-05
6.97431e-05
6.97701e-05
6.97474e-05
4.45616e-05
6.75543e-05
6.75767e-05
6.75746e-05
6.75842e-05
6.55265e-05
7.16315e-05
6.5437e-05
7.16693e-05
5.49578e-05
6.11333e-05
3.21803e-05
3.97821e-05
5.47756e-05
6.1253e-05
3.24221e-05
5.49551e-05
6.11167e-05
3.2171e-05
3.97381e-05
5.47746e-05
6.12138e-05
3.24119e-05
6.55442e-05
7.1702e-05
7.16703e-05
6.56259e-05
6.55419e-05
7.17161e-05
7.16768e-05
6.56268e-05
5.49935e-05
3.99802e-05
6.13239e-05
3.28955e-05
6.12692e-05
3.26613e-05
5.51604e-05
5.49906e-05
3.99512e-05
6.13555e-05
3.28915e-05
6.12359e-05
3.26517e-05
5.51599e-05
6.74676e-05
6.74627e-05
4.43902e-05
6.75282e-05
6.75193e-05
6.97221e-05
6.9753e-05
6.97879e-05
6.97587e-05
4.454e-05
6.76363e-05
6.76312e-05
6.75493e-05
6.75388e-05
6.97868e-05
6.97566e-05
5.49241e-05
6.11255e-05
3.21812e-05
3.97743e-05
5.47593e-05
6.1243e-05
3.24162e-05
6.54986e-05
7.16296e-05
6.53918e-05
7.16892e-05
5.4913e-05
3.21617e-05
6.09754e-05
3.97089e-05
5.47447e-05
3.23942e-05
6.12487e-05
6.55277e-05
7.17078e-05
7.16761e-05
6.56534e-05
5.49646e-05
3.9972e-05
6.13368e-05
3.28877e-05
6.12623e-05
3.26518e-05
5.51695e-05
6.55255e-05
7.17187e-05
7.16956e-05
6.56606e-05
5.49567e-05
3.99696e-05
3.28898e-05
6.1451e-05
3.26382e-05
6.13083e-05
5.51781e-05
6.55164e-05
7.16327e-05
6.5439e-05
7.16697e-05
5.49484e-05
3.21901e-05
6.11107e-05
3.97425e-05
5.47854e-05
3.24254e-05
6.11874e-05
6.55133e-05
7.16226e-05
6.54391e-05
7.16615e-05
5.49849e-05
3.99516e-05
6.13528e-05