/*--------------------------------*- C++ -*----------------------------------*\
| =========                 |                                                 |
| \\      /  F ield         | OpenFOAM: The Open Source CFD Toolbox           |
|  \\    /   O peration     | Version:  2312                                  |
|   \\  /    A nd           | Website:  www.openfoam.com                      |
|    \\/     M anipulation  |                                                 |
\*---------------------------------------------------------------------------*/
FoamFile
{
    version     2.0;
    format      ascii;
    arch        "LSB;label=32;scalar=64";
    class       volScalarField;
    location    "500";
    object      p;
}
// * * * * * * * * * * * * * * * * * * * * * * * * * * * * * * * * * * * * * //

dimensions      [0 2 -2 0 0 0 0];

internalField   nonuniform List<scalar> 
42973
(
0.00167344
0.00167339
0.0016754
0.00163744
0.00163732
0.00163738
0.00163944
0.00160154
0.00160145
0.00160139
0.0016035
0.0015657
0.0015656
0.00156566
0.00156764
0.00152992
0.00152983
0.00152979
0.00153186
0.0014942
0.00149403
0.00149406
0.00149614
0.00145852
0.0014584
0.00145844
0.00146042
0.00142288
0.0014228
0.00142272
0.0014248
0.00138735
0.00138718
0.00138718
0.00138923
0.00135173
0.00135163
0.00135169
0.00135371
0.00131622
0.0013161
0.00131608
0.00131802
0.00128084
0.00128062
0.00128061
0.00128285
0.00124523
0.00124532
0.00124528
0.001247
0.00120987
0.00120947
0.0012096
0.00121207
0.00117435
0.0011747
0.00117421
0.00117572
0.00113899
0.0011382
0.00113917
0.00114183
0.0011037
0.00110461
0.00110332
0.00110441
0.00106834
0.00106689
0.00106814
0.00107108
0.00103247
0.00103348
0.00103278
0.00103428
0.000997991
0.000997428
0.000997653
0.00099944
0.000961354
0.000961003
0.000960916
0.00096359
0.000927697
0.000928363
0.000928345
0.000929639
0.000891229
0.000890469
0.000890478
0.000893077
0.00085516
0.000855342
0.000855347
0.000857024
0.000820895
0.000820898
0.000820977
0.000823006
0.000785437
0.000785285
0.000785086
0.000787241
0.00074945
0.000749318
0.000749429
0.000751367
0.00167542
0.00164424
0.00167336
0.00167339
0.00164634
0.00164632
0.00167546
0.0016442
0.00167335
0.00164634
0.00164636
0.00167334
0.00164632
0.00164634
0.00164428
0.00167333
0.00164636
0.00164634
0.00164425
0.00163941
0.00160833
0.00163735
0.00163732
0.00161042
0.00161041
0.00163938
0.00160834
0.00163735
0.00163738
0.00161042
0.00161038
0.00163736
0.00161042
0.00161043
0.00163946
0.00160825
0.00163737
0.00161038
0.00161043
0.00160833
0.00160351
0.00157245
0.00160145
0.00160145
0.00157455
0.00157456
0.00160352
0.00157246
0.00160145
0.00160139
0.00157455
0.00157459
0.00160145
0.00157456
0.00157453
0.00160345
0.00157255
0.00160144
0.00157459
0.00157453
0.00157245
0.00156763
0.00153666
0.00156558
0.0015656
0.00153873
0.00153877
0.00156765
0.00153669
0.00156558
0.00156566
0.00153873
0.00153874
0.00156559
0.00153878
0.00153876
0.00156773
0.00153663
0.00156559
0.00153874
0.00153876
0.00153667
0.00153186
0.00150094
0.00152981
0.00152983
0.00150303
0.00150299
0.00153188
0.00150088
0.00152981
0.00152979
0.00150303
0.00150301
0.00152981
0.00150299
0.00150302
0.00153183
0.00150092
0.00152981
0.001503
0.00150302
0.00150095
0.00149614
0.00146526
0.00149409
0.00149404
0.00146733
0.00146729
0.00149607
0.00146524
0.00149409
0.00149407
0.00146733
0.0014673
0.00149409
0.00146728
0.0014673
0.0014961
0.00146527
0.00149409
0.00146731
0.0014673
0.00146522
0.00146042
0.00142955
0.00145839
0.0014584
0.00143162
0.00143172
0.00146045
0.00142964
0.0014584
0.00145844
0.00143162
0.00143169
0.00145838
0.00143173
0.00143168
0.00146049
0.00142955
0.00145839
0.00143169
0.00143168
0.0014296
0.00142481
0.0013941
0.00142277
0.0014228
0.00139619
0.00139608
0.00142483
0.001394
0.00142276
0.00142271
0.00139619
0.00139603
0.00142277
0.00139607
0.00139606
0.00142472
0.001394
0.00142276
0.00139602
0.00139606
0.001394
0.00138924
0.00135839
0.00138723
0.00138719
0.00136044
0.00136052
0.00138921
0.00135846
0.00138722
0.00138719
0.00136045
0.00136059
0.0013872
0.00136053
0.0013606
0.00138923
0.0013585
0.00138719
0.0013606
0.0013606
0.00135853
0.00135363
0.00132291
0.0013516
0.00135162
0.001325
0.00132498
0.00135365
0.00132292
0.00135159
0.00135167
0.001325
0.00132497
0.00135168
0.00132498
0.00132488
0.00135369
0.0013229
0.00135169
0.00132496
0.00132487
0.00132279
0.00131812
0.00128758
0.0013161
0.00131611
0.00128957
0.00128945
0.00131811
0.00128737
0.0013161
0.0013161
0.00128956
0.00128949
0.00131601
0.00128944
0.00128959
0.00131812
0.00128742
0.001316
0.00128949
0.0012896
0.00128764
0.0012828
0.00125179
0.00128076
0.00128062
0.00125399
0.0012543
0.00128265
0.00125227
0.00128076
0.0012806
0.00125396
0.00125407
0.00128079
0.00125431
0.00125395
0.00128262
0.00125206
0.00128079
0.00125407
0.00125393
0.00125176
0.001247
0.00121667
0.00124503
0.00124533
0.00121857
0.0012182
0.00124733
0.00121603
0.00124501
0.00124528
0.0012186
0.00121861
0.00124504
0.00121821
0.00121875
0.00124731
0.00121645
0.00124502
0.00121863
0.00121879
0.0012169
0.0012119
0.00118093
0.00120982
0.00120946
0.00118318
0.00118364
0.00121143
0.00118183
0.00120985
0.00120957
0.00118311
0.00118288
0.00120996
0.00118362
0.00118278
0.00121154
0.00118091
0.00120999
0.00118285
0.00118272
0.00118045
0.00117611
0.00114573
0.0011742
0.00117473
0.00114762
0.00114696
0.00117683
0.00114462
0.00117412
0.00117426
0.00114772
0.00114818
0.00117387
0.001147
0.00114815
0.00117629
0.00114609
0.00117381
0.00114822
0.00114828
0.00114657
0.00114096
0.00111034
0.00113886
0.00113816
0.00111249
0.00111326
0.00114004
0.00111171
0.00113898
0.00113909
0.00111242
0.00111201
0.00113951
0.00111321
0.00111179
0.00114108
0.00111001
0.00113966
0.00111198
0.00111176
0.00110925
0.0011056
0.0010752
0.00110369
0.00110468
0.0010772
0.00107639
0.00110699
0.00107363
0.00110355
0.00110342
0.00107722
0.00107734
0.00110265
0.00107637
0.00107726
0.00110542
0.00107514
0.00110251
0.0010773
0.0010773
0.00107572
0.00107027
0.00103882
0.00106818
0.00106685
0.00104097
0.00104132
0.00106861
0.00104001
0.00106829
0.00106812
0.001041
0.00104108
0.00106885
0.00104148
0.00104173
0.00107006
0.00103927
0.00106901
0.00104119
0.00104178
0.00103927
0.00103416
0.00100506
0.00103225
0.00103337
0.00100694
0.00100732
0.00103557
0.00100468
0.00103223
0.0010327
0.00100686
0.00100718
0.00103241
0.00100719
0.00100602
0.0010348
0.00100492
0.00103237
0.00100706
0.00100595
0.00100408
0.00100023
0.000967795
0.000998127
0.000997574
0.000970026
0.000969236
0.000999324
0.000967275
0.000998091
0.000997797
0.000970061
0.000969359
0.000997418
0.00096927
0.000970531
0.000999639
0.000967207
0.000997413
0.000969391
0.000970576
0.000968495
0.000962938
0.000934526
0.000961003
0.000960923
0.000936207
0.000936968
0.000962965
0.000935419
0.000961035
0.000960825
0.000936196
0.000936844
0.000961543
0.000936943
0.000935988
0.000962828
0.000935408
0.000961556
0.000936845
0.000935972
0.000934162
0.00093003
0.000897955
0.000927929
0.000928391
0.000900459
0.000900059
0.000930567
0.00089737
0.000927923
0.000928362
0.000900462
0.000900005
0.000927621
0.000899989
0.000900615
0.000930591
0.000897359
0.000927609
0.000900013
0.000900621
0.000898222
0.000892808
0.00086174
0.000890849
0.000890468
0.00086359
0.000863798
0.000892275
0.00086211
0.000890853
0.000890463
0.000863596
0.000863802
0.000891099
0.00086381
0.000863596
0.000892278
0.000862098
0.000891105
0.000863816
0.000863601
0.000861668
0.000857122
0.000827837
0.00085508
0.000855348
0.000829677
0.000829691
0.000857458
0.000827682
0.000855084
0.000855349
0.00082968
0.000829778
0.000855007
0.000829664
0.000829541
0.000857456
0.000827789
0.000855011
0.000829741
0.000829544
0.000827695
0.000823137
0.000792122
0.000821058
0.000820964
0.00079432
0.000794236
0.000822922
0.000792127
0.000821063
0.000821001
0.00079431
0.000794107
0.000820933
0.000794234
0.000794303
0.000823002
0.000791921
0.000820931
0.000794103
0.00079429
0.000792142
0.000787189
0.000756086
0.000785234
0.000785279
0.000758166
0.000758269
0.000787268
0.000756165
0.000785214
0.000785081
0.000758156
0.000758255
0.000785278
0.000758286
0.000758281
0.000787049
0.000756244
0.000785256
0.000758275
0.000758271
0.000756192
0.000751288
0.000749291
0.000749303
0.000751298
0.000749296
0.000749412
0.000749363
0.000751439
0.000749369
0.00166196
0.00167543
0.00167544
0.00166194
0.00167538
0.00166191
0.00166196
0.00167542
0.00167543
0.00166194
0.00167346
0.00167343
0.00164643
0.00164643
0.00164644
0.00164642
0.00166207
0.0016754
0.00167343
0.00166436
0.00167544
0.00166198
0.00166441
0.00166197
0.00166207
0.00167341
0.00166433
0.00167543
0.0016644
0.001662
0.00167544
0.00167543
0.00166221
0.00166199
0.00166199
0.001626
0.00163944
0.00163944
0.00162599
0.00163945
0.00162602
0.00162601
0.00163945
0.00163945
0.001626
0.00163743
0.00163746
0.00163744
0.00161051
0.00161051
0.0016105
0.00161053
0.00162611
0.00163942
0.0016374
0.00162834
0.00163942
0.00162606
0.00162842
0.00163942
0.00162592
0.00162612
0.00163742
0.00163943
0.00162839
0.00163943
0.00162844
0.00162604
0.00163946
0.00163947
0.00162631
0.00162599
0.00162599
0.00159012
0.00160352
0.00160354
0.00159009
0.00160353
0.0015901
0.00159011
0.00160351
0.00160352
0.00159008
0.00160154
0.00160151
0.00160155
0.00157466
0.00157466
0.00157467
0.00157464
0.00159022
0.00160353
0.00160151
0.00159249
0.00160353
0.00159016
0.00159254
0.00160356
0.0015902
0.0015902
0.00160149
0.00160351
0.00159243
0.00160351
0.00159252
0.00159017
0.00160351
0.0016035
0.00159036
0.0015901
0.0015901
0.0015543
0.00156768
0.00156769
0.00155429
0.0015677
0.00155429
0.0015543
0.00156769
0.0015677
0.00155429
0.00156571
0.00156573
0.0015657
0.00153885
0.00153888
0.00153886
0.00153887
0.0015544
0.00156768
0.00156566
0.00155665
0.00156767
0.00155435
0.00155671
0.00156765
0.00155421
0.00155442
0.00156567
0.00156769
0.00155669
0.00156769
0.00155672
0.00155432
0.00156772
0.00156773
0.00155458
0.00155429
0.00155429
0.00151855
0.00153193
0.00153192
0.00151855
0.00153189
0.0015185
0.00151854
0.00153192
0.0015319
0.00151854
0.00152994
0.00152991
0.00152992
0.00150313
0.00150312
0.00150312
0.00150313
0.00151863
0.00153187
0.00152988
0.00152089
0.0015319
0.00151855
0.00152094
0.00153193
0.00151856
0.00151862
0.00152987
0.00153186
0.00152085
0.00153188
0.00152093
0.00151857
0.00153192
0.00153191
0.00151878
0.00151855
0.00151855
0.00148282
0.00149616
0.00149617
0.00148279
0.00149615
0.00148286
0.00148283
0.00149617
0.00149619
0.00148279
0.00149417
0.00149419
0.0014942
0.00146745
0.0014674
0.00146742
0.00146742
0.00148291
0.00149614
0.00149412
0.0014851
0.00149615
0.00148287
0.00148519
0.00149613
0.00148285
0.00148293
0.00149413
0.00149617
0.00148513
0.00149617
0.0014852
0.00148288
0.00149616
0.00149617
0.00148307
0.00148279
0.00148279
0.00144717
0.00146048
0.00146051
0.00144716
0.00146057
0.00144716
0.00144717
0.00146048
0.0014605
0.00144717
0.0014585
0.00145854
0.00145851
0.00143176
0.00143183
0.00143182
0.0014318
0.00144728
0.00146052
0.00145845
0.00144953
0.00146048
0.00144723
0.00144955
0.00146058
0.0014471
0.00144727
0.00145847
0.00146049
0.00144957
0.00146048
0.00144957
0.0014472
0.00146052
0.00146052
0.00144742
0.00144716
0.00144716
0.0014116
0.00142494
0.0014249
0.00141161
0.00142486
0.00141156
0.00141157
0.00142493
0.00142488
0.00141159
0.00142292
0.00142288
0.0014229
0.00139627
0.0013962
0.00139616
0.00139618
0.00141165
0.00142485
0.00142285
0.00141388
0.00142487
0.00141159
0.00141394
0.00142478
0.00141159
0.00141163
0.00142281
0.00142481
0.00141378
0.00142486
0.0014139
0.00141158
0.00142489
0.00142489
0.00141177
0.0014116
0.00141159
0.00137597
0.00138924
0.00138931
0.00137593
0.00138933
0.00137598
0.001376
0.00138924
0.00138931
0.00137595
0.00138732
0.00138729
0.0013873
0.00136061
0.00136065
0.0013607
0.00136071
0.0013761
0.00138929
0.00138724
0.0013783
0.00138927
0.00137605
0.00137836
0.00138942
0.00137601
0.00137612
0.00138723
0.00138932
0.00137835
0.00138926
0.00137836
0.00137608
0.00138935
0.00138935
0.0013763
0.001376
0.00137601
0.00134047
0.00135377
0.00135373
0.0013405
0.00135371
0.00134047
0.00134047
0.00135378
0.00135375
0.0013405
0.00135175
0.00135181
0.00135182
0.00132511
0.00132513
0.0013251
0.00132507
0.00134052
0.00135371
0.00135169
0.00134274
0.00135373
0.00134048
0.0013428
0.0013537
0.00134044
0.00134054
0.00135174
0.00135373
0.00134277
0.00135377
0.00134284
0.00134047
0.00135367
0.00135367
0.00134063
0.00134039
0.00134039
0.00130496
0.00131826
0.00131825
0.00130499
0.00131823
0.00130493
0.00130497
0.00131826
0.00131824
0.001305
0.00131625
0.00131622
0.00131615
0.00128966
0.00128954
0.00128962
0.00128968
0.00130502
0.00131821
0.00131614
0.0013072
0.00131819
0.00130499
0.00130725
0.00131827
0.00130496
0.00130501
0.00131612
0.00131818
0.00130722
0.00131816
0.00130725
0.00130498
0.00131833
0.00131833
0.00130516
0.00130508
0.00130508
0.00126956
0.00128278
0.00128281
0.00126944
0.00128296
0.00126964
0.00126953
0.00128278
0.0012828
0.0012694
0.00128071
0.00128075
0.00128086
0.00125417
0.00125438
0.00125416
0.00125412
0.00126965
0.00128282
0.00128069
0.00127184
0.00128274
0.0012696
0.0012719
0.00128276
0.00126959
0.00126963
0.00128068
0.00128276
0.00127175
0.00128275
0.00127182
0.00126961
0.00128266
0.00128266
0.00126976
0.00126931
0.0012693
0.00123393
0.00124726
0.00124723
0.00123408
0.00124692
0.00123371
0.001234
0.00124729
0.00124725
0.00123414
0.00124543
0.00124536
0.0012452
0.00121866
0.00121845
0.00121875
0.00121883
0.00123404
0.00124715
0.00124529
0.00123622
0.00124732
0.00123395
0.00123632
0.00124739
0.00123386
0.00123408
0.00124525
0.0012473
0.00123647
0.00124727
0.00123641
0.00123396
0.00124749
0.00124749
0.00123425
0.00123432
0.00123433
0.00119873
0.00121191
0.00121188
0.00119857
0.00121235
0.00119906
0.0011986
0.00121195
0.00121189
0.00119847
0.00120965
0.00120977
0.00121001
0.0011833
0.00118356
0.00118304
0.00118299
0.00119872
0.00121195
0.00120966
0.0012009
0.00121172
0.0011988
0.00120091
0.00121157
0.00119864
0.00119867
0.00120974
0.00121173
0.00120057
0.00121182
0.00120081
0.00119863
0.00121153
0.00121153
0.00119877
0.00119815
0.00119809
0.00116297
0.00117632
0.00117642
0.00116311
0.00117572
0.00116242
0.00116322
0.00117628
0.00117635
0.00116325
0.00117466
0.00117429
0.00117408
0.00114777
0.00114736
0.00114814
0.00114817
0.00116317
0.00117616
0.00117444
0.00116546
0.00117648
0.00116291
0.00116545
0.00117695
0.0011634
0.00116323
0.00117421
0.00117649
0.00116565
0.00117626
0.00116547
0.00116335
0.00117688
0.00117688
0.00116328
0.00116386
0.0011639
0.001128
0.00114104
0.00114094
0.00112792
0.00114182
0.00112902
0.00112779
0.00114123
0.00114116
0.00112782
0.00113855
0.00113922
0.00113944
0.00111253
0.001113
0.00111228
0.00111212
0.00112793
0.00114126
0.0011387
0.0011298
0.00114088
0.00112839
0.00113003
0.00114049
0.00112762
0.00112804
0.00113919
0.001141
0.00113
0.00114131
0.00113027
0.00112781
0.00114042
0.00114049
0.0011284
0.00112673
0.00112665
0.00109253
0.00110601
0.00110603
0.00109259
0.00110524
0.0010909
0.00109257
0.00110569
0.00110565
0.00109257
0.00110432
0.00110351
0.00110307
0.00107732
0.00107674
0.00107727
0.00107725
0.00109249
0.00110549
0.00110392
0.00109561
0.00110583
0.00109174
0.00109503
0.00110624
0.00109254
0.00109222
0.0011033
0.00110555
0.00109475
0.00110523
0.0010945
0.00109234
0.00110605
0.00110599
0.00109174
0.0010935
0.00109357
0.00105655
0.00106973
0.00106976
0.00105649
0.00106994
0.00105823
0.0010567
0.0010701
0.00107028
0.00105661
0.00106749
0.00106823
0.00106869
0.00104121
0.00104146
0.00104139
0.00104184
0.00105696
0.00106999
0.00106774
0.00105791
0.00107006
0.0010575
0.00105885
0.0010695
0.00105701
0.00105746
0.00106832
0.00107025
0.00105895
0.00107062
0.00105942
0.00105732
0.00107063
0.0010708
0.0010585
0.00105623
0.0010563
0.00102231
0.00103531
0.00103525
0.00102234
0.00103606
0.0010212
0.00102209
0.00103506
0.00103483
0.00102221
0.00103322
0.00103281
0.00103265
0.00100683
0.00100705
0.0010069
0.00100626
0.00102202
0.00103553
0.001033
0.00102517
0.00103498
0.00102177
0.00102438
0.00103602
0.00102194
0.00102161
0.00103275
0.00103521
0.00102442
0.00103467
0.00102401
0.00102173
0.00103439
0.00103422
0.00102095
0.00102191
0.00102185
0.000985587
0.000999365
0.000999528
0.000985558
0.000997925
0.00098587
0.000985698
0.000999493
0.000999696
0.000985622
0.000997699
0.000997778
0.000997524
0.00097033
0.000969923
0.000969999
0.000970554
0.000985997
0.000998736
0.000997596
0.000987613
0.000999486
0.000985772
0.000988324
0.000997985
0.000985515
0.000986218
0.000997569
0.000998886
0.000987966
0.000999615
0.000988427
0.000985807
0.000999759
0.000999799
0.000986664
0.00098613
0.000986182
0.000951464
0.000964102
0.000963744
0.00095171
0.000965587
0.000952214
0.000951414
0.000964082
0.000963727
0.000951678
0.000961263
0.000961254
0.000961614
0.000936119
0.000936455
0.000936397
0.000935989
0.000951049
0.000964559
0.000961266
0.000953039
0.000963593
0.000951702
0.000952807
0.000965554
0.000952299
0.000950943
0.000961311
0.000964452
0.000952889
0.000963587
0.000952766
0.000951657
0.000964131
0.000964121
0.000950834
0.000951389
0.000951348
0.000915934
0.000929531
0.000929829
0.00091546
0.00092837
0.000914637
0.000915983
0.000929531
0.000929831
0.000915464
0.000927951
0.000927917
0.000927594
0.000900681
0.00090057
0.000900575
0.000900803
0.000916507
0.000929143
0.000927749
0.000919223
0.000929758
0.000915545
0.00091904
0.000928369
0.000914583
0.000916528
0.000927716
0.000929188
0.000919248
0.000929736
0.000919016
0.000915539
0.000929321
0.00092932
0.000916956
0.000915454
0.000915469
0.000879417
0.000892747
0.000892696
0.000879746
0.000893231
0.000880487
0.000879423
0.000892747
0.000892696
0.000879749
0.000891037
0.000891044
0.000891364
0.000863835
0.000863909
0.000863913
0.000863875
0.000879398
0.000892972
0.000891099
0.000881231
0.000892993
0.000879901
0.000881742
0.000893228
0.000880502
0.000879417
0.000891112
0.000892985
0.00088124
0.000892996
0.000881753
0.000879927
0.000892954
0.000892959
0.000879362
0.000879861
0.000879868
0.000844995
0.000858161
0.000857983
0.000845053
0.000858198
0.000844758
0.000845008
0.000858161
0.000857993
0.000845061
0.000855285
0.000855287
0.000855141
0.000829529
0.000829519
0.000829573
0.000829441
0.000844816
0.000857904
0.000855108
0.000846863
0.000857517
0.000844873
0.000846599
0.000858239
0.000844819
0.000844821
0.00085512
0.00085794
0.000846882
0.000857532
0.000846617
0.000844893
0.000858025
0.000858036
0.000844709
0.000844887
0.00084489
0.000809641
0.000822882
0.000822975
0.000809505
0.000822714
0.000809542
0.000809612
0.000822895
0.000822984
0.000809495
0.000820836
0.000820908
0.000820793
0.000794458
0.000794399
0.000794311
0.000794419
0.000809791
0.000822785
0.000820842
0.000812053
0.000822977
0.000809605
0.000812102
0.000822607
0.000809338
0.000809782
0.00082088
0.000822724
0.000812091
0.000822984
0.000812118
0.000809499
0.000822812
0.000822811
0.000810144
0.000809516
0.000809503
0.000773846
0.000787131
0.000787223
0.000773844
0.000787227
0.000773833
0.00077381
0.000787083
0.000787152
0.000773811
0.000785459
0.000785305
0.000785451
0.000758363
0.000758432
0.000758406
0.000758447
0.000774024
0.000787255
0.00078538
0.000776302
0.000787295
0.000773952
0.00077638
0.000787201
0.000774011
0.000773959
0.000785273
0.000787205
0.000776099
0.00078723
0.000776261
0.000773978
0.000787217
0.000787195
0.000774087
0.00077391
0.000773904
0.000751744
0.000751605
0.000751714
0.000738501
0.000751788
0.000751688
0.00074946
0.000749512
0.000749504
0.000751615
0.000749404
0.000751547
0.000751863
0.000738536
0.000738465
0.000749438
0.000751732
0.000740603
0.000751585
0.000740572
0.000738509
0.000751743
0.00075177
0.000738489
0.00073846
0.000738483
0.00167542
0.00166194
0.00167542
0.00166194
0.00167543
0.00167543
0.00166224
0.00166195
0.00166195
0.00164397
0.00165742
0.00164398
0.00165742
0.00165741
0.00164398
0.00164398
0.00165743
0.00165744
0.00166195
0.00167541
0.00167544
0.00166192
0.00166208
0.00167542
0.00167342
0.00166435
0.00167544
0.00166201
0.00166441
0.00166208
0.0016754
0.00167343
0.00166436
0.00167544
0.00166198
0.00166442
0.00165742
0.00164395
0.00165742
0.00164396
0.00165742
0.00164394
0.00165739
0.00164396
0.00165742
0.00165534
0.00164401
0.0016464
0.00165741
0.00165541
0.00164407
0.00165742
0.00165533
0.001644
0.0016464
0.00165738
0.00165541
0.00164407
0.00167539
0.00167539
0.00166223
0.00166192
0.00166191
0.00167537
0.0016619
0.00164396
0.00165739
0.00165739
0.00164396
0.00164396
0.0016574
0.0016574
0.00164396
0.00165739
0.00166207
0.00167541
0.00167341
0.00166434
0.00167543
0.001662
0.00166441
0.00166196
0.00166194
0.00166207
0.00166433
0.0016644
0.001662
0.00165743
0.00164396
0.00165742
0.00164397
0.00165742
0.00165534
0.00164402
0.00164641
0.00165741
0.0016554
0.00164408
0.00165743
0.00164396
0.00165742
0.00164398
0.00165742
0.00165533
0.00164641
0.00164401
0.0016554
0.0016574
0.00164408
0.00166195
0.0016754
0.00167544
0.00166191
0.00166207
0.00167342
0.00167541
0.00166432
0.00167543
0.00166441
0.00166201
0.00166195
0.00167541
0.00167543
0.00166195
0.00165741
0.00165533
0.001644
0.0016464
0.00165738
0.0016554
0.00164407
0.00165741
0.00164395
0.00165739
0.00164396
0.00165741
0.00165532
0.0016464
0.00164403
0.0016554
0.00165742
0.00164407
0.00165742
0.00164398
0.00165743
0.00164397
0.00166222
0.00166197
0.00166197
0.00166197
0.00164397
0.00165746
0.00165741
0.00164396
0.00164396
0.00165746
0.00165746
0.00164397
0.00165745
0.00166206
0.00167341
0.0016754
0.00166432
0.00167542
0.0016644
0.00166201
0.00166195
0.00167543
0.00166194
0.00166195
0.00167541
0.00167542
0.00166195
0.00165741
0.00165533
0.00164641
0.00164401
0.0016554
0.0016574
0.00164408
0.00165741
0.00165532
0.0016464
0.00164403
0.0016554
0.00165742
0.00164408
0.00165743
0.00164396
0.00165742
0.00164398
0.00165742
0.00164399
0.00165744
0.00164398
0.00167541
0.00166198
0.00167541
0.00166198
0.00165739
0.00164399
0.00164399
0.00165747
0.00165747
0.00164399
0.00165746
0.001644
0.00165747
0.00163945
0.001626
0.00163946
0.001626
0.00163947
0.00163947
0.00162628
0.001626
0.001626
0.00160803
0.00162148
0.00160802
0.00162148
0.00162146
0.00160803
0.00160803
0.00162149
0.00162149
0.001626
0.00163943
0.00163943
0.001626
0.0016261
0.00163943
0.00163741
0.00162837
0.00163942
0.00162605
0.00162842
0.0016261
0.00163941
0.0016374
0.00162834
0.00163942
0.00162605
0.00162842
0.00162148
0.00160804
0.00162148
0.00160806
0.00162149
0.00160805
0.00162149
0.00160806
0.00162146
0.00161939
0.00160809
0.00161047
0.00162146
0.00161944
0.00160816
0.00162146
0.00161937
0.00160811
0.00161047
0.00162147
0.00161944
0.00160816
0.00163946
0.00163946
0.00162625
0.00162602
0.00162603
0.00163945
0.00162603
0.00160805
0.00162151
0.00162144
0.00160806
0.00160806
0.00162151
0.00162152
0.00160805
0.00162151
0.00162611
0.00163943
0.00163742
0.00162837
0.00163943
0.00162605
0.00162843
0.001626
0.00163944
0.00163945
0.00162596
0.00162611
0.00163742
0.00163943
0.00162839
0.00163943
0.00162844
0.00162604
0.00162148
0.00160802
0.00162148
0.00160804
0.00162147
0.0016194
0.00160808
0.00161047
0.00162147
0.00161945
0.00160816
0.00162148
0.00160803
0.00162145
0.00160804
0.00162147
0.00161938
0.00161046
0.00160808
0.00161945
0.00162144
0.00160815
0.00162601
0.00163944
0.00163944
0.00162601
0.00162611
0.00163741
0.00163944
0.00162839
0.00163943
0.00162843
0.00162605
0.00162601
0.00163945
0.00163944
0.00162598
0.00162147
0.00161938
0.00160811
0.00161048
0.00162148
0.00161944
0.00160817
0.00162149
0.00160805
0.00162149
0.00160806
0.00162147
0.00161941
0.00161048
0.00160808
0.00161945
0.00162146
0.00160816
0.00162149
0.00160802
0.00162146
0.00160806
0.00163942
0.00163943
0.00162627
0.00162594
0.00162594
0.00163943
0.00162593
0.00160804
0.00162141
0.00162143
0.00160806
0.00160806
0.00162143
0.00162143
0.00160804
0.0016214
0.00162612
0.00163742
0.00163944
0.0016284
0.00163943
0.00162844
0.00162605
0.00162601
0.00163944
0.00163946
0.00162597
0.00162601
0.00163946
0.00163946
0.00162599
0.00162148
0.00161938
0.00161047
0.00160808
0.00161945
0.00162145
0.00160815
0.00162148
0.00161942
0.00161048
0.00160807
0.00161946
0.00162146
0.00160816
0.00162148
0.00160803
0.00162145
0.00160804
0.00162149
0.00160801
0.00162146
0.00160804
0.00163945
0.00162598
0.00163946
0.00162598
0.00162148
0.00160801
0.00160801
0.00162147
0.00162147
0.00160801
0.00162146
0.001608
0.00162146
0.00160352
0.0015901
0.00160351
0.00159009
0.00160353
0.00160352
0.00159039
0.0015901
0.00159009
0.00157216
0.00158559
0.00157217
0.00158559
0.00158557
0.00157217
0.00157217
0.00158559
0.00158559
0.00159012
0.00160354
0.00160354
0.00159011
0.00159023
0.00160351
0.0016015
0.00159248
0.00160353
0.00159015
0.00159254
0.00159023
0.00160353
0.00160151
0.00159249
0.00160353
0.00159016
0.00159254
0.00158561
0.00157217
0.00158558
0.0015722
0.00158561
0.00157219
0.0015856
0.0015722
0.00158559
0.00158352
0.00157223
0.00157462
0.00158557
0.00158358
0.0015723
0.0015856
0.00158353
0.00157225
0.00157462
0.00158558
0.00158358
0.0015723
0.00160354
0.00160354
0.0015904
0.0015901
0.0015901
0.00160353
0.0015901
0.0015722
0.0015856
0.00158558
0.00157221
0.00157221
0.0015856
0.0015856
0.00157221
0.00158559
0.00159021
0.0016035
0.0016015
0.00159248
0.00160351
0.00159014
0.00159253
0.00159012
0.00160353
0.00160352
0.00159014
0.00159021
0.00160149
0.00160351
0.00159243
0.00160351
0.00159252
0.00159017
0.0015856
0.00157219
0.00158558
0.00157221
0.00158558
0.00158351
0.00157223
0.00157461
0.00158557
0.00158357
0.0015723
0.00158561
0.00157221
0.00158564
0.00157222
0.00158558
0.00158351
0.00157462
0.00157227
0.00158357
0.00158561
0.00157231
0.00159012
0.00160353
0.00160354
0.0015901
0.00159022
0.00160151
0.0016035
0.00159247
0.00160353
0.00159254
0.00159015
0.00159011
0.00160351
0.00160354
0.0015901
0.00158559
0.00158352
0.00157224
0.00157461
0.00158558
0.00158357
0.0015723
0.0015856
0.00157219
0.0015856
0.0015722
0.00158559
0.00158349
0.00157461
0.00157224
0.00158357
0.00158557
0.0015723
0.0015856
0.00157219
0.00158559
0.0015722
0.00160358
0.00160357
0.00159036
0.00159019
0.00159019
0.00160355
0.0015902
0.00157219
0.00158569
0.00158557
0.00157219
0.00157219
0.00158569
0.00158569
0.0015722
0.00158569
0.0015902
0.0016015
0.00160349
0.00159246
0.00160352
0.00159252
0.00159014
0.00159011
0.00160353
0.00160352
0.00159014
0.0015901
0.0016035
0.00160352
0.00159009
0.00158558
0.0015835
0.00157462
0.00157227
0.00158356
0.00158561
0.00157231
0.00158557
0.00158349
0.0015746
0.00157225
0.00158356
0.00158557
0.0015723
0.00158561
0.00157221
0.00158564
0.00157222
0.0015856
0.0015722
0.00158559
0.00157222
0.0016035
0.00159009
0.00160349
0.00159009
0.00158554
0.00157222
0.00157222
0.00158561
0.00158561
0.00157222
0.0015856
0.00157223
0.0015856
0.00156766
0.0015543
0.00156767
0.0015543
0.00156767
0.00156767
0.00155453
0.0015543
0.0015543
0.00153646
0.00154981
0.00153646
0.00154981
0.00154972
0.00153647
0.00153646
0.00154983
0.00154983
0.0015543
0.00156769
0.00156769
0.00155429
0.0015544
0.00156766
0.00156565
0.00155662
0.00156767
0.00155434
0.0015567
0.0015544
0.00156768
0.00156566
0.00155665
0.00156768
0.00155434
0.00155671
0.00154979
0.00153643
0.0015498
0.00153642
0.0015498
0.00153639
0.00154979
0.00153642
0.00154977
0.00154767
0.00153647
0.00153881
0.00154977
0.00154775
0.00153651
0.00154978
0.00154771
0.00153644
0.00153882
0.00154977
0.00154776
0.00153651
0.00156771
0.00156772
0.00155457
0.0015543
0.0015543
0.00156771
0.0015543
0.00153639
0.00154979
0.00154977
0.00153638
0.00153638
0.00154979
0.0015498
0.00153639
0.00154979
0.00155441
0.00156767
0.00156566
0.00155663
0.00156768
0.00155434
0.0015567
0.0015543
0.00156769
0.00156771
0.00155425
0.00155441
0.00156567
0.00156769
0.00155669
0.00156769
0.00155672
0.00155431
0.00154979
0.00153641
0.0015498
0.0015364
0.00154978
0.00154768
0.00153647
0.00153881
0.00154978
0.00154775
0.00153651
0.00154978
0.00153637
0.00154975
0.00153639
0.00154978
0.00154771
0.00153881
0.00153642
0.00154776
0.00154974
0.0015365
0.00155431
0.00156769
0.00156769
0.0015543
0.0015544
0.00156566
0.00156767
0.00155665
0.00156767
0.00155671
0.00155435
0.00155431
0.00156769
0.0015677
0.0015543
0.00154978
0.00154771
0.00153644
0.00153882
0.00154978
0.00154776
0.00153652
0.0015498
0.00153639
0.0015498
0.00153642
0.00154978
0.00154771
0.00153882
0.00153645
0.00154776
0.00154978
0.00153652
0.0015498
0.00153641
0.0015498
0.00153642
0.00156766
0.00156766
0.00155457
0.00155422
0.00155422
0.00156765
0.00155421
0.0015364
0.00154972
0.00154975
0.0015364
0.0015364
0.00154973
0.00154974
0.0015364
0.00154972
0.00155442
0.00156566
0.00156768
0.00155666
0.00156768
0.00155672
0.00155435
0.00155431
0.00156769
0.00156771
0.00155425
0.00155431
0.00156771
0.00156771
0.0015543
0.00154979
0.00154771
0.00153882
0.00153642
0.00154777
0.00154974
0.0015365
0.0015498
0.00154771
0.00153882
0.00153645
0.00154777
0.00154978
0.00153651
0.00154979
0.00153638
0.00154975
0.0015364
0.0015498
0.00153639
0.0015498
0.0015364
0.00156772
0.0015543
0.00156772
0.00155429
0.00154977
0.0015364
0.00153639
0.00154979
0.00154979
0.00153639
0.00154979
0.00153638
0.00154978
0.00153197
0.00151853
0.00153196
0.00151853
0.00153197
0.00153197
0.00151883
0.00151853
0.00151853
0.00150065
0.00151401
0.00150065
0.00151402
0.00151402
0.00150065
0.00150065
0.00151402
0.00151403
0.00151854
0.00153189
0.00153191
0.0015185
0.00151864
0.00153191
0.00152988
0.0015209
0.0015319
0.0015186
0.00152094
0.00151864
0.00153187
0.00152988
0.00152089
0.00153189
0.00151856
0.00152094
0.00151404
0.00150066
0.00151405
0.00150067
0.00151404
0.00150064
0.00151401
0.00150067
0.00151403
0.00151197
0.00150071
0.00150307
0.00151403
0.00151201
0.00150077
0.00151402
0.00151194
0.00150069
0.00150306
0.001514
0.001512
0.00150077
0.00153189
0.00153189
0.0015188
0.00151849
0.00151849
0.00153189
0.00151849
0.00150062
0.001514
0.00151398
0.00150063
0.00150062
0.001514
0.001514
0.00150062
0.00151399
0.00151863
0.00153191
0.00152987
0.00152089
0.00153188
0.00151859
0.00152093
0.00151855
0.00153189
0.0015319
0.00151853
0.00151863
0.00152987
0.00153186
0.00152085
0.00153187
0.00152093
0.00151857
0.00151405
0.00150067
0.00151405
0.00150069
0.00151402
0.00151197
0.00150071
0.00150307
0.00151403
0.001512
0.00150078
0.00151405
0.00150067