/*--------------------------------*- C++ -*----------------------------------*\
| =========                 |                                                 |
| \\      /  F ield         | OpenFOAM: The Open Source CFD Toolbox           |
|  \\    /   O peration     | Version:  2312                                  |
|   \\  /    A nd           | Website:  www.openfoam.com                      |
|    \\/     M anipulation  |                                                 |
\*---------------------------------------------------------------------------*/
FoamFile
{
    version     2.0;
    format      ascii;
    arch        "LSB;label=32;scalar=64";
    class       surfaceScalarField;
    location    "500";
    object      phi;
}
// * * * * * * * * * * * * * * * * * * * * * * * * * * * * * * * * * * * * * //

dimensions      [0 3 -1 0 0 0 0];

oriented        oriented;

internalField   nonuniform List<scalar> 
124041
(
-2.23158e-07
-2.2067e-07
1.91197e-07
1.95718e-07
0.00119122
-1.25407e-06
2.37394e-07
9.53791e-08
0.00114026
-2.58144e-07
1.21574e-06
2.27068e-07
8.52447e-07
-2.49388e-07
-9.01059e-07
1.95582e-07
1.26805e-06
1.23245e-06
-2.2981e-07
-2.31432e-07
0.000269432
-1.88499e-07
-1.89463e-07
-0.00119135
1.74855e-07
1.7109e-07
0.00119139
-0.00113979
-1.23628e-06
1.81093e-07
3.20449e-08
0.00113967
-2.43667e-07
1.22734e-06
2.35943e-07
8.56737e-07
-2.40872e-07
-8.94789e-07
2.03373e-07
-0.00113968
-1.24887e-06
2.02446e-07
9.13792e-08
0.00113954
-2.5883e-07
1.20909e-06
2.17544e-07
8.58482e-07
-2.39161e-07
-8.91245e-07
2.01846e-07
-0.00027135
1.27444e-06
1.23633e-06
-2.33523e-07
-2.36567e-07
0.000269309
-1.7279e-07
-1.71978e-07
-0.00119146
1.64652e-07
1.68426e-07
0.00119147
-0.0011393
-1.23954e-06
1.74402e-07
4.94039e-08
0.00113917
-2.48143e-07
1.2201e-06
2.29567e-07
8.59454e-07
-2.36157e-07
-8.88083e-07
2.04956e-07
-0.00113912
-1.21922e-06
1.49149e-07
-4.45312e-09
0.001139
-2.24591e-07
1.2352e-06
2.45177e-07
8.58358e-07
-2.36925e-07
-8.91151e-07
2.07627e-07
-0.000271196
1.26825e-06
1.23183e-06
-2.29493e-07
-2.32186e-07
0.000269158
-1.50276e-07
-1.49089e-07
-0.00119148
1.48809e-07
1.48519e-07
0.00119148
-0.00113874
-1.23229e-06
1.47444e-07
4.70878e-08
0.0011386
-2.41656e-07
1.22275e-06
2.32023e-07
8.63157e-07
-2.29474e-07
-8.81494e-07
2.09817e-07
-0.00113863
-1.24682e-06
1.69528e-07
1.01489e-07
0.00113849
-2.57288e-07
1.20518e-06
2.16708e-07
8.62574e-07
-2.31069e-07
-8.79562e-07
2.04915e-07
-0.00027108
1.25934e-06
1.22224e-06
-2.22875e-07
-2.25182e-07
0.000269046
-1.15797e-07
-1.13146e-07
-0.00119147
1.16821e-07
1.22051e-07
0.00119146
-0.00113819
-1.23068e-06
1.34824e-07
4.76134e-08
0.00113805
-2.4093e-07
1.22136e-06
2.31867e-07
8.64099e-07
-2.2622e-07
-8.77118e-07
2.10631e-07
-0.00113804
-1.21543e-06
1.14687e-07
1.25907e-08
0.00113791
-2.26068e-07
1.22927e-06
2.37057e-07
8.64548e-07
-2.24421e-07
-8.78454e-07
2.14814e-07
-0.000270963
1.25294e-06
1.21691e-06
-2.18449e-07
-2.2055e-07
0.000268932
-1.03706e-07
-1.03942e-07
-0.0011914
1.23056e-07
1.22988e-07
0.00119136
-0.00113768
-1.21638e-06
9.35121e-08
-1.43479e-08
0.00113758
-2.23549e-07
1.23513e-06
2.50287e-07
8.62672e-07
-2.2619e-07
-8.75991e-07
2.09606e-07
-0.00113758
-1.21955e-06
1.02202e-07
1.12305e-08
0.00113747
-2.25415e-07
1.22808e-06
2.45399e-07
8.62224e-07
-2.27721e-07
-8.75116e-07
2.07082e-07
-0.000270853
1.25987e-06
1.22262e-06
-2.23907e-07
-2.26745e-07
0.000268821
-1.01419e-07
-1.09474e-07
-0.00119122
1.36162e-07
1.22165e-07
0.00119117
-0.0011373
-1.22421e-06
6.72983e-08
1.95928e-08
0.00113721
-2.41464e-07
1.21981e-06
2.26622e-07
8.74536e-07
-2.109e-07
-8.62357e-07
2.2213e-07
-0.00113714
-1.22925e-06
8.21471e-08
6.62953e-08
0.00113702
-2.51851e-07
1.2052e-06
2.06226e-07
8.79145e-07
-2.05125e-07
-8.58534e-07
2.27588e-07
-0.000270745
1.24871e-06
1.20882e-06
-2.12854e-07
-2.17529e-07
0.000268717
-2.32084e-08
-2.14415e-08
-0.00119104
4.15023e-08
4.61069e-08
0.00119099
-0.00113682
-1.21964e-06
8.66358e-08
3.62142e-08
0.00113668
-2.30881e-07
1.22362e-06
2.36159e-07
8.67997e-07
-2.16261e-07
-8.6538e-07
2.15491e-07
-0.00113661
-1.20099e-06
7.44267e-08
-1.89331e-08
0.0011365
-2.02144e-07
1.24139e-06
2.63409e-07
8.57654e-07
-2.27668e-07
-8.75294e-07
2.05515e-07
-0.000270661
1.24071e-06
1.20506e-06
-2.10848e-07
-2.12754e-07
0.000268639
-9.73263e-08
-7.99373e-08
-0.00119083
1.16085e-07
1.37571e-07
0.00119076
-0.00113633
-1.21167e-06
2.66783e-08
3.33973e-09
0.00113624
-2.25289e-07
1.22759e-06
2.39263e-07
8.74504e-07
-2.07109e-07
-8.56615e-07
2.2301e-07
-0.00113625
-1.2171e-06
1.04666e-08
1.2915e-08
0.00113618
-2.40477e-07
1.21396e-06
2.17536e-07
8.84389e-07
-1.96688e-07
-8.4819e-07
2.32762e-07
-0.000270589
1.24183e-06
1.20965e-06
-2.13292e-07
-2.11983e-07
0.000268563
1.47747e-08
-1.02279e-09
-0.00119054
3.10095e-08
1.3614e-08
0.00119048
-0.00113596
-1.20572e-06
3.85271e-08
-3.88676e-08
0.00113588
-2.17682e-07
1.23488e-06
2.49803e-07
8.71092e-07
-2.10809e-07
-8.58293e-07
2.18283e-07
-0.00113588
-1.20521e-06
6.10507e-08
4.13721e-09
0.00113575
-2.14973e-07
1.22864e-06
2.44281e-07
8.6627e-07
-2.1439e-07
-8.62118e-07
2.14308e-07
-0.000270471
1.25007e-06
1.20825e-06
-2.14451e-07
-2.20999e-07
0.000268448
-5.67077e-09
-2.54177e-09
-0.00119031
3.50679e-08
3.92441e-08
0.00119024
-0.00113559
-1.21662e-06
2.26515e-08
4.04421e-08
0.0011355
-2.34065e-07
1.21682e-06
2.28468e-07
8.71273e-07
-2.05695e-07
-8.54901e-07
2.19707e-07
-0.00113543
-1.20637e-06
-1.15711e-09
1.73845e-08
0.00113533
-2.24252e-07
1.22113e-06
2.30816e-07
8.79234e-07
-1.98665e-07
-8.48673e-07
2.28967e-07
-0.000270434
1.21489e-06
1.17829e-06
-1.91837e-07
-1.94152e-07
0.000268427
-2.985e-08
-3.99671e-08
-0.00118997
9.68763e-08
7.6381e-08
0.00118987
-0.00113528
-1.18428e-06
-7.67421e-08
-9.53728e-08
0.00113521
-2.00231e-07
1.2453e-06
2.51677e-07
8.94859e-07
-1.84355e-07
-8.34171e-07
2.47183e-07
-0.00113507
-1.19729e-06
-1.48476e-08
-5.04753e-08
0.00113501
-2.08634e-07
1.23458e-06
2.5224e-07
8.73928e-07
-2.05117e-07
-8.50149e-07
2.2054e-07
-0.00027037
1.27419e-06
1.2356e-06
-2.3446e-07
-2.38344e-07
0.000268333
4.25293e-08
7.98843e-08
-0.00118962
-5.73765e-08
4.09615e-10
0.00118955
-0.00113486
-1.24607e-06
1.18942e-07
1.72134e-07
0.00113471
-2.56374e-07
1.19485e-06
2.23853e-07
8.47659e-07
-2.25742e-07
-8.66951e-07
1.88009e-07
-0.00113483
-1.21587e-06
-1.30518e-08
8.15139e-08
0.00113471
-2.45051e-07
1.19944e-06
1.98289e-07
8.90457e-07
-1.82401e-07
-8.36206e-07
2.42735e-07
-0.000270297
1.16784e-06
1.14047e-06
-1.62147e-07
-1.57824e-07
0.000268308
5.33216e-08
-1.72855e-08
-0.00118932
8.13882e-08
-2.32982e-08
0.00118923
-0.00113456
-1.12e-06
-2.26516e-07
-3.50272e-07
0.00113461
-1.43163e-07
1.29541e-06
2.86467e-07
9.1477e-07
-1.61675e-07
-8.19581e-07
2.77082e-07
-0.0011343
-1.17882e-06
2.19905e-08
-1.26901e-07
0.00113426
-1.70121e-07
1.26143e-06
3.03427e-07
8.43535e-07
-2.3248e-07
-8.70195e-07
1.85114e-07
-0.000270263
1.32811e-06
1.27105e-06
-2.66006e-07
-2.84021e-07
0.000268214
-3.3966e-08
1.00654e-07
-0.00118893
-7.46831e-08
1.12874e-07
0.00118882
-0.00113437
-1.3222e-06
2.04316e-07
4.9845e-07
0.00113413
-3.364e-07
1.12136e-06
1.56338e-07
8.39731e-07
-2.29657e-07
-8.62832e-07
1.71947e-07
-0.00113439
-1.19072e-06
-2.25087e-07
2.01898e-08
0.00113434
-2.415e-07
1.20561e-06
1.76181e-07
9.3616e-07
-1.34193e-07
-7.98934e-07
2.99517e-07
-0.000270213
1.07714e-06
1.08049e-06
-1.14551e-07
-8.85932e-08
0.000268258
1.84106e-07
-1.98383e-08
-0.00118854
1.01887e-07
-1.74891e-07
0.00118845
-0.00113395
-9.99352e-07
-4.27024e-07
-8.93814e-07
0.0011342
-2.33725e-09
1.42474e-06
4.26941e-07
9.1978e-07
-1.61827e-07
-8.22456e-07
2.87671e-07
-0.00113379
-1.20988e-06
1.80548e-07
-2.43831e-08
0.00113367
-1.88479e-07
1.24252e-06
3.03614e-07
8.14242e-07
-2.5946e-07
-8.87462e-07
1.48451e-07
-0.000270198
1.44612e-06
1.34373e-06
-3.22456e-07
-3.75015e-07
0.000268106
1.6395e-08
1.87224e-07
-0.00118814
-1.62804e-07
6.52342e-08
0.00118804
-0.00113415
-1.46502e-06
3.43693e-07
1.08223e-06
0.00113371
-5.21092e-07
9.47059e-07
-5.79138e-08
8.8569e-07
-1.78261e-07
-8.07848e-07
2.11768e-07
-0.00113365
-1.18997e-06
-2.55413e-07
6.99252e-08
0.00113359
-2.56895e-07
1.18797e-06
1.43992e-07
9.48377e-07
-1.18394e-07
-7.87485e-07
3.13968e-07
-0.000269999
9.6765e-07
9.95979e-07
-5.31268e-08
-1.03665e-08
0.000268099
-7.50192e-08
-1.17722e-07
-0.00118781
1.6528e-07
9.53681e-08
0.00118775
-0.00113265
-9.53001e-07
-3.73568e-07
-9.26971e-07
0.00113291
1.01277e-07
1.5e-06
5.68244e-07
8.13273e-07
-2.63503e-07
-9.18136e-07
1.86485e-07
-0.00113318
-1.19661e-06
4.94551e-09
-8.10805e-08
0.00113319
-1.5121e-07
1.2683e-06
3.55639e-07
8.0577e-07
-2.65584e-07
-8.89181e-07
1.38458e-07
-0.000270496
1.40561e-06
1.34061e-06
-3.13991e-07
-3.34224e-07
0.000268398
3.74109e-07
2.93963e-07
-0.0011872
-1.88038e-07
-2.58373e-07
0.00118698
-0.00113426
-1.29216e-06
-5.21955e-08
2.4208e-07
0.00113418
-4.23752e-07
1.06648e-06
-1.31533e-08
9.98596e-07
-6.30188e-08
-7.21541e-07
3.41848e-07
-0.00113364
-1.13459e-06
-1.65798e-07
-2.07046e-07
0.00113358
-2.32532e-07
1.21923e-06
1.39615e-07
9.69712e-07
-9.71203e-08
-7.68946e-07
3.37925e-07
-0.00026972
1.1797e-06
1.1309e-06
-1.52741e-07
-1.67982e-07
0.00026773
-1.67239e-07
-6.38305e-08
-0.00118702
-1.85173e-08
7.35901e-08
0.0011872
-0.00113263
-1.21936e-06
2.06243e-07
2.41588e-07
0.00113234
-1.41002e-07
1.25961e-06
3.84264e-07
7.46588e-07
-3.16525e-07
-9.47768e-07
8.40842e-08
-0.00113267
-1.28737e-06
1.93965e-07
4.05367e-07
0.00113245
-2.33383e-07
1.18333e-06
2.96585e-07
7.7096e-07
-2.91291e-07
-9.14586e-07
9.97804e-08
-0.000270197
1.17357e-06
1.16393e-06
-2.01734e-07
-1.79282e-07
0.000268241
3.01599e-07
2.54342e-07
-0.0011869
-4.42343e-08
-8.03226e-08
0.00118647
-0.00113309
-1.04238e-06
-6.50353e-07
-7.03418e-07
0.00113344
-1.28605e-07
1.33705e-06
2.65667e-07
1.00461e-06
-6.84628e-08
-7.33814e-07
3.70111e-07
-0.00113296
-1.01052e-06
-6.33442e-07
-7.45726e-07
0.00113324
-8.27259e-08
1.36326e-06
2.99593e-07
9.95194e-07
-7.90672e-08
-7.48665e-07
3.64881e-07
-0.000270194
1.24399e-06
1.19103e-06
-1.86139e-07
-2.0404e-07
0.000268149
-4.47352e-08
-2.47302e-08
-0.00118559
-6.05327e-09
8.39264e-09
0.00118566
-0.00113295
-1.39381e-06
3.67929e-07
7.5729e-07
0.00113252
-4.01811e-07
1.0468e-06
8.46457e-08
8.45159e-07
-2.17211e-07
-8.36507e-07
1.74171e-07
-0.00113281
-1.3999e-06
3.55471e-07
7.66003e-07
0.00113241
-4.10711e-07
1.03618e-06
7.40398e-08
8.48549e-07
-2.14438e-07
-8.29748e-07
1.73919e-07
-0.000269935
1.25031e-06
1.22116e-06
-2.29465e-07
-2.24607e-07
0.000267918
4.6089e-08
4.67718e-08
-0.00118606
-1.14742e-08
-9.16596e-09
0.00118599
-0.00113209
-1.02447e-06
-2.22089e-07
-6.45707e-07
0.00113229
-1.19011e-08
1.39061e-06
4.15186e-07
8.28728e-07
-2.35701e-07
-8.99987e-07
2.02785e-07
-0.00113198
-1.02079e-06
-2.25355e-07
-6.37675e-07
0.00113217
-8.0196e-09
1.38797e-06
4.1167e-07
8.30852e-07
-2.33579e-07
-8.98098e-07
2.05192e-07
-0.000269947
1.19364e-06
1.15604e-06
-1.81739e-07
-1.85237e-07
0.000267964
3.38219e-07
3.28157e-07
-0.00118531
-2.34198e-07
-2.43129e-07
0.00118512
-0.00113294
-1.23003e-06
-2.47888e-07
7.55234e-08
0.00113298
-2.86461e-07
1.17647e-06
1.6251e-07
9.36703e-07
-1.32565e-07
-7.73517e-07
2.79523e-07
-0.00113282
-1.22224e-06
-2.51923e-07
6.97355e-08
0.00113284
-2.77213e-07
1.17893e-06
1.65242e-07
9.37238e-07
-1.32524e-07
-7.73962e-07
2.81156e-07
-0.000270121
1.2037e-06
1.16398e-06
-1.86391e-07
-1.91652e-07
0.000268131
3.55614e-08
1.62287e-08
-0.00118491
3.58915e-09
-3.14071e-08
0.00118488
-0.00113255
-1.2074e-06
-2.84255e-08
6.9373e-08
0.00113237
-2.13661e-07
1.21551e-06
2.42095e-07
8.80803e-07
-1.84884e-07
-8.30163e-07
2.30964e-07
-0.00113233
-1.22731e-06
3.01269e-08
1.69278e-07
0.00113212
-2.37396e-07
1.18891e-06
2.1374e-07
8.75357e-07
-1.88285e-07
-8.31928e-07
2.2357e-07
-0.000270102
1.23759e-06
1.19442e-06
-2.00456e-07
-2.07356e-07
0.000268078
2.67941e-08
4.84401e-08
-0.00118466
8.50137e-09
4.05776e-08
0.00118454
-0.00113207
-1.18676e-06
-9.48649e-08
-5.17892e-08
0.00113204
-2.09857e-07
1.22577e-06
2.38908e-07
8.81038e-07
-1.81435e-07
-8.27629e-07
2.30393e-07
-0.00113185
-1.15043e-06
-1.50327e-07
-1.83744e-07
0.00113188
-1.63063e-07
1.26003e-06
2.80535e-07
8.74107e-07
-1.89806e-07
-8.37015e-07
2.26366e-07
-0.000269975
1.20743e-06
1.17941e-06
-1.93738e-07
-1.90151e-07
0.000267972
1.90204e-07
2.26192e-07
-0.00118413
-1.66418e-07
-1.23021e-07
-0.00113203
-1.16388e-06
-1.56057e-07
-1.23908e-07
-1.82787e-07
1.24976e-06
2.6446e-07
8.80026e-07
-1.87052e-07
-8.32793e-07
2.30604e-07
-0.00113206
-1.17473e-06
-1.82218e-07
-8.3472e-08
0.00113208
-2.03571e-07
1.2303e-06
2.36105e-07
8.97004e-07
-1.69731e-07
-8.1451e-07
2.4592e-07
-0.000270035
1.20164e-06
1.17184e-06
-1.92151e-07
-1.88439e-07
0.000268042
1.28755e-06
1.24638e-06
-2.34219e-07
-2.41006e-07
0.000269487
-1.26484e-06
-1.22209e-06
0.000271413
-0.000269389
2.27509e-07
2.35533e-07
6.56692e-08
0.00113969
-2.56356e-07
1.2607e-06
2.32313e-07
8.55674e-07
-2.45334e-07
-9.04018e-07
1.9465e-07
-1.29179e-06
2.35943e-07
9.92382e-08
0.00113976
-2.63749e-07
1.2531e-06
2.32668e-07
8.60914e-07
-2.48946e-07
-9.08449e-07
1.95834e-07
0.00113927
1.96038e-07
-0.00113941
5.3561e-08
-1.27961e-06
2.36202e-07
-2.48551e-07
-8.99349e-07
1.99296e-07
-2.40252e-07
8.58593e-07
1.26432e-06
0.0011393
2.01043e-07
-0.00113944
5.0019e-08
-1.27522e-06
2.41635e-07
-2.49188e-07
-9.07143e-07
1.99372e-07
-2.45487e-07
8.61065e-07
-2.39666e-07
-2.42477e-07
0.00026947
-1.2261e-06
0.000271385
-0.00026936
2.31115e-07
2.34239e-07
7.62452e-08
0.0011407
-2.55336e-07
1.21644e-06
2.27932e-07
8.58844e-07
-2.47434e-07
-9.06178e-07
1.98188e-07
0.00114028
1.91656e-07
-0.00114042
5.19954e-08
-1.23764e-06
2.33951e-07
-2.46131e-07
-9.00983e-07
2.02727e-07
-2.42257e-07
8.62143e-07
1.24666e-06
0.0011392
1.99752e-07
-0.00113934
7.86579e-08
-1.27914e-06
2.24987e-07
-2.63942e-07
-8.98363e-07
2.02796e-07
-2.35391e-07
8.64656e-07
2.16249e-07
4.36346e-08
0.00113925
-2.44005e-07
1.25875e-06
2.43469e-07
8.48044e-07
-2.45059e-07
1.91147e-07
-9.01016e-07
1.97551e-07
-0.00113994
5.83545e-08
-1.23869e-06
2.35542e-07
-2.445e-07
-8.98061e-07
2.00271e-07
8.5409e-07
-2.44503e-07
1.24907e-06
0.00113886
1.92828e-07
-0.00113899
5.71331e-08
-1.27242e-06
2.29117e-07
-2.56354e-07
-8.90876e-07
1.99264e-07
-2.33911e-07
8.55913e-07
-1.21129e-06
0.000271362
-0.000269353
2.21573e-07
2.27112e-07
2.13491e-07
5.43282e-08
0.00114025
-2.43023e-07
1.21991e-06
2.39047e-07
8.53952e-07
-2.4971e-07
1.97404e-07
-9.05767e-07
1.96945e-07
-0.00113982
8.13455e-08
-1.24522e-06
2.16213e-07
-2.56402e-07
-8.92136e-07
2.06213e-07
8.60116e-07
-2.37311e-07
1.21181e-06
0.00113986
1.88643e-07
-0.00113998
5.53222e-08
-1.23586e-06
2.26788e-07
-2.53933e-07
-8.95229e-07
2.05357e-07
-2.38633e-07
8.62205e-07
-0.000269343
2.25593e-07
2.28572e-07
1.28098e-06
1.23738e-06
-2.26991e-07
-2.35105e-07
0.000269357
-1.2602e-06
-1.21854e-06
0.000271273
-0.000269252
2.25707e-07
2.32618e-07
6.43198e-08
0.00113913
-2.51967e-07
1.26149e-06
2.31447e-07
8.6066e-07
-2.37161e-07
-8.96441e-07
2.01527e-07
-1.27325e-06
1.83287e-07
3.6911e-08
0.00113918
-2.48963e-07
1.26498e-06
2.41329e-07
8.64328e-07
-2.41412e-07
-9.03446e-07
2.03039e-07
0.00113871
1.76934e-07
-0.00113885
6.32424e-08
-1.28151e-06
2.3343e-07
-2.51552e-07
-8.91589e-07
2.0152e-07
-2.34543e-07
8.62002e-07
1.25772e-06
0.0011388
1.68949e-07
-0.00113893
5.52689e-08
-1.27703e-06
2.34687e-07
-2.53848e-07
-8.95881e-07
2.05793e-07
-2.35628e-07
8.68318e-07
-2.27859e-07
-2.29663e-07
0.000269333
-1.22168e-06
0.000271272
-0.00026925
2.28159e-07
2.29467e-07
5.15759e-08
0.00114014
-2.47785e-07
1.22049e-06
2.30948e-07
8.6346e-07
-2.39903e-07
-8.98689e-07
2.04124e-07
-1.28313e-06
2.04313e-07
9.07078e-08
0.00113905
-2.66838e-07
1.24398e-06
2.25748e-07
8.63435e-07
-2.36927e-07
-8.9728e-07
1.98858e-07
0.00113973
1.82968e-07
-0.00113987
6.15899e-08
-1.23763e-06
2.31295e-07
-2.47884e-07
-8.95812e-07
2.03517e-07
-2.38454e-07
8.6331e-07
1.26581e-06
0.00113863
1.71425e-07
-0.00113876
2.4322e-08
-1.26095e-06
2.53594e-07
-2.36756e-07
-9.00764e-07
1.97098e-07
-2.41046e-07
8.58742e-07
1.88734e-07
7.04497e-08
0.00113872
-2.5666e-07
1.24704e-06
2.29376e-07
8.56861e-07
-2.33213e-07
1.99029e-07
-8.88469e-07
1.72884e-07
-0.00113943
5.28601e-08
-1.2383e-06
2.30524e-07
-2.46991e-07
-8.88697e-07
2.05272e-07
8.59672e-07
-2.36295e-07
1.24652e-06
0.00113827
1.87512e-07
-0.00113842
8.00502e-08
-1.27256e-06
2.30324e-07
-2.53876e-07
-8.87431e-07
1.97309e-07
-2.33007e-07
8.54709e-07
-2.39595e-07
-2.44005e-07
0.000269314
-1.23239e-06
0.000271232
-0.000269216
2.39299e-07
2.43328e-07
1.89602e-07
5.76433e-08
0.00113972
-2.52544e-07
1.21146e-06
2.28761e-07
8.62479e-07
-2.38562e-07
2.04368e-07
-8.93288e-07
1.74759e-07
-0.00113925
1.63647e-08
-1.22509e-06
2.46624e-07
-2.27272e-07
-8.95952e-07
1.99437e-07
8.52837e-07
-2.44173e-07
1.21035e-06
0.00113927
1.93782e-07
-0.00113943
7.84899e-08
-1.23411e-06
2.28133e-07
-2.50219e-07
-8.94314e-07
2.01873e-07
-2.39668e-07
8.58745e-07
-0.000269194
2.26533e-07
2.2836e-07
1.27756e-06
1.23569e-06
-2.25405e-07
-2.33136e-07
0.000269218
-1.26159e-06
-1.21786e-06
0.000271139
-0.000269119
2.25055e-07
2.34045e-07
5.37159e-08
0.00113857
-2.47193e-07
1.26301e-06
2.36288e-07
8.62067e-07
-2.33737e-07
-8.90954e-07
2.02255e-07
-1.27796e-06
1.70851e-07
6.04645e-08
0.00113867
-2.54537e-07
1.25662e-06
2.34329e-07
8.67731e-07
-2.35815e-07
-8.95591e-07
2.05136e-07
0.00113815
1.64063e-07
-0.00113829
5.33857e-08
-1.2753e-06
2.34423e-07
-2.47617e-07
-8.88496e-07
2.01742e-07
-2.31648e-07
8.61803e-07
1.26327e-06
0.00113825
1.53773e-07
-0.0011384
4.32756e-08
-1.26872e-06
2.41833e-07
-2.44752e-07
-8.91301e-07
2.08556e-07
-2.31489e-07
8.70153e-07
-2.29705e-07
-2.32839e-07
0.000269217
-1.22481e-06
0.000271137
-0.000269117
2.32474e-07
2.35551e-07
6.46126e-08
0.00113958
-2.45743e-07
1.21915e-06
2.31897e-07
8.64888e-07
-2.36377e-07
-8.93923e-07
2.05635e-07
-1.25484e-06
1.45803e-07
1.54749e-09
0.00113851
-2.33753e-07
1.26898e-06
2.52589e-07
8.64082e-07
-2.3397e-07
-8.96095e-07
2.0508e-07
0.00113916
1.57273e-07
-0.00113929
5.53038e-08
-1.2345e-06
2.31254e-07
-2.46267e-07
-8.89116e-07
2.05768e-07
-2.32788e-07
8.65984e-07
1.24064e-06
0.00113815
1.57477e-07
-0.00113828
7.98912e-08
-1.27738e-06
2.20025e-07
-2.66095e-07
-8.82484e-07
2.09068e-07
-2.22646e-07
8.72667e-07
1.83484e-07
6.27346e-08
0.00113813
-2.49094e-07
1.25065e-06
2.35614e-07
8.54015e-07
-2.33155e-07
1.96665e-07
-8.87389e-07
1.50205e-07
-0.00113889
5.64844e-08
-1.2324e-06
2.3539e-07
-2.403e-07
-8.82914e-07
2.09079e-07
8.62554e-07
-2.30995e-07
1.25807e-06
0.00113773
1.42843e-07
-0.00113785
2.37423e-08
-1.25559e-06
2.40517e-07
-2.38283e-07
-8.81473e-07
2.0407e-07
-2.26012e-07
8.58932e-07
-2.16374e-07
-2.21923e-07
0.000269196
-1.20499e-06
0.000271118
-0.000269113
2.17646e-07
2.23157e-07
1.82944e-07
7.36396e-08
0.00113912
-2.47644e-07
1.21226e-06
2.31168e-07
8.59519e-07
-2.38549e-07
2.0264e-07
-8.93047e-07
1.54015e-07
-0.00113876
8.77653e-08
-1.24369e-06
2.1087e-07
-2.5884e-07
-8.76736e-07
2.12196e-07
8.67704e-07
-2.2494e-07
1.21973e-06
0.00113872
1.35728e-07
-0.00113885
2.57415e-08
-1.2203e-06
2.37252e-07
-2.36973e-07
-8.84656e-07
2.1086e-07
-2.29729e-07
8.66019e-07
-0.000269072
2.33213e-07
2.37247e-07
1.27192e-06
1.22928e-06
-2.22473e-07
-2.29925e-07
0.00026909
-1.27091e-06
-1.2286e-06
0.000271053
-0.000269029
2.33744e-07
2.41342e-07
3.64176e-08
0.00113803
-2.42673e-07
1.26519e-06
2.40055e-07
8.62105e-07
-2.31375e-07
-8.87541e-07
2.01991e-07
-1.26903e-06
1.50364e-07
5.10583e-08
0.00113811
-2.46686e-07
1.26055e-06
2.37671e-07
8.70685e-07
-2.29976e-07
-8.89888e-07
2.09316e-07
0.00113769
1.07212e-07
-0.0011378
7.6656e-09
-1.26087e-06
2.42145e-07
-2.33693e-07
-8.79801e-07
2.12589e-07
-2.21032e-07
8.69094e-07
1.25752e-06
0.00113769
1.33425e-07
-0.00113783
5.79282e-08
-1.27077e-06
2.3588e-07
-2.49384e-07
-8.85053e-07
2.11462e-07
-2.26179e-07
8.73171e-07
-2.2315e-07
-2.24881e-07
0.000269083
-1.22197e-06
0.000271004
-0.000268985
2.29951e-07
2.30881e-07
2.93623e-08
0.00113904
-2.39309e-07
1.22345e-06
2.38842e-07
8.64667e-07
-2.33868e-07
-8.89658e-07
2.04645e-07
-1.28088e-06
1.72241e-07
9.98007e-08
0.001138
-2.65068e-07
1.24019e-06
2.25097e-07
8.67492e-07
-2.28816e-07
-8.85435e-07
2.01795e-07
0.0011387
1.10241e-07
-0.00113882
9.22616e-09
-1.2177e-06
2.3932e-07
-2.30739e-07
-8.83439e-07
2.15186e-07
-2.24418e-07
8.71126e-07
1.26552e-06
0.00113755
1.26815e-07
-0.00113769
2.36624e-08
-1.25248e-06
2.51982e-07
-2.31497e-07
-8.8747e-07
2.06919e-07
-2.27532e-07
8.66426e-07
1.37855e-07
3.6258e-08
0.0011376
-2.44801e-07
1.25225e-06
2.3301e-07
8.61171e-07
-2.22645e-07
2.0612e-07
-8.78362e-07
1.38858e-07
-0.00113833
5.32183e-08
-1.23169e-06
2.32262e-07
-2.42034e-07
-8.77701e-07
2.10577e-07
8.64374e-07
-2.27007e-07
1.25377e-06
0.00113724
1.31838e-07
-0.00113736
3.46259e-08
-1.25956e-06
2.40823e-07
-2.40985e-07
-8.75917e-07
2.02857e-07
-2.23606e-07
8.602e-07
-2.37933e-07
-2.42268e-07
0.00026907
-1.23272e-06
0.000270977
-0.000268965
2.40998e-07
2.44513e-07
1.36539e-07
2.93427e-08
0.0011386
-2.41489e-07
1.2159e-06
2.31707e-07
8.66566e-07
-2.27787e-07
2.11425e-07
-8.82973e-07
1.32416e-07
-0.00113818
1.32812e-08
-1.21608e-06
2.45652e-07
-2.21352e-07
-8.82902e-07
2.0876e-07
8.60112e-07
-2.31051e-07
1.21699e-06
0.00113824
1.35347e-07
-0.00113836
3.57815e-08
-1.22176e-06
2.3803e-07
-2.37951e-07
-8.82393e-07
2.0806e-07
-2.29746e-07
8.64846e-07
-0.000268959
2.32254e-07
2.34747e-07
1.26722e-06
1.22579e-06
-2.18152e-07
-2.25229e-07
0.000269004
-1.26554e-06
-1.22231e-06
0.000270924
-0.000268906
2.30853e-07
2.39138e-07
3.05506e-08
0.00113757
-2.43557e-07
1.26249e-06
2.3167e-07
8.70425e-07
-2.1895e-07
-8.77347e-07
2.1268e-07
-1.26928e-06
1.30458e-07
5.6105e-08
0.00113755
-2.47623e-07
1.25765e-06
2.36407e-07
8.73152e-07
-2.25266e-07
-8.8405e-07
2.11463e-07
0.00113719
1.19065e-07
-0.00113732
3.66414e-08
-1.26694e-06
2.42054e-07
-2.38037e-07
-8.76608e-07
2.08171e-07
-2.22391e-07
8.67984e-07
1.26559e-06
0.00113719
1.1651e-07
-0.0011373
2.05625e-08
-1.26115e-06
2.47785e-07
-2.38033e-07
-8.85809e-07
2.06257e-07
-2.28517e-07
8.68509e-07
-2.227e-07
-2.26258e-07
0.000268953
-1.22726e-06
0.000270892
-0.000268869
2.33316e-07
2.36769e-07
3.99303e-08
0.00113858
-2.42442e-07
1.21834e-06
2.27101e-07
8.73958e-07
-2.20985e-07
-8.79575e-07
2.16575e-07
-1.25126e-06
1.10494e-07
1.57099e-08
0.00113743
-2.35476e-07
1.26289e-06
2.44384e-07
8.70881e-07
-2.209e-07
-8.82828e-07
2.12811e-07
0.00113819
1.13074e-07
-0.00113833
3.9327e-08
-1.22576e-06
2.39293e-07
-2.36249e-07
-8.77754e-07
2.11678e-07
-2.24e-07
8.7159e-07
1.25335e-06
0.0011371
1.15923e-07
-0.00113721
3.71481e-08
-1.26262e-06
2.40867e-07
-2.46755e-07
-8.79103e-07
2.04434e-07
-2.23183e-07
8.68847e-07
1.21288e-07
1.72984e-08
0.00113711
-2.33742e-07
1.25923e-06
2.45941e-07
8.60806e-07
-2.22313e-07
2.04734e-07
-8.75159e-07
1.13579e-07
-0.00113779
2.7701e-08
-1.22474e-06
2.4135e-07
-2.33554e-07
-8.76913e-07
2.07418e-07
8.61654e-07
-2.27491e-07
1.24824e-06
0.00113674
1.1641e-07
-0.00113686
4.66829e-08
-1.25769e-06
2.29941e-07
-2.4579e-07
-8.69711e-07
2.08399e-07
-2.15749e-07
8.64072e-07
-2.1289e-07
-2.1888e-07
0.000268942
-1.21763e-06
0.000270878
-0.000268869
2.2804e-07
2.34084e-07
1.19031e-07
2.65597e-08
0.00113811
-2.32575e-07
1.22061e-06
2.41365e-07
8.66995e-07
-2.27045e-07
2.11307e-07
-8.80095e-07
1.12199e-07
-0.00113769
3.91183e-08
-1.22909e-06
2.31583e-07
-2.39663e-07
-8.72588e-07
2.08335e-07
8.64742e-07
-2.24755e-07
1.21019e-06
0.00113773
1.09985e-07
-0.00113785
4.99158e-08
-1.22221e-06
2.26906e-07
-2.44236e-07
-8.73375e-07
2.14732e-07
-2.1988e-07
8.70555e-07
-0.000268851
2.26561e-07
2.30082e-07
1.26119e-06
1.21823e-06
-2.11796e-07
-2.19881e-07
0.000268876
-1.24966e-06
-1.21005e-06
0.000270797
-0.000268782
2.19505e-07
2.25104e-07
3.17094e-08
0.00113705
-2.32412e-07
1.2684e-06
2.42925e-07
8.6944e-07
-2.19259e-07
-8.75251e-07
2.12285e-07
-1.25278e-06
9.66603e-08
-9.10334e-09
0.00113708
-2.28168e-07
1.27333e-06
2.56493e-07
8.69578e-07
-2.27312e-07
-8.85137e-07
2.08578e-07
0.00113664
1.08803e-07
-0.00113677
8.39362e-08
-1.27646e-06
2.22086e-07
-2.54971e-07
-8.70115e-07
2.10091e-07
-2.15229e-07
8.70743e-07
1.26607e-06
0.00113681
6.371e-08
-0.0011369
-1.09278e-08
-1.2525e-06
2.40393e-07
-2.36143e-07
-8.7335e-07
2.2244e-07
-2.12569e-07
8.80876e-07
-2.14455e-07
-2.1571e-07
0.000268853
-1.22773e-06
0.000270839
-0.000268816
2.34129e-07
2.36794e-07
2.72792e-08
0.00113806
-2.28775e-07
1.22704e-06
2.4198e-07
8.71348e-07
-2.22391e-07
-8.78056e-07
2.14285e-07
-1.25315e-06
1.05852e-07
1.03555e-08
0.00113699
-2.32722e-07
1.26357e-06
2.5435e-07
8.66525e-07
-2.26188e-07
-8.81747e-07
2.03378e-07
0.00113765
1.17561e-07
-0.00113778
6.96342e-08
-1.23104e-06
2.22269e-07
-2.49474e-07
-8.74426e-07
2.11685e-07
-2.19562e-07
8.72104e-07
1.25892e-06
0.00113666
6.62105e-08
-0.00113677
1.15865e-09
-1.24622e-06
2.35025e-07
-2.36903e-07
-8.69531e-07
2.25098e-07
-2.06698e-07
8.81107e-07
1.14107e-07
5.49661e-08
0.00113661
-2.46324e-07
1.24712e-06
2.31612e-07
8.63522e-07
-2.16542e-07
2.06776e-07
-8.68971e-07
6.03796e-08
-0.0011374
6.13618e-09
-1.21623e-06
2.33924e-07
-2.31687e-07
-8.65718e-07
2.22366e-07
8.72574e-07
-2.12709e-07
1.25606e-06
0.00113623
8.19412e-08
-0.00113635
2.98324e-08
-1.24834e-06
2.41576e-07
-2.32245e-07
-8.66264e-07
2.10737e-07
-2.131e-07
8.65138e-07
-2.18794e-07
-2.22545e-07
0.000268847
-1.22349e-06
0.000270805
-0.000268795
2.33778e-07
2.3885e-07
1.13512e-07
5.08596e-08
0.00113761
-2.42883e-07
1.211e-06
2.30443e-07
8.68319e-07
-2.22176e-07
2.11597e-07
-8.74242e-07
6.38779e-08
-0.00113726
1.19728e-08
-1.21248e-06
2.25929e-07
-2.29572e-07
-8.64715e-07
2.27538e-07
8.75145e-07
-2.09659e-07
1.22211e-06
0.00113722
9.12016e-08
-0.00113735
1.52156e-08
-1.20822e-06
2.41902e-07
-2.26567e-07
-8.73393e-07
2.14785e-07
-2.2025e-07
8.69012e-07
-0.000268741
2.37001e-07
2.37349e-07
1.2701e-06
1.22499e-06
-2.2105e-07
-2.30516e-07
0.000268753
-1.29139e-06
-1.24902e-06
0.000270761
-0.000268729
2.50368e-07
2.58289e-07
5.35658e-08
0.00113652
-2.42913e-07
1.25994e-06
2.39086e-07
8.66208e-07
-2.20779e-07
-8.72678e-07
2.03936e-07
-1.26089e-06
7.02546e-08
1.87966e-08
0.00113672
-2.46313e-07
1.25769e-06
2.32584e-07
8.82446e-07
-2.10903e-07
-8.70153e-07
2.21975e-07
0.00113626
1.76219e-08
-0.00113634
-8.28884e-08
-1.23075e-06
2.65435e-07
-2.01378e-07
-8.68135e-07
2.22341e-07
-2.09618e-07
8.74552e-07
1.25746e-06
0.00113632
8.3146e-08
-0.00113646
6.67457e-08
-1.26193e-06
2.3911e-07
-2.40504e-07
-8.72686e-07
2.1571e-07
-2.16128e-07
8.76927e-07
-2.18894e-07
-2.2096e-07
0.000268793
-1.22259e-06
0.000270711
-0.000268697
2.32588e-07
2.33642e-07
3.52619e-08
0.00113753
-2.37731e-07
1.21999e-06
2.38997e-07
8.68648e-07
-2.24162e-07
-8.75881e-07
2.06395e-07
-1.26328e-06
8.47619e-08
6.03764e-08
0.00113654
-2.595e-07
1.24029e-06
2.14882e-07
8.84466e-07
-2.02384e-07
-8.63645e-07
2.24755e-07
0.00113727
2.00183e-08
-0.00113735
-8.46579e-08
-1.18791e-06
2.62812e-07
-1.98405e-07
-8.70713e-07
2.25012e-07
-2.12487e-07
8.77042e-07
1.25603e-06
0.00113612
1.00602e-07
-0.00113626
6.38919e-08
-1.25786e-06
2.51921e-07
-2.35688e-07
-8.77569e-07
1.99635e-07
-2.24774e-07
8.63968e-07
7.52024e-08
2.82566e-08
0.00113611
-2.35267e-07
1.25364e-06
2.37062e-07
8.66683e-07
-2.10488e-07
2.12437e-07
-8.64171e-07
8.87956e-08
-0.00113696
5.07585e-08
-1.22236e-06
2.36261e-07
-2.32518e-07
-8.6443e-07
2.15535e-07
8.68989e-07
-2.16208e-07
1.25787e-06
0.00113581
6.59001e-08
-0.00113591
2.37407e-09
-1.24526e-06
2.4588e-07
-2.29745e-07
-8.62311e-07
2.09554e-07
-2.11108e-07
8.65458e-07
-2.23469e-07
-2.28096e-07
0.000268764
-1.22388e-06
0.00027065
-0.000268644
2.35354e-07
2.38922e-07
8.39772e-08
1.00535e-08
0.00113711
-2.29901e-07
1.21936e-06
2.37055e-07
8.71588e-07
-2.16784e-07
2.17342e-07
-8.70288e-07
1.06163e-07
-0.00113675
4.23377e-08
-1.22111e-06
2.4636e-07
-2.25001e-07
-8.7181e-07
2.02121e-07
8.58647e-07
-2.27475e-07
1.2208e-06
0.00113681
6.78913e-08
-0.00113691
7.52361e-10
-1.20805e-06
2.43097e-07
-2.26926e-07
-8.6751e-07
2.15069e-07
-2.16465e-07
8.70736e-07
-0.000268656
2.35196e-07
2.38204e-07
1.24304e-06
1.20187e-06
-1.99146e-07
-2.0622e-07
0.000268721
-1.24237e-06
-1.19462e-06
0.000270607
-0.000268603
2.1046e-07
2.2251e-07
-3.38428e-08
0.00113617
-2.25024e-07
1.27248e-06
2.35704e-07
8.82421e-07
-1.98933e-07
-8.60713e-07
2.31852e-07
-1.25871e-06
8.08836e-08
5.36642e-08
0.00113618
-2.38183e-07
1.25938e-06
2.40191e-07
8.76653e-07
-2.15739e-07
-8.72867e-07
2.16019e-07
0.0011358
1.12103e-07
-0.00113594
1.11411e-07
-1.2841e-06
2.21815e-07
-2.61354e-07
-8.60673e-07
2.05393e-07
-2.13662e-07
8.71682e-07
1.27177e-06
0.00113585
4.71203e-08
-0.00113595
-2.99017e-08
-1.24465e-06
2.52488e-07
-2.25569e-07
-8.66735e-07
2.20348e-07
-2.10201e-07
8.80782e-07
-2.14277e-07
-2.1778e-07
0.000268664
-1.22905e-06
0.000270618
-0.000268596
2.36444e-07
2.42425e-07
-2.10573e-08
0.00113718
-2.23896e-07
1.22832e-06
2.31068e-07
8.84831e-07
-2.0168e-07
-8.63519e-07
2.3482e-07
-1.23744e-06
6.81054e-08
-7.00635e-09
0.001136
-2.12321e-07
1.27419e-06
2.69962e-07
8.63996e-07
-2.24273e-07
-8.80052e-07
2.0364e-07
0.0011368
9.64691e-08
-0.00113695
1.37401e-07
-1.24683e-06
2.1391e-07
-2.6411e-07
-8.60525e-07
2.11434e-07
-2.13374e-07
8.77447e-07
1.26696e-06
0.00113578
1.56435e-08
-0.00113584
-6.17867e-08
-1.23293e-06
2.43781e-07
-2.26521e-07
-8.6032e-07
2.2817e-07
-1.98924e-07
8.84744e-07
6.24265e-08
-9.83399e-09
0.00113571
-2.24314e-07
1.2614e-06
2.49482e-07
8.64735e-07
-2.11353e-07
2.09822e-07
-8.63034e-07
3.36271e-08
-0.00113644
1.39782e-08
-1.21225e-06
2.4121e-07
-2.25536e-07
-8.57767e-07
2.2236e-07
8.7434e-07
-2.08523e-07
1.2591e-06
0.00113542
3.92595e-08
-0.00113552
-8.00399e-09
-1.23889e-06
2.41941e-07
-2.28384e-07
-8.54368e-07
2.19222e-07
-2.01493e-07
8.73246e-07
-2.04422e-07
-2.10596e-07
0.000268626
-1.22706e-06
0.000270636
-0.000268621
2.35303e-07
2.43747e-07
6.00546e-08
2.60838e-09
0.00113671
-2.23201e-07
1.22262e-06
2.44835e-07
8.69995e-07
-2.16584e-07
2.15571e-07
-8.68372e-07
3.55665e-09
-0.00113632
-2.34001e-08
-1.20313e-06
2.29779e-07
-2.23702e-07
-8.5431e-07
2.32631e-07
8.80459e-07
-2.00162e-07
1.21706e-06
0.00113641
2.52402e-08
-0.00113651
1.70206e-08
-1.20676e-06
2.34128e-07
-2.30964e-07
-8.57335e-07
2.2765e-07
-2.0417e-07
8.8124e-07
-0.000268587
2.33413e-07