/*--------------------------------*- C++ -*----------------------------------*\
| =========                 |                                                 |
| \\      /  F ield         | OpenFOAM: The Open Source CFD Toolbox           |
|  \\    /   O peration     | Version:  2312                                  |
|   \\  /    A nd           | Website:  www.openfoam.com                      |
|    \\/     M anipulation  |                                                 |
\*---------------------------------------------------------------------------*/
FoamFile
{
    version     2.0;
    format      ascii;
    arch        "LSB;label=32;scalar=64";
    class       volVectorField;
    location    "500";
    object      U;
}
// * * * * * * * * * * * * * * * * * * * * * * * * * * * * * * * * * * * * * //

dimensions      [0 1 -1 0 0 0 0];

internalField   nonuniform List<vector> 
42973
(
(2.41213e-05 2.44193e-05 0.113151)
(-1.79662e-05 1.27342e-05 0.10827)
(-4.53458e-05 -4.49087e-05 0.104716)
(2.14692e-05 2.12517e-05 0.113168)
(-1.34528e-05 5.99542e-06 0.108211)
(1.23581e-05 -1.49464e-05 0.108212)
(-4.7253e-05 -4.74041e-05 0.10467)
(2.00386e-05 2.02435e-05 0.113177)
(-1.27192e-05 8.40366e-06 0.108164)
(9.5523e-07 -1.06758e-05 0.10816)
(-4.51217e-05 -4.51344e-05 0.104613)
(1.79079e-05 1.79518e-05 0.113178)
(-9.94957e-06 7.24013e-06 0.108111)
(1.28632e-05 -1.17264e-05 0.108112)
(-4.19356e-05 -4.17524e-05 0.10457)
(1.413e-05 1.44524e-05 0.113177)
(-8.5087e-06 6.90036e-06 0.108059)
(2.36532e-06 -7.10162e-06 0.108057)
(-4.01522e-05 -3.99535e-05 0.104527)
(1.39339e-05 1.39404e-05 0.113169)
(-5.37176e-06 -1.52856e-07 0.108012)
(1.91677e-06 -6.03967e-06 0.108014)
(-4.22961e-05 -4.22742e-05 0.104485)
(1.46655e-05 1.36028e-05 0.113151)
(-3.29903e-06 4.83813e-06 0.107976)
(9.6832e-06 -3.96431e-06 0.107972)
(-3.70422e-05 -3.79757e-05 0.104446)
(4.57806e-06 4.90826e-06 0.113134)
(-4.1414e-06 4.68569e-06 0.107928)
(-3.37172e-06 -3.39776e-06 0.107921)
(-3.6092e-05 -3.57523e-05 0.104416)
(1.21592e-05 1.39553e-05 0.113113)
(5.86823e-07 1.24477e-06 0.107884)
(3.84506e-06 1.63065e-06 0.10789)
(-3.75431e-05 -3.5863e-05 0.104388)
(2.51672e-06 1.03893e-06 0.113086)
(-1.84703e-07 -2.66269e-06 0.107849)
(4.65513e-07 -2.18919e-06 0.107851)
(-3.73491e-05 -3.88892e-05 0.104344)
(2.92318e-06 3.22556e-06 0.113064)
(1.26013e-07 4.73766e-06 0.107814)
(1.25873e-06 3.14798e-06 0.10781)
(-2.73105e-05 -2.72698e-05 0.104334)
(8.42305e-06 7.06568e-06 0.11303)
(9.7028e-06 -7.48372e-06 0.107786)
(-4.25767e-06 3.97963e-06 0.107777)
(-4.624e-05 -4.6745e-05 0.104305)
(-6.46382e-06 -2.19415e-06 0.112998)
(-7.3888e-06 1.46666e-05 0.107741)
(8.39911e-06 3.64335e-06 0.107753)
(-1.41188e-05 -1.09605e-05 0.104287)
(5.55227e-06 -2.21757e-06 0.112969)
(2.09164e-05 -3.1215e-05 0.107724)
(-1.42058e-05 9.59681e-07 0.107703)
(-5.93384e-05 -6.58219e-05 0.104263)
(-8.25292e-06 6.23482e-06 0.112931)
(-1.32049e-05 4.45175e-05 0.107691)
(3.41694e-06 2.00417e-05 0.107716)
(7.16882e-06 1.95143e-05 0.104263)
(5.27331e-06 -1.64705e-05 0.112895)
(3.52518e-05 -8.73646e-05 0.107674)
(-4.78711e-06 -1.09231e-05 0.10765)
(-8.59871e-05 -0.000106156 0.104232)
(-1.54868e-05 2.28594e-06 0.112857)
(-2.07878e-05 0.000110331 0.107664)
(7.91319e-06 2.27265e-05 0.107645)
(3.85539e-05 5.73704e-05 0.104191)
(1.29549e-05 8.62528e-06 0.112827)
(2.6904e-05 -0.000105651 0.107543)
(-1.44296e-05 -2.79708e-07 0.107597)
(-8.43876e-05 -9.01082e-05 0.104348)
(-2.51566e-05 -3.29495e-05 0.112761)
(8.0149e-06 4.88953e-05 0.107697)
(-7.30631e-06 1.6971e-05 0.107647)
(-7.59232e-06 -1.45475e-05 0.104068)
(4.25109e-06 1.3562e-05 0.112763)
(-1.30261e-05 -1.91359e-06 0.107515)
(2.19762e-05 -1.25755e-05 0.107537)
(-2.71496e-05 -1.59403e-05 0.104261)
(-1.86195e-05 -2.24573e-05 0.112725)
(5.1359e-05 -5.96693e-05 0.107602)
(-6.80932e-05 5.00953e-05 0.107598)
(-2.77036e-05 -3.41589e-05 0.104241)
(4.72139e-06 6.14433e-06 0.112618)
(-2.24325e-05 7.61531e-05 0.107545)
(7.76127e-05 -2.14717e-05 0.107545)
(-4.38978e-05 -4.08328e-05 0.104148)
(-5.15238e-06 -4.96788e-06 0.112664)
(1.46585e-05 -7.15773e-05 0.107493)
(-7.12237e-05 1.49972e-05 0.107494)
(-1.88852e-05 -1.91951e-05 0.104161)
(-3.1144e-05 -3.20754e-05 0.112582)
(2.25983e-05 1.18654e-05 0.107572)
(1.01366e-05 2.29121e-05 0.107571)
(-2.32199e-05 -2.42613e-05 0.104227)
(8.46458e-07 -1.67859e-06 0.112553)
(5.39197e-06 4.79759e-06 0.10752)
(1.45324e-05 1.00267e-06 0.10751)
(-3.26108e-05 -3.44924e-05 0.104213)
(-1.81444e-06 6.13094e-07 0.112525)
(9.67449e-06 -5.19577e-06 0.107482)
(-2.02588e-05 1.29426e-05 0.107475)
(-2.65199e-05 -2.3911e-05 0.104169)
(-2.1486e-05 -1.77349e-05 0.112474)
(1.37438e-05 -1.47119e-05 0.107481)
(-8.77564e-06 1.60625e-05 0.107497)
(-2.52328e-05 -2.23153e-05 0.104195)
(4.80799e-05 4.84607e-05 0.104717)
(-4.45895e-05 -4.44704e-05 0.104837)
(9.86053e-06 1.72317e-05 0.108265)
(-1.26982e-05 1.7799e-05 0.108267)
(7.80301e-06 1.48017e-05 0.108225)
(-7.09376e-06 1.52645e-05 0.108221)
(-5.03126e-05 5.00917e-05 0.104717)
(4.54329e-05 -4.50906e-05 0.104832)
(1.70325e-05 1.06017e-05 0.108267)
(1.43272e-05 7.77427e-06 0.108227)
(1.48456e-05 -1.13521e-05 0.108223)
(-1.67533e-05 -6.80357e-06 0.108264)
(-1.48628e-05 7.34604e-06 0.108224)
(-1.44914e-05 -8.75861e-06 0.108226)
(-4.05749e-05 4.08743e-05 0.104834)
(-7.56747e-06 -1.65152e-05 0.108265)
(1.1573e-05 -1.45392e-05 0.108225)
(-8.70867e-06 -1.40332e-05 0.108227)
(4.2353e-05 4.24673e-05 0.10484)
(4.53719e-05 4.52057e-05 0.104668)
(-4.28284e-05 -4.31945e-05 0.104782)
(8.95519e-06 1.41173e-05 0.108212)
(-5.9634e-06 1.37082e-05 0.108209)
(8.57597e-06 1.27166e-05 0.108172)
(-8.51455e-06 1.24978e-05 0.108173)
(-4.40297e-05 4.42215e-05 0.104664)
(4.28465e-05 -4.32796e-05 0.104788)
(1.40314e-05 8.08066e-06 0.108214)
(1.51457e-05 -1.23155e-05 0.108209)
(1.32806e-05 8.32378e-06 0.108175)
(1.26898e-05 -3.5506e-06 0.108168)
(-1.39675e-05 -9.7975e-06 0.108214)
(-1.27621e-05 7.91299e-06 0.108176)
(-1.35728e-05 -1.02961e-05 0.108171)
(4.95304e-05 -4.93757e-05 0.104663)
(-4.82688e-05 4.79132e-05 0.10478)
(-8.93059e-06 -1.38672e-05 0.108215)
(2.95728e-06 -1.28771e-05 0.108171)
(-1.00422e-05 -1.4171e-05 0.108173)
(4.26235e-05 4.22426e-05 0.104779)
(4.45574e-05 4.45463e-05 0.104615)
(-4.35065e-05 -4.29829e-05 0.104728)
(7.44061e-06 1.22136e-05 0.108159)
(-8.81391e-06 1.25144e-05 0.108161)
(7.66002e-06 1.1627e-05 0.108118)
(-6.22728e-06 1.0427e-05 0.108122)
(-4.55454e-05 4.5142e-05 0.104621)
(4.50966e-05 -4.47264e-05 0.104734)
(1.2226e-05 8.15701e-06 0.108161)
(1.04999e-05 -1.37807e-06 0.108157)
(1.0893e-05 7.95782e-06 0.10812)
(1.0904e-05 -1.18352e-05 0.108123)
(-1.31071e-05 -8.22794e-06 0.108157)
(-1.0155e-05 6.72192e-06 0.108124)
(-9.88904e-06 -4.33626e-06 0.108118)
(3.91622e-05 -3.95243e-05 0.104617)
(-3.81587e-05 3.84924e-05 0.104737)
(-8.93677e-06 -1.31483e-05 0.108159)
(1.23196e-05 -1.06574e-05 0.108126)
(-4.66561e-06 -9.10364e-06 0.108119)
(4.54164e-05 4.59681e-05 0.104732)
(4.27497e-05 4.28911e-05 0.104566)
(-4.63847e-05 -4.64941e-05 0.104693)
(5.57262e-06 1.04638e-05 0.108106)
(-7.11431e-06 1.02461e-05 0.108108)
(2.69616e-06 6.86756e-06 0.108074)
(-7.14524e-06 8.40026e-06 0.108069)
(-4.19068e-05 4.21582e-05 0.10457)
(4.2768e-05 -4.33537e-05 0.104681)
(1.02534e-05 5.10696e-06 0.108108)
(1.19885e-05 -1.27479e-05 0.10811)
(7.20813e-06 2.72061e-06 0.108076)
(8.02563e-06 -2.40651e-06 0.108066)
(-9.46799e-06 -6.15646e-06 0.108106)
(-8.76401e-06 6.3566e-06 0.108072)
(-8.53336e-06 -5.14679e-06 0.108072)
(4.87739e-05 -4.85618e-05 0.104571)
(-4.84186e-05 4.78503e-05 0.104679)
(-5.7167e-06 -9.24956e-06 0.108108)
(1.57447e-06 -8.39439e-06 0.108069)
(-5.13011e-06 -8.92283e-06 0.108074)
(4.44906e-05 4.43573e-05 0.104685)
(4.05751e-05 4.07935e-05 0.104534)
(-4.4716e-05 -4.44282e-05 0.104643)
(5.79576e-06 7.54689e-06 0.108063)
(-7.27335e-06 8.11407e-06 0.108055)
(4.47719e-06 7.0351e-06 0.108027)
(-3.18128e-06 7.39683e-06 0.108019)
(-4.23262e-05 4.17827e-05 0.104521)
(4.55539e-05 -4.51088e-05 0.104635)
(7.33867e-06 6.50266e-06 0.108065)
(6.73738e-06 -2.75356e-06 0.108053)
(6.43142e-06 4.75436e-06 0.108029)
(7.35963e-06 -5.71954e-06 0.108022)
(-7.59231e-06 -3.03721e-06 0.10806)
(-7.01695e-06 3.43043e-06 0.108021)
(-7.24041e-06 -6.70037e-06 0.108024)
(3.72022e-05 -3.77223e-05 0.104521)
(-4.26069e-05 4.30971e-05 0.10464)
(-3.74116e-06 -7.41813e-06 0.108061)
(6.02527e-06 -6.89954e-06 0.108025)
(-7.045e-06 -6.58568e-06 0.108025)
(4.195e-05 4.23498e-05 0.104642)
(3.85089e-05 3.84277e-05 0.104486)
(-3.90898e-05 -4.00642e-05 0.104592)
(3.4923e-06 5.73581e-06 0.108014)
(3.45917e-07 5.80109e-06 0.108009)
(1.0111e-05 6.22416e-06 0.107974)
(-1.3954e-06 3.13332e-06 0.107983)
(-3.72917e-05 3.76847e-05 0.104481)
(4.51084e-05 -4.48602e-05 0.104614)
(5.76697e-06 3.09978e-06 0.108016)
(6.50819e-06 -1.68595e-06 0.108011)
(6.91495e-06 8.89423e-06 0.107976)
(2.92058e-06 -2.32453e-06 0.107981)
(-6.87942e-06 -6.92125e-06 0.108012)
(-3.07435e-06 2.0631e-06 0.107985)
(-4.17165e-06 -3.48419e-06 0.107975)
(3.98411e-05 -3.94378e-05 0.104485)
(-4.44859e-05 4.46773e-05 0.104611)
(-6.58805e-06 -6.82306e-06 0.108014)
(2.95394e-06 -2.96517e-06 0.107983)
(-2.2212e-06 -4.94137e-06 0.107977)
(4.64286e-05 4.53673e-05 0.104598)
(4.24118e-05 4.15739e-05 0.104439)
(-5.31356e-05 -5.31019e-05 0.104575)
(6.29097e-06 5.75044e-06 0.107963)
(-4.46956e-06 3.4014e-06 0.107974)
(-8.07314e-06 -7.0003e-07 0.107936)
(-6.57215e-06 4.10887e-06 0.107938)
(-3.98095e-05 3.99586e-05 0.104461)
(4.32924e-05 -4.39272e-05 0.104565)
(6.15891e-06 4.98085e-06 0.107964)
(4.04674e-06 -9.36396e-06 0.10797)
(-6.05162e-07 -8.20254e-06 0.107939)
(5.50979e-06 -5.18001e-06 0.10793)
(-3.76177e-06 -3.9693e-06 0.107964)
(-4.23756e-06 5.18151e-06 0.107942)
(-2.95763e-06 -1.29248e-06 0.107935)
(4.19589e-05 -4.18459e-05 0.104456)
(-4.54979e-05 4.48758e-05 0.104549)
(-2.61201e-06 -4.26512e-06 0.107966)
(3.79509e-06 -5.62913e-06 0.107933)
(-1.18479e-06 -2.97455e-06 0.107937)
(4.54342e-05 4.55288e-05 0.104564)
(3.17968e-05 3.20845e-05 0.104427)
(-3.67263e-05 -3.48787e-05 0.104518)
(-1.15652e-06 -2.72654e-07 0.107929)
(-5.53353e-06 3.85161e-06 0.107924)
(1.22706e-05 5.54531e-06 0.107896)
(1.83781e-06 5.22787e-07 0.107892)
(-3.82674e-05 3.76732e-05 0.104412)
(4.72433e-05 -4.55494e-05 0.104526)
(-2.78959e-07 -3.9118e-07 0.107931)
(3.01705e-06 2.50128e-06 0.107918)
(4.25657e-06 1.44471e-05 0.107897)
(-1.17471e-06 3.42759e-06 0.107894)
(-2.75229e-06 4.00707e-08 0.107926)
(2.61686e-07 8.15741e-07 0.107893)
(-3.26752e-07 -4.81763e-08 0.107898)
(3.28842e-05 -3.35319e-05 0.1044)
(-4.50625e-05 4.67406e-05 0.104542)
(-7.32451e-07 -2.65576e-06 0.107928)
(-8.46184e-07 1.8423e-06 0.107896)
(-2.17508e-06 8.30787e-07 0.107899)
(4.40407e-05 4.57764e-05 0.104536)
(3.96518e-05 4.13786e-05 0.104367)
(-5.01583e-05 -5.13678e-05 0.104503)
(3.66239e-06 4.55788e-06 0.107881)
(9.92312e-07 7.03831e-07 0.107883)
(-6.86159e-06 -2.89918e-06 0.107851)
(-4.14735e-06 8.80895e-07 0.107854)
(-3.37426e-05 3.53937e-05 0.10438)
(4.20791e-05 -4.44126e-05 0.104496)
(3.0669e-06 5.63532e-06 0.107883)
(-3.94879e-07 -1.64786e-06 0.107889)
(-2.44179e-06 -8.17952e-06 0.107853)
(9.93733e-07 -5.57855e-06 0.10786)
(-1.8822e-07 -1.75045e-06 0.107888)
(-1.74878e-06 9.27711e-07 0.107857)
(-1.89085e-06 -6.47357e-06 0.107854)
(3.87267e-05 -3.71098e-05 0.104395)
(-4.49632e-05 4.27902e-05 0.104499)
(-3.70699e-06 1.2618e-06 0.107889)
(2.53128e-06 -1.70236e-06 0.107863)
(-5.302e-06 -2.11897e-06 0.107856)
(4.16855e-05 4.06121e-05 0.104489)
(3.34886e-05 3.18857e-05 0.104362)
(-4.53311e-05 -4.56254e-05 0.104477)
(2.53954e-08 -3.53003e-06 0.107846)
(-1.16935e-06 -1.81397e-06 0.107845)
(5.43308e-07 -1.00368e-06 0.107826)
(-9.71003e-07 -1.65071e-06 0.10782)
(-3.68801e-05 3.41127e-05 0.104352)
(4.46884e-05 -4.39788e-05 0.104474)
(-2.23866e-06 -2.36413e-06 0.107848)
(3.46055e-07 -4.2477e-06 0.107847)
(-6.24399e-07 1.91572e-07 0.107828)
(-2.47362e-06 1.5703e-06 0.107817)
(-1.16715e-06 -5.08537e-06 0.107843)
(1.43379e-06 1.69484e-06 0.107823)
(2.92852e-06 7.51105e-06 0.107815)
(3.38225e-05 -3.64992e-05 0.104353)
(-4.55354e-05 4.60583e-05 0.104469)
(-2.76554e-06 -2.41538e-06 0.107845)
(-9.89236e-07 2.02936e-06 0.10782)
(7.96147e-06 2.36589e-06 0.107818)
(5.15756e-05 5.11611e-05 0.104471)
(3.08497e-05 3.09724e-05 0.104335)
(-3.65046e-05 -3.7e-05 0.10445)
(-5.89036e-06 -2.05778e-06 0.107818)
(-2.51358e-06 1.11051e-06 0.107812)
(8.94297e-06 -3.74651e-06 0.107789)
(1.06012e-05 -6.72694e-06 0.107789)
(-3.54814e-05 3.69482e-05 0.104332)
(5.3612e-05 -5.27356e-05 0.104456)
(-2.39004e-06 -5.50748e-06 0.107819)
(-2.10405e-06 8.14373e-07 0.107808)
(-3.64643e-06 7.54901e-06 0.107791)
(-1.65786e-06 -6.33633e-07 0.107781)
(4.66903e-06 9.92404e-06 0.107811)
(7.92346e-06 -9.69078e-06 0.107792)
(3.22966e-06 -1.25506e-05 0.107791)
(3.44937e-05 -3.32273e-05 0.104327)
(-4.39529e-05 4.48555e-05 0.10444)
(9.60015e-06 4.9231e-06 0.107812)
(1.56218e-06 2.7567e-06 0.107783)
(-1.12022e-05 3.15198e-06 0.107793)
(3.38803e-05 3.34351e-05 0.10445)
(4.56157e-05 4.514e-05 0.104304)
(-5.80083e-05 -5.47976e-05 0.104402)
(1.64242e-05 -1.3392e-06 0.107776)
(7.56846e-06 -9.48344e-06 0.107782)
(-1.40526e-05 -6.64611e-07 0.107745)
(-2.1327e-05 4.57617e-06 0.107754)
(-2.50885e-05 2.53928e-05 0.104318)
(2.62134e-05 -2.61786e-05 0.104403)
(-8.07077e-07 1.55346e-05 0.107779)
(-3.85509e-06 4.28507e-06 0.107774)
(-2.18569e-06 -8.68597e-06 0.107745)
(-6.13846e-06 3.89539e-06 0.10776)
(-2.17599e-07 -1.70737e-05 0.107777)
(-4.86636e-06 2.1955e-05 0.107756)
(3.89076e-06 2.19109e-05 0.107749)
(3.22666e-05 -3.20149e-05 0.104301)
(-4.60933e-05 4.62872e-05 0.104435)
(-1.61779e-05 -7.66093e-07 0.107781)
(-3.11018e-06 6.02123e-06 0.107763)
(1.64513e-05 5.23023e-06 0.107748)
(5.99658e-05 6.31899e-05 0.104413)
(1.46353e-05 1.77376e-05 0.104274)
(-3.25914e-05 -3.83653e-05 0.104434)
(-2.54555e-05 -5.14305e-06 0.107743)
(-1.41427e-05 7.58393e-06 0.107739)
(9.68287e-06 -1.14203e-05 0.107737)
(3.58165e-05 -1.71582e-05 0.107716)
(-4.80482e-05 4.81519e-05 0.10426)
(7.41744e-05 -7.70764e-05 0.104419)
(-7.58524e-06 -2.10657e-05 0.107741)
(-3.215e-06 -7.83225e-06 0.107751)
(-9.09974e-06 4.07875e-08 0.107742)
(3.93024e-07 -1.15361e-05 0.107707)
(8.81863e-06 2.8587e-05 0.107747)
(1.62387e-05 -4.05983e-05 0.107719)
(4.67236e-06 -3.05932e-05 0.107732)
(3.67406e-05 -3.65209e-05 0.104296)
(-4.00201e-05 3.6844e-05 0.104364)
(2.41521e-05 1.12662e-05 0.107745)
(6.63096e-06 -1.8128e-06 0.107711)
(-2.08983e-05 2.30222e-06 0.107736)
(2.10535e-05 1.50624e-05 0.104409)
(5.13432e-05 4.51434e-05 0.104292)
(-5.65981e-05 -4.58083e-05 0.104356)
(2.45155e-05 -7.57542e-06 0.107728)
(2.58325e-05 -2.30134e-05 0.107718)
(-1.15195e-05 2.3615e-06 0.10769)
(-4.35667e-05 8.14885e-06 0.107711)
(-6.12831e-06 2.90592e-06 0.104297)
(1.4023e-06 3.39457e-06 0.104371)
(-2.37998e-06 1.51054e-05 0.107735)
(-3.618e-06 8.59821e-06 0.107698)
(-1.97944e-06 4.86175e-06 0.107689)
(-1.72029e-05 3.40045e-05 0.107714)
(-1.89433e-06 -3.92692e-05 0.107715)
(-7.13063e-06 5.09182e-05 0.107713)
(6.84694e-06 5.11445e-05 0.107685)
(2.7182e-05 -3.06914e-05 0.104232)
(-6.24528e-05 6.75623e-05 0.104446)
(-2.9707e-05 -7.31572e-06 0.107723)
(-2.62161e-05 1.8529e-05 0.107717)
(3.46004e-05 1.11819e-05 0.107684)
(7.80227e-05 8.85016e-05 0.104374)
(1.19456e-05 2.46822e-05 0.104228)
(-3.50346e-05 -5.01749e-05 0.104394)
(-2.78407e-05 3.58318e-07 0.107684)
(-3.35352e-05 1.77128e-05 0.107692)
(6.49297e-06 -1.49971e-05 0.107678)
(6.63105e-05 -2.05898e-05 0.107653)
(-6.86103e-05 7.49226e-05 0.104222)
(0.000102987 -0.000108037 0.104376)
(-9.52597e-06 -8.13595e-06 0.107677)
(-1.52505e-05 7.89913e-06 0.107718)
(-1.03073e-05 -1.54179e-05 0.107679)
(8.48601e-06 -4.06888e-05 0.107666)
(1.72336e-05 6.6632e-05 0.107694)
(2.08313e-05 -7.3784e-05 0.107653)
(6.32486e-06 -6.42374e-05 0.107691)
(2.63898e-05 -1.99672e-05 0.104317)
(-1.94741e-05 1.39107e-05 0.104319)
(4.65139e-05 2.72566e-05 0.107686)
(3.25734e-05 -8.36137e-06 0.107666)
(-4.20279e-05 1.05292e-06 0.107693)
(-4.20306e-06 -1.93161e-05 0.10439)
(4.84178e-05 2.83253e-05 0.104261)
(-5.60488e-05 -4.55011e-05 0.104343)
(2.40663e-05 -1.69976e-05 0.10767)
(7.03161e-05 -4.058e-05 0.107669)
(-1.34489e-05 -9.10345e-06 0.107641)
(-7.41833e-05 -2.66898e-06 0.107689)
(2.6665e-05 -3.52607e-05 0.104276)
(-3.24637e-05 3.26773e-05 0.104403)
(-1.35491e-06 -8.46319e-06 0.107681)
(4.61966e-06 -1.24383e-05 0.107645)
(-6.53069e-06 6.87037e-07 0.107647)
(-2.18605e-05 3.75051e-05 0.107636)
(-5.62438e-06 -8.91659e-05 0.107666)
(-3.26981e-06 7.50322e-05 0.107699)
(5.32612e-06 6.51192e-05 0.107597)
(3.91765e-05 -4.83453e-05 0.104179)
(-7.01672e-05 7.2372e-05 0.104384)
(-5.65575e-05 -2.22652e-05 0.107677)
(-3.57615e-05 1.75252e-05 0.107647)
(5.07562e-05 5.07804e-06 0.107604)
(0.000101521 0.000111909 0.104286)
(1.08124e-05 3.02344e-05 0.104216)
(-2.9341e-05 -2.43369e-05 0.104334)
(-3.12033e-05 -5.3948e-06 0.107639)
(-9.2664e-05 2.5116e-05 0.107659)
(1.09698e-05 7.37692e-06 0.107633)
(6.227e-05 1.4668e-05 0.107545)
(-0.000114324 0.000121182 0.104231)
(0.00011554 -9.77978e-05 0.104204)
(-1.8615e-05 2.45151e-06 0.107634)
(-1.72856e-05 1.08409e-05 0.10764)
(-6.09237e-06 1.60189e-05 0.107625)
(1.64508e-05 -1.82739e-05 0.107612)
(2.04867e-05 0.000113295 0.107612)
(4.51626e-06 -3.82436e-05 0.107535)
(2.2983e-05 -1.15113e-05 0.107705)
(2.44523e-05 -1.6061e-05 0.104263)
(-1.16667e-05 2.85875e-05 0.104286)
(7.88957e-05 3.61753e-05 0.107608)
(4.08097e-05 1.87461e-06 0.107603)
(-1.58996e-05 3.41893e-05 0.107696)
(1.02624e-05 1.50438e-05 0.104499)
(5.24049e-05 4.63364e-05 0.104205)
(-6.08412e-05 -7.78243e-05 0.104317)
(2.81069e-05 5.60018e-06 0.10762)
(0.000110752 -1.75929e-05 0.10755)
(-1.56793e-05 -2.85606e-05 0.10757)
(-2.54371e-06 -6.05637e-05 0.107674)
(6.33897e-05 -5.36072e-05 0.104116)
(2.11804e-05 -5.44204e-05 0.104545)
(9.32594e-06 9.84668e-06 0.107622)
(9.04712e-06 1.82576e-05 0.107603)
(-9.77774e-06 -3.49363e-05 0.107584)
(-4.7233e-05 3.38861e-05 0.10763)
(4.52756e-06 -7.90164e-05 0.107698)
(3.54867e-05 -3.88255e-05 0.107687)
(-9.38522e-06 -3.74406e-05 0.107548)
(3.6916e-05 -2.79554e-05 0.104159)
(-0.00010125 6.8335e-05 0.104442)
(-5.95881e-05 -1.17749e-06 0.1077)
(-7.43871e-05 2.29842e-05 0.107645)
(-1.89473e-05 -2.70685e-05 0.107561)
(4.73044e-05 3.14089e-05 0.104195)
(5.85516e-06 -2.55433e-06 0.104201)
(-2.92161e-05 -1.20578e-05 0.104353)
(-3.16197e-05 -3.46943e-05 0.107569)
(-8.28476e-05 -3.32172e-05 0.107683)
(-2.41789e-07 2.69521e-06 0.107619)
(-4.92414e-05 4.24183e-05 0.107561)
(-9.04046e-05 5.99012e-05 0.104401)
(1.81774e-05 4.48405e-06 0.104163)
(-2.77247e-05 -3.28215e-05 0.107577)
(-4.08335e-05 -2.53707e-05 0.107632)
(-1.2081e-05 1.76819e-05 0.107612)
(2.96933e-05 -5.88492e-05 0.107569)
(4.28722e-06 2.18732e-05 0.107511)
(-3.05507e-05 7.25561e-05 0.107558)
(1.90068e-05 5.86879e-05 0.10757)
(2.38755e-06 -3.18761e-05 0.10432)
(2.51028e-05 -2.96105e-06 0.10421)
(2.14408e-05 -7.23185e-07 0.107518)
(8.18542e-05 -1.81395e-05 0.107566)
(4.13089e-05 3.3032e-05 0.107564)
(5.57453e-05 7.17396e-05 0.104358)
(4.82511e-05 6.08656e-05 0.104228)
(-6.68587e-05 -7.48753e-05 0.104341)
(9.16621e-06 1.62909e-05 0.107629)
(3.35853e-05 3.34236e-05 0.107523)
(-1.61255e-05 -1.33744e-05 0.107578)
(0.000103852 -4.57142e-05 0.107561)
(-1.50148e-05 4.07205e-05 0.104036)
(0.000113673 -0.000115716 0.104434)
(6.80763e-06 1.82369e-05 0.107624)
(3.20041e-05 8.71989e-06 0.107544)
(-7.1986e-06 -2.39948e-05 0.107584)
(-4.01478e-05 0.00010589 0.107566)
(1.21336e-05 2.93331e-05 0.10761)
(4.8572e-05 -0.000103507 0.107561)
(6.39207e-06 -1.97287e-05 0.107615)
(6.80196e-05 -4.26974e-05 0.104076)
(-0.000125938 0.000124145 0.104414)
(2.13687e-05 2.02959e-05 0.107607)
(-0.000105631 4.29216e-05 0.107565)
(-1.18887e-05 4.10969e-08 0.10762)
(4.10007e-05 3.29601e-05 0.104381)
(3.47064e-06 -3.36247e-06 0.104219)
(-1.48421e-05 -1.16551e-05 0.104286)
(-2.00759e-05 -3.10993e-05 0.107552)
(4.84472e-05 -5.73672e-05 0.107597)
(2.13393e-05 -2.02278e-05 0.107527)
(-9.27692e-05 1.34876e-06 0.107582)
(1.49772e-05 -2.23954e-05 0.104348)
(-3.65763e-05 3.30677e-05 0.104311)
(-2.63204e-05 -2.5434e-05 0.107557)
(-5.56102e-05 5.7292e-05 0.107593)
(-2.2436e-05 2.37419e-05 0.107528)
(-8.02456e-07 -9.24501e-05 0.107578)
(1.60116e-05 -1.13051e-05 0.107583)
(-6.27427e-06 8.87724e-05 0.107588)
(2.19657e-05 -8.27023e-07 0.107524)
(-3.43861e-05 2.73935e-05 0.104329)
(3.64184e-05 -3.98809e-05 0.104316)
(-6.34495e-06 1.12463e-05 0.107588)
(8.86989e-05 -3.83766e-06 0.107585)
(-3.4925e-06 2.43239e-05 0.107525)
(3.47029e-05 3.80048e-05 0.104273)
(6.24958e-05 6.54683e-05 0.104152)
(-6.03501e-05 -6.05258e-05 0.104256)
(2.58424e-05 1.21741e-06 0.10753)
(-7.31132e-05 2.34896e-05 0.107542)
(-2.05855e-05 1.15539e-05 0.107523)
(5.75953e-05 3.3954e-06 0.107479)
(-9.78804e-05 9.81672e-05 0.104139)
(9.45326e-05 -9.36941e-05 0.104215)
(-8.9485e-07 2.81797e-05 0.10753)
(2.23383e-05 -7.46462e-05 0.107542)
(1.13646e-05 -2.04198e-05 0.107525)
(2.97231e-06 5.78873e-05 0.107481)
(7.04626e-06 -5.24085e-06 0.107527)
(-8.97262e-07 -5.68801e-05 0.107479)
(-1.07174e-05 7.14821e-06 0.107532)
(0.000102302 -0.000102203 0.104145)
(-9.4841e-05 9.57179e-05 0.104218)
(-7.61261e-06 9.24328e-06 0.107527)
(-5.72249e-05 -5.04854e-07 0.107481)
(7.04002e-06 -1.05465e-05 0.107534)
(4.63264e-05 4.60758e-05 0.104269)
(3.22721e-06 2.91879e-06 0.104156)
(-4.79573e-05 -4.89592e-05 0.104373)
(-3.21373e-05 -2.76804e-06 0.107517)
(6.71959e-05 -1.6308e-05 0.107491)
(-1.58414e-05 -3.11332e-05 0.107528)
(3.37411e-06 -3.3357e-05 0.107559)
(2.72615e-05 -2.90883e-05 0.104135)
(3.2061e-05 -3.73092e-05 0.104428)
(-2.6865e-06 -3.23821e-05 0.107519)
(-1.64042e-05 6.69823e-05 0.107492)
(-3.02816e-05 -1.6819e-05 0.10753)
(-3.33101e-05 4.99049e-06 0.107559)
(-1.5912e-06 1.54365e-05 0.107523)
(2.83438e-05 -9.82501e-06 0.107563)
(2.66214e-05 1.46544e-05 0.107511)
(-2.98044e-05 2.81272e-05 0.104137)
(-3.88515e-05 3.35555e-05 0.104429)
(1.5571e-05 -1.54871e-06 0.107525)
(-1.13929e-05 2.83193e-05 0.107563)
(1.55185e-05 2.58685e-05 0.107512)
(5.09443e-05 5.00156e-05 0.104339)
(2.75045e-05 2.64612e-05 0.104259)
(-3.52103e-05 -3.69156e-05 0.104346)
(-8.80879e-06 -2.92279e-05 0.10754)
(-1.49691e-05 -2.52885e-05 0.107569)
(6.46491e-06 -1.08101e-05 0.10755)
(-8.93852e-06 -2.81953e-06 0.107537)
(-4.65278e-05 4.30662e-05 0.104304)
(3.95582e-05 -3.42831e-05 0.104309)
(-2.82481e-05 -9.8108e-06 0.107541)
(-2.57358e-05 -1.33529e-05 0.107568)
(-1.00179e-05 3.94239e-06 0.107551)
(-1.00488e-06 -1.74407e-05 0.107531)
(2.71256e-05 1.06034e-05 0.107518)
(6.12075e-06 1.42602e-05 0.107538)
(1.21167e-05 -1.3682e-06 0.107536)
(4.11517e-05 -4.47952e-05 0.104305)
(-2.71992e-05 3.21776e-05 0.104296)
(1.16636e-05 2.61654e-05 0.107519)
(2.25385e-05 4.06858e-06 0.107532)
(1.37078e-06 1.10557e-05 0.107537)
(3.88434e-05 3.69925e-05 0.104337)
(3.73478e-05 3.55218e-05 0.104215)
(-4.22973e-05 -4.10417e-05 0.104261)
(1.0021e-05 -5.35219e-06 0.107539)
(1.5469e-06 -1.69423e-06 0.107519)
(1.15403e-06 -2.16424e-06 0.107486)
(9.82032e-06 -6.76343e-06 0.107484)
(-2.73682e-05 3.27367e-05 0.104179)
(4.74456e-05 -4.4781e-05 0.104274)
(-4.12265e-06 6.94546e-06 0.10754)
(2.64557e-06 -8.28742e-06 0.107508)
(-1.80022e-06 2.49934e-06 0.107488)
(-6.03115e-06 1.911e-05 0.107472)
(7.94397e-06 -2.95412e-06 0.107532)
(9.42516e-06 -5.7067e-06 0.107486)
(6.00267e-06 3.19476e-06 0.107498)
(4.03923e-05 -3.52262e-05 0.104163)
(-5.26677e-05 5.5561e-05 0.104261)
(3.06769e-07 6.60137e-06 0.107534)
(-1.4771e-05 8.96169e-06 0.107474)
(1.61167e-06 5.73144e-06 0.1075)
(4.3698e-05 4.51641e-05 0.104283)
(2.45694e-05 2.69851e-05 0.104147)
(-5.36885e-05 -4.91838e-05 0.104302)
(-8.67821e-06 -5.22541e-06 0.107474)
(7.20509e-06 -7.8739e-06 0.107479)
(-1.99853e-05 -1.48795e-05 0.107473)
(9.29834e-06 -1.37292e-05 0.107476)
(-2.52774e-05 2.70331e-05 0.104162)
(4.69067e-05 -5.02258e-05 0.104299)
(-6.63575e-06 -4.33157e-06 0.107476)
(-1.09446e-05 2.24606e-05 0.107473)
(-1.94556e-05 -1.42861e-05 0.107473)
(-1.92383e-05 1.07322e-05 0.107489)
(7.59986e-06 8.4008e-06 0.107489)
(1.16923e-05 -1.31519e-05 0.10748)
(1.21895e-05 1.39323e-05 0.107481)
(1.60057e-05 -1.406e-05 0.104157)
(-4.88808e-05 4.54292e-05 0.104328)
(3.84064e-06 9.09576e-06 0.107491)
(-1.47611e-05 1.71418e-05 0.107493)
(8.31745e-06 1.68497e-05 0.107481)
(4.5439e-05 4.99055e-05 0.104304)
(1.95241e-05 2.25109e-05 0.104196)
(-1.42897e-05 -1.64694e-05 0.107478)
(1.0562e-05 -1.6335e-05 0.107477)
(-2.29023e-05 1.94262e-05 0.10419)
(-1.92835e-05 -1.20687e-05 0.107478)
(-1.86867e-05 4.42162e-06 0.107492)
(1.37594e-05 1.05627e-05 0.107482)
(2.40234e-05 -2.76152e-05 0.104217)
(8.44651e-06 1.65307e-05 0.107482)
(-1.87416e-07 -8.55323e-06 0.0910052)
(-8.19825e-07 6.73609e-06 0.0815674)
(-9.96495e-07 5.62364e-06 0.090977)
(-1.38434e-06 -7.80604e-06 0.0816089)
(-1.4616e-06 2.73028e-06 0.0708702)
(2.88397e-07 -4.0024e-06 0.070917)
(-8.3841e-06 -8.23096e-07 0.0910041)
(6.68441e-06 -5.74829e-07 0.0815677)
(5.94154e-06 -1.59926e-07 0.0909752)
(-7.59025e-06 -1.7392e-06 0.0816092)
(-2.61427e-05 2.60916e-05 0.113153)
(-2.38062e-05 -2.34929e-05 0.113151)
(2.1581e-05 2.19687e-05 0.113165)
(-2.22785e-05 2.25683e-05 0.113164)
(2.24372e-05 -2.21803e-05 0.113163)
(-2.15524e-05 -2.11828e-05 0.113164)
(9.48985e-06 3.34574e-07 0.0985702)
(-1.55196e-05 1.16047e-06 0.0926064)
(-2.53947e-05 6.21238e-06 0.110833)
(-1.71992e-05 1.08738e-05 0.108253)
(-1.62476e-05 1.63517e-06 0.0985229)
(5.66207e-06 -5.15179e-06 0.0926561)
(-2.49128e-05 5.68966e-06 0.110821)
(-4.61393e-06 -3.19079e-06 0.0709164)
(-6.76284e-08 9.43221e-06 0.0985677)
(3.43489e-06 -2.54814e-05 0.11083)
(7.71484e-06 -1.56404e-05 0.108252)
(1.29166e-07 -1.68963e-05 0.0985205)
(2.78734e-06 -2.46887e-05 0.110819)
(-1.88021e-06 9.15072e-06 0.0926579)
(-2.57839e-06 -6.31345e-06 0.0869827)
(-6.67205e-06 -2.35642e-06 0.0869814)
(4.53846e-05 4.60278e-05 0.104864)
(6.67846e-06 5.74589e-07 0.0870221)
(6.62173e-07 6.57655e-06 0.0870198)
(1.39002e-07 -9.01912e-06 0.0909891)
(1.62434e-06 5.70738e-06 0.0815709)
(6.25543e-07 5.69603e-06 0.0909575)
(-1.82484e-06 -7.58438e-06 0.0816145)
(-4.61105e-06 2.02567e-06 0.0708781)
(-1.12813e-07 -3.88747e-06 0.070925)
(-9.30733e-06 5.23693e-07 0.0909913)
(6.02693e-06 1.05088e-06 0.0815722)
(5.24874e-06 -1.16067e-06 0.0909597)
(-7.86324e-06 -1.47956e-06 0.0816154)
(-2.0626e-05 2.08105e-05 0.113167)
(2.3037e-05 -2.28541e-05 0.113166)
(-2.12832e-05 -2.14956e-05 0.113167)
(2.09908e-05 2.04744e-05 0.113176)
(-1.97008e-05 1.92793e-05 0.113175)
(1.97096e-05 -2.01027e-05 0.113174)
(-2.16338e-05 -2.2157e-05 0.113175)
(1.10641e-05 -1.9803e-06 0.0985319)
(-1.36019e-05 3.11586e-06 0.092593)
(-2.20851e-05 1.29009e-06 0.110787)
(-1.25342e-05 5.69085e-06 0.1082)
(-1.56527e-05 -2.1791e-06 0.09848)
(9.07886e-06 -3.80581e-06 0.092648)
(-2.10328e-05 4.16987e-07 0.110775)
(4.13541e-06 1.40429e-06 0.0708791)
(-3.654e-06 3.53117e-06 0.0709234)
(-6.02733e-07 1.12247e-05 0.0985342)
(4.86248e-06 -2.16632e-05 0.110786)
(2.36969e-06 -1.25449e-05 0.0925974)
(1.06637e-05 -1.52284e-05 0.108198)
(4.0741e-07 -1.45677e-05 0.098482)
(4.57839e-06 -2.14711e-05 0.110776)
(-8.39454e-06 4.03506e-06 0.092642)
(-2.8712e-06 -4.3524e-06 0.0869794)
(-3.58922e-06 -3.28627e-06 0.0869789)
(4.27394e-05 4.19076e-05 0.104811)
(4.48262e-06 3.57998e-06 0.0870175)
(3.78191e-06 4.27853e-06 0.0870164)
(-7.18542e-07 -9.4848e-06 0.0909788)
(1.39458e-07 5.93113e-06 0.0815775)
(-1.02575e-06 4.73791e-06 0.0909475)
(-1.73866e-06 -7.85314e-06 0.0816232)
(-2.08621e-06 2.35458e-06 0.0708935)
(8.6812e-07 -4.02209e-06 0.0709439)
(-9.21013e-06 -1.19599e-06 0.0909769)
(5.41479e-06 9.05672e-07 0.0815778)
(5.32803e-06 1.09574e-06 0.0909445)
(-7.5104e-06 -2.001e-06 0.0816234)
(-1.9989e-05 1.95808e-05 0.113178)
(1.7139e-05 -1.75423e-05 0.113176)
(-2.14087e-05 -2.12227e-05 0.113177)
(1.87707e-05 1.93409e-05 0.113178)
(-1.81613e-05 1.85766e-05 0.11318)
(1.85828e-05 -1.81633e-05 0.113178)
(-1.71653e-05 -1.65856e-05 0.113177)
(1.18576e-05 7.00842e-07 0.098499)
(-1.17865e-05 2.46616e-06 0.0925853)
(-1.96967e-05 2.10054e-06 0.110744)
(-1.19407e-05 7.74273e-06 0.108151)
(-1.38098e-05 2.16108e-07 0.0984489)
(8.93912e-06 -4.97833e-06 0.0926368)
(-1.91489e-05 2.77372e-06 0.110733)
(1.98552e-07 -8.97474e-06 0.0708981)
(-4.04503e-06 -2.68883e-06 0.0709393)
(-8.26215e-07 1.17161e-05 0.0984948)
(-1.67285e-06 -2.00814e-05 0.110742)
(3.70774e-06 -1.25513e-05 0.0925818)
(2.85682e-06 -9.22745e-06 0.108149)
(-2.92821e-06 -1.52074e-05 0.0984455)
(-1.44099e-06 -1.86705e-05 0.110729)
(6.40023e-07 1.41363e-05 0.0926407)
(-5.05118e-06 -2.72874e-06 0.0869795)
(-3.67472e-06 -4.40894e-06 0.0869782)
(4.44882e-05 4.54411e-05 0.104752)
(4.91751e-06 3.12623e-06 0.08702)
(2.82835e-06 5.16735e-06 0.0870177)
(-2.34909e-06 -9.2819e-06 0.0909704)
(-1.85737e-06 6.82316e-06 0.0815867)
(-1.7864e-06 4.68656e-06 0.0909385)
(-6.7232e-07 -7.8899e-06 0.08163)
(-4.4797e-06 1.63135e-06 0.0709122)
(3.59651e-07 -4.17726e-06 0.0709611)
(-9.44597e-06 -1.33604e-06 0.0909719)
(6.99606e-06 -2.25311e-06 0.0815879)
(4.13586e-06 -3.31835e-06 0.0909414)
(-8.43783e-06 -7.84557e-08 0.0816309)
(-1.78904e-05 1.81662e-05 0.11318)
(2.02549e-05 -1.99784e-05 0.113179)
(-1.66277e-05 -1.65713e-05 0.113177)
(1.37637e-05 1.35719e-05 0.113178)
(-1.73805e-05 1.67631e-05 0.113177)
(1.60403e-05 -1.66906e-05 0.113176)
(-1.63847e-05 -1.66084e-05 0.113177)
(1.30867e-05 4.34672e-08 0.0984696)
(-1.04416e-05 3.79697e-06 0.0925785)
(-1.68437e-05 2.8462e-06 0.110697)
(-9.80248e-06 7.37956e-06 0.108097)
(-1.28643e-05 1.32668e-07 0.0984165)
(1.04277e-05 -3.44261e-06 0.0926326)
(-1.62112e-05 2.62461e-06 0.110685)
(3.46261e-06 2.14098e-06 0.0709117)
(-4.53725e-06 1.53421e-06 0.0709586)
(6.01997e-07 1.2876e-05 0.0984722)
(5.9328e-06 -1.64008e-05 0.110696)
(1.29781e-06 -1.15008e-05 0.0925811)
(9.42076e-06 -1.15574e-05 0.108098)
(3.16593e-06 -1.17051e-05 0.0984199)
(5.33331e-06 -1.65212e-05 0.110686)
(-8.65906e-06 5.3449e-06 0.0926251)
(-9.5991e-07 -5.1812e-06 0.0869885)
(-4.4477e-06 -1.4377e-06 0.086988)
(4.27901e-05 4.20978e-05 0.104709)
(3.49059e-06 5.55041e-06 0.0870255)
(5.57023e-06 3.41103e-06 0.0870243)
(8.7138e-07 -1.03222e-05 0.0909697)
(1.55714e-06 4.99053e-06 0.0816044)
(5.90625e-08 3.83404e-06 0.0909347)