/*--------------------------------*- C++ -*----------------------------------*\
| =========                 |                                                 |
| \\      /  F ield         | OpenFOAM: The Open Source CFD Toolbox           |
|  \\    /   O peration     | Version:                                        |
|   \\  /    A nd           | Website:  www.openfoam.com                      |
|    \\/     M anipulation  |                                                 |
\*---------------------------------------------------------------------------*/
FoamFile
{
    version     2.0;
    format      ascii;
    class       volScalarField;
    location    "700";
    object      nut;
}
// * * * * * * * * * * * * * * * * * * * * * * * * * * * * * * * * * * * * * //

dimensions      [0 2 -1 0 0 0 0];


internalField   nonuniform List<scalar> 
172512
(
0.000233969
0.000233548
0.000233548
0.000233451
0.000232529
0.00022758
0.00022758
0.000223833
0.000230487
0.000220158
0.000220157
0.000209027
0.000227758
0.000211542
0.00021154
0.000193702
0.000224387
0.000202552
0.000202549
0.000179637
0.000220505
0.000193693
0.000193689
0.000167281
0.000216258
0.000185208
0.000185204
0.000156542
0.000211776
0.000177176
0.000177171
0.000147172
0.000207165
0.000169637
0.000169632
0.000138926
0.000202506
0.000162564
0.000162559
0.000131599
0.000197852
0.000155905
0.0001559
0.000124945
0.00019324
0.000149604
0.000149599
0.000118811
0.000188648
0.000143624
0.00014362
0.000113168
0.000184117
0.000137912
0.000137907
0.000107937
0.000179673
0.000132422
0.000132418
0.000103063
0.000175306
0.000127147
0.000127143
9.84445e-05
0.000171004
0.000122106
0.000122102
9.42614e-05
0.000166753
0.000117325
0.000117321
9.06713e-05
0.000162554
0.000112841
0.000112838
8.7744e-05
0.000158382
0.00010871
0.000108707
8.53976e-05
0.00015423
0.000104981
0.000104978
8.36817e-05
0.000150109
0.00010167
0.000101666
8.25947e-05
0.000146029
9.88542e-05
9.88514e-05
8.21117e-05
0.000142011
9.6546e-05
9.65439e-05
8.2163e-05
0.000138081
9.4756e-05
9.47547e-05
8.27008e-05
0.000134258
9.34838e-05
9.3483e-05
8.36747e-05
0.000130594
9.27163e-05
9.27163e-05
8.50281e-05
0.000127117
9.24331e-05
9.24336e-05
8.67025e-05
0.000123864
9.26066e-05
9.26081e-05
8.86414e-05
0.000120864
9.32058e-05
9.32079e-05
9.07929e-05
0.000118149
9.41952e-05
9.41978e-05
9.31112e-05
0.000115753
9.55383e-05
9.55421e-05
9.55574e-05
0.000113694
9.71996e-05
9.72041e-05
9.81001e-05
0.000111987
9.91426e-05
9.91472e-05
0.000100712
0.000110642
0.000101331
0.000101336
0.000103374
0.000109663
0.000103733
0.00010374
0.000106073
0.000109052
0.000106318
0.000106324
0.00010879
0.000108809
0.000109056
0.000109064
0.000111515
0.000108926
0.00011192
0.000111928
0.00011424
0.000109388
0.000114885
0.000114895
0.000116954
0.000110181
0.000117927
0.000117937
0.00011965
0.000111295
0.000121039
0.000121048
0.000122324
0.000112728
0.000124207
0.000124215
0.000124981
0.000114435
0.000127388
0.0001274
0.000127603
0.000116408
0.000130579
0.000130585
0.000130187
0.000118617
0.000133778
0.000133782
0.000132737
0.000121072
0.000136954
0.000136972
0.000135262
0.000123682
0.000140106
0.00014013
0.000137713
0.000126562
0.000143304
0.000143275
0.000140127
0.000129488
0.000146239
0.000146302
0.000142536
0.000132699
0.000149386
0.000149354
0.000144847
0.000135888
0.00015253
0.000152755
0.000147198
0.000139006
0.000155343
0.00015445
0.000148786
0.000141892
0.000157171
0.000159075
0.000152648
0.000149302
0.000163393
0.000162591
0.000153643
0.000149818
0.000164369
0.000161687
0.000153737
0.000145418
0.000161796
0.000165203
0.000158693
0.000159381
0.000171011
0.000172057
0.000158307
0.00016628
0.000171567
0.000171347
0.000157909
0.000161746
0.000167319
0.000170151
0.000169977
0.000166358
0.000189628
0.000181908
0.000172195
0.000179471
0.000194616
0.000179503
0.000160238
0.000170733
0.000163541
0.000173087
0.000156745
0.000164128
0.00016841
0.000187267
0.000175116
0.000202053
0.000210705
0.00020413
0.000186928
0.000213819
0.000217357
0.000197887
0.00017774
0.0001766
0.000176644
0.000172879
0.000162112
0.000158746
0.000166584
0.000168958
0.000161829
0.000173742
0.000184492
0.000189758
0.000174862
0.000204482
0.000202547
0.000202227
0.000182992
0.000214524
0.000206139
0.000204131
0.000184268
0.000213285
0.000202752
0.000201358
0.000182284
0.000207063
0.000199065
0.00019919
0.000180546
0.000204498
0.000198647
0.000199249
0.00018103
0.000206824
0.000201723
0.000201771
0.000183022
0.00021117
0.000203494
0.000203295
0.000183805
0.000213689
0.000204381
0.000204367
0.000184344
0.000215694
0.000205505
0.000205657
0.00018528
0.000217672
0.000206763
0.000206793
0.000186095
0.000219714
0.000207648
0.000207607
0.000186597
0.000221464
0.000208402
0.000208429
0.000187015
0.000222794
0.000209167
0.000209197
0.000187535
0.000224514
0.000209918
0.000209924
0.000188009
0.000226018
0.000210582
0.000210564
0.000188392
0.000227236
0.000211138
0.000211113
0.000188711
0.000228423
0.000211547
0.000211587
0.000188927
0.00022959
0.000212052
0.000212091
0.000189226
0.000230663
0.000212452
0.000212462
0.000189438
0.000231559
0.000212762
0.000212711
0.000189516
0.000232359
0.000213056
0.000213092
0.000189681
0.000233091
0.000213141
0.000213193
0.000189637
0.000233816
0.000213391
0.000213329
0.000189748
0.000234341
0.000213591
0.000213614
0.000189749
0.000234864
0.000213655
0.000213717
0.000189607
0.000234715
0.00021432
0.00021421
0.000194245
0.000234256
0.000234459
0.00023446
0.000234257
0.00023446
0.00023446
0.000234259
0.000234259
0.000234259
0.000234259
0.000234459
0.000234459
0.000234256
0.000234459
0.00023446
0.000234256
0.000233451
0.000226179
0.000233548
0.000233547
0.000229123
0.000229118
0.000233451
0.00022618
0.000233547
0.000233547
0.00022912
0.000229117
0.000233548
0.000229126
0.000229123
0.000233451
0.000226178
0.000233547
0.000229126
0.00022912
0.000226177
0.000223834
0.000212154
0.000227577
0.000227572
0.000222157
0.000222151
0.000223833
0.000212155
0.000227575
0.000227571
0.000222158
0.00022215
0.000227576
0.000222163
0.000222156
0.000223834
0.000212152
0.000227575
0.000222162
0.000222156
0.000212148
0.000209031
0.000196985
0.000220151
0.000220146
0.000213749
0.000213742
0.000209029
0.000196983
0.000220153
0.000220143
0.000213753
0.00021374
0.000220149
0.000213758
0.000213745
0.000209029
0.00019698
0.000220151
0.000213757
0.00021375
0.000196975
0.000193711
0.000182814
0.000211531
0.000211525
0.000204788
0.000204781
0.000193709
0.000182811
0.000211537
0.000211522
0.000204797
0.000204778
0.000211527
0.000204801
0.000204784
0.000193706
0.000182807
0.000211533
0.000204799
0.000204792
0.0001828
0.000179648
0.000170219
0.000202538
0.000202531
0.000195862
0.000195855
0.000179645
0.000170216
0.000202548
0.000202528
0.000195874
0.000195851
0.000202533
0.000195877
0.000195856
0.000179642
0.000170211
0.000202542
0.000195875
0.000195868
0.000170204
0.000167295
0.000159208
0.000193675
0.000193669
0.00018727
0.000187263
0.000167292
0.000159204
0.000193689
0.000193665
0.000187286
0.000187258
0.000193669
0.000187288
0.000187263
0.000167287
0.000159199
0.000193682
0.000187285
0.000187278
0.000159191
0.000156557
0.000149591
0.000185188
0.000185181
0.000179116
0.000179109
0.000156553
0.000149587
0.000185205
0.000185177
0.000179135
0.000179104
0.000185182
0.000179137
0.000179109
0.000156548
0.000149581
0.000185197
0.000179134
0.000179127
0.000149573
0.000147189
0.000141095
0.000177153
0.000177146
0.000171451
0.000171444
0.000147185
0.000141091
0.000177173
0.000177142
0.000171473
0.000171439
0.000177146
0.000171474
0.000171444
0.000147179
0.000141084
0.000177164
0.000171471
0.000171464
0.000141076
0.000138944
0.000133545
0.000169611
0.000169604
0.000164264
0.000164257
0.000138939
0.000133541
0.000169634
0.0001696
0.000164288
0.000164252
0.000169605
0.00016429
0.000164258
0.000138933
0.000133533
0.000169625
0.000164286
0.000164279
0.000133525
0.000131618
0.00012669
0.000162536
0.000162529
0.000157505
0.000157498
0.000131613
0.000126686
0.000162561
0.000162525
0.000157532
0.000157493
0.00016253
0.000157533
0.000157499
0.000131606
0.000126678
0.000162552
0.000157529
0.000157522
0.00012667
0.000124964
0.000120371
0.000155875
0.000155868
0.000151118
0.000151111
0.000124959
0.000120368
0.000155903
0.000155864
0.000151147
0.000151106
0.000155869
0.000151148
0.000151113
0.000124952
0.00012036
0.000155893
0.000151144
0.000151137
0.000120352
0.000118828
0.000114443
0.000149573
0.000149566
0.000145058
0.000145051
0.000118825
0.000114437
0.000149602
0.000149562
0.000145088
0.000145046
0.000149568
0.000145089
0.000145053
0.000118818
0.00011443
0.000149592
0.000145086
0.000145079
0.000114421
0.000113185
0.000108855
0.000143592
0.000143584
0.000139282
0.000139274
0.000113182
0.000108849
0.000143622
0.000143581
0.000139313
0.00013927
0.000143587
0.000139314
0.000139278
0.000113175
0.000108842
0.000143612
0.000139311
0.000139303
0.000108834
0.000107954
0.000103722
0.000137879
0.00013787
0.00013374
0.000133731
0.00010795
0.000103717
0.000137909
0.000137867
0.000133771
0.000133727
0.000137874
0.000133772
0.000133735
0.000107943
0.00010371
0.0001379
0.000133769
0.000133761
0.000103702
0.000103081
9.91477e-05
0.000132389
0.00013238
0.00012841
0.000128399
0.000103076
9.91429e-05
0.00013242
0.000132377
0.000128439
0.000128396
0.000132384
0.000128441
0.000128406
0.000103069
9.91362e-05
0.00013241
0.000128438
0.00012843
9.91293e-05
9.84623e-05
9.50096e-05
0.000127116
0.000127104
0.00012331
0.000123295
9.8457e-05
9.5005e-05
0.000127144
0.000127102
0.000123336
0.000123294
0.000127112
0.000123339
0.000123306
9.84507e-05
9.49988e-05
0.000127135
0.000123336
0.000123326
9.49925e-05
9.42778e-05
9.14562e-05
0.000122077
0.000122063
0.000118443
0.000118428
9.42725e-05
9.14515e-05
0.000122102
0.000122061
0.000118467
0.000118427
0.000122073
0.000118471
0.00011844
9.4267e-05
9.1446e-05
0.000122093
0.000118468
0.000118458
9.14403e-05
9.06861e-05
8.8399e-05
0.000117296
0.000117281
0.000113888
0.000113871
9.06796e-05
8.83942e-05
0.00011732
0.00011728
0.00011391
0.000113871
0.000117294
0.000113915
0.000113886
9.06756e-05
8.83895e-05
0.000117311
0.000113912
0.000113902
8.83845e-05
8.77577e-05
8.59307e-05
0.000112813
0.000112797
0.000109659
0.00010964
8.77524e-05
8.59262e-05
0.000112835
0.000112796
0.000109679
0.000109641
0.000112811
0.000109684
0.000109657
8.77482e-05
8.5922e-05
0.000112827
0.000109682
0.000109671
8.59174e-05
8.54099e-05
8.40905e-05
0.000108683
0.000108666
0.000105815
0.000105798
8.54056e-05
8.40868e-05
0.000108704
0.000108666
0.000105835
0.000105799
0.000108682
0.00010584
0.000105815
8.54014e-05
8.40828e-05
0.000108696
0.000105838
0.000105827
8.40786e-05
8.36922e-05
8.2881e-05
0.000104954
0.000104938
0.00010242
0.000102405
8.36891e-05
8.28778e-05
0.000104974
0.000104938
0.00010244
0.000102406
0.000104954
0.000102446
0.000102422
8.36851e-05
8.28742e-05
0.000104967
0.000102445
0.000102434
8.28704e-05
8.26041e-05
8.22809e-05
0.000101641
0.000101627
9.94812e-05
9.94688e-05
8.26014e-05
8.22782e-05
0.000101662
0.000101628
9.95016e-05
9.9469e-05
0.000101644
9.95076e-05
9.94849e-05
8.25978e-05
8.22749e-05
0.000101655
9.95073e-05
9.94959e-05
8.22715e-05
8.212e-05
8.22252e-05
9.88259e-05
9.88138e-05
9.70453e-05
9.70348e-05
8.21177e-05
8.22229e-05
9.88461e-05
9.88138e-05
9.70653e-05
9.70346e-05
9.88299e-05
9.70714e-05
9.70504e-05
8.21144e-05
8.22199e-05
9.88401e-05
9.70716e-05
9.70603e-05
8.22171e-05
8.21702e-05
8.26641e-05
9.65183e-05
9.65078e-05
9.51271e-05
9.51179e-05
8.21682e-05
8.26621e-05
9.65379e-05
9.65078e-05
9.51464e-05
9.51179e-05
9.65235e-05
9.51525e-05
9.51334e-05
8.21652e-05
8.26595e-05
9.65326e-05
9.51531e-05
9.51421e-05
8.26574e-05
8.27068e-05
8.35495e-05
9.47294e-05
9.47205e-05
9.37275e-05
9.37198e-05
8.2705e-05
8.35477e-05
9.47483e-05
9.47203e-05
9.37459e-05
9.37198e-05
9.47357e-05
9.3752e-05
9.37348e-05
8.27025e-05
8.35457e-05
9.47437e-05
9.37532e-05
9.37424e-05
8.35441e-05
8.36795e-05
8.48258e-05
9.34583e-05
9.34504e-05
9.28366e-05
9.28299e-05
8.3678e-05
8.48242e-05
9.34761e-05
9.34506e-05
9.28541e-05
9.28303e-05
9.34656e-05
9.28599e-05
9.28449e-05
8.36759e-05
8.48228e-05
9.34724e-05
9.28617e-05
9.28513e-05
8.48216e-05
8.50318e-05
8.64345e-05
9.26922e-05
9.26853e-05
9.24362e-05
9.24303e-05
8.50305e-05
8.64331e-05
9.27089e-05
9.26857e-05
9.24523e-05
9.24309e-05
9.27002e-05
9.24581e-05
9.24451e-05
8.5029e-05
8.64322e-05
9.27058e-05
9.24605e-05
9.24502e-05
8.64314e-05
8.67053e-05
8.83188e-05
9.24104e-05
9.24043e-05
9.25e-05
9.24947e-05
8.67039e-05
8.83174e-05
9.24257e-05
9.2405e-05
9.25149e-05
9.24959e-05
9.24192e-05
9.25208e-05
9.25098e-05
8.67031e-05
8.83172e-05
9.24235e-05
9.25235e-05
9.25135e-05
8.83167e-05
8.86432e-05
9.0426e-05
9.25855e-05
9.25801e-05
9.29975e-05
9.29928e-05
8.8642e-05
9.04248e-05
9.25996e-05
9.25812e-05
9.30111e-05
9.29943e-05
9.2595e-05
9.30167e-05
9.30078e-05
8.86417e-05
9.04252e-05
9.2598e-05
9.30203e-05
9.30102e-05
9.04248e-05
9.0794e-05
9.27093e-05
9.31862e-05
9.31812e-05
9.38943e-05
9.389e-05
9.07929e-05
9.27082e-05
9.31989e-05
9.31828e-05
9.39063e-05
9.38917e-05
9.31963e-05
9.39123e-05
9.39051e-05
9.07931e-05
9.27089e-05
9.31978e-05
9.39162e-05
9.3906e-05
9.27088e-05
9.31116e-05
9.51286e-05
9.41766e-05
9.41722e-05
9.5154e-05
9.51498e-05
9.31106e-05
9.51272e-05
9.4188e-05
9.41741e-05
9.51648e-05
9.51521e-05
9.41875e-05
9.51707e-05
9.51653e-05
9.31112e-05
9.51287e-05
9.41876e-05
9.51752e-05
9.51647e-05
9.51285e-05
9.55576e-05
9.76508e-05
9.55218e-05
9.55171e-05
9.67404e-05
9.67364e-05
9.55562e-05
9.76495e-05
9.55319e-05
9.55198e-05
9.67498e-05
9.67392e-05
9.55332e-05
9.67558e-05
9.67528e-05
9.55575e-05
9.76513e-05
9.55318e-05
9.67611e-05
9.67507e-05
9.76515e-05
9.80994e-05
0.000100249
9.71841e-05
9.71798e-05
9.86174e-05
9.86137e-05
9.80983e-05
0.000100248
9.71929e-05
9.7183e-05
9.86255e-05
9.86166e-05
9.71963e-05
9.86319e-05
9.86296e-05
9.81e-05
0.00010025
9.71935e-05
9.86376e-05
9.8626e-05
0.000100249
0.000100712
0.000102901
9.91279e-05
9.91239e-05
0.000100749
0.000100744
0.000100711
0.000102899
9.91355e-05
9.9127e-05
0.000100755
0.000100748
9.914e-05
0.000100762
0.000100762
0.000100712
0.000102901
9.91358e-05
0.000100768
0.000100757
0.000102902
0.000103373
0.000105592
0.000101318
0.000101313
0.000103101
0.000103097
0.000103372
0.00010559
0.000101324
0.000101317
0.000103107
0.000103101
0.000101331
0.000103114
0.000103115
0.000103374
0.000105593
0.000101325
0.000103121
0.000103109
0.000105592
0.000106073
0.000108302
0.00010372
0.000103716
0.000105643
0.000105639
0.000106071
0.000108301
0.000103726
0.00010372
0.000105647
0.000105643
0.000103734
0.000105656
0.000105657
0.000106074
0.000108304
0.000103727
0.000105662
0.00010565
0.000108304
0.000108789
0.000111026
0.000106305
0.000106301
0.000108348
0.000108342
0.000108788
0.000111024
0.000106309
0.000106305
0.000108351
0.000108347
0.00010632
0.000108358
0.000108361
0.00010879
0.000111028
0.000106312
0.000108366
0.000108353
0.000111027
0.000111515
0.000113751
0.000109045
0.00010904
0.000111183
0.000111178
0.000111513
0.000113749
0.000109049
0.000109045
0.000111187
0.000111183
0.000109059
0.000111194
0.000111197
0.000111516
0.000113753
0.000109051
0.000111202
0.000111189
0.000113752
0.00011424
0.000116469
0.00011191
0.000111904
0.000114125
0.000114119
0.000114238
0.000116466
0.000111913
0.000111909
0.000114127
0.000114125
0.000111923
0.000114135
0.000114139
0.000114241
0.000116471
0.000111914
0.000114144
0.00011413
0.000116469
0.000116955
0.000119169
0.000114877
0.000114869
0.00011715
0.000117144
0.000116952
0.000119166
0.000114879
0.000114875
0.000117152
0.000117149
0.000114889
0.00011716
0.000117164
0.000116956
0.000119171
0.000114879
0.000117169
0.000117155
0.00011917
0.000119649
0.000121848
0.000117917
0.000117911
0.000120244
0.000120238
0.000119646
0.000121845
0.000117919
0.000117917
0.000120246
0.000120244
0.000117933
0.000120254
0.000120258
0.000119651
0.000121851
0.000117924
0.000120265
0.000120249
0.000121849
0.000122324
0.000124515
0.000121029
0.000121022
0.000123404
0.000123396
0.000122321
0.000124512
0.00012103
0.000121028
0.000123404
0.000123399
0.000121041
0.000123414
0.000123415
0.000122326
0.000124515
0.000121031
0.00012342
0.000123405
0.000124513
0.000124983
0.000127144
0.000124198
0.00012419
0.000126583
0.000126572
0.000124981
0.000127138
0.000124198
0.000124195
0.000126583
0.000126581
0.000124206
0.00012659
0.000126596
0.000124984
0.000127147
0.000124196
0.000126602
0.000126588
0.000127144
0.000127602
0.000129739
0.00012738
0.00012737
0.000129776
0.000129757
0.000127597
0.000129733
0.000127379
0.000127379
0.000129777
0.000129768
0.000127394
0.000129776
0.000129787
0.000127606
0.000129739
0.000127385
0.000129789
0.00012978
0.000129739
0.000130188
0.000132299
0.000130573
0.000130559
0.000132967
0.000132959
0.000130183
0.0001323
0.000130572
0.000130564
0.000132965
0.000132963
0.000130583
0.000132978
0.00013297
0.000130187
0.000132304
0.000130575
0.000132984
0.000132961
0.000132295
0.000132739
0.000134832
0.000133768
0.000133758
0.000136162
0.00013614
0.00013274
0.000134819
0.000133766
0.000133763
0.000136164
0.000136165
0.000133776
0.000136161
0.000136172
0.000132745
0.000134831
0.000133765
0.000136189
0.00013617
0.000134835
0.000135262
0.0001373
0.000136962
0.000136934
0.000139313
0.000139304
0.000135247
0.000137299
0.000136964
0.00013695
0.000139307
0.000139294
0.000136965
0.000139326
0.000139335
0.000135257
0.000137298
0.000136961
0.000139318
0.000139324
0.0001373
0.000137713
0.000139738
0.000140093
0.000140082
0.00014247
0.000142478
0.000137716
0.000139758
0.000140094
0.000140104
0.000142473
0.000142502
0.000140111
0.000142492
0.000142435
0.000137722
0.000139779
0.000140108
0.000142515
0.000142429
0.000139719
0.000140141
0.000142123
0.000143237
0.00014329
0.000145537
0.00014547
0.000140172
0.000142078
0.000143231
0.000143259
0.000145544
0.000145516
0.000143234
0.000145506
0.000145593
0.000140176
0.000142084
0.000143221
0.000145552
0.000145593
0.000142148
0.000142531
0.000144525
0.000146346
0.000146207
0.00014868
0.000148618
0.000142445
0.000144462
0.000146361
0.000146273
0.000148666
0.000148557
0.000146337
0.000148617
0.000148594
0.000142469
0.000144446
0.000146344
0.000148561
0.000148573
0.000144455
0.00014489
0.00014674
0.000149398
0.000149375
0.000151641
0.000151695
0.000144868
0.00014685
0.000149386
0.000149347
0.00015165
0.000151852
0.000149373
0.000151753
0.000151843
0.000144846
0.00014694
0.000149348
0.000151924
0.000151865
0.000146857
0.00014712
0.000148711
0.000152442
0.000152479
0.000154423
0.00015485
0.000147232
0.000149022
0.000152488
0.000152679
0.000154391
0.000154239
0.000152552
0.000154799
0.000153958
0.000147322
0.000148563
0.000152595
0.000154163
0.000153933
0.00014848
0.000148919
0.000151241
0.000154837
0.000155406
0.000157105
0.00015617
0.000149271
0.000150295
0.000154701
0.00015453
0.000157128
0.000157294
0.000154642
0.000156302
0.000158164
0.000148722
0.000151472
0.000154529
0.000157457
0.00015813
0.000152034
0.000152044
0.000155024
0.000158558
0.000157008
0.000162558
0.000162032
0.000150665
0.000154974
0.000158735
0.000158883
0.000162678
0.000162366
0.000159334
0.000162014
0.000161245
0.000152314
0.000154582
0.000159449
0.000162341
0.000161556
0.000153728
0.000155108
0.000153747
0.000163094
0.000163487
0.000162867
0.000164706
0.000155628
0.000156133
0.000163092
0.000162678
0.000162625
0.000162353
0.000161287
0.000164595
0.000161389
0.000154569
0.000153579
0.000161638
0.000162185
0.000160933
0.00015338
0.000153556
0.000153028
0.000162425
0.0001644
0.000160458
0.000162974
0.000155858
0.000153677
0.000162204
0.00016194
0.000160022
0.00016124
0.000162078
0.000162979
0.00016576
0.000153223
0.000155661
0.000160973
0.000162153
0.000165887
0.00015816
0.000153894
0.00016338
0.000160075
0.000161711
0.000171518
0.000168607
0.00015342
0.000160939
0.000160337
0.000164166
0.000171866
0.000171626
0.000166841
0.000168558
0.000168181
0.000157105
0.000162081
0.000167301
0.000171407
0.000168801
0.000158536
0.000164185
0.000163526
0.000173933
0.000171396
0.00017586
0.000173481
0.00016201
0.000161455
0.000173984
0.000172595
0.000175544
0.000172465
0.000168113
0.000172679
0.000167245
0.000162226
0.00016053
0.000168702
0.000171712
0.000167327
0.000157121
0.000162441
0.000158072
0.000174117
0.000171947
0.000170513
0.000169172
0.000160482
0.000156121
0.000173881
0.000171676
0.000170643
0.000169854
0.000168149
0.000169227
0.000176874
0.000160275
0.000159614
0.000167384
0.000169248
0.000177359
0.000168378
0.000157653
0.00016904
0.000168903
0.00016701
0.000178303
0.000184868
0.000156072
0.000175885
0.000169079
0.000169087
0.000177715
0.000179854
0.000179783
0.000185262
0.000184391
0.000160478
0.0001696
0.000180337
0.000180607
0.000183927
0.000172855
0.000170448
0.00017069
0.000182362
0.000189906
0.000187056
0.000197066
0.000177981
0.000181302
0.000181382
0.000181829
0.000185511
0.000183642
0.000184539
0.000195986
0.000179915
0.000170099
0.000167293
0.000184037
0.000182809
0.000178004
0.000162149
0.000168543
0.000159856
0.000185422
0.000195803
0.00017406
0.000166993
0.000177172
0.000150844
0.000183898
0.000180503
0.000175068
0.000174225
0.000175488
0.000166592
0.000169044
0.000165504
0.00015978
0.000174354
0.000173767
0.000169851
0.000156214
0.000158924
0.000170929
0.000173079
0.000163939
0.000174169
0.00015813
0.000149535
0.000155837
0.000174192
0.000173458
0.000176408
0.000178982
0.00016838
0.000157996
0.000175574
0.000159407
0.000172436
0.000169194
0.000179051
0.000178557
0.000171732
0.000174688
0.000188232
0.000184019
0.000168874
0.000203308
0.000205338
0.000161473
0.000191588
0.000185372
0.000187309
0.000202528
0.000202944
0.000184538
0.000205198
0.000202448
0.000175865
0.000187888
0.000186479
0.000202978
0.000201837
0.000186687
0.000188634
0.000181199
0.000204999
0.000210652
0.000208126
0.000218275
0.000193547
0.000195093
0.000203921
0.000204065
0.000206264
0.000205351
0.000203982
0.000218355
0.000207082
0.000188215
0.000180757
0.000203043
0.000205643
0.000205185
0.000180992
0.000177049
0.000159646
0.000199929
0.00021688
0.000176646
0.000184101
0.000190933
0.00016473
0.000198069
0.000197386
0.00017591
0.000176062
0.000200752
0.000184656
0.000180201
0.000176703
0.000159969
0.00019868
0.000176602
0.000179489
0.000163075
0.000158636
0.000158745
0.000172535
0.000176218
0.000168422
0.000167659
0.000161566
0.000155211
0.000172164
0.00017239
0.000168453
0.000169033
0.000176087
0.000167794
0.000171834
0.000158961
0.000159051
0.0001758
0.000169485
0.000172079
0.000161051
0.000160226
0.000174246
0.000167866
0.000166434
0.000184663
0.0001782
0.000155563
0.000168958
0.000168329
0.000168683
0.000185404
0.000184942
0.000170605
0.000177712
0.000182934
0.00016042
0.000173795
0.000171079
0.00018465
0.000183837
0.000172824
0.000176436
0.000183454
0.000190016
0.000184939
0.000200654
0.000199811
0.000171883
0.000183297
0.000190561
0.000190056
0.00020073
0.000200524
0.000187942
0.000199601
0.000198994
0.00017599
0.000183479
0.00018861
0.00020037
0.000199113
0.000182321
0.000183891
0.000184505
0.000202436
0.000202693
0.000204218
0.000206088
0.000184406
0.000186551
0.000202401
0.000202336
0.000203991
0.000204098
0.000201154
0.000206051
0.000203788
0.000184019
0.000184834
0.000201142
0.000204052
0.000203513
0.000184382
0.000184325
0.000182726
0.000204216
0.000206161
0.000202601
0.000204156
0.000186394
0.000183702
0.000203982
0.00020414
0.000202359
0.00020227
0.00020389
0.000204199
0.000202751
0.000184617
0.000182531
0.000203627
0.000202274
0.000202438
0.000182655
0.000182421
0.000181024
0.000201739
0.000202736
0.000199661
0.000199609
0.000183206
0.000180781
0.000201562
0.000201381
0.000199651
0.000199517
0.000201673
0.000199587
0.000199309
0.0001822
0.000180948
0.000201433
0.000199469
0.000199264
0.000180695
0.000180864
0.000180823
0.000199268
0.000199081
0.000198896
0.000198611
0.000180609
0.000180596
0.000199294
0.000199227
0.000198964
0.000199011
0.000198949
0.000198595
0.000198603
0.000180803
0.000181016
0.000198948
0.000198982
0.000198653
0.000180809
0.000180841
0.00018239
0.000198864
0.000198619
0.00020074
0.00020089
0.000180702
0.000182613
0.000198947
0.000199177
0.000200767
0.000201074
0.000198929
0.00020104
0.000201396
0.00018113
0.000182662
0.000199072
0.000201237
0.000201437
0.000182897
0.000182598
0.000183882
0.000201423
0.000201584
0.000203129
0.000203136
0.000182817
0.000183871
0.000201428
0.000201623
0.000203106
0.00020295
0.000201994
0.000203168
0.000203145
0.000182793
0.00018372
0.000202009
0.000202985
0.000203125
0.000183815
0.000183935
0.000184602
0.000203529
0.000203491
0.000204284
0.000204198
0.000183894
0.000184518
0.000203505
0.000203291
0.000204283
0.00020411
0.000203391
0.000204176
0.000203985
0.000183751
0.000184448
0.000203368
0.000204088
0.000203983
0.000184342
0.00018459
0.000185285
0.000204499
0.000204396
0.0002053
0.000205156
0.000184497
0.000185183
0.000204511
0.000204382
0.00020534
0.000205307
0.000204215
0.000205166
0.000205148
0.000184471
0.000185298
0.000204226
0.000205317
0.000205188
0.000185202
0.000185308
0.000185978
0.000205598
0.000205482
0.000206366
0.000206397
0.000185228
0.000186005
0.000205639
0.000205634
0.00020639
0.000206461
0.000205532
0.000206475
0.000206591
0.000185339
0.00018604
0.000205571
0.00020654
0.000206614
0.000186107
0.000185971
0.000186621
0.000206609
0.000206672
0.00020742
0.000207391
0.000186001
0.00018664
0.000206627
0.000206705
0.000207421
0.000207354
0.00020687
0.000207442
0.000207453
0.000186024
0.000186616
0.000206886
0.000207405
0.000207455
0.000186662
0.000186603
0.000187184
0.0002077
0.000207624
0.00020829
0.000208212
0.000186601
0.000187122
0.000207702
0.000207585
0.000208303
0.000208216
0.000207618
0.000208209
0.000208118
0.000186575
0.000187125
0.000207619
0.000208214
0.000208129
0.000187065
0.00018711
0.000187567
0.000208433
0.000208394
0.000208859
0.000208914
0.000187069
0.000187597
0.000208452
0.000208421
0.00020888
0.000208962
0.00020832
0.000208968
0.000208929
0.000187085
0.000187624
0.000208337
0.000209015
0.00020895
0.000187578
0.000187518
0.000188073
0.000209085
0.000209113
0.000209744
0.000209697
0.000187541
0.000188063
0.000209102
0.000209143
0.000209757
0.000209706
0.000209138
0.000209736
0.000209731
0.000187565
0.00018807
0.000209154
0.000209744
0.000209742
0.000188073
0.000188028
0.000188529
0.000209955
0.000209884
0.000210455
0.000210398
0.000188
0.000188481
0.000209969
0.000209894
0.000210469
0.000210398
0.000209913
0.000210425
0.000210408
0.000188003
0.000188472
0.000209924
0.000210424
0.00021042
0.000188477
0.000188434
0.000188781
0.000210588
0.000210552
0.000210962
0.000210982
0.000188397
0.000188824
0.000210598
0.000210535
0.000210968
0.000210939
0.000210556
0.00021103
0.000210997
0.000188383
0.000188792
0.000210566
0.000210985
0.000211002
0.00018881
0.000188679
0.000189068
0.000211069
0.00021109
0.000211449
0.000211431
0.000188725
0.000189054
0.000211078
0.000211065
0.000211468
0.00021146
0.000211106
0.000211469
0.000211433
0.000188693
0.000189083
0.000211114
0.000211496
0.00021145
0.000189039
0.000188966
0.000189353
0.000211562
0.000211519
0.000211954
0.000211917
0.000188941
0.000189326
0.000211583
0.000211558
0.000211978
0.000211969
0.000211507
0.000211953
0.000211939
0.00018898
0.000189361
0.000211526
0.000212003
0.000211959
0.000189322
0.000189245
0.000189563
0.000212039
0.00021201
0.000212375
0.00021235
0.000189225
0.000189562
0.000212061
0.000212051
0.000212394
0.000212381
0.000212042
0.000212396
0.000212389
0.000189258
0.000189564
0.000212061
0.000212428
0.000212408
0.000189571
0.000189439
0.000189702
0.000212437
0.000212408
0.000212708
0.000212674
0.000189435
0.000189677
0.000212454
0.00021242
0.000212712
0.000212619
0.000212438
0.000212703
0.000212656
0.00018943
0.000189624
0.000212454
0.000212652
0.00021266
0.000189643
0.000189572
0.000189766
0.000212754
0.00021273
0.000212943
0.000212975
0.000189551
0.000189808
0.000212758
0.000212678
0.000212959
0.000212994
0.000212714
0.000213025
0.000212996
0.000189496
0.000189871
0.000212717
0.000213037
0.000213007
0.00018982
0.000189631
0.000189832
0.000212977
0.000213004
0.000213141
0.000213082
0.000189671
0.000189783
0.000212997
0.000213045
0.00021317
0.000213154
0.000213031
0.000213119
0.000213096
0.000189744
0.000189822
0.000213047
0.000213191
0.000213123
0.000189774
0.000189701
0.000189946
0.000213184
0.000213107
0.0002134
0.000213303
0.000189646
0.000189877
0.000213211
0.000213161
0.000213406
0.000213251
0.000213117
0.000213329
0.000213304
0.00018968
0.000189826
0.000213141
0.000213279
0.000213311
0.00018987
0.000189807
0.00018982
0.000213434
0.000213362
0.00021344
0.000213517
0.000189751
0.000189912
0.000213437
0.000213298
0.000213451
0.000213515
0.000213365
0.000213572
0.000213539
0.000189694
0.000189941
0.00021337
0.000213567
0.000213546
0.000189899
0.000189668
0.000189772
0.000213449
0.000213536
0.000213276
0.000213277
0.000189761
0.000189773
0.000213462
0.000213562
0.000213309
0.000213368
0.000213562
0.000213335
0.000213288
0.000189801
0.000189814
0.000213571
0.000213421
0.00021332
0.00018975
0.00018964
0.000192607
0.000213639
0.000213615
0.000214322
0.000214193
0.000189631
0.000192481
0.00021366
0.000213682
0.000214321
0.000214089
0.000213621
0.000214202
0.000214159
0.000189663
0.00019239
0.000213638
0.0002141
0.000214157
0.000192452
0.000194392
0.000214444
0.000214314
0.000194267
0.00021444
0.000214202
0.000234589
0.000234491
0.000234551
0.000214285
0.000194165
0.00021428
0.000234728
0.000234779
0.000234733
0.000234733
0.00023511
0.000234806
0.000234702
0.000234742
0.00023511
0.000234806
0.000234742
0.000234702
0.00023486
0.000233567
0.000233568
0.000104653
3.87587e-05
0.000129428
3.98342e-05
2.16907e-05
2.28368e-05
0.000104616
3.87547e-05
0.00012946
3.98309e-05
0.000233969
0.000233969
0.000233969
0.000232942
0.000232942
0.000232942
0.000232942
0.000206249
9.37608e-05
0.000233996
0.000231746
0.000222768
8.72446e-05
0.000233595
2.169e-05
2.28361e-05
0.000206248
0.000233996
9.37597e-05
0.000231747
0.000222768
0.000233595
8.72484e-05
4.78455e-05
4.78363e-05
0.000231405
4.39757e-05
4.39601e-05
7.25106e-05
4.24332e-05
8.13316e-05
4.37612e-05
2.47747e-05
2.54626e-05
7.24964e-05
4.24283e-05
8.13406e-05
4.37576e-05
0.000232529
0.000232529
0.000232529
0.000231061
0.000231061
0.00023106