/*--------------------------------*- C++ -*----------------------------------*\
| =========                 |                                                 |
| \\      /  F ield         | OpenFOAM: The Open Source CFD Toolbox           |
|  \\    /   O peration     | Version:                                        |
|   \\  /    A nd           | Website:  www.openfoam.com                      |
|    \\/     M anipulation  |                                                 |
\*---------------------------------------------------------------------------*/
FoamFile
{
    version     2.0;
    format      ascii;
    class       volScalarField;
    location    "700";
    object      p;
}
// * * * * * * * * * * * * * * * * * * * * * * * * * * * * * * * * * * * * * //

dimensions      [0 2 -2 0 0 0 0];


internalField   nonuniform List<scalar> 
172512
(
0.00360814
0.00360858
0.00360858
0.0036085
0.00354976
0.00355008
0.00355008
0.00355289
0.00349844
0.00349845
0.00349845
0.00350121
0.00344619
0.00344618
0.00344618
0.00344891
0.00339482
0.00339483
0.00339482
0.00339753
0.00334485
0.00334486
0.00334486
0.00334752
0.00329632
0.00329634
0.00329634
0.00329896
0.00324908
0.00324912
0.00324912
0.00325171
0.00320296
0.00320299
0.00320299
0.00320555
0.00315772
0.00315776
0.00315776
0.00316029
0.00311321
0.00311325
0.00311325
0.00311576
0.0030693
0.00306934
0.00306934
0.00307182
0.00302591
0.00302594
0.00302595
0.00302839
0.00298298
0.00298302
0.00298302
0.00298546
0.00294048
0.00294051
0.00294051
0.00294295
0.00289839
0.00289841
0.00289841
0.00290085
0.00285669
0.0028567
0.0028567
0.00285913
0.00281535
0.00281535
0.00281535
0.00281777
0.00277433
0.00277433
0.00277433
0.00277674
0.00273363
0.00273362
0.00273362
0.00273603
0.00269321
0.00269321
0.00269321
0.0026956
0.00265307
0.00265306
0.00265306
0.00265545
0.00261318
0.00261316
0.00261316
0.00261555
0.00257352
0.0025735
0.0025735
0.00257588
0.0025341
0.00253408
0.00253408
0.00253644
0.0024949
0.00249487
0.00249487
0.00249722
0.0024559
0.00245587
0.00245587
0.0024582
0.0024171
0.00241707
0.00241707
0.00241939
0.00237849
0.00237847
0.00237847
0.00238076
0.00234008
0.00234005
0.00234005
0.00234233
0.00230184
0.00230181
0.00230181
0.00230407
0.00226378
0.00226375
0.00226375
0.00226599
0.00222588
0.00222586
0.00222586
0.00222808
0.00218815
0.00218813
0.00218813
0.00219033
0.00215057
0.00215056
0.00215056
0.00215274
0.00211314
0.00211313
0.00211313
0.00211529
0.00207587
0.00207585
0.00207585
0.002078
0.00203873
0.00203871
0.00203871
0.00204084
0.00200173
0.00200171
0.00200171
0.00200382
0.00196486
0.00196483
0.00196483
0.00196693
0.00192811
0.00192807
0.00192807
0.00193017
0.00189148
0.00189144
0.00189144
0.00189352
0.00185496
0.00185491
0.00185491
0.00185698
0.00181854
0.00181849
0.00181849
0.00182055
0.00178223
0.00178216
0.00178216
0.00178422
0.00174601
0.00174594
0.00174594
0.00174798
0.00170987
0.0017098
0.0017098
0.00171184
0.00167382
0.00167374
0.00167374
0.00167577
0.00163784
0.00163775
0.00163775
0.00163978
0.00160194
0.00160185
0.00160185
0.00160387
0.00156609
0.001566
0.00156599
0.00156801
0.00153031
0.00153019
0.00153018
0.00153221
0.00149462
0.00149449
0.00149457
0.00149655
0.00145903
0.00145895
0.00145878
0.00146077
0.00142305
0.00142293
0.00142298
0.0014251
0.00138757
0.0013874
0.00138768
0.00138957
0.00135251
0.00135242
0.00135204
0.00135392
0.0013165
0.00131621
0.00131641
0.0013186
0.00128126
0.00128138
0.00128163
0.00128365
0.0012469
0.00124727
0.00124647
0.0012482
0.0012102
0.00120941
0.00120983
0.0012118
0.00117371
0.00117318
0.00117428
0.00117623
0.00114047
0.00114117
0.00114042
0.00114265
0.00110648
0.00110637
0.00110543
0.00110746
0.00106923
0.00106817
0.00106899
0.00107065
0.00103185
0.00103159
0.00103237
0.00103437
0.000996119
0.000996843
0.000996547
0.00099879
0.000961397
0.000961767
0.000961379
0.000963518
0.000927873
0.00092726
0.000927197
0.00092899
0.000893795
0.000893308
0.000893549
0.000895283
0.000858549
0.000858354
0.000858483
0.000860386
0.000822033
0.000822134
0.000822111
0.000824186
0.000785558
0.00078566
0.000785575
0.000787689
0.000749576
0.000749561
0.000749517
0.000751538
0.000714026
0.000713871
0.000713884
0.000715828
0.000678551
0.000678466
0.000678486
0.000680447
0.000643093
0.000643042
0.000643042
0.000645028
0.000607558
0.000607502
0.000607489
0.000609478
0.000571958
0.000571882
0.000571883
0.000573861
0.000536294
0.000536236
0.000536242
0.00053823
0.000500596
0.000500551
0.00050055
0.000502546
0.000464886
0.000464828
0.000464827
0.00046682
0.000429124
0.000429075
0.000429073
0.000431069
0.000393331
0.000393284
0.000393286
0.000395284
0.000357505
0.000357458
0.000357459
0.000359461
0.000321638
0.000321597
0.000321596
0.000323601
0.000285738
0.000285697
0.000285695
0.000287703
0.000249798
0.000249761
0.000249763
0.000251771
0.00021382
0.000213783
0.000213785
0.000215797
0.000177809
0.000177773
0.00017777
0.000179788
0.000141752
0.000141727
0.000141725
0.000143746
0.000105657
0.000105631
0.000105637
0.000107659
6.95467e-05
6.9506e-05
6.95004e-05
7.15434e-05
3.4136e-05
3.35136e-05
3.35111e-05
3.55095e-05
9.0362e-06
6.15334e-06
6.1612e-06
4.77377e-06
0.0036183
0.00361736
0.00361736
0.0036183
0.00361736
0.00361736
0.00361626
0.00361626
0.00361626
0.00361626
0.00361736
0.00361736
0.0036183
0.00361736
0.00361736
0.0036183
0.0036085
0.00355933
0.00360858
0.00360858
0.00356148
0.00356148
0.0036085
0.00355933
0.00360858
0.00360858
0.00356148
0.00356147
0.00360858
0.00356148
0.00356148
0.0036085
0.00355933
0.00360858
0.00356148
0.00356148
0.00355933
0.00355289
0.00350828
0.00355008
0.00355008
0.00351165
0.00351165
0.00355289
0.00350828
0.00355008
0.00355008
0.00351165
0.00351165
0.00355008
0.00351165
0.00351165
0.00355289
0.00350828
0.00355008
0.00351165
0.00351165
0.00350828
0.00350121
0.0034559
0.00349845
0.00349845
0.00345918
0.00345918
0.00350121
0.0034559
0.00349845
0.00349845
0.00345918
0.00345918
0.00349845
0.00345918
0.00345918
0.00350121
0.0034559
0.00349845
0.00345918
0.00345918
0.0034559
0.00344891
0.00340434
0.00344618
0.00344618
0.00340755
0.00340755
0.00344891
0.00340434
0.00344618
0.00344618
0.00340755
0.00340755
0.00344618
0.00340755
0.00340755
0.00344891
0.00340434
0.00344618
0.00340755
0.00340755
0.00340434
0.00339753
0.00335412
0.00339483
0.00339483
0.00335721
0.00335721
0.00339753
0.00335412
0.00339482
0.00339483
0.00335721
0.00335721
0.00339483
0.00335721
0.00335721
0.00339753
0.00335412
0.00339483
0.00335721
0.00335721
0.00335412
0.00334752
0.00330535
0.00334486
0.00334486
0.00330835
0.00330835
0.00334752
0.00330535
0.00334486
0.00334486
0.00330834
0.00330834
0.00334486
0.00330834
0.00330834
0.00334752
0.00330535
0.00334486
0.00330834
0.00330834
0.00330535
0.00329896
0.00325793
0.00329635
0.00329635
0.00326081
0.00326081
0.00329896
0.00325792
0.00329634
0.00329634
0.00326081
0.00326081
0.00329634
0.00326082
0.00326082
0.00329896
0.00325792
0.00329634
0.00326083
0.00326082
0.00325793
0.00325171
0.00321162
0.00324912
0.00324912
0.00321443
0.00321443
0.00325171
0.00321162
0.00324912
0.00324912
0.00321443
0.00321443
0.00324912
0.00321443
0.00321443
0.00325171
0.00321162
0.00324912
0.00321443
0.00321443
0.00321162
0.00320555
0.00316624
0.00320299
0.00320299
0.003169
0.003169
0.00320555
0.00316624
0.00320299
0.00320299
0.003169
0.003169
0.00320299
0.003169
0.003169
0.00320555
0.00316624
0.00320299
0.003169
0.003169
0.00316624
0.00316029
0.00312161
0.00315776
0.00315776
0.00312432
0.00312432
0.00316029
0.00312161
0.00315776
0.00315776
0.00312432
0.00312432
0.00315776
0.00312432
0.00312432
0.00316029
0.00312161
0.00315776
0.00312432
0.00312432
0.00312161
0.00311576
0.00307759
0.00311325
0.00311325
0.00308027
0.00308027
0.00311576
0.00307759
0.00311325
0.00311325
0.00308027
0.00308027
0.00311325
0.00308027
0.00308027
0.00311576
0.00307759
0.00311325
0.00308027
0.00308027
0.00307759
0.00307182
0.00303409
0.00306934
0.00306934
0.00303675
0.00303675
0.00307182
0.00303409
0.00306934
0.00306934
0.00303675
0.00303675
0.00306934
0.00303675
0.00303675
0.00307182
0.00303409
0.00306934
0.00303675
0.00303675
0.00303409
0.00302839
0.00299108
0.00302594
0.00302595
0.0029937
0.00299371
0.0030284
0.00299109
0.00302594
0.00302595
0.00299371
0.00299371
0.00302594
0.00299371
0.0029937
0.00302839
0.00299109
0.00302594
0.00299371
0.00299371
0.00299109
0.00298546
0.00294853
0.00298301
0.00298302
0.0029511
0.0029511
0.00298547
0.00294853
0.00298301
0.00298301
0.0029511
0.0029511
0.00298301
0.0029511
0.00295112
0.00298547
0.00294853
0.00298301
0.0029511
0.0029511
0.00294853
0.00294295
0.00290637
0.00294051
0.00294051
0.0029089
0.0029089
0.00294295
0.00290637
0.00294051
0.00294051
0.0029089
0.0029089
0.00294051
0.0029089
0.0029089
0.00294295
0.00290637
0.00294051
0.0029089
0.0029089
0.00290637
0.00290085
0.0028646
0.00289841
0.00289841
0.00286709
0.00286709
0.00290085
0.0028646
0.00289841
0.00289841
0.00286709
0.00286709
0.00289841
0.00286709
0.00286709
0.00290085
0.0028646
0.00289841
0.00286709
0.00286709
0.0028646
0.00285913
0.00282319
0.0028567
0.0028567
0.00282566
0.00282566
0.00285913
0.00282319
0.0028567
0.0028567
0.00282566
0.00282566
0.0028567
0.00282566
0.00282566
0.00285913
0.00282319
0.0028567
0.00282566
0.00282566
0.00282319
0.00281777
0.00278213
0.00281535
0.00281535
0.00278456
0.00278456
0.00281777
0.00278213
0.00281535
0.00281535
0.00278456
0.00278456
0.00281535
0.00278456
0.00278456
0.00281777
0.00278213
0.00281535
0.00278456
0.00278456
0.00278213
0.00277674
0.00274137
0.00277433
0.00277433
0.00274377
0.00274377
0.00277674
0.00274137
0.00277433
0.00277433
0.00274377
0.00274377
0.00277433
0.00274377
0.00274377
0.00277674
0.00274137
0.00277433
0.00274377
0.00274377
0.00274137
0.00273603
0.00270092
0.00273362
0.00273362
0.00270329
0.00270328
0.00273603
0.00270092
0.00273362
0.00273362
0.00270329
0.00270329
0.00273362
0.00270328
0.00270329
0.00273603
0.00270092
0.00273362
0.00270329
0.00270328
0.00270091
0.00269561
0.00266073
0.00269321
0.00269321
0.00266307
0.00266307
0.0026956
0.00266073
0.00269321
0.00269321
0.00266307
0.00266307
0.00269321
0.00266307
0.00266307
0.0026956
0.00266073
0.00269321
0.00266307
0.00266307
0.00266073
0.00265545
0.0026208
0.00265306
0.00265306
0.00262311
0.00262311
0.00265545
0.0026208
0.00265306
0.00265306
0.00262311
0.00262311
0.00265306
0.00262311
0.00262311
0.00265545
0.0026208
0.00265306
0.00262311
0.00262311
0.0026208
0.00261555
0.00258111
0.00261316
0.00261316
0.0025834
0.0025834
0.00261555
0.00258111
0.00261316
0.00261316
0.0025834
0.0025834
0.00261316
0.0025834
0.0025834
0.00261555
0.00258111
0.00261316
0.0025834
0.0025834
0.00258111
0.00257588
0.00254164
0.0025735
0.0025735
0.00254391
0.00254391
0.00257588
0.00254164
0.0025735
0.0025735
0.00254391
0.00254391
0.0025735
0.00254391
0.00254391
0.00257588
0.00254164
0.0025735
0.00254391
0.00254391
0.00254164
0.00253644
0.00250239
0.00253408
0.00253408
0.00250465
0.00250465
0.00253644
0.00250239
0.00253408
0.00253408
0.00250465
0.00250465
0.00253408
0.00250465
0.00250465
0.00253644
0.00250239
0.00253408
0.00250465
0.00250465
0.00250239
0.00249722
0.00246336
0.00249487
0.00249487
0.0024656
0.0024656
0.00249722
0.00246336
0.00249487
0.00249487
0.0024656
0.0024656
0.00249487
0.0024656
0.0024656
0.00249722
0.00246336
0.00249487
0.0024656
0.0024656
0.00246336
0.0024582
0.00242452
0.00245587
0.00245587
0.00242675
0.00242675
0.0024582
0.00242452
0.00245587
0.00245587
0.00242675
0.00242675
0.00245587
0.00242675
0.00242675
0.0024582
0.00242452
0.00245587
0.00242675
0.00242675
0.00242452
0.00241939
0.00238588
0.00241707
0.00241707
0.0023881
0.0023881
0.00241939
0.00238588
0.00241707
0.00241707
0.0023881
0.0023881
0.00241707
0.0023881
0.0023881
0.00241939
0.00238588
0.00241707
0.0023881
0.0023881
0.00238588
0.00238076
0.00234743
0.00237847
0.00237847
0.00234964
0.00234964
0.00238076
0.00234743
0.00237847
0.00237847
0.00234964
0.00234964
0.00237847
0.00234964
0.00234964
0.00238076
0.00234743
0.00237846
0.00234964
0.00234963
0.00234743
0.00234233
0.00230915
0.00234005
0.00234005
0.00231136
0.00231136
0.00234233
0.00230915
0.00234005
0.00234005
0.00231135
0.00231136
0.00234005
0.00231136
0.00231136
0.00234233
0.00230915
0.00234005
0.00231136
0.00231136
0.00230915
0.00230407
0.00227106
0.00230181
0.00230181
0.00227325
0.00227325
0.00230407
0.00227106
0.00230181
0.00230181
0.00227325
0.00227325
0.00230181
0.00227325
0.00227325
0.00230407
0.00227106
0.00230181
0.00227325
0.00227325
0.00227106
0.00226599
0.00223313
0.00226375
0.00226375
0.00223532
0.00223532
0.00226599
0.00223313
0.00226375
0.00226375
0.00223532
0.00223532
0.00226375
0.00223532
0.00223532
0.00226599
0.00223313
0.00226375
0.00223532
0.00223532
0.00223313
0.00222808
0.00219536
0.00222586
0.00222586
0.00219755
0.00219755
0.00222808
0.00219536
0.00222586
0.00222586
0.00219755
0.00219755
0.00222586
0.00219755
0.00219755
0.00222808
0.00219536
0.00222586
0.00219755
0.00219755
0.00219536
0.00219033
0.00215776
0.00218813
0.00218813
0.00215994
0.00215994
0.00219033
0.00215776
0.00218813
0.00218813
0.00215994
0.00215994
0.00218813
0.00215994
0.00215994
0.00219033
0.00215776
0.00218813
0.00215994
0.00215994
0.00215776
0.00215274
0.0021203
0.00215056
0.00215056
0.00212248
0.00212248
0.00215274
0.0021203
0.00215056
0.00215056
0.00212248
0.00212248
0.00215056
0.00212248
0.00212248
0.00215274
0.0021203
0.00215056
0.00212248
0.00212248
0.0021203
0.00211529
0.00208299
0.00211313
0.00211313
0.00208516
0.00208516
0.00211529
0.00208299
0.00211313
0.00211313
0.00208516
0.00208516
0.00211313
0.00208516
0.00208516
0.00211529
0.00208299
0.00211313
0.00208516
0.00208516
0.00208299
0.002078
0.00204583
0.00207585
0.00207585
0.00204799
0.00204799
0.002078
0.00204583
0.00207585
0.00207585
0.00204799
0.00204799
0.00207585
0.00204799
0.00204799
0.002078
0.00204583
0.00207585
0.00204799
0.00204799
0.00204583
0.00204084
0.0020088
0.00203871
0.00203871
0.00201095
0.00201095
0.00204084
0.0020088
0.00203871
0.00203871
0.00201095
0.00201095
0.00203871
0.00201095
0.00201095
0.00204084
0.0020088
0.00203871
0.00201095
0.00201095
0.0020088
0.00200382
0.0019719
0.00200171
0.00200171
0.00197404
0.00197404
0.00200382
0.0019719
0.00200171
0.00200171
0.00197404
0.00197404
0.00200171
0.00197404
0.00197404
0.00200382
0.0019719
0.00200171
0.00197404
0.00197404
0.0019719
0.00196693
0.00193512
0.00196483
0.00196483
0.00193725
0.00193725
0.00196693
0.00193512
0.00196483
0.00196483
0.00193725
0.00193725
0.00196483
0.00193725
0.00193725
0.00196693
0.00193512
0.00196483
0.00193725
0.00193725
0.00193512
0.00193017
0.00189846
0.00192808
0.00192807
0.00190059
0.00190059
0.00193017
0.00189846
0.00192808
0.00192807
0.00190059
0.00190059
0.00192807
0.00190059
0.00190059
0.00193017
0.00189846
0.00192807
0.00190059
0.00190059
0.00189846
0.00189352
0.00186192
0.00189144
0.00189144
0.00186403
0.00186403
0.00189352
0.00186192
0.00189144
0.00189144
0.00186403
0.00186403
0.00189144
0.00186403
0.00186403
0.00189352
0.00186192
0.00189144
0.00186403
0.00186403
0.00186192
0.00185698
0.00182548
0.00185491
0.00185491
0.00182758
0.00182758
0.00185698
0.00182548
0.00185491
0.00185491
0.00182758
0.00182758
0.00185491
0.00182758
0.00182758
0.00185698
0.00182548
0.00185491
0.00182758
0.00182758
0.00182548
0.00182055
0.00178914
0.00181849
0.00181849
0.00179124
0.00179124
0.00182055
0.00178914
0.00181849
0.00181849
0.00179123
0.00179124
0.00181849
0.00179124
0.00179124
0.00182055
0.00178914
0.00181849
0.00179124
0.00179123
0.00178914
0.00178422
0.00175289
0.00178216
0.00178216
0.00175498
0.00175498
0.00178422
0.00175289
0.00178216
0.00178216
0.00175498
0.00175498
0.00178216
0.00175498
0.00175499
0.00178422
0.00175289
0.00178216
0.00175498
0.00175498
0.00175289
0.00174798
0.00171674
0.00174594
0.00174594
0.00171882
0.00171882
0.00174798
0.00171674
0.00174594
0.00174594
0.00171882
0.00171882
0.00174594
0.00171882
0.00171882
0.00174798
0.00171674
0.00174594
0.00171882
0.00171882
0.00171674
0.00171184
0.00168067
0.0017098
0.0017098
0.00168274
0.00168274
0.00171184
0.00168067
0.00170979
0.0017098
0.00168275
0.00168275
0.0017098
0.00168274
0.00168274
0.00171184
0.00168067
0.0017098
0.00168275
0.00168274
0.00168067
0.00167577
0.00164467
0.00167374
0.00167374
0.00164674
0.00164674
0.00167577
0.00164467
0.00167374
0.00167374
0.00164674
0.00164674
0.00167374
0.00164674
0.00164675
0.00167577
0.00164467
0.00167374
0.00164674
0.00164675
0.00164467
0.00163978
0.00160875
0.00163776
0.00163775
0.00161082
0.00161082
0.00163978
0.00160876
0.00163776
0.00163775
0.00161082
0.00161082
0.00163776
0.00161082
0.00161081
0.00163978
0.00160875
0.00163776
0.00161082
0.00161081
0.00160875
0.00160386
0.00157289
0.00160184
0.00160185
0.00157495
0.00157495
0.00160387
0.0015729
0.00160184
0.00160185
0.00157495
0.00157495
0.00160185
0.00157496
0.00157495
0.00160387
0.00157289
0.00160184
0.00157496
0.00157496
0.00157289
0.00156801
0.00153708
0.00156599
0.001566
0.00153914
0.00153914
0.00156801
0.00153708
0.00156599
0.00156599
0.00153914
0.00153913
0.00156599
0.00153914
0.00153913
0.00156801
0.00153707
0.00156599
0.00153912
0.00153913
0.00153708
0.0015322
0.00150141
0.00153019
0.0015302
0.00150343
0.00150339
0.0015322
0.00150136
0.00153019
0.00153019
0.00150344
0.00150345
0.0015302
0.00150339
0.00150347
0.0015322
0.00150143
0.00153019
0.00150346
0.00150347
0.00150142
0.00149655
0.00146575
0.00149454
0.00149448
0.00146783
0.00146787
0.00149651
0.00146581
0.00149456
0.00149456
0.00146783
0.0014678
0.00149455
0.00146785
0.00146771
0.00149658
0.00146571
0.00149457
0.00146778
0.00146771
0.00146566
0.00146085
0.00142982
0.00145887
0.00145897
0.00143188
0.00143194
0.00146093
0.00142987
0.00145885
0.00145881
0.00143185
0.00143186
0.00145877
0.00143195
0.00143202
0.00146079
0.00142984
0.00145875
0.00143187
0.00143198
0.00142997
0.00142492
0.00139433
0.00142291
0.0014229
0.00139627
0.00139614
0.00142494
0.00139419
0.0014229
0.00142294
0.00139635
0.00139643
0.00142312
0.00139619
0.00139643
0.00142496
0.00139448
0.00142311
0.00139648
0.00139651
0.00139445
0.00138952
0.00135936
0.0013875
0.00138738
0.00136136
0.00136131
0.00138939
0.00135929
0.00138758
0.00138764
0.00136134
0.00136116
0.00138753
0.00136121
0.0013608
0.00138967
0.00135901
0.00138762
0.00136104
0.00136077
0.00135877
0.00135449
0.00132312
0.00135254
0.00135257
0.00132526
0.00132528
0.00135448
0.00132316
0.00135246
0.0013522
0.00132521
0.00132521
0.00135193
0.00132528
0.00132547
0.00135408
0.00132319
0.00135184
0.00132524
0.00132542
0.00132341
0.00131817
0.00128776
0.00131619
0.00131614
0.00128962
0.00128965
0.00131821
0.00128784
0.00131619
0.00131631
0.00128974
0.00129008
0.00131671
0.00128984
0.00129041
0.00131833
0.00128822
0.00131673
0.00129028
0.00129054
0.00128849
0.00128311
0.00125394
0.00128112
0.00128124
0.00125588
0.00125614
0.0012832
0.00125415
0.00128122
0.00128147
0.00125576
0.00125559
0.00128162
0.00125599
0.00125511
0.00128348
0.00125351
0.00128173
0.00125543
0.00125499
0.00125305
0.00124921
0.00121704
0.00124727
0.00124752
0.00121935
0.00121907
0.00124936
0.00121678
0.00124711
0.00124675
0.00121931
0.00121909
0.00124621
0.00121896
0.00121908
0.00124861
0.00121689
0.00124605
0.00121897
0.00121904
0.00121686
0.00121182
0.0011802
0.00120976
0.00120939
0.00118202
0.00118152
0.00121156
0.00117971
0.0012098
0.00120983
0.00118227
0.0011827
0.00120993
0.00118174
0.00118282
0.00121186
0.00118089
0.00120997
0.00118294
0.0011831
0.00118101
0.00117552
0.00114723
0.00117341
0.00117298
0.00114896
0.00114936
0.0011751
0.00114756
0.00117364
0.00117406
0.00114885
0.00114882
0.00117413
0.00114934
0.00114886
0.00117615
0.00114707
0.00117437
0.00114883
0.00114875
0.00114717
0.00114278
0.00111279
0.00114088
0.00114133
0.00111529
0.00111583
0.00114305
0.00111343
0.00114065
0.00114049
0.00111497
0.00111462
0.00114055
0.00111571
0.00111483
0.0011425
0.00111228
0.00114035
0.00111446
0.00111456
0.00111245
0.00110773
0.00107568
0.00110606
0.00110646
0.00107788
0.0010775
0.00110823
0.00107528
0.00110584
0.00110553
0.00107808
0.0010781
0.00110578
0.00107744
0.00107796
0.00110731
0.00107589
0.00110555
0.00107813
0.00107818
0.00107576
0.00107054
0.00103926
0.00106859
0.00106817
0.00104099
0.00104061
0.0010702
0.00103861
0.00106883
0.00106894
0.00104119
0.00104138
0.00106873
0.00104062
0.00104108
0.00107081
0.00103952
0.00106898
0.00104143
0.0010413
0.0010393
0.00103437
0.00100385
0.00103203
0.0010316
0.00100563
0.00100564
0.00103372
0.00100387
0.0010322
0.00103235
0.0010056
0.00100556
0.00103202
0.00100557
0.00100543
0.00103458
0.00100374
0.00103222
0.00100552
0.00100542
0.00100368
0.000998952
0.000968367
0.000996766
0.000996898
0.000970296
0.000970444
0.000999017
0.000968612
0.000996674
0.000996595
0.000970138
0.000970045
0.000996591
0.000970431
0.000970213
0.000998815
0.000968188
0.000996499
0.000970027
0.000970047
0.000968303
0.000963536
0.000933482
0.000961608
0.000961752
0.000935612
0.000935795
0.000963846
0.000933662
0.000961454
0.000961389
0.000935586
0.000935563
0.000961588
0.000935868
0.00093582
0.000963385
0.000933508
0.000961435
0.000935631
0.000935788
0.000933661
0.00092881
0.000899904
0.000927104
0.000927193
0.000901889
0.000901808
0.000928947
0.000899788
0.000927129
0.00092713
0.000901975
0.000902021
0.000927313
0.000901823
0.000901977
0.00092886
0.000899999
0.000927336
0.000902038
0.000902069
0.00089997
0.000895238
0.000865376
0.00089342
0.000893307
0.000867383
0.000867277
0.000895112
0.000865245
0.000893499
0.000893545
0.000867426
0.000867442
0.000893455
0.000867253
0.000867316
0.000895326
0.000865399
0.00089354
0.000867424
0.000867361
0.000865314
0.000860453
0.000829256
0.000858468
0.000858379
0.000831261
0.000831251
0.000860326
0.00082925
0.000858501
0.000858505
0.00083126
0.000831266
0.000858389
0.000831237
0.000831207
0.000860466
0.00082925
0.000858421
0.000831251
0.0008312
0.000829218
0.000824211
0.000792684
0.000822123
0.000822143
0.000794705
0.000794758
0.000824217
0.000792746
0.000822112
0.000822119
0.000794678
0.000794671
0.000822096
0.000794765
0.000794733
0.000824203
0.000792665
0.000822085
0.000794679
0.000794707
0.000792711
0.000787661
0.000756499
0.000785603
0.00078565
0.00075851
0.000758534
0.000787721
0.000756529
0.000785575
0.000785565
0.000758492
0.000758477
0.000785633
0.000758538
0.000758524
0.000787642
0.000756474
0.000785606
0.000758486
0.000758506
0.000756498
0.000751552
0.00072077
0.000749549
0.000749564
0.000722785
0.000722768
0.000751573
0.000720746
0.000749539
0.00074952
0.000722789
0.000722769
0.000749535
0.000722753
0.000722733
0.000751523
0.000720751
0.000749528
0.000722754
0.000722737
0.000720724
0.000715869
0.000685317
0.000713902
0.000713884
0.000687312
0.000687308
0.000715844
0.000685313
0.000713909
0.000713896
0.00068732
0.000687331
0.000713857
0.00068731
0.000687317
0.000715855
0.000685335
0.000713865
0.000687333
0.000687325
0.000685328
0.000680431
0.000649905
0.00067846
0.00067846
0.000651898
0.000651901
0.00068043
0.000649912
0.000678466
0.00067848
0.000651898
0.000651906
0.000678476
0.000651907
0.000651919
0.00068045
0.000649915
0.000678483
0.000651913
0.00065192
0.000649925
0.000645008
0.000614386
0.000643032
0.000643037
0.000616389
0.000616397
0.000645016
0.000614396
0.000643031
0.000643036
0.000616385
0.000616384
0.000643052
0.000616398
0.000616398
0.000645016
0.000614384
0.000643051
0.000616386
0.000616394
0.000614392
0.000609474
0.0005788
0.000607496
0.000607502
0.000580802
0.000580795
0.000609482
0.000578789
0.000607492
0.000607489
0.000580801
0.000580793
0.000607498
0.000580788
0.000580781
0.00060947
0.000578789
0.000607494
0.000580787
0.00058078
0.000578778
0.000573881
0.000543148
0.000571897
0.000571888
0.000545151
0.000545151
0.00057387
0.00054315
0.000571897
0.00057189
0.000545153
0.000545157
0.000571875
0.000545151
0.000545152
0.00057387
0.000543155
0.000571875
0.000545157
0.000545154
0.000543153
0.00053822
0.000507469
0.00053623
0.000536234
0.000509469
0.000509472
0.000538224
0.000507472
0.000536232
0.000536239
0.000509469
0.000509473
0.00053624
0.000509476
0.000509481
0.000538229
0.000507472
0.000536242
0.000509477
0.000509482
0.000507477
0.00050254
0.000471763
0.000500549
0.000500549
0.000473768
0.000473764
0.000502542
0.000471759
0.000500548
0.000500548
0.000473767
0.000473762
0.000500555
0.000473761
0.00047376
0.000502541
0.000471757
0.000500554
0.000473759
0.00047376
0.000471755
0.000466825
0.000436007
0.000464833
0.00046483
0.000438013
0.000438016
0.000466822
0.00043601
0.000464832
0.000464829
0.000438013
0.000438015
0.000464826
0.000438015
0.000438013
0.000466821
0.000436009
0.000464826
0.000438015
0.000438013
0.000436008
0.000431066
0.000400229
0.000429071
0.000429074
0.000402235
0.000402235
0.000431069
0.000400229
0.000429071
0.000429073
0.000402235
0.000402235
0.000429073
0.000402235
0.000402236
0.000431068
0.00040023
0.000429073
0.000402236
0.000402236
0.00040023
0.000395283
0.000364414
0.000393285
0.000393284
0.00036642
0.000366418
0.000395282
0.000364411
0.000393285
0.000393286
0.00036642
0.00036642
0.000393286
0.000366417
0.000366418
0.000395285
0.000364412
0.000393286
0.000366419
0.000366418
0.000364411
0.000359463
0.000328555
0.000357461
0.000357459
0.000330564
0.000330565
0.000359461
0.000328557
0.000357461
0.00035746
0.000330563
0.000330564
0.000357459
0.000330565
0.000330566
0.000359461
0.000328556
0.000357459
0.000330564
0.000330565
0.000328557
0.000323599
0.000292663
0.000321595
0.000321596
0.000294674
0.000294674
0.000323601
0.000292664
0.000321594
0.000321595
0.000294673
0.000294672
0.000321597
0.000294674
0.000294673
0.000323599
0.000292661
0.000321596
0.000294672
0.000294673
0.000292662
0.000287703
0.000256736
0.000285697
0.000285697
0.000258747
0.000258747
0.000287703
0.000256737
0.000285697
0.000285695
0.000258747
0.000258748
0.000285696
0.000258747
0.000258748
0.000287701
0.000256738
0.000285696
0.000258748
0.000258748
0.000256736
0.000251769
0.000220768
0.00024976
0.00024976
0.000222779
0.000222779
0.00025177
0.000220767
0.00024976
0.000249763
0.00022278
0.000222782
0.000249761
0.000222779
0.000222779
0.000251772
0.000220769
0.000249761
0.000222782
0.00022278
0.000220767
0.000215797
0.000184766
0.000213785
0.000213783
0.00018678
0.000186777
0.000215796
0.000184764
0.000213785
0.000213785
0.00018678
0.000186776
0.000213784
0.000186776
0.000186777
0.000215797
0.000184762
0.000213784
0.000186775
0.000186777
0.000184763
0.00017979
0.000148722
0.000177776
0.000177774
0.000150737
0.00015074
0.000179789
0.000148726
0.000177775
0.000177772
0.000150735
0.000150737
0.000177774
0.000150741
0.000150739
0.000179787
0.000148724
0.000177773
0.000150738
0.000150738
0.000148725
0.000143742
0.000112634
0.000141722
0.000141726
0.000114653
0.000114655
0.000143746
0.000112636
0.000141721
0.000141724
0.000114655
0.000114661
0.000141726
0.000114656
0.000114658
0.000143745
0.000112641
0.000141725
0.000114661
0.000114659
0.000112638
0.000107656
7.65125e-05
0.000105631
0.00010563
7.85459e-05
7.85407e-05
0.000107656
7.65067e-05
0.000105633
0.000105636
7.85452e-05
7.85382e-05
0.000105633
7.85386e-05
7.85378e-05
0.000107661
7.65028e-05
0.000105635
7.85365e-05
7.85376e-05
7.6503e-05
7.15512e-05
4.032e-05
6.95135e-05
6.95088e-05
4.24256e-05
4.24268e-05
7.15471e-05
4.0321e-05
6.95113e-05
6.95026e-05
4.24236e-05
4.24204e-05
6.9504e-05
4.24266e-05
4.24232e-05
7.15422e-05
4.03163e-05
6.9502e-05
4.24204e-05
4.24215e-05
4.03186e-05
3.55075e-05
6.44117e-06
3.35101e-05
3.35113e-05
8.00088e-06
8.00603e-06
3.55078e-05
6.44589e-06
3.35093e-05
3.35091e-05
8.00313e-06
8.014e-06
3.35115e-05
8.00675e-06
8.01077e-06
3.55075e-05
6.45268e-06
3.35111e-05
8.0156e-06
8.01378e-06
6.45218e-06
4.76637e-06
6.14919e-06
6.15366e-06
4.77032e-06
6.15036e-06
6.16066e-06
9.03951e-06
9.04561e-06
9.04346e-06
6.15636e-06
4.77667e-06
6.15827e-06
0.00362617
0.00363636
0.00363089
0.00363089
0.00365343
0.00364036
0.0036686
0.0036343
0.00365343
0.00364036
0.0036343
0.00366859
0.00364488
0.00367232
0.00367232
0.00358035
0.00360431
0.0036092
0.00357076
0.00358105
0.00357291
0.00358033
0.00360434
0.00360919
0.00357074
0.00360813
0.00360814
0.00360813
0.00356116
0.00356116
0.00356116
0.00356116
0.00357813
0.00360528
0.00360793
0.0035857
0.00360791
0.00357562
0.0035866
0.00358111
0.00357289
0.00357813
0.00360793
0.00360529
0.0035857
0.00360791
0.0035866
0.00357562
0.00360997
0.00360998
0.00358083
0.003576
0.003576
0.00353538
0.00355492
0.0035559
0.00353386
0.00355361
0.00353339
0.00353538
0.00355494
0.0035559
0.00353385
0.00354976
0.00354976
0.00354976
0.00351172
0.00351172
0.00351172
0.00351172
0.00353398
0.00355465
0.00354991
0.00353779
0.00355342
0.00353433
0.00353768
0.00355362
0.00353339
0.00353398
0.00354991
0.00355465
0.00353779
0.00355342
0.00353768
0.00353433
0.00355582
0.00355583
0.00353434
0.00353478
0.00353478
0.0034829
0.00350172
0.00350278
0.00348189
0.00350134
0.0034816
0.0034829
0.00350172
0.00350278
0.00348189
0.00349844
0.00349844
0.00349844
0.00345917
0.00345917
0.00345917
0.00345917
0.00348199
0.00350205
0.00349838
0.00348531
0.00350156
0.00348231
0.00348524
0.00350134
0.0034816
0.00348199
0.00349838
0.00350205
0.00348531
0.00350156
0.00348523
0.00348231
0.00350233
0.00350233
0.00348204
0.00348241
0.00348241
0.00343039
0.00344903
0.00344989
0.00342962
0.00344882
0.00342944
0.00343039
0.00344903
0.00344989
0.00342962
0.00344619
0.00344619
0.00344619
0.00340755
0.00340755
0.00340755
0.00340755
0.00342988
0.00344941
0.00344615
0.00343324
0.00344917
0.00343004
0.00343321
0.00344882
0.00342944
0.00342988
0.00344615
0.00344941
0.00343324
0.00344917
0.00343321
0.00343004
0.00344946
0.00344946
0.00342998
0.00342999
0.00342999
0.00337918
0.00339755
0.00339817
0.00337864
0.00339739
0.00337849
0.00337918
0.00339755
0.00339817
0.00337864
0.00339482
0.00339482
0.00339482
0.0033572
0.0033572
0.0033572
0.0033572
0.00337891
0.00339788
0.0033948
0.00338219
0.00339773
0.00337901
0.00338217
0.00339739
0.00337849
0.00337891
0.0033948
0.00339788
0.00338219
0.00339773
0.00338217
0.00337901
0.00339787
0.00339787
0.00337904
0.00337892
0.00337892
0.00332954
0.0033475
0.00334794
0.00332915
0.00334737
0.00332903
0.00332954
0.0033475
0.00334794
0.00332915
0.00334485
0.00334485
0.00334485
0.00330832
0.00330832
0.00330832
0.00330832
0.00332942
0.00334779
0.00334483
0.0033326
0.00334768