/*--------------------------------*- C++ -*----------------------------------*\
| =========                 |                                                 |
| \\      /  F ield         | OpenFOAM: The Open Source CFD Toolbox           |
|  \\    /   O peration     | Version:  2312                                  |
|   \\  /    A nd           | Website:  www.openfoam.com                      |
|    \\/     M anipulation  |                                                 |
\*---------------------------------------------------------------------------*/
FoamFile
{
    version     2.0;
    format      ascii;
    arch        "LSB;label=32;scalar=64";
    class       volScalarField;
    location    "650";
    object      p;
}
// * * * * * * * * * * * * * * * * * * * * * * * * * * * * * * * * * * * * * //

dimensions      [0 2 -2 0 0 0 0];

internalField   nonuniform List<scalar> 
43168
(
0.000710851
0.000710799
0.000710799
0.000712375
0.000718023
0.000719634
0.000719634
0.000718022
0.000719634
0.000719634
0.000719634
0.000719634
0.000718023
0.000719634
0.000719634
0.000718023
0.000712375
0.000710799
0.000710799
0.000712374
0.000710799
0.000710799
0.000710799
0.000712375
0.000710799
0.000735139
0.000735139
0.000719687
0.000719687
0.000719687
0.000719687
0.000699801
0.000712943
0.00071293
0.000699803
0.00071295
0.000699802
0.000699801
0.000712943
0.00071293
0.000699804
0.000710851
0.000710851
0.000710851
0.000699883
0.000712895
0.000710819
0.000701962
0.000712846
0.000699839
0.000701982
0.00071295
0.000699802
0.000699882
0.000710819
0.000712895
0.000701962
0.000712846
0.000701981
0.000699839
0.000712942
0.000712942
0.00070035
0.000699797
0.000699797
0.000735138
0.000735138
0.000735689
0.000735133
0.000735132
0.000717473
0.000730616
0.000717473
0.000730616
0.000730043
0.000717468
0.000717468
0.000730608
0.000730608
0.0007373
0.000735175
0.000730597
0.000717474
0.000730609
0.000717472
0.000730597
0.000717474
0.000730609
0.000717472
0.000730513
0.000728468
0.00071751
0.000719654
0.000730562
0.000728488
0.000717554
0.000730513
0.000728468
0.00071751
0.000719654
0.000730561
0.000728488
0.000717554
0.000717473
0.000730616
0.000730041
0.000717468
0.000717468
0.000730608
0.000717474
0.0007373
0.000735175
0.000730597
0.000717474
0.000730609
0.000717472
0.000730513
0.000728468
0.00071751
0.000719654
0.000730562
0.000728488
0.000717554
0.000730597
0.000717474
0.000730609
0.000717472
0.000730513
0.000728468
0.000719654
0.000717509
0.000728488
0.000730562
0.000717554
0.00071751
0.000719653
0.000717554
0.000717474
0.000717472
0.000719654
0.000717509
0.000717554
0.000717474
0.000717472
0.000717473
0.000730616
0.000730043
0.000717467
0.000717468
0.000730609
0.000730608
0.000717473
0.000730616
0.000730512
0.000728468
0.000719655
0.00071751
0.000728489
0.000730561
0.000717554
0.000730512
0.000728468
0.000719654
0.00071751
0.000728488
0.000730562
0.000717554
0.000730596
0.000717474
0.000730609
0.000717473
0.000730596
0.000717474
0.000730609
0.000717473
0.000730041
0.000717468
0.000717468
0.000730608
0.000717473
0.000717473
0.000730616
0.00071295
0.000699802
0.00071295
0.000699803
0.000712942
0.000712942
0.000700351
0.000699797
0.000699797
0.000695277
0.000695277
0.000694701
0.000695269
0.00069527
0.000699801
0.000712942
0.00071293
0.000699803
0.000699882
0.000712895
0.000710819
0.000701962
0.000712846
0.000699838
0.000701982
0.000699882
0.000712894
0.000710819
0.000701962
0.000712846
0.000699839
0.000701982
0.000695258
0.00069527
0.000695258
0.00069527
0.000695173
0.000693124
0.000695222
0.000693143
0.000695173
0.000693124
0.000695222
0.000693143
0.000712942
0.000712942
0.000700351
0.000699797
0.000699797
0.00071295
0.000699803
0.000695277
0.000694701
0.000695269
0.000695269
0.000695277
0.000699882
0.000712895
0.000710819
0.000701962
0.000712846
0.000699838
0.000701982
0.000699801
0.000712943
0.00071293
0.000699803
0.000699882
0.000710819
0.000712895
0.000701962
0.000712846
0.000701982
0.000699838
0.000695258
0.00069527
0.000695173
0.000693124
0.000695222
0.000693143
0.000695258
0.00069527
0.000695173
0.000693124
0.000693143
0.000695222
0.000699802
0.000712942
0.00071293
0.000699804
0.000699883
0.000710819
0.000712895
0.000701962
0.000712846
0.000701982
0.000699839
0.000699801
0.000712942
0.00071293
0.000699804
0.000695173
0.000693124
0.000695222
0.000693143
0.000695257
0.00069527
0.000695173
0.000693124
0.000693143
0.000695223
0.000695258
0.00069527
0.000712942
0.000712942
0.000700351
0.000699797
0.000699797
0.00071295
0.000699803
0.000695277
0.000694701
0.00069527
0.00069527
0.000695277
0.000699883
0.000710819
0.000712895
0.000701962
0.000712846
0.000701981
0.000699838
0.000699801
0.000712943
0.00071293
0.000699804
0.000699802
0.000712943
0.000712929
0.000699803
0.000695173
0.000693124
0.000693143
0.000695222
0.000695173
0.000693124
0.000693143
0.000695222
0.000695257
0.00069527
0.000695257
0.00069527
0.00071295
0.000699803
0.00071295
0.000699802
0.000694701
0.00069527
0.00069527
0.000695277
0.000695277
0.000739451
0.000735127
0.00073944
0.000739444
0.000735135
0.00073944
0.000704117
0.000704095
0.000699795
0.0006998
0.000704115
0.000704098
0.000699795
0.000708636
0.000712947
0.00070864
0.000712954
0.000708627
0.000708632
0.000708637
0.000712951
0.000712934
0.000712953
0.000708632
0.000708636
0.000704119
0.000699791
0.000704107
0.000704111
0.000699799
0.000708638
0.000704114
0.000704117
0.000704095
0.0006998
0.000699795
0.000704098
0.000704115
0.000699796
0.000708636
0.000712947
0.00070864
0.000712954
0.000708627
0.000708632
0.000708637
0.000712934
0.000712951
0.000712953
0.000708636
0.000708632
0.000704119
0.000699791
0.000704107
0.000704111
0.0006998
0.000708639
0.000704114
0.000704121
0.000699798
0.000699798
0.000704124
0.000704124
0.000699788
0.000708656
0.000712885
0.000712945
0.000708633
0.000712918
0.000708686
0.000708641
0.000708656
0.000712885
0.000712945
0.000708633
0.000712919
0.000708686
0.000708641
0.000708625
0.00071296
0.00071296
0.000712956
0.000708634
0.000708634
0.000704083
0.000699805
0.000704107
0.000699849
0.000704049
0.00070411
0.00069982
0.000704083
0.000699805
0.000704107
0.000699849
0.000704049
0.00070411
0.000699819
0.000739447
0.000739447
0.000739453
0.000735133
0.000735134
0.000739457
0.000739457
0.000735124
0.000739416
0.000735141
0.000739439
0.000735186
0.000739442
0.000735156
0.000739382
0.000739416
0.000735141
0.000739439
0.000735186
0.000739443
0.000735156
0.000739382
0.000721784
0.000726306
0.000721784
0.000726307
0.000726293
0.000730626
0.000730626
0.000730622
0.000726302
0.000726302
0.000721752
0.000717521
0.000721776
0.000717476
0.000721779
0.000721718
0.000717491
0.000721752
0.000717521
0.000721776
0.000717476
0.000721779
0.000721719
0.000717491
0.000726324
0.000730612
0.000730551
0.000726301
0.000730585
0.000726309
0.000726354
0.000726324
0.000730612
0.000730551
0.000726301
0.000730585
0.000726309
0.000726354
0.00072179
0.000717469
0.000717469
0.000721794
0.000721794
0.000717459
0.0007263
0.000730617
0.0007306
0.000726305
0.000730619
0.000726299
0.000726304
0.000721788
0.000721777
0.000717462
0.00071747
0.000721781
0.000726304
0.000730613
0.000726307
0.000730621
0.000726295
0.000721787
0.000721764
0.000717466
0.000717471
0.000717466
0.000721785
0.000721768
0.000726299
0.000730617
0.0007306
0.000726305
0.000730619
0.000726299
0.000726304
0.000721788
0.000721776
0.000717461
0.000721781
0.00071747
0.000726303
0.000730613
0.000726307
0.000730621
0.000726295
0.000721787
0.000721764
0.000717466
0.00071747
0.000721785
0.000721767
0.000717466
0.000721784
0.000726306
0.000721752
0.00071752
0.000721775
0.000717476
0.000721719
0.000721779
0.000717491
0.000721752
0.00071752
0.000721776
0.000717476
0.000721779
0.000721718
0.000717491
0.000730551
0.000726301
0.000726354
0.00072179
0.000717469
0.000717468
0.000721793
0.000721793
0.00071746
0.000721784
0.0007263
0.0007306
0.000730617
0.000726305
0.000730619
0.000726304
0.000726299
0.000721788
0.000721777
0.000717462
0.00071747
0.000721781
0.000726304
0.000730613
0.000726308
0.000730621
0.000726295
0.000721786
0.000721764
0.000717471
0.000717466
0.000717466
0.000721768
0.000721785
0.0007263
0.000730617
0.0007306
0.000726305
0.000730619
0.000726299
0.000726304
0.000721788
0.000721776
0.000717461
0.000721781
0.00071747
0.000726304
0.000730613
0.000726307
0.000730621
0.000726295
0.000721787
0.000721764
0.000717466
0.000717471
0.000721785
0.000721768
0.000717466
0.000721788
0.000721776
0.000717462
0.00072178
0.00071747
0.000721786
0.000721764
0.000717471
0.000717466
0.000721766
0.000721784
0.000717466
0.000721788
0.000721776
0.000717461
0.00072178
0.00071747
0.000721786
0.000721764
0.000717466
0.00071747
0.000721784
0.000721767
0.000717466
0.000721784
0.000726306
0.000726293
0.000730626
0.000730626
0.000730623
0.000726302
0.000726302
0.000721753
0.00071752
0.000721776
0.000717476
0.000721719
0.000721779
0.000717491
0.000721753
0.000717521
0.000721776
0.000717476
0.000721779
0.000721719
0.000717491
0.000726324
0.000730612
0.000730552
0.000726301
0.000726353
0.000730585
0.000726309
0.000726324
0.000730612
0.000730551
0.000726301
0.000730585
0.000726309
0.000726354
0.00072179
0.000717469
0.000717469
0.000721794
0.000721794
0.000717459
0.000721784
0.000726306
0.0007263
0.0007306
0.000730617
0.000726306
0.000730619
0.000726304
0.0007263
0.000721788
0.000721777
0.000717462
0.000721781
0.00071747
0.000726304
0.000730613
0.000726307
0.00073062
0.000726295
0.000721787
0.000721764
0.000717471
0.000717466
0.000721768
0.000721785
0.000717466
0.000726299
0.000730599
0.000730617
0.000726306
0.000730619
0.000726304
0.000726299
0.000721788
0.000721776
0.000717462
0.000721781
0.000717471
0.000726304
0.000730613
0.000726308
0.000730621
0.000726295
0.000721786
0.000721763
0.000717471
0.000717466
0.000721767
0.000721785
0.000717467
0.000726292
0.000726302
0.000726302
0.000721752
0.00071752
0.000721776
0.000717476
0.000717491
0.000721719
0.000721779
0.000721753
0.000717521
0.000721776
0.000717476
0.000717491
0.000721719
0.000721779
0.000726324
0.000726301
0.000726354
0.000726309
0.000726324
0.000730551
0.000726301
0.000726353
0.000726309
0.00072179
0.000717469
0.000717469
0.000717459
0.000721793
0.000721794
0.000721784
0.000726306
0.000721784
0.000726306
0.000708639
0.000704114
0.000708639
0.000704114
0.000704121
0.000699798
0.000699798
0.000704124
0.000704124
0.000699788
0.000708656
0.000712885
0.000712945
0.000708633
0.000712918
0.000708641
0.000708686
0.000708656
0.000712885
0.000712945
0.000708633
0.000712918
0.000708641
0.000708686
0.000708625
0.00071296
0.00071296
0.000712956
0.000708634
0.000708634
0.000704083
0.000699805
0.000704106
0.000699849
0.00070411
0.00069982
0.000704049
0.000704083
0.000699805
0.000704107
0.000699849
0.00070411
0.00069982
0.000704049
0.000690965
0.000690965
0.000690951
0.000695287
0.000695287
0.000695284
0.00069096
0.00069096
0.000690982
0.000695273
0.000695212
0.000690959
0.000695246
0.000690967
0.000691011
0.000690982
0.000695273
0.000695212
0.000690959
0.000695246
0.000690967
0.000691011
0.000704117
0.000704095
0.000699795
0.000699799
0.000704115
0.000704098
0.000699795
0.000708635
0.000712946
0.000708639
0.000712954
0.000708627
0.000708631
0.000708637
0.00071295
0.000712933
0.000708631
0.000712953
0.000708636
0.000704119
0.00069979
0.000704107
0.000704111
0.000699799
0.000690958
0.000695278
0.000695261
0.000690963
0.00069528
0.000690957
0.000690962
0.000690962
0.000695274
0.000690965
0.000695282
0.000690953
0.000690958
0.000695278
0.000695261
0.000690963
0.00069528
0.000690957
0.000690962
0.000690962
0.000695274
0.000690966
0.000695282
0.000690953
0.000704121
0.000699798
0.000699798
0.000704124
0.000704124
0.000699788
0.000708656
0.000712884
0.000712945
0.000708633
0.000708641
0.000712918
0.000708686
0.000708656
0.000712884
0.000712945
0.000708633
0.000708686
0.000712918
0.000708641
0.000708625
0.000712959
0.000712959
0.000708634
0.000712956
0.000708634
0.000704083
0.000699805
0.000704106
0.000699849
0.00070411
0.000704049
0.00069982
0.000704083
0.000699805
0.000704107
0.00069985
0.000704049
0.00070411
0.00069982
0.000708639
0.000704114
0.000690964
0.000690951
0.000695287
0.000695287
0.000695283
0.00069096
0.00069096
0.000690982
0.000695273
0.000695211
0.000690959
0.000691011
0.000695246
0.000690967
0.000690982
0.000695273
0.000695211
0.000690959
0.000695245
0.000690967
0.000691011
0.000690965
0.000704117
0.000704095
0.000699795
0.0006998
0.000704115
0.000704098
0.000699795
0.000708636
0.000712947
0.00070864
0.000712954
0.000708627
0.000708632
0.000708637
0.00071295
0.000712934
0.000708632
0.000712953
0.000708636
0.000704119
0.00069979
0.000704107
0.000704111
0.000699799
0.000690958
0.000695261
0.000695278
0.000690963
0.00069528
0.000690962
0.000690958
0.000690962
0.000695274
0.000690966
0.000695282
0.000690953
0.000690958
0.000695278
0.000695261
0.000690963
0.00069528
0.000690958
0.000690962
0.000690962
0.000695274
0.000690965
0.000695282
0.000690953
0.000704117
0.000704094
0.000699801
0.000699796
0.000704097
0.000704115
0.000699796
0.000708636
0.000712946
0.00070864
0.000708627
0.000712954
0.000708632
0.000708638
0.000712933
0.00071295
0.000708637
0.000712952
0.000708632
0.000704119
0.000699791
0.000704107
0.000704111
0.000699799
0.000704117
0.000704095
0.000699795
0.0006998
0.000704115
0.000704098
0.000699796
0.000708636
0.000712947
0.00070864
0.000712954
0.000708627
0.000708632
0.000708637
0.000712951
0.000712933
0.000712953
0.000708632
0.000708636
0.000704119
0.000699791
0.000704107
0.000704111
0.0006998
0.000690958
0.00069526
0.000695278
0.000690964
0.00069528
0.000690963
0.000690958
0.000690962
0.000695274
0.000690966
0.000695282
0.000690953
0.000690958
0.000695278
0.000695261
0.000690963
0.00069528
0.000690958
0.000690962
0.000690962
0.000695274
0.000690966
0.000695282
0.000690953
0.000704121
0.000699798
0.000699798
0.000704124
0.000704124
0.000699788
0.000708656
0.000712885
0.000712946
0.000708633
0.000708641
0.000712919
0.000708685
0.000708656
0.000712885
0.000712946
0.000708633
0.000708686
0.000712919
0.000708641
0.000708625
0.00071296
0.00071296
0.000708634
0.000712956
0.000708634
0.000704083
0.000699805
0.000704107
0.000699849
0.00070411
0.00070405
0.000699819
0.000704083
0.000699805
0.000704107
0.000699849
0.000704049
0.00070411
0.00069982
0.000708639
0.000704114
0.000690964
0.000690951
0.000695287
0.000695287
0.000695284
0.00069096
0.00069096
0.000690981
0.000695273
0.000695212
0.000690959
0.000691011
0.000695246
0.000690967
0.000690982
0.000695273
0.000695212
0.000690959
0.000695246
0.000690967
0.000691011
0.000690965
0.000704117
0.000704095
0.0006998
0.000699796
0.000704098
0.000704115
0.000699796
0.000708636
0.000712947
0.00070864
0.000708627
0.000712954
0.000708632
0.000708638
0.000712934
0.000712951
0.000708636
0.000712953
0.000708632
0.000704119
0.000699791
0.000704107
0.000704112
0.0006998
0.000704117
0.000704094
0.0006998
0.000699796
0.000704098
0.000704115
0.000699796
0.000708636
0.000712947
0.00070864
0.000712954
0.000708627
0.000708632
0.000708638
0.000712933
0.000712951
0.000712953
0.000708636
0.000708632
0.000704119
0.000699791
0.000704107
0.000704111
0.0006998
0.000690958
0.000695261
0.000695278
0.000690963
0.00069528
0.000690962
0.000690958
0.000690962
0.000695274
0.000690966
0.000695282
0.000690953
0.000690958
0.00069526
0.000695278
0.000690964
0.00069528
0.000690962
0.000690958
0.000690962
0.000695274
0.000690966
0.000695282
0.000690953
0.000708639
0.000704114
0.000708639
0.000704114
0.00069095
0.000695287
0.000695287
0.000695284
0.00069096
0.00069096
0.000690982
0.000695273
0.000695212
0.000690959
0.000695246
0.000691011
0.000690967
0.000690982
0.000695273
0.000695212
0.000690959
0.000695246
0.000691011
0.000690967
0.000690965
0.000690965
0.000737354
0.000710883
0.000710883
0.000702013
0.000702045
0.000702045
0.00070209
0.000710928
0.000708757
0.000712654
0.000712655
0.000709187
0.000712817
0.00070893
0.000708929
0.00072165
0.000721209
0.000717765
0.000717765
0.000721488
0.000721489
0.000717592
0.000721649
0.000721208
0.000717765
0.000717764
0.000721489
0.000721486
0.000717592
0.000721651
0.00072121
0.000717765
0.000717765
0.000721488
0.000721489
0.000717592
0.000721651
0.00072121
0.000717765
0.000717765
0.000717592
0.000721489
0.000721489
0.000708757
0.000712654
0.000712655
0.000709188
0.000712816
0.00070893
0.000708929
0.000708757
0.000712654
0.000712654
0.000709188
0.00070893
0.000712816
0.00070893
0.000708757
0.000712654
0.000712655
0.000709188
0.00070893
0.000712817
0.00070893
0.000728521
0.000719719
0.000719719
0.000728554
0.000728554
0.000728601
0.000719765
0.000728521
0.000719719
0.000719719
0.000728554
0.000728552
0.000728601
0.000719765
0.000728522
0.000719719
0.00071972
0.000728554
0.000728555
0.000728601
0.000719765
0.000728521
0.000719719
0.000719719
0.000728552
0.000728554
0.000728601
0.000719765
0.000710883
0.000710883
0.000702013
0.000702045
0.000702045
0.00070209
0.000710928
0.000710883
0.000710883
0.000702013
0.000702045
0.000702045
0.00070209
0.000710928
0.000710883
0.000710883
0.000702013
0.000702045
0.000702045
0.00070209
0.000710928
0.000693174
0.000693205
0.000693206
0.00069325
0.000693174
0.000693205
0.000693206
0.00069325
0.000693174
0.000693206
0.000693205
0.00069325
0.000693174
0.000693206
0.000693205
0.00069325
0.000703778
0.00070401
0.00069988
0.000700118
0.000704015
0.00070378
0.000700123
0.000708921
0.000712746
0.000712865
0.000708675
0.000712642
0.000708836
0.000708701
0.000708959
0.000708719
0.00071285
0.000712616
0.000712614
0.000708716
0.000708954
0.000703806
0.000699865
0.000704059
0.000699999
0.00070391
0.000704029
0.000700084
0.000703778
0.00070401
0.000700118
0.000699879
0.00070378
0.000704015
0.000700123
0.00070892
0.000712746
0.000712866
0.000708675
0.000712642
0.000708836
0.000708701
0.00070896
0.000708719
0.000712616
0.000712851
0.000712614
0.000708954
0.000708716
0.000703806
0.000699864
0.00070406
0.000699999
0.000703911
0.00070403
0.000700084
0.000703981
0.000703539
0.000700093
0.000700093
0.000703818
0.000703819
0.00069992
0.000739314
0.000738874
0.00073543
0.00073543
0.000735257
0.000739153
0.000739153
0.000726425
0.000726857
0.000730321
0.000730322
0.000730483
0.000726599
0.000726598
0.00073914
0.000735202
0.000739392
0.000735336
0.000739363
0.000739244
0.000735422
0.000726628
0.000730517
0.000730283
0.000726387
0.000730281
0.000726384
0.000726623
0.000721476
0.00071767
0.000721729
0.000717536
0.000721581
0.000721699
0.000717755
0.000726589
0.000730532
0.000730413
0.000726343
0.000726504
0.000730309
0.000726369
0.000721448
0.00072168
0.000717551
0.00071779
0.000721685
0.00072145
0.000717795
0.000726629
0.000730517
0.000730283
0.000726387
0.000730281
0.000726384
0.000726623
0.000721476
0.00071767
0.000721728
0.000717535
0.000721699
0.000721579
0.000717755
0.000726589
0.000730531
0.000730413
0.000726343
0.000730308
0.000726369
0.000726504
0.000721448
0.00072168
0.000717551
0.00071779
0.000721685
0.00072145
0.000717795
0.000726858
0.000730319
0.000726599
0.000739392
0.000735336
0.000739244
0.000726629
0.000730517
0.000730284
0.000726387
0.000730281
0.000726384
0.000726624
0.000721476
0.00071767
0.000721729
0.000717536
0.00072158
0.000721699
0.000717756
0.00072659
0.000730532
0.000730413
0.000726343
0.000726504
0.000730309
0.000726369
0.000721448
0.00072168
0.000717551
0.00071779
0.000721684
0.00072145
0.000717795
0.000726629
0.000730284
0.000730517
0.000726387
0.000730281
0.000726623
0.000726384
0.000721476
0.00071767
0.000721729
0.000717535
0.0007217
0.00072158
0.000717755
0.000726589
0.000730532
0.000730413
0.000726343
0.000730309
0.000726369
0.000726503
0.000721449
0.00072168
0.00071779
0.00071755
0.00072145
0.000721685
0.000717795
0.000721475
0.00071767
0.000721729
0.000717536
0.000717755
0.000721579
0.000721699
0.000721448
0.00072168
0.000717551
0.000717789
0.000717794
0.000721684
0.00072145
0.000721476
0.00071767
0.000721729
0.000717536
0.000721699
0.00072158
0.000717755
0.000721448
0.00072168
0.000717789
0.000717551
0.00072145
0.000721684
0.000717794
0.000726425
0.000726857
0.000730321
0.000730321
0.000726598
0.000730483
0.000726598
0.000726629
0.000730284
0.000730517
0.000726388
0.000730282
0.000726624
0.000726384
0.000721476
0.00071767
0.000721729
0.000717536
0.000717756
0.00072158
0.000721699
0.000726589
0.000730532
0.000730413
0.000726343
0.000730309
0.000726504
0.000726369
0.000721449
0.00072168
0.00071779
0.000717551
0.000717795
0.000721451
0.000721685
0.000726629
0.000730284
0.000730517
0.000726388
0.000730281
0.000726623
0.000726385
0.000721476
0.00071767
0.000721729
0.000717536
0.0007217
0.000721581
0.000717755
0.000726589
0.000730532
0.000730413
0.000726343
0.000730309
0.000726369
0.000726504
0.000721448
0.00072168
0.00071779
0.000717551
0.000721451
0.000721684
0.000717795
0.000726425
0.000726856
0.000730318
0.000726601
0.000726597
0.000703981
0.000703539
0.000700093
0.000700093
0.00069992
0.000703818
0.000703819
0.000691082
0.000691512
0.000694981
0.000694982
0.000695143
0.000691255
0.000691254
0.000703778
0.00070401
0.000699879
0.000700117
0.000704015
0.00070378
0.000700123
0.00070892
0.000712746
0.000712865
0.000708675
0.000708701
0.000712642
0.000708835
0.00070896
0.000708719
0.00071285
0.000712616
0.000708716
0.000712614
0.000708954
0.000703806
0.000699864
0.000704059
0.000699999
0.000704029
0.000703911
0.000700084
0.000703778
0.00070401
0.000699879
0.000700118
0.000704015
0.00070378
0.000700123
0.000708921
0.000712745
0.000712865
0.000708675
0.000712641
0.000708701
0.000708836
0.00070896
0.000708718
0.00071285
0.000712616
0.000712614
0.000708715
0.000708954
0.000703805
0.000699864
0.000704059
0.000699999
0.000704029
0.000700084
0.00070391
0.000691285
0.000695177
0.000694942
0.000691044
0.000694941
0.000691041
0.000691279
0.000691245
0.000695192
0.000695073
0.000691
0.000691161
0.000694968
0.000691026
0.000691285
0.000695177
0.000694942
0.000691044
0.00069494
0.000691041
0.000691279
0.000691246
0.000695192
0.000695072
0.000691001
0.000694968
0.000691026
0.000691161
0.00070398
0.000703539
0.000700093
0.000700093
0.000703818
0.000703818
0.00069992
0.000691082
0.000691512
0.00069498
0.000694981
0.000691255
0.000695143
0.000691255
0.000703778
0.00070401
0.000699879
0.000700118
0.000704015
0.00070378
0.000700123
0.000708921
0.000712746
0.000712865
0.000708675
0.000708701
0.000712642
0.000708835
0.00070896
0.000708719
0.00071285
0.000712616
0.000708716
0.000712614
0.000708955
0.000703806
0.000699865
0.00070406
0.000699999
0.000704029
0.00070391
0.000700084
0.000703778
0.00070401
0.000700118
0.000699879
0.00070378
0.000704015
0.000700123
0.00070892
0.000712747
0.000712865
0.000708675
0.000712642
0.000708701
0.000708835
0.00070896
0.000708719
0.000712616
0.000712851
0.000712614
0.000708954
0.000708716
0.000703806
0.000699864
0.00070406
0.000699998
0.00070403
0.000700083
0.000703911
0.000691285
0.000695177
0.000694942
0.000691044
0.00069494
0.000691041
0.00069128
0.000691246
0.000695192
0.000695073
0.000691
0.000691161
0.000694968
0.000691026
0.000691285
0.000694942
0.000695178
0.000691044
0.000694941
0.000691279
0.000691041
0.000691245
0.000695193
0.000695074
0.000691
0.000694969
0.000691026
0.00069116
0.000703778
0.00070401
0.000700118
0.00069988
0.00070378
0.000704014
0.000700123
0.00070892
0.000712747
0.000712865
0.000708675
0.000708835
0.000712642
0.000708701
0.000708959
0.000708719
0.000712616
0.00071285
0.000708954
0.000712614
0.000708716
0.000703806
0.000699865
0.00070406
0.000699999
0.000703911
0.000704029
0.000700084
0.000691285
0.000695177
0.000694943
0.000691045
0.000694941
0.000691041
0.000691279
0.000691246
0.000695192
0.000695073
0.000691
0.000694968
0.000691161
0.000691027
0.000691284
0.000694943
0.000695178
0.000691044
0.000694941
0.000691279
0.000691041
0.000691245
0.000695192
0.000695074
0.000691
0.000694969
0.000691026
0.00069116
0.000703981
0.000703539
0.000700093
0.000700093
0.000703819
0.000703818
0.00069992
0.000691082
0.000691512
0.000694981
0.000694981
0.000691255
0.000695144
0.000691254
0.000703778
0.00070401
0.000700118
0.00069988
0.00070378
0.000704015
0.000700123
0.00070892
0.000712746
0.000712865
0.000708675
0.000708835
0.000712642
0.000708701
0.00070896
0.000708719
0.000712616
0.00071285
0.000708954
0.000712614
0.000708716
0.000703806
0.000699864
0.00070406
0.000699999
0.00070391
0.000704029
0.000700084
0.000691285
0.000694943
0.000695178
0.000691044
0.000694941
0.000691279
0.000691041
0.000691245
0.000695193
0.000695073
0.000691
0.000694969
0.000691161
0.000691026
0.000691285
0.000694943
0.000695177
0.000691044
0.00069494
0.000691279
0.000691041
0.000691246
0.000695192
0.000695073
0.000691
0.000694969
0.000691026
0.000691161
0.000691082
0.000691512
0.000694981
0.000694981
0.000695144
0.000691255
0.000691254
0.000675491
0.000675442
0.000675442
0.000677021
0.000640105
0.000640059
0.000640059
0.00064164
0.000604689
0.000604646
0.000604646
0.00060623
0.000569244
0.000569203
0.000569203
0.000570789
0.000533766
0.000533728
0.000533728
0.000535317
0.000498256
0.00049822
0.00049822
0.000499812
0.000462712
0.000462679
0.000462678
0.000464273
0.000427134
0.000427103
0.000427102
0.0004287
0.00039152
0.000391491
0.000391492
0.000393092
0.000355871
0.000355845
0.000355845
0.000357448
0.000320186
0.000320162
0.000320162
0.000321768
0.000284465
0.000284442
0.000284442
0.000286051
0.000248708
0.000248687
0.000248687
0.000250298
0.000212914
0.000212895
0.000212895
0.000214509
0.000177084
0.000177066
0.000177066
0.000178683
0.000141216
0.000141199
0.000141199
0.000142819
0.000105306
0.000105291
0.000105291
0.000106915
6.93672e-05
6.93378e-05
6.93372e-05
7.09609e-05
3.40317e-05
3.34916e-05
3.34884e-05
3.49324e-05
1.09762e-05
7.25223e-06
7.249e-06
5.71689e-06
0.000682672
0.000684284
0.000684284
0.000682672
0.000684284
0.000684284
0.000684284
0.000684284
0.000682672
0.000684284
0.000684284
0.000682672
0.000677021
0.000647295
0.000675442
0.000675442
0.000648907
0.000648907
0.00067702
0.000647295
0.000675442
0.000675442
0.000648907
0.000648907
0.000675442
0.000648907
0.000648907
0.000677021
0.000647295
0.000675442
0.000648907
0.000648907
0.000647294
0.000641639
0.000611889
0.000640059
0.000640059
0.000613502
0.000613502
0.000641639
0.000611889
0.000640059
0.000640059
0.000613502
0.000613502
0.000640059
0.000613502
0.000613502
0.00064164
0.000611889
0.000640059
0.000613502
0.000613502
0.000611889
0.000606229
0.000576453
0.000604646
0.000604646
0.000578066
0.000578066
0.000606229
0.000576453
0.000604646
0.000604646
0.000578066
0.000578066
0.000604646
0.000578066
0.000578066
0.000606229
0.000576452
0.000604646
0.000578066
0.000578066
0.000576452
0.000570789
0.000540985
0.000569203
0.000569203
0.000542599
0.000542599
0.000570789
0.000540985
0.000569203
0.000569203
0.000542599
0.000542599
0.000569203
0.000542599
0.000542599
0.000570789
0.000540985
0.000569203
0.000542599
0.000542599
0.000540985
0.000535317
0.000505485
0.000533728
0.000533728
0.0005071
0.0005071
0.000535317
0.000505485
0.000533728
0.000533728
0.0005071
0.0005071
0.000533728
0.0005071
0.0005071
0.000535317
0.000505485
0.000533728
0.0005071
0.0005071
0.000505485
0.000499812
0.000469951
0.00049822
0.00049822
0.000471567
0.000471567
0.000499812
0.000469951
0.00049822
0.00049822
0.000471567
0.000471567
0.00049822
0.000471567
0.000471567
0.000499812
0.000469951
0.00049822
0.000471567
0.000471567
0.00046995
0.000464273
0.000434383
0.000462679
0.000462679
0.000436
0.000436
0.000464273
0.000434383
0.000462679
0.000462679
0.000436
0.000435999
0.000462679
0.000435999
0.000435999
0.000464273
0.000434382
0.000462679
0.000435999
0.000435999
0.000434382
0.0004287
0.000398779
0.000427103
0.000427103
0.000400397
0.000400397
0.0004287
0.00039878
0.000427103
0.000427102
0.000400397
0.000400397
0.000427102
0.000400397
0.000400397
0.0004287
0.000398779
0.000427102
0.000400397
0.000400397
0.000398779
0.000393092
0.00036314
0.000391491
0.000391491
0.000364759
0.000364759
0.000393091
0.000363141
0.000391491
0.000391492
0.000364759
0.000364759
0.000391492
0.000364759
0.000364759
0.000393092
0.00036314
0.000391492
0.000364759
0.000364759
0.00036314
0.000357447
0.000327465
0.000355844
0.000355844
0.000329085
0.000329085
0.000357447
0.000327466
0.000355844
0.000355845
0.000329085
0.000329085
0.000355845
0.000329085
0.000329085
0.000357448
0.000327465
0.000355845
0.000329085
0.000329085
0.000327465
0.000321767
0.000291754
0.000320162
0.000320162
0.000293375
0.000293375
0.000321767
0.000291755
0.000320161
0.000320162
0.000293375
0.000293375
0.000320162
0.000293374
0.000293375
0.000321767
0.000291754
0.000320162
0.000293375
0.000293375
0.000291754
0.000286051
0.000256007
0.000284442
0.000284442
0.000257628
0.000257628
0.000286051
0.000256007
0.000284442
0.000284442
0.000257628
0.000257628
0.000284442
0.000257628
0.000257628
0.000286051
0.000256007
0.000284442
0.000257628
0.000257628
0.000256007
0.000250298
0.000220224
0.000248687
0.000248687
0.000221845
0.000221845
0.000250298
0.000220224
0.000248687
0.000248687
0.000221845
0.000221845
0.000248687
0.000221845
0.000221845
0.000250298
0.000220224
0.000248687
0.000221845
0.000221845
0.000220223
0.000214508
0.000184404
0.000212895
0.000212895
0.000186025
0.000186025
0.000214508
0.000184404
0.000212895
0.000212895
0.000186025
0.000186025
0.000212895
0.000186025
0.000186025
0.000214508
0.000184404
0.000212895
0.000186025
0.000186025
0.000184404
0.000178682
0.000148548
0.000177066
0.000177066
0.000150169
0.000150169
0.000178682
0.000148548
0.000177066
0.000177066
0.000150169
0.000150169
0.000177066
0.000150169
0.000150169
0.000178682
0.000148548
0.000177066
0.000150169
0.000150169
0.000148548
0.000142819
0.000112652
0.000141199
0.000141199
0.000114273
0.000114273
0.000142818
0.000112652
0.000141199
0.000141199
0.000114273
0.000114273
0.000141199
0.000114273
0.000114273
0.000142819
0.000112652
0.000141199
0.000114273
0.000114273
0.000112651
0.000106914
7.67103e-05
0.000105291
0.000105291
7.83346e-05
7.83352e-05
0.000106914
7.67107e-05
0.000105291
0.000105291
7.83349e-05
7.83346e-05
0.000105291
7.83351e-05
7.83343e-05
0.000106914
7.67101e-05
0.000105291
7.83348e-05
7.83344e-05
7.67096e-05
7.09606e-05
4.07066e-05
6.93377e-05
6.93379e-05
4.24008e-05
4.24009e-05
7.0961e-05
4.07062e-05