/*--------------------------------*- C++ -*----------------------------------*\
| =========                 |                                                 |
| \\      /  F ield         | OpenFOAM: The Open Source CFD Toolbox           |
|  \\    /   O peration     | Version:                                        |
|   \\  /    A nd           | Website:  www.openfoam.com                      |
|    \\/     M anipulation  |                                                 |
\*---------------------------------------------------------------------------*/
FoamFile
{
    version     2.0;
    format      ascii;
    class       volScalarField;
    location    "138100.5";
    object      p;
}
// * * * * * * * * * * * * * * * * * * * * * * * * * * * * * * * * * * * * * //

dimensions      [0 2 -2 0 0 0 0];


internalField   nonuniform List<scalar> 
247096
(
1.06692e-07
1.06695e-07
1.06838e-07
1.06925e-07
1.06958e-07
1.06916e-07
1.06825e-07
1.06671e-07
1.06695e-07
1.06893e-07
1.0707e-07
1.07163e-07
1.07186e-07
1.07156e-07
1.07052e-07
1.06869e-07
1.06838e-07
1.0707e-07
1.07211e-07
1.07252e-07
1.07259e-07
1.0725e-07
1.072e-07
1.07043e-07
1.06811e-07
1.06925e-07
1.07163e-07
1.07252e-07
1.07264e-07
1.07263e-07
1.07264e-07
1.07248e-07
1.07141e-07
1.06892e-07
1.06692e-07
1.06958e-07
1.07186e-07
1.07259e-07
1.07263e-07
1.07259e-07
1.07264e-07
1.07256e-07
1.07167e-07
1.06923e-07
1.06916e-07
1.07156e-07
1.0725e-07
1.07264e-07
1.07264e-07
1.07264e-07
1.07245e-07
1.07133e-07
1.06883e-07
1.06825e-07
1.07052e-07
1.072e-07
1.07248e-07
1.07256e-07
1.07245e-07
1.07189e-07
1.07024e-07
1.06799e-07
1.06671e-07
1.06869e-07
1.07043e-07
1.07141e-07
1.07167e-07
1.07133e-07
1.07024e-07
1.06847e-07
1.06811e-07
1.06892e-07
1.06923e-07
1.06883e-07
1.06799e-07
1.03879e-07
1.03854e-07
1.03863e-07
1.03714e-07
1.03727e-07
1.03746e-07
1.03726e-07
1.03912e-07
1.0385e-07
1.03863e-07
1.03735e-07
1.03531e-07
1.03548e-07
1.03549e-07
1.03531e-07
1.03792e-07
1.03738e-07
1.03714e-07
1.03531e-07
1.03569e-07
1.03589e-07
1.03589e-07
1.03569e-07
1.03531e-07
1.03855e-07
1.03901e-07
1.03879e-07
1.03727e-07
1.03549e-07
1.03589e-07
1.03613e-07
1.03613e-07
1.03589e-07
1.03548e-07
1.03883e-07
1.03919e-07
1.03854e-07
1.03746e-07
1.03548e-07
1.03589e-07
1.03613e-07
1.03613e-07
1.03589e-07
1.03548e-07
1.03886e-07
1.03743e-07
1.03726e-07
1.03531e-07
1.03569e-07
1.03589e-07
1.03589e-07
1.03569e-07
1.03531e-07
1.03879e-07
1.03928e-07
1.03912e-07
1.03792e-07
1.03531e-07
1.03548e-07
1.03548e-07
1.03531e-07
1.03873e-07
1.03797e-07
1.03911e-07
1.0385e-07
1.03738e-07
1.03855e-07
1.03883e-07
1.03886e-07
1.03879e-07
1.03797e-07
1.03922e-07
1.03901e-07
1.03919e-07
1.03743e-07
1.03928e-07
1.03911e-07
1.02102e-07
1.02093e-07
1.02102e-07
1.01971e-07
1.01971e-07
1.01981e-07
1.01973e-07
1.02136e-07
1.02093e-07
1.02102e-07
1.01966e-07
1.01732e-07
1.0174e-07
1.0174e-07
1.01732e-07
1.01989e-07
1.01983e-07
1.01971e-07
1.01732e-07
1.01752e-07
1.01763e-07
1.01763e-07
1.01752e-07
1.01732e-07
1.02034e-07
1.02126e-07
1.02102e-07
1.01971e-07
1.0174e-07
1.01763e-07
1.01777e-07
1.01777e-07
1.01763e-07
1.0174e-07
1.02038e-07
1.02123e-07
1.02093e-07
1.01981e-07
1.0174e-07
1.01763e-07
1.01777e-07
1.01777e-07
1.01763e-07
1.0174e-07
1.02037e-07
1.0199e-07
1.01973e-07
1.01732e-07
1.01752e-07
1.01763e-07
1.01763e-07
1.01752e-07
1.01732e-07
1.02041e-07
1.02131e-07
1.02136e-07
1.01989e-07
1.01732e-07
1.0174e-07
1.0174e-07
1.01732e-07
1.02022e-07
1.02012e-07
1.02136e-07
1.02093e-07
1.01983e-07
1.02034e-07
1.02038e-07
1.02037e-07
1.02041e-07
1.02012e-07
1.02139e-07
1.02126e-07
1.02123e-07
1.0199e-07
1.02131e-07
1.02136e-07
1.00501e-07
1.00492e-07
1.00501e-07
1.00377e-07
1.00376e-07
1.00384e-07
1.00378e-07
1.00532e-07
1.00494e-07
1.00501e-07
1.00373e-07
1.00165e-07
1.0017e-07
1.0017e-07
1.00165e-07
1.00397e-07
1.00391e-07
1.00377e-07
1.00165e-07
1.00176e-07
1.00182e-07
1.00182e-07
1.00176e-07
1.00165e-07
1.00438e-07
1.00524e-07
1.00501e-07
1.00376e-07
1.0017e-07
1.00182e-07
1.0019e-07
1.0019e-07
1.00182e-07
1.0017e-07
1.00442e-07
1.00523e-07
1.00492e-07
1.00384e-07
1.0017e-07
1.00182e-07
1.0019e-07
1.0019e-07
1.00182e-07
1.0017e-07
1.00441e-07
1.00396e-07
1.00378e-07
1.00165e-07
1.00176e-07
1.00182e-07
1.00182e-07
1.00176e-07
1.00165e-07
1.00444e-07
1.00529e-07
1.00532e-07
1.00397e-07
1.00165e-07
1.0017e-07
1.0017e-07
1.00165e-07
1.00425e-07
1.00417e-07
1.00533e-07
1.00494e-07
1.00391e-07
1.00438e-07
1.00442e-07
1.00441e-07
1.00444e-07
1.00417e-07
1.00537e-07
1.00524e-07
1.00523e-07
1.00396e-07
1.00529e-07
1.00533e-07
9.9038e-08
9.90293e-08
9.90376e-08
9.89196e-08
9.89175e-08
9.89246e-08
9.89197e-08
9.90653e-08
9.90321e-08
9.90376e-08
9.8915e-08
9.87235e-08
9.87269e-08
9.87269e-08
9.87235e-08
9.89382e-08
9.89337e-08
9.89196e-08
9.87235e-08
9.87311e-08
9.87344e-08
9.87344e-08
9.87311e-08
9.87235e-08
9.89769e-08
9.90609e-08
9.9038e-08
9.89175e-08
9.87269e-08
9.87344e-08
9.87388e-08
9.87388e-08
9.87344e-08
9.87269e-08
9.89791e-08
9.9059e-08
9.90293e-08
9.89246e-08
9.87269e-08
9.87344e-08
9.87388e-08
9.87388e-08
9.87344e-08
9.87269e-08
9.89777e-08
9.89384e-08
9.89197e-08
9.87235e-08
9.87311e-08
9.87344e-08
9.87344e-08
9.87311e-08
9.87236e-08
9.89809e-08
9.90649e-08
9.90653e-08
9.89382e-08
9.87235e-08
9.87269e-08
9.87269e-08
9.87236e-08
9.89646e-08
9.89577e-08
9.90671e-08
9.90321e-08
9.89337e-08
9.89769e-08
9.89791e-08
9.89777e-08
9.89809e-08
9.89577e-08
9.9072e-08
9.90609e-08
9.9059e-08
9.89384e-08
9.90649e-08
9.90671e-08
9.76728e-08
9.76642e-08
9.76722e-08
9.7559e-08
9.75564e-08
9.75624e-08
9.75584e-08
9.76979e-08
9.76676e-08
9.76722e-08
9.75541e-08
9.73743e-08
9.73765e-08
9.73765e-08
9.73743e-08
9.75768e-08
9.75733e-08
9.7559e-08
9.73743e-08
9.73795e-08
9.73813e-08
9.73813e-08
9.73795e-08
9.73743e-08
9.76143e-08
9.76952e-08
9.76728e-08
9.75564e-08
9.73765e-08
9.73813e-08
9.73838e-08
9.73838e-08
9.73813e-08
9.73765e-08
9.76156e-08
9.76932e-08
9.76642e-08
9.75624e-08
9.73765e-08
9.73813e-08
9.73838e-08
9.73838e-08
9.73813e-08
9.73765e-08
9.7614e-08
9.75775e-08
9.75584e-08
9.73743e-08
9.73795e-08
9.73813e-08
9.73813e-08
9.73795e-08
9.73743e-08
9.76171e-08
9.76986e-08
9.76979e-08
9.75768e-08
9.73743e-08
9.73765e-08
9.73765e-08
9.73743e-08
9.76017e-08
9.75957e-08
9.77001e-08
9.76676e-08
9.75733e-08
9.76143e-08
9.76156e-08
9.7614e-08
9.76171e-08
9.75957e-08
9.77056e-08
9.76952e-08
9.76932e-08
9.75775e-08
9.76986e-08
9.77001e-08
9.63785e-08
9.63699e-08
9.63777e-08
9.62682e-08
9.62652e-08
9.62706e-08
9.62671e-08
9.6402e-08
9.63736e-08
9.63777e-08
9.6263e-08
9.60919e-08
9.60935e-08
9.60935e-08
9.60919e-08
9.62854e-08
9.62824e-08
9.62682e-08
9.60919e-08
9.60958e-08
9.60968e-08
9.60968e-08
9.60958e-08
9.60919e-08
9.63222e-08
9.64004e-08
9.63785e-08
9.62652e-08
9.60935e-08
9.60968e-08
9.60984e-08
9.60984e-08
9.60968e-08
9.60935e-08
9.6323e-08
9.63985e-08
9.63699e-08
9.62706e-08
9.60935e-08
9.60968e-08
9.60984e-08
9.60984e-08
9.60968e-08
9.60935e-08
9.63213e-08
9.62864e-08
9.62671e-08
9.60919e-08
9.60958e-08
9.60968e-08
9.60968e-08
9.60958e-08
9.60919e-08
9.63243e-08
9.64034e-08
9.6402e-08
9.62854e-08
9.60919e-08
9.60935e-08
9.60935e-08
9.60919e-08
9.63095e-08
9.63038e-08
9.64045e-08
9.63736e-08
9.62824e-08
9.63222e-08
9.6323e-08
9.63213e-08
9.63243e-08
9.63038e-08
9.64102e-08
9.64004e-08
9.63985e-08
9.62864e-08
9.64034e-08
9.64045e-08
9.51356e-08
9.51272e-08
9.51346e-08
9.5028e-08
9.50248e-08
9.50297e-08
9.50266e-08
9.5158e-08
9.51309e-08
9.51346e-08
9.50225e-08
9.48579e-08
9.48591e-08
9.48591e-08
9.48579e-08
9.50447e-08
9.50421e-08
9.5028e-08
9.48579e-08
9.4861e-08
9.48615e-08
9.48615e-08
9.4861e-08
9.48579e-08
9.50811e-08
9.51572e-08
9.51356e-08
9.50248e-08
9.48591e-08
9.48615e-08
9.48625e-08
9.48625e-08
9.48615e-08
9.48591e-08
9.50816e-08
9.51553e-08
9.51272e-08
9.50297e-08
9.48591e-08
9.48615e-08
9.48625e-08
9.48625e-08
9.48615e-08
9.48591e-08
9.50799e-08
9.5046e-08
9.50266e-08
9.48579e-08
9.4861e-08
9.48615e-08
9.48615e-08
9.4861e-08
9.48579e-08
9.50826e-08
9.51599e-08
9.5158e-08
9.50447e-08
9.48579e-08
9.48591e-08
9.48591e-08
9.48579e-08
9.50683e-08
9.50627e-08
9.51606e-08
9.51309e-08
9.50421e-08
9.50811e-08
9.50816e-08
9.50799e-08
9.50826e-08
9.50627e-08
9.51666e-08
9.51572e-08
9.51553e-08
9.5046e-08
9.51599e-08
9.51606e-08
9.39305e-08
9.39222e-08
9.39295e-08
9.3825e-08
9.38216e-08
9.38261e-08
9.38233e-08
9.39521e-08
9.39261e-08
9.39295e-08
9.38193e-08
9.36595e-08
9.36604e-08
9.36604e-08
9.36595e-08
9.38413e-08
9.38391e-08
9.3825e-08
9.36595e-08
9.36621e-08
9.36623e-08
9.36623e-08
9.36621e-08
9.36595e-08
9.38774e-08
9.39518e-08
9.39305e-08
9.38216e-08
9.36604e-08
9.36623e-08
9.36629e-08
9.36629e-08
9.36623e-08
9.36604e-08
9.38776e-08
9.39499e-08
9.39222e-08
9.38261e-08
9.36604e-08
9.36623e-08
9.36629e-08
9.36629e-08
9.36623e-08
9.36604e-08
9.38759e-08
9.38428e-08
9.38233e-08
9.36595e-08
9.36621e-08
9.36623e-08
9.36623e-08
9.36621e-08
9.36595e-08
9.38783e-08
9.39543e-08
9.39521e-08
9.38413e-08
9.36595e-08
9.36604e-08
9.36604e-08
9.36595e-08
9.38645e-08
9.3859e-08
9.39549e-08
9.39261e-08
9.38391e-08
9.38774e-08
9.38776e-08
9.38759e-08
9.38783e-08
9.38591e-08
9.3961e-08
9.39518e-08
9.39499e-08
9.38428e-08
9.39543e-08
9.39549e-08
9.27536e-08
9.27454e-08
9.27526e-08
9.26497e-08
9.26461e-08
9.26504e-08
9.26478e-08
9.27746e-08
9.27494e-08
9.27526e-08
9.26439e-08
9.24876e-08
9.24883e-08
9.24883e-08
9.24876e-08
9.26657e-08
9.26637e-08
9.26497e-08
9.24876e-08
9.249e-08
9.24899e-08
9.24899e-08
9.249e-08
9.24876e-08
9.27016e-08
9.27747e-08
9.27536e-08
9.26461e-08
9.24883e-08
9.24899e-08
9.24902e-08
9.24902e-08
9.24899e-08
9.24883e-08
9.27016e-08
9.27729e-08
9.27454e-08
9.26504e-08
9.24883e-08
9.24899e-08
9.24902e-08
9.24902e-08
9.24899e-08
9.24883e-08
9.26999e-08
9.26673e-08
9.26478e-08
9.24876e-08
9.249e-08
9.24899e-08
9.24899e-08
9.249e-08
9.24876e-08
9.27022e-08
9.27771e-08
9.27746e-08
9.26657e-08
9.24876e-08
9.24883e-08
9.24883e-08
9.24876e-08
9.26886e-08
9.26832e-08
9.27775e-08
9.27493e-08
9.26637e-08
9.27016e-08
9.27016e-08
9.26999e-08
9.27022e-08
9.26832e-08
9.27837e-08
9.27747e-08
9.27729e-08
9.26673e-08
9.27771e-08
9.27775e-08
9.1598e-08
9.15898e-08
9.15969e-08
9.14953e-08
9.14916e-08
9.14957e-08
9.14932e-08
9.16186e-08
9.15938e-08
9.15969e-08
9.14893e-08
9.13357e-08
9.13364e-08
9.13364e-08
9.13357e-08
9.1511e-08
9.15092e-08
9.14953e-08
9.13357e-08
9.1338e-08
9.13378e-08
9.13378e-08
9.1338e-08
9.13357e-08
9.15468e-08
9.16189e-08
9.1598e-08
9.14916e-08
9.13364e-08
9.13378e-08
9.13379e-08
9.13379e-08
9.13378e-08
9.13364e-08
9.15467e-08
9.16171e-08
9.15898e-08
9.14957e-08
9.13364e-08
9.13378e-08
9.13379e-08
9.13379e-08
9.13378e-08
9.13364e-08
9.15449e-08
9.15128e-08
9.14932e-08
9.13357e-08
9.1338e-08
9.13378e-08
9.13378e-08
9.1338e-08
9.13357e-08
9.15471e-08
9.16211e-08
9.16186e-08
9.1511e-08
9.13357e-08
9.13364e-08
9.13364e-08
9.13357e-08
9.15337e-08
9.15283e-08
9.16215e-08
9.15938e-08
9.15092e-08
9.15468e-08
9.15467e-08
9.15449e-08
9.15471e-08
9.15284e-08
9.16277e-08
9.16189e-08
9.16171e-08
9.15128e-08
9.16211e-08
9.16215e-08
9.04585e-08
9.04503e-08
9.04574e-08
9.03567e-08
9.0353e-08
9.03569e-08
9.03545e-08
9.04787e-08
9.04544e-08
9.04574e-08
9.03507e-08
9.01991e-08
9.01997e-08
9.01997e-08
9.01991e-08
9.03723e-08
9.03706e-08
9.03567e-08
9.01991e-08
9.02013e-08
9.0201e-08
9.0201e-08
9.02013e-08
9.01991e-08
9.0408e-08
9.04793e-08
9.04585e-08
9.0353e-08
9.01997e-08
9.0201e-08
9.02009e-08
9.02009e-08
9.0201e-08
9.01997e-08
9.04078e-08
9.04775e-08
9.04503e-08
9.03569e-08
9.01997e-08
9.0201e-08
9.02009e-08
9.02009e-08
9.0201e-08
9.01997e-08
9.04059e-08
9.03741e-08
9.03545e-08
9.01991e-08
9.02013e-08
9.0201e-08
9.0201e-08
9.02013e-08
9.01991e-08
9.0408e-08
9.04814e-08
9.04787e-08
9.03723e-08
9.01991e-08
9.01997e-08
9.01997e-08
9.01991e-08
9.03947e-08
9.03895e-08
9.04817e-08
9.04544e-08
9.03706e-08
9.0408e-08
9.04078e-08
9.04059e-08
9.0408e-08
9.03895e-08
9.0488e-08
9.04793e-08
9.04775e-08
9.03741e-08
9.04814e-08
9.04817e-08
8.93313e-08
8.93232e-08
8.93302e-08
8.92303e-08
8.92265e-08
8.92304e-08
8.9228e-08
8.93513e-08
8.93274e-08
8.93302e-08
8.92242e-08
8.90742e-08
8.90747e-08
8.90747e-08
8.90742e-08
8.92457e-08
8.92442e-08
8.92303e-08
8.90742e-08
8.90764e-08
8.90759e-08
8.90759e-08
8.90764e-08
8.90742e-08
8.92814e-08
8.93521e-08
8.93313e-08
8.92265e-08
8.90747e-08
8.90759e-08
8.90758e-08
8.90758e-08
8.90759e-08
8.90747e-08
8.92811e-08
8.93502e-08
8.93232e-08
8.92303e-08
8.90747e-08
8.90759e-08
8.90758e-08
8.90758e-08
8.90759e-08
8.90747e-08
8.92792e-08
8.92476e-08
8.9228e-08
8.90742e-08
8.90764e-08
8.90759e-08
8.90759e-08
8.90764e-08
8.90742e-08
8.92812e-08
8.93541e-08
8.93513e-08
8.92457e-08
8.90742e-08
8.90747e-08
8.90747e-08
8.90742e-08
8.92681e-08
8.92628e-08
8.93543e-08
8.93274e-08
8.92442e-08
8.92814e-08
8.92811e-08
8.92792e-08
8.92812e-08
8.92628e-08
8.93607e-08
8.93521e-08
8.93502e-08
8.92476e-08
8.93541e-08
8.93543e-08
8.82137e-08
8.82057e-08
8.82126e-08
8.81133e-08
8.81094e-08
8.81132e-08
8.81109e-08
8.82335e-08
8.82098e-08
8.82126e-08
8.81071e-08
8.79583e-08
8.79588e-08
8.79588e-08
8.79583e-08
8.81286e-08
8.81271e-08
8.81133e-08
8.79583e-08
8.79605e-08
8.79599e-08
8.79599e-08
8.79605e-08
8.79583e-08
8.81642e-08
8.82344e-08
8.82137e-08
8.81094e-08
8.79588e-08
8.79599e-08
8.79597e-08
8.79597e-08
8.79599e-08
8.79588e-08
8.81638e-08
8.82326e-08
8.82056e-08
8.81132e-08
8.79588e-08
8.79599e-08
8.79597e-08
8.79597e-08
8.79599e-08
8.79588e-08
8.81619e-08
8.81305e-08
8.81109e-08
8.79583e-08
8.79605e-08
8.79599e-08
8.79599e-08
8.79605e-08
8.79583e-08
8.81638e-08
8.82364e-08
8.82335e-08
8.81286e-08
8.79583e-08
8.79588e-08
8.79588e-08
8.79583e-08
8.81508e-08
8.81456e-08
8.82365e-08
8.82098e-08
8.81271e-08
8.81642e-08
8.81638e-08
8.81619e-08
8.81638e-08
8.81456e-08
8.82429e-08
8.82344e-08
8.82326e-08
8.81305e-08
8.82364e-08
8.82365e-08
8.71035e-08
8.70954e-08
8.71024e-08
8.70035e-08
8.69996e-08
8.70033e-08
8.7001e-08
8.71231e-08
8.70996e-08
8.71024e-08
8.69973e-08
8.68493e-08
8.68498e-08
8.68498e-08
8.68493e-08
8.70187e-08
8.70173e-08
8.70035e-08
8.68493e-08
8.68516e-08
8.68509e-08
8.68509e-08
8.68516e-08
8.68493e-08
8.70542e-08
8.71241e-08
8.71035e-08
8.69996e-08
8.68498e-08
8.68509e-08
8.68507e-08
8.68507e-08
8.68509e-08
8.68498e-08
8.70538e-08
8.71222e-08
8.70954e-08
8.70033e-08
8.68498e-08
8.68509e-08
8.68507e-08
8.68507e-08
8.68509e-08
8.68498e-08
8.70519e-08
8.70206e-08
8.7001e-08
8.68493e-08
8.68516e-08
8.68509e-08
8.68509e-08
8.68516e-08
8.68493e-08
8.70538e-08
8.7126e-08
8.71231e-08
8.70187e-08
8.68494e-08
8.68498e-08
8.68498e-08
8.68494e-08
8.70408e-08
8.70356e-08
8.71262e-08
8.70996e-08
8.70173e-08
8.70542e-08
8.70539e-08
8.70519e-08
8.70538e-08
8.70356e-08
8.71326e-08
8.71241e-08
8.71223e-08
8.70206e-08
8.71261e-08
8.71262e-08
8.59989e-08
8.59909e-08
8.59978e-08
8.58993e-08
8.58953e-08
8.5899e-08
8.58968e-08
8.60185e-08
8.59951e-08
8.59978e-08
8.5893e-08
8.57458e-08
8.57463e-08
8.57463e-08
8.57458e-08
8.59144e-08
8.59131e-08
8.58993e-08
8.57458e-08
8.57481e-08
8.57474e-08
8.57474e-08
8.57481e-08
8.57458e-08
8.595e-08
8.60195e-08
8.59989e-08
8.58953e-08
8.57463e-08
8.57474e-08
8.57471e-08
8.57471e-08
8.57474e-08
8.57463e-08
8.59495e-08
8.60177e-08
8.59909e-08
8.5899e-08
8.57463e-08
8.57474e-08
8.57471e-08
8.57471e-08
8.57474e-08
8.57463e-08
8.59476e-08
8.59164e-08
8.58968e-08
8.57458e-08
8.57481e-08
8.57474e-08
8.57474e-08
8.57481e-08
8.57458e-08
8.59494e-08
8.60214e-08
8.60185e-08
8.59144e-08
8.57458e-08
8.57463e-08
8.57463e-08
8.57458e-08
8.59365e-08
8.59313e-08
8.60215e-08
8.59951e-08
8.59131e-08
8.595e-08
8.59496e-08
8.59476e-08
8.59494e-08
8.59313e-08
8.60279e-08
8.60195e-08
8.60177e-08
8.59164e-08
8.60215e-08
8.60215e-08
8.48989e-08
8.48908e-08
8.48978e-08
8.47995e-08
8.47955e-08
8.47991e-08
8.47969e-08
8.49182e-08
8.4895e-08
8.48976e-08
8.47932e-08
8.46465e-08
8.4647e-08
8.4647e-08
8.46465e-08
8.48145e-08
8.48137e-08
8.47993e-08
8.46465e-08
8.46488e-08
8.46481e-08
8.46481e-08
8.46489e-08
8.46466e-08
8.48502e-08
8.49195e-08
8.48988e-08
8.47954e-08
8.4647e-08
8.46481e-08
8.46477e-08
8.46477e-08
8.46481e-08
8.4647e-08
8.48497e-08
8.49176e-08
8.48907e-08
8.4799e-08
8.4647e-08
8.46481e-08
8.46477e-08
8.46478e-08
8.46481e-08
8.4647e-08
8.48477e-08
8.48166e-08
8.47968e-08
8.46465e-08
8.46489e-08
8.46481e-08
8.46481e-08
8.46489e-08
8.46465e-08
8.48494e-08
8.49213e-08
8.49182e-08
8.48144e-08
8.46465e-08
8.4647e-08
8.4647e-08
8.46466e-08
8.48366e-08
8.48312e-08
8.49213e-08
8.48949e-08
8.48137e-08
8.48502e-08
8.48497e-08
8.48477e-08
8.48495e-08
8.48315e-08
8.49278e-08
8.49195e-08
8.49176e-08
8.48166e-08
8.49213e-08
8.49214e-08
8.38022e-08
8.37942e-08
8.38012e-08
8.37031e-08
8.36991e-08
8.37026e-08
8.37004e-08
8.38215e-08
8.37983e-08
8.38009e-08
8.36967e-08
8.35505e-08
8.3551e-08
8.3551e-08
8.35505e-08
8.3718e-08
8.37175e-08
8.37029e-08
8.35505e-08
8.35529e-08
8.3552e-08
8.35521e-08
8.35529e-08
8.35506e-08
8.37537e-08
8.38229e-08
8.38021e-08
8.36989e-08
8.35509e-08
8.3552e-08
8.35517e-08
8.35517e-08
8.35521e-08
8.3551e-08
8.37532e-08
8.3821e-08
8.37941e-08
8.37025e-08
8.35509e-08
8.3552e-08
8.35517e-08
8.35517e-08
8.35521e-08
8.3551e-08
8.37512e-08
8.37202e-08
8.37004e-08
8.35505e-08
8.35529e-08
8.3552e-08
8.3552e-08
8.35529e-08
8.35506e-08
8.3753e-08
8.38247e-08
8.38214e-08
8.37179e-08
8.35505e-08
8.35509e-08
8.35509e-08
8.35505e-08
8.37401e-08
8.37351e-08
8.38248e-08
8.37982e-08
8.37174e-08
8.37537e-08
8.37531e-08
8.37511e-08
8.37528e-08
8.37346e-08
8.38311e-08
8.38228e-08
8.38209e-08
8.37201e-08
8.38246e-08
8.38246e-08
8.27083e-08
8.27003e-08
8.27073e-08
8.26093e-08
8.26053e-08
8.26088e-08
8.26067e-08
8.27275e-08
8.27044e-08
8.2707e-08
8.26029e-08
8.24571e-08
8.24575e-08
8.24575e-08
8.24571e-08
8.26242e-08
8.26237e-08
8.26091e-08
8.2457e-08
8.24595e-08
8.24586e-08
8.24586e-08
8.24595e-08
8.24571e-08
8.26599e-08
8.27289e-08
8.27082e-08
8.26052e-08
8.24575e-08
8.24586e-08
8.24582e-08
8.24582e-08
8.24586e-08
8.24575e-08
8.26594e-08
8.2727e-08
8.27002e-08
8.26088e-08
8.24575e-08
8.24586e-08
8.24582e-08
8.24582e-08
8.24586e-08
8.24575e-08
8.26574e-08
8.26264e-08
8.26067e-08
8.2457e-08
8.24594e-08
8.24586e-08
8.24586e-08
8.24595e-08
8.24571e-08
8.26591e-08
8.27307e-08
8.27277e-08
8.26242e-08
8.2457e-08
8.24574e-08
8.24574e-08
8.2457e-08
8.26462e-08
8.26413e-08
8.27308e-08
8.27045e-08
8.26223e-08
8.26596e-08
8.26592e-08
8.26572e-08
8.26589e-08
8.26407e-08
8.27371e-08
8.27286e-08
8.27268e-08
8.26262e-08
8.27305e-08
8.27305e-08
8.16165e-08
8.16085e-08
8.16154e-08
8.15177e-08
8.15136e-08
8.15171e-08
8.1515e-08
8.16359e-08
8.16128e-08
8.16152e-08
8.15112e-08
8.13656e-08
8.13661e-08
8.13661e-08
8.13656e-08
8.15326e-08
8.15307e-08
8.15174e-08
8.13656e-08
8.13681e-08
8.13671e-08
8.13671e-08
8.13681e-08
8.13656e-08
8.1568e-08
8.16369e-08
8.16164e-08
8.15135e-08
8.1366e-08
8.13671e-08
8.13667e-08
8.13667e-08
8.13671e-08
8.1366e-08
8.15675e-08
8.16351e-08
8.16084e-08
8.15171e-08
8.1366e-08
8.13671e-08
8.13667e-08
8.13667e-08
8.13671e-08
8.1366e-08
8.15656e-08
8.15346e-08
8.1515e-08
8.13656e-08
8.1368e-08
8.13671e-08
8.13671e-08
8.13681e-08
8.13656e-08
8.15673e-08
8.16388e-08
8.16358e-08
8.15325e-08
8.13655e-08
8.13659e-08
8.13659e-08
8.13655e-08
8.15544e-08
8.15495e-08
8.16389e-08
8.16127e-08
8.15306e-08
8.15679e-08
8.15674e-08
8.15655e-08
8.15671e-08
8.1549e-08
8.16452e-08
8.16367e-08
8.16349e-08
8.15345e-08
8.16386e-08
8.16386e-08
8.05263e-08
8.05183e-08
8.05252e-08
8.04275e-08
8.04235e-08
8.0427e-08
8.04248e-08
8.05454e-08
8.05224e-08
8.0525e-08
8.04211e-08
8.02757e-08
8.02761e-08
8.02761e-08
8.02757e-08
8.04423e-08
8.04418e-08
8.04274e-08
8.02757e-08
8.02782e-08
8.02772e-08
8.02772e-08
8.02782e-08
8.02757e-08
8.04781e-08
8.05468e-08
8.05262e-08
8.04234e-08
8.02761e-08
8.02772e-08
8.02768e-08
8.02768e-08
8.02772e-08
8.02762e-08
8.04775e-08
8.0545e-08
8.05182e-08
8.04269e-08
8.02761e-08
8.02772e-08
8.02768e-08
8.02768e-08
8.02772e-08
8.02761e-08
8.04755e-08
8.04446e-08
8.04249e-08
8.02757e-08
8.02782e-08
8.02772e-08
8.02772e-08
8.02782e-08
8.02757e-08
8.04772e-08
8.05486e-08
8.05456e-08
8.04424e-08
8.02756e-08
8.0276e-08
8.0276e-08
8.02756e-08
8.04643e-08
8.04594e-08
8.05487e-08
8.05225e-08
8.04406e-08
8.04778e-08
8.04773e-08
8.04753e-08
8.0477e-08
8.04589e-08
8.0555e-08
8.05465e-08
8.05447e-08
8.04444e-08
8.05484e-08
8.05484e-08
7.94374e-08
7.94293e-08
7.94363e-08
7.93387e-08
7.93346e-08
7.93381e-08
7.9336e-08
7.94565e-08
7.94335e-08
7.9436e-08
7.93322e-08
7.9187e-08
7.91874e-08
7.91874e-08
7.9187e-08
7.93535e-08
7.9353e-08
7.93385e-08
7.9187e-08
7.91896e-08
7.91886e-08
7.91886e-08
7.91896e-08
7.9187e-08
7.93893e-08
7.94579e-08
7.94373e-08
7.93346e-08
7.91874e-08
7.91885e-08
7.91881e-08
7.91881e-08
7.91886e-08
7.91875e-08
7.93887e-08
7.94561e-08
7.94294e-08
7.93381e-08
7.91874e-08
7.91885e-08
7.91881e-08
7.91881e-08
7.91886e-08
7.91875e-08
7.93867e-08
7.93558e-08
7.93361e-08
7.9187e-08
7.91896e-08
7.91885e-08
7.91885e-08
7.91896e-08
7.9187e-08
7.93884e-08
7.94597e-08
7.94567e-08
7.93535e-08
7.91869e-08
7.91874e-08
7.91874e-08
7.91869e-08
7.93754e-08
7.93705e-08
7.94598e-08
7.94336e-08
7.93517e-08
7.93889e-08
7.93885e-08
7.93865e-08
7.93881e-08
7.937e-08
7.94661e-08
7.94576e-08
7.94558e-08
7.93555e-08
7.94595e-08
7.94595e-08
7.83495e-08
7.83414e-08
7.83484e-08
7.82508e-08
7.82468e-08
7.82502e-08
7.82481e-08
7.83685e-08
7.83456e-08
7.83482e-08
7.82444e-08
7.80993e-08
7.80997e-08
7.80997e-08
7.80992e-08
7.82656e-08
7.82651e-08
7.82507e-08
7.80992e-08
7.81019e-08
7.81008e-08
7.81008e-08
7.81019e-08
7.80993e-08
7.83014e-08
7.837e-08
7.83494e-08
7.82467e-08
7.80997e-08
7.81008e-08
7.81003e-08
7.81003e-08
7.81009e-08
7.80997e-08
7.83008e-08
7.83682e-08
7.83415e-08
7.82503e-08
7.80997e-08
7.81008e-08
7.81003e-08
7.81003e-08
7.81009e-08
7.80997e-08
7.82988e-08
7.82679e-08
7.82482e-08
7.80993e-08
7.81019e-08
7.81008e-08
7.81008e-08
7.81019e-08
7.80993e-08
7.83005e-08
7.83718e-08
7.83688e-08
7.82657e-08
7.80992e-08
7.80996e-08
7.80996e-08
7.80992e-08
7.82875e-08
7.82827e-08
7.83719e-08
7.83457e-08
7.82639e-08
7.83011e-08
7.83006e-08
7.82986e-08
7.83003e-08
7.82822e-08
7.83782e-08
7.83697e-08
7.83679e-08
7.82677e-08
7.83716e-08
7.83716e-08
7.72623e-08
7.72543e-08
7.7261e-08
7.71636e-08
7.71596e-08
7.71631e-08
7.7161e-08
7.72814e-08
7.72585e-08
7.72613e-08
7.71573e-08
7.70122e-08
7.70127e-08
7.70127e-08
7.70123e-08
7.71785e-08
7.7178e-08
7.71638e-08
7.70123e-08
7.7015e-08
7.70138e-08
7.70139e-08
7.7015e-08
7.70123e-08
7.72143e-08
7.72829e-08
7.72624e-08
7.71597e-08
7.70127e-08
7.70139e-08
7.70134e-08
7.70134e-08
7.70139e-08
7.70128e-08
7.72137e-08
7.72811e-08
7.72544e-08
7.71632e-08
7.70127e-08
7.70139e-08
7.70134e-08
7.70134e-08
7.70139e-08
7.70128e-08
7.72117e-08
7.71808e-08
7.71611e-08
7.70123e-08
7.7015e-08
7.70138e-08
7.70139e-08
7.7015e-08
7.70123e-08
7.72134e-08
7.72847e-08
7.72816e-08
7.71786e-08
7.70122e-08
7.70127e-08
7.70127e-08
7.70123e-08
7.72005e-08
7.71956e-08
7.72847e-08
7.72586e-08
7.71769e-08
7.72141e-08
7.72136e-08
7.72116e-08
7.72132e-08
7.71951e-08
7.72911e-08
7.72827e-08
7.72809e-08
7.71807e-08
7.72845e-08
7.72845e-08
7.61758e-08
7.61678e-08
7.61748e-08
7.60773e-08
7.60732e-08
7.60767e-08
7.60746e-08
7.61949e-08
7.6172e-08
7.61745e-08
7.60708e-08
7.59259e-08
7.59263e-08
7.59263e-08
7.59259e-08
7.6092e-08
7.60916e-08
7.60771e-08
7.59258e-08
7.59286e-08
7.59275e-08
7.59275e-08
7.59287e-08
7.59259e-08
7.61279e-08
7.61964e-08
7.61758e-08
7.60731e-08
7.59263e-08
7.59275e-08
7.5927e-08
7.5927e-08
7.59275e-08
7.59264e-08
7.61272e-08
7.61945e-08
7.61678e-08
7.60766e-08
7.59263e-08
7.59275e-08
7.5927e-08
7.5927e-08
7.59275e-08
7.59264e-08
7.61253e-08
7.60944e-08
7.60745e-08
7.59258e-08
7.59286e-08
7.59275e-08
7.59275e-08
7.59287e-08
7.59259e-08
7.61269e-08
7.61982e-08
7.61949e-08
7.6092e-08
7.59259e-08
7.59263e-08
7.59263e-08
7.59259e-08
7.6114e-08
7.61091e-08
7.61982e-08
7.6172e-08
7.60915e-08
7.61278e-08
7.61272e-08
7.61252e-08
7.61268e-08
7.61087e-08
7.62046e-08
7.61963e-08
7.61945e-08
7.60943e-08
7.61981e-08
7.6198e-08
7.50899e-08
7.50819e-08
7.50888e-08
7.49914e-08
7.49873e-08
7.49907e-08
7.49886e-08
7.51089e-08
7.5086e-08
7.50885e-08
7.49849e-08
7.484e-08
7.48404e-08
7.48404e-08
7.48399e-08
7.50061e-08
7.50056e-08
7.49912e-08
7.48399e-08
7.48428e-08
7.48416e-08
7.48416e-08
7.48428e-08
7.484e-08
7.50419e-08
7.51103e-08
7.50897e-08
7.49872e-08
7.48404e-08
7.48415e-08
7.4841e-08
7.4841e-08
7.48416e-08
7.48404e-08
7.50412e-08
7.51085e-08
7.50818e-08
7.49907e-08
7.48404e-08
7.48415e-08
7.4841e-08
7.4841e-08
7.48416e-08
7.48404e-08
7.50392e-08
7.50083e-08
7.49886e-08
7.48399e-08
7.48428e-08
7.48416e-08
7.48416e-08
7.48428e-08
7.48399e-08
7.50408e-08
7.51121e-08
7.51089e-08
7.5006e-08
7.484e-08
7.48404e-08
7.48404e-08
7.484e-08
7.5028e-08
7.50227e-08
7.5112e-08
7.50859e-08
7.50055e-08
7.50419e-08
7.50412e-08
7.50393e-08
7.50409e-08
7.50231e-08
7.51186e-08
7.51104e-08
7.51085e-08
7.50084e-08
7.51122e-08
7.51122e-08
7.40043e-08
7.39963e-08
7.40032e-08
7.39058e-08
7.39017e-08
7.39052e-08
7.39031e-08
7.40235e-08
7.40005e-08
7.40029e-08
7.38993e-08
7.37544e-08
7.37549e-08
7.37549e-08
7.37544e-08
7.39206e-08
7.39189e-08
7.39056e-08
7.37544e-08
7.37572e-08
7.3756e-08
7.3756e-08
7.37572e-08
7.37544e-08
7.3956e-08
7.40245e-08
7.40042e-08
7.39016e-08
7.37548e-08
7.3756e-08
7.37555e-08
7.37555e-08
7.3756e-08
7.37548e-08
7.39555e-08
7.40227e-08
7.39962e-08
7.39051e-08
7.37548e-08
7.3756e-08
7.37555e-08
7.37555e-08
7.3756e-08
7.37548e-08
7.39535e-08
7.39226e-08
7.39031e-08
7.37544e-08
7.37572e-08
7.3756e-08
7.3756e-08
7.37572e-08
7.37543e-08
7.39551e-08
7.40264e-08
7.40235e-08
7.39205e-08
7.37543e-08
7.37548e-08
7.37548e-08
7.37544e-08
7.39423e-08
7.3937e-08
7.40263e-08
7.40005e-08
7.39189e-08
7.3956e-08
7.39555e-08
7.39536e-08
7.39553e-08
7.39375e-08
7.40329e-08
7.40246e-08
7.40228e-08
7.39227e-08
7.40265e-08
7.40265e-08
7.2919e-08
7.2911e-08
7.29179e-08
7.28205e-08
7.28164e-08
7.28199e-08
7.28178e-08
7.29382e-08
7.29152e-08
7.29176e-08
7.2814e-08
7.26692e-08
7.26696e-08
7.26696e-08
7.26692e-08
7.28353e-08
7.28336e-08
7.28203e-08
7.26691e-08
7.26719e-08
7.26707e-08
7.26707e-08
7.26719e-08
7.26691e-08
7.28707e-08
7.29392e-08
7.29188e-08
7.28163e-08
7.26695e-08
7.26707e-08
7.26702e-08
7.26702e-08
7.26707e-08
7.26695e-08
7.28702e-08
7.29374e-08
7.29109e-08
7.28198e-08
7.26695e-08
7.26707e-08
7.26702e-08
7.26702e-08
7.26707e-08
7.26695e-08
7.28683e-08
7.28374e-08
7.28178e-08
7.26691e-08
7.26719e-08
7.26707e-08
7.26707e-08
7.26719e-08
7.26691e-08
7.28699e-08
7.29411e-08
7.29381e-08
7.28352e-08
7.2669e-08
7.26695e-08
7.26695e-08
7.26691e-08
7.2857e-08
7.28521e-08
7.29412e-08
7.29152e-08
7.28335e-08
7.28707e-08
7.28702e-08
7.28682e-08
7.28698e-08
7.28517e-08
7.29475e-08
7.29392e-08
7.29374e-08
7.28373e-08
7.2941e-08
7.2941e-08
7.18338e-08
7.18258e-08
7.18327e-08
7.17353e-08
7.17312e-08
7.17347e-08
7.17326e-08
7.18528e-08
7.18299e-08
7.18325e-08
7.17289e-08
7.15841e-08
7.15845e-08
7.15845e-08
7.1584e-08
7.175e-08
7.17495e-08
7.17352e-08
7.1584e-08
7.15868e-08
7.15857e-08
7.15857e-08
7.15868e-08
7.15841e-08
7.17858e-08
7.18543e-08
7.18337e-08
7.17312e-08
7.15845e-08
7.15857e-08
7.15851e-08
7.15851e-08
7.15857e-08
7.15845e-08
7.17852e-08
7.18524e-08
7.18258e-08
7.17347e-08
7.15845e-08
7.15857e-08
7.15851e-08
7.15851e-08
7.15857e-08
7.15845e-08
7.17832e-08
7.17523e-08
7.17327e-08
7.15841e-08
7.15868e-08
7.15857e-08
7.15857e-08
7.15868e-08
7.15841e-08
7.17849e-08
7.18561e-08
7.1853e-08
7.17501e-08
7.1584e-08
7.15845e-08
7.15845e-08
7.1584e-08
7.17719e-08
7.17671e-08
7.18561e-08
7.18301e-08
7.17484e-08
7.17856e-08
7.17851e-08
7.17831e-08
7.17847e-08
7.17666e-08
7.18624e-08
7.18541e-08
7.18523e-08
7.17522e-08
7.18559e-08
7.18559e-08
7.07488e-08
7.07408e-08
7.07475e-08
7.06502e-08
7.06462e-08
7.06497e-08
7.06476e-08
7.07678e-08
7.0745e-08
7.07478e-08
7.06439e-08
7.04991e-08
7.04995e-08
7.04995e-08
7.04991e-08
7.06651e-08
7.06646e-08
7.06504e-08
7.04992e-08
7.05019e-08
7.05008e-08
7.05008e-08
7.05019e-08
7.04992e-08
7.07009e-08
7.07693e-08
7.07489e-08
7.06463e-08
7.04996e-08
7.05008e-08
7.05002e-08
7.05002e-08
7.05008e-08
7.04996e-08
7.07003e-08
7.07675e-08
7.07409e-08
7.06498e-08
7.04996e-08
7.05008e-08
7.05002e-08
7.05002e-08
7.05008e-08
7.04996e-08
7.06983e-08
7.06674e-08
7.06477e-08
7.04992e-08
7.05019e-08
7.05008e-08
7.05008e-08
7.05019e-08
7.04992e-08
7.06998e-08
7.07711e-08
7.07679e-08
7.06651e-08
7.04992e-08
7.04996e-08
7.04996e-08
7.04992e-08
7.06871e-08
7.06817e-08
7.0771e-08
7.0745e-08
7.06646e-08
7.07009e-08
7.07003e-08
7.06983e-08
7.07e-08
7.06822e-08
7.07776e-08
7.07694e-08
7.07675e-08
7.06674e-08
7.07712e-08
7.07712e-08
6.9664e-08
6.9656e-08
6.96627e-08
6.95655e-08
6.95615e-08
6.95649e-08
6.95629e-08
6.96831e-08
6.96602e-08
6.9663e-08
6.95592e-08
6.94144e-08
6.94148e-08
6.94148e-08
6.94144e-08
6.95803e-08
6.95798e-08
6.95657e-08
6.94144e-08
6.94171e-08
6.9416e-08
6.9416e-08
6.94171e-08
6.94144e-08
6.96161e-08
6.96845e-08
6.96641e-08
6.95616e-08
6.94148e-08
6.9416e-08
6.94154e-08
6.94154e-08
6.9416e-08
6.94148e-08
6.96155e-08
6.96827e-08
6.96561e-08
6.9565e-08
6.94148e-08
6.9416e-08
6.94155e-08
6.94155e-08
6.9416e-08
6.94148e-08
6.96135e-08
6.95826e-08
6.95629e-08
6.94144e-08
6.94171e-08
6.9416e-08
6.9416e-08
6.94171e-08
6.94144e-08
6.96151e-08
6.96863e-08
6.96831e-08
6.95803e-08
6.94145e-08
6.94149e-08
6.94148e-08
6.94145e-08
6.96023e-08
6.9597e-08
6.96862e-08
6.96602e-08
6.95799e-08
6.96161e-08
6.96155e-08
6.96135e-08
6.96152e-08
6.95974e-08
6.96928e-08
6.96846e-08
6.96827e-08
6.95827e-08
6.96864e-08
6.96864e-08
6.85794e-08
6.85715e-08
6.85783e-08
6.8481e-08
6.84769e-08
6.84804e-08
6.84783e-08
6.85986e-08
6.85757e-08
6.85781e-08
6.84745e-08
6.83298e-08
6.83302e-08
6.83302e-08
6.83298e-08
6.84958e-08
6.84941e-08
6.84809e-08
6.83298e-08
6.83325e-08
6.83314e-08
6.83314e-08
6.83325e-08
6.83298e-08
6.85313e-08
6.85998e-08
6.85794e-08
6.84768e-08
6.83302e-08
6.83314e-08
6.83308e-08
6.83308e-08
6.83314e-08
6.83302e-08
6.85308e-08
6.8598e-08
6.85714e-08
6.84804e-08
6.83302e-08
6.83314e-08
6.83308e-08
6.83308e-08
6.83314e-08
6.83302e-08
6.85288e-08
6.8498e-08
6.84783e-08
6.83298e-08
6.83324e-08
6.83314e-08
6.83314e-08
6.83325e-08
6.83298e-08
6.85305e-08
6.86017e-08
6.85986e-08
6.84958e-08
6.83297e-08
6.83301e-08
6.83301e-08
6.83297e-08
6.85176e-08
6.85127e-08