/*--------------------------------*- C++ -*----------------------------------*\
| =========                 |                                                 |
| \\      /  F ield         | OpenFOAM: The Open Source CFD Toolbox           |
|  \\    /   O peration     | Version:  2312                                  |
|   \\  /    A nd           | Website:  www.openfoam.com                      |
|    \\/     M anipulation  |                                                 |
\*---------------------------------------------------------------------------*/
FoamFile
{
    version     2.0;
    format      ascii;
    arch        "LSB;label=32;scalar=64";
    class       volScalarField;
    location    "875";
    object      epsilon;
}
// * * * * * * * * * * * * * * * * * * * * * * * * * * * * * * * * * * * * * //

dimensions      [0 2 -3 0 0 0 0];

internalField   nonuniform List<scalar> 
43211
(
4.9917e-07
4.99974e-07
4.99974e-07
4.99867e-07
4.45574e-07
4.54107e-07
4.54107e-07
4.63745e-07
4.03788e-07
4.18744e-07
4.18746e-07
4.39534e-07
3.68405e-07
3.88705e-07
3.88708e-07
4.17793e-07
3.38054e-07
3.62209e-07
3.62212e-07
3.96187e-07
3.11679e-07
3.38348e-07
3.38352e-07
3.74663e-07
2.885e-07
3.16691e-07
3.16695e-07
3.5377e-07
2.67943e-07
2.9706e-07
2.97064e-07
3.34192e-07
2.49595e-07
2.79396e-07
2.79401e-07
3.16515e-07
2.33147e-07
2.63696e-07
2.637e-07
3.01183e-07
2.18372e-07
2.49966e-07
2.49969e-07
2.88508e-07
2.05093e-07
2.38204e-07
2.38209e-07
2.78709e-07
1.93172e-07
2.28413e-07
2.28419e-07
2.71886e-07
1.82496e-07
2.20602e-07
2.20603e-07
2.68179e-07
1.72975e-07
2.14774e-07
2.14775e-07
2.67647e-07
1.64535e-07
2.10938e-07
2.10953e-07
2.70506e-07
1.57115e-07
2.09112e-07
2.09114e-07
2.76747e-07
1.50659e-07
2.09303e-07
2.09311e-07
2.86307e-07
1.45125e-07
2.1156e-07
2.11559e-07
2.99249e-07
1.40479e-07
2.15882e-07
2.15881e-07
3.15593e-07
1.3669e-07
2.22317e-07
2.22332e-07
3.35304e-07
5.06203e-07
5.05587e-07
5.05586e-07
5.06203e-07
5.05586e-07
5.05586e-07
5.05987e-07
5.05987e-07
5.05987e-07
5.05987e-07
5.05588e-07
5.05588e-07
5.06203e-07
5.05588e-07
5.05587e-07
5.06204e-07
4.99868e-07
4.67259e-07
4.99975e-07
4.99976e-07
4.6413e-07
4.64138e-07
4.99868e-07
4.67258e-07
4.99976e-07
4.99976e-07
4.64134e-07
4.64139e-07
4.99974e-07
4.64124e-07
4.64129e-07
4.99867e-07
4.67261e-07
4.99976e-07
4.64125e-07
4.64134e-07
4.67263e-07
4.63745e-07
4.41544e-07
4.54112e-07
4.5412e-07
4.26998e-07
4.27007e-07
4.63745e-07
4.41543e-07
4.54116e-07
4.54123e-07
4.26998e-07
4.27009e-07
4.54113e-07
4.2699e-07
4.27e-07
4.63745e-07
4.41549e-07
4.54116e-07
4.26992e-07
4.27001e-07
4.41556e-07
4.39527e-07
4.19399e-07
4.18753e-07
4.18761e-07
3.95843e-07
3.95852e-07
4.3953e-07
4.19402e-07
4.18752e-07
4.18764e-07
3.95838e-07
3.95855e-07
4.18757e-07
3.95833e-07
3.95848e-07
4.39531e-07
4.19407e-07
4.18755e-07
3.95835e-07
3.95843e-07
4.19415e-07
4.17778e-07
3.97737e-07
3.88717e-07
3.88725e-07
3.68574e-07
3.68582e-07
4.17781e-07
3.97742e-07
3.8871e-07
3.88728e-07
3.68564e-07
3.68585e-07
3.88722e-07
3.68561e-07
3.68581e-07
4.17786e-07
3.97748e-07
3.88716e-07
3.68564e-07
3.68571e-07
3.97758e-07
3.96168e-07
3.76152e-07
3.62222e-07
3.6223e-07
3.4411e-07
3.44117e-07
3.96173e-07
3.76158e-07
3.62212e-07
3.62234e-07
3.44097e-07
3.44121e-07
3.6223e-07
3.44096e-07
3.44118e-07
3.96178e-07
3.76164e-07
3.62219e-07
3.44099e-07
3.44106e-07
3.76175e-07
3.74642e-07
3.55156e-07
3.38363e-07
3.3837e-07
3.21928e-07
3.21933e-07
3.74647e-07
3.55162e-07
3.38349e-07
3.38374e-07
3.21912e-07
3.21937e-07
3.38371e-07
3.21912e-07
3.21936e-07
3.74653e-07
3.55169e-07
3.38358e-07
3.21915e-07
3.21921e-07
3.55179e-07
3.53749e-07
3.35423e-07
3.16708e-07
3.16714e-07
3.01799e-07
3.01804e-07
3.53755e-07
3.35429e-07
3.16691e-07
3.16717e-07
3.01781e-07
3.01808e-07
3.16716e-07
3.01783e-07
3.01807e-07
3.53761e-07
3.35436e-07
3.16701e-07
3.01786e-07
3.01791e-07
3.35448e-07
3.34168e-07
3.17545e-07
2.97077e-07
2.97082e-07
2.83646e-07
2.83651e-07
3.34177e-07
3.1755e-07
2.97058e-07
2.97085e-07
2.83626e-07
2.83655e-07
2.97085e-07
2.83629e-07
2.83655e-07
3.34182e-07
3.17562e-07
2.97068e-07
2.83632e-07
2.83637e-07
3.17571e-07
3.16491e-07
3.01977e-07
2.79415e-07
2.7942e-07
2.67456e-07
2.6746e-07
3.16497e-07
3.01985e-07
2.79394e-07
2.79423e-07
2.67434e-07
2.67464e-07
2.79423e-07
2.67437e-07
2.67464e-07
3.16506e-07
3.01991e-07
2.79405e-07
2.67441e-07
2.67445e-07
3.02005e-07
3.01157e-07
2.89036e-07
2.63716e-07
2.6372e-07
2.53232e-07
2.53237e-07
3.01167e-07
2.89044e-07
2.63694e-07
2.63723e-07
2.53209e-07
2.53241e-07
2.63724e-07
2.53213e-07
2.53241e-07
3.01173e-07
2.89052e-07
2.63705e-07
2.53216e-07
2.53222e-07
2.89063e-07
2.88479e-07
2.78938e-07
2.49986e-07
2.49991e-07
2.40981e-07
2.40986e-07
2.88491e-07
2.78941e-07
2.49962e-07
2.49993e-07
2.40957e-07
2.4099e-07
2.49994e-07
2.4096e-07
2.40988e-07
2.88496e-07
2.78954e-07
2.49974e-07
2.40963e-07
2.40968e-07
2.78969e-07
2.78677e-07
2.71813e-07
2.38227e-07
2.38232e-07
2.30697e-07
2.30703e-07
2.78686e-07
2.71826e-07
2.38202e-07
2.38235e-07
2.30672e-07
2.30707e-07
2.38234e-07
2.30674e-07
2.30704e-07
2.78694e-07
2.7184e-07
2.38214e-07
2.30678e-07
2.30684e-07
2.71849e-07
2.71852e-07
2.67836e-07
2.28437e-07
2.28444e-07
2.2239e-07
2.22399e-07
2.71869e-07
2.67866e-07
2.28411e-07
2.28448e-07
2.22363e-07
2.22401e-07
2.28445e-07
2.22366e-07
2.22399e-07
2.71879e-07
2.67866e-07
2.28424e-07
2.22369e-07
2.22378e-07
2.67889e-07
2.6813e-07
2.66954e-07
2.20626e-07
2.20637e-07
2.16064e-07
2.16079e-07
2.68161e-07
2.66992e-07
2.20598e-07
2.20636e-07
2.16036e-07
2.16079e-07
2.20637e-07
2.16041e-07
2.16075e-07
2.68154e-07
2.6699e-07
2.20615e-07
2.16042e-07
2.16053e-07
2.67007e-07
2.67611e-07
2.69126e-07
2.14801e-07
2.14813e-07
2.11729e-07
2.11745e-07
2.67643e-07
2.69139e-07
2.14772e-07
2.14813e-07
2.11701e-07
2.11756e-07
2.14807e-07
2.117e-07
2.11737e-07
2.67637e-07
2.69206e-07
2.14785e-07
2.11713e-07
2.11717e-07
2.69172e-07
2.70455e-07
2.74666e-07
2.10964e-07
2.10984e-07
2.09398e-07
2.09421e-07
2.70488e-07
2.74672e-07
2.10938e-07
2.10996e-07
2.09372e-07
2.09416e-07
2.10974e-07
2.09368e-07
2.0941e-07
2.70562e-07
2.7467e-07
2.10954e-07
2.09368e-07
2.09393e-07
2.74737e-07
2.76711e-07
2.83634e-07
2.09146e-07
2.09165e-07
2.09122e-07
2.09133e-07
2.76715e-07
2.8355e-07
2.09122e-07
2.09163e-07
2.09097e-07
2.09138e-07
2.0915e-07
2.09073e-07
2.09113e-07
2.76705e-07
2.83588e-07
2.09134e-07
2.09083e-07
2.09098e-07
2.83579e-07
2.86336e-07
2.95688e-07
2.09346e-07
2.09366e-07
2.10808e-07
2.10863e-07
2.86309e-07
2.95837e-07
2.09321e-07
2.09368e-07
2.10782e-07
2.10867e-07
2.09342e-07
2.10793e-07
2.10833e-07
2.86319e-07
2.95871e-07
2.09328e-07
2.10803e-07
2.10821e-07
2.95857e-07
2.99086e-07
3.11438e-07
2.11575e-07
2.11632e-07
2.14637e-07
2.14686e-07
2.99258e-07
3.11493e-07
2.11549e-07
2.11624e-07
2.14611e-07
2.14666e-07
2.11601e-07
2.14605e-07
2.14656e-07
2.99235e-07
3.11399e-07
2.11589e-07
2.14593e-07
2.14645e-07
3.11553e-07
3.15529e-07
3.30466e-07
2.15926e-07
2.15963e-07
2.20556e-07
2.20593e-07
3.15554e-07
3.3045e-07
2.159e-07
2.15955e-07
2.20527e-07
2.20605e-07
2.15932e-07
2.20505e-07
2.20559e-07
3.15497e-07
3.30533e-07
2.1592e-07
2.20523e-07
2.20549e-07
3.30504e-07
3.35246e-07
2.22369e-07
2.22409e-07
3.35246e-07
2.22338e-07
2.22417e-07
2.22375e-07
3.35316e-07
2.22365e-07
5.35653e-07
5.35523e-07
5.35636e-07
5.35636e-07
5.34569e-07
5.35438e-07
5.33635e-07
5.35608e-07
5.34569e-07
5.35438e-07
5.35608e-07
5.33635e-07
5.35198e-07
5.35984e-07
5.35983e-07
1.10651e-06
3.87797e-06
9.32087e-07
4.60319e-06
1.26012e-05
1.65942e-05
1.10694e-06
3.87829e-06
9.31846e-07
4.60413e-06
4.9917e-07
4.9917e-07
4.9917e-07
4.57217e-07
4.57217e-07
4.57217e-07
4.57217e-07
5.4296e-07
1.2178e-06
4.99137e-07
4.86008e-07
5.2501e-07
1.20859e-06
4.82348e-07
1.26025e-05
1.65956e-05
5.42967e-07
4.99137e-07
1.21778e-06
4.86008e-07
5.25009e-07
4.82348e-07
1.20857e-06
2.51892e-06
2.51951e-06
4.84042e-07
2.37147e-06
2.37214e-06
1.43151e-06
5.59234e-06
1.3307e-06
6.13506e-06
2.12847e-05
2.31117e-05
1.43187e-06
5.5931e-06
1.3305e-06
6.13632e-06
4.45574e-07
4.45574e-07
4.45575e-07
4.13573e-07
4.13573e-07
4.13574e-07
4.13574e-07
5.87299e-07
1.19528e-06
4.46483e-07
4.44622e-07
5.74002e-07
1.20483e-06
4.35743e-07
2.12863e-05
2.31128e-05
5.87309e-07
4.46484e-07
1.19533e-06
4.44623e-07
5.74008e-07
4.35743e-07
1.20486e-06
2.31294e-06
2.31338e-06
4.53586e-07
2.35426e-06
2.35453e-06
1.66354e-06
6.91706e-06
1.5961e-06
7.31869e-06
2.46421e-05
2.49387e-05
1.66359e-06
6.91813e-06
1.59612e-06
7.32005e-06
4.03788e-07
4.03789e-07
4.03789e-07
3.76731e-07
3.76731e-07
3.76732e-07
3.76733e-07
6.15706e-07
1.24319e-06
4.06598e-07
4.10825e-07
6.08546e-07
1.26593e-06
3.97781e-07
2.46435e-05
2.49399e-05
6.15715e-07
4.06599e-07
1.24313e-06
4.10826e-07
6.08557e-07
3.9778e-07
1.26592e-06
2.47448e-06
2.47492e-06
4.30312e-07
2.5331e-06
2.53357e-06
1.8124e-06
7.84515e-06
1.77232e-06
8.09709e-06
2.47384e-05
2.44317e-05
1.81247e-06
7.84673e-06
1.77239e-06
8.09866e-06
3.68405e-07
3.68407e-07
3.68407e-07
3.45233e-07
3.45234e-07
3.45235e-07
3.45236e-07
6.26359e-07
1.31336e-06
3.73523e-07
3.81796e-07
6.2497e-07
1.33395e-06
3.66073e-07
2.47397e-05
2.44325e-05
6.26371e-07
3.73526e-07
1.31335e-06
3.81798e-07
6.24978e-07
3.66074e-07
1.33396e-06
2.63558e-06
2.63605e-06
4.0859e-07
2.67961e-06
2.68012e-06
1.89281e-06
8.39587e-06
1.87305e-06
8.52808e-06
2.36941e-05
2.32666e-05
1.8929e-06
8.39738e-06
1.87313e-06
8.52988e-06
3.38055e-07
3.38056e-07
3.38057e-07
3.17947e-07
3.17948e-07
3.1795e-07
3.17951e-07
6.22127e-07
1.37227e-06
3.45276e-07
3.5602e-07
6.2548e-07
1.3873e-06
3.38801e-07
2.36951e-05
2.32666e-05
6.22143e-07
3.45279e-07
1.37227e-06
3.56022e-07
6.25491e-07
3.38803e-07
1.38731e-06
2.76372e-06
2.7643e-06
3.86933e-07
2.80544e-06
2.80602e-06
1.92984e-06
8.6641e-06
1.92161e-06
8.71844e-06
2.25022e-05
2.21212e-05
1.92992e-06
8.66527e-06
1.9217e-06
8.7201e-06
3.1168e-07
3.11682e-07
3.11683e-07
2.94029e-07
2.9403e-07
2.94032e-07
2.94033e-07
6.0888e-07
1.41612e-06
3.2052e-07
3.32738e-07
6.1538e-07
1.42768e-06
3.14774e-07
2.25038e-05
2.21214e-05
6.08896e-07
3.20525e-07
1.41614e-06
3.32741e-07
6.15392e-07
3.14776e-07
1.42769e-06
2.89511e-06
2.89574e-06
3.65562e-07
2.94357e-06
2.94426e-06
1.94784e-06
8.75947e-06
1.94346e-06
8.77083e-06
2.14775e-05
2.11792e-05
1.94793e-06
8.76047e-06
1.94355e-06
8.77215e-06
2.88501e-07
2.88503e-07
2.88504e-07
2.72861e-07
2.72863e-07
2.72865e-07
2.72866e-07
5.91844e-07
1.45278e-06
2.98431e-07
3.11598e-07
5.99354e-07
1.46408e-06
2.93265e-07
2.1479e-05
2.11788e-05
5.9186e-07
2.98436e-07
1.4528e-06
3.11601e-07
5.99366e-07
2.93267e-07
1.46412e-06
3.04941e-06
3.05014e-06
3.45115e-07
3.10669e-06
3.10753e-06
1.96553e-06
8.76862e-06
1.95944e-06
8.76321e-06
2.06743e-05
2.04537e-05
1.96562e-06
8.76957e-06
1.95953e-06
8.76479e-06
2.67945e-07
2.67947e-07
2.67948e-07
2.53993e-07
2.53994e-07
2.53997e-07
2.53998e-07
5.75424e-07
1.49165e-06
2.78515e-07
2.92461e-07
5.82249e-07
1.50554e-06
2.73841e-07
2.06762e-05
2.04529e-05
5.75438e-07
2.7852e-07
1.49169e-06
2.92464e-07
5.82261e-07
2.73844e-07
1.50556e-06
3.22676e-06
3.22768e-06
3.26246e-07
3.29241e-06
3.29335e-06
1.99546e-06
8.74843e-06
1.98423e-06
8.74421e-06
2.00729e-05
1.99104e-05
1.99554e-06
8.75036e-06
1.98431e-06
8.74523e-06
2.49596e-07
2.49598e-07
2.496e-07
2.37094e-07
2.37096e-07
2.37098e-07
2.37099e-07
5.62874e-07
1.53983e-06
2.60483e-07
2.75288e-07
5.67804e-07
1.55768e-06
2.56251e-07
2.00732e-05
1.99115e-05
5.62886e-07
2.60489e-07
1.53984e-06
2.75291e-07
5.67814e-07
2.56253e-07
1.55775e-06
3.42072e-06
3.42172e-06
3.09475e-07
3.49222e-06
3.49333e-06
2.04514e-06
8.73325e-06
2.02661e-06
8.73233e-06
1.96323e-05
1.95163e-05
2.04522e-06
8.73418e-06
2.0267e-06
8.73353e-06
2.33149e-07
2.33151e-07
2.33152e-07
2.21919e-07
2.2192e-07
2.21923e-07
2.21924e-07
5.56474e-07
1.6009e-06
2.44162e-07
2.60079e-07
5.58615e-07
1.62369e-06
2.40338e-07
1.96333e-05
1.95173e-05
5.56485e-07
2.44168e-07
1.60092e-06
2.60082e-07
5.58625e-07
2.4034e-07
1.62375e-06
3.62728e-06
3.62841e-06
2.95189e-07
3.70034e-06
3.70159e-06
2.11892e-06
8.73165e-06
2.09178e-06
8.73469e-06
1.93176e-05
1.92358e-05
2.11901e-06
8.73243e-06
2.09186e-06
8.73664e-06
2.18374e-07
2.18376e-07
2.18377e-07
2.0828e-07
2.08282e-07
2.08284e-07
2.08285e-07
5.57577e-07
1.67643e-06
2.29439e-07
2.4684e-07
5.5671e-07
1.70371e-06
2.26001e-07
1.9319e-05
1.92362e-05
5.57588e-07
2.29445e-07
1.67647e-06
2.46843e-07
5.5672e-07
2.26003e-07
1.70378e-06
3.8357e-06
3.83693e-06
2.83652e-07
3.90889e-06
3.91029e-06
2.21869e-06
8.74074e-06
2.1826e-06
8.74602e-06
1.90951e-05
1.90415e-05
2.21879e-06
8.74187e-06
2.1827e-06
8.74659e-06
2.05095e-07
2.05097e-07
2.05099e-07
1.96031e-07
1.96032e-07
1.96035e-07
1.96036e-07
5.66919e-07
1.76513e-06
2.16235e-07
2.35571e-07
5.63069e-07
1.79688e-06
2.13167e-07
1.90965e-05
1.90415e-05
5.66936e-07
2.16241e-07
1.7653e-06
2.35574e-07
5.63083e-07
2.13169e-07
1.79688e-06
4.03976e-06
4.04119e-06
2.75015e-07
4.10713e-06
4.10859e-06
2.34416e-06
8.75815e-06
2.29905e-06
8.76768e-06
1.89451e-05
1.89019e-05
2.34427e-06
8.75941e-06
2.29913e-06
8.76849e-06
1.93174e-07
1.93176e-07
1.93177e-07
1.85052e-07
1.85054e-07
1.85056e-07
1.85057e-07
5.8584e-07
1.86557e-06
2.04489e-07
2.26273e-07
5.78726e-07
1.90044e-06
2.01777e-07
1.89442e-05
1.89019e-05
5.85861e-07
2.04496e-07
1.86569e-06
2.26278e-07
5.78744e-07
2.01779e-07
1.9003e-06
4.22941e-06
4.23091e-06
2.69479e-07
4.29406e-06
4.29571e-06
2.4923e-06
8.78014e-06
2.43819e-06
8.7878e-06
1.8831e-05
1.88069e-05
2.49247e-06
8.78148e-06
2.43824e-06
8.78878e-06
1.82498e-07
1.825e-07
1.82502e-07
1.7525e-07
1.75251e-07
1.75253e-07
1.75255e-07
6.14865e-07
1.9747e-06
1.9415e-07
2.18955e-07
6.04354e-07
2.01118e-06
1.91782e-07
1.88336e-05
1.88085e-05
6.1489e-07
1.94157e-07
1.97477e-06
2.18955e-07
6.04375e-07
1.91784e-07
2.0111e-06
4.4021e-06
4.40372e-06
2.67079e-07
4.46367e-06
4.46547e-06
2.65715e-06
8.79942e-06
2.59643e-06
8.80898e-06
1.87581e-05
1.87305e-05
2.65723e-06
8.80054e-06
2.59656e-06
8.81028e-06
1.72977e-07
1.72979e-07
1.7298e-07
1.66545e-07
1.66547e-07
1.6655e-07
1.66551e-07
6.5429e-07
2.08893e-06
1.85173e-07
2.13619e-07
6.4031e-07
2.1266e-06
1.8314e-07
1.87578e-05
1.8738e-05
6.54315e-07
1.85181e-07
2.08924e-06
2.13621e-07
6.40342e-07
1.83142e-07
2.12626e-06
4.55871e-06
4.56039e-06
2.67669e-07
4.60865e-06
4.61044e-06
2.83175e-06
8.81941e-06
2.76714e-06
8.82673e-06
1.86994e-05
1.86807e-05
2.83191e-06
8.82049e-06
2.76723e-06
8.82777e-06
1.64537e-07
1.6454e-07
1.64541e-07
1.58876e-07
1.58877e-07
1.58879e-07
1.58881e-07
7.04051e-07
2.20457e-06
1.77523e-07
2.10283e-07
6.86653e-07
2.24246e-06
1.75816e-07
1.86977e-05
1.86846e-05
7.04093e-07
1.77532e-07
2.2051e-06
2.10292e-07
6.86697e-07
1.75818e-07
2.24258e-06
4.6911e-06
4.69276e-06
2.71529e-07
4.73341e-06
4.73522e-06
3.00771e-06
8.83755e-06
2.94275e-06
8.84343e-06
1.86463e-05
1.86381e-05
3.00779e-06
8.83884e-06
2.94283e-06
8.84462e-06
1.57116e-07
1.57119e-07
1.5712e-07
1.52184e-07
1.52187e-07
1.5219e-07
1.52191e-07
7.63667e-07
2.31942e-06
1.71172e-07
2.08954e-07
7.43098e-07
2.3559e-06
1.69786e-07
1.86568e-05
1.86348e-05
7.63693e-07
1.71182e-07
2.31944e-06
2.08961e-07
7.43133e-07
1.69788e-07
2.35579e-06
4.80263e-06
4.80431e-06
2.78709e-07
4.84021e-06
4.84205e-06
3.1771e-06
8.85371e-06
3.1149e-06
8.85953e-06
1.86103e-05
1.86028e-05
3.17714e-06
8.85462e-06
3.11499e-06
8.86081e-06
1.50662e-07
1.50666e-07
1.50666e-07
1.46423e-07
1.46428e-07
1.46429e-07
1.46432e-07
8.3211e-07
2.42978e-06
1.66104e-07
2.09669e-07
8.08753e-07
2.46438e-06
1.65035e-07
1.86135e-05
1.85985e-05
8.32133e-07
1.66117e-07
2.42952e-06
2.09678e-07
8.08801e-07
1.65038e-07
2.46407e-06
4.8971e-06
4.89878e-06
2.89322e-07
4.92771e-06
4.92957e-06
3.33288e-06
8.86771e-06
3.27588e-06
8.87456e-06
1.85573e-05
1.85617e-05
3.33301e-06
8.86891e-06
3.276e-06
8.87593e-06
1.4513e-07
1.45131e-07
1.45134e-07
1.4156e-07
1.41563e-07
1.41565e-07
1.41567e-07
9.07881e-07
2.53363e-06
1.6231e-07
2.12443e-07
8.82312e-07
2.56578e-06
1.61555e-07
1.85649e-05
1.85734e-05
9.07927e-07
1.62322e-07
2.5339e-06
2.1243e-07
8.82373e-07
1.61558e-07
2.56596e-06
4.97448e-06
4.97617e-06
3.0332e-07
4.99855e-06
5.00041e-06
3.47045e-06
8.88194e-06
3.4204e-06
8.88787e-06
1.85277e-05
1.85274e-05
3.47055e-06
8.88318e-06
3.42039e-06
8.88829e-06
1.40482e-07
1.40485e-07
1.40486e-07
1.3756e-07
1.37563e-07
1.37567e-07
1.37568e-07
9.89062e-07
2.6302e-06
1.5979e-07
2.17283e-07
9.61983e-07
2.65933e-06
1.59346e-07
1.85261e-05
1.85268e-05
9.89113e-07
1.59802e-07
2.62992e-06
2.17294e-07
9.62014e-07
1.59353e-07
2.6594e-06
5.03785e-06
5.03952e-06
3.20552e-07
5.05698e-06
5.05879e-06
3.58707e-06
8.89884e-06
3.54484e-06
8.90387e-06
1.84948e-05
1.84961e-05
3.5872e-06
8.90039e-06
3.54493e-06
8.90527e-06
1.36694e-07
1.36697e-07
1.36698e-07
1.07337e-06
2.71764e-06
1.58553e-07
2.24266e-07
1.0455e-06
2.74393e-06
1.58421e-07
1.8495e-05
1.07344e-06
1.58565e-07
2.71754e-06
1.04556e-06
1.58432e-07
5.08927e-06
5.09096e-06
3.41344e-07
5.10463e-06
5.10643e-06
5.35197e-07
5.35994e-07
5.35991e-07
1.09111e-05
5.81361e-07
1.09125e-05
5.81358e-07
5.28303e-07
2.43028e-06
2.43092e-06
5.40842e-07
5.40835e-07
5.34569e-07
5.35439e-07
5.33635e-07
5.35608e-07
5.34569e-07
5.35438e-07
5.33634e-07
5.35608e-07
5.30398e-07
3.47031e-06
5.68226e-07
8.19949e-07
5.30398e-07
3.47044e-06
5.68213e-07
8.1987e-07
5.29522e-07
5.28493e-07
1.16562e-06
5.06099e-07
5.32668e-07
5.28418e-07
5.191e-07
5.29522e-07
5.28493e-07
1.16566e-06
5.06099e-07
5.32665e-07
5.28418e-07
5.19098e-07
5.35197e-07
5.35989e-07
5.35988e-07
1.0912e-05
5.81341e-07
5.28303e-07
2.43059e-06
2.4307e-06
5.40836e-07
5.40831e-07
1.09126e-05
5.81344e-07
5.34569e-07
5.35438e-07
5.33635e-07
5.35608e-07
5.34569e-07
5.35438e-07
5.35608e-07
5.33635e-07
5.30397e-07
3.47071e-06
5.68221e-07
8.20183e-07
5.29521e-07
5.28493e-07
1.16582e-06
5.06099e-07
5.32666e-07
5.28418e-07
5.19105e-07
5.30398e-07
3.47076e-06
5.68197e-07
8.20179e-07
5.29522e-07
5.28493e-07
5.06099e-07
1.16578e-06
5.28418e-07
5.32662e-07
5.191e-07
5.35653e-07
5.35523e-07
5.35636e-07
5.35636e-07
5.35653e-07
5.35523e-07
5.35636e-07
5.35636e-07
5.35653e-07
5.35523e-07
5.35636e-07
5.35636e-07
5.28432e-07
5.28492e-07
5.06195e-07
5.06195e-07
5.28422e-07
5.28422e-07
5.06264e-07
5.28432e-07
5.28492e-07
5.06195e-07
5.06195e-07
5.28422e-07
5.28422e-07
5.06264e-07
5.28432e-07
5.28492e-07
5.06195e-07
5.06195e-07
5.28422e-07
5.28422e-07
5.06264e-07
5.28432e-07
5.28492e-07
5.06195e-07
5.06195e-07
5.28422e-07
5.28422e-07
5.06264e-07
5.34569e-07
5.35439e-07
5.35608e-07
5.33634e-07
5.29522e-07
5.28493e-07
1.16575e-06
5.06099e-07
5.32662e-07
5.28418e-07
5.19101e-07
5.30397e-07
3.47074e-06
5.68206e-07
8.19913e-07
5.29522e-07
5.28493e-07
5.06099e-07
1.16564e-06
5.28418e-07
5.32659e-07
5.19096e-07
5.30397e-07
3.47078e-06
5.68192e-07
8.19854e-07
5.35198e-07
5.35987e-07
5.35987e-07
1.09129e-05
5.81317e-07
5.28303e-07
2.43082e-06
2.4307e-06
5.40828e-07
5.40826e-07
1.09125e-05
5.81334e-07
5.34569e-07
5.35438e-07
5.35608e-07
5.33634e-07
5.29522e-07
5.28493e-07
5.06099e-07
1.16573e-06
5.28418e-07
5.3266e-07
5.19104e-07
5.29522e-07
5.28493e-07
5.06099e-07
1.16577e-06
5.28418e-07
5.32658e-07
5.19102e-07
5.30397e-07
3.47075e-06
5.68194e-07
8.20054e-07
5.30397e-07
3.47095e-06
5.68187e-07
8.20113e-07
5.28302e-07
2.43055e-06
2.43114e-06
5.40823e-07
5.4082e-07
1.0913e-05
5.81311e-07
1.09136e-05
5.81315e-07
1.25997e-05
1.65918e-05
1.26014e-05
1.65947e-05
2.51875e-06
2.51941e-06
4.84041e-07
2.37139e-06
2.37203e-06
2.05277e-05
1.7679e-05
2.05313e-05
1.76824e-05
4.79192e-07
2.30695e-06
2.3076e-06
2.33936e-06
2.34019e-06
1.10659e-06
3.87812e-06
9.32007e-07
4.60412e-06
5.42963e-07
1.21771e-06
4.99137e-07
4.86012e-07
5.2503e-07
1.20854e-06
4.82348e-07
5.4296e-07
1.21784e-06
4.99137e-07
4.86018e-07
5.25023e-07
1.20872e-06
4.82348e-07
1.16125e-06
5.40672e-06
4.80829e-06
1.28145e-06
1.16121e-06
5.40781e-06
4.80864e-06
1.28149e-06
5.50947e-07
4.7476e-07
1.19366e-06
4.5781e-07
1.2043e-06
4.69755e-07
5.66564e-07
5.50956e-07
4.74768e-07
1.19385e-06
4.5781e-07
1.20444e-06
4.69756e-07
5.66568e-07
2.51925e-06
2.51892e-06
4.8404e-07
2.37196e-06
2.37133e-06
1.26013e-05
1.65938e-05
2.05309e-05
1.76816e-05
4.79192e-07
2.30762e-06
2.30696e-06
2.33997e-06
2.33959e-06
2.05295e-05
1.76811e-05
5.42996e-07
1.21794e-06
4.99137e-07
4.86016e-07
5.25012e-07
1.2088e-06
4.82348e-07
1.10695e-06
3.87863e-06
9.3166e-07
4.6044e-06
5.42994e-07
4.99137e-07
1.21797e-06
4.86018e-07
5.24997e-07
4.82348e-07
1.20882e-06
1.16098e-06
5.40787e-06
4.80883e-06
1.28174e-06
5.50949e-07
4.74765e-07
1.19386e-06
4.5781e-07
1.20452e-06
4.69755e-07
5.66574e-07
1.16086e-06
5.40825e-06
4.80931e-06
1.28171e-06
5.50949e-07
4.74769e-07
4.57811e-07
1.19386e-06
4.69756e-07
1.20454e-06
5.6658e-07
1.10657e-06
3.87828e-06
9.32001e-07
4.60389e-06
5.42964e-07
4.99137e-07
1.21773e-06
4.8601e-07
5.24999e-07
4.82348e-07
1.20855e-06
1.10656e-06
3.87861e-06
9.31876e-07
4.60408e-06
5.50951e-07
4.74757e-07
1.19368e-06
4.57809e-07
1.2043e-06
4.69755e-07
5.66542e-07
1.16118e-06
5.40746e-06
4.80865e-06
1.28125e-06
5.50941e-07
4.7476e-07
4.5781e-07
1.19373e-06
4.69755e-07
1.20432e-06
5.66556e-07
1.16111e-06
5.40798e-06
4.80926e-06
1.28133e-06
2.51961e-06
2.51901e-06
4.84042e-07
2.37219e-06
2.37151e-06
1.26013e-05
1.65935e-05
2.05322e-05
1.76835e-05
4.79191e-07
2.30763e-06
2.30707e-06
2.34025e-06
2.3396e-06
2.05296e-05
1.76811e-05
5.42985e-07
4.99137e-07
1.21792e-06
4.86015e-07
5.25e-07
4.82348e-07
1.20877e-06
1.10671e-06
3.87829e-06
9.31902e-07
4.60395e-06
1.10677e-06
3.8787e-06
9.31757e-07
4.60463e-06
5.50957e-07
4.74757e-07
4.5781e-07
1.19369e-06
4.69755e-07
1.20433e-06
5.66561e-07
5.50946e-07
4.74764e-07
4.5781e-07
1.19386e-06
4.69755e-07
1.20451e-06
5.66586e-07
1.16108e-06
5.40745e-06
4.80862e-06
1.28144e-06
1.16099e-06
5.40817e-06
4.80947e-06
1.28176e-06
1.26019e-05
1.65946e-05
1.26028e-05
1.65961e-05
4.79191e-07
2.30731e-06
2.3076e-06
2.33986e-06
2.34017e-06
2.05313e-05
1.76823e-05
2.05326e-05
1.7684e-05
2.1281e-05
2.31076e-05
2.12849e-05
2.31115e-05
2.31248e-06
2.31317e-06
4.53579e-07
2.35378e-06
2.35431e-06
2.4469e-05
2.35326e-05
2.44732e-05
2.35377e-05
4.50982e-07
2.44287e-06
2.44338e-06
2.38167e-06
2.38252e-06
1.43162e-06
5.59295e-06
1.33065e-06
6.13618e-06
5.87299e-07
1.19528e-06
4.46484e-07
4.44628e-07
5.73995e-07
1.20483e-06
4.35743e-07
5.87305e-07
1.19546e-06
4.46486e-07
4.44637e-07
5.74006e-07
1.20499e-06
4.35745e-07
1.47563e-06
6.77671e-06
6.30029e-06
1.55834e-06
1.47551e-06
6.77771e-06
6.30095e-06
1.55834e-06
5.9353e-07
4.35608e-07
1.23161e-06
4.15841e-07
1.21279e-06
4.25543e-07
6.03791e-07
5.93535e-07
4.35616e-07
1.23179e-06
4.15843e-07
1.2129e-06
4.25544e-07
6.03801e-07
2.31332e-06
2.3125e-06
4.53577e-07
2.35459e-06
2.35381e-06
2.12828e-05
2.31091e-05
2.4473e-05
2.35369e-05
4.50983e-07
2.44367e-06
2.44288e-06
2.38248e-06
2.38204e-06
2.44707e-05
2.35352e-05
5.87311e-07
1.19545e-06
4.46485e-07
4.4463e-07
5.74015e-07
1.20499e-06
4.35744e-07
1.43199e-06
5.59359e-06
1.3305e-06
6.13694e-06
5.87316e-07
4.46486e-07
1.19553e-06
4.44639e-07
5.74017e-07
4.35745e-07
1.20501e-06
1.47538e-06
6.7781e-06
6.30126e-06
1.55835e-06
5.93549e-07
4.3561e-07
1.23176e-06
4.15842e-07
1.213e-06
4.25544e-07
6.03815e-07
1.47535e-06
6.7786e-06
6.30163e-06
1.55833e-06
5.93558e-07
4.35619e-07
4.15844e-07
1.23183e-06
4.25545e-07
1.213e-06
6.03821e-07
1.43159e-06
5.59296e-06
1.33088e-06
6.1359e-06
5.87303e-07
4.46485e-07
1.19536e-06
4.44628e-07
5.74003e-07
4.35744e-07
1.20489e-06
1.43175e-06
5.59349e-06
1.33079e-06
6.13653e-06
5.93538e-07
4.356e-07
1.23164e-06
4.15841e-07
1.21283e-06
4.25542e-07
6.03802e-07
1.47572e-06
6.77759e-06
6.30081e-06
1.55819e-06
5.93536e-07
4.35611e-07
4.15842e-07
1.23171e-06
4.25543e-07
1.21282e-06
6.03803e-07
1.4755e-06
6.77834e-06
6.30154e-06
1.55835e-06
2.31339e-06
2.31272e-06
4.53582e-07
2.35452e-06
2.35398e-06
2.12835e-05
2.311e-05
2.44744e-05
2.35382e-05
4.50983e-07
2.44374e-06
2.443e-06
2.38257e-06
2.38185e-06
2.44712e-05
2.35353e-05
5.8732e-07
4.46485e-07
1.1955e-06
4.44632e-07
5.74007e-07
4.35745e-07
1.20504e-06
1.43169e-06
5.593e-06
1.33078e-06
6.13597e-06
1.4319e-06
5.59399e-06
1.33054e-06
6.13679e-06
5.93546e-07
4.35602e-07
4.15841e-07
1.23165e-06
4.25542e-07
1.21282e-06
6.03814e-07
5.93552e-07
4.35611e-07
4.15843e-07
1.23186e-06
4.25544e-07
1.21303e-06
6.0382e-07
1.47571e-06
6.77763e-06
6.3009e-06
1.55816e-06
1.47544e-06
6.77885e-06
6.302e-06
1.55838e-06
2.1285e-05
2.31115e-05
2.12869e-05
2.3113e-05
4.50985e-07
2.4433e-06
2.44373e-06
2.38214e-06
2.38256e-06
2.4473e-05
2.3537e-05
2.44749e-05
2.35388e-05
2.4638e-05
2.49348e-05
2.46426e-05
2.49393e-05
2.47401e-06
2.47483e-06
4.30297e-07
2.53272e-06
2.53335e-06
2.48365e-05
2.49369e-05
2.48407e-05
2.49413e-05
4.28599e-07
2.61107e-06
2.6117e-06
2.56075e-06
2.56144e-06
1.66354e-06
6.91797e-06
1.5961e-06
7.3198e-06
6.15693e-07
1.24308e-06
4.06599e-07
4.10834e-07
6.08533e-07
1.26586e-06
3.9778e-07
6.157e-07
1.24326e-06
4.06601e-07
4.10843e-07
6.08544e-07
1.26604e-06
3.97782e-07
1.69473e-06
7.75708e-06
7.43221e-06
1.74788e-06
1.69473e-06
7.75869e-06
7.43343e-06
1.74788e-06
6.18952e-07
4.03207e-07
1.30117e-06
3.81274e-07
1.27844e-06
3.89349e-07
6.23109e-07
6.18958e-07
4.03216e-07
1.30134e-06
3.81277e-07
1.27862e-06
3.89351e-07
6.23114e-07
2.47487e-06
2.47434e-06
4.30299e-07
2.53353e-06
2.53284e-06
2.46402e-05
2.49369e-05
2.48402e-05
2.49406e-05
4.28601e-07
2.61187e-06
2.61115e-06
2.56161e-06
2.56091e-06
2.48385e-05
2.4939e-05
6.15713e-07
1.24329e-06
4.066e-07
4.10831e-07
6.08558e-07
1.26605e-06
3.97782e-07
1.66358e-06
6.9187e-06
1.59611e-06
7.32046e-06
6.15715e-07
4.06602e-07
1.24329e-06
4.10846e-07
6.08562e-07
3.97784e-07
1.26609e-06
1.69478e-06
7.75847e-06
7.43355e-06
1.74794e-06
6.18974e-07
4.03203e-07
1.30137e-06
3.81276e-07
1.27864e-06
3.89351e-07
6.2313e-07
1.69477e-06
7.75922e-06
7.43438e-06
1.74794e-06
6.18976e-07
4.03219e-07
3.81278e-07
1.30141e-06
3.89353e-07
1.27867e-06
6.2313e-07
1.66359e-06
6.91777e-06
1.5963e-06
7.31943e-06
6.15705e-07
4.066e-07
1.24319e-06
4.10838e-07
6.08547e-07
3.97782e-07
1.26596e-06
1.66358e-06
6.91847e-06
1.59612e-06
7.32038e-06
6.18967e-07
4.03197e-07
1.30123e-06
3.81275e-07
1.27852e-06
3.89348e-07
6.23126e-07
1.6949e-06
7.75867e-06
7.43381e-06
1.74792e-06
6.18963e-07
4.03212e-07
3.81276e-07
1.30128e-06
3.89351e-07
1.27856e-06
6.23123e-07
1.69477e-06
7.75879e-06
7.43379e-06
1.74793e-06
2.47493e-06
2.4742e-06
4.30304e-07
2.53358e-06
2.53282e-06
2.46404e-05
2.49369e-05
2.48413e-05
2.49419e-05
4.28604e-07
2.61192e-06
2.61113e-06
2.56166e-06
2.56096e-06
2.48385e-05
2.49389e-05
6.1572e-07
4.06601e-07
1.24334e-06
4.10835e-07
6.08562e-07
3.97783e-07
1.26613e-06
1.66358e-06
6.91796e-06
1.59629e-06
7.31967e-06
1.66362e-06
6.91903e-06
1.59616e-06
7.32096e-06
6.18976e-07
4.03199e-07
3.81275e-07
1.30123e-06
3.8935e-07
1.27851e-06
6.23135e-07
6.18981e-07
4.03208e-07
3.81277e-07
1.30145e-06
3.89352e-07
1.27872e-06
6.23138e-07
1.6949e-06
7.75868e-06
7.43355e-06
1.74801e-06
1.69481e-06
7.75942e-06
7.43433e-06
1.74798e-06
2.46422e-05
2.49386e-05
2.46442e-05
2.49405e-05
4.28609e-07
2.61144e-06
2.61192e-06
2.56121e-06
2.56165e-06
2.48401e-05
2.49406e-05
2.48418e-05
2.49424e-05
2.4735e-05
2.44284e-05
2.47392e-05
2.44322e-05
2.63516e-06
2.63583e-06
4.08572e-07
2.67924e-06
2.67989e-06
2.38681e-05
2.42707e-05
2.38715e-05
2.42744e-05
4.0698e-07
2.74223e-06
2.7429e-06
2.701e-06
2.70167e-06
1.81239e-06
7.84576e-06
1.77232e-06
8.0983e-06
6.26342e-07
1.31327e-06
3.73525e-07
3.81807e-07
6.24952e-07
1.33389e-06
3.66073e-07
6.26344e-07
1.31346e-06
3.73527e-07
3.81816e-07
6.24956e-07
1.33406e-06
3.66075e-07
1.83082e-06
8.34959e-06
8.16276e-06
1.85967e-06
1.83082e-06
8.35019e-06
8.16291e-06
1.85967e-06
6.26773e-07
3.75098e-07
1.3626e-06
3.5197e-07
1.34482e-06
3.58896e-07
6.25664e-07
6.26775e-07
3.75106e-07
1.36277e-06
3.51972e-07
1.34502e-06
3.58898e-07
6.25664e-07
2.63599e-06
2.63528e-06
4.08576e-07
2.68005e-06
2.67932e-06
2.47371e-05
2.44301e-05
2.38713e-05
2.42738e-05
4.06984e-07
2.74304e-06
2.74231e-06
2.70184e-06
2.70111e-06
2.38695e-05
2.42724e-05
6.26362e-07
1.31348e-06
3.73526e-07
3.818e-07
6.24975e-07
1.33409e-06
3.66075e-07
1.81246e-06
7.84733e-06
1.77238e-06
8.09955e-06
6.2636e-07
3.73529e-07
1.31352e-06
3.81819e-07
6.24975e-07
3.66078e-07
1.33414e-06
1.8309e-06
8.35131e-06
8.16434e-06
1.85975e-06
6.26794e-07
3.7509e-07
1.36281e-06
3.51972e-07
1.34504e-06
3.58898e-07
6.25683e-07
1.83089e-06
8.35236e-06
8.16445e-06
1.85974e-06
6.26793e-07
3.7511e-07
3.51975e-07
1.36285e-06
3.589e-07
1.34508e-06
6.2568e-07
1.81242e-06
7.84699e-06
1.77249e-06
8.09957e-06
6.26357e-07
3.73526e-07
1.31341e-06
3.81814e-07
6.24965e-07
3.66075e-07
1.334e-06
1.81245e-06
7.84673e-06
1.77237e-06
8.09875e-06
6.26791e-07
3.75085e-07
1.36267e-06
3.5197e-07
1.34491e-06
3.58894e-07
6.2568e-07
1.83098e-06
8.35231e-06
8.16363e-06
1.85969e-06
6.26787e-07
3.75105e-07
3.51972e-07
1.36272e-06
3.58897e-07
1.34496e-06
6.25678e-07
1.83088e-06
8.35135e-06
8.16436e-06
1.85972e-06
2.63605e-06
2.63533e-06
4.08581e-07
2.68012e-06
2.67931e-06
2.47369e-05
2.44299e-05
2.38718e-05
2.42749e-05
4.06989e-07
2.74314e-06
2.74232e-06
2.7019e-06
2.70116e-06
2.38694e-05
2.42724e-05
6.26371e-07
3.73528e-07
1.31357e-06
3.81806e-07
6.24982e-07
3.66077e-07
1.33419e-06
1.81252e-06
7.84605e-06
1.77245e-06
8.09851e-06
1.8125e-06
7.847e-06
1.77242e-06
8.09905e-06
6.26802e-07
3.75088e-07
3.51972e-07
1.36268e-06
3.58897e-07
1.34491e-06
6.25695e-07
6.26804e-07
3.75096e-07
3.51974e-07
1.36291e-06
3.58899e-07
1.34513e-06
6.25694e-07
1.83095e-06
8.35044e-06
8.16294e-06
1.8598e-06
1.83093e-06
8.35107e-06
8.1644e-06
1.85978e-06
2.47387e-05
2.44315e-05
2.47404e-05
2.44327e-05
4.06997e-07
2.74259e-06
2.74315e-06
2.7014e-06
2.70191e-06
2.38711e-05
2.42741e-05
2.38722e-05
2.42757e-05
2.3691e-05
2.32631e-05
2.36944e-05
2.32661e-05
2.7633e-06
2.764e-06
3.86912e-07
2.80509e-06
2.8058e-06
2.267e-05
2.30847e-05
2.26728e-05
2.30877e-05
3.85367e-07
2.87139e-06
2.87215e-06
2.82682e-06
2.82757e-06
1.89281e-06
8.3962e-06
1.87305e-06
8.52845e-06
6.22111e-07
1.37218e-06
3.45278e-07
3.56033e-07
6.25462e-07
1.38723e-06
3.38801e-07
6.2211e-07
1.37238e-06
3.4528e-07
3.56041e-07
6.25463e-07
1.38741e-06
3.38803e-07
1.90221e-06
8.64658e-06
8.5582e-06
1.91512e-06
1.90221e-06
8.64711e-06
8.55881e-06
1.91511e-06
6.21491e-07
3.49998e-07
1.40852e-06