/*--------------------------------*- C++ -*----------------------------------*\
| =========                 |                                                 |
| \\      /  F ield         | OpenFOAM: The Open Source CFD Toolbox           |
|  \\    /   O peration     | Version:  2312                                  |
|   \\  /    A nd           | Website:  www.openfoam.com                      |
|    \\/     M anipulation  |                                                 |
\*---------------------------------------------------------------------------*/
FoamFile
{
    version     2.0;
    format      ascii;
    arch        "LSB;label=32;scalar=64";
    class       volScalarField;
    location    "875";
    object      nut;
}
// * * * * * * * * * * * * * * * * * * * * * * * * * * * * * * * * * * * * * //

dimensions      [0 2 -1 0 0 0 0];

internalField   nonuniform List<scalar> 
43211
(
0.000233969
0.000233549
0.000233549
0.00023345
0.000232529
0.000227583
0.000227583
0.000223835
0.000230489
0.000220163
0.000220162
0.00020903
0.00022776
0.000211546
0.000211544
0.0001937
0.00022439
0.000202555
0.000202552
0.00017963
0.000220508
0.000193694
0.000193691
0.000167269
0.000216261
0.00018521
0.000185206
0.000156525
0.000211779
0.000177178
0.000177173
0.000147154
0.000207168
0.00016964
0.000169635
0.000138899
0.000202509
0.000162569
0.000162564
0.000131577
0.000197856
0.000155912
0.000155905
0.000124922
0.000193245
0.000149615
0.000149608
0.00011879
0.000188655
0.000143638
0.000143631
0.000113137
0.000184125
0.000137913
0.000137927
0.000107913
0.000179677
0.000132493
0.00013245
0.000103262
0.000175317
0.000127207
0.000127167
9.82038e-05
0.000171017
0.000122024
0.000122168
9.38113e-05
0.000166776
0.000117423
0.000117166
9.10257e-05
0.000162564
0.000112449
0.000112822
8.66351e-05
0.000158397
0.000109257
0.000108746
8.76467e-05
0.000154304
0.000104805
0.000104998
8.17593e-05
0.000234257
0.000234459
0.00023446
0.000234257
0.000234459
0.000234459
0.000234259
0.000234259
0.000234259
0.000234259
0.000234459
0.000234459
0.000234257
0.000234458
0.000234459
0.000234257
0.00023345
0.00022618
0.000233549
0.000233548
0.000229126
0.000229122
0.00023345
0.00022618
0.000233548
0.000233548
0.000229124
0.000229121
0.000233549
0.000229129
0.000229127
0.00023345
0.000226179
0.000233548
0.000229129
0.000229124
0.000226178
0.000223836
0.000212153
0.00022758
0.000227575
0.000222162
0.000222156
0.000223835
0.000212153
0.000227578
0.000227574
0.000222162
0.000222155
0.000227579
0.000222168
0.000222161
0.000223836
0.00021215
0.000227578
0.000222167
0.000222161
0.000212146
0.000209034
0.000196981
0.000220156
0.00022015
0.000213753
0.000213746
0.000209032
0.000196979
0.000220157
0.000220148
0.000213758
0.000213744
0.000220154
0.000213762
0.00021375
0.000209031
0.000196975
0.000220156
0.000213761
0.000213754
0.00019697
0.000193708
0.000182804
0.000211535
0.000211528
0.000204791
0.000204784
0.000193707
0.000182802
0.000211541
0.000211526
0.0002048
0.000204781
0.000211531
0.000204804
0.000204786
0.000193704
0.000182799
0.000211537
0.000204802
0.000204795
0.000182792
0.000179642
0.000170206
0.000202541
0.000202534
0.000195864
0.000195857
0.000179638
0.000170204
0.000202551
0.000202531
0.000195876
0.000195853
0.000202536
0.000195879
0.000195858
0.000179635
0.000170199
0.000202545
0.000195877
0.00019587
0.000170191
0.000167283
0.000159191
0.000193677
0.00019367
0.000187271
0.000187264
0.00016728
0.000159187
0.00019369
0.000193666
0.000187287
0.00018726
0.000193671
0.000187289
0.000187265
0.000167275
0.000159181
0.000193684
0.000187286
0.000187279
0.000159175
0.000156539
0.000149569
0.00018519
0.000185183
0.000179118
0.000179111
0.000156538
0.000149564
0.000185207
0.000185179
0.000179137
0.000179106
0.000185183
0.000179139
0.000179111
0.000156532
0.00014956
0.000185198
0.000179135
0.000179129
0.000149551
0.000147169
0.000141069
0.000177155
0.000177148
0.000171454
0.000171447
0.000147163
0.000141069
0.000177175
0.000177144
0.000171476
0.000171442
0.000177148
0.000171477
0.000171447
0.000147157
0.00014106
0.000177166
0.000171474
0.000171466
0.000141049
0.000138921
0.000133522
0.000169615
0.000169607
0.000164269
0.000164261
0.000138913
0.000133508
0.000169637
0.000169603
0.000164293
0.000164256
0.000169608
0.000164294
0.000164262
0.000138908
0.000133503
0.000169628
0.00016429
0.000164284
0.000133499
0.000131592
0.000126657
0.000162541
0.000162534
0.000157511
0.000157504
0.000131586
0.000126654
0.000162565
0.00016253
0.000157538
0.0001575
0.000162535
0.000157539
0.000157506
0.000131581
0.000126655
0.000162557
0.000157536
0.000157529
0.000126643
0.00012493
0.000120355
0.000155883
0.000155876
0.00015113
0.00015112
0.00012493
0.000120338
0.000155911
0.000155869
0.000151159
0.000151115
0.000155878
0.000151157
0.00015112
0.000124923
0.000120333
0.000155902
0.000151153
0.000151144
0.000120311
0.000118825
0.000114417
0.000149584
0.000149577
0.00014507
0.000145064
0.000118822
0.000114441
0.000149613
0.000149571
0.0001451
0.000145061
0.000149577
0.000145103
0.000145067
0.000118787
0.000114423
0.000149601
0.000145101
0.000145092
0.000114387
0.000113164
0.000108835
0.000143605
0.000143596
0.000139298
0.000139296
0.000113172
0.000108846
0.000143635
0.000143592
0.000139329
0.000139286
0.000143599
0.000139336
0.000139298
0.000113175
0.000108817
0.000143625
0.000139325
0.000139325
0.000108809
0.000107973
0.000103692
0.000137891
0.000137873
0.000133747
0.000133812
0.000107908
0.000103979
0.000137922
0.000137888
0.000133778
0.000133748
0.000137885
0.000133852
0.000133804
0.000107968
0.0001037
0.000137911
0.000133791
0.00013383
0.000103883
0.000103091
9.94277e-05
0.000132392
0.000132453
0.0001285
0.000128404
0.000103342
9.89967e-05
0.000132423
0.000132409
0.000128529
0.00012842
0.000132465
0.000128448
0.000128356
0.000103118
9.91107e-05
0.000132492
0.000128462
0.00012838
9.87209e-05
9.86993e-05
9.51032e-05
0.000127153
0.000127163
0.000123385
0.000123188
9.8387e-05
9.43804e-05
0.000127182
0.000127125
0.000123412
0.000123384
0.000127171
0.000123231
0.000123267
9.84169e-05
9.51924e-05
0.000127194
0.000123426
0.000123289
9.46857e-05
9.44218e-05
9.11878e-05
0.000122156
0.00012198
0.000118465
0.000118539
9.36659e-05
9.18511e-05
0.000122182
0.000122127
0.000118489
0.000118044
0.00012197
0.000118582
0.000118574
9.43657e-05
9.015e-05
0.000121989
0.000118086
0.000118594
9.17712e-05
9.05558e-05
8.78971e-05
0.000117386
0.000117377
0.00011373
0.000113728
9.10438e-05
8.77881e-05
0.000117411
0.000117124
0.000113753
0.000114028
0.000117433
0.000113772
0.000113584
8.95474e-05
8.94453e-05
0.000117452
0.000114069
0.0001136
8.74676e-05
8.70805e-05
8.61248e-05
0.000112761
0.000112406
0.00010976
0.000110107
8.68887e-05
8.73446e-05
0.000112787
0.000112782
0.00010978
0.00011021
0.000112449
0.000110151
0.000110271
8.85633e-05
8.68548e-05
0.000112467
0.000110251
0.000110287
8.81313e-05
8.5399e-05
8.45139e-05
0.000108676
0.000109209
0.000106004
0.000105622
8.71261e-05
8.32393e-05
0.000108695
0.0001087
0.000106022
0.000105454
0.000109405
0.000105662
0.000105436
8.58844e-05
8.22693e-05
0.000109421
0.000105495
0.000105447
8.28113e-05
8.42083e-05
0.000105175
0.000104766
8.25973e-05
0.000105195
0.000104963
0.000104492
8.2984e-05
0.000104502
0.000234728
0.000234779
0.000234733
0.000234733
0.00023511
0.000234805
0.000234701
0.000234742
0.000235111
0.000234806
0.000234742
0.000234701
0.000234859
0.000233567
0.000233568
0.000104728
3.87617e-05
0.000129352
3.98353e-05
2.16916e-05
2.28358e-05
0.00010469
3.87577e-05
0.000129384
3.98321e-05
0.000233969
0.000233969
0.000233969
0.000232943
0.000232943
0.000232943
0.000232943
0.000206272
9.38651e-05
0.000233996
0.00023175
0.000222759
8.73162e-05
0.000233595
2.16909e-05
2.28351e-05
0.000206271
0.000233996
9.38633e-05
0.00023175
0.000222758
0.000233595
8.73207e-05
4.78466e-05
4.78372e-05
0.000231405
4.40454e-05
4.40308e-05
7.2548e-05
4.24354e-05
8.13598e-05
4.37627e-05
2.47743e-05
2.54622e-05
7.25338e-05
4.24305e-05
8.13689e-05
4.37591e-05
0.000232529
0.000232529
0.000232529
0.000231062
0.000231062
0.000231062
0.000231062
0.000167435
7.94473e-05
0.000232049
0.000225895
0.000180159
7.45113e-05
0.000231341
2.47741e-05
2.54617e-05
0.000167434
0.000232048
7.94403e-05
0.000225894
0.000180155
0.000231341
7.45158e-05
3.91545e-05
3.91479e-05
0.000219528
3.65677e-05
3.65595e-05
5.62747e-05
4.55479e-05
6.11173e-05
4.6413e-05
2.60123e-05
2.61162e-05
5.62725e-05
4.55434e-05
6.11154e-05
4.64086e-05
0.000230489
0.000230488
0.000230488
0.000228506
0.000228506
0.000228505
0.000228505
0.000138568
6.7429e-05
0.000228606
0.000218084
0.000148027
6.35214e-05
0.000227497
2.60114e-05
2.61153e-05
0.000138568
0.000228604
6.74291e-05
0.000218083
0.000148023
0.000227497
6.35216e-05
3.32122e-05
3.32059e-05
0.000204526
3.19874e-05
3.198e-05
4.69625e-05
4.74999e-05
4.9906e-05
4.80031e-05
2.60461e-05
2.5938e-05
4.69607e-05
4.74957e-05
4.99044e-05
4.79987e-05
0.00022776
0.000227759
0.000227759
0.000225286
0.000225285
0.000225284
0.000225284
0.000117531
5.82086e-05
0.000223682
0.000209307
0.000124582
5.54881e-05
0.000222268
2.60452e-05
2.5937e-05
0.00011753
0.000223679
5.82086e-05
0.000209305
0.000124577
0.000222268
5.54871e-05
3.06118e-05
3.06061e-05
0.000189694
3.02985e-05
3.02928e-05
4.14265e-05
4.85864e-05
4.32435e-05
4.88396e-05
2.56743e-05
2.5519e-05
4.14253e-05
4.85819e-05
4.32421e-05
4.88356e-05
0.000224389
0.000224388
0.000224387
0.000221518
0.000221517
0.000221515
0.000221515
0.000102105
5.1879e-05
0.000217733
0.000200313
0.00010737
5.00768e-05
0.000216141
2.56734e-05
2.55177e-05
0.000102104
0.000217729
5.18793e-05
0.000200311
0.000107365
0.000216139
5.00777e-05
3.01799e-05
3.01745e-05
0.000176292
3.03604e-05
3.03535e-05
3.81548e-05
4.90989e-05
3.92427e-05
4.92005e-05
2.52364e-05
2.50932e-05
3.8154e-05
4.90936e-05
3.92416e-05
4.91961e-05
0.000220507
0.000220505
0.000220504
0.000217349
0.000217348
0.000217345
0.000217345
9.04918e-05
4.77392e-05
0.000211234
0.000191532
9.44552e-05
4.66124e-05
0.000209565
2.52357e-05
2.5092e-05
9.04928e-05
0.000211229
4.77387e-05
0.000191529
9.44506e-05
0.000209563
4.66124e-05
3.10539e-05
3.1051e-05
0.000164494
3.16093e-05
3.16009e-05
3.63751e-05
4.92783e-05
3.69403e-05
4.92994e-05
2.48473e-05
2.47316e-05
3.63743e-05
4.92726e-05
3.69393e-05
4.92943e-05
0.000216259
0.000216257
0.000216256
0.000212915
0.000212913
0.00021291
0.00021291
8.15862e-05
4.51701e-05
0.000204547
0.000183156
8.467e-05
4.4557e-05
0.000202872
2.48467e-05
2.47304e-05
8.15871e-05
0.00020454
4.51703e-05
0.000183152
8.46663e-05
0.000202869
4.45495e-05
3.24367e-05
3.24355e-05
0.000154208
3.33946e-05
3.33786e-05
3.56761e-05
4.92955e-05
3.58225e-05
4.92848e-05
2.45335e-05
2.44459e-05
3.56757e-05
4.92897e-05
3.58209e-05
4.92801e-05
0.000211777
0.000211775
0.000211773
0.000208328
0.000208326
0.000208322
0.000208321
7.46431e-05
4.37764e-05
0.000197909
0.000175245
7.71173e-05
4.35164e-05
0.000196271
2.45331e-05
2.44445e-05
7.46484e-05
0.000197901
4.37724e-05
0.000175242
7.71114e-05
0.000196268
4.35212e-05
3.44734e-05
3.44628e-05
0.000145165
3.56024e-05
3.56097e-05
3.57602e-05
4.92578e-05
3.56391e-05
4.92492e-05
2.42932e-05
2.42278e-05
3.57597e-05
4.92539e-05
3.56385e-05
4.92435e-05
0.000207166
0.000207163
0.000207162
0.000203674
0.000203672
0.000203668
0.000203667
6.91729e-05
4.32316e-05
0.000191456
0.000167829
7.1204e-05
4.32381e-05
0.000189871
2.42923e-05
2.42269e-05
6.91824e-05
0.000191448
4.32354e-05
0.000167826
7.11986e-05
0.000189867
4.32398e-05
3.70592e-05
3.70736e-05
0.000137175
3.78921e-05
3.78756e-05
3.65832e-05
4.92288e-05
3.6204e-05
4.92275e-05
2.41145e-05
2.4067e-05
3.65853e-05
4.92231e-05
3.62045e-05
4.92218e-05
0.000202507
0.000202503
0.000202501
0.000199015
0.000199013
0.000199008
0.000199007
6.48714e-05
4.33793e-05
0.000185216
0.000160867
6.65068e-05
4.35756e-05
0.000183689
2.41136e-05
2.40659e-05
6.48647e-05
0.000185207
4.33982e-05
0.000160862
6.65119e-05
0.000183685
4.35454e-05
3.94844e-05
3.94863e-05
0.000129991
4.04271e-05
4.04298e-05
3.8128e-05
4.92258e-05
3.7342e-05
4.92319e-05
2.39851e-05
2.3951e-05
3.81457e-05
4.92197e-05
3.73382e-05
4.92279e-05
0.000197854
0.000197849
0.000197848
0.00019439
0.000194387
0.000194382
0.000194381
6.15066e-05
4.40819e-05
0.000179233
0.000154303
6.27541e-05
4.43959e-05
0.000177777
2.39841e-05
2.39499e-05
6.15102e-05
0.000179224
4.40553e-05
0.000154301
6.27554e-05
0.000177773
4.43986e-05
4.18223e-05
4.18411e-05
0.000123425
4.3124e-05
4.31225e-05
4.01104e-05
4.92433e-05
3.91682e-05
4.92523e-05
2.38924e-05
2.38703e-05
4.01073e-05
4.92378e-05
3.91771e-05
4.92457e-05
0.000193242
0.000193238
0.000193236
0.0001898
0.000189797
0.000189793
0.000189792
5.90027e-05
4.51977e-05
0.000173531
0.000148087
5.98547e-05
4.56648e-05
0.00017214
2.38918e-05
2.38688e-05
5.90067e-05
0.000173521
4.52102e-05
0.000148082
5.9855e-05
0.000172136
4.56503e-05
4.43897e-05
4.43973e-05
0.000117334
4.53921e-05
4.53903e-05
4.26242e-05
4.92754e-05
4.1423e-05
4.92933e-05
2.38299e-05
2.38116e-05
4.26212e-05
4.92702e-05
4.14309e-05
4.92872e-05
0.00018865
0.000188647
0.000188644
0.000185247
0.000185246
0.000185239
0.000185239
5.72155e-05
4.67074e-05
0.000168081
0.000142192
5.77236e-05
4.72573e-05
0.000166748
2.38281e-05
2.38102e-05
5.7203e-05
0.000168069
4.6738e-05
0.000142169
5.77209e-05
0.000166743
4.7247e-05
4.68249e-05
4.68125e-05
0.000111587
4.77891e-05
4.77964e-05
4.5568e-05
4.93169e-05
4.42261e-05
4.9331e-05
2.37818e-05
2.37716e-05
4.55654e-05
4.93118e-05
4.42327e-05
4.93253e-05
0.000184119
0.000184117
0.000184113
0.00018078
0.000180789
0.000180776
0.000180782
5.60257e-05
4.84912e-05
0.000162846
0.000136516
5.63266e-05
4.90551e-05
0.000161563
2.37816e-05
2.37711e-05
5.60332e-05
0.000162834
4.85121e-05
0.000136527
5.63301e-05
0.000161559
4.9172e-05
4.93624e-05
4.93588e-05
0.000106156
4.93558e-05
4.9358e-05
4.88122e-05
4.9353e-05
4.73531e-05
4.93708e-05
2.37512e-05
2.37392e-05
4.88035e-05
4.93472e-05
4.73359e-05
4.93653e-05
0.000179686
0.000179674
0.000179682
0.000176407
0.000176395
0.000176394
0.000176381
5.55354e-05
5.06734e-05
0.000157797
0.000131094
5.56077e-05
5.12336e-05
0.000156556
2.37497e-05
2.37413e-05
5.55346e-05
0.000157785
5.05115e-05
0.000131111
5.5605e-05
0.00015655
5.12801e-05
5.1756e-05
5.17606e-05
0.000101421
5.14538e-05
5.14536e-05
5.22646e-05
4.93905e-05
5.0739e-05
4.9404e-05
2.3727e-05
2.37185e-05
5.22528e-05
4.93846e-05
5.07238e-05
4.9398e-05
0.000175319
0.000175308
0.00017531
0.000172088
0.000172067
0.000172088
0.000172069
5.5664e-05
5.27893e-05
0.000152903
0.000125908
5.55051e-05
5.35928e-05
0.000151698
2.37242e-05
2.37186e-05
5.56444e-05
0.000152893
5.26303e-05
0.000125895
5.55002e-05
0.000151694
5.3411e-05
5.28558e-05
5.28544e-05
9.74366e-05
5.41176e-05
5.41182e-05
5.57034e-05
4.94243e-05
5.42244e-05
4.94353e-05
2.37036e-05
2.37007e-05
5.57428e-05
4.94188e-05
5.42402e-05
4.94296e-05
0.000170997
0.00017102
0.000170985
0.000167831
0.000167824
0.000167757
0.000167829
5.63593e-05
5.47628e-05
0.000148153
0.000120916
5.60419e-05
5.56934e-05
0.000146989
2.3707e-05
2.36981e-05
5.63783e-05
0.000148145
5.51392e-05
0.000120801
5.60594e-05
0.000146974
5.6024e-05
5.47306e-05
5.46951e-05
9.28705e-05
5.54173e-05
5.54409e-05
5.91335e-05
4.94543e-05
5.76536e-05
4.94653e-05
2.36886e-05
2.36858e-05
5.91226e-05
4.94481e-05
5.758e-05
4.94597e-05
0.000166777
0.000166739
0.00016678
0.000163584
0.000163577
0.000163603
0.000163549
5.77081e-05
5.7205e-05
0.000143539
0.000116274
5.71891e-05
5.82449e-05
0.000142392
2.36881e-05
2.36828e-05
5.76867e-05
0.000143512
5.66529e-05
0.000116388
5.71323e-05
0.000142392
5.84316e-05
5.67062e-05
5.67244e-05
8.97177e-05
5.70733e-05
5.70521e-05
6.21838e-05
4.94804e-05
6.09207e-05
4.94927e-05
2.36662e-05
2.36681e-05
6.21699e-05
4.94747e-05
6.08647e-05
4.94877e-05
0.000162497
0.000162554
0.000162498
0.000159456
0.000159498
0.000159525
0.000159519
5.94073e-05
5.92215e-05
0.000138978
0.00011148
5.88202e-05
5.98237e-05
0.000137875
2.36673e-05
2.36716e-05
5.93868e-05
0.000138995
5.87305e-05
0.000111948
5.88262e-05
0.0001379
6.03866e-05
5.72707e-05
5.72826e-05
8.6646e-05
5.79851e-05
5.79828e-05
6.51159e-05
4.95063e-05
6.40757e-05
4.95171e-05
2.36534e-05
2.36534e-05
6.50068e-05
4.95014e-05
6.41139e-05
4.95106e-05
0.000158487
0.000158384
0.000158518
0.000155319
0.000155239
0.000155208
0.000155196
6.18335e-05
6.18033e-05
0.000134632
0.000108065
6.10186e-05
6.25676e-05
0.000133542
2.36512e-05
2.36516e-05
6.17686e-05
0.000134587
6.18711e-05
0.000107261
6.1078e-05
0.000133472
6.21204e-05
5.93999e-05
5.94121e-05
8.61064e-05
5.97874e-05
5.97775e-05
6.77673e-05
4.9538e-05
6.67001e-05
4.95479e-05
2.36392e-05
2.36397e-05
6.78408e-05
4.9533e-05
6.66789e-05
4.95428e-05
0.000154215
0.00015425
0.00015415
6.42117e-05
6.35697e-05
0.000130277
0.000103978
6.3384e-05
6.45181e-05
0.000129242
2.36381e-05
6.4279e-05
0.000130279
6.37195e-05
6.33608e-05
0.000129278
5.9993e-05
5.99857e-05
8.17035e-05
6.04963e-05
6.04986e-05
0.000234859
0.000233563
0.000233564
2.32642e-05
0.000214153
2.32631e-05
0.000214154
0.000234445
5.13551e-05
5.13404e-05
0.000229986
0.000229989
0.000235111
0.000234805
0.000234701
0.000234742
0.000235111
0.000234806
0.000234701
0.000234742
0.000234476
4.02776e-05
0.000218806
0.000148036
0.000234476
4.02761e-05
0.000218812
0.000148048
0.000233902
0.000234468
0.000100206
0.000234211
0.000233357
0.000234571
0.000228523
0.000233902
0.000234468
0.000100204
0.000234211
0.000233358
0.000234571
0.000228524
0.000234859
0.000233565
0.000233565
2.32633e-05
0.000214161
0.000234445
5.13489e-05
5.1344e-05
0.000229989
0.000229991
2.32633e-05
0.000214159
0.000235111
0.000234806
0.000234701
0.000234742
0.000235111
0.000234806
0.000234742
0.000234701
0.000234477
4.02743e-05
0.000218809
0.000147994
0.000233902
0.000234468
0.000100187
0.000234211
0.000233357
0.000234571
0.000228522
0.000234477
4.02735e-05
0.000218818
0.000147993
0.000233902
0.000234468
0.000234211
0.000100191
0.000234571
0.000233359
0.000228523
0.000234728
0.000234779
0.000234733
0.000234733
0.000234728
0.000234779
0.000234733
0.000234733
0.000234728
0.000234779
0.000234733
0.000234733
0.000234594
0.000234516
0.000234184
0.000234184
0.000234587
0.000234587
0.000234179
0.000234594
0.000234516
0.000234184
0.000234184
0.000234587
0.000234587
0.000234179
0.000234594
0.000234516
0.000234184
0.000234184
0.000234587
0.000234587
0.000234179
0.000234594
0.000234516
0.000234184
0.000234184
0.000234587
0.000234587
0.000234179
0.000235111
0.000234805
0.000234742
0.000234701
0.000233903
0.000234468
0.000100192
0.000234211
0.000233359
0.000234571
0.000228522
0.000234477
4.02744e-05
0.000218814
0.000148043
0.000233902
0.000234468
0.000234211
0.000100205
0.000234571
0.00023336
0.000228525
0.000234477
4.02733e-05
0.00021882
0.000148051
0.000234859
0.000233566
0.000233566
2.32629e-05
0.00021417
0.000234445
5.13418e-05
5.13444e-05
0.000229992
0.000229993
2.32633e-05
0.000214163
0.000235111
0.000234806
0.000234742
0.000234701
0.000233902
0.000234468
0.000234211
0.000100197
0.000234571
0.00023336
0.000228522
0.000233902
0.000234468
0.000234211
0.000100193
0.000234571
0.000233361
0.000228522
0.000234477
4.02739e-05
0.000218819
0.000148018
0.000234477
4.02723e-05
0.000218822
0.000148006
0.000234445
5.13498e-05
5.13372e-05
0.000229994
0.000229996
2.32632e-05
0.000214172
2.32623e-05
0.00021417
2.1693e-05
2.2838e-05
2.16917e-05
2.28358e-05
4.78494e-05
4.78408e-05
0.000231406
4.40467e-05
4.40314e-05
2.44823e-05
2.33085e-05
2.44803e-05
2.33066e-05
0.000229711
4.00658e-05
4.00488e-05
4.31074e-05
4.30961e-05
0.00010472
3.87591e-05
0.000129361
3.98338e-05
0.000206272
9.38703e-05
0.000233996
0.000231748
0.000222749
8.73238e-05
0.000233595
0.000206273
9.38587e-05
0.000233996
0.000231745
0.000222751
8.73114e-05
0.000233595
9.84302e-05
4.19631e-05
4.03844e-05
8.55388e-05
9.84316e-05
4.19607e-05
4.0381e-05
8.55347e-05
0.000200111
0.000230511
8.08198e-05
0.000232654
8.57359e-05
0.000233165
0.000185592
0.000200107
0.000230507
8.08079e-05
0.000232653
8.57237e-05
0.000233164
0.000185589
4.7842e-05
4.785e-05
0.000231406
4.40358e-05
4.40434e-05
2.16921e-05
2.28369e-05
2.448e-05
2.33066e-05
0.000229711
4.00534e-05
4.00609e-05
4.30975e-05
4.31075e-05
2.44818e-05
2.3308e-05
0.000206261
9.38526e-05
0.000233996
0.000231746
0.000222756
8.73018e-05
0.000233595
0.000104689
3.87568e-05
0.000129407
3.98304e-05
0.000206261
0.000233996
9.38508e-05
0.000231745
0.000222762
0.000233595
8.73011e-05
9.84495e-05
4.19595e-05
4.03799e-05
8.5522e-05
0.00020011
0.000230509
8.08013e-05
0.000232654
8.57209e-05
0.000233165
0.000185589
9.84572e-05
4.19583e-05
4.03787e-05
8.55221e-05
0.000200109
0.000230506
0.000232653
8.08021e-05
0.000233164
8.5718e-05
0.000185586
0.000104721
3.87584e-05
0.000129365
3.98335e-05
0.000206272
0.000233996
9.38686e-05
0.000231749
0.000222762
0.000233595
8.73222e-05
0.000104722
3.87574e-05
0.000129379
3.98311e-05
0.000200112
0.000230513
8.08147e-05
0.000232654
8.57366e-05
0.000233165
0.000185597
9.8438e-05
4.1961e-05
4.03819e-05
8.55465e-05
0.000200114
0.000230511
0.000232653
8.08166e-05
0.000233165
8.57332e-05
0.000185593
9.844e-05
4.1959e-05
4.03804e-05
8.55438e-05
4.78375e-05
4.78466e-05
0.000231406
4.40289e-05
4.40424e-05
2.16921e-05
2.28371e-05
2.44795e-05
2.33061e-05
0.000229711
4.00486e-05
4.00607e-05
4.30932e-05
4.31048e-05
2.44816e-05
2.33078e-05
0.000206264
0.000233996
9.38543e-05
0.000231747
0.000222761
0.000233595
8.73055e-05
0.00010471
3.87581e-05
0.000129377
3.98334e-05
0.000104704
3.87562e-05
0.000129395
3.98304e-05
0.000200109
0.000230513
0.000232654
8.08181e-05
0.000233165
8.57327e-05
0.000185592
0.000200111
0.000230509
0.000232653
8.08049e-05
0.000233165
8.57208e-05
0.000185584
9.84434e-05
4.19606e-05
4.03811e-05
8.55379e-05
9.84495e-05
4.19575e-05
4.03785e-05
8.55202e-05
2.16917e-05
2.28364e-05
2.16907e-05
2.28349e-05
0.000229711
4.00601e-05
4.00509e-05
4.30992e-05
4.30937e-05
2.44805e-05
2.33071e-05
2.44793e-05
2.3306e-05
2.47769e-05
2.5465e-05
2.47751e-05
2.54626e-05
3.91609e-05
3.91515e-05
0.000219532
3.65739e-05
3.6559e-05
2.59554e-05
2.56202e-05
2.59528e-05
2.56177e-05
0.000216711
3.38493e-05
3.38373e-05
3.57258e-05
3.5715e-05
7.25421e-05
4.24312e-05
8.13608e-05
4.37599e-05
0.000167437
7.94459e-05
0.000232048
0.000225891
0.000180158
7.45178e-05
0.000231341
0.000167434
7.94319e-05
0.000232047
0.000225885
0.000180153
7.4507e-05
0.00023134
6.96015e-05
4.52377e-05
4.41517e-05
6.32211e-05
6.9604e-05
4.5234e-05
4.41481e-05
6.32189e-05
0.000162833
0.00022408
6.86782e-05
0.000229617
7.31598e-05
0.00023053
0.000151861
0.000162829
0.000224074
6.86667e-05
0.000229616
7.31497e-05
0.000230529
0.000151856
3.91486e-05
3.91646e-05
0.000219533
3.65608e-05
3.6568e-05
2.47765e-05
2.54642e-05
2.59526e-05
2.56174e-05
0.00021671
3.38376e-05
3.38459e-05
3.57142e-05
3.57253e-05
2.59544e-05
2.56194e-05
0.000167434
7.94351e-05
0.000232048
0.00022589
0.000180151
7.44988e-05
0.00023134
7.25279e-05
4.24293e-05
8.1368e-05
4.37579e-05
0.000167431
0.000232047
7.94268e-05
0.000225884
0.000180149
0.00023134
7.45019e-05
6.96087e-05
4.5234e-05
4.41474e-05
6.32197e-05
0.000162827
0.000224079
6.86632e-05
0.000229616
7.31493e-05
0.00023053
0.000151854
6.9608e-05
4.5232e-05
4.41454e-05
6.32182e-05
0.000162822
0.000224072
0.000229615
6.8663e-05
0.000230529
7.31433e-05
0.00015185
7.25412e-05
4.24328e-05
8.13561e-05
4.3761e-05
0.000167434
0.000232048
7.94398e-05
0.000225891
0.000180155
0.00023134
7.45141e-05
7.25374e-05
4.24304e-05
8.13567e-05
4.37583e-05
0.000162834
0.000224085
6.8672e-05
0.000229617
7.31607e-05
0.000230531
0.000151855
6.96037e-05
4.52349e-05
4.41491e-05
6.32183e-05
0.000162831
0.000224077
0.000229616
6.86727e-05
0.00023053
7.3156e-05
0.000151856
6.96057e-05
4.52329e-05
4.4147e-05
6.32192e-05
3.91472e-05
3.91593e-05
0.00021953
3.65577e-05
3.65682e-05
2.47758e-05
2.54638e-05
2.59518e-05
2.5617e-05
0.00021671
3.38353e-05
3.38448e-05
3.57126e-05
3.57251e-05
2.59542e-05
2.5619e-05
0.00016743
0.000232048
7.94298e-05
0.000225889
0.000180153
0.00023134
7.45019e-05
7.25385e-05
4.2432e-05
8.13587e-05
4.37603e-05
7.25311e-05
4.24296e-05
8.13673e-05
4.37568e-05
0.00016283
0.000224084
0.000229617
6.86747e-05
0.000230531
7.31573e-05
0.000151854
0.000162825
0.000224078
0.000229616
6.86636e-05
0.000230529
7.31445e-05
0.000151852
6.96022e-05
4.52346e-05
4.41483e-05
6.32206e-05
6.96069e-05
4.52315e-05
4.41454e-05
6.32177e-05
2.47749e-05
2.54628e-05
2.4774e-05
2.54616e-05
0.000216709
3.3845e-05
3.3837e-05
3.57197e-05
3.5713e-05
2.59529e-05
2.56179e-05
2.59514e-05
2.56168e-05
2.6015e-05
2.61191e-05
2.60125e-05
2.61161e-05
3.32183e-05
3.32063e-05
0.000204535
3.19908e-05
3.19808e-05
2.60849e-05
2.61198e-05
2.60816e-05
2.61168e-05
0.000201268
3.0876e-05
3.08666e-05
3.15674e-05
3.15569e-05
5.62732e-05
4.55439e-05
6.11157e-05
4.64091e-05
0.000138573
6.74311e-05
0.000228604
0.000218077
0.000148027
6.35244e-05
0.000227497
0.000138569
6.74209e-05
0.000228603
0.00021807
0.000148022
6.35142e-05
0.000227495
5.47611e-05
4.73217e-05
4.66516e-05
5.10009e-05
5.47602e-05
4.73189e-05
4.66481e-05
5.10003e-05
0.000135385
0.000215939
5.91387e-05
0.000225027
6.24291e-05
0.000226302
0.000127231
0.000135381
0.000215932
5.91294e-05
0.000225025
6.2419e-05
0.0002263
0.000127229
3.32072e-05
3.32159e-05
0.000204534
3.19803e-05
3.19893e-05
2.60142e-05
2.61178e-05
2.60818e-05
2.61169e-05
0.000201267
3.08663e-05
3.08747e-05
3.15569e-05
3.15655e-05
2.60834e-05
2.61185e-05
0.000138567
6.74195e-05
0.000228603
0.000218079
0.00014802
6.35126e-05
0.000227496
5.62713e-05
4.55415e-05
6.11147e-05
4.64065e-05
0.000138564
0.000228602
6.74173e-05
0.000218068
0.000148017
0.000227494
6.35099e-05
5.47593e-05
4.73172e-05
4.66471e-05
5.09989e-05
0.000135379
0.000215942
5.91279e-05
0.000225026
6.24175e-05
0.000226301
0.000127226
5.47589e-05
4.73157e-05
4.6646e-05
5.09984e-05
0.000135377
0.00021593
0.000225023
5.91254e-05
0.000226299
6.24152e-05
0.000127223
5.62667e-05
4.55445e-05
6.11187e-05
4.64092e-05
0.000138568
0.000228604
6.74252e-05
0.000218074
0.000148023
0.000227496
6.35188e-05
5.62725e-05
4.55425e-05
6.11159e-05
4.64079e-05
0.000135385
0.000215947
5.91361e-05
0.000225027
6.24261e-05
0.000226304
0.000127226
5.4763e-05
4.73194e-05
4.66497e-05
5.09987e-05
0.000135382
0.000215935
0.000225026
5.91329e-05
0.000226301
6.24228e-05
0.000127226
5.47601e-05
4.73164e-05
4.66462e-05
5.09994e-05
3.32059e-05
3.32176e-05
0.000204531
3.1979e-05
3.19882e-05
2.60139e-05
2.61178e-05
2.60808e-05
2.6116e-05
0.000201265
3.08653e-05
3.08745e-05
3.15559e-05
3.15658e-05
2.60834e-05
2.61185e-05
0.000138565
0.000228603
6.7416e-05
0.000218077
0.000148018
0.000227495
6.35101e-05
5.62699e-05
4.55446e-05
6.11171e-05
4.64097e-05
5.62715e-05
4.55412e-05
6.1114e-05
4.64065e-05
0.00013538
0.000215945
0.000225027
5.91358e-05
0.000226302
6.24261e-05
0.000127227
0.000135376
0.000215939
0.000225024
5.91251e-05
0.0002263
6.24149e-05
0.000127224
5.476e-05
4.73196e-05
4.66492e-05
5.09995e-05
5.47578e-05
4.73152e-05
4.66448e-05
5.09982e-05
2.60126e-05
2.61165e-05
2.60111e-05
2.61149e-05
0.000201262
3.08724e-05
3.08662e-05
3.15623e-05
3.15563e-05
2.6082e-05
2.61172e-05
2.60804e-05
2.61156e-05
2.60493e-05
2.59413e-05
2.6046e-05
2.59378e-05
3.06159e-05
3.06064e-05
0.000189706
3.03017e-05
3.0293e-05
2.57414e-05
2.58853e-05
2.57379e-05
2.58819e-05
0.000186473
3.01609e-05
3.01527e-05
3.02031e-05
3.01939e-05
4.69617e-05
4.74951e-05
4.99049e-05
4.79994e-05
0.000117535
5.82124e-05
0.00022368
0.000209296
0.000124582
5.54899e-05
0.000222269
0.000117533
5.82024e-05
0.000223678
0.000209289
0.000124578
5.54814e-05
0.000222266
4.6154e-05
4.84967e-05
4.81324e-05
4.38416e-05
4.61531e-05
4.84917e-05
4.81264e-05
4.38408e-05
0.000115357
0.000207046
5.25003e-05
0.000219286
5.47282e-05
0.000220802
0.000109263
0.000115353
0.000207039
5.24923e-05
0.000219284
5.47188e-05
0.000220799
0.000109261
3.06064e-05
3.06145e-05
0.000189704
3.02927e-05
3.03006e-05
2.60479e-05
2.59396e-05
2.57382e-05
2.5882e-05
0.000186472
3.01587e-05
3.0166e-05
3.01941e-05
3.02018e-05
2.57397e-05
2.58837e-05
0.00011753
5.82013e-05
0.000223678
0.000209303
0.000124577
5.54801e-05
0.000222267
4.696e-05
4.74941e-05
4.99038e-05
4.79975e-05
0.000117528
0.000223676
5.81989e-05
0.000209286
0.000124575
0.000222264
5.54782e-05
4.61523e-05
4.84925e-05
4.81281e-05
4.38402e-05
0.000115352
0.000207053
5.24913e-05
0.000219285
5.47179e-05
0.0002208
0.000109259
4.61517e-05
4.84918e-05
4.81255e-05
4.38399e-05
0.00011535
0.000207036
0.000219281
5.249e-05
0.000220797
5.47155e-05
0.000109258
4.69609e-05
4.74986e-05
4.99033e-05
4.80026e-05
0.00011753
0.000223678
5.82057e-05
0.000209292
0.000124579
0.000222267
5.54845e-05
4.69609e-05
4.74943e-05
4.99046e-05
4.79974e-05
0.000115357
0.000207058
5.24985e-05
0.000219286
5.47244e-05
0.000220804
0.000109259
4.6151e-05
4.8497e-05
4.81293e-05
4.38408e-05
0.000115354
0.000207041
0.000219284
5.24952e-05
0.0002208
5.47217e-05
0.000109258
4.61525e-05
4.84911e-05
4.81266e-05
4.38403e-05
3.06055e-05
3.06146e-05
0.0001897
3.0292e-05
3.03008e-05
2.60478e-05
2.59396e-05
2.5737e-05
2.58811e-05
0.000186469
3.01746e-05
3.01724e-05
3.01933e-05
3.02019e-05
2.57397e-05
2.58837e-05
0.000117528
0.000223677
5.81985e-05
0.000209298
0.000124573
0.000222265
5.54771e-05
4.69608e-05
4.74965e-05
4.99041e-05
4.80007e-05
4.69599e-05
4.74922e-05
4.99025e-05
4.79955e-05
0.00011535
0.000207055
0.000219285
5.24975e-05
0.000220801
5.47243e-05
0.000109257
0.000115347
0.000207048
0.000219282
5.24882e-05
0.000220798
5.47151e-05
0.000109255
4.61522e-05
4.84931e-05
4.81273e-05
4.38399e-05
4.61512e-05
4.8488e-05
4.81239e-05
4.3839e-05
2.60465e-05
2.59382e-05
2.60449e-05
2.59365e-05
0.000186464
3.01641e-05
3.01586e-05
3.01994e-05
3.0194e-05
2.57384e-05
2.58824e-05
2.57366e-05
2.58808e-05
2.56776e-05
2.5522e-05
2.56741e-05
2.55185e-05
3.01958e-05
3.01886e-05
0.000176306
3.03948e-05
3.03883e-05
2.53033e-05
2.54566e-05
2.52997e-05
2.54531e-05
0.000173248
3.09325e-05
3.09269e-05
3.0516e-05
3.05084e-05
4.1426e-05
4.85805e-05
4.32424e-05
4.88341e-05
0.000102109
5.18834e-05
0.000217731
0.000200299
0.000107371
5.008e-05
0.000216141
0.000102108
5.18746e-05
0.000217728
0.000200292
0.000107367
5.0072e-05
0.000216138
4.09848e-05
4.90648e-05
4.88978e-05
3.95673e-05
4.0984e-05
4.90594e-05
4.88924e-05
3.95668e-05
0.000100452
0.000198072