/*--------------------------------*- C++ -*----------------------------------*\
| =========                 |                                                 |
| \\      /  F ield         | OpenFOAM: The Open Source CFD Toolbox           |
|  \\    /   O peration     | Version:  2312                                  |
|   \\  /    A nd           | Website:  www.openfoam.com                      |
|    \\/     M anipulation  |                                                 |
\*---------------------------------------------------------------------------*/
FoamFile
{
    version     2.0;
    format      ascii;
    arch        "LSB;label=32;scalar=64";
    class       volScalarField;
    location    "875";
    object      p;
}
// * * * * * * * * * * * * * * * * * * * * * * * * * * * * * * * * * * * * * //

dimensions      [0 2 -2 0 0 0 0];

internalField   nonuniform List<scalar> 
43211
(
0.00360899
0.0036094
0.0036094
0.0036093
0.00355114
0.00355129
0.00355129
0.00355397
0.00349955
0.00349956
0.00349956
0.00350234
0.0034473
0.0034473
0.0034473
0.00345007
0.00339592
0.00339593
0.00339593
0.00339869
0.00334595
0.00334596
0.00334596
0.00334868
0.00329743
0.00329745
0.00329743
0.00330013
0.0032502
0.00325023
0.00325024
0.00325287
0.00320408
0.00320413
0.0032041
0.00320672
0.00315885
0.00315889
0.00315885
0.00316146
0.00311435
0.00311438
0.00311438
0.0031169
0.00307043
0.00307041
0.00307045
0.00307302
0.00302704
0.00302709
0.00302705
0.00302957
0.0029841
0.00298409
0.00298411
0.00298661
0.00294163
0.00294159
0.00294164
0.002944
0.00289949
0.00289951
0.00289955
0.00290214
0.00285775
0.00285794
0.00285761
0.00286033
0.00281646
0.00281631
0.0028167
0.00281878
0.00277551
0.00277548
0.00277541
0.00277821
0.00273476
0.00273455
0.00273444
0.00273691
0.00269417
0.00269432
0.00269443
0.00269684
0.00361916
0.00361824
0.00361823
0.00361916
0.00361824
0.00361823
0.00361714
0.00361714
0.00361714
0.00361714
0.00361823
0.00361823
0.00361916
0.00361824
0.00361823
0.00361916
0.0036093
0.00356036
0.0036094
0.0036094
0.00356273
0.00356273
0.0036093
0.00356036
0.0036094
0.0036094
0.00356273
0.00356273
0.0036094
0.00356273
0.00356273
0.0036093
0.00356036
0.0036094
0.00356273
0.00356274
0.00356036
0.00355397
0.00350929
0.00355129
0.00355128
0.00351275
0.00351275
0.00355397
0.00350929
0.00355129
0.00355129
0.00351275
0.00351275
0.00355129
0.00351275
0.00351275
0.00355397
0.00350929
0.00355129
0.00351275
0.00351275
0.00350929
0.00350234
0.00345694
0.00349956
0.00349956
0.0034603
0.0034603
0.00350234
0.00345694
0.00349956
0.00349956
0.0034603
0.0034603
0.00349956
0.0034603
0.0034603
0.00350234
0.00345694
0.00349956
0.0034603
0.0034603
0.00345694
0.00345007
0.00340539
0.00344731
0.0034473
0.00340866
0.00340866
0.00345006
0.00340539
0.0034473
0.0034473
0.00340866
0.00340866
0.0034473
0.00340866
0.00340866
0.00345006
0.00340539
0.0034473
0.00340866
0.00340865
0.00340539
0.00339869
0.00335518
0.00339593
0.00339594
0.00335833
0.00335832
0.00339869
0.00335518
0.00339593
0.00339593
0.00335833
0.00335832
0.00339593
0.00335832
0.00335832
0.00339868
0.00335518
0.00339594
0.00335832
0.00335832
0.00335519
0.00334868
0.00330643
0.00334596
0.00334596
0.00330945
0.00330946
0.00334869
0.00330643
0.00334595
0.00334596
0.00330945
0.00330946
0.00334596
0.00330944
0.00330945
0.00334868
0.00330644
0.00334596
0.00330946
0.00330945
0.00330643
0.00330013
0.00325901
0.00329745
0.00329743
0.00326193
0.00326194
0.00330012
0.00325901
0.00329744
0.00329744
0.00326193
0.0032619
0.00329744
0.00326192
0.00326194
0.00330012
0.00325902
0.00329744
0.00326192
0.00326194
0.00325899
0.00325288
0.00321273
0.00325021
0.00325021
0.00321556
0.00321553
0.00325286
0.00321272
0.00325022
0.00325024
0.00321557
0.00321553
0.00325021
0.00321551
0.00321555
0.00325288
0.00321271
0.0032502
0.00321554
0.00321556
0.00321273
0.00320671
0.00316734
0.00320409
0.00320411
0.00317009
0.00317013
0.00320674
0.00316735
0.00320409
0.0032041
0.0031701
0.00317015
0.0032041
0.0031701
0.00317011
0.00320674
0.00316734
0.00320411
0.00317015
0.00317011
0.00316735
0.00316147
0.00312274
0.00315887
0.00315886
0.00312545
0.00312546
0.00316147
0.00312273
0.00315886
0.00315885
0.00312545
0.0031254
0.00315888
0.00312546
0.00312547
0.00316144
0.00312271
0.00315887
0.0031254
0.00312548
0.00312271
0.00311694
0.0030787
0.00311439
0.00311438
0.0030814
0.00308144
0.0031169
0.00307869
0.00311439
0.00311437
0.0030814
0.00308141
0.00311435
0.00308144
0.0030814
0.00311694
0.00307868
0.00311435
0.0030814
0.0030814
0.00307872
0.003073
0.00303523
0.00307043
0.00307041
0.00303788
0.00303784
0.00307298
0.00303522
0.00307043
0.00307044
0.00303788
0.00303786
0.00307046
0.00303785
0.00303787
0.00307297
0.00303518
0.00307046
0.00303787
0.00303787
0.00303523
0.00302954
0.00299212
0.00302709
0.00302709
0.00299486
0.00299481
0.00302959
0.00299213
0.00302709
0.00302705
0.00299487
0.00299488
0.0030271
0.00299481
0.00299487
0.00302951
0.00299215
0.00302709
0.00299488
0.00299487
0.00299218
0.00298658
0.00294966
0.00298409
0.00298409
0.00295229
0.00295225
0.00298658
0.0029496
0.00298409
0.00298411
0.00295229
0.00295225
0.00298417
0.00295224
0.00295228
0.00298661
0.00294967
0.00298417
0.00295225
0.00295228
0.00294956
0.00294413
0.00290741
0.00294159
0.00294159
0.00290997
0.00291004
0.00294404
0.00290747
0.0029416
0.00294164
0.00290997
0.00291002
0.0029416
0.00291004
0.00291013
0.00294415
0.00290753
0.00294161
0.00291003
0.00291013
0.00290765
0.00290194
0.00286566
0.00289947
0.00289951
0.00286822
0.00286821
0.00290197
0.00286582
0.00289948
0.00289955
0.0028682
0.00286803
0.00289959
0.00286821
0.00286814
0.00290207
0.00286548
0.0028996
0.00286802
0.00286812
0.0028657
0.00286021
0.00282436
0.00285779
0.00285794
0.00282679
0.00282673
0.00286047
0.00282419
0.00285777
0.00285761
0.00282681
0.00282682
0.00285782
0.00282672
0.00282668
0.00286006
0.00282468
0.0028578
0.00282683
0.00282669
0.00282419
0.00281897
0.00278331
0.0028165
0.00281632
0.00278566
0.00278564
0.00281877
0.00278318
0.00281653
0.0028167
0.00278567
0.00278562
0.00281631
0.00278564
0.00278566
0.00281936
0.00278327
0.00281633
0.00278563
0.00278567
0.00278343
0.00277802
0.00274252
0.00277555
0.00277547
0.0027449
0.00274491
0.00277796
0.00274235
0.00277556
0.0027754
0.00274488
0.00274462
0.00277566
0.00274491
0.00274485
0.00277794
0.00274205
0.00277566
0.00274461
0.00274482
0.00274234
0.00273724
0.00270181
0.00273478
0.00273457
0.00270425
0.00270438
0.00273698
0.00270199
0.00273477
0.00273445
0.00270427
0.00270459
0.0027345
0.00270438
0.00270425
0.00273686
0.0027023
0.00273449
0.00270459
0.00270427
0.00270201
0.00269646
0.00269406
0.0026943
0.00269677
0.00269407
0.00269441
0.00269437
0.002697
0.00269438
0.00362718
0.00363743
0.00363192
0.00363192
0.00365452
0.00364143
0.00366989
0.00363534
0.00365452
0.00364143
0.00363534
0.00366988
0.00364595
0.0036736
0.0036736
0.0035816
0.00360128
0.00361041
0.00357373
0.00357497
0.00357727
0.00358158
0.0036013
0.0036104
0.00357372
0.00360899
0.00360899
0.00360899
0.00356254
0.00356254
0.00356254
0.00356254
0.00357907
0.00360548
0.00360885
0.0035866
0.0036083
0.00357796
0.00358753
0.00357504
0.00357725
0.00357907
0.00360885
0.00360549
0.0035866
0.0036083
0.00358753
0.00357795
0.00361134
0.00361134
0.00358189
0.00357767
0.00357767
0.00353639
0.00355543
0.00355682
0.00353492
0.00355433
0.00353447
0.00353639
0.00355544
0.00355682
0.00353491
0.00355114
0.00355114
0.00355114
0.00351283
0.00351283
0.00351283
0.00351283
0.003535
0.00355555
0.00355102
0.00353893
0.00355436
0.00353553
0.00353875
0.00355434
0.00353447
0.003535
0.00355102
0.00355555
0.00353893
0.00355436
0.00353875
0.00353553
0.00355654
0.00355654
0.00353527
0.00353584
0.00353584
0.00348398
0.0035028
0.00350388
0.00348296
0.00350244
0.00348268
0.00348398
0.0035028
0.00350388
0.00348296
0.00349956
0.00349956
0.00349955
0.00346029
0.00346029
0.00346029
0.00346029
0.00348308
0.00350321
0.00349944
0.00348642
0.00350264
0.00348344
0.00348632
0.00350244
0.00348268
0.00348308
0.00349944
0.00350321
0.00348642
0.00350264
0.00348632
0.00348344
0.00350344
0.00350344
0.00348306
0.00348351
0.00348351
0.00343149
0.00345014
0.003451
0.00343072
0.00344993
0.00343054
0.00343149
0.00345014
0.003451
0.00343072
0.0034473
0.0034473
0.0034473
0.00340865
0.00340865
0.00340865
0.00340865
0.00343099
0.00345055
0.00344726
0.00343436
0.00345026
0.00343117
0.00343432
0.00344993
0.00343054
0.00343098
0.00344726
0.00345055
0.00343435
0.00345026
0.00343431
0.00343117
0.00345059
0.00345059
0.00343103
0.00343111
0.00343111
0.0033803
0.00339865
0.00339928
0.00337974
0.00339851
0.00337961
0.0033803
0.00339865
0.00339928
0.00337974
0.00339592
0.00339592
0.00339592
0.00335831
0.00335831
0.00335831
0.00335831
0.00338002
0.003399
0.0033959
0.00338331
0.00339883
0.00338013
0.00338328
0.0033985
0.00337961
0.00338003
0.00339591
0.003399
0.0033833
0.00339883
0.00338327
0.00338013
0.00339899
0.00339899
0.0033801
0.00338005
0.00338005
0.00333066
0.0033486
0.00334906
0.00333025
0.00334848
0.00333014
0.00333066
0.0033486
0.00334905
0.00333025
0.00334595
0.00334595
0.00334595
0.00330944
0.00330943
0.00330944
0.00330944
0.00333054
0.0033489
0.00334594
0.00333371
0.00334878
0.00333061
0.00333368
0.00334847
0.00333014
0.00333054
0.00334594
0.0033489
0.00333372
0.00334878
0.00333368
0.00333061
0.00334888
0.00334888
0.00333063
0.00333052
0.00333052
0.00328248
0.00330004
0.00330035
0.0032822
0.00329994
0.00328207
0.00328248
0.00330004
0.00330035
0.0032822
0.00329743
0.00329743
0.00329743
0.0032619
0.0032619
0.0032619
0.00326191
0.00328246
0.00330029
0.00329742
0.00328553
0.0033002
0.00328253
0.00328549
0.00329992
0.00328208
0.00328246
0.00329741
0.00330029
0.00328554
0.0033002
0.0032855
0.00328253
0.00330027
0.00330027
0.00328256
0.00328243
0.00328243
0.0032356
0.00325279
0.00325301
0.0032354
0.00325269
0.00323528
0.00323559
0.00325279
0.00325301
0.0032354
0.00325021
0.00325021
0.0032502
0.00321553
0.00321552
0.00321552
0.00321553
0.00323564
0.003253
0.00325019
0.0032386
0.00325293
0.0032357
0.00323857
0.0032527
0.0032353
0.00323563
0.00325019
0.00325302
0.0032386
0.00325293
0.00323857
0.00323568
0.003253
0.003253
0.00323573
0.0032356
0.00323561
0.00318976
0.00320664
0.0032068
0.00318961
0.00320654
0.00318952
0.00318976
0.00320664
0.0032068
0.00318961
0.00320409
0.00320408
0.00320408
0.00317009
0.00317009
0.0031701
0.00317009
0.00318985
0.00320685
0.00320408
0.00319271
0.00320678
0.0031899
0.00319268
0.00320654
0.00318951
0.00318984
0.00320406
0.00320685
0.00319274
0.00320677
0.0031927
0.00318989
0.00320682
0.00320682
0.00318993
0.00318983
0.00318983
0.00314477
0.00316137
0.00316153
0.00314465
0.0031613
0.00314456
0.00314477
0.00316138
0.00316152
0.00314465
0.00315885
0.00315885
0.00315885
0.00312542
0.00312542
0.0031254
0.00312542
0.00314487
0.00316159
0.00315885
0.00314769
0.00316153
0.00314491
0.00314765
0.00316129
0.00314454
0.00314488
0.00315884
0.00316158
0.00314768
0.00316152
0.00314767
0.00314495
0.00316157
0.00316157
0.00314494
0.00314482
0.00314482
0.00310047
0.00311686
0.00311698
0.00310036
0.00311679
0.00310025
0.00310048
0.00311687
0.00311698
0.00310036
0.00311434
0.00311435
0.00311434
0.00308137
0.00308138
0.00308136
0.00308137
0.00310059
0.00311703
0.00311433
0.00310329
0.00311699
0.00310061
0.00310331
0.00311673
0.00310031
0.00310059
0.00311434
0.00311705
0.00310336
0.00311699
0.00310332
0.00310064
0.00311702
0.00311702
0.00310062
0.00310048
0.00310049
0.00305674
0.00307292
0.00307303
0.00305661
0.00307285
0.00305654
0.00305674
0.00307292
0.00307303
0.00305661
0.00307043
0.00307043
0.00307044
0.00303784
0.00303784
0.00303784
0.00303785
0.00305689
0.00307311
0.00307044
0.00305958
0.00307307
0.00305687
0.00305955
0.00307283
0.00305652
0.00305688
0.00307044
0.0030731
0.00305955
0.00307307
0.00305955
0.00305689
0.00307307
0.00307307
0.00305687
0.00305677
0.00305677
0.00301348
0.00302949
0.00302962
0.00301335
0.00302941
0.0030133
0.00301348
0.00302949
0.00302961
0.00301334
0.00302706
0.00302703
0.00302705
0.0029948
0.00299478
0.00299482
0.00299481
0.00301366
0.00302967
0.00302706
0.00301628
0.00302968
0.00301367
0.00301626
0.00302938
0.00301328
0.00301365
0.00302704
0.00302966
0.00301622
0.00302966
0.00301625
0.00301362
0.00302961
0.00302961
0.00301363
0.00301353
0.00301353
0.00297071
0.00298652
0.00298665
0.00297055
0.00298645
0.00297058
0.0029707
0.00298652
0.00298665
0.00297055
0.00298411
0.0029841
0.00298412
0.00295223
0.00295219
0.00295222
0.00295219
0.0029709
0.00298668
0.00298412
0.0029735
0.00298673
0.00297087
0.00297349
0.00298645
0.00297054
0.00297088
0.00298411
0.00298672
0.00297342
0.00298673
0.00297346
0.00297081
0.00298668
0.00298667
0.00297089
0.00297071
0.00297071
0.00292832
0.00294401
0.00294414
0.00292822
0.00294393
0.00292815
0.00292834
0.00294401
0.00294415
0.00292823
0.00294157
0.00294162
0.00294155
0.00290997
0.00291
0.00291001
0.00291005
0.00292848
0.00294417
0.00294159
0.00293097
0.00294421
0.00292838
0.00293101
0.00294399
0.00292813
0.00292851
0.00294162
0.00294418
0.00293105
0.00294422
0.00293103
0.00292844
0.00294411
0.00294413
0.00292841
0.00292827
0.00292829
0.00288631
0.00290186
0.00290198
0.00288621
0.00290183
0.00288605
0.00288633
0.00290187
0.002902
0.00288622
0.00289946
0.00289953
0.00289952
0.00286817
0.00286822
0.00286808
0.00286817
0.00288654
0.002902
0.0028995
0.00288895
0.0029021
0.00288641
0.002889
0.00290189
0.00288621
0.00288657
0.00289955
0.00290208
0.00288907
0.00290213
0.00288906
0.00288654
0.00290198
0.00290199
0.00288641
0.00288635
0.00288635
0.00284474
0.00286013
0.00286027
0.00284459
0.00286012
0.00284466
0.00284466
0.0028601
0.00286019
0.00284456
0.00285787
0.00285766
0.00285782
0.00282678
0.00282674
0.00282686
0.00282672
0.00284504
0.00286034
0.00285786
0.00284751
0.0028604
0.00284493
0.0028475
0.00285992
0.00284437
0.00284494
0.00285772
0.00286017
0.00284731
0.00286031
0.00284738
0.00284465
0.00286019
0.00286017
0.00284504
0.0028447
0.00284469
0.00280345
0.00281877
0.00281887
0.00280334
0.00281871
0.00280323
0.00280355
0.00281879
0.00281893
0.00280338
0.00281639
0.0028166
0.00281639
0.00278571
0.00278569
0.00278573
0.00278574
0.00280371
0.0028189
0.00281642
0.00280603
0.00281898
0.00280354
0.00280612
0.00281877
0.00280343
0.00280383
0.00281657
0.00281903
0.00280639
0.00281906
0.00280625
0.00280373
0.0028189
0.00281891
0.00280353
0.00280334
0.00280336
0.00276265
0.00277779
0.00277788
0.00276252
0.00277781
0.00276256
0.00276261
0.00277779
0.00277788
0.00276251
0.00277556
0.00277553
0.00277562
0.00274491
0.00274487
0.00274473
0.00274486
0.002763
0.00277787
0.00277558
0.00276547
0.00277803
0.00276291
0.00276544
0.00277793
0.00276242
0.00276296
0.00277556
0.00277802
0.0027653
0.00277804
0.00276534
0.00276279
0.00277774
0.00277774
0.00276321
0.00276264
0.00276263
0.00272193
0.00273709
0.00273713
0.0027219
0.00273698
0.00272174
0.00272195
0.00273707
0.00273708
0.0027219
0.00273465
0.00273465
0.00273459
0.00270432
0.00270438
0.00270448
0.00270439
0.00272213
0.00273711
0.00273466
0.00272438
0.00273724
0.00272197
0.0027245
0.00273687
0.00272186
0.00272215
0.00273463
0.00273693
0.00272449
0.00273715
0.00272456
0.00272203
0.00273731
0.00273729
0.00272176
0.00272184
0.00272184
0.00268153
0.00269642
0.0026966
0.00268129
0.00269655
0.00268143
0.00268154
0.00269644
0.00269665
0.00268129
0.00269432
0.00269436
0.0026944
0.00268194
0.00269666
0.00269432
0.00268424
0.00269677
0.00268173
0.00268429
0.00269657
0.00268194
0.00269438
0.00269674
0.00269684
0.0026843
0.00269652
0.00269653
0.00268216
0.00268156
0.00268157
0.00364595
0.00367359
0.0036736
0.00363742
0.00367312
0.00363742
0.00367311
0.00364291
0.00362924
0.00362927
0.0036684
0.0036684
0.0036545
0.00364143
0.00366987
0.00363533
0.0036545
0.00364143
0.00366987
0.00363533
0.00365915
0.0036295
0.00367025
0.00362435
0.00365915
0.00362954
0.00367025
0.00362434
0.00365036
0.00363902
0.00362074
0.00361656
0.00366515
0.00363355
0.00362127
0.00365036
0.00363902
0.00362073
0.00361656
0.00366515
0.00363355
0.00362127
0.00364595
0.0036736
0.00367361
0.00363743
0.00367312
0.00364291
0.00362925
0.00362926
0.0036684
0.00366841
0.00363742
0.00367313
0.00365451
0.00364143
0.00366988
0.00363533
0.00365451
0.00364143
0.00363533
0.00366988
0.00365917
0.0036295
0.00367025
0.00362435
0.00365038
0.00363902
0.00362075
0.00361656
0.00366515
0.00363355
0.00362128
0.00365916
0.00362956
0.00367025
0.00362434
0.00365037
0.00363903
0.00361656
0.00362074
0.00363355
0.00366515
0.00362128
0.00362718
0.00363743
0.00363192
0.00363192
0.00362718
0.00363743
0.00363192
0.00363192
0.00362718
0.00363743
0.00363192
0.00363192
0.00362592
0.00363546
0.00361536
0.00361536
0.00363036
0.00363037
0.00361335
0.00362592
0.00363546
0.00361536
0.00361536
0.00363036
0.00363037
0.00361334
0.00362593
0.00363546
0.00361536
0.00361536
0.00363037
0.00363037
0.00361335
0.00362593
0.00363546
0.00361536
0.00361536
0.00363037
0.00363037
0.00361335
0.00365452
0.00364143
0.00363534
0.00366988
0.00365038
0.00363902
0.00362074
0.00361656
0.00366516
0.00363356
0.00362127
0.00365917
0.00362948
0.00367026
0.00362434
0.00365038
0.00363903
0.00361656
0.00362074
0.00363356
0.00366515
0.00362127
0.00365917
0.00362954
0.00367025
0.00362433
0.00364595
0.0036736
0.00367361
0.00363747
0.00367312
0.00364291
0.00362928
0.00362927
0.0036684
0.00366841
0.00363741
0.00367313
0.00365452
0.00364143
0.00363534
0.00366988
0.00365038
0.00363903
0.00361656
0.00362074
0.00363356
0.00366516
0.00362128
0.00365038
0.00363903
0.00361656
0.00362074
0.00363356
0.00366515
0.00362127
0.00365917
0.00362948
0.00367026
0.00362434
0.00365917
0.0036295
0.00367025
0.00362434
0.00364291
0.00362926
0.00362926
0.0036684
0.0036684
0.00363742
0.00367311
0.00363741
0.00367312
0.00357491
0.00357727
0.00357511
0.00357722
0.00361129
0.00361135
0.00358189
0.00357767
0.00357766
0.00356088
0.00357705
0.00356091
0.00357701
0.00357587
0.00356352
0.00356354
0.00357599
0.00357597
0.00358161
0.00360132
0.00361041
0.00357374
0.00357908
0.00360547
0.00360885
0.0035866
0.00360831
0.00357796
0.00358754
0.00357909
0.00360548
0.00360885
0.0035866
0.00360831
0.00357796
0.00358754
0.00357724
0.00356263
0.00357476
0.00356342
0.00357725
0.00356264
0.00357475
0.00356342
0.00357431
0.00357386
0.00356237
0.0035626
0.00357535
0.00357429
0.00356074
0.00357432
0.00357386
0.00356236
0.0035626
0.00357534
0.00357429
0.00356074
0.00361131
0.00361134
0.00358189
0.00357768
0.00357767
0.00357508
0.00357725
0.0035609
0.00357705
0.00357587
0.00356353
0.00356353
0.00357599
0.00357598
0.00356091
0.00357701
0.00357907
0.00360549
0.00360885
0.0035866
0.00360831
0.00357795
0.00358753
0.00358159
0.0036013
0.00361039
0.00357372
0.00357907
0.00360885
0.00360548
0.0035866
0.00360831
0.00358753
0.00357794
0.00357723
0.00356265
0.00357473
0.00356343
0.0035743
0.00357386
0.00356237
0.0035626
0.00357533
0.00357428
0.00356075
0.00357724
0.00356264
0.00357474
0.00356343
0.0035743
0.00357386
0.0035626
0.00356237
0.00357428
0.00357533
0.00356075
0.00358159
0.00360129
0.00361038
0.00357372
0.00357907
0.00360885
0.00360548
0.0035866
0.0036083
0.00358753
0.00357795
0.00358159
0.0036013
0.00361038
0.00357372
0.0035743
0.00357386
0.00356237
0.0035626
0.00357534
0.00357428
0.00356075
0.00357724
0.00356265
0.00357474
0.00356343
0.00357431
0.00357386
0.0035626
0.00356237
0.00357428
0.00357534
0.00356075
0.00357725
0.00356264
0.00357475
0.00356343
0.00361133
0.00361135
0.00358188
0.00357766
0.00357766
0.00357512
0.00357723
0.00356091
0.00357702
0.00357587
0.00356353
0.00356354
0.00357598
0.00357597
0.00356092
0.00357701
0.00357908
0.00360885
0.00360549
0.0035866
0.0036083
0.00358753
0.00357795
0.00358159
0.00360129
0.00361039
0.00357372
0.00358159
0.00360131
0.00361039
0.00357372
0.0035743
0.00357386
0.0035626
0.00356237
0.00357428
0.00357533
0.00356074
0.00357431
0.00357386
0.0035626
0.00356237
0.00357428
0.00357534
0.00356074
0.00357724
0.00356264
0.00357474
0.00356342
0.00357724
0.00356264
0.00357474
0.00356342
0.00357508
0.00357724
0.00357511
0.00357723
0.00357587
0.00356354
0.00356354
0.00357598
0.00357598
0.00356091
0.00357704
0.00356091
0.00357701
0.00355432
0.00353447
0.00355435
0.00353446
0.00355653
0.00355654
0.00353527
0.00353584
0.00353584
0.00350899
0.00352803
0.00350899
0.00352802
0.00352842
0.00351006
0.00351006
0.00352937
0.00352936
0.00353639
0.00355543
0.00355682
0.00353492
0.003535
0.00355554
0.00355102
0.00353893
0.00355436
0.00353553
0.00353875
0.003535
0.00355554
0.00355102
0.00353893
0.00355436
0.00353553
0.00353875
0.00352985
0.0035094
0.00352853
0.0035105
0.00352985
0.0035094
0.00352853
0.0035105
0.00352845
0.00352595
0.00350987
0.00351264
0.00352907
0.00352583
0.00350933
0.00352845
0.00352595
0.00350987
0.00351264
0.00352907
0.00352583
0.00350933
0.00355653
0.00355654
0.00353527
0.00353584
0.00353584
0.00355434
0.00353447
0.00350899
0.00352803
0.00352842
0.00351006
0.00351006
0.00352937
0.00352937
0.00350899
0.00352803
0.003535
0.00355555
0.00355102
0.00353893
0.00355436
0.00353553
0.00353875
0.00353639
0.00355544
0.00355682
0.00353492
0.003535
0.00355102
0.00355554
0.00353893
0.00355436
0.00353875
0.00353553
0.00352985
0.0035094
0.00352852
0.0035105
0.00352845
0.00352595
0.00350987
0.00351264
0.00352906
0.00352583
0.00350933
0.00352985
0.0035094
0.00352853
0.0035105
0.00352845
0.00352595
0.00351265
0.00350987
0.00352584
0.00352907
0.00350933
0.00353639
0.00355544
0.00355682
0.00353492
0.003535
0.00355102
0.00355554
0.00353893
0.00355436
0.00353875
0.00353553
0.00353639
0.00355544
0.00355682
0.00353492
0.00352845
0.00352595
0.00350987
0.00351264
0.00352906
0.00352584
0.00350933
0.00352985
0.0035094
0.00352853
0.0035105
0.00352845
0.00352595
0.00351265
0.00350987
0.00352584
0.00352906
0.00350933
0.00352985
0.0035094
0.00352853
0.0035105
0.00355654
0.00355654
0.00353528
0.00353584
0.00353584
0.00355434
0.00353447
0.00350899
0.00352803
0.00352842
0.00351006
0.00351006
0.00352937
0.00352937
0.00350899
0.00352803
0.003535
0.00355102
0.00355554
0.00353893
0.00355436
0.00353875
0.00353553
0.00353639
0.00355544
0.00355682
0.00353492
0.00353639
0.00355544
0.00355682
0.00353492
0.00352845
0.00352595
0.00351265
0.00350987
0.00352584
0.00352907
0.00350933
0.00352845
0.00352595
0.00351265
0.00350987
0.00352583
0.00352906
0.00350933
0.00352985
0.0035094
0.00352853
0.0035105
0.00352985
0.0035094
0.00352853
0.0035105
0.00355433
0.00353447
0.00355433
0.00353447
0.00352842
0.00351006
0.00351006
0.00352937
0.00352937
0.00350899
0.00352803
0.00350899
0.00352803
0.00350244
0.00348267
0.00350244
0.00348268
0.00350344
0.00350344
0.00348306
0.00348351
0.00348351
0.00345647
0.00347605
0.00345647
0.00347606
0.00347612
0.00345714
0.00345714
0.00347685
0.00347685
0.00348398
0.0035028
0.00350388
0.00348296
0.00348308
0.00350321
0.00349944
0.00348642
0.00350264
0.00348344
0.00348632
0.00348308
0.00350321
0.00349944
0.00348642
0.00350264
0.00348344
0.00348632
0.00347731
0.00345669
0.00347632
0.00345759
0.00347731
0.00345669
0.00347632
0.00345759
0.00347636
0.00347334
0.00345717
0.00346024
0.00347675
0.00347326
0.00345691
0.00347636
0.00347334
0.00345717
0.00346024
0.00347675
0.00347326
0.00345691
0.00350344
0.00350344
0.00348306
0.00348351
0.00348351
0.00350244
0.00348268
0.00345647
0.00347605
0.00347612
0.00345714
0.00345715
0.00347685
0.00347685
0.00345647
0.00347606
0.00348308
0.00350321
0.00349944
0.00348642
0.00350264
0.00348344
0.00348632
0.00348398
0.0035028
0.00350388
0.00348296
0.00348308
0.00349944
0.00350321
0.00348642
0.00350264
0.00348632
0.00348344
0.00347731
0.00345669
0.00347632
0.00345759
0.00347636
0.00347334
0.00345717
0.00346024
0.00347675
0.00347326
0.00345691
0.00347731
0.00345669
0.00347632
0.00345759
0.00347636
0.00347334
0.00346024
0.00345717
0.00347326
0.00347674
0.00345691
0.00348398
0.0035028
0.00350388
0.00348296
0.00348308
0.00349944
0.00350321
0.00348642
0.00350264
0.00348632
0.00348344
0.00348398
0.0035028
0.00350388
0.00348296
0.00347636
0.00347334
0.00345717
0.00346024
0.00347675
0.00347326
0.00345691
0.00347731
0.00345669
0.00347632
0.00345759
0.00347636
0.00347334
0.00346024
0.00345717
0.00347326
0.00347675
0.00345691
0.00347731
0.00345669
0.00347632
0.00345759
0.00350344
0.00350344
0.00348306
0.00348351
0.00348351
0.00350244
0.00348268
0.00345647
0.00347606
0.00347612
0.00345715
0.00345715
0.00347685
0.00347685
0.00345647
0.00347605
0.00348308
0.00349944
0.00350321
0.00348642
0.00350264
0.00348632
0.00348344
0.00348398
0.0035028
0.00350388
0.00348296
0.00348398
0.0035028
0.00350388
0.00348296
0.00347636
0.00347334
0.00346024
0.00345717
0.00347326
0.00347675
0.00345691
0.00347636
0.00347334
0.00346024
0.00345717
0.00347326
0.00347675
0.00345691
0.00347731
0.00345669
0.00347632
0.00345759
0.00347731
0.00345669
0.00347632
0.00345759
0.00350244
0.00348268
0.00350244
0.00348268
0.00347612
0.00345715
0.00345714
0.00347685
0.00347685
0.00345647
0.00347605
0.00345647
0.00347605
0.00344994
0.00343055
0.00344994
0.00343055
0.00345059
0.00345059
0.00343103
0.00343111
0.00343111
0.0034049
0.00342407
0.0034049
0.00342407
0.00342423
0.00340539
0.00340539
0.00342462
0.00342462
0.00343149
0.00345014
0.003451
0.00343072
0.00343098
0.00345055
0.00344726
0.00343435
0.00345026
0.00343117
0.00343431
0.00343098
0.00345055
0.00344726
0.00343435
0.00345026
0.00343117
0.00343431
0.00342498
0.00340505
0.00342424
0.00340571
0.00342498
0.00340505
0.00342424
0.00340571
0.0034244
0.00342147
0.00340547
0.00340862
0.00342462
0.00342144
0.00340533
0.0034244
0.00342147
0.00340547
0.00340862
0.00342462
0.00342144
0.00340533
0.00345059
0.00345059
0.00343103
0.00343111
0.00343111
0.00344993
0.00343055
0.0034049
0.00342407
0.00342423
0.00340538
0.00340538
0.00342462
0.00342462
0.0034049
0.00342407
0.00343099
0.00345055
0.00344726
0.00343435
0.00345026
0.00343117
0.00343431
0.00343149
0.00345014
0.003451
0.00343072
0.00343098
0.00344726
0.00345055
0.00343436
0.00345026
0.00343431
0.00343117
0.00342498
0.00340505
0.00342424
0.00340571
0.0034244
0.00342147
0.00340547
0.00340863
0.00342462
0.00342144
0.00340533
0.00342498
0.00340505
0.00342424
0.00340571
0.0034244
0.00342147
0.00340863
0.00340547
0.00342143
0.00342461
0.00340533
0.0034315
0.00345014
0.003451
0.00343072
0.00343099
0.00344726
0.00345055
0.00343435
0.00345026
0.00343431
0.00343117
0.00343149
0.00345014
0.003451
0.00343073
0.0034244
0.00342146
0.00340546
0.00340863
0.00342461
0.00342143
0.00340533
0.00342498
0.00340505
0.00342424
0.00340571
0.0034244
0.00342147
0.00340863
0.00340547
0.00342143
0.00342462
0.00340533
0.00342498
0.00340505
0.00342424
0.00340571
0.00345059
0.00345059
0.00343103
0.00343111
0.00343111
0.00344993
0.00343054
0.00340489
0.00342407
0.00342423
0.00340538
0.00340538
0.00342462
0.00342462
0.0034049
0.00342407
0.00343098
0.00344726
0.00345055
0.00343435
0.00345026
0.00343431
0.00343117
0.00343149
0.00345014
0.003451
0.00343072
0.00343149
0.00345014
0.003451
0.00343073
0.0034244
0.00342147
0.00340862
0.00340547
0.00342144
0.00342462
0.00340533
0.0034244
0.00342147
0.00340862
0.00340547
0.00342144
0.00342462
0.00340533
0.00342498
0.00340505
0.00342424
0.0034057
0.00342498
0.00340505
0.00342424
0.0034057
0.00344994
0.00343055
0.00344993
0.00343054
0.00342423
0.00340539
0.00340538
0.00342462
0.00342462
0.0034049
0.00342407
0.0034049
0.00342407
0.0033985
0.0033796
0.0033985
0.0033796
0.00339899
0.00339899
0.0033801
0.00338005
0.00338005
0.00335468
0.0033733
0.00335468
0.0033733
0.0033735
0.00335509
0.00335509
0.00337374
0.00337374
0.0033803
0.00339865
0.00339928
0.00337974
0.00338003
0.003399
0.0033959
0.0033833
0.00339883
0.00338014
0.00338327
0.00338003
0.003399
0.00339591
0.0033833
0.00339883
0.00338013
0.00338327
0.00337397
0.00335481
0.00337343
0.00335529
0.00337397
0.00335481
0.00337343
0.00335529
0.00337362
0.00337076
0.00335518
0.00335829
0.00337375
0.00337073
0.0033551
0.00337362
0.00337077
0.00335518
0.00335829
0.00337376
0.00337074
0.0033551
0.00339899
0.00339899
0.0033801
0.00338004
0.00338004
0.0033985
0.00337961
0.00335469
0.0033733
0.0033735
0.0033551
0.0033551
0.00337374
0.00337374
0.00335469
0.0033733
0.00338002
0.003399
0.0033959
0.0033833
0.00339883
0.00338013
0.00338327
0.0033803
0.00339865
0.00339928
0.00337974
0.00338002
0.0033959
0.003399
0.0033833
0.00339883
0.00338327
0.00338013
0.00337397
0.00335481
0.00337343
0.00335529
0.00337362
0.00337076
0.00335518
0.00335829
0.00337375
0.00337073
0.0033551
0.00337397
0.00335481
0.00337344
0.00335528
0.00337362
0.00337076
0.00335829
0.00335517
0.00337073
0.00337376
0.0033551
0.0033803
0.00339865
0.00339928
0.00337974
0.00338002
0.0033959
0.003399
0.0033833
0.00339883
0.00338327
0.00338013
0.0033803
0.00339865
0.00339928
0.00337974
0.00337362
0.00337076
0.00335518
0.00335829
0.00337376
0.00337073
0.0033551
0.00337397
0.00335481
0.00337344
0.00335528
0.00337362
0.00337076
0.00335829
0.00335518
0.00337073
0.00337375
0.0033551
0.00337397
0.00335481
0.00337343
0.00335528
0.00339898
0.00339899
0.0033801
0.00338004
0.00338004
0.00339851
0.00337961
0.0033547
0.0033733
0.0033735
0.00335509
0.00335509
0.00337375
0.00337374
0.0033547
0.0033733
0.00338002
0.00339591
0.003399
0.0033833
0.00339883
0.00338327
0.00338014
0.0033803
0.00339865
0.00339928
0.00337974
0.0033803
0.00339865
0.00339928
0.00337974
0.00337362
0.00337076
0.00335829
0.00335518
0.00337073
0.00337375
0.0033551
0.00337362
0.00337076
0.00335829
0.00335518
0.00337074
0.00337376
0.0033551
0.00337397
0.00335481
0.00337343
0.00335529
0.00337397
0.00335481
0.00337343
0.00335529
0.0033985
0.00337961
0.00339851
0.00337961
0.0033735
0.00335509
0.00335509
0.00337374
0.00337374
0.00335468
0.0033733
0.00335468
0.0033733
0.00334849
0.00333015
0.00334849
0.00333015
0.00334888
0.00334888
0.00333063
0.00333051
0.00333051
0.00330598
0.00332405
0.00330597
0.00332404
0.00332423
0.0033063
0.0033063
0.00332441
0.0033244
0.00333066
0.0033486
0.00334906
0.00333025
0.00333054
0.00334889
0.00334594
0.00333372
0.00334879
0.0033306
0.00333368
0.00333054
0.0033489
0.00334594
0.00333371
0.00334878
0.00333061
0.00333368
0.00332452
0.00330606
0.00332414
0.0033064
0.00332452
0.00330606
0.00332414
0.0033064
0.00332432
0.00332152
0.00330638
0.00330942
0.00332442
0.0033215
0.00330633
0.00332432
0.00332152
0.0033064
0.00330942
0.00332441
0.0033215
0.00330633
0.00334889