/*--------------------------------*- C++ -*----------------------------------*\
| =========                 |                                                 |
| \\      /  F ield         | OpenFOAM: The Open Source CFD Toolbox           |
|  \\    /   O peration     | Version:  2312                                  |
|   \\  /    A nd           | Website:  www.openfoam.com                      |
|    \\/     M anipulation  |                                                 |
\*---------------------------------------------------------------------------*/
FoamFile
{
    version     2.0;
    format      ascii;
    arch        "LSB;label=32;scalar=64";
    class       volVectorField;
    location    "875";
    object      U;
}
// * * * * * * * * * * * * * * * * * * * * * * * * * * * * * * * * * * * * * //

dimensions      [0 1 -1 0 0 0 0];

internalField   nonuniform List<vector> 
43211
(
(0.000124338 0.000124328 0.100289)
(-0.000176456 0.000135325 0.100342)
(0.000135361 -0.00017647 0.100342)
(-0.000213131 -0.000213087 0.100397)
(9.66601e-05 9.66637e-05 0.100853)
(-0.00016402 0.000100732 0.100938)
(0.000100708 -0.000164024 0.100938)
(-0.000204354 -0.000204422 0.100966)
(9.47165e-05 9.47327e-05 0.101372)
(-0.000155627 9.38671e-05 0.10145)
(9.38654e-05 -0.000155628 0.101451)
(-0.000201896 -0.000201962 0.101471)
(9.37178e-05 9.374e-05 0.101892)
(-0.000152279 9.06089e-05 0.101958)
(9.06139e-05 -0.000152289 0.101958)
(-0.000199334 -0.000199372 0.101964)
(9.0992e-05 9.10178e-05 0.102398)
(-0.000146342 8.58911e-05 0.102447)
(8.59191e-05 -0.000146346 0.102447)
(-0.000193797 -0.000193874 0.102432)
(8.80902e-05 8.81206e-05 0.102885)
(-0.000140684 8.18677e-05 0.102912)
(8.19213e-05 -0.000140708 0.102912)
(-0.000188336 -0.000188439 0.102871)
(8.53416e-05 8.53831e-05 0.103353)
(-0.000135545 7.86629e-05 0.103354)
(7.8683e-05 -0.000135562 0.103354)
(-0.000184197 -0.000184256 0.103281)
(8.29106e-05 8.29512e-05 0.103803)
(-0.000131121 7.61584e-05 0.103774)
(7.6145e-05 -0.000131107 0.103774)
(-0.00018027 -0.000180342 0.103663)
(8.05645e-05 8.05482e-05 0.104237)
(-0.000127325 7.44011e-05 0.104175)
(7.4358e-05 -0.000127343 0.104175)
(-0.000178475 -0.000178589 0.104024)
(7.89229e-05 7.89084e-05 0.104658)
(-0.00012401 7.28497e-05 0.104558)
(7.33929e-05 -0.000124417 0.104557)
(-0.000177212 -0.000177144 0.104358)
(7.72554e-05 7.7175e-05 0.105066)
(-0.00012088 7.13493e-05 0.104925)
(7.22863e-05 -0.000121476 0.104924)
(-0.000175212 -0.000175292 0.104676)
(7.56727e-05 7.5699e-05 0.105464)
(-0.000118739 7.07635e-05 0.105277)
(7.07925e-05 -0.000118906 0.105277)
(-0.000177186 -0.000177401 0.104966)
(7.37636e-05 7.39891e-05 0.105851)
(-0.000117581 7.14437e-05 0.105615)
(6.83108e-05 -0.00011575 0.105615)
(-0.000176145 -0.000176042 0.105242)
(7.15822e-05 7.18285e-05 0.106229)
(-0.000115648 7.03649e-05 0.105935)
(6.68187e-05 -0.000113199 0.105939)
(-0.00017247 -0.000172448 0.105495)
(7.26477e-05 7.22455e-05 0.106597)
(-0.0001092 6.28469e-05 0.10625)
(6.80233e-05 -0.000111487 0.106249)
(-0.000166897 -0.000167196 0.105729)
(6.9833e-05 6.90143e-05 0.106956)
(-0.000106318 6.09891e-05 0.106548)
(6.89636e-05 -0.000111599 0.106542)
(-0.000182978 -0.000183245 0.10593)
(6.63721e-05 6.84513e-05 0.107308)
(-0.00010969 7.02989e-05 0.106821)
(4.99448e-05 -9.90632e-05 0.106828)
(-0.000174718 -0.000173602 0.106107)
(6.69308e-05 6.56653e-05 0.107651)
(-0.000105786 6.44437e-05 0.107088)
(7.70478e-05 -0.000109442 0.107085)
(-0.000164796 -0.000165476 0.106263)
(6.68427e-05 6.61378e-05 0.107982)
(-0.000108605 7.17571e-05 0.107325)
(7.73564e-05 -0.000112609 0.107325)
(-0.000177702 -0.000178378 0.106393)
(6.44996e-05 6.59307e-05 0.108306)
(-9.89691e-05 5.38829e-05 0.107568)
(4.93657e-05 -9.73486e-05 0.107562)
(-0.000159949 -0.000158302 0.106479)
(5.92001e-05 5.8097e-05 0.108627)
(-0.00010117 6.38365e-05 0.107779)
(6.62174e-05 -0.000101437 0.107781)
(-0.000167745 -0.000168973 0.106586)
(0.000156342 0.000156374 0.100285)
(0.000129521 0.000155305 0.100244)
(-0.000129516 0.000155234 0.100244)
(-0.000156361 0.000156286 0.100285)
(0.00015531 0.000129491 0.100244)
(0.000155278 -0.00012951 0.100244)
(0.00012195 0.00012193 0.100218)
(-0.000121955 0.000121888 0.100218)
(0.000121921 -0.000121956 0.100218)
(-0.000121932 -0.000121927 0.100218)
(-0.000155324 0.000129447 0.100244)
(-0.000155295 -0.000129479 0.100244)
(0.000156313 -0.000156375 0.100285)
(0.000129478 -0.000155329 0.100244)
(-0.000129483 -0.000155283 0.100244)
(-0.000156349 -0.000156311 0.100285)
(0.000213127 0.000213184 0.100397)
(0.000116039 0.000115984 0.100892)
(0.000135403 0.000176451 0.100342)
(-0.000135397 0.000176377 0.100342)
(9.66212e-05 0.000156908 0.100824)
(-9.66487e-05 0.000156909 0.100824)
(-0.000213157 0.000213063 0.100397)
(-0.000116028 0.000115994 0.100892)
(0.000176452 0.000135377 0.100342)
(0.000176421 -0.000135394 0.100342)
(0.000156842 9.66453e-05 0.100824)
(0.00015684 -9.66268e-05 0.100824)
(-0.000176432 -0.000135363 0.100342)
(-0.000156843 9.66363e-05 0.100824)
(-0.000156863 -9.66477e-05 0.100824)
(0.000213096 -0.00021318 0.100397)
(0.000115968 -0.000116015 0.100892)
(-0.000135363 -0.000176424 0.100342)
(9.65974e-05 -0.000156841 0.100824)
(-9.66337e-05 -0.000156845 0.100824)
(-0.000116005 -0.000116033 0.100892)
(0.000204425 0.000204322 0.100966)
(0.000105434 0.000105331 0.101395)
(0.000100732 0.000164076 0.100938)
(-0.000100747 0.000164063 0.100938)
(9.43568e-05 0.000156089 0.101321)
(-9.43977e-05 0.000156092 0.101321)
(-0.000204427 0.000204316 0.100966)
(-0.000105431 0.000105373 0.101395)
(0.000164029 0.000100759 0.100938)
(0.00016403 -0.00010074 0.100938)
(0.000156032 9.43972e-05 0.101321)
(0.000156071 -9.43951e-05 0.101321)
(-0.000164042 -0.000100742 0.100938)
(-0.000156041 9.43684e-05 0.101321)
(-0.00015607 -9.43753e-05 0.101321)
(0.000204309 -0.000204412 0.100966)
(0.00010539 -0.000105412 0.101395)
(-0.000100742 -0.000164019 0.100938)
(9.43651e-05 -0.000156043 0.101321)
(-9.43898e-05 -0.000156029 0.101321)
(-0.00010539 -0.000105422 0.101395)
(0.000201965 0.000201834 0.101471)
(9.70834e-05 9.70202e-05 0.101893)
(9.3855e-05 0.000155677 0.10145)
(-9.38911e-05 0.000155675 0.10145)
(9.17685e-05 0.000153691 0.101833)
(-9.18054e-05 0.000153694 0.101833)
(-0.000201987 0.000201846 0.101471)
(-9.71084e-05 9.70191e-05 0.101893)
(0.000155619 9.38954e-05 0.101451)
(0.000155662 -9.38958e-05 0.101451)
(0.000153645 9.17991e-05 0.101833)
(0.000153693 -9.17894e-05 0.101833)
(-0.000155662 -9.38771e-05 0.101451)
(-0.000153642 9.17671e-05 0.101833)
(-0.000153682 -9.17761e-05 0.101833)
(0.000201873 -0.00020196 0.101471)
(9.7018e-05 -9.706e-05 0.101893)
(-9.38954e-05 -0.000155626 0.101451)
(9.17752e-05 -0.000153653 0.101833)
(-9.17856e-05 -0.000153642 0.101833)
(-9.70254e-05 -9.70233e-05 0.101893)
(0.000199386 0.000199292 0.101964)
(8.63761e-05 8.63192e-05 0.102366)
(9.06012e-05 0.000152318 0.101958)
(-9.06382e-05 0.000152329 0.101958)
(8.70186e-05 0.00014785 0.102327)
(-8.70483e-05 0.000147856 0.102327)
(-0.000199398 0.000199275 0.101964)
(-8.62784e-05 8.62059e-05 0.102366)
(0.00015227 9.0631e-05 0.101958)
(0.000152328 -9.06278e-05 0.101958)
(0.000147809 8.70431e-05 0.102327)
(0.000147852 -8.70301e-05 0.102327)
(-0.000152314 -9.06211e-05 0.101958)
(-0.000147797 8.70177e-05 0.102327)
(-0.000147845 -8.70256e-05 0.102327)
(0.000199293 -0.000199397 0.101964)
(8.62181e-05 -8.62346e-05 0.102366)
(-9.0624e-05 -0.000152277 0.101958)
(8.70271e-05 -0.000147821 0.102327)
(-8.70338e-05 -0.000147814 0.102327)
(-8.63582e-05 -8.63045e-05 0.102366)
(0.000193747 0.000193686 0.102432)
(7.62202e-05 7.61908e-05 0.102812)
(8.59025e-05 0.000146376 0.102447)
(-8.5934e-05 0.000146369 0.102447)
(8.2789e-05 0.000142084 0.102798)
(-8.2821e-05 0.000142097 0.102798)
(-0.000193868 0.000193892 0.102432)
(-7.6124e-05 7.62055e-05 0.102812)
(0.000146336 8.59256e-05 0.102447)
(0.000146393 -8.59137e-05 0.102447)
(0.000142046 8.28145e-05 0.102798)
(0.000142095 -8.28088e-05 0.102798)
(-0.000146373 -8.59131e-05 0.102447)
(-0.00014205 8.28238e-05 0.102798)
(-0.000142087 -8.28245e-05 0.102798)
(0.000193774 -0.000193965 0.102432)
(7.60108e-05 -7.61347e-05 0.102812)
(-8.59168e-05 -0.000146334 0.102447)
(8.28045e-05 -0.000142061 0.102798)
(-8.28261e-05 -0.000142065 0.102798)
(-7.64435e-05 -7.64187e-05 0.102812)
(0.000188204 0.000188175 0.102871)
(6.7347e-05 6.73814e-05 0.103229)
(8.19024e-05 0.000140733 0.102912)
(-8.19029e-05 0.000140713 0.102912)
(7.93862e-05 0.000136814 0.103246)
(-7.93368e-05 0.000136775 0.103246)
(-0.000188597 0.00018861 0.102871)
(-6.68709e-05 6.71802e-05 0.10323)
(0.000140698 8.19196e-05 0.102912)
(0.000140752 -8.18966e-05 0.102912)
(0.000136773 7.94268e-05 0.103246)
(0.000136772 -7.93482e-05 0.103246)
(-0.000140717 -8.18744e-05 0.102912)
(-0.000136757 7.93611e-05 0.103246)
(-0.000136791 -7.93859e-05 0.103246)
(0.0001884 -0.000188568 0.102871)
(6.71143e-05 -6.7323e-05 0.10323)
(-8.18845e-05 -0.00014068 0.102912)
(7.93481e-05 -0.000136738 0.103246)
(-7.93928e-05 -0.000136762 0.103246)
(-6.72432e-05 -6.72585e-05 0.103229)
(0.000184227 0.000184204 0.103281)
(5.8889e-05 5.89075e-05 0.10362)
(7.85958e-05 0.000135563 0.103354)
(-7.86868e-05 0.000135597 0.103354)
(7.67011e-05 0.000132165 0.103671)
(-7.66546e-05 0.000132127 0.103671)
(-0.000183807 0.000183605 0.103281)
(-5.9337e-05 5.95108e-05 0.103622)
(0.000135522 7.86164e-05 0.103354)
(0.000135606 -7.86309e-05 0.103354)
(0.000132147 7.67536e-05 0.103671)
(0.000132202 -7.67002e-05 0.103671)
(-0.000135552 -7.86081e-05 0.103354)
(-0.000132111 7.66657e-05 0.103671)
(-0.000132147 -7.66647e-05 0.103671)
(0.000183559 -0.00018373 0.103281)
(5.96264e-05 -5.97401e-05 0.103621)
(-7.86266e-05 -0.000135528 0.103354)
(7.67503e-05 -0.000132167 0.103671)
(-7.66671e-05 -0.000132115 0.103671)
(-5.84536e-05 -5.85721e-05 0.103621)
(0.000180754 0.000180659 0.103663)
(5.31472e-05 5.31462e-05 0.103989)
(7.61289e-05 0.00013112 0.103774)
(-7.61634e-05 0.000131159 0.103774)
(7.48626e-05 0.00012822 0.104077)
(-7.49815e-05 0.000128315 0.104076)
(-0.000179987 0.000179668 0.103665)
(-5.28099e-05 5.30832e-05 0.103987)
(0.000131094 7.61675e-05 0.103774)
(0.000131129 -7.61389e-05 0.103774)
(0.000128188 7.48127e-05 0.104077)
(0.000128358 -7.50015e-05 0.104076)
(-0.00013117 -7.62144e-05 0.103774)
(-0.000128305 7.48758e-05 0.104076)
(-0.00012826 -7.49088e-05 0.104076)
(0.000180348 -0.000180418 0.103665)
(5.28344e-05 -5.2838e-05 0.103987)
(-7.62589e-05 -0.000131158 0.103774)
(7.48824e-05 -0.000128314 0.104076)
(-7.48617e-05 -0.000128227 0.104077)
(-5.33257e-05 -5.33767e-05 0.103988)
(0.000177778 0.000177732 0.104025)
(4.65064e-05 4.64992e-05 0.104332)
(7.44083e-05 0.000127386 0.104175)
(-7.44802e-05 0.000127357 0.104175)
(7.3526e-05 0.00012501 0.104463)
(-7.35325e-05 0.000124972 0.104464)
(-0.000179311 0.000178865 0.104022)
(-4.69202e-05 4.73649e-05 0.104333)
(0.000127352 7.43605e-05 0.104175)
(0.000127387 -7.44607e-05 0.104175)
(0.000124975 7.34961e-05 0.104463)
(0.000124895 -7.33617e-05 0.104464)
(-0.000127378 -7.43943e-05 0.104175)
(-0.000124998 7.34645e-05 0.104464)
(-0.000124864 -7.32993e-05 0.104463)
(0.000179179 -0.000179258 0.104022)
(4.6591e-05 -4.65898e-05 0.104335)
(-7.43574e-05 -0.000127345 0.104175)
(7.32542e-05 -0.00012483 0.104464)
(-7.3292e-05 -0.000124807 0.104464)
(-4.66015e-05 -4.65572e-05 0.104333)
(0.000177579 0.000177577 0.104357)
(4.2581e-05 4.25991e-05 0.104657)
(7.31974e-05 0.000124147 0.104558)
(-7.2982e-05 0.000124054 0.104558)
(7.23859e-05 0.000122061 0.104834)
(-7.18529e-05 0.00012171 0.104835)
(-0.000177333 0.000177036 0.104358)
(-4.23588e-05 4.236e-05 0.104658)
(0.000124135 7.31576e-05 0.104558)
(0.000124482 -7.34765e-05 0.104557)
(0.000122042 7.23582e-05 0.104834)
(0.000122072 -7.21554e-05 0.104834)
(-0.00012412 -7.3026e-05 0.104558)
(-0.000121598 7.18685e-05 0.104835)
(-0.000121668 -7.19182e-05 0.104835)
(0.000176139 -0.000176171 0.10436)
(4.11155e-05 -4.11068e-05 0.104655)
(-7.29882e-05 -0.000124098 0.104558)
(7.21131e-05 -0.000121969 0.104834)
(-7.18481e-05 -0.000121698 0.104835)
(-4.17575e-05 -4.18764e-05 0.104659)
(0.000176796 0.000176774 0.104675)
(3.55752e-05 3.55792e-05 0.104962)
(7.21633e-05 0.000121448 0.104925)
(-7.12575e-05 0.000121001 0.104925)
(7.10577e-05 0.000119371 0.10519)
(-7.10877e-05 0.000119429 0.105191)
(-0.000175832 0.000175795 0.104676)
(-3.5639e-05 3.56056e-05 0.104964)
(0.000121468 7.20359e-05 0.104925)
(0.000121613 -7.22653e-05 0.104924)
(0.000119332 7.10453e-05 0.105191)
(0.000119011 -7.04231e-05 0.105191)
(-0.000120803 -7.12106e-05 0.104925)
(-0.00011932 7.09868e-05 0.105191)
(-0.000119817 -7.1761e-05 0.10519)
(0.00017723 -0.00017724 0.104671)
(3.59419e-05 -3.59475e-05 0.104963)
(-7.10362e-05 -0.000120844 0.104925)
(7.03127e-05 -0.000118923 0.105191)
(-7.1685e-05 -0.00011971 0.10519)
(-3.6876e-05 -3.69098e-05 0.104961)
(0.000176017 0.00017594 0.104966)
(3.25559e-05 3.26527e-05 0.105247)
(7.07671e-05 0.0001187 0.105277)
(-7.08517e-05 0.000118816 0.105276)
(6.92704e-05 0.000116449 0.105532)
(-7.08015e-05 0.000117514 0.105531)
(-0.000174591 0.000174422 0.104967)
(-3.21592e-05 3.1944e-05 0.105245)
(0.000118652 7.07792e-05 0.105277)
(0.000118962 -7.09386e-05 0.105276)
(0.000116326 6.94178e-05 0.105532)
(0.000115865 -6.83127e-05 0.105533)
(-0.000118985 -7.11953e-05 0.105277)
(-0.000117585 7.05972e-05 0.105531)
(-0.000116883 -6.96992e-05 0.105532)
(0.000174441 -0.000174668 0.104968)
(3.03131e-05 -3.04209e-05 0.105249)
(-7.12151e-05 -0.00011889 0.105277)
(6.81979e-05 -0.000115811 0.105533)
(-6.98307e-05 -0.000116733 0.105532)
(-3.30135e-05 -3.29909e-05 0.105246)
(0.000175 0.000175027 0.105243)
(2.60062e-05 2.60032e-05 0.105515)
(6.88089e-05 0.000116132 0.105615)
(-7.15381e-05 0.000117521 0.105614)
(6.78596e-05 0.000113839 0.10586)
(-6.59866e-05 0.000112947 0.105859)
(-0.000177311 0.000177078 0.105238)
(-2.20937e-05 2.22049e-05 0.105512)
(0.000115969 6.90275e-05 0.105616)
(0.000115777 -6.84558e-05 0.105615)
(0.000113806 6.76579e-05 0.105861)
(0.00011387 -6.8119e-05 0.105861)
(-0.000116767 -6.9636e-05 0.105615)
(-0.000112897 6.58408e-05 0.105859)
(-0.000112658 -6.60876e-05 0.10586)
(0.000173235 -0.000173428 0.105242)
(2.68872e-05 -2.684e-05 0.105515)
(-6.99087e-05 -0.000116588 0.105615)
(6.78742e-05 -0.000113815 0.105861)
(-6.58892e-05 -0.000112592 0.10586)
(-2.61988e-05 -2.62099e-05 0.105514)
(0.000171909 0.000171899 0.105494)
(2.09677e-05 2.09529e-05 0.105758)
(6.68457e-05 0.000113249 0.105938)
(-7.0657e-05 0.000115604 0.105935)
(6.9307e-05 0.000113537 0.106172)
(-6.41132e-05 0.000109971 0.106176)
(-0.000172154 0.000172086 0.105489)
(-1.8608e-05 1.87465e-05 0.10576)
(0.00011308 6.70077e-05 0.105939)
(0.000113126 -6.71721e-05 0.105939)
(0.000113494 6.907e-05 0.106172)
(0.000113159 -6.89388e-05 0.106172)
(-0.000114716 -6.8307e-05 0.105938)
(-0.00010984 6.42276e-05 0.106177)
(-0.000109044 -6.36963e-05 0.106178)
(0.000172693 -0.000172886 0.105494)
(2.32754e-05 -2.31462e-05 0.105756)
(-6.84973e-05 -0.000114525 0.105938)
(6.90082e-05 -0.000112991 0.106173)
(-6.34179e-05 -0.00010905 0.106178)
(-2.1692e-05 -2.18337e-05 0.105761)
(0.000174703 0.000174496 0.10572)
(1.02305e-05 1.0044e-05 0.105978)
(7.15774e-05 0.00011409 0.106246)
(-6.19575e-05 0.000109616 0.10625)
(6.27465e-05 0.000108157 0.106472)
(-6.82299e-05 0.000110124 0.106472)
(-0.000167382 0.000167592 0.105725)
(-2.30217e-05 2.30055e-05 0.10598)
(0.000114193 7.10462e-05 0.106246)
(0.000112018 -6.71835e-05 0.106249)
(0.000108298 6.24954e-05 0.106472)
(0.000110214 -6.70852e-05 0.106469)
(-0.00010726 -5.93439e-05 0.106252)
(-0.000110164 6.75969e-05 0.106473)
(-0.000112644 -7.2822e-05 0.10647)
(0.00017596 -0.000175741 0.10572)
(1.69427e-05 -1.70893e-05 0.105975)
(-5.87983e-05 -0.000107341 0.106253)
(6.64822e-05 -0.00011026 0.106469)
(-7.26124e-05 -0.000112871 0.10647)
(-3.02391e-05 -3.04309e-05 0.105977)
(0.000167905 0.000167504 0.105925)
(1.30757e-05 1.38881e-05 0.106178)
(6.59539e-05 0.000109755 0.106541)
(-6.13381e-05 0.000106284 0.106547)
(6.28897e-05 0.000106403 0.106757)
(-6.93602e-05 0.000109977 0.10675)
(-0.00017566 0.000175433 0.105931)
(-1.96899e-05 2.00432e-05 0.106174)
(0.000110137 6.50744e-05 0.106541)
(0.000111575 -6.93261e-05 0.106541)
(0.000106008 6.37855e-05 0.106758)
(0.00010483 -6.01786e-05 0.106758)
(-0.000109133 -6.75422e-05 0.106547)
(-0.00010978 6.94688e-05 0.10675)
(-0.000108575 -6.47027e-05 0.106751)
(0.000175619 -0.000175936 0.105924)
(5.69586e-06 -5.42632e-06 0.106179)
(-6.66788e-05 -0.000109511 0.106547)
(6.031e-05 -0.000104674 0.106758)
(-6.55823e-05 -0.000108153 0.106752)
(-1.08528e-05 -9.96257e-06 0.106174)
(0.000168744 0.000169794 0.106112)
(1.59301e-05 1.58254e-05 0.106349)
(5.95314e-05 0.000105998 0.106825)
(-7.0921e-05 0.000109641 0.106821)
(6.57402e-05 0.000105713 0.107022)
(-6.68229e-05 0.000108302 0.107023)
(-0.000181986 0.000181957 0.106108)
(-6.07051e-06 6.27128e-06 0.10635)
(0.000104995 6.16027e-05 0.106826)
(9.89785e-05 -5.05265e-05 0.106827)
(0.000105607 6.52142e-05 0.107022)
(0.000113828 -8.02851e-05 0.107013)
(-0.000109609 -6.78486e-05 0.106819)
(-0.000108231 6.68869e-05 0.107024)
(-0.000106563 -6.4918e-05 0.107023)
(0.000161981 -0.000162029 0.106113)
(2.59511e-05 -2.55806e-05 0.106348)
(-6.98972e-05 -0.000108599 0.10682)
(8.02458e-05 -0.00011372 0.107013)
(-6.4438e-05 -0.000106542 0.107023)
(-4.00739e-06 -4.09199e-06 0.106349)
(0.000175117 0.000174396 0.106267)
(1.15305e-05 1.06193e-05 0.106499)
(6.0137e-05 0.000102622 0.107091)
(-6.41621e-05 0.000106004 0.107087)
(6.74533e-05 0.000104446 0.10727)
(-5.71513e-05 0.000101824 0.10727)
(-0.000167161 0.000167338 0.106263)
(8.38105e-06 -8.25803e-06 0.106504)
(0.000103314 5.84547e-05 0.107091)
(0.000109693 -7.68838e-05 0.107085)
(0.000105339 6.57999e-05 0.107271)
(0.000109575 -6.90319e-05 0.107266)
(-0.000102217 -5.87513e-05 0.107089)
(-0.000101582 5.7331e-05 0.10727)
(-0.000103639 -6.54515e-05 0.107266)
(0.000194698 -0.000194434 0.106262)
(-2.77139e-06 2.92493e-06 0.106484)
(-5.70941e-05 -0.000102983 0.107089)
(6.9179e-05 -0.000109352 0.107266)
(-6.38158e-05 -0.000104564 0.107267)
(-2.76876e-06 -3.68011e-06 0.106498)
(0.000178683 0.000178011 0.106397)
(9.14443e-07 2.71107e-06 0.106618)
(6.56835e-05 0.000103423 0.107334)
(-7.27845e-05 0.000108404 0.107325)
(6.02586e-05 0.000102415 0.107509)
(-6.0451e-05 0.000100737 0.107515)
(-0.00016399 0.000163743 0.106396)
(1.98773e-06 -2.38069e-06 0.106613)
(0.000103857 6.47868e-05 0.107335)
(0.000112382 -7.84195e-05 0.107325)
(0.000101051 6.29564e-05 0.107509)
(9.21127e-05 -4.08925e-05 0.107514)
(-0.000107317 -7.49426e-05 0.107327)
(-0.000101171 5.95378e-05 0.107516)
(-0.000105867 -6.55143e-05 0.107512)
(0.000171613 -0.00017185 0.106376)
(-2.89209e-05 2.85471e-05 0.10662)
(-7.40796e-05 -0.000107788 0.107328)
(4.00132e-05 -9.25813e-05 0.107516)
(-6.82177e-05 -0.000104599 0.107512)
(-2.2913e-06 -4.14955e-07 0.106601)
(0.000168614 0.000170121 0.106497)
(5.85162e-07 -6.81061e-07 0.106711)
(6.30935e-05 0.00010299 0.107565)
(-5.30901e-05 9.92326e-05 0.107566)
(6.44638e-05 0.00010115 0.10773)
(-6.12945e-05 0.000100427 0.107727)
(-0.00015457 0.000154535 0.106487)
(-2.01972e-06 2.82571e-06 0.106722)
(0.000101783 6.47905e-05 0.107565)
(9.76128e-05 -4.8565e-05 0.10756)
(0.000102001 6.2653e-05 0.107731)
(0.000103345 -7.23037e-05 0.10773)
(-9.83183e-05 -5.19625e-05 0.107569)
(-9.95784e-05 6.23432e-05 0.107726)
(-9.96651e-05 -5.95639e-05 0.107722)
(0.000136474 -0.000136488 0.106496)
(1.84486e-05 -1.75676e-05 0.106723)
(-5.36518e-05 -9.71583e-05 0.107568)
(7.33069e-05 -0.00010249 0.107729)
(-5.77712e-05 -0.000100501 0.107722)
(8.89066e-06 7.74981e-06 0.106723)
(0.000158513 0.000157211 0.106573)
(5.02649e-05 9.34396e-05 0.107785)
(-6.5499e-05 0.000101024 0.107779)
(-0.000166951 0.000166935 0.106582)
(9.42904e-05 4.87899e-05 0.107786)
(0.000101269 -6.78712e-05 0.107781)
(-0.000104421 -7.3911e-05 0.107775)
(0.0001758 -0.000175777 0.106577)
(-7.24748e-05 -0.000105317 0.107775)
(1.24741e-06 1.24499e-06 0.0999994)
(1.59791e-05 1.59737e-05 0.100001)
(1.53637e-06 1.37707e-05 0.0999998)
(1.37772e-05 1.53427e-06 0.0999998)
(-4.86823e-05 5.70139e-06 0.100008)
(-2.19193e-05 1.83011e-05 0.1)
(-0.000127869 6.03097e-05 0.100058)
(-1.76785e-05 1.76075e-06 0.0999985)
(5.6998e-06 -4.86689e-05 0.100008)
(1.83059e-05 -2.19166e-05 0.1)
(1.7623e-06 -1.76769e-05 0.0999985)
(6.03139e-05 -0.000127822 0.100058)
(-2.50344e-05 -2.50366e-05 0.100004)
(-0.000134778 -8.09383e-05 0.100055)
(-8.09376e-05 -0.000134727 0.100055)
(-3.43514e-05 0.000137147 0.100737)
(0.00017566 0.000388767 0.099425)
(2.26621e-06 0.000302184 0.100525)
(-8.50232e-05 0.000245526 0.0991604)
(-0.000303143 0.000837051 0.0977804)
(-0.000128454 0.0003057 0.0957323)
(0.000136986 -3.44136e-05 0.100737)
(0.00038894 0.000175052 0.099425)
(0.000302801 2.19614e-06 0.100526)
(0.000245637 -8.47157e-05 0.0991604)
(-0.000124339 0.000124283 0.100289)
(0.000124321 -0.000124344 0.100289)
(-0.000124326 -0.000124314 0.100289)
(9.51811e-05 9.51883e-05 0.100737)
(-9.51776e-05 9.51839e-05 0.100737)
(9.51658e-05 -9.51805e-05 0.100737)
(-9.51766e-05 -9.51914e-05 0.100737)
(-0.000285847 6.32156e-06 0.100768)
(-0.000389988 0.000227407 0.100533)
(-0.000157429 2.29444e-05 0.100284)
(-0.000160586 0.000101568 0.100585)
(-0.000350157 1.58151e-05 0.100488)
(-0.000153288 0.000198694 0.100753)
(-0.000159143 3.57044e-05 0.100524)
(0.000835859 -0.000301527 0.0977796)
(0.000305589 -0.000128423 0.0957325)
(6.30112e-06 -0.000285889 0.100768)
(2.29665e-05 -0.000157432 0.100284)
(0.000227475 -0.000389908 0.100533)
(0.000101585 -0.000160598 0.100585)
(1.58402e-05 -0.000350155 0.100488)
(3.57257e-05 -0.000159159 0.100524)
(0.000198705 -0.000153368 0.100753)
(-0.000369941 -0.000141098 0.100368)
(-0.000141126 -0.000369715 0.100368)
(-0.000118328 -0.000118307 0.100671)
(9.91428e-06 -8.01559e-05 0.100603)
(-8.01995e-05 9.84546e-06 0.100603)
(-1.65099e-05 0.000197755 0.100866)
(-5.55285e-05 0.000289386 0.0983218)
(-2.02194e-05 0.000209181 0.100778)
(-4.54475e-05 0.000271882 0.0979437)
(-0.000150565 0.00031432 0.092623)
(-0.000136986 0.000273546 0.0909986)
(0.000197758 -1.65455e-05 0.100866)
(0.000289451 -5.52317e-05 0.0983218)
(0.000209236 -2.02659e-05 0.100779)
(0.000271945 -4.52027e-05 0.0979436)
(-9.66593e-05 9.66472e-05 0.100853)
(9.66414e-05 -9.66665e-05 0.100853)
(-9.66582e-05 -9.66757e-05 0.100853)
(9.52284e-05 9.52399e-05 0.101239)
(-9.5236e-05 9.52157e-05 0.101239)
(9.52281e-05 -9.52475e-05 0.101239)
(-9.52453e-05 -9.52485e-05 0.101239)
(-0.000263983 1.33251e-05 0.101152)
(-0.000220635 0.000213922 0.100819)
(-0.000170561 3.22029e-05 0.100893)
(-0.000161593 9.87923e-05 0.101062)
(-0.000300763 1.41702e-05 0.100978)
(-0.000183793 0.000197329 0.100943)
(-0.000170737 3.29928e-05 0.101016)
(0.000314057 -0.000150435 0.0926227)
(0.000273444 -0.000136959 0.0909981)
(1.33109e-05 -0.000263998 0.101151)
(3.21969e-05 -0.000170565 0.100893)
(0.00021391 -0.000220661 0.100819)
(9.87705e-05 -0.000161596 0.101062)
(1.41495e-05 -0.000300798 0.100978)
(3.29912e-05 -0.000170739 0.101016)
(0.000197268 -0.000183785 0.100943)
(-8.41971e-05 -9.75069e-05 0.100439)
(-9.73273e-05 -8.41607e-05 0.100439)
(-0.000112316 -0.000112367 0.101142)
(-8.67195e-05 -8.23998e-05 0.100429)
(-8.23514e-05 -8.66667e-05 0.100428)
(-9.49246e-06 0.000210274 0.100957)
(-2.25925e-05 0.000281883 0.0971375)
(-1.16761e-05 0.000229834 0.100903)
(-1.27757e-05 0.000257155 0.0967126)
(-0.000116973 0.000226245 0.0883854)
(-9.64859e-05 0.000187589 0.0870651)
(0.000210278 -9.51476e-06 0.100957)
(0.000281915 -2.25e-05 0.0971375)
(0.000229851 -1.17245e-05 0.100903)
(0.000257191 -1.27087e-05 0.0967122)
(-9.47286e-05 9.47113e-05 0.101372)
(9.47224e-05 -9.47399e-05 0.101372)
(-9.47379e-05 -9.47381e-05 0.101372)
(9.42259e-05 9.42455e-05 0.101763)
(-9.42479e-05 9.4222e-05 0.101763)
(9.42383e-05 -9.42495e-05 0.101763)
(-9.42434e-05 -9.42471e-05 0.101763)
(-0.000250982 1.22626e-05 0.10158)
(-0.00022289 0.000189785 0.101028)
(-0.000167237 3.31029e-05 0.101409)
(-0.000155408 9.34915e-05 0.101579)
(-0.000289918 1.21346e-05 0.101414)
(-0.000182707 0.000168608 0.101123)
(-0.000167551 3.30809e-05 0.101539)
(0.00022614 -0.000116958 0.0883853)
(0.000187509 -9.64918e-05 0.0870644)
(1.22399e-05 -0.000250969 0.10158)
(3.31083e-05 -0.000167231 0.101409)
(0.000189857 -0.000222845 0.101028)
(9.34861e-05 -0.000155412 0.101579)
(1.21409e-05 -0.000289951 0.101414)
(3.30847e-05 -0.000167557 0.101539)
(0.000168805 -0.000182629 0.101123)
(-0.000116251 -9.10848e-05 0.100182)
(-9.10506e-05 -0.000116206 0.100182)
(-0.000101874 -0.000101889 0.101647)
(-0.000112275 -7.20136e-05 0.100086)
(-7.19865e-05 -0.000112224 0.100085)
(-6.89787e-06 0.000209697 0.100952)
(4.59289e-06 0.00025889 0.0958589)
(-7.80305e-06 0.000235947 0.100928)
(9.17028e-06 0.000230445 0.0954231)
(-7.68668e-05 0.000150319 0.084977)
(-5.86966e-05 0.000119195 0.083965)
(0.00020972 -6.99041e-06 0.100952)
(0.000258833 4.74345e-06 0.0958585)
(0.000235971 -7.85386e-06 0.100928)
(0.000230473 9.23775e-06 0.0954227)
(-9.37329e-05 9.37185e-05 0.101892)
(9.37336e-05 -9.37438e-05 0.101892)
(-9.3743e-05 -9.37516e-05 0.101892)
(9.17296e-05 9.17534e-05 0.102273)
(-9.17297e-05 9.17189e-05 0.102273)
(9.17303e-05 -9.17292e-05 0.102273)
(-9.17458e-05 -9.17431e-05 0.102273)
(-0.000238384 1.11835e-05 0.101978)
(-0.000220186 0.000162685 0.101142)
(-0.000165452 3.23846e-05 0.101924)
(-0.000150799 8.93904e-05 0.102082)
(-0.000282537 1.09353e-05 0.101822)
(-0.000175246 0.000140562 0.101214)
(-0.000163981 3.2033e-05 0.102051)
(0.000150211 -7.69013e-05 0.0849768)
(0.000119086 -5.86953e-05 0.0839643)
(1.11225e-05 -0.000238276 0.101978)
(3.2389e-05 -0.000165453 0.101924)
(0.000162377 -0.000220306 0.101142)
(8.94048e-05 -0.000150815 0.102082)
(1.09754e-05 -0.000282559 0.101822)
(3.20224e-05 -0.000163995 0.102051)
(0.000141038 -0.000175224 0.101213)
(-0.000133491 -7.8911e-05 0.0997181)
(-7.88524e-05 -0.000133439 0.0997181)
(-9.1619e-05 -9.1588e-05 0.102133)
(-0.000124288 -5.96782e-05 0.0995701)
(-5.96665e-05 -0.00012416 0.0995686)
(-6.19735e-06 0.000201715 0.100851)
(1.88735e-05 0.000226792 0.0945622)
(-6.91308e-06 0.000231031 0.100853)
(1.74989e-05 0.000198358 0.0941439)
(-4.4965e-05 9.54883e-05 0.0823427)
(-3.08355e-05 7.20782e-05 0.0815907)
(0.000201774 -6.06727e-06 0.100851)
(0.000226611 1.90966e-05 0.0945617)
(0.000231059 -6.77055e-06 0.100853)
(0.00019815 1.77511e-05 0.0941434)
(-9.10352e-05 9.10074e-05 0.102398)
(9.10409e-05 -9.1025e-05 0.102398)
(-9.10193e-05 -9.10209e-05 0.102398)
(8.88706e-05 8.89032e-05 0.102765)
(-8.88475e-05 8.88733e-05 0.102765)
(8.88582e-05 -8.88569e-05 0.102765)
(-8.88986e-05 -8.8898e-05 0.102765)
(-0.000223357 1.0032e-05 0.102336)
(-0.000210983 0.000138285 0.101161)
(-0.000159108 3.09177e-05 0.102425)
(-0.000144885 8.48293e-05 0.102565)
(-0.000270694 9.69924e-06 0.102189)
(-0.000164159 0.000117251 0.101213)
(-0.000157394 3.05282e-05 0.102547)
(9.54356e-05 -4.49948e-05 0.0823421)
(7.20393e-05 -3.08653e-05 0.0815892)
(1.02365e-05 -0.000223393 0.102335)
(3.09012e-05 -0.000159107 0.102425)
(0.000136711 -0.000211238 0.101162)
(8.48235e-05 -0.000144904 0.102565)
(9.85187e-06 -0.000270885 0.10219)
(3.05281e-05 -0.000157411 0.102547)
(0.000115541 -0.000164612 0.101213)
(-0.000138586 -6.86254e-05 0.099114)
(-6.84987e-05 -0.000138698 0.0991139)
(-8.12947e-05 -8.12454e-05 0.102593)
(-0.000126584 -5.08106e-05 0.0989325)
(-5.063e-05 -0.00012654 0.0989304)
(-6.07065e-06 0.000190149 0.100664)
(2.13818e-05 0.000193624 0.0933131)
(-6.96734e-06 0.000221024 0.10069)
(1.75053e-05 0.000165763 0.0929278)
(-2.36617e-05 6.03827e-05 0.0803362)
(-1.29529e-05 4.19597e-05 0.079785)
(0.000190269 -6.02817e-06 0.100664)
(0.000193596 2.14401e-05 0.0933125)
(0.000221043 -6.94613e-06 0.10069)
(0.000165468 1.77555e-05 0.0929272)
(-8.81498e-05 8.8133e-05 0.102885)
(8.81596e-05 -8.81209e-05 0.102885)
(-8.81163e-05 -8.81058e-05 0.102885)
(8.59926e-05 8.60475e-05 0.103238)
(-8.59999e-05 8.60482e-05 0.103238)
(8.60335e-05 -8.60292e-05 0.103238)
(-8.60309e-05 -8.60187e-05 0.103238)
(-0.000207535 9.42805e-06 0.10265)
(-0.000199837 0.000117425 0.101096)
(-0.000152236 2.95434e-05 0.102905)
(-0.000139314 8.09797e-05 0.103025)
(-0.000257094 9.136e-06 0.102514)
(-0.000152637 9.89009e-05 0.101131)
(-0.000150505 2.9178e-05 0.103021)
(5.97423e-05 -2.33565e-05 0.0803369)
(4.13593e-05 -1.23946e-05 0.079783)
(9.73768e-06 -0.000207763 0.10265)
(2.9515e-05 -0.000152242 0.102905)
(0.000118259 -0.000199725 0.101097)
(8.09689e-05 -0.000139315 0.103025)
(9.02765e-06 -0.000257207 0.102514)
(2.9191e-05 -0.000150514 0.103021)
(9.67769e-05 -0.000152562 0.101132)
(-0.000134469 -6.09095e-05 0.0984155)
(-6.09586e-05 -0.000134598 0.0984155)
(-7.17552e-05 -7.17489e-05 0.103024)
(-0.000120918 -4.43703e-05 0.0982139)
(-4.42876e-05 -0.000121047 0.0982116)
(-5.54534e-06 0.0001769 0.100405)
(1.54669e-05 0.000163972 0.0921488)
(-6.23645e-06 0.000208109 0.10045)
(1.22978e-05 0.000136244 0.0918041)
(-1.1383e-05 3.97584e-05 0.0788034)
(-2.72638e-06 2.48692e-05 0.0784015)
(0.000176929 -5.48464e-06 0.100405)
(0.000164178 1.50787e-05 0.092148)
(0.000208012 -6.24686e-06 0.100449)
(0.000136151 1.23516e-05 0.0918033)
(-8.53508e-05 8.53508e-05 0.103353)
(8.53521e-05 -8.52837e-05 0.103353)
(-8.53581e-05 -8.5339e-05 0.103353)
(8.33993e-05 8.3455e-05 0.103692)
(-8.34651e-05 8.34893e-05 0.103692)
(8.35001e-05 -8.34444e-05 0.103692)
(-8.3436e-05 -8.34294e-05 0.103692)
(-0.000192118 9.59223e-06 0.102924)
(-0.0001878 9.72858e-05 0.100959)
(-0.000145547 2.84076e-05 0.103363)
(-0.000134348 7.79311e-05 0.103461)
(-0.000243446 9.21816e-06 0.102796)
(-0.000141265 8.22691e-05 0.100979)
(-0.000143965 2.81474e-05 0.103475)
(3.94077e-05 -1.14377e-05 0.0788061)
(2.44339e-05 -2.25052e-06 0.0783991)
(9.58924e-06 -0.000192243 0.102924)
(2.8343e-05 -0.000145559 0.103363)
(0.000101891 -0.000187605 0.100959)
(7.79624e-05 -0.000134369 0.103461)
(8.61524e-06 -0.000243234 0.102796)
(2.81686e-05 -0.000143977 0.103475)
(8.26871e-05 -0.000140239 0.100979)
(-0.000126772 -5.49088e-05 0.0976637)
(-5.50521e-05 -0.000126754 0.0976635)
(-6.27821e-05 -6.28405e-05 0.103428)
(-0.000110659 -3.83264e-05 0.0974497)
(-3.84044e-05 -0.000110719 0.0974475)
(-3.58029e-06 0.000162569 0.100087)
(7.67127e-06 0.000139608 0.0910843)
(-4.82181e-06 0.00019381 0.100147)