/*--------------------------------*- C++ -*----------------------------------*\
| =========                 |                                                 |
| \\      /  F ield         | OpenFOAM: The Open Source CFD Toolbox           |
|  \\    /   O peration     | Version:  2312                                  |
|   \\  /    A nd           | Website:  www.openfoam.com                      |
|    \\/     M anipulation  |                                                 |
\*---------------------------------------------------------------------------*/
FoamFile
{
    version     2.0;
    format      ascii;
    arch        "LSB;label=32;scalar=64";
    class       volScalarField;
    location    "375";
    object      epsilon;
}
// * * * * * * * * * * * * * * * * * * * * * * * * * * * * * * * * * * * * * //

dimensions      [0 2 -3 0 0 0 0];

internalField   nonuniform List<scalar> 
43120
(
1.33734e-07
2.3089e-07
2.30901e-07
3.58408e-07
1.3159e-07
2.41556e-07
2.41571e-07
3.84548e-07
1.30244e-07
2.54312e-07
2.54327e-07
4.13568e-07
1.29681e-07
2.69109e-07
2.69126e-07
4.45078e-07
1.29906e-07
2.85883e-07
2.85903e-07
4.78725e-07
1.30894e-07
3.04544e-07
3.04568e-07
5.14081e-07
1.32648e-07
3.2499e-07
3.2502e-07
5.50681e-07
1.35172e-07
3.47108e-07
3.47154e-07
5.88074e-07
1.38463e-07
3.70744e-07
3.70774e-07
6.25871e-07
1.4252e-07
3.95773e-07
3.95835e-07
6.63659e-07
1.47362e-07
4.22048e-07
4.22069e-07
7.01056e-07
1.52969e-07
4.49341e-07
4.49407e-07
7.37955e-07
1.5939e-07
4.77552e-07
4.77629e-07
7.74054e-07
1.6656e-07
5.06473e-07
5.06528e-07
8.09024e-07
1.74589e-07
5.35926e-07
5.35955e-07
8.43067e-07
1.83321e-07
5.65693e-07
5.65922e-07
8.75692e-07
1.92953e-07
5.95765e-07
5.95681e-07
9.07666e-07
2.03284e-07
6.25862e-07
6.26053e-07
9.37577e-07
2.14372e-07
6.55396e-07
6.55431e-07
9.67474e-07
2.26288e-07
6.85547e-07
6.85708e-07
9.94771e-07
2.38789e-07
7.14002e-07
7.14068e-07
1.02194e-06
2.52162e-07
7.43306e-07
7.43456e-07
1.04756e-06
2.66041e-07
7.70904e-07
7.70997e-07
1.07222e-06
2.80417e-07
7.98027e-07
7.98176e-07
1.09542e-06
2.95477e-07
8.24524e-07
8.24667e-07
1.11795e-06
3.11012e-07
8.49974e-07
8.50114e-07
1.13934e-06
8.74581e-07
3.52884e-07
2.2861e-07
2.28652e-07
3.52903e-07
2.28574e-07
2.28657e-07
2.28555e-07
2.28614e-07
3.5293e-07
2.28565e-07
2.28605e-07
3.52962e-07
3.58345e-07
3.78371e-07
2.3095e-07
2.30991e-07
2.38762e-07
2.38801e-07
3.58356e-07
3.78383e-07
2.30913e-07
2.30997e-07
2.3872e-07
2.38813e-07
2.30954e-07
2.38697e-07
2.38765e-07
3.58384e-07
3.78422e-07
2.30943e-07
2.38709e-07
2.38754e-07
3.78458e-07
3.84481e-07
4.06762e-07
2.41628e-07
2.41666e-07
2.51007e-07
2.51046e-07
3.84481e-07
4.0677e-07
2.41584e-07
2.41678e-07
2.50959e-07
2.51061e-07
2.41629e-07
2.50933e-07
2.51014e-07
3.84523e-07
4.06806e-07
2.41617e-07
2.50947e-07
2.51002e-07
4.06868e-07
4.13474e-07
4.37733e-07
2.54392e-07
2.5443e-07
2.65308e-07
2.65349e-07
4.13473e-07
4.37751e-07
2.54342e-07
2.54446e-07
2.65253e-07
2.65363e-07
2.54397e-07
2.65226e-07
2.65313e-07
4.13511e-07
4.37773e-07
2.54383e-07
2.65237e-07
2.65298e-07
4.37833e-07
4.44986e-07
4.709e-07
2.69198e-07
2.69237e-07
2.81603e-07
2.81646e-07
4.44991e-07
4.70921e-07
2.69141e-07
2.69257e-07
2.81541e-07
2.81672e-07
2.69204e-07
2.81514e-07
2.81608e-07
4.45016e-07
4.70991e-07
2.69186e-07
2.81534e-07
2.81588e-07
4.71011e-07
4.78625e-07
5.05854e-07
2.8598e-07
2.86021e-07
2.99813e-07
2.99854e-07
4.78633e-07
5.05863e-07
2.85916e-07
2.86045e-07
2.99742e-07
2.99881e-07
2.85987e-07
2.99711e-07
2.99822e-07
4.78694e-07
5.05912e-07
2.85964e-07
2.99733e-07
2.99796e-07
5.05975e-07
5.13972e-07
5.42137e-07
3.04653e-07
3.04693e-07
3.19837e-07
3.19872e-07
5.13966e-07
5.42129e-07
3.0458e-07
3.04721e-07
3.19757e-07
3.19914e-07
3.04662e-07
3.1972e-07
3.19849e-07
5.14021e-07
5.42217e-07
3.04632e-07
3.19755e-07
3.19816e-07
5.42263e-07
5.50569e-07
5.79294e-07
3.25108e-07
3.25148e-07
3.41562e-07
3.41593e-07
5.50544e-07
5.79292e-07
3.25027e-07
3.25183e-07
3.41471e-07
3.41635e-07
3.25125e-07
3.41431e-07
3.41568e-07
5.50634e-07
5.79367e-07
3.25087e-07
3.41467e-07
3.41525e-07
5.79429e-07
5.87973e-07
6.16889e-07
3.47242e-07
3.47275e-07
3.64829e-07
3.6487e-07
5.87936e-07
6.16936e-07
3.47151e-07
3.47325e-07
3.64727e-07
3.64909e-07
3.47248e-07
3.647e-07
3.64858e-07
5.88039e-07
6.16992e-07
3.472e-07
3.64735e-07
3.64805e-07
6.17068e-07
6.25705e-07
6.54651e-07
3.70889e-07
3.70919e-07
3.89557e-07
3.8959e-07
6.25708e-07
6.54684e-07
3.70787e-07
3.70953e-07
3.89443e-07
3.89637e-07
3.70907e-07
3.89412e-07
3.89574e-07
6.25771e-07
6.54728e-07
3.70848e-07
3.89455e-07
3.8951e-07
6.5477e-07
6.63504e-07
6.92033e-07
3.95914e-07
3.95954e-07
4.15504e-07
4.15558e-07
6.63558e-07
6.92056e-07
3.95803e-07
3.96021e-07
4.15377e-07
4.15593e-07
3.95962e-07
4.15375e-07
4.15535e-07
6.63609e-07
6.92165e-07
3.95892e-07
4.15408e-07
4.15458e-07
6.92199e-07
7.00927e-07
7.29015e-07
4.22189e-07
4.22236e-07
4.42585e-07
4.42601e-07
7.00973e-07
7.28952e-07
4.22067e-07
4.22259e-07
4.42447e-07
4.42681e-07
4.22216e-07
4.42413e-07
4.42613e-07
7.0104e-07
7.29066e-07
4.22133e-07
4.42492e-07
4.42524e-07
7.29153e-07
7.37831e-07
7.65122e-07
4.49471e-07
4.49532e-07
4.70641e-07
4.70627e-07
7.37767e-07
7.65168e-07
4.49338e-07
4.49599e-07
4.70492e-07
4.70686e-07
4.49527e-07
4.70437e-07
4.70663e-07
7.37931e-07
7.65168e-07
4.4943e-07
4.70496e-07
4.70563e-07
7.65305e-07
7.7394e-07
8.00193e-07
4.77767e-07
4.77746e-07
4.9929e-07
4.99403e-07
7.73917e-07
8.00275e-07
4.77624e-07
4.77821e-07
4.99127e-07
4.9942e-07
4.77791e-07
4.99211e-07
4.99352e-07
7.7392e-07
8.00407e-07
4.77682e-07
4.99229e-07
4.99234e-07
8.00409e-07
8.08779e-07
8.34528e-07
5.0658e-07
5.06668e-07
5.28766e-07
5.28644e-07
8.0891e-07
8.34362e-07
5.06425e-07
5.06718e-07
5.28599e-07
5.28798e-07
5.06649e-07
5.28453e-07
5.2883e-07
8.08997e-07
8.34523e-07
5.06526e-07
5.28609e-07
5.28706e-07
8.34645e-07
8.42954e-07
8.67368e-07
5.36157e-07
5.36119e-07
5.58359e-07
5.58518e-07
8.42783e-07
8.6758e-07
5.35992e-07
5.36143e-07
5.58176e-07
5.58518e-07
5.36217e-07
5.5832e-07
5.58352e-07
8.42943e-07
8.67494e-07
5.3608e-07
5.58326e-07
5.58206e-07
8.67509e-07
8.75574e-07
8.99348e-07
5.6583e-07
5.65888e-07
5.885e-07
5.88319e-07
8.75748e-07
8.99134e-07
5.65661e-07
5.66105e-07
5.88323e-07
5.88508e-07
5.65907e-07
5.88138e-07
5.88681e-07
8.75762e-07
8.99505e-07
5.65762e-07
5.88331e-07
5.8854e-07
8.99686e-07
9.07397e-07
9.29927e-07
5.95996e-07
5.95951e-07
6.18407e-07
6.18672e-07
9.07233e-07
9.30211e-07
5.95812e-07
5.95856e-07
6.18202e-07
6.18577e-07
5.96067e-07
6.18471e-07
6.18259e-07
9.07407e-07
9.29924e-07
5.95906e-07
6.18387e-07
6.18084e-07
9.29787e-07
9.37674e-07
9.59453e-07
6.25937e-07
6.2606e-07
6.48426e-07
6.48065e-07
9.37905e-07
9.59064e-07
6.25749e-07
6.26236e-07
6.48239e-07
6.48321e-07
6.25898e-07
6.47891e-07
6.48745e-07
9.37809e-07
9.59558e-07
6.25729e-07
6.48161e-07
6.48587e-07
9.5994e-07
9.66981e-07
9.87471e-07
6.55783e-07
6.55564e-07
6.77983e-07
6.78356e-07
9.66588e-07
9.87922e-07
6.55589e-07
6.55586e-07
6.7777e-07
6.78341e-07
6.561e-07
6.78174e-07
6.7796e-07
9.66912e-07
9.8771e-07
6.55924e-07
6.78178e-07
6.77772e-07
9.87553e-07
9.94791e-07
1.01478e-06
6.85454e-07
6.85736e-07
7.07326e-07
7.07025e-07
9.95292e-07
1.01444e-06
6.8525e-07
6.85875e-07
7.07123e-07
7.07162e-07
6.8537e-07
7.06854e-07
7.07423e-07
9.95235e-07
1.01472e-06
6.85183e-07
7.0701e-07
7.07244e-07
1.01489e-06
1.02176e-06
1.04053e-06
7.14447e-07
7.14168e-07
7.36089e-07
7.36208e-07
1.02133e-06
1.04068e-06
7.14239e-07
7.14216e-07
7.35879e-07
7.36289e-07
7.14616e-07
7.36041e-07
7.36151e-07
1.0215e-06
1.0407e-06
7.14424e-07
7.3615e-07
7.35957e-07
1.04071e-06
1.04747e-06
1.06561e-06
7.43333e-07
7.43479e-07
7.64363e-07
7.64307e-07
1.04771e-06
1.06559e-06
7.43126e-07
7.43602e-07
7.64155e-07
7.64396e-07
7.43338e-07
7.64147e-07
7.64439e-07
1.04779e-06
1.06572e-06
7.4314e-07
7.64262e-07
7.64244e-07
1.0657e-06
1.07208e-06
1.08883e-06
7.71158e-07
7.7106e-07
7.91449e-07
7.91391e-07
1.07198e-06
1.08878e-06
7.70948e-07
7.71129e-07
7.91241e-07
7.91504e-07
7.71289e-07
7.91244e-07
7.9159e-07
1.07207e-06
1.08888e-06
7.71087e-07
7.91386e-07
7.91394e-07
1.08908e-06
1.0952e-06
1.11165e-06
7.98201e-07
7.98176e-07
8.18149e-07
8.18158e-07
1.09519e-06
1.1117e-06
7.97993e-07
7.98297e-07
8.17937e-07
8.18267e-07
7.98322e-07
8.18018e-07
8.18254e-07
1.09531e-06
1.11183e-06
7.98119e-07
8.18155e-07
8.18053e-07
1.11182e-06
1.11779e-06
1.13328e-06
8.24672e-07
8.24662e-07
8.43903e-07
8.43816e-07
1.11783e-06
1.13323e-06
8.24461e-07
8.2478e-07
8.43694e-07
8.43955e-07
8.24781e-07
8.43686e-07
8.43982e-07
1.11795e-06
1.13337e-06
8.24576e-07
8.43851e-07
8.43784e-07
1.13344e-06
1.1392e-06
1.15383e-06
8.50185e-07
8.50103e-07
8.686e-07
8.68575e-07
1.13914e-06
1.15385e-06
8.49975e-07
8.5022e-07
8.68385e-07
8.68641e-07
8.50261e-07
8.68458e-07
8.68708e-07
1.13927e-06
1.1539e-06
8.50055e-07
8.68549e-07
8.68503e-07
1.15399e-06
8.74673e-07
1.15959e-06
1.34399e-07
1.34404e-07
1.34408e-07
1.34409e-07
1.84895e-05
2.24284e-07
2.74412e-06
3.68273e-06
8.90841e-06
3.64849e-06
8.91342e-06
1.84669e-05
1.84584e-05
3.68283e-06
8.90966e-06
3.64854e-06
8.91467e-06
1.33738e-07
1.33742e-07
1.33744e-07
1.32057e-07
1.32061e-07
1.32065e-07
1.32067e-07
1.15855e-06
2.79632e-06
1.58589e-07
2.33363e-07
1.13068e-06
2.81981e-06
1.58819e-07
1.84675e-05
1.84592e-05
1.15862e-06
1.58611e-07
2.79622e-06
2.33373e-07
1.13074e-06
1.5882e-07
2.81996e-06
5.13125e-06
5.13293e-06
3.65321e-07
5.14367e-06
5.14546e-06
3.75895e-06
8.91966e-06
3.73197e-06
8.92416e-06
1.8438e-05
1.84304e-05
3.75906e-06
8.92093e-06
3.73202e-06
8.92543e-06
1.31595e-07
1.31599e-07
1.31601e-07
1.30515e-07
1.3052e-07
1.30525e-07
1.30527e-07
1.24239e-06
2.86624e-06
1.59956e-07
2.44554e-07
1.21521e-06
2.88721e-06
1.6052e-07
1.84387e-05
1.84312e-05
1.24248e-06
1.59981e-07
2.8662e-06
2.44567e-07
1.21526e-06
1.60521e-07
2.88741e-06
5.16586e-06
5.16755e-06
3.92309e-07
5.17603e-06
5.17781e-06
3.81831e-06
8.92964e-06
3.79758e-06
8.93358e-06
1.84114e-05
1.84047e-05
3.81842e-06
8.93092e-06
3.79762e-06
8.93486e-06
1.30248e-07
1.30253e-07
1.30256e-07
1.29764e-07
1.29769e-07
1.29774e-07
1.29777e-07
1.32306e-06
2.92817e-06
1.62658e-07
2.57827e-07
1.29711e-06
2.94668e-06
1.63561e-07
1.84121e-05
1.84056e-05
1.32317e-06
1.62686e-07
2.92815e-06
2.57841e-07
1.29716e-06
1.63564e-07
2.94696e-06
5.19456e-06
5.19627e-06
4.22054e-07
5.20282e-06
5.20457e-06
3.86379e-06
8.93834e-06
3.84816e-06
8.94178e-06
1.83872e-05
1.83812e-05
3.86389e-06
8.93963e-06
3.84819e-06
8.94308e-06
1.29686e-07
1.29692e-07
1.29694e-07
1.29778e-07
1.29783e-07
1.29791e-07
1.29792e-07
1.39913e-06
2.98275e-06
1.66713e-07
2.73124e-07
1.37483e-06
2.99901e-06
1.67963e-07
1.83879e-05
1.83822e-05
1.39924e-06
1.66745e-07
2.98276e-06
2.73146e-07
1.37488e-06
1.67967e-07
2.99929e-06
5.21851e-06
5.2202e-06
4.54179e-07
5.2254e-06
5.22714e-06
3.89837e-06
8.94595e-06
3.88671e-06
8.94899e-06
1.83653e-05
1.83599e-05
3.89844e-06
8.94724e-06
3.88675e-06
8.95029e-06
1.29911e-07
1.29919e-07
1.29921e-07
1.30575e-07
1.30579e-07
1.30588e-07
1.30591e-07
1.46965e-06
3.03087e-06
1.72142e-07
2.90379e-07
1.44727e-06
3.04512e-06
1.73737e-07
1.83658e-05
1.83607e-05
1.46975e-06
1.72178e-07
3.03083e-06
2.90397e-07
1.44733e-06
1.73742e-07
3.04525e-06
5.23856e-06
5.24025e-06
4.88296e-07
5.24444e-06
5.24618e-06
3.92466e-06
8.9527e-06
3.91598e-06
8.95546e-06
1.83457e-05
1.83409e-05
3.92472e-06
8.954e-06
3.91603e-06
8.95676e-06
1.30899e-07
1.30909e-07
1.30911e-07
1.32138e-07
1.32142e-07
1.32153e-07
1.32157e-07
1.53412e-06
3.0733e-06
1.7895e-07
3.09496e-07
1.51376e-06
3.08584e-06
1.80892e-07
1.83463e-05
1.83415e-05
1.53422e-06
1.7899e-07
3.07331e-06
3.09522e-07
1.51384e-06
1.809e-07
3.08588e-06
5.25566e-06
5.25735e-06
5.23969e-07
5.26064e-06
5.26237e-06
3.94478e-06
8.95885e-06
3.93831e-06
8.96142e-06
1.83282e-05
1.83243e-05
3.94485e-06
8.96015e-06
3.93835e-06
8.96272e-06
1.32654e-07
1.32664e-07
1.32669e-07
1.3447e-07
1.34476e-07
1.34487e-07
1.34488e-07
1.59244e-06
3.11085e-06
1.87138e-07
3.30372e-07
1.57409e-06
3.12199e-06
1.89427e-07
1.8329e-05
1.83247e-05
1.59254e-06
1.87183e-07
3.11094e-06
3.30393e-07
1.57417e-06
1.89437e-07
3.12195e-06
5.27048e-06
5.27217e-06
5.60752e-07
5.2747e-06
5.27642e-06
3.9604e-06
8.96465e-06
3.95553e-06
8.96714e-06
1.83131e-05
1.831e-05
3.96048e-06
8.96596e-06
3.95556e-06
8.96844e-06
1.35177e-07
1.35191e-07
1.35193e-07
1.37567e-07
1.37573e-07
1.37584e-07
1.37589e-07
1.64482e-06
3.14424e-06
1.96702e-07
3.52887e-07
1.62838e-06
3.15426e-06
1.99333e-07
1.8314e-05
1.83106e-05
1.64493e-06
1.96752e-07
3.14443e-06
3.52931e-07
1.62845e-06
1.99347e-07
3.15433e-06
5.28341e-06
5.28509e-06
5.982e-07
5.28712e-06
5.28885e-06
3.97281e-06
8.97031e-06
3.96905e-06
8.97286e-06
1.83002e-05
1.82979e-05
3.97286e-06
8.97161e-06
3.96908e-06
8.97417e-06
1.38468e-07
1.38479e-07
1.38485e-07
1.41438e-07
1.41441e-07
1.41459e-07
1.41462e-07
1.6917e-06
3.17414e-06
2.0762e-07
3.7689e-07
1.67703e-06
3.18314e-06
2.10589e-07
1.83009e-05
1.82986e-05
1.69191e-06
2.07672e-07
3.17423e-06
3.76915e-07
1.67702e-06
2.10601e-07
3.18326e-06
5.29502e-06
5.29669e-06
6.35933e-07
5.29828e-06
5.3e-06
3.98292e-06
8.97601e-06
3.97988e-06
8.97865e-06
1.82898e-05
1.8288e-05
3.98296e-06
8.97731e-06
3.97992e-06
8.97995e-06
1.42526e-07
1.42549e-07
1.4255e-07
1.46079e-07
1.46088e-07
1.461e-07
1.46107e-07
1.7338e-06
3.20135e-06
2.19865e-07
4.02221e-07
1.72049e-06
3.20924e-06
2.23162e-07
1.82905e-05
1.82888e-05
1.734e-06
2.19928e-07
3.20139e-06
4.02291e-07
1.72043e-06
2.23183e-07
3.20948e-06
5.30568e-06
5.30736e-06
6.73598e-07
5.30876e-06
5.31048e-06
3.99135e-06
8.98199e-06
3.98877e-06
8.98485e-06
1.82818e-05
1.82809e-05
3.99138e-06
8.98329e-06
3.98883e-06
8.98614e-06
1.47368e-07
1.47382e-07
1.47391e-07
1.51498e-07
1.51505e-07
1.51528e-07
1.51529e-07
1.77157e-06
3.22619e-06
2.33402e-07
4.28774e-07
1.75936e-06
3.23338e-06
2.37016e-07
1.82823e-05
1.82815e-05
1.77173e-06
2.33465e-07
3.22606e-06
4.28811e-07
1.7593e-06
2.37036e-07
3.23341e-06
5.3153e-06
5.31697e-06
7.10754e-07
5.31857e-06
5.32028e-06
3.99853e-06
8.98828e-06
3.99635e-06
8.99128e-06
1.82758e-05
1.82762e-05
3.99859e-06
8.9896e-06
3.99641e-06
8.99259e-06
1.52987e-07
1.53004e-07
1.53007e-07
1.5772e-07
1.57713e-07
1.57745e-07
1.57753e-07
1.80558e-06
3.24872e-06
2.48182e-07
4.56333e-07
1.79435e-06
3.2556e-06
2.52102e-07
1.82767e-05
1.82766e-05
1.80576e-06
2.48253e-07
3.24888e-06
4.56377e-07
1.79433e-06
2.52125e-07
3.25555e-06
5.32455e-06
5.32624e-06
7.47271e-07
5.32764e-06
5.32935e-06
4.00501e-06
8.99533e-06
4.00306e-06
8.9983e-06
1.82725e-05
1.82733e-05
4.00506e-06
8.99663e-06
4.00309e-06
8.99961e-06
1.59389e-07
1.59419e-07
1.59431e-07
1.6469e-07
1.64725e-07
1.64733e-07
1.64727e-07
1.8365e-06
3.26989e-06
2.6416e-07
4.84728e-07
1.82611e-06
3.27604e-06
2.68372e-07
1.82732e-05
1.82742e-05
1.83668e-06
2.6424e-07
3.26989e-06
4.84796e-07
1.82606e-06
2.68398e-07
3.27624e-06
5.33408e-06
5.33575e-06
7.83003e-07
5.33654e-06
5.33825e-06
4.01098e-06
9.0026e-06
4.00908e-06
9.00622e-06
1.82716e-05
1.82732e-05
4.01102e-06
9.00391e-06
4.00913e-06
9.00751e-06
1.66583e-07
1.66612e-07
1.66604e-07
1.72521e-07
1.72489e-07
1.72543e-07
1.72575e-07
1.86481e-06
3.2897e-06
2.81257e-07
5.13746e-07
1.85505e-06
3.29541e-06
2.85729e-07
1.82719e-05
1.82739e-05
1.86497e-06
2.81334e-07
3.28948e-06
5.13881e-07
1.855e-06
2.85778e-07
3.2955e-06
5.34307e-06
5.34475e-06
8.17685e-07
5.34584e-06
5.34755e-06
4.01659e-06
9.01076e-06
4.01483e-06
9.01446e-06
1.82726e-05
1.82758e-05
4.01664e-06
9.0121e-06
4.01489e-06
9.01578e-06
1.74587e-07
1.74589e-07
1.74634e-07
1.81051e-07
1.81107e-07
1.81127e-07
1.81078e-07
1.89098e-06
3.30801e-06
2.9943e-07
5.43434e-07
1.88174e-06
3.31395e-06
3.04183e-07
1.82731e-05
1.82757e-05
1.89108e-06
2.99513e-07
3.30805e-06
5.43331e-07
1.88173e-06
3.04177e-07
3.31354e-06
5.35225e-06
5.35394e-06
8.51282e-07
5.35474e-06
5.35647e-06
4.0221e-06
9.01954e-06
4.0203e-06
9.02371e-06
1.82755e-05
1.82789e-05
4.02223e-06
9.02087e-06
4.02035e-06
9.02506e-06
1.83344e-07
1.8344e-07
1.83383e-07
1.90499e-07
1.90434e-07
1.90507e-07
1.90589e-07
1.91525e-06
3.32546e-06
3.18571e-07
5.73093e-07
1.90653e-06
3.33042e-06
3.23526e-07
1.82771e-05
1.82804e-05
1.91553e-06
3.18688e-07
3.3258e-06
5.73492e-07
1.90652e-06
3.2365e-07
3.33133e-06
5.36059e-06
5.36224e-06
8.83642e-07
5.36459e-06
5.36632e-06
4.02783e-06
9.02942e-06
4.02586e-06
9.03362e-06
1.82821e-05
1.82864e-05
4.0278e-06
9.03069e-06
4.02584e-06
9.03491e-06
1.92939e-07
1.92907e-07
1.93006e-07
2.00598e-07
2.0072e-07
2.00701e-07
2.00575e-07
1.93823e-06
3.34255e-06
3.3865e-07
6.03398e-07
1.92984e-06
3.34774e-06
3.43865e-07
1.82816e-05
1.8286e-05
1.93823e-06
3.38725e-07
3.34211e-06
6.03123e-07
1.9298e-06
3.43812e-07
3.34707e-06
5.36999e-06
5.37163e-06
9.14944e-07
5.37185e-06
5.37351e-06
4.0335e-06
9.03956e-06
4.03145e-06
9.04443e-06
1.82888e-05
1.82933e-05
4.03367e-06
9.04092e-06
4.03154e-06
9.04579e-06
2.03346e-07
2.03429e-07
2.03295e-07
2.1157e-07
2.11435e-07
2.11539e-07
2.1173e-07
1.95983e-06
3.3584e-06
3.59571e-07
6.33185e-07
1.95177e-06
3.36283e-06
3.64917e-07
1.82903e-05
1.82949e-05
1.96013e-06
3.59678e-07
3.35872e-06
6.33587e-07
1.95176e-06
3.65052e-07
3.36375e-06
5.37901e-06
5.3807e-06
9.4495e-07
5.38278e-06
5.38451e-06
4.03957e-06
9.05088e-06
4.03732e-06
9.05563e-06
1.82985e-05
1.83051e-05
4.03956e-06
9.0522e-06
4.03732e-06
9.05694e-06
2.14296e-07
2.14319e-07
2.1454e-07
2.232e-07
2.23372e-07
2.23385e-07
2.23239e-07
1.98046e-06
3.37333e-06
3.81077e-07
6.63003e-07
1.97266e-06
3.37841e-06
3.86662e-07
1.82983e-05
1.83048e-05
1.98047e-06
3.81195e-07
3.37307e-06
6.62881e-07
1.97266e-06
3.86661e-07
3.37776e-06
5.38888e-06
5.39056e-06
9.74034e-07
5.39078e-06
5.39244e-06
4.04595e-06
9.0629e-06
4.04355e-06
9.06846e-06
1.83105e-05
1.83157e-05
4.04609e-06
9.06423e-06
4.04361e-06
9.06975e-06
2.26426e-07
2.26491e-07
2.26294e-07
2.35634e-07
2.35544e-07
2.35612e-07
2.35707e-07
2.0002e-06
3.38905e-06
4.03538e-07
6.92735e-07
1.99272e-06
3.39302e-06
4.0921e-07
1.8312e-05
1.83168e-05
2.00044e-06
4.03647e-07
3.38948e-06
6.9299e-07
1.9927e-06
4.09308e-07
3.39362e-06
5.39732e-06
5.399e-06
1.00126e-06
5.40093e-06
5.40268e-06
4.05235e-06
9.07535e-06
4.04974e-06
9.08107e-06
1.8322e-05
1.83307e-05
4.05239e-06
9.0766e-06
4.04974e-06
9.08233e-06
2.38697e-07
2.38739e-07
2.38895e-07
2.48716e-07
2.48772e-07
2.48828e-07
2.48792e-07
2.01884e-06
3.40198e-06
4.26082e-07
7.21288e-07
2.0116e-06
3.40668e-06
4.31883e-07
1.83224e-05
1.83315e-05
2.01891e-06
4.26197e-07
3.40174e-06
7.21321e-07
2.01157e-06
4.31923e-07
3.40653e-06
5.4069e-06
5.40856e-06
1.02793e-06
5.40982e-06
5.41151e-06
4.05978e-06
9.08956e-06
4.05695e-06
9.0954e-06
1.83392e-05
1.83459e-05
4.05986e-06
9.09085e-06
4.05702e-06
9.09668e-06
2.52235e-07
2.52307e-07
2.52213e-07
2.62561e-07
2.62579e-07
2.62637e-07
2.62639e-07
2.03736e-06
3.41733e-06
4.49546e-07
7.50405e-07
2.03025e-06
3.42129e-06
4.55509e-07
1.83405e-05
1.83469e-05
2.03752e-06
4.49673e-07
3.41752e-06
7.5057e-07
2.03025e-06
4.55592e-07
3.42153e-06
5.41695e-06
5.41864e-06
1.05341e-06
5.42006e-06
5.42178e-06
4.06657e-06
9.10297e-06
4.06381e-06
9.10901e-06
1.83534e-05
1.8362e-05
4.06665e-06
9.10425e-06
4.06382e-06
9.11029e-06
2.66037e-07
2.66092e-07
2.66145e-07
2.76742e-07
2.7673e-07
2.76813e-07
2.76864e-07
2.05442e-06
3.42963e-06
4.7304e-07
7.77663e-07
2.04778e-06
3.43346e-06
4.78929e-07
1.83544e-05
1.83631e-05
2.05451e-06
4.73156e-07
3.42954e-06
7.77763e-07
2.04776e-06
4.78994e-07
3.43351e-06
5.4261e-06
5.42778e-06
1.07751e-06
5.42894e-06
5.43065e-06
4.07423e-06
9.11782e-06
4.07113e-06
9.12435e-06
1.83722e-05
1.83812e-05
4.07431e-06
9.11911e-06
4.07118e-06
9.12564e-06
2.80416e-07
2.80504e-07
2.8053e-07
2.91664e-07
2.91709e-07
2.91784e-07
2.91771e-07
2.07126e-06
3.4427e-06
4.96674e-07
8.04766e-07
2.06463e-06
3.44664e-06
5.02707e-07
1.83736e-05
1.83825e-05
2.07138e-06
4.96816e-07
3.44281e-06
8.04914e-07
2.06465e-06
5.02793e-07
3.4468e-06
5.43557e-06
5.43725e-06
1.10056e-06
5.43874e-06
5.44046e-06
4.08192e-06
9.1332e-06
4.07883e-06
9.13981e-06
1.83914e-05
1.84008e-05
4.082e-06
9.13449e-06
4.07887e-06
9.14111e-06
2.95515e-07
2.95599e-07
2.95583e-07
3.07096e-07
3.07087e-07
3.07189e-07
3.0718e-07
2.08733e-06
3.45525e-06
5.20642e-07
8.30964e-07
2.08106e-06
3.45889e-06
5.26652e-07
1.83928e-05
1.84021e-05
2.08743e-06
5.20776e-07
3.45528e-06
8.31124e-07
2.08108e-06
5.26744e-07
3.45904e-06
5.44526e-06
5.44695e-06
1.12277e-06
5.44834e-06
5.45006e-06
4.08967e-06
9.14895e-06
4.08653e-06
9.15566e-06
1.84119e-05
1.84218e-05
4.08974e-06
9.15025e-06
4.08658e-06
9.15695e-06
3.11003e-07
3.11092e-07
3.11093e-07
3.22848e-07
3.22875e-07
3.22934e-07
3.22952e-07
2.10266e-06
3.46717e-06
5.4451e-07
8.56205e-07
2.09664e-06
3.47076e-06
5.50504e-07
1.84133e-05
1.8423e-05
2.10272e-06
5.44652e-07
3.46725e-06
8.5632e-07
2.09668e-06
5.50581e-07
3.47083e-06
5.45475e-06
5.45644e-06
1.14384e-06
5.45779e-06
5.45951e-06
3.26931e-07
1.84348e-05
3.47869e-06
1.84707e-05
1.84735e-05
5.12493e-06
5.12691e-06
8.90757e-06
3.6375e-06
8.90782e-06
3.63745e-06
2.78308e-06
1.58481e-07
1.11595e-06
2.78371e-06
1.58489e-07
1.11594e-06
1.84734e-05
5.12662e-06
5.12494e-06
1.84715e-05
8.90221e-06
2.24371e-07
2.74474e-06
3.59934e-06
8.90882e-06
3.6376e-06
1.08803e-06
2.78364e-06
1.58488e-07
1.58438e-07
1.11601e-06
3.59931e-06
8.90837e-06
8.90311e-06
3.63757e-06
1.08803e-06
2.26448e-07
1.58499e-07
2.78379e-06
1.5845e-07
2.75864e-06
1.11601e-06
2.7831e-06
1.58475e-07
1.11601e-06
8.9082e-06
3.63717e-06
1.58483e-07
2.78338e-06
1.116e-06
8.90804e-06
3.63748e-06
3.41349e-07
5.10626e-06
5.10469e-06
1.8487e-05
1.8474e-05
1.84829e-05
3.46476e-07
5.12666e-06
5.1251e-06
5.11289e-06
5.11139e-06
1.84715e-05
1.84804e-05
8.90213e-06
1.08809e-06
2.26357e-07
1.58486e-07
2.78319e-06
1.58437e-07
2.75805e-06
1.11608e-06
1.0881e-06
1.58494e-07
2.78392e-06
1.58445e-07
1.11605e-06
3.59962e-06
8.90828e-06
8.90302e-06
3.63738e-06
3.59961e-06
8.90865e-06
3.63737e-06
5.12522e-06
5.12703e-06
1.84728e-05
1.84746e-05
1.84643e-05
1.84559e-05
1.84671e-05
1.84587e-05
5.13116e-06
5.13315e-06
3.65251e-07
5.14362e-06
5.14557e-06
1.84416e-05
1.84496e-05
1.84444e-05
1.84524e-05
3.71039e-07
5.16054e-06
5.16247e-06
5.14933e-06
5.15129e-06
3.68268e-06
8.90865e-06
3.64844e-06
8.91367e-06
1.1585e-06
2.79619e-06
1.58604e-07
2.33423e-07
1.13061e-06
2.8199e-06
1.58819e-07
1.15848e-06
2.79675e-06
1.58611e-07
2.33463e-07
1.1306e-06
2.82041e-06
1.58826e-07
3.69261e-06
8.91893e-06
8.9142e-06
3.72314e-06
3.69256e-06
8.91919e-06
8.91447e-06
3.72309e-06
1.17308e-06
2.36027e-07
2.85454e-06
1.59504e-07
2.8323e-06
1.59123e-07
1.20072e-06
1.17307e-06
2.36066e-07
2.85513e-06
1.5951e-07
2.83289e-06
1.5913e-07
1.2007e-06
5.13282e-06
5.13161e-06
3.65265e-07
5.14516e-06
5.14352e-06
1.84649e-05
1.84565e-05
1.84442e-05
1.84522e-05
3.71051e-07
5.16212e-06
5.16062e-06
5.15101e-06
5.14971e-06
1.84423e-05
1.84503e-05
1.15855e-06
2.79676e-06
1.5861e-07
2.33383e-07
1.13068e-06
2.82046e-06
1.58825e-07
3.68279e-06
8.90921e-06
3.64851e-06
8.91426e-06
1.15854e-06
1.58622e-07
2.79679e-06
2.33471e-07
1.13067e-06
1.58837e-07
2.82056e-06
3.69266e-06
8.9202e-06
8.91546e-06
3.72326e-06
1.17314e-06
2.35986e-07
2.85509e-06
1.5951e-07
2.83286e-06
1.5913e-07
1.20077e-06
3.69263e-06
8.91975e-06
8.91506e-06
3.72322e-06
1.17314e-06
2.36076e-07
1.59523e-07
2.85523e-06
1.59142e-07
2.83305e-06
1.20077e-06
3.68239e-06
8.90907e-06
3.64903e-06
8.91403e-06
1.15855e-06
1.58604e-07
2.79644e-06
2.33425e-07
1.13067e-06
1.5882e-07
2.81994e-06
3.68269e-06
8.90886e-06
3.64859e-06
8.91386e-06
1.17314e-06
2.35961e-07
2.85457e-06
1.59503e-07
2.83239e-06
1.59107e-07
1.20078e-06
3.69312e-06
8.91955e-06
8.91486e-06
3.72283e-06
1.17312e-06
2.36029e-07
1.59504e-07
2.85484e-06
1.59123e-07
2.83253e-06
1.20078e-06
3.69268e-06
8.9194e-06
8.91468e-06
3.72312e-06
5.13277e-06
5.13128e-06
3.65296e-07
5.14541e-06
5.14386e-06
1.8465e-05
1.84567e-05
1.84448e-05
1.8453e-05
3.71086e-07
5.1622e-06
5.16067e-06
5.15118e-06
5.14969e-06
1.84423e-05
1.84505e-05
1.15859e-06
1.58619e-07
2.79689e-06
2.33416e-07
1.13076e-06
1.58829e-07
2.82046e-06
3.68249e-06
8.90911e-06
3.64898e-06
8.91415e-06
3.68247e-06
8.90947e-06
3.64898e-06
8.91448e-06
1.17319e-06
2.35974e-07
1.59505e-07
2.85466e-06
1.5913e-07
2.83247e-06
1.20085e-06
1.17319e-06
2.36019e-07
1.59514e-07
2.85535e-06
1.59139e-07
2.83302e-06
1.20082e-06
3.69317e-06
8.91965e-06
8.91495e-06
3.72292e-06
3.69315e-06
8.92002e-06
8.9153e-06
3.72291e-06
1.84661e-05
1.84576e-05
1.8468e-05
1.84595e-05
3.71109e-07
5.16067e-06
5.16243e-06
5.14966e-06
5.15134e-06
1.84435e-05
1.84516e-05
1.84454e-05
1.84535e-05
1.84355e-05
1.84279e-05
1.84384e-05
1.84307e-05
5.16594e-06
5.16787e-06
3.92231e-07
5.176e-06
5.1779e-06
1.84146e-05
1.8422e-05
1.84175e-05
1.84249e-05
3.98643e-07
5.19002e-06
5.1919e-06
5.18091e-06
5.18283e-06
3.7589e-06
8.91991e-06
3.73192e-06
8.92444e-06
1.24234e-06
2.86619e-06
1.59974e-07
2.44626e-07
1.21513e-06
2.88729e-06
1.60521e-07
1.24232e-06
2.86667e-06
1.5998e-07
2.44663e-07
1.21511e-06
2.88781e-06
1.60527e-07
3.76684e-06
8.929e-06
8.92482e-06
3.79057e-06
3.76679e-06
8.92925e-06
8.92511e-06
3.79052e-06
1.25652e-06
2.47752e-07
2.9178e-06
1.61873e-07
2.89823e-06
1.61158e-07
1.28318e-06
1.2565e-06
2.4779e-07
2.91835e-06
1.61879e-07
2.89886e-06
1.61164e-07
1.28316e-06
5.16747e-06
5.1661e-06
3.92235e-07
5.17752e-06
5.17596e-06
1.8436e-05
1.84285e-05
1.84172e-05
1.84247e-05
3.98649e-07
5.1916e-06
5.19004e-06
5.18257e-06
5.1812e-06
1.84153e-05
1.84227e-05
1.24239e-06
2.86674e-06
1.5998e-07
2.44581e-07
1.2152e-06
2.88784e-06
1.60527e-07
3.75902e-06
8.92048e-06
3.73199e-06
8.92506e-06
1.24238e-06
1.59993e-07
2.86675e-06
2.44676e-07
1.21519e-06
1.60541e-07
2.888e-06
3.76689e-06
8.93028e-06
8.92609e-06
3.79068e-06
1.25658e-06
2.47705e-07
2.91834e-06
1.6188e-07
2.89878e-06
1.61165e-07
1.28323e-06
3.76686e-06
8.92981e-06
8.92572e-06
3.79063e-06
1.25657e-06
2.47804e-07
1.61894e-07
2.91837e-06
1.61179e-07
2.89903e-06
1.28322e-06
3.75861e-06
8.9203e-06
3.73249e-06
8.92476e-06
1.24239e-06
1.59973e-07
2.86631e-06
2.44627e-07
1.21519e-06
1.60521e-07
2.88735e-06
3.7589e-06
8.92011e-06
3.73206e-06
8.92466e-06
1.25658e-06
2.47676e-07
2.91779e-06
1.61872e-07
2.89841e-06
1.61139e-07
1.28324e-06
3.76733e-06
8.92957e-06
8.92547e-06
3.79026e-06
1.25656e-06
2.47756e-07
1.61873e-07
2.91804e-06
1.61157e-07
2.89854e-06
1.28324e-06
3.7669e-06
8.92947e-06
8.92535e-06
3.79054e-06
5.16749e-06
5.16602e-06
3.92278e-07
5.17783e-06
5.17628e-06
1.84362e-05
1.84287e-05
1.84178e-05
1.84255e-05
3.98691e-07
5.19157e-06
5.19007e-06
5.18276e-06
5.18127e-06
1.84153e-05
1.8423e-05
1.24245e-06
1.5999e-07
2.86676e-06
2.44616e-07
1.21527e-06
1.60531e-07
2.88788e-06
3.75871e-06
8.92038e-06
3.73253e-06
8.92494e-06
3.7587e-06
8.92072e-06
3.73251e-06
8.92529e-06
1.25663e-06
2.47691e-07
1.61874e-07
2.91781e-06
1.61166e-07
2.89847e-06
1.28334e-06
1.25663e-06
2.47743e-07
1.61884e-07
2.91855e-06
1.61175e-07
2.899e-06
1.2833e-06
3.76736e-06
8.9297e-06
8.9256e-06
3.79035e-06
3.76734e-06
8.9301e-06
8.92597e-06
3.79035e-06
1.84372e-05
1.84297e-05
1.84391e-05
1.84315e-05
3.98724e-07
5.19022e-06
5.19197e-06
5.18115e-06
5.18286e-06
1.84166e-05
1.84241e-05
1.84185e-05
1.8426e-05
1.8409e-05
1.84022e-05
1.84118e-05
1.8405e-05
5.19453e-06
5.19641e-06
4.21951e-07
5.20296e-06
5.20482e-06
1.839e-05
1.83967e-05
1.83928e-05
1.83995e-05
4.28937e-07
5.21459e-06
5.21644e-06
5.20713e-06
5.209e-06
3.81826e-06
8.92987e-06
3.79752e-06
8.93388e-06
1.32301e-06
2.92819e-06
1.62678e-07
2.57905e-07
1.29703e-06
2.94673e-06
1.63564e-07
1.32298e-06
2.92859e-06
1.62684e-07
2.57945e-07
1.29701e-06
2.94726e-06
1.63568e-07
3.82456e-06
8.93782e-06
8.93413e-06
3.84262e-06
3.82451e-06
8.93805e-06
8.93444e-06
3.84256e-06
1.3365e-06
2.61543e-07
2.97364e-06
1.65594e-07
2.95636e-06
1.64537e-07
1.3617e-06
1.33648e-06
2.61585e-07
2.97414e-06
1.65599e-07
2.95704e-06
1.64542e-07
1.36167e-06
5.19602e-06
5.19462e-06
4.21968e-07
5.20441e-06
5.20285e-06
1.84095e-05
1.84028e-05
1.83926e-05
1.83994e-05
4.28958e-07
5.21618e-06
5.21461e-06
5.20873e-06
5.20732e-06
1.83906e-05
1.83974e-05
1.32306e-06
2.92874e-06
1.62685e-07
2.57854e-07
1.29709e-06
2.94727e-06
1.6357e-07
3.81838e-06
8.93046e-06
3.79759e-06
8.93451e-06
1.32304e-06
1.62699e-07
2.92869e-06
2.57961e-07
1.29708e-06
1.63585e-07
2.94752e-06
3.8246e-06
8.93911e-06
8.93541e-06
3.84271e-06
1.33656e-06
2.6149e-07
2.97418e-06
1.656e-07
2.9569e-06
1.64544e-07
1.36174e-06
3.82457e-06
8.93863e-06
8.93504e-06
3.84266e-06
1.33656e-06
2.616e-07
1.65616e-07
2.9741e-06
1.6456e-07
2.95715e-06
1.36172e-06
3.81798e-06
8.93021e-06
3.79809e-06
8.93417e-06
1.32306e-06
1.62677e-07
2.92831e-06
2.57908e-07
1.2971e-06
1.63563e-07
2.94684e-06
3.81826e-06
8.93009e-06
3.79766e-06
8.93409e-06
1.33657e-06
2.61462e-07
2.9736e-06
1.65591e-07
2.9566e-06
1.64515e-07
1.36176e-06
3.82504e-06
8.93834e-06
8.93476e-06
3.84229e-06
1.33655e-06
2.61547e-07
1.65593e-07
2.97383e-06
1.64536e-07
2.95659e-06
1.36176e-06
3.82461e-06
8.93832e-06
8.93465e-06
3.84258e-06
5.19601e-06
5.19454e-06
4.22013e-07
5.20483e-06
5.20329e-06
1.84096e-05
1.84031e-05
1.8393e-05
1.84001e-05
4.28998e-07
5.21599e-06
5.2145e-06
5.20893e-06
5.20746e-06
1.83905e-05
1.83976e-05
1.32312e-06
1.62696e-07
2.92876e-06
2.57895e-07
1.29717e-06
1.63575e-07
2.94734e-06
3.81807e-06
8.93034e-06
3.79811e-06
8.93438e-06
3.81806e-06
8.93071e-06
3.79809e-06
8.93472e-06
1.33664e-06
2.61475e-07
1.65594e-07
2.97356e-06
1.64545e-07
2.95663e-06
1.36186e-06
1.33662e-06
2.61531e-07
1.65605e-07
2.97432e-06
1.64556e-07
2.95704e-06
1.36181e-06
3.82506e-06
8.9385e-06
8.93491e-06
3.84238e-06
3.82504e-06
8.93896e-06
8.93528e-06
3.84237e-06
1.84107e-05
1.84039e-05
1.84126e-05
1.84058e-05
4.29027e-07
5.21477e-06
5.21652e-06
5.20714e-06
5.20885e-06
1.83919e-05
1.83985e-05
1.83938e-05
1.84005e-05
1.83848e-05
1.83787e-05
1.83876e-05
1.83815e-05
5.21839e-06
5.22025e-06
4.54064e-07
5.22546e-06
5.22729e-06
1.83677e-05
1.83736e-05
1.83705e-05
1.83764e-05
4.61559e-07
5.23527e-06
5.23709e-06
5.22899e-06
5.23083e-06
3.86374e-06
8.93857e-06
3.84811e-06
8.9421e-06
1.39907e-06
2.98283e-06
1.66737e-07
2.7321e-07
1.37476e-06
2.99903e-06
1.67966e-07
1.39904e-06
2.98316e-06
1.66741e-07
2.73251e-07
1.37473e-06
2.99957e-06
1.6797e-07
3.86874e-06
8.94552e-06
8.94224e-06
3.88229e-06
3.86869e-06
8.94576e-06
8.94257e-06
3.88224e-06
1.41168e-06