/*--------------------------------*- C++ -*----------------------------------*\
| =========                 |                                                 |
| \\      /  F ield         | OpenFOAM: The Open Source CFD Toolbox           |
|  \\    /   O peration     | Version:  2312                                  |
|   \\  /    A nd           | Website:  www.openfoam.com                      |
|    \\/     M anipulation  |                                                 |
\*---------------------------------------------------------------------------*/
FoamFile
{
    version     2.0;
    format      ascii;
    arch        "LSB;label=32;scalar=64";
    class       volScalarField;
    location    "375";
    object      k;
}
// * * * * * * * * * * * * * * * * * * * * * * * * * * * * * * * * * * * * * //

dimensions      [0 2 -2 0 0 0 0];

internalField   nonuniform List<scalar> 
43120
(
1.49359e-05
1.6152e-05
1.61521e-05
1.81331e-05
1.4613e-05
1.62906e-05
1.62908e-05
1.87282e-05
1.43368e-05
1.65185e-05
1.65191e-05
1.9428e-05
1.41065e-05
1.68342e-05
1.68342e-05
2.02202e-05
1.3922e-05
1.72342e-05
1.72348e-05
2.10943e-05
1.37829e-05
1.77146e-05
1.7715e-05
2.20363e-05
1.36889e-05
1.82715e-05
1.82734e-05
2.3031e-05
1.36413e-05
1.89008e-05
1.89019e-05
2.4065e-05
1.36372e-05
1.95958e-05
1.95976e-05
2.51257e-05
1.36807e-05
2.03554e-05
2.03567e-05
2.62003e-05
1.37676e-05
2.11701e-05
2.11694e-05
2.72824e-05
1.39024e-05
2.20299e-05
2.20345e-05
2.8364e-05
1.40856e-05
2.29379e-05
2.2942e-05
2.94325e-05
1.43095e-05
2.38881e-05
2.38808e-05
3.04808e-05
1.45887e-05
2.48476e-05
2.48636e-05
3.15253e-05
1.49024e-05
2.58637e-05
2.58517e-05
3.25283e-05
1.52794e-05
2.68572e-05
2.68789e-05
3.35556e-05
1.56818e-05
2.79211e-05
2.7902e-05
3.44751e-05
1.61502e-05
2.89057e-05
2.89268e-05
3.54787e-05
1.66391e-05
2.99924e-05
2.99861e-05
3.63581e-05
1.71914e-05
3.09815e-05
3.09889e-05
3.7275e-05
1.77647e-05
3.20273e-05
3.203e-05
3.81355e-05
1.84046e-05
3.30504e-05
3.30534e-05
3.90014e-05
1.90434e-05
3.40204e-05
3.40256e-05
3.98043e-05
1.97323e-05
3.50119e-05
3.50153e-05
4.06073e-05
2.04565e-05
3.5967e-05
3.59747e-05
4.13824e-05
3.6903e-05
1.80239e-05
1.61312e-05
1.61315e-05
1.80239e-05
1.61315e-05
1.61318e-05
1.61313e-05
1.61316e-05
1.80243e-05
1.61317e-05
1.61322e-05
1.80246e-05
1.81324e-05
1.8596e-05
1.61519e-05
1.61522e-05
1.62473e-05
1.62477e-05
1.81325e-05
1.85962e-05
1.61522e-05
1.61524e-05
1.62475e-05
1.62481e-05
1.61522e-05
1.62473e-05
1.62478e-05
1.81332e-05
1.85965e-05
1.61527e-05
1.62477e-05
1.62484e-05
1.85967e-05
1.87271e-05
1.9275e-05
1.62905e-05
1.62909e-05
1.64534e-05
1.64538e-05
1.87273e-05
1.92747e-05
1.62907e-05
1.62913e-05
1.64536e-05
1.64543e-05
1.62909e-05
1.64532e-05
1.64542e-05
1.8728e-05
1.92755e-05
1.62913e-05
1.64537e-05
1.64546e-05
1.92757e-05
1.94266e-05
2.00487e-05
1.6519e-05
1.65191e-05
1.67477e-05
1.67483e-05
1.94265e-05
2.00493e-05
1.6519e-05
1.65198e-05
1.67477e-05
1.67485e-05
1.65198e-05
1.67474e-05
1.67483e-05
1.94271e-05
2.005e-05
1.65201e-05
1.67476e-05
1.67486e-05
2.005e-05
2.02193e-05
2.09055e-05
1.68348e-05
1.68351e-05
1.71268e-05
1.71277e-05
2.02201e-05
2.09063e-05
1.68347e-05
1.68352e-05
1.71267e-05
1.71286e-05
1.68356e-05
1.71266e-05
1.71276e-05
2.02199e-05
2.09084e-05
1.68357e-05
1.71275e-05
1.71277e-05
2.09077e-05
2.10927e-05
2.18326e-05
1.72347e-05
1.72353e-05
1.75878e-05
1.75886e-05
2.10938e-05
2.18335e-05
1.72344e-05
1.7236e-05
1.75874e-05
1.75893e-05
1.72354e-05
1.75872e-05
1.75889e-05
2.10961e-05
2.18333e-05
1.72354e-05
1.7588e-05
1.75888e-05
2.1835e-05
2.20343e-05
2.28157e-05
1.77153e-05
1.7716e-05
1.81269e-05
1.81269e-05
2.20347e-05
2.28163e-05
1.77148e-05
1.77165e-05
1.81263e-05
1.81289e-05
1.77165e-05
1.81253e-05
1.81277e-05
2.20351e-05
2.28175e-05
1.77161e-05
1.81273e-05
1.81273e-05
2.28181e-05
2.30291e-05
2.38396e-05
1.8273e-05
1.82731e-05
1.87381e-05
1.87384e-05
2.30287e-05
2.38418e-05
1.82722e-05
1.82751e-05
1.8737e-05
1.87388e-05
1.82742e-05
1.87366e-05
1.87396e-05
2.30311e-05
2.38405e-05
1.82736e-05
1.8737e-05
1.87388e-05
2.38434e-05
2.40617e-05
2.48951e-05
1.89031e-05
1.89027e-05
1.9417e-05
1.94186e-05
2.4063e-05
2.48976e-05
1.8902e-05
1.89038e-05
1.94157e-05
1.94208e-05
1.89034e-05
1.94166e-05
1.94202e-05
2.40624e-05
2.48993e-05
1.89024e-05
1.94189e-05
1.94191e-05
2.48973e-05
2.51212e-05
2.59711e-05
1.95969e-05
1.95978e-05
2.01638e-05
2.01639e-05
2.51255e-05
2.59677e-05
1.95955e-05
1.95996e-05
2.01622e-05
2.0163e-05
1.96003e-05
2.01616e-05
2.01631e-05
2.51261e-05
2.59678e-05
1.95989e-05
2.01609e-05
2.01616e-05
2.59686e-05
2.62032e-05
2.70439e-05
2.03584e-05
2.03576e-05
2.0959e-05
2.09621e-05
2.62024e-05
2.70424e-05
2.03568e-05
2.03589e-05
2.0957e-05
2.09646e-05
2.03593e-05
2.09598e-05
2.09631e-05
2.62016e-05
2.70488e-05
2.03575e-05
2.09625e-05
2.09611e-05
2.70507e-05
2.72782e-05
2.81276e-05
2.11683e-05
2.11724e-05
2.18167e-05
2.18122e-05
2.72775e-05
2.8125e-05
2.11664e-05
2.11717e-05
2.18143e-05
2.18162e-05
2.11717e-05
2.18097e-05
2.18166e-05
2.72835e-05
2.81229e-05
2.11694e-05
2.18141e-05
2.18142e-05
2.81292e-05
2.83639e-05
2.9188e-05
2.20331e-05
2.20324e-05
2.27109e-05
2.27119e-05
2.83576e-05
2.91949e-05
2.20308e-05
2.20368e-05
2.27083e-05
2.27119e-05
2.20351e-05
2.27094e-05
2.27135e-05
2.83595e-05
2.91944e-05
2.20324e-05
2.27097e-05
2.27107e-05
2.91959e-05
2.9426e-05
3.02507e-05
2.29456e-05
2.29403e-05
2.36433e-05
2.36494e-05
2.94308e-05
3.02485e-05
2.29432e-05
2.29442e-05
2.36401e-05
2.36457e-05
2.29465e-05
2.36469e-05
2.3647e-05
2.9427e-05
3.02537e-05
2.29435e-05
2.36435e-05
2.36435e-05
3.0251e-05
3.04766e-05
3.12922e-05
2.38785e-05
2.38906e-05
2.46145e-05
2.46032e-05
3.0481e-05
3.12866e-05
2.38754e-05
2.38831e-05
2.46117e-05
2.46212e-05
2.3882e-05
2.46008e-05
2.462e-05
3.04843e-05
3.12933e-05
2.38782e-05
2.46193e-05
2.46168e-05
3.12944e-05
3.15253e-05
3.23093e-05
2.48648e-05
2.48497e-05
2.56041e-05
2.56185e-05
3.15111e-05
3.23218e-05
2.48622e-05
2.48654e-05
2.55997e-05
2.55948e-05
2.48725e-05
2.56157e-05
2.55974e-05
3.15232e-05
3.23029e-05
2.48692e-05
2.55925e-05
2.55924e-05
3.23103e-05
3.25315e-05
3.33074e-05
2.58496e-05
2.58666e-05
2.66209e-05
2.66015e-05
3.25508e-05
3.32893e-05
2.58455e-05
2.58539e-05
2.66186e-05
2.66383e-05
2.58429e-05
2.65998e-05
2.66399e-05
3.25281e-05
3.33285e-05
2.58378e-05
2.6637e-05
2.66371e-05
3.3325e-05
3.3534e-05
3.42852e-05
2.68815e-05
2.68587e-05
2.76395e-05
2.76615e-05
3.35103e-05
3.43051e-05
2.68789e-05
2.68798e-05
2.76341e-05
2.76276e-05
2.68996e-05
2.76587e-05
2.76253e-05
3.35467e-05
3.42674e-05
2.68962e-05
2.76254e-05
2.7619e-05
3.42679e-05
3.4498e-05
3.52425e-05
2.78953e-05
2.79241e-05
2.86867e-05
2.86614e-05
3.45249e-05
3.52219e-05
2.78903e-05
2.79044e-05
2.8684e-05
2.86942e-05
2.78782e-05
2.86593e-05
2.86975e-05
3.44897e-05
3.52609e-05
2.78721e-05
2.86931e-05
2.8694e-05
3.52565e-05
3.54573e-05
3.61532e-05
2.89429e-05
2.8907e-05
2.96986e-05
2.97163e-05
3.54239e-05
3.61689e-05
2.894e-05
2.89274e-05
2.96933e-05
2.96994e-05
2.89631e-05
2.9715e-05
2.97083e-05
3.54628e-05
3.61418e-05
2.89593e-05
2.96989e-05
2.97021e-05
3.61628e-05
3.63569e-05
3.70778e-05
2.99632e-05
2.99943e-05
3.07559e-05
3.07478e-05
3.63893e-05
3.70722e-05
2.99583e-05
2.99871e-05
3.07523e-05
3.0761e-05
2.99622e-05
3.07455e-05
3.07508e-05
3.63648e-05
3.70931e-05
2.9956e-05
3.07597e-05
3.07463e-05
3.70697e-05
3.72777e-05
3.7929e-05
3.10044e-05
3.09832e-05
3.17575e-05
3.1754e-05
3.72564e-05
3.79249e-05
3.10004e-05
3.09899e-05
3.17527e-05
3.17518e-05
3.10074e-05
3.17531e-05
3.17667e-05
3.72734e-05
3.79179e-05
3.10025e-05
3.17519e-05
3.17611e-05
3.794e-05
3.81288e-05
3.8818e-05
3.20226e-05
3.20285e-05
3.28066e-05
3.28098e-05
3.81359e-05
3.88242e-05
3.20179e-05
3.20303e-05
3.28021e-05
3.28147e-05
3.20259e-05
3.28082e-05
3.28032e-05
3.81319e-05
3.88313e-05
3.20203e-05
3.28141e-05
3.27979e-05
3.88117e-05
3.90053e-05
3.96136e-05
3.30535e-05
3.30516e-05
3.37808e-05
3.37734e-05
3.90055e-05
3.96064e-05
3.30489e-05
3.30539e-05
3.37762e-05
3.37761e-05
3.30541e-05
3.37729e-05
3.37884e-05
3.90106e-05
3.96068e-05
3.30486e-05
3.37766e-05
3.37832e-05
3.96228e-05
3.97963e-05
4.0425e-05
3.4027e-05
3.40208e-05
3.47672e-05
3.47677e-05
3.97912e-05
4.04278e-05
3.40225e-05
3.40253e-05
3.47624e-05
3.47708e-05
3.40335e-05
3.47672e-05
3.4771e-05
3.9793e-05
4.0432e-05
3.40282e-05
3.47712e-05
3.47657e-05
4.04278e-05
4.06045e-05
4.12063e-05
3.50108e-05
3.50123e-05
3.57343e-05
3.57299e-05
4.06078e-05
4.12045e-05
3.50059e-05
3.50149e-05
3.57298e-05
3.5737e-05
3.5015e-05
3.57298e-05
3.57372e-05
4.06113e-05
4.12098e-05
3.50095e-05
3.57376e-05
3.57322e-05
4.12095e-05
4.13799e-05
4.19608e-05
3.59734e-05
3.5967e-05
3.66746e-05
3.6672e-05
4.13766e-05
4.19597e-05
3.59689e-05
3.59742e-05
3.66698e-05
3.66725e-05
3.59748e-05
3.6672e-05
3.66767e-05
4.13824e-05
4.196e-05
3.59697e-05
3.66734e-05
3.66715e-05
4.19619e-05
3.69021e-05
4.21262e-05
1.50238e-05
1.50238e-05
1.50238e-05
1.50239e-05
6.9683e-05
1.61091e-05
4.43442e-05
5.35408e-05
7.00368e-05
5.29189e-05
7.0063e-05
6.9628e-05
6.96065e-05
5.35406e-05
7.00378e-05
5.29186e-05
7.00641e-05
1.49359e-05
1.49359e-05
1.4936e-05
1.46892e-05
1.46893e-05
1.46892e-05
1.46894e-05
2.939e-05
4.5213e-05
1.49104e-05
1.6178e-05
2.88257e-05
4.56338e-05
1.48602e-05
6.96277e-05
6.96068e-05
2.9391e-05
1.49105e-05
4.52061e-05
1.61782e-05
2.88267e-05
1.48603e-05
4.5641e-05
5.90126e-05
5.9022e-05
1.82965e-05
5.92852e-05
5.92944e-05
5.4858e-05
7.00958e-05
5.43374e-05
7.01193e-05
6.95553e-05
6.95361e-05
5.48578e-05
7.00969e-05
5.43371e-05
7.01205e-05
1.46131e-05
1.46131e-05
1.46131e-05
1.44012e-05
1.44013e-05
1.44014e-05
1.44015e-05
3.10945e-05
4.64287e-05
1.47387e-05
1.63391e-05
3.05315e-05
4.68262e-05
1.47053e-05
6.95553e-05
6.95365e-05
3.10992e-05
1.47388e-05
4.64221e-05
1.63396e-05
3.05294e-05
1.47055e-05
4.68347e-05
5.96704e-05
5.96797e-05
1.89236e-05
5.99141e-05
5.99234e-05
5.59563e-05
7.0148e-05
5.55223e-05
7.01687e-05
6.94884e-05
6.94714e-05
5.59559e-05
7.01492e-05
5.55219e-05
7.01699e-05
1.43367e-05
1.43369e-05
1.4337e-05
1.41597e-05
1.41596e-05
1.41597e-05
1.416e-05
3.27714e-05
4.75444e-05
1.4636e-05
1.65894e-05
3.22123e-05
4.79167e-05
1.46198e-05
6.94885e-05
6.94721e-05
3.27763e-05
1.46363e-05
4.75377e-05
1.65901e-05
3.221e-05
1.46201e-05
4.79262e-05
6.02557e-05
6.02649e-05
1.96525e-05
6.04767e-05
6.04858e-05
5.6872e-05
7.01936e-05
5.65093e-05
7.02116e-05
6.94275e-05
6.94122e-05
5.68714e-05
7.01948e-05
5.65087e-05
7.02129e-05
1.41067e-05
1.41066e-05
1.41068e-05
1.39636e-05
1.39638e-05
1.39639e-05
1.39639e-05
3.43862e-05
4.8566e-05
1.46033e-05
1.69263e-05
3.38399e-05
4.89137e-05
1.46058e-05
6.94275e-05
6.94131e-05
3.43908e-05
1.46036e-05
4.85594e-05
1.69269e-05
3.38377e-05
1.46061e-05
4.89221e-05
6.07786e-05
6.07877e-05
2.04693e-05
6.09815e-05
6.09906e-05
5.76414e-05
7.02334e-05
5.7335e-05
7.02493e-05
6.93724e-05
6.93586e-05
5.76404e-05
7.02347e-05
5.73346e-05
7.02506e-05
1.39221e-05
1.39223e-05
1.39223e-05
1.38131e-05
1.38133e-05
1.38134e-05
1.38136e-05
3.59176e-05
4.95018e-05
1.46384e-05
1.73468e-05
3.53906e-05
4.98272e-05
1.46584e-05
6.9372e-05
6.93589e-05
3.59219e-05
1.46389e-05
4.94957e-05
1.73474e-05
3.53889e-05
1.46588e-05
4.98324e-05
6.12491e-05
6.1258e-05
2.13631e-05
6.14349e-05
6.1444e-05
5.82956e-05
7.02687e-05
5.80331e-05
7.02832e-05
6.93228e-05
6.93108e-05
5.82948e-05
7.027e-05
5.80328e-05
7.02844e-05
1.37829e-05
1.37832e-05
1.37835e-05
1.37082e-05
1.3708e-05
1.37088e-05
1.37086e-05
3.73533e-05
5.03589e-05
1.47436e-05
1.78468e-05
3.68492e-05
5.06656e-05
1.47808e-05
6.93227e-05
6.93107e-05
3.73574e-05
1.47442e-05
5.03548e-05
1.78472e-05
3.68479e-05
1.47813e-05
5.06693e-05
6.16781e-05
6.16869e-05
2.23209e-05
6.18458e-05
6.18547e-05
5.88602e-05
7.03009e-05
5.86323e-05
7.03144e-05
6.92789e-05
6.92689e-05
5.88597e-05
7.03022e-05
5.86316e-05
7.03156e-05
1.36893e-05
1.36898e-05
1.36898e-05
1.36479e-05
1.36483e-05
1.36483e-05
1.36487e-05
3.86884e-05
5.11461e-05
1.49174e-05
1.84221e-05
3.82089e-05
5.1438e-05
1.49717e-05
6.92792e-05
6.92683e-05
3.86922e-05
1.49183e-05
5.11446e-05
1.84232e-05
3.8208e-05
1.49724e-05
5.14407e-05
6.20708e-05
6.20796e-05
2.33275e-05
6.22234e-05
6.22323e-05
5.93557e-05
7.03313e-05
5.91548e-05
7.03443e-05
6.92408e-05
6.9233e-05
5.93551e-05
7.03326e-05
5.91538e-05
7.03456e-05
1.36413e-05
1.36413e-05
1.36415e-05
1.36343e-05
1.36345e-05
1.36354e-05
1.36354e-05
3.99241e-05
5.18723e-05
1.51593e-05
1.90693e-05
3.94702e-05
5.21511e-05
1.52304e-05
6.92413e-05
6.92328e-05
3.99272e-05
1.51601e-05
5.18716e-05
1.90712e-05
3.94692e-05
1.52312e-05
5.21559e-05
6.24307e-05
6.24393e-05
2.43685e-05
6.25722e-05
6.25812e-05
5.97976e-05
7.03609e-05
5.96178e-05
7.03742e-05
6.92082e-05
6.92025e-05
5.97966e-05
7.03621e-05
5.96169e-05
7.03755e-05
1.36375e-05
1.36382e-05
1.36384e-05
1.36657e-05
1.36657e-05
1.36654e-05
1.3666e-05
4.10664e-05
5.25471e-05
1.54674e-05
1.97802e-05
4.06376e-05
5.28096e-05
1.55553e-05
6.92083e-05
6.92025e-05
4.10684e-05
1.54686e-05
5.25452e-05
1.97809e-05
4.06375e-05
1.55558e-05
5.2813e-05
6.2766e-05
6.27745e-05
2.5434e-05
6.28978e-05
6.29066e-05
6.01977e-05
7.03907e-05
6.00337e-05
7.04045e-05
6.9182e-05
6.91775e-05
6.01967e-05
7.03919e-05
6.00331e-05
7.04058e-05
1.36801e-05
1.36808e-05
1.36812e-05
1.37408e-05
1.37423e-05
1.37431e-05
1.37429e-05
4.21237e-05
5.31809e-05
1.5841e-05
2.05517e-05
4.17185e-05
5.34242e-05
1.59444e-05
6.91821e-05
6.91779e-05
4.21254e-05
1.58425e-05
5.3179e-05
2.0556e-05
4.17184e-05
1.5946e-05
5.3428e-05
6.3078e-05
6.30866e-05
2.65109e-05
6.32074e-05
6.32162e-05
6.05636e-05
7.04219e-05
6.04122e-05
7.04368e-05
6.91619e-05
6.91596e-05
6.05626e-05
7.04232e-05
6.04117e-05
7.04381e-05
1.37694e-05
1.37689e-05
1.37694e-05
1.38657e-05
1.38642e-05
1.38663e-05
1.38664e-05
4.31035e-05
5.37709e-05
1.6278e-05
2.13816e-05
4.27207e-05
5.40054e-05
1.6397e-05
6.91614e-05
6.91595e-05
4.31047e-05
1.6279e-05
5.37701e-05
2.13803e-05
4.27215e-05
1.63977e-05
5.40025e-05
6.33686e-05
6.33771e-05
2.7586e-05
6.34957e-05
6.35043e-05
6.09019e-05
7.04548e-05
6.07625e-05
7.04705e-05
6.91467e-05
6.91478e-05
6.09016e-05
7.04562e-05
6.07617e-05
7.04718e-05
1.39026e-05
1.39042e-05
1.39041e-05
1.40348e-05
1.40349e-05
1.40357e-05
1.40357e-05
4.40162e-05
5.43222e-05
1.67749e-05
2.22546e-05
4.36552e-05
5.45463e-05
1.69093e-05
6.91472e-05
6.9147e-05
4.40185e-05
1.6777e-05
5.43274e-05
2.22565e-05
4.36558e-05
1.691e-05
5.4548e-05
6.36517e-05
6.36602e-05
2.86617e-05
6.37648e-05
6.37734e-05
6.12207e-05
7.04917e-05
6.10885e-05
7.05072e-05
6.91383e-05
6.91405e-05
6.12196e-05
7.04929e-05
6.10874e-05
7.05085e-05
1.40832e-05
1.40862e-05
1.40867e-05
1.42501e-05
1.42535e-05
1.42507e-05
1.42521e-05
4.48733e-05
5.48525e-05
1.73307e-05
2.31694e-05
4.45295e-05
5.50579e-05
1.74791e-05
6.91385e-05
6.9141e-05
4.48746e-05
1.73337e-05
5.48493e-05
2.31759e-05
4.45294e-05
1.7482e-05
5.50634e-05
6.39278e-05
6.39363e-05
2.97315e-05
6.40293e-05
6.40379e-05
6.152e-05
7.05296e-05
6.13937e-05
7.05485e-05
6.9136e-05
6.91401e-05
6.1519e-05
7.05309e-05
6.13933e-05
7.05497e-05
1.43156e-05
1.43109e-05
1.43105e-05
1.45129e-05
1.45086e-05
1.45186e-05
1.45173e-05
4.5678e-05
5.53489e-05
1.7944e-05
2.41262e-05
4.53504e-05
5.55504e-05
1.81046e-05
6.91353e-05
6.91402e-05
4.56785e-05
1.79426e-05
5.53472e-05
2.41238e-05
4.53517e-05
1.81039e-05
5.55486e-05
6.41797e-05
6.41884e-05
3.07717e-05
6.4287e-05
6.42957e-05
6.18063e-05
7.05722e-05
6.16872e-05
7.05915e-05
6.91387e-05
6.91468e-05
6.18058e-05
7.05737e-05
6.16866e-05
7.05929e-05
1.45821e-05
1.45912e-05
1.45943e-05
1.48219e-05
1.48286e-05
1.48159e-05
1.48186e-05
4.64401e-05
5.58139e-05
1.86038e-05
2.51026e-05
4.61299e-05
5.60162e-05
1.87802e-05
6.91384e-05
6.91449e-05
4.64421e-05
1.86116e-05
5.58243e-05
2.51038e-05
4.6132e-05
1.8783e-05
5.60121e-05
6.44325e-05
6.4441e-05
3.18128e-05
6.45351e-05
6.45441e-05
6.20817e-05
7.06181e-05
6.19668e-05
7.06398e-05
6.9146e-05
6.91544e-05
6.2082e-05
7.06195e-05
6.19651e-05
7.06413e-05
1.49122e-05
1.49037e-05
1.48991e-05
1.51797e-05
1.51711e-05
1.51926e-05
1.51899e-05
4.71657e-05
5.62793e-05
1.93209e-05
2.61067e-05
4.68728e-05
5.64465e-05
1.95045e-05
6.91482e-05
6.91568e-05
4.71682e-05
1.9316e-05
5.62734e-05
2.61184e-05
4.68707e-05
1.95064e-05
5.64676e-05
6.46565e-05
6.46644e-05
3.28003e-05
6.47765e-05
6.47853e-05
6.23526e-05
7.06696e-05
6.22377e-05
7.06915e-05
6.91627e-05
6.91734e-05
6.23496e-05
7.06707e-05
6.22377e-05
7.06927e-05
1.52662e-05
1.52814e-05
1.52901e-05
1.55758e-05
1.55876e-05
1.55682e-05
1.55705e-05
4.78642e-05
5.67042e-05
2.00728e-05
2.71218e-05
4.75781e-05
5.68911e-05
2.02714e-05
6.91598e-05
6.91708e-05
4.78635e-05
2.0086e-05
5.67114e-05
2.71168e-05
4.75837e-05
2.02742e-05
5.68754e-05
6.49165e-05
6.49248e-05
3.38222e-05
6.49871e-05
6.49948e-05
6.26136e-05
7.07225e-05
6.2504e-05
7.07479e-05
6.91795e-05
6.91908e-05
6.26149e-05
7.0724e-05
6.25025e-05
7.07494e-05
1.57004e-05
1.56871e-05
1.56732e-05
1.60336e-05
1.60222e-05
1.60409e-05
1.60372e-05
4.85302e-05
5.71318e-05
2.08825e-05
2.81739e-05
4.82589e-05
5.72909e-05
2.10892e-05
6.91817e-05
6.91934e-05
4.85329e-05
2.08735e-05
5.71263e-05
2.81808e-05
4.82545e-05
2.10887e-05
5.73102e-05
6.51193e-05
6.51278e-05
3.47437e-05
6.52331e-05
6.5242e-05
6.2874e-05
7.07816e-05
6.2764e-05
7.08064e-05
6.9204e-05
6.92207e-05
6.28715e-05
7.07829e-05
6.27642e-05
7.08076e-05
1.61301e-05
1.61438e-05
1.61608e-05
1.65061e-05
1.65139e-05
1.65059e-05
1.65164e-05
4.91739e-05
5.75115e-05
2.17052e-05
2.91638e-05
4.89106e-05
5.76837e-05
2.19174e-05
6.92017e-05
6.92182e-05
4.91743e-05
2.17184e-05
5.75249e-05
2.91645e-05
4.89178e-05
2.19223e-05
5.76688e-05
6.5371e-05
6.53795e-05
3.57354e-05
6.54432e-05
6.54511e-05
6.31333e-05
7.08439e-05
6.30231e-05
7.08728e-05
6.92344e-05
6.9248e-05
6.31341e-05
7.08455e-05
6.30213e-05
7.08743e-05
1.6657e-05
1.66525e-05
1.66426e-05
1.70568e-05
1.70581e-05
1.70658e-05
1.7053e-05
4.9801e-05
5.79273e-05
2.25896e-05
3.02579e-05
4.95442e-05
5.80806e-05
2.28187e-05
6.92364e-05
6.92486e-05
4.98036e-05
2.25865e-05
5.7928e-05
3.02648e-05
4.95403e-05
2.28198e-05
5.80973e-05
6.5558e-05
6.5566e-05
3.66022e-05
6.56632e-05
6.56722e-05
6.33806e-05
7.09087e-05
6.32763e-05
7.09385e-05
6.92638e-05
6.92857e-05
6.33785e-05
7.091e-05
6.3276e-05
7.09398e-05
1.71835e-05
1.71887e-05
1.71919e-05
1.76105e-05
1.76067e-05
1.76062e-05
1.76185e-05
5.03921e-05
5.82695e-05
2.34784e-05
3.12258e-05
5.01519e-05
5.84203e-05
2.36986e-05
6.92624e-05
6.92853e-05
5.03919e-05
2.34849e-05
5.82721e-05
3.12262e-05
5.01563e-05
2.37011e-05
5.84151e-05
6.57845e-05
6.57929e-05
3.75141e-05
6.58653e-05
6.58734e-05
6.36454e-05
7.09827e-05
6.35331e-05
7.10131e-05
6.93072e-05
6.9324e-05
6.36453e-05
7.09842e-05
6.35325e-05
7.10146e-05
1.77666e-05
1.77681e-05
1.77698e-05
1.82466e-05
1.8252e-05
1.82556e-05
1.82456e-05
5.09895e-05
5.86586e-05
2.44e-05
3.22975e-05
5.07417e-05
5.88121e-05
2.4645e-05
6.93082e-05
6.93243e-05
5.0992e-05
2.44023e-05
5.86626e-05
3.2304e-05
5.07411e-05
2.46482e-05
5.882e-05
6.59929e-05
6.60014e-05
3.83779e-05
6.60834e-05
6.6092e-05
6.38865e-05
7.10525e-05
6.37859e-05
7.10839e-05
6.93429e-05
6.93645e-05
6.38855e-05
7.1054e-05
6.37847e-05
7.10854e-05
1.84078e-05
1.84098e-05
1.84054e-05
1.88789e-05
1.88763e-05
1.8879e-05
1.88859e-05
5.15447e-05
5.89959e-05
2.53632e-05
3.32893e-05
5.13214e-05
5.91278e-05
2.55971e-05
6.93432e-05
6.93651e-05
5.15448e-05
2.53663e-05
5.89974e-05
3.32908e-05
5.13229e-05
2.55986e-05
5.91282e-05
6.61961e-05
6.62044e-05
3.92235e-05
6.62743e-05
6.62827e-05
6.41378e-05
7.11298e-05
6.40303e-05
7.11637e-05
6.93902e-05
6.94129e-05
6.41372e-05
7.11312e-05
6.40299e-05
7.11652e-05
1.904e-05
1.90445e-05
1.90503e-05
1.9557e-05
1.95587e-05
1.95616e-05
1.95624e-05
5.20884e-05
5.93269e-05
2.63046e-05
3.42699e-05
5.18621e-05
5.94695e-05
2.65481e-05
6.93915e-05
6.94139e-05
5.20905e-05
2.63092e-05
5.93311e-05
3.42759e-05
5.18633e-05
2.65525e-05
5.94745e-05
6.63881e-05
6.63964e-05
4.00248e-05
6.64727e-05
6.64811e-05
6.43838e-05
7.12097e-05
6.42807e-05
7.12441e-05
6.94387e-05
6.94621e-05
6.43831e-05
7.12112e-05
6.42799e-05
7.12456e-05
1.97361e-05
1.97383e-05
1.97382e-05
2.02721e-05
2.02725e-05
2.0279e-05
2.02767e-05
5.26178e-05
5.96588e-05
2.72869e-05
3.52532e-05
5.24026e-05
5.97901e-05
2.75336e-05
6.944e-05
6.94634e-05
5.26188e-05
2.729e-05
5.96615e-05
3.52577e-05
5.24036e-05
2.75364e-05
5.97935e-05
6.65847e-05
6.6593e-05
4.08225e-05
6.66647e-05
6.66731e-05
6.4624e-05
7.12916e-05
6.45225e-05
7.13264e-05
6.94901e-05
6.95151e-05
6.46234e-05
7.12931e-05
6.4522e-05
7.13279e-05
2.04548e-05
2.04617e-05
2.04597e-05
2.10127e-05
2.10128e-05
2.10147e-05
2.10158e-05
5.31222e-05
5.99696e-05
2.82712e-05
3.62035e-05
5.29154e-05
6.00984e-05
2.85188e-05
6.94914e-05
6.95158e-05
5.31238e-05
2.82772e-05
5.99746e-05
3.62098e-05
5.2917e-05
2.85234e-05
6.0102e-05
6.67728e-05
6.67811e-05
4.15893e-05
6.68499e-05
6.68583e-05
2.12017e-05
6.95456e-05
6.0274e-05
6.96424e-05
6.96445e-05
5.89491e-05
5.89605e-05
7.00324e-05
5.27903e-05
7.00291e-05
5.27891e-05
4.50092e-05
1.4963e-05
2.85376e-05
4.50123e-05
1.4963e-05
2.85371e-05
6.96443e-05
5.89586e-05
5.89549e-05
6.96431e-05
6.99966e-05
1.61091e-05
4.43498e-05
5.21121e-05
7.00334e-05
5.279e-05
2.79778e-05
4.50126e-05
1.49631e-05
1.50218e-05
2.85381e-05
5.21112e-05
7.00289e-05
7.00013e-05
5.27892e-05
2.79776e-05
1.6117e-05
1.4963e-05
4.50133e-05
1.50216e-05
4.45599e-05
2.85379e-05
4.50007e-05
1.49633e-05
2.85381e-05
7.0032e-05
5.279e-05
1.49631e-05
4.50086e-05
2.85379e-05
7.00283e-05
5.27892e-05
1.77823e-05
5.8591e-05
5.85846e-05
6.96815e-05
6.96441e-05
6.96665e-05
1.78788e-05
5.89593e-05
5.89528e-05
5.86538e-05
5.86475e-05
6.96426e-05
6.96649e-05
6.99998e-05
2.79787e-05
1.61168e-05
1.49634e-05
4.5008e-05
1.5022e-05
4.45577e-05
2.85392e-05
2.79785e-05
1.49634e-05
4.50168e-05
1.5022e-05
2.85386e-05
5.21129e-05
7.00321e-05
7.00045e-05
5.27909e-05
5.21121e-05
7.00295e-05
5.279e-05
5.89559e-05
5.89656e-05
6.96432e-05
6.96449e-05
6.96264e-05
6.96051e-05
6.96285e-05
6.96073e-05
5.90079e-05
5.90193e-05
1.82955e-05
5.92963e-05
5.93068e-05
6.95691e-05
6.95893e-05
6.95713e-05
6.95915e-05
1.84156e-05
5.9618e-05
5.96285e-05
5.93497e-05
5.93604e-05
5.35396e-05
7.00334e-05
5.29177e-05
7.00597e-05
2.93893e-05
4.52045e-05
1.49101e-05
1.61779e-05
2.88251e-05
4.56442e-05
1.48599e-05
2.93888e-05
4.52092e-05
1.49101e-05
1.61783e-05
2.88246e-05
4.56448e-05
1.48598e-05
5.36583e-05
7.00919e-05
7.00672e-05
5.423e-05
5.36571e-05
7.00886e-05
7.00639e-05
5.42288e-05
2.96779e-05
1.62099e-05
4.62504e-05
1.47739e-05
4.58282e-05
1.48156e-05
3.0243e-05
2.96774e-05
1.62103e-05
4.62533e-05
1.47738e-05
4.5832e-05
1.48156e-05
3.02428e-05
5.90167e-05
5.9013e-05
1.82958e-05
5.92977e-05
5.92929e-05
6.96266e-05
6.96054e-05
6.95708e-05
6.9591e-05
1.84157e-05
5.96264e-05
5.96217e-05
5.93524e-05
5.93481e-05
6.95696e-05
6.95898e-05
2.93898e-05
4.52087e-05
1.49103e-05
1.61782e-05
2.88257e-05
4.56475e-05
1.48601e-05
5.35396e-05
7.00333e-05
5.29178e-05
7.00597e-05
2.93895e-05
1.49101e-05
4.52079e-05
1.61784e-05
2.88255e-05
1.48599e-05
4.56463e-05
5.36581e-05
7.00931e-05
7.00683e-05
5.42296e-05
2.96785e-05
1.62101e-05
4.62538e-05
1.4774e-05
4.58322e-05
1.48158e-05
3.02431e-05
5.36572e-05
7.00885e-05
7.00639e-05
5.42287e-05
2.96782e-05
1.62106e-05
1.47739e-05
4.62542e-05
1.48157e-05
4.58321e-05
3.02428e-05
5.35411e-05
7.00365e-05
5.29189e-05
7.00625e-05
2.93897e-05
1.49103e-05
4.52082e-05
1.61782e-05
2.88254e-05
1.486e-05
4.56378e-05
5.35402e-05
7.00326e-05
5.2918e-05
7.00588e-05
2.96786e-05
1.621e-05
4.6244e-05
1.47742e-05
4.5834e-05
1.48159e-05
3.02432e-05
5.36585e-05
7.00914e-05
7.00668e-05
5.42296e-05
2.96782e-05
1.62103e-05
1.4774e-05
4.62502e-05
1.48158e-05
4.58288e-05
3.0243e-05
5.36575e-05
7.00878e-05
7.00631e-05
5.42286e-05
5.90154e-05
5.90092e-05
1.82961e-05
5.92994e-05
5.92932e-05
6.96262e-05
6.96053e-05
6.95707e-05
6.95913e-05
1.84157e-05
5.96268e-05
5.96206e-05
5.93548e-05
5.93487e-05
6.95692e-05
6.95898e-05
2.93904e-05
1.49105e-05
4.52082e-05
1.61788e-05
2.88265e-05
1.48603e-05
4.56457e-05
5.35415e-05
7.00365e-05
5.29196e-05
7.00629e-05
5.35404e-05
7.00338e-05
5.29189e-05
7.00601e-05
2.96791e-05
1.62102e-05
1.47743e-05
4.62497e-05
1.4816e-05
4.58298e-05
3.02463e-05
2.96791e-05
1.62108e-05
1.47743e-05
4.62574e-05
1.4816e-05
4.58297e-05
3.02435e-05
5.36589e-05
7.00917e-05
7.0067e-05
5.42302e-05
5.3658e-05
7.00891e-05
7.00644e-05
5.42292e-05
6.96265e-05
6.96051e-05
6.96282e-05
6.96068e-05
1.84161e-05
5.96225e-05
5.96322e-05
5.93418e-05
5.93508e-05
6.95696e-05
6.959e-05
6.95714e-05
6.95918e-05
6.9554e-05
6.95347e-05
6.95562e-05
6.95369e-05
5.96688e-05
5.96793e-05
1.89226e-05
5.99246e-05
5.99346e-05
6.95014e-05
6.95201e-05
6.95036e-05
6.95222e-05
1.90645e-05
6.02098e-05
6.02195e-05
5.99727e-05
5.99828e-05
5.48567e-05
7.00924e-05
5.43362e-05
7.01161e-05
3.10954e-05
4.64219e-05
1.47384e-05
1.63393e-05
3.05295e-05
4.68356e-05
1.4705e-05
3.10952e-05
4.64253e-05
1.47383e-05
1.63396e-05
3.05286e-05
4.68362e-05
1.4705e-05
5.4956e-05
7.01447e-05
7.01228e-05
5.54333e-05
5.49547e-05
7.01413e-05
7.01196e-05
5.5432e-05
3.13742e-05
1.63938e-05
4.739e-05
1.46536e-05
4.69946e-05
1.46784e-05
3.19404e-05
3.1373e-05
1.63941e-05
4.73922e-05
1.46535e-05
4.69989e-05
1.46783e-05
3.19403e-05
5.96758e-05
5.96712e-05
1.89224e-05
5.99258e-05
5.99212e-05
6.9554e-05
6.9535e-05
6.95029e-05
6.95218e-05
1.90638e-05
6.02175e-05
6.02125e-05
5.99756e-05
5.99713e-05
6.95017e-05
6.95205e-05
3.1095e-05
4.64259e-05
1.47385e-05
1.63395e-05
3.05308e-05
4.68388e-05
1.47052e-05
5.48569e-05
7.00923e-05
5.43362e-05
7.01163e-05
3.10946e-05
1.47384e-05
4.64236e-05
1.63401e-05
3.05305e-05
1.47051e-05
4.68394e-05
5.49557e-05
7.01459e-05
7.0124e-05
5.54328e-05
3.13755e-05
1.6394e-05
4.73931e-05
1.46538e-05
4.69984e-05
1.46786e-05
3.19399e-05
5.49547e-05
7.01412e-05
7.01198e-05
5.54319e-05
3.1375e-05
1.63945e-05
1.46538e-05
4.73907e-05
1.46785e-05
4.70005e-05
3.19396e-05
5.48582e-05
7.00953e-05
5.43374e-05
7.01187e-05
3.10956e-05
1.47385e-05
4.64231e-05
1.63394e-05
3.053e-05
1.47052e-05
4.68305e-05
5.48572e-05
7.00915e-05
5.43364e-05
7.01153e-05
3.13763e-05
1.63936e-05
4.73832e-05
1.46539e-05
4.70016e-05
1.46786e-05
3.19392e-05
5.4956e-05
7.01439e-05
7.01224e-05
5.54329e-05
3.13746e-05
1.63941e-05
1.46538e-05
4.73883e-05
1.46785e-05
4.69964e-05
3.19404e-05
5.49549e-05
7.01406e-05
7.01189e-05
5.54319e-05
5.96753e-05
5.96695e-05
1.89233e-05
5.99282e-05
5.99219e-05
6.95538e-05
6.9535e-05
6.95027e-05
6.95221e-05
1.90648e-05
6.0215e-05
6.02093e-05
5.99794e-05
5.99732e-05
6.95012e-05
6.95205e-05
3.10957e-05
1.47388e-05
4.64233e-05
1.63399e-05
3.05314e-05
1.47055e-05
4.68379e-05
5.48586e-05
7.00955e-05
5.4338e-05
7.01193e-05
5.48576e-05
7.00928e-05
5.43372e-05
7.01167e-05
3.13739e-05
1.63939e-05
1.46541e-05
4.73866e-05
1.46788e-05
4.69986e-05
3.19443e-05
3.13759e-05
1.63945e-05
1.46542e-05
4.73954e-05
1.46788e-05
4.6997e-05
3.19406e-05
5.49562e-05
7.01443e-05
7.01228e-05
5.54336e-05
5.49553e-05
7.01419e-05
7.01203e-05
5.54325e-05
6.95537e-05
6.95347e-05
6.95555e-05
6.95366e-05
1.90647e-05
6.02129e-05
6.02225e-05
5.99655e-05
5.99746e-05
6.95019e-05
6.95207e-05
6.95037e-05
6.95226e-05
6.94873e-05
6.94701e-05
6.94894e-05
6.94723e-05
6.02546e-05
6.02643e-05
1.96502e-05
6.04849e-05
6.04944e-05
6.94395e-05
6.94564e-05
6.94416e-05
6.94585e-05
1.98119e-05
6.07395e-05
6.07487e-05
6.05279e-05
6.05375e-05
5.59549e-05
7.01446e-05
5.55211e-05
7.01656e-05
3.27726e-05
4.7539e-05
1.46357e-05
1.65898e-05
3.22098e-05
4.79251e-05
1.46195e-05
3.27723e-05
4.7541e-05
1.46357e-05
1.65901e-05
3.22086e-05
4.79258e-05
1.46194e-05
5.60375e-05
7.01909e-05
7.01715e-05
5.64353e-05
5.60361e-05
7.01874e-05
7.01685e-05
5.64341e-05
3.30317e-05
1.66661e-05
4.84335e-05
1.46029e-05
4.80622e-05
1.46106e-05
3.35896e-05
3.30304e-05
1.66667e-05
4.84351e-05
1.46028e-05
4.80669e-05
1.46105e-05
3.35895e-05
6.02607e-05
6.02561e-05
1.96497e-05
6.04855e-05
6.04808e-05
6.94871e-05
6.94702e-05
6.9441e-05
6.94581e-05
1.98112e-05
6.07475e-05
6.07424e-05
6.05304e-05
6.05258e-05
6.94397e-05
6.94567e-05
3.27721e-05
4.75427e-05
1.46359e-05
1.65899e-05
3.22111e-05
4.79282e-05
1.46197e-05
5.59549e-05
7.01446e-05
5.5521e-05
7.01658e-05
3.27716e-05
1.46359e-05
4.75392e-05
1.65909e-05
3.22106e-05
1.46197e-05
4.79302e-05
5.6037e-05
7.01921e-05
7.01727e-05
5.64348e-05
3.30329e-05
1.66661e-05
4.84364e-05
1.46031e-05
4.80658e-05
1.46108e-05
3.35891e-05
5.6036e-05
7.01873e-05
7.01686e-05
5.64338e-05
3.30324e-05
1.66673e-05
1.46031e-05
4.8433e-05
1.46107e-05
4.8068e-05
3.35887e-05
5.59563e-05
7.01473e-05
5.55223e-05
7.0168e-05
3.27727e-05
1.4636e-05
4.75404e-05
1.65904e-05
3.22105e-05
1.46197e-05
4.79211e-05
5.59554e-05
7.01438e-05
5.55213e-05
7.01647e-05
3.3034e-05
1.6666e-05
4.84268e-05
1.46032e-05
4.80697e-05
1.46109e-05
3.35885e-05
5.60373e-05
7.01898e-05
7.01711e-05
5.64349e-05
3.30322e-05
1.66666e-05
1.46032e-05
4.84307e-05
1.46108e-05
4.80629e-05
3.35896e-05
5.60364e-05
7.01869e-05
7.01677e-05
5.6434e-05
6.02572e-05
6.02517e-05
1.96505e-05
6.04929e-05
6.04867e-05
6.94869e-05
6.94705e-05
6.94404e-05
6.94584e-05
1.98124e-05
6.0741e-05
6.07355e-05
6.05379e-05
6.05319e-05
6.94389e-05
6.94567e-05
3.27728e-05
1.46363e-05
4.75408e-05
1.65908e-05
3.22119e-05
1.46201e-05
4.79279e-05
5.59567e-05
7.01477e-05
5.55229e-05
7.01688e-05
5.59556e-05
7.01451e-05
5.5522e-05
7.01661e-05
3.30318e-05
1.66664e-05
1.46035e-05
4.84295e-05
1.46111e-05
4.80665e-05
3.35934e-05
3.30335e-05
1.66669e-05
1.46035e-05
4.84374e-05
1.46112e-05
4.80632e-05
3.35898e-05
5.60376e-05
7.01904e-05
7.01716e-05
5.64356e-05
5.60366e-05
7.01882e-05
7.0169e-05
5.64344e-05
6.94871e-05
6.94698e-05
6.9489e-05
6.94717e-05
1.98137e-05
6.07387e-05
6.07481e-05
6.05208e-05
6.05298e-05
6.94397e-05
6.94565e-05
6.94417e-05
6.94584e-05
6.94264e-05
6.94109e-05
6.94285e-05
6.9413e-05
6.07797e-05
6.0789e-05
2.04675e-05
6.09861e-05
6.09952e-05
6.93833e-05
6.93982e-05
6.93853e-05
6.94003e-05
2.06468e-05
6.12168e-05
6.12257e-05
6.10244e-05
6.10335e-05
5.68707e-05
7.01901e-05
5.6508e-05
7.02086e-05
3.43875e-05
4.85616e-05
1.4603e-05
1.69269e-05
3.38375e-05
4.89213e-05
1.46054e-05
3.43871e-05
4.85626e-05
1.46029e-05
1.69272e-05
3.38363e-05
4.89221e-05
1.46054e-05
5.69395e-05
7.02312e-05
7.0214e-05
5.7273e-05
5.69382e-05
7.02277e-05
7.02111e-05
5.72718e-05
3.46232e-05
1.70243e-05