/*--------------------------------*- C++ -*----------------------------------*\
| =========                 |                                                 |
| \\      /  F ield         | OpenFOAM: The Open Source CFD Toolbox           |
|  \\    /   O peration     | Version:  2312                                  |
|   \\  /    A nd           | Website:  www.openfoam.com                      |
|    \\/     M anipulation  |                                                 |
\*---------------------------------------------------------------------------*/
FoamFile
{
    version     2.0;
    format      ascii;
    arch        "LSB;label=32;scalar=64";
    class       volScalarField;
    location    "375";
    object      nut;
}
// * * * * * * * * * * * * * * * * * * * * * * * * * * * * * * * * * * * * * //

dimensions      [0 2 -1 0 0 0 0];

internalField   nonuniform List<scalar> 
43120
(
0.000150129
0.000101693
0.000101689
8.25677e-05
0.000146049
9.88773e-05
9.88745e-05
8.20887e-05
0.000142033
9.65647e-05
9.65654e-05
8.21396e-05
0.000138104
9.47765e-05
9.47698e-05
8.26757e-05
0.000134281
9.3505e-05
9.35048e-05
8.36541e-05
0.000130618
9.27377e-05
9.27341e-05
8.50136e-05
0.00012714
9.24531e-05
9.24636e-05
8.66899e-05
0.000123898
9.26271e-05
9.26256e-05
8.86305e-05
0.000120881
9.32169e-05
9.32262e-05
9.07809e-05
0.000118191
9.42228e-05
9.422e-05
9.30912e-05
0.000115765
9.55709e-05
9.55602e-05
9.55555e-05
0.000113715
9.72058e-05
9.72321e-05
9.81178e-05
0.00011203
9.91583e-05
9.91777e-05
0.000100722
0.000110642
0.000101403
0.00010133
0.000103356
0.000109713
0.000103682
0.00010381
0.000106096
0.00010903
0.000106425
0.000106283
0.000108746
0.000108893
0.000108966
0.000109157
0.000111647
0.000108876
0.000112106
0.000111919
0.00011409
0.000109504
0.000114738
0.000114899
0.000117095
0.000110113
0.000118094
0.000118017
0.000119597
0.00011139
0.00012099
0.000121036
0.000122363
0.000112637
0.000124199
0.000124194
0.000124946
0.000114589
0.000127525
0.000127533
0.000127679
0.000116393
0.000130528
0.000130544
0.000130174
0.000118598
0.000133805
0.000133807
0.000132748
0.000121095
0.000136976
0.000137012
0.000135276
0.000140141
8.28526e-05
0.000102442
0.000102428
8.28485e-05
0.000102463
0.00010243
0.000102469
0.000102445
8.28462e-05
0.000102469
0.000102457
8.28411e-05
8.25759e-05
8.22548e-05
0.000101664
0.00010165
9.95033e-05
9.94925e-05
8.25742e-05
8.22542e-05
0.000101685
0.000101651
9.95238e-05
9.9492e-05
0.000101667
9.95313e-05
9.95092e-05
8.25743e-05
8.22485e-05
0.000101678
9.95305e-05
9.95202e-05
8.22427e-05
8.20933e-05
8.22033e-05
9.88476e-05
9.8837e-05
9.70666e-05
9.70556e-05
8.20954e-05
8.21993e-05
9.88679e-05
9.88368e-05
9.70868e-05
9.7056e-05
9.88513e-05
9.70923e-05
9.70728e-05
8.20922e-05
8.21987e-05
9.88615e-05
9.7093e-05
9.70828e-05
8.21879e-05
8.21461e-05
8.26433e-05
9.65395e-05
9.65266e-05
9.51487e-05
9.51405e-05
8.21456e-05
8.26444e-05
9.65593e-05
9.65292e-05
9.51682e-05
9.51375e-05
9.65474e-05
9.5175e-05
9.51539e-05
8.21433e-05
8.2646e-05
9.65566e-05
9.51728e-05
9.51628e-05
8.26344e-05
8.26852e-05
8.35287e-05
9.47513e-05
9.47408e-05
9.37476e-05
9.37427e-05
8.26911e-05
8.35308e-05
9.47702e-05
9.47354e-05
9.37662e-05
9.3744e-05
9.4758e-05
9.37748e-05
9.37541e-05
8.26845e-05
8.35357e-05
9.4766e-05
9.37774e-05
9.37619e-05
8.35262e-05
8.36591e-05
8.48067e-05
9.3479e-05
9.34717e-05
9.28571e-05
9.28525e-05
8.36661e-05
8.48119e-05
9.34969e-05
9.34722e-05
9.28745e-05
9.28519e-05
9.34848e-05
9.28827e-05
9.28664e-05
8.36736e-05
8.48022e-05
9.34918e-05
9.28835e-05
9.28729e-05
8.48048e-05
8.50158e-05
8.64174e-05
9.27113e-05
9.27067e-05
9.24618e-05
9.24512e-05
8.50205e-05
8.64236e-05
9.27281e-05
9.27036e-05
9.2478e-05
9.24599e-05
9.27212e-05
9.2479e-05
9.24663e-05
8.50146e-05
8.6418e-05
9.27268e-05
9.24894e-05
9.24715e-05
8.64153e-05
8.66929e-05
8.82964e-05
9.24342e-05
9.24242e-05
9.25172e-05
9.25125e-05
8.6694e-05
8.83125e-05
9.24498e-05
9.24348e-05
9.25318e-05
9.25049e-05
9.24422e-05
9.25383e-05
9.25311e-05
8.66977e-05
8.82915e-05
9.24467e-05
9.25326e-05
9.25348e-05
8.8304e-05
8.86212e-05
9.04196e-05
9.26137e-05
9.26007e-05
9.30072e-05
9.3012e-05
8.86362e-05
9.04312e-05
9.26277e-05
9.25991e-05
9.3021e-05
9.30231e-05
9.26148e-05
9.3036e-05
9.30305e-05
8.86164e-05
9.04352e-05
9.26177e-05
9.30493e-05
9.30332e-05
9.04096e-05
9.07725e-05
9.27285e-05
9.3191e-05
9.31921e-05
9.39329e-05
9.39254e-05
9.0803e-05
9.26994e-05
9.32036e-05
9.32006e-05
9.3945e-05
9.39058e-05
9.32187e-05
9.39475e-05
9.39222e-05
9.07985e-05
9.26943e-05
9.32204e-05
9.39302e-05
9.3923e-05
9.26937e-05
9.31341e-05
9.51161e-05
9.42166e-05
9.42001e-05
9.51503e-05
9.51653e-05
9.31206e-05
9.51028e-05
9.42281e-05
9.41966e-05
9.51611e-05
9.51807e-05
9.42141e-05
9.51864e-05
9.518e-05
9.31074e-05
9.51324e-05
9.42142e-05
9.52039e-05
9.51796e-05
9.51411e-05
9.55436e-05
9.76722e-05
9.55233e-05
9.55495e-05
9.67883e-05
9.67449e-05
9.55324e-05
9.76628e-05
9.55333e-05
9.55378e-05
9.67978e-05
9.67633e-05
9.55471e-05
9.6764e-05
9.67812e-05
9.55655e-05
9.76329e-05
9.5546e-05
9.67853e-05
9.67795e-05
9.76647e-05
9.81333e-05
0.000100212
9.72057e-05
9.71862e-05
9.86333e-05
9.86444e-05
9.80982e-05
0.000100254
9.72144e-05
9.72111e-05
9.86417e-05
9.86319e-05
9.72112e-05
9.86629e-05
9.86505e-05
9.80899e-05
0.00010025
9.72084e-05
9.8653e-05
9.86473e-05
0.000100242
0.000100693
0.000102924
9.91801e-05
9.91391e-05
0.000100764
0.000100793
0.000100728
0.000102899
9.91888e-05
9.91569e-05
0.00010077
0.000100759
9.91827e-05
0.000100811
0.000100783
0.000100702
0.000102917
9.91795e-05
0.000100778
0.000100777
0.000102899
0.000103358
0.000105602
0.0001013
0.000101385
0.000103124
0.000103053
0.000103372
0.000105585
0.000101304
0.000101311
0.000103133
0.000103174
0.000101316
0.00010307
0.000103158
0.000103383
0.00010561
0.000101308
0.000103195
0.000103155
0.000105603
0.00010611
0.000108316
0.000103782
0.000103663
0.000105669
0.000105758
0.000106036
0.000108374
0.000103792
0.00010379
0.000105667
0.000105562
0.000103835
0.000105772
0.000105615
0.000106098
0.000108257
0.000103833
0.00010558
0.000105601
0.000108306
0.000108782
0.000111019
0.000106283
0.000106412
0.000108378
0.000108253
0.00010889
0.000110925
0.000106281
0.000106267
0.000108392
0.000108518
0.000106214
0.000108273
0.0001085
0.000108736
0.00011114
0.000106199
0.00010854
0.000108502
0.000111094
0.000111536
0.000113765
0.00010912
0.000108944
0.000111181
0.00011131
0.000111399
0.000113862
0.000109133
0.000109133
0.000111174
0.000111054
0.000109255
0.000111324
0.000111093
0.000111619
0.000113647
0.000109256
0.00011107
0.000111074
0.000113667
0.00011423
0.000116507
0.000111886
0.000112095
0.000114221
0.000114082
0.00011438
0.000116418
0.000111879
0.000111905
0.000114232
0.000114299
0.000111756
0.000114096
0.00011425
0.000114158
0.000116616
0.000111736
0.000114318
0.00011425
0.00011654
0.000117013
0.000119127
0.000114965
0.000114718
0.000117084
0.000117159
0.00011684
0.000119177
0.000114976
0.000114876
0.000117079
0.000117028
0.00011507
0.00011718
0.000117164
0.000117058
0.000119023
0.000115071
0.000117053
0.000117148
0.000119181
0.000119587
0.000121926
0.00011788
0.000118076
0.00012036
0.000120347
0.00011974
0.00012193
0.000117876
0.000117996
0.000120365
0.000120427
0.000117886
0.000120358
0.000120303
0.000119586
0.000122034
0.00011787
0.000120443
0.000120299
0.00012186
0.000122403
0.000124431
0.000121093
0.000120975
0.000123312
0.000123265
0.000122315
0.000124387
0.000121097
0.000121019
0.00012331
0.000123234
0.000121088
0.000123286
0.000123373
0.000122406
0.000124339
0.000121082
0.000123258
0.000123362
0.000124483
0.000124913
0.000127265
0.000124157
0.000124179
0.000126726
0.00012676
0.000124931
0.000127309
0.000124156
0.000124172
0.000126726
0.000126783
0.000124182
0.000126774
0.000126687
0.000124895
0.00012734
0.000124172
0.0001268
0.000126679
0.000127213
0.000127721
0.000129709
0.000127507
0.000127508
0.000129765
0.000129718
0.000127734
0.000129668
0.000127506
0.000127515
0.000129765
0.000129721
0.00012749
0.000129739
0.000129801
0.000127757
0.000129659
0.000127481
0.000129743
0.000129793
0.00012974
0.000130147
0.000132304
0.00013055
0.000130507
0.000132969
0.000132971
0.000130114
0.000132317
0.00013055
0.000130521
0.000132967
0.000132977
0.00013058
0.00013299
0.000132981
0.000130112
0.000132329
0.000130573
0.000132999
0.000132973
0.000132303
0.000132749
0.000134844
0.000133772
0.000133785
0.000136182
0.000136163
0.000132766
0.000134838
0.000133769
0.000133786
0.000136182
0.000136194
0.000133787
0.000136183
0.000136191
0.000132774
0.000134856
0.000133778
0.000136216
0.000136186
0.000134846
0.000135277
0.000137337
0.000136991
0.000136956
0.000139365
0.000139349
0.000135262
0.000137327
0.000136991
0.000136991
0.000139363
0.000139343
0.000136989
0.000139368
0.000139364
0.000135284
0.000137324
0.000136984
0.000139364
0.000139357
0.000137325
0.000140119
0.000137734
0.000151148
0.000151144
0.00015114
0.000151139
2.36359e-05
0.000104132
6.44929e-05
7.00555e-05
4.95559e-05
6.90798e-05
4.95651e-05
2.36274e-05
2.36237e-05
7.00529e-05
4.95504e-05
6.9078e-05
4.95597e-05
0.000150124
0.000150119
0.000150119
0.000147055
0.00014705
0.000147046
0.000147046
6.71006e-05
6.57934e-05
0.000126168
0.000100939
6.61396e-05
6.64654e-05
0.000125138
2.36265e-05
2.36229e-05
6.71014e-05
0.000126151
6.57757e-05
0.000100937
6.61407e-05
0.000125139
6.64829e-05
6.10813e-05
6.10808e-05
8.2471e-05
6.14982e-05
6.14959e-05
7.20536e-05
4.95767e-05
7.12038e-05
4.9585e-05
2.3615e-05
2.36118e-05
7.20511e-05
4.95713e-05
7.12019e-05
4.95796e-05
0.000146046
0.00014604
0.000146039
0.000143015
0.000143011
0.000143007
0.000143006
7.00405e-05
6.76866e-05
0.000122225
9.82475e-05
6.90381e-05
6.83506e-05
0.000121245
2.36142e-05
2.3611e-05
7.0057e-05
0.000122207
6.76683e-05
9.82482e-05
6.90259e-05
0.000121247
6.83706e-05
6.20322e-05
6.20313e-05
8.21526e-05
6.24172e-05
6.2415e-05
7.3802e-05
4.95952e-05
7.30586e-05
4.96025e-05
2.36037e-05
2.36008e-05
7.3799e-05
4.95898e-05
7.30567e-05
4.95971e-05
0.000142027
0.000142025
0.000142025
0.000139058
0.000139052
0.000139048
0.00013905
7.30554e-05
6.94777e-05
0.000118526
9.60672e-05
7.19962e-05
7.01266e-05
0.00011761
2.36028e-05
2.36001e-05
7.30716e-05
0.00011851
6.94586e-05
9.60708e-05
7.19829e-05
0.000117613
7.01477e-05
6.29057e-05
6.29041e-05
8.23589e-05
6.32673e-05
6.32651e-05
7.53402e-05
4.96113e-05
7.46843e-05
4.96177e-05
2.35933e-05
2.35907e-05
7.53365e-05
4.96059e-05
7.46822e-05
4.96123e-05
0.000138102
0.000138093
0.000138096
0.000135218
0.000135217
0.00013521
0.00013521
7.60593e-05
7.1169e-05
0.000115126
9.44073e-05
7.49638e-05
7.18002e-05
0.000114308
2.35925e-05
2.359e-05
7.6074e-05
0.000115109
7.11493e-05
9.4407e-05
7.49513e-05
0.00011431
7.18181e-05
6.37086e-05
6.37068e-05
8.30277e-05
6.40501e-05
6.40479e-05
7.67059e-05
4.96254e-05
7.61201e-05
4.9631e-05
2.3584e-05
2.35816e-05
7.67019e-05
4.962e-05
7.61184e-05
4.96256e-05
0.000134278
0.000134274
0.000134273
0.000131513
0.000131512
0.000131505
0.000131506
7.90029e-05
7.27642e-05
0.000112032
9.32641e-05
7.78877e-05
7.33789e-05
0.000111307
2.35831e-05
2.35808e-05
7.90166e-05
0.000112017
7.27471e-05
9.32654e-05
7.7877e-05
0.00011131
7.33911e-05
6.4451e-05
6.4449e-05
8.41181e-05
6.477e-05
6.47677e-05
7.79314e-05
4.96378e-05
7.74023e-05
4.96429e-05
2.35755e-05
2.35735e-05
7.7928e-05
4.96324e-05
7.74005e-05
4.96375e-05
0.000130614
0.000130609
0.000130612
0.00012799
0.000127982
0.000127985
0.00012798
8.18544e-05
7.4266e-05
0.000109325
9.26208e-05
8.0731e-05
7.48679e-05
0.000108698
2.35747e-05
2.35726e-05
8.18668e-05
0.000109309
7.42537e-05
9.26167e-05
8.07212e-05
0.0001087
7.4878e-05
6.51444e-05
6.51421e-05
8.55779e-05
6.54371e-05
6.54345e-05
7.90431e-05
4.96492e-05
7.8561e-05
4.9654e-05
2.35681e-05
2.35664e-05
7.90404e-05
4.96438e-05
7.85582e-05
4.96486e-05
0.00012714
0.00012714
0.000127137
0.000124665
0.000124667
0.000124657
0.000124663
8.45941e-05
7.56812e-05
0.00010702
9.24527e-05
8.34724e-05
7.62744e-05
0.000106498
2.35673e-05
2.35654e-05
8.46055e-05
0.000107008
7.56747e-05
9.24569e-05
8.34637e-05
0.000106503
7.62836e-05
6.57912e-05
6.57886e-05
8.73392e-05
6.60621e-05
6.60595e-05
8.00623e-05
4.96599e-05
7.96193e-05
4.96645e-05
2.35616e-05
2.35603e-05
8.00592e-05
4.96545e-05
7.96158e-05
4.96591e-05
0.000123895
0.000123881
0.000123883
0.000121616
0.000121616
0.000121621
0.000121617
8.72157e-05
7.7019e-05
0.000105146
9.27419e-05
8.61041e-05
7.7602e-05
0.000104733
2.35608e-05
2.35594e-05
8.72235e-05
0.00010513
7.70121e-05
9.27485e-05
8.60963e-05
0.000104737
7.76144e-05
6.63934e-05
6.63905e-05
8.93418e-05
6.66479e-05
6.66453e-05
8.10052e-05
4.96704e-05
8.05949e-05
4.96751e-05
2.35561e-05
2.35551e-05
8.10015e-05
4.96649e-05
8.0592e-05
4.96697e-05
0.000120883
0.000120885
0.000120883
0.000118833
0.000118832
0.00011881
0.000118818
8.97205e-05
7.82914e-05
0.000103707
9.34309e-05
8.86253e-05
7.88518e-05
0.000103411
2.35552e-05
2.35542e-05
8.97185e-05
0.000103697
7.82836e-05
9.3431e-05
8.86252e-05
0.000103411
7.88594e-05
6.69612e-05
6.69583e-05
9.15506e-05
6.72013e-05
6.71984e-05
8.18842e-05
4.96809e-05
8.1501e-05
4.96858e-05
2.35516e-05
2.35508e-05
8.18807e-05
4.96755e-05
8.14985e-05
4.96804e-05
0.000118175
0.000118169
0.000118175
0.000116327
0.000116345
0.000116348
0.000116341
9.21079e-05
7.95098e-05
0.000102719
9.45094e-05
9.10435e-05
8.00418e-05
0.000102528
2.35508e-05
2.35501e-05
9.21045e-05
0.000102709
7.95031e-05
9.45318e-05
9.10461e-05
0.000102538
8.0047e-05
6.74928e-05
6.74898e-05
9.39054e-05
6.77306e-05
6.77276e-05
8.27075e-05
4.96919e-05
8.23479e-05
4.96972e-05
2.35482e-05
2.35478e-05
8.27042e-05
4.96865e-05
8.23455e-05
4.96918e-05
0.000115789
0.000115769
0.000115772
0.000114215
0.000114184
0.000114201
0.000114202
9.43862e-05
8.06581e-05
0.000102173
9.5961e-05
9.3361e-05
8.11821e-05
0.000102093
2.35472e-05
2.35469e-05
9.4383e-05
0.000102159
8.0659e-05
9.59407e-05
9.33673e-05
0.000102093
8.11726e-05
6.79928e-05
6.79896e-05
9.63606e-05
6.8224e-05
6.82205e-05
8.34842e-05
4.97035e-05
8.31479e-05
4.9709e-05
2.35456e-05
2.35458e-05
8.3482e-05
4.96981e-05
8.31442e-05
4.97036e-05
0.000113705
0.000113719
0.000113714
0.000112401
0.000112407
0.000112397
0.000112391
9.65715e-05
8.17495e-05
0.000102045
9.76787e-05
9.55886e-05
8.22512e-05
0.000102074
2.35448e-05
2.35448e-05
9.65722e-05
0.000102042
8.17612e-05
9.76856e-05
9.55928e-05
0.000102074
8.22577e-05
6.84823e-05
6.84792e-05
9.89393e-05
6.86863e-05
6.86827e-05
8.42239e-05
4.97165e-05
8.39015e-05
4.9722e-05
2.35442e-05
2.35445e-05
8.422e-05
4.97111e-05
8.38977e-05
4.97166e-05
0.000111992
0.000112019
0.000112019
0.000110972
0.000111001
0.000110952
0.000110978
9.86799e-05
8.28139e-05
0.000102331
9.96722e-05
9.77261e-05
8.32784e-05
0.000102458
2.35433e-05
2.35438e-05
9.86756e-05
0.000102336
8.28041e-05
9.97142e-05
9.77285e-05
0.000102481
8.329e-05
6.89545e-05
6.89512e-05
0.000101604
6.91417e-05
6.91382e-05
8.49228e-05
4.97299e-05
8.46147e-05
4.97365e-05
2.35438e-05
2.35445e-05
8.49191e-05
4.97245e-05
8.46125e-05
4.97311e-05
0.000110721
0.000110629
0.000110629
0.000109877
0.000109833
0.000109949
0.00010991
0.000100698
8.38118e-05
0.000103033
0.00010197
9.97812e-05
8.42766e-05
0.000103244
2.35428e-05
2.35436e-05
0.000100692
0.00010299
8.38123e-05
0.000101923
9.97901e-05
0.000103219
8.42689e-05
6.93822e-05
6.9379e-05
0.000104222
6.95782e-05
6.95748e-05
8.55953e-05
4.97449e-05
8.53033e-05
4.97517e-05
2.35442e-05
2.35456e-05
8.55931e-05
4.97396e-05
8.53001e-05
4.97463e-05
0.000109615
0.000109751
0.000109769
0.000109207
0.000109272
0.000109072
0.000109141
0.000102646
8.4754e-05
0.000104028
0.000104359
0.000101777
8.52164e-05
0.000104354
2.35433e-05
2.35444e-05
0.000102649
0.000104087
8.47848e-05
0.000104389
0.000101787
0.000104387
8.52147e-05
6.98099e-05
6.98061e-05
0.000106997
6.99997e-05
6.99966e-05
8.62416e-05
4.97611e-05
8.59611e-05
4.97687e-05
2.35455e-05
2.35469e-05
8.62395e-05
4.97557e-05
8.59553e-05
4.97634e-05
0.000109159
0.000108977
0.000108944
0.000108862
0.000108775
0.000109043
0.000108957
0.000104537
8.57211e-05
0.000105461
0.000107034
0.000103715
8.61029e-05
0.000105829
2.3545e-05
2.35465e-05
0.000104533
0.000105369
8.56944e-05
0.000107056
0.000103706
0.000105809
8.61436e-05
7.01866e-05
7.01821e-05
0.000109577
7.03948e-05
7.03912e-05
8.68721e-05
4.97792e-05
8.65947e-05
4.9787e-05
2.35483e-05
2.35501e-05
8.68645e-05
4.97738e-05
8.6595e-05
4.97815e-05
0.000108714
0.000108949
0.000109017
0.000108847
0.000108946
0.000108684
0.000108785
0.00010638
8.65755e-05
0.00010708
0.000109717
0.000105569
8.70122e-05
0.000107553
2.3547e-05
2.35488e-05
0.000106376
0.000107197
8.66089e-05
0.000109727
0.000105596
0.000107599
8.69814e-05
7.06285e-05
7.0625e-05
0.000112526
7.07575e-05
7.07524e-05
8.74778e-05
4.97978e-05
8.7216e-05
4.98068e-05
2.35512e-05
2.35531e-05
8.74777e-05
4.97925e-05
8.721e-05
4.98014e-05
0.000109101
0.000108872
0.000108751
0.000109358
0.000109273
0.000109473
0.000109324
0.000108155
8.74711e-05
0.000109149
0.000112825
0.000107391
8.78435e-05
0.00010969
2.35507e-05
2.35527e-05
0.000108151
0.000109023
8.74462e-05
0.000112809
0.000107372
0.000109645
8.78785e-05
7.09513e-05
7.09474e-05
0.000114971
7.11496e-05
7.11461e-05
8.80742e-05
4.98187e-05
8.78154e-05
4.98274e-05
2.35553e-05
2.35582e-05
8.80675e-05
4.98133e-05
8.78159e-05
4.98219e-05
0.00010927
0.000109444
0.000109562
0.000109859
0.000109879
0.000109765
0.000109978
0.000109887
8.82456e-05
0.000111265
0.000115456
0.000109143
8.86414e-05
0.000111812
2.35541e-05
2.35569e-05
0.000109888
0.000111366
8.82936e-05
0.000115483
0.000109175
0.000111862
8.86126e-05
7.13697e-05
7.13662e-05
0.000117996
7.15023e-05
7.14974e-05
8.86624e-05
4.98403e-05
8.84054e-05
4.98503e-05
2.35607e-05
2.35631e-05
8.86615e-05
4.98352e-05
8.83992e-05
4.98454e-05
0.000110284
0.000110192
0.000110157
0.000111122
0.000111182
0.000111249
0.000111037
0.000111595
8.9111e-05
0.000113809
0.000118947
0.000110862
8.94784e-05
0.000114519
2.356e-05
2.35621e-05
0.000111593
0.000113747
8.91018e-05
0.000118958
0.000110845
0.000114502
8.9514e-05
7.16664e-05
7.16616e-05
0.000120423
7.18485e-05
7.18451e-05
8.92171e-05
4.9863e-05
8.89812e-05
4.98734e-05
2.35657e-05
2.35695e-05
8.92105e-05
4.9858e-05
8.89801e-05
4.98684e-05
0.000111332
0.00011138
0.000111349
0.000112223
0.000112149
0.000112117
0.000112291
0.000113205
8.98242e-05
0.000116436
0.000121663
0.000112532
9.01651e-05
0.000117037
2.35644e-05
2.35683e-05
0.0001132
0.000116468
8.98385e-05
0.000121661
0.000112553
0.000117051
9.0153e-05
7.20347e-05
7.2031e-05
0.000123216
7.21727e-05
7.21679e-05
8.97995e-05
4.9889e-05
8.95454e-05
4.98997e-05
2.35732e-05
2.3576e-05
8.97974e-05
4.9884e-05
8.95423e-05
4.98947e-05
0.000112628
0.000112615
0.000112679
0.000114124
0.000114184
0.000114203
0.000114077
0.000114852
9.06189e-05
0.000119193
0.000125108
0.000114136
9.09886e-05
0.000120006
2.35722e-05
2.3575e-05
0.000114854
0.000119181
9.06264e-05
0.000125131
0.000114134
0.000120016
9.10064e-05
7.23572e-05
7.23532e-05
0.000125837
7.25142e-05
7.25101e-05
9.03302e-05
4.99136e-05
9.01071e-05
4.99245e-05
2.35792e-05
2.35829e-05
9.03256e-05
4.99086e-05
9.01033e-05
4.99196e-05
0.000114632
0.000114633
0.000114556
0.000115909
0.000115883
0.000115882
0.000115945
0.000116392
9.13355e-05
0.000122392
0.000128251
0.000115759
9.16418e-05
0.000123127
2.35782e-05
2.35819e-05
0.000116387
0.000122392
9.13424e-05
0.000128246
0.000115767
0.000123125
9.16418e-05
7.26808e-05
7.26765e-05
0.000128503
7.28145e-05
7.28099e-05
9.08709e-05
4.99406e-05
9.06356e-05
4.99525e-05
2.35873e-05
2.35911e-05
9.08673e-05
4.99356e-05
9.06332e-05
4.99476e-05
0.000116352
0.00011637
0.000116431
0.000118022
0.000118024
0.00011803
0.000118045
0.000117894
9.20124e-05
0.000125382
0.000131341
0.000117247
9.23495e-05
0.000126182
2.35864e-05
2.35902e-05
0.000117896
0.000125389
9.20226e-05
0.000131362
0.000117251
0.000126201
9.23607e-05
7.29756e-05
7.29715e-05
0.000131006
7.31191e-05
7.31145e-05
9.13969e-05
4.99687e-05
9.11733e-05
4.99808e-05
2.35955e-05
2.35995e-05
9.13931e-05
4.99637e-05
9.11701e-05
4.99758e-05
0.000118628
0.00011862
0.000118625
0.000120439
0.000120447
0.000120484
0.000120461
0.000119376
9.27068e-05
0.00012871
0.000134604
0.000118758
9.30176e-05
0.000129552
2.35946e-05
2.35986e-05
0.000119375
0.000128706
9.27146e-05
0.000134612
0.000118761
0.000129556
9.30242e-05
7.32777e-05
7.32734e-05
0.000133583
7.34124e-05
7.34078e-05
9.19056e-05
4.99974e-05
9.16875e-05
5.00096e-05
2.36042e-05
2.36085e-05
9.19023e-05
4.99924e-05
9.16848e-05
5.00047e-05
0.000121079
0.000121126
0.000121102
0.000123086
0.000123076
0.000123076
0.000123082
0.000120788
9.33532e-05
0.000132107
0.000137773
0.000120194
9.36577e-05
0.000132967
2.36033e-05
2.36075e-05
0.000120792
0.000132129
9.33665e-05
0.000137803
0.000120199
0.000132992
9.36671e-05
7.35642e-05
7.35596e-05
0.000136094
7.36932e-05
7.36884e-05
0.000123745
2.36125e-05
9.39912e-05
2.36323e-05
2.36302e-05
6.10252e-05
6.10251e-05
4.95543e-05
6.89521e-05
4.95482e-05
6.89498e-05
6.55117e-05
0.000127146
6.56799e-05
6.55058e-05
0.000127139
6.56785e-05
2.36301e-05
6.10246e-05
6.1037e-05
2.36318e-05
4.95334e-05
0.000104093
6.44948e-05
6.79043e-05
4.95488e-05
6.89495e-05
6.4748e-05
6.55084e-05
0.000127143
0.000128181
6.5679e-05
6.79025e-05
4.95449e-05
4.95351e-05
6.8948e-05
6.47471e-05
0.000103238
0.000127131
6.55069e-05
0.000128169
6.47792e-05
6.56781e-05
6.54868e-05
0.000127155
6.56789e-05
4.95501e-05
6.89577e-05
0.000127147
6.55029e-05
6.56781e-05
4.95458e-05
6.89496e-05
8.3372e-05
6.05064e-05
6.05118e-05
2.3638e-05
2.36293e-05
2.36331e-05
8.30324e-05
6.10256e-05
6.10308e-05
6.05575e-05
6.05624e-05
2.36314e-05
2.36352e-05
4.95385e-05
6.47491e-05
0.000103278
0.000127149
6.55057e-05
0.000128186
6.47866e-05
6.56797e-05
6.47477e-05
0.000127142
6.55141e-05
0.000128179
6.56782e-05
6.79011e-05
4.95499e-05
4.95401e-05
6.8956e-05
6.78992e-05
4.95442e-05
6.89538e-05
6.10358e-05
6.10344e-05
2.36302e-05
2.3629e-05
2.36296e-05
2.3626e-05
2.36275e-05
2.36239e-05
6.10728e-05
6.10726e-05
8.24787e-05
6.15217e-05
6.15203e-05
2.36199e-05
2.36233e-05
2.36178e-05
2.36212e-05
8.22615e-05
6.19872e-05
6.19858e-05
6.15643e-05
6.15629e-05
7.00532e-05
4.95497e-05
6.90777e-05
4.9559e-05
6.71007e-05
6.57718e-05
0.000126152
0.000100913
6.61407e-05
6.64936e-05
0.000125133
6.70993e-05
6.57722e-05
0.000126145
0.000100899
6.61394e-05
6.64833e-05
0.000125127
7.01751e-05
4.95754e-05
4.95666e-05
7.10905e-05
7.01728e-05
4.95692e-05
4.95605e-05
7.10883e-05
6.75743e-05
0.000100194
6.74432e-05
0.000123157
6.67371e-05
0.000124151
6.85567e-05
6.75728e-05
0.000100182
6.74376e-05
0.000123152
6.67345e-05
0.000124145
6.85569e-05
6.10713e-05
6.10779e-05
8.24774e-05
6.15062e-05
6.15159e-05
2.3629e-05
2.36254e-05
2.36177e-05
2.36211e-05
8.2259e-05
6.19856e-05
6.19939e-05
6.15498e-05
6.15564e-05
2.36193e-05
2.36227e-05
6.70999e-05
6.57705e-05
0.000126149
0.000100933
6.614e-05
6.64903e-05
0.000125131
7.00513e-05
4.95464e-05
6.90764e-05
4.95558e-05
6.7099e-05
0.000126137
6.57675e-05
0.000100898
6.61392e-05
0.000125119
6.64841e-05
7.01735e-05
4.95699e-05
4.95611e-05
7.10874e-05
6.75734e-05
0.000100214
6.74399e-05
0.000123155
6.67357e-05
0.000124148
6.85542e-05
7.01717e-05
4.9566e-05
4.95572e-05
7.10858e-05
6.75723e-05
0.000100182
0.000123144
6.74379e-05
0.000124137
6.6731e-05
6.85531e-05
7.00628e-05
4.95518e-05
6.90697e-05
4.95609e-05
6.70998e-05
0.000126154
6.57765e-05
0.000100914
6.61388e-05
0.000125135
6.64741e-05
7.00547e-05
4.95474e-05
6.90755e-05
4.95566e-05
6.75741e-05
0.000100223
6.74237e-05
0.000123163
6.67521e-05
0.000124169
6.85542e-05
7.01661e-05
4.95712e-05
4.95625e-05
7.10954e-05
6.75733e-05
0.000100198
0.00012316
6.74352e-05
0.000124154
6.67338e-05
6.85534e-05
7.01716e-05
4.95669e-05
4.95581e-05
7.10874e-05
6.10691e-05
6.1074e-05
8.24731e-05
6.15069e-05
6.15125e-05
2.36286e-05
2.36251e-05
2.36168e-05
2.36203e-05
8.2252e-05
6.19855e-05
6.19912e-05
6.15528e-05
6.15579e-05
2.3619e-05
2.36225e-05
6.71e-05
0.000126145
6.57661e-05
0.000100926
6.61388e-05
0.000125132
6.64846e-05
7.00619e-05
4.95514e-05
6.90724e-05
4.95608e-05
7.00595e-05
4.95457e-05
6.90705e-05
4.9555e-05
6.75735e-05
0.00010022
0.000123164
6.74382e-05
0.000124152
6.67382e-05
6.85642e-05
6.7573e-05
0.000100209
0.000123157
6.74443e-05
0.000124145
6.67248e-05
6.85531e-05
7.0166e-05
4.9571e-05
4.95623e-05
7.10954e-05
7.01641e-05
4.95653e-05
4.95565e-05
7.10929e-05
2.36274e-05
2.36237e-05
2.36262e-05
2.36225e-05
8.225e-05
6.1995e-05
6.19941e-05
6.1544e-05
6.15425e-05
2.36177e-05
2.36212e-05
2.36165e-05
2.362e-05
2.36173e-05
2.36141e-05
2.36152e-05
2.36119e-05
6.20281e-05
6.20266e-05
8.21601e-05
6.24394e-05
6.24373e-05
2.36084e-05
2.36116e-05
2.36063e-05
2.36094e-05
8.20558e-05
6.28648e-05
6.28623e-05
6.24803e-05
6.24782e-05
7.20512e-05
4.95706e-05
7.12015e-05
4.95789e-05
7.00477e-05
6.7668e-05
0.000122206
9.82215e-05
6.90332e-05
6.83761e-05
0.000121239
7.00482e-05
6.76665e-05
0.000122201
9.82098e-05
6.903e-05
6.83654e-05
0.000121234
7.21597e-05
4.9594e-05
4.95863e-05
7.2959e-05
7.21572e-05
4.95879e-05
4.95802e-05
7.29567e-05
7.05047e-05
9.76306e-05
6.92725e-05
0.000119387
6.85813e-05
0.000120322
7.15543e-05
7.05006e-05
9.76189e-05
6.92658e-05
0.000119382
6.8579e-05
0.000120317
7.1555e-05
6.2024e-05
6.20312e-05
8.21572e-05
6.24236e-05
6.24327e-05
2.36167e-05
2.36134e-05
2.36061e-05
2.36093e-05
8.2049e-05
6.28618e-05
6.28702e-05
6.24665e-05
6.24739e-05
2.36078e-05
2.3611e-05
7.0043e-05
6.76665e-05
0.000122204
9.8242e-05
6.90356e-05
6.83725e-05
0.000121238
7.20493e-05
4.95673e-05
7.12001e-05
4.95758e-05
7.0042e-05
0.000122192
6.76598e-05
9.82105e-05
6.90343e-05
0.000121226
6.83704e-05
7.2158e-05
4.95886e-05
4.95808e-05
7.29557e-05
7.05071e-05
9.76507e-05
6.92688e-05
0.000119385
6.85795e-05
0.00012032
7.15493e-05
7.21561e-05
4.95846e-05
4.9577e-05
7.29541e-05
7.05055e-05
9.76185e-05
0.000119374
6.9261e-05
0.000120308
6.85796e-05
7.15484e-05
7.20607e-05
4.95726e-05
7.11936e-05
4.95808e-05
7.0046e-05
0.000122209
6.76688e-05
9.82222e-05
6.9032e-05
0.000121242
6.83598e-05
7.20526e-05
4.95682e-05
7.11992e-05
4.95766e-05
7.05109e-05
9.76581e-05
6.92529e-05
0.000119392
6.85976e-05
0.000120341
7.15452e-05
7.21504e-05
4.95897e-05
4.95821e-05
7.29639e-05
7.05042e-05
9.7632e-05
0.000119391
6.92617e-05
0.000120326
6.85793e-05
7.15509e-05
7.21558e-05
4.95856e-05
4.95779e-05
7.2956e-05
6.2023e-05
6.20284e-05
8.21564e-05
6.24248e-05
6.24304e-05
2.36164e-05
2.36132e-05
2.36053e-05
2.36086e-05
8.20485e-05
6.28568e-05
6.28632e-05
6.24721e-05
6.2477e-05
2.36074e-05
2.36107e-05
7.00432e-05
0.0001222
6.76589e-05
9.82327e-05
6.9034e-05
0.00012124
6.83689e-05
7.206e-05
4.95723e-05
7.11945e-05
4.95808e-05
7.20573e-05
4.95666e-05
7.11927e-05
4.9575e-05
7.0497e-05
9.76555e-05
0.000119395
6.92624e-05
0.000120324
6.85872e-05
7.15628e-05
7.05059e-05
9.76417e-05
0.000119388
6.92704e-05
0.000120317
6.85699e-05
7.15485e-05
7.21505e-05
4.95896e-05
4.9582e-05
7.29641e-05
7.21484e-05
4.95839e-05
4.95763e-05
7.29614e-05
2.3615e-05
2.36118e-05
2.36138e-05
2.36106e-05
8.20407e-05
6.28688e-05
6.28677e-05
6.24625e-05
6.24608e-05
2.36062e-05
2.36094e-05
2.3605e-05
2.36082e-05
2.3606e-05
2.36031e-05
2.36039e-05
2.36009e-05
6.29038e-05
6.29013e-05
8.23596e-05
6.3283e-05
6.32802e-05
2.35979e-05
2.36008e-05
2.35957e-05
2.35986e-05
8.23573e-05
6.36743e-05
6.36711e-05
6.33222e-05
6.33194e-05
7.37995e-05
4.9589e-05
7.30564e-05
4.95964e-05
7.30636e-05
6.94614e-05
0.000118507
9.60428e-05
7.19895e-05
7.01502e-05
0.000117604
7.30639e-05
6.94579e-05
0.000118501
9.60317e-05
7.19855e-05
7.01395e-05
0.000117599
7.38956e-05
4.96103e-05
4.96035e-05
7.45963e-05
7.3893e-05
4.96041e-05
4.95975e-05
7.4594e-05
7.34741e-05
9.55802e-05
7.09977e-05
0.000115898
7.03222e-05
0.000116765
7.45713e-05
7.34696e-05
9.5572e-05
7.09908e-05
0.000115893
7.03198e-05
0.00011676
7.4572e-05
6.28985e-05
6.29058e-05
8.23526e-05
6.32665e-05
6.32755e-05
2.36053e-05
2.36024e-05
2.35956e-05
2.35985e-05
8.23477e-05
6.36717e-05
6.36803e-05
6.33079e-05
6.33154e-05
2.35973e-05
2.36001e-05
7.30588e-05
6.94593e-05
0.000118505
9.60626e-05
7.19918e-05
7.01464e-05
0.000117603
7.37971e-05
4.95858e-05
7.30549e-05
4.95933e-05
7.30575e-05
0.000118494
6.94503e-05
9.60346e-05
7.19904e-05
0.000117592
7.0146e-05
7.38936e-05
4.96049e-05
4.95981e-05
7.45932e-05
7.34761e-05
9.55997e-05
7.09937e-05
0.000115897
7.03199e-05
0.000116763
7.45669e-05
7.38916e-05
4.96009e-05
4.95943e-05
7.45915e-05
7.34745e-05
9.55734e-05
0.000115886
7.09854e-05
0.000116752
7.03204e-05
7.45658e-05
7.38085e-05
4.95909e-05
7.30487e-05
4.95982e-05
7.30612e-05
0.000118512
6.94627e-05
9.60486e-05
7.1989e-05
0.000117608
7.01357e-05
7.38006e-05
4.95867e-05
7.30543e-05
4.95941e-05
7.34806e-05
9.56089e-05
7.09794e-05
0.000115904
7.03383e-05
0.000116785
7.45628e-05
7.38859e-05
4.9606e-05
4.95993e-05
7.46015e-05
7.34737e-05
9.55845e-05
0.000115903
7.09853e-05
0.00011677
7.03189e-05
7.45679e-05
7.38915e-05
4.96019e-05
4.95951e-05
7.45936e-05
6.28913e-05
6.28976e-05
8.23505e-05
6.32769e-05
6.32824e-05
2.3605e-05
2.36022e-05
2.35947e-05
2.35977e-05
8.23497e-05
6.36605e-05
6.36672e-05
6.33212e-05
6.33265e-05
2.35968e-05
2.35999e-05
7.30584e-05
0.000118503
6.94531e-05
9.6058e-05
7.19912e-05
0.000117605
7.01437e-05
7.38079e-05
4.95908e-05
7.30498e-05
4.95983e-05
7.3805e-05
4.95851e-05
7.30477e-05
4.95925e-05
7.34674e-05
9.56087e-05
0.000115907
7.09881e-05
0.000116768
7.03285e-05
7.45793e-05
7.34752e-05
9.55932e-05
0.0001159
7.0993e-05
0.000116761
7.03089e-05
7.4566e-05
7.38863e-05
4.96059e-05
4.95992e-05
7.46018e-05
7.3884e-05
4.96003e-05
4.95935e-05
7.45988e-05
2.36037e-05
2.36008e-05
2.36026e-05
2.35996e-05
8.23546e-05
6.36704e-05
6.36688e-05
6.33072e-05
6.33052e-05
2.35957e-05
2.35985e-05
2.35945e-05
2.35973e-05
2.35957e-05
2.3593e-05
2.35935e-05
2.35909e-05
6.37124e-05
6.37091e-05
8.30342e-05
6.4059e-05
6.40556e-05
2.35883e-05
2.35909e-05
2.35862e-05
2.35887e-05
8.31227e-05
6.44236e-05
6.442e-05
6.40962e-05
6.40928e-05
7.53376e-05
4.96051e-05
7.4682e-05
4.96116e-05
7.60681e-05
7.1154e-05
0.000115106
9.43846e-05
7.49568e-05
7.18222e-05
0.000114301
7.6068e-05
7.11492e-05
0.000115101
9.4374e-05
7.4953e-05
7.18115e-05
0.000114297
7.54225e-05
4.96246e-05
4.96185e-05
7.60422e-05
7.54198e-05
4.96184e-05
4.96125e-05
7.60399e-05
7.64257e-05
9.40505e-05
7.26227e-05