/*--------------------------------*- C++ -*----------------------------------*\
| =========                 |                                                 |
| \\      /  F ield         | OpenFOAM: The Open Source CFD Toolbox           |
|  \\    /   O peration     | Version:  2312                                  |
|   \\  /    A nd           | Website:  www.openfoam.com                      |
|    \\/     M anipulation  |                                                 |
\*---------------------------------------------------------------------------*/
FoamFile
{
    version     2.0;
    format      ascii;
    arch        "LSB;label=32;scalar=64";
    class       volScalarField;
    location    "375";
    object      p;
}
// * * * * * * * * * * * * * * * * * * * * * * * * * * * * * * * * * * * * * //

dimensions      [0 2 -2 0 0 0 0];

internalField   nonuniform List<scalar> 
43120
(
0.00264727
0.00264722
0.00264722
0.00264967
0.00260738
0.00260733
0.00260733
0.00260976
0.00256773
0.00256767
0.00256767
0.0025701
0.0025283
0.00252824
0.00252824
0.00253066
0.00248909
0.00248903
0.00248903
0.00249144
0.00245009
0.00245004
0.00245004
0.00245243
0.0024113
0.00241125
0.00241125
0.00241361
0.00237269
0.00237265
0.00237265
0.002375
0.00233428
0.00233424
0.00233424
0.00233657
0.00229604
0.00229601
0.00229601
0.00229831
0.00225798
0.00225795
0.00225795
0.00226023
0.00222008
0.00222006
0.00222006
0.00222232
0.00218235
0.00218233
0.00218233
0.00218457
0.00214477
0.00214475
0.00214475
0.00214698
0.00210734
0.00210733
0.00210733
0.00210953
0.00207006
0.00207005
0.00207005
0.00207223
0.00203292
0.00203291
0.00203291
0.00203508
0.00199592
0.00199589
0.0019959
0.00199806
0.00195904
0.00195902
0.00195902
0.00196116
0.0019223
0.00192226
0.00192227
0.00192439
0.00188566
0.00188562
0.00188562
0.00188775
0.00184916
0.0018491
0.00184911
0.00185121
0.00181273
0.00181267
0.00181267
0.00181478
0.00177642
0.00177636
0.00177636
0.00177845
0.00174021
0.00174013
0.00174013
0.00174222
0.00170408
0.001704
0.001704
0.00170608
0.00166795
0.00265489
0.00265723
0.00265724
0.00265489
0.00265724
0.00265724
0.00265724
0.00265724
0.0026549
0.00265723
0.00265724
0.00265489
0.00264967
0.00261497
0.00264722
0.00264722
0.00261728
0.00261728
0.00264967
0.00261496
0.00264722
0.00264722
0.00261728
0.00261727
0.00264722
0.00261728
0.00261728
0.00264967
0.00261496
0.00264722
0.00261728
0.00261728
0.00261496
0.00260977
0.00257527
0.00260733
0.00260732
0.00257756
0.00257756
0.00260977
0.00257527
0.00260733
0.00260732
0.00257756
0.00257756
0.00260732
0.00257756
0.00257756
0.00260977
0.00257527
0.00260732
0.00257756
0.00257756
0.00257527
0.0025701
0.00253581
0.00256767
0.00256767
0.00253808
0.00253808
0.0025701
0.00253581
0.00256767
0.00256767
0.00253808
0.00253807
0.00256767
0.00253808
0.00253808
0.0025701
0.00253581
0.00256767
0.00253807
0.00253808
0.00253581
0.00253066
0.00249656
0.00252825
0.00252824
0.00249882
0.00249882
0.00253066
0.00249656
0.00252824
0.00252824
0.00249882
0.00249882
0.00252825
0.00249882
0.00249882
0.00253066
0.00249656
0.00252824
0.00249882
0.00249882
0.00249656
0.00249144
0.00245753
0.00248904
0.00248903
0.00245977
0.00245977
0.00249144
0.00245753
0.00248904
0.00248903
0.00245977
0.00245977
0.00248904
0.00245977
0.00245977
0.00249144
0.00245753
0.00248904
0.00245977
0.00245977
0.00245753
0.00245243
0.0024187
0.00245004
0.00245004
0.00242093
0.00242093
0.00245243
0.00241869
0.00245004
0.00245004
0.00242093
0.00242093
0.00245004
0.00242093
0.00242093
0.00245242
0.00241869
0.00245004
0.00242093
0.00242093
0.0024187
0.00241362
0.00238006
0.00241125
0.00241125
0.00238228
0.00238228
0.00241361
0.00238006
0.00241125
0.00241125
0.00238228
0.00238228
0.00241125
0.00238228
0.00238228
0.00241361
0.00238006
0.00241125
0.00238228
0.00238228
0.00238006
0.002375
0.00234161
0.00237265
0.00237265
0.00234382
0.00234382
0.00237499
0.0023416
0.00237265
0.00237265
0.00234382
0.00234382
0.00237265
0.00234382
0.00234383
0.002375
0.0023416
0.00237265
0.00234382
0.00234383
0.00234161
0.00233656
0.00230333
0.00233424
0.00233424
0.00230555
0.00230555
0.00233656
0.00230334
0.00233424
0.00233424
0.00230555
0.00230555
0.00233424
0.00230555
0.00230555
0.00233656
0.00230333
0.00233424
0.00230555
0.00230555
0.00230334
0.00229831
0.00226524
0.002296
0.00229601
0.00226744
0.00226745
0.00229831
0.00226524
0.002296
0.00229601
0.00226744
0.00226745
0.00229601
0.00226745
0.00226744
0.00229831
0.00226524
0.00229601
0.00226745
0.00226744
0.00226524
0.00226023
0.00222731
0.00225794
0.00225795
0.00222952
0.00222951
0.00226023
0.00222731
0.00225794
0.00225795
0.00222952
0.00222952
0.00225795
0.00222951
0.00222951
0.00226023
0.00222731
0.00225795
0.00222952
0.00222951
0.00222731
0.00222232
0.00218955
0.00222006
0.00222006
0.00219175
0.00219175
0.00222232
0.00218955
0.00222006
0.00222006
0.00219175
0.00219175
0.00222006
0.00219175
0.00219175
0.00222232
0.00218955
0.00222006
0.00219175
0.00219175
0.00218955
0.00218457
0.00215194
0.00218233
0.00218233
0.00215413
0.00215413
0.00218457
0.00215194
0.00218233
0.00218233
0.00215413
0.00215413
0.00218233
0.00215413
0.00215413
0.00218457
0.00215194
0.00218233
0.00215413
0.00215413
0.00215194
0.00214697
0.00211448
0.00214475
0.00214475
0.00211667
0.00211667
0.00214698
0.00211448
0.00214475
0.00214475
0.00211667
0.00211667
0.00214476
0.00211667
0.00211667
0.00214697
0.00211448
0.00214476
0.00211667
0.00211667
0.00211448
0.00210953
0.00207717
0.00210733
0.00210733
0.00207936
0.00207936
0.00210953
0.00207717
0.00210733
0.00210733
0.00207936
0.00207936
0.00210733
0.00207936
0.00207936
0.00210953
0.00207717
0.00210733
0.00207936
0.00207936
0.00207717
0.00207224
0.00204
0.00207005
0.00207005
0.00204218
0.00204218
0.00207223
0.00204
0.00207005
0.00207005
0.00204218
0.00204218
0.00207005
0.00204218
0.00204218
0.00207223
0.00204
0.00207005
0.00204218
0.00204218
0.00204
0.00203508
0.00200297
0.00203291
0.00203291
0.00200514
0.00200514
0.00203508
0.00200296
0.00203291
0.00203291
0.00200514
0.00200514
0.0020329
0.00200514
0.00200514
0.00203508
0.00200296
0.0020329
0.00200514
0.00200514
0.00200297
0.00199805
0.00196606
0.0019959
0.00199589
0.00196823
0.00196823
0.00199805
0.00196607
0.0019959
0.0019959
0.00196823
0.00196823
0.0019959
0.00196823
0.00196823
0.00199805
0.00196606
0.0019959
0.00196823
0.00196823
0.00196606
0.00196116
0.00192928
0.00195902
0.00195902
0.00193144
0.00193144
0.00196117
0.00192928
0.00195902
0.00195902
0.00193144
0.00193144
0.00195902
0.00193144
0.00193144
0.00196116
0.00192928
0.00195902
0.00193144
0.00193144
0.00192928
0.0019244
0.00189262
0.00192227
0.00192226
0.00189477
0.00189477
0.00192439
0.00189262
0.00192227
0.00192227
0.00189477
0.00189477
0.00192226
0.00189477
0.00189477
0.0019244
0.00189262
0.00192226
0.00189477
0.00189477
0.00189262
0.00188774
0.00185608
0.00188562
0.00188562
0.00185822
0.00185823
0.00188775
0.00185608
0.00188562
0.00188562
0.00185822
0.00185823
0.00188562
0.00185823
0.00185822
0.00188774
0.00185608
0.00188562
0.00185823
0.00185822
0.00185608
0.00185122
0.00181964
0.0018491
0.0018491
0.00182177
0.00182177
0.00185122
0.00181964
0.0018491
0.00184911
0.00182177
0.00182177
0.0018491
0.00182177
0.00182177
0.00185122
0.00181964
0.0018491
0.00182177
0.00182177
0.00181964
0.00181478
0.0017833
0.00181267
0.00181267
0.00178543
0.00178543
0.00181478
0.00178331
0.00181267
0.00181267
0.00178543
0.00178543
0.00181268
0.00178543
0.00178543
0.00181478
0.00178331
0.00181268
0.00178543
0.00178543
0.0017833
0.00177845
0.00174707
0.00177636
0.00177636
0.00174918
0.00174918
0.00177846
0.00174706
0.00177636
0.00177636
0.00174918
0.00174918
0.00177636
0.00174918
0.00174918
0.00177846
0.00174706
0.00177636
0.00174918
0.00174918
0.00174706
0.00174222
0.00171091
0.00174014
0.00174013
0.00171303
0.00171303
0.00174222
0.00171092
0.00174014
0.00174013
0.00171303
0.00171303
0.00174014
0.00171303
0.00171303
0.00174222
0.00171091
0.00174014
0.00171303
0.00171303
0.00171091
0.00170608
0.00167485
0.001704
0.001704
0.00167695
0.00167695
0.00170608
0.00167485
0.001704
0.001704
0.00167695
0.00167695
0.001704
0.00167695
0.00167695
0.00170608
0.00167485
0.001704
0.00167695
0.00167695
0.00167485
0.00166795
0.00167002
0.00265728
0.00265728
0.00265728
0.00265728
0.00267459
0.00267731
0.0026748
0.00263463
0.00264951
0.00264959
0.00263455
0.00264949
0.00263453
0.00263463
0.00264951
0.00264959
0.00263455
0.00264727
0.00264726
0.00264726
0.00261732
0.00261732
0.00261732
0.00261732
0.0026349
0.00264959
0.00264725
0.00263723
0.00264971
0.00263473
0.00263725
0.00264949
0.00263453
0.0026349
0.00264725
0.00264959
0.00263723
0.00264971
0.00263725
0.00263473
0.00264957
0.00264957
0.00263491
0.0026346
0.0026346
0.00259481
0.00260961
0.00260968
0.00259474
0.00260959
0.00259471
0.00259482
0.00260961
0.00260968
0.00259474
0.00260737
0.00260738
0.00260737
0.00257762
0.00257762
0.00257762
0.00257762
0.00259506
0.00260967
0.00260735
0.00259739
0.00260978
0.0025949
0.00259742
0.00260959
0.00259471
0.00259506
0.00260735
0.00260967
0.00259739
0.00260978
0.00259742
0.0025949
0.00260966
0.00260966
0.00259509
0.00259478
0.00259478
0.00255523
0.00256994
0.00257001
0.00255516
0.00256992
0.00255514
0.00255523
0.00256994
0.00257001
0.00255516
0.00256773
0.00256773
0.00256772
0.00253814
0.00253814
0.00253814
0.00253814
0.00255546
0.00256999
0.00256769
0.00255779
0.00257009
0.00255531
0.00255781
0.00256992
0.00255513
0.00255546
0.00256769
0.00256999
0.0025578
0.00257009
0.00255781
0.00255531
0.00256999
0.00256999
0.00255551
0.00255519
0.00255519
0.00251587
0.0025305
0.00253056
0.0025158
0.00253048
0.00251578
0.00251587
0.0025305
0.00253057
0.0025158
0.0025283
0.0025283
0.0025283
0.00249888
0.00249888
0.00249888
0.00249888
0.00251609
0.00253054
0.00252826
0.00251842
0.00253064
0.00251594
0.00251843
0.00253048
0.00251578
0.00251609
0.00252826
0.00253054
0.00251842
0.00253064
0.00251843
0.00251594
0.00253054
0.00253054
0.00251616
0.00251583
0.00251583
0.00247672
0.00249128
0.00249134
0.00247666
0.00249126
0.00247664
0.00247672
0.00249128
0.00249134
0.00247666
0.00248909
0.00248909
0.00248909
0.00245983
0.00245983
0.00245983
0.00245983
0.00247693
0.00249131
0.00248905
0.00247927
0.0024914
0.00247679
0.00247928
0.00249126
0.00247664
0.00247693
0.00248905
0.00249131
0.00247927
0.0024914
0.00247928
0.00247678
0.00249132
0.00249132
0.00247702
0.00247669
0.00247669
0.00243779
0.00245227
0.00245233
0.00243772
0.00245225
0.00243771
0.00243779
0.00245227
0.00245233
0.00243772
0.00245009
0.00245009
0.00245009
0.00242098
0.00242098
0.00242098
0.00242098
0.00243798
0.00245229
0.00245005
0.00244033
0.00245237
0.00243784
0.00244033
0.00245225
0.00243771
0.00243798
0.00245005
0.00245229
0.00244032
0.00245237
0.00244033
0.00243784
0.0024523
0.0024523
0.00243809
0.00243775
0.00243775
0.00239905
0.00241346
0.00241351
0.00239898
0.00241344
0.00239897
0.00239905
0.00241346
0.00241351
0.00239898
0.0024113
0.0024113
0.0024113
0.00238233
0.00238232
0.00238233
0.00238232
0.00239923
0.00241348
0.00241125
0.00240158
0.00241355
0.0023991
0.00240158
0.00241344
0.00239897
0.00239923
0.00241125
0.00241348
0.00240158
0.00241355
0.00240158
0.0023991
0.00241349
0.00241349
0.00239935
0.00239901
0.00239901
0.0023605
0.00237484
0.00237489
0.00236044
0.00237483
0.00236043
0.0023605
0.00237484
0.00237489
0.00236044
0.00237269
0.00237269
0.00237269
0.00234386
0.00234386
0.00234386
0.00234386
0.00236067
0.00237486
0.00237265
0.00236303
0.00237492
0.00236055
0.00236303
0.00237483
0.00236043
0.00236067
0.00237265
0.00237486
0.00236303
0.00237492
0.00236303
0.00236055
0.00237487
0.00237487
0.00236081
0.00236047
0.00236047
0.00232213
0.00233641
0.00233646
0.00232208
0.0023364
0.00232207
0.00232214
0.00233641
0.00233646
0.00232208
0.00233427
0.00233427
0.00233428
0.00230558
0.00230558
0.00230558
0.00230558
0.0023223
0.00233643
0.00233424
0.00232466
0.00233649
0.00232218
0.00232467
0.0023364
0.00232207
0.0023223
0.00233424
0.00233643
0.00232466
0.00233649
0.00232467
0.00232218
0.00233644
0.00233644
0.00232245
0.0023221
0.0023221
0.00228395
0.00229816
0.00229821
0.00228389
0.00229815
0.00228389
0.00228395
0.00229816
0.00229821
0.00228389
0.00229604
0.00229604
0.00229604
0.00226748
0.00226748
0.00226748
0.00226748
0.00228411
0.00229818
0.00229601
0.00228647
0.00229823
0.002284
0.00228648
0.00229815
0.00228389
0.00228411
0.00229601
0.00229818
0.00228647
0.00229823
0.00228648
0.002284
0.00229819
0.00229819
0.00228426
0.00228392
0.00228392
0.00224593
0.00226009
0.00226013
0.00224588
0.00226008
0.00224588
0.00224593
0.00226009
0.00226013
0.00224588
0.00225798
0.00225798
0.00225798
0.00222954
0.00222954
0.00222954
0.00222954
0.0022461
0.0022601
0.00225796
0.00224846
0.00226015
0.00224598
0.00224847
0.00226008
0.00224588
0.00224609
0.00225796
0.0022601
0.00224846
0.00226015
0.00224847
0.00224599
0.00226012
0.00226012
0.00224625
0.00224591
0.00224591
0.00220809
0.00222218
0.00222223
0.00220804
0.00222218
0.00220804
0.00220809
0.00222218
0.00222223
0.00220804
0.00222009
0.00222008
0.00222008
0.00219177
0.00219177
0.00219177
0.00219177
0.00220825
0.0022222
0.00222007
0.00221061
0.00222224
0.00220814
0.00221062
0.00222218
0.00220804
0.00220825
0.00222007
0.0022222
0.00221061
0.00222224
0.00221062
0.00220814
0.00222221
0.00222221
0.00220841
0.00220806
0.00220806
0.0021704
0.00218444
0.00218448
0.00217036
0.00218444
0.00217036
0.0021704
0.00218444
0.00218448
0.00217036
0.00218235
0.00218235
0.00218235
0.00215415
0.00215415
0.00215415
0.00215415
0.00217056
0.00218445
0.00218235
0.00217292
0.0021845
0.00217045
0.00217294
0.00218444
0.00217035
0.00217056
0.00218235
0.00218445
0.00217292
0.00218449
0.00217294
0.00217045
0.00218447
0.00218447
0.00217072
0.00217038
0.00217038
0.00213287
0.00214686
0.00214689
0.00213283
0.00214685
0.00213283
0.00213287
0.00214686
0.00214689
0.00213283
0.00214477
0.00214477
0.00214477
0.00211669
0.00211668
0.00211669
0.00211669
0.00213302
0.00214686
0.00214478
0.00213539
0.0021469
0.00213292
0.00213541
0.00214685
0.00213283
0.00213302
0.00214477
0.00214687
0.00213538
0.0021469
0.00213541
0.00213292
0.00214688
0.00214688
0.00213319
0.00213285
0.00213285
0.00209549
0.00210942
0.00210945
0.00209545
0.00210942
0.00209544
0.00209549
0.00210942
0.00210945
0.00209545
0.00210734
0.00210734
0.00210734
0.00207937
0.00207937
0.00207937
0.00207937
0.00209564
0.00210943
0.00210736
0.002098
0.00210946
0.00209554
0.00209802
0.00210942
0.00209545
0.00209564
0.00210736
0.00210943
0.002098
0.00210946
0.00209802
0.00209554
0.00210944
0.00210944
0.00209581
0.00209547
0.00209547
0.00205825
0.00207213
0.00207216
0.00205821
0.00207213
0.00205822
0.00205825
0.00207213
0.00207216
0.00205821
0.00207006
0.00207007
0.00207006
0.0020422
0.0020422
0.00204219
0.0020422
0.00205839
0.00207214
0.00207008
0.00206075
0.00207217
0.0020583
0.00206078
0.00207212
0.00205821
0.00205839
0.00207008
0.00207214
0.00206075
0.00207217
0.00206078
0.00205829
0.00207216
0.00207216
0.00205857
0.00205823
0.00205823
0.00202115
0.00203498
0.00203501
0.00202111
0.00203498
0.00202111
0.00202115
0.00203498
0.00203501
0.00202111
0.00203293
0.00203292
0.00203292
0.00200516
0.00200516
0.00200516
0.00200515
0.00202129
0.00203499
0.00203294
0.00202365
0.00203502
0.00202119
0.00202368
0.00203499
0.00202112
0.00202129
0.00203294
0.00203499
0.00202364
0.00203502
0.00202368
0.0020212
0.00203501
0.00203501
0.00202147
0.00202114
0.00202114
0.00198418
0.00199797
0.00199799
0.00198415
0.00199796
0.00198416
0.00198418
0.00199797
0.00199799
0.00198414
0.00199592
0.00199593
0.00199592
0.00196825
0.00196824
0.00196824
0.00196825
0.00198432
0.00199797
0.00199594
0.00198666
0.001998
0.00198423
0.00198671
0.00199796
0.00198414
0.00198432
0.00199594
0.00199797
0.00198667
0.001998
0.00198671
0.00198422
0.00199799
0.00199799
0.0019845
0.00198416
0.00198416
0.00194734
0.00196108
0.00196111
0.00194731
0.00196109
0.00194731
0.00194734
0.00196108
0.00196111
0.00194731
0.00195904
0.00195903
0.00195904
0.00193147
0.00193148
0.00193148
0.00193147
0.00194748
0.00196109
0.00195906
0.00194982
0.00196112
0.00194739
0.00194986
0.0019611
0.00194732
0.00194748
0.00195906
0.0019611
0.00194982
0.00196112
0.00194986
0.0019474
0.0019611
0.0019611
0.00194765
0.00194734
0.00194734
0.00191062
0.00192432
0.00192435
0.00191059
0.00192433
0.0019106
0.00191062
0.00192432
0.00192435
0.00191059
0.0019223
0.00192231
0.0019223
0.00189481
0.0018948
0.0018948
0.00189481
0.00191076
0.00192432
0.00192231
0.00191309
0.00192435
0.00191068
0.00191314
0.00192431
0.0019106
0.00191076
0.00192232
0.00192432
0.00191309
0.00192435
0.00191315
0.00191067
0.00192435
0.00192435
0.00191094
0.00191061
0.00191061
0.00187403
0.00188769
0.00188771
0.00187401
0.0018877
0.00187401
0.00187403
0.00188769
0.00188771
0.00187401
0.00188566
0.00188565
0.00188566
0.00185827
0.00185828
0.00185828
0.00185827
0.00187416
0.0018877
0.00188567
0.00187648
0.00188771
0.00187408
0.00187653
0.0018877
0.00187401
0.00187416
0.00188567
0.0018877
0.00187648
0.00188771
0.00187653
0.00187409
0.00188771
0.00188771
0.00187434
0.00187402
0.00187402
0.00183754
0.00185116
0.00185118
0.00183751
0.00185115
0.00183752
0.00183754
0.00185116
0.00185118
0.00183751
0.00184916
0.00184916
0.00184915
0.00182183
0.00182183
0.00182183
0.00182183
0.00183767
0.00185115
0.00184916
0.00183999
0.00185118
0.00183759
0.00184005
0.00185115
0.00183752
0.00183767
0.00184916
0.00185115
0.00183999
0.00185118
0.00184005
0.00183759
0.00185118
0.00185118
0.00183785
0.00183753
0.00183753
0.00180116
0.00181474
0.00181476
0.00180114
0.00181475
0.00180114
0.00180116
0.00181474
0.00181476
0.00180114
0.00181273
0.00181273
0.00181273
0.00178549
0.00178549
0.00178549
0.00178549
0.00180129
0.00181474
0.00181273
0.00180359
0.00181476
0.00180121
0.00180364
0.00181475
0.00180115
0.00180129
0.00181273
0.00181474
0.00180359
0.00181476
0.00180364
0.00180121
0.00181476
0.00181476
0.00180146
0.00180115
0.00180115
0.00176488
0.00177842
0.00177844
0.00176485
0.00177842
0.00176486
0.00176488
0.00177842
0.00177844
0.00176485
0.00177642
0.00177642
0.00177642
0.00174925
0.00174925
0.00174925
0.00174925
0.001765
0.00177842
0.00177642
0.00176729
0.00177844
0.00176492
0.00176736
0.00177842
0.00176486
0.001765
0.00177642
0.00177842
0.00176729
0.00177844
0.00176736
0.00176492
0.00177844
0.00177844
0.00176517
0.00176487
0.00176487
0.00172869
0.0017422
0.00174222
0.00172867
0.0017422
0.00172867
0.00172869
0.0017422
0.00174222
0.00172867
0.00174021
0.00174021
0.00174021
0.0017131
0.0017131
0.0017131
0.0017131
0.00172881
0.0017422
0.0017402
0.00173109
0.00174221
0.00172873
0.00173116
0.0017422
0.00172867
0.00172881
0.0017402
0.0017422
0.00173109
0.00174221
0.00173116
0.00172873
0.00174222
0.00174222
0.00172898
0.00172868
0.00172868
0.00169259
0.00170607
0.00170608
0.00169257
0.00170607
0.00169257
0.00169259
0.00170607
0.00170608
0.00169257
0.00170408
0.00170408
0.00170408
0.00167703
0.00167703
0.00167703
0.00167703
0.0016927
0.00170606
0.00170406
0.00169498
0.00170608
0.00169263
0.00169504
0.00170607
0.00169257
0.0016927
0.00170406
0.00170606
0.00169498
0.00170608
0.00169504
0.00169263
0.00170609
0.00170609
0.00169287
0.00169258
0.00169258
0.00166803
0.00167002
0.00167001
0.00265452
0.00265452
0.0026546
0.0026546
0.00265455
0.00265464
0.00265455
0.00265464
0.00265473
0.00265726
0.00265491
0.00265473
0.00265726
0.00265491
0.00265452
0.0026546
0.0026546
0.00265452
0.00267462
0.00267731
0.0026748
0.00266964
0.00265455
0.00265464
0.00266977
0.00265473
0.00265726
0.00266729
0.00265491
0.00266964
0.00265455
0.00266956
0.00265464
0.00266977
0.00266727
0.00265726
0.00265473
0.00266729
0.00266964
0.00265491
0.00265474
0.00265726
0.00265491
0.00265455
0.00265464
0.00265726
0.00265474
0.00265491
0.00265455
0.00265464
0.00267496
0.00267467
0.00267467
0.00267459
0.00265453
0.00266953
0.00266972
0.0026546
0.0026546
0.00266962
0.00266962
0.00265453
0.00266953
0.00267462
0.00266977
0.00266727
0.00265726
0.00265473
0.00266729
0.00266964
0.00265491
0.00266977
0.00265726
0.00265473
0.0026673
0.00265491
0.00266964
0.00265455
0.00266956
0.00265464
0.00266964
0.00265455
0.00265464
0.0026546
0.0026546
0.00265452
0.00265452
0.00264948
0.00263453
0.00264948
0.00263453
0.00264957
0.00264957
0.0026349
0.0026346
0.0026346
0.00261459
0.0026295
0.00261459
0.0026295
0.00262969
0.00261466
0.00261466
0.00262958
0.00262958
0.00263463
0.00264951
0.00264959
0.00263455
0.0026349
0.00264959
0.00264725
0.00263723
0.00264971
0.00263473
0.00263725
0.0026349
0.00264959
0.00264725
0.00263723
0.00264971
0.00263473
0.00263725
0.0026296
0.00261461
0.00262953
0.00261469
0.0026296
0.00261461
0.00262953
0.00261469
0.00262972
0.00262724
0.00261478
0.0026173
0.0026296
0.00262727
0.00261495
0.00262972
0.00262725
0.00261478
0.0026173
0.0026296
0.00262727
0.00261495
0.00264957
0.00264957
0.0026349
0.0026346
0.0026346
0.00264949
0.00263453
0.00261459
0.0026295
0.00262969
0.00261466
0.00261466
0.00262958
0.00262958
0.00261459
0.0026295
0.0026349
0.00264959
0.00264725
0.00263723
0.00264971
0.00263473
0.00263725
0.00263463
0.00264951
0.00264959
0.00263455
0.0026349
0.00264725
0.00264959
0.00263723
0.00264971
0.00263725
0.00263473
0.0026296
0.00261461
0.00262953
0.00261469
0.00262972
0.00262724
0.00261478
0.0026173
0.0026296
0.00262727
0.00261495
0.0026296
0.00261461
0.00262953
0.00261469
0.00262972
0.00262725
0.0026173
0.00261478
0.00262727
0.0026296
0.00261495
0.00263464
0.00264951
0.00264959
0.00263455
0.0026349
0.00264725
0.00264959
0.00263723
0.00264971
0.00263725
0.00263473
0.00263463
0.00264951
0.00264959
0.00263455
0.00262972
0.00262725
0.00261478
0.0026173
0.0026296
0.00262727
0.00261495
0.0026296
0.00261461
0.00262953
0.00261469
0.00262972
0.00262725
0.0026173
0.00261479
0.00262727
0.0026296
0.00261496
0.0026296
0.00261461
0.00262953
0.00261469
0.00264957
0.00264957
0.0026349
0.0026346
0.0026346
0.00264949
0.00263453
0.00261459
0.0026295
0.00262969
0.00261466
0.00261466
0.00262958
0.00262958
0.00261459
0.0026295
0.0026349
0.00264725
0.00264959
0.00263722
0.00264971
0.00263725
0.00263473
0.00263463
0.00264951
0.00264959
0.00263455
0.00263463
0.00264951
0.00264959
0.00263455
0.00262972
0.00262725
0.0026173
0.00261478
0.00262727
0.0026296
0.00261495
0.00262972
0.00262725
0.0026173
0.00261478
0.00262727
0.0026296
0.00261495
0.0026296
0.00261461
0.00262953
0.00261469
0.0026296
0.00261461
0.00262953
0.00261469
0.00264949
0.00263453
0.00264949
0.00263453
0.00262969
0.00261466
0.00261466
0.00262958
0.00262958
0.00261459
0.0026295
0.00261459
0.0026295
0.00260958
0.00259471
0.00260958
0.00259471
0.00260966
0.00260966
0.00259509
0.00259478
0.00259478
0.0025749
0.00258972
0.0025749
0.00258972
0.0025899
0.00257496
0.00257496
0.00258979
0.00258979
0.00259481
0.00260961
0.00260968
0.00259474
0.00259506
0.00260967
0.00260735
0.00259739
0.00260978
0.0025949
0.00259742
0.00259506
0.00260967
0.00260735
0.00259739
0.00260978
0.0025949
0.00259742
0.00258981
0.00257492
0.00258974
0.00257499
0.00258981
0.00257492
0.00258974
0.00257499
0.00258991
0.00258747
0.00257507
0.00257758
0.0025898
0.00258749
0.00257523
0.00258991
0.00258747
0.00257507
0.00257758
0.0025898
0.00258749
0.00257523
0.00260966
0.00260966
0.00259509
0.00259478
0.00259478
0.00260959
0.00259471
0.0025749
0.00258972
0.00258991
0.00257496
0.00257496
0.00258979
0.00258979
0.0025749
0.00258972
0.00259506
0.00260967
0.00260735
0.00259739
0.00260978
0.0025949
0.00259741
0.00259482
0.00260961
0.00260968
0.00259474
0.00259506
0.00260735
0.00260967
0.00259739
0.00260978
0.00259742
0.0025949
0.00258982
0.00257492
0.00258974
0.00257499
0.00258991
0.00258747
0.00257507
0.00257758
0.0025898
0.00258749
0.00257523
0.00258982
0.00257492
0.00258974
0.00257499
0.00258991
0.00258747
0.00257758
0.00257507
0.00258749
0.0025898
0.00257523
0.00259481
0.0026096
0.00260968
0.00259474
0.00259506
0.00260735
0.00260967
0.00259739
0.00260978
0.00259742
0.0025949
0.00259481
0.0026096
0.00260968
0.00259474
0.00258991
0.00258747
0.00257507
0.00257758
0.0025898
0.00258749
0.00257523
0.00258981
0.00257492
0.00258974
0.00257499
0.00258991
0.00258747
0.00257758
0.00257507
0.00258749
0.0025898
0.00257523
0.00258981
0.00257492
0.00258975
0.00257499
0.00260966
0.00260966
0.00259509
0.00259478
0.00259478
0.00260959
0.00259471
0.0025749
0.00258972
0.0025899
0.00257496
0.00257496
0.00258979
0.00258979
0.0025749
0.00258972
0.00259506
0.00260735
0.00260967
0.00259739
0.00260978
0.00259742
0.0025949
0.00259482
0.00260961
0.00260968
0.00259474
0.00259482
0.00260961
0.00260968
0.00259474
0.00258991
0.00258747
0.00257758
0.00257507
0.00258749
0.0025898
0.00257523
0.00258991
0.00258747
0.00257758
0.00257507
0.00258749
0.0025898
0.00257523
0.00258981
0.00257492
0.00258974
0.00257499
0.00258982
0.00257492
0.00258975
0.00257499
0.00260959
0.00259472
0.00260959
0.00259472
0.00258991
0.00257496
0.00257496
0.00258979
0.00258979
0.0025749
0.00258972
0.0025749
0.00258972
0.00256992
0.00255514
0.00256992
0.00255514
0.00256998
0.00256998
0.00255551
0.00255519
0.0025552
0.00253543
0.00255017
0.00253543
0.00255017
0.00255035
0.00253549
0.00253549
0.00255024
0.00255024
0.00255523
0.00256994
0.00257001
0.00255516
0.00255546
0.00256999
0.00256769
0.00255779
0.00257009
0.00255531
0.00255781
0.00255546
0.00256999
0.00256769
0.00255779
0.00257009
0.0025553
0.00255781
0.00255026
0.00253545
0.00255019
0.00253552
0.00255026
0.00253545
0.00255019
0.00253552
0.00255034
0.00254793
0.00253559
0.00253809
0.00255024
0.00254795
0.00253575
0.00255034
0.00254793
0.00253559
0.00253809
0.00255024
0.00254794
0.00253575
0.00256999
0.00256999
0.00255551
0.00255519
0.00255519
0.00256992
0.00255514
0.00253543
0.00255017
0.00255035
0.00253549
0.00253549
0.00255023
0.00255023
0.00253543
0.00255017
0.00255546
0.00256999
0.00256769
0.00255779
0.00257009
0.00255531
0.00255781
0.00255523
0.00256994
0.00257001
0.00255516
0.00255546
0.00256769
0.00256999
0.0025578
0.00257009
0.00255781
0.00255531
0.00255026
0.00253545
0.00255019
0.00253552
0.00255034
0.00254793
0.00253559
0.00253809
0.00255024
0.00254794
0.00253575
0.00255026
0.00253545
0.00255019
0.00253552
0.00255034
0.00254793
0.00253809
0.00253559
0.00254794
0.00255024
0.00253575
0.00255523
0.00256994
0.00257001
0.00255516
0.00255546
0.00256769
0.00256999
0.00255779
0.00257009
0.00255781
0.0025553
0.00255523
0.00256994
0.00257001
0.00255516
0.00255034
0.00254793
0.00253559
0.00253809
0.00255024
0.00254794
0.00253575
0.00255026
0.00253545
0.00255019
0.00253552
0.00255034
0.00254793
0.00253809
0.00253559
0.00254794
0.00255024
0.00253575
0.00255026
0.00253545
0.00255019
0.00253552
0.00256999
0.00256999
0.00255551
0.00255519
0.00255519
0.00256992
0.00255513
0.00253544
0.00255017
0.00255035
0.00253549
0.00253549
0.00255023
0.00255023
0.00253544
0.00255017
0.00255546
0.00256769
0.00256999
0.00255779
0.00257009
0.00255781
0.00255531
0.00255523
0.00256994
0.00257001
0.00255516
0.00255523
0.00256994
0.00257001
0.00255516
0.00255034
0.00254793
0.00253809
0.00253559
0.00254794
0.00255024
0.00253575
0.00255034
0.00254793
0.00253809
0.00253559
0.00254794
0.00255024
0.00253575
0.00255026
0.00253545
0.00255019
0.00253552
0.00255026
0.00253545
0.00255019
0.00253552
0.00256992
0.00255514
0.00256992
0.00255514
0.00255035
0.00253549
0.00253549
0.00255024
0.00255024
0.00253543
0.00255017
0.00253543
0.00255017
0.00253048
0.00251578
0.00253048
0.00251578
0.00253054
0.00253054
0.00251616
0.00251584
0.00251584
0.00249619
0.00251085
0.00249619
0.00251085
0.00251102
0.00249623
0.00249623
0.0025109
0.0025109
0.00251587
0.0025305
0.00253056
0.0025158
0.00251609
0.00253054
0.00252826
0.00251842
0.00253064
0.00251594
0.00251843
0.00251609
0.00253054
0.00252826
0.00251842
0.00253064
0.00251594
0.00251843
0.00251093
0.0024962
0.00251086
0.00249627
0.00251093
0.0024962
0.00251086
0.00249627
0.00251099
0.00250861
0.00249633
0.00249883
0.0025109
0.00250863
0.00249648
0.00251099
0.00250862
0.00249633
0.00249883
0.0025109
0.00250862
0.00249648
0.00253054
0.00253054
0.00251616
0.00251583
0.00251583
0.00253048
0.00251578
0.00249619
0.00251084
0.00251103
0.00249624
0.00249624
0.0025109
0.0025109
0.00249619
0.00251084
0.00251609
0.00253054
0.00252826
0.00251842
0.00253064
0.00251594
0.00251843
0.00251587
0.0025305
0.00253056
0.0025158
0.00251609
0.00252826
0.00253054
0.00251842
0.00253064
0.00251843
0.00251594
0.00251093
0.0024962
0.00251086
0.00249627
0.00251099
0.00250861
0.00249633
0.00249883
0.0025109
0.00250863
0.00249648
0.00251092
0.0024962
0.00251086
0.00249627
0.00251099
0.00250861
0.00249883
0.00249633
0.00250862
0.0025109
0.00249648
0.00251587
0.0025305
0.00253056
0.0025158
0.00251609
0.00252826
0.00253054
0.00251842
0.00253064
0.00251843
0.00251594
0.00251587
0.0025305
0.00253056
0.0025158
0.00251099
0.00250862
0.00249633
0.00249883
0.0025109
0.00250862
0.00249648
0.00251092
0.0024962
0.00251086
0.00249627
0.00251099
0.00250861
0.00249883
0.00249633
0.00250862
0.0025109
0.00249648
0.00251092
0.0024962
0.00251086
0.00249627
0.00253054
0.00253054
0.00251616
0.00251583
0.00251583
0.00253048
0.00251578
0.00249619
0.00251084
0.00251103
0.00249624
0.00249624
0.0025109
0.0025109
0.00249619
0.00251084
0.00251609
0.00252826
0.00253054
0.00251842
0.00253064
0.00251843
0.00251594
0.00251587
0.0025305
0.00253056
0.0025158
0.00251587
0.0025305
0.00253056
0.0025158
0.00251099
0.00250861
0.00249883
0.00249633
0.00250862
0.0025109
0.00249648
0.00251099
0.00250861
0.00249883
0.00249633
0.00250863
0.0025109
0.00249648
0.00251092
0.0024962
0.00251086
0.00249627
0.00251092
0.0024962
0.00251086
0.00249627
0.00253048
0.00251578
0.00253048
0.00251578
0.00251102
0.00249623
0.00249623
0.0025109
0.0025109
0.00249619
0.00251084
0.00249619
0.00251085
0.00249126
0.00247664
0.00249126
0.00247664
0.00249132
0.00249132
0.00247702
0.00247669
0.00247669
0.00245715
0.00247173
0.00245715
0.00247173
0.00247191
0.00245719
0.00245719
0.00247179
0.00247179
0.00247672
0.00249128
0.00249134
0.00247666
0.00247693
0.00249131
0.00248905
0.00247927
0.0024914
0.00247678
0.00247928
0.00247693
0.00249131
0.00248905
0.00247927
0.0024914
0.00247679
0.00247928
0.00247181
0.00245716
0.00247175
0.00245723
0.00247181
0.00245716
0.00247175
0.00245723
0.00247186
0.00246951
0.00245729
0.00245978
0.00247178
0.00246952
0.00245743
0.00247186
0.00246952