/*--------------------------------*- C++ -*----------------------------------*\
| =========                 |                                                 |
| \\      /  F ield         | OpenFOAM: The Open Source CFD Toolbox           |
|  \\    /   O peration     | Version:  2312                                  |
|   \\  /    A nd           | Website:  www.openfoam.com                      |
|    \\/     M anipulation  |                                                 |
\*---------------------------------------------------------------------------*/
FoamFile
{
    version     2.0;
    format      ascii;
    arch        "LSB;label=32;scalar=64";
    class       surfaceScalarField;
    location    "375";
    object      phi;
}
// * * * * * * * * * * * * * * * * * * * * * * * * * * * * * * * * * * * * * //

dimensions      [0 3 -1 0 0 0 0];

oriented        oriented;

internalField   nonuniform List<scalar> 
124457
(
-8.45285e-07
-8.45729e-07
-0.00114634
4.47445e-07
4.48113e-07
0.00114714
-0.00113699
-1.51051e-06
8.45511e-07
4.10638e-07
0.00113748
-4.96487e-07
1.12566e-06
1.26211e-07
7.23611e-07
-5.38448e-07
-1.23919e-06
5.57784e-08
-0.00113686
-1.50768e-06
8.45531e-07
4.16416e-07
0.00113735
-4.93827e-07
1.12276e-06
1.22954e-07
7.23599e-07
-5.38397e-07
-1.23928e-06
5.59901e-08
-0.000276392
1.53949e-06
1.50223e-06
-4.91503e-07
-4.94481e-07
0.000274336
-8.24411e-07
-8.2477e-07
-0.00114949
4.38264e-07
4.38958e-07
0.00115026
-0.00113888
-1.50256e-06
8.24613e-07
4.02362e-07
0.00113933
-4.84497e-07
1.13135e-06
1.30379e-07
7.30217e-07
-5.21739e-07
-1.22202e-06
6.22736e-08
-0.00113875
-1.49981e-06
8.24688e-07
4.08033e-07
0.0011392
-4.81774e-07
1.12851e-06
1.27318e-07
7.30101e-07
-5.21629e-07
-1.22206e-06
6.24351e-08
-0.000276472
1.53139e-06
1.49411e-06
-4.77999e-07
-4.80929e-07
0.000274405
-8.02699e-07
-8.02988e-07
-0.00115254
4.28651e-07
4.29359e-07
0.00115329
-0.00114058
-1.49378e-06
8.03254e-07
3.9502e-07
0.00114098
-4.71712e-07
1.13641e-06
1.3504e-07
7.36536e-07
-5.05409e-07
-1.20417e-06
6.85426e-08
-0.00114045
-1.49116e-06
8.03234e-07
4.00824e-07
0.00114085
-4.69592e-07
1.1333e-06
1.31816e-07
7.36724e-07
-5.05169e-07
-1.20417e-06
6.88029e-08
-0.000276485
1.52279e-06
1.48546e-06
-4.65114e-07
-4.68023e-07
0.00027441
-7.80328e-07
-7.80693e-07
-0.00115549
4.18764e-07
4.19306e-07
0.00115622
-0.00114208
-1.48355e-06
7.80916e-07
3.87469e-07
0.00114243
-4.58595e-07
1.14147e-06
1.39731e-07
7.4272e-07
-4.89435e-07
-1.18618e-06
7.49577e-08
-0.00114195
-1.48133e-06
7.8126e-07
3.93878e-07
0.0011423
-4.56668e-07
1.13805e-06
1.3649e-07
7.43018e-07
-4.892e-07
-1.18595e-06
7.50289e-08
-0.000276439
1.51319e-06
1.47579e-06
-4.51949e-07
-4.54876e-07
0.000274357
-7.57758e-07
-7.58031e-07
-0.00115835
4.0891e-07
4.09516e-07
0.00115904
-0.00114338
-1.47239e-06
7.58201e-07
3.79411e-07
0.00114368
-4.45629e-07
1.14637e-06
1.44625e-07
7.49014e-07
-4.73781e-07
-1.16804e-06
8.14019e-08
-0.00114325
-1.46974e-06
7.58096e-07
3.85042e-07
0.00114355
-4.42716e-07
1.14359e-06
1.42149e-07
7.49015e-07
-4.73793e-07
-1.16789e-06
8.12781e-08
-0.000276339
1.50222e-06
1.46483e-06
-4.37986e-07
-4.40891e-07
0.000274251
-7.35066e-07
-7.35277e-07
-0.0011611
3.99307e-07
3.99915e-07
0.00116177
-0.00114449
-1.46066e-06
7.35405e-07
3.70778e-07
0.00114474
-4.33222e-07
1.15107e-06
1.49394e-07
7.55433e-07
-4.58477e-07
-1.14991e-06
8.78956e-08
-0.00114436
-1.45766e-06
7.35168e-07
3.76315e-07
0.0011446
-4.29744e-07
1.14871e-06
1.47307e-07
7.55243e-07
-4.58638e-07
-1.14984e-06
8.77194e-08
-0.000276192
1.4901e-06
1.45269e-06
-4.23554e-07
-4.26454e-07
0.0002741
-7.12044e-07
-7.12166e-07
-0.00116374
3.89809e-07
3.9055e-07
0.00116439
-0.0011454
-1.4484e-06
7.12612e-07
3.61478e-07
0.00114561
-4.21305e-07
1.15563e-06
1.5386e-07
7.61828e-07
-4.43606e-07
-1.1321e-06
9.44558e-08
-0.00114527
-1.44515e-06
7.11868e-07
3.65955e-07
0.00114547
-4.17373e-07
1.15371e-06
1.52383e-07
7.61652e-07
-4.43833e-07
-1.13199e-06
9.42567e-08
-0.000276007
1.47754e-06
1.44012e-06
-4.09481e-07
-4.12383e-07
0.000273911
-6.89436e-07
-6.89674e-07
-0.00116628
3.81305e-07
3.81787e-07
0.00116689
-0.00114613
-1.43564e-06
6.90011e-07
3.51594e-07
0.00114629
-4.09696e-07
1.16012e-06
1.58036e-07
7.68003e-07
-4.29303e-07
-1.11489e-06
1.01001e-07
-0.001146
-1.43306e-06
6.90042e-07
3.57186e-07
0.00114616
-4.06479e-07
1.15765e-06
1.562e-07
7.68008e-07
-4.29485e-07
-1.11463e-06
1.00757e-07
-0.000275792
1.4647e-06
1.42726e-06
-3.9585e-07
-3.98753e-07
0.000273694
-6.67531e-07
-6.67576e-07
-0.0011687
3.73289e-07
3.74132e-07
0.00116929
-0.00114668
-1.42216e-06
6.67126e-07
3.40041e-07
0.0011468
-3.97666e-07
1.16513e-06
1.62788e-07
7.73955e-07
-4.15581e-07
-1.09833e-06
1.07484e-07
-0.00114655
-1.41963e-06
6.66516e-07
3.45209e-07
0.00114666
-3.94927e-07
1.16233e-06
1.60325e-07
7.7412e-07
-4.15484e-07
-1.098e-06
1.07546e-07
-0.000275552
1.45161e-06
1.41423e-06
-3.82654e-07
-3.85489e-07
0.000273455
-6.42869e-07
-6.43041e-07
-0.001171
3.63876e-07
3.64233e-07
0.00117156
-0.00114707
-1.40871e-06
6.43191e-07
3.25405e-07
0.00114714
-3.85522e-07
1.17054e-06
1.68586e-07
7.80113e-07
-4.02264e-07
-1.08193e-06
1.13966e-07
-0.00114694
-1.40634e-06
6.4397e-07
3.32469e-07
0.00114701
-3.83278e-07
1.16726e-06
1.65279e-07
7.80044e-07
-4.02276e-07
-1.08194e-06
1.13969e-07
-0.000275297
1.43901e-06
1.40155e-06
-3.7031e-07
-3.73191e-07
0.0002732
-6.21397e-07
-6.21377e-07
-0.00117319
3.51394e-07
3.57804e-07
0.00117372
-0.0011473
-1.39649e-06
6.20102e-07
3.12911e-07
0.00114734
-3.75163e-07
1.17454e-06
1.73089e-07
7.86296e-07
-3.89416e-07
-1.06614e-06
1.20321e-07
-0.00114717
-1.39337e-06
6.19967e-07
3.18584e-07
0.0011472
-3.72255e-07
1.17183e-06
1.69974e-07
7.86034e-07
-3.89388e-07
-1.0663e-06
1.20426e-07
-0.000275032
1.42601e-06
1.38864e-06
-3.58132e-07
-3.6096e-07
0.000272937
-5.95598e-07
-5.95597e-07
-0.00117526
3.40923e-07
3.47512e-07
0.00117576
-0.00114738
-1.38401e-06
5.9715e-07
2.99588e-07
0.00114739
-3.65383e-07
1.17838e-06
1.76674e-07
7.91987e-07
-3.77004e-07
-1.05141e-06
1.26677e-07
-0.00114725
-1.38076e-06
5.96027e-07
3.03945e-07
0.00114726
-3.61564e-07
1.17634e-06
1.74964e-07
7.92017e-07
-3.76999e-07
-1.05122e-06
1.26794e-07
-0.000274762
1.41279e-06
1.37535e-06
-3.45871e-07
-3.48761e-07
0.000272669
-5.72377e-07
-5.72524e-07
-0.0011772
3.3405e-07
3.40297e-07
0.00117767
-0.00114734
-1.371e-06
5.72405e-07
2.82849e-07
0.00114732
-3.54462e-07
1.18321e-06
1.81755e-07
7.97671e-07
-3.64941e-07
-1.03706e-06
1.33172e-07
-0.00114721
-1.36875e-06
5.72831e-07
2.88993e-07
0.00114718
-3.51989e-07
1.18007e-06
1.79018e-07
7.97669e-07
-3.65102e-07
-1.03699e-06
1.32992e-07
-0.000274491
1.40017e-06
1.36277e-06
-3.34686e-07
-3.37515e-07
0.0002724
-5.49125e-07
-5.49519e-07
-0.00117901
3.2679e-07
3.32265e-07
0.00117945
-0.00114719
-1.35901e-06
5.47388e-07
2.64004e-07
0.00114714
-3.4408e-07
1.18752e-06
1.87259e-07
8.03195e-07
-3.53644e-07
-1.02345e-06
1.39247e-07
-0.00114706
-1.35666e-06
5.49402e-07
2.72663e-07
0.001147
-3.42179e-07
1.18405e-06
1.83375e-07
8.02817e-07
-3.53774e-07
-1.02367e-06
1.38973e-07
-0.000274223
1.38874e-06
1.35132e-06
-3.24773e-07
-3.27585e-07
0.000272136
-5.25e-07
-5.24122e-07
-0.00118069
3.17693e-07
3.26297e-07
0.0011811
-0.00114694
-1.34858e-06
5.27207e-07
2.53081e-07
0.00114686
-3.36148e-07
1.18992e-06
1.90045e-07
8.07853e-07
-3.43148e-07
-1.011e-06
1.44491e-07
-0.0011468
-1.34451e-06
5.22566e-07
2.5317e-07
0.00114673
-3.31788e-07
1.18852e-06
1.88613e-07
8.08276e-07
-3.42578e-07
-1.01054e-06
1.45314e-07
-0.000273959
1.37643e-06
1.33922e-06
-3.14482e-07
-3.17252e-07
0.000271875
-4.9885e-07
-5.00689e-07
-0.00118225
3.11072e-07
3.13452e-07
0.00118262
-0.00114659
-1.33548e-06
4.97174e-07
2.25824e-07
0.0011465
-3.2495e-07
1.19556e-06
1.96082e-07
8.13115e-07
-3.32088e-07
-9.98554e-07
1.5117e-07
-0.00114646
-1.33427e-06
5.03841e-07
2.38768e-07
0.00114636
-3.23371e-07
1.19153e-06
1.92646e-07
8.12565e-07
-3.33034e-07
-9.98893e-07
1.50009e-07
-0.000273703
1.36688e-06
1.32923e-06
-3.06081e-07
-3.09075e-07
0.000271622
-4.77108e-07
-4.74701e-07
-0.00118367
3.00374e-07
3.11975e-07
0.00118401
-0.00114618
-1.327e-06
4.78723e-07
2.20214e-07
0.00114607
-3.17936e-07
1.19719e-06
1.99002e-07
8.17468e-07
-3.22994e-07
-9.8716e-07
1.55637e-07
-0.00114604
-1.32288e-06
4.70775e-07
2.18075e-07
0.00114593
-3.14284e-07
1.19531e-06
1.96655e-07
8.18066e-07
-3.21881e-07
-9.86607e-07
1.56811e-07
-0.000273452
1.35351e-06
1.31667e-06
-2.95437e-07
-2.97929e-07
0.000271375
-4.49666e-07
-4.52135e-07
-0.00118496
2.95614e-07
2.97045e-07
0.00118527
-0.00114569
-1.31469e-06
4.48178e-07
1.88247e-07
0.00114558
-3.07617e-07
1.20249e-06
2.04803e-07
8.22052e-07
-3.13114e-07
-9.76264e-07
1.6156e-07
-0.00114557
-1.3132e-06
4.55524e-07
2.01686e-07
0.00114544
-3.05807e-07
1.19871e-06
2.01453e-07
8.21401e-07
-3.14035e-07
-9.7677e-07
1.6059e-07
-0.000273214
1.3465e-06
1.30871e-06
-2.89168e-07
-2.92258e-07
0.00027114
-4.25233e-07
-4.23504e-07
-0.00118612
2.8686e-07
2.90854e-07
0.00118639
-0.00114519
-1.30735e-06
4.27036e-07
1.83425e-07
0.00114506
-3.02075e-07
1.20321e-06
2.06352e-07
8.264e-07
-3.04195e-07
-9.65647e-07
1.66243e-07
-0.00114505
-1.30338e-06
4.20937e-07
1.83108e-07
0.00114492
-2.98477e-07
1.20127e-06
2.0399e-07
8.26824e-07
-3.03336e-07
-9.65141e-07
1.67118e-07
-0.000272978
1.33429e-06
1.2974e-06
-2.79784e-07
-2.82312e-07
0.000270908
-4.00512e-07
-4.01715e-07
-0.00118716
2.82354e-07
2.80687e-07
0.0011874
-0.00114461
-1.29638e-06
3.99832e-07
1.58585e-07
0.00114448
-2.92451e-07
1.20804e-06
2.12116e-07
8.30174e-07
-2.9584e-07
-9.56206e-07
1.71162e-07
-0.00114449
-1.29427e-06
4.03587e-07
1.68031e-07
0.00114434
-2.90018e-07
1.20491e-06
2.09306e-07
8.29826e-07
-2.96368e-07
-9.5647e-07
1.70718e-07
-0.000272761
1.32681e-06
1.28926e-06
-2.73652e-07
-2.76637e-07
0.000270695
-3.73632e-07
-3.73052e-07
-0.00118806
2.68453e-07
2.70096e-07
0.00118827
-0.00114405
-1.28912e-06
3.72218e-07
1.45028e-07
0.00114391
-2.87204e-07
1.20907e-06
2.1362e-07
8.34433e-07
-2.87351e-07
-9.46517e-07
1.7591e-07
-0.00114391
-1.28618e-06
3.7019e-07
1.49234e-07
0.00114377
-2.84444e-07
1.2063e-06
2.10709e-07
8.34547e-07
-2.87049e-07
-9.46274e-07
1.76136e-07
-0.000272546
1.31772e-06
1.28061e-06
-2.66426e-07
-2.69096e-07
0.000270483
-3.48363e-07
-3.4876e-07
-0.00118886
2.59411e-07
2.59117e-07
0.00118904
-0.00114344
-1.28043e-06
3.50124e-07
1.31059e-07
0.00114328
-2.79522e-07
1.2123e-06
2.1793e-07
8.38039e-07
-2.79873e-07
-9.37794e-07
1.802e-07
-0.0011433
-1.27772e-06
3.51286e-07
1.37615e-07
0.00114314
-2.76722e-07
1.20952e-06
2.15227e-07
8.37874e-07
-2.79994e-07
-9.37894e-07
1.80134e-07
-0.000272345
1.30943e-06
1.27214e-06
-2.59963e-07
-2.62759e-07
0.000270286
-3.21407e-07
-3.21225e-07
-0.00118953
2.45413e-07
2.46304e-07
0.00118968
-0.00114282
-1.27298e-06
3.19889e-07
1.12453e-07
0.00114268
-2.73905e-07
1.21407e-06
2.20141e-07
8.41402e-07
-2.72593e-07
-9.29639e-07
1.84256e-07
-0.00114269
-1.27016e-06
3.19159e-07
1.17659e-07
0.00114254
-2.71112e-07
1.21131e-06
2.17362e-07
8.41388e-07
-2.72502e-07
-9.29541e-07
1.84327e-07
-0.000272153
1.30233e-06
1.26518e-06
-2.54599e-07
-2.57313e-07
0.000270097
-2.96577e-07
-2.96623e-07
-0.00119009
2.33922e-07
2.33986e-07
0.00119022
-0.00114222
-1.26631e-06
2.97117e-07
1.03232e-07
0.00114207
-2.68333e-07
1.21577e-06
2.22732e-07
8.44917e-07
-2.65694e-07
-9.21668e-07
1.88244e-07
-0.00114208
-1.26356e-06
2.97436e-07
1.09151e-07
0.00114193
-2.6555e-07
1.21298e-06
2.19978e-07
8.44857e-07
-2.65692e-07
-9.21653e-07
1.88273e-07
-0.000271971
1.2951e-06
1.25792e-06
-2.49048e-07
-2.51784e-07
0.000269919
-2.69756e-07
-2.69692e-07
-0.00119055
2.20496e-07
2.2099e-07
0.00119065
-0.0011416
-1.25923e-06
2.69723e-07
8.78169e-08
0.00114145
-2.62688e-07
1.21781e-06
2.25317e-07
8.48304e-07
-2.58875e-07
-9.13989e-07
1.92219e-07
-0.00114146
-1.25648e-06
2.69676e-07
9.36057e-08
0.00114131
-2.59932e-07
1.21501e-06
2.22534e-07
8.48212e-07
-2.58886e-07
-9.13965e-07
1.92186e-07
-0.000271798
1.28837e-06
1.25119e-06
-2.43865e-07
-2.46615e-07
0.000269749
-2.44678e-07
-2.44364e-07
-0.00119091
2.07142e-07
2.07866e-07
0.00119098
-0.001141
-1.25322e-06
2.44018e-07
7.68222e-08
0.00114085
-2.57925e-07
1.21915e-06
2.27287e-07
8.51305e-07
-2.52717e-07
-9.06979e-07
1.95716e-07
-0.00114086
-1.25041e-06
2.43679e-07
8.19143e-08
0.00114071
-2.55097e-07
1.21644e-06
2.24589e-07
8.51288e-07
-2.52678e-07
-9.06928e-07
1.95785e-07
-0.000271635
1.28219e-06
1.24511e-06
-2.39362e-07
-2.42062e-07
0.000269589
-0.00114027
-1.24475e-06
2.19211e-07
-2.50625e-07
1.21766e-06
2.26398e-07
-2.4683e-07
1.99109e-07
-1.16441e-06
-1.12387e-06
0.000276466
-0.000274366
9.13055e-08
9.66569e-08
0.00113645
8.50438e-07
4.19919e-07
-1.55326e-06
1.30654e-07
-5.05915e-07
-1.24885e-06
5.4149e-08
-5.42483e-07
7.27895e-07
1.162e-06
0.00113652
8.50127e-07
4.19456e-07
-1.55066e-06
1.3116e-07
-5.05765e-07
-1.24833e-06
5.12621e-08
-5.39568e-07
7.27912e-07
-1.12396e-06
0.000276447
-0.000274347
9.17165e-08
9.42311e-08
0.00113744
8.50877e-07
4.18708e-07
-1.51317e-06
1.2503e-07
-5.00476e-07
-1.24859e-06
5.44803e-08
-5.42334e-07
7.27981e-07
1.15673e-06
0.0011364
8.499e-07
-0.0011359
4.19187e-07
-1.54472e-06
1.31579e-07
-5.0522e-07
-1.24855e-06
5.12452e-08
-5.39719e-07
7.27668e-07
8.50515e-07
4.23958e-07
-1.51287e-06
1.25699e-07
-5.00112e-07
-1.24281e-06
5.41108e-08
7.22451e-07
-5.42249e-07
1.15346e-06
0.00113602
8.49873e-07
4.19445e-07
-1.5422e-06
1.28667e-07
-5.03062e-07
-1.23974e-06
4.84077e-08
-5.36573e-07
7.1982e-07
-1.12142e-06
0.000276422
-0.000274333
9.21387e-08
9.72979e-08
8.50311e-07
-0.00113636
4.18278e-07
-1.50963e-06
1.23215e-07
-4.96731e-07
-1.24305e-06
5.41419e-08
7.22155e-07
-5.42392e-07
1.11561e-06
0.001137
8.50451e-07
4.18186e-07
-1.50496e-06
1.25777e-07
-5.00529e-07
-1.24497e-06
5.45408e-08
-5.419e-07
7.25388e-07
-0.000274308
9.1379e-08
9.41633e-08
1.55122e-06
1.51111e-06
-4.9217e-07
-4.97729e-07
0.000274394
-1.17087e-06
-1.13035e-06
0.000276546
-0.000274452
1.01121e-07
1.06457e-07
4.17539e-07
0.00113694
-5.02676e-07
1.16618e-06
1.31585e-07
7.29331e-07
-5.38408e-07
-1.24477e-06
5.57695e-08
-1.54831e-06
8.45069e-07
4.17252e-07
0.00113701
-5.02146e-07
1.16369e-06
1.31644e-07
7.29103e-07
-5.35753e-07
-1.24464e-06
5.29146e-08
0.00113834
8.29619e-07
-0.00113788
4.11055e-07
-1.54511e-06
1.35427e-07
-4.92844e-07
-1.232e-06
6.02854e-08
-5.26082e-07
7.33937e-07
1.16848e-06
0.00113841
8.29253e-07
-0.00113796
4.10573e-07
-1.54239e-06
1.36152e-07
-4.92243e-07
-1.2316e-06
5.73605e-08
-5.23332e-07
7.33877e-07
-4.92077e-07
-4.94242e-07
0.000274375
-1.13045e-06
0.000276527
-0.000274433
1.01561e-07
1.04058e-07
4.16288e-07
0.00113794
-4.97226e-07
1.12565e-06
1.25977e-07
7.29426e-07
-5.38262e-07
-1.24449e-06
5.60929e-08
-1.5427e-06
8.45114e-07
4.17387e-07
0.00113689
-5.02268e-07
1.158e-06
1.31264e-07
7.29085e-07
-5.35711e-07
-1.24476e-06
5.30665e-08
0.00113934
8.29997e-07
-0.00113888
4.09752e-07
-1.50495e-06
1.29854e-07
-4.87366e-07
-1.23173e-06
6.05964e-08
-5.25955e-07
7.34028e-07
1.1629e-06
0.00113829
8.29011e-07
-0.00113784
4.10525e-07
-1.53685e-06
1.36391e-07
-4.91905e-07
-1.23159e-06
5.73441e-08
-5.23346e-07
7.33796e-07
8.44729e-07
4.17087e-07
0.00113651
-4.98531e-07
1.15551e-06
1.29658e-07
7.20544e-07
-5.33122e-07
4.96808e-08
-1.23619e-06
8.29603e-07
-0.00113843
4.15051e-07
-1.50454e-06
1.30723e-07
-4.86586e-07
-1.22611e-06
6.01677e-08
7.28424e-07
-5.26077e-07
1.16016e-06
0.00113791
8.28785e-07
-0.00113746
4.103e-07
-1.53391e-06
1.34413e-07
-4.89174e-07
-1.22284e-06
5.42385e-08
-5.2049e-07
7.25684e-07
-4.92066e-07
-4.96819e-07
0.00027436
-1.12756e-06
0.000276502
-0.000274419
1.01576e-07
1.06696e-07
8.45307e-07
4.15812e-07
0.0011375
-4.96004e-07
1.11764e-06
1.26756e-07
7.26103e-07
-5.38439e-07
5.5808e-08
-1.2414e-06
8.29561e-07
-0.0011383
4.09613e-07
-1.50186e-06
1.28048e-07
-4.83492e-07
-1.22608e-06
6.02406e-08
7.28325e-07
-5.26057e-07
1.12228e-06
0.0011389
8.29399e-07
-0.00113844
4.08954e-07
-1.49663e-06
1.31525e-07
-4.86631e-07
-1.22807e-06
6.03723e-08
-5.25764e-07
7.31228e-07
-0.000274395
1.01511e-07
1.04331e-07
1.5433e-06
1.50312e-06
-4.79034e-07
-4.84597e-07
0.000274463
-1.17614e-06
-1.13559e-06
0.00027656
-0.000274473
1.0951e-07
1.14864e-07
4.09147e-07
0.00113878
-4.90536e-07
1.17194e-06
1.36169e-07
7.35941e-07
-5.21656e-07
-1.22754e-06
6.21084e-08
-1.54044e-06
8.24256e-07
4.09112e-07
0.00113885
-4.90173e-07
1.16935e-06
1.35782e-07
7.35662e-07
-5.1897e-07
-1.22747e-06
5.93713e-08
0.00114003
8.08157e-07
-0.00113963
4.03185e-07
-1.5364e-06
1.40013e-07
-4.80037e-07
-1.21448e-06
6.66817e-08
-5.09762e-07
7.40367e-07
1.17384e-06
0.00114011
8.07853e-07
-0.0011397
4.02957e-07
-1.53361e-06
1.40866e-07
-4.7912e-07
-1.21412e-06
6.36291e-08
-5.07177e-07
7.40144e-07
-4.78946e-07
-4.8117e-07
0.000274444
-1.13581e-06
0.000276541
-0.000274454
1.10187e-07
1.12638e-07
4.07869e-07
0.00113978
-4.85052e-07
1.13142e-06
1.306e-07
7.36053e-07
-5.2153e-07
-1.22726e-06
6.24337e-08
-1.53482e-06
8.24184e-07
4.09125e-07
0.00113874
-4.90201e-07
1.16384e-06
1.35643e-07
7.35543e-07
-5.18918e-07
-1.22757e-06
5.95061e-08
0.00114104
8.08485e-07
-0.00114063
4.01976e-07
-1.49621e-06
1.34445e-07
-4.74562e-07
-1.21418e-06
6.70011e-08
-5.09636e-07
7.40484e-07
1.16826e-06
0.00113999
8.07803e-07
-0.00113958
4.03309e-07
-1.52794e-06
1.40402e-07
-4.79069e-07
-1.21431e-06
6.3652e-08
-5.0726e-07
7.39879e-07
8.23913e-07
4.08886e-07
0.00113835
-4.86094e-07
1.16122e-06
1.33744e-07
7.26959e-07
-5.16598e-07
5.6268e-08
-1.21931e-06
8.08297e-07
-0.00114018
4.072e-07
-1.49572e-06
1.35456e-07
-4.73451e-07
-1.20862e-06
6.65269e-08
7.34697e-07
-5.0984e-07
1.16533e-06
0.00113961
8.07655e-07
-0.0011392
4.0267e-07
-1.52511e-06
1.38342e-07
-4.76389e-07
-1.20561e-06
6.0811e-08
-5.04322e-07
7.31866e-07
-4.78963e-07
-4.83716e-07
0.00027443
-1.13297e-06
0.000276516
-0.00027444
1.10347e-07
1.15413e-07
8.24591e-07
4.07591e-07
0.00113934
-4.83555e-07
1.12331e-06
1.30856e-07
7.32505e-07
-5.21752e-07
6.23431e-08
-1.22451e-06
8.08362e-07
-0.00114005
4.02041e-07
-1.49286e-06
1.32114e-07
-4.70617e-07
-1.2088e-06
6.6643e-08
7.34423e-07
-5.09922e-07
1.12746e-06
0.00114059
8.0815e-07
-0.00114019
4.01505e-07
-1.4878e-06
1.35495e-07
-4.73833e-07
-1.21083e-06
6.67332e-08
-5.09679e-07
7.37432e-07
-0.000274415
1.09994e-07
1.12853e-07
1.53451e-06
1.49432e-06
-4.65866e-07
-4.71413e-07
0.000274469
-1.18102e-06
-1.14047e-06
0.000276515
-0.000274434
1.17582e-07
1.22935e-07
4.01269e-07
0.00114043
-4.77484e-07
1.17727e-06
1.41437e-07
7.42365e-07
-5.05406e-07
-1.20952e-06
6.82565e-08
-1.53168e-06
8.02817e-07
4.01852e-07
0.0011405
-4.77381e-07
1.17444e-06
1.40456e-07
7.41996e-07
-5.02758e-07
-1.20964e-06
6.56255e-08
0.00114153
7.86072e-07
-0.00114118
3.95782e-07
-1.52687e-06
1.44767e-07
-4.67429e-07
-1.19625e-06
7.30318e-08
-4.93551e-07
7.46843e-07
1.17903e-06
0.0011416
7.85627e-07
-0.00114125
3.95189e-07
-1.52374e-06
1.45892e-07
-4.65895e-07
-1.19605e-06
6.99109e-08
-4.91143e-07
7.46399e-07
-4.65679e-07
-4.67925e-07
0.000274449
-1.14099e-06
0.000276495
-0.000274415
1.18652e-07
1.21111e-07
4.00135e-07
0.00114143
-4.72012e-07
1.13671e-06
1.3586e-07
7.42493e-07
-5.05264e-07
-1.20921e-06
6.85741e-08
-1.52623e-06
8.02697e-07
4.02119e-07
0.00114038
-4.78037e-07
1.16861e-06
1.40121e-07
7.42162e-07
-5.02558e-07
-1.20968e-06
6.57861e-08
0.00114254
7.86419e-07
-0.00114218
3.94499e-07
-1.48666e-06
1.39221e-07
-4.61944e-07
-1.19594e-06
7.33524e-08
-4.93416e-07
7.46978e-07
1.17326e-06
0.00114149
7.8574e-07
-0.00114113
3.95798e-07
-1.51793e-06
1.45071e-07
-4.6616e-07
-1.19637e-06
7.01259e-08
-4.91088e-07
7.46272e-07
8.02347e-07
4.00875e-07
0.00114
-4.73762e-07
1.16632e-06
1.38825e-07
7.33696e-07
-4.99961e-07
6.26988e-08
-1.20121e-06
7.86016e-07
-0.00114173
3.99443e-07
-1.48584e-06
1.40481e-07
-4.60242e-07
-1.19055e-06
7.2817e-08
7.40976e-07
-4.93786e-07
1.1698e-06
0.00114111
7.85861e-07
-0.00114075
3.95759e-07
-1.51559e-06
1.41949e-07
-4.64475e-07
-1.18765e-06
6.74923e-08
-4.87942e-07
7.38402e-07
-4.6592e-07
-4.70711e-07
0.000274435
-1.13796e-06
0.00027647
-0.0002744
1.18502e-07
1.23592e-07
8.02794e-07
3.99802e-07
0.00114099
-4.71193e-07
1.12845e-06
1.3599e-07
7.39297e-07
-5.05316e-07
6.86185e-08
-1.2064e-06
7.86227e-07
-0.00114159
3.94467e-07
-1.48285e-06
1.36782e-07
-4.57731e-07
-1.19087e-06
7.313e-08
7.40821e-07
-4.93685e-07
1.13198e-06
0.00114209
7.86303e-07
-0.00114174
3.94492e-07
-1.4782e-06
1.39157e-07
-4.61862e-07
-1.1928e-06
7.34e-08
-4.93308e-07
7.44028e-07
-0.000274375
1.17578e-07
1.20403e-07
1.52442e-06
1.4842e-06
-4.51967e-07
-4.57508e-07
0.000274415
-1.18583e-06
-1.14528e-06
0.000276415
-0.00027434
1.25569e-07
1.30911e-07
3.93693e-07
0.00114188
-4.64177e-07
1.18242e-06
1.46529e-07
7.48498e-07
-4.89546e-07
-1.19142e-06
7.44506e-08
-1.52145e-06
7.80539e-07
3.94255e-07
0.00114195
-4.64248e-07
1.17951e-06
1.45151e-07
7.48166e-07
-4.868e-07
-1.19165e-06
7.20248e-08
0.00114283
7.63622e-07
-0.00114253
3.88125e-07
-1.51629e-06
1.4964e-07
-4.54773e-07
-1.17791e-06
7.94132e-08
-4.77712e-07
7.53225e-07
1.18393e-06
0.00114291
7.631e-07
-0.0011426
3.8738e-07
-1.51298e-06
1.50573e-07
-4.53212e-07
-1.17785e-06
7.63475e-08
-4.75394e-07
7.52722e-07
-4.51623e-07
-4.53855e-07
0.000274396
-1.14589e-06
0.000276395
-0.000274321
1.26744e-07
1.29213e-07
3.92401e-07
0.00114288
-4.58688e-07
1.14188e-06
1.40989e-07
7.48611e-07
-4.89417e-07
-1.19111e-06
7.47461e-08
-1.5164e-06
7.80802e-07
3.95132e-07
0.00114183
-4.65093e-07
1.17336e-06
1.44789e-07
7.48459e-07
-4.86611e-07
-1.19147e-06
7.20236e-08
0.00114384
7.63901e-07
-0.00114353
3.86938e-07
-1.47606e-06
1.441e-07
-4.49287e-07
-1.1776e-06
7.97253e-08
-4.77577e-07
7.5336e-07
1.17823e-06
0.00114279
7.62982e-07
-0.00114248
3.87547e-07
-1.50736e-06
1.50498e-07
-4.53363e-07
-1.1779e-06
7.64689e-08
-4.75246e-07
7.52797e-07
7.8008e-07
3.93483e-07
0.00114145
-4.61269e-07
1.17115e-06
1.43764e-07
7.40184e-07
-4.83838e-07
6.89824e-08
-1.18278e-06
7.63407e-07
-0.00114308
3.91699e-07
-1.47507e-06
1.4515e-07
-4.47577e-07
-1.17233e-06
7.92718e-08
7.47321e-07
-4.78012e-07
1.17446e-06
0.00114241
7.63461e-07
-0.0011421
3.88208e-07
-1.505e-06
1.46424e-07
-4.5197e-07
-1.1694e-06
7.39876e-08
-4.72066e-07
7.44811e-07
-4.52393e-07
-4.57178e-07
0.000274381
-1.14293e-06
0.00027637
-0.000274307
1.2658e-07
1.31667e-07
7.80529e-07
3.92221e-07
0.00114244
-4.58652e-07
1.13333e-06
1.4098e-07
7.45792e-07
-4.89203e-07
7.48576e-08
-1.18792e-06
7.63385e-07
-0.00114295
3.86278e-07
-1.47228e-06
1.42214e-07
-4.44945e-07
-1.17238e-06
7.94666e-08
7.47364e-07
-4.77831e-07
1.13663e-06
0.0011434
7.6383e-07
-0.00114309
3.87019e-07
-1.46758e-06
1.43633e-07
-4.49356e-07
-1.17454e-06
7.98663e-08
-4.77421e-07
7.50435e-07
-0.000274281
1.25348e-07
1.28171e-07
1.51326e-06
1.47303e-06
-4.3773e-07
-4.43254e-07
0.00027431
-1.19059e-06
-1.15006e-06
0.000276268
-0.0002742
1.33367e-07
1.38685e-07
3.8584e-07
0.00114313
-4.51028e-07
1.18738e-06
1.51336e-07
7.5463e-07
-4.74029e-07
-1.17336e-06
8.08119e-08
-1.51029e-06
7.57886e-07
3.86192e-07
0.0011432
-4.51266e-07
1.18442e-06
1.50048e-07
7.54448e-07
-4.71174e-07
-1.17353e-06
7.84523e-08
0.00114394
7.40906e-07
-0.00114368
3.79705e-07
-1.50473e-06
1.54418e-07
-4.42173e-07
-1.15975e-06
8.58582e-08
-4.62352e-07
7.59562e-07
1.18849e-06
0.00114401
7.40452e-07
-0.00114375
3.79263e-07
-1.50143e-06
1.54721e-07
-4.41129e-07
-1.15976e-06
8.29499e-08
-4.59951e-07
7.59115e-07
-4.3744e-07
-4.39663e-07
0.00027429
-1.15045e-06
0.000276249
-0.000274181
1.34294e-07
1.36772e-07
3.84676e-07
0.00114413
-4.45556e-07
1.14683e-06
1.45793e-07
7.54752e-07
-4.739e-07
-1.17304e-06
8.11132e-08
-1.50483e-06
7.57706e-07
3.86282e-07
0.00114308
-4.51137e-07
1.17889e-06
1.50433e-07
7.54445e-07
-4.71212e-07
-1.17341e-06
7.82844e-08
0.00114494
7.41125e-07
-0.00114469
3.78593e-07
-1.46449e-06
1.48896e-07
-4.36685e-07
-1.15944e-06
8.61546e-08
-4.62225e-07
7.59686e-07
1.18288e-06
0.00114389
7.40236e-07
-0.00114363
3.79161e-07
-1.49613e-06
1.5512e-07
-4.41276e-07
-1.1595e-06
8.30121e-08
-4.59755e-07
7.5936e-07
7.57646e-07
3.85893e-07
0.0011427
-4.48548e-07
1.17595e-06
1.4824e-07
7.46371e-07
-4.68257e-07
7.53906e-08
-1.16466e-06
7.4071e-07
-0.00114423
3.83599e-07
-1.46352e-06
1.49293e-07
-4.35508e-07
-1.15425e-06
8.59146e-08
7.53723e-07
-4.6252e-07
1.17938e-06
0.00114351
7.40661e-07
-0.00114325
3.79617e-07
-1.49333e-06
1.51445e-07
-4.39124e-07
-1.15125e-06
8.04006e-08
-4.56764e-07
7.51111e-07
-4.37729e-07
-4.4251e-07
0.000274275
-1.1476e-06
0.000276224
-0.000274167
1.34156e-07
1.39219e-07
7.58011e-07
3.8474e-07
0.00114369
-4.45944e-07
1.13811e-06
1.45453e-07
7.51989e-07
-4.73613e-07
8.12624e-08
-1.1698e-06
7.40615e-07
-0.0011441
3.77925e-07
-1.46103e-06
1.46843e-07
-4.32866e-07
-1.15398e-06
8.59963e-08
7.53938e-07
-4.62334e-07
1.14157e-06
0.0011445
7.40965e-07
-0.00114424
3.78513e-07
-1.45592e-06
1.48668e-07
-4.36508e-07
-1.15644e-06
8.6251e-08
-4.62117e-07
7.56774e-07
-0.000274141
1.33322e-07
1.3614e-07
1.5013e-06
1.46105e-06
-4.23485e-07
-4.2901e-07
0.000274159
-1.19524e-06
-1.15474e-06
0.000276083
-0.00027402
1.40822e-07
1.46121e-07
3.77351e-07
0.00114418
-4.38305e-07
1.19222e-06
1.55959e-07
7.60847e-07
-4.58874e-07
-1.15542e-06
8.73046e-08
-1.49855e-06
7.35139e-07
3.77512e-07
0.00114426
-4.38844e-07
1.18912e-06
1.54819e-07
7.60854e-07
-4.55911e-07
-1.1554e-06
8.49454e-08
0.00114485
7.18005e-07
-0.00114464
3.70396e-07
-1.4925e-06
1.58926e-07
-4.29972e-07
-1.14189e-06
9.24403e-08
-4.47425e-07
7.65922e-07
1.19297e-06
0.00114492
7.17734e-07
-0.00114471
3.70485e-07
-1.48919e-06
1.58749e-07
-4.29271e-07
-1.14198e-06
8.96431e-08
-4.44937e-07
7.65466e-07
-4.23551e-07
-4.25765e-07
0.000274139
-1.15495e-06
0.000276064
-0.000274001
1.41575e-07
1.44044e-07
3.76153e-07
0.00114519
-4.32822e-07
1.1517e-06
1.50441e-07
7.60974e-07
-4.58753e-07
-1.15511e-06
8.76056e-08
-1.49276e-06
7.3483e-07
3.7749e-07
0.00114414
-4.38151e-07
1.184e-06
1.55588e-07
7.6066e-07
-4.56061e-07
-1.15537e-06
8.47368e-08
0.00114586
7.18217e-07
-0.00114565
3.69307e-07
-1.45225e-06
1.53438e-07
-4.24469e-07
-1.14158e-06
9.27171e-08
-4.47306e-07
7.66029e-07
1.18731e-06
0.0011448
7.1756e-07
-0.00114459
3.7025e-07
-1.48414e-06
1.59315e-07
-4.29538e-07
-1.1416e-06
8.96062e-08
-4.4477e-07
7.65777e-07
7.34799e-07
3.77224e-07
0.00114375
-4.35681e-07
1.18088e-06
1.52875e-07
7.52531e-07
-4.53144e-07
8.18957e-08
-1.1468e-06
7.18031e-07
-0.0011452
3.74764e-07
-1.45128e-06
1.53338e-07
-4.23647e-07
-1.13648e-06
9.25823e-08
7.60075e-07
-4.47515e-07
1.18408e-06
0.00114442
7.1797e-07
-0.00114421
3.70559e-07
-1.48112e-06
1.56105e-07
-4.26869e-07
-1.1334e-06
8.68805e-08
-4.41907e-07
7.57434e-07
-4.23358e-07
-4.28153e-07
0.000274125
-1.15205e-06
0.000276038
-0.000273987
1.41335e-07
1.46392e-07
7.35111e-07
3.76046e-07
0.00114475
-4.33063e-07
1.14307e-06
1.5011e-07
7.58194e-07
-4.58496e-07
8.77552e-08
-1.15199e-06
7.17965e-07
-0.00114506
3.68961e-07
-1.44904e-06
1.51052e-07
-4.2113e-07
-1.13609e-06
9.2571e-08
7.60356e-07
-4.47352e-07
1.14629e-06
0.00114541
7.18277e-07
-0.0011452
3.69498e-07
-1.44369e-06
1.53356e-07
-4.24234e-07
-1.13859e-06
9.27011e-08
-4.4726e-07
7.63067e-07
-0.000273961
1.40818e-07
1.4362e-07
1.48876e-06
1.4485e-06
-4.09491e-07
-4.15015e-07
0.00027397
-1.19947e-06
-1.15902e-06
0.000275867
-0.000273809
1.47681e-07
1.52984e-07
3.67417e-07
0.00114505
-4.25984e-07
1.19708e-06
1.60688e-07
7.672e-07
-4.44039e-07
-1.13764e-06
9.39188e-08
-1.4863e-06
7.12298e-07
3.68339e-07
0.00114512
-4.26939e-07
1.19363e-06
1.59261e-07
7.67247e-07
-4.4103e-07
-1.13757e-06
9.15257e-08
0.00114558
6.95728e-07
-0.00114541
3.61267e-07
-1.47996e-06
1.62712e-07
-4.18548e-07
-1.12458e-06
9.90456e-08
-4.32989e-07
7.72127e-07
1.19767e-06
0.00114565
6.95246e-07
-0.00114549
3.60464e-07
-1.4763e-06
1.63114e-07
-4.17332e-07
-1.12464e-06
9.62305e-08
-4.30507e-07
7.7166e-07
-4.09844e-07
-4.12076e-07
0.000273951
-1.15964e-06
0.000275848
-0.00027379
1.48797e-07
1.51273e-07
3.66412e-07
0.00114606
-4.20497e-07
1.15658e-06
1.55181e-07
7.67308e-07
-4.43936e-07
-1.13735e-06
9.42014e-08
-1.48025e-06
7.11487e-07
3.6723e-07
0.001145
-4.25783e-07
1.18897e-06
1.6064e-07
7.67062e-07
-4.41253e-07
-1.13751e-06
9.12905e-08
0.00114659
6.96015e-07
-0.00114642
3.59937e-07
-1.4397e-06
1.57267e-07
-4.13028e-07
-1.12426e-06
9.93255e-08
-4.32865e-07
7.72243e-07
1.19134e-06
0.00114553
6.95737e-07
-0.00114537
3.61603e-07
-1.4717e-06
1.62739e-07
-4.18379e-07
-1.12433e-06
9.62384e-08
-4.3029e-07
7.71983e-07
7.12062e-07
3.67772e-07
0.00114462
-4.23294e-07
1.1857e-06
1.57513e-07
7.5877e-07
-4.3845e-07
8.8431e-08
-1.12914e-06
6.95425e-07
-0.00114597
3.65019e-07
-1.43842e-06
1.57688e-07
-4.11732e-07
-1.11915e-06
9.91516e-08
7.66264e-07
-4.33086e-07
1.18874e-06
0.00114515
6.94976e-07
-0.00114498
3.60211e-07
-1.46837e-06
1.60586e-07
-4.1496e-07
-1.11599e-06
9.35051e-08
-4.27454e-07
7.6372e-07
-4.09494e-07
-4.14295e-07
0.000273937
-1.15606e-06
0.000275822
-0.000273776
1.47934e-07
1.53003e-07
7.12287e-07
3.66812e-07
0.00114561
-4.20674e-07
1.1479e-06
1.54753e-07
7.64406e-07
-4.43804e-07
9.42642e-08
-1.13435e-06
6.96003e-07
-0.00114584
3.60594e-07
-1.43664e-06
1.54458e-07
-4.10001e-07
-1.11881e-06
9.91858e-08
7.66568e-07
-4.32873e-07
1.151e-06
0.00114614
6.95319e-07
-0.00114598
3.58918e-07
-1.43093e-06
1.57877e-07
-4.12305e-07
-1.12116e-06
9.93196e-08
-4.32785e-07
7.6936e-07
-0.000273751
1.47975e-07
1.5077e-07
1.4763e-06
1.43601e-06
-3.96242e-07
-4.01759e-07
0.000273753
-1.2043e-06
-1.16382e-06
0.000275628
-0.000273575
1.54696e-07
1.60067e-07
3.57341e-07
0.00114573
-4.14623e-07
1.20138e-06
1.64937e-07
7.73589e-07
-4.29624e-07
-1.12026e-06
1.00542e-07
-1.47352e-06
6.89718e-07
3.58437e-07
0.0011458
-4.15319e-07
1.1981e-06
1.63433e-07
7.73423e-07
-4.2672e-07
-1.12034e-06
9.80815e-08
0.00114613
6.72792e-07
-0.00114601
3.4987e-07
-1.46641e-06
1.66972e-07
-4.06592e-07
-1.10796e-06
1.0571e-07
-4.19054e-07
7.78091e-07
1.20278e-06
0.0011462
6.72008e-07
-0.00114608
3.48206e-07
-1.46301e-06
1.6833e-07
-4.05191e-07
-1.10769e-06
1.02799e-07
-4.16553e-07
7.77852e-07
-3.96242e-07
-3.98479e-07
0.000273733
-1.1648e-06
0.000275609
-0.000273556
1.56033e-07
1.58485e-07
3.56111e-07
0.00114674
-4.09102e-07
1.16094e-06
1.59485e-07
7.73683e-07
-4.29527e-07
-1.11998e-06
1.0081e-07
-1.46812e-06
6.89699e-07
3.58393e-07
0.00114568
-4.14863e-07
1.19291e-06
1.64462e-07
7.73407e-07
-4.26904e-07
-1.12015e-06
9.7802e-08