/*--------------------------------*- C++ -*----------------------------------*\
| =========                 |                                                 |
| \\      /  F ield         | OpenFOAM: The Open Source CFD Toolbox           |
|  \\    /   O peration     | Version:  2312                                  |
|   \\  /    A nd           | Website:  www.openfoam.com                      |
|    \\/     M anipulation  |                                                 |
\*---------------------------------------------------------------------------*/
FoamFile
{
    version     2.0;
    format      ascii;
    arch        "LSB;label=32;scalar=64";
    class       volScalarField;
    location    "850";
    object      k;
}
// * * * * * * * * * * * * * * * * * * * * * * * * * * * * * * * * * * * * * //

dimensions      [0 2 -2 0 0 0 0];

internalField   nonuniform List<scalar> 
42840
(
1.45935e-05
1.62408e-05
1.6241e-05
1.86868e-05
1.43149e-05
1.64635e-05
1.64637e-05
1.93865e-05
1.40821e-05
1.6773e-05
1.67733e-05
2.01795e-05
1.38948e-05
1.71667e-05
1.71669e-05
2.10543e-05
1.37526e-05
1.76409e-05
1.76409e-05
2.19967e-05
1.36554e-05
1.81912e-05
1.81913e-05
2.29923e-05
1.36032e-05
1.88134e-05
1.88138e-05
2.40292e-05
1.35968e-05
1.95024e-05
1.95034e-05
2.50926e-05
1.36346e-05
2.0253e-05
2.02545e-05
2.61727e-05
1.37184e-05
2.10595e-05
2.10617e-05
2.72382e-05
1.38481e-05
2.19156e-05
2.19183e-05
2.8312e-05
1.4024e-05
2.28147e-05
2.2818e-05
2.93635e-05
1.42461e-05
2.37508e-05
2.37543e-05
3.04156e-05
1.45145e-05
2.47175e-05
2.4721e-05
3.14269e-05
1.48291e-05
2.57088e-05
2.57122e-05
3.24416e-05
1.51897e-05
2.67177e-05
2.67212e-05
3.34183e-05
1.55956e-05
2.77383e-05
2.77421e-05
3.43828e-05
1.6046e-05
2.87653e-05
2.87692e-05
3.53137e-05
1.65397e-05
2.97936e-05
2.97974e-05
3.62324e-05
1.70753e-05
3.08194e-05
3.08231e-05
3.71292e-05
1.76509e-05
3.18378e-05
3.18415e-05
3.79871e-05
1.82644e-05
3.2845e-05
3.28486e-05
3.88376e-05
1.89132e-05
3.38371e-05
3.38407e-05
3.9653e-05
1.95945e-05
3.48111e-05
3.48147e-05
4.0452e-05
2.03051e-05
3.57642e-05
3.57681e-05
4.12144e-05
1.8671e-05
1.92397e-05
1.62412e-05
1.62412e-05
1.63998e-05
1.64e-05
1.86711e-05
1.92379e-05
1.62412e-05
1.62413e-05
1.63999e-05
1.64004e-05
1.62408e-05
1.63995e-05
1.63998e-05
1.86719e-05
1.9238e-05
1.62414e-05
1.63998e-05
1.64004e-05
1.92201e-05
1.93716e-05
2.00157e-05
1.64641e-05
1.64642e-05
1.66883e-05
1.66886e-05
1.93712e-05
2.00134e-05
1.64642e-05
1.64646e-05
1.66884e-05
1.6689e-05
1.64639e-05
1.66876e-05
1.66884e-05
1.93725e-05
2.00127e-05
1.64644e-05
1.6688e-05
1.66889e-05
1.99907e-05
2.01634e-05
2.08734e-05
1.6774e-05
1.67741e-05
1.70616e-05
1.70617e-05
2.01624e-05
2.08714e-05
1.67741e-05
1.67746e-05
1.70616e-05
1.70623e-05
1.6774e-05
1.70606e-05
1.70618e-05
2.01633e-05
2.08706e-05
1.67742e-05
1.70609e-05
1.7062e-05
2.08452e-05
2.10359e-05
2.18005e-05
1.7168e-05
1.7168e-05
1.75162e-05
1.75162e-05
2.10347e-05
2.17992e-05
1.71679e-05
1.71686e-05
1.75159e-05
1.75169e-05
1.7168e-05
1.7515e-05
1.75166e-05
2.10355e-05
2.17987e-05
1.7168e-05
1.75152e-05
1.75165e-05
2.17725e-05
2.19759e-05
2.27861e-05
1.76424e-05
1.76423e-05
1.80483e-05
1.80482e-05
2.19751e-05
2.27832e-05
1.7642e-05
1.7643e-05
1.80477e-05
1.8049e-05
1.76427e-05
1.80468e-05
1.8049e-05
2.19751e-05
2.27832e-05
1.76423e-05
1.80469e-05
1.80485e-05
2.27554e-05
2.29701e-05
2.38125e-05
1.81932e-05
1.81929e-05
1.86536e-05
1.86534e-05
2.29692e-05
2.38108e-05
1.81925e-05
1.81938e-05
1.86527e-05
1.86542e-05
1.81937e-05
1.86515e-05
1.86544e-05
2.29695e-05
2.38103e-05
1.81931e-05
1.86519e-05
1.86537e-05
2.37812e-05
2.40043e-05
2.48678e-05
1.88159e-05
1.88156e-05
1.93271e-05
1.93268e-05
2.40039e-05
2.48669e-05
1.8815e-05
1.88165e-05
1.93259e-05
1.93278e-05
1.88166e-05
1.93244e-05
1.9328e-05
2.40046e-05
2.48677e-05
1.88158e-05
1.93253e-05
1.9327e-05
2.48351e-05
2.50654e-05
2.59405e-05
1.95056e-05
1.95053e-05
2.00633e-05
2.0063e-05
2.50653e-05
2.59392e-05
1.95043e-05
1.95062e-05
2.00618e-05
2.0064e-05
1.95064e-05
2.00601e-05
2.00645e-05
2.50661e-05
2.59412e-05
1.95053e-05
2.00616e-05
2.00632e-05
2.59047e-05
2.61419e-05
2.70199e-05
2.02566e-05
2.02563e-05
2.08569e-05
2.08565e-05
2.61408e-05
2.70185e-05
2.02552e-05
2.02574e-05
2.08551e-05
2.08578e-05
2.02578e-05
2.08533e-05
2.08582e-05
2.61419e-05
2.701e-05
2.02564e-05
2.08553e-05
2.08568e-05
2.69894e-05
2.72263e-05
2.8076e-05
2.10634e-05
2.10632e-05
2.17014e-05
2.1701e-05
2.7225e-05
2.80742e-05
2.10618e-05
2.10647e-05
2.16994e-05
2.17026e-05
2.1065e-05
2.16973e-05
2.17031e-05
2.72315e-05
2.80821e-05
2.10634e-05
2.17e-05
2.17014e-05
2.80372e-05
2.82954e-05
2.91294e-05
2.19198e-05
2.19197e-05
2.25908e-05
2.25906e-05
2.82935e-05
2.91264e-05
2.1918e-05
2.19213e-05
2.25885e-05
2.2592e-05
2.19215e-05
2.25864e-05
2.25925e-05
2.82911e-05
2.91347e-05
2.19196e-05
2.25895e-05
2.25905e-05
2.91097e-05
2.93458e-05
3.01793e-05
2.28194e-05
2.28193e-05
2.35186e-05
2.35183e-05
2.93427e-05
3.01742e-05
2.28172e-05
2.28208e-05
2.35158e-05
2.35196e-05
2.28213e-05
2.35138e-05
2.35206e-05
2.93418e-05
3.01686e-05
2.2819e-05
2.35172e-05
2.35183e-05
3.01482e-05
3.03856e-05
3.12005e-05
2.37557e-05
2.37556e-05
2.44785e-05
2.4478e-05
3.03904e-05
3.1199e-05
2.37529e-05
2.3757e-05
2.4475e-05
2.44793e-05
2.37579e-05
2.44735e-05
2.44799e-05
3.03819e-05
3.12019e-05
2.37554e-05
2.4477e-05
2.44775e-05
3.11816e-05
3.14147e-05
3.22119e-05
2.47224e-05
2.47222e-05
2.54641e-05
2.54634e-05
3.14162e-05
3.22109e-05
2.47191e-05
2.47236e-05
2.54602e-05
2.54648e-05
2.47242e-05
2.54591e-05
2.54655e-05
3.14152e-05
3.22118e-05
2.47217e-05
2.54627e-05
2.5463e-05
3.2182e-05
3.24195e-05
3.3201e-05
2.57135e-05
2.57132e-05
2.64691e-05
2.64682e-05
3.24203e-05
3.31984e-05
2.57097e-05
2.57144e-05
2.64648e-05
2.64696e-05
2.57153e-05
2.64642e-05
2.64705e-05
3.24235e-05
3.31927e-05
2.57126e-05
2.6468e-05
2.64677e-05
3.31702e-05
3.34097e-05
3.41587e-05
2.67224e-05
2.67219e-05
2.74872e-05
2.74862e-05
3.34024e-05
3.41591e-05
2.67182e-05
2.67229e-05
2.74827e-05
2.74876e-05
2.67242e-05
2.74824e-05
2.7489e-05
3.34031e-05
3.41624e-05
2.67212e-05
2.74863e-05
2.74858e-05
3.41377e-05
3.43644e-05
3.51086e-05
2.7743e-05
2.77422e-05
2.85131e-05
2.85118e-05
3.4365e-05
3.51079e-05
2.77386e-05
2.77434e-05
2.85086e-05
2.85134e-05
2.77452e-05
2.85084e-05
2.85152e-05
3.43606e-05
3.51045e-05
2.77418e-05
2.85125e-05
2.85116e-05
3.5086e-05
3.52997e-05
3.6024e-05
2.877e-05
2.87688e-05
2.95413e-05
2.95396e-05
3.53061e-05
3.6025e-05
2.87656e-05
2.87703e-05
2.95367e-05
2.95414e-05
2.87723e-05
2.95367e-05
2.95434e-05
3.52952e-05
3.6023e-05
2.87685e-05
2.95407e-05
2.95395e-05
3.59991e-05
3.6214e-05
3.69229e-05
2.97982e-05
2.97967e-05
3.05678e-05
3.05659e-05
3.6215e-05
3.69162e-05
2.97938e-05
2.97984e-05
3.05634e-05
3.05679e-05
2.98004e-05
3.05634e-05
3.05701e-05
3.62178e-05
3.69188e-05
2.97963e-05
3.05675e-05
3.0566e-05
3.68923e-05
3.71041e-05
3.77876e-05
3.08237e-05
3.08219e-05
3.15881e-05
3.1586e-05
3.70985e-05
3.77637e-05
3.08194e-05
3.08238e-05
3.15839e-05
3.15883e-05
3.08261e-05
3.1584e-05
3.15909e-05
3.71094e-05
3.77893e-05
3.08217e-05
3.15881e-05
3.15865e-05
3.77821e-05
3.79754e-05
3.86412e-05
3.18419e-05
3.18397e-05
3.25982e-05
3.25958e-05
3.79821e-05
3.86384e-05
3.18377e-05
3.18421e-05
3.25941e-05
3.25984e-05
3.18447e-05
3.25944e-05
3.26012e-05
3.79685e-05
3.86438e-05
3.184e-05
3.25983e-05
3.25965e-05
3.86107e-05
3.88159e-05
3.94595e-05
3.28488e-05
3.28463e-05
3.3594e-05
3.35916e-05
3.88122e-05
3.94612e-05
3.28447e-05
3.28488e-05
3.359e-05
3.35942e-05
3.28518e-05
3.35906e-05
3.35974e-05
3.88219e-05
3.94627e-05
3.28467e-05
3.35945e-05
3.35922e-05
3.94443e-05
3.96279e-05
4.02617e-05
3.38405e-05
3.3838e-05
3.45725e-05
3.457e-05
3.96365e-05
4.02614e-05
3.38365e-05
3.38406e-05
3.45686e-05
3.45727e-05
3.38439e-05
3.45693e-05
3.45762e-05
3.96306e-05
4.02613e-05
3.38385e-05
3.45732e-05
3.45708e-05
4.02465e-05
4.04237e-05
4.10362e-05
3.48143e-05
3.48117e-05
3.55311e-05
3.55284e-05
4.04281e-05
4.1034e-05
3.48103e-05
3.48142e-05
3.55271e-05
3.55309e-05
3.48179e-05
3.55279e-05
3.55347e-05
4.04288e-05
4.1022e-05
3.48124e-05
3.55319e-05
3.55293e-05
4.10216e-05
4.12003e-05
3.57675e-05
3.57646e-05
4.12e-05
3.57634e-05
3.57672e-05
3.57709e-05
4.12162e-05
3.57654e-05
5.48448e-05
7.0102e-05
7.01238e-05
5.43655e-05
6.95609e-05
6.95427e-05
5.48459e-05
7.0103e-05
7.01249e-05
5.43651e-05
1.45936e-05
1.45935e-05
1.45934e-05
1.43802e-05
1.43803e-05
1.43802e-05
1.43801e-05
3.10533e-05
4.64267e-05
1.4709e-05
1.62881e-05
4.68035e-05
1.46749e-05
3.04972e-05
6.9561e-05
6.95426e-05
3.10607e-05
1.47089e-05
4.64308e-05
1.62885e-05
1.46749e-05
4.68067e-05
3.04963e-05
5.97049e-05
5.97156e-05
1.887e-05
5.99059e-05
5.99159e-05
5.59469e-05
7.01538e-05
5.55429e-05
7.01729e-05
6.94939e-05
6.94777e-05
5.59478e-05
7.0155e-05
5.55422e-05
7.01742e-05
1.43149e-05
1.43149e-05
1.43148e-05
1.41361e-05
1.41361e-05
1.4136e-05
1.41361e-05
3.27266e-05
4.75447e-05
1.46024e-05
1.65328e-05
3.21821e-05
4.78897e-05
1.45854e-05
6.94936e-05
6.94772e-05
3.27317e-05
1.46022e-05
4.75476e-05
1.65332e-05
3.21824e-05
1.45851e-05
4.78925e-05
6.02884e-05
6.02976e-05
1.95968e-05
6.04671e-05
6.04774e-05
5.68644e-05
7.01989e-05
5.65223e-05
7.02156e-05
6.94329e-05
6.94185e-05
5.6865e-05
7.02001e-05
5.65213e-05
7.02169e-05
1.40821e-05
1.40821e-05
1.40821e-05
1.39374e-05
1.39374e-05
1.39374e-05
1.39375e-05
3.43338e-05
4.85685e-05
1.45651e-05
1.68637e-05
3.38151e-05
4.88832e-05
1.45668e-05
6.94323e-05
6.94178e-05
3.43401e-05
1.45648e-05
4.85702e-05
1.68641e-05
3.38144e-05
1.45666e-05
4.88847e-05
6.08112e-05
6.0819e-05
2.04121e-05
6.09714e-05
6.09806e-05
5.76337e-05
7.02379e-05
5.73404e-05
7.02528e-05
6.93776e-05
6.93652e-05
5.76338e-05
7.02393e-05
5.73391e-05
7.02542e-05
1.38947e-05
1.38947e-05
1.38948e-05
1.3784e-05
1.3784e-05
1.3784e-05
1.37841e-05
3.58599e-05
4.95034e-05
1.45958e-05
1.72779e-05
3.53695e-05
4.97919e-05
1.46144e-05
6.93768e-05
6.93643e-05
3.58646e-05
1.45956e-05
4.95054e-05
1.72781e-05
3.53672e-05
1.4614e-05
4.97938e-05
6.12808e-05
6.12884e-05
2.13037e-05
6.14258e-05
6.14335e-05
5.82866e-05
7.02721e-05
5.80318e-05
7.02854e-05
6.93276e-05
6.9317e-05
5.82862e-05
7.02734e-05
5.80304e-05
7.02869e-05
1.37525e-05
1.37525e-05
1.37527e-05
1.36756e-05
1.36756e-05
1.36756e-05
1.36759e-05
3.72888e-05
5.0361e-05
1.46958e-05
1.77716e-05
3.68304e-05
5.0626e-05
1.47315e-05
6.9327e-05
6.93164e-05
3.7291e-05
1.46956e-05
5.03624e-05
1.77716e-05
3.68292e-05
1.47312e-05
5.06278e-05
6.17056e-05
6.17133e-05
2.22612e-05
6.18372e-05
6.18451e-05
5.88486e-05
7.03028e-05
5.86251e-05
7.03152e-05
6.92829e-05
6.92742e-05
5.88477e-05
7.0304e-05
5.8624e-05
7.03167e-05
1.36553e-05
1.36553e-05
1.36556e-05
1.36123e-05
1.36122e-05
1.36123e-05
1.36126e-05
3.86169e-05
5.11476e-05
1.4864e-05
1.83403e-05
3.81916e-05
5.13923e-05
1.49167e-05
6.92825e-05
6.92738e-05
3.86192e-05
1.4864e-05
5.11498e-05
1.83406e-05
3.81914e-05
1.49165e-05
5.13948e-05
6.20927e-05
6.21007e-05
2.32676e-05
6.22134e-05
6.22219e-05
5.93404e-05
7.03314e-05
5.91432e-05
7.03435e-05
6.92436e-05
6.92369e-05
5.93396e-05
7.03326e-05
5.91423e-05
7.0345e-05
1.36031e-05
1.36032e-05
1.36036e-05
1.35946e-05
1.35944e-05
1.35946e-05
1.3595e-05
3.9847e-05
5.18733e-05
1.50995e-05
1.89798e-05
3.94531e-05
5.20996e-05
1.51689e-05
6.92434e-05
6.92367e-05
3.98483e-05
1.50999e-05
5.18763e-05
1.89805e-05
3.94547e-05
1.5169e-05
5.21023e-05
6.24484e-05
6.24567e-05
2.43091e-05
6.256e-05
6.25685e-05
5.97795e-05
7.03595e-05
5.96028e-05
7.03715e-05
6.921e-05
6.92054e-05
5.97779e-05
7.03604e-05
5.96015e-05
7.03731e-05
1.35966e-05
1.35968e-05
1.35972e-05
1.36208e-05
1.36206e-05
1.36209e-05
1.36214e-05
4.09846e-05
5.25454e-05
1.54013e-05
1.96848e-05
4.06198e-05
5.27553e-05
1.54871e-05
6.921e-05
6.92054e-05
4.09889e-05
1.54022e-05
5.25489e-05
1.9686e-05
4.06191e-05
1.54876e-05
5.27595e-05
6.27782e-05
6.27866e-05
2.5373e-05
6.28823e-05
6.2891e-05
6.0177e-05
7.03879e-05
6.00153e-05
7.04003e-05
6.91823e-05
6.91797e-05
6.01751e-05
7.03885e-05
6.00151e-05
7.04021e-05
1.36344e-05
1.36347e-05
1.36352e-05
1.36933e-05
1.36931e-05
1.36935e-05
1.3694e-05
4.20417e-05
5.31704e-05
1.57681e-05
2.04499e-05
4.16951e-05
5.33676e-05
1.58699e-05
6.91824e-05
6.91799e-05
4.20463e-05
1.57695e-05
5.3175e-05
2.04517e-05
4.16942e-05
1.5871e-05
5.3372e-05
6.30866e-05
6.30953e-05
2.64583e-05
6.31846e-05
6.31936e-05
6.05413e-05
7.04177e-05
6.03925e-05
7.04307e-05
6.91605e-05
6.91601e-05
6.05391e-05
7.04177e-05
6.03918e-05
7.0433e-05
1.37182e-05
1.37187e-05
1.37193e-05
1.38115e-05
1.38113e-05
1.38119e-05
1.38125e-05
4.30226e-05
5.37556e-05
1.6198e-05
2.12693e-05
4.2692e-05
5.39409e-05
1.63153e-05
6.91607e-05
6.91603e-05
4.30277e-05
1.62002e-05
5.3761e-05
2.12718e-05
4.26917e-05
1.6317e-05
5.39465e-05
6.33776e-05
6.33864e-05
2.75142e-05
6.34704e-05
6.34796e-05
6.08786e-05
7.04498e-05
6.07405e-05
7.04637e-05
6.91447e-05
6.91465e-05
6.08769e-05
7.04495e-05
6.07395e-05
7.04663e-05
1.38479e-05
1.38486e-05
1.38493e-05
1.39758e-05
1.39755e-05
1.39764e-05
1.3977e-05
4.39372e-05
5.43077e-05
1.6689e-05
2.21367e-05
4.36202e-05
5.44835e-05
1.68212e-05
6.9145e-05
6.91467e-05
4.39425e-05
1.66916e-05
5.43119e-05
2.21396e-05
4.36203e-05
1.68233e-05
5.44872e-05
6.36542e-05
6.36632e-05
2.8575e-05
6.3743e-05
6.37521e-05
6.11944e-05
7.04847e-05
6.10643e-05
7.04998e-05
6.9135e-05
6.91389e-05
6.11926e-05
7.04846e-05
6.10636e-05
7.05026e-05
1.40237e-05
1.40246e-05
1.40253e-05
1.41863e-05
1.4186e-05
1.4187e-05
1.41877e-05
4.47943e-05
5.48303e-05
1.72385e-05
2.30458e-05
4.44889e-05
5.49965e-05
1.73849e-05
6.91353e-05
6.91392e-05
4.47999e-05
1.72416e-05
5.48334e-05
2.30489e-05
4.44894e-05
1.73875e-05
5.50012e-05
6.39189e-05
6.39279e-05
2.96257e-05
6.40042e-05
6.40134e-05
6.14932e-05
7.0523e-05
6.13693e-05
7.05395e-05
6.91313e-05
6.91374e-05
6.14913e-05
7.05231e-05
6.13691e-05
7.05424e-05
1.42458e-05
1.42469e-05
1.42477e-05
1.44432e-05
1.44429e-05
1.44441e-05
1.44447e-05
4.56022e-05
5.53262e-05
1.78436e-05
2.39901e-05
4.53065e-05
5.54853e-05
1.80034e-05
6.91316e-05
6.91376e-05
4.56078e-05
1.78473e-05
5.53261e-05
2.39935e-05
4.53072e-05
1.80066e-05
5.54904e-05
6.41736e-05
6.41827e-05
3.06659e-05
6.4256e-05
6.42656e-05
6.17789e-05
7.05651e-05
6.16601e-05
7.05833e-05
6.91334e-05
6.91416e-05
6.17772e-05
7.05664e-05
6.16601e-05
7.05848e-05
1.45143e-05
1.45155e-05
1.45163e-05
1.47463e-05
1.4746e-05
1.47474e-05
1.4748e-05
4.63678e-05
5.57991e-05
1.85011e-05
2.49635e-05
4.60804e-05
5.59519e-05
1.86737e-05
6.91337e-05
6.91419e-05
4.63733e-05
1.85053e-05
5.57977e-05
2.49671e-05
4.60814e-05
1.86772e-05
5.59588e-05
6.44199e-05
6.44282e-05
3.16807e-05
6.44999e-05
6.45101e-05
6.2055e-05
7.06113e-05
6.19394e-05
7.06311e-05
6.91414e-05
6.91517e-05
6.20531e-05
7.06128e-05
6.19395e-05
7.06326e-05
1.48289e-05
1.48303e-05
1.48311e-05
1.50954e-05
1.50951e-05
1.50968e-05
1.50974e-05
4.70974e-05
5.62494e-05
1.92077e-05
2.59597e-05
4.6817e-05
5.63993e-05
1.93919e-05
6.91416e-05
6.91518e-05
4.71022e-05
1.92123e-05
5.62482e-05
2.59633e-05
4.68181e-05
1.93959e-05
5.64062e-05
6.46587e-05
6.46665e-05
3.26947e-05
6.47373e-05
6.47473e-05
6.23235e-05
7.06616e-05
6.22112e-05
7.06832e-05
6.91549e-05
6.91672e-05
6.23218e-05
7.06631e-05
6.22109e-05
7.06847e-05
1.51895e-05
1.5191e-05
1.51919e-05
1.549e-05
1.54898e-05
1.54915e-05
1.54922e-05
4.77951e-05
5.66809e-05
1.99598e-05
2.69721e-05
4.75213e-05
5.68281e-05
2.01549e-05
6.91551e-05
6.91672e-05
4.77996e-05
1.99646e-05
5.66802e-05
2.69759e-05
4.75225e-05
2.0159e-05
5.68344e-05
6.48907e-05
6.48982e-05
3.36616e-05
6.49683e-05
6.49779e-05
6.25873e-05
7.07162e-05
6.24768e-05
7.07394e-05
6.91738e-05
6.91879e-05
6.25856e-05
7.07177e-05
6.24769e-05
7.07409e-05
1.55954e-05
1.55971e-05
1.5598e-05
1.59293e-05
1.59291e-05
1.59311e-05
1.59318e-05
4.84654e-05
5.70957e-05
2.07534e-05
2.79948e-05
4.81977e-05
5.72398e-05
2.09583e-05
6.91739e-05
6.91878e-05
4.84694e-05
2.07584e-05
5.70938e-05
2.79988e-05
4.81992e-05
2.09625e-05
5.72464e-05
6.51168e-05
6.51241e-05
3.46136e-05
6.51933e-05
6.52025e-05
6.28476e-05
7.07748e-05
6.27384e-05
7.07997e-05
6.91976e-05
6.92136e-05
6.2846e-05
7.07763e-05
6.27387e-05
7.08012e-05
1.60458e-05
1.60477e-05
1.60486e-05
1.64123e-05
1.64121e-05
1.64142e-05
1.64151e-05
4.91112e-05
5.74946e-05
2.15845e-05
2.90225e-05
4.88501e-05
5.76357e-05
2.17981e-05
6.91977e-05
6.92135e-05
4.91147e-05
2.15896e-05
5.74933e-05
2.90267e-05
4.88517e-05
2.18024e-05
5.76425e-05
6.53373e-05
6.53444e-05
3.55505e-05
6.54125e-05
6.54216e-05
6.31056e-05
7.08374e-05
6.29969e-05
7.08639e-05
6.92261e-05
6.92438e-05
6.31034e-05
7.08389e-05
6.29981e-05
7.08654e-05
1.65395e-05
1.65416e-05
1.65425e-05
1.69375e-05
1.69374e-05
1.69396e-05
1.69405e-05
4.97341e-05
5.78791e-05
2.24488e-05
3.00505e-05
4.94806e-05
5.80171e-05
2.26702e-05
6.92263e-05
6.92437e-05
4.97374e-05
2.2454e-05
5.7878e-05
3.00546e-05
4.94827e-05
2.26744e-05
5.8024e-05
6.55524e-05
6.55596e-05
3.64454e-05
6.56263e-05
6.56353e-05
6.33614e-05
7.09038e-05
6.32531e-05
7.09327e-05
6.92592e-05
6.92783e-05
6.33591e-05
7.09053e-05
6.32548e-05
7.09333e-05
1.70751e-05
1.70773e-05
1.70783e-05
1.75033e-05
1.75032e-05
1.75055e-05
1.75066e-05
5.03367e-05
5.82499e-05
2.33419e-05
3.10749e-05
5.00911e-05
5.83847e-05
2.35698e-05
6.92594e-05
6.92784e-05
5.03393e-05
2.33469e-05
5.82491e-05
3.1079e-05
5.00924e-05
2.35738e-05
5.83917e-05
6.57626e-05
6.57697e-05
3.73472e-05
6.58352e-05
6.58439e-05
6.36149e-05
7.09726e-05
6.35081e-05
7.10045e-05
6.92962e-05
6.93167e-05
6.36131e-05
7.09753e-05
6.3509e-05
7.10047e-05
1.76507e-05
1.76531e-05
1.76542e-05
1.81076e-05
1.81074e-05
1.81099e-05
1.81111e-05
5.09194e-05
5.86077e-05
2.42593e-05
3.20907e-05
5.06814e-05
5.87396e-05
2.44927e-05
6.92967e-05
6.93171e-05
5.09217e-05
2.42642e-05
5.86067e-05
3.20947e-05
5.06829e-05
2.44966e-05
5.87459e-05
6.59681e-05
6.5975e-05
3.81991e-05
6.60392e-05
6.60476e-05
6.38664e-05
7.10459e-05
6.37605e-05
7.10789e-05
6.9337e-05
6.93588e-05
6.38648e-05
7.10472e-05
6.37616e-05
7.10803e-05
1.82642e-05
1.82667e-05
1.82679e-05
1.87478e-05
1.87477e-05
1.87504e-05
1.87516e-05
5.14828e-05
5.89533e-05
2.51981e-05
3.30945e-05
5.12531e-05
5.9082e-05
2.54362e-05
6.93379e-05
6.93595e-05
5.14852e-05
2.52029e-05
5.89524e-05
3.30984e-05
5.1254e-05
2.54401e-05
5.90882e-05
6.61687e-05
6.61755e-05
3.90458e-05
6.62383e-05
6.62464e-05
6.41149e-05
7.11219e-05
6.40105e-05
7.11561e-05
6.93813e-05
6.94043e-05
6.41138e-05
7.11234e-05
6.40109e-05
7.11575e-05
1.89131e-05
1.89158e-05
1.8917e-05
1.94213e-05
1.94212e-05
1.9424e-05
1.94254e-05
5.20266e-05
5.92869e-05
2.61543e-05
3.40823e-05
5.18039e-05
5.94123e-05
2.6396e-05
6.93825e-05
6.94055e-05
5.20296e-05
2.61594e-05
5.92862e-05
3.40862e-05
5.18062e-05
2.64003e-05
5.94183e-05
6.63646e-05
6.63714e-05
3.98436e-05
6.64322e-05
6.64404e-05
6.43596e-05
7.12005e-05
6.42562e-05
7.12357e-05
6.94289e-05
6.94533e-05
6.43577e-05
7.12021e-05
6.42572e-05
7.12372e-05
1.95944e-05
1.95973e-05
1.95987e-05
2.01249e-05
2.01248e-05
2.01278e-05
2.01293e-05
5.25507e-05
5.96087e-05
2.71237e-05
3.50513e-05
5.23366e-05
5.97309e-05
2.7368e-05
6.94305e-05
6.94547e-05
5.25537e-05
2.71289e-05
5.96087e-05
3.50551e-05
5.23384e-05
2.73725e-05
5.97372e-05
6.65556e-05
6.65622e-05
4.06421e-05
6.66213e-05
6.66298e-05
6.45983e-05
7.12813e-05
6.44985e-05
7.13169e-05
6.94797e-05
6.95053e-05
6.45967e-05
7.1283e-05
6.44994e-05
7.13189e-05
2.03049e-05
2.0308e-05
2.03095e-05
5.3054e-05
5.99191e-05
2.81009e-05
3.59989e-05
5.28476e-05
6.00379e-05
2.83461e-05
6.94814e-05
6.95068e-05
5.30572e-05
2.81063e-05
5.992e-05
3.6003e-05
5.28507e-05
2.8351e-05
6.00442e-05
6.6742e-05
6.67484e-05
4.13986e-05
6.68056e-05
6.68142e-05
6.95594e-05
6.95411e-05
6.95612e-05
6.95431e-05
5.97101e-05
5.97201e-05
1.88895e-05
5.99098e-05
5.99204e-05
6.95077e-05
6.9525e-05
6.95099e-05
6.95271e-05
1.90097e-05
6.01987e-05
6.0209e-05
6.00101e-05
6.00194e-05
5.48437e-05
7.00988e-05
7.01207e-05
5.43644e-05
3.10596e-05
4.64299e-05
1.47092e-05
1.62884e-05
4.68075e-05
1.46751e-05
3.04952e-05
3.10578e-05
4.64328e-05
1.4709e-05
1.62886e-05
4.68082e-05
1.46749e-05
3.04947e-05
5.49812e-05
7.01493e-05
7.01288e-05
5.54213e-05
5.49799e-05
7.01462e-05
7.01257e-05
5.54199e-05
3.13444e-05
1.63416e-05
4.73632e-05
1.46218e-05
4.70012e-05
1.46473e-05
3.19025e-05
3.13434e-05
1.63417e-05
4.73636e-05
1.46215e-05
4.70035e-05
1.4647e-05
3.1901e-05
5.97146e-05
5.97088e-05
1.88884e-05
5.99148e-05
5.99094e-05
6.95596e-05
6.95415e-05
6.95095e-05
6.95267e-05
1.90092e-05
6.02037e-05
6.01983e-05
6.00148e-05
6.0008e-05
6.95082e-05
6.95253e-05
3.10576e-05
4.64332e-05
1.47095e-05
1.62886e-05
4.68113e-05
1.46755e-05
3.04994e-05
5.48451e-05
7.00989e-05
7.01207e-05
5.43642e-05
3.10573e-05
1.47088e-05
4.64289e-05
1.62888e-05
1.46748e-05
4.68124e-05
3.04988e-05
5.49807e-05
7.01505e-05
7.01299e-05
5.54223e-05
3.13473e-05
1.63417e-05
4.73659e-05
1.46221e-05
4.70045e-05
1.46477e-05
3.18985e-05
5.49798e-05
7.0146e-05
7.01257e-05
5.54213e-05
3.13462e-05
1.63419e-05
1.46214e-05
4.73667e-05
1.4647e-05
4.7e-05
3.18989e-05
5.48356e-05
7.01012e-05
7.01229e-05
5.43694e-05
3.10549e-05
1.47091e-05
4.64288e-05
1.62882e-05
1.4675e-05
4.68057e-05
3.0498e-05
5.48405e-05
7.00973e-05
7.01193e-05
5.43666e-05
3.13444e-05
1.63411e-05
4.7359e-05
1.46215e-05
4.69985e-05
1.46471e-05
3.18972e-05
5.49846e-05
7.01484e-05
7.01282e-05
5.54125e-05
3.13456e-05
1.63413e-05
1.46216e-05
4.73607e-05
1.46471e-05
4.70001e-05
3.18981e-05
5.49821e-05
7.01448e-05
7.01243e-05
5.5417e-05
5.97151e-05
5.97102e-05
1.88889e-05
5.99151e-05
5.99109e-05
6.95595e-05
6.95411e-05
6.95092e-05
6.95266e-05
1.90106e-05
6.02036e-05
6.01986e-05
6.00141e-05
6.00098e-05
6.95077e-05
6.95251e-05
3.10592e-05
1.47093e-05
4.64302e-05
1.62889e-05
1.46753e-05
4.68133e-05
3.04944e-05
5.48386e-05
7.01016e-05
7.01235e-05
5.43713e-05
5.48381e-05
7.00991e-05
7.01211e-05
5.4371e-05
3.13442e-05
1.63414e-05
1.46214e-05
4.73628e-05
1.46469e-05
4.70017e-05
3.1902e-05
3.13441e-05
1.63419e-05
1.46219e-05
4.73665e-05
1.46474e-05
4.70004e-05
3.19023e-05
5.49862e-05
7.01489e-05
7.01285e-05
5.54148e-05
5.49859e-05
7.01465e-05
7.01259e-05
5.54143e-05
6.95584e-05
6.95402e-05
6.95612e-05
6.95429e-05
1.90264e-05
6.01944e-05
6.02042e-05
6.00052e-05
6.00153e-05
6.95069e-05
6.95242e-05
6.95095e-05
6.95269e-05
6.94922e-05
6.94759e-05
6.94943e-05
6.94781e-05
6.02932e-05
6.03032e-05
1.96174e-05
6.04725e-05
6.04822e-05
6.94456e-05
6.94609e-05
6.94478e-05
6.94631e-05
1.97565e-05
6.07313e-05
6.07413e-05
6.05619e-05
6.05711e-05
5.59455e-05
7.01506e-05
5.55414e-05
7.017e-05
3.273e-05
4.75476e-05
1.46026e-05
1.65333e-05
3.21821e-05
4.78927e-05
1.45856e-05
3.27291e-05
4.75498e-05
1.46023e-05
1.65335e-05
3.21808e-05
4.78946e-05
1.45853e-05
5.60547e-05
7.01951e-05
7.01772e-05
5.64264e-05
5.60535e-05
7.01921e-05
7.01743e-05
5.64252e-05
3.30078e-05
1.66083e-05
4.84003e-05
1.45668e-05
4.8071e-05
1.45753e-05
3.35441e-05
3.30062e-05
1.66085e-05
4.84031e-05
1.45665e-05
4.80723e-05
1.4575e-05
3.35431e-05
6.02977e-05
6.0291e-05
1.96159e-05
6.04771e-05
6.04707e-05
6.94924e-05
6.94762e-05
6.94474e-05
6.94627e-05
1.9756e-05
6.07359e-05
6.07284e-05
6.05663e-05
6.05593e-05
6.94458e-05
6.9461e-05
3.27281e-05
4.75513e-05
1.46031e-05
1.65334e-05
3.21859e-05
4.78989e-05
1.4586e-05
5.59468e-05
7.01505e-05
5.55411e-05
7.01697e-05
3.27276e-05
1.46023e-05
4.75464e-05
1.6534e-05
3.21846e-05
1.45853e-05
4.7898e-05
5.60541e-05
7.01965e-05
7.01784e-05
5.64272e-05
3.30107e-05
1.66084e-05
4.84067e-05
1.45673e-05
4.80717e-05
1.45758e-05
3.35421e-05
5.60531e-05
7.01917e-05
7.01739e-05
5.64261e-05
3.30093e-05
1.66089e-05
1.45665e-05
4.8404e-05
1.4575e-05
4.80685e-05
3.35421e-05
5.59382e-05
7.0153e-05
5.55457e-05
7.01722e-05
3.27262e-05
1.46025e-05
4.75453e-05
1.65334e-05
3.21842e-05
1.45854e-05
4.78916e-05
5.59426e-05
7.01492e-05
5.55436e-05
7.01686e-05
3.3007e-05
1.66075e-05
4.83963e-05
1.45666e-05
4.80678e-05
1.45751e-05
3.35392e-05
5.60572e-05
7.01943e-05
7.01767e-05
5.64178e-05
3.30091e-05
1.66083e-05
1.45667e-05
4.83986e-05
1.45752e-05
4.80682e-05
3.35402e-05
5.60553e-05
7.01906e-05
7.01728e-05
5.64222e-05
6.02967e-05
6.0292e-05
1.96149e-05
6.04767e-05
6.04721e-05
6.94921e-05
6.94758e-05
6.94468e-05
6.94622e-05
1.97569e-05
6.07353e-05
6.07301e-05
6.05649e-05
6.05602e-05
6.94453e-05
6.94607e-05
3.27298e-05
1.46028e-05
4.75474e-05
1.65339e-05
3.21818e-05
1.45858e-05
4.78974e-05
5.59402e-05
7.01533e-05
5.5547e-05
7.01727e-05
5.59396e-05
7.01508e-05
5.55466e-05
7.01703e-05
3.30066e-05
1.66079e-05
1.45663e-05
4.83991e-05
1.45748e-05
4.80702e-05
3.35449e-05
3.30069e-05
1.66086e-05
1.4567e-05
4.84048e-05
1.45755e-05
4.80694e-05
3.35437e-05
5.60583e-05
7.01946e-05
7.01769e-05
5.64196e-05
5.60578e-05
7.01923e-05
7.01743e-05
5.64189e-05
6.94914e-05
6.94751e-05
6.9494e-05
6.94775e-05
1.97739e-05
6.07265e-05
6.07352e-05
6.05565e-05
6.05655e-05
6.94447e-05
6.946e-05
6.9447e-05
6.94625e-05
6.94311e-05
6.94166e-05
6.94333e-05
6.94189e-05
6.08158e-05
6.0825e-05
2.04348e-05
6.09762e-05
6.09859e-05
6.93892e-05
6.94026e-05
6.93915e-05
6.94049e-05
2.059e-05
6.12085e-05
6.12186e-05
6.10564e-05
6.10653e-05
5.68634e-05
7.01959e-05
5.65207e-05
7.02129e-05
3.43378e-05
4.85708e-05
1.45653e-05
1.68645e-05
3.3815e-05
4.8886e-05
1.4567e-05
3.4339e-05
4.85715e-05
1.45649e-05
1.68648e-05
3.38137e-05
4.88882e-05
1.45666e-05
5.6949e-05
7.02349e-05
7.02192e-05
5.72655e-05
5.69478e-05
7.02321e-05
7.02165e-05
5.72645e-05
3.46042e-05
1.69606e-05
4.93506e-05
1.45816e-05
4.90486e-05
1.45718e-05
3.51118e-05
3.46011e-05
1.69608e-05
4.93526e-05
1.45812e-05
4.905e-05
1.45715e-05
3.51126e-05
6.08202e-05
6.08123e-05
2.04333e-05
6.09806e-05
6.09738e-05
6.9431e-05
6.94169e-05
6.93912e-05
6.94045e-05
2.05892e-05
6.12133e-05
6.12062e-05
6.10613e-05
6.10532e-05
6.93893e-05
6.94025e-05
3.43364e-05
4.8571e-05
1.45659e-05
1.68646e-05
3.38185e-05
4.88915e-05
1.45676e-05
5.68639e-05
7.01955e-05
5.65202e-05
7.02124e-05
3.43363e-05
1.45651e-05
4.85694e-05
1.68653e-05
3.3817e-05
1.45669e-05
4.88896e-05
5.69479e-05
7.02363e-05
7.02205e-05
5.72657e-05
3.46063e-05
1.69607e-05
4.93557e-05
1.45823e-05
4.90495e-05
1.45725e-05
3.51105e-05
5.69469e-05
7.0232e-05
7.0216e-05
5.72646e-05
3.46047e-05
1.69613e-05
1.45816e-05
4.93539e-05
1.45717e-05
4.90475e-05
3.51103e-05
5.68558e-05
7.01981e-05
5.65241e-05
7.02152e-05
3.43361e-05
1.45652e-05
4.85687e-05
1.68648e-05
3.38167e-05
1.45669e-05
4.88835e-05
5.68604e-05
7.01944e-05
5.65222e-05
7.02114e-05
3.46034e-05
1.69595e-05
4.93481e-05
1.45815e-05
4.90462e-05
1.45717e-05
3.51077e-05
5.69505e-05
7.02343e-05
7.02181e-05
5.72571e-05
3.46041e-05
1.69607e-05
1.45816e-05
4.93492e-05
1.45718e-05
4.90474e-05
3.51094e-05
5.69489e-05
7.02307e-05
7.0215e-05
5.72617e-05
6.08187e-05
6.08137e-05
2.0432e-05
6.098e-05
6.09756e-05
6.94308e-05
6.94164e-05
6.93904e-05
6.94038e-05
2.05901e-05
6.1213e-05
6.12076e-05
6.10594e-05
6.10545e-05
6.93889e-05
6.94024e-05
3.43402e-05
1.45656e-05
4.85686e-05
1.68651e-05
3.38144e-05
1.45673e-05
4.88902e-05
5.68576e-05
7.01984e-05
5.65247e-05
7.02153e-05
5.68569e-05
7.0196e-05
5.65241e-05
7.0213e-05
3.46027e-05
1.69599e-05
1.45812e-05
4.9349e-05
1.45713e-05
4.90481e-05
3.51155e-05
3.46013e-05
1.69609e-05
1.4582e-05
4.93542e-05
1.45721e-05
4.90466e-05
3.51134e-05
5.69509e-05
7.02345e-05
7.02189e-05
5.72585e-05
5.69503e-05
7.02322e-05
7.02165e-05
5.72578e-05
6.94303e-05
6.94159e-05
6.94326e-05
6.9418e-05
2.06096e-05
6.12045e-05
6.12121e-05
6.10518e-05
6.10598e-05
6.93886e-05
6.94019e-05
6.93906e-05
6.94041e-05
6.93756e-05
6.93631e-05
6.93779e-05
6.93655e-05
6.12846e-05
6.12942e-05
2.13297e-05
6.14299e-05
6.14397e-05
6.93385e-05
6.935e-05
6.93408e-05
6.93523e-05
2.14979e-05
6.16408e-05
6.16499e-05
6.15025e-05
6.15115e-05
5.76327e-05
7.02351e-05
5.73389e-05
7.02502e-05
3.58639e-05
4.95057e-05
1.45962e-05
1.7279e-05
3.53707e-05
4.97946e-05
1.46145e-05
3.5863e-05
4.9507e-05
1.45957e-05
1.72791e-05
3.53678e-05
4.97978e-05
1.4614e-05
5.76999e-05
7.02696e-05
7.02557e-05
5.79731e-05
5.76985e-05
7.02668e-05
7.02531e-05
5.79719e-05
3.61125e-05
1.73953e-05
5.02212e-05
1.46645e-05
4.99441e-05
1.46376e-05
3.65914e-05
3.61115e-05
1.73953e-05
5.02234e-05
1.46641e-05
4.99451e-05
1.46371e-05
3.65901e-05
6.12896e-05
6.12811e-05
2.13277e-05
6.14348e-05
6.1427e-05
6.93752e-05
6.93629e-05
6.93404e-05
6.9352e-05
2.1497e-05
6.1645e-05
6.16372e-05
6.15073e-05
6.14985e-05
6.9338e-05
6.93493e-05
3.58614e-05
4.95069e-05
1.45968e-05
1.72789e-05
3.53726e-05
4.98017e-05
1.46151e-05
5.76326e-05
7.02344e-05
5.73379e-05
7.02496e-05
3.58608e-05
1.45961e-05
4.95047e-05
1.72798e-05
3.53709e-05
1.46145e-05
4.9798e-05
5.76985e-05
7.0271e-05
7.02571e-05
5.79728e-05
3.6115e-05
1.73951e-05
5.02269e-05
1.46651e-05
4.99441e-05
1.46383e-05
3.65884e-05
5.76973e-05
7.02663e-05
7.02526e-05
5.79714e-05
3.61135e-05
1.7396e-05
1.46646e-05
5.02233e-05
1.46376e-05
4.9943e-05
3.65871e-05
5.76256e-05
7.02368e-05
5.73411e-05
7.02516e-05
3.58604e-05
1.45962e-05
4.95042e-05
1.72793e-05
3.53709e-05
1.46145e-05
4.97941e-05
5.76301e-05
7.02338e-05
5.73398e-05
7.02489e-05
3.61123e-05
1.7394e-05
5.02176e-05
1.46645e-05
4.99419e-05
1.46373e-05
3.65873e-05
5.77001e-05
7.0268e-05
7.02545e-05
5.79651e-05
3.61138e-05
1.73955e-05
1.46646e-05
5.02199e-05
1.46377e-05
4.99425e-05
3.65875e-05
5.76991e-05
7.02657e-05
7.02516e-05
5.79695e-05
6.12881e-05
6.12831e-05
2.13273e-05
6.1434e-05
6.14292e-05
6.93754e-05
6.9363e-05
6.93397e-05
6.93512e-05
2.14977e-05
6.16442e-05
6.16396e-05
6.15058e-05
6.1501e-05
6.93383e-05
6.93498e-05
3.58625e-05
1.45965e-05
4.95039e-05
1.72793e-05
3.53677e-05
1.46149e-05
4.97981e-05
5.76268e-05
7.02375e-05
5.73413e-05
7.02525e-05
5.76261e-05
7.02352e-05
5.73406e-05
7.02502e-05
3.61112e-05
1.73941e-05
1.46641e-05
5.02199e-05
1.46371e-05
4.99435e-05
3.65914e-05
3.61117e-05
1.73954e-05
1.4665e-05
5.02233e-05
1.4638e-05
4.99424e-05
3.65887e-05
5.77001e-05
7.02692e-05
7.02554e-05
5.79661e-05
5.76994e-05
7.02669e-05
7.0253e-05
5.79654e-05
6.9375e-05
6.93627e-05
6.93771e-05
6.93645e-05
2.152e-05
6.16368e-05
6.16445e-05
6.14985e-05
6.1506e-05
6.9338e-05
6.93495e-05
6.93399e-05
6.93514e-05
6.93257e-05
6.93152e-05
6.9328e-05
6.93175e-05
6.17098e-05
6.17187e-05
2.22877e-05
6.18415e-05
6.18512e-05
6.92932e-05
6.93028e-05
6.92954e-05
6.93051e-05
2.24666e-05
6.20336e-05
6.20426e-05
6.19076e-05
6.19162e-05
5.82853e-05
7.02693e-05