/*--------------------------------*- C++ -*----------------------------------*\
| =========                 |                                                 |
| \\      /  F ield         | OpenFOAM: The Open Source CFD Toolbox           |
|  \\    /   O peration     | Version:  2312                                  |
|   \\  /    A nd           | Website:  www.openfoam.com                      |
|    \\/     M anipulation  |                                                 |
\*---------------------------------------------------------------------------*/
FoamFile
{
    version     2.0;
    format      ascii;
    arch        "LSB;label=32;scalar=64";
    class       surfaceScalarField;
    location    "850";
    object      phi;
}
// * * * * * * * * * * * * * * * * * * * * * * * * * * * * * * * * * * * * * //

dimensions      [0 3 -1 0 0 0 0];

oriented        oriented;

internalField   nonuniform List<scalar> 
123680
(
-8.18438e-07
-8.19671e-07
4.33746e-07
4.33966e-07
0.00115006
-0.00114929
-1.50277e-06
8.18806e-07
3.99302e-07
0.00113925
-4.98899e-07
1.12941e-06
1.47126e-07
7.47317e-07
-5.44711e-07
8.47201e-08
-1.22931e-06
-0.0011388
-1.50016e-06
8.19276e-07
4.05398e-07
0.00113912
-4.96244e-07
1.12656e-06
1.44011e-07
7.47307e-07
-5.44906e-07
8.481e-08
-1.22949e-06
-0.00113868
1.53179e-06
1.49478e-06
-4.76306e-07
-4.79317e-07
0.000274438
-0.000276509
-7.98786e-07
-7.99926e-07
-0.00115233
4.26027e-07
4.26293e-07
0.00115308
-0.0011405
-1.49423e-06
7.99035e-07
3.90013e-07
0.0011409
-4.87267e-07
1.13506e-06
1.5359e-07
7.54607e-07
-5.29961e-07
-1.21356e-06
9.28828e-08
-0.00114038
-1.49156e-06
7.99421e-07
3.96113e-07
0.00114077
-4.8466e-07
1.13224e-06
1.50586e-07
7.54644e-07
-5.3016e-07
-1.21374e-06
9.29609e-08
-0.000276524
1.52315e-06
1.48619e-06
-4.63626e-07
-4.66525e-07
0.000274445
-7.79062e-07
-7.79899e-07
-0.00115528
4.18435e-07
4.18767e-07
0.001156
-0.00114201
-1.48474e-06
7.79421e-07
3.80306e-07
0.00114236
-4.75798e-07
1.14048e-06
1.59955e-07
7.61824e-07
-5.15345e-07
-1.19756e-06
1.00971e-07
-0.00114188
-1.48213e-06
7.7959e-07
3.86239e-07
0.00114222
-4.73069e-07
1.13766e-06
1.57054e-07
7.61886e-07
-5.15475e-07
-1.19767e-06
1.01022e-07
-0.000276478
1.5137e-06
1.47677e-06
-4.50611e-07
-4.5345e-07
0.000274392
-7.58309e-07
-7.58903e-07
-0.00115813
4.10138e-07
4.10629e-07
0.00115883
-0.00114331
-1.47456e-06
7.58657e-07
3.71208e-07
0.00114361
-4.64193e-07
1.14571e-06
1.66156e-07
7.69078e-07
-5.01064e-07
-1.1814e-06
1.0906e-07
-0.00114318
-1.47186e-06
7.58728e-07
3.7695e-07
0.00114348
-4.61383e-07
1.14291e-06
1.63349e-07
7.69117e-07
-5.01185e-07
-1.18152e-06
1.0911e-07
-0.000276378
1.50347e-06
1.46659e-06
-4.37533e-07
-4.40287e-07
0.000274286
-7.37004e-07
-7.37455e-07
-0.00116088
4.01712e-07
4.02343e-07
0.00116155
-0.00114442
-1.46367e-06
7.37493e-07
3.61816e-07
0.00114468
-4.52835e-07
1.15086e-06
1.72032e-07
7.76268e-07
-4.86896e-07
-1.16518e-06
1.17046e-07
-0.00114429
-1.46088e-06
7.3738e-07
3.67331e-07
0.00114454
-4.49952e-07
1.14812e-06
1.69308e-07
7.76372e-07
-4.86999e-07
-1.16524e-06
1.17125e-07
-0.000276232
1.49252e-06
1.45562e-06
-4.24384e-07
-4.27119e-07
0.000274135
-7.14976e-07
-7.15236e-07
-0.00116352
3.92971e-07
3.93694e-07
0.00116416
-0.00114534
-1.45221e-06
7.15414e-07
3.52309e-07
0.00114555
-4.41665e-07
1.1561e-06
1.77848e-07
7.8339e-07
-4.73024e-07
-1.1491e-06
1.24862e-07
-0.00114521
-1.44936e-06
7.15223e-07
3.57554e-07
0.00114541
-4.38753e-07
1.15344e-06
1.75101e-07
7.83496e-07
-4.7307e-07
-1.14911e-06
1.25018e-07
-0.000276047
1.48104e-06
1.44414e-06
-4.11339e-07
-4.14097e-07
0.000273947
-6.92316e-07
-6.92588e-07
-0.00116605
3.84155e-07
3.84879e-07
0.00116667
-0.00114608
-1.44018e-06
6.92646e-07
3.41741e-07
0.00114624
-4.30697e-07
1.16143e-06
1.83715e-07
7.90418e-07
-4.59449e-07
-1.13322e-06
1.32599e-07
-0.00114595
-1.43735e-06
6.9251e-07
3.47049e-07
0.0011461
-4.27809e-07
1.15876e-06
1.8095e-07
7.90528e-07
-4.59491e-07
-1.13325e-06
1.32749e-07
-0.000275831
1.46902e-06
1.43207e-06
-3.98397e-07
-4.01205e-07
0.000273729
-6.68975e-07
-6.69279e-07
-0.00116848
3.75114e-07
3.75812e-07
0.00116906
-0.00114663
-1.42791e-06
6.69227e-07
3.30314e-07
0.00114675
-4.19885e-07
1.16675e-06
1.89471e-07
7.97319e-07
-4.46213e-07
-1.1177e-06
1.40227e-07
-0.0011465
-1.42509e-06
6.69167e-07
3.35689e-07
0.00114662
-4.16994e-07
1.16412e-06
1.86721e-07
7.97404e-07
-4.46258e-07
-1.11771e-06
1.40374e-07
-0.000275592
1.45678e-06
1.41976e-06
-3.85797e-07
-3.88678e-07
0.00027349
-6.45023e-07
-6.45392e-07
-0.00117078
3.65881e-07
3.66475e-07
0.00117134
-0.00114702
-1.41555e-06
6.45238e-07
3.18246e-07
0.0011471
-4.09302e-07
1.17208e-06
1.95136e-07
8.03933e-07
-4.3335e-07
-1.10259e-06
1.47731e-07
-0.00114689
-1.4127e-06
6.4528e-07
3.23606e-07
0.00114697
-4.06419e-07
1.16946e-06
1.92399e-07
8.03981e-07
-4.33404e-07
-1.10263e-06
1.47847e-07
-0.000275336
1.44445e-06
1.40735e-06
-3.73595e-07
-3.76539e-07
0.000273235
-6.20445e-07
-6.20872e-07
-0.00117297
3.50682e-07
3.56915e-07
0.0011735
-0.00114726
-1.40324e-06
6.20625e-07
3.05271e-07
0.0011473
-3.99012e-07
1.17737e-06
2.00663e-07
8.10511e-07
-4.20918e-07
-1.08795e-06
1.54985e-07
-0.00114713
-1.40043e-06
6.20772e-07
3.1085e-07
0.00114716
-3.96171e-07
1.17473e-06
1.97905e-07
8.10477e-07
-4.20935e-07
-1.08801e-06
1.55141e-07
-0.000275071
1.43221e-06
1.39508e-06
-3.61922e-07
-3.64884e-07
0.000272971
-5.95605e-07
-5.95856e-07
-0.00117503
3.41137e-07
3.47391e-07
0.00117554
-0.00114735
-1.39108e-06
5.95703e-07
2.91617e-07
0.00114736
-3.8898e-07
1.18253e-06
2.06107e-07
8.16672e-07
-4.08883e-07
-1.07387e-06
1.62072e-07
-0.00114722
-1.38829e-06
5.95869e-07
2.97195e-07
0.00114722
-3.86206e-07
1.17986e-06
2.0328e-07
8.16711e-07
-4.08924e-07
-1.0739e-06
1.6219e-07
-0.000274801
1.42006e-06
1.38293e-06
-3.50717e-07
-3.53681e-07
0.000272703
-5.70365e-07
-5.70766e-07
-0.00117698
3.31707e-07
3.37885e-07
0.00117745
-0.00114731
-1.37919e-06
5.70546e-07
2.77064e-07
0.00114729
-3.79323e-07
1.18749e-06
2.11352e-07
8.2262e-07
-3.97314e-07
-1.06037e-06
1.68894e-07
-0.00114718
-1.37644e-06
5.70592e-07
2.82703e-07
0.00114715
-3.76555e-07
1.1848e-06
2.08512e-07
8.22741e-07
-3.9736e-07
-1.06031e-06
1.69011e-07
-0.000274531
1.40822e-06
1.37109e-06
-3.40044e-07
-3.43005e-07
0.000272434
-5.45059e-07
-5.45382e-07
-0.00117879
3.22285e-07
3.28532e-07
0.00117923
-0.00114716
-1.36769e-06
5.45187e-07
2.61966e-07
0.00114711
-3.69986e-07
1.19216e-06
2.16427e-07
8.28331e-07
-3.8619e-07
-1.04744e-06
1.75476e-07
-0.00114703
-1.36494e-06
5.45182e-07
2.67645e-07
0.00114698
-3.6721e-07
1.18949e-06
2.13617e-07
8.28419e-07
-3.86215e-07
-1.04744e-06
1.75612e-07
-0.000274262
1.39664e-06
1.35952e-06
-3.29863e-07
-3.3281e-07
0.000272169
-5.19565e-07
-5.1982e-07
-0.00118048
3.12875e-07
3.19139e-07
0.00118089
-0.00114691
-1.35652e-06
5.19575e-07
2.46313e-07
0.00114684
-3.61019e-07
1.19659e-06
2.2131e-07
8.33793e-07
-3.75596e-07
-1.03504e-06
1.81736e-07
-0.00114678
-1.35376e-06
5.1961e-07
2.51949e-07
0.0011467
-3.58257e-07
1.19392e-06
2.18505e-07
8.33951e-07
-3.75602e-07
-1.03508e-06
1.8187e-07
-0.000273999
1.38555e-06
1.34844e-06
-3.20254e-07
-3.23188e-07
0.000271908
-4.93864e-07
-4.94161e-07
-0.00118204
3.03402e-07
3.09719e-07
0.00118241
-0.00114657
-1.34588e-06
4.93911e-07
2.30169e-07
0.00114648
-3.5242e-07
1.20082e-06
2.25955e-07
8.39064e-07
-3.6544e-07
-1.02332e-06
1.8771e-07
-0.00114644
-1.34311e-06
4.93899e-07
2.35797e-07
0.00114634
-3.49672e-07
1.19811e-06
2.23134e-07
8.39172e-07
-3.65437e-07
-1.0233e-06
1.87871e-07
-0.000273742
1.37476e-06
1.33768e-06
-3.1108e-07
-3.14017e-07
0.000271655
-4.68056e-07
-4.68319e-07
-0.00118346
2.9379e-07
3.00181e-07
0.00118381
-0.00114616
-1.3356e-06
4.68135e-07
2.13697e-07
0.00114606
-3.442e-07
1.20476e-06
2.30368e-07
8.44138e-07
-3.55774e-07
-1.01209e-06
1.9336e-07
-0.00114603
-1.33288e-06
4.68001e-07
2.19406e-07
0.00114592
-3.41464e-07
1.20204e-06
2.2755e-07
8.44194e-07
-3.55772e-07
-1.01209e-06
1.93541e-07
-0.000273493
1.36452e-06
1.32748e-06
-3.02492e-07
-3.05403e-07
0.000271409
-4.42139e-07
-4.42377e-07
-0.00118476
2.83969e-07
2.90388e-07
0.00118507
-0.00114569
-1.3258e-06
4.42298e-07
1.97113e-07
0.00114557
-3.36337e-07
1.20844e-06
2.34579e-07
8.48839e-07
-3.46566e-07
-1.00147e-06
1.98755e-07
-0.00114556
-1.3231e-06
4.42038e-07
2.02976e-07
0.00114543
-3.33639e-07
1.20572e-06
2.31743e-07
8.48899e-07
-3.46538e-07
-1.00145e-06
1.9896e-07
-0.000273252
1.35469e-06
1.31771e-06
-2.9437e-07
-2.97241e-07
0.000271171
-4.16122e-07
-4.16333e-07
-0.00118593
2.79722e-07
2.8032e-07
0.0011862
-0.00114517
-1.31645e-06
4.16356e-07
1.80732e-07
0.00114504
-3.2886e-07
1.21185e-06
2.38492e-07
8.53251e-07
-3.37785e-07
-9.91404e-07
2.03872e-07
-0.00114504
-1.31381e-06
4.16039e-07
1.86613e-07
0.0011449
-3.26158e-07
1.20911e-06
2.35705e-07
8.53316e-07
-3.3774e-07
-9.91389e-07
2.04095e-07
-0.000273021
1.34537e-06
1.30843e-06
-2.8674e-07
-2.89597e-07
0.000270943
-3.90253e-07
-3.90302e-07
-0.00118697
2.69401e-07
2.69991e-07
0.00118721
-0.00114462
-1.3076e-06
3.90447e-07
1.6452e-07
0.00114448
-3.21825e-07
1.21505e-06
2.42235e-07
8.57448e-07
-3.29428e-07
-9.81856e-07
2.08748e-07
-0.00114448
-1.30495e-06
3.90092e-07
1.7047e-07
0.00114434
-3.19106e-07
1.21223e-06
2.39402e-07
8.57535e-07
-3.29371e-07
-9.81821e-07
2.08962e-07
-0.000272799
1.33656e-06
1.29965e-06
-2.7962e-07
-2.82396e-07
0.000270725
-3.64231e-07
-3.64341e-07
-0.00118789
2.5871e-07
2.59259e-07
0.0011881
-0.00114404
-1.29931e-06
3.64539e-07
1.48819e-07
0.00114389
-3.15139e-07
1.21792e-06
2.45625e-07
8.61442e-07
-3.21458e-07
-9.72783e-07
2.13383e-07
-0.0011439
-1.2966e-06
3.64168e-07
1.54809e-07
0.00114375
-3.12487e-07
1.21514e-06
2.42813e-07
8.61538e-07
-3.21418e-07
-9.72751e-07
2.13566e-07
-0.000272586
1.32817e-06
1.29128e-06
-2.72879e-07
-2.75656e-07
0.000270515
-3.3839e-07
-3.38494e-07
-0.00118869
2.47597e-07
2.48112e-07
0.00118887
-0.00114344
-1.29142e-06
3.38709e-07
1.3374e-07
0.00114329
-3.08892e-07
1.22052e-06
2.48773e-07
8.65219e-07
-3.13899e-07
-9.64203e-07
2.17743e-07
-0.0011433
-1.28877e-06
3.38306e-07
1.39581e-07
0.00114315
-3.06196e-07
1.21775e-06
2.45936e-07
8.65315e-07
-3.13859e-07
-9.64163e-07
2.17961e-07
-0.000272384
1.32029e-06
1.28342e-06
-2.66598e-07
-2.69376e-07
0.000270316
-3.12757e-07
-3.12822e-07
-0.00118937
2.36067e-07
2.36612e-07
0.00118952
-0.00114283
-1.28405e-06
3.12998e-07
1.19265e-07
0.00114268
-3.02997e-07
1.2229e-06
2.5171e-07
8.68802e-07
-3.06657e-07
-9.56033e-07
2.2189e-07
-0.00114269
-1.28132e-06
3.12642e-07
1.25074e-07
0.00114254
-3.00327e-07
1.22016e-06
2.48851e-07
8.68908e-07
-3.06638e-07
-9.55996e-07
2.22056e-07
-0.000272191
1.31284e-06
1.276e-06
-2.60736e-07
-2.63518e-07
0.000270126
-2.87373e-07
-2.87429e-07
-0.00118994
2.24102e-07
2.24647e-07
0.00119007
-0.00114221
-1.27706e-06
2.8755e-07
1.0548e-07
0.00114206
-2.9755e-07
1.22505e-06
2.54295e-07
8.72204e-07
-2.99821e-07
-9.48332e-07
2.25805e-07
-0.00114208
-1.27438e-06
2.87188e-07
1.11321e-07
0.00114192
-2.94848e-07
1.22232e-06
2.5149e-07
8.72286e-07
-2.99801e-07
-9.48288e-07
2.25959e-07
-0.000272008
1.30587e-06
1.26904e-06
-2.55305e-07
-2.58075e-07
0.000269946
-2.62292e-07
-2.62241e-07
-0.00119041
2.11684e-07
2.12189e-07
0.00119051
-0.0011416
-1.27056e-06
2.62372e-07
9.25648e-08
0.00114145
-2.92415e-07
1.22697e-06
2.56695e-07
8.75414e-07
-2.93351e-07
-9.41011e-07
2.29485e-07
-0.00114147
-1.26783e-06
2.62062e-07
9.83552e-08
0.00114131
-2.89717e-07
1.22427e-06
2.5393e-07
8.75478e-07
-2.93366e-07
-9.40984e-07
2.29623e-07
-0.000271835
1.29932e-06
1.26248e-06
-2.50236e-07
-2.5302e-07
0.000269776
-2.37487e-07
-2.3745e-07
-0.00119077
1.98805e-07
1.99279e-07
0.00119085
-0.001141
-1.26442e-06
2.37452e-07
8.05701e-08
0.00114085
-2.87665e-07
1.22874e-06
2.58889e-07
8.78412e-07
-2.87205e-07
-9.34154e-07
2.32957e-07
-0.00114086
-1.26174e-06
2.37257e-07
8.63259e-08
0.00114071
-2.84908e-07
1.22605e-06
2.56113e-07
8.78488e-07
-2.87243e-07
-9.34099e-07
2.33058e-07
-0.000271671
1.29316e-06
1.25635e-06
-2.45547e-07
-2.4833e-07
0.000269616
1.54304e-06
1.50311e-06
-4.76438e-07
-4.82098e-07
0.000274496
-0.000276584
-1.17386e-06
-1.13386e-06
0.000276599
-0.000274507
1.05262e-07
1.10622e-07
4.06725e-07
0.0011387
-5.04648e-07
1.16952e-06
1.52768e-07
7.52727e-07
-5.45088e-07
8.45694e-08
-1.23511e-06
-0.00113826
-1.54026e-06
8.18525e-07
4.0619e-07
0.00113878
-5.04588e-07
1.167e-06
1.52782e-07
7.52776e-07
-5.42155e-07
8.14811e-08
-1.23484e-06
-0.00113833
0.00113996
8.03721e-07
-0.00113955
3.99627e-07
-1.53669e-06
1.57633e-07
-4.95925e-07
-1.22335e-06
9.07029e-08
-5.33922e-07
7.58189e-07
1.17129e-06
0.00114003
8.03864e-07
-0.00113963
3.99162e-07
-1.53401e-06
1.57603e-07
-4.95897e-07
-1.22308e-06
8.76428e-08
-5.31094e-07
7.58269e-07
-4.767e-07
-4.78878e-07
0.000274478
-0.000276565
-1.1337e-06
0.00027658
-0.000274488
1.05379e-07
1.07929e-07
4.05031e-07
0.0011397
-4.99108e-07
1.12951e-06
1.47052e-07
7.52634e-07
-5.45071e-07
8.47533e-08
-1.23501e-06
-0.00113926
-1.53481e-06
8.18461e-07
4.06522e-07
0.00113866
-5.04594e-07
1.16156e-06
1.52904e-07
7.52685e-07
-5.42253e-07
8.14784e-08
-1.23492e-06
-0.00113822
0.00114096
8.04882e-07
-0.00114055
3.97997e-07
-1.49673e-06
1.51954e-07
-4.90385e-07
-1.22322e-06
9.0868e-08
-5.339e-07
7.58146e-07
1.16585e-06
0.00113991
8.04033e-07
-0.00113951
3.99381e-07
-1.52852e-06
1.57785e-07
-4.95903e-07
-1.22318e-06
8.7622e-08
-5.31095e-07
7.58159e-07
8.18123e-07
4.06583e-07
0.00113828
-5.01577e-07
1.15859e-06
1.49972e-07
7.44603e-07
-5.39205e-07
7.83534e-08
-1.22635e-06
-0.00113783
8.03925e-07
-0.0011401
4.0338e-07
-1.49647e-06
1.52002e-07
-4.90179e-07
-1.21752e-06
9.08355e-08
7.52835e-07
-5.33671e-07
1.16295e-06
0.00113953
8.03163e-07
-0.00113913
3.99452e-07
-1.52549e-06
1.54856e-07
-4.92833e-07
-1.2146e-06
8.4506e-08
-5.282e-07
7.50063e-07
-4.76902e-07
-4.81568e-07
0.000274463
-0.00027654
-1.13085e-06
0.000276555
-0.000274474
1.05361e-07
1.107e-07
8.19337e-07
4.05075e-07
0.00113926
-4.99104e-07
1.12112e-06
1.46981e-07
7.49814e-07
-5.44878e-07
8.49164e-08
-1.23186e-06
-0.00113882
8.04404e-07
-0.00113997
3.98392e-07
-1.49382e-06
1.48899e-07
-4.87566e-07
-1.21777e-06
9.09686e-08
7.52777e-07
-5.33772e-07
1.12541e-06
0.00114052
8.04828e-07
-0.00114011
3.97885e-07
-1.48852e-06
1.51799e-07
-4.90389e-07
-1.22014e-06
9.10156e-08
-5.33753e-07
7.55285e-07
-0.000274449
1.0515e-07
1.08133e-07
1.53446e-06
1.49449e-06
-4.63677e-07
-4.69328e-07
0.000274503
-1.17937e-06
-1.13932e-06
0.000276553
-0.000274469
1.14262e-07
1.19684e-07
3.97295e-07
0.00114035
-4.9297e-07
1.1752e-06
1.59246e-07
7.60039e-07
-5.30285e-07
-1.21935e-06
9.27438e-08
-1.53177e-06
7.98893e-07
3.96919e-07
0.00114043
-4.93001e-07
1.17266e-06
1.59212e-07
7.60114e-07
-5.2741e-07
-1.21909e-06
8.97187e-08
0.00114146
7.84094e-07
-0.0011411
3.8976e-07
-1.52737e-06
1.64039e-07
-4.84407e-07
-1.20735e-06
9.8798e-08
-5.19261e-07
7.65476e-07
1.17676e-06
0.00114153
7.84073e-07
-0.00114118
3.89525e-07
-1.52473e-06
1.63981e-07
-4.84425e-07
-1.20705e-06
9.58028e-08
-5.16379e-07
7.65518e-07
-4.63993e-07
-4.66176e-07
0.000274484
-1.13917e-06
0.000276534
-0.00027445
1.14394e-07
1.1693e-07
3.95615e-07
0.00114135
-4.8743e-07
1.1352e-06
1.53565e-07
7.59982e-07
-5.30247e-07
-1.21922e-06
9.29331e-08
-1.52628e-06
7.99132e-07
3.96949e-07
0.00114031
-4.93052e-07
1.16725e-06
1.59356e-07
7.59975e-07
-5.27464e-07
-1.21918e-06
8.96683e-08
0.00114246
7.84994e-07
-0.0011421
3.88258e-07
-1.48743e-06
1.58344e-07
-4.78913e-07
-1.20716e-06
9.90677e-08
-5.19183e-07
7.65475e-07
1.17134e-06
0.00114141
7.84149e-07
-0.00114106
3.89601e-07
-1.51923e-06
1.64144e-07
-4.84393e-07
-1.20712e-06
9.58014e-08
-5.16413e-07
7.6546e-07
7.98206e-07
3.97196e-07
0.00113993
-4.89979e-07
1.16433e-06
1.56487e-07
7.51895e-07
-5.24497e-07
8.66115e-08
-1.21063e-06
7.84366e-07
-0.00114165
3.93715e-07
-1.48718e-06
1.58388e-07
-4.78723e-07
-1.20157e-06
9.89347e-08
7.60069e-07
-5.18998e-07
1.16843e-06
0.00114103
7.83516e-07
-0.00114068
3.89579e-07
-1.5161e-06
1.61302e-07
-4.81339e-07
-1.19865e-06
9.27416e-08
-5.1351e-07
7.57279e-07
-4.6417e-07
-4.68882e-07
0.00027447
-1.13634e-06
0.000276509
-0.000274435
1.14322e-07
1.19729e-07
7.99793e-07
3.95758e-07
0.00114091
-4.87591e-07
1.12678e-06
1.53418e-07
7.57125e-07
-5.30069e-07
9.30765e-08
-1.21611e-06
7.84617e-07
-0.00114152
3.88556e-07
-1.48453e-06
1.55427e-07
-4.75958e-07
-1.20175e-06
9.90762e-08
7.60032e-07
-5.19076e-07
1.13084e-06
0.00114202
7.8488e-07
-0.00114166
3.88329e-07
-1.47915e-06
1.58226e-07
-4.78929e-07
-1.20407e-06
9.91304e-08
-5.19027e-07
7.62575e-07
-0.00027441
1.14109e-07
1.17182e-07
1.52495e-06
1.48503e-06
-4.50659e-07
-4.5623e-07
0.00027445
-1.18465e-06
-1.14454e-06
0.000276454
-0.000274376
1.22841e-07
1.28306e-07
3.87396e-07
0.0011418
-4.81464e-07
1.18069e-06
1.65597e-07
7.67253e-07
-5.15638e-07
-1.20335e-06
1.00808e-07
-1.52229e-06
7.78981e-07
3.8721e-07
0.00114188
-4.81508e-07
1.17806e-06
1.65564e-07
7.67346e-07
-5.1275e-07
-1.20303e-06
9.78538e-08
0.00114276
7.63576e-07
-0.00114246
3.8041e-07
-1.51734e-06
1.70318e-07
-4.72715e-07
-1.1912e-06
1.06825e-07
-5.04883e-07
7.72726e-07
1.182e-06
0.00114284
7.63591e-07
-0.00114253
3.80386e-07
-1.51474e-06
1.70205e-07
-4.72793e-07
-1.19094e-06
1.03891e-07
-5.02021e-07
7.72741e-07
-4.50932e-07
-4.53144e-07
0.000274431
-1.14444e-06
0.000276435
-0.000274357
1.22997e-07
1.25488e-07
3.85938e-07
0.00114281
-4.75996e-07
1.14062e-06
1.59898e-07
7.6729e-07
-5.15565e-07
-1.20314e-06
1.01082e-07
-1.51685e-06
7.79073e-07
3.87325e-07
0.00114176
-4.81454e-07
1.17263e-06
1.65737e-07
7.67262e-07
-5.12787e-07
-1.20311e-06
9.78264e-08
0.00114377
7.64216e-07
-0.00114346
3.79106e-07
-1.47745e-06
1.64597e-07
-4.67292e-07
-1.19095e-06
1.07132e-07
-5.04754e-07
7.72779e-07
1.17655e-06
0.00114272
7.63505e-07
-0.00114241
3.8038e-07
-1.50926e-06
1.7037e-07
-4.72776e-07
-1.19093e-06
1.03927e-07
-5.01938e-07
7.72764e-07
7.78524e-07
3.87245e-07
0.00114138
-4.78381e-07
1.16975e-06
1.6291e-07
7.59106e-07
-5.09878e-07
9.48089e-08
-1.19464e-06
7.63832e-07
-0.00114301
3.84636e-07
-1.47716e-06
1.64664e-07
-4.67075e-07
-1.18545e-06
1.07007e-07
7.67322e-07
-5.04704e-07
1.1737e-06
0.00114234
7.62976e-07
-0.00114203
3.80217e-07
-1.50607e-06
1.67635e-07
-4.69633e-07
-1.18254e-06
1.00865e-07
-4.9917e-07
7.64522e-07
-4.5111e-07
-4.5589e-07
0.000274417
-1.14166e-06
0.000276409
-0.000274342
1.2299e-07
1.28278e-07
7.79773e-07
3.86088e-07
0.00114237
-4.76066e-07
1.13215e-06
1.598e-07
7.64407e-07
-5.15346e-07
1.01174e-07
-1.19999e-06
7.64014e-07
-0.00114288
3.79205e-07
-1.47447e-06
1.61796e-07
-4.64314e-07
-1.18563e-06
1.07095e-07
7.67287e-07
-5.04688e-07
1.13605e-06
0.00114333
7.64355e-07
-0.00114302
3.7915e-07
-1.46919e-06
1.64476e-07
-4.67304e-07
-1.18789e-06
1.07224e-07
-5.04565e-07
7.6984e-07
-0.000274317
1.2267e-07
1.25793e-07
1.51472e-06
1.47484e-06
-4.3756e-07
-4.43071e-07
0.000274345
-1.18985e-06
-1.14971e-06
0.000276308
-0.000274236
1.3111e-07
1.36581e-07
3.78119e-07
0.00114306
-4.69822e-07
1.18592e-06
1.71824e-07
7.74524e-07
-5.01283e-07
-1.18713e-06
1.08813e-07
-1.51215e-06
7.58263e-07
3.78154e-07
0.00114313
-4.69916e-07
1.18327e-06
1.71731e-07
7.74587e-07
-4.98453e-07
-1.18688e-06
1.05934e-07
0.00114387
7.42371e-07
-0.00114361
3.7094e-07
-1.50656e-06
1.76331e-07
-4.61218e-07
-1.17492e-06
1.14873e-07
-4.90687e-07
7.79953e-07
1.18714e-06
0.00114395
7.42294e-07
-0.00114369
3.71148e-07
-1.504e-06
1.76197e-07
-4.61318e-07
-1.17466e-06
1.11946e-07
-4.87822e-07
7.79978e-07
-4.37823e-07
-4.40084e-07
0.000274326
-1.14957e-06
0.000276289
-0.000274217
1.31257e-07
1.33738e-07
3.76855e-07
0.00114406
-4.64407e-07
1.14581e-06
1.66106e-07
7.74598e-07
-5.01201e-07
-1.18688e-06
1.09156e-07
-1.50668e-06
7.58192e-07
3.78159e-07
0.00114301
-4.69872e-07
1.17778e-06
1.71898e-07
7.74587e-07
-4.98406e-07
-1.18686e-06
1.05938e-07
0.00114488
7.42837e-07
-0.00114462
3.69837e-07
-1.46671e-06
1.7059e-07
-4.55833e-07
-1.17465e-06
1.152e-07
-4.90521e-07
7.80038e-07
1.1817e-06
0.00114383
7.41988e-07
-0.00114357
3.71171e-07
-1.49853e-06
1.76359e-07
-4.61295e-07
-1.17461e-06
1.11988e-07
-4.87792e-07
7.8004e-07
7.57728e-07
3.77936e-07
0.00114263
-4.66733e-07
1.17502e-06
1.69165e-07
7.6635e-07
-4.95597e-07
1.02912e-07
-1.1785e-06
7.4279e-07
-0.00114417
3.75356e-07
-1.46643e-06
1.7064e-07
-4.55652e-07
-1.1692e-06
1.15032e-07
7.7454e-07
-4.9043e-07
1.17889e-06
0.00114344
7.41935e-07
-0.00114319
3.70734e-07
-1.49534e-06
1.73618e-07
-4.58138e-07
-1.1663e-06
1.08931e-07
-4.8496e-07
7.71722e-07
-4.37955e-07
-4.42804e-07
0.000274312
-1.14687e-06
0.000276263
-0.000274202
1.3131e-07
1.36527e-07
7.58958e-07
3.76966e-07
0.00114362
-4.64485e-07
1.13737e-06
1.65981e-07
7.71689e-07
-5.00988e-07
1.09258e-07
-1.18377e-06
7.42726e-07
-0.00114404
3.69755e-07
-1.46367e-06
1.67838e-07
-4.52802e-07
-1.16934e-06
1.15117e-07
7.74529e-07
-4.90498e-07
1.14125e-06
0.00114444
7.42837e-07
-0.00114418
3.70013e-07
-1.45846e-06
1.70465e-07
-4.55842e-07
-1.17158e-06
1.15298e-07
-4.90364e-07
7.77105e-07
-0.000274177
1.30977e-07
1.34077e-07
1.5038e-06
1.46394e-06
-4.24456e-07
-4.29937e-07
0.000274194
-1.1951e-06
-1.15497e-06
0.000276123
-0.000274056
1.39087e-07
1.44642e-07
3.68559e-07
0.00114412
-4.58391e-07
1.19111e-06
1.77759e-07
7.81744e-07
-4.87161e-07
-1.17086e-06
1.16865e-07
-1.50124e-06
7.36867e-07
3.68792e-07
0.00114419
-4.58488e-07
1.18843e-06
1.77646e-07
7.8179e-07
-4.84287e-07
-1.17061e-06
1.13964e-07
0.00114479
7.20584e-07
-0.00114458
3.61232e-07
-1.49519e-06
1.82111e-07
-4.50006e-07
-1.15875e-06
1.22818e-07
-4.76683e-07
7.87086e-07
1.19238e-06
0.00114486
7.20463e-07
-0.00114465
3.61558e-07
-1.49263e-06
1.8199e-07
-4.50078e-07
-1.15851e-06
1.19879e-07
-4.73835e-07
7.87099e-07
-4.24688e-07
-4.26984e-07
0.000274175
-1.15477e-06
0.000276104
-0.000274037
1.3919e-07
1.41762e-07
3.67395e-07
0.00114513
-4.52999e-07
1.15096e-06
1.72014e-07
7.81839e-07
-4.86996e-07
-1.17057e-06
1.17203e-07
-1.49574e-06
7.3653e-07
3.68791e-07
0.00114407
-4.58438e-07
1.18294e-06
1.77857e-07
7.81836e-07
-4.84273e-07
-1.17053e-06
1.14007e-07
0.0011458
7.20785e-07
-0.00114559
3.60356e-07
-1.45533e-06
1.7646e-07
-4.44581e-07
-1.15848e-06
1.23109e-07
-4.76528e-07
7.8716e-07
1.18688e-06
0.00114474
7.20114e-07
-0.00114453
3.61287e-07
-1.48718e-06
1.82144e-07
-4.50054e-07
-1.15841e-06
1.20012e-07
-4.73752e-07
7.8721e-07
7.36544e-07
3.68361e-07
0.00114369
-4.55352e-07
1.1802e-06
1.75078e-07
7.73525e-07
-4.81431e-07
1.10963e-07
-1.16225e-06
7.20944e-07
-0.00114513
3.65952e-07
-1.4551e-06
1.7641e-07
-4.44415e-07
-1.15311e-06
1.22905e-07
7.81634e-07
-4.76479e-07
1.18413e-06
0.00114436
7.2019e-07
-0.00114415
3.6094e-07
-1.48393e-06
1.79399e-07
-4.46915e-07
-1.15016e-06
1.16931e-07
-4.70987e-07
7.78864e-07
-4.24758e-07
-4.29673e-07
0.000274161
-1.15209e-06
0.000276078
-0.000274023
1.39268e-07
1.44513e-07
7.37383e-07
3.67649e-07
0.00114468
-4.53073e-07
1.14257e-06
1.71909e-07
7.78985e-07
-4.86811e-07
1.17308e-07
-1.16756e-06
7.2084e-07
-0.001145
3.59923e-07
-1.45227e-06
1.73646e-07
-4.41533e-07
-1.15314e-06
1.23064e-07
7.81697e-07
-4.76463e-07
1.14652e-06
0.00114535
7.20662e-07
-0.00114514
3.6041e-07
-1.44702e-06
1.76338e-07
-4.44565e-07
-1.15545e-06
1.23228e-07
-4.76384e-07
7.84358e-07
-0.000273997
1.3896e-07
1.42094e-07
1.49227e-06
1.45242e-06
-4.11397e-07
-4.16854e-07
0.000274006
-1.20044e-06
-1.16034e-06
0.000275907
-0.000273845
1.46939e-07
1.52417e-07
3.58814e-07
0.00114499
-4.47209e-07
1.19638e-06
1.83579e-07
7.88864e-07
-4.73281e-07
-1.15475e-06
1.24744e-07
-1.48972e-06
7.1487e-07
3.59103e-07
0.00114506
-4.473e-07
1.19371e-06
1.83455e-07
7.88865e-07
-4.70407e-07
-1.1545e-06
1.21851e-07
0.00114552
6.98021e-07
-0.00114536
3.5083e-07
-1.48325e-06
1.87967e-07
-4.38959e-07
-1.14281e-06
1.30541e-07
-4.63027e-07
7.94113e-07
1.19774e-06
0.0011456
6.97988e-07
-0.00114543
3.5113e-07
-1.4807e-06
1.87859e-07
-4.39083e-07
-1.14258e-06
1.27681e-07
-4.60192e-07
7.94124e-07
-4.11713e-07
-4.13928e-07
0.000273987
-1.16011e-06
0.000275887
-0.000273826
1.47034e-07
1.49583e-07
3.57831e-07
0.001146
-4.41799e-07
1.15625e-06
1.77916e-07
7.88929e-07
-4.7311e-07
-1.15446e-06
1.25048e-07
-1.48425e-06
7.14488e-07
3.58899e-07
0.00114494
-4.4727e-07
1.18824e-06
1.83568e-07
7.88982e-07
-4.70328e-07
-1.15439e-06
1.21959e-07
0.00114653
6.98299e-07
-0.00114636
3.49899e-07
-1.44339e-06
1.82346e-07
-4.33544e-07
-1.14255e-06
1.30837e-07
-4.62929e-07
7.94188e-07
1.19224e-06
0.00114548
6.97423e-07
-0.00114531
3.50994e-07
-1.47523e-06
1.8799e-07
-4.39002e-07
-1.14246e-06
1.27801e-07
-4.60101e-07
7.94241e-07
7.14547e-07
3.58526e-07
0.00114456
-4.44118e-07
1.18543e-06
1.80876e-07
7.80633e-07
-4.67546e-07
1.18912e-07
-1.14615e-06
6.98392e-07
-0.00114591
3.55625e-07
-1.44323e-06
1.82223e-07
-4.3349e-07
-1.13714e-06
1.30677e-07
7.8871e-07
-4.62821e-07
1.18947e-06
0.00114509
6.97517e-07
-0.00114493
3.50562e-07
-1.47201e-06
1.8526e-07
-4.35952e-07
-1.13423e-06
1.2476e-07
-4.57318e-07
7.85909e-07
-4.1172e-07
-4.16597e-07
0.000273973
-1.15744e-06
0.000275862
-0.000273812
1.47107e-07
1.52321e-07
7.15082e-07
3.58058e-07
0.00114555
-4.41831e-07
1.14783e-06
1.77802e-07
7.86112e-07
-4.7294e-07
1.25159e-07
-1.15143e-06
6.98235e-07
-0.00114578
3.49742e-07
-1.44038e-06
1.79489e-07
-4.30541e-07
-1.13722e-06
1.30828e-07
7.88737e-07
-4.62813e-07
1.15191e-06
0.00114609
6.98118e-07
-0.00114592
3.49992e-07
-1.4351e-06
1.82239e-07
-4.33582e-07
-1.13954e-06
1.30919e-07
-4.62704e-07
7.91385e-07
-0.000273786
1.46854e-07
1.49853e-07
1.48025e-06
1.44039e-06
-3.98504e-07
-4.03976e-07
0.000273788
-1.20571e-06
-1.16568e-06
0.000275667
-0.00027361
1.54414e-07
1.59814e-07
3.48128e-07
0.00114568
-4.36245e-07
1.20172e-06
1.89394e-07
7.95881e-07
-4.59665e-07
-1.13887e-06
1.32489e-07
-1.47763e-06
6.92228e-07
3.48394e-07
0.00114575
-4.36278e-07
1.19907e-06
1.89357e-07
7.95871e-07
-4.56844e-07
-1.13865e-06
1.29625e-07
0.00114608
6.74895e-07
-0.00114595
3.39671e-07
-1.47104e-06
1.93697e-07
-4.28101e-07
-1.1272e-06
1.38251e-07
-4.49731e-07
8.01036e-07
1.20306e-06
0.00114615
6.74813e-07
-0.00114603
3.3983e-07
-1.46844e-06
1.93678e-07
-4.28123e-07
-1.12699e-06
1.35335e-07
-4.46905e-07
8.01033e-07
-3.98786e-07
-4.00973e-07
0.000273769
-1.16544e-06
0.000275648
-0.000273591
1.54466e-07
1.57008e-07
3.47223e-07
0.00114669
-4.30814e-07
1.16163e-06
1.83776e-07
7.95948e-07
-4.59536e-07
-1.13861e-06
1.32769e-07
-1.47219e-06
6.91694e-07
3.48344e-07
0.00114563
-4.3627e-07
1.19357e-06
1.89435e-07
7.95973e-07
-4.56751e-07
-1.13853e-06
1.29724e-07
0.00114709
6.75213e-07
-0.00114696
3.38741e-07
-1.43117e-06
1.88103e-07
-4.22681e-07
-1.12696e-06
1.3848e-07
-4.49606e-07
8.01085e-07
1.19761e-06
0.00114603
6.74246e-07
-0.00114591
3.39866e-07
-1.46296e-06
1.93756e-07
-4.28131e-07
-1.12686e-06
1.35454e-07
-4.46816e-07
8.0112e-07
6.91776e-07
3.47936e-07
0.00114525
-4.33171e-07
1.19077e-06
1.86709e-07
7.87654e-07
-4.53947e-07
1.26715e-07
-1.13029e-06
6.75134e-07
-0.00114651
3.44453e-07
-1.43099e-06
1.88031e-07
-4.22564e-07
-1.12153e-06
1.38336e-07
7.95645e-07
-4.49523e-07
1.19476e-06
0.00114565
6.74252e-07
-0.00114553
3.39418e-07
-1.45986e-06
1.90993e-07
-4.25078e-07
-1.11863e-06
1.325e-07
-4.43987e-07
7.92876e-07
-3.988e-07
-4.03695e-07
0.000273755
-1.16281e-06
0.000275623
-0.000273577
1.54572e-07
1.59814e-07
6.92354e-07
3.47271e-07
0.00114624
-4.30804e-07
1.15325e-06
1.83707e-07
7.93097e-07
-4.59383e-07
1.32863e-07
-1.13555e-06
6.75109e-07
-0.00114638
3.38533e-07
-1.42816e-06
1.85275e-07
-4.1969e-07
-1.12161e-06
1.38483e-07
7.95617e-07
-4.49473e-07
1.15729e-06
0.00114664
6.74963e-07
-0.00114652
3.38657e-07
-1.42287e-06
1.88069e-07
-4.22601e-07
-1.12385e-06
1.38618e-07
-4.49412e-07
7.98277e-07
-0.000273551
1.54331e-07
1.57261e-07
1.46799e-06
1.42811e-06
-3.85921e-07
-3.91402e-07
0.000273549
-1.21094e-06
-1.17096e-06
0.000275412
-0.000273358
1.61486e-07
1.66869e-07
3.36809e-07
0.00114619
-4.25432e-07
1.207e-06
1.95092e-07
8.02728e-07
-4.46455e-07
-1.12334e-06
1.40133e-07
-1.46535e-06
6.68905e-07
3.36896e-07
0.00114626
-4.2544e-07
1.20437e-06
1.95123e-07
8.02709e-07
-4.4363e-07
-1.12316e-06
1.37248e-07
0.00114647
6.51055e-07
-0.00114638
3.27881e-07
-1.45873e-06
1.99317e-07
-4.17483e-07
-1.11188e-06
1.45759e-07
-4.36756e-07
8.07755e-07
1.20833e-06
0.00114654
6.51009e-07
-0.00114646
3.27942e-07
-1.45609e-06
1.99325e-07
-4.17498e-07
-1.11172e-06
1.42887e-07
-4.33964e-07
8.07714e-07
-3.86219e-07
-3.88421e-07
0.00027353
-1.17073e-06
0.000275393
-0.00027334
1.61556e-07
1.64088e-07
3.35869e-07
0.0011472
-4.19977e-07
1.16698e-06
1.8954e-07
8.02804e-07
-4.46343e-07
-1.12312e-06
1.40367e-07
-1.4599e-06
6.68311e-07
3.36932e-07
0.00114614
-4.25443e-07
1.1989e-06
1.95178e-07
8.02848e-07
-4.43563e-07
-1.123e-06
1.37336e-07
0.00114748
6.51471e-07
-0.0011474
3.26924e-07
-1.41885e-06
1.93765e-07
-4.12039e-07
-1.1118e-06
1.45994e-07
-4.36638e-07
8.07841e-07
1.20287e-06
0.00114642
6.50434e-07
-0.00114634
3.28015e-07
-1.45062e-06
1.99385e-07
-4.17518e-07
-1.11165e-06
1.43009e-07
-4.33859e-07
8.07916e-07
6.68284e-07
3.36528e-07
0.00114576
-4.22391e-07
1.19606e-06
1.9241e-07
7.94549e-07
-4.40683e-07
1.34417e-07
-1.11465e-06
6.51284e-07
-0.00114695
3.3257e-07
-1.41865e-06
1.93677e-07
-4.11908e-07
-1.1063e-06
1.45864e-07
8.02364e-07
-4.36547e-07
1.20001e-06
0.00114604
6.5034e-07
-0.00114595
3.27776e-07
-1.44756e-06
1.9659e-07
-4.14508e-07
-1.1034e-06
1.40094e-07
-4.30986e-07
7.99573e-07
-3.86255e-07
-3.91092e-07
0.000273515
-1.16815e-06
0.000275368
-0.000273325
1.61723e-07
1.66839e-07
6.68949e-07
3.35842e-07
0.00114676
-4.19946e-07
1.15864e-06
1.89524e-07
7.9992e-07
-4.46145e-07
1.40465e-07
-1.12006e-06
6.51283e-07
-0.00114681
3.26632e-07
-1.41578e-06
1.90972e-07
-4.09045e-07
-1.10634e-06
1.4598e-07
8.02356e-07
-4.3656e-07
1.16268e-06
0.00114703
6.51212e-07
-0.00114695
3.26742e-07
-1.41049e-06
1.93802e-07
-4.11918e-07
-1.10874e-06
1.46055e-07
-4.36523e-07
8.05009e-07
-0.0002733
1.61475e-07
1.64347e-07
1.45563e-06
1.41575e-06
-3.73757e-07
-3.79249e-07
0.000273294
-1.21616e-06
-1.17623e-06
0.000275147
-0.000273096
1.68238e-07
1.7362e-07
3.24889e-07
0.00114654
-4.1488e-07
1.21225e-06
2.00703e-07
8.09409e-07
-4.33558e-07
-1.10833e-06
1.47616e-07
-1.45299e-06
6.44925e-07
3.24902e-07
0.00114661
-4.1487e-07
1.20966e-06
2.00743e-07
8.0933e-07
-4.30754e-07
-1.10806e-06
1.44764e-07
0.0011467
6.26633e-07
-0.00114666
3.21074e-07
-1.44645e-06
2.04831e-07