/*--------------------------------*- C++ -*----------------------------------*\
| =========                 |                                                 |
| \\      /  F ield         | OpenFOAM: The Open Source CFD Toolbox           |
|  \\    /   O peration     | Version:  2312                                  |
|   \\  /    A nd           | Website:  www.openfoam.com                      |
|    \\/     M anipulation  |                                                 |
\*---------------------------------------------------------------------------*/
FoamFile
{
    version     2.0;
    format      ascii;
    arch        "LSB;label=32;scalar=64";
    class       volVectorField;
    location    "850";
    object      U;
}
// * * * * * * * * * * * * * * * * * * * * * * * * * * * * * * * * * * * * * //

dimensions      [0 1 -1 0 0 0 0];

internalField   nonuniform List<vector> 
42840
(
(5.98309e-05 5.97816e-05 0.109207)
(-8.96009e-05 5.57856e-05 0.108145)
(5.57908e-05 -8.96851e-05 0.108144)
(-0.000142294 -0.000142295 0.106657)
(5.85755e-05 5.85243e-05 0.109495)
(-8.73581e-05 5.45511e-05 0.108304)
(5.45645e-05 -8.74042e-05 0.108303)
(-0.000137997 -0.000137962 0.106656)
(5.73182e-05 5.72851e-05 0.109774)
(-8.49914e-05 5.3292e-05 0.108444)
(5.32902e-05 -8.50132e-05 0.108444)
(-0.000133395 -0.000133345 0.106632)
(5.59956e-05 5.59804e-05 0.110044)
(-8.24757e-05 5.19771e-05 0.108566)
(5.19526e-05 -8.24658e-05 0.108565)
(-0.000128552 -0.000128479 0.106589)
(5.46243e-05 5.46251e-05 0.110303)
(-7.98222e-05 5.05761e-05 0.108669)
(5.05168e-05 -7.97942e-05 0.108669)
(-0.000123449 -0.000123389 0.106528)
(5.32087e-05 5.32186e-05 0.110553)
(-7.6994e-05 4.90377e-05 0.108754)
(4.89838e-05 -7.69587e-05 0.108754)
(-0.000118268 -0.000118202 0.106454)
(5.17786e-05 5.17875e-05 0.110792)
(-7.40179e-05 4.73468e-05 0.108822)
(4.72771e-05 -7.39919e-05 0.108821)
(-0.000112927 -0.000112889 0.106368)
(5.03298e-05 5.03351e-05 0.111021)
(-7.092e-05 4.55415e-05 0.108872)
(4.54724e-05 -7.08976e-05 0.108872)
(-0.000107616 -0.000107602 0.106274)
(4.88605e-05 4.88602e-05 0.111239)
(-6.77282e-05 4.36153e-05 0.108907)
(4.35524e-05 -6.7718e-05 0.108907)
(-0.000102382 -0.000102404 0.106175)
(4.73723e-05 4.73659e-05 0.111445)
(-6.44759e-05 4.1603e-05 0.108928)
(4.15442e-05 -6.4468e-05 0.108927)
(-9.73059e-05 -9.73461e-05 0.106073)
(4.58925e-05 4.58815e-05 0.11164)
(-6.11831e-05 3.95008e-05 0.108935)
(3.94654e-05 -6.11826e-05 0.108935)
(-9.23729e-05 -9.24175e-05 0.105969)
(4.4416e-05 4.44061e-05 0.111823)
(-5.78849e-05 3.73384e-05 0.10893)
(3.73063e-05 -5.78808e-05 0.10893)
(-8.76611e-05 -8.77076e-05 0.105865)
(4.29546e-05 4.29485e-05 0.111993)
(-5.45952e-05 3.5121e-05 0.108915)
(3.50902e-05 -5.45803e-05 0.108914)
(-8.31352e-05 -8.31854e-05 0.105763)
(4.14985e-05 4.14906e-05 0.112152)
(-5.13358e-05 3.28782e-05 0.10889)
(3.2851e-05 -5.13157e-05 0.108889)
(-7.88863e-05 -7.89375e-05 0.105663)
(4.00343e-05 4.00336e-05 0.112299)
(-4.81028e-05 3.06298e-05 0.108857)
(3.06035e-05 -4.80859e-05 0.108856)
(-7.48087e-05 -7.48569e-05 0.105565)
(3.85629e-05 3.85694e-05 0.112433)
(-4.49241e-05 2.83842e-05 0.108817)
(2.83666e-05 -4.49048e-05 0.108816)
(-7.10157e-05 -7.10589e-05 0.105471)
(3.70738e-05 3.70794e-05 0.112554)
(-4.18047e-05 2.61714e-05 0.108772)
(2.61624e-05 -4.17763e-05 0.108771)
(-6.74272e-05 -6.74549e-05 0.10538)
(3.55568e-05 3.55643e-05 0.112664)
(-3.87453e-05 2.40069e-05 0.108722)
(2.40033e-05 -3.87173e-05 0.108721)
(-6.40745e-05 -6.40916e-05 0.105293)
(3.40186e-05 3.40272e-05 0.112761)
(-3.57558e-05 2.1906e-05 0.108669)
(2.19057e-05 -3.57256e-05 0.108668)
(-6.09315e-05 -6.09454e-05 0.10521)
(3.24458e-05 3.24501e-05 0.112847)
(-3.28364e-05 1.98907e-05 0.108613)
(1.98998e-05 -3.28084e-05 0.108612)
(-5.79616e-05 -5.79756e-05 0.10513)
(3.08335e-05 3.08417e-05 0.112922)
(-2.99985e-05 1.79631e-05 0.108556)
(1.79742e-05 -2.99667e-05 0.108555)
(-5.52102e-05 -5.52199e-05 0.105054)
(2.91914e-05 2.92004e-05 0.112985)
(-2.72355e-05 1.61274e-05 0.108498)
(1.61424e-05 -2.72082e-05 0.108497)
(-5.26395e-05 -5.26471e-05 0.104982)
(2.75083e-05 2.75219e-05 0.113038)
(-2.45687e-05 1.44165e-05 0.10844)
(1.44187e-05 -2.45389e-05 0.108439)
(-5.02527e-05 -5.02631e-05 0.104913)
(2.57988e-05 2.58128e-05 0.113081)
(-2.1987e-05 1.279e-05 0.108382)
(1.27927e-05 -2.1967e-05 0.108381)
(-4.80108e-05 -4.80274e-05 0.104849)
(2.40551e-05 2.40722e-05 0.113115)
(-1.95119e-05 1.12677e-05 0.108325)
(1.1264e-05 -1.94935e-05 0.108324)
(-4.59324e-05 -4.59488e-05 0.104788)
(0.000142314 0.000142252 0.106657)
(4.36358e-06 4.37815e-06 0.106843)
(5.59923e-05 8.97508e-05 0.108144)
(-5.59571e-05 8.97222e-05 0.108144)
(5.50715e-05 8.80442e-05 0.108265)
(-5.50486e-05 8.80115e-05 0.108265)
(-0.000142245 0.000142224 0.106657)
(-4.33272e-06 4.37901e-06 0.106843)
(8.97525e-05 5.58306e-05 0.108144)
(8.97265e-05 -5.59468e-05 0.108144)
(8.80404e-05 5.49045e-05 0.108265)
(8.80315e-05 -5.50298e-05 0.108265)
(-8.95131e-05 -5.58839e-05 0.108144)
(-8.79244e-05 5.48697e-05 0.108266)
(-8.78316e-05 -5.4969e-05 0.108265)
(0.000142302 -0.000142292 0.106657)
(4.41936e-06 -4.27772e-06 0.106842)
(-5.5794e-05 -8.97439e-05 0.108144)
(5.48791e-05 -8.79778e-05 0.108265)
(-5.48897e-05 -8.80361e-05 0.108265)
(-4.41069e-06 -4.2982e-06 0.106842)
(0.000138018 0.000137953 0.106656)
(1.80598e-06 1.84061e-06 0.106831)
(5.47497e-05 8.74668e-05 0.108303)
(-5.47372e-05 8.74366e-05 0.108303)
(5.37997e-05 8.57062e-05 0.10841)
(-5.379e-05 8.56603e-05 0.10841)
(-0.000137978 0.000137958 0.106656)
(-1.78769e-06 1.83242e-06 0.106831)
(8.74585e-05 5.45815e-05 0.108303)
(8.7451e-05 -5.47169e-05 0.108303)
(8.56828e-05 5.36414e-05 0.10841)
(8.56668e-05 -5.37794e-05 0.108409)
(-8.72624e-05 -5.46548e-05 0.108303)
(-8.55976e-05 5.36117e-05 0.108411)
(-8.54975e-05 -5.36905e-05 0.10841)
(0.000138003 -0.000138018 0.106656)
(1.88014e-06 -1.72009e-06 0.106831)
(-5.45847e-05 -8.74571e-05 0.108303)
(5.3609e-05 -8.56227e-05 0.108411)
(-5.36331e-05 -8.56631e-05 0.10841)
(-1.87999e-06 -1.75327e-06 0.10683)
(0.000133362 0.000133326 0.106632)
(-6.84866e-07 -6.33791e-07 0.106798)
(5.34795e-05 8.50933e-05 0.108443)
(-5.34756e-05 8.50494e-05 0.108443)
(5.24892e-05 8.31939e-05 0.108536)
(-5.24988e-05 8.31474e-05 0.108536)
(-0.00013334 0.000133318 0.106633)
(6.87473e-07 -6.60381e-07 0.106798)
(8.5065e-05 5.33279e-05 0.108444)
(8.50528e-05 -5.3467e-05 0.108443)
(8.31476e-05 5.23582e-05 0.108537)
(8.31345e-05 -5.24903e-05 0.108536)
(-8.48909e-05 -5.33705e-05 0.108443)
(-8.31113e-05 5.23196e-05 0.108537)
(-8.30125e-05 -5.23709e-05 0.108536)
(0.000133399 -0.000133397 0.106632)
(-6.31042e-07 7.39315e-07 0.106797)
(-5.3322e-05 -8.50508e-05 0.108443)
(5.22968e-05 -8.31106e-05 0.108537)
(-5.2347e-05 -8.31319e-05 0.108536)
(5.84794e-07 7.27715e-07 0.106796)
(0.000128492 0.000128479 0.106589)
(-3.16704e-06 -3.113e-06 0.106745)
(5.21476e-05 8.25495e-05 0.108565)
(-5.21631e-05 8.25004e-05 0.108564)
(5.10785e-05 8.05665e-05 0.108644)
(-5.11077e-05 8.05134e-05 0.108643)
(-0.000128509 0.000128476 0.106589)
(3.15327e-06 -3.12295e-06 0.106745)
(8.24996e-05 5.20208e-05 0.108565)
(8.24755e-05 -5.2152e-05 0.108564)
(8.04979e-05 5.09724e-05 0.108644)
(8.04674e-05 -5.10943e-05 0.108643)
(-8.23751e-05 -5.20337e-05 0.108564)
(-8.05015e-05 5.09373e-05 0.108645)
(-8.04026e-05 -5.09662e-05 0.108643)
(0.000128527 -0.000128559 0.106589)
(-3.12815e-06 3.21203e-06 0.106745)
(-5.2019e-05 -8.24741e-05 0.108565)
(5.08832e-05 -8.04746e-05 0.108645)
(-5.09723e-05 -8.04619e-05 0.108644)
(3.08643e-06 3.21423e-06 0.106744)
(0.000123426 0.000123418 0.106528)
(-5.70227e-06 -5.62629e-06 0.106677)
(5.07152e-05 7.98844e-05 0.108668)
(-5.07509e-05 7.98306e-05 0.108667)
(4.95715e-05 7.77741e-05 0.108733)
(-4.96088e-05 7.7723e-05 0.108733)
(-0.00012344 0.000123414 0.106529)
(5.67648e-06 -5.60973e-06 0.106677)
(7.9811e-05 5.0611e-05 0.108668)
(7.9781e-05 -5.07266e-05 0.108667)
(7.76955e-05 4.94707e-05 0.108734)
(7.76609e-05 -4.9593e-05 0.108733)
(-7.97235e-05 -5.061e-05 0.108667)
(-7.77151e-05 4.94496e-05 0.108734)
(-7.76172e-05 -4.94652e-05 0.108733)
(0.000123433 -0.000123478 0.106528)
(-5.61492e-06 5.69736e-06 0.106677)
(-5.06171e-05 -7.97761e-05 0.108668)
(4.93827e-05 -7.76753e-05 0.108734)
(-4.94667e-05 -7.76575e-05 0.108733)
(5.597e-06 5.7356e-06 0.106676)
(0.000118213 0.000118211 0.106454)
(-8.26192e-06 -8.20339e-06 0.106596)
(4.9162e-05 7.70516e-05 0.108753)
(-4.92056e-05 7.70051e-05 0.108752)
(4.78996e-05 7.48351e-05 0.108805)
(-4.79196e-05 7.47863e-05 0.108805)
(-0.000118234 0.000118237 0.106454)
(8.25618e-06 -8.18705e-06 0.106596)
(7.69741e-05 4.90599e-05 0.108753)
(7.6936e-05 -4.91993e-05 0.108752)
(7.47594e-05 4.77961e-05 0.108806)
(7.47192e-05 -4.79143e-05 0.108804)
(-7.68971e-05 -4.90572e-05 0.108752)
(-7.47701e-05 4.7778e-05 0.108806)
(-7.46818e-05 -4.77823e-05 0.108804)
(0.00011822 -0.000118276 0.106454)
(-8.19059e-06 8.27485e-06 0.106595)
(-4.90607e-05 -7.69385e-05 0.108753)
(4.77114e-05 -7.47412e-05 0.108806)
(-4.77896e-05 -7.4726e-05 0.108805)
(8.19138e-06 8.2964e-06 0.106594)
(0.000112898 0.000112892 0.106368)
(-1.07738e-05 -1.07354e-05 0.106505)
(4.7462e-05 7.40802e-05 0.10882)
(-4.74822e-05 7.40343e-05 0.10882)
(4.61209e-05 7.17728e-05 0.10886)
(-4.61291e-05 7.17306e-05 0.108859)
(-0.000112893 0.000112905 0.106368)
(1.07669e-05 -1.07e-05 0.106505)
(7.40071e-05 4.73581e-05 0.108821)
(7.3967e-05 -4.74767e-05 0.10882)
(7.17054e-05 4.6012e-05 0.108861)
(7.16674e-05 -4.61285e-05 0.108859)
(-7.39301e-05 -4.73576e-05 0.10882)
(-7.17017e-05 4.60088e-05 0.108861)
(-7.16152e-05 -4.60153e-05 0.108859)
(0.00011291 -0.000112948 0.106368)
(-1.07335e-05 1.0823e-05 0.106505)
(-4.73496e-05 -7.39715e-05 0.10882)
(4.59324e-05 -7.16764e-05 0.108861)
(-4.5996e-05 -7.16583e-05 0.10886)
(1.07283e-05 1.08061e-05 0.106504)
(0.000107609 0.000107591 0.106275)
(-1.32261e-05 -1.31977e-05 0.106407)
(4.5658e-05 7.09914e-05 0.108871)
(-4.56637e-05 7.09485e-05 0.10887)
(4.42283e-05 6.86081e-05 0.108899)
(-4.42267e-05 6.85708e-05 0.108898)
(-0.000107602 0.000107613 0.106275)
(1.32451e-05 -1.31801e-05 0.106407)
(7.0926e-05 4.55506e-05 0.108872)
(7.08854e-05 -4.56637e-05 0.10887)
(6.85487e-05 4.41206e-05 0.1089)
(6.85018e-05 -4.42317e-05 0.108898)
(-7.08292e-05 -4.55575e-05 0.10887)
(-6.85352e-05 4.41132e-05 0.1089)
(-6.84477e-05 -4.41362e-05 0.108898)
(0.000107611 -0.000107641 0.106275)
(-1.32314e-05 1.32814e-05 0.106407)
(-4.55351e-05 -7.08809e-05 0.108871)
(4.40395e-05 -6.85195e-05 0.1089)
(-4.4087e-05 -6.8515e-05 0.108899)
(1.32357e-05 1.32738e-05 0.106406)
(0.000102401 0.000102376 0.106175)
(-1.56532e-05 -1.56364e-05 0.106305)
(4.37393e-05 6.7805e-05 0.108906)
(-4.37422e-05 6.77635e-05 0.108905)
(4.22414e-05 6.53709e-05 0.108922)
(-4.22437e-05 6.53248e-05 0.108922)
(-0.000102389 0.000102397 0.106175)
(1.56789e-05 -1.56301e-05 0.106305)
(6.77431e-05 4.36312e-05 0.108907)
(6.76886e-05 -4.37376e-05 0.108905)
(6.53099e-05 4.21301e-05 0.108924)
(6.52583e-05 -4.22426e-05 0.108922)
(-6.76398e-05 -4.36522e-05 0.108905)
(-6.52898e-05 4.21173e-05 0.108924)
(-6.52039e-05 -4.21671e-05 0.108922)
(0.000102381 -0.000102436 0.106175)
(-1.56564e-05 1.56976e-05 0.106305)
(-4.35907e-05 -6.77065e-05 0.108906)
(4.205e-05 -6.52866e-05 0.108924)
(-4.20973e-05 -6.5286e-05 0.108923)
(1.57246e-05 1.57336e-05 0.106304)
(9.7316e-05 9.72815e-05 0.106073)
(-1.79987e-05 -1.79911e-05 0.106201)
(4.173e-05 6.45505e-05 0.108926)
(-4.17266e-05 6.45008e-05 0.108926)
(4.01755e-05 6.2078e-05 0.108933)
(-4.0162e-05 6.20311e-05 0.108932)
(-9.73022e-05 9.72972e-05 0.106073)
(1.80286e-05 -1.80021e-05 0.106201)
(6.44905e-05 4.16163e-05 0.108927)
(6.44346e-05 -4.17283e-05 0.108926)
(6.20273e-05 4.00526e-05 0.108934)
(6.19731e-05 -4.01638e-05 0.108932)
(-6.43833e-05 -4.16567e-05 0.108926)
(-6.20034e-05 4.00386e-05 0.108934)
(-6.19173e-05 -4.01061e-05 0.108932)
(9.73025e-05 -9.73629e-05 0.106073)
(-1.80364e-05 1.80728e-05 0.1062)
(-4.15822e-05 -6.44669e-05 0.108927)
(3.99951e-05 -6.20056e-05 0.108934)
(-4.00234e-05 -6.2009e-05 0.108933)
(1.80552e-05 1.8058e-05 0.106199)
(9.24049e-05 9.2368e-05 0.105969)
(-2.0256e-05 -2.02432e-05 0.106095)
(3.9639e-05 6.12519e-05 0.108933)
(-3.96266e-05 6.12011e-05 0.108933)
(3.80238e-05 5.87744e-05 0.108931)
(-3.80173e-05 5.87256e-05 0.10893)
(-9.23986e-05 9.2374e-05 0.105969)
(2.02943e-05 -2.02672e-05 0.106095)
(6.12038e-05 3.95183e-05 0.108934)
(6.11526e-05 -3.96375e-05 0.108933)
(5.87263e-05 3.79156e-05 0.108932)
(5.86792e-05 -3.80197e-05 0.10893)
(-6.10932e-05 -3.9573e-05 0.108933)
(-5.87026e-05 3.78937e-05 0.108932)
(-5.86159e-05 -3.79474e-05 0.10893)
(9.23693e-05 -9.2434e-05 0.105969)
(-2.02923e-05 2.03292e-05 0.106095)
(-3.94915e-05 -6.11874e-05 0.108934)
(3.78542e-05 -5.87033e-05 0.108932)
(-3.78646e-05 -5.87125e-05 0.108931)
(2.02712e-05 2.02668e-05 0.106094)
(8.76767e-05 8.76469e-05 0.105865)
(-2.23754e-05 -2.23536e-05 0.105991)
(3.74744e-05 5.79463e-05 0.108928)
(-3.74641e-05 5.79009e-05 0.108928)
(3.58131e-05 5.54808e-05 0.108917)
(-3.58048e-05 5.5429e-05 0.108917)
(-8.76602e-05 8.76367e-05 0.105866)
(2.23718e-05 -2.23486e-05 0.105991)
(5.78966e-05 3.73644e-05 0.10893)
(5.78564e-05 -3.74723e-05 0.108928)
(5.54312e-05 3.57084e-05 0.108919)
(5.53888e-05 -3.58051e-05 0.108917)
(-5.77925e-05 -3.74004e-05 0.108928)
(-5.54091e-05 3.56872e-05 0.108919)
(-5.5328e-05 -3.57484e-05 0.108917)
(8.76557e-05 -8.77149e-05 0.105865)
(-2.23913e-05 2.24287e-05 0.10599)
(-3.73231e-05 -5.78944e-05 0.108929)
(3.56502e-05 -5.54028e-05 0.108919)
(-3.56591e-05 -5.54283e-05 0.108918)
(2.23725e-05 2.23623e-05 0.105989)
(8.31639e-05 8.3144e-05 0.105763)
(-2.43397e-05 -2.43212e-05 0.105888)
(3.52547e-05 5.46592e-05 0.108913)
(-3.52399e-05 5.46093e-05 0.108912)
(3.35751e-05 5.22104e-05 0.108895)
(-3.3565e-05 5.21624e-05 0.108894)
(-8.31738e-05 8.31462e-05 0.105763)
(2.43494e-05 -2.43281e-05 0.105888)
(5.46091e-05 3.515e-05 0.108914)
(5.45664e-05 -3.52416e-05 0.108912)
(5.21613e-05 3.34706e-05 0.108896)
(5.2118e-05 -3.35549e-05 0.108894)
(-5.45047e-05 -3.5187e-05 0.108912)
(-5.21436e-05 3.34475e-05 0.108897)
(-5.20593e-05 -3.35113e-05 0.108894)
(8.31632e-05 -8.32171e-05 0.105763)
(-2.43513e-05 2.43961e-05 0.105887)
(-3.51033e-05 -5.46116e-05 0.108913)
(3.34192e-05 -5.21289e-05 0.108896)
(-3.34123e-05 -5.21581e-05 0.108895)
(2.43505e-05 2.43352e-05 0.105886)
(7.88793e-05 7.88583e-05 0.105663)
(-2.61725e-05 -2.61506e-05 0.105787)
(3.30076e-05 5.13975e-05 0.108888)
(-3.29899e-05 5.13484e-05 0.108887)
(3.1309e-05 4.89717e-05 0.108863)
(-3.13047e-05 4.89238e-05 0.108863)
(-7.88749e-05 7.8848e-05 0.105663)
(2.61795e-05 -2.61617e-05 0.105787)
(5.13507e-05 3.29037e-05 0.108889)
(5.13059e-05 -3.29884e-05 0.108887)
(4.8937e-05 3.12188e-05 0.108865)
(4.8881e-05 -3.1291e-05 0.108862)
(-5.12416e-05 -3.29396e-05 0.108887)
(-4.89167e-05 3.11908e-05 0.108865)
(-4.88187e-05 -3.12433e-05 0.108863)
(7.88576e-05 -7.8904e-05 0.105663)
(-2.61728e-05 2.62166e-05 0.105786)
(-3.28477e-05 -5.13428e-05 0.108888)
(3.1165e-05 -4.88892e-05 0.108865)
(-3.11614e-05 -4.8917e-05 0.108864)
(2.61673e-05 2.61544e-05 0.105785)
(7.48376e-05 7.482e-05 0.105565)
(-2.78595e-05 -2.78371e-05 0.105689)
(3.07441e-05 4.81662e-05 0.108855)
(-3.07351e-05 4.81186e-05 0.108854)
(2.90576e-05 4.57716e-05 0.108825)
(-2.90451e-05 4.57246e-05 0.108825)
(-7.48645e-05 7.48364e-05 0.105566)
(2.78554e-05 -2.78461e-05 0.105689)
(4.81328e-05 3.06623e-05 0.108856)
(4.80794e-05 -3.07246e-05 0.108854)
(4.57363e-05 2.8976e-05 0.108827)
(4.56896e-05 -2.90311e-05 0.108824)
(-4.80153e-05 -3.06779e-05 0.108854)
(-4.57303e-05 2.89381e-05 0.108827)
(-4.56252e-05 -2.89905e-05 0.108825)
(7.48415e-05 -7.48874e-05 0.105565)
(-2.78705e-05 2.79162e-05 0.105688)
(-3.05961e-05 -4.8112e-05 0.108855)
(2.8925e-05 -4.56952e-05 0.108827)
(-2.89147e-05 -4.5713e-05 0.108826)
(2.78509e-05 2.7839e-05 0.105687)
(7.10069e-05 7.09916e-05 0.105471)
(-2.94096e-05 -2.93931e-05 0.105594)
(2.84925e-05 4.49823e-05 0.108815)
(-2.84862e-05 4.49338e-05 0.108814)
(2.68293e-05 4.26252e-05 0.108781)
(-2.6834e-05 4.25785e-05 0.108781)
(-7.10457e-05 7.10064e-05 0.105471)
(2.94143e-05 -2.94189e-05 0.105594)
(4.49444e-05 2.84141e-05 0.108816)
(4.49022e-05 -2.84768e-05 0.108814)
(4.25866e-05 2.676e-05 0.108783)
(4.25484e-05 -2.68078e-05 0.10878)
(-4.48346e-05 -2.84302e-05 0.108814)
(-4.25917e-05 2.67248e-05 0.108783)
(-4.24894e-05 -2.67659e-05 0.108781)
(7.10304e-05 -7.10698e-05 0.105471)
(-2.94055e-05 2.94494e-05 0.105593)
(-2.83584e-05 -4.49197e-05 0.108815)
(2.67088e-05 -4.25502e-05 0.108782)
(-2.67051e-05 -4.25643e-05 0.108782)
(2.9412e-05 2.94138e-05 0.105592)
(6.74524e-05 6.74321e-05 0.10538)
(-3.08443e-05 -3.08353e-05 0.105502)
(2.62724e-05 4.18456e-05 0.108769)
(-2.6288e-05 4.18002e-05 0.108769)
(2.46525e-05 3.95344e-05 0.108732)
(-2.46667e-05 3.94877e-05 0.108732)
(-6.74696e-05 6.74107e-05 0.105381)
(3.08292e-05 -3.08521e-05 0.105503)
(4.18047e-05 2.62049e-05 0.108771)
(4.17716e-05 -2.62661e-05 0.108768)
(3.95019e-05 2.45777e-05 0.108734)
(3.94638e-05 -2.46329e-05 0.108731)
(-4.17126e-05 -2.6215e-05 0.108769)
(-3.95098e-05 2.45393e-05 0.108735)
(-3.94192e-05 -2.45951e-05 0.108732)
(6.74377e-05 -6.7477e-05 0.10538)
(-3.08416e-05 3.08829e-05 0.105502)
(-2.61595e-05 -4.17845e-05 0.10877)
(2.4539e-05 -3.9473e-05 0.108734)
(-2.45427e-05 -3.94772e-05 0.108733)
(3.0848e-05 3.08583e-05 0.105501)
(6.4093e-05 6.40693e-05 0.105293)
(-3.21574e-05 -3.21541e-05 0.105414)
(2.41072e-05 3.87696e-05 0.10872)
(-2.41336e-05 3.87258e-05 0.108719)
(2.25274e-05 3.65174e-05 0.10868)
(-2.25447e-05 3.64647e-05 0.108679)
(-6.41038e-05 6.40183e-05 0.105293)
(3.21231e-05 -3.2189e-05 0.105415)
(3.87347e-05 2.4036e-05 0.108721)
(3.87046e-05 -2.40977e-05 0.108719)
(3.64795e-05 2.24578e-05 0.108682)
(3.64508e-05 -2.25195e-05 0.108679)
(-3.86612e-05 -2.40565e-05 0.108719)
(-3.64979e-05 2.24152e-05 0.108682)
(-3.64137e-05 -2.24783e-05 0.108679)
(6.40827e-05 -6.41228e-05 0.105293)
(-3.21523e-05 3.21854e-05 0.105414)
(-2.40087e-05 -3.87171e-05 0.10872)
(2.24289e-05 -3.64659e-05 0.108681)
(-2.24418e-05 -3.64602e-05 0.108681)
(3.21325e-05 3.21478e-05 0.105413)
(6.09309e-05 6.09175e-05 0.10521)
(-3.33403e-05 -3.33557e-05 0.10533)
(2.20044e-05 3.57759e-05 0.108666)
(-2.20331e-05 3.57298e-05 0.108666)
(2.04973e-05 3.35728e-05 0.108625)
(-2.05198e-05 3.35364e-05 0.108624)
(-6.09694e-05 6.0845e-05 0.10521)
(3.33066e-05 -3.33562e-05 0.105331)
(3.57242e-05 2.19333e-05 0.108668)
(3.57084e-05 -2.19981e-05 0.108665)
(3.3539e-05 2.04285e-05 0.108627)
(3.35149e-05 -2.04854e-05 0.108624)
(-3.56696e-05 -2.196e-05 0.108666)
(-3.35636e-05 2.03882e-05 0.108627)
(-3.34848e-05 -2.04575e-05 0.108624)
(6.09045e-05 -6.09491e-05 0.105209)
(-3.33572e-05 3.33865e-05 0.10533)
(-2.19221e-05 -3.57143e-05 0.108667)
(2.03976e-05 -3.35291e-05 0.108626)
(-2.04048e-05 -3.35159e-05 0.108626)
(3.33202e-05 3.3328e-05 0.105329)
(5.79942e-05 5.79724e-05 0.10513)
(-3.44286e-05 -3.44367e-05 0.10525)
(1.99962e-05 3.28455e-05 0.108611)
(-2.00257e-05 3.28159e-05 0.10861)
(1.85357e-05 3.07075e-05 0.108568)
(-1.85773e-05 3.06954e-05 0.108568)
(-5.8037e-05 5.79312e-05 0.10513)
(3.43857e-05 -3.4431e-05 0.10525)
(3.28116e-05 1.99251e-05 0.108613)
(3.27918e-05 -1.9985e-05 0.10861)
(3.06779e-05 1.84717e-05 0.10857)
(3.0657e-05 -1.85304e-05 0.108567)
(-3.27596e-05 -1.99556e-05 0.10861)
(-3.07082e-05 1.84402e-05 0.10857)
(-3.06309e-05 -1.84995e-05 0.108567)
(5.79431e-05 -5.79889e-05 0.10513)
(-3.44287e-05 3.44567e-05 0.10525)
(-1.99045e-05 -3.27925e-05 0.108612)
(1.84484e-05 -3.06693e-05 0.10857)
(-1.84567e-05 -3.06563e-05 0.108569)
(3.44158e-05 3.4429e-05 0.105249)
(5.52246e-05 5.52131e-05 0.105054)
(-3.54037e-05 -3.54051e-05 0.105174)
(1.80606e-05 3.00051e-05 0.108554)
(-1.81063e-05 2.99922e-05 0.108553)
(1.66681e-05 2.79322e-05 0.10851)
(-1.67078e-05 2.79199e-05 0.10851)
(-5.52698e-05 5.51702e-05 0.105054)
(3.5355e-05 -3.53927e-05 0.105174)
(2.99723e-05 1.79974e-05 0.108555)
(2.99566e-05 -1.80544e-05 0.108553)
(2.78989e-05 1.66123e-05 0.108512)
(2.78887e-05 -1.66671e-05 0.108509)
(-2.99294e-05 -1.80294e-05 0.108553)
(-2.79209e-05 1.658e-05 0.108512)
(-2.78557e-05 -1.6638e-05 0.10851)
(5.52119e-05 -5.52556e-05 0.105054)
(-3.54074e-05 3.54346e-05 0.105173)
(-1.79856e-05 -2.99545e-05 0.108554)
(1.6591e-05 -2.78878e-05 0.108512)
(-1.65966e-05 -2.78768e-05 0.108511)
(3.53714e-05 3.53845e-05 0.105172)
(5.26481e-05 5.26414e-05 0.104982)
(-3.62851e-05 -3.62785e-05 0.105101)
(1.62212e-05 2.72515e-05 0.108496)
(-1.62512e-05 2.72402e-05 0.108495)
(1.49076e-05 2.52468e-05 0.108452)
(-1.4943e-05 2.52416e-05 0.108451)
(-5.27133e-05 5.26247e-05 0.104982)
(3.62594e-05 -3.62791e-05 0.105101)
(2.72185e-05 1.61682e-05 0.108497)
(2.72104e-05 -1.62203e-05 0.108494)
(2.52131e-05 1.48624e-05 0.108454)
(2.52053e-05 -1.49047e-05 0.108451)
(-2.71785e-05 -1.61909e-05 0.108495)
(-2.52318e-05 1.48414e-05 0.108454)
(-2.51703e-05 -1.4883e-05 0.108451)
(5.26297e-05 -5.26739e-05 0.104982)
(-3.62868e-05 3.63215e-05 0.1051)
(-1.61428e-05 -2.71987e-05 0.108496)
(1.48423e-05 -2.51967e-05 0.108453)
(-1.48381e-05 -2.51853e-05 0.108453)
(3.62664e-05 3.62737e-05 0.1051)
(5.02592e-05 5.02667e-05 0.104914)
(-3.70666e-05 -3.70566e-05 0.105032)
(1.44836e-05 2.45877e-05 0.108437)
(-1.45163e-05 2.4584e-05 0.108437)
(1.32495e-05 2.26553e-05 0.108394)
(-1.32747e-05 2.26518e-05 0.108393)
(-5.02803e-05 5.02132e-05 0.104914)
(3.70451e-05 -3.70479e-05 0.105032)
(2.45529e-05 1.44345e-05 0.108439)
(2.45487e-05 -1.44831e-05 0.108436)
(2.26185e-05 1.32134e-05 0.108396)
(2.26213e-05 -1.32482e-05 0.108393)
(-2.45117e-05 -1.44549e-05 0.108437)
(-2.26255e-05 1.31876e-05 0.108396)
(-2.25806e-05 -1.32218e-05 0.108393)
(5.0242e-05 -5.0277e-05 0.104913)
(-3.70636e-05 3.70977e-05 0.105032)
(-1.44118e-05 -2.45288e-05 0.108438)
(1.31901e-05 -2.26007e-05 0.108395)
(-1.31774e-05 -2.25945e-05 0.108395)
(3.70481e-05 3.70469e-05 0.105031)
(4.80468e-05 4.8059e-05 0.104849)
(-3.77768e-05 -3.77644e-05 0.104967)
(1.28472e-05 2.20191e-05 0.108379)
(-1.28793e-05 2.20168e-05 0.108379)
(1.16892e-05 2.01634e-05 0.108336)
(-1.17114e-05 2.01609e-05 0.108336)
(-4.80504e-05 4.79996e-05 0.104849)
(3.77697e-05 -3.77588e-05 0.104967)
(2.1981e-05 1.28089e-05 0.108381)
(2.19877e-05 -1.28497e-05 0.108378)
(2.01242e-05 1.16516e-05 0.108338)
(2.01231e-05 -1.16793e-05 0.108335)
(-2.1947e-05 -1.28307e-05 0.108379)
(-2.01245e-05 1.16424e-05 0.108339)
(-2.00892e-05 -1.1666e-05 0.108336)
(4.80038e-05 -4.80388e-05 0.104849)
(-3.77533e-05 3.77819e-05 0.104966)
(-1.27754e-05 -2.19597e-05 0.10838)
(1.16375e-05 -2.01044e-05 0.108338)
(-1.16193e-05 -2.01072e-05 0.108337)
(3.77572e-05 3.77554e-05 0.104966)
(4.59454e-05 4.59575e-05 0.104788)
(1.13104e-05 1.95517e-05 0.108322)
(-1.13291e-05 1.95511e-05 0.108322)
(-4.59482e-05 4.59137e-05 0.104788)
(1.95131e-05 1.12776e-05 0.108324)
(1.95161e-05 -1.13073e-05 0.108321)
(-1.94801e-05 -1.12954e-05 0.108321)
(4.59427e-05 -4.59783e-05 0.104787)
(-1.12476e-05 -1.94966e-05 0.108323)
(8.91528e-07 6.9704e-06 0.0937514)
(-1.25812e-06 3.07051e-05 0.083354)
(-3.99831e-06 -6.02341e-06 0.0833633)
(1.58378e-06 5.28493e-05 0.0937679)
(-3.47349e-06 1.42419e-05 0.0720082)
(5.43382e-06 -5.74996e-06 0.0720491)
(6.96893e-06 8.44686e-07 0.0937513)
(3.07046e-05 -1.27645e-06 0.0833539)
(-6.03268e-06 -3.99722e-06 0.0833634)
(5.28393e-05 1.52845e-06 0.0937677)
(-5.97753e-05 5.97701e-05 0.109207)
(5.97931e-05 -5.98228e-05 0.109207)
(-5.97707e-05 -5.98344e-05 0.109207)
(5.88864e-05 5.88329e-05 0.109424)
(-5.88464e-05 5.88317e-05 0.109424)
(5.88528e-05 -5.88847e-05 0.109424)
(-5.88376e-05 -5.88855e-05 0.109424)
(-4.27295e-05 2.94406e-06 0.102218)
(-6.06256e-05 2.42253e-05 0.0954239)
(-0.000100145 1.95113e-05 0.108864)
(-8.9043e-05 5.5488e-05 0.108186)
(-1.79251e-05 -1.49509e-06 0.0954477)
(-9.97492e-05 1.93793e-05 0.108926)
(-0.000103738 4.78386e-06 0.102196)
(1.42302e-05 -3.4849e-06 0.0720083)
(-5.6956e-06 5.46024e-06 0.0720482)
(2.9233e-06 -4.27551e-05 0.102216)
(1.95714e-05 -0.000100236 0.108863)
(2.43254e-05 -6.06412e-05 0.0954243)
(5.54901e-05 -8.91164e-05 0.108186)
(1.94347e-05 -9.98422e-05 0.108926)
(-1.38551e-06 -1.78667e-05 0.095445)
(4.87261e-06 -0.000103831 0.102196)
(-2.98576e-05 -1.62523e-05 0.0891385)
(-1.63502e-05 -2.97769e-05 0.0891379)
(-5.7358e-06 -5.64364e-06 0.106839)
(-8.89684e-06 3.71069e-06 0.0891497)
(3.55177e-06 -8.81775e-06 0.0891468)
(6.06185e-07 4.20635e-06 0.0934795)
(-1.14247e-06 2.89324e-05 0.0831545)
(1.3013e-06 4.86689e-05 0.0934884)
(-3.86306e-06 -6.76673e-06 0.0831692)
(-3.45441e-06 1.36607e-05 0.0718718)
(5.20628e-06 -5.73491e-06 0.0719153)
(4.24106e-06 5.97035e-07 0.0934792)
(2.89118e-05 -1.12485e-06 0.0831546)
(4.86667e-05 1.264e-06 0.093488)
(-6.79627e-06 -3.82231e-06 0.0831694)
(-5.85386e-05 5.85222e-05 0.109495)
(5.8544e-05 -5.85743e-05 0.109495)
(-5.85288e-05 -5.85723e-05 0.109495)
(5.7636e-05 5.75968e-05 0.109705)
(-5.7613e-05 5.75953e-05 0.109705)
(5.76081e-05 -5.76355e-05 0.109705)
(-5.75963e-05 -5.7632e-05 0.109705)
(-3.66049e-05 2.27226e-06 0.101946)
(-5.68078e-05 2.24444e-05 0.0951548)
(-9.85936e-05 1.89865e-05 0.109108)
(-8.67797e-05 5.42343e-05 0.108341)
(-9.67718e-05 4.02199e-06 0.101925)
(-1.46443e-05 -2.34362e-06 0.095182)
(-9.81909e-05 1.88543e-05 0.109166)
(1.363e-05 -3.47964e-06 0.0718716)
(-5.70774e-06 5.22965e-06 0.0719143)
(2.24146e-06 -3.66504e-05 0.101944)
(1.90426e-05 -9.86625e-05 0.109107)
(2.25156e-05 -5.6861e-05 0.0951551)
(5.4243e-05 -8.68176e-05 0.10834)
(4.13285e-06 -9.68514e-05 0.101925)
(1.89076e-05 -9.82515e-05 0.109166)
(-2.2708e-06 -1.46362e-05 0.0951793)
(-2.79357e-05 -1.53369e-05 0.0889096)
(-1.54508e-05 -2.78364e-05 0.0889089)
(-3.14786e-06 -3.02963e-06 0.106839)
(-7.17431e-06 4.06556e-06 0.0889258)
(3.92355e-06 -7.07699e-06 0.088923)
(3.58206e-07 2.21803e-06 0.0932337)
(-1.06582e-06 2.75025e-05 0.0829744)
(1.02996e-06 4.52486e-05 0.0932359)
(-3.78924e-06 -7.20572e-06 0.0829938)
(-3.47524e-06 1.31963e-05 0.071748)
(4.99392e-06 -5.71715e-06 0.0717938)
(2.23547e-06 3.97549e-07 0.0932335)
(2.74575e-05 -1.00201e-06 0.0829745)
(4.52647e-05 1.04641e-06 0.0932356)
(-7.25834e-06 -3.7266e-06 0.0829941)
(-5.73003e-05 5.728e-05 0.109774)
(5.72925e-05 -5.73219e-05 0.109774)
(-5.72868e-05 -5.73157e-05 0.109774)
(5.63293e-05 5.6308e-05 0.109977)
(-5.63352e-05 5.63059e-05 0.109977)
(5.63009e-05 -5.63386e-05 0.109977)
(-5.63194e-05 -5.63269e-05 0.109977)
(-3.07158e-05 1.89216e-06 0.101679)
(-5.33477e-05 2.08348e-05 0.0949058)
(-9.70203e-05 1.84741e-05 0.109338)
(-8.4367e-05 5.29736e-05 0.108476)
(-9.00223e-05 3.48401e-06 0.101658)
(-1.17641e-05 -3.00495e-06 0.0949361)
(-9.65956e-05 1.83468e-05 0.109393)
(1.31555e-05 -3.52571e-06 0.0717477)
(-5.68853e-06 5.02614e-06 0.0717927)
(1.81054e-06 -3.0746e-05 0.101677)
(1.85129e-05 -9.70501e-05 0.109338)
(2.08963e-05 -5.34152e-05 0.094906)
(5.29591e-05 -8.43892e-05 0.108476)
(3.55534e-06 -9.01054e-05 0.101657)
(1.83778e-05 -9.66314e-05 0.109393)
(-2.99436e-06 -1.1755e-05 0.0949335)
(-2.61585e-05 -1.45249e-05 0.0887013)
(-1.46731e-05 -2.60349e-05 0.0887007)
(-6.37539e-07 -5.05367e-07 0.106816)
(-5.58253e-06 4.3549e-06 0.0887219)
(4.21577e-06 -5.47422e-06 0.0887191)
(1.26418e-07 6.56516e-07 0.0930111)
(-1.10623e-06 2.62853e-05 0.0828115)
(7.74551e-07 4.24262e-05 0.0930077)
(-3.85123e-06 -7.29642e-06 0.082835)
(-3.51159e-06 1.27467e-05 0.0716356)
(4.86553e-06 -5.65132e-06 0.0716834)
(6.61751e-07 1.97453e-07 0.093011)
(2.6234e-05 -1.04271e-06 0.0828117)
(4.24391e-05 8.26077e-07 0.0930074)
(-7.34254e-06 -3.77743e-06 0.0828354)
(-5.60097e-05 5.59761e-05 0.110044)
(5.5966e-05 -5.601e-05 0.110044)
(-5.59945e-05 -5.5994e-05 0.110043)
(5.49698e-05 5.49667e-05 0.110239)
(-5.49977e-05 5.49701e-05 0.110239)
(5.49409e-05 -5.49888e-05 0.110239)
(-5.49858e-05 -5.49737e-05 0.110239)
(-2.54133e-05 1.55638e-06 0.101421)
(-5.03073e-05 1.94446e-05 0.0946757)
(-9.52754e-05 1.79735e-05 0.109554)
(-8.1827e-05 5.16355e-05 0.108593)
(-8.36834e-05 3.0739e-06 0.101398)
(-9.22449e-06 -3.48882e-06 0.0947091)
(-9.47981e-05 1.78486e-05 0.109606)
(1.27287e-05 -3.53913e-06 0.0716352)
(-5.61859e-06 4.91471e-06 0.0716822)
(1.42326e-06 -2.54284e-05 0.101419)
(1.79894e-05 -9.52864e-05 0.109554)
(1.94376e-05 -5.03742e-05 0.094676)
(5.15996e-05 -8.18109e-05 0.108593)
(3.09786e-06 -8.37466e-05 0.101398)
(1.78585e-05 -9.48112e-05 0.109606)
(-3.50992e-06 -9.209e-06 0.0947067)
(-2.44964e-05 -1.37714e-05 0.0885117)
(-1.39105e-05 -2.44031e-05 0.0885111)
(1.82817e-06 1.96385e-06 0.106772)
(-4.16445e-06 4.48883e-06 0.0885361)
(4.39764e-06 -4.0777e-06 0.0885335)
(-9.48814e-08 -6.37459e-07 0.092809)
(-1.17122e-06 2.53426e-05 0.0826641)
(5.50287e-07 3.99895e-05 0.0928007)
(-3.8968e-06 -7.19481e-06 0.0826913)
(-3.49872e-06 1.23909e-05 0.0715334)
(4.80784e-06 -5.55003e-06 0.071583)
(-6.33555e-07 -4.95968e-09 0.092809)
(2.53015e-05 -1.11497e-06 0.0826644)
(3.99916e-05 6.18819e-07 0.0928005)
(-7.23446e-06 -3.82821e-06 0.0826916)
(-5.46573e-05 5.46261e-05 0.110303)
(5.45984e-05 -5.46464e-05 0.110303)
(-5.46418e-05 -5.46291e-05 0.110303)
(5.3565e-05 5.3573e-05 0.110492)
(-5.35966e-05 5.35774e-05 0.110491)
(5.35402e-05 -5.35911e-05 0.110491)
(-5.3587e-05 -5.3568e-05 0.110491)
(-2.06308e-05 1.28472e-06 0.101174)
(-4.75546e-05 1.81966e-05 0.0944635)
(-9.33022e-05 1.74758e-05 0.109756)
(-7.91307e-05 5.02168e-05 0.108692)
(-7.78334e-05 2.71337e-06 0.101149)
(-7.01549e-06 -3.93816e-06 0.0944997)
(-9.27616e-05 1.73438e-05 0.109803)
(1.23581e-05 -3.52405e-06 0.0715332)
(-5.5118e-06 4.86596e-06 0.0715819)
(1.10384e-06 -2.06372e-05 0.101173)
(1.74658e-05 -9.32926e-05 0.109755)
(1.81731e-05 -4.7618e-05 0.094464)
(5.0145e-05 -7.90971e-05 0.108692)
(2.70365e-06 -7.78887e-05 0.101149)
(1.73319e-05 -9.27559e-05 0.109803)
(-3.95864e-06 -7.00192e-06 0.0944976)
(-2.29962e-05 -1.31246e-05 0.088339)
(-1.32378e-05 -2.29113e-05 0.0883385)
(4.32735e-06 4.44324e-06 0.106712)
(-2.93537e-06 4.56392e-06 0.0883669)
(4.49362e-06 -2.86422e-06 0.0883643)
(-2.13524e-07 -1.71897e-06 0.092625)
(-1.25215e-06 2.45265e-05 0.0825307)
(3.44601e-07 3.78e-05 0.0926126)
(-3.95635e-06 -7.14886e-06 0.082561)
(-3.46286e-06 1.20403e-05 0.0714408)
(4.71897e-06 -5.49969e-06 0.0714918)
(-1.70872e-06 -1.40189e-07 0.092625)
(2.44934e-05 -1.19373e-06 0.0825309)
(3.78119e-05 4.13134e-07 0.0926124)
(-7.17802e-06 -3.89952e-06 0.0825613)