/*--------------------------------*- C++ -*----------------------------------*\
| =========                 |                                                 |
| \\      /  F ield         | OpenFOAM: The Open Source CFD Toolbox           |
|  \\    /   O peration     | Version:  2312                                  |
|   \\  /    A nd           | Website:  www.openfoam.com                      |
|    \\/     M anipulation  |                                                 |
\*---------------------------------------------------------------------------*/
FoamFile
{
    version     2.0;
    format      ascii;
    arch        "LSB;label=32;scalar=64";
    class       volScalarField;
    location    "500";
    object      k;
}
// * * * * * * * * * * * * * * * * * * * * * * * * * * * * * * * * * * * * * //

dimensions      [0 2 -2 0 0 0 0];

internalField   nonuniform List<scalar> 
172512
(
3.60232e-05
3.60198e-05
3.60198e-05
3.60083e-05
3.39295e-05
3.38866e-05
3.38866e-05
3.39612e-05
3.21573e-05
3.20055e-05
3.20055e-05
3.19506e-05
3.05338e-05
3.02267e-05
3.02267e-05
2.99864e-05
2.90318e-05
2.85515e-05
2.85515e-05
2.81202e-05
2.76341e-05
2.69848e-05
2.69847e-05
2.63881e-05
2.63294e-05
2.55287e-05
2.55286e-05
2.48046e-05
2.51097e-05
2.41827e-05
2.41826e-05
2.33754e-05
2.39694e-05
2.29484e-05
2.29483e-05
2.21019e-05
2.29042e-05
2.18247e-05
2.18245e-05
2.09832e-05
2.19105e-05
2.08092e-05
2.08091e-05
2.00109e-05
2.09849e-05
1.98992e-05
1.9899e-05
1.91787e-05
2.01226e-05
1.90928e-05
1.90928e-05
1.84884e-05
1.93224e-05
1.83872e-05
1.83871e-05
1.79335e-05
1.85834e-05
1.77785e-05
1.77782e-05
1.75108e-05
1.79037e-05
1.72667e-05
1.72668e-05
1.72062e-05
1.728e-05
1.68531e-05
1.68536e-05
1.705e-05
1.67094e-05
1.65339e-05
1.6533e-05
1.70454e-05
1.62015e-05
1.63386e-05
1.63607e-05
1.72844e-05
1.5758e-05
1.62519e-05
1.62511e-05
1.76105e-05
1.5367e-05
1.64197e-05
1.66022e-05
1.90705e-05
1.5008e-05
1.64071e-05
1.64969e-05
1.89473e-05
1.46296e-05
1.6189e-05
1.62479e-05
1.8471e-05
1.43004e-05
1.64362e-05
1.67119e-05
1.91555e-05
1.40778e-05
1.65882e-05
1.67577e-05
1.99231e-05
1.39359e-05
1.75278e-05
1.73623e-05
2.13725e-05
1.38068e-05
1.80827e-05
1.73565e-05
2.0947e-05
1.35986e-05
1.77473e-05
1.79186e-05
2.24079e-05
1.35499e-05
1.87306e-05
1.88153e-05
2.38692e-05
1.36496e-05
1.95206e-05
2.02708e-05
2.40613e-05
1.36558e-05
2.0005e-05
2.02121e-05
2.69616e-05
1.38166e-05
2.15715e-05
2.1056e-05
2.471e-05
1.38314e-05
2.24956e-05
2.14284e-05
3.02659e-05
1.40264e-05
2.25712e-05
2.33119e-05
3.03634e-05
1.44706e-05
2.37433e-05
2.40758e-05
3.09814e-05
1.45683e-05
2.48086e-05
2.4464e-05
3.13478e-05
1.48365e-05
2.61003e-05
2.60282e-05
3.23981e-05
1.53166e-05
2.67841e-05
2.71629e-05
3.33049e-05
1.57549e-05
2.78319e-05
2.78838e-05
3.4521e-05
1.6158e-05
2.91025e-05
2.88888e-05
3.52075e-05
1.66431e-05
2.99399e-05
2.98907e-05
3.6748e-05
1.71685e-05
3.09433e-05
3.09883e-05
3.74881e-05
1.77378e-05
3.19893e-05
3.20244e-05
3.78968e-05
1.83943e-05
3.3018e-05
3.30221e-05
3.89287e-05
1.90345e-05
3.40364e-05
3.40491e-05
3.98234e-05
1.9724e-05
3.50262e-05
3.49994e-05
4.05874e-05
2.04516e-05
3.5952e-05
3.59451e-05
4.13307e-05
2.12028e-05
3.6874e-05
3.69288e-05
4.22003e-05
2.19703e-05
3.78608e-05
3.78046e-05
4.27811e-05
2.27418e-05
3.86496e-05
3.87455e-05
4.3573e-05
2.35496e-05
3.953e-05
3.94673e-05
4.42232e-05
2.4334e-05
4.0385e-05
4.04304e-05
4.48623e-05
2.51462e-05
4.12367e-05
4.11819e-05
4.54732e-05
2.59881e-05
4.18601e-05
4.18678e-05
4.61406e-05
2.6792e-05
4.26456e-05
4.27569e-05
4.66856e-05
2.75891e-05
4.3423e-05
4.33465e-05
4.71341e-05
2.84346e-05
4.40885e-05
4.40276e-05
4.78605e-05
2.91834e-05
4.47226e-05
4.47645e-05
4.83246e-05
2.9922e-05
4.52659e-05
4.53672e-05
4.85543e-05
3.07973e-05
4.60082e-05
4.58078e-05
4.94152e-05
3.14383e-05
4.661e-05
4.67719e-05
4.93712e-05
3.22275e-05
4.6852e-05
4.69069e-05
5.04778e-05
3.29051e-05
4.76804e-05
4.7476e-05
4.96034e-05
3.35272e-05
4.74426e-05
4.81825e-05
5.2224e-05
3.4333e-05
4.93968e-05
4.8667e-05
4.92739e-05
3.50292e-05
4.81131e-05
4.8642e-05
5.32175e-05
3.53413e-05
4.99762e-05
4.96765e-05
5.16313e-05
3.61136e-05
4.9806e-05
4.9876e-05
5.17637e-05
3.6402e-05
4.91049e-05
4.91311e-05
5.17513e-05
3.74485e-05
5.1503e-05
5.14814e-05
5.41561e-05
3.78915e-05
5.04785e-05
5.04705e-05
5.2844e-05
3.78309e-05
5.03588e-05
5.03846e-05
5.23351e-05
3.84409e-05
5.14114e-05
5.15809e-05
5.37354e-05
3.92203e-05
5.18731e-05
5.17012e-05
5.3948e-05
3.94535e-05
5.17557e-05
5.16896e-05
5.37404e-05
3.97552e-05
5.19781e-05
5.20637e-05
5.40521e-05
4.00721e-05
5.21764e-05
5.2098e-05
5.40797e-05
4.02777e-05
5.20945e-05
5.21738e-05
5.40777e-05
4.06275e-05
5.24221e-05
5.24613e-05
5.44163e-05
4.09576e-05
5.26586e-05
5.26103e-05
5.45326e-05
4.11706e-05
5.26883e-05
5.26716e-05
5.45557e-05
4.13637e-05
5.27427e-05
5.2772e-05
5.46093e-05
4.15333e-05
5.28212e-05
5.28023e-05
5.4651e-05
4.16991e-05
5.28459e-05
5.28601e-05
5.46594e-05
4.18461e-05
5.29355e-05
5.29473e-05
5.48552e-05
4.19519e-05
5.288e-05
5.28588e-05
5.45262e-05
4.20445e-05
5.29195e-05
5.29488e-05
5.49347e-05
4.21385e-05
5.29212e-05
5.29248e-05
5.45936e-05
4.21719e-05
5.28239e-05
5.2826e-05
5.46841e-05
4.22192e-05
5.28831e-05
5.2848e-05
5.46678e-05
4.23023e-05
5.28073e-05
5.29078e-05
5.47446e-05
4.22369e-05
5.27264e-05
5.25881e-05
5.43268e-05
4.23139e-05
5.26882e-05
5.28062e-05
5.46458e-05
4.22625e-05
5.26513e-05
5.26804e-05
5.45754e-05
4.38471e-05
5.05817e-05
5.04946e-05
5.36178e-05
3.62984e-05
3.62919e-05
3.62919e-05
3.62984e-05
3.62919e-05
3.62919e-05
3.62908e-05
3.62908e-05
3.62908e-05
3.62908e-05
3.62919e-05
3.62919e-05
3.62984e-05
3.62919e-05
3.62919e-05
3.62984e-05
3.60084e-05
3.42676e-05
3.60198e-05
3.60198e-05
3.43745e-05
3.43744e-05
3.60083e-05
3.42677e-05
3.60198e-05
3.60198e-05
3.43745e-05
3.43744e-05
3.60198e-05
3.43745e-05
3.43745e-05
3.60083e-05
3.42677e-05
3.60198e-05
3.43745e-05
3.43745e-05
3.42676e-05
3.39612e-05
3.22619e-05
3.38865e-05
3.38865e-05
3.24658e-05
3.24657e-05
3.39612e-05
3.22619e-05
3.38865e-05
3.38865e-05
3.24659e-05
3.24657e-05
3.38865e-05
3.2466e-05
3.24658e-05
3.39612e-05
3.22619e-05
3.38865e-05
3.24659e-05
3.24659e-05
3.22618e-05
3.19507e-05
3.02973e-05
3.20054e-05
3.20053e-05
3.06617e-05
3.06616e-05
3.19506e-05
3.02973e-05
3.20054e-05
3.20052e-05
3.06618e-05
3.06615e-05
3.20053e-05
3.0662e-05
3.06617e-05
3.19506e-05
3.02972e-05
3.20054e-05
3.06619e-05
3.06618e-05
3.02971e-05
2.99865e-05
2.8423e-05
3.02264e-05
3.02263e-05
2.89599e-05
2.89597e-05
2.99865e-05
2.8423e-05
3.02266e-05
3.02262e-05
2.89601e-05
2.89596e-05
3.02264e-05
2.89603e-05
2.89598e-05
2.99864e-05
2.84228e-05
3.02265e-05
2.89602e-05
2.896e-05
2.84227e-05
2.81205e-05
2.66716e-05
2.85511e-05
2.85509e-05
2.73656e-05
2.73653e-05
2.81204e-05
2.66715e-05
2.85514e-05
2.85508e-05
2.73659e-05
2.73652e-05
2.8551e-05
2.73661e-05
2.73655e-05
2.81203e-05
2.66714e-05
2.85513e-05
2.7366e-05
2.73658e-05
2.66712e-05
2.63884e-05
2.50638e-05
2.69842e-05
2.6984e-05
2.58817e-05
2.58815e-05
2.63883e-05
2.50638e-05
2.69846e-05
2.69839e-05
2.58822e-05
2.58813e-05
2.69841e-05
2.58824e-05
2.58816e-05
2.63882e-05
2.50636e-05
2.69844e-05
2.58823e-05
2.5882e-05
2.50633e-05
2.4805e-05
2.361e-05
2.5528e-05
2.55277e-05
2.4508e-05
2.45077e-05
2.48049e-05
2.36099e-05
2.55285e-05
2.55276e-05
2.45085e-05
2.45075e-05
2.55279e-05
2.45087e-05
2.45078e-05
2.48047e-05
2.36097e-05
2.55283e-05
2.45086e-05
2.45083e-05
2.36095e-05
2.33758e-05
2.23099e-05
2.41819e-05
2.41816e-05
2.32456e-05
2.32453e-05
2.33758e-05
2.23098e-05
2.41825e-05
2.41814e-05
2.32463e-05
2.32451e-05
2.41817e-05
2.32465e-05
2.32455e-05
2.33757e-05
2.23096e-05
2.41823e-05
2.32464e-05
2.32461e-05
2.23093e-05
2.21025e-05
2.11657e-05
2.29475e-05
2.29471e-05
2.20943e-05
2.2094e-05
2.21022e-05
2.11656e-05
2.29481e-05
2.2947e-05
2.20951e-05
2.20939e-05
2.29473e-05
2.20953e-05
2.20942e-05
2.2102e-05
2.11653e-05
2.29479e-05
2.20952e-05
2.20949e-05
2.1165e-05
2.09838e-05
2.01686e-05
2.18237e-05
2.18234e-05
2.10521e-05
2.10517e-05
2.09837e-05
2.01682e-05
2.18244e-05
2.18232e-05
2.10529e-05
2.10516e-05
2.18236e-05
2.10531e-05
2.1052e-05
2.09835e-05
2.01679e-05
2.18243e-05
2.1053e-05
2.10527e-05
2.01677e-05
2.00116e-05
1.93127e-05
2.08081e-05
2.08078e-05
2.0116e-05
2.01157e-05
2.00113e-05
1.93127e-05
2.0809e-05
2.08077e-05
2.01169e-05
2.01156e-05
2.08081e-05
2.01171e-05
2.01158e-05
2.00109e-05
1.93124e-05
2.08088e-05
2.0117e-05
2.01167e-05
1.93119e-05
1.91797e-05
1.85887e-05
1.98981e-05
1.98978e-05
1.92837e-05
1.92835e-05
1.91796e-05
1.85884e-05
1.9899e-05
1.98976e-05
1.92847e-05
1.92834e-05
1.9898e-05
1.92849e-05
1.92837e-05
1.91794e-05
1.85887e-05
1.98988e-05
1.92848e-05
1.92845e-05
1.85885e-05
1.84887e-05
1.79956e-05
1.90919e-05
1.90913e-05
1.85526e-05
1.85529e-05
1.84888e-05
1.79961e-05
1.90928e-05
1.90914e-05
1.85536e-05
1.85527e-05
1.90916e-05
1.85542e-05
1.85531e-05
1.84887e-05
1.79972e-05
1.90924e-05
1.8554e-05
1.85541e-05
1.79974e-05
1.79321e-05
1.75405e-05
1.83859e-05
1.83858e-05
1.79211e-05
1.79204e-05
1.79331e-05
1.7539e-05
1.8387e-05
1.83858e-05
1.7922e-05
1.79206e-05
1.8386e-05
1.79215e-05
1.79207e-05
1.79335e-05
1.75397e-05
1.83867e-05
1.79222e-05
1.79215e-05
1.75412e-05
1.75085e-05
1.72233e-05
1.77772e-05
1.77778e-05
1.73841e-05
1.73843e-05
1.75089e-05
1.72236e-05
1.77782e-05
1.77767e-05
1.73845e-05
1.73855e-05
1.77778e-05
1.7386e-05
1.73844e-05
1.75088e-05
1.72282e-05
1.77787e-05
1.7386e-05
1.73844e-05
1.72237e-05
1.72073e-05
1.7048e-05
1.72673e-05
1.72641e-05
1.69433e-05
1.69452e-05
1.72065e-05
1.70483e-05
1.72676e-05
1.72662e-05
1.69451e-05
1.69465e-05
1.72652e-05
1.69455e-05
1.69449e-05
1.72115e-05
1.70519e-05
1.72652e-05
1.69476e-05
1.69459e-05
1.70503e-05
1.7045e-05
1.70362e-05
1.68509e-05
1.68528e-05
1.66049e-05
1.66028e-05
1.70493e-05
1.70202e-05
1.68512e-05
1.68532e-05
1.66079e-05
1.66075e-05
1.68532e-05
1.66048e-05
1.66069e-05
1.70522e-05
1.70376e-05
1.68536e-05
1.66092e-05
1.66064e-05
1.70317e-05
1.70515e-05
1.72195e-05
1.65277e-05
1.65301e-05
1.63983e-05
1.63889e-05
1.70295e-05
1.72151e-05
1.65307e-05
1.65299e-05
1.63965e-05
1.64005e-05
1.65304e-05
1.63881e-05
1.63958e-05
1.70467e-05
1.72575e-05
1.653e-05
1.6399e-05
1.63957e-05
1.72085e-05
1.72957e-05
1.75303e-05
1.63419e-05
1.63408e-05
1.62677e-05
1.62385e-05
1.72736e-05
1.74584e-05
1.63443e-05
1.63583e-05
1.62742e-05
1.62367e-05
1.63469e-05
1.62412e-05
1.6248e-05
1.73214e-05
1.74713e-05
1.63467e-05
1.62474e-05
1.62494e-05
1.7449e-05
1.77643e-05
1.89762e-05
1.62992e-05
1.62487e-05
1.64604e-05
1.64235e-05
1.75941e-05
1.88374e-05
1.63034e-05
1.62407e-05
1.64456e-05
1.65263e-05
1.62653e-05
1.64107e-05
1.64544e-05
1.75194e-05
1.94096e-05
1.6268e-05
1.65186e-05
1.6471e-05
1.90277e-05
1.89995e-05
1.92158e-05
1.64445e-05
1.64332e-05
1.64293e-05
1.63962e-05
1.89389e-05
1.8954e-05
1.64291e-05
1.66122e-05
1.64409e-05
1.66138e-05
1.64549e-05
1.64034e-05
1.63802e-05
1.97088e-05
1.95997e-05
1.64713e-05
1.66081e-05
1.63767e-05
1.88696e-05
1.95025e-05
1.91221e-05
1.65012e-05
1.63966e-05
1.64665e-05
1.62454e-05
1.8982e-05
1.84242e-05
1.65175e-05
1.65009e-05
1.64677e-05
1.62546e-05
1.63911e-05
1.62434e-05
1.63231e-05
1.94685e-05
1.83524e-05
1.63803e-05
1.62453e-05
1.62803e-05
1.85832e-05
1.89983e-05
1.86079e-05
1.63658e-05
1.61915e-05
1.63125e-05
1.62623e-05
1.83297e-05
1.88755e-05
1.63643e-05
1.62561e-05
1.63151e-05
1.65912e-05
1.62343e-05
1.62783e-05
1.62703e-05
1.83691e-05
2.00567e-05
1.62128e-05
1.66011e-05
1.62738e-05
1.87312e-05
1.86822e-05
1.95224e-05
1.63258e-05
1.64148e-05
1.66186e-05
1.65942e-05
1.92269e-05
1.92538e-05
1.63286e-05
1.67073e-05
1.66067e-05
1.67586e-05
1.64384e-05
1.65958e-05
1.66667e-05
2.02255e-05
1.97991e-05
1.64485e-05
1.67513e-05
1.66718e-05
1.98422e-05
1.9823e-05
2.09301e-05
1.67072e-05
1.6592e-05
1.70877e-05
1.70616e-05
1.92018e-05
2.13214e-05
1.66973e-05
1.6765e-05
1.70923e-05
1.72323e-05
1.67382e-05
1.70227e-05
1.71832e-05
1.98103e-05
2.14969e-05
1.67516e-05
1.72375e-05
1.72033e-05
2.12292e-05
2.13906e-05
2.25116e-05
1.73346e-05
1.75529e-05
1.78177e-05
1.81074e-05
2.22917e-05
2.36997e-05
1.7341e-05
1.7355e-05
1.78183e-05
1.73485e-05
1.72825e-05
1.81071e-05
1.74456e-05
2.1605e-05
2.05163e-05
1.7296e-05
1.73536e-05
1.74419e-05
2.09715e-05
2.25213e-05
2.14694e-05
1.78529e-05
1.8082e-05
1.7865e-05
1.77622e-05
2.34418e-05
2.08038e-05
1.78494e-05
1.73523e-05
1.78617e-05
1.78089e-05
1.74486e-05
1.77629e-05
1.76644e-05
2.05153e-05
2.17935e-05
1.74433e-05
1.77977e-05
1.76565e-05
2.16265e-05
2.14363e-05
2.26548e-05
1.78512e-05
1.77466e-05
1.81515e-05
1.82473e-05
2.07845e-05
2.30338e-05
1.785e-05
1.79302e-05
1.81544e-05
1.83662e-05
1.80433e-05
1.82546e-05
1.87917e-05
2.20857e-05
2.30714e-05
1.80402e-05
1.83767e-05
1.87894e-05
2.38543e-05
2.3595e-05
2.51074e-05
1.86603e-05
1.87223e-05
1.95479e-05
1.93913e-05
2.37811e-05
2.49477e-05
1.8659e-05
1.8805e-05
1.95451e-05
2.01379e-05
1.8847e-05
1.9384e-05
1.89825e-05
2.38124e-05
2.71135e-05
1.88422e-05
2.01281e-05
1.89784e-05
2.3643e-05
2.51271e-05
2.56131e-05
1.9602e-05
1.95297e-05
1.99933e-05
1.99606e-05
2.50184e-05
2.51643e-05
1.95999e-05
2.02822e-05
1.99959e-05
2.02215e-05
1.92344e-05
1.99521e-05
2.04611e-05
2.71808e-05
2.52935e-05
1.92339e-05
2.0218e-05
2.04618e-05
2.69143e-05
2.61544e-05
2.77889e-05
2.03287e-05
2.00093e-05
2.12042e-05
2.09175e-05
2.52655e-05
2.75865e-05
2.03268e-05
2.02123e-05
2.12117e-05
2.07442e-05
2.06054e-05
2.09415e-05
2.04852e-05
2.52919e-05
2.66528e-05
2.06068e-05
2.076e-05
2.04876e-05
2.47378e-05
2.78509e-05
2.67586e-05
2.13994e-05
2.1574e-05
2.15506e-05
2.25143e-05
2.85864e-05
2.95382e-05
2.14087e-05
2.10573e-05
2.15491e-05
2.13009e-05
2.04747e-05
2.24868e-05
2.17086e-05
2.68807e-05
2.67207e-05
2.04774e-05
2.12831e-05
2.17018e-05
2.94005e-05
2.67409e-05
2.94243e-05
2.15477e-05
2.25183e-05
2.23817e-05
2.24905e-05
2.93854e-05
2.83283e-05
2.15436e-05
2.14464e-05
2.236e-05
2.29377e-05
2.24903e-05
2.24869e-05
2.33535e-05
2.69178e-05
3.01736e-05
2.24747e-05
2.29546e-05
2.33412e-05
3.03759e-05
3.03956e-05
3.14115e-05
2.311e-05
2.25619e-05
2.42231e-05
2.35484e-05
2.85285e-05
3.00438e-05
2.3099e-05
2.32954e-05
2.42276e-05
2.39098e-05
2.33878e-05
2.35495e-05
2.38901e-05
3.05325e-05
3.06247e-05
2.33776e-05
2.39045e-05
2.38946e-05
3.07211e-05
3.14079e-05
3.08887e-05
2.43494e-05
2.37482e-05
2.45632e-05
2.44464e-05
3.02492e-05
3.10081e-05
2.43541e-05
2.40832e-05
2.45634e-05
2.43228e-05
2.41726e-05
2.44401e-05
2.46031e-05
3.06543e-05
3.05201e-05
2.41758e-05
2.43177e-05
2.46053e-05
3.12343e-05
3.09308e-05
3.1886e-05
2.46592e-05
2.4815e-05
2.53476e-05
2.5832e-05
3.14657e-05
3.29153e-05
2.46574e-05
2.44681e-05
2.53388e-05
2.56228e-05
2.47821e-05
2.58314e-05
2.55529e-05
3.06311e-05
3.26691e-05
2.47822e-05
2.56233e-05
2.55448e-05
3.2174e-05
3.23154e-05
3.37795e-05
2.57029e-05
2.60985e-05
2.67638e-05
2.66572e-05
3.30743e-05
3.32175e-05
2.56939e-05
2.60259e-05
2.67567e-05
2.69369e-05
2.57833e-05
2.66563e-05
2.64962e-05
3.31447e-05
3.39405e-05
2.57738e-05
2.69372e-05
2.64887e-05
3.30422e-05
3.40434e-05
3.46338e-05
2.70617e-05
2.67876e-05
2.78461e-05
2.74838e-05
3.32855e-05
3.40349e-05
2.70568e-05
2.71646e-05
2.78478e-05
2.76898e-05
2.67682e-05
2.74805e-05
2.76384e-05
3.40541e-05
3.42696e-05
2.67626e-05
2.76867e-05
2.76396e-05
3.43051e-05
3.47852e-05
3.52e-05
2.80652e-05
2.78346e-05
2.86973e-05
2.8847e-05
3.44369e-05
3.56273e-05
2.80668e-05
2.78868e-05
2.8693e-05
2.86373e-05
2.79086e-05
2.88448e-05
2.8577e-05
3.44083e-05
3.51462e-05
2.79093e-05
2.8636e-05
2.85721e-05
3.50135e-05
3.53819e-05
3.61943e-05
2.89313e-05
2.91045e-05
2.97081e-05
2.97243e-05
3.57906e-05
3.61185e-05
2.89263e-05
2.88898e-05
2.97024e-05
2.96383e-05
2.88254e-05
2.97211e-05
2.97685e-05
3.53687e-05
3.60095e-05
2.88189e-05
2.9636e-05
2.97611e-05
3.64289e-05
3.64149e-05
3.69389e-05
2.99878e-05
2.99428e-05
3.07134e-05
3.06867e-05
3.62648e-05
3.6943e-05
2.99823e-05
2.98929e-05
3.07075e-05
3.0705e-05
3.01067e-05
3.06842e-05
3.09654e-05
3.62164e-05
3.70235e-05
3.00998e-05
3.07034e-05
3.0959e-05
3.73849e-05
3.70759e-05
3.78251e-05
3.09176e-05
3.09445e-05
3.16763e-05
3.17219e-05
3.71541e-05
3.78805e-05
3.09116e-05
3.09886e-05
3.16733e-05
3.17775e-05
3.11627e-05
3.17242e-05
3.17047e-05
3.7254e-05
3.79585e-05
3.11564e-05
3.17807e-05
3.17008e-05
3.77299e-05
3.80981e-05
3.8858e-05
3.19818e-05
3.19878e-05
3.28162e-05
3.27734e-05
3.80899e-05
3.87821e-05
3.19787e-05
3.2022e-05
3.28118e-05
3.27677e-05
3.19369e-05
3.27709e-05
3.27248e-05
3.81346e-05
3.87597e-05
3.19323e-05
3.27665e-05
3.27198e-05
3.87166e-05
3.90102e-05
3.95391e-05
3.3048e-05
3.30215e-05
3.37501e-05
3.37841e-05
3.89682e-05
3.96201e-05
3.30433e-05
3.30246e-05
3.37446e-05
3.3795e-05
3.29918e-05
3.37832e-05
3.37794e-05
3.896e-05
3.9656e-05
3.29865e-05
3.37945e-05
3.3773e-05
3.9631e-05
3.97334e-05
4.03938e-05
3.39988e-05
3.40367e-05
3.47477e-05
3.47715e-05
3.98141e-05
4.04444e-05
3.39941e-05
3.40487e-05
3.47445e-05
3.47778e-05
3.40413e-05
3.47706e-05
3.47717e-05
3.98449e-05
4.04141e-05
3.40354e-05
3.47787e-05
3.47679e-05
4.04266e-05
4.05734e-05
4.12017e-05
3.49905e-05
3.50261e-05
3.57274e-05
3.57455e-05
4.06324e-05
4.12031e-05
3.49869e-05
3.49982e-05
3.57212e-05
3.56954e-05
3.50052e-05
3.57464e-05
3.57095e-05
4.05702e-05
4.11367e-05
3.50011e-05
3.56964e-05
3.57028e-05
4.11508e-05
4.13881e-05
4.19919e-05
3.59761e-05
3.5952e-05
3.66834e-05
3.66145e-05
4.13363e-05
4.18902e-05
3.59688e-05
3.59448e-05
3.66789e-05
3.66821e-05
3.59394e-05
3.66128e-05
3.6693e-05
4.13335e-05
4.20048e-05
3.59319e-05
3.66813e-05
3.66883e-05
4.20182e-05
4.21561e-05
4.27065e-05
3.69144e-05
3.6875e-05
3.76054e-05
3.76393e-05
4.21056e-05
4.2791e-05
3.69119e-05
3.69293e-05
3.76025e-05
3.75895e-05
3.69424e-05
3.76418e-05
3.75816e-05
4.21733e-05
4.26939e-05
3.69391e-05
3.75926e-05
3.75782e-05
4.2645e-05
4.28574e-05
4.33733e-05
3.7821e-05
3.7859e-05
3.8467e-05
3.84464e-05
4.29322e-05
4.33214e-05
3.78155e-05
3.7802e-05
3.84594e-05
3.85272e-05
3.77889e-05
3.84451e-05
3.84614e-05
4.28519e-05
4.34676e-05
3.77829e-05
3.85269e-05
3.84534e-05
4.3395e-05
4.35402e-05
4.41057e-05
3.86893e-05
3.86494e-05
3.93463e-05
3.93133e-05
4.3469e-05
4.40488e-05
3.86846e-05
3.87451e-05
3.93444e-05
3.92577e-05
3.86989e-05
3.93163e-05
3.93602e-05
4.36079e-05
4.39263e-05
3.86938e-05
3.92611e-05
3.93584e-05
4.40957e-05
4.42588e-05
4.4682e-05
3.95668e-05
3.95278e-05
4.01572e-05
4.01683e-05
4.42076e-05
4.47389e-05
3.95618e-05
3.94647e-05
4.01511e-05
4.02167e-05
3.95514e-05
4.01681e-05
4.01561e-05
4.40859e-05
4.48331e-05
3.95463e-05
4.02177e-05
4.01497e-05
4.47015e-05
4.47929e-05
4.531e-05
4.0326e-05
4.03852e-05
4.09416e-05
4.10263e-05
4.49037e-05
4.54671e-05
4.03232e-05
4.04293e-05
4.09387e-05
4.09745e-05
4.03691e-05
4.10286e-05
4.09565e-05
4.49796e-05
4.53491e-05
4.03658e-05
4.09772e-05
4.09546e-05
4.53341e-05
4.54862e-05
4.60217e-05
4.11618e-05
4.12336e-05
4.17608e-05
4.1718e-05
4.56007e-05
4.58691e-05
4.11562e-05
4.11792e-05
4.17539e-05
4.17084e-05
4.11563e-05
4.17196e-05
4.17749e-05
4.54924e-05
4.58713e-05
4.11513e-05
4.17107e-05
4.17669e-05
4.60086e-05
4.61825e-05
4.65474e-05
4.19766e-05
4.18587e-05
4.25378e-05
4.24271e-05
4.59545e-05
4.64874e-05
4.19707e-05
4.18654e-05
4.25332e-05
4.25207e-05
4.19594e-05
4.24273e-05
4.25015e-05
4.59652e-05
4.66981e-05
4.19526e-05
4.25205e-05
4.24981e-05
4.65523e-05
4.66048e-05
4.70741e-05
4.26473e-05
4.26456e-05
4.3147e-05
4.32514e-05
4.66689e-05
4.71823e-05
4.26431e-05
4.27575e-05
4.31477e-05
4.32347e-05
4.26871e-05
4.32566e-05
4.31845e-05
4.68772e-05
4.70585e-05
4.26832e-05
4.32414e-05
4.31854e-05
4.70337e-05
4.73364e-05
4.77605e-05
4.34053e-05
4.34159e-05
4.40079e-05
4.391e-05
4.72966e-05
4.76685e-05
4.34061e-05
4.33374e-05
4.39993e-05
4.38185e-05
4.33355e-05
4.39074e-05
4.38755e-05
4.71078e-05
4.75841e-05
4.33375e-05
4.38175e-05
4.38666e-05
4.76777e-05
4.77978e-05
4.80672e-05
4.41156e-05
4.40951e-05
4.45142e-05
4.45678e-05
4.78011e-05
4.81772e-05
4.41053e-05
4.40337e-05
4.45109e-05
4.46129e-05
4.40945e-05
4.45733e-05
4.46829e-05
4.77662e-05
4.82281e-05
4.40827e-05
4.46167e-05
4.46792e-05
4.82795e-05
4.82134e-05
4.84791e-05
4.46904e-05
4.47113e-05
4.50911e-05
4.51852e-05
4.82706e-05
4.85666e-05
4.46876e-05
4.47544e-05
4.50843e-05
4.51978e-05
4.47971e-05
4.51894e-05
4.50491e-05
4.83223e-05
4.86751e-05
4.47946e-05
4.52036e-05
4.50426e-05
4.83894e-05
4.85864e-05
4.94676e-05
4.52434e-05
4.52682e-05
4.59366e-05
4.56852e-05
4.86312e-05
4.90983e-05
4.52378e-05
4.53665e-05
4.5942e-05
4.57043e-05
4.52222e-05
4.56896e-05
4.59301e-05
4.87941e-05
4.89842e-05
4.52177e-05
4.571e-05
4.59353e-05
4.93806e-05
4.95457e-05
4.92403e-05
4.61259e-05
4.60023e-05
4.62831e-05
4.66152e-05
4.94092e-05
4.98094e-05
4.61291e-05
4.57991e-05
4.6272e-05
4.65415e-05
4.60672e-05
4.66101e-05
4.62071e-05
4.90389e-05
4.99909e-05
4.60723e-05
4.65314e-05
4.61969e-05
4.92305e-05
4.92615e-05
5.03205e-05
4.63258e-05
4.6616e-05
4.69557e-05
4.66241e-05
4.97185e-05
4.94832e-05
4.63089e-05
4.67828e-05
4.69781e-05
4.69339e-05
4.63672e-05
4.66307e-05
4.71668e-05
5.01905e-05
4.96391e-05
4.63384e-05
4.69478e-05
4.71874e-05
5.05126e-05
5.04621e-05
5.02261e-05
4.71828e-05
4.68224e-05
4.74449e-05
4.77182e-05
4.99463e-05
5.10913e-05
4.72173e-05
4.68864e-05
4.74363e-05
4.70516e-05
4.71935e-05
4.77079e-05
4.71133e-05
4.95435e-05
5.02974e-05
4.72192e-05
4.70496e-05
4.7111e-05
4.94628e-05
5.02345e-05
5.07485e-05
4.74734e-05
4.76966e-05
4.78474e-05
4.73644e-05
5.07938e-05
4.91884e-05
4.74478e-05
4.75105e-05
4.7833e-05
4.81804e-05
4.71907e-05
4.73551e-05
4.84471e-05
5.08014e-05
5.09635e-05
4.71708e-05
4.81856e-05
4.84689e-05
5.22426e-05
5.09013e-05
5.12452e-05
4.79587e-05
4.74383e-05
4.84029e-05
4.92624e-05
4.94376e-05
5.3517e-05
4.80413e-05
4.81661e-05
4.84099e-05
4.83059e-05
4.84833e-05
4.92937e-05
4.78908e-05
5.08025e-05
5.13907e-05
4.85261e-05
4.83539e-05
4.79006e-05
4.92859e-05
5.14511e-05
5.19452e-05
4.87072e-05
4.93954e-05
4.91746e-05
4.84315e-05
5.35243e-05
4.9222e-05
4.8642e-05
4.86506e-05
4.9127e-05
4.88424e-05
4.78436e-05
4.83759e-05
4.90315e-05
5.17707e-05
5.0869e-05
4.78323e-05
4.8785e-05
4.8971e-05
5.28385e-05
5.18548e-05
5.11498e-05
4.91511e-05
4.81422e-05
4.89133e-05
4.89236e-05
4.90246e-05
5.31589e-05
4.91181e-05
4.86873e-05
4.89463e-05
4.88832e-05
4.95563e-05
4.89998e-05
4.96094e-05
5.05849e-05
5.2249e-05
4.95513e-05
4.89286e-05
4.9651e-05
5.18333e-05
5.13138e-05
5.25895e-05
4.89605e-05
4.98894e-05
4.98711e-05
5.03149e-05
5.39552e-05
5.21116e-05
4.8989e-05
4.95755e-05
4.98543e-05
5.01935e-05
4.94422e-05
5.03367e-05
4.9438e-05
5.30571e-05
5.24531e-05
4.94568e-05
5.02175e-05
4.94172e-05
5.16285e-05
5.25281e-05
5.1358e-05
4.98956e-05
4.98341e-05
4.95836e-05
4.89559e-05
5.13057e-05
5.01997e-05
4.98805e-05
4.98944e-05
4.95828e-05
4.9012e-05
4.95466e-05
4.89387e-05
4.95298e-05
5.16775e-05
5.01549e-05
4.95258e-05
4.89955e-05
4.95319e-05
5.17085e-05
5.14539e-05
5.43127e-05
4.95946e-05
4.91134e-05
5.09156e-05
5.13252e-05
5.12106e-05
5.5066e-05
4.95937e-05
4.91413e-05
5.09103e-05
5.12976e-05
4.95437e-05
5.13304e-05
5.07744e-05
5.103e-05
5.50355e-05
4.95467e-05
5.13017e-05
5.07694e-05
5.39294e-05
5.44495e-05
5.26415e-05
5.12862e-05
5.15032e-05
5.11488e-05
5.08398e-05
5.50533e-05
5.19587e-05
5.12811e-05
5.14824e-05
5.11458e-05
5.08261e-05
5.12008e-05
5.08438e-05
5.12925e-05
5.50264e-05
5.19347e-05
5.11941e-05
5.08283e-05
5.12868e-05
5.30877e-05
5.23812e-05
5.1978e-05
5.07551e-05
5.04645e-05
5.02778e-05
5.02587e-05
5.17695e-05
5.2356e-05
5.07537e-05
5.04578e-05
5.0277e-05
5.02604e-05
5.10096e-05
5.02793e-05
5.04534e-05
5.17413e-05
5.23674e-05
5.10061e-05
5.02818e-05
5.04525e-05
5.21924e-05
5.22031e-05
5.37896e-05
5.02895e-05
5.03395e-05
5.11107e-05
5.11581e-05
5.26652e-05
5.36587e-05
5.02884e-05
5.03632e-05
5.11148e-05
5.13715e-05
5.04511e-05
5.11603e-05
5.09735e-05
5.27365e-05
5.39852e-05
5.04501e-05
5.13754e-05
5.09783e-05
5.3506e-05
5.40399e-05
5.40565e-05
5.14915e-05
5.14149e-05
5.18951e-05
5.18658e-05
5.38084e-05
5.40878e-05
5.15009e-05
5.15839e-05
5.18964e-05
5.17233e-05
5.12967e-05
5.18553e-05
5.17917e-05
5.40558e-05
5.36778e-05
5.13083e-05
5.17126e-05
5.17919e-05
5.39597e-05
5.40011e-05
5.36549e-05
5.18895e-05
5.18824e-05
5.17661e-05
5.17846e-05
5.40854e-05
5.36616e-05
5.18878e-05
5.17113e-05
5.17472e-05
5.16701e-05
5.18142e-05
5.17864e-05
5.17834e-05
5.36629e-05
5.36401e-05
5.18059e-05
5.16681e-05
5.17636e-05
5.37235e-05
5.36984e-05
5.40412e-05
5.17612e-05
5.17513e-05
5.19014e-05
5.18203e-05
5.3665e-05
5.39834e-05
5.17437e-05
5.16874e-05
5.19129e-05
5.19891e-05
5.17753e-05
5.18257e-05
5.1869e-05
5.37473e-05
5.41203e-05
5.17574e-05
5.19958e-05
5.18829e-05
5.39817e-05
5.40992e-05
5.4008e-05
5.19985e-05
5.1974e-05
5.21059e-05
5.21767e-05
5.4117e-05
5.41607e-05
5.20123e-05
5.20611e-05
5.21011e-05
5.21022e-05
5.19666e-05
5.21808e-05
5.21325e-05
5.41541e-05
5.39914e-05
5.19825e-05
5.2104e-05
5.21274e-05
5.40753e-05
5.40086e-05
5.39605e-05
5.21047e-05
5.21717e-05
5.20942e-05
5.20893e-05
5.41378e-05
5.38802e-05
5.20976e-05
5.2095e-05
5.2084e-05
5.21043e-05
5.21423e-05
5.20978e-05
5.21437e-05
5.39946e-05
5.40344e-05
5.21312e-05
5.2113e-05
5.21323e-05
5.40266e-05
5.40271e-05
5.43758e-05
5.21141e-05
5.20859e-05
5.23689e-05
5.22899e-05
5.38998e-05
5.43224e-05
5.2109e-05
5.21609e-05
5.23805e-05
5.2395e-05
5.21609e-05
5.22965e-05
5.23679e-05
5.41171e-05
5.43712e-05
5.21568e-05
5.24012e-05
5.23804e-05
5.43579e-05
5.44392e-05
5.45198e-05
5.24523e-05
5.24166e-05
5.26108e-05
5.26308e-05
5.44312e-05
5.45633e-05
5.24601e-05
5.24561e-05
5.26044e-05
5.25799e-05
5.24429e-05
5.26346e-05
5.25991e-05
5.44158e-05
5.44828e-05
5.2451e-05
5.25825e-05
5.25931e-05
5.45076e-05
5.45372e-05
5.45167e-05
5.26358e-05
5.26552e-05
5.26625e-05
5.26725e-05
5.45788e-05
5.45318e-05
5.26278e-05
5.26077e-05
5.26576e-05
5.26512e-05
5.26297e-05
5.2677e-05
5.26762e-05
5.45065e-05
5.45157e-05
5.26219e-05
5.26566e-05
5.26715e-05
5.45404e-05
5.45388e-05
5.45937e-05
5.26766e-05
5.26825e-05
5.27395e-05
5.27242e-05
5.45467e-05
5.45745e-05
5.26725e-05
5.26652e-05
5.27348e-05
5.27388e-05
5.26861e-05
5.27285e-05
5.27278e-05
5.45351e-05
5.46071e-05
5.26819e-05
5.27423e-05
5.27235e-05
5.45795e-05
5.46174e-05
5.46119e-05
5.27595e-05
5.27394e-05
5.27825e-05
5.27903e-05
5.45947e-05
5.46381e-05
5.27567e-05
5.27696e-05
5.27844e-05
5.27992e-05
5.27496e-05
5.27962e-05
5.28032e-05
5.46403e-05
5.46229e-05
5.27471e-05
5.28035e-05
5.28044e-05
5.46407e-05
5.46295e-05
5.46938e-05
5.27955e-05
5.28147e-05
5.28607e-05
5.28433e-05
5.46672e-05
5.46619e-05
5.2796e-05
5.27971e-05
5.28528e-05
5.282e-05
5.28053e-05
5.28459e-05
5.28103e-05
5.46301e-05
5.46563e-05
5.28054e-05
5.28239e-05
5.28064e-05
5.4609e-05
5.47178e-05
5.47155e-05
5.2878e-05
5.2844e-05
5.28937e-05
5.28969e-05
5.46704e-05
5.47418e-05
5.28716e-05
5.28591e-05
5.28984e-05
5.29374e-05
5.28368e-05
5.2902e-05
5.29498e-05
5.47046e-05
5.47968e-05
5.28291e-05
5.29431e-05
5.29511e-05
5.48412e-05
5.473e-05
5.4708e-05
5.29051e-05
5.29268e-05
5.29164e-05
5.29177e-05
5.47889e-05
5.46578e-05
5.291e-05
5.29399e-05
5.29133e-05
5.28825e-05
5.29518e-05
5.29244e-05
5.28592e-05
5.48129e-05
5.46027e-05
5.29535e-05
5.28901e-05
5.28566e-05
5.45258e-05
5.4713e-05
5.46996e-05
5.29089e-05
5.28787e-05
5.2891e-05
5.2865e-05
5.46436e-05
5.46966e-05
5.29026e-05
5.28566e-05
5.28886e-05
5.28803e-05
5.28331e-05
5.28638e-05
5.28987e-05
5.46026e-05
5.47547e-05
5.28296e-05
5.28776e-05
5.28974e-05
5.48413e-05
5.47477e-05
5.47218e-05
5.29064e-05
5.29167e-05
5.29373e-05
5.29608e-05
5.48095e-05
5.47413e-05
5.29084e-05
5.29478e-05
5.2937e-05
5.29711e-05
5.29759e-05
5.29722e-05
5.29751e-05
5.48576e-05
5.47199e-05
5.29763e-05
5.29813e-05
5.29746e-05
5.46522e-05
5.47165e-05
5.46245e-05
5.29235e-05
5.29104e-05
5.28521e-05
5.28082e-05
5.46771e-05
5.45339e-05
5.29211e-05
5.29143e-05
5.2852e-05
5.28199e-05
5.28913e-05
5.28069e-05
5.28059e-05
5.46688e-05
5.45695e-05
5.28889e-05
5.28185e-05
5.28051e-05
5.45788e-05
5.46445e-05
5.4592e-05
5.2847e-05
5.28265e-05
5.28263e-05
5.28838e-05
5.4641e-05
5.47389e-05
5.28469e-05
5.28277e-05
5.28211e-05
5.2839e-05
5.28315e-05
5.28913e-05
5.28692e-05
5.46372e-05
5.46448e-05
5.28327e-05
5.2846e-05
5.28645e-05
5.46673e-05
5.46127e-05
5.4869e-05
5.28305e-05
5.28735e-05
5.29117e-05
5.28153e-05
5.47287e-05
5.45819e-05
5.28245e-05
5.28404e-05
5.29158e-05
5.29095e-05
5.28562e-05
5.28148e-05
5.28598e-05
5.46558e-05
5.48342e-05
5.28498e-05
5.2909e-05
5.28623e-05
5.47196e-05
5.48734e-05
5.41353e-05
5.29059e-05
5.28093e-05
5.26155e-05
5.2726e-05
5.45917e-05
5.45189e-05
5.2912e-05
5.29089e-05
5.26113e-05
5.26235e-05
5.28601e-05
5.2736e-05
5.26899e-05
5.48494e-05
5.41559e-05
5.28651e-05
5.26328e-05
5.26883e-05
5.43294e-05
5.41446e-05
5.48485e-05
5.25938e-05
5.27131e-05
5.27775e-05
5.26957e-05
5.45314e-05
5.45246e-05
5.25817e-05
5.25763e-05
5.2767e-05
5.27326e-05
5.26511e-05
5.26986e-05
5.26872e-05
5.41531e-05
5.47882e-05
5.26369e-05
5.27336e-05
5.26746e-05
5.45973e-05
5.48836e-05
5.43559e-05
5.28184e-05
5.26909e-05
5.26718e-05
5.26517e-05
5.45234e-05
5.44987e-05
5.28203e-05
5.28121e-05
5.26933e-05
5.27551e-05
5.27208e-05
5.26467e-05
5.27225e-05
5.48516e-05
5.44873e-05
5.27262e-05
5.27536e-05
5.27434e-05
5.45817e-05
5.43047e-05
5.38909e-05
5.26027e-05
5.26523e-05
5.10776e-05
5.11428e-05
5.45293e-05
5.3972e-05
5.26179e-05
5.26756e-05
5.10671e-05
5.10324e-05
5.27008e-05
5.11632e-05
5.10858e-05
5.44128e-05
5.38016e-05
5.27163e-05
5.10431e-05
5.1068e-05
5.38328e-05
5.37361e-05
5.05364e-05
5.05653e-05
5.37114e-05
5.05266e-05
5.04855e-05
4.38858e-05
4.38301e-05
4.385e-05
5.05168e-05
5.36355e-05
5.05017e-05
3.73769e-05
3.73764e-05
3.73767e-05
3.73767e-05
3.73694e-05
3.73756e-05
3.73043e-05
3.73764e-05
3.73694e-05
3.73756e-05
3.73764e-05
3.73043e-05
3.73714e-05
3.72959e-05
3.72959e-05
3.58829e-05
4.08682e-05
3.6601e-05
4.51379e-05
5.511e-05
6.4888e-05
3.58835e-05
4.08678e-05
3.66009e-05
4.51406e-05
3.60232e-05
3.60232e-05
3.60232e-05
3.44005e-05
3.44005e-05
3.44005e-05
3.44005e-05
3.52763e-05
3.56384e-05
3.60241e-05
3.53761e-05
3.60479e-05
3.42425e-05
3.53827e-05
5.51119e-05
6.48897e-05
3.52764e-05
3.60241e-05
3.5638e-05
3.53761e-05
3.60478e-05
3.53827e-05
3.4243e-05
3.65941e-05
3.65948e-05
3.52782e-05
3.40675e-05
3.40666e-05
3.39695e-05
5.13501e-05
3.46835e-05
5.46187e-05
7.65447e-05
8.08615e-05
3.39704e-05
5.13506e-05
3.46829e-05
5.4622e-05