/*--------------------------------*- C++ -*----------------------------------*\
| =========                 |                                                 |
| \\      /  F ield         | OpenFOAM: The Open Source CFD Toolbox           |
|  \\    /   O peration     | Version:  2312                                  |
|   \\  /    A nd           | Website:  www.openfoam.com                      |
|    \\/     M anipulation  |                                                 |
\*---------------------------------------------------------------------------*/
FoamFile
{
    version     2.0;
    format      ascii;
    arch        "LSB;label=32;scalar=64";
    class       volScalarField;
    location    "500";
    object      p;
}
// * * * * * * * * * * * * * * * * * * * * * * * * * * * * * * * * * * * * * //

dimensions      [0 2 -2 0 0 0 0];

internalField   nonuniform List<scalar> 
172512
(
0.0036077
0.00360811
0.00360811
0.00360801
0.00354985
0.00354999
0.00354999
0.00355268
0.00349826
0.00349826
0.00349826
0.00350104
0.003446
0.00344601
0.003446
0.00344877
0.00339462
0.00339464
0.00339463
0.00339738
0.00334465
0.00334467
0.00334466
0.00334738
0.00329612
0.00329615
0.00329614
0.00329882
0.0032489
0.00324892
0.00324891
0.00325158
0.00320277
0.00320278
0.00320278
0.00320541
0.00315754
0.00315756
0.00315758
0.00316015
0.00311302
0.00311304
0.00311303
0.00311562
0.00306912
0.00306914
0.00306914
0.00307168
0.00302573
0.00302575
0.00302572
0.00302825
0.00298282
0.00298285
0.00298284
0.00298532
0.00294034
0.00294035
0.00294032
0.00294282
0.0028983
0.00289828
0.00289826
0.00290078
0.00285668
0.00285667
0.00285666
0.00285916
0.00281548
0.00281549
0.00281546
0.00281789
0.00277462
0.00277462
0.00277465
0.00277713
0.00273401
0.00273409
0.00273411
0.0027369
0.00269307
0.00269295
0.00269306
0.00269531
0.00265232
0.00265222
0.00265205
0.00265468
0.00261229
0.00261227
0.00261254
0.00261452
0.00257286
0.00257277
0.00257264
0.00257536
0.00253352
0.00253354
0.00253347
0.00253594
0.00249419
0.00249445
0.00249363
0.00249624
0.0024548
0.00245421
0.00245506
0.00245723
0.00241652
0.00241657
0.00241639
0.00241917
0.00237818
0.00237809
0.0023785
0.00238008
0.00233954
0.00233943
0.00233901
0.00234258
0.00230143
0.00230132
0.00230131
0.00230261
0.0022632
0.00226366
0.00226319
0.00226636
0.00222573
0.00222523
0.00222608
0.00222772
0.002188
0.00218797
0.00218773
0.00219001
0.00215002
0.00215012
0.00214994
0.00215224
0.00211274
0.00211288
0.00211292
0.00211497
0.00207562
0.0020754
0.00207559
0.00207767
0.00203837
0.00203832
0.00203825
0.00204057
0.00200131
0.00200145
0.00200131
0.00200343
0.00196445
0.00196437
0.00196443
0.0019667
0.00192769
0.00192767
0.0019277
0.00192981
0.00189105
0.00189101
0.00189101
0.00189303
0.00185457
0.00185451
0.00185449
0.00185666
0.00181812
0.00181809
0.0018181
0.00182021
0.00178184
0.00178177
0.00178176
0.00178386
0.00174562
0.00174554
0.00174553
0.00174761
0.00170949
0.00170939
0.00170943
0.00171152
0.00167344
0.00167339
0.00167334
0.0016754
0.00163744
0.00163732
0.00163738
0.00163944
0.00160154
0.00160145
0.00160139
0.0016035
0.0015657
0.0015656
0.00156566
0.00156764
0.00152992
0.00152983
0.00152979
0.00153186
0.0014942
0.00149403
0.00149406
0.00149614
0.00145852
0.0014584
0.00145844
0.00146042
0.00142288
0.0014228
0.00142272
0.0014248
0.00138735
0.00138718
0.00138718
0.00138923
0.00135173
0.00135163
0.00135169
0.00135371
0.00131622
0.0013161
0.00131608
0.00131802
0.00128084
0.00128062
0.00128061
0.00128285
0.00124523
0.00124532
0.00124528
0.001247
0.00120987
0.00120947
0.0012096
0.00121207
0.00117435
0.0011747
0.00117421
0.00117572
0.00113899
0.0011382
0.00113917
0.00114183
0.0011037
0.00110461
0.00110332
0.00110441
0.00106834
0.00106689
0.00106814
0.00107108
0.00103247
0.00103348
0.00103278
0.00103428
0.000997991
0.000997428
0.000997653
0.00099944
0.000961354
0.000961003
0.000960916
0.00096359
0.000927697
0.000928363
0.000928345
0.000929639
0.000891229
0.000890469
0.000890478
0.000893077
0.00085516
0.000855342
0.000855347
0.000857024
0.000820895
0.000820898
0.000820977
0.000823006
0.000785437
0.000785285
0.000785086
0.000787241
0.00074945
0.000749318
0.000749429
0.000751367
0.000714077
0.000714025
0.00071409
0.00071606
0.000678497
0.000678481
0.000678357
0.000680442
0.000642815
0.000642674
0.000642791
0.000644768
0.000607426
0.000607405
0.000607374
0.000609399
0.000571858
0.000571801
0.000571757
0.000573789
0.00053613
0.000536053
0.00053608
0.000538099
0.000500452
0.00050039
0.000500404
0.000502416
0.000464711
0.000464676
0.000464661
0.000466711
0.000428976
0.000428908
0.00042891
0.000430922
0.000393169
0.000393141
0.000393165
0.000395238
0.000357333
0.000357264
0.000357222
0.000359217
0.000321432
0.000321394
0.000321438
0.000323522
0.000285602
0.000285587
0.000285557
0.000287571
0.000249549
0.000249437
0.000249467
0.000251524
0.00021365
0.000213719
0.000213665
0.000215736
0.000177728
0.000177566
0.000177678
0.000179677
0.000141398
0.000141514
0.000141346
0.000143482
0.000105646
0.000105488
0.000105656
0.000107642
6.93379e-05
6.93784e-05
6.93153e-05
7.14539e-05
3.3845e-05
3.31738e-05
3.3105e-05
3.51524e-05
1.06572e-05
6.52938e-06
6.67481e-06
5.26656e-06
0.00361787
0.00361694
0.00361694
0.00361787
0.00361694
0.00361694
0.00361585
0.00361585
0.00361585
0.00361585
0.00361694
0.00361694
0.00361787
0.00361694
0.00361694
0.00361787
0.00360801
0.00355907
0.00360811
0.00360811
0.00356144
0.00356144
0.00360801
0.00355907
0.00360811
0.00360811
0.00356144
0.00356144
0.00360811
0.00356144
0.00356144
0.00360801
0.00355907
0.00360811
0.00356144
0.00356144
0.00355907
0.00355268
0.00350799
0.00354999
0.00354999
0.00351146
0.00351146
0.00355268
0.00350799
0.00354999
0.00354999
0.00351146
0.00351146
0.00354999
0.00351146
0.00351146
0.00355268
0.00350799
0.00354999
0.00351146
0.00351146
0.00350799
0.00350104
0.00345564
0.00349826
0.00349826
0.003459
0.003459
0.00350104
0.00345564
0.00349826
0.00349826
0.003459
0.003459
0.00349826
0.003459
0.003459
0.00350104
0.00345564
0.00349826
0.003459
0.003459
0.00345564
0.00344877
0.00340409
0.003446
0.003446
0.00340736
0.00340736
0.00344877
0.00340409
0.003446
0.003446
0.00340736
0.00340736
0.003446
0.00340735
0.00340736
0.00344877
0.00340409
0.003446
0.00340736
0.00340736
0.00340409
0.00339738
0.00335388
0.00339463
0.00339463
0.00335702
0.00335701
0.00339738
0.00335388
0.00339463
0.00339463
0.00335702
0.00335701
0.00339463
0.00335701
0.00335702
0.00339738
0.00335388
0.00339463
0.00335701
0.00335702
0.00335388
0.00334738
0.00330513
0.00334466
0.00334467
0.00330815
0.00330814
0.00334738
0.00330513
0.00334466
0.00334466
0.00330815
0.00330814
0.00334466
0.00330813
0.00330815
0.00334738
0.00330512
0.00334466
0.00330814
0.00330815
0.00330513
0.00329882
0.00325771
0.00329614
0.00329614
0.00326062
0.00326061
0.00329883
0.00325769
0.00329613
0.00329614
0.00326062
0.00326062
0.00329614
0.00326061
0.00326062
0.00329883
0.00325769
0.00329613
0.00326062
0.0032606
0.0032577
0.00325157
0.00321139
0.00324892
0.00324892
0.00321423
0.00321423
0.00325157
0.0032114
0.00324892
0.00324891
0.00321423
0.00321422
0.00324892
0.00321423
0.00321422
0.00325156
0.0032114
0.00324892
0.00321424
0.00321422
0.00321139
0.00320541
0.00316603
0.00320278
0.00320278
0.00316879
0.00316879
0.0032054
0.00316603
0.00320278
0.00320279
0.00316879
0.00316878
0.00320279
0.0031688
0.00316879
0.0032054
0.00316603
0.00320278
0.00316877
0.00316879
0.00316603
0.00316015
0.00312139
0.00315757
0.00315758
0.00312412
0.00312413
0.00316016
0.00312139
0.00315757
0.00315756
0.00312412
0.00312413
0.00315756
0.00312412
0.00312412
0.00316016
0.0031214
0.00315757
0.00312414
0.00312412
0.0031214
0.00311561
0.00307739
0.00311304
0.00311303
0.00308009
0.00308006
0.00311561
0.00307738
0.00311304
0.00311304
0.00308009
0.00308007
0.00311305
0.00308007
0.00308008
0.00311561
0.00307738
0.00311304
0.00308007
0.00308006
0.00307738
0.00307167
0.0030339
0.00306912
0.00306915
0.00303655
0.00303656
0.00307168
0.00303389
0.00306913
0.00306915
0.00303656
0.00303657
0.00306914
0.00303655
0.00303655
0.00307168
0.00303388
0.00306914
0.00303656
0.00303655
0.00303387
0.00302826
0.00299089
0.00302576
0.00302576
0.00299354
0.00299355
0.00302825
0.00299089
0.00302575
0.00302571
0.00299354
0.00299351
0.00302573
0.00299354
0.00299353
0.00302824
0.00299089
0.00302574
0.00299352
0.00299353
0.00299089
0.00298532
0.00294834
0.00298283
0.00298284
0.00295095
0.00295097
0.00298532
0.00294835
0.00298283
0.00298284
0.00295095
0.00295097
0.00298283
0.00295099
0.00295095
0.00298533
0.00294834
0.00298283
0.00295096
0.00295095
0.00294834
0.00294283
0.00290626
0.00294032
0.00294035
0.00290877
0.00290876
0.00294283
0.00290622
0.00294032
0.00294032
0.00290876
0.00290878
0.00294031
0.00290879
0.00290874
0.00294282
0.00290621
0.00294031
0.00290877
0.00290872
0.00290623
0.0029008
0.00286455
0.00289831
0.00289829
0.002867
0.00286703
0.00290076
0.00286457
0.0028983
0.00289827
0.002867
0.00286702
0.00289829
0.00286703
0.00286703
0.00290075
0.00286455
0.0028983
0.00286701
0.00286704
0.00286457
0.00285916
0.00282323
0.0028567
0.00285667
0.00282571
0.00282568
0.00285916
0.00282328
0.00285668
0.00285667
0.00282572
0.00282566
0.00285669
0.00282568
0.00282573
0.00285914
0.00282325
0.0028567
0.00282567
0.00282575
0.00282325
0.00281788
0.00278241
0.00281545
0.00281548
0.00278487
0.00278481
0.00281795
0.00278239
0.00281544
0.00281547
0.00278489
0.00278478
0.00281545
0.00278481
0.00278487
0.00281791
0.00278242
0.00281546
0.00278478
0.00278487
0.00278244
0.00277709
0.00274218
0.00277465
0.00277464
0.00274421
0.00274417
0.00277708
0.00274194
0.00277466
0.00277464
0.0027442
0.00274408
0.00277466
0.00274418
0.00274419
0.0027771
0.00274186
0.00277468
0.0027441
0.00274419
0.00274213
0.00273685
0.00270072
0.00273419
0.00273411
0.00270313
0.00270323
0.00273674
0.00270076
0.00273419
0.00273412
0.00270317
0.00270341
0.00273416
0.00270325
0.0027032
0.00273668
0.0027012
0.00273418
0.0027034
0.00270318
0.00270067
0.00269539
0.00266024
0.00269292
0.00269292
0.00266264
0.0026625
0.0026954
0.00265994
0.00269296
0.00269307
0.00266263
0.00266214
0.00269291
0.00266248
0.00266249
0.00269574
0.00265945
0.00269289
0.00266212
0.00266246
0.00266005
0.00265483
0.0026195
0.00265234
0.00265223
0.00262194
0.00262203
0.00265456
0.0026196
0.00265233
0.00265207
0.00262197
0.00262226
0.00265228
0.00262205
0.00262199
0.00265422
0.00262011
0.00265226
0.00262231
0.00262206
0.00261961
0.00261439
0.00258031
0.00261212
0.00261222
0.00258258
0.00258278
0.00261452
0.00258043
0.00261215
0.00261248
0.00258257
0.00258263
0.00261219
0.00258279
0.00258288
0.00261499
0.00258024
0.00261224
0.00258264
0.00258287
0.00258057
0.00257515
0.00254104
0.00257277
0.00257278
0.00254335
0.00254313
0.00257513
0.00254094
0.00257275
0.00257264
0.00254333
0.00254316
0.00257287
0.0025431
0.00254321
0.00257501
0.00254117
0.00257286
0.00254315
0.00254321
0.00254099
0.0025359
0.00250203
0.00253344
0.00253356
0.0025042
0.00250446
0.0025359
0.0025028
0.00253342
0.00253348
0.00250415
0.00250371
0.00253352
0.00250445
0.00250391
0.00253602
0.0025011
0.0025335
0.00250368
0.00250384
0.00250152
0.00249682
0.00246194
0.00249427
0.00249446
0.00246438
0.00246393
0.00249736
0.00246108
0.00249423
0.00249365
0.00246442
0.00246463
0.00249394
0.00246395
0.00246441
0.00249595
0.00246243
0.00249388
0.00246465
0.00246446
0.00246223
0.0024567
0.00242355
0.0024545
0.00245417
0.00242573
0.00242592
0.00245602
0.00242383
0.00245456
0.00245504
0.00242572
0.00242598
0.00245481
0.00242595
0.00242631
0.00245737
0.00242375
0.00245488
0.00242601
0.00242634
0.00242434
0.00241868
0.00238605
0.00241633
0.00241657
0.0023881
0.00238791
0.00241892
0.00238573
0.00241633
0.00241638
0.00238811
0.00238817
0.0024166
0.00238786
0.0023874
0.00241874
0.00238632
0.00241661
0.00238813
0.00238741
0.00238508
0.00238079
0.00234671
0.00237825
0.00237813
0.00234899
0.00234903
0.00238058
0.00234675
0.00237827
0.00237854
0.00234897
0.00234885
0.00237782
0.00234904
0.00234942
0.00238121
0.0023462
0.00237784
0.00234886
0.00234941
0.00234761
0.0023417
0.00230898
0.00233944
0.00233941
0.00231107
0.00231079
0.00234164
0.00230861
0.0023394
0.00233899
0.00231103
0.00231072
0.00233987
0.00231076
0.00231039
0.00234108
0.00230878
0.00233985
0.00231069
0.00231039
0.00230764
0.00230395
0.00227011
0.00230152
0.00230136
0.00227261
0.00227338
0.00230373
0.00227125
0.00230149
0.00230137
0.00227257
0.00227265
0.0023006
0.0022734
0.00227301
0.00230374
0.00227023
0.00230058
0.00227269
0.00227299
0.00227119
0.00226502
0.00223295
0.00226295
0.00226361
0.00223485
0.00223449
0.00226597
0.00223211
0.00226292
0.0022631
0.00223489
0.00223531
0.00226395
0.00223459
0.0022354
0.00226534
0.00223341
0.00226393
0.00223536
0.00223544
0.00223295
0.0022281
0.00219551
0.00222574
0.00222521
0.00219778
0.0021974
0.00222729
0.00219535
0.00222582
0.00222608
0.00219779
0.00219736
0.00222554
0.00219735
0.00219707
0.00222854
0.00219496
0.0022256
0.0021973
0.00219708
0.00219494
0.00219031
0.00215695
0.00218805
0.00218801
0.00215931
0.00215951
0.00219034
0.00215729
0.00218804
0.00218778
0.00215929
0.00215933
0.00218777
0.00215952
0.00215954
0.00218992
0.00215705
0.00218775
0.00215934
0.00215952
0.00215722
0.00215201
0.00211982
0.00214991
0.0021501
0.00212196
0.00212224
0.00215234
0.00212011
0.00214988
0.00214992
0.00212195
0.00212207
0.00215007
0.00212225
0.00212205
0.0021521
0.00212005
0.00215005
0.00212207
0.00212204
0.0021199
0.00211495
0.00208288
0.00211273
0.00211288
0.002085
0.00208477
0.00211513
0.00208248
0.00211274
0.00211292
0.00208502
0.002085
0.00211277
0.00208475
0.0020848
0.00211519
0.00208276
0.00211277
0.00208498
0.00208482
0.0020826
0.00207791
0.00204543
0.00207566
0.00207541
0.00204764
0.00204754
0.00207752
0.00204538
0.00207568
0.00207561
0.00204764
0.00204754
0.00207548
0.00204754
0.00204766
0.00207777
0.0020453
0.00207549
0.00204754
0.00204766
0.0020455
0.00204048
0.00200831
0.00203833
0.00203831
0.00201052
0.00201072
0.0020405
0.0020086
0.00203833
0.00203825
0.0020105
0.00201051
0.00203838
0.00201073
0.00201056
0.00204039
0.00200839
0.00203838
0.00201052
0.00201054
0.00200834
0.0020034
0.0019715
0.00200127
0.00200144
0.00197364
0.00197358
0.00200363
0.00197137
0.00200126
0.00200131
0.00197364
0.00197364
0.0020013
0.00197359
0.00197367
0.00200349
0.00197147
0.00200128
0.00197365
0.00197367
0.00197157
0.00196661
0.00193467
0.00196444
0.00196436
0.00193685
0.00193682
0.00196648
0.00193469
0.00196445
0.00196442
0.00193685
0.00193687
0.00196452
0.00193683
0.00193692
0.00196657
0.00193472
0.00196452
0.00193687
0.00193693
0.00193475
0.00192976
0.001898
0.00192764
0.00192766
0.00190013
0.00190017
0.00192981
0.00189803
0.00192765
0.00192769
0.00190013
0.00190019
0.00192769
0.00190016
0.00190007
0.00192984
0.00189803
0.00192769
0.00190018
0.00190007
0.00189789
0.00189315
0.00186153
0.00189102
0.00189102
0.00186368
0.00186363
0.00189315
0.00186149
0.00189102
0.00189102
0.00186367
0.0018636
0.00189092
0.00186362
0.00186362
0.00189314
0.00186146
0.00189092
0.00186359
0.00186362
0.00186152
0.00185664
0.001825
0.00185453
0.00185451
0.00182714
0.00182718
0.00185662
0.00182505
0.00185453
0.00185449
0.00182714
0.00182719
0.00185453
0.00182718
0.0018272
0.0018566
0.00182507
0.00185453
0.00182719
0.0018272
0.00182507
0.00182015
0.00178873
0.00181805
0.00181808
0.00179085
0.00179084
0.00182019
0.00178871
0.00181805
0.00181809
0.00179085
0.00179084
0.00181811
0.00179085
0.00179084
0.00182021
0.00178871
0.00181811
0.00179084
0.00179084
0.00178871
0.00178388
0.00175247
0.00178178
0.00178177
0.00175459
0.0017546
0.00178386
0.00175248
0.00178178
0.00178176
0.00175459
0.00175457
0.00178176
0.0017546
0.00175457
0.00178385
0.00175245
0.00178176
0.00175457
0.00175457
0.00175245
0.00174763
0.00171633
0.00174554
0.00174554
0.00171844
0.0017184
0.00174762
0.00171628
0.00174554
0.00174553
0.00171844
0.00171846
0.00174552
0.0017184
0.00171844
0.00174761
0.00171635
0.00174552
0.00171846
0.00171844
0.00171635
0.00171149
0.00168026
0.00170941
0.00170938
0.00168236
0.00168241
0.00171146
0.00168031
0.00170941
0.00170943
0.00168236
0.00168236
0.00170943
0.00168241
0.00168236
0.00171152
0.00168024
0.00170943
0.00168236
0.00168236
0.00168023
0.00167542
0.00164424
0.00167336
0.00167339
0.00164634
0.00164632
0.00167546
0.0016442
0.00167335
0.00167334
0.00164634
0.00164636
0.00167334
0.00164632
0.00164634
0.00167541
0.00164428
0.00167333
0.00164636
0.00164634
0.00164425
0.00163941
0.00160833
0.00163735
0.00163732
0.00161042
0.00161041
0.00163938
0.00160834
0.00163735
0.00163738
0.00161042
0.00161038
0.00163736
0.00161042
0.00161043
0.00163946
0.00160825
0.00163737
0.00161038
0.00161043
0.00160833
0.00160351
0.00157245
0.00160145
0.00160145
0.00157455
0.00157456
0.00160352
0.00157246
0.00160145
0.00160139
0.00157455
0.00157459
0.00160145
0.00157456
0.00157453
0.00160345
0.00157255
0.00160144
0.00157459
0.00157453
0.00157245
0.00156763
0.00153666
0.00156558
0.0015656
0.00153873
0.00153877
0.00156765
0.00153669
0.00156558
0.00156566
0.00153873
0.00153874
0.00156559
0.00153878
0.00153876
0.00156773
0.00153663
0.00156559
0.00153874
0.00153876
0.00153667
0.00153186
0.00150094
0.00152981
0.00152983
0.00150303
0.00150299
0.00153188
0.00150088
0.00152981
0.00152979
0.00150303
0.00150301
0.00152981
0.00150299
0.00150302
0.00153183
0.00150092
0.00152981
0.001503
0.00150302
0.00150095
0.00149614
0.00146526
0.00149409
0.00149404
0.00146733
0.00146729
0.00149607
0.00146524
0.00149409
0.00149407
0.00146733
0.0014673
0.00149409
0.00146728
0.0014673
0.0014961
0.00146527
0.00149409
0.00146731
0.0014673
0.00146522
0.00146042
0.00142955
0.00145839
0.0014584
0.00143162
0.00143172
0.00146045
0.00142964
0.0014584
0.00145844
0.00143162
0.00143169
0.00145838
0.00143173
0.00143168
0.00146049
0.00142955
0.00145839
0.00143169
0.00143168
0.0014296
0.00142481
0.0013941
0.00142277
0.0014228
0.00139619
0.00139608
0.00142483
0.001394
0.00142276
0.00142271
0.00139619
0.00139603
0.00142277
0.00139607
0.00139606
0.00142472
0.001394
0.00142276
0.00139602
0.00139606
0.001394
0.00138924
0.00135839
0.00138723
0.00138719
0.00136044
0.00136052
0.00138921
0.00135846
0.00138722
0.00138719
0.00136045
0.00136059
0.0013872
0.00136053
0.0013606
0.00138923
0.0013585
0.00138719
0.0013606
0.0013606
0.00135853
0.00135363
0.00132291
0.0013516
0.00135162
0.001325
0.00132498
0.00135365
0.00132292
0.00135159
0.00135167
0.001325
0.00132497
0.00135168
0.00132498
0.00132488
0.00135369
0.0013229
0.00135169
0.00132496
0.00132487
0.00132279
0.00131812
0.00128758
0.0013161
0.00131611
0.00128957
0.00128945
0.00131811
0.00128737
0.0013161
0.0013161
0.00128956
0.00128949
0.00131601
0.00128944
0.00128959
0.00131812
0.00128742
0.001316
0.00128949
0.0012896
0.00128764
0.0012828
0.00125179
0.00128076
0.00128062
0.00125399
0.0012543
0.00128265
0.00125227
0.00128076
0.0012806
0.00125396
0.00125407
0.00128079
0.00125431
0.00125395
0.00128262
0.00125206
0.00128079
0.00125407
0.00125393
0.00125176
0.001247
0.00121667
0.00124503
0.00124533
0.00121857
0.0012182
0.00124733
0.00121603
0.00124501
0.00124528
0.0012186
0.00121861
0.00124504
0.00121821
0.00121875
0.00124731
0.00121645
0.00124502
0.00121863
0.00121879
0.0012169
0.0012119
0.00118093
0.00120982
0.00120946
0.00118318
0.00118364
0.00121143
0.00118183
0.00120985
0.00120957
0.00118311
0.00118288
0.00120996
0.00118362
0.00118278
0.00121154
0.00118091
0.00120999
0.00118285
0.00118272
0.00118045
0.00117611
0.00114573
0.0011742
0.00117473
0.00114762
0.00114696
0.00117683
0.00114462
0.00117412
0.00117426
0.00114772
0.00114818
0.00117387
0.001147
0.00114815
0.00117629
0.00114609
0.00117381
0.00114822
0.00114828
0.00114657
0.00114096
0.00111034
0.00113886
0.00113816
0.00111249
0.00111326
0.00114004
0.00111171
0.00113898
0.00113909
0.00111242
0.00111201
0.00113951
0.00111321
0.00111179
0.00114108
0.00111001
0.00113966
0.00111198
0.00111176
0.00110925
0.0011056
0.0010752
0.00110369
0.00110468
0.0010772
0.00107639
0.00110699
0.00107363
0.00110355
0.00110342
0.00107722
0.00107734
0.00110265
0.00107637
0.00107726
0.00110542
0.00107514
0.00110251
0.0010773
0.0010773
0.00107572
0.00107027
0.00103882
0.00106818
0.00106685
0.00104097
0.00104132
0.00106861
0.00104001
0.00106829
0.00106812
0.001041
0.00104108
0.00106885
0.00104148
0.00104173
0.00107006
0.00103927
0.00106901
0.00104119
0.00104178
0.00103927
0.00103416
0.00100506
0.00103225
0.00103337
0.00100694
0.00100732
0.00103557
0.00100468
0.00103223
0.0010327
0.00100686
0.00100718
0.00103241
0.00100719
0.00100602
0.0010348
0.00100492
0.00103237
0.00100706
0.00100595
0.00100408
0.00100023
0.000967795
0.000998127
0.000997574
0.000970026
0.000969236
0.000999324
0.000967275
0.000998091
0.000997797
0.000970061
0.000969359
0.000997418
0.00096927
0.000970531
0.000999639
0.000967207
0.000997413
0.000969391
0.000970576
0.000968495
0.000962938
0.000934526
0.000961003
0.000960923
0.000936207
0.000936968
0.000962965
0.000935419
0.000961035
0.000960825
0.000936196
0.000936844
0.000961543
0.000936943
0.000935988
0.000962828
0.000935408
0.000961556
0.000936845
0.000935972
0.000934162
0.00093003
0.000897955
0.000927929
0.000928391
0.000900459
0.000900059
0.000930567
0.00089737
0.000927923
0.000928362
0.000900462
0.000900005
0.000927621
0.000899989
0.000900615
0.000930591
0.000897359
0.000927609
0.000900013
0.000900621
0.000898222
0.000892808
0.00086174
0.000890849
0.000890468
0.00086359
0.000863798
0.000892275
0.00086211
0.000890853
0.000890463
0.000863596
0.000863802
0.000891099
0.00086381
0.000863596
0.000892278
0.000862098
0.000891105
0.000863816
0.000863601
0.000861668
0.000857122
0.000827837
0.00085508
0.000855348
0.000829677
0.000829691
0.000857458
0.000827682
0.000855084
0.000855349
0.00082968
0.000829778
0.000855007
0.000829664
0.000829541
0.000857456
0.000827789
0.000855011
0.000829741
0.000829544
0.000827695
0.000823137
0.000792122
0.000821058
0.000820964
0.00079432
0.000794236
0.000822922
0.000792127
0.000821063
0.000821001
0.00079431
0.000794107
0.000820933
0.000794234
0.000794303
0.000823002
0.000791921
0.000820931
0.000794103
0.00079429
0.000792142
0.000787189
0.000756086
0.000785234
0.000785279
0.000758166
0.000758269
0.000787268
0.000756165
0.000785214
0.000785081
0.000758156
0.000758255
0.000785278
0.000758286
0.000758281
0.000787049
0.000756244
0.000785256
0.000758275
0.000758271
0.000756192
0.000751288
0.00072093
0.000749291
0.000749303
0.000722886
0.000722807
0.000751298
0.000720835
0.000749296
0.000749412
0.000722914
0.000722958
0.000749363
0.000722802
0.000722834
0.000751439
0.000720964
0.000749369
0.000722954
0.000722861
0.000720855
0.000716133
0.000685262
0.000714072
0.000714033
0.000687368
0.000687458
0.000716063
0.000685376
0.00071409
0.000714098
0.000687346
0.000687301
0.000714015
0.000687457
0.000687391
0.000716133
0.000685207
0.000714032
0.000687301
0.000687368
0.0006853
0.0006804
0.00064959
0.000678408
0.000678477
0.000651617
0.000651557
0.000680486
0.000649495
0.000678385
0.000678353
0.000651625
0.000651649
0.000678446
0.00065156
0.00065163
0.000680357
0.000649631
0.000678423
0.000651652
0.000651638
0.000649591
0.000644773
0.000614239
0.000642744
0.000642673
0.000616234
0.000616219
0.000644681
0.000614239
0.000642761
0.00064279
0.000616241
0.000616246
0.000642741
0.000616215
0.000616209
0.000644817
0.000614224
0.000642757
0.000616242
0.000616217
0.000614208
0.000609426
0.000578633
0.000607395
0.000607408
0.000580713
0.000580753
0.000609449
0.00057867
0.000607394
0.000607378
0.000580696
0.000580672
0.000607371
0.000580753
0.00058071
0.000609397
0.000578609
0.000607371
0.000580671
0.000580693
0.000578635
0.000573783
0.000542931
0.000571779
0.0005718
0.000544981
0.00054497
0.000573805
0.000542913
0.000571767
0.000571757
0.000544987
0.000545
0.000571783
0.000544971
0.000544996
0.000573769
0.000542952
0.000571771
0.000545003
0.000545002
0.000542949
0.000538085
0.000507284
0.000536061
0.000536051
0.00050932
0.000509314
0.00053807
0.000507274
0.000536067
0.000536077
0.000509322
0.000509321
0.000536073
0.000509313
0.000509308
0.000538101
0.00050728
0.00053608
0.00050932
0.000509309
0.000507262
0.000502435
0.000471545
0.000500403
0.000500392
0.000473599
0.000473603
0.00050242
0.000471558
0.000500404
0.000500406
0.000473601
0.000473611
0.000500387
0.000473604
0.000473617
0.000502434
0.000471553
0.000500389
0.000473612
0.000473619
0.000471575
0.000466688
0.000435823
0.000464659
0.000464674
0.000437863
0.000437866
0.000466706
0.000435811
0.000464658
0.000464658
0.000437858
0.000437834
0.000464679
0.000437863
0.000437832
0.000466687
0.000435793
0.000464678
0.000437832
0.000437826
0.000435772
0.000430966
0.000400017
0.000428932
0.000428912
0.000402073
0.000402066
0.00043094
0.000400023
0.000428929
0.000428915
0.000402081
0.000402118
0.000428896
0.000402071
0.000402125
0.000430945
0.000400072
0.000428894
0.000402121
0.000402132
0.000400105
0.000395152
0.000364207
0.000393117
0.000393134
0.000366262
0.000366285
0.000395175
0.000364215
0.000393122
0.000393157
0.000366254
0.000366227
0.000393186
0.00036628
0.000366211
0.000395199
0.000364152
0.000393191
0.000366223
0.000366203
0.000364113
0.000359322
0.000328283
0.000357288
0.000357276
0.000330332
0.000330293
0.000359306
0.00032825
0.00035728
0.00035723
0.000330338
0.000330341
0.000357195
0.000330291
0.000330348
0.000359258
0.000328312
0.000357189
0.000330337
0.000330353
0.000328354
0.000323429
0.000292518
0.000321386
0.000321387
0.000294575
0.000294631
0.000323428
0.000292581
0.000321395
0.000321432
0.000294572
0.00029461
0.000321468
0.000294641
0.000294644
0.000323481
0.000292539
0.000321474
0.000294625
0.000294636
0.000292522
0.000287611
0.000256414
0.000285569
0.000285587
0.000258466
0.000258383
0.000287636
0.000256304
0.000285563
0.000285553
0.000258466
0.000258402
0.00028554
0.000258368
0.000258372
0.000287596
0.00025635
0.000285535
0.000258386
0.000258371
0.000256347
0.000251545
0.000220555
0.000249497
0.000249447
0.000222623
0.000222728
0.000251476
0.000220704
0.0002495
0.000249477
0.000222619
0.000222673
0.000249473
0.000222741
0.000222727
0.000251517
0.000220621
0.000249475
0.000222689
0.000222725
0.000220659
0.000215673
0.000184664
0.00021363
0.000213707
0.00018667
0.00018656
0.000215779
0.000184486
0.000213624
0.000213652
0.000186678
0.000186651
0.000213686
0.000186551
0.000186583
0.000215713
0.000184621
0.00021368
0.00018664
0.000186588
0.000184551
0.000179773
0.00014826
0.0001777
0.000177579
0.000150434
0.000150537
0.000179614
0.000148469
0.000177712
0.000177689
0.000150427
0.000150459
0.000177617
0.000150548
0.000150524
0.000179738
0.000148308
0.000177631
0.000150469
0.00015052
0.000148402
0.000143332
0.000112648
0.000141327
0.0001415
0.000114583
0.00011451
0.000143565
0.000112465
0.000141305
0.00014133
0.000114576
0.000114528
0.000141446
0.000114502
0.000114494
0.000143373
0.000112588
0.000141423
0.00011452
0.000114482
0.000112498
0.0001078
7.62073e-05
0.000105687
0.000105507
7.83551e-05
7.83446e-05
0.00010757
7.62773e-05
0.000105702
0.000105676
7.83835e-05
7.84481e-05
0.000105551
7.83475e-05
7.84067e-05
0.000107756
7.62976e-05
0.000105573
7.84489e-05
7.84353e-05
7.63245e-05
7.13086e-05
3.99443e-05
6.92486e-05
6.93623e-05
4.21161e-05
4.22119e-05
7.14489e-05
3.99997e-05
6.9247e-05
6.92998e-05
4.20834e-05
4.20324e-05
6.93773e-05
4.22264e-05
4.21464e-05
7.13805e-05
3.98545e-05
6.93734e-05
4.20389e-05
4.21085e-05
3.99014e-05
3.5246e-05
6.59733e-06
3.31923e-05
3.31761e-05
8.28201e-06
8.13054e-06
3.52169e-05
6.44457e-06
3.31742e-05
3.31118e-05
8.28889e-06
8.30026e-06
3.31222e-05
8.11752e-06
8.18352e-06
3.51602e-05
6.63741e-06
3.31018e-05
8.29513e-06
8.19837e-06
6.53631e-06
5.2905e-06
6.64703e-06
6.54196e-06
5.19469e-06
6.65573e-06
6.68172e-06
1.05522e-05
1.06617e-05
1.05834e-05
6.5852e-06
5.34304e-06
6.60076e-06
0.00362589
0.00363614
0.00363063
0.00363063
0.00365323
0.00364014
0.00366859
0.00363404
0.00365323
0.00364014
0.00363405
0.00366859
0.00364466
0.00367231
0.00367231
0.00358031
0.00359999
0.00360912
0.00357244
0.00357368
0.00357598
0.00358029
0.00360001
0.0036091
0.00357243
0.0036077
0.0036077
0.0036077
0.00356125
0.00356125
0.00356124
0.00356125
0.00357778
0.00360419
0.00360756
0.00358531
0.00360701
0.00357667
0.00358624
0.00357375
0.00357596
0.00357778
0.00360756
0.0036042
0.00358531
0.00360701
0.00358624
0.00357666
0.00361004
0.00361005
0.0035806
0.00357638
0.00357638
0.0035351
0.00355414
0.00355553
0.00353363
0.00355303
0.00353317
0.0035351
0.00355415
0.00355553
0.00353362
0.00354985
0.00354985
0.00354985
0.00351153
0.00351153
0.00351153
0.00351153
0.00353371
0.00355425
0.00354973
0.00353763
0.00355307
0.00353424
0.00353746
0.00355305
0.00353318
0.00353371
0.00354973
0.00355425
0.00353763
0.00355307
0.00353745
0.00353424
0.00355524
0.00355525
0.00353398
0.00353454
0.00353455
0.00348269
0.00350151
0.00350258
0.00348166
0.00350114
0.00348138
0.00348269
0.00350151
0.00350258
0.00348166
0.00349826
0.00349826
0.00349826
0.00345899
0.00345899
0.00345899
0.00345899
0.00348178
0.00350191
0.00349815
0.00348513
0.00350134
0.00348215
0.00348502
0.00350115
0.00348138
0.00348178
0.00349815
0.00350191
0.00348513
0.00350134
0.00348502
0.00348215
0.00350215
0.00350215
0.00348176
0.00348221
0.00348221
0.00343019
0.00344884
0.0034497
0.00342942
0.00344864
0.00342925
0.00343019
0.00344884
0.0034497
0.00342942
0.003446
0.003446
0.003446
0.00340735
0.00340735
0.00340735
0.00340735
0.00342968
0.00344925
0.00344596
0.00343305
0.00344897
0.00342987
0.00343301
0.00344864
0.00342925
0.00342968
0.00344596
0.00344925
0.00343305
0.00344896
0.00343302
0.00342987
0.00344929
0.00344929
0.00342973
0.00342981
0.00342981
0.00337899
0.00339735
0.00339798
0.00337844
0.0033972
0.00337831
0.00337899
0.00339735
0.00339798
0.00337844
0.00339462
0.00339462
0.00339462
0.003357
0.003357
0.003357
0.003357
0.00337872
0.0033977
0.0033946
0.003382
0.00339753
0.00337883
0.00338197
0.0033972
0.0033783
0.00337872
0.0033946
0.0033977
0.003382
0.00339753
0.00338197
0.00337883
0.00339769
0.00339769
0.0033788
0.00337874
0.00337874
0.00332935
0.0033473
0.00334775
0.00332896
0.00334717
0.00332884
0.00332935
0.0033473
0.00334775
0.00332896
0.00334465
0.00334465
0.00334465
0.00330813
0.00330813
0.00330813
0.00330813
0.00332923
0.0033476
0.00334464
0.00333239
0.00334749