/*--------------------------------*- C++ -*----------------------------------*\
| =========                 |                                                 |
| \\      /  F ield         | OpenFOAM: The Open Source CFD Toolbox           |
|  \\    /   O peration     | Version:  2312                                  |
|   \\  /    A nd           | Website:  www.openfoam.com                      |
|    \\/     M anipulation  |                                                 |
\*---------------------------------------------------------------------------*/
FoamFile
{
    version     2.0;
    format      ascii;
    arch        "LSB;label=32;scalar=64";
    class       surfaceScalarField;
    location    "700";
    object      phi;
}
// * * * * * * * * * * * * * * * * * * * * * * * * * * * * * * * * * * * * * //

dimensions      [0 3 -1 0 0 0 0];

oriented        oriented;

internalField   nonuniform List<scalar> 
125280
(
1.24118e-07
1.18796e-07
-0.00118379
-7.71227e-08
-7.70403e-08
0.0011837
-0.00113203
-1.19882e-06
-1.13196e-07
-8.98444e-08
0.00113205
-2.39367e-07
1.23826e-06
2.74658e-07
9.11175e-07
-2.14964e-07
-8.55109e-07
2.69003e-07
-0.00113194
-1.19348e-06
-1.24592e-07
-4.50173e-08
0.00113192
-2.36675e-07
1.23551e-06
2.74633e-07
9.11252e-07
-2.14976e-07
-8.52397e-07
2.69017e-07
-0.000270074
1.2248e-06
1.18817e-06
-1.9788e-07
-2.00649e-07
0.00026806
-1.28036e-06
-1.23846e-06
0.000270144
-0.000268111
2.38938e-07
2.46796e-07
0.00113153
-1.23587e-07
-0.00113155
-4.47059e-08
-1.2357e-06
2.77269e-07
-2.42194e-07
-8.553e-07
2.66209e-07
-2.12342e-07
9.13971e-07
1.27779e-06
0.0011316
5.84341e-08
-0.00113178
-6.72701e-08
-1.23082e-06
2.80029e-07
-2.39703e-07
-8.60432e-07
2.63565e-07
-2.1501e-07
9.13725e-07
-1.21671e-06
0.000270124
-0.00026811
2.33922e-07
2.46592e-07
0.00113253
-1.24008e-07
-0.00113255
-5.03341e-08
-1.1938e-06
2.74787e-07
-2.36841e-07
-8.57771e-07
2.6911e-07
-2.15078e-07
9.16585e-07
1.27239e-06
0.00113147
-1.17894e-07
-0.00113149
-5.59599e-08
-1.22775e-06
2.80122e-07
-2.42306e-07
-8.57792e-07
2.66268e-07
-2.1506e-07
9.165e-07
-6.6989e-08
-2.22334e-07
-1.25772e-06
2.71979e-07
-2.44993e-07
-8.57952e-07
2.6633e-07
9.08562e-07
-2.17715e-07
-0.00113182
1.27211e-06
0.0011311
-1.00937e-07
-5.01966e-08
-1.22217e-06
2.79968e-07
-2.39524e-07
-8.55037e-07
2.66254e-07
-2.14953e-07
9.08438e-07
-0.00113114
-1.23822e-06
0.000270106
-0.000268083
2.41729e-07
2.46638e-07
-1.2412e-07
-0.00113198
-3.34949e-08
-1.19356e-06
2.74675e-07
-2.36712e-07
-8.52424e-07
2.69049e-07
9.11276e-07
-2.15006e-07
1.23031e-06
0.00113207
-1.23853e-07
-0.00113204
-8.40717e-08
-1.1936e-06
2.74809e-07
-2.39502e-07
-8.54962e-07
2.69036e-07
-2.14994e-07
9.13779e-07
-0.000268058
2.38915e-07
2.46772e-07
1.23564e-06
1.19371e-06
-1.95419e-07
-2.03207e-07
0.000268113
-5.05776e-08
0.00113151
-2.39407e-07
1.28031e-06
2.77227e-07
9.13883e-07
-2.12289e-07
-8.5523e-07
2.66179e-07
-1.23307e-06
-1.12896e-07
-5.05984e-08
0.00113157
-2.42342e-07
1.27768e-06
2.80054e-07
9.16382e-07
-2.15003e-07
-8.57686e-07
2.68887e-07
-2.0325e-07
-2.0057e-07
0.000268096
-5.0565e-08
0.0011325
-2.36808e-07
1.23842e-06
2.74744e-07
9.16557e-07
-2.15043e-07
-8.57741e-07
2.69068e-07
-1.22768e-06
-1.18464e-07
-5.05785e-08
0.00113144
-2.42252e-07
1.27234e-06
2.80077e-07
9.16476e-07
-2.12308e-07
-8.57755e-07
2.66236e-07
-1.24441e-07
-5.04298e-08
0.00113108
-2.3944e-07
1.2694e-06
2.77184e-07
9.08404e-07
-2.12207e-07
2.63517e-07
-8.49653e-07
-1.98157e-07
-2.03108e-07
0.000268086
-1.24389e-07
-6.75933e-08
0.00113206
-2.36713e-07
1.23295e-06
2.74739e-07
9.13695e-07
-2.14985e-07
2.68994e-07
-8.54878e-07
6.84661e-09
-4.35957e-08
0.000193705
3.32803e-09
-0.000193672
6.89873e-09
-4.36225e-08
0.000193688
-0.000193655
-0.00118389
-7.062e-08
-7.637e-08
0.00118346
-0.00118305
-1.57912e-07
-2.5631e-07
0.00118335
-0.00118345
-8.8137e-08
-5.322e-08
0.00118328
-0.00118331
-9.95834e-08
-9.99928e-08
-9.26321e-11
-7.00503e-08
0.000229497
-0.000229459
2.98491e-08
1.9609e-09
-0.000193745
-4.89249e-09
2.26404e-08
-4.00246e-09
0.000193731
-0.000229458
9.96299e-11
2.85904e-08
0.00022944
-1.11258e-08
1.21542e-09
6.93071e-09
-4.34236e-08
0.000193784
3.20909e-09
-0.000193751
-9.80694e-05
4.92467e-09
1.37001e-08
9.80507e-05
-6.93146e-09
-2.19013e-08
9.80898e-05
-9.8061e-05
-7.00869e-08
-1.77499e-10
0.000229485
-0.000229447
2.17219e-09
2.98692e-08
-0.000193728
-4.90277e-09
2.26424e-08
-3.99069e-09
0.000193714
-0.000229446
2.85961e-08
1.58149e-10
0.000229427
9.91404e-10
-1.11278e-08
6.98427e-09
-4.34368e-08
0.000193767
3.16829e-09
-0.000193734
-8.86847e-08
-1.23669e-07
0.00118344
-7.71638e-08
-6.54888e-08
0.00118325
-8.29806e-08
-9.47931e-08
0.00118321
6.99251e-08
-1.73145e-09
0.000250298
-0.000250177
4.0461e-09
-1.93037e-07
-0.000245595
-1.20459e-08
-2.26322e-08
6.64235e-08
3.95812e-09
0.000245559
0.00115197
-0.00115206
-1.28421e-08
-1.33595e-07
1.00603e-06
-7.53343e-07
-9.35431e-07
8.28448e-07
-5.65611e-08
1.24091e-06
0.00113203
-1.2492e-07
-8.52317e-07
2.68943e-07
-2.14948e-07
9.1116e-07
-1.1961e-06
2.74611e-07
-2.36595e-07
-0.000250273
-2.84755e-08
9.13746e-10
0.000250166
2.76828e-09
1.318e-07
2.32792e-08
4.33993e-08
0.000245633
-1.67539e-08
-0.000245578
-1.04714e-07
-9.78254e-09
0.00115193
-1.51977e-07
-9.32499e-07
8.2577e-07
-7.53162e-07
1.00336e-06
-9.80626e-05
4.94513e-09
1.13586e-08
9.80463e-05
-6.97978e-09
-1.95389e-08
9.80831e-05
-9.80566e-05
-6.80737e-10
6.99408e-08
0.000250288
-0.000250168
-1.93052e-07
3.86225e-09
0.0011518
-0.00115185
1.35028e-08
-1.50978e-07
1.00612e-06
-7.5605e-07
-9.32679e-07
8.28482e-07
-0.000245584
-1.2011e-08
-2.26081e-08
6.40029e-08
3.96104e-09
0.000245551
-5.07287e-08
1.23546e-06
0.0011319
-1.24923e-07
-8.52364e-07
2.68971e-07
-2.14956e-07
9.11213e-07
-1.19073e-06
2.74587e-07
-2.36655e-07
-0.000250261
1.23401e-09
-2.84945e-08
0.000250154
1.31811e-07
1.87127e-09
3.18278e-12
0.00115175
-1.5191e-07
-9.32536e-07
8.28506e-07
-7.53185e-07
1.00613e-06
2.31705e-08
4.34302e-08
0.000245623
-1.67087e-08
-0.00024557
-1.02322e-07
-0.000278333
1.21815e-08
-1.1393e-08
2.26897e-08
-6.83264e-09
0.000278316
-0.000278255
1.20589e-08
-1.14152e-08
2.27307e-08
-7.22172e-09
0.000278239
-1.26935e-06
-1.23289e-06
0.000270079
-0.000268063
2.41332e-07
2.44019e-07
-2.31459e-08
1.96332e-08
0.000278383
1.00834e-08
-0.000278339
-5.05807e-08
-2.3276e-08
1.95231e-08
0.000278305
1.07356e-08
-0.000278264
-4.8235e-08
-1.98504e-08
9.80691e-05
-9.80424e-05
-1.97848e-08
9.80581e-05
-9.80315e-05
0.00027014
-1.28043e-06
-1.24124e-06
-0.000268104
2.3907e-07
2.46944e-07
0.000278329
-2.3133e-08
1.25569e-08
-0.000278287
-5.07892e-08
0.000278261
-2.08599e-08
1.00768e-08
-0.000278219
-5.07822e-08
-1.97438e-08
-6.89e-09
9.80898e-05
-9.80631e-05
1.13978e-08
4.94565e-09
9.80528e-05
-1.9679e-08
-6.94122e-09
9.80788e-05
-9.80521e-05
1.137e-08
4.95712e-09
9.80418e-05
1.23576e-06
1.19656e-06
0.000268106
-1.95473e-07
-2.03251e-07
-2.31297e-08
0.000278379
-5.06615e-08
-0.000278338
1.25985e-08
-2.0868e-08
0.000278311
-5.06598e-08
-0.00027827
1.01282e-08
1.20811e-08
-9.3918e-09
2.49686e-08
0.000278312
9.71077e-09
-6.72773e-09
2.49201e-08
0.000278244
0.00113157
-1.22518e-07
-1.23585e-06
2.7738e-07
-2.3954e-07
-8.55417e-07
2.68971e-07
-2.15146e-07
9.14004e-07
-4.4289e-08
0.000245558
-1.66978e-08
-0.000245503
-1.04891e-07
4.97322e-11
2.86211e-08
-1.11137e-08
9.84036e-10
0.0002294
-0.000229419
-4.35136e-08
-0.000193711
3.26866e-09
2.25986e-08
-3.93875e-09
0.000193692
-8.4485e-11
-7.01325e-08
-0.00022942
2.99212e-08
1.95998e-09
2.86203e-08
-1.11128e-08
9.5227e-10
0.00022936
-0.000229379
-4.5712e-08
6.90218e-09
0.000193683
-0.000193648
3.39557e-09
2.47785e-08
-4.97328e-09
-4.0233e-09
0.000193628
-0.000193644
-7.01386e-08
0.000229418
-0.00022938
2.99144e-08
2.13952e-09
8.07992e-10
2.68464e-09
1.32039e-07
0.00025015
-0.000250257
-5.577e-08
-1.23104e-07
1.2804e-06
-2.39475e-07
2.80061e-07
9.13972e-07
-2.12359e-07
2.66264e-07
-8.55399e-07
0.000245596
-1.04768e-07
-0.000245541
-1.66992e-08
-0.00115235
1.27142e-09
0.00115231
-1.49587e-07
-9.35727e-07
8.31237e-07
-7.56284e-07
1.00899e-06
3.99684e-09
6.64115e-08
0.000245522
3.67099e-10
-1.5422e-07
1.0089e-06
-7.56505e-07
-9.35928e-07
8.31177e-07
-0.0011524
-8.26341e-10
0.000250285
-0.000250164
3.11174e-09
-1.93156e-07
1.43768e-09
1.32045e-07
0.000250126
-0.00025023
-3.30529e-08
-1.23861e-06
-3.10615e-07
9.19156e-07
-2.09676e-07
-8.55129e-07
2.68926e-07
1.28086e-06
-2.45032e-07
2.80219e-07
-0.00113164
2.3075e-08
0.000245492
-1.04733e-07
-0.000245437
-1.90239e-08
-0.00115232
0.00115224
-1.26438e-07
-9.43672e-07
8.31209e-07
-7.5899e-07
1.01144e-06
-1.20714e-08
6.37878e-09
6.63717e-08
0.000245418
-0.000245453
-1.8334e-07
1.0169e-06
-7.56469e-07
-9.38354e-07
8.33902e-07
-0.00115233
0.000250257
-0.000250139
4.73987e-09
-1.93169e-07
-2.19947e-08
-9.80405e-05
1.3637e-08
9.80302e-05
-9.80488e-05
0.000268108
-1.87892e-07
-0.000270125
1.17195e-06
-2.05765e-07
0.000278251
-4.83277e-08
-0.000278212
1.06255e-08
1.9644e-08
-2.32846e-08
0.000278394
-4.83694e-08
-0.000278352
1.06801e-08
2.26214e-08
0.000278187
-0.000278201
-7.43086e-09
-7.00823e-09
9.80855e-05
-9.80589e-05
0.00113257
-1.22923e-07
-1.19665e-06
2.74864e-07
-2.36926e-07
2.69175e-07
-2.1516e-07
0.000245524
-0.000245467
-1.02586e-07
2.86355e-08
1.56177e-10
9.7115e-10
-1.11211e-08
0.000229388
-4.35314e-08
-0.000193694
3.23275e-09
2.25909e-08
-3.91936e-09
0.000193675
-7.016e-08
-1.73248e-10
-0.000229408
2.17381e-09
2.99263e-08
1.67379e-09
1.93583e-09
1.3203e-07
0.000250144
-5.01472e-08
-1.23537e-07
1.24121e-06
-2.36882e-07
2.74824e-07
9.16608e-07
-2.1509e-07
2.69147e-07
-8.57836e-07
0.000245562
-1.02478e-07
-0.000245505
-1.92126e-08
-0.00115219
-3.89624e-09
0.00115215
-1.49678e-07
-9.38236e-07
8.31218e-07
-7.5625e-07
1.0115e-06
6.4768e-09
6.40295e-08
0.000245486
3.67458e-09
-1.42695e-07
1.01144e-06
-7.56445e-07
-9.38389e-07
8.31154e-07
-1.68239e-09
0.000250278
-0.000250157
4.05849e-09
-1.93181e-07
2.86398e-08
-1.11212e-08
9.29061e-10
0.000229349
-4.34593e-08
6.94185e-09
0.00019367
-0.000193637
3.20877e-09
2.25521e-08
-4.99145e-09
-3.88419e-09
0.000193617
-7.01444e-08
0.000229406
-0.000229368
2.99187e-08
2.18131e-09
1.32052e-07
1.63982e-09
0.000250117
-5.01543e-08
-1.22782e-06
-1.17361e-07
9.16511e-07
-2.15117e-07
-8.57862e-07
2.68998e-07
1.27243e-06
-2.42342e-07
2.80188e-07
-0.00115214
0.00115207
-1.43782e-07
-9.38259e-07
8.3122e-07
-7.56287e-07
1.01151e-06
2.32281e-08
0.000245476
-9.99438e-08
-0.000245426
-1.67505e-08
-1.36751e-07
1.01148e-06
-7.56492e-07
-9.38442e-07
8.31162e-07
-1.21744e-08
4.01562e-09
6.40354e-08
0.000245407
0.000250248
-0.000250131
-1.93171e-07
4.33031e-09
4.34803e-08
-1.02385e-07
-0.000245542
-1.67994e-08
-3.95334e-08
-7.9498e-08
-9.4114e-07
8.28374e-07
1.00598e-06
-7.58998e-07
-0.00115229
6.99852e-08
-2.05205e-09
-0.000250153
4.51941e-09
-1.93053e-07
0.000193732
-0.000193698
3.08301e-09
-2.40911e-10
0.000229441
-0.000229405
2.11468e-09
3.19554e-08
0.00115195
-1.26621e-07
-9.35492e-07
8.25682e-07
-7.56248e-07
1.00328e-06
-0.00115205
4.35127e-08
2.31797e-08
0.000245516
-9.99497e-08
-0.000245466
-1.66804e-08
7.00463e-08
0.000250244
-0.000250124
-1.95672e-07
4.01859e-09
6.87447e-09
0.000193675
-0.000193642
3.30968e-09
0.000229404
-0.000229366
2.98636e-08
1.94139e-09
-1.96374e-08
-9.80361e-05
1.12949e-08
9.80257e-05
1.19632e-06
0.000268081
-1.98213e-07
-2.0318e-07
0.00027825
-4.6059e-08
-0.000278211
1.05461e-08
1.96838e-08
-2.31785e-08
0.000278386
-4.83465e-08
-0.000278345
1.05839e-08
-7.33674e-09
2.03857e-08
0.000278186
-1.13589e-08
9.68627e-09
-7.26633e-09
2.26108e-08
0.000278322
-6.92474e-09
9.80854e-05
-9.80588e-05
4.94456e-09
9.80485e-05
1.66103e-09
-2.85451e-08
1.31985e-07
1.86e-09
0.000250128
-4.4557e-08
-1.23632e-07
1.23826e-06
-2.39507e-07
2.74721e-07
9.11324e-07
-2.1506e-07
-8.52547e-07
2.69093e-07
-0.00115191
2.25462e-08
-1.49923e-07
-9.32789e-07
8.28468e-07
1.00611e-06
-7.50732e-07
4.35226e-08
-1.02443e-07
-0.000245532
-1.67215e-08
5.78415e-08
-1.43096e-07
1.00604e-06
-7.53678e-07
-9.32996e-07
8.25662e-07
-2.25733e-08
4.00059e-09
6.403e-08
0.00024551
-2.77397e-10
7.00232e-08
-0.000250141
-1.93106e-07
3.3815e-09
-2.84849e-08
1.31974e-07
2.1818e-09
0.000250103
-2.49635e-07
-1.26844e-06
-1.01035e-07
9.11046e-07
-2.15023e-07
-8.55108e-07
2.69114e-07
1.20329e-06
-2.53294e-07
2.72097e-07
-0.00115183
0.00115177
-1.43992e-07
-9.35344e-07
8.2838e-07
-7.50744e-07
1.00852e-06
4.35034e-08
2.32859e-08
0.000245481
-1.02442e-07
-0.000245429
-1.68063e-08
-1.01552e-07
1.00573e-06
-7.53708e-07
-9.35647e-07
8.25571e-07
-2.25682e-08
-1.20827e-08
4.02668e-09
6.40035e-08
0.00024541
6.99507e-08
0.000250234
-0.000250116
-1.93062e-07
5.7627e-09
3.2041e-10
8.27492e-10
-1.31987e-08
0.000229378
0.000193727
-0.000193694
3.26089e-09
-3.91794e-09
0.000193674
2.85248e-11
0.000229434
-0.000229398
1.83092e-09
3.19674e-08
1.13607e-09
-1.52823e-08
0.000229341
6.99318e-09
0.000193667
-0.000193634
3.15567e-09
-4.96999e-09
-3.87433e-09
0.000193614
0.000229393
-0.00022936
2.44644e-09
3.40516e-08
0.000268069
-2.03353e-07
1.22545e-06
-2.10907e-07
1.97382e-08
-4.83986e-08
-0.000278291
1.00329e-08
1.96212e-08
-4.83506e-08
-0.000278213
1.06989e-08
-1.13465e-08
2.26681e-08
0.000278188
-7.27106e-09
9.80653e-05
-9.80386e-05
9.80615e-05
-9.80348e-05
9.80245e-05
1.14597e-08
9.80734e-05
-1.96386e-08
9.81102e-05
-9.80836e-05
1.14363e-08
9.80624e-05
-1.95698e-08
9.80992e-05
-9.80727e-05
1.20449e-08
2.50236e-08
-9.33518e-09
0.000278363
9.67652e-09
2.49852e-08
-6.66891e-09
0.000278295
0.000270149
-1.28026e-06
-1.23837e-06
-0.000268116
2.38788e-07
2.4664e-07
0.000278429
-2.31276e-08
1.2643e-08
-0.000278388
-5.05392e-08
0.000278362
-2.08694e-08
1.01721e-08
-0.00027832
-5.05301e-08
1.15302e-08
4.83897e-09
9.80938e-05
1.15084e-08
4.8477e-09
9.80829e-05
1.23554e-06
1.19362e-06
0.000268119
-1.95392e-07
-2.0319e-07
1.2016e-08
-9.27511e-09
2.50919e-08
0.000278413
9.63884e-09
-6.60499e-09
2.50569e-08
0.000278345
-7.00551e-08
0.000229457
-0.000229419
2.98489e-08
2.13755e-09
2.48273e-08
-4.0893e-09
0.000193667
2.85893e-08
0.0002294
-1.11133e-08
9.64643e-10
-4.56152e-08
0.000193722
3.34607e-09
-0.000193687
-8.46228e-10
0.000250312
-0.000250191
3.10742e-09
-1.9311e-07
6.64177e-08
3.95986e-09
0.00024556
0.00115225
7.36994e-09
-1.50725e-07
1.00897e-06
-7.56153e-07
-9.35608e-07
8.31252e-07
-4.50712e-08
0.00113148
-1.24493e-07
-1.23559e-06
2.77176e-07
-2.39379e-07
-8.5518e-07
2.66139e-07
-2.12263e-07
9.1386e-07
9.48736e-10
0.000250178
2.69474e-09
1.31871e-07
0.000245634
-1.66831e-08
-0.00024558
-1.04655e-07
-1.77378e-09
0.00115221
-1.51675e-07
-9.35462e-07
8.31289e-07
-7.55997e-07
1.009e-06
0.000250284
-0.000250167
4.73711e-09
-1.9312e-07
-1.20403e-08
6.64155e-08
3.90284e-09
0.000245458
0.0011522
-1.45078e-07
1.01146e-06
-7.56123e-07
-9.38075e-07
8.3123e-07
-5.6292e-08
0.00113155
1.27768e-06
-1.24588e-07
-8.603e-07
2.68849e-07
9.19029e-07
-2.14987e-07
-1.23034e-06
2.80009e-07
-2.3955e-07
0.000250153
1.46306e-09
1.31872e-07
0.00024553
2.30644e-08
-1.65714e-08
-0.000245477
-1.04652e-07
0.00115214
-1.51746e-07
-9.4066e-07
8.31264e-07
-7.55966e-07
1.0142e-06
7.78481e-11
2.85772e-08
-1.11285e-08
1.222e-09
0.000229479
2.26897e-08
-4.06775e-09
0.00019377
2.85787e-08
-1.1127e-08
9.73036e-10
0.000229439
2.48725e-08
-4.87921e-09
-4.14662e-09
0.000193707
8.69348e-10
2.94694e-09
1.31744e-07
0.000250205
-5.08846e-08
-1.24942e-07
1.28022e-06
-2.3936e-07
2.77136e-07
9.13837e-07
-2.12235e-07
2.66104e-07
-8.55148e-07
0.00113146
3.94064e-09
6.64349e-08
0.000245599
4.48575e-09
-1.52711e-07
1.009e-06
-7.5587e-07
-9.35364e-07
8.313e-07
0.00115216
1.2326e-09
1.31746e-07
0.000250181
-5.0836e-08
-1.23299e-06
-1.25009e-07
9.19008e-07
-2.1496e-07
-8.60258e-07
2.68814e-07
1.27764e-06
-2.42246e-07
2.79974e-07
0.00113153
-1.20186e-08
3.88449e-09
6.64312e-08
0.000245496
-1.52764e-07
1.01421e-06
-7.55835e-07
-9.40545e-07
8.31283e-07
0.0011521
2.26748e-08
-7.38835e-09
0.000278237
-1.14779e-08
2.27617e-08
-7.19128e-09
0.000278378
0.000270134
-0.000268101
2.41566e-07
2.43875e-07
0.000278301
1.06576e-08
-0.000278263
-4.82232e-08
1.95492e-08
0.000278447
1.02209e-08
-0.000278403
-5.05579e-08
4.92477e-09
9.80691e-05
9.81059e-05
-7.04026e-09
-9.80794e-05
1.37581e-08
9.80712e-05
1.19606e-06
0.000268104
-1.98034e-07
-2.00513e-07
-7.33815e-09
2.27306e-08
0.000278288
-1.15266e-08
1.2023e-08
-6.63478e-09
2.51109e-08
0.000278428
4.87902e-09
9.80895e-05
-1.7039e-09
0.000250305
-0.000250185
4.06186e-09
-1.93133e-07
6.40483e-08
6.43802e-09
0.000245524
0.00115209
3.31681e-09
-1.45011e-07
1.01151e-06
-7.56071e-07
-9.38127e-07
8.3123e-07
-5.07013e-08
0.00113248
-1.24883e-07
-1.19367e-06
2.74701e-07
-2.36786e-07
-8.57692e-07
2.69034e-07
-2.15016e-07
9.16536e-07
1.67102e-09
0.000250171
1.96332e-09
1.31848e-07
0.0002456
-1.92057e-08
-0.000245543
-1.02359e-07
-3.9434e-09
0.00115204
-1.45975e-07
-9.37977e-07
8.31256e-07
-7.5592e-07
1.01154e-06
-7.00754e-08
0.000229445
-0.000229408
2.98573e-08
2.17704e-09
2.25951e-08
-3.93939e-09
0.000193656
2.86083e-08
0.000229388
-1.11311e-08
9.43167e-10
-4.33731e-08
0.000193709
3.14926e-09
-0.000193676
0.000250275
-0.000250158
-1.93138e-07
4.32684e-09
0.00115203
-1.50777e-07
1.01153e-06
-7.5613e-07
-9.38133e-07
8.31242e-07
-1.21484e-08
6.16191e-08
4.02622e-09
0.000245445
-5.07384e-08
0.00113142
1.27229e-06
-1.24549e-07
-8.57724e-07
2.66185e-07
9.16444e-07
-2.12284e-07
-1.22761e-06
2.8003e-07
-2.42234e-07
0.000250145
1.31887e-07
1.65667e-09
0.00115197
-1.45907e-07
-9.37995e-07
8.31284e-07
-7.55984e-07
1.01155e-06
0.000245515
2.32261e-08
-1.67474e-08
-0.000245465
-9.98371e-08
2.86049e-08
1.53508e-10
9.97226e-10
-1.11456e-08
0.000229467
2.26925e-08
-4.05741e-09
0.000193753
1.66365e-09
1.96336e-09
1.34343e-07
0.000250196
-5.09248e-08
-1.25332e-07
1.23833e-06
-2.36759e-07
2.74667e-07
9.16505e-07
-2.14987e-07
2.68997e-07
-8.57652e-07
0.00113246
6.41276e-09
6.40632e-08
0.000245562
3.47155e-09
-1.52839e-07
1.01155e-06
-7.55818e-07
-9.3787e-07
8.31279e-07
0.00115199
2.86045e-08
-1.11432e-08
9.54074e-10
0.000229427
2.26428e-08
-4.89605e-09
-3.9905e-09
0.000193695
1.34362e-07
1.66724e-09
0.00025017
-5.09244e-08
-1.22757e-06
-1.24985e-07
9.16407e-07
-2.12266e-07
-8.57676e-07
2.66146e-07
1.27224e-06
-2.42209e-07
2.79988e-07
0.0011314
-1.52777e-07
1.01155e-06
-7.55851e-07
-9.37883e-07
8.31297e-07
0.00115193
-1.21238e-08
4.01173e-09
6.16402e-08
0.000245484
-1.40544e-10
0.000229481
-0.000229444
2.10771e-09
3.19019e-08
-3.90728e-09
0.000193718
-1.63787e-10
0.000229425
1.32689e-09
-1.3185e-08
0.000193771
3.03908e-09
-0.000193737
6.99797e-08
0.000250269
-0.000250151
-1.9306e-07
4.02764e-09
0.00115189
-1.45271e-07
1.00333e-06
-7.506e-07
8.25746e-07
-9.29927e-07
-2.25896e-08
6.39649e-08
4.03535e-09
0.000245483
-4.5005e-08
0.00113105
-1.19084e-07
-1.22474e-06
2.77141e-07
-2.39379e-07
-8.49609e-07
2.63475e-07
-2.09448e-07
9.08372e-07
-2.85356e-08
0.000250138
1.34403e-07
1.16288e-09
0.00115183
-1.46125e-07
-9.32481e-07
8.28516e-07
-7.53188e-07
1.00607e-06
4.34173e-08
0.000245554
-1.66446e-08
-0.0002455
-1.0466e-07
0.000229443
-0.000229405
2.9809e-08
1.95216e-09
-4.94778e-09
-3.90373e-09
0.000193661
0.000229386
-1.11002e-08
8.69169e-10
0.000193714
6.91677e-09
3.24389e-09
-0.000193681
-2.84521e-08
1.37906e-09
2.29194e-09
1.31653e-07
0.000250191
-5.67967e-08
-1.25334e-07
1.24087e-06
-2.36578e-07
2.74564e-07
9.1114e-07
-2.14936e-07
-8.52331e-07
2.68886e-07
0.00113202
-2.26697e-08
3.92011e-09
6.64333e-08
0.000245597
1.43894e-09
-1.5294e-07
1.00609e-06
-7.50292e-07
-9.29728e-07
8.28521e-07
0.00115187
-3.43637e-11
1.33161e-09
-1.31868e-08
0.000229464
-3.96101e-09
0.000193757
-2.84995e-08
1.31672e-07
1.66639e-09
0.000250165
-5.07805e-08
-1.22469e-06
-1.30889e-07
9.08337e-07
-2.09432e-07
-8.4958e-07
2.63416e-07
1.26931e-06
-2.39355e-07
2.77105e-07
0.00113103
-1.58754e-07
1.00608e-06
-7.53032e-07
-9.32368e-07
8.28539e-07
0.00115179
-2.26272e-08
-1.21062e-08
4.01342e-09
6.63496e-08
0.000245519
-1.11005e-08
8.87147e-10
0.000229425
-4.89303e-09
-3.96881e-09
0.0001937
2.0427e-08
-7.27933e-09
0.000278236
-1.14388e-08
2.27205e-08
-9.79833e-09
0.000278372
0.000270108
-0.000268088
2.4158e-07
2.46499e-07
0.0002783
1.0585e-08
-0.000278261
-4.5939e-08
1.95782e-08
0.000278436
1.32359e-08
-0.000278397
-4.82534e-08
4.88899e-09
9.80691e-05
9.81059e-05
-6.9621e-09
-9.80793e-05
1.14241e-08
9.80668e-05
1.19069e-06
0.000268091
-1.98134e-07
-2.03091e-07
-7.22456e-09
2.04939e-08
0.000278286
-1.15034e-08
1.19864e-08
-9.73557e-09
2.27808e-08
0.000278423
4.84133e-09
9.80895e-05
6.98719e-08
0.000250261
-0.000250144
-1.93022e-07
5.28103e-09
0.00115172
-1.50959e-07
1.00852e-06
-7.56037e-07
8.28416e-07
-9.35159e-07
-2.26094e-08
6.40102e-08
3.98676e-09
0.000245448
-5.09434e-08
0.00113204
-1.24833e-07
-1.18812e-06
2.74687e-07
-2.36696e-07
-8.54812e-07
2.68942e-07
-2.14958e-07
9.13658e-07
-2.84414e-08
0.00025013
1.31805e-07
1.23558e-09
0.00115167
-1.51892e-07
-9.34989e-07
8.28458e-07
-7.53155e-07
1.00854e-06
4.34119e-08
0.00024552
-1.67866e-08
-0.000245467
-1.02317e-07
-1.04946e-10
0.000229473
-0.000229437
2.27048e-09
3.19068e-08
-3.98119e-09
0.000193713
3.00275e-10
0.000229417
8.33683e-10
-1.31922e-08
0.000193766
3.20498e-09
-0.000193733
0.000229433
-0.000229399
2.44851e-09
3.39879e-08
-4.91962e-09
-3.938e-09
0.000193654
0.00022938
9.32927e-10
-1.5281e-08
0.000193706
7.02626e-09
3.10628e-09
-0.000193673
8.70197e-10
-2.84836e-08
1.31694e-07
2.13275e-09
0.000250182
-5.09002e-08
-1.25367e-07
1.23541e-06
-2.36629e-07
2.74546e-07
9.11182e-07
-2.14937e-07
-8.52335e-07
2.68931e-07
0.00113188
5.05744e-09
-1.52956e-07
1.00611e-06
-7.53054e-07
-9.3245e-07
8.28528e-07
0.0011517
-2.26597e-08
3.94268e-09
6.40281e-08
0.000245589
-2.84259e-08
1.31673e-07
7.71909e-10
0.000250158
-5.1102e-08
-1.18808e-06
-1.25283e-07
9.13569e-07
-2.14939e-07
-8.54788e-07
2.68918e-07
1.23284e-06
-2.36678e-07
2.74642e-07
0.00113202
-1.52932e-07
1.00854e-06
-7.5301e-07
-9.34885e-07
8.28466e-07
0.00115163
-2.26565e-08
-1.20362e-08
3.97418e-09
6.4034e-08
0.000245486
1.93791e-10
8.43508e-10
-1.32021e-08
0.000229457
-4.04118e-09
0.000193752
7.20657e-10
-1.52876e-08
0.000229419
-4.87381e-09
-3.99156e-09
0.000193693
9.80489e-05
9.80857e-05
-9.80592e-05
9.80451e-05
9.80819e-05
-9.80554e-05
0.000268065
-1.97873e-07
-2.00628e-07
-1.14568e-08
-6.7642e-09
2.50524e-08
0.000278364
-1.14762e-08
-7.17085e-09
2.27903e-08
0.000278289
9.80694e-05
9.80656e-05
1.70374e-08
7.92963e-05
3.36813e-11
-0.000263321
2.42474e-08
0.000263366
-6.15588e-08
-4.38783e-09
-3.90995e-09
-4.97181e-09
2.2587e-08
3.32197e-08
-9.23524e-10
7.93221e-05
-1.47924e-09
-4.98648e-09
2.25836e-08
-8.42904e-10
1.23951e-08
0.000143482
-0.000143493
5.7843e-11
-1.11226e-08
9.94415e-10
-0.000229478
-6.00687e-11
2.8579e-08
-0.0001712
-2.90387e-10
-1.59855e-11
0.00017123
-0.000223511
2.87671e-08
4.42175e-09
0.000223551
-7.15586e-08
-0.000171212
-6.83202e-12
-0.000223531
9.76244e-10
3.29523e-08
1.53503e-09
0.000143509
-7.93222e-05
-2.41039e-08
-1.52349e-09
7.93478e-05
-1.71078e-08
0.000263398
-9.62181e-10
-0.000263417
3.32878e-08
3.24072e-09
0.000193764
6.90698e-09
-4.34683e-08
-3.32776e-11
-7.93393e-05
-4.41331e-09
0.000263443
-6.13832e-08
-0.000143466
2.91897e-10
-2.87898e-08
2.98913e-08
2.17978e-09
6.24056e-11
-7.00935e-08
8.33684e-10
0.000171182
-0.000171194
1.86582e-12
-1.23932e-08
0.000223491
-0.000223511
3.29683e-08
-0.000143478
-4.98902e-12
-7.15894e-08
1.7134e-08
7.93308e-05
-0.000263424
2.40625e-08
0.000263469
-6.1326e-08
-4.03493e-09
-4.86696e-09
2.26619e-08
3.33122e-08
7.93564e-05
9.80796e-05
-6.91328e-09
-2.19484e-08
4.90317e-09
1.37246e-08
1.24219e-08
-8.49392e-10
0.00014348
-0.000143492
4.47324e-11
7.70071e-10
-1.11324e-08
-0.000229465
9.21045e-12
2.85962e-08
-0.000223502
2.87719e-08
4.42655e-09
0.000223542
-7.1577e-08
-0.000171197
-2.92658e-10
-3.68139e-12
0.000171227
-0.000223522
9.66354e-10
3.29837e-08
-0.000171209
-1.31903e-11
1.53591e-09
0.000143507
-7.93239e-05
-2.41081e-08
-1.52379e-09
7.93495e-05
-1.70992e-08
0.000263394
-9.50515e-10
-0.000263413
3.32856e-08
3.19921e-09
0.000193747
6.96047e-09
-4.3481e-08
-1.78111e-11
-7.9341e-05
-4.41967e-09
0.000263439
-6.14244e-08
-0.000143465
-2.87976e-08
2.99266e-10
2.3905e-09
2.99019e-08
-2.59296e-11
-7.01252e-08
-1.24239e-08
0.000223481
-0.000223502
3.30013e-08
8.40551e-10
0.000171179
-0.000171191
-4.97584e-12
-0.000143477
-7.16112e-08
5.47525e-12
1.71277e-08
7.93325e-05
-0.00026342
2.40646e-08
0.000263465
-6.13659e-08
-4.02616e-09
-4.87449e-09
2.26642e-08
3.33113e-08
7.93581e-05
9.80729e-05
-6.95828e-09
-1.95907e-08
4.92132e-09
1.13897e-08
-6.99164e-09
-7.09324e-09
0.000213852
-0.000213858
1.01796e-08
1.00931e-08
-8.05861e-05
-1.21738e-08
-1.2014e-08
8.06103e-05
-8.05746e-05
-1.21082e-08
-1.20931e-08
8.05988e-05
-8.06025e-05
9.40765e-09
-8.0591e-05
9.32291e-09
-2.46926e-08
-2.48311e-08
0.000213877
-0.000221985
-3.5919e-08
3.30029e-08
2.47251e-08
0.000222021
-5.7067e-08
-1.58369e-08
0.000250743
-0.000250798
6.11641e-08
3.19479e-08
1.63166e-08
0.000183126
-9.42267e-09
-0.000183139
-4.83411e-08
1.00552e-08
0.000278358
1.96911e-08
-2.31734e-08
-1.01675e-08
-0.000222004
2.88857e-08
0.000250811
-9.70836e-08
-5.48195e-08
1.20106e-08
0.000183157
-0.000221917
-3.60792e-08
3.09893e-08
2.48665e-08
0.000221957
-5.94379e-08
-1.578e-08
0.00025063
-0.000250687
6.36391e-08
3.18912e-08
1.44135e-08
0.000183074
-9.33308e-09
-0.000183086
-4.82933e-08
1.07174e-08
0.00027828
1.95714e-08
-2.32821e-08
-1.00747e-08
-0.00022194
3.13414e-08
0.000250703
-1.01929e-07
-5.50014e-08
1.20957e-08
0.000183103
-0.000213832
1.22024e-08
1.21312e-08
6.97953e-09
8.05783e-05
-8.05947e-05
7.0852e-09
8.05668e-05
-8.05832e-05
-0.000213839
1.58397e-08
-1.63493e-08
0.000222
3.12296e-08
-0.000183143
-3.29475e-08
0.000183174
2.50171e-08
-6.79683e-09
-1.14217e-08
1.21214e-08
-0.000250758
3.58889e-08
0.000250826
-9.94768e-08
-5.48135e-08
6.11887e-08
3.19146e-08
0.000222038
-5.93082e-08
1.57882e-08
-1.44397e-08
0.000221934
3.13768e-08
-0.000183091
-3.09357e-08
0.000183121
2.27576e-08
-7.19332e-09
-1.14467e-08
1.20439e-08
-0.000250646
3.60531e-08
0.000250718
-1.01856e-07
-5.49856e-08
6.3663e-08
3.18855e-08
0.000221974
-5.93643e-08
1.13677e-08
1.13372e-08
-7.01042e-09
-7.08467e-09
0.000213799
1.22857e-08
1.01743e-08
-8.05623e-05
-1.23003e-08
-1.19765e-08
8.05865e-05
-8.05488e-05
-1.22279e-08
-1.20788e-08
8.05731e-05
9.39189e-09
9.35515e-09
-2.6999e-08
-2.5062e-08
0.000213827
-1.64835e-08
0.000221965
1.82252e-08
2.89651e-08
-0.000183087
-3.33517e-08
0.000183121
-9.42269e-09
2.49522e-08
1.21035e-08
3.84267e-08
-0.000250745
0.000250808
-9.96471e-08
-5.23386e-08
0.000222001
-5.73606e-08
6.11198e-08
2.94157e-08
-1.63062e-08
0.000221899
1.57453e-08
3.35138e-08
-0.000183034
-3.31312e-08
0.000183065
-6.76459e-09
2.49028e-08
9.73676e-09
3.60699e-08
-0.000250638
0.000250705
-1.0216e-07
-5.24209e-08
0.000221939
-6.19227e-08
6.35684e-08
2.93987e-08
-9.80795e-05
1.14261e-08
4.91835e-09
-1.9797e-08
-6.86856e-09
-9.80685e-05
1.14045e-08
4.92659e-09
-1.97323e-08
-6.91931e-09
-0.000213819
1.22813e-08
1.22036e-08
-2.69672e-08
-2.50322e-08
0.000213846
7.01539e-09
8.05701e-05
9.38621e-09
7.08778e-09
8.05567e-05
9.34611e-09
1.22913e-08
1.0179e-08
-1.19766e-08
8.05944e-05
-1.20879e-08
8.0581e-05
-1.6533e-08
1.82281e-08
0.000221999
-0.000222018
-1.23073e-08
2.90072e-08
-0.000250779
3.83796e-08
0.000250839
-9.7034e-08
-5.23224e-08
-9.36331e-09
2.49961e-08
-0.000278354
1.20627e-08
-0.000183122
-3.32558e-08
1.19739e-08
0.000183156
-0.000183138
-9.37242e-09
-0.000250826
5.8734e-08
3.19178e-08
2.69324e-08
0.000222035
-5.7221e-08
-1.63556e-08
1.57434e-08
0.000221933
-0.000221956
-1.01888e-08
3.35573e-08
-0.000250669
3.6033e-08
0.000250736
-1.02019e-07
-5.24134e-08
-6.69558e-09
2.49541e-08
-0.000278286
9.69471e-09
-0.000183069
-3.30342e-08
1.2085e-08
0.0001831
-0.000183083
-9.32777e-09
-0.000250721
6.35847e-08
2.93695e-08
2.50023e-08
0.000221973
-6.17782e-08
-0.000221982
3.33105e-08
-3.84059e-08
-5.72957e-08
1.65077e-08
0.000183104
-1.82192e-08
0.000250763
5.86432e-08
2.93913e-08
1.2579e-08
-5.07296e-08
-2.31287e-08
2.89817e-08
-9.71855e-08
-5.48734e-08
-0.000221916
3.30912e-08
-3.60531e-08
-6.18548e-08
1.63316e-08
0.000183051
-1.5742e-08
0.000250653
6.35678e-08
2.9384e-08
1.01086e-08
-5.07255e-08
-2.08656e-08
3.35361e-08
-1.02091e-07
-5.24179e-08
-7.02295e-09
-7.10092e-09
0.000213838
-8.0578e-05
-1.22585e-08
8.06022e-05
-8.05645e-05
-1.21792e-08
8.05888e-05
0.000213865
-0.000143435
3.08577e-10
-2.88501e-08
1.49729e-09
0.000143462
8.12736e-10
0.000171145
-2.69273e-12
-0.000171157
-1.23973e-08
0.000223451
9.34686e-10
3.29814e-08
-0.000223471
2.99408e-08
2.18103e-09
0.000229438
3.20885e-11
-7.01634e-08
-1.46341e-11
-0.000143447
0.000171176
-9.44667e-12
4.39445e-09
0.000223491
-7.16657e-08
7.93136e-05
1.70806e-08
-7.93307e-05
-7.00883e-12
-3.97238e-09
-0.000193725
2.26182e-08
2.41581e-08
-0.000263372
-4.40751e-09
-6.14472e-08
-1.50719e-09
-0.000263392
-9.50521e-10
3.32608e-08
-7.9305e-05
-2.41966e-08
-1.70636e-08
0.000263347
3.3242e-08
3.29987e-09
-4.35601e-08
-6.15069e-08
0.000143451
-8.24918e-10
1.23938e-08
-1.11099e-08
9.90319e-10
-6.22502e-11
2.85908e-08
-2.96446e-10
-0.000171164
-1.54437e-11
2.88168e-08
-0.000223471
-7.16357e-08
-7.74698e-12
3.29673e-08
-0.000143366
3.34148e-10
-2.88283e-08
1.46553e-09
0.000143393
7.9896e-10
0.000171111
-0.000171123
-1.23769e-08
0.000223352
-1.13997e-09
3.04971e-08
-0.000223368
2.99367e-08
2.13784e-09
0.000229398
-7.01664e-08
-1.15662e-11
-0.000143377
0.000171141
6.41069e-09
0.000223388
-6.91939e-08
1.70705e-08
7.92717e-05
-7.92888e-05
-1.06971e-11
-4.06238e-09
-0.000193664
-4.93849e-09
2.47891e-08
-0.00026324
2.41701e-08
-6.41769e-09
0.000263284
-5.89501e-08
-0.000263258
1.12122e-09
3.07381e-08
-1.47776e-09
7.92974e-05
-7.92631e-05
-2.42117e-08
-1.70509e-08
0.000263214
3.07165e-08
-0.000263233
3.41813e-09
6.88839e-09
-4.57518e-08
-7.92802e-05
-5.90054e-08
-8.14999e-10
1.23776e-08
0.000143381
-1.11077e-08
9.60892e-10
2.85885e-08
-0.000171129
-3.22786e-10
0.000171159
-0.000223372
2.8801e-08
0.000223408
-6.91585e-08
3.04837e-08
0.000143408
-9.80591e-05
1.36706e-08
-2.20309e-08
1.58802e-08
-1.46137e-08
0.000221909
-1.45957e-08
3.37276e-08
-0.00022193
-0.000250615
3.84649e-08
0.00025068
-9.71916e-08
-5.48588e-08
2.26505e-08
-7.41147e-09
-0.000278226
1.2056e-08