/*--------------------------------*- C++ -*----------------------------------*\
| =========                 |                                                 |
| \\      /  F ield         | OpenFOAM: The Open Source CFD Toolbox           |
|  \\    /   O peration     | Version:  2312                                  |
|   \\  /    A nd           | Website:  www.openfoam.com                      |
|    \\/     M anipulation  |                                                 |
\*---------------------------------------------------------------------------*/
FoamFile
{
    version     2.0;
    format      ascii;
    arch        "LSB;label=32;scalar=64";
    class       volScalarField;
    location    "250";
    object      epsilon;
}
// * * * * * * * * * * * * * * * * * * * * * * * * * * * * * * * * * * * * * //

dimensions      [0 2 -3 0 0 0 0];

internalField   nonuniform List<scalar> 
43496
(
4.35899e-06
1.94447e-05
1.09556e-06
3.75258e-06
2.33663e-06
8.02896e-07
4.35892e-06
9.77888e-06
2.33657e-06
1.09564e-06
8.02953e-07
3.75289e-06
1.39293e-06
5.80499e-06
5.80348e-06
1.94421e-05
9.77879e-06
1.28896e-05
4.35911e-06
5.02239e-06
1.14469e-05
5.02252e-06
1.14466e-05
1.28901e-05
2.31894e-05
7.42106e-06
7.42145e-06
2.3192e-05
1.94434e-05
1.28897e-05
4.35904e-06
1.14468e-05
5.02222e-06
1.14465e-05
5.02233e-06
1.28902e-05
2.31893e-05
7.4194e-06
9.77866e-06
7.41978e-06
2.31919e-05
1.02108e-05
2.28172e-05
2.28177e-05
2.28153e-05
2.28158e-05
1.02102e-05
4.85062e-06
1.01688e-05
5.80527e-06
3.05749e-06
1.01685e-05
3.05765e-06
4.85032e-06
4.84452e-06
1.01639e-05
5.80377e-06
3.05629e-06
3.05647e-06
1.01636e-05
4.84423e-06
1.94408e-05
9.77857e-06
3.39853e-07
5.38971e-07
3.39985e-07
3.75295e-06
2.25134e-06
2.25192e-06
1.63552e-06
2.3369e-06
2.596e-06
1.50467e-06
2.59637e-06
1.50591e-06
1.63367e-06
1.84923e-06
3.1045e-06
3.10501e-06
1.84764e-06
1.63546e-06
2.33684e-06
1.50465e-06
2.59587e-06
1.50589e-06
2.59622e-06
1.63362e-06
1.84915e-06
3.10411e-06
3.75327e-06
2.2516e-06
3.10459e-06
1.84758e-06
2.25218e-06
2.90128e-06
1.39506e-06
1.97985e-06
1.97969e-06
1.98053e-06
1.98069e-06
2.90094e-06
5.38859e-07
1.09544e-06
1.09554e-06
1.39507e-06
5.3886e-07
1.09546e-06
1.09556e-06
1.3951e-06
1.39494e-06
1.39283e-06
1.09559e-06
1.09551e-06
1.0956e-06
1.09552e-06
1.39492e-06
1.39282e-06
1.09538e-06
1.09562e-06
1.09539e-06
1.09563e-06
1.09565e-06
1.09545e-06
1.09566e-06
1.39501e-06
1.3929e-06
1.09547e-06
1.09555e-06
1.09548e-06
1.39295e-06
1.39498e-06
1.0956e-06
1.09553e-06
1.39497e-06
1.0954e-06
1.09564e-06
1.0957e-06
1.39505e-06
1.09549e-06
4.35884e-06
9.77752e-06
9.77773e-06
4.35897e-06
1.94416e-05
1.9443e-05
4.35889e-06
9.7789e-06
9.77909e-06
4.35902e-06
5.3886e-07
5.38977e-07
5.38974e-07
5.38862e-07
5.38867e-07
5.3898e-07
5.38975e-07
2.3366e-06
3.75289e-06
8.02926e-07
1.09544e-06
3.7525e-06
8.02933e-07
2.33692e-06
1.94431e-05
1.94444e-05
2.33664e-06
8.03025e-07
3.75289e-06
1.09554e-06
8.03025e-07
3.75251e-06
2.33694e-06
5.80361e-06
5.80539e-06
1.39289e-06
5.8033e-06
5.80508e-06
9.77765e-06
4.35903e-06
1.94418e-05
9.77901e-06
4.35908e-06
5.38862e-07
5.3898e-07
5.38984e-07
2.33668e-06
3.75295e-06
8.0294e-07
2.33697e-06
8.02952e-07
1.94433e-05
2.33672e-06
8.03036e-07
3.75294e-06
2.33697e-06
8.03032e-07
5.80367e-06
5.80545e-06
1.3929e-06
5.8034e-06
5.80521e-06
1.94394e-05
1.94408e-05
1.94427e-05
1.9444e-05
5.80356e-06
5.80536e-06
1.39276e-06
5.80325e-06
5.80506e-06
1.94409e-05
1.94395e-05
1.94442e-05
1.94428e-05
1.39491e-06
5.8033e-06
5.80511e-06
5.80358e-06
5.80537e-06
4.35878e-06
9.77767e-06
9.77788e-06
4.35891e-06
2.33652e-06
3.75273e-06
8.029e-07
1.09558e-06
3.75234e-06
8.02902e-07
2.33684e-06
2.33646e-06
3.75316e-06
8.02856e-07
1.09551e-06
3.75274e-06
8.02858e-07
2.33678e-06
4.35898e-06
9.77781e-06
9.77755e-06
4.35888e-06
4.35892e-06
9.77796e-06
9.7777e-06
4.35882e-06
2.33684e-06
1.09559e-06
3.75238e-06
8.02908e-07
3.75275e-06
8.02904e-07
2.33658e-06
2.33678e-06
1.09551e-06
3.75277e-06
8.02864e-07
3.75317e-06
8.02861e-07
2.33652e-06
5.80513e-06
5.80374e-06
1.39275e-06
5.80475e-06
5.80344e-06
1.94407e-05
1.9442e-05
1.94432e-05
1.94416e-05
1.3949e-06
5.80481e-06
5.80349e-06
5.80516e-06
5.80376e-06
1.94421e-05
1.94407e-05
2.33654e-06
3.75328e-06
8.02891e-07
1.09538e-06
3.7529e-06
8.02894e-07
2.33685e-06
4.35882e-06
9.77847e-06
9.77867e-06
4.35895e-06
2.33649e-06
8.02948e-07
3.7532e-06
1.09562e-06
8.02949e-07
3.75282e-06
2.3368e-06
4.35903e-06
9.77917e-06
9.77891e-06
4.35893e-06
2.33686e-06
1.09539e-06
3.75293e-06
8.02898e-07
3.75328e-06
8.02896e-07
2.33659e-06
4.35896e-06
9.77875e-06
9.77849e-06
4.35886e-06
2.33681e-06
1.09562e-06
8.02954e-07
3.75285e-06
8.02952e-07
3.75321e-06
2.33653e-06
4.35903e-06
9.77826e-06
9.77848e-06
4.35922e-06
2.33657e-06
8.02985e-07
3.75285e-06
1.09565e-06
8.02991e-07
3.75245e-06
2.33689e-06
4.3589e-06
9.7782e-06
9.77841e-06
4.35903e-06
2.33692e-06
1.09544e-06
3.75254e-06
8.02936e-07
3.7529e-06
8.02932e-07
2.33667e-06
4.35924e-06
9.77856e-06
9.77829e-06
4.35907e-06
2.33688e-06
1.09566e-06
8.02994e-07
3.75249e-06
8.02993e-07
3.75285e-06
2.33663e-06
4.35905e-06
9.77849e-06
9.77823e-06
4.35894e-06
5.80516e-06
5.80371e-06
1.39284e-06
5.80486e-06
5.80339e-06
1.94405e-05
1.94418e-05
1.94445e-05
1.94431e-05
1.39498e-06
5.80491e-06
5.80344e-06
5.80517e-06
5.80372e-06
1.94419e-05
1.94406e-05
2.33657e-06
8.02981e-07
3.75335e-06
1.09547e-06
8.0298e-07
3.75296e-06
2.33688e-06
4.35904e-06
9.77842e-06
9.77861e-06
4.35923e-06
4.35901e-06
9.77894e-06
9.77913e-06
4.35926e-06
2.33695e-06
1.09555e-06
8.0303e-07
3.75254e-06
8.03028e-07
3.7529e-06
2.33667e-06
2.33689e-06
1.09547e-06
8.02988e-07
3.75299e-06
8.02984e-07
3.75335e-06
2.3366e-06
4.35924e-06
9.77867e-06
9.77843e-06
4.35908e-06
4.35927e-06
9.7792e-06
9.77895e-06
4.35905e-06
1.94415e-05
1.94428e-05
1.94439e-05
1.94452e-05
1.39503e-06
5.80334e-06
5.80513e-06
5.80362e-06
5.80539e-06
1.9443e-05
1.94416e-05
1.94453e-05
1.94439e-05
1.94396e-05
1.94429e-05
5.80364e-06
5.80543e-06
9.77779e-06
4.35897e-06
3.75278e-06
8.02906e-07
2.33688e-06
3.75321e-06
8.02864e-07
2.33682e-06
5.80523e-06
5.80382e-06
1.94409e-05
3.75332e-06
8.02898e-07
2.33689e-06
9.77859e-06
4.35901e-06
8.02954e-07
3.75324e-06
2.33684e-06
4.35912e-06
9.77839e-06
4.35928e-06
2.33664e-06
8.02994e-07
3.75288e-06
1.09559e-06
2.33693e-06
8.02976e-07
3.75252e-06
4.35899e-06
9.77832e-06
4.35909e-06
9.77861e-06
5.80523e-06
5.80375e-06
1.94407e-05
2.33665e-06
8.02993e-07
3.75339e-06
1.0955e-06
2.33691e-06
8.03016e-07
3.75304e-06
4.35913e-06
9.77851e-06
4.35929e-06
4.35911e-06
9.77903e-06
4.35932e-06
9.77933e-06
1.94417e-05
1.94432e-05
1.94441e-05
1.94455e-05
1.28894e-05
1.14466e-05
5.02228e-06
4.35897e-06
1.14463e-05
5.02242e-06
1.28899e-05
2.3192e-05
9.77771e-06
7.42132e-06
7.42091e-06
2.31894e-05
2.31894e-05
7.42092e-06
9.77753e-06
7.42133e-06
2.3192e-05
1.28898e-05
4.35883e-06
1.14463e-05
5.02242e-06
1.14466e-05
5.02227e-06
1.28894e-05
1.9443e-05
1.94416e-05
1.28894e-05
5.02226e-06
1.14467e-05
4.35902e-06
5.0224e-06
1.14465e-05
1.28899e-05
2.31916e-05
9.77908e-06
7.42132e-06
7.4209e-06
2.3189e-05
2.3189e-05
7.42091e-06
9.7789e-06
7.42131e-06
2.31916e-05
1.28898e-05
4.35888e-06
5.0224e-06
1.14464e-05
5.02225e-06
1.14467e-05
1.28894e-05
1.94443e-05
1.94431e-05
1.02111e-05
2.28183e-05
2.28175e-05
2.28164e-05
2.28157e-05
1.02105e-05
4.84441e-06
3.0565e-06
5.80329e-06
1.01639e-05
3.05626e-06
1.01641e-05
4.84474e-06
4.85035e-06
3.05771e-06
5.80507e-06
1.01688e-05
3.05749e-06
1.0169e-05
4.85064e-06
4.84473e-06
1.01641e-05
5.80361e-06
3.05627e-06
3.0565e-06
1.01639e-05
4.84441e-06
4.85063e-06
1.0169e-05
5.80538e-06
3.05749e-06
3.05771e-06
1.01688e-05
4.85035e-06
1.02106e-05
2.28166e-05
2.28158e-05
2.28184e-05
2.28176e-05
1.02111e-05
2.31923e-05
7.42142e-06
9.77786e-06
2.31897e-05
7.42102e-06
1.289e-05
4.3589e-06
1.14464e-05
5.02249e-06
1.28896e-05
1.14467e-05
5.02236e-06
1.94433e-05
2.31919e-05
7.4214e-06
9.77922e-06
2.31893e-05
7.42101e-06
1.289e-05
4.35896e-06
5.02248e-06
1.14466e-05
1.28896e-05
5.02234e-06
1.14469e-05
1.94446e-05
1.02112e-05
2.28187e-05
2.2818e-05
2.28167e-05
2.2816e-05
1.02107e-05
4.84446e-06
3.05654e-06
1.0164e-05
5.80336e-06
4.84477e-06
3.05631e-06
1.01643e-05
4.85039e-06
3.05774e-06
1.01688e-05
5.80516e-06
4.85068e-06
3.05754e-06
1.01691e-05
1.02106e-05
2.28165e-05
2.28158e-05
1.02111e-05
2.28185e-05
2.28177e-05
4.84478e-06
1.01643e-05
5.80369e-06
3.05635e-06
3.05655e-06
1.0164e-05
4.84449e-06
4.85072e-06
1.01692e-05
5.80549e-06
3.05758e-06
3.05777e-06
1.01689e-05
4.85044e-06
1.94407e-05
1.94394e-05
1.9444e-05
1.94427e-05
1.02112e-05
2.2818e-05
2.28172e-05
2.28161e-05
2.28153e-05
1.02107e-05
4.84425e-06
3.0564e-06
5.80323e-06
1.01636e-05
1.01638e-05
3.05616e-06
4.84461e-06
4.85021e-06
3.05759e-06
5.80505e-06
1.01688e-05
1.0169e-05
3.05736e-06
4.85054e-06
4.84461e-06
1.01639e-05
5.80357e-06
3.05617e-06
1.01636e-05
4.84425e-06
3.05641e-06
4.85054e-06
1.0169e-05
5.80536e-06
3.05737e-06
1.01688e-05
4.85021e-06
3.0576e-06
1.02107e-05
2.28162e-05
2.28154e-05
2.2818e-05
2.28172e-05
1.02112e-05
1.94396e-05
1.94408e-05
1.94428e-05
1.94441e-05
1.02107e-05
2.28161e-05
2.28153e-05
1.02112e-05
2.28181e-05
2.28173e-05
4.84464e-06
3.0562e-06
5.80361e-06
1.01639e-05
1.01636e-05
3.05644e-06
4.84429e-06
4.85058e-06
3.0574e-06
5.8054e-06
1.01691e-05
1.01688e-05
3.05763e-06
4.85025e-06
4.84427e-06
1.01636e-05
3.05642e-06
5.80327e-06
4.84462e-06
1.01639e-05
3.05619e-06
4.85023e-06
1.01688e-05
3.05761e-06
5.80508e-06
4.85056e-06
1.01691e-05
3.05738e-06
1.02112e-05
2.28181e-05
2.28173e-05
2.28162e-05
2.28154e-05
1.02107e-05
1.28896e-05
1.14465e-05
5.02216e-06
4.35891e-06
1.14462e-05
5.02228e-06
1.289e-05
2.31922e-05
9.77787e-06
7.41995e-06
7.41956e-06
2.31897e-05
2.31897e-05
7.41958e-06
9.77768e-06
7.41995e-06
2.31922e-05
1.289e-05
4.35877e-06
1.14462e-05
5.02228e-06
1.14465e-05
5.02215e-06
1.28895e-05
1.28899e-05
1.14463e-05
5.02244e-06
4.35886e-06
1.28895e-05
1.14466e-05
5.02229e-06
2.31896e-05
9.77759e-06
7.42098e-06
2.31922e-05
7.42137e-06
2.31921e-05
7.42134e-06
9.77776e-06
2.31895e-05
7.42095e-06
1.28895e-05
4.35901e-06
1.14467e-05
5.02232e-06
1.28899e-05
1.14464e-05
5.02246e-06
1.289e-05
1.14463e-05
5.02229e-06
4.3588e-06
1.28896e-05
1.14465e-05
5.02217e-06
2.31898e-05
9.77774e-06
7.41963e-06
7.42e-06
2.31924e-05
2.31923e-05
7.41996e-06
9.77791e-06
2.31897e-05
7.4196e-06
1.28896e-05
4.35895e-06
1.14466e-05
5.0222e-06
1.14463e-05
5.02232e-06
1.28901e-05
1.02112e-05
2.28176e-05
2.28182e-05
2.28156e-05
2.28163e-05
1.02106e-05
4.8503e-06
3.05756e-06
5.80473e-06
1.01684e-05
1.01686e-05
3.05734e-06
4.85061e-06
4.84433e-06
3.05648e-06
5.80342e-06
1.01641e-05
3.05623e-06
1.01643e-05
4.84468e-06
4.85061e-06
1.01686e-05
5.80514e-06
3.05735e-06
1.01684e-05
3.05757e-06
4.85031e-06
4.84468e-06
1.01643e-05
5.80374e-06
3.05625e-06
3.05648e-06
1.01641e-05
4.84434e-06
1.02107e-05
2.28157e-05
2.28163e-05
2.28176e-05
2.28182e-05
1.02112e-05
1.9442e-05
1.94407e-05
1.94417e-05
1.94431e-05
1.02106e-05
2.28156e-05
2.28163e-05
1.02112e-05
2.28176e-05
2.28182e-05
4.85065e-06
3.05739e-06
5.80519e-06
1.01687e-05
3.0576e-06
1.01684e-05
4.85035e-06
4.84472e-06
3.05628e-06
5.80379e-06
1.01644e-05
1.01641e-05
3.05652e-06
4.84438e-06
4.85033e-06
1.01684e-05
3.05758e-06
5.80478e-06
3.05737e-06
4.85062e-06
1.01686e-05
4.84436e-06
1.01641e-05
3.0565e-06
5.80346e-06
4.84469e-06
1.01643e-05
3.05626e-06
1.02112e-05
2.28177e-05
2.28183e-05
2.28157e-05
2.28163e-05
1.02107e-05
1.94408e-05
1.94421e-05
1.28895e-05
1.14466e-05
5.02209e-06
4.35895e-06
1.14464e-05
5.02221e-06
1.289e-05
2.31914e-05
9.77865e-06
7.41964e-06
7.41921e-06
2.31888e-05
2.31888e-05
7.41922e-06
9.77847e-06
7.41962e-06
2.31914e-05
1.28899e-05
4.35881e-06
1.14463e-05
5.02222e-06
1.14466e-05
5.02207e-06
1.28895e-05
1.28899e-05
5.02242e-06
1.14465e-05
4.3589e-06
1.28895e-05
5.02227e-06
1.14468e-05
2.31892e-05
9.77895e-06
7.42097e-06
2.31918e-05
7.42136e-06
2.31917e-05
7.42132e-06
9.77912e-06
2.31891e-05
7.42092e-06
1.28895e-05
4.35905e-06
5.02231e-06
1.14468e-05
1.289e-05
5.02244e-06
1.14465e-05
1.289e-05
1.14464e-05
5.02223e-06
4.35884e-06
1.28896e-05
1.14467e-05
5.0221e-06
2.3189e-05
9.77853e-06
7.41929e-06
7.41968e-06
2.31916e-05
2.31915e-05
7.41964e-06
9.7787e-06
2.31889e-05
7.41925e-06
1.28896e-05
4.35899e-06
1.14467e-05
5.02214e-06
1.14464e-05
5.02226e-06
1.28901e-05
1.28889e-05
5.02227e-06
1.14467e-05
4.35922e-06
5.02258e-06
1.14464e-05
1.28894e-05
2.31906e-05
9.77845e-06
7.42109e-06
7.42051e-06
2.31878e-05
2.31878e-05
7.42052e-06
9.77827e-06
7.42109e-06
2.31907e-05
1.28894e-05
4.35902e-06
5.02257e-06
1.14464e-05
5.02226e-06
1.14467e-05
1.28889e-05
1.28894e-05
1.14465e-05
5.0221e-06
4.35904e-06
1.14462e-05
5.02224e-06
1.28898e-05
2.31914e-05
9.77839e-06
7.41948e-06
7.41907e-06
2.31888e-05
2.31889e-05
7.41908e-06
9.77821e-06
7.41949e-06
2.31915e-05
1.28898e-05
4.35889e-06
1.14462e-05
5.02224e-06
1.14465e-05
5.02209e-06
1.28894e-05
1.28894e-05
5.02259e-06
1.14464e-05
4.35904e-06
1.28889e-05
5.02229e-06
1.14467e-05
2.3188e-05
9.77834e-06
7.42058e-06
7.42114e-06
2.31909e-05
2.31908e-05
7.42111e-06
9.77851e-06
2.31879e-05
7.42055e-06
1.2889e-05
4.35926e-06
5.02232e-06
1.14468e-05
5.02262e-06
1.14465e-05
1.28895e-05
1.28899e-05
1.14463e-05
5.02226e-06
4.35892e-06
1.28894e-05
1.14465e-05
5.02211e-06
2.31891e-05
9.77827e-06
7.41915e-06
7.41954e-06
2.31917e-05
2.31916e-05
7.4195e-06
9.77844e-06
2.3189e-05
7.4191e-06
1.28895e-05
4.35907e-06
1.14466e-05
5.02214e-06
1.14463e-05
5.02228e-06
1.28899e-05
1.02107e-05
2.28169e-05
2.28174e-05
2.2815e-05
2.28155e-05
1.02101e-05
4.85023e-06
3.05758e-06
5.80485e-06
1.01683e-05
1.01686e-05
3.0574e-06
4.85054e-06
4.84414e-06
3.05643e-06
5.80338e-06
1.01636e-05
3.0562e-06
1.01638e-05
4.84445e-06
4.85053e-06
1.01686e-05
5.80516e-06
3.0574e-06
1.01683e-05
3.05758e-06
4.85023e-06
4.84444e-06
1.01638e-05
5.8037e-06
3.0562e-06
3.05643e-06
1.01635e-05
4.84414e-06
1.02101e-05
2.28151e-05
2.28156e-05
2.28169e-05
2.28174e-05
1.02107e-05
1.94418e-05
1.94405e-05
1.94432e-05
1.94444e-05
1.02101e-05
2.2815e-05
2.28155e-05
1.02107e-05
2.28169e-05
2.28174e-05
4.85056e-06
3.05744e-06
5.8052e-06
1.01686e-05
3.05761e-06
1.01684e-05
4.85027e-06
4.84447e-06
3.05623e-06
5.80374e-06
1.01638e-05
1.01636e-05
3.05645e-06
4.84417e-06
4.85025e-06
1.01683e-05
3.0576e-06
5.80488e-06
3.05742e-06
4.85054e-06
1.01686e-05
4.84415e-06
1.01635e-05
3.05644e-06
5.80341e-06
4.84445e-06
1.01638e-05
3.05621e-06
1.02107e-05
2.2817e-05
2.28175e-05
2.28151e-05
2.28155e-05
1.02101e-05
1.94406e-05
1.94419e-05
1.28891e-05
5.02231e-06
1.14466e-05
4.35923e-06
5.02244e-06
1.14463e-05
1.28895e-05
2.31907e-05
9.7786e-06
7.42092e-06
7.42051e-06
2.31882e-05
2.31882e-05
7.42052e-06
9.77842e-06
7.42091e-06
2.31907e-05
1.28895e-05
4.35903e-06
5.02244e-06
1.14463e-05
5.0223e-06
1.14466e-05
1.28891e-05
1.28896e-05
5.0222e-06
1.14465e-05
4.35926e-06
5.02242e-06
1.14462e-05
1.289e-05
2.31924e-05
9.77912e-06
7.41997e-06
7.41953e-06
2.31898e-05
2.31898e-05
7.41954e-06
9.77894e-06
7.41996e-06
2.31924e-05
1.289e-05
4.35901e-06
5.02242e-06
1.14462e-05
5.02219e-06
1.14465e-05
1.28895e-05
1.28896e-05
5.02244e-06
1.14463e-05
4.35905e-06
1.28891e-05
5.02232e-06
1.14466e-05
2.31883e-05
9.77846e-06
7.42057e-06
7.42095e-06
2.31909e-05
2.31908e-05
7.42092e-06
9.77863e-06
2.31882e-05
7.42053e-06
1.28892e-05
4.35926e-06
5.02234e-06
1.14467e-05
5.02246e-06
1.14464e-05
1.28896e-05
1.28901e-05
5.02243e-06
1.14462e-05
4.35902e-06
1.28896e-05
5.02221e-06
1.14465e-05
2.319e-05
9.77898e-06
7.4196e-06
7.42e-06
2.31926e-05
2.31925e-05
7.41997e-06
9.77915e-06
2.31899e-05
7.41956e-06
1.28896e-05
4.3593e-06
5.02224e-06
1.14465e-05
5.02246e-06
1.14462e-05
1.28901e-05
1.94428e-05
1.94415e-05
1.94452e-05
1.94439e-05
1.02105e-05
2.28164e-05
2.28156e-05
1.02111e-05
2.28183e-05
2.28175e-05
4.84475e-06
3.05631e-06
5.80363e-06
1.01642e-05
4.84444e-06
3.05652e-06
1.01639e-05
4.85066e-06
3.05753e-06
5.80542e-06
1.0169e-05
4.85039e-06
3.05774e-06
1.01688e-05
4.84442e-06
1.01639e-05
3.05651e-06
5.80331e-06
4.84473e-06
3.05629e-06
1.01642e-05
4.85036e-06
1.01687e-05
3.05772e-06
5.8051e-06
4.85064e-06
3.05751e-06
1.0169e-05
1.02111e-05
2.28183e-05
2.28176e-05
1.02105e-05
2.28164e-05
2.28157e-05
1.94416e-05
1.94429e-05
1.9444e-05
1.94452e-05
1.9441e-05
1.94442e-05
4.84432e-06
3.05646e-06
1.01637e-05
5.80332e-06
4.84466e-06
1.0164e-05
3.05624e-06
4.85027e-06
3.05764e-06
1.01689e-05
5.80514e-06
4.8506e-06
1.01692e-05
3.05743e-06
1.02107e-05
2.28162e-05
2.28155e-05
1.02113e-05
2.28182e-05
2.28174e-05
2.31925e-05
7.42003e-06
9.77801e-06
2.31899e-05
7.41967e-06
1.28901e-05
4.35884e-06
1.14463e-05
5.02235e-06
1.14466e-05
1.28897e-05
5.02223e-06
4.85038e-06
3.05762e-06
1.01685e-05
5.80485e-06
1.01688e-05
4.85067e-06
3.05742e-06
4.84443e-06
3.05652e-06
1.01642e-05
5.80352e-06
3.05633e-06
4.84474e-06
1.01645e-05
1.02107e-05
2.28158e-05
2.28164e-05
2.28178e-05
1.02113e-05
2.28184e-05
2.31917e-05
7.41972e-06
9.77881e-06
2.31891e-05
7.41935e-06
1.28901e-05
4.35889e-06
1.14465e-05
5.02229e-06
1.14468e-05
1.28897e-05
5.02217e-06
1.28891e-05
4.35931e-06
1.14469e-05
5.0227e-06
1.14466e-05
2.3191e-05
7.42118e-06
9.7786e-06
7.42062e-06
2.31881e-05
1.28896e-05
4.35909e-06
5.02265e-06
1.14465e-05
5.02235e-06
1.2889e-05
1.14468e-05
2.31882e-05
1.28896e-05
4.35912e-06
1.14467e-05
5.02221e-06
1.14464e-05
5.02235e-06
1.289e-05
2.31918e-05
7.41958e-06
9.77854e-06
2.31892e-05
7.41919e-06
1.289e-05
4.35897e-06
1.14464e-05
5.02231e-06
1.28895e-05
1.14466e-05
5.02217e-06
2.31893e-05
7.41924e-06
9.77839e-06
7.41963e-06
2.31919e-05
4.85029e-06
3.05763e-06
1.01684e-05
5.80495e-06
1.01687e-05
4.85058e-06
3.05745e-06
4.8442e-06
3.05645e-06
1.01636e-05
5.80345e-06
3.05625e-06
4.84448e-06
1.01638e-05
1.02102e-05
2.28151e-05
2.28156e-05
2.28171e-05
1.02107e-05
2.28176e-05
1.9442e-05
1.28893e-05
4.35932e-06
5.02241e-06
1.14468e-05
5.02253e-06
1.14465e-05
1.28897e-05
2.3191e-05
7.42098e-06
9.77872e-06
7.42061e-06
2.31884e-05
1.28897e-05
4.3591e-06
5.02249e-06
1.14464e-05
5.02237e-06
1.28892e-05
1.14467e-05
2.31885e-05
7.42066e-06
7.42103e-06
2.31911e-05
1.28897e-05
4.35936e-06
5.02233e-06
1.14466e-05
5.02254e-06
1.14463e-05
1.28902e-05
2.31927e-05
7.42005e-06
9.77925e-06
2.31901e-05
7.41965e-06
1.28902e-05
4.35908e-06
5.0225e-06
1.14463e-05
1.28897e-05
5.02228e-06
1.14466e-05
2.31902e-05
7.4197e-06
9.7791e-06
7.4201e-06
2.31929e-05
1.94431e-05
1.94418e-05
1.94454e-05
1.94442e-05
3.39931e-07
3.39862e-07
5.38857e-07
3.3993e-07
3.3986e-07
1.81621e-07
1.8162e-07
2.90096e-06
1.98047e-06
1.98074e-06
1.39291e-06
1.97961e-06
1.97988e-06
2.90132e-06
3.39931e-07
3.3986e-07
1.81617e-07
1.81622e-07
2.901e-06
1.98052e-06
1.98078e-06
1.39298e-06
2.90137e-06
1.97967e-06
1.97994e-06
2.90086e-06
1.98039e-06
1.98065e-06
1.39278e-06
1.97955e-06
1.97979e-06
2.90121e-06
2.90126e-06
1.39495e-06
1.97961e-06
1.97985e-06
1.98042e-06
1.98069e-06
2.90092e-06
2.9009e-06
1.98059e-06
1.98045e-06
1.39276e-06
1.97959e-06
1.97972e-06
2.90127e-06
2.90133e-06
1.39494e-06
1.97979e-06
1.97965e-06
1.98062e-06
1.98049e-06
2.90096e-06
2.90086e-06
1.98062e-06
1.98047e-06
1.39285e-06
1.9796e-06
1.97976e-06
2.90121e-06
2.90125e-06
1.39502e-06
1.97982e-06
1.97965e-06
1.98065e-06
1.98049e-06
2.90091e-06
2.90135e-06
1.39506e-06
1.97966e-06
1.97993e-06
2.90103e-06
1.98049e-06
1.98076e-06
2.90093e-06
1.98045e-06
1.98071e-06
1.39285e-06
2.90127e-06
1.97963e-06
1.97987e-06
2.90098e-06
1.98065e-06
1.98051e-06
1.39284e-06
1.97967e-06
2.90134e-06
1.97981e-06
2.90092e-06
1.98067e-06
1.98051e-06
1.39292e-06
1.97967e-06
2.90126e-06
1.97983e-06
3.39925e-07
3.39887e-07
5.3886e-07
3.39924e-07
3.39886e-07
1.81628e-07
1.81626e-07
3.39996e-07
3.39962e-07
5.38976e-07
3.39994e-07
3.3996e-07
1.81674e-07
1.81674e-07
3.4002e-07
3.39953e-07
5.38973e-07
3.40019e-07
3.39952e-07
1.81681e-07
1.8168e-07
5.38858e-07
3.39933e-07
3.3986e-07
3.3993e-07
3.39862e-07
1.81619e-07
1.8162e-07
5.38861e-07
3.39928e-07
3.3989e-07
3.39924e-07
3.39887e-07
1.81626e-07
1.81626e-07
5.38978e-07
3.39995e-07
3.39963e-07
3.39995e-07
3.39961e-07
1.81673e-07
1.81673e-07
5.38975e-07
3.40022e-07
3.39956e-07
3.40021e-07
3.39953e-07
1.8168e-07
1.8168e-07
1.63551e-06
2.59589e-06
1.50468e-06
2.3369e-06
2.5963e-06
1.50594e-06
1.63366e-06
1.84756e-06
2.25187e-06
3.75249e-06
3.10481e-06
2.25127e-06
3.10426e-06
1.84915e-06
1.84915e-06
3.10427e-06
3.7529e-06
2.25128e-06
2.25188e-06
3.10481e-06
1.84756e-06
1.63366e-06
2.3366e-06
2.59632e-06
1.50597e-06
2.59589e-06
1.50469e-06
1.63552e-06
1.63559e-06
1.50474e-06
2.59597e-06
2.33694e-06
1.506e-06
2.59636e-06
1.63373e-06
1.84763e-06
2.25189e-06
3.7525e-06
3.10482e-06
2.25129e-06
3.10432e-06
1.84921e-06
1.84922e-06
3.10432e-06
3.75289e-06
2.25129e-06
2.25189e-06
3.10481e-06
1.84764e-06
1.63372e-06
2.33663e-06
1.50599e-06
2.59636e-06
1.50474e-06
2.59597e-06
1.63558e-06
2.90132e-06
1.39503e-06
1.97961e-06
1.97987e-06
1.98045e-06
1.98072e-06
2.90097e-06
3.39923e-07
3.3989e-07
3.3988e-07
1.81626e-07
1.81631e-07
3.39995e-07
3.39965e-07
3.39961e-07
1.81674e-07
1.81677e-07
3.40024e-07
3.39949e-07
5.38962e-07
3.40019e-07
3.39974e-07
1.81694e-07
1.81682e-07
1.63551e-06
2.33695e-06
2.59598e-06
1.5047e-06
2.59636e-06
1.50595e-06
1.63367e-06
1.84759e-06
2.25191e-06
3.10486e-06
3.75255e-06
1.84918e-06
2.2513e-06
3.10434e-06
1.63367e-06
2.33665e-06
2.59637e-06
1.50599e-06
1.63554e-06
2.59595e-06
1.50471e-06
1.63558e-06
2.33698e-06
1.50475e-06
2.59606e-06
1.50598e-06
2.59641e-06
1.63375e-06
1.84763e-06
2.25191e-06
3.10486e-06
3.75256e-06
1.84921e-06
2.25132e-06
3.10437e-06
1.63371e-06
2.33667e-06
1.50599e-06
2.5964e-06
1.63557e-06
1.50473e-06
2.59601e-06
1.84924e-06
3.10441e-06
3.10488e-06
1.84768e-06
2.90137e-06
1.39513e-06
1.97967e-06
1.97993e-06
1.98053e-06
1.98079e-06
2.90104e-06
2.90122e-06
1.3949e-06
1.97956e-06
1.9798e-06
2.90088e-06
1.98038e-06
1.98064e-06
2.9009e-06
1.39279e-06
1.9804e-06
1.98066e-06
2.90124e-06
1.97958e-06
1.97982e-06
1.63552e-06
2.59591e-06
1.50463e-06
2.33682e-06
2.59631e-06
1.5059e-06
1.63366e-06
1.84761e-06
2.25184e-06
3.75233e-06
3.10486e-06
3.10432e-06
2.25125e-06
1.8492e-06
1.84921e-06
3.10432e-06
3.75274e-06
2.25125e-06
3.10486e-06
2.25184e-06
1.84761e-06
1.63366e-06
2.33652e-06
2.59632e-06
1.50591e-06
2.5959e-06
1.50465e-06
1.63552e-06
1.63542e-06
2.59576e-06
1.50458e-06
2.33677e-06
2.59615e-06
1.50585e-06
1.63355e-06
1.84748e-06
2.25209e-06
3.75273e-06
3.10454e-06
3.10403e-06
2.25149e-06
1.84908e-06
1.84909e-06
3.10403e-06
3.75317e-06
2.25149e-06
3.10453e-06
1.84749e-06
2.25209e-06
1.63355e-06
2.33647e-06
2.59616e-06
1.50586e-06
2.59576e-06
1.50459e-06
1.63541e-06
1.63367e-06
2.59633e-06
1.5059e-06
2.33655e-06
1.63552e-06
2.59593e-06
1.50465e-06
1.84922e-06
2.25127e-06
3.75276e-06
3.10436e-06
2.25186e-06
3.10489e-06
1.84762e-06
1.84762e-06
3.10487e-06
2.25185e-06
3.75236e-06
2.25126e-06
1.84921e-06
3.10434e-06
1.63553e-06
2.33687e-06
2.59595e-06
1.50467e-06
2.59636e-06
1.50592e-06
1.63367e-06
1.63356e-06
2.59616e-06
1.50584e-06
2.33649e-06
1.63542e-06
2.59578e-06
1.50459e-06
1.84909e-06
2.2515e-06
3.75319e-06
3.10407e-06
3.10457e-06
2.2521e-06
1.84749e-06
1.84749e-06
3.10455e-06
2.25209e-06
3.75275e-06
1.8491e-06
3.10405e-06
2.2515e-06
1.63543e-06
2.33681e-06
2.59581e-06
1.50461e-06
2.59619e-06
1.50587e-06
1.63356e-06
2.90128e-06
1.39489e-06
1.97973e-06
1.9796e-06
1.98044e-06
1.98057e-06
2.90092e-06
2.90095e-06
1.39278e-06
1.9806e-06
1.98046e-06
1.97976e-06
2.90131e-06
1.97963e-06
1.63551e-06
2.5959e-06
1.50464e-06
2.33685e-06
2.5963e-06
1.50591e-06
1.63364e-06
1.84759e-06
2.25216e-06
3.75289e-06
3.10493e-06
3.1044e-06
2.25156e-06
1.84919e-06
1.8492e-06
3.1044e-06
3.75328e-06
2.25157e-06
3.10493e-06
2.25216e-06
1.8476e-06
1.63363e-06
2.33654e-06
2.59631e-06
1.50591e-06
2.5959e-06
1.50464e-06
1.6355e-06
1.63546e-06
1.50462e-06
2.59577e-06
2.33679e-06
1.50588e-06
2.59615e-06
1.6336e-06
1.84754e-06
2.25214e-06
3.75281e-06
3.10454e-06
3.10403e-06
2.25156e-06
1.84911e-06
1.84912e-06
3.10403e-06
3.7532e-06
2.25156e-06
3.10451e-06
1.84754e-06
2.25214e-06
1.63359e-06
2.33649e-06
1.50588e-06
2.59618e-06
1.50462e-06
2.59577e-06
1.63544e-06
1.63364e-06
2.59632e-06
1.5059e-06
2.33656e-06
1.63552e-06
2.59592e-06
1.50464e-06
1.8492e-06
2.25159e-06
3.7533e-06
3.10445e-06
2.25217e-06
3.10497e-06
1.8476e-06
1.8476e-06
3.10494e-06
2.25216e-06
3.75291e-06
2.25157e-06
1.84921e-06
3.10442e-06
1.63552e-06
2.33688e-06
2.59594e-06
1.50465e-06
2.59634e-06
1.50591e-06
1.63364e-06
1.6336e-06
1.50588e-06
2.59617e-06
2.33651e-06
1.63546e-06
1.50462e-06
2.59579e-06
1.84912e-06
2.25158e-06
3.75322e-06
3.10406e-06
3.10454e-06
2.25215e-06
1.84754e-06
1.84754e-06
3.10452e-06
2.25214e-06
3.75283e-06
1.84912e-06
3.10404e-06
2.25156e-06
1.63546e-06
2.33683e-06
1.50463e-06
2.59581e-06
1.50589e-06
2.59619e-06
1.63359e-06
1.6355e-06
1.50468e-06
2.59582e-06
2.33687e-06
1.50593e-06
2.59622e-06
1.63365e-06
1.84753e-06
2.25188e-06
3.75245e-06
3.10446e-06
2.25128e-06
3.10392e-06
1.84912e-06
1.84913e-06
3.10393e-06
3.75285e-06
2.2513e-06
2.25188e-06
3.10446e-06
1.84754e-06
1.63365e-06
2.33657e-06
1.50595e-06
2.59623e-06
1.50469e-06
2.59582e-06
1.63549e-06
1.63368e-06
2.59632e-06
1.50594e-06
2.33663e-06
1.63552e-06
2.59593e-06
1.5047e-06
1.84918e-06
2.25129e-06
3.75292e-06
3.10432e-06
1.84759e-06
2.25189e-06
3.10485e-06
1.84758e-06
3.10482e-06
2.25188e-06
3.75251e-06
1.84917e-06
2.25128e-06
3.10429e-06
1.63555e-06
2.33696e-06
2.59595e-06
1.50473e-06
1.6337e-06
2.59636e-06
1.50598e-06
1.63367e-06
1.50593e-06
2.59623e-06
2.3366e-06
1.63551e-06
1.50469e-06
2.59584e-06
1.84914e-06
2.25131e-06
3.75287e-06
3.10397e-06
3.1045e-06
2.25189e-06
1.84755e-06
1.84755e-06
3.10447e-06
2.25188e-06
3.75246e-06
1.84913e-06
3.10395e-06
2.25129e-06
1.63552e-06
2.33692e-06
1.50472e-06
2.59586e-06
1.50597e-06
2.59626e-06
1.63366e-06
2.90121e-06
1.39498e-06
1.97977e-06
1.97961e-06
1.98045e-06
1.98061e-06
2.90087e-06
2.90089e-06
1.39286e-06
1.98062e-06
1.98046e-06
1.97979e-06
2.90123e-06
1.97963e-06
1.6355e-06
1.50468e-06
2.59582e-06
2.33687e-06
1.50594e-06
2.59622e-06
1.63363e-06
1.84755e-06
2.25221e-06
3.75295e-06
3.10462e-06
2.25161e-06
3.1041e-06
1.84914e-06
1.84915e-06
3.1041e-06
3.75335e-06
2.25162e-06
2.25221e-06
3.10462e-06
1.84756e-06
1.63363e-06
2.33657e-06
1.50594e-06
2.59623e-06
1.50468e-06
2.59582e-06
1.63548e-06
1.63374e-06
1.506e-06
2.59637e-06
2.33666e-06
1.6356e-06
1.50474e-06
2.59598e-06
1.84922e-06
2.25131e-06
3.75292e-06
3.10435e-06
1.84762e-06
2.25189e-06
3.10484e-06
1.84763e-06
3.10482e-06
2.25188e-06
3.75252e-06
1.84922e-06
2.2513e-06
3.10433e-06
1.63559e-06
2.33697e-06
1.50475e-06
2.596e-06
1.63372e-06
1.50601e-06
2.59639e-06
1.63363e-06
1.50594e-06
2.59624e-06
2.33659e-06
1.6355e-06
1.50469e-06
2.59583e-06
1.84914e-06
2.25164e-06
3.75337e-06
3.10414e-06
3.10464e-06
2.25222e-06
1.84755e-06
1.84756e-06
3.10463e-06
2.25221e-06
3.75297e-06
1.84914e-06
3.10411e-06
2.25162e-06
1.6355e-06
2.33691e-06
1.50469e-06
2.59586e-06
1.50595e-06
2.59626e-06
1.63363e-06
2.901e-06
1.39291e-06
1.98046e-06
1.98073e-06
2.90134e-06
1.97964e-06
1.9799e-06
1.84764e-06
2.25187e-06
3.10491e-06
3.75239e-06
3.10439e-06
1.84922e-06
2.25128e-06
1.63367e-06
2.3366e-06
2.59637e-06
1.50592e-06
2.59598e-06
1.63553e-06
1.50466e-06
1.84751e-06
2.25212e-06
3.10459e-06
3.75279e-06
1.8491e-06
3.10411e-06
2.25152e-06
1.63356e-06
2.33654e-06
2.5962e-06
1.50587e-06
1.63542e-06
2.59584e-06
1.50461e-06
1.84761e-06
2.25218e-06
3.10499e-06
3.75295e-06
3.10447e-06
1.84921e-06
2.2516e-06
1.63364e-06
2.33659e-06
2.59636e-06
1.50591e-06
2.59595e-06
1.63551e-06
1.50465e-06
1.84755e-06
2.25216e-06
3.10456e-06
3.75287e-06
1.84912e-06
3.10408e-06
2.25159e-06
1.63359e-06
2.33653e-06
1.50589e-06
2.5962e-06
1.63545e-06
1.50463e-06
2.59583e-06
1.6355e-06
2.33692e-06
1.50469e-06
2.5959e-06
1.50595e-06
2.59628e-06
1.63366e-06
1.84755e-06
2.25189e-06
3.10451e-06
3.7525e-06
2.2513e-06
1.84913e-06
3.10399e-06
1.63365e-06
2.33661e-06
1.50597e-06
2.59628e-06
1.50469e-06
1.63551e-06
2.59587e-06
1.84913e-06
3.10402e-06
3.75291e-06
2.25131e-06
2.25191e-06
3.10453e-06
1.84756e-06
1.63549e-06
2.33692e-06
1.5047e-06
2.59592e-06
1.50593e-06
2.59629e-06
1.63366e-06
1.84756e-06
2.25223e-06
3.10468e-06
3.75302e-06
2.25165e-06
1.84914e-06
3.10416e-06
1.63361e-06
2.3366e-06
1.50594e-06
2.59627e-06
1.50467e-06
1.63548e-06
2.59586e-06
1.84916e-06
3.1042e-06
3.75342e-06
2.25168e-06
2.25226e-06
3.1047e-06
1.84761e-06
8.6855e-07
1.154e-06
8.68445e-07
9.16392e-06
3.47703e-06
1.84366e-05
5.46531e-06
5.46364e-06
1.84337e-05
3.47684e-06
9.16477e-06
2.2055e-05
9.16036e-06
7.08619e-06
7.0858e-06
2.20612e-05
1.84313e-05
4.54924e-06
2.81728e-06
5.46474e-06
9.51351e-06
2.81517e-06
9.50744e-06
4.55141e-06
4.54328e-06
2.81607e-06
5.46322e-06
9.50866e-06
9.50307e-06
2.81415e-06
4.54525e-06
9.74481e-06
2.1758e-05
2.17582e-05
2.17416e-05
2.17419e-05
9.7494e-06
1.84295e-05
2.20548e-05
9.16218e-06
7.08705e-06
7.0874e-06
2.20596e-05
2.67288e-06
1.15463e-06
1.77378e-06
1.77367e-06
1.77331e-06
1.7732e-06
2.674e-06
1.62114e-06
2.037e-06
3.47623e-06
2.86194e-06
2.86097e-06
2.03628e-06
1.62086e-06
1.62122e-06
2.03678e-06
3.47615e-06
2.86205e-06
2.03608e-06
2.86147e-06
1.62095e-06
3.26816e-07
8.74537e-07
8.74685e-07
1.15999e-06
3.42991e-07
8.97656e-07
8.97795e-07
1.17835e-06
3.59537e-07
9.20369e-07
9.20458e-07
1.19794e-06
3.76436e-07
9.41051e-07
9.41284e-07
1.2135e-06
3.93297e-07
9.61193e-07
9.61203e-07
1.23065e-06
4.10704e-07
9.78932e-07
9.79234e-07
1.24553e-06
4.27354e-07
9.94533e-07
9.94537e-07
1.25207e-06
4.50909e-07
1.0304e-06
1.03056e-06
1.31225e-06
4.57697e-07
1.0169e-06
1.01714e-06
1.28571e-06
4.5409e-07
9.84951e-07
9.84994e-07
1.2187e-06
4.67154e-07
9.98579e-07
9.98694e-07
1.23453e-06
4.96713e-07
1.04319e-06
1.04335e-06
1.30492e-06
5.23385e-07
1.07806e-06
1.07816e-06
1.36219e-06
5.35579e-07
1.09324e-06
1.09334e-06
1.38981e-06
5.3875e-07
1.09626e-06
1.09638e-06
1.39654e-06
5.38768e-07
1.09555e-06
1.09567e-06
1.39538e-06
5.3847e-07
1.09492e-06
1.09503e-06
1.39416e-06
5.38532e-07
1.09501e-06
1.09512e-06
1.39424e-06
5.38727e-07
1.09528e-06
1.09539e-06
1.39474e-06
5.38831e-07
1.09539e-06
1.0955e-06
1.39497e-06
5.38849e-07
1.09541e-06
1.09553e-06
1.39503e-06
5.38855e-07
1.09543e-06
1.09554e-06
1.39505e-06
5.38857e-07
1.09544e-06
1.09555e-06
1.39509e-06
5.38856e-07
1.09543e-06
1.09555e-06