/*--------------------------------*- C++ -*----------------------------------*\
| =========                 |                                                 |
| \\      /  F ield         | OpenFOAM: The Open Source CFD Toolbox           |
|  \\    /   O peration     | Version:  2312                                  |
|   \\  /    A nd           | Website:  www.openfoam.com                      |
|    \\/     M anipulation  |                                                 |
\*---------------------------------------------------------------------------*/
FoamFile
{
    version     2.0;
    format      ascii;
    arch        "LSB;label=32;scalar=64";
    class       volScalarField;
    location    "250";
    object      epsilon;
}
// * * * * * * * * * * * * * * * * * * * * * * * * * * * * * * * * * * * * * //

dimensions      [0 2 -3 0 0 0 0];

internalField   nonuniform List<scalar> 
43120
(
1.33734e-07
2.30889e-07
2.309e-07
3.5841e-07
1.3159e-07
2.41557e-07
2.4157e-07
3.84555e-07
1.30243e-07
2.54312e-07
2.54328e-07
4.13557e-07
1.29681e-07
2.69109e-07
2.69127e-07
4.45078e-07
1.29906e-07
2.85882e-07
2.85904e-07
4.78726e-07
1.30894e-07
3.04545e-07
3.0457e-07
5.14071e-07
1.32649e-07
3.24993e-07
3.25022e-07
5.50669e-07
1.35171e-07
3.47107e-07
3.47142e-07
5.88076e-07
1.38461e-07
3.70752e-07
3.7079e-07
6.25857e-07
1.42521e-07
3.9578e-07
3.95823e-07
6.63645e-07
1.47358e-07
4.22032e-07
4.22084e-07
7.01104e-07
1.52975e-07
4.49346e-07
4.49402e-07
7.37961e-07
1.59378e-07
4.77549e-07
4.77611e-07
7.73993e-07
1.66575e-07
5.06469e-07
5.0654e-07
8.09078e-07
1.7457e-07
5.35924e-07
5.36001e-07
8.43024e-07
1.83357e-07
5.65747e-07
5.65826e-07
8.75835e-07
1.92931e-07
5.95747e-07
5.95831e-07
9.07454e-07
2.03285e-07
6.25763e-07
6.25858e-07
9.37879e-07
2.14406e-07
6.55646e-07
6.55738e-07
9.67074e-07
2.26271e-07
6.8523e-07
6.85339e-07
9.95095e-07
2.38837e-07
7.14382e-07
7.14486e-07
1.02189e-06
2.52112e-07
7.43002e-07
7.43122e-07
1.04757e-06
2.65994e-07
7.7095e-07
7.71062e-07
1.07211e-06
2.8047e-07
7.98102e-07
7.98245e-07
1.09551e-06
2.95495e-07
8.24551e-07
8.2468e-07
1.11804e-06
3.10907e-07
8.49814e-07
8.49946e-07
1.13908e-06
8.74689e-07
3.52877e-07
2.28609e-07
2.28651e-07
3.52901e-07
2.28573e-07
2.28655e-07
2.28554e-07
2.28614e-07
3.52921e-07
2.28563e-07
2.28605e-07
3.5296e-07
3.58339e-07
3.78369e-07
2.30949e-07
2.30991e-07
2.38761e-07
2.38801e-07
3.58356e-07
3.78384e-07
2.30911e-07
2.30996e-07
2.38719e-07
2.38811e-07
2.30954e-07
2.38696e-07
2.38765e-07
3.58381e-07
3.78417e-07
2.30943e-07
2.38707e-07
2.38755e-07
3.78457e-07
3.84477e-07
4.06763e-07
2.41627e-07
2.41666e-07
2.51007e-07
2.51047e-07
3.84486e-07
4.06778e-07
2.41583e-07
2.41677e-07
2.50959e-07
2.51062e-07
2.4163e-07
2.50934e-07
2.51011e-07
3.84521e-07
4.06819e-07
2.41619e-07
2.50947e-07
2.50999e-07
4.06858e-07
4.13471e-07
4.37735e-07
2.54391e-07
2.54431e-07
2.65308e-07
2.65348e-07
4.13481e-07
4.37749e-07
2.54341e-07
2.54446e-07
2.65253e-07
2.65367e-07
2.54395e-07
2.65225e-07
2.65312e-07
4.13523e-07
4.37793e-07
2.5438e-07
2.65241e-07
2.65297e-07
4.37838e-07
4.44985e-07
4.70902e-07
2.69197e-07
2.69237e-07
2.81603e-07
2.81643e-07
4.44994e-07
4.70915e-07
2.69141e-07
2.69258e-07
2.81541e-07
2.81668e-07
2.69202e-07
2.81511e-07
2.81609e-07
4.45039e-07
4.70966e-07
2.69184e-07
2.8153e-07
2.81589e-07
4.71013e-07
4.78627e-07
5.05843e-07
2.8598e-07
2.8602e-07
2.99812e-07
2.99852e-07
4.78633e-07
5.0586e-07
2.85916e-07
2.86046e-07
2.99741e-07
2.99881e-07
2.85987e-07
2.9971e-07
2.9982e-07
4.78686e-07
5.05912e-07
2.85963e-07
2.99733e-07
2.99794e-07
5.05965e-07
5.13964e-07
5.42123e-07
3.04652e-07
3.04693e-07
3.19835e-07
3.19875e-07
5.13973e-07
5.42135e-07
3.0458e-07
3.04723e-07
3.19755e-07
3.19908e-07
3.04661e-07
3.19722e-07
3.19846e-07
5.14028e-07
5.42196e-07
3.04631e-07
3.1975e-07
3.19812e-07
5.42254e-07
5.50552e-07
5.79293e-07
3.2511e-07
3.25151e-07
3.41555e-07
3.41594e-07
5.5056e-07
5.79304e-07
3.25028e-07
3.25185e-07
3.41465e-07
3.41632e-07
3.25123e-07
3.41433e-07
3.4157e-07
5.50619e-07
5.79372e-07
3.25085e-07
3.41465e-07
3.41527e-07
5.79432e-07
5.87951e-07
6.16922e-07
3.47234e-07
3.47274e-07
3.6484e-07
3.64878e-07
5.87954e-07
6.16937e-07
3.47142e-07
3.47313e-07
3.64738e-07
3.64919e-07
3.47252e-07
3.64709e-07
3.64858e-07
5.88024e-07
6.17003e-07
3.47204e-07
3.64745e-07
3.64805e-07
6.17066e-07
6.25728e-07
6.5463e-07
3.70886e-07
3.70927e-07
3.89548e-07
3.89582e-07
6.25736e-07
6.5464e-07
3.70785e-07
3.7097e-07
3.89433e-07
3.89628e-07
3.70909e-07
3.89405e-07
3.89569e-07
6.25803e-07
6.54717e-07
3.7085e-07
3.89448e-07
3.89505e-07
6.54782e-07
6.63513e-07
6.92066e-07
3.95922e-07
3.95963e-07
4.15518e-07
4.15548e-07
6.63518e-07
6.92077e-07
3.95811e-07
3.96008e-07
4.15391e-07
4.15601e-07
3.9595e-07
4.15365e-07
4.15545e-07
6.63589e-07
6.92161e-07
3.9588e-07
4.15415e-07
4.15468e-07
6.92228e-07
7.0096e-07
7.28969e-07
4.22182e-07
4.2222e-07
4.42591e-07
4.42619e-07
7.00962e-07
7.28982e-07
4.22061e-07
4.22274e-07
4.42452e-07
4.42673e-07
4.22218e-07
4.42432e-07
4.42624e-07
7.01049e-07
7.29059e-07
4.22135e-07
4.42484e-07
4.42534e-07
7.29135e-07
7.37811e-07
7.65101e-07
4.49502e-07
4.49538e-07
4.70597e-07
4.70622e-07
7.37817e-07
7.65112e-07
4.49369e-07
4.49594e-07
4.70447e-07
4.70679e-07
4.49546e-07
4.70431e-07
4.70633e-07
7.37895e-07
7.65195e-07
4.49449e-07
4.70489e-07
4.70531e-07
7.65261e-07
7.73854e-07
8.003e-07
4.77712e-07
4.77744e-07
4.99359e-07
4.99379e-07
7.73855e-07
8.00311e-07
4.77569e-07
4.77805e-07
4.99198e-07
4.99441e-07
4.77758e-07
4.99187e-07
4.99406e-07
7.73935e-07
8.00402e-07
4.77649e-07
4.99252e-07
4.9929e-07
8.00479e-07
8.0892e-07
8.34438e-07
5.06635e-07
5.06664e-07
5.287e-07
5.28714e-07
8.08927e-07
8.34447e-07
5.06481e-07
5.06732e-07
5.2853e-07
5.28783e-07
5.06692e-07
5.28521e-07
5.28748e-07
8.09015e-07
8.34535e-07
5.0657e-07
5.28591e-07
5.2862e-07
8.34608e-07
8.42871e-07
8.67448e-07
5.36098e-07
5.36119e-07
5.5844e-07
5.58451e-07
8.42868e-07
8.6746e-07
5.35935e-07
5.36187e-07
5.58262e-07
5.58531e-07
5.36159e-07
5.5826e-07
5.58498e-07
8.42959e-07
8.67546e-07
5.36023e-07
5.58338e-07
5.58358e-07
8.67623e-07
8.75676e-07
8.99296e-07
5.65923e-07
5.65941e-07
5.88414e-07
5.8842e-07
8.75684e-07
8.99304e-07
5.65748e-07
5.66001e-07
5.88229e-07
5.88508e-07
5.6599e-07
5.88231e-07
5.88478e-07
8.75767e-07
8.99396e-07
5.65843e-07
5.88315e-07
5.88325e-07
8.99467e-07
9.07299e-07
9.29953e-07
5.95924e-07
5.95936e-07
6.18455e-07
6.18451e-07
9.073e-07
9.2995e-07
5.95742e-07
5.96002e-07
6.18263e-07
6.18545e-07
5.95999e-07
6.18262e-07
6.18519e-07
9.07391e-07
9.30047e-07
5.95839e-07
6.18362e-07
6.1836e-07
9.3012e-07
9.37728e-07
9.59381e-07
6.25953e-07
6.25953e-07
6.48374e-07
6.48375e-07
9.37716e-07
9.594e-07
6.25764e-07
6.26027e-07
6.48175e-07
6.4846e-07
6.26027e-07
6.48195e-07
6.48456e-07
9.37816e-07
9.59486e-07
6.2586e-07
6.4829e-07
6.48281e-07
9.59558e-07
9.66915e-07
9.87655e-07
6.55824e-07
6.55826e-07
6.78061e-07
6.78039e-07
9.66931e-07
9.87636e-07
6.55628e-07
6.55902e-07
6.77857e-07
6.78141e-07
6.55909e-07
6.7786e-07
6.78132e-07
9.67011e-07
9.87744e-07
6.55729e-07
6.77977e-07
6.77956e-07
9.87812e-07
9.94946e-07
1.01469e-06
6.8543e-07
6.85409e-07
7.07325e-07
7.07312e-07
9.94922e-07
1.0147e-06
6.85226e-07
6.85496e-07
7.07118e-07
7.07409e-07
6.85508e-07
7.07141e-07
7.07412e-07
9.95037e-07
1.01479e-06
6.85325e-07
7.07258e-07
7.07226e-07
1.01486e-06
1.02173e-06
1.04061e-06
7.14565e-07
7.14554e-07
7.36095e-07
7.36076e-07
1.02175e-06
1.0406e-06
7.14357e-07
7.14638e-07
7.35887e-07
7.36164e-07
7.14654e-07
7.35909e-07
7.36184e-07
1.02184e-06
1.04071e-06
7.14461e-07
7.36023e-07
7.35991e-07
1.04077e-06
1.04742e-06
1.06537e-06
7.43192e-07
7.43171e-07
7.64193e-07
7.64169e-07
1.04741e-06
1.06536e-06
7.42985e-07
7.43264e-07
7.63985e-07
7.64285e-07
7.43283e-07
7.6401e-07
7.64286e-07
1.04751e-06
1.06547e-06
7.43086e-07
7.64152e-07
7.64091e-07
1.06553e-06
1.07195e-06
1.08904e-06
7.71132e-07
7.71108e-07
7.91601e-07
7.91572e-07
1.07195e-06
1.08904e-06
7.70923e-07
7.71194e-07
7.91391e-07
7.91655e-07
7.71227e-07
7.91422e-07
7.91699e-07
1.07205e-06
1.08914e-06
7.71027e-07
7.91535e-07
7.915e-07
1.0892e-06
1.09536e-06
1.11171e-06
7.98284e-07
7.98253e-07
8.18179e-07
8.18141e-07
1.09535e-06
1.1117e-06
7.98075e-07
7.98369e-07
8.17969e-07
8.18254e-07
7.98382e-07
8.18006e-07
8.18277e-07
1.09546e-06
1.11181e-06
7.98179e-07
8.18141e-07
8.18075e-07
1.11187e-06
1.11789e-06
1.13311e-06
8.24728e-07
8.2469e-07
8.43779e-07
8.43734e-07
1.11788e-06
1.1331e-06
8.24517e-07
8.24791e-07
8.43567e-07
8.43834e-07
8.24827e-07
8.43598e-07
8.43872e-07
1.11798e-06
1.1332e-06
8.24621e-07
8.4373e-07
8.43671e-07
1.13326e-06
1.13893e-06
1.15401e-06
8.49988e-07
8.49941e-07
8.68609e-07
8.68548e-07
1.13892e-06
1.15399e-06
8.49776e-07
8.50051e-07
8.68398e-07
8.6867e-07
8.50084e-07
8.68444e-07
8.68709e-07
1.13902e-06
1.15414e-06
8.49878e-07
8.68581e-07
8.68506e-07
1.15417e-06
8.74779e-07
1.15996e-06
1.34399e-07
1.34404e-07
1.34407e-07
1.34409e-07
1.84895e-05
2.24283e-07
2.74421e-06
3.68275e-06
8.90835e-06
3.64845e-06
8.91346e-06
1.84668e-05
1.84586e-05
3.68286e-06
8.9096e-06
3.64851e-06
8.91471e-06
1.33738e-07
1.33742e-07
1.33744e-07
1.32057e-07
1.32061e-07
1.32065e-07
1.32067e-07
1.15856e-06
2.79622e-06
1.58589e-07
2.33362e-07
1.13066e-06
2.81994e-06
1.58819e-07
1.84676e-05
1.84593e-05
1.15862e-06
1.58611e-07
2.79628e-06
2.33373e-07
1.13073e-06
1.5882e-07
2.82004e-06
5.13126e-06
5.13293e-06
3.65327e-07
5.14375e-06
5.14554e-06
3.75896e-06
8.91966e-06
3.73196e-06
8.92416e-06
1.8438e-05
1.84305e-05
3.75906e-06
8.92093e-06
3.73202e-06
8.92543e-06
1.31595e-07
1.31599e-07
1.31601e-07
1.30515e-07
1.3052e-07
1.30525e-07
1.30527e-07
1.2424e-06
2.86628e-06
1.59956e-07
2.44556e-07
1.2152e-06
2.88722e-06
1.6052e-07
1.84388e-05
1.84312e-05
1.24249e-06
1.59981e-07
2.86633e-06
2.44567e-07
1.21525e-06
1.60521e-07
2.88732e-06
5.16601e-06
5.16771e-06
3.92313e-07
5.17605e-06
5.17781e-06
3.81831e-06
8.92963e-06
3.79758e-06
8.93358e-06
1.84115e-05
1.84047e-05
3.81841e-06
8.93091e-06
3.79763e-06
8.93486e-06
1.30248e-07
1.30253e-07
1.30255e-07
1.29764e-07
1.29768e-07
1.29774e-07
1.29776e-07
1.32307e-06
2.92826e-06
1.62658e-07
2.57826e-07
1.29711e-06
2.94664e-06
1.63561e-07
1.84123e-05
1.84053e-05
1.32317e-06
1.62686e-07
2.92831e-06
2.5784e-07
1.29717e-06
1.63564e-07
2.94674e-06
5.19464e-06
5.19635e-06
4.22046e-07
5.2029e-06
5.20466e-06
3.86379e-06
8.93835e-06
3.84817e-06
8.94177e-06
1.83873e-05
1.83811e-05
3.86389e-06
8.93963e-06
3.8482e-06
8.94307e-06
1.29685e-07
1.29692e-07
1.29694e-07
1.29778e-07
1.29783e-07
1.2979e-07
1.29792e-07
1.39914e-06
2.98288e-06
1.66713e-07
2.73123e-07
1.37484e-06
2.99898e-06
1.67963e-07
1.83882e-05
1.83818e-05
1.39924e-06
1.66745e-07
2.98293e-06
2.7314e-07
1.3749e-06
1.67967e-07
2.99908e-06
5.21854e-06
5.22024e-06
4.54173e-07
5.22538e-06
5.22712e-06
3.89839e-06
8.94596e-06
3.88671e-06
8.94904e-06
1.83655e-05
1.83599e-05
3.89848e-06
8.94725e-06
3.88674e-06
8.95034e-06
1.2991e-07
1.29918e-07
1.29921e-07
1.30574e-07
1.30579e-07
1.30588e-07
1.3059e-07
1.46966e-06
3.03097e-06
1.72141e-07
2.90377e-07
1.44727e-06
3.04509e-06
1.73737e-07
1.83662e-05
1.83606e-05
1.46977e-06
1.72177e-07
3.03101e-06
2.90398e-07
1.44733e-06
1.73742e-07
3.04522e-06
5.23864e-06
5.24034e-06
4.88295e-07
5.2444e-06
5.24614e-06
3.92467e-06
8.95264e-06
3.91596e-06
8.95554e-06
1.83457e-05
1.8341e-05
3.92475e-06
8.95394e-06
3.91599e-06
8.95683e-06
1.30899e-07
1.30908e-07
1.30911e-07
1.32138e-07
1.32143e-07
1.32153e-07
1.32156e-07
1.53413e-06
3.07337e-06
1.78949e-07
3.09497e-07
1.51375e-06
3.08583e-06
1.80892e-07
1.83464e-05
1.83416e-05
1.53423e-06
1.78989e-07
3.07339e-06
3.09522e-07
1.51382e-06
1.80899e-07
3.08596e-06
5.25569e-06
5.25739e-06
5.23974e-07
5.26066e-06
5.26239e-06
3.94477e-06
8.95879e-06
3.93829e-06
8.96145e-06
1.83282e-05
1.83243e-05
3.94485e-06
8.9601e-06
3.93832e-06
8.96276e-06
1.32655e-07
1.32665e-07
1.32669e-07
1.34469e-07
1.34474e-07
1.34486e-07
1.34489e-07
1.59243e-06
3.11089e-06
1.87138e-07
3.30374e-07
1.57408e-06
3.12196e-06
1.89428e-07
1.83289e-05
1.83249e-05
1.59254e-06
1.87183e-07
3.11091e-06
3.30403e-07
1.57415e-06
1.89437e-07
3.12207e-06
5.27042e-06
5.27212e-06
5.60758e-07
5.27472e-06
5.27645e-06
3.9604e-06
8.96463e-06
3.95555e-06
8.96714e-06
1.83131e-05
1.83099e-05
3.96046e-06
8.96592e-06
3.95557e-06
8.96845e-06
1.35177e-07
1.35189e-07
1.35193e-07
1.37568e-07
1.37573e-07
1.37587e-07
1.3759e-07
1.64481e-06
3.1443e-06
1.96701e-07
3.52883e-07
1.62839e-06
3.15416e-06
1.99334e-07
1.83138e-05
1.83106e-05
1.64492e-06
1.96751e-07
3.14434e-06
3.52918e-07
1.62845e-06
1.99345e-07
3.1543e-06
5.28337e-06
5.28505e-06
5.98218e-07
5.28716e-06
5.28888e-06
3.97281e-06
8.97033e-06
3.96906e-06
8.9728e-06
1.83003e-05
1.82978e-05
3.97286e-06
8.97164e-06
3.9691e-06
8.97409e-06
1.38467e-07
1.38482e-07
1.38486e-07
1.41437e-07
1.41442e-07
1.41458e-07
1.41461e-07
1.69171e-06
3.17429e-06
2.0762e-07
3.76887e-07
1.67704e-06
3.18311e-06
2.10589e-07
1.83009e-05
1.82985e-05
1.69192e-06
2.07674e-07
3.17429e-06
3.76928e-07
1.67703e-06
2.10603e-07
3.18325e-06
5.29492e-06
5.2966e-06
6.35939e-07
5.29838e-06
5.30009e-06
3.98294e-06
8.97604e-06
3.97987e-06
8.97869e-06
1.82898e-05
1.82883e-05
3.98299e-06
8.97734e-06
3.97992e-06
8.98e-06
1.42529e-07
1.42545e-07
1.4255e-07
1.4608e-07
1.46085e-07
1.46103e-07
1.46107e-07
1.73381e-06
3.2014e-06
2.19866e-07
4.02237e-07
1.72047e-06
3.2094e-06
2.23163e-07
1.82905e-05
1.82888e-05
1.734e-06
2.19926e-07
3.2014e-06
4.02281e-07
1.72043e-06
2.23181e-07
3.20947e-06
5.30548e-06
5.30716e-06
6.73552e-07
5.30866e-06
5.31037e-06
3.99133e-06
8.98199e-06
3.98877e-06
8.98476e-06
1.82816e-05
1.8281e-05
3.99138e-06
8.98329e-06
3.98883e-06
8.98607e-06
1.47366e-07
1.47385e-07
1.4739e-07
1.51502e-07
1.51508e-07
1.51528e-07
1.51533e-07
1.77156e-06
3.22606e-06
2.33401e-07
4.28772e-07
1.75936e-06
3.23339e-06
2.37017e-07
1.82824e-05
1.82816e-05
1.77174e-06
2.33467e-07
3.22613e-06
4.28824e-07
1.75931e-06
2.37038e-07
3.23349e-06
5.31541e-06
5.31708e-06
7.10767e-07
5.31834e-06
5.32006e-06
3.99856e-06
8.98833e-06
3.99636e-06
8.99133e-06
1.82759e-05
1.8276e-05
3.99861e-06
8.98963e-06
3.9964e-06
8.99263e-06
1.52984e-07
1.53006e-07
1.53011e-07
1.57711e-07
1.57717e-07
1.57739e-07
1.57745e-07
1.80561e-06
3.24878e-06
2.48182e-07
4.56325e-07
1.79437e-06
3.25552e-06
2.52104e-07
1.82765e-05
1.82767e-05
1.80579e-06
2.48253e-07
3.24878e-06
4.56382e-07
1.79431e-06
2.52129e-07
3.25562e-06
5.32484e-06
5.32652e-06
7.47307e-07
5.32767e-06
5.32938e-06
4.00501e-06
8.99524e-06
4.00304e-06
8.99838e-06
1.82725e-05
1.82735e-05
4.00506e-06
8.99656e-06
4.00308e-06
8.99969e-06
1.59388e-07
1.59414e-07
1.59418e-07
1.64709e-07
1.64716e-07
1.6474e-07
1.64748e-07
1.8365e-06
3.26989e-06
2.64154e-07
4.84724e-07
1.82608e-06
3.27612e-06
2.68369e-07
1.82731e-05
1.82741e-05
1.83668e-06
2.64232e-07
3.26982e-06
4.84785e-07
1.82604e-06
2.68396e-07
3.27616e-06
5.33392e-06
5.33561e-06
7.82995e-07
5.33678e-06
5.33849e-06
4.01099e-06
9.00261e-06
4.0091e-06
9.0062e-06
1.82714e-05
1.82734e-05
4.01102e-06
9.00392e-06
4.00915e-06
9.00747e-06
1.66586e-07
1.66615e-07
1.66619e-07
1.72497e-07
1.72504e-07
1.72536e-07
1.72539e-07
1.86481e-06
3.28958e-06
2.81259e-07
5.13797e-07
1.85505e-06
3.29547e-06
2.85744e-07
1.82721e-05
1.82739e-05
1.86498e-06
2.81342e-07
3.28954e-06
5.13862e-07
1.85501e-06
2.85776e-07
3.2955e-06
5.343e-06
5.34468e-06
8.17685e-07
5.34579e-06
5.34752e-06
4.01653e-06
9.01077e-06
4.01481e-06
9.01432e-06
1.82725e-05
1.82752e-05
4.01662e-06
9.01215e-06
4.01487e-06
9.01568e-06
1.74581e-07
1.74608e-07
1.74618e-07
1.81078e-07
1.81087e-07
1.81131e-07
1.81126e-07
1.89094e-06
3.30806e-06
2.9943e-07
5.43347e-07
1.88174e-06
3.3136e-06
3.04158e-07
1.82732e-05
1.82758e-05
1.89109e-06
2.99519e-07
3.30806e-06
5.43422e-07
1.8817e-06
3.04194e-07
3.31368e-06
5.35197e-06
5.35362e-06
8.51257e-07
5.35476e-06
5.35648e-06
4.02224e-06
9.01978e-06
4.02037e-06
9.02392e-06
1.82761e-05
1.82796e-05
4.0223e-06
9.02102e-06
4.02037e-06
9.02526e-06
1.83369e-07
1.83392e-07
1.8341e-07
1.90454e-07
1.90465e-07
1.90514e-07
1.90508e-07
1.91531e-06
3.32566e-06
3.18592e-07
5.73228e-07
1.90657e-06
3.33089e-06
3.23547e-07
1.82766e-05
1.82801e-05
1.91548e-06
3.18686e-07
3.32567e-06
5.73311e-07
1.90654e-06
3.23589e-07
3.331e-06
5.36102e-06
5.36267e-06
8.83696e-07
5.36384e-06
5.36554e-06
4.02776e-06
9.02887e-06
4.02572e-06
9.03368e-06
1.82814e-05
1.82857e-05
4.02783e-06
9.03022e-06
4.02577e-06
9.03495e-06
1.92944e-07
1.92969e-07
1.92989e-07
2.00617e-07
2.00627e-07
2.0068e-07
2.00675e-07
1.93823e-06
3.34234e-06
3.38658e-07
6.0325e-07
1.92981e-06
3.34739e-06
3.43828e-07
1.82821e-05
1.82863e-05
1.93835e-06
3.38756e-07
3.34233e-06
6.03339e-07
1.92977e-06
3.43874e-07
3.34746e-06
5.36996e-06
5.37161e-06
9.1494e-07
5.37294e-06
5.37458e-06
4.03343e-06
9.03996e-06
4.03156e-06
9.04384e-06
1.82893e-05
1.8294e-05
4.0335e-06
9.04137e-06
4.0316e-06
9.04517e-06
2.03296e-07
2.03329e-07
2.03347e-07
2.11544e-07
2.11558e-07
2.11611e-07
2.1161e-07
1.95984e-06
3.35829e-06
3.59542e-07
6.3325e-07
1.95177e-06
3.3631e-06
3.64914e-07
1.82899e-05
1.82946e-05
1.95998e-06
3.59648e-07
3.35843e-06
6.33351e-07
1.95181e-06
3.64966e-07
3.3632e-06
5.37907e-06
5.38088e-06
9.44995e-07
5.38202e-06
5.38369e-06
4.03973e-06
9.05094e-06
4.03729e-06
9.05618e-06
1.82987e-05
1.83046e-05
4.03984e-06
9.05216e-06
4.03729e-06
9.05765e-06
2.1442e-07
2.14455e-07
2.14473e-07
2.23225e-07
2.23237e-07
2.23299e-07
2.23294e-07
1.98046e-06
3.37374e-06
3.8117e-07
6.6307e-07
1.97272e-06
3.37828e-06
3.86706e-07
1.82993e-05
1.83051e-05
1.98066e-06
3.81275e-07
3.37373e-06
6.63172e-07
1.97265e-06
3.86763e-07
3.37846e-06
5.38839e-06
5.39002e-06
9.73827e-07
5.3912e-06
5.39302e-06
4.04585e-06
9.06292e-06
4.04346e-06
9.06816e-06
1.83099e-05
1.83162e-05
4.04588e-06
9.06421e-06
4.04351e-06
9.06934e-06
2.26283e-07
2.26323e-07
2.26343e-07
2.35631e-07
2.35646e-07
2.35705e-07
2.35709e-07
2.00016e-06
3.3885e-06
4.03431e-07
6.92559e-07
1.99263e-06
3.39294e-06
4.09111e-07
1.83109e-05
1.83171e-05
2.00027e-06
4.03547e-07
3.38857e-06
6.92681e-07
1.99263e-06
4.09176e-07
3.39307e-06
5.39781e-06
5.39944e-06
1.00149e-06
5.40078e-06
5.40246e-06
4.05256e-06
9.07553e-06
4.04988e-06
9.08127e-06
1.83231e-05
1.83302e-05
4.05265e-06
9.07684e-06
4.04992e-06
9.08258e-06
2.38851e-07
2.38907e-07
2.38915e-07
2.48725e-07
2.4874e-07
2.48799e-07
2.48807e-07
2.019e-06
3.40275e-06
4.26216e-07
7.21599e-07
2.01173e-06
3.40703e-06
4.32032e-07
1.83239e-05
1.83309e-05
2.01914e-06
4.26331e-07
3.40276e-06
7.21708e-07
2.01171e-06
4.32096e-07
3.40713e-06
5.40699e-06
5.40867e-06
1.02795e-06
5.41008e-06
5.41178e-06
4.05953e-06
9.08918e-06
4.05675e-06
9.09511e-06
1.83381e-05
1.83456e-05
4.05959e-06
9.09044e-06
4.05678e-06
9.09638e-06
2.52125e-07
2.52181e-07
2.52195e-07
2.62456e-07
2.62471e-07
2.62551e-07
2.62543e-07
2.03714e-06
3.41661e-06
4.49458e-07
7.50036e-07
2.03013e-06
3.42069e-06
4.55341e-07
1.83391e-05
1.83466e-05
2.03728e-06
4.4958e-07
3.41667e-06
7.50169e-07
2.03011e-06
4.55415e-07
3.42082e-06
5.41671e-06
5.41837e-06
1.05328e-06
5.41961e-06
5.42132e-06
4.06687e-06
9.10302e-06
4.06381e-06
9.10977e-06
1.83542e-05
1.83634e-05
4.06694e-06
9.10429e-06
4.06385e-06
9.11105e-06
2.66008e-07
2.66067e-07
2.66083e-07
2.76803e-07
2.76817e-07
2.76881e-07
2.76895e-07
2.0546e-06
3.42987e-06
4.72993e-07
7.77845e-07
2.04775e-06
3.43403e-06
4.78971e-07
1.83553e-05
1.83645e-05
2.05471e-06
4.73117e-07
3.42992e-06
7.77971e-07
2.04775e-06
4.79046e-07
3.43414e-06
5.42609e-06
5.42778e-06
1.07754e-06
5.42955e-06
5.43126e-06
4.07392e-06
9.11807e-06
4.07118e-06
9.12302e-06
1.83718e-05
1.83789e-05
4.07399e-06
9.11937e-06
4.07124e-06
9.12432e-06
2.80483e-07
2.80558e-07
2.80564e-07
2.91684e-07
2.917e-07
2.91779e-07
2.91782e-07
2.07116e-06
3.44265e-06
4.96751e-07
8.04758e-07
2.06472e-06
3.44619e-06
5.02732e-07
1.83731e-05
1.83803e-05
2.07124e-06
4.96882e-07
3.4427e-06
8.04883e-07
2.06474e-06
5.0281e-07
3.44632e-06
5.43531e-06
5.43699e-06
1.10058e-06
5.43779e-06
5.43953e-06
4.08247e-06
9.13393e-06
4.07904e-06
9.14215e-06
1.83942e-05
1.84037e-05
4.08254e-06
9.1352e-06
4.07908e-06
9.14343e-06
2.95508e-07
2.95585e-07
2.95594e-07
3.07018e-07
3.07032e-07
3.07114e-07
3.07119e-07
2.08753e-06
3.45579e-06
5.20634e-07
8.31001e-07
2.08112e-06
3.4595e-06
5.2665e-07
1.83954e-05
1.8405e-05
2.08765e-06
5.20765e-07
3.45571e-06
8.31134e-07
2.08112e-06
5.26737e-07
3.45968e-06
5.44673e-06
5.44836e-06
1.12284e-06
5.4496e-06
5.45132e-06
4.08879e-06
9.14773e-06
4.08609e-06
9.15329e-06
1.84078e-05
1.84195e-05
4.08888e-06
9.14904e-06
4.08618e-06
9.15462e-06
3.10922e-07
3.11003e-07
3.1101e-07
3.22803e-07
3.22815e-07
3.22905e-07
3.2291e-07
2.10232e-06
3.46631e-06
5.44433e-07
8.56033e-07
2.09644e-06
3.47012e-06
5.50393e-07
1.84093e-05
1.84203e-05
2.10228e-06
5.44564e-07
3.46641e-06
8.5616e-07
2.0965e-06
5.50472e-07
3.46995e-06
5.45249e-06
5.45423e-06
1.1436e-06
5.45663e-06
5.45826e-06
3.26922e-07
1.84399e-05
3.47949e-06
1.84706e-05
1.84734e-05
5.12494e-06
5.12692e-06
8.90749e-06
3.63745e-06
8.90776e-06
3.63741e-06
2.78299e-06
1.58481e-07
1.11595e-06
2.78354e-06
1.58489e-07
1.11593e-06
1.84731e-05
5.12649e-06
5.12475e-06
1.84712e-05
8.9023e-06
2.2437e-07
2.74483e-06
3.59938e-06
8.90874e-06
3.63756e-06
1.08804e-06
2.78355e-06
1.58488e-07
1.58438e-07
1.116e-06
3.59935e-06
8.90831e-06
8.90317e-06
3.63753e-06
1.08804e-06
2.26446e-07
1.58499e-07
2.78369e-06
1.5845e-07
2.75857e-06
1.116e-06
2.78296e-06
1.58476e-07
1.116e-06
8.90809e-06
3.63714e-06
1.58483e-07
2.78323e-06
1.116e-06
8.90796e-06
3.63744e-06
3.41345e-07
5.10614e-06
5.10456e-06
1.8487e-05
1.84739e-05
1.84826e-05
3.46464e-07
5.12672e-06
5.12516e-06
5.11268e-06
5.11118e-06
1.84714e-05
1.84801e-05
8.9022e-06
1.0881e-06
2.26356e-07
1.58486e-07
2.78309e-06
1.58437e-07
2.75799e-06
1.11607e-06
1.08811e-06
1.58494e-07
2.78376e-06
1.58445e-07
1.11605e-06
3.59968e-06
8.90823e-06
8.90307e-06
3.63734e-06
3.59967e-06
8.90861e-06
3.63732e-06
5.12505e-06
5.12685e-06
1.84725e-05
1.84744e-05
1.84643e-05
1.8456e-05
1.84671e-05
1.84588e-05
5.13117e-06
5.13317e-06
3.65246e-07
5.14366e-06
5.14561e-06
1.84414e-05
1.84496e-05
1.84443e-05
1.84525e-05
3.71035e-07
5.1605e-06
5.16243e-06
5.14937e-06
5.15134e-06
3.6827e-06
8.90861e-06
3.6484e-06
8.9137e-06
1.1585e-06
2.79617e-06
1.58603e-07
2.33422e-07
1.1306e-06
2.81996e-06
1.58819e-07
1.15848e-06
2.79668e-06
1.58611e-07
2.33463e-07
1.13059e-06
2.82054e-06
1.58825e-07
3.69264e-06
8.91892e-06
8.91423e-06
3.72314e-06
3.69259e-06
8.91918e-06
8.91448e-06
3.72309e-06
1.17309e-06
2.36026e-07
2.85454e-06
1.59504e-07
2.83228e-06
1.59123e-07
1.20072e-06
1.17307e-06
2.36066e-07
2.85508e-06
1.5951e-07
2.83287e-06
1.5913e-07
1.2007e-06
5.13279e-06
5.13158e-06
3.65264e-07
5.14527e-06
5.14371e-06
1.84649e-05
1.84567e-05
1.8444e-05
1.84523e-05
3.71047e-07
5.16203e-06
5.16047e-06
5.15104e-06
5.14973e-06
1.84421e-05
1.84503e-05
1.15856e-06
2.79674e-06
1.5861e-07
2.33383e-07
1.13066e-06
2.82052e-06
1.58825e-07
3.68282e-06
8.90917e-06
3.64848e-06
8.91429e-06
1.15855e-06
1.58622e-07
2.79685e-06
2.3347e-07
1.13066e-06
1.58837e-07
2.82064e-06
3.69268e-06
8.92019e-06
8.91549e-06
3.72325e-06
1.17315e-06
2.35985e-07
2.85509e-06
1.5951e-07
2.83284e-06
1.59129e-07
1.20077e-06
3.69265e-06
8.91977e-06
8.91507e-06
3.72321e-06
1.17315e-06
2.36075e-07
1.59523e-07
2.85523e-06
1.59142e-07
2.83296e-06
1.20076e-06
3.68242e-06
8.90898e-06
3.64899e-06
8.91412e-06
1.15855e-06
1.58604e-07
2.79636e-06
2.33426e-07
1.13065e-06
1.5882e-07
2.82007e-06
3.68272e-06
8.90882e-06
3.64855e-06
8.9139e-06
1.17315e-06
2.35961e-07
2.85449e-06
1.59503e-07
2.83242e-06
1.59107e-07
1.20077e-06
3.69315e-06
8.91949e-06
8.91492e-06
3.72281e-06
1.17314e-06
2.36029e-07
1.59504e-07
2.85477e-06
1.59123e-07
2.83249e-06
1.20077e-06
3.69271e-06
8.91941e-06
8.91468e-06
3.7231e-06
5.13293e-06
5.13145e-06
3.65294e-07
5.14539e-06
5.14384e-06
1.84651e-05
1.84568e-05
1.84448e-05
1.8453e-05
3.7108e-07
5.16222e-06
5.16068e-06
5.15112e-06
5.14963e-06
1.84423e-05
1.84504e-05
1.1586e-06
1.58619e-07
2.79683e-06
2.33416e-07
1.13074e-06
1.58829e-07
2.82059e-06
3.68252e-06
8.90909e-06
3.64894e-06
8.91418e-06
3.6825e-06
8.90945e-06
3.64893e-06
8.91448e-06
1.1732e-06
2.35973e-07
1.59504e-07
2.85464e-06
1.5913e-07
2.83238e-06
1.20084e-06
1.17321e-06
2.36019e-07
1.59514e-07
2.85529e-06
1.59139e-07
2.83295e-06
1.20082e-06
3.69319e-06
8.91966e-06
8.91496e-06
3.72291e-06
3.69317e-06
8.92006e-06
8.91527e-06
3.7229e-06
1.84661e-05
1.84578e-05
1.84679e-05
1.84596e-05
3.71108e-07
5.16062e-06
5.16241e-06
5.14956e-06
5.15124e-06
1.84434e-05
1.84516e-05
1.84453e-05
1.84534e-05
1.84355e-05
1.8428e-05
1.84383e-05
1.84308e-05
5.1659e-06
5.16784e-06
3.92224e-07
5.17604e-06
5.17794e-06
1.84147e-05
1.84221e-05
1.84175e-05
1.84249e-05
3.98641e-07
5.19002e-06
5.1919e-06
5.18095e-06
5.18286e-06
3.7589e-06
8.91992e-06
3.73191e-06
8.92443e-06
1.24234e-06
2.86622e-06
1.59974e-07
2.44625e-07
1.21513e-06
2.88725e-06
1.60521e-07
1.24232e-06
2.86674e-06
1.5998e-07
2.44664e-07
1.21511e-06
2.88781e-06
1.60527e-07
3.76684e-06
8.929e-06
8.92482e-06
3.79058e-06
3.76679e-06
8.92926e-06
8.9251e-06
3.79052e-06
1.25652e-06
2.47751e-07
2.91786e-06
1.61873e-07
2.89821e-06
1.61158e-07
1.28318e-06
1.2565e-06
2.47791e-07
2.91839e-06
1.61879e-07
2.89877e-06
1.61164e-07
1.28315e-06
5.16747e-06
5.16611e-06
3.92238e-07
5.17762e-06
5.17608e-06
1.8436e-05
1.84286e-05
1.84172e-05
1.84247e-05
3.98651e-07
5.19152e-06
5.18997e-06
5.18256e-06
5.18117e-06
1.84152e-05
1.84227e-05
1.24239e-06
2.86678e-06
1.5998e-07
2.4458e-07
1.21519e-06
2.88779e-06
1.60527e-07
3.75902e-06
8.92051e-06
3.73198e-06
8.925e-06
1.24238e-06
1.59993e-07
2.86689e-06
2.44677e-07
1.21519e-06
1.6054e-07
2.8879e-06
3.76689e-06
8.93029e-06
8.92609e-06
3.79069e-06
1.25658e-06
2.47704e-07
2.91841e-06
1.6188e-07
2.89876e-06
1.61164e-07
1.28323e-06
3.76685e-06
8.92988e-06
8.92567e-06
3.79064e-06
1.25657e-06
2.47804e-07
1.61894e-07
2.91855e-06
1.61178e-07
2.89886e-06
1.28322e-06
3.75863e-06
8.92026e-06
3.73247e-06
8.92478e-06
1.2424e-06
1.59973e-07
2.86643e-06
2.44628e-07
1.21518e-06
1.60521e-07
2.88736e-06
3.75891e-06
8.92014e-06
3.73204e-06
8.92463e-06
1.25659e-06
2.47677e-07
2.91782e-06
1.61872e-07
2.89834e-06
1.61139e-07
1.28324e-06
3.76734e-06
8.92957e-06
8.92548e-06
3.79025e-06
1.25657e-06
2.47754e-07
1.61873e-07
2.91807e-06
1.61157e-07
2.89839e-06
1.28324e-06
3.76691e-06
8.92951e-06
8.9253e-06
3.79053e-06
5.1676e-06
5.16612e-06
3.92274e-07
5.17772e-06
5.1762e-06
1.84363e-05
1.84287e-05
1.8418e-05
1.84254e-05
3.98689e-07
5.19173e-06
5.1902e-06
5.18263e-06
5.18116e-06
1.84155e-05
1.84229e-05
1.24246e-06
1.5999e-07
2.8669e-06
2.44617e-07
1.21526e-06
1.60531e-07
2.88788e-06
3.75872e-06
8.9204e-06
3.73252e-06
8.92489e-06
3.75871e-06
8.92079e-06
3.7325e-06
8.92524e-06
1.25664e-06
2.47691e-07
1.61874e-07
2.91798e-06
1.61165e-07
2.89831e-06
1.28333e-06
1.25664e-06
2.47741e-07
1.61884e-07
2.91858e-06
1.61175e-07
2.89885e-06
1.28329e-06
3.76736e-06
8.92976e-06
8.92555e-06
3.79035e-06
3.76734e-06
8.93014e-06
8.9259e-06
3.79034e-06
1.84373e-05
1.84297e-05
1.84393e-05
1.84316e-05
3.9872e-07
5.19014e-06
5.1919e-06
5.18103e-06
5.18274e-06
1.84166e-05
1.84239e-05
1.84185e-05
1.84258e-05
1.8409e-05
1.84021e-05
1.84118e-05
1.84049e-05
5.19454e-06
5.19643e-06
4.21948e-07
5.20292e-06
5.20478e-06
1.83901e-05
1.83967e-05
1.83929e-05
1.83995e-05
4.28939e-07
5.21466e-06
5.21651e-06
5.20708e-06
5.20895e-06
3.81826e-06
8.92988e-06
3.79753e-06
8.93386e-06
1.32301e-06
2.92819e-06
1.62678e-07
2.57904e-07
1.29704e-06
2.94666e-06
1.63564e-07
1.32298e-06
2.92869e-06
1.62684e-07
2.57944e-07
1.29701e-06
2.9472e-06
1.63568e-07
3.82455e-06
8.93783e-06
8.93413e-06
3.84262e-06
3.8245e-06
8.93809e-06
8.93442e-06
3.84257e-06
1.3365e-06
2.61543e-07
2.9737e-06
1.65594e-07
2.95638e-06
1.64537e-07
1.3617e-06
1.33648e-06
2.61583e-07
2.9742e-06
1.65598e-07
2.95692e-06
1.64542e-07
1.36167e-06
5.19607e-06
5.19468e-06
4.21963e-07
5.20446e-06
5.20289e-06
1.84095e-05
1.84027e-05
1.83926e-05
1.83993e-05
4.28949e-07
5.21614e-06
5.21458e-06
5.20865e-06
5.20725e-06
1.83907e-05
1.83973e-05
1.32306e-06
2.92873e-06
1.62685e-07
2.57853e-07
1.2971e-06
2.9472e-06
1.6357e-07
3.81837e-06
8.93051e-06
3.7976e-06
8.93444e-06
1.32304e-06
1.627e-07
2.92884e-06
2.5796e-07
1.29709e-06
1.63585e-07
2.94729e-06
3.82459e-06
8.93911e-06
8.93542e-06
3.84271e-06
1.33656e-06
2.6149e-07
2.97423e-06
1.656e-07
2.95692e-06
1.64544e-07
1.36174e-06
3.82455e-06
8.93871e-06
8.935e-06
3.84267e-06
1.33654e-06
2.61601e-07
1.65616e-07
2.97435e-06
1.64559e-07
2.957e-06
1.36173e-06
3.81799e-06
8.93021e-06
3.79808e-06
8.93416e-06
1.32307e-06
1.62677e-07
2.9284e-06
2.57907e-07
1.29709e-06
1.63563e-07
2.94679e-06
3.81827e-06
8.93014e-06
3.79765e-06
8.93405e-06
1.33657e-06
2.6146e-07
2.97365e-06
1.65591e-07
2.95649e-06
1.64515e-07
1.36175e-06
3.82504e-06
8.93837e-06
8.93475e-06
3.84229e-06
1.33655e-06
2.61547e-07
1.65593e-07
2.97387e-06
1.64535e-07
2.95655e-06
1.36176e-06
3.82462e-06
8.93835e-06
8.93462e-06
3.84258e-06
5.19621e-06
5.19474e-06
4.22003e-07
5.20454e-06
5.20303e-06
1.84098e-05
1.84028e-05
1.83934e-05
1.83999e-05
4.28989e-07
5.21633e-06
5.21482e-06
5.2087e-06
5.20723e-06
1.83909e-05
1.83974e-05
1.32313e-06
1.62696e-07
2.92886e-06
2.57894e-07
1.29717e-06
1.63575e-07
2.9473e-06
3.81808e-06
8.93038e-06
3.79811e-06
8.93432e-06
3.81807e-06
8.93077e-06
3.7981e-06
8.93471e-06
1.33663e-06
2.61476e-07
1.65594e-07
2.97381e-06
1.64545e-07
2.95647e-06
1.36186e-06
1.33662e-06
2.61531e-07
1.65605e-07
2.97436e-06
1.64556e-07
2.957e-06
1.36181e-06
3.82506e-06
8.93857e-06
8.93488e-06
3.84237e-06
3.82504e-06
8.93896e-06
8.93526e-06
3.84236e-06
1.84109e-05
1.84038e-05
1.84128e-05
1.84058e-05
4.29025e-07
5.21473e-06
5.21647e-06
5.2071e-06
5.20881e-06
1.8392e-05
1.83984e-05
1.83939e-05
1.84004e-05
1.83849e-05
1.83786e-05
1.83877e-05
1.83814e-05
5.21846e-06
5.22031e-06
4.54064e-07
5.22538e-06
5.22721e-06
1.83678e-05
1.83735e-05
1.83706e-05
1.83763e-05
4.61562e-07
5.23533e-06
5.23715e-06
5.22891e-06
5.23075e-06
3.86374e-06
8.93861e-06
3.84812e-06
8.94206e-06
1.39907e-06
2.98281e-06
1.66737e-07
2.7321e-07
1.37477e-06
2.99899e-06
1.67966e-07
1.39905e-06
2.9833e-06
1.66741e-07
2.7325e-07
1.37474e-06
2.99952e-06
1.6797e-07
3.86873e-06
8.94551e-06
8.94223e-06
3.88228e-06
3.86868e-06
8.94579e-06
8.94252e-06
3.88223e-06
1.41168e-06