/*--------------------------------*- C++ -*----------------------------------*\
| =========                 |                                                 |
| \\      /  F ield         | OpenFOAM: The Open Source CFD Toolbox           |
|  \\    /   O peration     | Version:  2312                                  |
|   \\  /    A nd           | Website:  www.openfoam.com                      |
|    \\/     M anipulation  |                                                 |
\*---------------------------------------------------------------------------*/
FoamFile
{
    version     2.0;
    format      ascii;
    arch        "LSB;label=32;scalar=64";
    class       volScalarField;
    location    "250";
    object      k;
}
// * * * * * * * * * * * * * * * * * * * * * * * * * * * * * * * * * * * * * //

dimensions      [0 2 -2 0 0 0 0];

internalField   nonuniform List<scalar> 
43120
(
1.49359e-05
1.61519e-05
1.61518e-05
1.81339e-05
1.4613e-05
1.62903e-05
1.62905e-05
1.87283e-05
1.43367e-05
1.65187e-05
1.65192e-05
1.94279e-05
1.41065e-05
1.68344e-05
1.68349e-05
2.02207e-05
1.3922e-05
1.72342e-05
1.72348e-05
2.1094e-05
1.37829e-05
1.77146e-05
1.77152e-05
2.20354e-05
1.36891e-05
1.82714e-05
1.82724e-05
2.30308e-05
1.36407e-05
1.89007e-05
1.89018e-05
2.4065e-05
1.36375e-05
1.95973e-05
1.95979e-05
2.51261e-05
1.36798e-05
2.03549e-05
2.03567e-05
2.62033e-05
1.37681e-05
2.11681e-05
2.11702e-05
2.7283e-05
1.39025e-05
2.20317e-05
2.20333e-05
2.83618e-05
1.40835e-05
2.29385e-05
2.29408e-05
2.94297e-05
1.43127e-05
2.38822e-05
2.38848e-05
3.04858e-05
1.45885e-05
2.48581e-05
2.48596e-05
3.15219e-05
1.49078e-05
2.58555e-05
2.58573e-05
3.25384e-05
1.52736e-05
2.6871e-05
2.68732e-05
3.35334e-05
1.56864e-05
2.78982e-05
2.79021e-05
3.45046e-05
1.61449e-05
2.89338e-05
2.89356e-05
3.54521e-05
1.66456e-05
2.99682e-05
2.99703e-05
3.63728e-05
1.71881e-05
3.0999e-05
3.10035e-05
3.72715e-05
1.77728e-05
3.20278e-05
3.20293e-05
3.81429e-05
1.83882e-05
3.30298e-05
3.3035e-05
3.89852e-05
1.90542e-05
3.40417e-05
3.40444e-05
3.98204e-05
1.97329e-05
3.50078e-05
3.50112e-05
4.05996e-05
2.04613e-05
3.59726e-05
3.59792e-05
4.13922e-05
3.69047e-05
1.80247e-05
1.61312e-05
1.61317e-05
1.80258e-05
1.61316e-05
1.61316e-05
1.61315e-05
1.61317e-05
1.80245e-05
1.61315e-05
1.61323e-05
1.80256e-05
1.81314e-05
1.85965e-05
1.61516e-05
1.61521e-05
1.62472e-05
1.62476e-05
1.81329e-05
1.85969e-05
1.61519e-05
1.61521e-05
1.62474e-05
1.6248e-05
1.61521e-05
1.62472e-05
1.62477e-05
1.81313e-05
1.85973e-05
1.61527e-05
1.62476e-05
1.62483e-05
1.85969e-05
1.87268e-05
1.92752e-05
1.62903e-05
1.62906e-05
1.64536e-05
1.6454e-05
1.87272e-05
1.92753e-05
1.62905e-05
1.62911e-05
1.64537e-05
1.64545e-05
1.6291e-05
1.64534e-05
1.64541e-05
1.87277e-05
1.92757e-05
1.62914e-05
1.64539e-05
1.64546e-05
1.92757e-05
1.9427e-05
2.00486e-05
1.65189e-05
1.65193e-05
1.67479e-05
1.67483e-05
1.94271e-05
2.00489e-05
1.65189e-05
1.65199e-05
1.67478e-05
1.67489e-05
1.65196e-05
1.67475e-05
1.67484e-05
1.94279e-05
2.0049e-05
1.65199e-05
1.6748e-05
1.67487e-05
2.00497e-05
2.02198e-05
2.0905e-05
1.68349e-05
1.68352e-05
1.71268e-05
1.71275e-05
2.02199e-05
2.09056e-05
1.68348e-05
1.6836e-05
1.71266e-05
1.71281e-05
1.68356e-05
1.71264e-05
1.71276e-05
2.02201e-05
2.09059e-05
1.68357e-05
1.7127e-05
1.71278e-05
2.09068e-05
2.10925e-05
2.18325e-05
1.72348e-05
1.72353e-05
1.75876e-05
1.75882e-05
2.10931e-05
2.18325e-05
1.72345e-05
1.72361e-05
1.75872e-05
1.7589e-05
1.72356e-05
1.75869e-05
1.75887e-05
2.10934e-05
2.18334e-05
1.72356e-05
1.75877e-05
1.75886e-05
2.18347e-05
2.20334e-05
2.28164e-05
1.77153e-05
1.7716e-05
1.81264e-05
1.81268e-05
2.20337e-05
2.28161e-05
1.77148e-05
1.77167e-05
1.81257e-05
1.81279e-05
1.77163e-05
1.81252e-05
1.81276e-05
2.20342e-05
2.28176e-05
1.7716e-05
1.81264e-05
1.81272e-05
2.28186e-05
2.30287e-05
2.38415e-05
1.82726e-05
1.8273e-05
1.87382e-05
1.87389e-05
2.30283e-05
2.38421e-05
1.82718e-05
1.82742e-05
1.87372e-05
1.87398e-05
1.82739e-05
1.87371e-05
1.87394e-05
2.30297e-05
2.38428e-05
1.82733e-05
1.8738e-05
1.87386e-05
2.38437e-05
2.40631e-05
2.4896e-05
1.8902e-05
1.89025e-05
1.94186e-05
1.94192e-05
2.40635e-05
2.48958e-05
1.89009e-05
1.89038e-05
1.94173e-05
1.94202e-05
1.89035e-05
1.94171e-05
1.94199e-05
2.40643e-05
2.48975e-05
1.89025e-05
1.94182e-05
1.94188e-05
2.48988e-05
2.51242e-05
2.59671e-05
1.95985e-05
1.95993e-05
2.01616e-05
2.01618e-05
2.51243e-05
2.59667e-05
1.95972e-05
1.96001e-05
2.016e-05
2.01639e-05
1.95999e-05
2.01596e-05
2.01636e-05
2.51252e-05
2.59696e-05
1.95985e-05
2.01619e-05
2.01621e-05
2.5971e-05
2.61998e-05
2.70457e-05
2.03568e-05
2.03572e-05
2.09619e-05
2.09624e-05
2.61991e-05
2.70463e-05
2.03551e-05
2.03589e-05
2.09599e-05
2.09635e-05
2.03585e-05
2.09601e-05
2.0964e-05
2.62024e-05
2.70464e-05
2.03567e-05
2.09614e-05
2.0962e-05
2.70485e-05
2.72798e-05
2.81248e-05
2.117e-05
2.11704e-05
2.18144e-05
2.18146e-05
2.72801e-05
2.81245e-05
2.11681e-05
2.11725e-05
2.1812e-05
2.18157e-05
2.11725e-05
2.18122e-05
2.18162e-05
2.72811e-05
2.81264e-05
2.11703e-05
2.18136e-05
2.18137e-05
2.81271e-05
2.83597e-05
2.91927e-05
2.20337e-05
2.20341e-05
2.27107e-05
2.27111e-05
2.83596e-05
2.9193e-05
2.20315e-05
2.20358e-05
2.2708e-05
2.27125e-05
2.20362e-05
2.27087e-05
2.27132e-05
2.83604e-05
2.91959e-05
2.20335e-05
2.27106e-05
2.27104e-05
2.91966e-05
2.94272e-05
3.02502e-05
2.29404e-05
2.2941e-05
2.36456e-05
2.3645e-05
2.94274e-05
3.02492e-05
2.29379e-05
2.29432e-05
2.36427e-05
2.3647e-05
2.29426e-05
2.36424e-05
2.36481e-05
2.94298e-05
3.02512e-05
2.29395e-05
2.36447e-05
2.36448e-05
3.02535e-05
3.04822e-05
3.12899e-05
2.38847e-05
2.38845e-05
2.4612e-05
2.46124e-05
3.0481e-05
3.12913e-05
2.38818e-05
2.38869e-05
2.46089e-05
2.46156e-05
2.3888e-05
2.46097e-05
2.46147e-05
3.04837e-05
3.12924e-05
2.38844e-05
2.46127e-05
2.46111e-05
3.12934e-05
3.15193e-05
3.23097e-05
2.48607e-05
2.48609e-05
2.56043e-05
2.56036e-05
3.15201e-05
3.23086e-05
2.48573e-05
2.48607e-05
2.56011e-05
2.56082e-05
2.48633e-05
2.56018e-05
2.56077e-05
3.15212e-05
3.23115e-05
2.48595e-05
2.56052e-05
2.56034e-05
3.2313e-05
3.25352e-05
3.33094e-05
2.58576e-05
2.58573e-05
2.66186e-05
2.66183e-05
3.25346e-05
3.33097e-05
2.58539e-05
2.58579e-05
2.66149e-05
2.66212e-05
2.58614e-05
2.66151e-05
2.66209e-05
3.2537e-05
3.33115e-05
2.58568e-05
2.66188e-05
2.6617e-05
3.33126e-05
3.35307e-05
3.42845e-05
2.68736e-05
2.68735e-05
2.76444e-05
2.76438e-05
3.35306e-05
3.42847e-05
2.687e-05
2.68749e-05
2.76404e-05
2.7646e-05
2.68769e-05
2.76419e-05
2.76478e-05
3.35328e-05
3.42865e-05
2.68723e-05
2.76451e-05
2.76431e-05
3.4288e-05
3.45021e-05
3.52372e-05
2.79021e-05
2.7901e-05
2.8676e-05
2.86747e-05
3.45015e-05
3.52361e-05
2.78985e-05
2.79042e-05
2.86719e-05
2.86778e-05
2.79043e-05
2.86732e-05
2.86803e-05
3.45034e-05
3.52398e-05
2.79002e-05
2.86768e-05
2.86749e-05
3.5241e-05
3.54478e-05
3.61641e-05
2.89349e-05
2.89346e-05
2.97108e-05
2.97104e-05
3.5448e-05
3.6165e-05
2.89307e-05
2.89364e-05
2.97067e-05
2.97139e-05
2.89404e-05
2.97079e-05
2.97132e-05
3.54509e-05
3.61653e-05
2.89342e-05
2.97122e-05
2.97085e-05
3.61662e-05
3.63715e-05
3.70683e-05
2.99723e-05
2.99708e-05
3.0747e-05
3.07445e-05
3.63706e-05
3.70662e-05
2.99682e-05
2.99713e-05
3.07426e-05
3.07489e-05
2.99744e-05
3.07432e-05
3.07506e-05
3.63722e-05
3.7071e-05
2.99697e-05
3.07486e-05
3.07455e-05
3.70718e-05
3.72681e-05
3.79431e-05
3.10017e-05
3.10002e-05
3.17698e-05
3.17689e-05
3.72674e-05
3.79439e-05
3.09974e-05
3.10041e-05
3.17654e-05
3.17721e-05
3.10057e-05
3.17677e-05
3.17734e-05
3.72711e-05
3.79452e-05
3.10003e-05
3.17712e-05
3.1768e-05
3.79463e-05
3.81402e-05
3.87953e-05
3.20304e-05
3.2029e-05
3.27861e-05
3.27838e-05
3.81401e-05
3.87939e-05
3.20259e-05
3.20296e-05
3.27816e-05
3.27873e-05
3.2034e-05
3.27822e-05
3.27892e-05
3.8142e-05
3.87969e-05
3.20284e-05
3.27874e-05
3.27839e-05
3.87977e-05
3.89831e-05
3.96332e-05
3.30334e-05
3.30309e-05
3.37963e-05
3.37944e-05
3.89819e-05
3.96329e-05
3.30288e-05
3.30353e-05
3.37917e-05
3.37979e-05
3.30361e-05
3.37939e-05
3.37999e-05
3.89849e-05
3.96356e-05
3.30308e-05
3.3798e-05
3.37945e-05
3.96365e-05
3.98173e-05
4.04133e-05
3.4045e-05
3.4043e-05
3.4757e-05
3.4754e-05
3.98171e-05
4.04119e-05
3.40403e-05
3.40441e-05
3.47522e-05
3.4758e-05
3.40488e-05
3.47539e-05
3.47595e-05
3.98193e-05
4.04159e-05
3.40433e-05
3.47584e-05
3.47543e-05
4.04154e-05
4.05976e-05
4.12294e-05
3.50094e-05
3.50066e-05
3.5753e-05
3.57497e-05
4.05963e-05
4.12287e-05
3.50047e-05
3.5011e-05
3.57483e-05
3.57525e-05
3.50123e-05
3.57475e-05
3.57558e-05
4.06006e-05
4.12304e-05
3.50068e-05
3.57534e-05
3.57508e-05
4.12323e-05
4.13901e-05
4.19301e-05
3.59789e-05
3.59757e-05
3.66541e-05
3.66514e-05
4.1389e-05
4.19293e-05
3.59741e-05
3.59787e-05
3.66495e-05
3.66553e-05
3.59806e-05
3.6654e-05
3.66583e-05
4.13904e-05
4.19333e-05
3.59757e-05
3.66559e-05
3.66527e-05
4.19337e-05
3.69032e-05
4.21228e-05
1.50238e-05
1.50238e-05
1.50238e-05
1.50239e-05
6.96831e-05
1.61091e-05
4.4349e-05
5.35401e-05
7.00365e-05
5.29183e-05
7.00633e-05
6.96277e-05
6.96071e-05
5.354e-05
7.00375e-05
5.29179e-05
7.00643e-05
1.49359e-05
1.49359e-05
1.4936e-05
1.46892e-05
1.46892e-05
1.46892e-05
1.46893e-05
2.93896e-05
4.52085e-05
1.49104e-05
1.6178e-05
2.88258e-05
4.56361e-05
1.48602e-05
6.9628e-05
6.96071e-05
2.93906e-05
1.49104e-05
4.52035e-05
1.61783e-05
2.88269e-05
1.48603e-05
4.56439e-05
5.90057e-05
5.90151e-05
1.82959e-05
5.92924e-05
5.93017e-05
5.48577e-05
7.00957e-05
5.43377e-05
7.01194e-05
6.95552e-05
6.95365e-05
5.48575e-05
7.00969e-05
5.43375e-05
7.01205e-05
1.46131e-05
1.46131e-05
1.46132e-05
1.44013e-05
1.44013e-05
1.44014e-05
1.44015e-05
3.10943e-05
4.64274e-05
1.47387e-05
1.6339e-05
3.05318e-05
4.68263e-05
1.47053e-05
6.95555e-05
6.95364e-05
3.10994e-05
1.47388e-05
4.64236e-05
1.63393e-05
3.05296e-05
1.47055e-05
4.68323e-05
5.96675e-05
5.96768e-05
1.89237e-05
5.99189e-05
5.99284e-05
5.59563e-05
7.0148e-05
5.55226e-05
7.01686e-05
6.94886e-05
6.94714e-05
5.59563e-05
7.01492e-05
5.55221e-05
7.01699e-05
1.43368e-05
1.43368e-05
1.43369e-05
1.41596e-05
1.41597e-05
1.41598e-05
1.41599e-05
3.27715e-05
4.75451e-05
1.4636e-05
1.65893e-05
3.22124e-05
4.7916e-05
1.46198e-05
6.9489e-05
6.94714e-05
3.27769e-05
1.46362e-05
4.75421e-05
1.65898e-05
3.22097e-05
1.46201e-05
4.79216e-05
6.02551e-05
6.02642e-05
1.9652e-05
6.04779e-05
6.04873e-05
5.68728e-05
7.01936e-05
5.65094e-05
7.02115e-05
6.94278e-05
6.94121e-05
5.68725e-05
7.01948e-05
5.65084e-05
7.02128e-05
1.41066e-05
1.41067e-05
1.41068e-05
1.39636e-05
1.39637e-05
1.39639e-05
1.3964e-05
3.43868e-05
4.85678e-05
1.46033e-05
1.69263e-05
3.38398e-05
4.89136e-05
1.46057e-05
6.94282e-05
6.94121e-05
3.43916e-05
1.46036e-05
4.85645e-05
1.6927e-05
3.38375e-05
1.46061e-05
4.89195e-05
6.07798e-05
6.07888e-05
2.04698e-05
6.09805e-05
6.09896e-05
5.76427e-05
7.02335e-05
5.73339e-05
7.02496e-05
6.93727e-05
6.93587e-05
5.76419e-05
7.02347e-05
5.73332e-05
7.02509e-05
1.39221e-05
1.39222e-05
1.39224e-05
1.38132e-05
1.38133e-05
1.38135e-05
1.38136e-05
3.59183e-05
4.95028e-05
1.46384e-05
1.73467e-05
3.53898e-05
4.98276e-05
1.46584e-05
6.9373e-05
6.93587e-05
3.5923e-05
1.46389e-05
4.94985e-05
1.73476e-05
3.53879e-05
1.46588e-05
4.98341e-05
6.12507e-05
6.12597e-05
2.13639e-05
6.14352e-05
6.14443e-05
5.82953e-05
7.02684e-05
5.80321e-05
7.02836e-05
6.9323e-05
6.9311e-05
5.82946e-05
7.02697e-05
5.80316e-05
7.02848e-05
1.3783e-05
1.37832e-05
1.37834e-05
1.3708e-05
1.37081e-05
1.37084e-05
1.37086e-05
3.73532e-05
5.0359e-05
1.47435e-05
1.78469e-05
3.68484e-05
5.06665e-05
1.47808e-05
6.93232e-05
6.93111e-05
3.73572e-05
1.47442e-05
5.0354e-05
1.78478e-05
3.68468e-05
1.47813e-05
5.06723e-05
6.16775e-05
6.16864e-05
2.23205e-05
6.18472e-05
6.18561e-05
5.88591e-05
7.03006e-05
5.86328e-05
7.03145e-05
6.92789e-05
6.92689e-05
5.88585e-05
7.03019e-05
5.8632e-05
7.03158e-05
1.36892e-05
1.36896e-05
1.36898e-05
1.3648e-05
1.36482e-05
1.36485e-05
1.36487e-05
3.86875e-05
5.11459e-05
1.49174e-05
1.84223e-05
3.82091e-05
5.14374e-05
1.49718e-05
6.9279e-05
6.92689e-05
3.86914e-05
1.49182e-05
5.11419e-05
1.84233e-05
3.8208e-05
1.49724e-05
5.14427e-05
6.20691e-05
6.20779e-05
2.33266e-05
6.22242e-05
6.22332e-05
5.93557e-05
7.03312e-05
5.91556e-05
7.03443e-05
6.92408e-05
6.92327e-05
5.93547e-05
7.03324e-05
5.91547e-05
7.03456e-05
1.36408e-05
1.36413e-05
1.36415e-05
1.36346e-05
1.36347e-05
1.36352e-05
1.36354e-05
3.9924e-05
5.1874e-05
1.51591e-05
1.90684e-05
3.9471e-05
5.21489e-05
1.52303e-05
6.92409e-05
6.92327e-05
3.99266e-05
1.51601e-05
5.18703e-05
1.90701e-05
3.94699e-05
1.5231e-05
5.21544e-05
6.24294e-05
6.2438e-05
2.43685e-05
6.25737e-05
6.25826e-05
5.97982e-05
7.0361e-05
5.96178e-05
7.03739e-05
6.92086e-05
6.92023e-05
5.97976e-05
7.03623e-05
5.96172e-05
7.03751e-05
1.36377e-05
1.36382e-05
1.36384e-05
1.3665e-05
1.36652e-05
1.36658e-05
1.3666e-05
4.10672e-05
5.25504e-05
1.54676e-05
1.97808e-05
4.06378e-05
5.28108e-05
1.55553e-05
6.92085e-05
6.92024e-05
4.10691e-05
1.54687e-05
5.25466e-05
1.9782e-05
4.0638e-05
1.55561e-05
5.28131e-05
6.27635e-05
6.27721e-05
2.54323e-05
6.28983e-05
6.2907e-05
6.01982e-05
7.03908e-05
6.00329e-05
7.04047e-05
6.91821e-05
6.91781e-05
6.01974e-05
7.03921e-05
6.00318e-05
7.0406e-05
1.36801e-05
1.36807e-05
1.36809e-05
1.3742e-05
1.37422e-05
1.37428e-05
1.37432e-05
4.21236e-05
5.31785e-05
1.58409e-05
2.05536e-05
4.17174e-05
5.34286e-05
1.59448e-05
6.91821e-05
6.91779e-05
4.21257e-05
1.58423e-05
5.31793e-05
2.05547e-05
4.17177e-05
1.59457e-05
5.34276e-05
6.30778e-05
6.30865e-05
2.65097e-05
6.32021e-05
6.3211e-05
6.05631e-05
7.0422e-05
6.04127e-05
7.04364e-05
6.91614e-05
6.91598e-05
6.05625e-05
7.04232e-05
6.0412e-05
7.04377e-05
1.37684e-05
1.37693e-05
1.37694e-05
1.38654e-05
1.38656e-05
1.3866e-05
1.38667e-05
4.31032e-05
5.37682e-05
1.62775e-05
2.13798e-05
4.27216e-05
5.40035e-05
1.63971e-05
6.91617e-05
6.91597e-05
4.31056e-05
1.62792e-05
5.37697e-05
2.13822e-05
4.27214e-05
1.63981e-05
5.40062e-05
6.33744e-05
6.33828e-05
2.75891e-05
6.34921e-05
6.35009e-05
6.09023e-05
7.04551e-05
6.07619e-05
7.04707e-05
6.91469e-05
6.91473e-05
6.09013e-05
7.04563e-05
6.0761e-05
7.0472e-05
1.39028e-05
1.39041e-05
1.3904e-05
1.40349e-05
1.40353e-05
1.40354e-05
1.40365e-05
4.40169e-05
5.43255e-05
1.67747e-05
2.22548e-05
4.36548e-05
5.45455e-05
1.69097e-05
6.91468e-05
6.91474e-05
4.40182e-05
1.67765e-05
5.43239e-05
2.22566e-05
4.36545e-05
1.69107e-05
5.45474e-05
6.36542e-05
6.36627e-05
2.8664e-05
6.37691e-05
6.37777e-05
6.12205e-05
7.04912e-05
6.10888e-05
7.05076e-05
6.91384e-05
6.91408e-05
6.12196e-05
7.04925e-05
6.10881e-05
7.05089e-05
1.4084e-05
1.40857e-05
1.40851e-05
1.42499e-05
1.425e-05
1.42513e-05
1.42515e-05
4.48727e-05
5.48509e-05
1.73307e-05
2.31719e-05
4.45291e-05
5.50603e-05
1.74798e-05
6.91382e-05
6.91407e-05
4.48744e-05
1.73329e-05
5.48511e-05
2.31731e-05
4.45298e-05
1.74808e-05
5.50605e-05
6.3921e-05
6.39297e-05
2.97256e-05
6.40317e-05
6.40405e-05
6.15197e-05
7.05297e-05
6.13938e-05
7.05484e-05
6.91357e-05
6.91406e-05
6.15187e-05
7.0531e-05
6.13933e-05
7.05495e-05
1.43131e-05
1.43133e-05
1.43147e-05
1.45109e-05
1.45112e-05
1.45156e-05
1.45127e-05
4.56781e-05
5.5346e-05
1.79431e-05
2.41225e-05
4.53505e-05
5.55489e-05
1.81026e-05
6.91357e-05
6.91403e-05
4.56785e-05
1.79453e-05
5.53483e-05
2.41251e-05
4.53513e-05
1.8104e-05
5.55499e-05
6.41815e-05
6.41894e-05
3.07765e-05
6.42864e-05
6.42955e-05
6.18052e-05
7.05723e-05
6.16889e-05
7.05908e-05
6.91385e-05
6.91452e-05
6.1806e-05
7.0574e-05
6.16876e-05
7.05924e-05
1.45892e-05
1.45867e-05
1.45906e-05
1.48207e-05
1.48211e-05
1.48254e-05
1.48229e-05
4.64393e-05
5.58213e-05
1.86086e-05
2.5102e-05
4.61308e-05
5.60103e-05
1.87777e-05
6.91386e-05
6.91452e-05
4.64408e-05
1.86108e-05
5.58235e-05
2.51061e-05
4.61331e-05
1.87801e-05
5.60134e-05
6.44293e-05
6.44374e-05
3.18054e-05
6.45311e-05
6.45391e-05
6.20865e-05
7.06193e-05
6.19645e-05
7.0641e-05
6.91474e-05
6.91564e-05
6.2084e-05
7.06202e-05
6.1963e-05
7.06424e-05
1.49084e-05
1.49075e-05
1.49103e-05
1.51779e-05
1.51783e-05
1.51806e-05
1.51801e-05
4.71685e-05
5.62745e-05
1.93204e-05
2.61073e-05
4.68716e-05
5.6458e-05
1.95038e-05
6.91472e-05
6.9156e-05
4.71701e-05
1.93223e-05
5.62759e-05
2.61103e-05
4.68713e-05
1.95055e-05
5.64607e-05
6.46699e-05
6.46787e-05
3.28158e-05
6.47715e-05
6.47788e-05
6.23447e-05
7.06668e-05
6.22377e-05
7.06918e-05
6.91609e-05
6.91716e-05
6.23445e-05
7.06683e-05
6.2238e-05
7.06929e-05
1.52743e-05
1.52754e-05
1.52762e-05
1.55803e-05
1.5581e-05
1.55814e-05
1.5583e-05
4.78615e-05
5.67056e-05
2.00761e-05
2.7127e-05
4.75776e-05
5.68834e-05
2.02741e-05
6.9161e-05
6.91716e-05
4.78605e-05
2.00788e-05
5.67096e-05
2.71299e-05
4.75807e-05
2.02757e-05
5.68829e-05
6.49017e-05
6.49115e-05
3.38029e-05
6.50004e-05
6.50065e-05
6.2618e-05
7.07247e-05
6.25107e-05
7.07449e-05
6.91807e-05
6.91926e-05
6.26182e-05
7.07264e-05
6.25098e-05
7.07463e-05
1.56867e-05
1.569e-05
1.56888e-05
1.60247e-05
1.60251e-05
1.60278e-05
1.60277e-05
4.8528e-05
5.71253e-05
2.08751e-05
2.81567e-05
4.82611e-05
5.72893e-05
2.1083e-05
6.91806e-05
6.91924e-05
4.85371e-05
2.08788e-05
5.7131e-05
2.81611e-05
4.82624e-05
2.10865e-05
5.7298e-05
6.51326e-05
6.51436e-05
3.47679e-05
6.52227e-05
6.52346e-05
6.28772e-05
7.07818e-05
6.27552e-05
7.08092e-05
6.92045e-05
6.92194e-05
6.28752e-05
7.07826e-05
6.27525e-05
7.08113e-05
1.61458e-05
1.61463e-05
1.61483e-05
1.65146e-05
1.65155e-05
1.65194e-05
1.65176e-05
4.91793e-05
5.7528e-05
2.17142e-05
2.91912e-05
4.89125e-05
5.76893e-05
2.19277e-05
6.92043e-05
6.92189e-05
4.91743e-05
2.17156e-05
5.75243e-05
2.91941e-05
4.89063e-05
2.19285e-05
5.76922e-05
6.53579e-05
6.53608e-05
3.57065e-05
6.54439e-05
6.54542e-05
6.31299e-05
7.08441e-05
6.30272e-05
7.08713e-05
6.92331e-05
6.92491e-05
6.31288e-05
7.08455e-05
6.30291e-05
7.08722e-05
1.66462e-05
1.66462e-05
1.66485e-05
1.70501e-05
1.70503e-05
1.70523e-05
1.70534e-05
4.97975e-05
5.79109e-05
2.25833e-05
3.02254e-05
4.95402e-05
5.80709e-05
2.28056e-05
6.92336e-05
6.92493e-05
4.97999e-05
2.25869e-05
5.79162e-05
3.02318e-05
4.95492e-05
2.28097e-05
5.80745e-05
6.55703e-05
6.55796e-05
3.6623e-05
6.56659e-05
6.56729e-05
6.33847e-05
7.09096e-05
6.32757e-05
7.09395e-05
6.92666e-05
6.92844e-05
6.33848e-05
7.09113e-05
6.32735e-05
7.09411e-05
1.71885e-05
1.71924e-05
1.71916e-05
1.76194e-05
1.76204e-05
1.76244e-05
1.7623e-05
5.03973e-05
5.82857e-05
2.34818e-05
3.12559e-05
5.01537e-05
5.84369e-05
2.37097e-05
6.92663e-05
6.9284e-05
5.03986e-05
2.34856e-05
5.82888e-05
3.12582e-05
5.01523e-05
2.37114e-05
5.84384e-05
6.57817e-05
6.57905e-05
3.75102e-05
6.58675e-05
6.58761e-05
6.36404e-05
7.09807e-05
6.35329e-05
7.10116e-05
6.93042e-05
6.93232e-05
6.36392e-05
7.09821e-05
6.35325e-05
7.1013e-05
1.77738e-05
1.77738e-05
1.77765e-05
1.82341e-05
1.82344e-05
1.82366e-05
1.82377e-05
5.09839e-05
5.86475e-05
2.44065e-05
3.22803e-05
5.07436e-05
5.87964e-05
2.46423e-05
6.93048e-05
6.93235e-05
5.0985e-05
2.44088e-05
5.86506e-05
3.22865e-05
5.07445e-05
2.46455e-05
5.88006e-05
6.59939e-05
6.60019e-05
3.83792e-05
6.60806e-05
6.60885e-05
6.38895e-05
7.10527e-05
6.37822e-05
7.10878e-05
6.93447e-05
6.93679e-05
6.38888e-05
7.10542e-05
6.37812e-05
7.10893e-05
1.83885e-05
1.83931e-05
1.83918e-05
1.88842e-05
1.88851e-05
1.88892e-05
1.88883e-05
5.15445e-05
5.89907e-05
2.53463e-05
3.32852e-05
5.13137e-05
5.91368e-05
2.55867e-05
6.93454e-05
6.93686e-05
5.15463e-05
2.53508e-05
5.89944e-05
3.32879e-05
5.13155e-05
2.55891e-05
5.91402e-05
6.61853e-05
6.61941e-05
3.92148e-05
6.62799e-05
6.62887e-05
6.41333e-05
7.11312e-05
6.40421e-05
7.11568e-05
6.93893e-05
6.9407e-05
6.41328e-05
7.11327e-05
6.40414e-05
7.11584e-05
1.90548e-05
1.90559e-05
1.90585e-05
1.95538e-05
1.95545e-05
1.9557e-05
1.95577e-05
5.2091e-05
5.93444e-05
2.63194e-05
3.42775e-05
5.18751e-05
5.94578e-05
2.65591e-05
6.93903e-05
6.94083e-05
5.20929e-05
2.63228e-05
5.93472e-05
3.42842e-05
5.18759e-05
2.65633e-05
5.9463e-05
6.64053e-05
6.64131e-05
4.00296e-05
6.64481e-05
6.64571e-05
6.44036e-05
7.12133e-05
6.42665e-05
7.12563e-05
6.94454e-05
6.94695e-05
6.44022e-05
7.12147e-05
6.42658e-05
7.12577e-05
1.9734e-05
1.97372e-05
1.9737e-05
2.02815e-05
2.0281e-05
2.02853e-05
2.02859e-05
5.26266e-05
5.96459e-05
2.72822e-05
3.52654e-05
5.23894e-05
5.98282e-05
2.75362e-05
6.94462e-05
6.94706e-05
5.26254e-05
2.72848e-05
5.96459e-05
3.52676e-05
5.23888e-05
2.75378e-05
5.98264e-05
6.65897e-05
6.65972e-05
4.08383e-05
6.67244e-05
6.67312e-05
6.45983e-05
7.12854e-05
6.45402e-05
7.1314e-05
6.948e-05
6.95089e-05
6.4599e-05
7.1287e-05
6.45395e-05
7.13157e-05
2.0461e-05
2.04649e-05
2.04653e-05
2.10035e-05
2.10045e-05
2.1007e-05
2.10082e-05
5.31096e-05
5.99684e-05
2.82798e-05
3.61903e-05
5.29332e-05
6.00474e-05
2.85188e-05
6.94816e-05
6.95089e-05
5.31143e-05
2.82859e-05
5.99836e-05
3.61953e-05
5.29399e-05
2.85238e-05
6.00532e-05
6.67489e-05
6.67599e-05
4.15629e-05
6.67539e-05
6.67641e-05
2.12043e-05
6.95584e-05
6.02694e-05
6.96421e-05
6.96442e-05
5.89444e-05
5.89556e-05
7.0032e-05
5.27904e-05
7.00287e-05
5.27894e-05
4.50047e-05
1.4963e-05
2.85382e-05
4.5008e-05
1.4963e-05
2.85378e-05
6.96436e-05
5.89498e-05
5.89452e-05
6.96423e-05
6.99971e-05
1.61091e-05
4.4355e-05
5.21138e-05
7.0033e-05
5.27899e-05
2.79781e-05
4.50081e-05
1.49632e-05
1.50218e-05
2.85386e-05
5.21129e-05
7.00285e-05
7.00016e-05
5.2789e-05
2.79779e-05
1.61174e-05
1.4963e-05
4.50087e-05
1.50216e-05
4.45634e-05
2.85384e-05
4.49985e-05
1.49633e-05
2.85386e-05
7.00314e-05
5.27906e-05
1.49631e-05
4.5006e-05
2.85384e-05
7.00279e-05
5.27898e-05
1.7783e-05
5.85977e-05
5.85907e-05
6.96815e-05
6.96438e-05
6.96658e-05
1.78812e-05
5.89523e-05
5.89461e-05
5.86562e-05
5.86494e-05
6.96423e-05
6.96643e-05
7.00002e-05
2.79787e-05
1.61173e-05
1.49634e-05
4.50036e-05
1.5022e-05
4.45611e-05
2.85396e-05
2.79784e-05
1.49634e-05
4.50139e-05
1.5022e-05
2.85391e-05
5.2114e-05
7.00318e-05
7.00048e-05
5.27914e-05
5.21132e-05
7.00293e-05
5.27906e-05
5.89488e-05
5.89584e-05
6.96426e-05
6.96443e-05
6.96263e-05
6.96055e-05
6.96285e-05
6.96077e-05
5.90039e-05
5.90152e-05
1.82943e-05
5.93005e-05
5.93112e-05
6.95688e-05
6.95895e-05
6.9571e-05
6.95916e-05
1.84156e-05
5.96151e-05
5.96254e-05
5.93536e-05
5.93644e-05
5.35387e-05
7.00332e-05
5.29172e-05
7.00598e-05
2.93888e-05
4.52012e-05
1.49101e-05
1.61779e-05
2.88252e-05
4.56464e-05
1.48599e-05
2.93883e-05
4.52049e-05
1.49101e-05
1.61783e-05
2.88249e-05
4.56475e-05
1.48598e-05
5.36583e-05
7.00919e-05
7.00673e-05
5.42306e-05
5.3657e-05
7.00886e-05
7.00639e-05
5.42294e-05
2.96777e-05
1.621e-05
4.625e-05
1.47739e-05
4.58298e-05
1.48156e-05
3.02433e-05
2.96771e-05
1.62105e-05
4.62521e-05
1.47738e-05
4.58344e-05
1.48156e-05
3.02431e-05
5.90083e-05
5.90039e-05
1.82947e-05
5.93053e-05
5.93011e-05
6.96264e-05
6.9606e-05
6.95703e-05
6.95912e-05
1.84155e-05
5.962e-05
5.96153e-05
5.93595e-05
5.93555e-05
6.95691e-05
6.95899e-05
2.93893e-05
4.52054e-05
1.49102e-05
1.61782e-05
2.88257e-05
4.56497e-05
1.486e-05
5.35392e-05
7.00331e-05
5.2917e-05
7.00599e-05
2.93891e-05
1.49101e-05
4.52054e-05
1.61785e-05
2.88255e-05
1.48599e-05
4.5649e-05
5.36581e-05
7.0093e-05
7.00684e-05
5.42303e-05
2.96783e-05
1.62103e-05
4.62534e-05
1.4774e-05
4.58338e-05
1.48158e-05
3.02434e-05
5.36572e-05
7.00886e-05
7.0064e-05
5.42294e-05
2.9678e-05
1.62107e-05
1.47739e-05
4.62542e-05
1.48157e-05
4.58326e-05
3.02431e-05
5.35404e-05
7.0036e-05
5.29187e-05
7.0063e-05
2.93894e-05
1.49103e-05
4.52061e-05
1.61782e-05
2.88256e-05
1.486e-05
4.56397e-05
5.35393e-05
7.00323e-05
5.29178e-05
7.0059e-05
2.96784e-05
1.62102e-05
4.62427e-05
1.47741e-05
4.5837e-05
1.48159e-05
3.02435e-05
5.36585e-05
7.00911e-05
7.00672e-05
5.42303e-05
2.9678e-05
1.62103e-05
1.4774e-05
4.62498e-05
1.48158e-05
4.58284e-05
3.02433e-05
5.36574e-05
7.00878e-05
7.00631e-05
5.42294e-05
5.90115e-05
5.90056e-05
1.82947e-05
5.93056e-05
5.92993e-05
6.96265e-05
6.96056e-05
6.95706e-05
6.95912e-05
1.84161e-05
5.96224e-05
5.96161e-05
5.93588e-05
5.93527e-05
6.9569e-05
6.95896e-05
2.939e-05
1.49105e-05
4.52066e-05
1.61787e-05
2.88267e-05
1.48603e-05
4.56473e-05
5.35406e-05
7.00363e-05
5.29194e-05
7.0063e-05
5.35394e-05
7.00337e-05
5.29187e-05
7.00601e-05
2.96788e-05
1.62103e-05
1.47743e-05
4.62493e-05
1.4816e-05
4.58307e-05
3.02465e-05
2.96787e-05
1.62107e-05
1.47743e-05
4.62573e-05
1.4816e-05
4.58287e-05
3.02436e-05
5.36586e-05
7.00917e-05
7.00671e-05
5.42309e-05
5.36576e-05
7.00893e-05
7.00642e-05
5.423e-05
6.96264e-05
6.96055e-05
6.96281e-05
6.96071e-05
1.84156e-05
5.96173e-05
5.96268e-05
5.93472e-05
5.93562e-05
6.95694e-05
6.95898e-05
6.95712e-05
6.95916e-05
6.95539e-05
6.95349e-05
6.9556e-05
6.95371e-05
5.96661e-05
5.96765e-05
1.89216e-05
5.99258e-05
5.99359e-05
6.95015e-05
6.95202e-05
6.95036e-05
6.95223e-05
1.90638e-05
6.02107e-05
6.02203e-05
5.99738e-05
5.99839e-05
5.48564e-05
7.00925e-05
5.43366e-05
7.01161e-05
3.10952e-05
4.64211e-05
1.47384e-05
1.63391e-05
3.05297e-05
4.68348e-05
1.47051e-05
3.10951e-05
4.64241e-05
1.47383e-05
1.63395e-05
3.05288e-05
4.68364e-05
1.4705e-05
5.49557e-05
7.01447e-05
7.01228e-05
5.54334e-05
5.49544e-05
7.01413e-05
7.01196e-05
5.54321e-05
3.1374e-05
1.63938e-05
4.73914e-05
1.46536e-05
4.69948e-05
1.46784e-05
3.19405e-05
3.13728e-05
1.63942e-05
4.73927e-05
1.46535e-05
4.69992e-05
1.46783e-05
3.19403e-05
5.96702e-05
5.96658e-05
1.89213e-05
5.99303e-05
5.99253e-05
6.95539e-05
6.95353e-05
6.95028e-05
6.95218e-05
1.90634e-05
6.0215e-05
6.02104e-05
5.99792e-05
5.99745e-05
6.95016e-05
6.95205e-05
3.10949e-05
4.64252e-05
1.47385e-05
1.63393e-05
3.05311e-05
4.68381e-05
1.47052e-05
5.48565e-05
7.00925e-05
5.43366e-05
7.0116e-05
3.10946e-05
1.47384e-05
4.64255e-05
1.63398e-05
3.05308e-05
1.47052e-05
4.68367e-05
5.49553e-05
7.01459e-05
7.0124e-05
5.54328e-05
3.13753e-05
1.6394e-05
4.73946e-05
1.46538e-05
4.69986e-05
1.46785e-05
3.19397e-05
5.49544e-05
7.01416e-05
7.01195e-05
5.54318e-05
3.13748e-05
1.63945e-05
1.46537e-05
4.7395e-05
1.46785e-05
4.69968e-05
3.19394e-05
5.48578e-05
7.00951e-05
5.43376e-05
7.01188e-05
3.10955e-05
1.47385e-05
4.64253e-05
1.63396e-05
3.05302e-05
1.47053e-05
4.68297e-05
5.48568e-05
7.00917e-05
5.43367e-05
7.01152e-05
3.13762e-05
1.63937e-05
4.73838e-05
1.46539e-05
4.70019e-05
1.46786e-05
3.19392e-05
5.49558e-05
7.01439e-05
7.01225e-05
5.54331e-05
3.13745e-05
1.63941e-05
1.46538e-05
4.73896e-05
1.46786e-05
4.69938e-05
3.19404e-05
5.49547e-05
7.01408e-05
7.01187e-05
5.54321e-05
5.96731e-05
5.9667e-05
1.8922e-05
5.99298e-05
5.99238e-05
6.95539e-05
6.95349e-05
6.95032e-05
6.95218e-05
1.90639e-05
6.02174e-05
6.02114e-05
5.99779e-05
5.99721e-05
6.95016e-05
6.95202e-05
3.1096e-05
1.47388e-05
4.64259e-05
1.63401e-05
3.05315e-05
1.47056e-05
4.6837e-05
5.48586e-05
7.00956e-05
5.43384e-05
7.01191e-05
5.48576e-05
7.00931e-05
5.43377e-05
7.01164e-05
3.13739e-05
1.63939e-05
1.46541e-05
4.73907e-05
1.46788e-05
4.69951e-05
3.19438e-05
3.1376e-05
1.63945e-05
1.46541e-05
4.73966e-05
1.46788e-05
4.69943e-05
3.19401e-05
5.49562e-05
7.01446e-05
7.01226e-05
5.5433e-05
5.49553e-05
7.01421e-05
7.01199e-05
5.54318e-05
6.95541e-05
6.95348e-05
6.9556e-05
6.95366e-05
1.90649e-05
6.021e-05
6.02194e-05
5.99673e-05
5.99765e-05
6.95019e-05
6.95202e-05
6.95037e-05
6.95221e-05
6.94873e-05
6.94699e-05
6.94894e-05
6.94721e-05
6.02554e-05
6.02652e-05
1.96498e-05
6.04827e-05
6.04923e-05
6.94397e-05
6.94564e-05
6.94418e-05
6.94584e-05
1.98112e-05
6.07421e-05
6.07512e-05
6.05258e-05
6.05353e-05
5.5955e-05
7.01446e-05
5.55213e-05
7.01655e-05
3.27726e-05
4.75395e-05
1.46357e-05
1.65896e-05
3.22101e-05
4.79234e-05
1.46195e-05
3.27724e-05
4.75419e-05
1.46357e-05
1.659e-05
3.22088e-05
4.7925e-05
1.46194e-05
5.60372e-05
7.01909e-05
7.01716e-05
5.64351e-05
5.6036e-05
7.01876e-05
7.01684e-05
5.64338e-05
3.30314e-05
1.66661e-05
4.84348e-05
1.46029e-05
4.80612e-05
1.46106e-05
3.35894e-05
3.30302e-05
1.66665e-05
4.84359e-05
1.46028e-05
4.80652e-05
1.46105e-05
3.35892e-05
6.02591e-05
6.02548e-05
1.96498e-05
6.04871e-05
6.0482e-05
6.94872e-05
6.94702e-05
6.94411e-05
6.94579e-05
1.98111e-05
6.07461e-05
6.07412e-05
6.05309e-05
6.05261e-05
6.94398e-05
6.94565e-05
3.27724e-05
4.75432e-05
1.46359e-05
1.65896e-05
3.22112e-05
4.79266e-05
1.46197e-05
5.59553e-05
7.01448e-05
5.55211e-05
7.01654e-05
3.2772e-05
1.46359e-05
4.75437e-05
1.65906e-05
3.22107e-05
1.46197e-05
4.79253e-05
5.60371e-05
7.01921e-05
7.01728e-05
5.64341e-05
3.30329e-05
1.66661e-05
4.84377e-05
1.46031e-05
4.80649e-05
1.46108e-05
3.35886e-05
5.60362e-05
7.01878e-05
7.01683e-05
5.64331e-05
3.30324e-05
1.6667e-05
1.46031e-05
4.84373e-05
1.46108e-05
4.80631e-05
3.35881e-05
5.59563e-05
7.01473e-05
5.55224e-05
7.01679e-05
3.27728e-05
1.4636e-05
4.75426e-05
1.65902e-05
3.22106e-05
1.46198e-05
4.79197e-05
5.59553e-05
7.0144e-05
5.55214e-05
7.01646e-05
3.3034e-05
1.66658e-05
4.84273e-05
1.46032e-05
4.80682e-05
1.46109e-05
3.35882e-05
5.60374e-05
7.019e-05
7.0171e-05
5.64347e-05
3.30321e-05
1.66666e-05
1.46032e-05
4.84318e-05
1.46108e-05
4.80612e-05
3.35893e-05
5.60363e-05
7.0187e-05
7.01675e-05
5.64338e-05
6.02621e-05
6.02562e-05
1.96512e-05
6.04867e-05
6.0481e-05
6.94874e-05
6.94698e-05
6.94414e-05
6.94578e-05
1.98121e-05
6.07474e-05
6.07415e-05
6.05294e-05
6.05239e-05
6.94398e-05
6.94562e-05
3.27734e-05
1.46363e-05
4.75428e-05
1.65906e-05
3.22115e-05
1.46201e-05
4.79267e-05
5.59577e-05
7.01479e-05
5.55224e-05
7.01685e-05
5.59566e-05
7.01454e-05
5.55214e-05
7.0166e-05
3.30321e-05
1.66661e-05
1.46035e-05
4.84337e-05
1.46111e-05
4.80617e-05
3.35928e-05
3.30338e-05
1.66669e-05
1.46035e-05
4.84384e-05
1.46112e-05
4.80616e-05
3.35893e-05
5.60384e-05
7.01908e-05
7.01714e-05
5.64347e-05
5.60375e-05
7.01883e-05
7.01689e-05
5.64335e-05
6.94876e-05
6.94698e-05
6.94895e-05
6.94717e-05
1.98129e-05
6.07388e-05
6.07481e-05
6.05205e-05
6.05297e-05
6.94399e-05
6.94562e-05
6.94418e-05
6.94582e-05
6.94265e-05
6.94106e-05
6.94286e-05
6.94127e-05
6.07824e-05
6.07916e-05
2.04679e-05
6.0984e-05
6.09931e-05
6.93835e-05
6.9398e-05
6.93855e-05
6.94001e-05
2.06466e-05
6.12175e-05
6.12263e-05
6.1022e-05
6.10311e-05
5.68714e-05
7.01903e-05
5.65081e-05
7.02084e-05
3.43881e-05
4.85627e-05
1.4603e-05
1.69268e-05
3.38376e-05
4.89208e-05
1.46054e-05
3.43878e-05
4.85647e-05
1.46029e-05
1.69273e-05
3.38363e-05
4.89218e-05
1.46054e-05
5.69398e-05
7.02311e-05
7.02139e-05
5.72717e-05
5.69385e-05
7.02279e-05
7.02108e-05
5.72705e-05