/*--------------------------------*- C++ -*----------------------------------*\
| =========                 |                                                 |
| \\      /  F ield         | OpenFOAM: The Open Source CFD Toolbox           |
|  \\    /   O peration     | Version:  2312                                  |
|   \\  /    A nd           | Website:  www.openfoam.com                      |
|    \\/     M anipulation  |                                                 |
\*---------------------------------------------------------------------------*/
FoamFile
{
    version     2.0;
    format      ascii;
    arch        "LSB;label=32;scalar=64";
    class       volScalarField;
    location    "250";
    object      nut;
}
// * * * * * * * * * * * * * * * * * * * * * * * * * * * * * * * * * * * * * //

dimensions      [0 2 -1 0 0 0 0];

internalField   nonuniform List<scalar> 
43496
(
0.000103243
2.40366e-05
0.000232246
0.000107406
0.000151972
0.000258685
0.00010324
5.11099e-05
0.00015197
0.000232196
0.000258678
0.000107388
0.000200699
8.01272e-05
8.0141e-05
2.40388e-05
5.11152e-05
3.69376e-05
0.000103232
9.73734e-05
4.12976e-05
9.73622e-05
4.12972e-05
3.6938e-05
2.04429e-05
8.09435e-05
8.0935e-05
2.04437e-05
2.4036e-05
3.69357e-05
0.00010323
4.12974e-05
9.73645e-05
4.1297e-05
9.73536e-05
3.69362e-05
2.04419e-05
8.09235e-05
5.11096e-05
8.09152e-05
2.04427e-05
8.333e-05
2.18434e-05
2.18467e-05
2.18428e-05
2.18461e-05
8.33339e-05
0.000108569
4.90241e-05
8.01221e-05
0.000134419
4.90236e-05
0.000134403
0.00010858
0.00010857
4.90367e-05
8.01357e-05
0.000134452
0.000134435
4.90362e-05
0.00010858
2.40382e-05
5.11148e-05
0.000318323
0.000279364
0.000318287
0.00010739
0.000156217
0.000156189
0.000185976
0.000151939
0.000144373
0.000193117
0.000144334
0.000193049
0.000186062
0.000172331
0.000128032
0.000128001
0.000172417
0.000185971
0.000151937
0.000193115
0.000144365
0.000193047
0.000144327
0.000186056
0.000172321
0.000128021
0.000107372
0.000156183
0.000127991
0.000172408
0.000156155
0.000144746
0.000200498
0.000173014
0.000173041
0.000172994
0.000172967
0.000144766
0.000279374
0.000232241
0.000232253
0.000200553
0.000279373
0.000232236
0.000232236
0.000200423
0.000200567
0.000200612
0.000232216
0.00023219
0.000232204
0.000232177
0.000200559
0.000200603
0.00023224
0.0002322
0.000232226
0.000232182
0.000232206
0.00023223
0.000232192
0.000200566
0.000200602
0.00023223
0.000232234
0.00023221
0.00020059
0.000200456
0.00023221
0.000232183
0.000200447
0.000232231
0.000232185
0.000232189
0.000200438
0.000232211
0.000103245
5.11183e-05
5.11187e-05
0.000103236
2.40368e-05
2.40374e-05
0.00010324
5.11132e-05
5.11136e-05
0.000103231
0.000279362
0.000279369
0.000279363
0.000279369
0.000279355
0.000279359
0.000279355
0.000151976
0.00010739
0.000258685
0.000232234
0.000107405
0.000258687
0.000151938
2.40359e-05
2.40364e-05
0.000151974
0.000258692
0.000107391
0.000232243
0.000258694
0.000107405
0.000151939
8.01293e-05
8.01238e-05
0.000200662
8.01329e-05
8.01268e-05
5.11185e-05
0.000103236
2.40369e-05
5.11134e-05
0.00010323
0.000279363
0.000279359
0.000279356
0.000151974
0.00010739
0.000258685
0.000151938
0.000258683
2.4036e-05
0.000151969
0.000258683
0.000107389
0.000151935
0.000258687
8.0128e-05
8.01212e-05
0.00020069
8.0134e-05
8.0127e-05
2.4039e-05
2.40395e-05
2.40369e-05
2.40374e-05
8.01385e-05
8.01316e-05
0.000200665
8.01426e-05
8.01351e-05
2.40396e-05
2.4039e-05
2.40375e-05
2.40369e-05
0.000200464
8.01428e-05
8.0135e-05
8.01374e-05
8.013e-05
0.000103242
5.11126e-05
5.1113e-05
0.000103232
0.000151982
0.000107392
0.000258686
0.000232209
0.000107407
0.000258689
0.000151944
0.000151977
0.000107367
0.000258677
0.000232182
0.000107383
0.00025868
0.000151939
0.000103235
5.11188e-05
5.11184e-05
0.000103245
0.000103232
5.11131e-05
5.11126e-05
0.000103242
0.00015195
0.000232205
0.000107407
0.000258687
0.000107391
0.000258691
0.000151975
0.000151945
0.000232178
0.000107382
0.000258677
0.000107366
0.000258681
0.000151971
8.01165e-05
8.01387e-05
0.000200653
8.01201e-05
8.01425e-05
2.40382e-05
2.40387e-05
2.40375e-05
2.40368e-05
0.000200452
8.01203e-05
8.01426e-05
8.01147e-05
8.01374e-05
2.40388e-05
2.40382e-05
0.000151975
0.000107382
0.000258685
0.000232232
0.000107396
0.000258687
0.000151938
0.000103237
5.11092e-05
5.11096e-05
0.000103228
0.000151972
0.000258677
0.000107372
0.00023219
0.00025868
0.000107386
0.000151935
0.00010323
5.11137e-05
5.11132e-05
0.00010324
0.000151943
0.000232227
0.000107395
0.000258682
0.00010738
0.000258687
0.000151968
0.000103227
5.11097e-05
5.11093e-05
0.000103237
0.00015194
0.000232184
0.000258675
0.000107385
0.00025868
0.00010737
0.000151965
0.000103235
5.11144e-05
5.11147e-05
0.000103225
0.000151977
0.000258681
0.00010738
0.000232199
0.000258683
0.000107395
0.000151938
0.00010324
5.11104e-05
5.11108e-05
0.00010323
0.000151945
0.000232231
0.000107405
0.000258688
0.00010739
0.00025869
0.00015197
0.000103225
5.11149e-05
5.11144e-05
0.000103235
0.000151945
0.000232193
0.000258683
0.000107394
0.000258685
0.000107379
0.000151972
0.00010323
5.11109e-05
5.11105e-05
0.00010324
8.0123e-05
8.01367e-05
0.000200666
8.01263e-05
8.014e-05
2.40381e-05
2.40387e-05
2.40365e-05
2.40359e-05
0.000200464
8.0126e-05
8.01395e-05
8.01213e-05
8.01347e-05
2.40387e-05
2.40382e-05
0.000151967
0.000258683
0.000107373
0.000232221
0.000258685
0.000107387
0.000151932
0.000103234
5.11145e-05
5.11149e-05
0.000103224
0.000103225
5.11089e-05
5.11092e-05
0.000103215
0.000151942
0.000232236
0.000258688
0.000107404
0.000258694
0.000107389
0.000151966
0.000151935
0.000232214
0.000258678
0.000107385
0.000258684
0.000107371
0.000151959
0.000103223
5.1115e-05
5.11145e-05
0.000103233
0.000103213
5.11093e-05
5.11089e-05
0.000103224
2.40368e-05
2.40373e-05
2.40357e-05
2.40362e-05
0.000200459
8.01326e-05
8.0126e-05
8.01276e-05
8.01215e-05
2.40374e-05
2.40368e-05
2.40363e-05
2.40357e-05
2.40391e-05
2.4037e-05
8.0138e-05
8.01302e-05
5.11128e-05
0.000103232
0.000107392
0.000258686
0.000151943
0.000107366
0.000258676
0.000151938
8.01154e-05
8.0138e-05
2.40383e-05
0.00010738
0.00025868
0.000151935
5.11094e-05
0.000103228
0.000258672
0.00010737
0.000151933
0.000103239
5.11146e-05
0.000103226
0.000151975
0.00025868
0.000107379
0.00023221
0.000151939
0.000258685
0.000107397
0.000103243
5.11106e-05
0.000103231
5.11111e-05
8.01215e-05
8.0135e-05
2.40382e-05
0.000151962
0.000258674
0.00010737
0.000232223
0.000151927
0.000258671
0.000107388
0.000103236
5.11147e-05
0.000103223
0.000103226
5.1109e-05
0.000103213
5.11095e-05
2.40368e-05
2.40374e-05
2.40358e-05
2.40364e-05
3.69375e-05
4.1298e-05
9.73772e-05
0.000103235
4.12976e-05
9.73671e-05
3.69379e-05
2.04432e-05
5.11187e-05
8.09406e-05
8.09484e-05
2.04425e-05
2.04425e-05
8.09479e-05
5.11183e-05
8.09401e-05
2.04432e-05
3.69379e-05
0.000103245
4.12976e-05
9.73674e-05
4.12979e-05
9.73774e-05
3.69375e-05
2.40374e-05
2.40368e-05
3.69374e-05
9.73718e-05
4.12974e-05
0.000103231
9.73619e-05
4.1297e-05
3.69378e-05
2.04436e-05
5.11135e-05
8.09363e-05
8.09438e-05
2.04428e-05
2.04428e-05
8.09429e-05
5.11132e-05
8.09354e-05
2.04436e-05
3.69378e-05
0.000103241
9.73627e-05
4.1297e-05
9.73726e-05
4.12973e-05
3.69374e-05
2.40364e-05
2.40359e-05
8.33317e-05
2.1846e-05
2.18427e-05
2.18454e-05
2.18422e-05
8.33341e-05
0.000108575
0.000134429
8.01338e-05
4.9033e-05
0.000134444
4.90334e-05
0.000108567
0.000108579
0.000134408
8.0128e-05
4.90225e-05
0.000134422
4.90228e-05
0.000108571
0.000108563
4.90334e-05
8.01283e-05
0.000134439
0.000134424
4.9033e-05
0.000108572
0.000108567
4.90228e-05
8.01225e-05
0.000134416
0.000134402
4.90224e-05
0.000108576
8.33364e-05
2.18455e-05
2.18422e-05
2.18461e-05
2.18428e-05
8.33347e-05
2.04433e-05
8.09399e-05
5.11189e-05
2.04425e-05
8.09483e-05
3.69381e-05
0.000103246
4.12978e-05
9.73669e-05
3.69377e-05
4.12981e-05
9.73776e-05
2.40375e-05
2.04437e-05
8.09342e-05
5.11138e-05
2.04429e-05
8.09426e-05
3.6938e-05
0.000103241
9.73608e-05
4.12972e-05
3.69375e-05
9.73717e-05
4.12975e-05
2.40365e-05
8.33259e-05
2.18461e-05
2.18429e-05
2.18455e-05
2.18422e-05
8.333e-05
0.000108571
0.000134421
4.90331e-05
8.01332e-05
0.00010856
0.00013444
4.90336e-05
0.000108574
0.000134397
4.90225e-05
8.01262e-05
0.000108564
0.000134416
4.9023e-05
8.33301e-05
2.18455e-05
2.18422e-05
8.33266e-05
2.18461e-05
2.18428e-05
0.000108562
4.90339e-05
8.01287e-05
0.000134442
0.000134425
4.90335e-05
0.000108572
0.000108565
4.90231e-05
8.01216e-05
0.000134419
0.000134401
4.90226e-05
0.000108575
2.40395e-05
2.4039e-05
2.40374e-05
2.40369e-05
8.3337e-05
2.18465e-05
2.18432e-05
2.18459e-05
2.18425e-05
8.33403e-05
0.000108581
0.000134437
8.01432e-05
4.90361e-05
4.90365e-05
0.000134452
0.000108572
0.00010858
0.000134413
8.0136e-05
4.90234e-05
4.90238e-05
0.000134428
0.000108571
0.00010857
4.90365e-05
8.01377e-05
0.000134448
4.90361e-05
0.000108579
0.000134433
0.000108568
4.90238e-05
8.01305e-05
0.000134424
4.90234e-05
0.000108578
0.000134408
8.33414e-05
2.18459e-05
2.18426e-05
2.18465e-05
2.18432e-05
8.33384e-05
2.4039e-05
2.40395e-05
2.4037e-05
2.40375e-05
8.33395e-05
2.18459e-05
2.18425e-05
8.3336e-05
2.18465e-05
2.18432e-05
0.000108569
0.000134448
8.01375e-05
4.90366e-05
4.90362e-05
0.00013443
0.00010858
0.000108567
0.000134423
8.01299e-05
4.90239e-05
4.90235e-05
0.000134405
0.000108578
0.000108579
4.90361e-05
0.00013443
8.01425e-05
0.000108568
4.90365e-05
0.000134446
0.000108578
4.90234e-05
0.000134405
8.01348e-05
0.000108567
4.90238e-05
0.000134422
8.33353e-05
2.18465e-05
2.18432e-05
2.18459e-05
2.18426e-05
8.33388e-05
3.6936e-05
4.12979e-05
9.73655e-05
0.000103232
4.12975e-05
9.73557e-05
3.69364e-05
2.04425e-05
5.11129e-05
8.09183e-05
8.09259e-05
2.04417e-05
2.04417e-05
8.09253e-05
5.11126e-05
8.09178e-05
2.04425e-05
3.69364e-05
0.000103242
4.12975e-05
9.73561e-05
4.12978e-05
9.73659e-05
3.6936e-05
3.6938e-05
4.12977e-05
9.73667e-05
0.000103245
3.69376e-05
4.1298e-05
9.73768e-05
2.04425e-05
5.11184e-05
8.09476e-05
2.04433e-05
8.09395e-05
2.04432e-05
8.09397e-05
5.11187e-05
2.04425e-05
8.09476e-05
3.69376e-05
0.000103235
4.12981e-05
9.73769e-05
3.6938e-05
4.12977e-05
9.73664e-05
3.69364e-05
4.12976e-05
9.73553e-05
0.000103241
3.6936e-05
4.12979e-05
9.7365e-05
2.04418e-05
5.11127e-05
8.09249e-05
8.0917e-05
2.04425e-05
2.04425e-05
8.09172e-05
5.1113e-05
2.04418e-05
8.09249e-05
3.6936e-05
0.000103231
4.12979e-05
9.7365e-05
4.12976e-05
9.73549e-05
3.69365e-05
8.33341e-05
2.18431e-05
2.18462e-05
2.18425e-05
2.18456e-05
8.33371e-05
0.000108578
0.000134402
8.01209e-05
4.90229e-05
4.90232e-05
0.000134416
0.00010857
0.000108579
0.000134437
8.01432e-05
4.90347e-05
0.000134452
4.90351e-05
0.00010857
0.000108567
4.90232e-05
8.01153e-05
0.000134411
4.90228e-05
0.000134396
0.000108576
0.000108567
4.90351e-05
8.01378e-05
0.000134448
0.000134432
4.90347e-05
0.000108577
8.33386e-05
2.18425e-05
2.18456e-05
2.18431e-05
2.18462e-05
8.33359e-05
2.40387e-05
2.40382e-05
2.40369e-05
2.40374e-05
8.3336e-05
2.18425e-05
2.18456e-05
8.33327e-05
2.18431e-05
2.18462e-05
0.000108566
0.000134411
8.0115e-05
4.90234e-05
0.000134393
4.90229e-05
0.000108576
0.000108566
0.000134448
8.01375e-05
4.90352e-05
4.90348e-05
0.000134429
0.000108577
0.000108575
4.90229e-05
0.000134393
8.01199e-05
0.000134409
0.000108566
4.90233e-05
0.000108576
4.90347e-05
0.000134429
8.01424e-05
0.000108566
4.90351e-05
0.000134446
8.33317e-05
2.18431e-05
2.18462e-05
2.18425e-05
2.18456e-05
8.33352e-05
2.40382e-05
2.40388e-05
3.69355e-05
4.12971e-05
9.73619e-05
0.000103228
4.12968e-05
9.73523e-05
3.69359e-05
2.04425e-05
5.11096e-05
8.0915e-05
8.09226e-05
2.04418e-05
2.04418e-05
8.0922e-05
5.11092e-05
8.09146e-05
2.04426e-05
3.69359e-05
0.000103238
4.12968e-05
9.73526e-05
4.12971e-05
9.73625e-05
3.69355e-05
3.69379e-05
9.73611e-05
4.12971e-05
0.000103239
3.69374e-05
9.7371e-05
4.12974e-05
2.04429e-05
5.11133e-05
8.09421e-05
2.04436e-05
8.09341e-05
2.04436e-05
8.09346e-05
5.11136e-05
2.04428e-05
8.09422e-05
3.69375e-05
0.00010323
9.73709e-05
4.12975e-05
3.69379e-05
9.73604e-05
4.12971e-05
3.6936e-05
4.12969e-05
9.73517e-05
0.000103237
3.69356e-05
4.12972e-05
9.73614e-05
2.04419e-05
5.11093e-05
8.09217e-05
8.09138e-05
2.04426e-05
2.04426e-05
8.0914e-05
5.11096e-05
2.04418e-05
8.09216e-05
3.69356e-05
0.000103227
4.12972e-05
9.73615e-05
4.12969e-05
9.73514e-05
3.6936e-05
3.69373e-05
9.73638e-05
4.12969e-05
0.000103225
9.73522e-05
4.12965e-05
3.69378e-05
2.04438e-05
5.11147e-05
8.09292e-05
8.09372e-05
2.04429e-05
2.04429e-05
8.09367e-05
5.11144e-05
8.09287e-05
2.04438e-05
3.69378e-05
0.000103236
9.73524e-05
4.12965e-05
9.73641e-05
4.12969e-05
3.69373e-05
3.69361e-05
4.12976e-05
9.73657e-05
0.00010323
4.12973e-05
9.73556e-05
3.69365e-05
2.04428e-05
5.11108e-05
8.0916e-05
8.09238e-05
2.0442e-05
2.0442e-05
8.09233e-05
5.11104e-05
8.09155e-05
2.04428e-05
3.69365e-05
0.00010324
4.12973e-05
9.73558e-05
4.12976e-05
9.73659e-05
3.6936e-05
3.69379e-05
9.73518e-05
4.12966e-05
0.000103235
3.69374e-05
9.73634e-05
4.12969e-05
2.0443e-05
5.11145e-05
8.09365e-05
8.09281e-05
2.04438e-05
2.04438e-05
8.09283e-05
5.11148e-05
2.04429e-05
8.09364e-05
3.69374e-05
0.000103225
9.73635e-05
4.1297e-05
9.73516e-05
4.12966e-05
3.69379e-05
3.69365e-05
4.12973e-05
9.73553e-05
0.00010324
3.69361e-05
4.12977e-05
9.73654e-05
2.04421e-05
5.11105e-05
8.09231e-05
8.0915e-05
2.04429e-05
2.04428e-05
8.09151e-05
5.11108e-05
2.04421e-05
8.0923e-05
3.69361e-05
0.00010323
4.12977e-05
9.73656e-05
4.12974e-05
9.73551e-05
3.69366e-05
8.33336e-05
2.18433e-05
2.18466e-05
2.18427e-05
2.1846e-05
8.33366e-05
0.000108582
0.000134407
8.01272e-05
4.90234e-05
4.90238e-05
0.00013442
0.000108574
0.000108582
0.000134439
8.01411e-05
4.90358e-05
0.000134454
4.90362e-05
0.000108574
0.00010857
4.90238e-05
8.0122e-05
0.000134415
4.90234e-05
0.000134401
0.000108579
0.000108571
4.90362e-05
8.01355e-05
0.000134449
0.000134434
4.90358e-05
0.00010858
8.3338e-05
2.18428e-05
2.1846e-05
2.18434e-05
2.18466e-05
8.33354e-05
2.40387e-05
2.40381e-05
2.4036e-05
2.40365e-05
8.33355e-05
2.18427e-05
2.1846e-05
8.33322e-05
2.18433e-05
2.18466e-05
0.000108568
0.000134413
8.01212e-05
4.90239e-05
0.000134396
4.90235e-05
0.000108578
0.000108568
0.000134446
8.01345e-05
4.90363e-05
4.90359e-05
0.000134429
0.000108579
0.000108578
4.90234e-05
0.000134397
8.01259e-05
0.000134412
0.000108569
4.90238e-05
0.000108579
4.90358e-05
0.00013443
8.01395e-05
0.000108569
4.90362e-05
0.000134446
8.33312e-05
2.18434e-05
2.18466e-05
2.18427e-05
2.1846e-05
8.33347e-05
2.40382e-05
2.40387e-05
3.69378e-05
9.73734e-05
4.12968e-05
0.000103223
9.73639e-05
4.12965e-05
3.69383e-05
2.04442e-05
5.11148e-05
8.09371e-05
8.09445e-05
2.04434e-05
2.04434e-05
8.09437e-05
5.11145e-05
8.09363e-05
2.04442e-05
3.69382e-05
0.000103234
9.73646e-05
4.12965e-05
9.73742e-05
4.12968e-05
3.69378e-05
3.69349e-05
9.73556e-05
4.12963e-05
0.000103214
9.7345e-05
4.1296e-05
3.69353e-05
2.04423e-05
5.11092e-05
8.09147e-05
8.09222e-05
2.04416e-05
2.04416e-05
8.09212e-05
5.11089e-05
8.09138e-05
2.04423e-05
3.69353e-05
0.000103225
9.73458e-05
4.1296e-05
9.73564e-05
4.12963e-05
3.69349e-05
3.69383e-05
9.73631e-05
4.12965e-05
0.000103233
3.69379e-05
9.73726e-05
4.12968e-05
2.04435e-05
5.11146e-05
8.09429e-05
8.09351e-05
2.04442e-05
2.04442e-05
8.09355e-05
5.11149e-05
2.04435e-05
8.0943e-05
3.69379e-05
0.000103222
9.73723e-05
4.12969e-05
9.73624e-05
4.12965e-05
3.69383e-05
3.69353e-05
9.73439e-05
4.1296e-05
0.000103224
3.69349e-05
9.73545e-05
4.12964e-05
2.04416e-05
5.11089e-05
8.09203e-05
8.09124e-05
2.04424e-05
2.04423e-05
8.09129e-05
5.11092e-05
2.04416e-05
8.09205e-05
3.69349e-05
0.000103212
9.73541e-05
4.12964e-05
9.73431e-05
4.1296e-05
3.69354e-05
2.40373e-05
2.40368e-05
2.40362e-05
2.40357e-05
8.33323e-05
2.18454e-05
2.18421e-05
8.33295e-05
2.1846e-05
2.18427e-05
0.00010856
0.000134436
8.01276e-05
4.90335e-05
0.00010857
0.000134419
4.9033e-05
0.000108563
0.000134412
8.01211e-05
4.90229e-05
0.000108573
0.000134395
4.90224e-05
0.00010857
4.9033e-05
0.00013442
8.01325e-05
0.000108561
0.000134436
4.90334e-05
0.000108574
4.90224e-05
0.000134397
8.01261e-05
0.000108564
0.000134413
4.90228e-05
8.33279e-05
2.1846e-05
2.18428e-05
8.3331e-05
2.18454e-05
2.18421e-05
2.40368e-05
2.40373e-05
2.40357e-05
2.40363e-05
2.40396e-05
2.40375e-05
0.00010858
0.000134433
4.90362e-05
8.01434e-05
0.00010857
4.90367e-05
0.000134451
0.000108579
0.000134407
4.90235e-05
8.01354e-05
0.000108568
4.9024e-05
0.000134426
8.33383e-05
2.18459e-05
2.18426e-05
8.33346e-05
2.18465e-05
2.18432e-05
2.04426e-05
8.09174e-05
5.11132e-05
2.04418e-05
8.09256e-05
3.69365e-05
0.000103243
4.12977e-05
9.73554e-05
4.1298e-05
3.69361e-05
9.73658e-05
0.000108577
0.000134396
4.9023e-05
8.01219e-05
4.90235e-05
0.000108566
0.000134414
0.000108577
0.000134432
4.90349e-05
8.01431e-05
0.00013445
0.000108567
4.90351e-05
8.33345e-05
2.18425e-05
2.18456e-05
2.18432e-05
8.3331e-05
2.18463e-05
2.04427e-05
8.09142e-05
5.11098e-05
2.04419e-05
8.09224e-05
3.69361e-05
0.000103238
4.1297e-05
9.7352e-05
4.12973e-05
3.69357e-05
9.73627e-05
3.69375e-05
0.000103227
4.12971e-05
9.73531e-05
4.12967e-05
2.04439e-05
8.09286e-05
5.1115e-05
8.09372e-05
2.0443e-05
3.6938e-05
0.000103237
9.7352e-05
4.12967e-05
9.73644e-05
3.69375e-05
4.1297e-05
2.0443e-05
3.69363e-05
0.000103232
4.12978e-05
9.73682e-05
4.12975e-05
9.73571e-05
3.69367e-05
2.04429e-05
8.09154e-05
5.1111e-05
2.04421e-05
8.09239e-05
3.69366e-05
0.000103241
4.12974e-05
9.73556e-05
3.69362e-05
4.12978e-05
9.73666e-05
2.04422e-05
8.0925e-05
5.11107e-05
8.09164e-05
2.04429e-05
0.000108579
0.000134398
4.90235e-05
8.01264e-05
4.9024e-05
0.000108569
0.000134417
0.000108579
0.000134431
4.90361e-05
8.01401e-05
0.00013445
0.000108569
4.90366e-05
8.3334e-05
2.18428e-05
2.1846e-05
2.18434e-05
8.33304e-05
2.18467e-05
2.40388e-05
3.6938e-05
0.000103224
9.73746e-05
4.1297e-05
9.73639e-05
4.12966e-05
3.69385e-05
2.04443e-05
8.09352e-05
5.11151e-05
8.09433e-05
2.04435e-05
3.69384e-05
0.000103234
9.73626e-05
4.12966e-05
9.73731e-05
3.6938e-05
4.12969e-05
2.04435e-05
8.09442e-05
8.09359e-05
2.04443e-05
3.6935e-05
0.000103214
9.73563e-05
4.12965e-05
9.73445e-05
4.12961e-05
3.69355e-05
2.04424e-05
8.09125e-05
5.11094e-05
2.04416e-05
8.09207e-05
3.69354e-05
0.000103225
9.73432e-05
4.12961e-05
3.6935e-05
9.73549e-05
4.12965e-05
2.04417e-05
8.09217e-05
5.11091e-05
8.09133e-05
2.04424e-05
2.40374e-05
2.40369e-05
2.40363e-05
2.40358e-05
0.00031829
0.000318316
0.000279371
0.000318291
0.000318316
0.000389411
0.00038941
0.000144759
0.000173013
0.000172995
0.000200722
0.000173036
0.000173018
0.000144748
0.000318293
0.000318319
0.000389432
0.000389427
0.000144754
0.000172947
0.000172927
0.000200622
0.000144731
0.000172997
0.000172977
0.000144763
0.000173019
0.000173001
0.00020073
0.000173037
0.000173019
0.000144752
0.000144738
0.000200433
0.00017299
0.00017297
0.00017295
0.00017293
0.000144759
0.00014476
0.000172989
0.000173017
0.000200719
0.000173034
0.000173006
0.000144748
0.000144733
0.000200423
0.000172958
0.000172987
0.000172917
0.000172946
0.000144754
0.000144764
0.000172998
0.000173025
0.00020073
0.000173045
0.000173017
0.000144753
0.000144733
0.000200427
0.000172958
0.000172986
0.000172921
0.000172949
0.000144754
0.000144726
0.000200419
0.000172973
0.000172953
0.000144745
0.000172938
0.000172918
0.000144767
0.000172971
0.000172952
0.000200663
0.000144746
0.000173022
0.000173003
0.000144763
0.00017294
0.000172969
0.000200654
0.00017302
0.000144741
0.000172991
0.000144762
0.000172935
0.000172962
0.00020064
0.000173012
0.00014474
0.000172985
0.000318286
0.000318303
0.000279359
0.000318286
0.000318304
0.000389402
0.000389403
0.000318284
0.000318306
0.000279364
0.000318283
0.000318304
0.000389379
0.000389379
0.000318275
0.000318305
0.000279359
0.000318275
0.000318303
0.000389374
0.000389374
0.000279369
0.000318291
0.000318315
0.00031829
0.000318315
0.000389417
0.000389419
0.000279357
0.000318285
0.000318301
0.000318286
0.000318303
0.000389409
0.000389412
0.000279361
0.000318281
0.000318299
0.000318282
0.000318302
0.000389384
0.000389387
0.000279356
0.000318273
0.000318298
0.000318274
0.000318301
0.000389379
0.000389381
0.000186012
0.000144378
0.000193172
0.000151943
0.00014434
0.000193082
0.000186126
0.000172431
0.000156187
0.000107406
0.000128006
0.000156212
0.000128035
0.000172348
0.000172371
0.000128037
0.00010739
0.000156217
0.000156191
0.000128008
0.000172466
0.00018607
0.000151971
0.000144335
0.000193052
0.000144373
0.000193121
0.000185982
0.000186032
0.000193183
0.000144382
0.000151942
0.000193096
0.000144345
0.000186145
0.000172444
0.000156193
0.000107406
0.000128012
0.000156219
0.000128041
0.000172356
0.000172387
0.000128041
0.000107391
0.000156222
0.000156197
0.000128013
0.000172481
0.000186084
0.000151971
0.000193056
0.000144341
0.00019313
0.000144379
0.00018599
0.000144735
0.000200523
0.000173002
0.000172983
0.000172986
0.000172967
0.000144749
0.00031829
0.00031831
0.000318318
0.000389421
0.000389416
0.000318281
0.000318297
0.000318301
0.000389391
0.000389387
0.000318276
0.000318298
0.000279362
0.000318277
0.000318297
0.000389372
0.000389383
0.000185995
0.000151942
0.000144374
0.000193126
0.000144338
0.000193064
0.000186072
0.000172437
0.000156186
0.000128005
0.000107406
0.000172376
0.00015621
0.000128033
0.000186096
0.000151971
0.000144336
0.000193102
0.000186046
0.000144372
0.00019314
0.000185987
0.000151937
0.000193119
0.000144376
0.000193054
0.000144339
0.000186069
0.000172432
0.000156185
0.000128007
0.000107405
0.000172369
0.000156209
0.000128036
0.000186088
0.000151966
0.000193088
0.000144337
0.000186033
0.000193129
0.000144374
0.000172347
0.000128039
0.000128009
0.000172431
0.000144738
0.000200478
0.000173027
0.000173009
0.000172978
0.000172959
0.000144759
0.000144741
0.000200525
0.000173006
0.000172988
0.000144755
0.000172988
0.000172969
0.000144753
0.000200621
0.000172961
0.000172941
0.000144735
0.000172988
0.000172969
0.000186026
0.000144385
0.000193182
0.000151949
0.000144347
0.000193094
0.00018614
0.000172434
0.000156187
0.000107408
0.00012801
0.00012804
0.000156212
0.000172347
0.000172377
0.000128042
0.000107392
0.000156217
0.000128012
0.000156191
0.000172472
0.000186078
0.000151978
0.000144342
0.000193053
0.000144381
0.000193127
0.000185985
0.000186012
0.000144371
0.000193177
0.000151944
0.000144333
0.000193089
0.000186126
0.00017241
0.000156151
0.000107383
0.000127992
0.000128021
0.000156177
0.000172322
0.000172352
0.000128022
0.000107367
0.000156181
0.000127993
0.000172448
0.000156155
0.000186064
0.000151973
0.000144329
0.000193048
0.000144367
0.000193122
0.00018597
0.000186181
0.000144348
0.000193139
0.00015198
0.000186083
0.000144384
0.000193213
0.000172408
0.00015621
0.000107391
0.000128038
0.000156189
0.00012801
0.000172466
0.000172491
0.000128012
0.000156193
0.000107407
0.000156216
0.000172407
0.00012804
0.000186095
0.000151946
0.00014438
0.000193184
0.000144345
0.000193145
0.000186155
0.000186167
0.000144335
0.000193134
0.000151975
0.000186069
0.00014437
0.000193208
0.000172381
0.000156173
0.000107366
0.000128018
0.000127991
0.000156152
0.000172439
0.000172467
0.000127993
0.000156156
0.000107382
0.000172382
0.00012802
0.000156179
0.00018608
0.000151941
0.000144365
0.000193178
0.000144331
0.000193139
0.000186138
0.000144736
0.000200513
0.000172975
0.000173003
0.000172984
0.000172955
0.000144751
0.000144749
0.00020061
0.000172928
0.000172957
0.000172956
0.00014473
0.000172985
0.00018602
0.000144377
0.000193178
0.000151942
0.000144339
0.00019309
0.000186134
0.000172426
0.000156169
0.000107397
0.000128003
0.000128033
0.000156194
0.000172338
0.000172368
0.000128033
0.000107381
0.000156198
0.000128004
0.000156173
0.000172463
0.000186072
0.000151972
0.000144335
0.00019305
0.000144374
0.000193124
0.000185978
0.000186014
0.000193175
0.000144369
0.000151939
0.000193087
0.000144332
0.000186127
0.000172414
0.000156156
0.000107387
0.000127992
0.000128021
0.000156181
0.000172328
0.000172358
0.000128022
0.000107371
0.000156185
0.000127994
0.000172451
0.00015616
0.000186065
0.000151969
0.000193047
0.000144327
0.000193121
0.000144365
0.000185973
0.000186173
0.00014434
0.000193134
0.000151972
0.000186075
0.000144375
0.000193207
0.000172394
0.000156189
0.00010738
0.000128028
0.000156169
0.000128
0.000172449
0.000172481
0.000128003
0.000156174
0.000107395
0.000156196
0.000172397
0.000128031
0.000186084
0.000151938
0.00014437
0.000193173
0.000144336
0.000193137
0.00018614
0.000186166
0.000193131
0.000144333
0.00015197
0.000186069
0.000193204
0.000144367
0.000172383
0.000156175
0.00010737
0.000128017
0.00012799
0.000156155
0.000172437
0.000172468
0.000127993
0.000156161
0.000107385
0.000172386
0.00012802
0.000156182
0.000186078
0.000151936
0.00019317
0.000144362
0.000193134
0.000144329
0.000186133
0.000186007
0.00019317
0.000144375
0.000151944
0.000193081
0.000144337
0.000186121
0.000172421
0.000156175
0.000107395
0.000127999
0.0001562
0.000128029
0.000172339
0.000172361
0.00012803
0.000107379
0.000156204
0.000156178
0.000128001
0.000172456
0.000186066
0.000151972
0.000193052
0.000144332
0.000193119
0.00014437
0.00018598
0.000186172
0.000144342
0.000193133
0.000151975
0.000186073
0.000144377
0.000193208
0.00017241
0.000156212
0.000107389
0.000128034
0.000172473
0.000156191
0.000128006
0.00017249
0.000128008
0.000156194
0.000107405
0.000172404
0.000156218
0.000128036
0.000186092
0.000151941
0.000144373
0.00019319
0.000186159
0.000144339
0.000193144
0.000186168
0.000193132
0.000144339
0.000151975
0.000186069
0.000193207
0.000144375
0.0001724
0.000156197
0.000107379
0.000128027
0.000127999
0.000156177
0.000172462
0.00017248
0.000128001
0.00015618
0.000107394
0.000172394
0.000128029
0.000156203
0.000186089
0.000151942
0.00019319
0.000144371
0.000193143
0.000144336
0.000186157
0.000144741
0.000200527
0.000172984
0.000173011
0.000172994
0.000172966
0.000144755
0.000144751
0.000200618
0.000172936
0.000172964
0.000172963
0.000144733
0.000172991
0.000186015
0.000193176
0.000144366
0.000151935
0.000193089
0.000144328
0.000186128
0.000172419
0.000156161
0.000107388
0.000127993
0.000156186
0.000128022
0.000172332
0.000172362
0.000128022
0.000107372
0.000156189
0.000156164
0.000127994
0.000172456
0.000186066
0.000151964
0.000193049
0.000144325
0.000193123
0.000144363
0.000185973
0.000186183
0.000193138
0.000144346
0.000151971
0.000186086
0.000193211
0.00014438
0.00017241
0.000156211
0.000107388
0.000128036
0.000172464
0.000156191
0.000128009
0.000172497
0.000128012
0.000156198
0.000107404
0.000172415
0.000156218
0.000128039
0.000186094
0.000151937
0.000193176
0.000144375
0.000186148
0.00019314
0.000144341
0.000186166
0.000193132
0.000144328
0.000151964
0.000186069
0.000193204
0.000144363
0.000172385
0.000156177
0.00010737
0.000128016
0.000127989
0.000156157
0.000172439
0.000172472
0.000127992
0.000156165
0.000107386
0.00017239
0.00012802
0.000156185
0.000186077
0.00015193
0.000193169
0.000144358
0.000193134
0.000144324
0.000186131
0.000144744
0.000200612
0.000172955
0.000172935
0.000144727
0.00017298
0.000172961
0.000172432
0.000156184
0.000128008
0.000107408
0.000128037
0.00017237
0.000156209
0.000186091
0.000151973
0.000144341
0.000193095
0.000144377
0.00018604
0.000193133
0.000172404
0.000156147
0.000127989
0.000107383
0.000172342
0.000128017
0.000156172
0.000186074
0.000151968
0.000144327
0.000193088
0.000186022
0.000144362
0.000193127
0.000172417
0.000156163
0.000127998
0.000107396
0.000128028
0.000172353
0.000156188
0.000186077
0.000151968
0.000144332
0.000193083
0.000144369
0.000186023
0.000193124
0.000172405
0.00015615
0.000127989
0.000107386
0.000172342
0.000128017
0.000156174
0.000186071
0.000151966
0.000193081
0.000144325
0.000186018
0.000193122
0.000144361
0.00018599
0.000151942
0.000193125
0.000144372
0.000193062
0.000144335
0.000186067
0.000172425
0.000156172
0.000127998
0.000107395
0.000156195
0.000172366
0.000128027
0.000186092
0.000151972
0.000193101
0.000144333
0.000193139
0.000186043
0.00014437
0.000172339
0.00012803
0.00010738
0.000156202
0.000156174
0.000127999
0.000172419
0.000185969
0.00015193
0.000193112
0.000144359
0.000193048
0.000144321
0.000186051
0.000172407
0.000156152
0.000127987
0.000107386
0.000156175
0.000172343
0.000128016
0.00018607
0.000151959
0.000193081
0.00014432
0.000193123
0.000186016
0.000144356
0.000172322
0.000128019
0.000107372
0.000156183
0.000156155
0.000127989
0.000172406
0.0001392
0.000137114
0.000139238
5.00186e-05
9.38995e-05
2.36148e-05
7.38504e-05
7.38599e-05
2.36157e-05
9.39624e-05
5.00215e-05
2.01023e-05
5.00121e-05
7.6043e-05
7.59855e-05
2.01042e-05
2.36124e-05
9.7155e-05
0.000112804
7.37565e-05
4.79454e-05
0.00011249
4.7935e-05
9.7438e-05
9.71533e-05
0.000112848
7.37993e-05
4.79557e-05
4.79462e-05
0.00011254
9.74333e-05
7.87176e-05
2.14988e-05
2.15017e-05
2.14933e-05
2.14963e-05
7.89253e-05
2.36139e-05
2.0104e-05
5.00166e-05
7.61107e-05
7.60858e-05
2.01055e-05
0.000119451
0.000136873
0.000130042
0.00013006
0.000129799
0.000129816
0.000119805
0.000128562
0.000122261
9.37068e-05
0.000107767
0.000107551
0.000122086
0.000128736
0.000128617
0.000122317
9.37725e-05
0.000107873
0.000122136
0.000107635
0.0001288
0.000123771
0.000140125
0.000140138
0.00013766
0.000126749
0.000143727
0.00014367
0.000140598
0.000129531
0.000145919
0.000146058
0.000141999
0.000133179
0.000151232
0.00015112
0.000146574
0.000135284
0.000151067
0.000151251
0.000145246
0.000141458
0.000160646
0.000160588
0.000155595
0.000142521
0.000156607
0.000156801
0.000145217
0.000149039
0.000171075
0.000170574
0.000161157
0.000180925
0.000202026
0.000202186
0.000199693
0.000165564
0.000169333
0.000169405
0.000156867
0.000132143
0.000139532
0.000139491
0.000124615
0.000130163
0.000148101
0.000148127
0.000135154
0.000190013
0.000188364
0.000188401
0.000166551
0.000242964
0.000217907
0.000217876
0.000190173
0.00027182
0.000231124
0.00023111
0.000200383
0.000279733
0.000233202
0.000233216
0.000201666
0.000279699
0.000232195
0.000232216
0.000200541
0.000278341
0.000231573
0.000231576
0.000199915
0.000278331
0.000231783
0.000231779
0.000200142
0.000278999
0.000232118
0.000232121
0.000200387
0.000279295
0.000232227
0.00023223
0.0002005
0.000279357
0.000232231
0.000232236
0.000200436
0.000279395
0.000232261
0.000232268
0.000200557
0.000279389
0.000232249
0.000232257
0.000200448
0.000279383