/*--------------------------------*- C++ -*----------------------------------*\
| =========                 |                                                 |
| \\      /  F ield         | OpenFOAM: The Open Source CFD Toolbox           |
|  \\    /   O peration     | Version:  2312                                  |
|   \\  /    A nd           | Website:  www.openfoam.com                      |
|    \\/     M anipulation  |                                                 |
\*---------------------------------------------------------------------------*/
FoamFile
{
    version     2.0;
    format      ascii;
    arch        "LSB;label=32;scalar=64";
    class       volScalarField;
    location    "250";
    object      nut;
}
// * * * * * * * * * * * * * * * * * * * * * * * * * * * * * * * * * * * * * //

dimensions      [0 2 -1 0 0 0 0];

internalField   nonuniform List<scalar> 
43120
(
0.000150128
0.000101691
0.000101686
8.25742e-05
0.000146049
9.88735e-05
9.88713e-05
8.20878e-05
0.000142032
9.65664e-05
9.65663e-05
8.21406e-05
0.000138104
9.47782e-05
9.47781e-05
8.26794e-05
0.000134282
9.3506e-05
9.35055e-05
8.36514e-05
0.000130618
9.27374e-05
9.27359e-05
8.50082e-05
0.000127142
9.24512e-05
9.24534e-05
8.66903e-05
0.000123889
9.26262e-05
9.26284e-05
8.86302e-05
0.000120889
9.3229e-05
9.32256e-05
9.07857e-05
0.000118175
9.42164e-05
9.42226e-05
9.31145e-05
0.000115776
9.55565e-05
9.55634e-05
9.55531e-05
0.000113713
9.72201e-05
9.72225e-05
9.81021e-05
0.000112005
9.91645e-05
9.9171e-05
0.000100711
0.000110681
0.000101353
0.000101362
0.000103383
0.000109723
0.000103771
0.000103768
0.000106078
0.000109086
0.000106347
0.000106347
0.000108796
0.000108824
0.00010908
0.000109083
0.000111525
0.000108939
0.00011194
0.000111954
0.000114248
0.000109416
0.000114917
0.000114915
0.000116968
0.000110208
0.000117958
0.000117956
0.000119655
0.000111326
0.000121062
0.000121079
0.000122346
0.000112762
0.000124253
0.000124244
0.000124993
0.000114406
0.000127359
0.00012738
0.000127587
0.000116503
0.000130679
0.000130676
0.000130268
0.000118597
0.000133769
0.000133774
0.000132687
0.000121193
0.000137045
0.000137073
0.000135371
0.000140137
8.28618e-05
0.000102443
0.00010243
8.28664e-05
0.000102464
0.000102428
0.000102471
0.000102447
8.28499e-05
0.000102468
0.000102459
8.28513e-05
8.25682e-05
8.22598e-05
0.000101662
0.000101649
9.95027e-05
9.94915e-05
8.25773e-05
8.22601e-05
0.000101682
0.000101647
9.95233e-05
9.9492e-05
0.000101667
9.95304e-05
9.9508e-05
8.25577e-05
8.22567e-05
0.000101678
9.95304e-05
9.95191e-05
8.22442e-05
8.20921e-05
8.2205e-05
9.88453e-05
9.88331e-05
9.70682e-05
9.70576e-05
8.20929e-05
8.22029e-05
9.88656e-05
9.88336e-05
9.70884e-05
9.70585e-05
9.88518e-05
9.70943e-05
9.70732e-05
8.209e-05
8.21979e-05
9.88621e-05
9.70954e-05
9.70831e-05
8.21902e-05
8.215e-05
8.26421e-05
9.65388e-05
9.65282e-05
9.51503e-05
9.5141e-05
8.21491e-05
8.26412e-05
9.65585e-05
9.65302e-05
9.51697e-05
9.51405e-05
9.65459e-05
9.51754e-05
9.51553e-05
8.21476e-05
8.26339e-05
9.6555e-05
9.51759e-05
9.51642e-05
8.26313e-05
8.26898e-05
8.35241e-05
9.47528e-05
9.47426e-05
9.37473e-05
9.37414e-05
8.26884e-05
8.35268e-05
9.47717e-05
9.47438e-05
9.37659e-05
9.37397e-05
9.4759e-05
9.37737e-05
9.37543e-05
8.26824e-05
8.35198e-05
9.4767e-05
9.37731e-05
9.37621e-05
8.35192e-05
8.36571e-05
8.48072e-05
9.34804e-05
9.34727e-05
9.28556e-05
9.28494e-05
8.36603e-05
8.48043e-05
9.34983e-05
9.34731e-05
9.28731e-05
9.28489e-05
9.34869e-05
9.28793e-05
9.28644e-05
8.36534e-05
8.48026e-05
9.34939e-05
9.28805e-05
9.2871e-05
8.48038e-05
8.50106e-05
8.64249e-05
9.27117e-05
9.27064e-05
9.24567e-05
9.24494e-05
8.50114e-05
8.64208e-05
9.27284e-05
9.27053e-05
9.24729e-05
9.24516e-05
9.27198e-05
9.24773e-05
9.24661e-05
8.50065e-05
8.64224e-05
9.27255e-05
9.24812e-05
9.24713e-05
8.64205e-05
8.66929e-05
8.83105e-05
9.243e-05
9.24226e-05
9.25199e-05
9.25167e-05
8.66884e-05
8.83132e-05
9.24454e-05
9.24249e-05
9.2535e-05
9.25151e-05
9.24398e-05
9.25427e-05
9.25285e-05
8.66898e-05
8.83082e-05
9.24443e-05
9.2543e-05
9.25324e-05
8.83055e-05
8.86352e-05
9.04215e-05
9.26051e-05
9.25995e-05
9.30197e-05
9.30155e-05
8.86375e-05
9.04179e-05
9.26192e-05
9.26014e-05
9.30333e-05
9.30149e-05
9.26155e-05
9.30395e-05
9.30277e-05
8.86329e-05
9.04206e-05
9.26185e-05
9.30409e-05
9.30303e-05
9.04206e-05
9.07905e-05
9.27028e-05
9.3207e-05
9.32042e-05
9.39144e-05
9.39083e-05
9.07906e-05
9.26986e-05
9.32198e-05
9.32007e-05
9.39267e-05
9.39161e-05
9.32144e-05
9.39305e-05
9.39281e-05
9.07869e-05
9.27087e-05
9.32161e-05
9.3941e-05
9.39291e-05
9.27094e-05
9.31088e-05
9.51243e-05
9.41997e-05
9.41938e-05
9.5173e-05
9.51706e-05
9.31028e-05
9.51274e-05
9.42111e-05
9.41988e-05
9.51837e-05
9.51689e-05
9.42092e-05
9.51914e-05
9.51863e-05
9.3116e-05
9.51163e-05
9.42096e-05
9.51921e-05
9.51858e-05
9.51219e-05
9.55499e-05
9.76588e-05
9.55397e-05
9.55353e-05
9.67664e-05
9.6762e-05
9.55518e-05
9.7655e-05
9.55499e-05
9.55415e-05
9.67757e-05
9.67601e-05
9.55543e-05
9.67817e-05
9.67752e-05
9.55469e-05
9.76579e-05
9.55529e-05
9.6783e-05
9.67734e-05
9.76528e-05
9.81072e-05
0.000100247
9.72045e-05
9.72001e-05
9.86407e-05
9.86387e-05
9.81054e-05
0.000100248
9.72137e-05
9.72026e-05
9.8648e-05
9.86385e-05
9.7217e-05
9.86576e-05
9.86547e-05
9.81006e-05
0.000100257
9.72143e-05
9.86616e-05
9.86514e-05
0.000100253
0.000100712
0.000102907
9.91467e-05
9.91455e-05
0.00010077
0.000100761
0.000100713
0.000102899
9.91546e-05
9.91519e-05
0.000100777
0.000100765
9.91559e-05
0.000100777
0.000100782
0.00010072
0.000102901
9.91524e-05
0.000100784
0.000100777
0.000102907
0.000103378
0.000105598
0.000101341
0.000101334
0.000103117
0.000103117
0.000103369
0.000105607
0.000101348
0.00010134
0.000103123
0.00010313
0.000101358
0.000103132
0.000103129
0.000103377
0.000105603
0.000101352
0.000103144
0.000103125
0.0001056
0.00010608
0.000108309
0.000103759
0.000103756
0.000105655
0.000105648
0.000106086
0.0001083
0.000103762
0.000103742
0.000105663
0.00010567
0.000103768
0.000105669
0.000105673
0.000106082
0.000108309
0.000103763
0.000105682
0.000105664
0.000108309
0.000108795
0.000111039
0.000106331
0.000106325
0.000108375
0.000108371
0.000108789
0.000111039
0.000106334
0.000106319
0.000108379
0.000108379
0.00010635
0.000108381
0.000108382
0.000108795
0.00011104
0.00010634
0.000108395
0.000108378
0.000111039
0.000111527
0.000113757
0.000109069
0.000109067
0.000111212
0.000111207
0.000111526
0.000113758
0.000109073
0.000109066
0.000111213
0.000111208
0.000109082
0.000111226
0.000111227
0.000111529
0.000113758
0.000109074
0.000111233
0.000111218
0.000113759
0.00011425
0.000116481
0.000111937
0.000111929
0.000114144
0.000114134
0.000114248
0.000116471
0.000111942
0.000111941
0.000114147
0.000114143
0.000111942
0.000114153
0.000114164
0.000114248
0.000116485
0.000111939
0.000114165
0.000114152
0.000116485
0.000116959
0.000119177
0.000114895
0.000114892
0.000117166
0.000117167
0.000116958
0.000119185
0.000114895
0.000114893
0.000117169
0.000117177
0.000114923
0.000117178
0.000117173
0.000116967
0.000119174
0.000114906
0.000117192
0.000117166
0.000119172
0.000119664
0.000121875
0.000117956
0.000117947
0.00012029
0.000120273
0.000119662
0.00012186
0.000117958
0.000117937
0.00012029
0.00012029
0.000117959
0.000120291
0.000120304
0.000119658
0.00012188
0.000117953
0.000120313
0.000120295
0.000121878
0.000122343
0.000124515
0.000121052
0.000121042
0.000123407
0.000123403
0.000122337
0.00012452
0.000121053
0.000121058
0.000123407
0.000123413
0.000121068
0.000123421
0.000123419
0.00012235
0.000124517
0.000121059
0.000123429
0.00012341
0.000124517
0.000124993
0.000127145
0.000124242
0.000124234
0.000126596
0.000126582
0.000124994
0.000127138
0.000124241
0.000124223
0.000126595
0.00012659
0.000124254
0.000126596
0.000126604
0.000124994
0.000127144
0.000124244
0.000126612
0.000126595
0.000127142
0.00012759
0.000129813
0.000127356
0.000127341
0.00012986
0.00012985
0.000127583
0.000129811
0.000127355
0.00012736
0.000129859
0.000129863
0.000127362
0.00012987
0.000129872
0.000127591
0.000129817
0.000127354
0.000129884
0.000129863
0.000129815
0.000130266
0.00013222
0.000130674
0.000130664
0.000132886
0.000132869
0.000130265
0.000132212
0.000130673
0.000130654
0.000132884
0.000132882
0.000130688
0.00013289
0.000132889
0.000130267
0.000132225
0.000130679
0.000132903
0.000132882
0.000132216
0.000132692
0.000135016
0.000133752
0.000133737
0.000136345
0.000136327
0.000132685
0.000135013
0.00013375
0.000133754
0.000136343
0.000136332
0.000133759
0.000136332
0.000136351
0.0001327
0.000135012
0.00013375
0.000136356
0.000136346
0.000135016
0.000135375
0.000137115
0.000137065
0.000137048
0.000139208
0.000139197
0.000135369
0.000137111
0.000137062
0.000137053
0.000139207
0.000139207
0.000137062
0.000139234
0.000139223
0.000135365
0.000137121
0.000137058
0.000139226
0.000139214
0.000137119
0.000140111
0.000137668
0.000151149
0.000151144
0.000151139
0.000151139
2.36359e-05
0.000104133
6.4505e-05
7.00532e-05
4.95557e-05
6.90789e-05
4.95652e-05
2.36273e-05
2.36238e-05
7.0051e-05
4.95503e-05
6.90767e-05
4.95598e-05
0.000150124
0.000150119
0.000150119
0.000147054
0.00014705
0.000147046
0.000147045
6.70983e-05
6.57828e-05
0.000126168
0.00010094
6.61412e-05
6.6469e-05
0.000125138
2.36265e-05
2.3623e-05
6.70993e-05
0.000126151
6.57667e-05
0.000100938
6.61422e-05
0.000125139
6.64896e-05
6.10671e-05
6.10665e-05
8.24648e-05
6.15121e-05
6.151e-05
7.20527e-05
4.95767e-05
7.12047e-05
4.95851e-05
2.3615e-05
2.36118e-05
7.20501e-05
4.95713e-05
7.1203e-05
4.95796e-05
0.000146045
0.00014604
0.00014604
0.000143016
0.000143011
0.000143007
0.000143007
7.00392e-05
6.76818e-05
0.000122224
9.82457e-05
6.90398e-05
6.83504e-05
0.000121245
2.36142e-05
2.3611e-05
7.00576e-05
0.000122207
6.76697e-05
9.8245e-05
6.9027e-05
0.000121247
6.83657e-05
6.20245e-05
6.20235e-05
8.21525e-05
6.24269e-05
6.24254e-05
7.38021e-05
4.95952e-05
7.30592e-05
4.96025e-05
2.36037e-05
2.36008e-05
7.38002e-05
4.95897e-05
7.30568e-05
4.95971e-05
0.000142028
0.000142023
0.000142023
0.000139057
0.000139053
0.000139049
0.000139049
7.30556e-05
6.94776e-05
0.000118526
9.60665e-05
7.19965e-05
7.01256e-05
0.00011761
2.36029e-05
2.35999e-05
7.3074e-05
0.000118509
6.94675e-05
9.60675e-05
7.19814e-05
0.000117613
7.01396e-05
6.29035e-05
6.29017e-05
8.23562e-05
6.32689e-05
6.32672e-05
7.53421e-05
4.96113e-05
7.46845e-05
4.96176e-05
2.35934e-05
2.35907e-05
7.53394e-05
4.96059e-05
7.46811e-05
4.96123e-05
0.0001381
0.000138096
0.000138096
0.000135219
0.000135216
0.000135211
0.000135211
7.60618e-05
7.11711e-05
0.000115126
9.44083e-05
7.49631e-05
7.18008e-05
0.000114308
2.35926e-05
2.35899e-05
7.60773e-05
0.00011511
7.11603e-05
9.44097e-05
7.49494e-05
0.00011431
7.18155e-05
6.37106e-05
6.37087e-05
8.30326e-05
6.40481e-05
6.40459e-05
7.67089e-05
4.96254e-05
7.61174e-05
4.96311e-05
2.3584e-05
2.35816e-05
7.6705e-05
4.962e-05
7.61149e-05
4.96257e-05
0.000134278
0.000134274
0.000134274
0.000131513
0.000131511
0.000131506
0.000131507
7.90055e-05
7.27645e-05
0.000112032
9.32642e-05
7.78842e-05
7.33807e-05
0.000111307
2.35832e-05
2.35808e-05
7.90204e-05
0.000112016
7.27511e-05
9.32675e-05
7.78725e-05
0.00011131
7.33969e-05
6.44535e-05
6.44515e-05
8.41239e-05
6.4771e-05
6.47687e-05
7.79303e-05
4.96377e-05
7.74001e-05
4.96431e-05
2.35756e-05
2.35735e-05
7.79267e-05
4.96323e-05
7.7398e-05
4.96377e-05
0.000130616
0.000130611
0.000130611
0.000127985
0.000127982
0.000127979
0.000127979
8.18534e-05
7.42645e-05
0.000109324
9.26219e-05
8.07282e-05
7.48706e-05
0.000108698
2.35748e-05
2.35727e-05
8.18654e-05
0.000109309
7.42494e-05
9.26229e-05
8.07174e-05
0.0001087
7.48848e-05
6.51428e-05
6.51405e-05
8.55735e-05
6.54398e-05
6.54371e-05
7.90403e-05
4.96491e-05
7.85625e-05
4.9654e-05
2.35681e-05
2.35664e-05
7.90372e-05
4.96437e-05
7.85599e-05
4.96486e-05
0.000127139
0.000127135
0.000127136
0.000124669
0.000124668
0.000124663
0.000124664
8.45904e-05
7.56797e-05
0.00010702
9.24536e-05
8.34734e-05
7.62733e-05
0.000106499
2.35673e-05
2.35655e-05
8.46022e-05
0.000107006
7.56674e-05
9.24557e-05
8.34649e-05
0.000106502
7.62864e-05
6.57882e-05
6.57858e-05
8.7331e-05
6.60635e-05
6.6061e-05
8.00625e-05
4.96599e-05
7.96209e-05
4.96645e-05
2.35616e-05
2.35602e-05
8.00583e-05
4.96545e-05
7.96182e-05
4.96591e-05
0.000123886
0.000123883
0.000123883
0.000121621
0.00012162
0.000121615
0.000121616
8.72153e-05
7.70225e-05
0.000105144
9.27346e-05
8.61071e-05
7.75976e-05
0.000104732
2.35608e-05
2.35594e-05
8.72216e-05
0.000105131
7.70107e-05
9.27418e-05
8.60994e-05
0.000104736
7.76107e-05
6.63911e-05
6.63882e-05
8.93391e-05
6.66506e-05
6.66477e-05
8.10067e-05
4.96704e-05
8.05947e-05
4.9675e-05
2.35561e-05
2.3555e-05
8.1004e-05
4.9665e-05
8.05925e-05
4.96695e-05
0.000120887
0.000120882
0.000120883
0.000118823
0.000118822
0.00011882
0.00011882
8.97238e-05
7.82973e-05
0.000103709
9.34374e-05
8.86259e-05
7.88563e-05
0.00010341
2.35553e-05
2.35542e-05
8.97208e-05
0.000103697
7.82862e-05
9.3438e-05
8.86271e-05
0.000103414
7.88596e-05
6.69572e-05
6.69544e-05
9.15371e-05
6.72013e-05
6.71981e-05
8.18853e-05
4.96809e-05
8.14988e-05
4.96858e-05
2.35516e-05
2.35509e-05
8.1882e-05
4.96755e-05
8.14951e-05
4.96804e-05
0.000118173
0.00011817
0.00011817
0.000116346
0.000116346
0.000116341
0.000116344
9.2107e-05
7.95014e-05
0.000102718
9.45224e-05
9.10393e-05
8.0051e-05
0.000102532
2.35508e-05
2.355e-05
9.21057e-05
0.000102708
7.95038e-05
9.4523e-05
9.10433e-05
0.000102535
8.00462e-05
6.74949e-05
6.74921e-05
9.39032e-05
6.77206e-05
6.77178e-05
8.27069e-05
4.96919e-05
8.23492e-05
4.9697e-05
2.35481e-05
2.35478e-05
8.27041e-05
4.96865e-05
8.23462e-05
4.96916e-05
0.000115775
0.000115775
0.000115773
0.000114206
0.000114206
0.000114196
0.000114204
9.43856e-05
8.06531e-05
0.000102168
9.59451e-05
9.33648e-05
8.11761e-05
0.000102093
2.35473e-05
2.3547e-05
9.43862e-05
0.00010216
8.06559e-05
9.59553e-05
9.33666e-05
0.000102097
8.11817e-05
6.80038e-05
6.80005e-05
9.63808e-05
6.82191e-05
6.8216e-05
8.34846e-05
4.97036e-05
8.3146e-05
4.97091e-05
2.35456e-05
2.35457e-05
8.34808e-05
4.96982e-05
8.31427e-05
4.97037e-05
0.000113711
0.000113716
0.00011371
0.000112409
0.000112411
0.000112397
0.000112409
9.65736e-05
8.1758e-05
0.000102042
9.76827e-05
9.55864e-05
8.22506e-05
0.000102079
2.35447e-05
2.35448e-05
9.65696e-05
0.000102036
8.17531e-05
9.76859e-05
9.5588e-05
0.000102081
8.22541e-05
6.84841e-05
6.8481e-05
9.895e-05
6.86952e-05
6.86917e-05
8.42233e-05
4.97163e-05
8.39027e-05
4.97221e-05
2.35442e-05
2.35446e-05
8.42199e-05
4.9711e-05
8.38997e-05
4.97167e-05
0.000112005
0.000112013
0.000112002
0.000110955
0.000110952
0.000110957
0.000110954
9.86769e-05
8.28089e-05
0.000102333
9.96941e-05
9.7726e-05
8.32838e-05
0.000102467
2.35433e-05
2.35437e-05
9.8675e-05
0.00010233
8.28111e-05
9.96922e-05
9.77313e-05
0.000102469
8.32831e-05
6.89419e-05
6.89388e-05
0.000101565
6.91437e-05
6.91408e-05
8.49218e-05
4.97299e-05
8.46145e-05
4.97365e-05
2.35437e-05
2.35445e-05
8.49184e-05
4.97245e-05
8.46122e-05
4.9731e-05
0.000110681
0.000110665
0.000110683
0.000109863
0.000109863
0.000109909
0.000109863
0.000100699
8.38059e-05
0.000103023
0.000101928
9.97817e-05
8.42708e-05
0.000103216
2.35429e-05
2.35436e-05
0.000100691
0.000103017
8.38139e-05
0.000101937
9.97875e-05
0.00010322
8.42727e-05
6.93869e-05
6.93821e-05
0.000104255
6.95774e-05
6.95747e-05
8.55936e-05
4.9745e-05
8.53083e-05
4.97515e-05
2.35442e-05
2.35453e-05
8.55938e-05
4.97397e-05
8.53035e-05
4.97462e-05
0.000109725
0.000109672
0.000109724
0.000109173
0.000109173
0.00010921
0.000109175
0.000102645
8.47753e-05
0.000104082
0.000104372
0.000101781
8.52075e-05
0.000104335
2.35434e-05
2.35445e-05
0.000102643
0.000104075
8.47818e-05
0.000104391
0.000101793
0.000104349
8.52151e-05
6.98064e-05
6.98025e-05
0.00010695
6.99906e-05
6.99857e-05
8.6252e-05
4.97615e-05
8.59534e-05
4.97692e-05
2.35457e-05
2.35472e-05
8.62438e-05
4.97559e-05
8.59491e-05
4.97638e-05
0.000109088
0.000109062
0.000109092
0.000108862
0.000108862
0.000108867
0.000108863
0.000104546
8.57014e-05
0.000105448
0.000107013
0.000103708
8.61259e-05
0.000105815
2.35448e-05
2.35463e-05
0.000104544
0.000105438
8.57055e-05
0.000107022
0.000103707
0.000105819
8.61312e-05
7.02101e-05
7.02077e-05
0.000109675
7.03939e-05
7.03875e-05
8.68518e-05
4.97782e-05
8.65976e-05
4.9787e-05
2.3548e-05
2.35498e-05
8.68497e-05
4.97729e-05
8.65972e-05
4.97815e-05
0.000108827
0.000108828
0.000108828
0.0001089
0.000108903
0.000108881
0.000108905
0.000106368
8.65853e-05
0.000107112
0.000109786
0.000105568
8.69976e-05
0.000107593
2.35472e-05
2.3549e-05
0.000106356
0.00010711
8.65976e-05
0.000109793
0.000105584
0.000107596
8.69944e-05
7.05965e-05
7.0596e-05
0.000112398
7.07721e-05
7.07639e-05
8.74914e-05
4.97987e-05
8.72324e-05
4.98058e-05
2.35514e-05
2.35534e-05
8.74907e-05
4.97934e-05
8.72289e-05
4.98004e-05
0.000108937
0.000108965
0.00010894
0.00010925
0.000109248
0.000109258
0.000109257
0.000108145
8.74542e-05
0.000109081
0.000112675
0.000107401
8.78314e-05
0.000109627
2.35505e-05
2.35525e-05
0.000108178
0.000109087
8.74683e-05
0.000112693
0.000107405
0.000109647
8.78553e-05
7.09793e-05
7.09796e-05
0.000115125
7.11368e-05
7.11408e-05
8.80798e-05
4.98187e-05
8.77914e-05
4.98284e-05
2.35554e-05
2.35579e-05
8.80719e-05
4.98131e-05
8.77837e-05
4.98232e-05
0.00010942
0.000109409
0.000109427
0.000109961
0.000109967
0.000109987
0.000109966
0.000109911
8.82855e-05
0.00011133
0.000115661
0.000109148
8.8662e-05
0.000111905
2.35545e-05
2.3557e-05
0.000109878
0.000111314
8.82743e-05
0.000115666
0.000109124
0.000111897
8.86662e-05
7.13477e-05
7.13323e-05
0.00011783
7.14982e-05
7.14966e-05
8.86549e-05
4.98404e-05
8.84189e-05
4.98498e-05
2.35604e-05
2.35633e-05
8.86512e-05
4.98353e-05
8.84232e-05
4.98447e-05
0.00011021
0.000110191
0.000110211
0.000111036
0.000111032
0.00011103
0.000111043
0.000111582
8.90747e-05
0.000113775
0.000118721
0.000110849
8.94504e-05
0.000114416
2.35595e-05
2.35622e-05
0.000111586
0.000113779
8.90897e-05
0.000118751
0.000110889
0.000114438
8.94584e-05
7.1687e-05
7.16855e-05
0.000120532
7.18564e-05
7.18494e-05
8.92242e-05
4.98633e-05
8.89761e-05
4.98738e-05
2.35663e-05
2.35693e-05
8.92223e-05
4.98584e-05
8.8969e-05
4.98689e-05
0.000111324
0.000111349
0.000111335
0.000112332
0.000112338
0.000112363
0.000112342
0.000113219
8.98537e-05
0.000116432
0.000121846
0.000112533
9.0207e-05
0.000117106
2.35651e-05
2.35681e-05
0.000113217
0.000116439
8.9863e-05
0.000121845
0.000112528
0.000117105
9.02092e-05
7.20274e-05
7.20242e-05
0.000123188
7.21741e-05
7.21701e-05
8.9791e-05
4.98883e-05
8.95491e-05
4.98992e-05
2.35726e-05
2.35759e-05
8.97863e-05
4.98833e-05
8.95472e-05
4.98942e-05
0.000112768
0.000112743
0.000112772
0.000114013
0.00011401
0.000114003
0.000114021
0.000114839
9.06038e-05
0.000119279
0.000125036
0.000114152
9.09558e-05
0.000120024
2.35716e-05
2.35748e-05
0.000114836
0.000119269
9.06116e-05
0.000125062
0.000114156
0.000120035
9.09651e-05
7.23625e-05
7.23579e-05
0.00012586
7.25142e-05
7.25087e-05
9.03319e-05
4.99136e-05
9.00965e-05
4.99259e-05
2.35795e-05
2.35835e-05
9.03284e-05
4.99086e-05
9.00928e-05
4.99209e-05
0.000114404
0.000114436
0.000114413
0.00011595
0.000115955
0.000115978
0.000115961
0.000116381
9.13129e-05
0.000122241
0.000128189
0.000115726
9.16546e-05
0.000123017
2.35785e-05
2.35825e-05
0.000116382
0.000122252
9.1323e-05
0.000128189
0.000115734
0.00012302
9.16621e-05
7.26572e-05
7.26539e-05
0.000128443
7.28187e-05
7.28151e-05
9.08651e-05
4.99412e-05
9.0668e-05
4.99502e-05
2.35872e-05
2.35901e-05
9.08622e-05
4.99363e-05
9.06647e-05
4.99452e-05
0.000116505
0.000116488
0.000116516
0.000117976
0.000117977
0.000117976
0.000117983
0.000117911
9.20683e-05
0.000125504
0.0001314
0.000117301
9.23253e-05
0.00012628
2.35862e-05
2.35892e-05
0.000117915
0.000125503
9.20753e-05
0.000131431
0.000117303
0.0001263
9.23379e-05
7.30171e-05
7.30116e-05
0.000131034
7.30778e-05
7.30742e-05
9.14406e-05
4.99698e-05
9.11284e-05
4.99851e-05
2.35966e-05
2.36008e-05
9.14354e-05
4.99647e-05
9.11254e-05
4.99801e-05
0.000118605
0.000118613
0.000118607
0.000120581
0.000120569
0.000120588
0.000120593
0.000119404
9.26523e-05
0.000128668
0.000134691
0.000118695
9.31195e-05
0.000129577
2.35956e-05
2.35999e-05
0.000119392
0.00012866
9.26546e-05
0.000134686
0.000118692
0.000129571
9.31092e-05
7.32691e-05
7.32637e-05
0.000133678
7.3527e-05
7.3519e-05
9.18522e-05
4.99954e-05
9.17478e-05
5.00052e-05
2.36026e-05
2.36073e-05
9.18523e-05
4.99905e-05
9.17438e-05
5.00003e-05
0.000121184
0.000121198
0.0001212
0.000122995
0.000123003
0.000122997
0.000123009
0.000120751
9.33729e-05
0.000132206
0.000137701
0.000120286
9.3516e-05
0.000132994
2.36017e-05
2.36062e-05
0.000120774
0.000132231
9.34173e-05
0.000137718
0.000120313
0.000133021
9.35388e-05
7.35421e-05
7.3543e-05
0.00013595
7.34972e-05
7.34979e-05
0.000123779
2.36147e-05
9.3955e-05
2.36323e-05
2.36301e-05
6.10154e-05
6.1015e-05
4.95541e-05
6.89534e-05
4.9548e-05
6.89516e-05
6.55009e-05
0.000127146
6.56829e-05
6.54973e-05
0.000127139
6.56819e-05
2.363e-05
6.10081e-05
6.10192e-05
2.36316e-05
4.95336e-05
0.000104093
6.4508e-05
6.79079e-05
4.95487e-05
6.89499e-05
6.47488e-05
6.54976e-05
0.000127143
0.000128182
6.56818e-05
6.79062e-05
4.95447e-05
4.95352e-05
6.89483e-05
6.4748e-05
0.000103245
0.000127132
6.5496e-05
0.00012817
6.47909e-05
6.56808e-05
6.54835e-05
0.000127156
6.56813e-05
4.95499e-05
6.89597e-05
0.000127147
6.54988e-05
6.56805e-05
4.95457e-05
6.89519e-05
8.33792e-05
6.05217e-05
6.0526e-05
2.3638e-05
2.36292e-05
2.3633e-05
8.30569e-05
6.10105e-05
6.10163e-05
6.0565e-05
6.05688e-05
2.36314e-05
2.36351e-05
4.95386e-05
6.47485e-05
0.000103284
0.000127149
6.54952e-05
0.000128186
6.47981e-05
6.56822e-05
6.47464e-05
0.000127142
6.55095e-05
0.000128179
6.56809e-05
6.79028e-05
4.95498e-05
4.95402e-05
6.89582e-05
6.79009e-05
4.95441e-05
6.89563e-05
6.10231e-05
6.10215e-05
2.36301e-05
2.36289e-05
2.36296e-05
2.36261e-05
2.36275e-05
2.36239e-05
6.10642e-05
6.10639e-05
8.24684e-05
6.153e-05
6.1529e-05
2.36199e-05
2.36234e-05
2.36177e-05
2.36212e-05
8.22618e-05
6.19816e-05
6.19799e-05
6.15719e-05
6.15707e-05
7.00507e-05
4.95496e-05
6.90771e-05
4.9559e-05
6.70983e-05
6.57625e-05
0.000126151
0.000100913
6.61422e-05
6.64985e-05
0.000125133
6.70968e-05
6.57611e-05
0.000126145
0.0001009
6.61413e-05
6.64881e-05
0.000125127
7.01746e-05
4.95753e-05
4.95667e-05
7.10924e-05
7.0172e-05
4.95692e-05
4.95605e-05
7.10902e-05
6.75727e-05
0.000100196
6.7442e-05
0.000123157
6.67425e-05
0.000124151
6.85585e-05
6.7571e-05
0.000100184
6.74352e-05
0.000123151
6.67419e-05
0.000124145
6.85587e-05
6.10541e-05
6.10595e-05
8.24679e-05
6.15208e-05
6.15307e-05
2.36289e-05
2.36255e-05
2.36176e-05
2.36211e-05
8.22589e-05
6.19735e-05
6.19825e-05
6.15641e-05
6.15716e-05
2.36192e-05
2.36228e-05
6.70974e-05
6.57614e-05
0.000126149
0.000100933
6.61408e-05
6.64951e-05
0.000125131
7.00495e-05
4.95463e-05
6.9075e-05
4.95558e-05
6.70965e-05
0.000126136
6.57586e-05
0.000100899
6.61398e-05
0.000125119
6.64902e-05
7.01731e-05
4.95699e-05
4.95612e-05
7.10893e-05
6.7572e-05
0.000100216
6.74387e-05
0.000123155
6.67409e-05
0.000124149
6.85558e-05
7.01714e-05
4.9566e-05
4.95573e-05
7.10876e-05
6.7571e-05
0.000100184
0.000123144
6.74379e-05
0.000124137
6.67348e-05
6.85548e-05
7.00603e-05
4.95516e-05
6.90698e-05
4.95611e-05
6.70977e-05
0.000126154
6.57724e-05
0.000100914
6.61408e-05
0.000125135
6.64764e-05
7.00519e-05
4.95473e-05
6.90758e-05
4.95567e-05
6.75724e-05
0.000100226
6.74219e-05
0.000123162
6.67601e-05
0.000124169
6.85561e-05
7.01653e-05
4.95711e-05
4.95626e-05
7.10977e-05
6.75713e-05
0.000100197
0.00012316
6.74358e-05
0.000124154
6.67335e-05
6.85553e-05
7.01707e-05
4.95669e-05
4.95582e-05
7.10898e-05
6.1059e-05
6.10646e-05
8.24615e-05
6.152e-05
6.15255e-05
2.36287e-05
2.36251e-05
2.36168e-05
2.36203e-05
8.22566e-05
6.19762e-05
6.19816e-05
6.15619e-05
6.15669e-05
2.36189e-05
2.36224e-05
6.70978e-05
0.000126145
6.5763e-05
0.000100926
6.6141e-05
0.000125132
6.64864e-05
7.00591e-05
4.95514e-05
6.90726e-05
4.95608e-05
7.00563e-05
4.95457e-05
6.90709e-05
4.9555e-05
6.75715e-05
0.000100222
0.000123164
6.74374e-05
0.000124152
6.67428e-05
6.85655e-05
6.75707e-05
0.000100208
0.000123157
6.74455e-05
0.000124145
6.67233e-05
6.85541e-05
7.01647e-05
4.9571e-05
4.95623e-05
7.10975e-05
7.01624e-05
4.95653e-05
4.95565e-05
7.10951e-05
2.36274e-05
2.36238e-05
2.36261e-05
2.36226e-05
8.22461e-05
6.19848e-05
6.19831e-05
6.15564e-05
6.1555e-05
2.36177e-05
2.36212e-05
2.36165e-05
2.362e-05
2.36173e-05
2.36141e-05
2.36152e-05
2.3612e-05
6.20229e-05
6.20212e-05
8.21529e-05
6.24413e-05
6.24394e-05
2.36084e-05
2.36116e-05
2.36063e-05
2.36094e-05
8.20505e-05
6.28666e-05
6.28641e-05
6.24822e-05
6.24802e-05
7.20504e-05
4.95706e-05
7.12025e-05
4.95789e-05
7.0047e-05
6.76649e-05
0.000122206
9.822e-05
6.90344e-05
6.83749e-05
0.00012124
7.00475e-05
6.76614e-05
0.0001222
9.82081e-05
6.90313e-05
6.83661e-05
0.000121234
7.2159e-05
4.9594e-05
4.95863e-05
7.29592e-05
7.21566e-05
4.95879e-05
4.95802e-05
7.29568e-05
7.05037e-05
9.76309e-05
6.9275e-05
0.000119386
6.85823e-05
0.000120322
7.15547e-05
7.04998e-05
9.76197e-05
6.92664e-05
0.000119381
6.85819e-05
0.000120317
7.15554e-05
6.20127e-05
6.20198e-05
8.21478e-05
6.24318e-05
6.24399e-05
2.36166e-05
2.36135e-05
2.36061e-05
2.36094e-05
8.20448e-05
6.28575e-05
6.28667e-05
6.2474e-05
6.2481e-05
2.36078e-05
2.3611e-05
7.00425e-05
6.76636e-05
0.000122204
9.82404e-05
6.9037e-05
6.83713e-05
0.000121238
7.20485e-05
4.95673e-05
7.12012e-05
4.95757e-05
7.00417e-05
0.000122192
6.7662e-05
9.82073e-05
6.90358e-05
0.000121226
6.8365e-05
7.21572e-05
4.95886e-05
4.95808e-05
7.29554e-05
7.05063e-05
9.7651e-05
6.92714e-05
0.000119385
6.85803e-05
0.00012032
7.15488e-05
7.21554e-05
4.95847e-05
4.95769e-05
7.29536e-05
7.05048e-05
9.76186e-05
0.000119374
6.92693e-05
0.000120309
6.85727e-05
7.15477e-05
7.20591e-05
4.95725e-05
7.11946e-05
4.95809e-05
7.0045e-05
0.000122209
6.76722e-05
9.82241e-05
6.90335e-05
0.000121243
6.83571e-05
7.20511e-05
4.95683e-05
7.12003e-05
4.95766e-05
7.051e-05
9.76588e-05
6.92539e-05
0.000119392
6.86001e-05
0.000120341
7.15458e-05
7.21497e-05
4.95897e-05
4.95822e-05
7.29646e-05
7.05034e-05
9.76335e-05
0.00011939
6.92649e-05
0.000120326
6.8575e-05
7.15513e-05
7.21551e-05
4.95856e-05
4.95778e-05
7.29567e-05
6.2017e-05
6.20221e-05
8.21463e-05
6.24295e-05
6.24353e-05
2.36164e-05
2.36131e-05
2.36054e-05
2.36085e-05
8.20411e-05
6.286e-05
6.28659e-05
6.24703e-05
6.24761e-05
2.36075e-05
2.36107e-05
7.00438e-05
0.0001222
6.76629e-05
9.82347e-05
6.90353e-05
0.00012124
6.83663e-05
7.20598e-05
4.95724e-05
7.11959e-05
4.95807e-05
7.20572e-05
4.95667e-05
7.11942e-05
4.95749e-05
7.04971e-05
9.76555e-05
0.000119395
6.92702e-05
0.000120324
6.85808e-05
7.15609e-05
7.05061e-05
9.76433e-05
0.000119387
6.92731e-05
0.000120317
6.85656e-05
7.15467e-05
7.21504e-05
4.95897e-05
4.95819e-05
7.29626e-05
7.21484e-05
4.9584e-05
4.95762e-05
7.29596e-05
2.36151e-05
2.36118e-05
2.36139e-05
2.36106e-05
8.20435e-05
6.28638e-05
6.28621e-05
6.24678e-05
6.24662e-05
2.36062e-05
2.36093e-05
2.3605e-05
2.36082e-05
2.3606e-05
2.36031e-05
2.36039e-05
2.36009e-05
6.29053e-05
6.29028e-05
8.23573e-05
6.32788e-05
6.32761e-05
2.35979e-05
2.36008e-05
2.35958e-05
2.35986e-05
8.23508e-05
6.36789e-05
6.36756e-05
6.33183e-05
6.33156e-05
7.37997e-05
4.9589e-05
7.30567e-05
4.95964e-05
7.30637e-05
6.94628e-05
0.000118507
9.60403e-05
7.19903e-05
7.01469e-05
0.000117604
7.3064e-05
6.94578e-05
0.000118502
9.60309e-05
7.19861e-05
7.01384e-05
0.000117599
7.38952e-05
4.96103e-05
4.96035e-05
7.45956e-05
7.38928e-05
4.96042e-05
4.95974e-05
7.45933e-05
7.34731e-05
9.55796e-05
7.10004e-05
0.000115898
7.03189e-05
0.000116765
7.45705e-05
7.34689e-05
9.55706e-05
7.09917e-05
0.000115893
7.03178e-05
0.00011676
7.4571e-05
6.28945e-05
6.29024e-05
8.23543e-05
6.32693e-05
6.32777e-05
2.36053e-05
2.36024e-05
2.35956e-05
2.35985e-05
8.23482e-05
6.36692e-05
6.36781e-05
6.33099e-05
6.33169e-05
2.35973e-05
2.36001e-05
7.30601e-05
6.94609e-05
0.000118505
9.60602e-05
7.19918e-05
7.01432e-05
0.000117603
7.37984e-05
4.95859e-05
7.30549e-05
4.95931e-05
7.30592e-05
0.000118493
6.94597e-05
9.60312e-05
7.19902e-05
0.000117592
7.01375e-05
7.38941e-05
4.96049e-05
4.95981e-05
7.45913e-05
7.34765e-05
9.5599e-05
7.09963e-05
0.000115897
7.03168e-05
0.000116764
7.45647e-05
7.38922e-05
4.9601e-05
4.95942e-05
7.45895e-05
7.3475e-05
9.55692e-05
0.000115886
7.09922e-05
0.000116752
7.03095e-05
7.45633e-05
7.38084e-05
4.95909e-05
7.30491e-05
4.95982e-05
7.30614e-05
0.000118511
6.94667e-05
9.60471e-05
7.19894e-05
0.000117608
7.01329e-05
7.38005e-05
4.95868e-05
7.30547e-05
4.9594e-05
7.34805e-05
9.56074e-05
7.09797e-05
0.000115904
7.03368e-05
0.000116785
7.45617e-05
7.3886e-05
4.9606e-05
4.95993e-05
7.46009e-05
7.34733e-05
9.55844e-05
0.000115903
7.09874e-05
0.00011677
7.03149e-05
7.4567e-05
7.38914e-05
4.9602e-05
4.95951e-05
7.45931e-05
6.2899e-05
6.29047e-05
8.23577e-05
6.32674e-05
6.32738e-05
2.36051e-05
2.36021e-05
2.35949e-05
2.35976e-05
8.23485e-05
6.36697e-05
6.36759e-05
6.33062e-05
6.33124e-05
2.3597e-05
2.35998e-05
7.30606e-05
0.000118502
6.94566e-05
9.60565e-05
7.19895e-05
0.000117606
7.01412e-05
7.38102e-05
4.95908e-05
7.30484e-05
4.95981e-05
7.38075e-05
4.95852e-05
7.30462e-05
4.95925e-05
7.34691e-05
9.56045e-05
0.000115907
7.09946e-05
0.000116768
7.03181e-05
7.45769e-05
7.34771e-05
9.55932e-05
0.0001159
7.09951e-05
0.000116761
7.03053e-05
7.4564e-05
7.38884e-05
4.9606e-05
4.95992e-05
7.45995e-05
7.38863e-05
4.96003e-05
4.95935e-05
7.45966e-05
2.36038e-05
2.36008e-05
2.36026e-05
2.35996e-05
8.23484e-05
6.36713e-05
6.36695e-05
6.33071e-05
6.33054e-05
2.35957e-05
2.35985e-05
2.35945e-05
2.35973e-05
2.35957e-05
2.3593e-05
2.35935e-05
2.35908e-05
6.37171e-05
6.37138e-05
8.30372e-05
6.40556e-05
6.40523e-05
2.35884e-05
2.35908e-05
2.35862e-05
2.35887e-05
8.31206e-05
6.44242e-05
6.44205e-05
6.40921e-05
6.40887e-05
7.53396e-05
4.96052e-05
7.4682e-05
4.96116e-05
7.60709e-05
7.11578e-05
0.000115106
9.43836e-05
7.49572e-05
7.18215e-05
0.000114301
7.60708e-05
7.11519e-05
0.000115101
9.43749e-05
7.4953e-05
7.18119e-05
0.000114297
7.54235e-05
4.96245e-05
4.96185e-05
7.6039e-05
7.5421e-05
4.96184e-05
4.96124e-05
7.60367e-05
7.6427e-05
9.40485e-05