/*--------------------------------*- C++ -*----------------------------------*\
| =========                 |                                                 |
| \\      /  F ield         | OpenFOAM: The Open Source CFD Toolbox           |
|  \\    /   O peration     | Version:  2312                                  |
|   \\  /    A nd           | Website:  www.openfoam.com                      |
|    \\/     M anipulation  |                                                 |
\*---------------------------------------------------------------------------*/
FoamFile
{
    version     2.0;
    format      ascii;
    arch        "LSB;label=32;scalar=64";
    class       volScalarField;
    location    "250";
    object      p;
}
// * * * * * * * * * * * * * * * * * * * * * * * * * * * * * * * * * * * * * //

dimensions      [0 2 -2 0 0 0 0];

internalField   nonuniform List<scalar> 
43496
(
0.000754215
0.000754212
0.000756476
0.000754241
0.000754268
0.000756483
0.000754215
0.000754211
0.000754268
0.000756476
0.000756483
0.000754241
0.000754401
0.000754209
0.000754209
0.000754212
0.000754211
0.000758765
0.000758758
0.000754214
0.000754209
0.000758758
0.000758765
0.000754209
0.000758757
0.00075421
0.000758762
0.000754217
0.000758758
0.000758765
0.000758758
0.000754209
0.000754214
0.000758765
0.000758758
0.000754209
0.000758757
0.00075421
0.00075876
0.000758762
0.000754216
0.000758764
0.000754211
0.000754211
0.000758759
0.000758759
0.000754206
0.00075875
0.00075421
0.000758763
0.000754216
0.00075876
0.000758753
0.00075422
0.00075875
0.00075421
0.000758763
0.000754217
0.000758753
0.00075876
0.00075422
0.000758758
0.00075876
0.000756493
0.0007565
0.000756492
0.000758729
0.000754235
0.00075873
0.000758656
0.000758707
0.000754267
0.000754303
0.000758709
0.000758662
0.000754312
0.000758677
0.000754258
0.000758717
0.000754294
0.000758655
0.000758707
0.000754303
0.000754266
0.000758662
0.000758709
0.000754312
0.000758678
0.000754258
0.000758729
0.000754235
0.000758717
0.000754293
0.00075873
0.000758665
0.000758562
0.000754298
0.000754298
0.000758673
0.000758673
0.000754304
0.000802225
0.000802198
0.000802198
0.000804285
0.000765647
0.000765621
0.000765619
0.00076771
0.000804284
0.00077269
0.000802198
0.000802198
0.000774763
0.000774763
0.000804284
0.00077269
0.000802198
0.000802198
0.000774763
0.000774763
0.000802198
0.000774764
0.000774764
0.000804285
0.000772689
0.000802198
0.000774762
0.000774764
0.00077269
0.000767707
0.000765619
0.000765621
0.000767707
0.00076562
0.00076562
0.000765621
0.000767707
0.000765621
0.000790794
0.000804485
0.000790791
0.000804483
0.000804485
0.000790792
0.000790794
0.000804485
0.000790791
0.000804483
0.000802226
0.000802225
0.000802225
0.00077479
0.000774788
0.000774788
0.000774786
0.000790846
0.000804455
0.000802206
0.000793053
0.000790821
0.000793062
0.000804432
0.000804484
0.000790792
0.000790846
0.000802206
0.000804454
0.000793053
0.000793062
0.000790821
0.000804431
0.000804489
0.000804489
0.000790977
0.000790789
0.000790789
0.000767905
0.000767903
0.000767904
0.000767905
0.000767903
0.000765641
0.000765644
0.000765638
0.000754269
0.000767875
0.000765625
0.000767854
0.000756482
0.000767904
0.000754269
0.000765624
0.000767875
0.000767853
0.000756482
0.000767908
0.000767908
0.000754401
0.000754209
0.000754209
0.000804484
0.000790792
0.000804485
0.000790792
0.000804488
0.000804489
0.000790978
0.000790789
0.000790789
0.000772502
0.000786193
0.000772503
0.000786194
0.000785994
0.000772499
0.000772499
0.000786198
0.000786198
0.000790794
0.000804485
0.000790791
0.000804483
0.000790846
0.000804455
0.000802206
0.000793053
0.000790821
0.000793062
0.000804431
0.000790846
0.000804454
0.000802206
0.000793053
0.000790821
0.000793062
0.000804431
0.000786191
0.000772501
0.000786194
0.000772506
0.000786191
0.000772502
0.000786194
0.000772506
0.000786139
0.000783908
0.000772532
0.000774769
0.000786163
0.000783916
0.000772561
0.000786139
0.000783908
0.000772533
0.000774769
0.000786163
0.000783916
0.000772561
0.000804489
0.000804489
0.000790978
0.00079079
0.000790789
0.000804485
0.000790792
0.000772502
0.000786194
0.000785994
0.000772499
0.000772499
0.000786198
0.000786198
0.000772503
0.000786194
0.000790846
0.000804455
0.000802206
0.000793053
0.000790821
0.000793062
0.000804431
0.000790794
0.000804485
0.000790791
0.000804483
0.000790846
0.000802206
0.000804455
0.000793053
0.000793062
0.000790821
0.000804431
0.000786191
0.000772502
0.000786194
0.000772506
0.000786139
0.000783908
0.000772533
0.00077477
0.000786164
0.000783916
0.000772561
0.000786191
0.000772502
0.000786194
0.000772506
0.000786139
0.000783908
0.00077477
0.000772533
0.000783916
0.000786164
0.000772562
0.000790794
0.000804485
0.000790791
0.000804483
0.000790846
0.000802206
0.000804455
0.000793054
0.000793062
0.000790821
0.000804432
0.000790794
0.000804485
0.000790791
0.000804483
0.000786139
0.000783908
0.000772533
0.00077477
0.000786164
0.000783917
0.000772561
0.000786191
0.000772502
0.000786194
0.000772506
0.000786139
0.000783908
0.00077477
0.000772533
0.000783917
0.000786164
0.000772561
0.000786191
0.000772502
0.000786194
0.000772506
0.000804489
0.000804489
0.000790977
0.000790789
0.000790789
0.000804484
0.000790792
0.000772503
0.000786194
0.000785994
0.000772499
0.000772499
0.000786198
0.000786198
0.000772503
0.000786194
0.000790846
0.000802206
0.000804455
0.000793053
0.000793062
0.000790821
0.000804431
0.000790794
0.000804485
0.000790791
0.000804482
0.000790795
0.000804485
0.000790791
0.000804482
0.000786139
0.000783907
0.000774768
0.000772532
0.000783915
0.000786164
0.000772561
0.000786139
0.000783908
0.000774768
0.000772533
0.000783915
0.000786164
0.000772561
0.000786191
0.000772501
0.000786194
0.000772506
0.000786191
0.000772502
0.000786194
0.000772507
0.000804484
0.000790792
0.000804484
0.000790793
0.000785995
0.000772499
0.0007725
0.000786198
0.000786198
0.000772503
0.000786194
0.000772503
0.000786194
0.000767904
0.000767904
0.000767908
0.000767908
0.000767905
0.000767903
0.000767875
0.000765625
0.000767853
0.000767875
0.000765625
0.000767854
0.000767908
0.000767908
0.000767904
0.000767875
0.000765625
0.000767854
0.000767905
0.000767903
0.000765625
0.000767875
0.000767854
0.000754216
0.000767905
0.000767903
0.000754269
0.000765625
0.000767875
0.000756479
0.000767854
0.000756483
0.000754242
0.000754216
0.000767905
0.000767903
0.000754211
0.000767908
0.000767908
0.000767904
0.000754269
0.000765624
0.000767875
0.000756479
0.000767853
0.000756482
0.000754241
0.000754216
0.000767905
0.000767903
0.000754216
0.000767905
0.000767903
0.000754211
0.000767904
0.000754212
0.000767904
0.000754212
0.000795343
0.000790788
0.000790793
0.000795336
0.000795344
0.000795336
0.000790788
0.000799941
0.000799936
0.000804488
0.000799935
0.000804483
0.000795336
0.000790789
0.000795339
0.000795341
0.000790796
0.000799934
0.00079994
0.000804491
0.000804483
0.000799933
0.000799939
0.00080449
0.000799938
0.000795339
0.000795343
0.000790793
0.000790788
0.000795336
0.000795336
0.000795344
0.000790788
0.000799942
0.000799936
0.000804488
0.000799935
0.000804483
0.000795336
0.00079079
0.000795339
0.000795341
0.000790796
0.000799934
0.00079994
0.000804483
0.000804491
0.000799939
0.000799933
0.00080449
0.000799938
0.000795339
0.000795346
0.000790792
0.000790792
0.00079534
0.00079534
0.000790787
0.000799946
0.000804479
0.000799935
0.000804486
0.000799943
0.000799937
0.000804476
0.000799946
0.000804479
0.000799935
0.000804486
0.000799943
0.000799936
0.000804476
0.000795331
0.000790791
0.000795343
0.000790798
0.000795334
0.000795341
0.000790801
0.000795332
0.000790791
0.000795343
0.000790798
0.000795335
0.000795341
0.000790801
0.000799933
0.000804486
0.000804486
0.000799938
0.000799938
0.000804491
0.000763362
0.000767908
0.000763356
0.000767903
0.000763356
0.000763355
0.000763361
0.000767911
0.000767904
0.00076791
0.000763355
0.00076336
0.000763357
0.000763362
0.000767908
0.000763356
0.000767903
0.000763356
0.000763355
0.000763361
0.000767904
0.000767911
0.00076791
0.00076336
0.000763355
0.000763357
0.000758764
0.000754211
0.000754211
0.000758759
0.000758759
0.000754206
0.000763365
0.000767898
0.000767905
0.000763354
0.000767895
0.000763361
0.000763355
0.000763364
0.000767899
0.000767905
0.000763354
0.000767895
0.000763361
0.000763355
0.000763351
0.000767904
0.000767904
0.000767909
0.000763356
0.000763356
0.000758751
0.000754211
0.000758763
0.000754217
0.000758753
0.00075876
0.000754221
0.00075875
0.00075421
0.000758763
0.000754215
0.000758753
0.00075876
0.000754219
0.000799938
0.000795339
0.000799938
0.000795339
0.000795345
0.000790792
0.000790792
0.00079534
0.00079534
0.000790787
0.000799947
0.000804479
0.000799935
0.000804486
0.000799936
0.000799943
0.000804476
0.000799947
0.00080448
0.000799935
0.000804486
0.000799936
0.000799943
0.000804476
0.000795331
0.000790791
0.000795343
0.000790798
0.000795341
0.000790801
0.000795334
0.000795331
0.000790791
0.000795343
0.000790798
0.000795341
0.000790801
0.000795334
0.000799933
0.000804486
0.000804485
0.000799937
0.000799937
0.000804491
0.000777049
0.000781647
0.000777049
0.000781648
0.000781642
0.000786195
0.000786195
0.0007862
0.000781646
0.000781646
0.00077704
0.000772506
0.000777053
0.0007725
0.00077705
0.000777043
0.00077251
0.00077704
0.000772506
0.000777053
0.0007725
0.00077705
0.000777044
0.00077251
0.000781655
0.000786195
0.000786189
0.000781644
0.000786186
0.000781646
0.000781652
0.000781655
0.000786195
0.000786189
0.000781644
0.000786186
0.000781646
0.000781652
0.000777054
0.000772501
0.000772501
0.000777049
0.000777049
0.000772496
0.000795343
0.000790788
0.000790793
0.000795336
0.000795344
0.000795336
0.000790788
0.000799941
0.000799936
0.000804488
0.000799935
0.000804483
0.000795336
0.000790789
0.000795339
0.000795342
0.000790796
0.000799934
0.00079994
0.000804491
0.000804483
0.000799933
0.000799939
0.00080449
0.000781644
0.000786199
0.000786192
0.00078165
0.000786198
0.000781644
0.000781649
0.000777048
0.00077705
0.000772501
0.000772508
0.000777052
0.000781652
0.000786196
0.000781646
0.000786191
0.000781645
0.000777055
0.000777048
0.0007725
0.000772505
0.0007725
0.000777055
0.000777048
0.000781644
0.000786199
0.000786192
0.00078165
0.000786198
0.000781644
0.000781649
0.000777048
0.00077705
0.000772501
0.000777053
0.000772508
0.000781652
0.000786197
0.000781646
0.000786192
0.000781645
0.000777055
0.000777048
0.0007725
0.000772505
0.000777055
0.000777048
0.0007725
0.000795345
0.000790792
0.000790792
0.00079534
0.00079534
0.000790787
0.000799947
0.00080448
0.000799935
0.000804486
0.000799937
0.000799943
0.000804477
0.000799947
0.00080448
0.000799935
0.000804486
0.000799943
0.000799937
0.000804477
0.000795332
0.000790791
0.000795343
0.000790798
0.000795341
0.000795335
0.000790801
0.000795331
0.000790791
0.000795343
0.000790798
0.000795335
0.000795341
0.000790801
0.000799933
0.000804486
0.000804486
0.000799938
0.000799938
0.000804491
0.000799938
0.000795339
0.000777049
0.000781647
0.000781642
0.000786195
0.000786195
0.0007862
0.000781647
0.000781647
0.00077704
0.000772507
0.000777053
0.0007725
0.000777044
0.00077705
0.00077251
0.00077704
0.000772507
0.000777053
0.000772501
0.00077705
0.000777044
0.00077251
0.000781655
0.000786196
0.000786189
0.000781644
0.000781652
0.000786186
0.000781646
0.000781655
0.000786195
0.000786189
0.000781644
0.000786186
0.000781646
0.000781652
0.000777054
0.000772501
0.000772501
0.000777049
0.000777049
0.000772496
0.000777049
0.000781647
0.000795343
0.000790788
0.000790793
0.000795336
0.000795344
0.000795336
0.000790788
0.000799941
0.000799936
0.000804488
0.000799935
0.000804483
0.000795336
0.000790789
0.000795339
0.000795342
0.000790796
0.000799934
0.00079994
0.00080449
0.000804483
0.000799933
0.000799939
0.00080449
0.000781644
0.000786192
0.000786199
0.00078165
0.000786198
0.000781649
0.000781644
0.000777048
0.00077705
0.000772501
0.000772508
0.000777053
0.000781652
0.000786197
0.000781646
0.000786192
0.000781645
0.000777055
0.000777048
0.000772506
0.0007725
0.0007725
0.000777048
0.000777056
0.000781644
0.000786199
0.000786192
0.00078165
0.000786198
0.000781644
0.000781649
0.000777048
0.00077705
0.000772501
0.000777053
0.000772508
0.000781652
0.000786197
0.000781646
0.000786192
0.000781645
0.000777055
0.000777048
0.0007725
0.000772505
0.000777056
0.000777048
0.0007725
0.000795343
0.000790794
0.000790788
0.000795336
0.000795336
0.000795344
0.000790788
0.000799942
0.000799936
0.000804488
0.000799936
0.000804483
0.000795337
0.00079079
0.000795339
0.000795341
0.000790796
0.000799934
0.00079994
0.000804483
0.000804491
0.00079994
0.000799934
0.00080449
0.000795343
0.000790788
0.000790793
0.000795336
0.000795344
0.000795336
0.000790788
0.000799942
0.000799936
0.000804488
0.000799935
0.000804483
0.000795336
0.00079079
0.000795339
0.000795342
0.000790796
0.000799934
0.00079994
0.000804491
0.000804483
0.000799934
0.000799939
0.00080449
0.000781644
0.000786191
0.000786199
0.00078165
0.000786198
0.00078165
0.000781643
0.000777048
0.00077705
0.000772501
0.000777052
0.000772507
0.000781651
0.000786196
0.000781646
0.000786192
0.000781645
0.000777055
0.000777047
0.000772506
0.0007725
0.000777047
0.000777055
0.0007725
0.000781644
0.000786199
0.000786191
0.00078165
0.000786198
0.000781643
0.000781649
0.000777048
0.00077705
0.000772501
0.000777052
0.000772508
0.000781652
0.000786196
0.000781646
0.000786191
0.000781645
0.000777055
0.000777047
0.0007725
0.000772505
0.000777055
0.000777048
0.0007725
0.000795345
0.000790792
0.000790792
0.00079534
0.00079534
0.000790787
0.000799946
0.00080448
0.000799934
0.000804486
0.000799936
0.000799942
0.000804477
0.000799946
0.000804479
0.000799935
0.000804486
0.000799943
0.000799936
0.000804476
0.000795332
0.000790791
0.000795343
0.000790797
0.000795341
0.000795335
0.000790801
0.000795331
0.000790791
0.000795343
0.000790797
0.000795334
0.000795341
0.000790801
0.000799933
0.000804485
0.000804486
0.000799938
0.000799937
0.000804491
0.000799938
0.000795339
0.000777049
0.000781647
0.000781642
0.000786195
0.000786195
0.0007862
0.000781647
0.000781647
0.00077704
0.000772506
0.000777053
0.0007725
0.000777044
0.00077705
0.000772509
0.00077704
0.000772507
0.000777053
0.0007725
0.00077705
0.000777044
0.000772509
0.000781655
0.000786196
0.00078619
0.000781644
0.000781652
0.000786186
0.000781646
0.000781655
0.000786196
0.000786189
0.000781644
0.000786186
0.000781646
0.000781652
0.000777054
0.000772501
0.000772501
0.000777049
0.000777049
0.000772496
0.000777049
0.000781647
0.000795343
0.000790793
0.000790788
0.000795336
0.000795336
0.000795344
0.000790788
0.000799941
0.000799936
0.000804488
0.000799935
0.000804483
0.000795336
0.000790789
0.000795339
0.000795341
0.000790796
0.000799934
0.00079994
0.000804483
0.00080449
0.000799939
0.000799933
0.00080449
0.000795343
0.000790794
0.000790788
0.000795336
0.000795336
0.000795344
0.000790788
0.000799941
0.000799936
0.000804488
0.000799935
0.000804483
0.000795336
0.00079079
0.000795339
0.000795342
0.000790796
0.000799934
0.00079994
0.000804483
0.00080449
0.000799939
0.000799933
0.00080449
0.000781644
0.000786192
0.000786199
0.00078165
0.000786198
0.000781649
0.000781644
0.000777048
0.00077705
0.000772501
0.000777053
0.000772508
0.000781652
0.000786197
0.000781646
0.000786192
0.000781645
0.000777055
0.000777047
0.000772505
0.0007725
0.000777048
0.000777056
0.0007725
0.000781644
0.000786191
0.000786199
0.000781651
0.000786198
0.00078165
0.000781644
0.000777048
0.00077705
0.000772501
0.000777053
0.000772508
0.000781652
0.000786197
0.000781646
0.000786192
0.000781645
0.000777055
0.000777047
0.000772506
0.0007725
0.000777048
0.000777056
0.000772501
0.000799938
0.000795339
0.000799938
0.000795339
0.000781642
0.000786195
0.000786195
0.0007862
0.000781647
0.000781647
0.000777041
0.000772507
0.000777053
0.000772501
0.00077251
0.000777044
0.00077705
0.000777041
0.000772508
0.000777053
0.000772501
0.00077251
0.000777045
0.000777051
0.000781656
0.000786196
0.000786189
0.000781644
0.000786186
0.000781653
0.000781646
0.000781656
0.000786196
0.00078619
0.000781645
0.000786186
0.000781653
0.000781646
0.000777055
0.000772501
0.000772502
0.000772496
0.00077705
0.00077705
0.000777049
0.000781648
0.000777049
0.000781648
0.000763357
0.000763357
0.000763365
0.000767898
0.000767905
0.000763354
0.000767894
0.000763355
0.000763361
0.000763365
0.000767898
0.000767905
0.000763354
0.000767894
0.000763355
0.000763361
0.000763351
0.000767904
0.000767904
0.000767909
0.000763356
0.000763356
0.000763363
0.000767908
0.000763357
0.000767903
0.000763356
0.000763355
0.000763361
0.000767911
0.000767904
0.000763355
0.00076791
0.00076336
0.000763365
0.000767898
0.000767905
0.000763354
0.000763355
0.000767895
0.000763361
0.000763365
0.000767898
0.000767905
0.000763354
0.000763362
0.000767895
0.000763356
0.000763351
0.000767904
0.000767904
0.000763356
0.000767909
0.000763356
0.000763362
0.000767908
0.000763356
0.000767903
0.000763356
0.000763355
0.000763361
0.000767911
0.000767904
0.000763355
0.00076791
0.00076336
0.000758765
0.000758758
0.000754209
0.000758758
0.000758766
0.000763363
0.000767908
0.000763357
0.000763357
0.000767903
0.000763356
0.000763362
0.000767903
0.000767911
0.000763361
0.000767911
0.000763355
0.000758758
0.000758765
0.000758758
0.000754209
0.000754215
0.000758766
0.000758758
0.000754209
0.000763363
0.000767908
0.000763357
0.000767903
0.000763356
0.000763356
0.000763362
0.000767911
0.000767904
0.000767911
0.000763355
0.000763361
0.000758758
0.00075421
0.00075876
0.000758763
0.000754217
0.000763364
0.000767899
0.000767905
0.000763354
0.000763355
0.000767895
0.000763361
0.000763364
0.000767898
0.000767905
0.000763354
0.000763361
0.000767895
0.000763355
0.000763351
0.000767904
0.000767904
0.000763356
0.000767909
0.000763356
0.000763357
0.000758765
0.000758757
0.000754214
0.000754209
0.000758758
0.000758765
0.000754209
0.000763362
0.000767908
0.000763356
0.000763356
0.000767903
0.000763355
0.000763361
0.000767904
0.000767911
0.00076336
0.00076791
0.000763355
0.000758757
0.00075421
0.000758762
0.000754217
0.000758764
0.000758757
0.000754215
0.000754209
0.000758758
0.000758765
0.000754209
0.000763362
0.000767908
0.000763356
0.000767903
0.000763356
0.000763355
0.000763362
0.000767903
0.000767911
0.00076791
0.000763361
0.000763355
0.000758757
0.00075421
0.00075876
0.000758762
0.000754216
0.000763358
0.000758759
0.000763358
0.000758758
0.000802216
0.000802215
0.00079308
0.000793071
0.00079307
0.000793066
0.000802211
0.000800031
0.000804398
0.000804398
0.000800122
0.000800024
0.000800023
0.000804392
0.000765637
0.000765636
0.00075649
0.000765634
0.000763449
0.000767818
0.000767822
0.000763549
0.000767809
0.000763442
0.000763445
0.000800032
0.000804398
0.000804399
0.000800123
0.000800024
0.000800024
0.000804392
0.000776955
0.00077685
0.000772588
0.000772588
0.000776963
0.000776964
0.000772594
0.000800032
0.000804398
0.000804398
0.000800123
0.000800024
0.000800024
0.000804392
0.000776956
0.000776851
0.000772588
0.000772589
0.000776963
0.000776964
0.000772594
0.000800032
0.000804398
0.000804399
0.000800122
0.000800024
0.000800024
0.000804392
0.000776956
0.00077685
0.000772588
0.000772588
0.000776963
0.000776963
0.000772594
0.000776956
0.000776851
0.000772589
0.00077259
0.000772594
0.000776963
0.000776964
0.000763448
0.000767817
0.000767818
0.000763545
0.000767809
0.000763443
0.000763442
0.000763449
0.000767817
0.000767818
0.000763546
0.000763444
0.000767809
0.000763443
0.000763448
0.000767817
0.000767818
0.000763545
0.000763443
0.000767809
0.000763443
0.000802216
0.000802216
0.00079308
0.000793071
0.00079307
0.000793066
0.000802211
0.000802215
0.000802216
0.000793079
0.00079307
0.000793071
0.000793066
0.000802211
0.000802215
0.000802216
0.000793078
0.00079307
0.00079307
0.000793066
0.000802211
0.000783934
0.000774781
0.00077478
0.000783926
0.000783925
0.000783922
0.000774778
0.000783934
0.00077478
0.000774781
0.000783925
0.000783925
0.000783922
0.000774778
0.000783933
0.00077478
0.000774781
0.000783924
0.000783926
0.000783922
0.000774777
0.000783932
0.00077478
0.000774781
0.000783925
0.000783926
0.000783922
0.000774777
0.000795236
0.000790844
0.000790882
0.000795283
0.000795285
0.000795241
0.000790891
0.000800018
0.000804455
0.000799966
0.000804442
0.00079996
0.000799983
0.000804402
0.000795256
0.000790836
0.000795309
0.000790815
0.000795309
0.000795294
0.000790872
0.000800036
0.000799993
0.000804434
0.000804387
0.000799991
0.000800028
0.000804381
0.000795235
0.000790882
0.000790844
0.000795283
0.000795241
0.000795285
0.00079089
0.000800017
0.000804455
0.000799966
0.000804442
0.00079996
0.000799982
0.000804402
0.000795256
0.000790836
0.000795308
0.000790814
0.000795309
0.000795294
0.000790872
0.000800036
0.000799992
0.000804387
0.000804433
0.000800028
0.00079999
0.00080438
0.000795248
0.000795139
0.000790879
0.000790879
0.000795254
0.000795254
0.000790887
0.000765637
0.000765637
0.000756493
0.000756491
0.000765634
0.000765636
0.000765637
0.000756493
0.00075649
0.000765634
0.000765636
0.000765636
0.000756493
0.000756492
0.000756492
0.000756491
0.000765634
0.000758657
0.000758707
0.000754267
0.000754304
0.00075871
0.000758662
0.000754313
0.000763438
0.000767875
0.000767864
0.000763388
0.000767822
0.000763381
0.000763406
0.000763457
0.000763416
0.000767856
0.000767807
0.0007678
0.000763415
0.000763449
0.000758656
0.000758707
0.000754303
0.000754267
0.000758662
0.000758709
0.000754312
0.000763438
0.000767875
0.000767864
0.000763387
0.000767822
0.00076338
0.000763405
0.000763456
0.000763416
0.000767806
0.000767856
0.0007678
0.000763448
0.000763414
0.000758677
0.000754258
0.000758717
0.000754293
0.000758666
0.000758565
0.000754296
0.000754296
0.000758669
0.000758675
0.000754306
0.000795248
0.000795139
0.000790879
0.000790879
0.000790887
0.000795254
0.000795255
0.000781741
0.000781833
0.000786109
0.000786109
0.000786102
0.000781734
0.000781734
0.000795235
0.000790844
0.000790883
0.000795283
0.000795285
0.000795242
0.000790891
0.000800017
0.000804455
0.000799966
0.000804442
0.000799982
0.00079996
0.000804402
0.000795256
0.000790836
0.000795308
0.000790814
0.000795294
0.000795309
0.000790871
0.000800037
0.000799992
0.000804433
0.000804387
0.00079999
0.000800028
0.00080438
0.000795235
0.000790844
0.000790882
0.000795283
0.000795285
0.000795241
0.000790891
0.000800018
0.000804455
0.000799966
0.000804442
0.000799982
0.00079996
0.000804402
0.000795256
0.000790836
0.000795308
0.000790815
0.000795294
0.000790872
0.000795309
0.000800037
0.000799992
0.000804433
0.000804387
0.00079999
0.000800028
0.00080438
0.000781746
0.000786141
0.000786096
0.000781703
0.000786089
0.000781701
0.000781737
0.000776966
0.000772525
0.00077702
0.00077255
0.000777019
0.000777008
0.000772583
0.000781727
0.00078615
0.000786164
0.000781676
0.000781669
0.00078611
0.000781693
0.000776944
0.000776997
0.000772559
0.000772592
0.000776999
0.00077695
0.000772601
0.000781746
0.000786141
0.000786095
0.000781703
0.000786089
0.000781701
0.000781737
0.000776966
0.000772525
0.000777019
0.000772551
0.000777008
0.000777019
0.000772583
0.000781727
0.00078615
0.000786164
0.000781677
0.00078611
0.000781693
0.00078167
0.000776944
0.000776997
0.000772559
0.000772592
0.000776999
0.00077695
0.000772601
0.000795248
0.000795139
0.00079088
0.00079088
0.000795254
0.000795254
0.000790887
0.000781741
0.000781834
0.000786109
0.000786109
0.000781734
0.000786102
0.000781734
0.000795235
0.000790844
0.000790883
0.000795283
0.000795285
0.000795241
0.000790891
0.000800018
0.000804455
0.000799966
0.000804441
0.000799982
0.00079996
0.000804402
0.000795256
0.000790836
0.000795308
0.000790815
0.000795294
0.000795309
0.000790872
0.000800036
0.000799992
0.000804433
0.000804387
0.00079999
0.000800028
0.00080438
0.000795235
0.000790883
0.000790844
0.000795283
0.000795241
0.000795285
0.000790891
0.000800017
0.000804456
0.000799966
0.000804442
0.000799982
0.000799959
0.000804402
0.000795256
0.000790836
0.000795308
0.000790814
0.000795295
0.000790871
0.00079531
0.000800037
0.000799992
0.000804387
0.000804433
0.000800028
0.00079999
0.00080438
0.000781745
0.000786141
0.000786096
0.000781704
0.000786089
0.000781701
0.000781737
0.000776966
0.000772525
0.00077702
0.000772551
0.000777019
0.000777008
0.000772583
0.000781727
0.00078615
0.000786164
0.000781677
0.00078167
0.00078611
0.000781693
0.000776944
0.000776997
0.00077256
0.000772592
0.000776999
0.00077695
0.000772601
0.000781746
0.000786096
0.000786141
0.000781704
0.000786089
0.000781737
0.000781701
0.000776967
0.000772525
0.00077702
0.000772551
0.000777008
0.00077702
0.000772582
0.000781727
0.00078615
0.000786165
0.000781677
0.000786111
0.000781693
0.000781669
0.000776944
0.000776997
0.000772592
0.000772559
0.00077695
0.000776999
0.000772601
0.000795235
0.000790882
0.000790844
0.000795283
0.000795242
0.000795286
0.000790891
0.000800017
0.000804455
0.000799966
0.000804442
0.00079996
0.000799983
0.000804403
0.000795256
0.000790836
0.000795309
0.000790814
0.000795309
0.000795295
0.000790871
0.000800037
0.000799993
0.000804387
0.000804434
0.000800028
0.000799991
0.000804381
0.000781745
0.000786141
0.000786096
0.000781703
0.000786089
0.000781701
0.000781737
0.000776967
0.000772525
0.00077702
0.000772551
0.000772583
0.000777019
0.000777007
0.000781727
0.00078615
0.000786164
0.000781676
0.000786111
0.00078167
0.000781693
0.000776945
0.000776997
0.000772559
0.000772592
0.000772601
0.000776999
0.000776951
0.000781745
0.000786096
0.000786141
0.000781703
0.000786089
0.000781737
0.000781701
0.000776966
0.000772525
0.000777019
0.00077255
0.000777007
0.00077702
0.000772583
0.000781727
0.00078615
0.000786165
0.000781676
0.000786111
0.000781693
0.00078167
0.000776944
0.000776997
0.000772593
0.000772559
0.000776951
0.000776998
0.000772601
0.000795248
0.000795139
0.000790879
0.000790879
0.000795254
0.000795254
0.000790887
0.000781741
0.000781833
0.000786109
0.000786109
0.000781734
0.000786102
0.000781734
0.000795235
0.000790882
0.000790844
0.000795283
0.000795241
0.000795285
0.00079089
0.000800018
0.000804455
0.000799966
0.000804441
0.00079996
0.000799982
0.000804402
0.000795256
0.000790836
0.000795308
0.000790814
0.000795309
0.000795294
0.000790872
0.000800036
0.000799992
0.000804387
0.000804433
0.000800028
0.00079999
0.000804381
0.000781745
0.000786096
0.000786141
0.000781704
0.000786089
0.000781737
0.000781701
0.000776966
0.000772525
0.00077702
0.00077255
0.000772583
0.000777019
0.000777008
0.000781727
0.00078615
0.000786164
0.000781677
0.00078611
0.000781669
0.000781693
0.000776944
0.000776997
0.000772592
0.000772559
0.000772601
0.00077695
0.000776999
0.000781745
0.000786096
0.000786141
0.000781704
0.000786089
0.000781737
0.000781701
0.000776966
0.000772525
0.00077702
0.000772551
0.000777008
0.00077702
0.000772583
0.000781727
0.00078615
0.000786164
0.000781677
0.00078611
0.000781694
0.00078167
0.000776944
0.000776997
0.000772592
0.00077256
0.00077695
0.000776999
0.000772601
0.000781741
0.000781833
0.000786109
0.000786109
0.000786103
0.000781735
0.000781734
0.000763439
0.000767875
0.000767864
0.000763387
0.000763405
0.000767822
0.00076338
0.000763456
0.000763416
0.000767856
0.000767806
0.000763414
0.000767799
0.000763447
0.000763439
0.000767874
0.000767864
0.000763388
0.000767822
0.000763405
0.00076338
0.000763457
0.000763416
0.000767856
0.000767806
0.000767799
0.000763414
0.000763448
0.000763438
0.000767875
0.000767864
0.000763387
0.000763405
0.000767822
0.00076338
0.000763457
0.000763416
0.000767856
0.000767806
0.000763414
0.000767799
0.000763448
0.000763438
0.000767875
0.000767864
0.000763387
0.000767822
0.000763405
0.00076338
0.000763457
0.000763416
0.000767806
0.000767856
0.000767799
0.000763448
0.000763414
0.000758656
0.000758707
0.000754303
0.000754267
0.000758662
0.00075871
0.000754312
0.000763439
0.000767876
0.000767864
0.000763388
0.000763381
0.000767824
0.000763406
0.000763457
0.000763417
0.000767807
0.000767856
0.000763449
0.0007678
0.000763415
0.000758677
0.000754259
0.00075873
0.000754235
0.00075873
0.000758717
0.000754291
0.000758656
0.000758707
0.000754303
0.000754266
0.000758662
0.000758709
0.000754311
0.000763438
0.000767875
0.000767864
0.000763387
0.000763379
0.000767822
0.000763405
0.000763457
0.000763416
0.000767806
0.000767856
0.000763448
0.0007678
0.000763414
0.000758676
0.000754258
0.000758729
0.000754234
0.000758728
0.000758717
0.000754292
0.00169492
0.00169283
0.00169492
0.00169249
0.00169255
0.00169249
0.00169249
0.00169249
0.00169249
0.00169255
0.00169249
0.00169697
0.00169697
0.0016925
0.00169698
0.0016925
0.00169696
0.001697
0.00169256
0.00169697
0.00169248
0.00169703
0.00169696
0.00169255
0.001697
0.00169256
0.00169697
0.00169248
0.00169696
0.00169703
0.00169255
0.00169697
0.00169246
0.00169246
0.00169694
0.00169694
0.00169248
0.00169696
0.00169697
0.00169696
0.0016925
0.00169697
0.00169251
0.00169696
0.001697
0.0016927
0.0016927
0.001697
0.001697
0.0016927
0.001697
0.00169256
0.00169696
0.0016926
0.00169697
0.001697
0.00169266
0.001697
0.00169256
0.00169695
0.00169259
0.001697
0.00169696
0.00169265
0.00168601
0.00168593
0.00168593
0.00168801
0.00164998
0.00164985
0.00164986
0.00165192
0.00161421
0.00161418
0.00161416
0.00161624
0.00157831
0.00157809
0.00157812
0.00158014
0.00154291
0.00154291
0.00154288
0.0015449
0.00150685
0.00150662
0.00150665
0.00150873
0.00147233
0.00147204
0.00147199
0.00147367
0.00144129
0.001441
0.00144103
0.00144294
0.00139999
0.00139982
0.00139982
0.00140218
0.00135896
0.00135947
0.00135946
0.00136183
0.00132728
0.00132738
0.00132738
0.00132922
0.00129986
0.00129904
0.00129904
0.00130033
0.00127104
0.00127
0.00127
0.0012713
0.00123905
0.0012384
0.0012384
0.00124002
0.0012042
0.00120395
0.00120395
0.00120586
0.00116796
0.0011679
0.0011679
0.00116995
0.00113134
0.00113134
0.00113134
0.00113344
0.00109476
0.00109474
0.00109474
0.00109683
0.00105822
0.00105819
0.00105819
0.00106027
0.00102168
0.00102165
0.00102165
0.00102373
0.000985123
0.000985094
0.000985094
0.00098718
0.000948552
0.000948525
0.000948525
0.000950612
0.000911974
0.000911947
0.000911947
0.000914034
0.000875391
0.000875363
0.000875363
0.000877452
0.000838809
0.000838782
0.000838782
0.000840869
0.00168801
0.00165674
0.00168593
0.00168593
0.00165888
0.00165888
0.001688
0.00165674
0.00168593
0.00168593
0.00165888
0.00165887