/*--------------------------------*- C++ -*----------------------------------*\
| =========                 |                                                 |
| \\      /  F ield         | OpenFOAM: The Open Source CFD Toolbox           |
|  \\    /   O peration     | Version:  2312                                  |
|   \\  /    A nd           | Website:  www.openfoam.com                      |
|    \\/     M anipulation  |                                                 |
\*---------------------------------------------------------------------------*/
FoamFile
{
    version     2.0;
    format      ascii;
    arch        "LSB;label=32;scalar=64";
    class       volScalarField;
    location    "250";
    object      p;
}
// * * * * * * * * * * * * * * * * * * * * * * * * * * * * * * * * * * * * * //

dimensions      [0 2 -2 0 0 0 0];

internalField   nonuniform List<scalar> 
43120
(
0.00266516
0.00266511
0.00266512
0.00266756
0.00262527
0.00262522
0.00262522
0.00262766
0.00258562
0.00258556
0.00258556
0.00258799
0.00254619
0.00254613
0.00254613
0.00254855
0.00250698
0.00250692
0.00250692
0.00250933
0.00246797
0.00246792
0.00246792
0.00247031
0.00242917
0.00242912
0.00242912
0.00243149
0.00239056
0.00239052
0.00239052
0.00239287
0.00235214
0.0023521
0.0023521
0.00235443
0.0023139
0.00231387
0.00231387
0.00231617
0.00227584
0.0022758
0.00227581
0.00227809
0.00223794
0.00223791
0.00223791
0.00224018
0.00220021
0.00220019
0.00220019
0.00220243
0.00216263
0.00216262
0.00216262
0.00216484
0.00212521
0.00212519
0.00212519
0.0021274
0.00208793
0.00208792
0.00208792
0.0020901
0.0020508
0.00205078
0.00205078
0.00205295
0.0020138
0.00201378
0.00201378
0.00201594
0.00197693
0.00197691
0.00197691
0.00197905
0.00194019
0.00194015
0.00194015
0.00194229
0.00190356
0.00190352
0.00190352
0.00190564
0.00186704
0.00186699
0.00186699
0.00186911
0.00183064
0.00183058
0.00183058
0.00183268
0.00179431
0.00179425
0.00179425
0.00179634
0.00175812
0.00175805
0.00175805
0.00176014
0.00172196
0.00172187
0.00172187
0.00172395
0.0016859
0.00267279
0.00267512
0.00267512
0.00267278
0.00267512
0.00267512
0.00267512
0.00267513
0.00267279
0.00267512
0.00267513
0.00267278
0.00266757
0.00263286
0.00266512
0.00266511
0.00263516
0.00263516
0.00266756
0.00263285
0.00266512
0.00266512
0.00263516
0.00263517
0.00266511
0.00263516
0.00263517
0.00266757
0.00263285
0.00266511
0.00263517
0.00263517
0.00263286
0.00262766
0.00259316
0.00262522
0.00262522
0.00259545
0.00259545
0.00262766
0.00259316
0.00262522
0.00262522
0.00259545
0.00259545
0.00262522
0.00259545
0.00259545
0.00262766
0.00259316
0.00262522
0.00259545
0.00259545
0.00259316
0.00258799
0.0025537
0.00258556
0.00258556
0.00255597
0.00255597
0.00258799
0.00255369
0.00258556
0.00258556
0.00255597
0.00255597
0.00258556
0.00255597
0.00255597
0.00258799
0.0025537
0.00258556
0.00255597
0.00255597
0.0025537
0.00254855
0.00251445
0.00254613
0.00254613
0.0025167
0.0025167
0.00254855
0.00251445
0.00254613
0.00254613
0.0025167
0.0025167
0.00254613
0.0025167
0.0025167
0.00254855
0.00251445
0.00254613
0.0025167
0.0025167
0.00251445
0.00250933
0.00247541
0.00250692
0.00250692
0.00247765
0.00247765
0.00250932
0.00247541
0.00250692
0.00250692
0.00247765
0.00247765
0.00250692
0.00247765
0.00247765
0.00250933
0.00247541
0.00250692
0.00247765
0.00247765
0.00247541
0.00247031
0.00243657
0.00246792
0.00246792
0.0024388
0.0024388
0.00247031
0.00243657
0.00246792
0.00246792
0.0024388
0.0024388
0.00246792
0.0024388
0.0024388
0.00247031
0.00243657
0.00246792
0.0024388
0.0024388
0.00243657
0.00243149
0.00239793
0.00242912
0.00242912
0.00240015
0.00240015
0.00243149
0.00239793
0.00242912
0.00242912
0.00240015
0.00240015
0.00242912
0.00240015
0.00240015
0.00243149
0.00239793
0.00242912
0.00240015
0.00240015
0.00239793
0.00239286
0.00235947
0.00239052
0.00239052
0.00236169
0.00236169
0.00239286
0.00235947
0.00239052
0.00239052
0.00236169
0.00236169
0.00239052
0.00236169
0.00236169
0.00239286
0.00235947
0.00239052
0.00236169
0.00236169
0.00235947
0.00235443
0.0023212
0.0023521
0.0023521
0.00232341
0.00232341
0.00235443
0.0023212
0.0023521
0.0023521
0.00232341
0.00232341
0.0023521
0.00232341
0.00232341
0.00235443
0.0023212
0.0023521
0.00232341
0.00232341
0.0023212
0.00231617
0.0022831
0.00231387
0.00231387
0.0022853
0.0022853
0.00231617
0.0022831
0.00231387
0.00231387
0.0022853
0.0022853
0.00231387
0.0022853
0.0022853
0.00231617
0.0022831
0.00231387
0.0022853
0.0022853
0.0022831
0.00227809
0.00224517
0.0022758
0.0022758
0.00224737
0.00224737
0.00227809
0.00224517
0.0022758
0.00227581
0.00224737
0.00224737
0.0022758
0.00224737
0.00224737
0.00227809
0.00224517
0.0022758
0.00224737
0.00224737
0.00224517
0.00224018
0.0022074
0.00223791
0.00223791
0.0022096
0.0022096
0.00224018
0.0022074
0.00223791
0.00223791
0.0022096
0.0022096
0.00223792
0.0022096
0.0022096
0.00224018
0.0022074
0.00223791
0.0022096
0.0022096
0.0022074
0.00220243
0.0021698
0.00220019
0.00220019
0.00217199
0.00217199
0.00220243
0.0021698
0.00220019
0.00220019
0.00217199
0.00217199
0.00220019
0.00217199
0.00217199
0.00220243
0.0021698
0.00220019
0.00217199
0.00217199
0.0021698
0.00216484
0.00213235
0.00216262
0.00216262
0.00213454
0.00213453
0.00216484
0.00213234
0.00216262
0.00216262
0.00213454
0.00213454
0.00216262
0.00213453
0.00213454
0.00216484
0.00213235
0.00216262
0.00213453
0.00213453
0.00213234
0.0021274
0.00209504
0.00212519
0.00212519
0.00209722
0.00209722
0.0021274
0.00209504
0.00212519
0.00212519
0.00209722
0.00209722
0.00212519
0.00209722
0.00209722
0.0021274
0.00209504
0.00212519
0.00209722
0.00209722
0.00209504
0.0020901
0.00205787
0.00208792
0.00208792
0.00206005
0.00206005
0.0020901
0.00205787
0.00208792
0.00208792
0.00206005
0.00206005
0.00208792
0.00206005
0.00206005
0.0020901
0.00205787
0.00208792
0.00206005
0.00206005
0.00205787
0.00205295
0.00202085
0.00205078
0.00205078
0.00202302
0.00202302
0.00205295
0.00202085
0.00205078
0.00205078
0.00202302
0.00202302
0.00205078
0.00202302
0.00202302
0.00205295
0.00202085
0.00205078
0.00202302
0.00202302
0.00202085
0.00201594
0.00198395
0.00201378
0.00201378
0.00198611
0.00198611
0.00201594
0.00198395
0.00201378
0.00201378
0.00198611
0.00198611
0.00201378
0.00198611
0.00198611
0.00201594
0.00198395
0.00201378
0.00198611
0.00198611
0.00198395
0.00197905
0.00194718
0.00197691
0.00197691
0.00194933
0.00194933
0.00197905
0.00194717
0.00197691
0.00197691
0.00194933
0.00194933
0.00197691
0.00194933
0.00194933
0.00197905
0.00194718
0.00197691
0.00194933
0.00194933
0.00194718
0.00194229
0.00191052
0.00194015
0.00194015
0.00191266
0.00191267
0.00194229
0.00191052
0.00194015
0.00194015
0.00191267
0.00191266
0.00194016
0.00191267
0.00191266
0.00194229
0.00191052
0.00194015
0.00191266
0.00191266
0.00191052
0.00190564
0.00187398
0.00190352
0.00190352
0.00187612
0.00187612
0.00190564
0.00187398
0.00190352
0.00190352
0.00187612
0.00187612
0.00190352
0.00187612
0.00187612
0.00190564
0.00187398
0.00190352
0.00187612
0.00187612
0.00187398
0.00186911
0.00183754
0.00186699
0.00186699
0.00183967
0.00183967
0.00186911
0.00183754
0.00186699
0.00186699
0.00183967
0.00183967
0.00186699
0.00183967
0.00183967
0.00186911
0.00183754
0.00186699
0.00183967
0.00183967
0.00183754
0.00183268
0.00180119
0.00183058
0.00183058
0.00180332
0.00180332
0.00183268
0.00180119
0.00183058
0.00183058
0.00180332
0.00180332
0.00183058
0.00180332
0.00180332
0.00183268
0.00180119
0.00183058
0.00180332
0.00180332
0.00180119
0.00179634
0.00176498
0.00179425
0.00179425
0.00176709
0.00176709
0.00179634
0.00176498
0.00179425
0.00179425
0.00176709
0.00176709
0.00179425
0.0017671
0.0017671
0.00179634
0.00176498
0.00179425
0.00176709
0.00176709
0.00176498
0.00176014
0.00172878
0.00175805
0.00175805
0.0017309
0.0017309
0.00176014
0.00172878
0.00175805
0.00175805
0.0017309
0.0017309
0.00175805
0.0017309
0.0017309
0.00176014
0.00172878
0.00175805
0.0017309
0.0017309
0.00172878
0.00172395
0.0016928
0.00172187
0.00172187
0.00169489
0.00169489
0.00172395
0.0016928
0.00172187
0.00172187
0.00169489
0.00169489
0.00172187
0.00169489
0.00169489
0.00172395
0.0016928
0.00172187
0.00169489
0.00169489
0.0016928
0.0016859
0.00168797
0.00267517
0.00267517
0.00267517
0.00267517
0.00269248
0.00269521
0.0026927
0.00265253
0.00266741
0.00266748
0.00265245
0.00266738
0.00265242
0.00265253
0.00266741
0.00266748
0.00265245
0.00266516
0.00266516
0.00266516
0.00263522
0.00263522
0.00263522
0.00263522
0.00265279
0.00266748
0.00266514
0.00265512
0.0026676
0.00265262
0.00265515
0.00266738
0.00265242
0.00265279
0.00266514
0.00266748
0.00265512
0.0026676
0.00265515
0.00265262
0.00266746
0.00266746
0.0026528
0.00265249
0.00265249
0.00261271
0.0026275
0.00262757
0.00261263
0.00262748
0.00261261
0.00261271
0.0026275
0.00262757
0.00261263
0.00262527
0.00262527
0.00262527
0.00259551
0.00259551
0.00259551
0.00259551
0.00261295
0.00262756
0.00262524
0.00261529
0.00262767
0.00261279
0.00261531
0.00262747
0.00261261
0.00261295
0.00262524
0.00262756
0.00261528
0.00262768
0.00261531
0.00261279
0.00262755
0.00262755
0.00261298
0.00261267
0.00261267
0.00257312
0.00258783
0.0025879
0.00257305
0.00258781
0.00257303
0.00257312
0.00258783
0.0025879
0.00257305
0.00258561
0.00258561
0.00258561
0.00255603
0.00255603
0.00255603
0.00255603
0.00257335
0.00258788
0.00258558
0.00257568
0.00258798
0.00257319
0.0025757
0.00258781
0.00257303
0.00257335
0.00258558
0.00258788
0.00257568
0.00258799
0.0025757
0.00257319
0.00258788
0.00258788
0.0025734
0.00257309
0.00257309
0.00253376
0.00254839
0.00254845
0.00253369
0.00254837
0.00253367
0.00253376
0.00254839
0.00254845
0.00253369
0.00254619
0.00254619
0.00254619
0.00251676
0.00251676
0.00251676
0.00251676
0.00253398
0.00254843
0.00254614
0.00253631
0.00254853
0.00253382
0.00253632
0.00254837
0.00253367
0.00253398
0.00254614
0.00254843
0.00253631
0.00254853
0.00253632
0.00253382
0.00254843
0.00254843
0.00253404
0.00253372
0.00253372
0.00249461
0.00250916
0.00250922
0.00249454
0.00250915
0.00249452
0.00249461
0.00250916
0.00250922
0.00249454
0.00250698
0.00250698
0.00250698
0.00247771
0.00247771
0.00247771
0.00247771
0.00249481
0.0025092
0.00250693
0.00249715
0.00250929
0.00249467
0.00249716
0.00250914
0.00249453
0.00249481
0.00250693
0.0025092
0.00249715
0.00250929
0.00249716
0.00249467
0.0025092
0.0025092
0.0024949
0.00249457
0.00249457
0.00245567
0.00247015
0.00247021
0.0024556
0.00247013
0.00245559
0.00245567
0.00247015
0.00247021
0.0024556
0.00246797
0.00246797
0.00246797
0.00243885
0.00243885
0.00243885
0.00243885
0.00245586
0.00247017
0.00246793
0.0024582
0.00247025
0.00245572
0.00245821
0.00247013
0.00245559
0.00245586
0.00246793
0.00247017
0.0024582
0.00247025
0.00245821
0.00245572
0.00247018
0.00247018
0.00245596
0.00245563
0.00245563
0.00241692
0.00243133
0.00243139
0.00241686
0.00243132
0.00241684
0.00241692
0.00243133
0.00243139
0.00241686
0.00242917
0.00242917
0.00242917
0.0024002
0.0024002
0.0024002
0.0024002
0.0024171
0.00243135
0.00242913
0.00241945
0.00243142
0.00241697
0.00241946
0.00243132
0.00241684
0.0024171
0.00242913
0.00243135
0.00241945
0.00243142
0.00241946
0.00241697
0.00243136
0.00243136
0.00241722
0.00241688
0.00241688
0.00237837
0.00239271
0.00239276
0.00237831
0.0023927
0.0023783
0.00237837
0.00239271
0.00239276
0.00237831
0.00239056
0.00239056
0.00239056
0.00236173
0.00236173
0.00236173
0.00236173
0.00237854
0.00239273
0.00239052
0.0023809
0.00239279
0.00237842
0.0023809
0.0023927
0.0023783
0.00237854
0.00239052
0.00239273
0.0023809
0.00239279
0.0023809
0.00237842
0.00239274
0.00239274
0.00237868
0.00237833
0.00237833
0.00234
0.00235428
0.00235433
0.00233994
0.00235427
0.00233993
0.00234
0.00235428
0.00235433
0.00233994
0.00235214
0.00235214
0.00235214
0.00232344
0.00232344
0.00232344
0.00232344
0.00234017
0.00235429
0.00235211
0.00234253
0.00235435
0.00234005
0.00234253
0.00235427
0.00233993
0.00234017
0.00235211
0.00235429
0.00234253
0.00235435
0.00234253
0.00234005
0.00235431
0.00235431
0.00234031
0.00233997
0.00233997
0.00230181
0.00231602
0.00231607
0.00230175
0.00231601
0.00230175
0.00230181
0.00231602
0.00231607
0.00230175
0.0023139
0.0023139
0.0023139
0.00228534
0.00228534
0.00228534
0.00228534
0.00230197
0.00231604
0.00231387
0.00230433
0.00231609
0.00230186
0.00230434
0.00231601
0.00230175
0.00230197
0.00231387
0.00231604
0.00230433
0.00231609
0.00230434
0.00230186
0.00231605
0.00231605
0.00230212
0.00230178
0.00230178
0.00226379
0.00227795
0.00227799
0.00226374
0.00227794
0.00226374
0.00226379
0.00227795
0.00227799
0.00226374
0.00227584
0.00227584
0.00227584
0.0022474
0.0022474
0.0022474
0.0022474
0.00226395
0.00227796
0.00227581
0.00226632
0.00227801
0.00226384
0.00226633
0.00227794
0.00226374
0.00226395
0.00227581
0.00227796
0.00226632
0.00227801
0.00226633
0.00226384
0.00227798
0.00227798
0.00226411
0.00226377
0.00226377
0.00222595
0.00224004
0.00224008
0.0022259
0.00224003
0.00222589
0.00222595
0.00224004
0.00224008
0.0022259
0.00223794
0.00223794
0.00223794
0.00220962
0.00220962
0.00220962
0.00220962
0.0022261
0.00224005
0.00223793
0.00222847
0.0022401
0.002226
0.00222848
0.00224004
0.00222589
0.0022261
0.00223793
0.00224005
0.00222847
0.0022401
0.00222848
0.002226
0.00224007
0.00224007
0.00222627
0.00222592
0.00222592
0.00218826
0.0022023
0.00220234
0.00218821
0.00220229
0.00218821
0.00218826
0.0022023
0.00220234
0.00218821
0.00220021
0.00220021
0.00220021
0.00217201
0.00217201
0.00217201
0.00217201
0.00218842
0.00220231
0.0022002
0.00219078
0.00220235
0.00218831
0.0021908
0.00220229
0.00218821
0.00218841
0.0022002
0.00220231
0.00219078
0.00220235
0.0021908
0.00218831
0.00220233
0.00220233
0.00218858
0.00218824
0.00218824
0.00215073
0.00216471
0.00216475
0.00215069
0.00216471
0.00215069
0.00215073
0.00216471
0.00216475
0.00215069
0.00216263
0.00216263
0.00216263
0.00213455
0.00213455
0.00213455
0.00213455
0.00215088
0.00216473
0.00216264
0.00215325
0.00216476
0.00215078
0.00215327
0.00216471
0.00215069
0.00215088
0.00216264
0.00216473
0.00215325
0.00216476
0.00215327
0.00215078
0.00216474
0.00216474
0.00215105
0.00215071
0.00215071
0.00211335
0.00212728
0.00212732
0.00211331
0.00212728
0.00211331
0.00211335
0.00212728
0.00212732
0.00211331
0.00212521
0.00212521
0.00212521
0.00209724
0.00209724
0.00209724
0.00209724
0.0021135
0.00212729
0.00212522
0.00211586
0.00212733
0.0021134
0.00211589
0.00212728
0.00211331
0.0021135
0.00212522
0.00212729
0.00211586
0.00212733
0.00211589
0.0021134
0.00212731
0.00212731
0.00211367
0.00211333
0.00211333
0.00207612
0.00209
0.00209003
0.00207608
0.00209
0.00207608
0.00207612
0.00209
0.00209003
0.00207608
0.00208793
0.00208793
0.00208793
0.00206007
0.00206007
0.00206007
0.00206007
0.00207626
0.00209001
0.00208795
0.00207862
0.00209004
0.00207617
0.00207865
0.00209
0.00207608
0.00207627
0.00208795
0.00209001
0.00207862
0.00209004
0.00207865
0.00207617
0.00209003
0.00209003
0.00207644
0.0020761
0.0020761
0.00203903
0.00205286
0.00205288
0.00203899
0.00205286
0.00203899
0.00203903
0.00205286
0.00205288
0.00203899
0.0020508
0.0020508
0.0020508
0.00202304
0.00202304
0.00202304
0.00202304
0.00203917
0.00205286
0.00205082
0.00204152
0.0020529
0.00203908
0.00204156
0.00205286
0.00203899
0.00203917
0.00205082
0.00205286
0.00204152
0.00205289
0.00204156
0.00203908
0.00205288
0.00205288
0.00203934
0.00203901
0.00203901
0.00200206
0.00201585
0.00201587
0.00200203
0.00201585
0.00200203
0.00200206
0.00201585
0.00201587
0.00200203
0.0020138
0.0020138
0.0020138
0.00198614
0.00198614
0.00198614
0.00198614
0.00200221
0.00201585
0.00201382
0.00200455
0.00201588
0.00200212
0.00200459
0.00201585
0.00200203
0.0020022
0.00201382
0.00201585
0.00200455
0.00201588
0.00200459
0.00200211
0.00201587
0.00201587
0.00200238
0.00200205
0.00200205
0.00196523
0.00197897
0.001979
0.0019652
0.00197897
0.0019652
0.00196523
0.00197897
0.001979
0.0019652
0.00197693
0.00197693
0.00197693
0.00194936
0.00194936
0.00194936
0.00194936
0.00196537
0.00197897
0.00197695
0.00196771
0.001979
0.00196528
0.00196775
0.00197897
0.0019652
0.00196537
0.00197695
0.00197898
0.00196771
0.00197901
0.00196775
0.00196528
0.00197899
0.001979
0.00196555
0.00196522
0.00196522
0.00192852
0.00194222
0.00194224
0.00192849
0.00194223
0.0019285
0.00192852
0.00194222
0.00194224
0.00192849
0.00194019
0.00194019
0.00194019
0.0019127
0.0019127
0.0019127
0.0019127
0.00192866
0.00194222
0.0019402
0.00193098
0.00194225
0.00192857
0.00193104
0.00194222
0.00192849
0.00192865
0.0019402
0.00194222
0.00193098
0.00194224
0.00193103
0.00192857
0.00194224
0.00194224
0.00192883
0.00192851
0.00192851
0.00189192
0.00190558
0.0019056
0.0018919
0.00190558
0.0018919
0.00189192
0.00190558
0.0019056
0.0018919
0.00190356
0.00190356
0.00190356
0.00187616
0.00187616
0.00187616
0.00187616
0.00189206
0.00190558
0.00190357
0.00189438
0.00190561
0.00189197
0.00189443
0.00190558
0.0018919
0.00189206
0.00190357
0.00190558
0.00189438
0.00190561
0.00189443
0.00189197
0.0019056
0.0019056
0.00189223
0.00189192
0.00189192
0.00185544
0.00186906
0.00186907
0.00185541
0.00186906
0.00185542
0.00185544
0.00186906
0.00186907
0.00185541
0.00186704
0.00186704
0.00186704
0.00183973
0.00183973
0.00183973
0.00183973
0.00185557
0.00186906
0.00186705
0.00185788
0.00186908
0.00185549
0.00185794
0.00186906
0.00185542
0.00185557
0.00186705
0.00186906
0.00185788
0.00186908
0.00185794
0.00185549
0.00186908
0.00186908
0.00185574
0.00185543
0.00185543
0.00181906
0.00183264
0.00183266
0.00181903
0.00183264
0.00181904
0.00181906
0.00183264
0.00183266
0.00181903
0.00183064
0.00183064
0.00183064
0.00180339
0.00180339
0.00180339
0.00180339
0.00181919
0.00183264
0.00183064
0.00182149
0.00183266
0.00181911
0.00182155
0.00183264
0.00181904
0.00181919
0.00183064
0.00183264
0.00182149
0.00183266
0.00182155
0.00181911
0.00183266
0.00183266
0.00181936
0.00181905
0.00181905
0.00178277
0.00179632
0.00179633
0.00178276
0.00179632
0.00178277
0.00178277
0.00179632
0.00179633
0.00178276
0.00179431
0.00179431
0.00179431
0.00176716
0.00176716
0.00176716
0.00176716
0.00178289
0.00179631
0.00179431
0.00178518
0.00179633
0.00178282
0.00178525
0.00179632
0.00178277
0.00178289
0.00179431
0.00179631
0.00178518
0.00179633
0.00178525
0.00178282
0.00179634
0.00179634
0.00178307
0.00178277
0.00178277
0.00174659
0.0017601
0.00176012
0.00174656
0.0017601
0.00174656
0.00174659
0.0017601
0.00176012
0.00174656
0.00175812
0.00175812
0.00175812
0.00173098
0.00173098
0.00173098
0.00173098
0.00174671
0.0017601
0.00175811
0.001749
0.00176013
0.00174663
0.00174906
0.0017601
0.00174656
0.00174671
0.00175811
0.0017601
0.001749
0.00176013
0.00174906
0.00174663
0.00176012
0.00176012
0.00174688
0.00174657
0.00174657
0.00171049
0.00172397
0.00172397
0.00171048
0.00172398
0.00171048
0.00171049
0.00172397
0.00172397
0.00171048
0.00172196
0.00172196
0.00172196
0.00169497
0.00169496
0.00169497
0.00169497
0.0017106
0.00172396
0.00172194
0.00171287
0.00172396
0.00171054
0.00171293
0.00172398
0.00171048
0.00171059
0.00172194
0.00172395
0.00171287
0.00172396
0.00171293
0.00171053
0.00172399
0.00172399
0.00171077
0.00171049
0.00171049
0.00168597
0.00168793
0.00168793
0.00267242
0.00267242
0.00267249
0.00267249
0.00267244
0.00267253
0.00267244
0.00267253
0.00267262
0.00267516
0.0026728
0.00267262
0.00267516
0.0026728
0.00267242
0.0026725
0.0026725
0.00267242
0.00269251
0.00269521
0.0026927
0.00268753
0.00267244
0.00267253
0.00268766
0.00267262
0.00267516
0.00268518
0.0026728
0.00268753
0.00267244
0.00268745
0.00267253
0.00268766
0.00268515
0.00267516
0.00267262
0.00268518
0.00268753
0.0026728
0.00267262
0.00267516
0.0026728
0.00267244
0.00267253
0.00267516
0.00267263
0.0026728
0.00267244
0.00267253
0.00269284
0.00269257
0.00269257
0.00269248
0.00267242
0.00268743
0.0026876
0.00267249
0.00267249
0.00268752
0.00268752
0.00267242
0.00268742
0.00269251
0.00268766
0.00268515
0.00267516
0.00267262
0.00268519
0.00268753
0.0026728
0.00268766
0.00267516
0.00267262
0.00268519
0.0026728
0.00268753
0.00267244
0.00268745
0.00267253
0.00268753
0.00267244
0.00267253
0.0026725
0.0026725
0.00267242
0.00267242
0.00266738
0.00265242
0.00266738
0.00265242
0.00266746
0.00266746
0.00265279
0.00265249
0.00265249
0.00263248
0.0026474
0.00263248
0.0026474
0.00264758
0.00263255
0.00263255
0.00264748
0.00264748
0.00265253
0.00266741
0.00266748
0.00265245
0.0026528
0.00266748
0.00266514
0.00265512
0.0026676
0.00265262
0.00265515
0.0026528
0.00266748
0.00266514
0.00265512
0.0026676
0.00265262
0.00265515
0.0026475
0.0026325
0.00264742
0.00263258
0.0026475
0.0026325
0.00264742
0.00263258
0.00264761
0.00264513
0.00263267
0.0026352
0.00264749
0.00264516
0.00263284
0.00264761
0.00264514
0.00263267
0.0026352
0.00264749
0.00264516
0.00263284
0.00266746
0.00266746
0.0026528
0.00265249
0.00265249
0.00266738
0.00265242
0.00263249
0.00264739
0.00264758
0.00263256
0.00263256
0.00264748
0.00264748
0.00263248
0.00264739
0.0026528
0.00266748
0.00266514
0.00265512
0.0026676
0.00265262
0.00265515
0.00265253
0.00266741
0.00266748
0.00265245
0.0026528
0.00266514
0.00266748
0.00265512
0.0026676
0.00265515
0.00265262
0.0026475
0.0026325
0.00264742
0.00263258
0.00264761
0.00264513
0.00263267
0.0026352
0.00264749
0.00264516
0.00263284
0.0026475
0.0026325
0.00264742
0.00263258
0.00264761
0.00264513
0.0026352
0.00263267
0.00264516
0.00264749
0.00263284
0.00265253
0.00266741
0.00266748
0.00265245
0.00265279
0.00266514
0.00266748
0.00265512
0.0026676
0.00265515
0.00265262
0.00265253
0.0026674
0.00266748
0.00265245
0.00264761
0.00264514
0.00263268
0.0026352
0.00264749
0.00264516
0.00263284
0.0026475
0.0026325
0.00264742
0.00263258
0.00264761
0.00264514
0.0026352
0.00263268
0.00264516
0.00264749
0.00263285
0.0026475
0.00263251
0.00264742
0.00263258
0.00266746
0.00266746
0.00265279
0.00265249
0.00265249
0.00266738
0.00265242
0.00263248
0.0026474
0.00264758
0.00263255
0.00263255
0.00264748
0.00264748
0.00263248
0.0026474
0.0026528
0.00266514
0.00266748
0.00265512
0.0026676
0.00265515
0.00265262
0.00265253
0.00266741
0.00266748
0.00265245
0.00265253
0.0026674
0.00266748
0.00265245
0.00264761
0.00264514
0.0026352
0.00263267
0.00264516
0.00264749
0.00263284
0.00264761
0.00264514
0.0026352
0.00263268
0.00264516
0.00264749
0.00263284
0.0026475
0.00263251
0.00264742
0.00263258
0.0026475
0.00263251
0.00264742
0.00263258
0.00266738
0.00265242
0.00266738
0.00265242
0.00264758
0.00263255
0.00263255
0.00264747
0.00264747
0.00263248
0.0026474
0.00263248
0.0026474
0.00262747
0.00261261
0.00262747
0.00261261
0.00262755
0.00262755
0.00261298
0.00261267
0.00261267
0.00259279
0.00260761
0.00259279
0.00260761
0.0026078
0.00259285
0.00259285
0.00260768
0.00260768
0.00261271
0.0026275
0.00262757
0.00261263
0.00261295
0.00262756
0.00262524
0.00261528
0.00262767
0.00261279
0.00261531
0.00261295
0.00262756
0.00262524
0.00261529
0.00262767
0.00261279
0.00261531
0.00260771
0.00259281
0.00260763
0.00259288
0.00260771
0.00259281
0.00260764
0.00259288
0.0026078
0.00260536
0.00259296
0.00259547
0.00260769
0.00260538
0.00259312
0.0026078
0.00260536
0.00259296
0.00259547
0.00260769
0.00260538
0.00259312
0.00262755
0.00262755
0.00261299
0.00261267
0.00261267
0.00262748
0.00261261
0.00259279
0.00260761
0.0026078
0.00259285
0.00259285
0.00260768
0.00260768
0.00259279
0.00260761
0.00261295
0.00262756
0.00262524
0.00261528
0.00262767
0.00261279
0.00261531
0.00261271
0.0026275
0.00262757
0.00261263
0.00261295
0.00262524
0.00262756
0.00261528
0.00262767
0.00261531
0.00261279
0.00260771
0.00259281
0.00260763
0.00259288
0.0026078
0.00260536
0.00259296
0.00259547
0.00260769
0.00260538
0.00259312
0.00260771
0.00259281
0.00260764
0.00259288
0.0026078
0.00260536
0.00259547
0.00259296
0.00260538
0.00260769
0.00259312
0.00261271
0.0026275
0.00262757
0.00261263
0.00261295
0.00262524
0.00262756
0.00261528
0.00262768
0.00261531
0.00261279
0.00261271
0.0026275
0.00262757
0.00261263
0.0026078
0.00260536
0.00259296
0.00259547
0.00260769
0.00260538
0.00259312
0.00260771
0.00259281
0.00260764
0.00259288
0.0026078
0.00260536
0.00259547
0.00259296
0.00260538
0.00260769
0.00259313
0.00260771
0.00259281
0.00260763
0.00259288
0.00262755
0.00262755
0.00261298
0.00261267
0.00261267
0.00262747
0.00261261
0.00259279
0.00260761
0.0026078
0.00259285
0.00259285
0.00260768
0.00260768
0.00259279
0.00260761
0.00261295
0.00262524
0.00262756
0.00261528
0.00262767
0.00261531
0.00261279
0.00261271
0.0026275
0.00262757
0.00261263
0.00261271
0.0026275
0.00262757
0.00261263
0.0026078
0.00260536
0.00259547
0.00259296
0.00260538
0.00260769
0.00259313
0.0026078
0.00260536
0.00259547
0.00259296
0.00260538
0.00260769
0.00259313
0.00260771
0.00259281
0.00260763
0.00259288
0.00260771
0.00259281
0.00260763
0.00259288
0.00262747
0.00261261
0.00262747
0.00261261
0.0026078
0.00259285
0.00259285
0.00260768
0.00260768
0.00259279
0.00260761
0.00259279
0.00260761
0.00258781
0.00257303
0.00258781
0.00257303
0.00258788
0.00258788
0.0025734
0.00257308
0.00257308
0.00255332
0.00256806
0.00255332
0.00256806
0.00256824
0.00255338
0.00255338
0.00256813
0.00256813
0.00257312
0.00258783
0.0025879
0.00257305
0.00257335
0.00258788
0.00258558
0.00257568
0.00258798
0.00257319
0.0025757
0.00257335
0.00258788
0.00258558
0.00257568
0.00258798
0.00257319
0.0025757
0.00256815
0.00255334
0.00256808
0.00255341
0.00256815
0.00255334
0.00256808
0.00255341
0.00256823
0.00256582
0.00255348
0.00255598
0.00256813
0.00256583
0.00255364
0.00256823
0.00256582
0.00255348
0.00255598
0.00256813
0.00256583
0.00255364
0.00258788
0.00258788
0.0025734
0.00257308
0.00257308
0.00258781
0.00257303
0.00255332
0.00256806
0.00256824
0.00255338
0.00255338
0.00256812
0.00256812
0.00255332
0.00256806
0.00257335
0.00258788
0.00258558
0.00257568
0.00258798
0.00257319
0.0025757
0.00257312
0.00258783
0.0025879
0.00257305
0.00257335
0.00258558
0.00258788
0.00257568
0.00258798
0.0025757
0.00257319
0.00256815
0.00255334
0.00256808
0.00255341
0.00256823
0.00256582
0.00255348
0.00255598
0.00256813
0.00256583
0.00255364
0.00256815
0.00255334
0.00256808
0.00255341
0.00256823
0.00256582
0.00255598
0.00255348
0.00256583
0.00256813
0.00255364
0.00257312
0.00258783
0.0025879
0.00257305
0.00257335
0.00258558
0.00258788
0.00257568
0.00258799
0.0025757
0.00257319
0.00257312
0.00258783
0.0025879
0.00257305
0.00256823
0.00256582
0.00255348
0.00255598
0.00256813
0.00256583
0.00255364
0.00256815
0.00255334
0.00256808
0.00255341
0.00256823
0.00256582
0.00255598
0.00255348
0.00256583
0.00256813
0.00255364
0.00256815
0.00255334
0.00256808
0.00255341
0.00258788
0.00258788
0.0025734
0.00257308
0.00257308
0.00258781
0.00257303
0.00255332
0.00256806
0.00256824
0.00255337
0.00255337
0.00256812
0.00256812
0.00255332
0.00256806
0.00257335
0.00258558
0.00258788
0.00257568
0.00258799
0.0025757
0.00257319
0.00257312
0.00258783
0.0025879
0.00257305
0.00257312
0.00258783
0.0025879
0.00257305
0.00256823
0.00256582
0.00255598
0.00255348
0.00256583
0.00256813
0.00255364
0.00256823
0.00256582
0.00255598
0.00255348
0.00256583
0.00256813
0.00255364
0.00256815
0.00255334
0.00256808
0.00255341
0.00256815
0.00255334
0.00256808
0.00255341
0.00258781
0.00257303
0.00258781
0.00257303
0.00256824
0.00255337
0.00255337
0.00256813
0.00256813
0.00255332
0.00256806
0.00255332
0.00256806
0.00254837
0.00253367
0.00254837
0.00253367
0.00254843
0.00254843
0.00253404
0.00253372
0.00253372
0.00251407
0.00252873
0.00251407
0.00252873
0.00252891
0.00251412
0.00251412
0.00252879
0.00252879
0.00253376
0.00254839
0.00254845
0.00253369
0.00253398
0.00254843
0.00254615
0.00253631
0.00254853
0.00253382
0.00253632
0.00253398
0.00254843
0.00254615
0.00253631
0.00254853
0.00253382
0.00253632
0.00252881
0.00251409
0.00252875
0.00251416
0.00252881
0.00251409
0.00252875
0.00251416
0.00252888
0.0025265
0.00251422
0.00251671
0.00252879
0.00252651
0.00251437
0.00252888
0.0025265
0.00251422
0.00251671
0.00252879
0.00252651
0.00251437
0.00254843
0.00254843
0.00253405
0.00253372
0.00253372
0.00254837
0.00253367
0.00251407
0.00252873
0.00252891
0.00251412
0.00251412
0.00252879
0.00252879
0.00251407
0.00252873
0.00253398
0.00254843
0.00254615
0.00253631
0.00254853
0.00253382
0.00253632
0.00253376
0.00254839
0.00254845
0.00253369
0.00253398
0.00254614
0.00254843
0.00253631
0.00254853
0.00253632
0.00253382
0.00252881
0.00251409
0.00252875
0.00251416
0.00252888
0.0025265
0.00251422
0.00251671
0.00252879
0.00252651
0.00251437
0.00252881
0.00251409
0.00252875
0.00251416
0.00252888
0.0025265
0.00251671
0.00251422
0.00252651
0.00252878
0.00251437
0.00253376
0.00254839
0.00254845
0.00253369
0.00253398
0.00254614
0.00254843
0.00253631
0.00254853
0.00253632
0.00253382
0.00253376
0.00254839
0.00254845
0.00253369
0.00252888
0.0025265
0.00251422
0.00251671
0.00252878
0.00252651
0.00251437
0.00252881
0.00251409
0.00252875
0.00251416
0.00252888
0.0025265
0.00251671
0.00251422
0.00252651
0.00252878
0.00251437
0.00252881
0.00251409
0.00252875
0.00251416
0.00254843
0.00254843
0.00253404
0.00253372
0.00253372
0.00254837
0.00253367
0.00251407
0.00252873
0.00252891
0.00251412
0.00251412
0.00252879
0.00252879
0.00251407
0.00252873
0.00253398
0.00254614
0.00254843
0.00253631
0.00254853
0.00253632
0.00253382
0.00253376
0.00254839
0.00254845
0.00253369
0.00253376
0.00254839
0.00254845
0.00253369
0.00252888
0.0025265
0.00251671
0.00251422
0.00252651
0.00252878
0.00251437
0.00252888
0.0025265
0.00251671
0.00251422
0.00252651
0.00252878
0.00251437
0.00252881
0.00251409
0.00252875
0.00251416
0.00252881
0.00251409
0.00252875
0.00251416
0.00254837
0.00253367
0.00254837
0.00253367
0.00252891
0.00251412
0.00251412
0.00252879
0.00252879
0.00251407
0.00252873
0.00251407
0.00252873
0.00250915
0.00249453
0.00250915
0.00249453
0.0025092
0.0025092
0.0024949
0.00249457
0.00249457
0.00247503
0.00248961
0.00247503
0.00248961
0.00248979
0.00247507
0.00247507
0.00248967
0.00248967
0.00249461
0.00250916
0.00250922
0.00249454
0.00249481
0.0025092
0.00250693
0.00249715
0.00250929
0.00249467
0.00249716
0.00249481
0.0025092
0.00250693
0.00249715
0.00250929
0.00249467
0.00249716
0.00248969
0.00247504
0.00248963
0.00247511
0.00248969
0.00247504
0.00248963
0.00247511
0.00248974
0.00248739
0.00247517
0.00247766
0.00248966
0.0024874
0.00247531
0.00248974
0.00248739
0.00247517
0.00247766
0.00248966