/*--------------------------------*- C++ -*----------------------------------*\
| =========                 |                                                 |
| \\      /  F ield         | OpenFOAM: The Open Source CFD Toolbox           |
|  \\    /   O peration     | Version:  2312                                  |
|   \\  /    A nd           | Website:  www.openfoam.com                      |
|    \\/     M anipulation  |                                                 |
\*---------------------------------------------------------------------------*/
FoamFile
{
    version     2.0;
    format      ascii;
    arch        "LSB;label=32;scalar=64";
    class       surfaceScalarField;
    location    "250";
    object      phi;
}
// * * * * * * * * * * * * * * * * * * * * * * * * * * * * * * * * * * * * * //

dimensions      [0 3 -1 0 0 0 0];

oriented        oriented;

internalField   nonuniform List<scalar> 
124457
(
-8.46236e-07
-8.46673e-07
-0.00114634
4.47892e-07
4.4856e-07
0.00114714
-0.00113698
-1.51127e-06
8.46525e-07
4.12363e-07
0.00113748
-4.98467e-07
1.12431e-06
1.23953e-07
7.24099e-07
-5.38065e-07
-1.23912e-06
5.61837e-08
-0.00113686
-1.50893e-06
8.46521e-07
4.18155e-07
0.00113735
-4.96513e-07
1.1216e-06
1.21116e-07
7.24307e-07
-5.37766e-07
-1.23874e-06
5.63946e-08
-0.000276391
1.53965e-06
1.5024e-06
-4.91794e-07
-4.94772e-07
0.000274336
-8.2478e-07
-8.25134e-07
-0.00114949
4.38419e-07
4.39128e-07
0.00115026
-0.00113888
-1.50269e-06
8.249e-07
4.02955e-07
0.00113933
-4.84391e-07
1.13105e-06
1.30134e-07
7.3027e-07
-5.21793e-07
-1.22194e-06
6.21536e-08
-0.00113875
-1.50001e-06
8.24753e-07
4.08276e-07
0.0011392
-4.81713e-07
1.12843e-06
1.27775e-07
7.30335e-07
-5.21565e-07
-1.22174e-06
6.22631e-08
-0.000276471
1.53168e-06
1.49439e-06
-4.78611e-07
-4.81565e-07
0.000274405
-8.0253e-07
-8.02846e-07
-0.00115254
4.28571e-07
4.29251e-07
0.00115329
-0.00114058
-1.49344e-06
8.02881e-07
3.94379e-07
0.00114098
-4.70571e-07
1.13682e-06
1.36207e-07
7.36445e-07
-5.05592e-07
-1.20415e-06
6.82871e-08
-0.00114045
-1.49075e-06
8.02604e-07
3.99621e-07
0.00114085
-4.67853e-07
1.13425e-06
1.33933e-07
7.36513e-07
-5.05505e-07
-1.20395e-06
6.83328e-08
-0.000276486
1.52278e-06
1.48543e-06
-4.6522e-07
-4.68146e-07
0.000274411
-7.80088e-07
-7.80399e-07
-0.00115549
4.18632e-07
4.19276e-07
0.00115622
-0.00114208
-1.48344e-06
7.80471e-07
3.86553e-07
0.00114243
-4.57752e-07
1.14196e-06
1.41318e-07
7.42753e-07
-4.89541e-07
-1.18596e-06
7.46126e-08
-0.00114195
-1.48089e-06
7.80287e-07
3.92036e-07
0.0011423
-4.55251e-07
1.13922e-06
1.38696e-07
7.42873e-07
-4.89431e-07
-1.18574e-06
7.46983e-08
-0.000276439
1.51295e-06
1.47557e-06
-4.51654e-07
-4.54577e-07
0.000274357
-7.57889e-07
-7.58172e-07
-0.00115835
4.09031e-07
4.09619e-07
0.00115904
-0.00114338
-1.47264e-06
7.57882e-07
3.78758e-07
0.00114368
-4.45455e-07
1.14664e-06
1.45712e-07
7.49148e-07
-4.73767e-07
-1.1677e-06
8.11411e-08
-0.00114325
-1.47021e-06
7.58046e-07
3.848e-07
0.00114355
-4.43134e-07
1.14363e-06
1.42685e-07
7.49245e-07
-4.73684e-07
-1.16754e-06
8.12214e-08
-0.000276339
1.5022e-06
1.46479e-06
-4.3788e-07
-4.40805e-07
0.000274251
-7.35383e-07
-7.3562e-07
-0.0011611
3.99523e-07
4.00106e-07
0.00116177
-0.00114449
-1.46104e-06
7.35467e-07
3.70862e-07
0.00114474
-4.33422e-07
1.15107e-06
1.49753e-07
7.55513e-07
-4.58472e-07
-1.14966e-06
8.77056e-08
-0.00114436
-1.45845e-06
7.35558e-07
3.76867e-07
0.00114461
-4.30888e-07
1.14806e-06
1.46675e-07
7.55585e-07
-4.58403e-07
-1.14956e-06
8.78209e-08
-0.000276192
1.49032e-06
1.4529e-06
-4.23741e-07
-4.26657e-07
0.0002741
-7.12466e-07
-7.12656e-07
-0.00116374
3.90145e-07
3.90785e-07
0.00116439
-0.0011454
-1.44852e-06
7.12786e-07
3.61814e-07
0.00114561
-4.21233e-07
1.15568e-06
1.54037e-07
7.61821e-07
-4.43683e-07
-1.13197e-06
9.42963e-08
-0.00114527
-1.44574e-06
7.12543e-07
3.67238e-07
0.00114547
-4.18343e-07
1.15291e-06
1.5136e-07
7.61836e-07
-4.43668e-07
-1.13192e-06
9.43646e-08
-0.000276007
1.47772e-06
1.44029e-06
-4.09637e-07
-4.1255e-07
0.000273911
-6.89659e-07
-6.89821e-07
-0.00116628
3.81339e-07
3.81913e-07
0.00116689
-0.00114613
-1.43537e-06
6.89596e-07
3.50721e-07
0.00114629
-4.08923e-07
1.16069e-06
1.58966e-07
7.68034e-07
-4.29389e-07
-1.11474e-06
1.00879e-07
-0.001146
-1.43287e-06
6.89832e-07
3.56977e-07
0.00114616
-4.0645e-07
1.15761e-06
1.55916e-07
7.68043e-07
-4.29381e-07
-1.11466e-06
1.00894e-07
-0.000275791
1.46495e-06
1.42753e-06
-3.96061e-07
-3.98945e-07
0.000273694
-6.66533e-07
-6.66684e-07
-0.0011687
3.7268e-07
3.73212e-07
0.00116929
-0.00114668
-1.42233e-06
6.66561e-07
3.38783e-07
0.0011468
-3.97289e-07
1.16549e-06
1.63816e-07
7.74183e-07
-4.15574e-07
-1.09803e-06
1.07403e-07
-0.00114655
-1.41965e-06
6.66788e-07
3.45172e-07
0.00114666
-3.94673e-07
1.16241e-06
1.60609e-07
7.74197e-07
-4.15522e-07
-1.09794e-06
1.0751e-07
-0.000275552
1.45172e-06
1.41431e-06
-3.82662e-07
-3.85508e-07
0.000273454
-6.43747e-07
-6.43749e-07
-0.001171
3.64475e-07
3.65218e-07
0.00117156
-0.00114707
-1.40956e-06
6.43983e-07
3.26849e-07
0.00114714
-3.86505e-07
1.16978e-06
1.68003e-07
7.80226e-07
-4.02227e-07
-1.08184e-06
1.13865e-07
-0.00114694
-1.4064e-06
6.43247e-07
3.31556e-07
0.00114701
-3.83069e-07
1.16737e-06
1.65817e-07
7.80172e-07
-4.0222e-07
-1.08184e-06
1.13974e-07
-0.000275297
1.43843e-06
1.40101e-06
-3.69704e-07
-3.72569e-07
0.0002732
-6.20521e-07
-6.20636e-07
-0.00117319
3.50578e-07
3.56899e-07
0.00117372
-0.0011473
-1.3965e-06
6.20521e-07
3.13602e-07
0.00114734
-3.75584e-07
1.17421e-06
1.72342e-07
7.86232e-07
-3.89317e-07
-1.06625e-06
1.20392e-07
-0.00114717
-1.39397e-06
6.2058e-07
3.19484e-07
0.0011472
-3.72931e-07
1.17134e-06
1.69735e-07
7.86193e-07
-3.89318e-07
-1.06619e-06
1.20387e-07
-0.000275032
1.42567e-06
1.38823e-06
-3.57691e-07
-3.60555e-07
0.000272937
-5.96264e-07
-5.96301e-07
-0.00117526
3.41837e-07
3.48171e-07
0.00117576
-0.00114738
-1.3835e-06
5.9621e-07
2.98286e-07
0.00114739
-3.64612e-07
1.17894e-06
1.77373e-07
7.92055e-07
-3.76945e-07
-1.05133e-06
1.26812e-07
-0.00114725
-1.38107e-06
5.9663e-07
3.04854e-07
0.00114726
-3.62343e-07
1.17572e-06
1.74053e-07
7.92005e-07
-3.76876e-07
-1.05131e-06
1.26855e-07
-0.000274762
1.41305e-06
1.37564e-06
-3.46219e-07
-3.49061e-07
0.000272669
-5.72832e-07
-5.72887e-07
-0.0011772
3.34188e-07
3.40446e-07
0.00117767
-0.00114734
-1.37127e-06
5.72545e-07
2.8271e-07
0.00114732
-3.54644e-07
1.1831e-06
1.81955e-07
7.97695e-07
-3.65049e-07
-1.03707e-06
1.33039e-07
-0.00114721
-1.36834e-06
5.72399e-07
2.88391e-07
0.00114718
-3.51671e-07
1.18031e-06
1.79061e-07
7.97617e-07
-3.65036e-07
-1.03709e-06
1.33117e-07
-0.000274491
1.40049e-06
1.36309e-06
-3.35026e-07
-3.37867e-07
0.000272401
-5.4853e-07
-5.486e-07
-0.00117901
3.26082e-07
3.32181e-07
0.00117945
-0.00114719
-1.35944e-06
5.49291e-07
2.66711e-07
0.00114714
-3.45019e-07
1.18685e-06
1.86131e-07
8.0295e-07
-3.53664e-07
-1.02364e-06
1.39088e-07
-0.00114706
-1.35649e-06
5.48942e-07
2.71932e-07
0.001147
-3.41881e-07
1.18428e-06
1.83732e-07
8.02888e-07
-3.53695e-07
-1.02358e-06
1.39091e-07
-0.000274223
1.38842e-06
1.35105e-06
-3.24523e-07
-3.27339e-07
0.000272135
-5.24013e-07
-5.24419e-07
-0.00118069
3.18133e-07
3.24299e-07
0.0011811
-0.00114693
-1.34748e-06
5.23877e-07
2.48302e-07
0.00114686
-3.34815e-07
1.19111e-06
1.91198e-07
8.0813e-07
-3.42808e-07
-1.01075e-06
1.45028e-07
-0.0011468
-1.34495e-06
5.24269e-07
2.54721e-07
0.00114672
-3.32326e-07
1.18809e-06
1.88199e-07
8.08129e-07
-3.42785e-07
-1.01066e-06
1.45029e-07
-0.000273959
1.37685e-06
1.33951e-06
-3.14687e-07
-3.17481e-07
0.000271875
-5.00625e-07
-5.00461e-07
-0.00118225
3.10083e-07
3.16913e-07
0.00118262
-0.00114659
-1.3367e-06
4.99871e-07
2.31559e-07
0.0011465
-3.25948e-07
1.1945e-06
1.95406e-07
8.12994e-07
-3.3252e-07
-9.98637e-07
1.50611e-07
-0.00114646
-1.33378e-06
5.00392e-07
2.37167e-07
0.00114636
-3.23086e-07
1.19179e-06
1.92619e-07
8.12758e-07
-3.32566e-07
-9.98742e-07
1.50546e-07
-0.000273702
1.36577e-06
1.32837e-06
-3.05324e-07
-3.08141e-07
0.000271621
-4.75207e-07
-4.75083e-07
-0.00118367
3.0162e-07
3.08312e-07
0.00118401
-0.00114618
-1.32585e-06
4.76373e-07
2.13363e-07
0.00114607
-3.17054e-07
1.19816e-06
1.9968e-07
8.17251e-07
-3.22783e-07
-9.87381e-07
1.55873e-07
-0.00114605
-1.32312e-06
4.75399e-07
2.19336e-07
0.00114593
-3.14251e-07
1.19535e-06
1.9696e-07
8.17602e-07
-3.22553e-07
-9.86897e-07
1.56107e-07
-0.000273453
1.35506e-06
1.31786e-06
-2.96567e-07
-2.99253e-07
0.000271375
-4.51059e-07
-4.51325e-07
-0.00118496
2.93992e-07
2.99874e-07
0.00118527
-0.0011457
-1.31584e-06
4.50522e-07
1.95407e-07
0.00114558
-3.08663e-07
1.20139e-06
2.03847e-07
8.22159e-07
-3.13084e-07
-9.75913e-07
1.61397e-07
-0.00114557
-1.31311e-06
4.50714e-07
2.01347e-07
0.00114545
-3.06033e-07
1.19849e-06
2.00849e-07
8.22279e-07
-3.13149e-07
-9.76005e-07
1.61436e-07
-0.000273212
1.34514e-06
1.30764e-06
-2.88131e-07
-2.91153e-07
0.000271139
-4.25196e-07
-4.25279e-07
-0.00118612
2.89524e-07
2.8999e-07
0.00118639
-0.00114518
-1.30639e-06
4.254e-07
1.78433e-07
0.00114505
-3.01087e-07
1.20417e-06
2.07318e-07
8.26545e-07
-3.0415e-07
-9.65624e-07
1.66448e-07
-0.00114505
-1.30331e-06
4.25106e-07
1.83265e-07
0.00114491
-2.97868e-07
1.20174e-06
2.05016e-07
8.26004e-07
-3.04291e-07
-9.66009e-07
1.66309e-07
-0.00027298
1.33513e-06
1.29787e-06
-2.80312e-07
-2.8309e-07
0.000270911
-4.00065e-07
-4.00021e-07
-0.00118716
2.80354e-07
2.80858e-07
0.0011874
-0.00114463
-1.29698e-06
3.9973e-07
1.60674e-07
0.00114449
-2.93263e-07
1.20727e-06
2.11149e-07
8.30219e-07
-2.9574e-07
-9.56161e-07
1.71121e-07
-0.00114449
-1.29462e-06
4.00283e-07
1.67676e-07
0.00114435
-2.90961e-07
1.20412e-06
2.08015e-07
8.30325e-07
-2.95641e-07
-9.5587e-07
1.71144e-07
-0.000272759
1.32649e-06
1.28926e-06
-2.73448e-07
-2.76158e-07
0.000270693
-3.73486e-07
-3.73523e-07
-0.00118807
2.69031e-07
2.69467e-07
0.00118828
-0.00114404
-1.28856e-06
3.73718e-07
1.44749e-07
0.0011439
-2.86261e-07
1.20981e-06
2.14673e-07
8.34274e-07
-2.87513e-07
-9.46612e-07
1.75812e-07
-0.00114391
-1.2856e-06
3.73113e-07
1.49818e-07
0.00114376
-2.83333e-07
1.20713e-06
2.11914e-07
8.34223e-07
-2.87453e-07
-9.46612e-07
1.75926e-07
-0.000272547
1.31751e-06
1.28028e-06
-2.66285e-07
-2.69055e-07
0.000270484
-3.48744e-07
-3.48771e-07
-0.00118886
2.58743e-07
2.59351e-07
0.00118904
-0.00114344
-1.28082e-06
3.48503e-07
1.29399e-07
0.00114329
-2.80185e-07
1.21185e-06
2.17402e-07
8.3772e-07
-2.80029e-07
-9.38e-07
1.79859e-07
-0.0011433
-1.27802e-06
3.48684e-07
1.35241e-07
0.00114315
-2.77292e-07
1.20915e-06
2.14806e-07
8.37627e-07
-2.8006e-07
-9.3797e-07
1.79828e-07
-0.000272345
1.30987e-06
1.27264e-06
-2.60424e-07
-2.63169e-07
0.000270286
-3.22608e-07
-3.22595e-07
-0.00118953
2.46797e-07
2.47233e-07
0.00118968
-0.00114283
-1.27345e-06
3.22779e-07
1.16979e-07
0.00114268
-2.74672e-07
1.21332e-06
2.18964e-07
8.41637e-07
-2.72119e-07
-9.29174e-07
1.84515e-07
-0.00114269
-1.2708e-06
3.22483e-07
1.22709e-07
0.00114254
-2.72049e-07
1.21042e-06
2.16091e-07
8.4169e-07
-2.72049e-07
-9.29052e-07
1.84582e-07
-0.000272153
1.30256e-06
1.26536e-06
-2.54608e-07
-2.57374e-07
0.000270097
-2.92477e-07
-2.92494e-07
-0.00119009
2.31541e-07
2.3189e-07
0.00119022
-0.00114221
-1.2643e-06
2.91483e-07
9.65074e-08
0.00114206
-2.6564e-07
1.21773e-06
2.25157e-07
8.45436e-07
-2.65364e-07
-9.21258e-07
1.88834e-07
-0.00114208
-1.26153e-06
2.92206e-07
1.02692e-07
0.00114192
-2.6289e-07
1.21487e-06
2.2224e-07
8.45171e-07
-2.65476e-07
-9.21453e-07
1.88721e-07
-0.000271971
1.29335e-06
1.25614e-06
-2.47441e-07
-2.50201e-07
0.000269919
-2.7632e-07
-2.76168e-07
-0.00119055
2.24753e-07
2.25284e-07
0.00119065
-0.0011416
-1.26159e-06
2.77102e-07
9.41159e-08
0.00114145
-2.65277e-07
1.21543e-06
2.23168e-07
8.46729e-07
-2.59918e-07
-9.14922e-07
1.90358e-07
-0.00114146
-1.25862e-06
2.76124e-07
9.91347e-08
0.00114131
-2.62234e-07
1.21294e-06
2.20758e-07
8.46767e-07
-2.59631e-07
-9.14596e-07
1.90578e-07
-0.000271796
1.2906e-06
1.25349e-06
-2.45975e-07
-2.48629e-07
0.000269747
-2.35569e-07
-2.35369e-07
-0.00119091
2.0035e-07
2.00948e-07
0.00119098
-0.001141
-1.25034e-06
2.37443e-07
7.02672e-08
0.00114085
-2.55043e-07
1.22126e-06
2.29393e-07
8.51675e-07
-2.51345e-07
-9.05897e-07
1.96568e-07
-0.00114086
-1.24748e-06
2.35239e-07
7.45664e-08
0.00114071
-2.52123e-07
1.21861e-06
2.2674e-07
8.52414e-07
-2.51137e-07
-9.05637e-07
1.97274e-07
-0.000271637
1.27914e-06
1.24205e-06
-2.36561e-07
-2.39303e-07
0.000269591
-0.00114026
-1.2491e-06
2.27518e-07
-2.56776e-07
1.21248e-06
2.19583e-07
-2.44961e-07
1.99986e-07
-1.16431e-06
-1.12377e-06
0.000276465
-0.000274365
9.1318e-08
9.66646e-08
0.00113644
8.50584e-07
4.20127e-07
-1.55229e-06
1.29774e-07
-5.04862e-07
-1.24956e-06
5.42425e-08
-5.42875e-07
7.27505e-07
1.16233e-06
0.00113652
8.50001e-07
4.19202e-07
-1.54924e-06
1.30962e-07
-5.03817e-07
-1.24931e-06
5.12706e-08
-5.40157e-07
7.27284e-07
-1.12429e-06
0.000276446
-0.000274346
9.2338e-08
9.48436e-08
0.00113744
8.51007e-07
4.18877e-07
-1.5122e-06
1.24149e-07
-4.99426e-07
-1.24927e-06
5.45746e-08
-5.42715e-07
7.27606e-07
1.15602e-06
0.0011364
8.50467e-07
-0.0011359
4.20047e-07
-1.54425e-06
1.29406e-07
-5.0534e-07
-1.24913e-06
5.17159e-08
-5.39817e-07
7.2763e-07
8.50367e-07
4.23736e-07
-1.51145e-06
1.25512e-07
-4.98156e-07
-1.24376e-06
5.41136e-08
7.21846e-07
-5.42834e-07
1.15379e-06
0.00113602
8.49616e-07
4.18971e-07
-1.54144e-06
1.28604e-07
-5.01923e-07
-1.24037e-06
4.84088e-08
-5.37006e-07
7.19317e-07
-1.12078e-06
0.000276421
-0.000274332
9.1462e-08
9.63989e-08
8.50913e-07
-0.00113636
4.1919e-07
-1.50922e-06
1.21033e-07
-4.96905e-07
-1.24366e-06
5.46024e-08
7.22102e-07
-5.42521e-07
1.11595e-06
0.001137
8.50201e-07
4.17656e-07
-1.5042e-06
1.25713e-07
-4.99397e-07
-1.2456e-06
5.45451e-08
-5.42326e-07
7.24878e-07
-0.000274308
9.19635e-08
9.47537e-08
1.55217e-06
1.51206e-06
-4.93431e-07
-4.98995e-07
0.000274393
-1.17103e-06
-1.13052e-06
0.000276546
-0.000274452
1.01223e-07
1.06553e-07
4.18992e-07
0.00113694
-5.04788e-07
1.16494e-06
1.29525e-07
7.29821e-07
-5.38022e-07
-1.24457e-06
5.61427e-08
-1.54908e-06
8.46119e-07
4.18816e-07
0.00113701
-5.04124e-07
1.16235e-06
1.29403e-07
7.29612e-07
-5.35358e-07
-1.24457e-06
5.33464e-08
0.00113834
8.29282e-07
-0.00113788
4.10603e-07
-1.5447e-06
1.3601e-07
-4.91843e-07
-1.23216e-06
6.02476e-08
-5.26145e-07
7.33935e-07
1.16875e-06
0.00113841
8.28825e-07
-0.00113796
4.09945e-07
-1.54181e-06
1.36768e-07
-4.91311e-07
-1.23187e-06
5.74232e-08
-5.23338e-07
7.33816e-07
-4.93086e-07
-4.95285e-07
0.000274374
-1.13073e-06
0.000276527
-0.000274433
1.01816e-07
1.04295e-07
4.17748e-07
0.00113794
-4.9934e-07
1.12441e-06
1.23912e-07
7.29915e-07
-5.3788e-07
-1.24429e-06
5.64639e-08
-1.544e-06
8.46162e-07
4.18954e-07
0.00113689
-5.04928e-07
1.15681e-06
1.29458e-07
7.29797e-07
-5.35072e-07
-1.24422e-06
5.34842e-08
0.00113934
8.29674e-07
-0.00113888
4.09276e-07
-1.50453e-06
1.30444e-07
-4.86356e-07
-1.23189e-06
6.05593e-08
-5.26015e-07
7.3403e-07
1.16291e-06
0.00113829
8.28833e-07
-0.00113784
4.10168e-07
-1.53654e-06
1.36225e-07
-4.91905e-07
-1.2318e-06
5.76312e-08
-5.23181e-07
7.33974e-07
8.44868e-07
4.1717e-07
0.00113651
-4.99399e-07
1.1551e-06
1.28912e-07
7.21004e-07
-5.32752e-07
5.01082e-08
-1.23617e-06
8.2916e-07
-0.00113843
4.14326e-07
-1.50395e-06
1.31346e-07
-4.85639e-07
-1.22633e-06
6.02437e-08
7.28413e-07
-5.26054e-07
1.1598e-06
0.00113791
8.28974e-07
-0.00113746
4.10704e-07
-1.534e-06
1.33286e-07
-4.90097e-07
-1.22306e-06
5.46375e-08
-5.20295e-07
7.25875e-07
-4.9372e-07
-4.98633e-07
0.00027436
-1.12758e-06
0.000276502
-0.000274419
1.01385e-07
1.06499e-07
8.45419e-07
4.15915e-07
0.0011375
-4.96869e-07
1.11723e-06
1.26012e-07
7.26585e-07
-5.38059e-07
5.62404e-08
-1.24138e-06
8.29383e-07
-0.0011383
4.09144e-07
-1.50154e-06
1.27892e-07
-4.83478e-07
-1.22627e-06
6.05341e-08
7.28514e-07
-5.25868e-07
1.12192e-06
0.0011389
8.29634e-07
-0.00113844
4.0931e-07
-1.49672e-06
1.30416e-07
-4.87546e-07
-1.22831e-06
6.07488e-08
-5.25563e-07
7.31395e-07
-0.000274394
1.00979e-07
1.03789e-07
1.54341e-06
1.50323e-06
-4.79176e-07
-4.84746e-07
0.000274463
-1.17657e-06
-1.13603e-06
0.000276561
-0.000274473
1.09958e-07
1.15297e-07
4.09689e-07
0.00113878
-4.90556e-07
1.17174e-06
1.35621e-07
7.3587e-07
-5.21768e-07
-1.22753e-06
6.20284e-08
-1.54055e-06
8.24612e-07
4.09508e-07
0.00113885
-4.90047e-07
1.16908e-06
1.35568e-07
7.35725e-07
-5.19025e-07
-1.22742e-06
5.92703e-08
0.00114003
8.07634e-07
-0.00113963
4.02463e-07
-1.53627e-06
1.4132e-07
-4.79292e-07
-1.21427e-06
6.64246e-08
-5.09834e-07
7.40381e-07
1.17409e-06
0.00114011
8.07409e-07
-0.0011397
4.02268e-07
-1.53353e-06
1.4165e-07
-4.79077e-07
-1.21396e-06
6.36397e-08
-5.07009e-07
7.40303e-07
-4.79136e-07
-4.81358e-07
0.000274444
-1.13606e-06
0.000276541
-0.000274454
1.10354e-07
1.12809e-07
4.08455e-07
0.00113978
-4.85074e-07
1.13121e-06
1.30046e-07
7.35975e-07
-5.21649e-07
-1.22725e-06
6.2341e-08
-1.53502e-06
8.24291e-07
4.09186e-07
0.00113874
-4.90131e-07
1.16376e-06
1.36114e-07
7.35795e-07
-5.18842e-07
-1.22724e-06
5.93595e-08
0.00114104
8.0799e-07
-0.00114063
4.01237e-07
-1.49607e-06
1.35757e-07
-4.73809e-07
-1.21397e-06
6.67254e-08
-5.09709e-07
7.40486e-07
1.16815e-06
0.00113999
8.07502e-07
-0.00113958
4.02813e-07
-1.52838e-06
1.41062e-07
-4.79772e-07
-1.21388e-06
6.37116e-08
-5.06895e-07
7.40442e-07
8.23628e-07
4.08491e-07
0.00113835
-4.86421e-07
1.1613e-06
1.34548e-07
7.27348e-07
-5.16327e-07
5.6199e-08
-1.21884e-06
8.07846e-07
-0.00114018
4.06464e-07
-1.49564e-06
1.36231e-07
-4.73409e-07
-1.20844e-06
6.6555e-08
7.34885e-07
-5.09652e-07
1.16503e-06
0.00113961
8.07724e-07
-0.0011392
4.02911e-07
-1.5255e-06
1.37883e-07
-4.77378e-07
-1.2054e-06
6.0959e-08
-5.04012e-07
7.3221e-07
-4.79407e-07
-4.84166e-07
0.00027443
-1.13285e-06
0.000276516
-0.00027444
1.09896e-07
1.14962e-07
8.24319e-07
4.07211e-07
0.00113934
-4.83868e-07
1.1234e-06
1.3167e-07
7.32892e-07
-5.21512e-07
6.22846e-08
-1.22407e-06
8.08073e-07
-0.00114005
4.01504e-07
-1.49332e-06
1.32764e-07
-4.7133e-07
-1.20835e-06
6.67147e-08
7.35001e-07
-5.09533e-07
1.12717e-06
0.0011406
8.08247e-07
-0.00114019
4.01726e-07
-1.48819e-06
1.35044e-07
-4.74816e-07
-1.2106e-06
6.68594e-08
-5.09367e-07
7.37764e-07
-0.000274415
1.09421e-07
1.12269e-07
1.53403e-06
1.49384e-06
-4.65192e-07
-4.70742e-07
0.000274469
-1.18123e-06
-1.14068e-06
0.000276515
-0.000274434
1.17856e-07
1.23202e-07
4.01055e-07
0.00114043
-4.76446e-07
1.1776e-06
1.41767e-07
7.42029e-07
-5.05706e-07
-1.20979e-06
6.8145e-08
-1.53133e-06
8.0247e-07
4.01151e-07
0.0011405
-4.76225e-07
1.17486e-06
1.41636e-07
7.41915e-07
-5.02949e-07
-1.20962e-06
6.53766e-08
0.00114153
7.85923e-07
-0.00114118
3.95535e-07
-1.52695e-06
1.45384e-07
-4.67202e-07
-1.19612e-06
7.28034e-08
-4.93658e-07
7.46767e-07
1.17878e-06
0.00114161
7.85656e-07
-0.00114125
3.95222e-07
-1.52417e-06
1.45682e-07
-4.66958e-07
-1.19582e-06
7.00821e-08
-4.908e-07
7.46712e-07
-4.65322e-07
-4.67553e-07
0.00027445
-1.14074e-06
0.000276495
-0.000274415
1.18255e-07
1.20714e-07
3.99918e-07
0.00114143
-4.70971e-07
1.13704e-06
1.36194e-07
7.42134e-07
-5.05585e-07
-1.2095e-06
6.84471e-08
-1.52582e-06
8.02075e-07
4.00877e-07
0.00114038
-4.76291e-07
1.16956e-06
1.42236e-07
7.41978e-07
-5.02888e-07
-1.20946e-06
6.53355e-08
0.00114254
7.86253e-07
-0.00114218
3.94302e-07
-1.48674e-06
1.39831e-07
-4.61725e-07
-1.1958e-06
7.3114e-08
-4.93525e-07
7.46894e-07
1.17278e-06
0.00114149
7.85846e-07
-0.00114113
3.95937e-07
-1.51897e-06
1.45051e-07
-4.67573e-07
-1.19575e-06
7.01328e-08
-4.90762e-07
7.46838e-07
8.02026e-07
4.00523e-07
0.00114
-4.73426e-07
1.16667e-06
1.39645e-07
7.33643e-07
-5.00045e-07
6.24969e-08
-1.20102e-06
7.86066e-07
-0.00114173
3.99461e-07
-1.48627e-06
1.4026e-07
-4.6131e-07
-1.1903e-06
7.29928e-08
7.413e-07
-4.93429e-07
1.16976e-06
0.00114111
7.85986e-07
-0.00114075
3.95878e-07
-1.51592e-06
1.42095e-07
-4.64753e-07
-1.18743e-06
6.73503e-08
-4.87931e-07
7.38469e-07
-4.65575e-07
-4.70381e-07
0.000274436
-1.13747e-06
0.00027647
-0.000274401
1.17768e-07
1.22848e-07
8.02526e-07
3.9943e-07
0.00114099
-4.70845e-07
1.12882e-06
1.36823e-07
7.39198e-07
-5.05435e-07
6.83836e-08
-1.20624e-06
7.86337e-07
-0.0011416
3.94604e-07
-1.48391e-06
1.36749e-07
-4.59154e-07
-1.19023e-06
7.31433e-08
7.41401e-07
-4.93349e-07
1.13192e-06
0.00114209
7.86393e-07
-0.00114174
3.9467e-07
-1.47854e-06
1.39292e-07
-4.62151e-07
-1.19256e-06
7.32475e-08
-4.93291e-07
7.441e-07
-0.000274375
1.17475e-07
1.20305e-07
1.52407e-06
1.48385e-06
-4.51494e-07
-4.5703e-07
0.000274415
-1.18568e-06
-1.14514e-06
0.000276415
-0.00027434
1.25528e-07
1.30877e-07
3.93242e-07
0.00114188
-4.63585e-07
1.18273e-06
1.46859e-07
7.48312e-07
-4.89707e-07
-1.19163e-06
7.44371e-08
-1.52134e-06
7.80046e-07
3.93367e-07
0.00114195
-4.63401e-07
1.18e-06
1.46734e-07
7.48219e-07
-4.86897e-07
-1.19144e-06
7.17112e-08
0.00114283
7.63813e-07
-0.00114253
3.88548e-07
-1.51636e-06
1.4929e-07
-4.54876e-07
-1.17795e-06
7.93605e-08
-4.7781e-07
7.53109e-07
1.18328e-06
0.00114291
7.6346e-07
-0.0011426
3.87953e-07
-1.5136e-06
1.49659e-07
-4.54648e-07
-1.17764e-06
7.66067e-08
-4.74985e-07
7.53077e-07
-4.51615e-07
-4.53853e-07
0.000274396
-1.14523e-06
0.000276395
-0.000274321
1.25932e-07
1.28397e-07
3.9208e-07
0.00114288
-4.58107e-07
1.14217e-06
1.41309e-07
7.48423e-07
-4.89581e-07
-1.19133e-06
7.47385e-08
-1.51596e-06
7.79814e-07
3.93322e-07
0.00114183
-4.6367e-07
1.17452e-06
1.46993e-07
7.48322e-07
-4.86841e-07
-1.19125e-06
7.16997e-08
0.00114384
7.64115e-07
-0.00114353
3.87285e-07
-1.47614e-06
1.4376e-07
-4.49388e-07
-1.17763e-06
7.96731e-08
-4.77678e-07
7.53244e-07
1.17731e-06
0.00114279
7.63672e-07
-0.00114248
3.88749e-07
-1.50828e-06
1.4909e-07
-4.55046e-07
-1.17763e-06
7.66746e-08
-4.74957e-07
7.53139e-07
7.79947e-07
3.93222e-07
0.00114145
-4.60902e-07
1.17149e-06
1.44074e-07
7.39965e-07
-4.84002e-07
6.8901e-08
-1.18291e-06
7.63747e-07
-0.00114308
3.92279e-07
-1.4757e-06
1.44229e-07
-4.49014e-07
-1.17212e-06
7.95552e-08
7.47686e-07
-4.77586e-07
1.17445e-06
0.00114241
7.63591e-07
-0.0011421
3.8843e-07
-1.50509e-06
1.46418e-07
-4.51936e-07
-1.16935e-06
7.38702e-08
-4.72167e-07
7.44735e-07
-4.52006e-07
-4.56805e-07
0.000274382
-1.14201e-06
0.00027637
-0.000274307
1.25535e-07
1.30618e-07
7.80333e-07
3.92097e-07
0.00114244
-4.58297e-07
1.13365e-06
1.41276e-07
7.45568e-07
-4.89372e-07
7.47831e-08
-1.18806e-06
7.6409e-07
-0.00114295
3.87489e-07
-1.47319e-06
1.40804e-07
-4.46623e-07
-1.17213e-06
7.96698e-08
7.47703e-07
-4.77546e-07
1.13663e-06
0.0011434
7.63981e-07
-0.00114309
3.87153e-07
-1.46767e-06
1.43641e-07
-4.49316e-07
-1.17448e-06
7.97503e-08
-4.77523e-07
7.50366e-07
-0.000274282
1.25417e-07
1.28228e-07
1.51343e-06
1.47319e-06
-4.37872e-07
-4.43395e-07
0.000274309
-1.19054e-06
-1.15001e-06
0.000276268
-0.0002742
1.33428e-07
1.38787e-07
3.86034e-07
0.00114313
-4.5148e-07
1.18716e-06
1.50924e-07
7.54656e-07
-4.73952e-07
-1.17342e-06
8.09432e-08
-1.51054e-06
7.57579e-07
3.85552e-07
0.0011432
-4.51086e-07
1.18469e-06
1.5114e-07
7.54579e-07
-4.71172e-07
-1.1732e-06
7.81953e-08
0.00114394
7.40938e-07
-0.00114368
3.7999e-07
-1.50445e-06
1.53938e-07
-4.41971e-07
-1.15993e-06
8.5914e-08
-4.62465e-07
7.59408e-07
1.18785e-06
0.00114401
7.40919e-07
-0.00114375
3.80079e-07
-1.50195e-06
1.53871e-07
-4.42157e-07
-1.1596e-06
8.31723e-08
-4.5964e-07
7.59416e-07
-4.37883e-07
-4.40115e-07
0.00027429
-1.14982e-06
0.000276249
-0.000274181
1.33569e-07
1.3602e-07
3.84812e-07
0.00114413
-4.45992e-07
1.14662e-06
1.45397e-07
7.54784e-07
-4.7382e-07
-1.1731e-06
8.12492e-08
-1.5053e-06
7.57639e-07
3.8605e-07
0.00114308
-4.51552e-07
1.17893e-06
1.50971e-07
7.54673e-07
-4.71102e-07
-1.17306e-06
7.82284e-08
0.00114494
7.41178e-07
-0.00114469
3.7881e-07
-1.46422e-06
1.48426e-07
-4.36483e-07
-1.15963e-06
8.62198e-08
-4.62339e-07
7.59535e-07
1.18219e-06
0.00114389
7.40768e-07
-0.00114363
3.80238e-07
-1.49632e-06
1.53795e-07
-4.42038e-07
-1.15965e-06
8.32197e-08
-4.59644e-07
7.59398e-07
7.57731e-07
3.86006e-07
0.0011427
-4.48642e-07
1.17592e-06
1.48067e-07
7.46281e-07
-4.68292e-07
7.54415e-08
-1.16479e-06
7.41228e-07
-0.00114423
3.84422e-07
-1.46404e-06
1.48452e-07
-4.36525e-07
-1.15411e-06
8.61112e-08
7.53999e-07
-4.62227e-07
1.17936e-06
0.00114351
7.40644e-07
-0.00114325
3.79734e-07
-1.49317e-06
1.51229e-07
-4.38983e-07
-1.15133e-06
8.04027e-08
-4.56851e-07
7.51028e-07
-4.38354e-07
-4.43145e-07
0.000274276
-1.1469e-06
0.000276223
-0.000274166
1.33482e-07
1.3856e-07
7.58094e-07
3.84787e-07
0.00114369
-4.46023e-07
1.1381e-06
1.45291e-07
7.51912e-07
-4.73646e-07
8.13141e-08
-1.16991e-06
7.41167e-07
-0.0011441
3.7901e-07
-1.46123e-06
1.45522e-07
-4.3362e-07
-1.15415e-06
8.61953e-08
7.53963e-07
-4.62233e-07
1.14156e-06
0.0011445
7.40969e-07
-0.00114424
3.78565e-07
-1.45575e-06
1.48463e-07
-4.36362e-07
-1.15653e-06
8.62649e-08
-4.622e-07
7.56694e-07
-0.000274141
1.33392e-07
1.362e-07
1.50165e-06
1.46141e-06
-4.23854e-07
-4.29346e-07
0.000274158
-1.19546e-06
-1.15495e-06
0.000276083
-0.00027402
1.41144e-07
1.46493e-07
3.77946e-07
0.00114418
-4.39203e-07
1.19163e-06
1.5499e-07
7.60996e-07
-4.58659e-07
-1.1554e-06
8.75376e-08
-1.49895e-06
7.35155e-07
3.77634e-07
0.00114426
-4.39051e-07
1.1891e-06
1.55173e-07
7.60955e-07
-4.55885e-07
-1.15512e-06
8.47703e-08
0.00114485
7.18003e-07
-0.00114464
3.70536e-07
-1.49198e-06
1.58785e-07
-4.29462e-07
-1.14217e-06
9.24237e-08
-4.476e-07
7.65669e-07
1.19277e-06
0.00114492
7.17938e-07
-0.00114471
3.70541e-07
-1.48936e-06
1.58654e-07
-4.29525e-07
-1.14187e-06
8.97313e-08
-4.44776e-07
7.65667e-07
-4.24047e-07
-4.26295e-07
0.000274139
-1.15475e-06
0.000276064
-0.000274001
1.41259e-07
1.43717e-07
3.76731e-07
0.00114519
-4.3371e-07
1.15111e-06
1.49484e-07
7.6113e-07
-4.58529e-07
-1.15508e-06
8.78445e-08
-1.49354e-06
7.35185e-07
3.78071e-07
0.00114414
-4.39301e-07
1.18335e-06
1.5495e-07
7.61007e-07
-4.5582e-07
-1.15507e-06
8.48419e-08
0.00114586
7.18213e-07
-0.00114565
3.6937e-07
-1.45174e-06
1.53293e-07
-4.23968e-07
-1.14186e-06
9.27228e-08
-4.47476e-07
7.65793e-07
1.18717e-06
0.0011448
7.17764e-07
-0.00114459
3.70649e-07
-1.48379e-06
1.58757e-07
-4.29431e-07
-1.1419e-06
8.97112e-08
-4.44805e-07
7.65627e-07
7.3508e-07
3.77644e-07
0.00114376
-4.36165e-07
1.18051e-06
1.52332e-07
7.52607e-07
-4.53042e-07
8.20328e-08
-1.1468e-06
7.1818e-07
-0.0011452
3.74904e-07
-1.45146e-06
1.53234e-07
-4.23905e-07
-1.13635e-06
9.26706e-08
7.60288e-07
-4.47347e-07
1.18416e-06
0.00114442
7.17803e-07
-0.00114421
3.70518e-07
-1.48081e-06
1.55916e-07
-4.2665e-07
-1.13357e-06
8.69269e-08
-4.41984e-07
7.57307e-07
-4.24322e-07
-4.29114e-07
0.000274125
-1.1519e-06
0.000276038
-0.000273987
1.41263e-07
1.46334e-07
7.3539e-07
3.76451e-07
0.00114475
-4.3354e-07
1.14271e-06
1.49572e-07
7.58283e-07
-4.58383e-07
8.78965e-08
-1.15199e-06
7.1813e-07
-0.00114506
3.69422e-07
-1.44869e-06
1.50494e-07
-4.21023e-07
-1.13639e-06
9.26791e-08
7.60201e-07
-4.47385e-07
1.14638e-06
0.00114541
7.18131e-07
-0.0011452
3.69363e-07
-1.44338e-06
1.53172e-07
-4.24016e-07
-1.13876e-06
9.27625e-08
-4.47331e-07
7.6295e-07
-0.000273961
1.41003e-07
1.438e-07
1.48899e-06
1.44874e-06
-4.09684e-07
-4.15161e-07
0.00027397
-1.20013e-06
-1.15966e-06
0.000275867
-0.000273809
1.48342e-07
1.53684e-07
3.68341e-07
0.00114505
-4.26734e-07
1.19644e-06
1.59628e-07
7.67278e-07
-4.43904e-07
-1.13772e-06
9.40947e-08
-1.48642e-06
7.12507e-07
3.68562e-07
0.00114512
-4.26854e-07
1.19369e-06
1.59451e-07
7.67254e-07
-4.41101e-07
-1.13744e-06
9.13738e-08
0.00114558
6.95231e-07
-0.00114541
3.60431e-07
-1.47927e-06
1.63314e-07
-4.17604e-07
-1.12475e-06
9.89995e-08
-4.33143e-07
7.71911e-07
1.19764e-06
0.00114565
6.94878e-07
-0.00114549
3.59904e-07
-1.47653e-06
1.63507e-07
-4.17426e-07
-1.12446e-06
9.62853e-08
-4.30356e-07
7.719e-07
-4.10017e-07
-4.12257e-07
0.000273951
-1.15965e-06
0.000275848
-0.00027379
1.48634e-07
1.51077e-07
3.67225e-07
0.00114606
-4.21241e-07
1.15594e-06
1.54137e-07
7.67398e-07
-4.43782e-07
-1.13742e-06
9.43924e-08
-1.48082e-06
7.12191e-07
3.6841e-07
0.001145
-4.26748e-07
1.18818e-06
1.59624e-07
7.6726e-07
-4.41088e-07
-1.13743e-06
9.14007e-08
0.00114659
6.95414e-07
-0.00114642
3.59173e-07
-1.43902e-06
1.57845e-07
-4.12104e-07
-1.12443e-06
9.93061e-08
-4.33012e-07
7.72053e-07
1.19181e-06
0.00114553
6.95111e-07
-0.00114537
3.60678e-07
-1.47111e-06
1.63221e-07
-4.17626e-07
-1.12448e-06
9.62955e-08
-4.30346e-07
7.71876e-07
7.121e-07
3.67979e-07
0.00114462
-4.23758e-07
1.18531e-06
1.57003e-07
7.58911e-07
-4.38292e-07
8.85973e-08
-1.12911e-06
6.95128e-07
-0.00114597
3.6425e-07
-1.43862e-06
1.58101e-07
-4.11802e-07
-1.11895e-06
9.92146e-08
7.66527e-07
-4.32929e-07
1.18876e-06
0.00114515
6.95226e-07
-0.00114498
3.60684e-07
-1.4681e-06
1.60281e-07
-4.14836e-07
-1.11621e-06
9.35061e-08
-4.27555e-07
7.63525e-07
-4.10097e-07
-4.14888e-07
0.000273937
-1.15655e-06
0.000275822
-0.000273776
1.4843e-07
1.53489e-07
7.12391e-07
3.66888e-07
0.00114561
-4.21125e-07
1.14754e-06
1.54258e-07
7.64552e-07
-4.43636e-07
9.44331e-08
-1.13432e-06
6.95464e-07
-0.00114584
3.59482e-07
-1.43603e-06
1.54958e-07
-4.09233e-07
-1.11895e-06
9.92471e-08
7.66477e-07
-4.32927e-07
1.15099e-06
0.00114614
6.95474e-07
-0.00114598
3.59478e-07
-1.43067e-06
1.57547e-07
-4.12202e-07
-1.12137e-06
9.93479e-08
-4.32873e-07
7.69197e-07
-0.00027375
1.4812e-07
1.50931e-07
1.47606e-06
1.43581e-06
-3.9595e-07
-4.01411e-07
0.000273753
-1.20481e-06
-1.16436e-06
0.000275628
-0.000273575
1.55226e-07
1.60563e-07
3.57931e-07
0.00114573
-4.14753e-07
1.20119e-06
1.64259e-07
7.73477e-07
-4.29606e-07
-1.12047e-06
1.0065e-07
-1.47327e-06
6.89354e-07
3.57483e-07
0.0011458
-4.14542e-07
1.19868e-06
1.64375e-07
7.73442e-07
-4.26818e-07
-1.12021e-06
9.7954e-08
0.00114613
6.72368e-07
-0.00114601
3.48915e-07
-1.46625e-06
1.67931e-07
-4.05968e-07
-1.1079e-06
1.05554e-07
-4.19194e-07
7.78051e-07
1.20206e-06
0.0011462
6.72349e-07
-0.00114608
3.49087e-07
-1.46377e-06
1.67798e-07
-4.06153e-07
-1.10757e-06
1.02835e-07
-4.16398e-07
7.78064e-07
-3.96066e-07
-3.98316e-07
0.000273734
-1.1641e-06
0.000275609
-0.000273556
1.55302e-07
1.57738e-07
3.56722e-07
0.00114674
-4.09253e-07
1.16072e-06
1.58792e-07
7.73611e-07
-4.29475e-07
-1.12016e-06
1.00955e-07
-1.46795e-06
6.89509e-07
3.5812e-07
0.00114568
-4.14839e-07
1.19286e-06
1.64181e-07
7.73446e-07
-4.26803e-07