/*--------------------------------*- C++ -*----------------------------------*\
| =========                 |                                                 |
| \\      /  F ield         | OpenFOAM: The Open Source CFD Toolbox           |
|  \\    /   O peration     | Version:  2312                                  |
|   \\  /    A nd           | Website:  www.openfoam.com                      |
|    \\/     M anipulation  |                                                 |
\*---------------------------------------------------------------------------*/
FoamFile
{
    version     2.0;
    format      ascii;
    arch        "LSB;label=32;scalar=64";
    class       surfaceScalarField;
    location    "250";
    object      phi;
}
// * * * * * * * * * * * * * * * * * * * * * * * * * * * * * * * * * * * * * //

dimensions      [0 3 -1 0 0 0 0];

oriented        oriented;

internalField   nonuniform List<scalar> 
125567
(
-3.67419e-08
-1.6579e-10
-0.000230436
4.35249e-10
1.23237e-08
-4.27547e-09
-8.10424e-09
-9.85265e-05
1.20812e-06
-1.40317e-09
2.05141e-07
-2.07343e-07
-1.20346e-06
2.25375e-07
-2.23829e-07
-0.0011346
-2.69895e-09
-8.55361e-07
8.55808e-07
9.06579e-09
2.33386e-08
-0.000246621
-8.17142e-08
-5.05315e-09
-1.68951e-09
-0.000251276
-8.65373e-11
-1.56132e-07
-3.23778e-09
-4.8288e-09
-9.49627e-07
7.67223e-07
-7.66353e-07
9.51115e-07
-0.0011524
-3.67329e-08
-0.000230397
1.23185e-08
4.51915e-10
-2.33115e-08
4.19432e-10
-0.000194513
-0.000251249
-1.56127e-07
1.6713e-10
2.83582e-09
1.24002e-06
-7.06777e-09
-8.60741e-07
2.05092e-07
8.61111e-07
-2.07379e-07
-1.23802e-06
2.28114e-07
-2.29322e-07
-0.00113411
-1.05674e-08
-9.49639e-07
7.67229e-07
-7.66402e-07
9.51123e-07
-0.00115235
1.15136e-08
-5.03685e-09
-0.000246518
-8.16755e-08
-0.000269068
2.13813e-07
2.18751e-07
6.32479e-09
-0.000279435
-2.08404e-08
8.09792e-09
6.32452e-09
-0.000279572
-2.30917e-08
-4.27602e-09
-9.85495e-05
-0.00019457
4.34739e-10
1.19585e-08
-9.40753e-10
0.000144106
7.0273e-10
-0.000144118
-1.3576e-10
-1.16896e-08
4.8469e-11
3.55197e-08
-0.00023046
-0.000224452
1.24417e-08
1.43739e-09
-3.98609e-08
-0.000171941
-4.01799e-10
-6.06348e-12
-9.57858e-11
3.84816e-08
-0.000224478
1.52135e-11
-0.000171954
2.40274e-10
1.26187e-08
7.97207e-05
-7.97326e-05
-0.000264524
1.1764e-08
-3.60503e-08
3.57389e-08
-0.00026455
3.36033e-09
8.90923e-09
-9.85388e-05
-9.65224e-10
1.19595e-08
0.000144033
7.23886e-10
-0.000144045
-1.16927e-08
1.17348e-10
3.55256e-08
-0.000230421
-0.000171905
-2.30531e-10
-0.000224352
1.24346e-08
1.4232e-09
-3.7404e-08
-0.000171918
-2.32589e-11
3.60419e-08
-0.000224376
2.56919e-10
1.26256e-08
7.96759e-05
-7.96878e-05
-0.000264396
1.17259e-08
-3.35929e-08
-2.87827e-09
2.47261e-08
-0.000194531
3.33455e-08
-0.000264419
-4.87726e-09
-4.91349e-09
0.000214734
1.09723e-08
8.80938e-09
-0.000214744
-8.09421e-05
-4.86914e-09
-4.5946e-09
-8.09659e-05
-4.83863e-09
-4.59946e-09
4.46669e-09
-8.09514e-05
4.40515e-09
-8.09752e-05
-1.09267e-08
-8.84204e-09
-1.34016e-08
1.76669e-08
0.000222874
2.93174e-08
-0.000222896
-0.000183879
-1.3316e-08
-5.94312e-09
2.15519e-08
1.11441e-08
-0.000279453
-0.000251725
1.70591e-08
-2.89472e-08
-5.99426e-08
-0.000183894
3.05231e-08
5.96389e-08
-0.000251776
-2.976e-08
1.76235e-08
-1.33969e-08
0.000222963
3.15191e-08
-0.00022299
-0.000183962
-1.32872e-08
2.37774e-08
-5.84417e-09
-8.91784e-09
8.64314e-09
-0.00027959
-0.0002519
1.71052e-08
-2.64301e-08
-5.99401e-08
2.79297e-08
5.9595e-08
-0.000251946
-0.000183976
-3.19218e-08
3.33893e-09
-9.85617e-05
2.47184e-08
-0.000194589
-2.88338e-09
2.38979e-09
-0.00120375
-1.19824e-08
-1.6179e-09
-0.00117869
-2.98589e-08
-0.00120289
-2.94931e-08
8.35866e-08
-0.000246676
4.07686e-09
-0.000261575
-7.46372e-09
-0.000261679
8.63429e-09
-1.74104e-07
4.49123e-09
0.000266763
-1.4403e-08
-0.000267529
-1.25922e-09
1.54664e-07
3.51212e-10
-0.000251394
-0.000250712
-1.76142e-07
1.72237e-09
-0.000266891
9.54018e-10
-6.64791e-09
-1.16931e-09
-0.000250847
3.92164e-09
-0.000267503
1.35331e-08
-1.57409e-07
0.000265148
-0.000265852
-0.000251911
-1.58294e-07
-0.000252027
6.6368e-10
-1.71538e-07
0.000266693
-1.30985e-09
-0.000267471
1.54676e-07
-2.76914e-10
-0.000251368
-0.000266874
-5.78435e-10
-0.000250625
-1.76122e-07
1.73947e-09
-0.000267481
-1.14705e-09
-0.00025076
4.15251e-10
-1.54974e-07
0.000265047
-8.68745e-09
-0.000265745
-0.000251805
-1.60775e-07
4.10586e-09
8.12093e-08
-0.000246567
-7.42817e-09
-0.000261467
-0.000251923
-0.000261571
8.9149e-08
9.17326e-08
0.000243974
-0.000244094
-2.16671e-07
-2.11828e-07
-0.000271081
-0.000262265
9.2164e-08
-0.000261916
8.96214e-08
-0.000262208
-0.000262555
1.26536e-09
1.63853e-09
-1.49769e-09
-1.30233e-09
0.00117913
-0.00117913
-1.20619e-06
-1.58382e-09
-2.75719e-09
0.00113473
-2.23889e-07
1.20824e-06
2.22588e-07
8.55707e-07
-2.07466e-07
2.05059e-07
-8.55482e-07
-0.00113472
-1.20346e-06
-1.58417e-09
2.79333e-09
0.00113458
-2.21139e-07
1.20543e-06
2.22563e-07
8.55649e-07
-2.07467e-07
2.05056e-07
-8.55451e-07
-0.00113459
1.23505e-06
1.19811e-06
-2.11657e-07
-2.14305e-07
0.000269042
-0.000271049
1.21005e-09
7.49558e-09
-0.00117913
-1.43616e-09
-1.25174e-09
-0.00113472
-1.20628e-06
-1.21568e-09
1.40253e-08
-2.23884e-07
1.20815e-06
2.22608e-07
8.55826e-07
-2.07407e-07
-8.5518e-07
2.05147e-07
-0.00113459
-1.20352e-06
-1.45374e-09
-1.38692e-08
-2.23876e-07
1.20534e-06
2.22607e-07
8.55815e-07
-2.07378e-07
-8.55273e-07
2.05125e-07
-0.000271049
1.23783e-06
1.19277e-06
-2.06513e-07
-2.16796e-07
0.000269042
1.2461e-06
1.20369e-06
-2.09155e-07
-2.16874e-07
0.000269096
-0.00027112
-1.24796e-06
-1.20553e-06
0.00027112
-0.000269096
2.10992e-07
2.18774e-07
2.97077e-09
0.00113417
-2.26603e-07
1.24811e-06
2.25187e-07
8.58415e-07
-2.04817e-07
2.02239e-07
-8.58321e-07
-0.00113417
-1.24351e-06
-1.3838e-09
2.93526e-09
0.00113424
-2.29435e-07
1.2455e-06
2.28014e-07
8.6367e-07
-2.07511e-07
2.04973e-07
-8.63504e-07
-0.00113424
0.00113417
-1.16811e-09
-0.00113417
3.39273e-09
-1.24623e-06
2.25148e-07
-2.26654e-07
-8.58094e-07
2.02273e-07
-2.04771e-07
8.58626e-07
1.24262e-06
0.00113424
-1.19083e-09
-0.00113424
3.41568e-09
-1.24362e-06
2.25228e-07
-2.29474e-07
-8.63256e-07
2.05015e-07
-2.07456e-07
8.61192e-07
-2.11837e-07
-2.14196e-07
0.000269081
-0.000271105
-1.20809e-06
0.000271102
-0.000269081
2.13703e-07
2.16078e-07
2.85499e-09
0.00113517
-2.23994e-07
1.20565e-06
2.22641e-07
8.61135e-07
-2.07506e-07
2.05133e-07
-8.60845e-07
-0.00113517
-1.23803e-06
-1.3835e-09
2.99427e-09
0.00113411
-2.29413e-07
1.23997e-06
2.27984e-07
8.60998e-07
-2.04826e-07
2.02255e-07
-8.60879e-07
-0.00113411
0.00113517
-1.53688e-09
-0.00113517
3.27587e-09
-1.2038e-06
2.22621e-07
-2.24035e-07
-8.60606e-07
2.05178e-07
-2.07455e-07
8.61355e-07
1.23991e-06
0.00113411
-7.12381e-09
-0.00113411
3.39337e-09
-1.23811e-06
2.27981e-07
-2.29436e-07
-8.60644e-07
2.02306e-07
-2.04781e-07
8.61219e-07
-1.35204e-09
2.8603e-09
0.00113374
-2.26518e-07
1.2371e-06
2.25229e-07
8.52807e-07
-2.02099e-07
1.99522e-07
-8.52706e-07
-0.00113374
-1.38732e-09
-0.00113473
8.76336e-09
-1.20632e-06
2.22544e-07
-2.23937e-07
-8.55203e-07
2.05102e-07
8.55975e-07
-2.07396e-07
1.23697e-06
0.00113374
-1.02495e-09
-0.00113374
3.33437e-09
-1.23515e-06
2.25206e-07
-2.26578e-07
-8.52496e-07
2.02259e-07
-2.02053e-07
8.53019e-07
-2.11897e-07
-2.16777e-07
0.000269065
-0.000271078
-1.20526e-06
0.000271081
-0.000269068
2.13729e-07
2.18642e-07
-1.63132e-09
2.77419e-09
0.00113473
-2.23924e-07
1.20007e-06
2.22608e-07
8.58168e-07
-2.07478e-07
2.05073e-07
-8.57883e-07
-0.00113473
-1.45342e-09
-0.00113458
-2.15252e-09
-1.20086e-06
2.22512e-07
-2.23962e-07
-8.55249e-07
2.05069e-07
8.55902e-07
-2.0743e-07
1.1999e-06
0.00113471
-1.43907e-09
-0.00113473
1.97704e-08
-1.19824e-06
2.22521e-07
-2.2402e-07
-8.57692e-07
2.05099e-07
-2.07417e-07
8.58495e-07
-0.000269042
2.13499e-07
2.1623e-07
1.24618e-06
1.20374e-06
-2.09126e-07
-2.16863e-07
0.000269096
-2.41103e-09
-2.2661e-07
1.24803e-06
2.25254e-07
8.5853e-07
-2.07428e-07
-8.58124e-07
2.05017e-07
-1.24086e-06
-9.93436e-10
8.65813e-09
-2.26669e-07
1.24268e-06
2.25292e-07
8.61114e-07
-2.07444e-07
-8.60615e-07
2.05045e-07
-2.11807e-07
-2.14196e-07
0.000269081
2.9807e-09
-2.23944e-07
1.20562e-06
2.22716e-07
8.61294e-07
-2.07411e-07
-8.60635e-07
2.0523e-07
-1.23808e-06
-7.13636e-09
3.10424e-09
-2.29351e-07
1.23998e-06
2.281e-07
8.61172e-07
-2.04723e-07
-8.60662e-07
2.05071e-07
-2.41224e-08
8.63897e-09
0.00113375
-2.29238e-07
1.23701e-06
2.28118e-07
8.55774e-07
-2.04672e-07
2.05028e-07
-8.5247e-07
-2.11882e-07
-2.16725e-07
0.000269068
-1.08704e-09
3.60468e-08
0.00113466
-2.18436e-07
1.20543e-06
2.22682e-07
8.58477e-07
-2.07349e-07
2.05138e-07
-8.57759e-07
-1.03015e-10
-3.67208e-08
0.000230473
1.23183e-08
2.35369e-10
-0.000230449
-3.41226e-09
2.47939e-08
0.000194588
-2.83009e-09
-0.000194607
4.27931e-09
-2.32783e-08
0.000194607
3.96732e-10
-0.000194588
6.1937e-11
3.56109e-08
0.000230449
-1.17463e-08
3.29178e-10
-0.000230473
3.42991e-09
1.10979e-08
9.85307e-05
-9.85453e-05
-4.28238e-09
-1.0289e-08
9.85453e-05
-9.85308e-05
-3.67272e-08
-1.52454e-10
0.00023046
1.93236e-10
1.23288e-08
-0.000230436
-3.41208e-09
2.47727e-08
0.000194571
-2.7966e-09
-0.000194589
4.30061e-09
-2.33436e-08
0.000194589
4.32593e-10
-0.000194571
3.56122e-08
1.9387e-10
0.000230436
2.91251e-10
-1.17474e-08
-0.00023046
-1.43433e-09
-1.36363e-09
0.0011789
-0.0011789
-1.48522e-09
-1.48975e-09
0.00117867
-0.00117867
-1.56943e-09
-1.43352e-09
0.00117864
-0.00117864
-0.00117913
-7.0092e-09
4.75969e-09
0.0011789
-0.0011789
-1.4452e-09
4.66744e-09
0.00117867
-0.00117867
-1.4927e-09
-6.97099e-09
0.00117863
-0.00117864
-1.68448e-09
1.03206e-08
3.66334e-08
-1.57122e-09
0.000251389
-3.22889e-10
-1.56032e-07
-0.000251268
-1.12205e-08
-2.47372e-08
8.60481e-08
0.000246632
6.58777e-09
-0.000246688
0.00115227
3.73653e-09
1.1436e-09
9.45467e-07
-7.60891e-07
7.64306e-07
-9.41502e-07
-0.00115229
8.33206e-09
1.20819e-06
0.00113472
-1.54855e-09
-8.554e-07
2.05093e-07
-2.07415e-07
8.55831e-07
-1.2062e-06
2.2256e-07
-2.23912e-07
1.15643e-08
2.3316e-08
0.000246688
-7.56777e-09
-0.000246632
-8.40128e-08
-3.34115e-09
0.00115229
1.0243e-09
-9.44195e-07
7.61635e-07
-7.63615e-07
9.42857e-07
-3.5544e-08
1.61379e-09
0.000251268
4.34381e-10
1.54736e-07
-0.000251389
3.42029e-09
8.89786e-09
9.85261e-05
-9.85384e-05
-4.28353e-09
-8.07036e-09
9.85385e-05
-9.85262e-05
-8.39913e-10
3.66371e-08
0.000251379
-1.56032e-07
-2.80374e-10
-0.000251259
0.0011521
3.16598e-09
9.93046e-10
9.45507e-07
-7.63682e-07
7.64331e-07
-9.4427e-07
-0.00115211
-1.11894e-08
-2.47785e-08
8.36938e-08
0.000246624
4.19067e-09
-0.000246676
3.03911e-09
1.20263e-06
0.00113458
-1.59897e-09
-8.55437e-07
2.05055e-07
-2.0744e-07
8.55777e-07
-1.20076e-06
2.22506e-07
-2.23953e-07
-4.81388e-09
0.00115211
8.13298e-10
-9.44216e-07
7.64429e-07
-7.63624e-07
9.45631e-07
1.15624e-08
2.33026e-08
0.000246676
-5.18752e-09
-0.000246624
-8.16068e-08
7.48226e-10
-3.55784e-08
0.000251259
1.54759e-07
6.63648e-10
-0.000251379
1.12386e-08
-8.89773e-09
2.61809e-08
0.000279512
-5.55938e-09
-0.000279535
1.12342e-08
-8.90759e-09
2.38504e-08
0.000279437
-6.02913e-09
-0.000279457
-1.23708e-06
-1.2e-06
0.000271049
-0.000269042
2.13475e-07
2.16234e-07
-1.15219e-08
8.09961e-09
0.000279535
5.80268e-09
-0.000279512
-2.53652e-08
-1.1576e-08
8.07669e-09
0.000279457
6.39254e-09
-0.000279437
-2.30671e-08
-0.000194607
-3.33374e-09
2.47406e-08
-2.91077e-09
0.000194589
-0.000230473
5.6202e-11
3.54804e-08
0.000230449
-1.16668e-08
3.31448e-10
-9.85456e-05
3.3414e-09
1.11422e-08
9.85311e-05
-0.00019459
-3.33163e-09
2.47084e-08
-2.88171e-09
0.000194571
-0.000230461
3.54655e-08
2.05537e-10
0.000230436
7.28726e-11
-1.16597e-08
1.03046e-08
2.22309e-08
-1.54214e-09
-2.41565e-08
3.33832e-08
2.77224e-08
0.00117854
3.66457e-08
-8.84587e-10
-0.000251271
-1.09686e-09
-1.56092e-07
-0.000246686
-1.09535e-08
-2.46846e-08
8.59872e-08
3.89399e-09
0.000246632
0.00115228
-0.00115228
1.36738e-08
-5.04525e-09
9.45657e-07
-7.63515e-07
-9.44013e-07
7.64425e-07
-0.000251389
-3.53994e-08
1.78682e-09
0.000251268
2.20121e-10
1.54656e-07
2.51239e-08
-2.26008e-08
-9.44103e-07
7.67195e-07
-7.63548e-07
9.48403e-07
-9.85387e-05
3.33289e-09
8.94249e-09
9.85264e-05
-1.69829e-09
3.66574e-08
-0.00025126
-1.56084e-07
-3.66855e-11
0.00115212
-0.00115211
-2.22713e-08
6.7267e-10
9.45661e-07
-7.63533e-07
-9.44045e-07
7.64429e-07
-0.000246676
-1.09487e-08
-2.47178e-08
8.36121e-08
3.91303e-09
0.000246624
-0.000251379
2.41378e-10
-3.54265e-08
0.000251259
1.54687e-07
7.10397e-10
-5.82883e-08
-5.11069e-09
-9.44132e-07
7.64417e-07
-7.60811e-07
9.4561e-07
-0.000279535
1.10158e-08
-8.96233e-09
2.3914e-08
-5.36837e-09
0.000279515
-0.000279457
1.09936e-08
-8.93824e-09
2.3841e-08
-5.84858e-09
0.000279437
-1.23224e-06
-1.27598e-06
-0.000269061
2.26439e-07
2.13981e-07
-1.14939e-08
8.09781e-09
6.33141e-09
-0.000279518
-2.31141e-08
-1.15073e-08
8.13119e-09
6.38734e-09
-0.000279437
-2.32043e-08
8.89884e-09
9.85539e-05
-9.85662e-05
-8.07284e-09
9.85662e-05
-9.85539e-05
8.91244e-09
9.85427e-05
-9.8555e-05
-8.06222e-09
9.85551e-05
-9.85427e-05
1.11973e-08
2.61686e-08
0.000279563
-8.07058e-09
-0.000279583
8.79405e-09
2.60876e-08
0.000279494
-5.45884e-09
-0.000279515
0.00027112
-1.24805e-06
-1.2056e-06
-0.000269096
2.10975e-07
2.1877e-07
0.000279583
-1.15164e-08
8.36078e-09
-0.000279563
-2.53544e-08
0.000279515
-9.19502e-09
5.90485e-09
-0.000279494
-2.53234e-08
-8.05341e-09
-4.30893e-09
9.85664e-05
-9.85541e-05
8.95829e-09
3.321e-09
9.8554e-05
-8.04805e-09
-4.32872e-09
9.85552e-05
-9.85429e-05
8.96982e-09
3.31929e-09
9.85428e-05
1.2462e-06
1.20378e-06
0.000269096
-2.09206e-07
-2.16927e-07
-1.16224e-08
0.000279584
-2.53065e-08
-0.000279563
8.4103e-09
-9.29108e-09
0.000279515
-2.5283e-08
-0.000279495
5.94636e-09
1.09421e-08
-7.89623e-09
2.62395e-08
0.000279563
8.53051e-09
-5.28351e-09
2.61583e-08
0.000279494
-3.67256e-08
0.000230432
1.23205e-08
4.2151e-10
-0.000230409
2.69764e-08
0.000194524
-2.85181e-09
-0.000194544
-2.54773e-08
0.000194545
4.46015e-10
-0.000194524
3.56063e-08
0.000230409
-1.17419e-08
7.16481e-11
-0.000230432
-8.8901e-10
0.000251404
-1.01238e-09
-1.56085e-07
-0.000251283
8.61194e-08
0.000246634
4.15063e-09
-0.000246688
0.00115256
3.53894e-09
1.24644e-09
9.48445e-07
-7.66514e-07
7.67167e-07
-9.47202e-07
-0.00115257
3.09768e-09
0.00113417
-1.24693e-09
-1.24612e-06
2.25144e-07
-2.26642e-07
-8.58276e-07
2.02259e-07
-2.04783e-07
8.58502e-07
0.000246688
-5.15068e-09
-0.000246634
-8.39415e-08
-3.96557e-09
0.00115257
1.09706e-09
-9.47156e-07
7.67262e-07
-7.66468e-07
9.48567e-07
8.39922e-10
0.000251283
1.18156e-09
1.54768e-07
-0.000251404
0.000251376
6.40617e-10
-1.56089e-07
-0.000251259
-1.11544e-08
8.60809e-08
0.00024653
4.12743e-09
-0.000246583
0.0011525
1.2095e-09
9.53751e-07
-7.66477e-07
7.67147e-07
-9.52453e-07
-0.0011525
3.07278e-09
0.00113424
1.24545e-06
-1.37583e-09
-8.63445e-07
2.04995e-07
8.63763e-07
-2.07469e-07
-1.24353e-06
2.27976e-07
-2.29467e-07
0.000246583
1.14749e-08
-5.11396e-09
-0.00024653
-8.39324e-08
0.0011525
1.05942e-09
-9.52411e-07
7.67244e-07
-7.66422e-07
9.53861e-07
0.000251258
-5.27626e-10
1.54759e-07
-0.000251376
6.1456e-11
3.54969e-08
-1.16562e-08
3.42351e-10
0.000230449
-2.33055e-08
-0.000194589
3.64685e-10
2.47548e-08
-2.93017e-09
0.000194588
-1.05549e-10
-3.6805e-08
-0.000230449
1.23576e-08
2.28325e-10
3.54915e-08
-1.16515e-08
9.28055e-11
0.000230409
-2.55073e-08
4.31587e-09
0.000194545
-0.000194524
4.12289e-10
2.69335e-08
-3.32917e-09
-2.96042e-09
0.000194524
-3.68065e-08
0.000230433
-0.000230409
1.23588e-08
4.26759e-10
8.23827e-10
1.23282e-09
1.54699e-07
0.000251283
-2.14388e-09
-1.21666e-09
1.24798e-06
-2.26674e-07
2.25116e-07
8.58599e-07
-2.04778e-07
2.02254e-07
-8.5817e-07
0.000246688
-8.39591e-08
-0.000246634
-5.29991e-09
-0.00115256
-4.93878e-09
0.00115256
8.87693e-10
-9.46931e-07
7.6735e-07
-7.66326e-07
9.48733e-07
3.89581e-09
8.60877e-08
0.000246634
3.05559e-09
9.50391e-10
9.48677e-07
-7.6639e-07
-9.47049e-07
7.67331e-07
-9.18715e-10
0.000251404
-0.000251283
-7.77954e-10
-1.56079e-07
-4.8664e-10
1.54691e-07
0.000251258
3.36097e-09
-1.24361e-06
-1.24073e-09
8.63857e-07
-2.07477e-07
-8.63348e-07
2.04983e-07
1.24537e-06
-2.29512e-07
2.2794e-07
1.15771e-08
0.000246583
-8.39577e-08
-0.000246531
-5.25583e-09
-0.0011525
0.0011525
9.04319e-10
-9.52192e-07
7.67323e-07
-7.6629e-07
9.51258e-07
-1.08906e-08
3.86399e-09
8.60496e-08
0.00024653
9.34296e-10
9.5398e-07
-7.66354e-07
-9.52292e-07
7.67305e-07
0.000251376
-0.000251258
4.01867e-10
-1.56082e-07
2.38024e-08
0.000279436
-6.04342e-09
-0.000279454
-8.89497e-09
2.61311e-08
0.000279577
-5.48737e-09
-0.0002796
0.000271105
-0.000269081
2.13743e-07
2.1608e-07
0.000279454
6.34272e-09
-0.000279436
-2.30134e-08
8.06808e-09
0.0002796
5.87676e-09
-0.000279577
-2.53833e-08
3.42223e-09
9.85493e-05
-9.85616e-05
9.85617e-05
-4.28442e-09
-9.85493e-05
-1.02728e-08
-9.8531e-05
1.11578e-08
9.85309e-05
1.20629e-06
0.000269081
-2.11896e-07
-2.14244e-07
0.000279454
-2.2969e-08
-0.000279436
6.38766e-09
8.02914e-09
-1.17161e-08
0.0002796
-2.53175e-08
-0.000279577
5.96469e-09
-5.8647e-09
2.38761e-08
0.000279436
-8.95834e-09
1.09702e-08
-5.30375e-09
2.61927e-08
0.000279577
-4.3295e-09
9.85618e-05
-9.85495e-05
3.31812e-09
9.85494e-05
-1.70524e-09
0.000251397
-3.06285e-10
-1.58645e-07
-0.000251273
8.36915e-08
0.000246597
6.61541e-09
-0.000246654
0.0011524
3.63915e-09
1.05737e-09
9.51037e-07
-7.6646e-07
7.67142e-07
-9.49749e-07
-0.0011524
3.02014e-09
0.00113517
-1.62989e-09
-1.20372e-06
2.22595e-07
-2.24039e-07
-8.60794e-07
2.05154e-07
-2.07474e-07
8.61229e-07
0.000246654
-7.63502e-09
-0.000246597
-8.16647e-08
-3.64687e-09
0.0011524
9.4204e-10
-9.49702e-07
7.67235e-07
-7.66403e-07
9.51153e-07
1.70147e-09
0.000251273
4.46083e-10
1.57313e-07
-0.000251397
-3.67139e-08
0.00023042
1.23215e-08
4.57057e-10
-0.000230396
2.48004e-08
0.000194512
-2.83931e-09
-0.000194531
-2.32741e-08
0.000194531
3.96554e-10
-0.000194512
3.56164e-08
0.000230396
-1.17497e-08
9.95534e-11
-0.00023042
0.000251367
-1.58634e-07
1.77739e-10
-0.000251247
0.00115234
1.12195e-09
9.51034e-07
-7.66511e-07
7.67146e-07
-9.49761e-07
-0.00115233
-1.12794e-08
8.13548e-08
0.000246517
4.19872e-09
-0.000246567
3.1227e-09
0.00113411
1.23994e-06
-1.30911e-09
-8.60831e-07
2.02271e-07
8.61085e-07
-2.04801e-07
-1.23805e-06
2.27946e-07
-2.29451e-07
0.00115233
1.0368e-09
-9.49719e-07
7.67234e-07
-7.66456e-07
9.51143e-07
0.000246567
1.15953e-08
-5.19156e-09
-0.000246517
-7.91703e-08
0.000251247
1.57333e-07
-5.60299e-11
-0.000251367
3.54921e-08
2.03524e-10
3.00583e-10
-1.16552e-08
0.000230436
-2.33733e-08
-0.000194571
4.00471e-10
2.47272e-08
-2.89954e-09
0.000194571
-3.68206e-08
-1.48501e-10
-0.000230436
4.12086e-10
1.237e-08
1.71376e-09
4.79894e-10
1.54677e-07
0.000251276
3.25709e-09
-1.57834e-09
1.20553e-06
-2.24066e-07
2.22577e-07
8.61334e-07
-2.07466e-07
2.05155e-07
-8.60681e-07
0.000246654
-8.16942e-08
-0.000246597
-7.7666e-09
-0.00115239
-3.46162e-09
0.0011524
-5.09128e-09
-9.49479e-07
7.67322e-07
-7.66265e-07
9.51309e-07
6.34836e-09
8.36564e-08
0.000246597
3.77642e-09
7.80854e-10
9.51274e-07
-7.66328e-07
-9.4958e-07
7.67311e-07
-1.68813e-09
0.000251397
-0.000251276
-6.52443e-11
-1.5609e-07
3.54969e-08
-1.16572e-08
1.25109e-10
0.000230396
-2.33071e-08
4.31822e-09
0.000194531
-0.000194513
3.64148e-10
2.47586e-08
-3.32863e-09
-2.9442e-09
0.000194512
-3.68091e-08
0.00023042
-0.000230397
1.23637e-08
4.60402e-10
1.54702e-07
-8.28302e-12
0.000251249
3.35115e-09
-1.2381e-06
-1.27909e-09
8.61192e-07
-2.04794e-07
-8.6072e-07
2.02278e-07
1.23989e-06
-2.29471e-07
2.27939e-07
-0.00115234
0.00115234
-4.94665e-09
-9.49498e-07
7.67321e-07
-7.66317e-07
9.51298e-07
1.17075e-08
0.000246567
-7.92149e-08
-0.000246517
-5.33589e-09
8.71892e-10
9.51269e-07
-7.66381e-07
-9.4959e-07
7.6731e-07
-1.1013e-08
3.92064e-09
8.13263e-08
0.000246517
0.000251367
-0.000251249
-1.5608e-07
1.92142e-10
-1.08458e-10
0.000230455
3.9638e-10
1.43364e-08
-0.000230433
0.000194574
-2.76569e-09
-0.000194593
0.000194593
4.29981e-10
-0.000194574
1.56919e-10
0.000230433
7.29081e-11
-1.37722e-08
-0.000230455
3.66791e-08
0.000251357
-1.53482e-07
4.23507e-10
-0.000251242
0.00115219
1.15995e-09
9.45461e-07
-7.63684e-07
7.64322e-07
-9.44186e-07
-0.00115219
-2.47873e-08
8.61052e-08
0.000246552
4.15236e-09
-0.000246607
2.89594e-09
0.00113373
4.18242e-09
-1.23505e-06
2.25197e-07
-2.26548e-07
-8.52686e-07
1.99545e-07
-2.02072e-07
8.52883e-07
0.00115218
6.75385e-09
-9.44179e-07
7.64407e-07
-7.63652e-07
9.45544e-07
2.32729e-08
0.000246607
-5.12961e-09
-0.000246552
-8.39207e-08
-3.56061e-08
0.000251242
1.52209e-07
-2.66607e-10
-0.000251357
0.000230418
1.22905e-08
4.55351e-10
-0.000230394
-3.43011e-09
0.000194517
-2.81754e-09
-0.000194536
0.000194536
4.25983e-09
4.22684e-10
-0.000194517
0.000230394
-1.17382e-08
9.23214e-11
-0.000230418
-3.54451e-08
1.63298e-09
4.78969e-10
1.5466e-07
0.000251268
-2.30362e-09
-1.51788e-09
1.2081e-06
-2.23962e-07
2.22509e-07
8.559e-07
-2.07404e-07
-8.55332e-07
2.0509e-07
2.33387e-08
-8.40347e-08
-0.000246632
-5.32926e-09
-0.00115227
-5.28733e-10
7.76287e-10
-9.4396e-07
7.64513e-07
9.45789e-07
-7.63463e-07
-2.46954e-08
6.36124e-09
8.59971e-08
0.000246632
4.59429e-09
8.64168e-10
9.45691e-07
-7.60783e-07
-9.41369e-07
7.64472e-07
3.67428e-08
-1.44018e-09
-0.000251268
-5.67161e-10
-1.56054e-07
1.59518e-10
9.62762e-11
-1.36883e-08
0.000230433
0.000194593
-0.000194575
3.69604e-10
-2.87603e-09
0.000194575
-7.2425e-11
0.000230455
-0.000230433
1.84977e-10
1.43905e-08
-3.55069e-08
1.52133e-07
-2.27928e-10
0.000251242
3.1925e-09
-1.2351e-06
-7.19694e-09
8.52996e-07
-2.02041e-07
-8.52562e-07
1.99559e-07
1.23702e-06
-2.26567e-07
2.25176e-07
-0.00115219
0.00115219
9.63994e-10
-9.43959e-07
7.64507e-07
-7.63515e-07
9.45727e-07
2.33129e-08
1.17123e-08
0.000246607
-8.15927e-08
-0.000246555
-5.31442e-09
-4.9983e-09
9.45682e-07
-7.63576e-07
-9.44053e-07
7.64485e-07
-2.47454e-08
-1.10112e-08
3.93493e-09
8.60471e-08
0.000246552
3.67819e-08
0.000251359
-0.000251242
-1.56069e-07
2.00504e-10
-1.16522e-08
1.04509e-10
0.000230394
4.31616e-09
0.000194536
-0.000194517
3.66697e-10
-3.34415e-09
-2.9104e-09
0.000194517
0.000230418
-0.000230394
1.23407e-08
4.57826e-10
2.15862e-08
0.000279434
-6.06576e-09
-0.000279452
-8.90813e-09
2.38684e-08
0.000279571
-8.55505e-09
-0.000279589
0.000271078
-0.000269068
2.1371e-07
2.18605e-07
0.000279452
6.34694e-09
-0.000279434
-2.07555e-08
8.04736e-09
0.000279589
8.96967e-09
-0.000279572
-2.30703e-08
3.40184e-09
9.85491e-05
-9.85614e-05
9.85615e-05
-4.29196e-09
-9.85491e-05
-8.04893e-09
-9.85263e-05
8.9537e-09
9.85262e-05
1.20083e-06
0.000269068
-2.11962e-07
-2.16815e-07
0.000279452
-2.07231e-08
-0.000279435
6.40931e-09
8.03495e-09
-1.16785e-08
0.000279589
-2.30403e-08
-0.000279572
9.04775e-09
-5.88782e-09
2.16514e-08
0.000279434
-8.97323e-09
1.09159e-08
-8.37854e-09
2.39429e-08
0.000279572
-4.32347e-09
9.85616e-05
-9.85493e-05
3.29986e-09
9.85492e-05
3.65983e-08
0.000251352
-1.56028e-07
8.86183e-10
-0.000251234
0.00115203
9.67977e-10
9.48011e-07
-7.63628e-07
7.64297e-07
-9.46735e-07
-0.00115203
-2.47761e-08
8.36839e-08
0.00024652
4.21273e-09
-0.000246572
2.97193e-09
0.00113473
-1.70345e-09
-1.19814e-06
2.22533e-07
-2.23989e-07
-8.57836e-07
2.05075e-07
-2.07446e-07
8.58319e-07
0.00115203
7.85716e-10
-9.46695e-07
7.64399e-07
-7.6357e-07
9.48125e-07
2.33188e-08
0.000246572
-5.19173e-09
-0.00024652
-8.16146e-08
-3.55296e-08
0.000251234
1.54739e-07
-7.65875e-10
-0.000251352
-1.36453e-10
0.000230448
4.80083e-10
1.43385e-08
-0.000230426
0.00019457
-2.82168e-09
-0.000194588
0.000194588
4.14777e-10
-0.00019457
8.22363e-11
0.000230426
5.07157e-11
-1.37952e-08
-0.000230447
0.000230407
4.32003e-10
1.6396e-08
-0.000230388
-3.42653e-09
0.00019451
-2.78083e-09
-0.000194528
0.000194528
4.28343e-09
4.26412e-10
-0.00019451
0.000230388
4.59953e-11
-1.58472e-08
-0.000230407
6.65604e-10
-3.54463e-08
1.5468e-07
4.76773e-10
0.000251259
3.28133e-09
-1.57619e-09
1.20256e-06
-2.23986e-07
2.22484e-07
8.55886e-07
-2.07437e-07
-8.55323e-07
2.05053e-07
-0.00115211
-1.30181e-08
5.98387e-10
-9.43986e-07
7.64507e-07
9.45788e-07
-7.63481e-07
2.33288e-08
-8.16316e-08
-0.000246624
-5.3406e-09
2.77611e-10
5.45679e-10
9.45763e-07
-7.63538e-07
-9.44086e-07
7.64507e-07
-2.4739e-08
3.89925e-09
8.36692e-08
0.000246624
-1.21814e-09
3.67221e-08
-0.000251259
-1.56032e-07
-1.0902e-11
-3.53937e-08
1.54661e-07
-9.64147e-10
0.000251235
3.2399e-09
-1.1982e-06
-1.56019e-09
8.58422e-07
-2.07429e-07
-8.57775e-07
2.05065e-07
1.19994e-06
-2.2402e-07
2.22513e-07
-0.00115203
0.00115203
5.46293e-10
-9.46461e-07
7.64482e-07
-7.63426e-07
9.48313e-07
2.33576e-08
1.16904e-08
0.000246572
-8.16647e-08
-0.00024652
-5.33899e-09
5.34396e-10
9.48263e-07
-7.63486e-07
-9.46557e-07
7.6448e-07
-2.47293e-08
-1.09768e-08
3.94605e-09
8.36484e-08
0.00024652
3.66869e-08
0.000251352
-0.000251234
-1.56036e-07
6.22983e-10
4.20448e-11
8.21039e-11
-1.36926e-08
0.000230426
0.000194589
-0.00019457
3.80641e-10
-2.94131e-09
0.00019457
-2.56109e-10
0.000230448
-0.000230426
4.8818e-10
1.43734e-08
-1.62646e-10
-1.57445e-08
0.000230388
4.31888e-09
0.000194529
-0.00019451
3.92076e-10
-3.33585e-09
-2.88544e-09
0.00019451
0.000230407
-0.000230388
4.18234e-10
1.64305e-08
9.85288e-05
-9.85411e-05
9.85412e-05
-9.85288e-05
9.85249e-05
-9.85373e-05
9.85373e-05
-9.8525e-05
0.000269042
-2.11712e-07
-2.14339e-07
8.06371e-09
-2.30358e-08
-0.000279515
5.90767e-09
8.06136e-09
-2.30509e-08
-0.000279437
6.46664e-09
-8.94919e-09
-5.39178e-09
2.62139e-08
0.000279512
-8.9568e-09
-5.84892e-09
2.38938e-08
0.000279437
9.85413e-05
-9.8529e-05
9.85289e-05
9.85375e-05
-9.85251e-05
9.8525e-05
8.94303e-09
9.85541e-05
8.9513e-09
9.8543e-05
1.09752e-08
2.62217e-08
-7.92239e-09
0.000279563
8.57026e-09
2.61359e-08
-5.31559e-09
0.000279495
2.69151e-08
-2.93872e-09
0.000194524
3.54782e-08
0.000230409
-1.16631e-08
9.3167e-11
8.60558e-08
3.91278e-09
0.000246634
1.31071e-09
1.0006e-09
9.48589e-07
-7.66374e-07
-9.46981e-07
7.67273e-07
8.0107e-10
0.000251283
9.52089e-10
1.54713e-07
-1.0929e-08
8.60117e-08
3.88695e-09
0.000246531
1.04806e-09
9.5115e-07
-7.66348e-07
-9.495e-07
7.67242e-07
0.000251258
-2.67623e-10
1.54711e-07
2.38591e-08
-5.89818e-09
0.000279436
-8.95033e-09
2.61883e-08
-5.30485e-09
0.000279577
3.31566e-09
8.36082e-08
6.37717e-09
0.000246597
4.03963e-09
-4.96657e-09
9.51203e-07
-7.66313e-07
-9.49531e-07
7.6725e-07
1.72804e-09
0.000251276
1.98826e-10
1.54683e-07
2.47305e-08
-2.91889e-09
0.000194513
3.54703e-08
0.000230397
-1.1662e-08
1.22138e-10
-4.85083e-09
9.51203e-07
-7.66363e-07
-9.49539e-07
7.67253e-07
-1.10328e-08
8.12582e-08
3.94073e-09
0.000246517
0.000251249
1.54704e-07
-1.84721e-11
4.82456e-11
-0.000230433
1.43257e-08
-2.88077e-09
0.000194575
2.0794e-10
0.000230433
9.90373e-11
-1.36846e-08
3.66906e-08
-0.000251242
-1.5865e-07
3.75516e-10
0.00115222
-1.66814e-08
9.45651e-07
-7.60778e-07
7.64438e-07
-9.41215e-07
-2.47219e-08
8.12089e-08
6.34036e-09
0.000246555
8.56712e-09
-2.39347e-07
-1.24332e-06
2.22711e-07
-2.31902e-07
-8.49886e-07
2.07727e-07
-2.01977e-07
8.5838e-07
-3.54566e-08
0.000251242
1.54677e-07
-1.1562e-11
-5.11602e-08
-9.41319e-07
7.67173e-07
-7.63596e-07
9.48324e-07
2.33248e-08
-7.45123e-09
-0.000246555
-8.40646e-08
-0.000230394
1.22796e-08
4.46842e-10
-3.32418e-09
-2.91428e-09
0.000194518
0.000230394
-1.16442e-08
9.91144e-11
4.28619e-09
4.23071e-10
-0.000194518
2.16234e-08
-5.89515e-09
0.000279435
-8.95696e-09
2.3889e-08
-5.79432e-09
0.000279569
3.30947e-09
9.85494e-05
3.66199e-08
-0.000251235
-1.56092e-07
-3.7475e-10
0.00115205
-5.36663e-09
9.4825e-07
-7.63476e-07
7.64424e-07
-9.46537e-07
-2.46973e-08
8.35732e-08
3.96304e-09
0.00024652
2.0208e-07
-2.33202e-08
-1.16533e-06
2.30969e-07
-2.15651e-07
-8.55029e-07
2.05177e-07
-2.07334e-07
8.58525e-07
-3.53716e-08
0.000251234
1.54659e-07
-1.25717e-09
-4.63217e-08
-9.4386e-07
7.64427e-07
-7.60746e-07
9.48313e-07
2.33624e-08
-5.06118e-09
-0.00024652
-8.17382e-08
-2.88469e-10
-0.000230426
4.94989e-10
1.43378e-08
-2.91862e-09
0.00019457
-1.00577e-10
0.000230426
3.1148e-10
-1.37049e-08
-0.000230388
2.12562e-10
1.63959e-08
-3.34099e-09
-2.86335e-09
0.00019451
0.000230388
-1.79362e-10
-1.5759e-08
4.2737e-09
4.45715e-10
-0.00019451
9.85291e-05
-9.85292e-05
9.85252e-05
-9.85253e-05
-9.48636e-10
1.19788e-08
0.000144107
7.02827e-10
-0.000144119
-0.000171944
-3.93016e-10
-1.95424e-11
0.000171956
-0.000224461
1.24474e-08
1.4704e-09
0.000224487
-3.9866e-08
-1.17136e-08
1.08859e-10
-0.000230473
-8.55361e-11
3.55793e-08
-0.000171956
-1.86964e-11
-7.55302e-11
-0.000224487
3.85474e-08
2.52127e-10
0.000144119
-1.1718e-08
-7.97187e-05
7.97307e-05
-2.3919e-10
4.51958e-10
0.000194607
4.22883e-09
-2.32574e-08
0.000264528
-1.26487e-08
9.82874e-11
3.58211e-08
-0.000264554
0.000264554
-1.43852e-09
-3.59517e-08
-6.95377e-10
-7.97307e-05
1.26364e-08
7.97187e-05
-0.000264528
1.17304e-08
0.000264554
-3.60056e-08
-2.86929e-09
-3.37212e-09
2.47764e-08
3.57892e-08
7.97307e-05
3.97682e-10
-1.23975e-08
-0.000144107
1.2266e-08
4.46251e-10
4.58891e-11
-3.66563e-08
0.000171944
9.45554e-10
-8.90036e-12
-0.000171956
0.000224461
-1.20087e-08
3.85899e-08
-0.000224487
-1.02496e-11
-3.97883e-08
-0.000144119
9.85453e-05
-4.2273e-09
-1.03235e-08
3.38325e-09
1.11243e-08
1.197e-08
-9.07256e-10
0.000144105
6.69668e-10
-0.000144117
-0.000224451
1.24624e-08
1.42926e-09
0.000224478
-3.98848e-08
-0.00017194
-4.33317e-10
1.30812e-11
0.000171953
6.71819e-11
-1.17095e-08
-0.00023046
5.32143e-11
3.55715e-08
-1.14901e-10
-0.000224478
3.85339e-08
-0.000171953
3.19412e-11
2.19077e-10
0.000144117
-1.17599e-08
-7.97203e-05
7.97322e-05
-2.02468e-10
4.89513e-10
0.000194589
4.24889e-09
-2.33193e-08
0.000264523
-1.2626e-08
1.38105e-10
3.58039e-08
-0.000264549
0.000264549
-1.39594e-09
-3.60062e-08
-6.5864e-10
-7.97322e-05
1.26141e-08
7.97203e-05
-0.000264523
1.17716e-08
0.000264549
-3.60657e-08
-2.83862e-09
-3.37014e-09
2.47518e-08
3.57659e-08
7.97323e-05
-1.24082e-08
4.41932e-10
-0.000144105
4.05749e-10
1.22714e-08
-6.23156e-12
-3.66622e-08
0.000224451
-1.20038e-08
3.85825e-08
-0.000224478
0.00017194
9.01393e-10
4.29343e-11
-0.000171953
-3.97952e-08
2.51625e-11
-0.000144117
9.85385e-05
-4.23037e-09
-8.10542e-09
3.38053e-09
8.92027e-09
-4.88432e-09
-4.94241e-09