/*--------------------------------*- C++ -*----------------------------------*\
| =========                 |                                                 |
| \\      /  F ield         | OpenFOAM: The Open Source CFD Toolbox           |
|  \\    /   O peration     | Version:  2312                                  |
|   \\  /    A nd           | Website:  www.openfoam.com                      |
|    \\/     M anipulation  |                                                 |
\*---------------------------------------------------------------------------*/
FoamFile
{
    version     2.0;
    format      ascii;
    arch        "LSB;label=32;scalar=64";
    class       volVectorField;
    location    "250";
    object      U;
}
// * * * * * * * * * * * * * * * * * * * * * * * * * * * * * * * * * * * * * //

dimensions      [0 1 -1 0 0 0 0];

internalField   nonuniform List<vector> 
43496
(
(-6.32025e-06 -3.34084e-08 0.091844)
(-2.75079e-06 1.98702e-06 0.0719641)
(6.77393e-07 -3.41435e-07 0.107735)
(-3.0979e-06 9.36252e-06 0.0934911)
(-1.1322e-05 1.95947e-08 0.0990282)
(4.61369e-07 -1.19593e-07 0.109921)
(-6.319e-06 4.16807e-08 0.0918439)
(-6.06477e-06 1.2408e-06 0.0826664)
(-1.13194e-05 -1.09596e-08 0.099028)
(3.78327e-07 -6.74231e-07 0.107732)
(4.75188e-07 1.08352e-07 0.10992)
(-9.35077e-06 3.09803e-06 0.0934898)
(-3.40365e-05 3.40686e-05 0.104691)
(-3.36496e-06 3.50135e-06 0.0879959)
(-3.49861e-06 3.35787e-06 0.0879987)
(-1.98934e-06 2.75173e-06 0.0719646)
(-1.23845e-06 6.06805e-06 0.0826667)
(3.42274e-06 -8.09176e-07 0.0772611)
(5.89893e-06 -7.01764e-08 0.0918159)
(-6.37798e-06 -1.73651e-07 0.0903553)
(-3.36963e-06 4.83107e-08 0.0790679)
(5.97536e-06 -1.25016e-07 0.0903223)
(3.27782e-06 -1.95473e-07 0.0790444)
(-3.45158e-06 4.71581e-07 0.0772894)
(2.95135e-06 -1.06302e-06 0.0687847)
(-5.40784e-06 -6.54483e-07 0.0862694)
(5.3813e-06 -1.15038e-07 0.0862309)
(-2.82291e-06 3.92634e-07 0.0688249)
(2.9412e-06 -1.82278e-06 0.0719298)
(3.42476e-06 8.19157e-07 0.0772606)
(5.90144e-06 8.26798e-08 0.0918158)
(-3.36884e-06 -4.27737e-08 0.0790678)
(-6.37939e-06 1.82599e-07 0.0903547)
(3.27959e-06 2.06299e-07 0.0790443)
(5.97941e-06 1.33894e-07 0.0903223)
(-3.44966e-06 -4.63873e-07 0.0772888)
(2.95171e-06 1.07371e-06 0.0687865)
(-5.40056e-06 6.65765e-07 0.0862693)
(6.48201e-06 -5.21407e-07 0.0826311)
(5.3859e-06 1.25964e-07 0.0862315)
(-2.81682e-06 -3.78246e-07 0.0688265)
(2.51512e-06 -2.52883e-06 0.083998)
(-1.43961e-06 1.82926e-06 0.068697)
(-1.83694e-06 1.42937e-06 0.0687027)
(1.46492e-06 -1.8092e-06 0.0686665)
(1.78623e-06 -1.47692e-06 0.068672)
(-2.54647e-06 2.53133e-06 0.0840238)
(7.35969e-06 -3.54134e-06 0.0920969)
(-3.15973e-06 1.95192e-06 0.0819809)
(3.70055e-06 -3.50891e-06 0.0879659)
(-1.05571e-05 5.85601e-06 0.0967571)
(3.30503e-06 -1.82482e-06 0.0819524)
(1.07575e-05 -6.2918e-06 0.0967228)
(-7.41434e-06 3.49886e-06 0.0921259)
(3.52104e-06 -7.3678e-06 0.0921037)
(-1.94772e-06 3.13676e-06 0.0819872)
(3.48173e-06 -3.69587e-06 0.0879677)
(-5.86777e-06 1.05572e-05 0.0967608)
(6.27451e-06 -1.07366e-05 0.0967258)
(1.78883e-06 -3.29955e-06 0.0819578)
(-3.5127e-06 7.41178e-06 0.092133)
(1.80704e-06 -2.94216e-06 0.0719298)
(5.17558e-07 -6.4821e-06 0.0826314)
(-2.45366e-07 2.72599e-07 0.113899)
(-5.44192e-07 5.54028e-07 0.112004)
(-2.36852e-07 -2.18867e-07 0.113898)
(2.82233e-06 -9.97839e-06 0.0934483)
(-2.91633e-06 3.97901e-05 0.100041)
(3.4652e-06 -4.0631e-05 0.0999897)
(3.91551e-05 2.32275e-07 0.103296)
(1.09083e-05 -2.2283e-08 0.098983)
(-1.17588e-05 -1.39692e-07 0.0980736)
(-3.86746e-05 1.98585e-07 0.104014)
(1.12148e-05 7.15189e-08 0.0980203)
(3.79736e-05 -9.87378e-08 0.103933)
(-4.00994e-05 3.65167e-08 0.103397)
(4.15216e-05 1.56459e-06 0.10177)
(-1.14751e-05 -1.04067e-06 0.0961111)
(1.12627e-05 6.78175e-07 0.0960562)
(-4.1923e-05 -1.20467e-06 0.101863)
(3.91514e-05 -2.40608e-07 0.103296)
(1.09126e-05 2.9962e-08 0.0989829)
(-3.86704e-05 -1.93682e-07 0.104014)
(-1.17677e-05 1.49852e-07 0.098073)
(3.79799e-05 1.01171e-07 0.103932)
(1.12217e-05 -6.94307e-08 0.0980204)
(-4.01127e-05 -2.30939e-08 0.103396)
(4.15407e-05 -1.58127e-06 0.10177)
(-1.14572e-05 1.04993e-06 0.0961104)
(9.98522e-06 -2.83336e-06 0.0934473)
(-3.97968e-05 2.89664e-06 0.100039)
(1.12682e-05 -6.73592e-07 0.0960563)
(-4.19205e-05 1.2216e-06 0.101862)
(4.0648e-05 -3.47689e-06 0.0999877)
(9.78562e-06 -9.81325e-06 0.0979929)
(3.27305e-05 -3.27343e-05 0.104591)
(-1.10119e-05 3.43008e-05 0.101939)
(-3.42995e-05 1.10345e-05 0.101942)
(3.42703e-05 -1.08752e-05 0.101886)
(1.0875e-05 -3.42765e-05 0.101883)
(-1.00665e-05 1.00692e-05 0.098035)
(-5.76489e-07 -5.50466e-07 0.112005)
(-3.26628e-07 6.86115e-07 0.107736)
(6.85732e-07 -3.31494e-07 0.107735)
(-3.27462e-05 -3.27253e-05 0.104591)
(-5.57575e-07 -5.37227e-07 0.112005)
(-3.54006e-07 7.05268e-07 0.107736)
(6.90577e-07 -3.35844e-07 0.107735)
(-3.27581e-05 -3.27446e-05 0.104591)
(3.27303e-05 3.27392e-05 0.104591)
(-3.40243e-05 -3.4018e-05 0.104692)
(7.1038e-07 3.62818e-07 0.107734)
(-7.08783e-07 3.52814e-07 0.107734)
(7.45166e-07 3.69443e-07 0.107734)
(-7.46046e-07 3.70326e-07 0.107733)
(-3.27439e-05 3.27176e-05 0.104592)
(3.40319e-05 -3.40213e-05 0.104693)
(3.26278e-07 6.96964e-07 0.107735)
(3.6085e-07 -7.0975e-07 0.107733)
(3.34738e-07 7.27229e-07 0.107735)
(3.79996e-07 -7.37531e-07 0.107733)
(-3.59785e-07 -6.90365e-07 0.107733)
(-3.44095e-07 7.25254e-07 0.107736)
(-3.91803e-07 -7.2828e-07 0.107734)
(3.27319e-05 -3.27549e-05 0.104591)
(-3.40041e-05 3.40409e-05 0.104692)
(-6.79119e-07 -3.314e-07 0.107735)
(7.35105e-07 -3.42242e-07 0.107735)
(-7.46912e-07 -3.47334e-07 0.107735)
(3.40124e-05 3.40369e-05 0.104692)
(3.27519e-05 3.27506e-05 0.104591)
(7.10234e-07 3.58877e-07 0.107734)
(-7.19532e-07 3.84659e-07 0.107734)
(-3.27676e-05 3.27425e-05 0.104592)
(3.2463e-07 6.85485e-07 0.107735)
(3.72081e-07 -6.96407e-07 0.107733)
(-3.94653e-07 -6.99029e-07 0.107733)
(3.27519e-05 -3.27548e-05 0.104591)
(-6.98142e-07 -3.73114e-07 0.107734)
(-3.96215e-08 -6.33396e-06 0.0918438)
(5.42442e-07 6.49353e-06 0.0826304)
(-1.2491e-06 -6.06246e-06 0.0826661)
(-8.12215e-08 5.92346e-06 0.0918157)
(-1.79223e-06 2.86672e-06 0.0719275)
(1.93453e-06 -2.67536e-06 0.071966)
(-6.33918e-06 -2.28966e-08 0.0918439)
(6.48707e-06 5.48221e-07 0.0826312)
(-6.07966e-06 -1.24517e-06 0.0826667)
(5.9247e-06 -6.67954e-08 0.0918158)
(5.67272e-07 -5.60211e-07 0.112006)
(-5.6886e-07 5.7237e-07 0.112004)
(5.62972e-07 5.8085e-07 0.112004)
(-5.67942e-07 -5.40784e-07 0.112005)
(5.55151e-07 -5.48379e-07 0.112005)
(-5.48832e-07 5.63512e-07 0.112004)
(5.44676e-07 5.71026e-07 0.112005)
(1.12677e-05 1.97438e-08 0.0990286)
(-1.00037e-05 2.8779e-06 0.0934481)
(-4.657e-07 -1.22268e-07 0.109921)
(-3.27979e-07 6.98853e-07 0.107736)
(9.35166e-06 -3.13044e-06 0.0934918)
(-4.4345e-07 -1.09872e-07 0.109921)
(-1.09325e-05 -2.46727e-08 0.0989833)
(2.94212e-06 -1.84755e-06 0.0719296)
(-2.74654e-06 1.9887e-06 0.0719639)
(3.65165e-09 1.12622e-05 0.0990282)
(-1.23545e-07 -4.50811e-07 0.10992)
(2.87273e-06 -1.00108e-05 0.0934482)
(7.16502e-07 -3.31323e-07 0.107735)
(-1.04862e-07 -4.32974e-07 0.10992)
(-3.14231e-06 9.33538e-06 0.093491)
(-2.28267e-08 -1.09372e-05 0.098983)
(-3.70871e-06 -3.55862e-06 0.087967)
(-3.54647e-06 -3.70526e-06 0.087966)
(3.40317e-05 3.4065e-05 0.104692)
(3.35704e-06 3.50783e-06 0.0879983)
(3.52668e-06 3.35301e-06 0.0879968)
(5.097e-07 6.47768e-06 0.0826306)
(-7.49953e-08 5.86456e-06 0.0918158)
(-1.76187e-06 2.86989e-06 0.0719278)
(6.4697e-06 5.14832e-07 0.0826314)
(5.86239e-06 -6.27964e-08 0.0918158)
(5.4245e-07 -5.34373e-07 0.112006)
(-5.49457e-07 5.54692e-07 0.112004)
(5.32613e-07 5.55082e-07 0.112004)
(1.13017e-05 2.69612e-08 0.0990285)
(-9.9852e-06 2.76788e-06 0.0934482)
(-4.60501e-07 -8.99651e-08 0.109921)
(-1.09259e-05 -2.48174e-08 0.0989833)
(-4.5253e-07 -9.59465e-08 0.109921)
(2.94496e-06 -1.8147e-06 0.0719298)
(-1.42698e-09 1.13056e-05 0.0990281)
(-8.93605e-08 -4.25605e-07 0.10992)
(2.76604e-06 -9.98763e-06 0.0934483)
(-2.69378e-08 -1.09298e-05 0.0989829)
(-1.08039e-07 -4.29523e-07 0.10992)
(-3.72322e-06 -3.48075e-06 0.0879672)
(-3.47453e-06 -3.70799e-06 0.0879661)
(3.41088e-05 3.40855e-05 0.104692)
(3.36581e-06 3.50881e-06 0.0879985)
(3.51839e-06 3.3799e-06 0.087997)
(1.84057e-06 2.9454e-06 0.0719291)
(-1.98477e-06 -2.75094e-06 0.0719643)
(2.94281e-06 1.836e-06 0.0719291)
(-2.74334e-06 -2.00558e-06 0.0719639)
(3.53232e-06 3.6872e-06 0.0879669)
(3.70665e-06 3.53795e-06 0.0879658)
(-3.40486e-05 -3.40333e-05 0.104692)
(-3.49295e-06 -3.32951e-06 0.0879991)
(-3.35398e-06 -3.54274e-06 0.0879969)
(-1.99347e-06 -2.74843e-06 0.0719644)
(1.80864e-06 2.94899e-06 0.0719291)
(-2.74184e-06 -2.01389e-06 0.0719641)
(2.9458e-06 1.80379e-06 0.0719292)
(3.27544e-05 3.27628e-05 0.104592)
(-3.51816e-06 -3.31865e-06 0.0879992)
(-3.34548e-06 -3.56591e-06 0.087997)
(3.46106e-06 3.71517e-06 0.0879669)
(3.73376e-06 3.46514e-06 0.0879658)
(2.82042e-08 -6.33675e-06 0.0918439)
(-5.25002e-07 6.45321e-06 0.0826299)
(1.22758e-06 -6.02432e-06 0.0826671)
(6.7224e-08 5.92299e-06 0.0918159)
(4.05477e-09 -1.12853e-05 0.0990282)
(2.87117e-06 1.00212e-05 0.0934472)
(-1.14642e-07 4.70481e-07 0.109921)
(7.28751e-07 3.62233e-07 0.107734)
(-3.13038e-06 -9.32279e-06 0.0934907)
(-1.05967e-07 4.51582e-07 0.109921)
(-3.16561e-08 1.09419e-05 0.0989831)
(-1.82777e-08 -1.12887e-05 0.0990284)
(-2.86084e-06 1.00049e-05 0.0934468)
(1.20156e-07 4.65832e-07 0.109921)
(-7.31148e-07 3.57321e-07 0.107733)
(3.1222e-06 -9.31434e-06 0.0934911)
(1.12951e-07 4.48787e-07 0.109921)
(2.52063e-08 1.09418e-05 0.0989833)
(-7.87609e-08 5.86518e-06 0.0918157)
(-1.26134e-06 -6.06652e-06 0.0826662)
(5.0093e-07 6.47191e-06 0.0826305)
(-3.33303e-08 -6.37514e-06 0.0918439)
(6.72013e-08 5.86402e-06 0.0918159)
(1.24034e-06 -6.02857e-06 0.0826672)
(-4.80583e-07 6.43038e-06 0.08263)
(2.81795e-08 -6.37696e-06 0.091844)
(-4.04732e-08 1.09374e-05 0.0989831)
(7.52423e-07 3.67387e-07 0.107734)
(-3.18096e-06 -9.33186e-06 0.0934908)
(-7.12991e-08 4.50048e-07 0.109921)
(2.76261e-06 1.00164e-05 0.0934472)
(-8.07891e-08 4.44348e-07 0.109921)
(1.73191e-08 -1.12645e-05 0.0990281)
(2.83495e-08 1.09382e-05 0.0989833)
(-7.55091e-07 3.64193e-07 0.107734)
(3.17087e-06 -9.32511e-06 0.0934912)
(6.83858e-08 4.54793e-07 0.109921)
(-2.74828e-06 9.99916e-06 0.0934468)
(8.43717e-08 4.4583e-07 0.109921)
(-2.63727e-08 -1.12668e-05 0.0990283)
(-3.53308e-06 3.67063e-06 0.0879651)
(-3.702e-06 3.54081e-06 0.0879674)
(3.40543e-05 -3.40503e-05 0.104693)
(3.49412e-06 -3.31866e-06 0.0879979)
(3.35335e-06 -3.52898e-06 0.0879991)
(-2.93769e-06 1.83779e-06 0.0719294)
(2.74286e-06 -1.99498e-06 0.0719647)
(1.94504e-06 -2.67404e-06 0.0719661)
(-1.75812e-06 2.86975e-06 0.0719276)
(-3.27695e-05 3.27428e-05 0.104592)
(3.51813e-06 -3.30833e-06 0.0879979)
(3.33661e-06 -3.56456e-06 0.0879992)
(-3.45979e-06 3.69973e-06 0.0879652)
(-3.72832e-06 3.46532e-06 0.0879675)
(2.73563e-06 -2.00816e-06 0.0719649)
(-2.94211e-06 1.79864e-06 0.0719294)
(-1.12877e-05 1.39474e-08 0.0990283)
(1.00123e-05 2.87415e-06 0.0934478)
(4.57101e-07 -1.23159e-07 0.109921)
(3.27031e-07 7.18987e-07 0.107735)
(-9.35555e-06 -3.14735e-06 0.0934908)
(4.44238e-07 -1.11033e-07 0.109921)
(1.09419e-05 -3.20133e-08 0.098983)
(-6.3368e-06 4.31924e-08 0.0918438)
(6.50035e-06 -5.40907e-07 0.0826309)
(-6.0675e-06 1.24911e-06 0.0826661)
(5.92728e-06 7.96842e-08 0.0918157)
(-1.12831e-05 -1.1896e-08 0.0990281)
(4.69091e-07 1.10039e-07 0.10992)
(1.0022e-05 -2.88082e-06 0.0934473)
(3.65732e-07 -7.28335e-07 0.107733)
(4.56958e-07 1.01623e-07 0.10992)
(-9.31673e-06 3.14087e-06 0.0934896)
(1.09452e-05 2.57034e-08 0.098983)
(5.86353e-06 -6.18332e-08 0.0918158)
(-6.08298e-06 -1.25629e-06 0.0826669)
(6.46392e-06 5.06126e-07 0.0826313)
(-6.37938e-06 -1.98478e-08 0.091844)
(1.09354e-05 -3.25138e-08 0.0989832)
(3.31911e-07 7.38335e-07 0.107736)
(-9.3677e-06 -3.19292e-06 0.0934908)
(4.53172e-07 -7.54889e-08 0.109921)
(1.00053e-05 2.76195e-06 0.0934478)
(4.37223e-07 -8.61668e-08 0.109921)
(-1.12714e-05 2.85042e-08 0.0990282)
(5.86593e-06 8.16759e-08 0.0918157)
(-6.07148e-06 1.26173e-06 0.0826663)
(6.478e-06 -4.99875e-07 0.082631)
(-6.37738e-06 4.15542e-08 0.0918438)
(1.09403e-05 3.44964e-08 0.0989831)
(3.70822e-07 -7.45636e-07 0.107733)
(4.68255e-07 6.47925e-08 0.10992)
(-9.33145e-06 3.19207e-06 0.0934897)
(4.51094e-07 7.67565e-08 0.10992)
(1.00167e-05 -2.76606e-06 0.0934472)
(-1.12674e-05 -1.68707e-08 0.099028)
(6.29276e-06 -1.01995e-08 0.0918446)
(-6.47194e-06 5.61161e-07 0.0826309)
(6.0644e-06 -1.24694e-06 0.0826671)
(-5.89072e-06 -7.95171e-08 0.0918152)
(1.12723e-05 -6.1066e-09 0.0990283)
(-4.67813e-07 1.16895e-07 0.10992)
(-1.00225e-05 -2.87578e-06 0.0934476)
(-3.60763e-07 -6.95353e-07 0.107734)
(-4.58492e-07 1.13438e-07 0.10992)
(9.32276e-06 3.12104e-06 0.0934908)
(-1.0946e-05 3.04933e-08 0.0989833)
(6.31985e-06 4.76518e-08 0.0918439)
(-6.49332e-06 -5.47676e-07 0.082631)
(6.06275e-06 1.23738e-06 0.0826666)
(-5.9218e-06 7.3967e-08 0.0918156)
(-1.09202e-05 -3.27378e-08 0.0989834)
(-3.29104e-07 7.34863e-07 0.107736)
(9.35518e-06 -3.20227e-06 0.0934918)
(-4.43241e-07 -6.50858e-08 0.109921)
(-9.99452e-06 2.77692e-06 0.0934482)
(-4.39453e-07 -8.98298e-08 0.109921)
(1.12511e-05 3.27547e-08 0.0990285)
(-5.84269e-06 -8.09185e-08 0.0918152)
(6.06947e-06 -1.26879e-06 0.0826673)
(-6.45139e-06 5.15719e-07 0.0826309)
(6.3477e-06 -6.95008e-09 0.0918446)
(-1.09346e-05 3.60512e-08 0.0989833)
(-3.68451e-07 -7.23592e-07 0.107733)
(-4.63714e-07 6.80072e-08 0.10992)
(9.34104e-06 3.19204e-06 0.0934909)
(-4.45634e-07 8.4343e-08 0.10992)
(-1.00109e-05 -2.78127e-06 0.0934476)
(1.12587e-05 -1.25257e-08 0.0990283)
(-5.87213e-06 7.13983e-08 0.0918156)
(6.06892e-06 1.26022e-06 0.0826667)
(-6.47433e-06 -5.09608e-07 0.082631)
(6.37053e-06 4.47661e-08 0.091844)
(3.70276e-06 -3.5583e-06 0.0879657)
(3.52256e-06 -3.68969e-06 0.0879674)
(-3.40231e-05 3.40467e-05 0.104692)
(-3.34445e-06 3.51562e-06 0.0879957)
(-3.51365e-06 3.32895e-06 0.0879985)
(1.82972e-06 -2.94637e-06 0.0719295)
(-1.99662e-06 2.74352e-06 0.0719643)
(-2.74376e-06 2.00091e-06 0.071964)
(2.94508e-06 -1.8148e-06 0.0719296)
(3.27601e-05 -3.27694e-05 0.104591)
(-3.33466e-06 3.54501e-06 0.0879958)
(-3.54689e-06 3.32522e-06 0.0879985)
(3.72796e-06 -3.48497e-06 0.0879657)
(3.44987e-06 -3.72113e-06 0.0879674)
(-2.00695e-06 2.74129e-06 0.0719644)
(1.79436e-06 -2.95033e-06 0.0719296)
(-1.57108e-08 1.12594e-05 0.0990285)
(1.20982e-07 -4.46608e-07 0.10992)
(-2.88243e-06 -1.00151e-05 0.0934479)
(-7.15975e-07 -3.22811e-07 0.107735)
(1.17744e-07 -4.30941e-07 0.10992)
(3.14096e-06 9.34365e-06 0.0934909)
(2.91943e-08 -1.09307e-05 0.0989831)
(-5.29829e-08 6.29923e-06 0.0918442)
(5.41955e-07 -6.49268e-06 0.0826312)
(-1.24736e-06 6.06927e-06 0.0826665)
(-6.37812e-08 -5.90689e-06 0.091815)
(2.22819e-08 6.27931e-06 0.0918448)
(-5.5315e-07 -6.49171e-06 0.0826316)
(1.24306e-06 6.07596e-06 0.0826671)
(7.3984e-08 -5.8843e-06 0.0918146)
(-3.11824e-08 -1.0932e-05 0.098983)
(7.38426e-07 -3.34668e-07 0.107735)
(-6.70772e-08 -4.27914e-07 0.10992)
(-3.19387e-06 9.34572e-06 0.093491)
(-8.16734e-08 -4.14534e-07 0.10992)
(2.75286e-06 -1.00055e-05 0.0934482)
(7.18841e-09 1.12463e-05 0.0990281)
(3.23384e-08 -1.09246e-05 0.0989832)
(-7.30336e-07 -3.43168e-07 0.107735)
(7.76994e-08 -4.31425e-07 0.10992)
(3.19194e-06 9.36286e-06 0.093491)
(8.15449e-08 -4.13625e-07 0.10992)
(-2.77138e-06 -1.00053e-05 0.093448)
(-3.53329e-08 1.12449e-05 0.0990284)
(-6.67396e-08 -5.83862e-06 0.091815)
(-1.25973e-06 6.07269e-06 0.0826666)
(4.95256e-07 -6.47198e-06 0.0826313)
(-5.42729e-08 6.33867e-06 0.0918442)
(6.78732e-08 -5.8155e-06 0.0918146)
(1.2563e-06 6.08064e-06 0.0826672)
(-5.11272e-07 -6.46917e-06 0.0826316)
(1.36e-08 6.32004e-06 0.0918449)
(-2.94067e-06 -1.85122e-06 0.0719297)
(2.75266e-06 1.98154e-06 0.0719646)
(-1.84194e-06 -2.94392e-06 0.0719298)
(1.99541e-06 2.74762e-06 0.0719645)
(-3.27695e-05 -3.27315e-05 0.104591)
(3.34514e-06 3.54953e-06 0.0879984)
(3.55895e-06 3.3503e-06 0.0879969)
(-3.72563e-06 -3.49254e-06 0.087967)
(-3.47583e-06 -3.72369e-06 0.087966)
(2.74622e-06 2.0017e-06 0.0719647)
(-2.94562e-06 -1.81884e-06 0.0719297)
(2.00776e-06 2.7458e-06 0.0719646)
(-1.80971e-06 -2.9471e-06 0.0719298)
(1.81289e-06 2.94892e-06 0.0719293)
(2.94473e-06 1.80826e-06 0.0719293)
(3.46898e-06 3.70664e-06 0.087967)
(3.72402e-06 3.47438e-06 0.0879659)
(-4.89851e-07 6.43494e-06 0.0826301)
(6.83306e-08 5.86469e-06 0.0918159)
(2.77676e-06 1.00046e-05 0.0934472)
(-8.8371e-08 4.59711e-07 0.109921)
(-2.55705e-08 1.09438e-05 0.098983)
(-2.76504e-06 9.98541e-06 0.0934468)
(8.37797e-08 4.68713e-07 0.109921)
(2.06027e-08 1.09452e-05 0.0989832)
(-3.46934e-06 3.6903e-06 0.0879653)
(-3.72345e-06 3.46062e-06 0.0879676)
(-2.94135e-06 1.7969e-06 0.0719295)
(9.98824e-06 2.77941e-06 0.0934479)
(4.597e-07 -9.33285e-08 0.109921)
(1.09355e-05 -1.77623e-08 0.098983)
(6.47846e-06 -5.07737e-07 0.0826311)
(5.86486e-06 8.16733e-08 0.0918158)
(4.73498e-07 8.14152e-08 0.10992)
(9.99708e-06 -2.77838e-06 0.0934473)
(1.09394e-05 2.73688e-08 0.0989829)
(6.27574e-06 -1.68867e-08 0.0918447)
(-6.45673e-06 5.16834e-07 0.082631)
(-5.8256e-06 -8.08298e-08 0.0918153)
(1.13083e-05 -1.91345e-08 0.0990283)
(-4.65601e-07 6.72002e-08 0.10992)
(-9.99063e-06 -2.77174e-06 0.0934477)
(-4.5115e-07 -6.975e-07 0.107734)
(-1.09362e-05 2.4825e-08 0.0989831)
(-4.77432e-07 8.93585e-08 0.10992)
(9.36043e-06 3.09813e-06 0.093491)
(6.30098e-06 4.4488e-08 0.091844)
(-6.47767e-06 -5.07384e-07 0.0826312)
(-5.85407e-06 6.79149e-08 0.0918157)
(6.06085e-06 1.24107e-06 0.0826668)
(3.71995e-06 -3.48499e-06 0.0879658)
(3.45709e-06 -3.71934e-06 0.0879676)
(1.79745e-06 -2.94713e-06 0.0719297)
(-3.16371e-08 1.1303e-05 0.0990284)
(6.89017e-08 -4.35775e-07 0.10992)
(-2.7816e-06 -9.98144e-06 0.093448)
(-7.36323e-07 -3.95013e-07 0.107735)
(1.16558e-08 -1.09205e-05 0.0989831)
(9.47065e-08 -4.48902e-07 0.10992)
(3.09922e-06 9.36848e-06 0.093491)
(-5.93314e-08 6.27922e-06 0.0918443)
(5.04529e-07 -6.4763e-06 0.0826314)
(-6.82348e-08 -5.8415e-06 0.091815)
(2.19398e-08 6.25925e-06 0.091845)
(-5.18849e-07 -6.47129e-06 0.0826317)
(6.1702e-08 -5.81743e-06 0.0918147)
(1.23517e-06 6.07738e-06 0.0826674)
(-2.95176e-06 -1.81007e-06 0.0719298)
(2.74825e-06 1.99494e-06 0.0719649)
(-1.81046e-06 -2.94596e-06 0.07193)
(1.99168e-06 2.7549e-06 0.0719648)
(-8.07913e-07 3.43312e-06 0.0772605)
(4.34127e-08 -3.35553e-06 0.0790675)
(-1.81488e-07 -6.39529e-06 0.0903548)
(-8.19829e-08 5.90828e-06 0.0918157)
(-2.02987e-07 3.29036e-06 0.0790441)
(-1.31212e-07 5.98477e-06 0.0903219)
(4.68358e-07 -3.44243e-06 0.0772888)
(3.87085e-07 -2.81036e-06 0.0688239)
(-1.22517e-06 -6.0503e-06 0.0826661)
(-1.12724e-07 5.39401e-06 0.0862303)
(-6.56029e-07 -5.39294e-06 0.0862687)
(-1.06365e-06 2.95975e-06 0.0687837)
(-1.06864e-06 2.95866e-06 0.0687837)
(-6.73919e-07 -5.41579e-06 0.0862688)
(5.25054e-07 6.48348e-06 0.0826305)
(-1.24158e-07 5.38008e-06 0.0862303)
(3.7805e-07 -2.8103e-06 0.068824)
(4.72974e-07 -3.43457e-06 0.0772887)
(-4.09749e-08 -6.29977e-06 0.0918438)
(-2.03662e-07 3.29749e-06 0.0790441)
(-1.26188e-07 5.9986e-06 0.0903219)
(4.22653e-08 -3.34735e-06 0.0790675)
(-1.7471e-07 -6.3618e-06 0.0903548)
(-8.05775e-07 3.43975e-06 0.0772605)
(1.91519e-06 -2.6771e-06 0.0719659)
(-1.77515e-06 2.86764e-06 0.0719275)
(3.43116e-06 -7.88586e-07 0.0772608)
(-6.40439e-06 -1.64376e-07 0.0903551)
(-3.35849e-06 6.11832e-08 0.0790676)
(5.90578e-06 -6.6058e-08 0.0918158)
(5.9797e-06 -1.16084e-07 0.0903222)
(3.28941e-06 -1.84023e-07 0.0790441)
(-3.44498e-06 4.88398e-07 0.0772892)
(-2.81493e-06 4.08437e-07 0.0688246)
(-6.06637e-06 -1.22073e-06 0.0826667)
(5.38913e-06 -9.82291e-08 0.0862307)
(-5.40781e-06 -6.3975e-07 0.0862691)
(2.95828e-06 -1.04536e-06 0.0687843)
(2.95783e-06 -1.05257e-06 0.0687843)
(-5.43293e-06 -6.58767e-07 0.0862692)
(6.47567e-06 5.29839e-07 0.0826312)
(5.37244e-06 -1.10991e-07 0.0862307)
(-2.81435e-06 3.97301e-07 0.0688246)
(-3.43766e-06 4.95412e-07 0.0772891)
(-6.30092e-06 -2.52204e-08 0.0918439)
(5.99822e-06 -1.11579e-07 0.0903222)
(3.29682e-06 -1.83776e-07 0.0790441)
(-6.366e-06 -1.57818e-07 0.0903551)
(-3.35029e-06 6.13814e-08 0.0790676)
(3.43773e-06 -7.84814e-07 0.0772608)
(-2.74923e-06 1.96966e-06 0.0719638)
(2.94288e-06 -1.83214e-06 0.0719296)
(-2.51759e-06 -2.54151e-06 0.0839979)
(1.42812e-06 1.81757e-06 0.0687025)
(1.84301e-06 1.41097e-06 0.0686962)
(-1.46833e-06 -1.82281e-06 0.0686719)
(-1.80098e-06 -1.48934e-06 0.0686658)
(2.54678e-06 2.5239e-06 0.0840233)
(7.41487e-06 3.48282e-06 0.0921328)
(-1.07854e-05 -6.32325e-06 0.0967253)
(3.36912e-06 3.46959e-06 0.0879983)
(-3.31563e-06 -1.85294e-06 0.0819569)
(1.0533e-05 5.83324e-06 0.0967606)
(3.12083e-06 1.90173e-06 0.0819866)
(-7.34537e-06 -3.54404e-06 0.0921032)
(3.51119e-06 7.41765e-06 0.092126)
(-6.32198e-06 -1.07585e-05 0.0967229)
(3.48559e-06 3.3661e-06 0.0879968)
(-1.85105e-06 -3.34277e-06 0.0819524)
(5.84822e-06 1.05333e-05 0.096758)
(1.93694e-06 3.12827e-06 0.0819811)
(-3.5451e-06 -7.35351e-06 0.0920969)
(-7.35211e-06 -3.53925e-06 0.0921033)
(3.11055e-06 1.92374e-06 0.0819866)
(-3.71079e-06 -3.53518e-06 0.087967)
(1.05232e-05 5.85558e-06 0.0967605)
(-1.07754e-05 -6.31616e-06 0.0967253)
(-3.32252e-06 -1.83728e-06 0.0819569)
(7.38958e-06 3.48766e-06 0.0921328)
(-3.537e-06 -7.36394e-06 0.0920969)
(1.9588e-06 3.1166e-06 0.0819811)
(-3.5177e-06 -3.7095e-06 0.087966)
(5.87229e-06 1.05187e-05 0.096758)
(-6.31179e-06 -1.07534e-05 0.0967229)
(-1.83184e-06 -3.35147e-06 0.0819524)
(3.51702e-06 7.38908e-06 0.0921261)
(2.55525e-06 2.53438e-06 0.0840233)
(-1.46493e-06 -1.82854e-06 0.0686719)
(-1.80861e-06 -1.48502e-06 0.0686658)
(1.43289e-06 1.81002e-06 0.0687025)
(1.83604e-06 1.41506e-06 0.0686962)
(-2.51223e-06 -2.53256e-06 0.0839979)
(3.74986e-07 -2.8138e-06 0.0688242)
(-1.36799e-07 5.36702e-06 0.0862304)
(-1.24278e-06 -6.0595e-06 0.0826663)
(-1.08139e-06 2.9585e-06 0.0687839)
(-6.67965e-07 -5.40405e-06 0.0862689)
(4.59496e-07 -3.4425e-06 0.077289)
(-3.56102e-08 -6.33546e-06 0.0918439)
(-2.04234e-07 3.28542e-06 0.0790443)
(-1.3441e-07 5.93971e-06 0.090322)
(-8.21029e-07 3.42889e-06 0.0772607)
(4.01622e-08 -3.35702e-06 0.0790677)
(-1.7871e-07 -6.39702e-06 0.0903549)
(1.93357e-06 -2.67673e-06 0.0719662)
(-2.82003e-06 3.90775e-07 0.0688248)
(5.36032e-06 -1.2591e-07 0.0862308)
(-6.07683e-06 -1.23871e-06 0.0826669)
(2.95574e-06 -1.06882e-06 0.0687846)
(-5.41894e-06 -6.55597e-07 0.0862693)
(-3.4479e-06 4.71486e-07 0.0772894)
(-6.34419e-06 -2.57573e-08 0.091844)
(5.93465e-06 -1.23989e-07 0.0903222)
(3.28129e-06 -1.91208e-07 0.0790444)
(3.42457e-06 -8.0954e-07 0.0772611)
(-6.40381e-06 -1.69148e-07 0.0903552)
(-3.3647e-06 5.16084e-08 0.0790678)
(-2.747e-06 1.99202e-06 0.071964)
(-2.52054e-06 -2.52456e-06 0.0839979)
(1.43499e-06 1.83946e-06 0.0687028)
(1.84829e-06 1.42858e-06 0.0686965)
(-1.46007e-06 -1.80387e-06 0.0686721)
(-1.79347e-06 -1.46993e-06 0.0686661)
(2.53592e-06 2.54131e-06 0.0840236)
(7.37807e-06 3.48839e-06 0.0921331)
(-1.07858e-05 -6.25792e-06 0.0967254)
(-3.30999e-06 -1.80801e-06 0.0819571)
(3.35853e-06 3.52585e-06 0.0879985)
(-7.40203e-06 -3.5395e-06 0.0921034)
(1.05412e-05 5.89105e-06 0.0967607)
(3.14881e-06 1.95042e-06 0.0819867)
(3.52654e-06 7.38096e-06 0.0921264)
(-6.25754e-06 -1.07409e-05 0.096723)
(-1.80563e-06 -3.33144e-06 0.0819526)
(3.53479e-06 3.37436e-06 0.087997)
(-3.52958e-06 -7.4078e-06 0.092097)
(5.90344e-06 1.05728e-05 0.0967581)
(1.97535e-06 3.14999e-06 0.0819813)
(2.5405e-06 2.53433e-06 0.0840236)
(-1.46774e-06 -1.80951e-06 0.068672)
(-1.79507e-06 -1.47876e-06 0.0686659)
(-2.52451e-06 -2.5391e-06 0.0839978)
(1.43521e-06 1.83304e-06 0.0687026)
(1.84754e-06 1.42801e-06 0.0686963)
(-7.35357e-06 -3.54612e-06 0.0921034)
(3.1668e-06 1.95175e-06 0.0819869)
(-3.70982e-06 -3.50135e-06 0.0879672)
(1.05367e-05 5.84615e-06 0.0967607)
(-1.07568e-05 -6.29429e-06 0.0967255)
(-3.28324e-06 -1.80857e-06 0.0819572)
(7.42698e-06 3.48366e-06 0.092133)
(-3.52427e-06 -7.35606e-06 0.0920971)
(1.97642e-06 3.16111e-06 0.0819814)
(-3.49829e-06 -3.68808e-06 0.0879661)
(5.86461e-06 1.06034e-05 0.0967582)
(-6.29326e-06 -1.0693e-05 0.0967231)
(-1.80415e-06 -3.31119e-06 0.0819526)
(3.52512e-06 7.43198e-06 0.0921263)
(-1.96694e-06 -2.75295e-06 0.0719643)
(1.82517e-06 2.94644e-06 0.0719291)
(-2.74506e-06 -1.9874e-06 0.0719639)
(2.94369e-06 1.82021e-06 0.0719291)
(2.54866e-06 2.53195e-06 0.0839975)
(-1.80484e-06 -1.43066e-06 0.0687025)
(-1.40668e-06 -1.85251e-06 0.0686961)
(1.80606e-06 1.47237e-06 0.0686714)
(1.49378e-06 1.7912e-06 0.0686652)
(-2.5086e-06 -2.54833e-06 0.0840238)
(-3.47121e-06 -7.40888e-06 0.0921332)
(6.34021e-06 1.07688e-05 0.0967254)
(-3.45205e-06 -3.34645e-06 0.0879991)
(1.80834e-06 3.27087e-06 0.0819569)
(-1.87516e-06 -3.0818e-06 0.0819878)
(-5.81654e-06 -1.05293e-05 0.0967607)
(3.5443e-06 7.334e-06 0.092103)
(-7.39795e-06 -3.50784e-06 0.0921267)
(1.07411e-05 6.32062e-06 0.0967228)
(-3.37049e-06 -3.50073e-06 0.0879969)
(3.32543e-06 1.81603e-06 0.0819518)
(-3.11493e-06 -1.93385e-06 0.0819817)
(-1.0532e-05 -5.84796e-06 0.0967583)
(7.33674e-06 3.52906e-06 0.0920966)
(3.53835e-06 7.35325e-06 0.092103)
(-1.89312e-06 -3.06824e-06 0.0819878)
(3.50178e-06 3.69767e-06 0.0879669)
(-5.84895e-06 -1.05123e-05 0.0967607)
(1.79212e-06 3.28359e-06 0.0819569)
(-3.47618e-06 -7.37403e-06 0.0921333)
(6.32386e-06 1.07687e-05 0.0967254)
(7.35656e-06 3.52261e-06 0.0920966)
(-3.10103e-06 -1.95209e-06 0.0819818)
(3.71687e-06 3.50587e-06 0.0879658)
(-1.05143e-05 -5.8806e-06 0.0967583)
(3.33859e-06 1.79923e-06 0.0819518)
(-7.36299e-06 -3.51286e-06 0.0921267)
(1.0742e-05 6.30339e-06 0.0967228)
(-2.51951e-06 -2.5589e-06 0.0840237)
(1.81107e-06 1.46768e-06 0.0686714)
(1.48881e-06 1.79646e-06 0.0686651)
(-1.79979e-06 -1.43623e-06 0.0687025)
(-1.41221e-06 -1.84749e-06 0.0686961)
(2.53972e-06 2.52353e-06 0.0839975)
(1.80428e-06 2.95033e-06 0.0719292)
(-1.9967e-06 -2.7481e-06 0.0719644)
(2.94685e-06 1.79954e-06 0.0719293)
(-2.74113e-06 -2.01717e-06 0.071964)
(-2.50413e-06 -2.54302e-06 0.0840238)
(1.80166e-06 1.47634e-06 0.0686714)
(1.497e-06 1.78755e-06 0.0686652)
(2.55589e-06 2.53953e-06 0.0839976)
(-1.80825e-06 -1.43016e-06 0.0687026)
(-1.40718e-06 -1.8549e-06 0.0686961)
(3.53342e-06 7.4118e-06 0.0921031)
(-5.89527e-06 -1.04911e-05 0.0967608)
(3.44761e-06 3.72093e-06 0.0879669)
(-1.90163e-06 -3.07744e-06 0.0819879)
(1.77256e-06 3.2886e-06 0.081957)
(6.25939e-06 1.08072e-05 0.0967254)
(-3.47581e-06 -7.34026e-06 0.0921334)
(7.4139e-06 3.51897e-06 0.0920967)
(-1.04967e-05 -5.92771e-06 0.0967583)
(3.73866e-06 3.45277e-06 0.0879658)
(-3.11111e-06 -1.95831e-06 0.0819818)
(3.34336e-06 1.78147e-06 0.0819519)
(1.07783e-05 6.23737e-06 0.0967228)
(-7.33042e-06 -3.51242e-06 0.0921268)
(-3.47858e-06 -7.34015e-06 0.0921333)
(1.77584e-06 3.29396e-06 0.0819569)
(6.28464e-06 1.07942e-05 0.0967253)
(-3.52376e-06 -3.31475e-06 0.0879991)
(3.53311e-06 7.39159e-06 0.0921031)
(-1.90514e-06 -3.06419e-06 0.0819879)
(-5.88644e-06 -1.04882e-05 0.0967607)
(-7.33e-06 -3.51473e-06 0.0921268)
(3.34903e-06 1.78366e-06 0.0819519)
(1.07672e-05 6.26343e-06 0.0967228)
(-3.34055e-06 -3.57256e-06 0.087997)
(7.39459e-06 3.51779e-06 0.0920966)
(-3.09754e-06 -1.96299e-06 0.0819818)
(-1.04916e-05 -5.91817e-06 0.0967583)
(2.5545e-06 2.53891e-06 0.0839976)
(-1.8072e-06 -1.43491e-06 0.0687026)
(-1.41336e-06 -1.85248e-06 0.0686962)
(1.80204e-06 1.47515e-06 0.0686715)
(1.49474e-06 1.78896e-06 0.0686652)
(-2.51119e-06 -2.54963e-06 0.0840238)
(7.97487e-07 3.43005e-06 0.0772605)
(-5.4572e-08 -3.35662e-06 0.0790676)
(1.70494e-07 -6.40305e-06 0.0903548)
(6.799e-08 5.90744e-06 0.0918159)
(1.91101e-07 3.28939e-06 0.0790442)
(1.20885e-07 5.98139e-06 0.0903225)
(-4.78403e-07 -3.43827e-06 0.0772885)
(-3.96118e-07 -2.80848e-06 0.0688262)
(1.20202e-06 -6.01125e-06 0.0826671)
(1.13225e-07 5.38962e-06 0.0862315)
(6.3881e-07 -5.40191e-06 0.0862693)
(1.05347e-06 2.95526e-06 0.0687864)
(1.05966e-06 2.95468e-06 0.0687864)
(6.58355e-07 -5.42606e-06 0.0862694)
(-5.05429e-07 6.44233e-06 0.0826299)
(1.26566e-07 5.37458e-06 0.0862315)
(-3.86094e-07 -2.80827e-06 0.0688263)
(-4.84008e-07 -3.43062e-06 0.0772885)
(2.82292e-08 -6.30271e-06 0.0918439)
(1.91341e-07 3.29632e-06 0.0790442)
(1.14911e-07 5.99699e-06 0.0903225)
(-5.40854e-08 -3.34881e-06 0.0790675)
(1.62193e-07 -6.36753e-06 0.0903548)
(7.94507e-07 3.43648e-06 0.0772605)
(4.60766e-07 -3.44549e-06 0.0772888)
(-2.01911e-07 3.28304e-06 0.0790441)
(-1.37244e-07 5.93968e-06 0.0903219)
(-3.57471e-08 -6.37369e-06 0.0918439)
(-8.14041e-07 3.42614e-06 0.0772605)
(4.40311e-08 -3.35952e-06 0.0790675)
(-1.85959e-07 -6.43675e-06 0.0903549)
(-1.08555e-06 2.96083e-06 0.0687839)
(4.94237e-07 6.47063e-06 0.0826305)
(-6.84635e-07 -5.42873e-06 0.0862688)
(3.67071e-07 -2.80974e-06 0.0688241)
(-1.50017e-07 5.34719e-06 0.0862303)
(3.67257e-07 -2.80865e-06 0.068824)
(-1.43743e-07 5.35463e-06 0.0862303)
(-1.26733e-06 -6.06912e-06 0.0826662)
(-1.07961e-06 2.96007e-06 0.0687838)
(-6.8962e-07 -5.43494e-06 0.0862688)
(-8.20404e-07 3.42615e-06 0.0772606)
(-7.53434e-08 5.84063e-06 0.0918158)
(4.29141e-08 -3.35745e-06 0.0790676)
(-1.83637e-07 -6.43783e-06 0.0903549)
(4.57802e-07 -3.44353e-06 0.0772889)
(-2.02099e-07 3.2828e-06 0.0790442)
(-1.39095e-07 5.9145e-06 0.090322)
(-4.70265e-07 -3.44127e-06 0.0772886)
(1.90755e-07 3.28211e-06 0.0790442)
(1.29e-07 5.93622e-06 0.0903225)
(2.75708e-08 -6.37615e-06 0.0918439)
(8.04241e-07 3.4233e-06 0.0772605)
(-5.44343e-08 -3.36066e-06 0.0790676)
(1.77829e-07 -6.44337e-06 0.0903548)
(1.07679e-06 2.95671e-06 0.0687865)
(-4.74537e-07 6.42908e-06 0.08263)
(6.69671e-07 -5.4384e-06 0.0862695)
(1.53881e-07 5.34236e-06 0.0862315)
(-3.76042e-07 -2.80872e-06 0.0688264)
(-3.74997e-07 -2.80675e-06 0.0688263)
(1.46797e-07 5.34887e-06 0.0862315)
(1.24635e-06 -6.03092e-06 0.0826672)
(1.07084e-06 2.95611e-06 0.0687864)
(6.74803e-07 -5.4446e-06 0.0862694)
(8.1087e-07 3.42267e-06 0.0772606)
(6.69924e-08 5.8402e-06 0.0918159)
(-5.37711e-08 -3.35861e-06 0.0790677)
(1.77524e-07 -6.44357e-06 0.0903548)
(1.91198e-07 3.28187e-06 0.0790443)
(1.33496e-07 5.9126e-06 0.0903225)
(-4.67777e-07 -3.43989e-06 0.0772887)
(-2.53828e-06 2.52556e-06 0.0839976)
(1.81992e-06 -1.4306e-06 0.0686971)
(1.41226e-06 -1.83279e-06 0.0687026)
(-1.81592e-06 1.479e-06 0.0686657)