/*--------------------------------*- C++ -*----------------------------------*\
| =========                 |                                                 |
| \\      /  F ield         | OpenFOAM: The Open Source CFD Toolbox           |
|  \\    /   O peration     | Version:  2312                                  |
|   \\  /    A nd           | Website:  www.openfoam.com                      |
|    \\/     M anipulation  |                                                 |
\*---------------------------------------------------------------------------*/
FoamFile
{
    version     2.0;
    format      ascii;
    arch        "LSB;label=32;scalar=64";
    class       volVectorField;
    location    "250";
    object      U;
}
// * * * * * * * * * * * * * * * * * * * * * * * * * * * * * * * * * * * * * //

dimensions      [0 1 -1 0 0 0 0];

internalField   nonuniform List<vector> 
43120
(
(6.09332e-05 6.09435e-05 0.108928)
(-9.74765e-05 6.00889e-05 0.107975)
(6.00815e-05 -9.74578e-05 0.107975)
(-0.000158383 -0.000158367 0.106621)
(5.94261e-05 5.9436e-05 0.109226)
(-9.50662e-05 5.89917e-05 0.108152)
(5.89288e-05 -9.50331e-05 0.108152)
(-0.000154076 -0.000154051 0.106644)
(5.7893e-05 5.79077e-05 0.109515)
(-9.25859e-05 5.78661e-05 0.108311)
(5.77747e-05 -9.25213e-05 0.108311)
(-0.000149394 -0.000149383 0.106642)
(5.63735e-05 5.63857e-05 0.109794)
(-8.99167e-05 5.67169e-05 0.108451)
(5.66512e-05 -8.98621e-05 0.108451)
(-0.000144361 -0.000144359 0.106619)
(5.49371e-05 5.49472e-05 0.110064)
(-8.70764e-05 5.54917e-05 0.108573)
(5.55054e-05 -8.70678e-05 0.108572)
(-0.00013899 -0.000138992 0.106575)
(5.35513e-05 5.35622e-05 0.110324)
(-8.41201e-05 5.41834e-05 0.108675)
(5.42076e-05 -8.41181e-05 0.108675)
(-0.00013323 -0.000133234 0.106514)
(5.22202e-05 5.22357e-05 0.110574)
(-8.10176e-05 5.26736e-05 0.10876)
(5.2617e-05 -8.09847e-05 0.108759)
(-0.000127297 -0.000127303 0.106439)
(5.0989e-05 5.10017e-05 0.110813)
(-7.77258e-05 5.08396e-05 0.108827)
(5.08899e-05 -7.77401e-05 0.108826)
(-0.000121431 -0.000121433 0.106354)
(4.97942e-05 4.98042e-05 0.111042)
(-7.43104e-05 4.88304e-05 0.108877)
(4.89247e-05 -7.43461e-05 0.108877)
(-0.000115514 -0.000115507 0.10626)
(4.86459e-05 4.86717e-05 0.11126)
(-7.0858e-05 4.6803e-05 0.108912)
(4.66665e-05 -7.07878e-05 0.108911)
(-0.000109733 -0.000109739 0.106161)
(4.7456e-05 4.74689e-05 0.111466)
(-6.72398e-05 4.4585e-05 0.108932)
(4.45634e-05 -6.72162e-05 0.108931)
(-0.000104308 -0.000104319 0.106059)
(4.62434e-05 4.62601e-05 0.111661)
(-6.35477e-05 4.21513e-05 0.108939)
(4.2241e-05 -6.35839e-05 0.108938)
(-9.9056e-05 -9.90683e-05 0.105955)
(4.52198e-05 4.52358e-05 0.111844)
(-5.99563e-05 3.97287e-05 0.108933)
(3.97254e-05 -5.99573e-05 0.108933)
(-9.39317e-05 -9.39469e-05 0.105852)
(4.41566e-05 4.41673e-05 0.112014)
(-5.64997e-05 3.73337e-05 0.108917)
(3.72557e-05 -5.64582e-05 0.108917)
(-8.91294e-05 -8.91362e-05 0.105749)
(4.30921e-05 4.30828e-05 0.112172)
(-5.29234e-05 3.46852e-05 0.108892)
(3.47584e-05 -5.29391e-05 0.108891)
(-8.46043e-05 -8.46121e-05 0.105649)
(4.19898e-05 4.20384e-05 0.112318)
(-4.95337e-05 3.22901e-05 0.108859)
(3.22529e-05 -4.95826e-05 0.108858)
(-8.03102e-05 -8.03364e-05 0.105552)
(4.08006e-05 4.08414e-05 0.112452)
(-4.6277e-05 2.97666e-05 0.108818)
(2.97622e-05 -4.61441e-05 0.108818)
(-7.63013e-05 -7.62745e-05 0.105458)
(3.9676e-05 3.96698e-05 0.112573)
(-4.28148e-05 2.73386e-05 0.108773)
(2.73671e-05 -4.28145e-05 0.108772)
(-7.24483e-05 -7.25556e-05 0.105367)
(3.82106e-05 3.82267e-05 0.112682)
(-3.95641e-05 2.50663e-05 0.108723)
(2.4928e-05 -3.95574e-05 0.108722)
(-6.88654e-05 -6.88563e-05 0.10528)
(3.68219e-05 3.68395e-05 0.112779)
(-3.64171e-05 2.27139e-05 0.10867)
(2.28482e-05 -3.64183e-05 0.108669)
(-6.56994e-05 -6.5695e-05 0.105197)
(3.51764e-05 3.52007e-05 0.112864)
(-3.32394e-05 2.0536e-05 0.108614)
(2.04678e-05 -3.31823e-05 0.108613)
(-6.24409e-05 -6.24482e-05 0.105117)
(3.36078e-05 3.36345e-05 0.112938)
(-3.03295e-05 1.85552e-05 0.108556)
(1.85432e-05 -3.03348e-05 0.108555)
(-5.97179e-05 -5.97216e-05 0.105041)
(3.18341e-05 3.18607e-05 0.113)
(-2.74444e-05 1.693e-05 0.108498)
(1.69439e-05 -2.73918e-05 0.108497)
(-5.70246e-05 -5.704e-05 0.10497)
(2.96488e-05 2.96625e-05 0.113052)
(-2.40592e-05 1.41615e-05 0.10844)
(1.42121e-05 -2.41504e-05 0.108439)
(-5.37783e-05 -5.37953e-05 0.104902)
(2.85128e-05 2.85469e-05 0.113094)
(-2.25404e-05 1.39207e-05 0.108381)
(1.38015e-05 -2.24162e-05 0.108381)
(-5.29237e-05 -5.28992e-05 0.104837)
(2.52161e-05 2.52496e-05 0.113127)
(-1.87215e-05 1.0735e-05 0.108325)
(1.05783e-05 -1.84116e-05 0.108324)
(-4.8729e-05 -4.87376e-05 0.104777)
(1.22783e-05 -1.71823e-05 0.108266)
(-5.84234e-06 -5.78394e-06 0.106778)
(6.03975e-05 9.81436e-05 0.107927)
(-6.03225e-05 9.81091e-05 0.107926)
(6.21119e-06 -6.13635e-06 0.106778)
(9.80629e-05 6.03203e-05 0.107927)
(9.81184e-05 -6.0363e-05 0.107926)
(-9.80041e-05 6.02024e-05 0.107927)
(-9.79294e-05 -6.01123e-05 0.107927)
(-5.77945e-06 5.80866e-06 0.106778)
(6.02903e-05 -9.8043e-05 0.107927)
(-6.00618e-05 -9.79338e-05 0.107927)
(6.01378e-06 6.09317e-06 0.106778)
(0.000158966 0.000158946 0.106621)
(-8.55274e-06 -8.51026e-06 0.106817)
(6.01648e-05 9.75494e-05 0.107974)
(-6.02105e-05 9.75803e-05 0.107974)
(5.92223e-05 9.57181e-05 0.108109)
(-5.91774e-05 9.56901e-05 0.108109)
(-0.0001587 0.000158647 0.106621)
(8.75176e-06 -8.69342e-06 0.106817)
(9.74673e-05 6.00846e-05 0.107975)
(9.75433e-05 -6.01561e-05 0.107974)
(9.56333e-05 5.91279e-05 0.108109)
(9.56756e-05 -5.91615e-05 0.108109)
(-9.74152e-05 -5.99341e-05 0.107974)
(-9.55789e-05 5.90459e-05 0.108109)
(-9.55666e-05 -5.91159e-05 0.108109)
(0.000158895 -0.000159007 0.106621)
(-8.488e-06 8.60157e-06 0.106817)
(-5.98887e-05 -9.74202e-05 0.107974)
(5.90395e-05 -9.55877e-05 0.108109)
(-5.90569e-05 -9.55963e-05 0.108109)
(8.39829e-06 8.48707e-06 0.106816)
(0.000154226 0.000154195 0.106644)
(-1.07927e-05 -1.07471e-05 0.10683)
(5.90892e-05 9.51505e-05 0.108152)
(-5.91192e-05 9.51646e-05 0.108151)
(5.81262e-05 9.32214e-05 0.108273)
(-5.81346e-05 9.32133e-05 0.108272)
(-0.000154099 0.000154037 0.106644)
(1.09086e-05 -1.08491e-05 0.106829)
(9.5067e-05 5.9e-05 0.108152)
(9.51316e-05 -5.90454e-05 0.108151)
(9.3143e-05 5.80416e-05 0.108273)
(9.31809e-05 -5.8146e-05 0.108272)
(-9.50008e-05 -5.8898e-05 0.108151)
(-9.3139e-05 5.79951e-05 0.108273)
(-9.31701e-05 -5.81164e-05 0.108272)
(0.000154142 -0.000154171 0.106644)
(-1.06235e-05 1.07195e-05 0.106829)
(-5.88442e-05 -9.50197e-05 0.108152)
(5.80073e-05 -9.31187e-05 0.108273)
(-5.80607e-05 -9.313e-05 0.108273)
(1.05407e-05 1.0621e-05 0.106828)
(0.000149326 0.000149302 0.106643)
(-1.27438e-05 -1.2696e-05 0.106818)
(5.79498e-05 9.2644e-05 0.10831)
(-5.80049e-05 9.26611e-05 0.10831)
(5.71226e-05 9.06659e-05 0.108417)
(-5.71119e-05 9.06483e-05 0.108417)
(-0.000149271 0.000149217 0.106643)
(1.28685e-05 -1.28076e-05 0.106817)
(9.25621e-05 5.78717e-05 0.108311)
(9.25852e-05 -5.79126e-05 0.10831)
(9.05829e-05 5.70411e-05 0.108418)
(9.06393e-05 -5.71563e-05 0.108417)
(-9.25494e-05 -5.7832e-05 0.10831)
(-9.05719e-05 5.69758e-05 0.108418)
(-9.0635e-05 -5.71218e-05 0.108417)
(0.000149325 -0.000149366 0.106642)
(-1.25675e-05 1.26675e-05 0.106817)
(-5.77793e-05 -9.25076e-05 0.108311)
(5.70183e-05 -9.05726e-05 0.108418)
(-5.70649e-05 -9.05837e-05 0.108417)
(1.2561e-05 1.2625e-05 0.106816)
(0.000144251 0.000144229 0.106619)
(-1.46709e-05 -1.46259e-05 0.106784)
(5.67959e-05 8.99719e-05 0.10845)
(-5.68562e-05 8.99891e-05 0.10845)
(5.60519e-05 8.79369e-05 0.108543)
(-5.59954e-05 8.78958e-05 0.108543)
(-0.000144186 0.000144133 0.106619)
(1.47983e-05 -1.4734e-05 0.106784)
(8.98889e-05 5.67164e-05 0.108451)
(8.99283e-05 -5.67874e-05 0.10845)
(8.78498e-05 5.59677e-05 0.108544)
(8.79097e-05 -5.60734e-05 0.108542)
(-8.99181e-05 -5.67495e-05 0.10845)
(-8.7814e-05 5.58673e-05 0.108544)
(-8.78868e-05 -5.6e-05 0.108543)
(0.000144303 -0.00014434 0.106619)
(-1.45376e-05 1.46331e-05 0.106783)
(-5.66951e-05 -8.98684e-05 0.108451)
(5.59381e-05 -8.78409e-05 0.108544)
(-5.59382e-05 -8.78356e-05 0.108543)
(1.46023e-05 1.46578e-05 0.106783)
(0.000138951 0.000138927 0.106575)
(-1.67991e-05 -1.67539e-05 0.106731)
(5.56452e-05 8.71741e-05 0.108572)
(-5.56233e-05 8.71549e-05 0.108571)
(5.47012e-05 8.49849e-05 0.10865)
(-5.47222e-05 8.49697e-05 0.10865)
(-0.000138835 0.000138789 0.106575)
(1.68025e-05 -1.67417e-05 0.106731)
(8.70881e-05 5.55635e-05 0.108572)
(8.71357e-05 -5.5639e-05 0.108571)
(8.48941e-05 5.46189e-05 0.108651)
(8.49581e-05 -5.47254e-05 0.10865)
(-8.71314e-05 -5.56085e-05 0.108571)
(-8.48958e-05 5.45925e-05 0.108651)
(-8.49222e-05 -5.46243e-05 0.10865)
(0.000138988 -0.000139025 0.106575)
(-1.66817e-05 1.67769e-05 0.106731)
(-5.55502e-05 -8.70798e-05 0.108572)
(5.45902e-05 -8.48916e-05 0.108651)
(-5.4567e-05 -8.48691e-05 0.10865)
(1.67531e-05 1.6806e-05 0.10673)
(0.000133233 0.000133213 0.106514)
(-1.89413e-05 -1.89016e-05 0.106663)
(5.43315e-05 8.42195e-05 0.108674)
(-5.43143e-05 8.41924e-05 0.108674)
(5.31317e-05 8.18722e-05 0.108739)
(-5.31546e-05 8.18632e-05 0.108739)
(-0.000133214 0.000133168 0.106514)
(1.89508e-05 -1.88867e-05 0.106663)
(8.41294e-05 5.4249e-05 0.108675)
(8.41852e-05 -5.43399e-05 0.108674)
(8.17815e-05 5.3049e-05 0.10874)
(8.18431e-05 -5.31418e-05 0.108738)
(-8.41613e-05 -5.42572e-05 0.108674)
(-8.17826e-05 5.30273e-05 0.10874)
(-8.18184e-05 -5.30853e-05 0.108739)
(0.000133275 -0.000133309 0.106514)
(-1.88556e-05 1.89498e-05 0.106662)
(-5.41992e-05 -8.41065e-05 0.108674)
(5.3007e-05 -8.1777e-05 0.10874)
(-5.30274e-05 -8.17696e-05 0.108739)
(1.88517e-05 1.88985e-05 0.106662)
(0.000127264 0.000127243 0.10644)
(-2.09561e-05 -2.09204e-05 0.106582)
(5.27518e-05 8.10878e-05 0.108759)
(-5.28035e-05 8.10915e-05 0.108758)
(5.14126e-05 7.86392e-05 0.108811)
(-5.1366e-05 7.85969e-05 0.10881)
(-0.000127292 0.000127252 0.10644)
(2.10355e-05 -2.0977e-05 0.106582)
(8.09979e-05 5.26724e-05 0.108759)
(8.10494e-05 -5.27481e-05 0.108758)
(7.85443e-05 5.13264e-05 0.108811)
(7.86216e-05 -5.14503e-05 0.10881)
(-8.10149e-05 -5.26586e-05 0.108758)
(-7.8518e-05 5.12371e-05 0.108811)
(-7.86163e-05 -5.14169e-05 0.10881)
(0.000127287 -0.000127317 0.10644)
(-2.08615e-05 2.09533e-05 0.106581)
(-5.26038e-05 -8.09644e-05 0.108759)
(5.13229e-05 -7.85581e-05 0.108811)
(-5.13596e-05 -7.85581e-05 0.108811)
(2.08444e-05 2.08945e-05 0.10658)
(0.000121335 0.000121313 0.106354)
(-2.29308e-05 -2.28963e-05 0.106491)
(5.09932e-05 7.78291e-05 0.108826)
(-5.09683e-05 7.78028e-05 0.108825)
(4.94784e-05 7.5275e-05 0.108865)
(-4.95128e-05 7.52624e-05 0.108864)
(-0.000121273 0.000121232 0.106354)
(2.29072e-05 -2.28504e-05 0.106491)
(7.77356e-05 5.091e-05 0.108827)
(7.78037e-05 -5.10149e-05 0.108825)
(7.51821e-05 4.93975e-05 0.108866)
(7.52366e-05 -4.94629e-05 0.108864)
(-7.77768e-05 -5.09536e-05 0.108825)
(-7.51864e-05 4.93849e-05 0.108866)
(-7.52421e-05 -4.94388e-05 0.108864)
(0.000121375 -0.000121405 0.106354)
(-2.28961e-05 2.29967e-05 0.10649)
(-5.0898e-05 -7.77224e-05 0.108826)
(4.93438e-05 -7.51647e-05 0.108866)
(-4.93925e-05 -7.51765e-05 0.108865)
(2.29151e-05 2.2971e-05 0.10649)
(0.000115464 0.000115441 0.106261)
(-2.4742e-05 -2.47091e-05 0.106394)
(4.8984e-05 7.44167e-05 0.108876)
(-4.89649e-05 7.43832e-05 0.108875)
(4.74836e-05 7.18383e-05 0.108903)
(-4.75184e-05 7.1833e-05 0.108903)
(-0.000115478 0.000115436 0.106261)
(2.4734e-05 -2.46725e-05 0.106393)
(7.43236e-05 4.88985e-05 0.108877)
(7.44127e-05 -4.90428e-05 0.108875)
(7.17462e-05 4.74084e-05 0.108904)
(7.17614e-05 -4.73999e-05 0.108902)
(-7.44099e-05 -4.9011e-05 0.108875)
(-7.17556e-05 4.74037e-05 0.108904)
(-7.17418e-05 -4.7341e-05 0.108903)
(0.000115466 -0.000115485 0.106261)
(-2.47465e-05 2.4836e-05 0.106393)
(-4.89616e-05 -7.43418e-05 0.108876)
(4.72827e-05 -7.16964e-05 0.108904)
(-4.72898e-05 -7.16912e-05 0.108904)
(2.48345e-05 2.48728e-05 0.106392)
(0.000109843 0.000109825 0.106162)
(-2.66026e-05 -2.65807e-05 0.106291)
(4.68703e-05 7.09299e-05 0.108911)
(-4.69246e-05 7.09247e-05 0.10891)
(4.52471e-05 6.82314e-05 0.108927)
(-4.52148e-05 6.81976e-05 0.108926)
(-0.000109899 0.000109867 0.106162)
(2.66783e-05 -2.66234e-05 0.106291)
(7.08348e-05 4.67993e-05 0.108912)
(7.08566e-05 -4.67843e-05 0.10891)
(6.81458e-05 4.5154e-05 0.108928)
(6.82265e-05 -4.53243e-05 0.108926)
(-7.08752e-05 -4.68004e-05 0.10891)
(-6.81203e-05 4.50921e-05 0.108928)
(-6.81617e-05 -4.5179e-05 0.108926)
(0.000109736 -0.000109758 0.106161)
(-2.64129e-05 2.64898e-05 0.106291)
(-4.67546e-05 -7.08169e-05 0.108911)
(4.52025e-05 -6.81678e-05 0.108928)
(-4.51088e-05 -6.81092e-05 0.108927)
(2.65601e-05 2.65924e-05 0.10629)
(0.000104363 0.000104337 0.106059)
(-2.8425e-05 -2.84082e-05 0.106187)
(4.47049e-05 6.73251e-05 0.108931)
(-4.47025e-05 6.7307e-05 0.10893)
(4.28624e-05 6.45442e-05 0.108937)
(-4.28584e-05 6.45104e-05 0.108936)
(-0.00010432 0.00010429 0.106059)
(2.84413e-05 -2.84088e-05 0.106187)
(6.72399e-05 4.46187e-05 0.108932)
(6.72726e-05 -4.46767e-05 0.10893)
(6.44494e-05 4.27874e-05 0.108938)
(6.4531e-05 -4.29094e-05 0.108936)
(-6.72295e-05 -4.45739e-05 0.10893)
(-6.44327e-05 4.27344e-05 0.108938)
(-6.45303e-05 -4.2901e-05 0.108936)
(0.000104439 -0.000104472 0.106059)
(-2.83268e-05 2.84042e-05 0.106186)
(-4.45085e-05 -6.71824e-05 0.108931)
(4.27834e-05 -6.44691e-05 0.108938)
(-4.28507e-05 -6.44662e-05 0.108937)
(2.8279e-05 2.83077e-05 0.106185)
(9.8944e-05 9.89128e-05 0.105956)
(-2.99895e-05 -2.99788e-05 0.106082)
(4.22774e-05 6.36465e-05 0.108937)
(-4.22724e-05 6.36166e-05 0.108936)
(4.04938e-05 6.09569e-05 0.108934)
(-4.05046e-05 6.09412e-05 0.108933)
(-9.89307e-05 9.88794e-05 0.105956)
(2.99808e-05 -2.9936e-05 0.106081)
(6.35521e-05 4.22025e-05 0.108938)
(6.36396e-05 -4.23614e-05 0.108936)
(6.0866e-05 4.04263e-05 0.108935)
(6.09008e-05 -4.04205e-05 0.108933)
(-6.36135e-05 -4.22753e-05 0.108936)
(-6.08683e-05 4.04142e-05 0.108936)
(-6.08814e-05 -4.03968e-05 0.108933)
(9.90399e-05 -9.9071e-05 0.105955)
(-3.00556e-05 3.01175e-05 0.10608)
(-4.22221e-05 -6.35508e-05 0.108937)
(4.03243e-05 -6.08444e-05 0.108935)
(-4.0346e-05 -6.08363e-05 0.108935)
(3.00346e-05 3.00537e-05 0.10608)
(9.39519e-05 9.3922e-05 0.105852)
(-3.15588e-05 -3.15374e-05 0.105977)
(3.98804e-05 6.00766e-05 0.108932)
(-3.98234e-05 6.0037e-05 0.108931)
(3.80025e-05 5.73938e-05 0.10892)
(-3.80719e-05 5.73926e-05 0.10892)
(-9.39529e-05 9.39167e-05 0.105852)
(3.15035e-05 -3.14843e-05 0.105976)
(5.9992e-05 3.98129e-05 0.108933)
(6.00232e-05 -3.98253e-05 0.108931)
(5.73137e-05 3.79233e-05 0.108922)
(5.73641e-05 -3.80297e-05 0.108919)
(-6.00228e-05 -3.98354e-05 0.108931)
(-5.73658e-05 3.79524e-05 0.108922)
(-5.73728e-05 -3.79778e-05 0.10892)
(9.38468e-05 -9.38863e-05 0.105852)
(-3.14843e-05 3.15411e-05 0.105976)
(-3.97851e-05 -5.99703e-05 0.108932)
(3.7924e-05 -5.73415e-05 0.108922)
(-3.79347e-05 -5.73169e-05 0.108921)
(3.15224e-05 3.15518e-05 0.105975)
(8.91257e-05 8.91106e-05 0.10575)
(-3.29616e-05 -3.29501e-05 0.105873)
(3.73441e-05 5.65105e-05 0.108916)
(-3.74418e-05 5.65297e-05 0.108915)
(3.55204e-05 5.39586e-05 0.108897)
(-3.54291e-05 5.39362e-05 0.108897)
(-8.9242e-05 8.91823e-05 0.10575)
(3.30889e-05 -3.30273e-05 0.105873)
(5.64242e-05 3.72831e-05 0.108917)
(5.64904e-05 -3.73851e-05 0.108914)
(5.39007e-05 3.54375e-05 0.108899)
(5.3912e-05 -3.54594e-05 0.108896)
(-5.64781e-05 -3.73031e-05 0.108915)
(-5.38155e-05 3.5348e-05 0.108899)
(-5.38832e-05 -3.54535e-05 0.108896)
(8.91274e-05 -8.91716e-05 0.10575)
(-3.293e-05 3.30135e-05 0.105872)
(-3.72586e-05 -5.64334e-05 0.108916)
(3.53866e-05 -5.38472e-05 0.108898)
(-3.53947e-05 -5.38498e-05 0.108898)
(3.29611e-05 3.29765e-05 0.105872)
(8.46111e-05 8.45779e-05 0.10565)
(-3.43215e-05 -3.42786e-05 0.105772)
(3.48602e-05 5.3001e-05 0.10889)
(-3.48042e-05 5.29736e-05 0.10889)
(3.29508e-05 5.05137e-05 0.108866)
(-3.29996e-05 5.04921e-05 0.108865)
(-8.45258e-05 8.44962e-05 0.10565)
(3.42743e-05 -3.4237e-05 0.105772)
(5.29586e-05 3.47639e-05 0.108892)
(5.30261e-05 -3.48505e-05 0.108889)
(5.04177e-05 3.29068e-05 0.108867)
(5.04466e-05 -3.29643e-05 0.108865)
(-5.29621e-05 -3.47935e-05 0.10889)
(-5.04543e-05 3.29173e-05 0.108867)
(-5.04841e-05 -3.29252e-05 0.108865)
(8.45992e-05 -8.46095e-05 0.105649)
(-3.43023e-05 3.43199e-05 0.105772)
(-3.47541e-05 -5.2912e-05 0.108891)
(3.28429e-05 -5.04233e-05 0.108867)
(-3.28719e-05 -5.043e-05 0.108866)
(3.42874e-05 3.42952e-05 0.105771)
(8.03064e-05 8.03114e-05 0.105552)
(-3.55648e-05 -3.55612e-05 0.105674)
(3.23495e-05 4.97e-05 0.108857)
(-3.23407e-05 4.96777e-05 0.108856)
(3.04452e-05 4.69833e-05 0.108827)
(-3.0487e-05 4.69521e-05 0.108827)
(-8.03394e-05 8.03298e-05 0.105552)
(3.55457e-05 -3.55611e-05 0.105674)
(4.96129e-05 3.22866e-05 0.108858)
(4.96462e-05 -3.23325e-05 0.108856)
(4.69276e-05 3.03692e-05 0.108829)
(4.69988e-05 -3.04812e-05 0.108826)
(-4.95771e-05 -3.23083e-05 0.108856)
(-4.70399e-05 3.03498e-05 0.108829)
(-4.70565e-05 -3.04169e-05 0.108826)
(8.02808e-05 -8.03432e-05 0.105552)
(-3.55185e-05 3.55769e-05 0.105673)
(-3.22291e-05 -4.95869e-05 0.108857)
(3.03714e-05 -4.69143e-05 0.108828)
(-3.04095e-05 -4.69175e-05 0.108828)
(3.5506e-05 3.55448e-05 0.105673)
(7.62391e-05 7.62127e-05 0.105458)
(-3.66201e-05 -3.66208e-05 0.10558)
(2.98592e-05 4.61978e-05 0.108817)
(-2.99171e-05 4.61471e-05 0.108816)
(2.80631e-05 4.37814e-05 0.108783)
(-2.79463e-05 4.37633e-05 0.108782)
(-7.63195e-05 7.62011e-05 0.105458)
(3.67814e-05 -3.66173e-05 0.10558)
(4.6116e-05 2.97888e-05 0.108818)
(4.61633e-05 -2.98583e-05 0.108815)
(4.37442e-05 2.79723e-05 0.108784)
(4.37755e-05 -2.80069e-05 0.108781)
(-4.62854e-05 -2.98043e-05 0.108816)
(-4.35449e-05 2.79598e-05 0.108785)
(-4.35822e-05 -2.8038e-05 0.108782)
(7.623e-05 -7.62744e-05 0.105458)
(-3.66354e-05 3.66912e-05 0.105579)
(-2.98119e-05 -4.61238e-05 0.108817)
(2.79369e-05 -4.36736e-05 0.108784)
(-2.78878e-05 -4.37065e-05 0.108783)
(3.67217e-05 3.66222e-05 0.105578)
(7.25174e-05 7.24833e-05 0.105367)
(-3.77509e-05 -3.771e-05 0.105488)
(2.74618e-05 4.29157e-05 0.108771)
(-2.73939e-05 4.28826e-05 0.10877)
(2.56318e-05 4.04441e-05 0.108734)
(-2.57803e-05 4.04289e-05 0.108733)
(-7.23933e-05 7.24681e-05 0.105368)
(3.76212e-05 -3.76738e-05 0.105488)
(4.28669e-05 2.74001e-05 0.108773)
(4.28894e-05 -2.74617e-05 0.10877)
(4.03522e-05 2.56033e-05 0.108735)
(4.04e-05 -2.56722e-05 0.108732)
(-4.2856e-05 -2.74757e-05 0.10877)
(-4.04601e-05 2.56335e-05 0.108736)
(-4.04656e-05 -2.55499e-05 0.108733)
(7.24815e-05 -7.25109e-05 0.105367)
(-3.77137e-05 3.77228e-05 0.105487)
(-2.73958e-05 -4.28501e-05 0.108771)
(2.55694e-05 -4.03852e-05 0.108735)
(-2.55849e-05 -4.03545e-05 0.108734)
(3.77032e-05 3.78039e-05 0.105487)
(6.88991e-05 6.88977e-05 0.10528)
(-3.86113e-05 -3.86257e-05 0.1054)
(2.50325e-05 3.96414e-05 0.108721)
(-2.51129e-05 3.96745e-05 0.10872)
(2.34404e-05 3.72648e-05 0.108681)
(-2.32858e-05 3.71943e-05 0.10868)
(-6.90027e-05 6.89558e-05 0.10528)
(3.87363e-05 -3.87346e-05 0.105401)
(3.95854e-05 2.49701e-05 0.108723)
(3.96367e-05 -2.50084e-05 0.10872)
(3.72184e-05 2.3359e-05 0.108683)
(3.72309e-05 -2.34074e-05 0.10868)
(-3.95383e-05 -2.4966e-05 0.10872)
(-3.71727e-05 2.32395e-05 0.108683)
(-3.72305e-05 -2.34409e-05 0.10868)
(6.88632e-05 -6.89213e-05 0.10528)
(-3.85822e-05 3.8619e-05 0.1054)
(-2.49026e-05 -3.95665e-05 0.108722)
(2.33337e-05 -3.71712e-05 0.108682)
(-2.33504e-05 -3.7219e-05 0.108682)
(3.85686e-05 3.85672e-05 0.105399)
(6.56576e-05 6.56227e-05 0.105197)
(-3.95653e-05 -3.95528e-05 0.105316)
(2.29045e-05 3.6461e-05 0.108667)
(-2.28172e-05 3.63693e-05 0.108667)
(2.10949e-05 3.40448e-05 0.108626)
(-2.12019e-05 3.40717e-05 0.108625)
(-6.55915e-05 6.54955e-05 0.105197)
(3.94924e-05 -3.94616e-05 0.105317)
(3.63906e-05 2.28344e-05 0.108669)
(3.64426e-05 -2.294e-05 0.108666)
(3.39938e-05 2.10381e-05 0.108627)
(3.40589e-05 -2.11088e-05 0.108624)
(-3.64612e-05 -2.28717e-05 0.108667)
(-3.40213e-05 2.11136e-05 0.108628)
(-3.40147e-05 -2.10614e-05 0.108625)
(6.56557e-05 -6.57183e-05 0.105197)
(-3.95598e-05 3.95928e-05 0.105316)
(-2.28252e-05 -3.64042e-05 0.108668)
(2.10286e-05 -3.39939e-05 0.108627)
(-2.10292e-05 -3.39825e-05 0.108626)
(3.95544e-05 3.95717e-05 0.105315)
(6.24349e-05 6.24171e-05 0.105118)
(-4.01116e-05 -4.0109e-05 0.105236)
(2.05596e-05 3.32805e-05 0.108612)
(-2.06033e-05 3.32965e-05 0.108611)
(1.92911e-05 3.11936e-05 0.108569)
(-1.92519e-05 3.1176e-05 0.108568)
(-6.24888e-05 6.24672e-05 0.105118)
(4.01424e-05 -4.01305e-05 0.105237)
(3.32357e-05 2.05175e-05 0.108613)
(3.3263e-05 -2.05435e-05 0.10861)
(3.11563e-05 1.92493e-05 0.10857)
(3.11619e-05 -1.92657e-05 0.108567)
(-3.32415e-05 -2.05403e-05 0.108611)
(-3.11543e-05 1.91945e-05 0.108571)
(-3.11796e-05 -1.92513e-05 0.108568)
(6.23998e-05 -6.24339e-05 0.105117)
(-4.01024e-05 4.01148e-05 0.105236)
(-2.05083e-05 -3.32175e-05 0.108612)
(1.91927e-05 -3.11131e-05 0.10857)
(-1.92067e-05 -3.11294e-05 0.108569)
(4.01115e-05 4.013e-05 0.105235)
(5.97285e-05 5.97066e-05 0.105042)
(-4.09888e-05 -4.09875e-05 0.10516)
(1.86275e-05 3.03803e-05 0.108554)
(-1.8612e-05 3.03771e-05 0.108554)
(1.71336e-05 2.79442e-05 0.108511)
(-1.71139e-05 2.79265e-05 0.10851)
(-5.97417e-05 5.9697e-05 0.105042)
(4.10142e-05 -4.10067e-05 0.105161)
(3.03383e-05 1.85661e-05 0.108556)
(3.037e-05 -1.86061e-05 0.108553)
(2.78988e-05 1.7067e-05 0.108512)
(2.79663e-05 -1.71645e-05 0.108509)
(-3.03625e-05 -1.8596e-05 0.108553)
(-2.79003e-05 1.70497e-05 0.108513)
(-2.78905e-05 -1.71008e-05 0.10851)
(5.96878e-05 -5.97519e-05 0.105041)
(-4.09544e-05 4.09759e-05 0.10516)
(-1.85331e-05 -3.03171e-05 0.108555)
(1.71006e-05 -2.79192e-05 0.108512)
(-1.7038e-05 -2.78823e-05 0.108511)
(4.09941e-05 4.09877e-05 0.105159)
(5.70354e-05 5.70132e-05 0.10497)
(-4.19261e-05 -4.19248e-05 0.105088)
(1.70024e-05 2.74546e-05 0.108496)
(-1.70036e-05 2.7437e-05 0.108495)
(1.4912e-05 2.52475e-05 0.108452)
(-1.49077e-05 2.527e-05 0.108452)
(-5.70349e-05 5.69766e-05 0.10497)
(4.19385e-05 -4.18916e-05 0.105088)
(2.7412e-05 1.6954e-05 0.108498)
(2.74444e-05 -1.70178e-05 0.108494)
(2.52021e-05 1.48676e-05 0.108454)
(2.52074e-05 -1.48668e-05 0.108451)
(-2.74294e-05 -1.69758e-05 0.108495)
(-2.51624e-05 1.48644e-05 0.108454)
(-2.52361e-05 -1.48991e-05 0.108451)
(5.70328e-05 -5.70847e-05 0.10497)
(-4.19434e-05 4.19645e-05 0.105087)
(-1.69411e-05 -2.73944e-05 0.108497)
(1.47995e-05 -2.51611e-05 0.108454)
(-1.48451e-05 -2.51986e-05 0.108453)
(4.19162e-05 4.19227e-05 0.105087)
(5.3795e-05 5.37732e-05 0.104902)
(-4.12719e-05 -4.12664e-05 0.105019)
(1.42865e-05 2.42131e-05 0.108438)
(-1.42324e-05 2.41987e-05 0.108437)
(1.43821e-05 2.27584e-05 0.108394)
(-1.4457e-05 2.27613e-05 0.108393)
(-5.3779e-05 5.37694e-05 0.104902)
(4.11785e-05 -4.12636e-05 0.105019)
(2.41677e-05 1.42185e-05 0.10844)
(2.42001e-05 -1.42653e-05 0.108436)
(2.27116e-05 1.43355e-05 0.108396)
(2.27598e-05 -1.44012e-05 0.108392)
(-2.41547e-05 -1.42329e-05 0.108437)
(-2.29386e-05 1.43848e-05 0.108396)
(-2.27973e-05 -1.43837e-05 0.108393)
(5.37481e-05 -5.3797e-05 0.104902)
(-4.12461e-05 4.1247e-05 0.105018)
(-1.41689e-05 -2.41442e-05 0.108438)
(1.43329e-05 -2.27282e-05 0.108395)
(-1.4372e-05 -2.27039e-05 0.108394)
(4.1205e-05 4.1251e-05 0.105018)
(5.28549e-05 5.28403e-05 0.104837)
(-4.35821e-05 -4.35703e-05 0.104955)
(1.39009e-05 2.24691e-05 0.108379)
(-1.39321e-05 2.25255e-05 0.108379)
(1.09972e-05 1.94187e-05 0.108336)
(-1.10008e-05 1.9395e-05 0.108336)
(-5.29546e-05 5.28608e-05 0.104837)
(4.36725e-05 -4.356e-05 0.104955)
(2.24197e-05 1.38705e-05 0.108381)
(2.2444e-05 -1.38821e-05 0.108378)
(1.93605e-05 1.09486e-05 0.108338)
(1.94154e-05 -1.09545e-05 0.108335)
(-2.25226e-05 -1.39413e-05 0.108378)
(-1.91841e-05 1.09812e-05 0.108339)
(-1.92714e-05 -1.09295e-05 0.108336)
(5.28125e-05 -5.28838e-05 0.104836)
(-4.35564e-05 4.36024e-05 0.104954)
(-1.38917e-05 -2.24344e-05 0.10838)
(1.09235e-05 -1.93386e-05 0.108338)
(-1.08716e-05 -1.93148e-05 0.108337)
(4.36543e-05 4.36238e-05 0.104954)
(4.87615e-05 4.87505e-05 0.104778)
(-4.15641e-05 -4.15892e-05 0.104892)
(1.06309e-05 1.84769e-05 0.108322)
(-1.08554e-05 1.85041e-05 0.108322)
(1.20781e-05 1.74946e-05 0.10828)
(-1.16857e-05 1.73356e-05 0.108279)
(-4.88106e-05 4.87476e-05 0.104778)
(4.19601e-05 -4.18509e-05 0.104893)
(1.84209e-05 1.05821e-05 0.108324)
(1.85115e-05 -1.06302e-05 0.108321)
(1.7489e-05 1.20054e-05 0.108281)
(1.74682e-05 -1.21909e-05 0.108278)
(-1.84503e-05 -1.06108e-05 0.108321)
(-1.71843e-05 1.15879e-05 0.108282)
(-1.75413e-05 -1.19757e-05 0.108279)
(4.87654e-05 -4.87919e-05 0.104777)
(-4.15312e-05 4.14546e-05 0.104891)
(-1.06332e-05 -1.83669e-05 0.108323)
(1.21053e-05 -1.7559e-05 0.108281)
(-1.19074e-05 -1.75167e-05 0.10828)
(4.16445e-05 4.16277e-05 0.104891)
(1.71118e-05 -1.2328e-05 0.108263)
(4.92431e-05 -4.93766e-05 0.104717)
(6.11928e-05 6.1206e-05 0.108853)
(-6.11714e-05 6.1156e-05 0.108852)
(6.12163e-05 -6.12213e-05 0.108852)
(-6.12183e-05 -6.11803e-05 0.108852)
(-1.82408e-06 3.39457e-06 0.0723384)
(6.03446e-05 -9.88846e-05 0.10783)
(6.26654e-06 -3.34701e-05 0.0960219)
(1.76097e-06 2.1311e-05 0.0940166)
(-1.52296e-06 1.97286e-05 0.0835903)
(1.95202e-06 4.41869e-05 0.0940767)
(-3.73976e-06 -4.24152e-08 0.083567)
(-1.68833e-06 6.96979e-06 0.0721741)
(3.50853e-06 -1.82576e-06 0.0721778)
(2.12629e-05 1.79076e-06 0.0940164)
(1.97156e-05 -1.52375e-06 0.0835903)
(4.41606e-05 1.95019e-06 0.0940764)
(-6.7494e-08 -3.72797e-06 0.083567)
(-6.09348e-05 6.09177e-05 0.108928)
(6.09528e-05 -6.09505e-05 0.108928)
(-6.08704e-05 -6.08284e-05 0.108928)
(5.972e-05 5.97265e-05 0.109153)
(-5.97081e-05 5.9686e-05 0.109152)
(5.97176e-05 -5.97345e-05 0.109152)
(-5.97921e-05 -5.97522e-05 0.109152)
(-6.1426e-05 4.41846e-06 0.102462)
(-6.0311e-05 1.62283e-05 0.0957197)
(-0.000101074 1.87638e-05 0.108621)
(-9.67518e-05 5.95975e-05 0.108021)
(-0.000105269 4.68327e-06 0.102454)
(-2.88972e-05 4.69538e-06 0.0957155)
(-0.000100745 1.86044e-05 0.108686)
(6.93639e-06 -1.68549e-06 0.0721742)
(-1.85775e-06 3.45261e-06 0.0721771)
(4.33515e-06 -6.14275e-05 0.102461)
(1.87927e-05 -0.000101078 0.10862)
(1.61768e-05 -6.03469e-05 0.0957211)
(5.96099e-05 -9.67684e-05 0.108021)
(4.72305e-06 -0.000105285 0.102454)
(1.85821e-05 -0.000100762 0.108686)
(4.76277e-06 -2.8881e-05 0.0957138)
(-2.88952e-05 -1.26171e-05 0.0893994)
(-1.26105e-05 -2.88828e-05 0.0893984)
(7.01099e-06 7.10535e-06 0.1068)
(-1.8214e-05 -7.0843e-07 0.0893664)
(-7.11195e-07 -1.81932e-05 0.0893632)
(1.46793e-06 1.74015e-05 0.0937166)
(-1.18877e-06 1.81603e-05 0.0833676)
(1.60888e-06 3.9568e-05 0.0937662)
(-3.52521e-06 -1.18372e-06 0.0833519)
(-1.84015e-06 6.61062e-06 0.0720234)
(3.43695e-06 -1.86639e-06 0.072031)
(1.7421e-05 1.49134e-06 0.0937164)
(1.81311e-05 -1.17661e-06 0.0833676)
(3.95838e-05 1.62606e-06 0.093766)
(-1.20673e-06 -3.51613e-06 0.0833519)
(-5.94304e-05 5.94129e-05 0.109226)
(5.94077e-05 -5.94233e-05 0.109226)
(-5.9413e-05 -5.9367e-05 0.109226)
(5.82551e-05 5.82654e-05 0.109444)
(-5.82658e-05 5.82495e-05 0.109443)
(5.82785e-05 -5.83047e-05 0.109443)
(-5.83346e-05 -5.83031e-05 0.109443)
(-5.49076e-05 3.55014e-06 0.10219)
(-5.60742e-05 1.48082e-05 0.0954286)
(-9.98358e-05 1.81347e-05 0.108878)
(-9.4411e-05 5.86945e-05 0.108194)
(-9.78245e-05 3.755e-06 0.102184)
(-2.49915e-05 3.51466e-06 0.0954288)
(-9.95453e-05 1.80401e-05 0.10894)
(6.57827e-06 -1.88595e-06 0.0720235)
(-1.86285e-06 3.42428e-06 0.0720303)
(3.53571e-06 -5.49262e-05 0.102189)
(1.81261e-05 -9.98495e-05 0.108878)
(1.47882e-05 -5.61614e-05 0.0954298)
(5.87101e-05 -9.44219e-05 0.108194)
(3.81539e-06 -9.78162e-05 0.102185)
(1.80174e-05 -9.95684e-05 0.10894)
(3.56229e-06 -2.49843e-05 0.0954272)
(-2.66161e-05 -1.18397e-05 0.0891472)
(-1.18684e-05 -2.66048e-05 0.0891461)
(9.44953e-06 9.55244e-06 0.106825)
(-1.59466e-05 -1.68643e-07 0.0891215)
(-1.22411e-07 -1.596e-05 0.0891183)
(1.15269e-06 1.43824e-05 0.0934456)
(-1.06324e-06 1.69898e-05 0.0831668)
(1.2945e-06 3.59696e-05 0.0934857)
(-3.47026e-06 -1.83953e-06 0.0831575)
(-2.04839e-06 6.32021e-06 0.0718865)
(3.29763e-06 -1.86904e-06 0.0718975)
(1.44039e-05 1.17803e-06 0.0934455)
(1.6972e-05 -1.05431e-06 0.0831668)
(3.59911e-05 1.30055e-06 0.0934854)
(-1.8576e-06 -3.46165e-06 0.0831576)
(-5.79117e-05 5.79013e-05 0.109515)
(5.78924e-05 -5.79107e-05 0.109515)
(-5.79251e-05 -5.78956e-05 0.109515)
(5.67751e-05 5.67847e-05 0.109725)
(-5.67792e-05 5.677e-05 0.109725)
(5.6805e-05 -5.68173e-05 0.109725)
(-5.68359e-05 -5.6813e-05 0.109725)
(-4.85357e-05 2.95124e-06 0.101919)
(-5.20712e-05 1.36193e-05 0.0951584)
(-9.86898e-05 1.75997e-05 0.109122)
(-9.19567e-05 5.76732e-05 0.108348)
(-9.02724e-05 3.16516e-06 0.101913)
(-2.15466e-05 2.60786e-06 0.0951629)
(-9.83757e-05 1.75366e-05 0.109181)
(6.2716e-06 -2.07294e-06 0.0718866)
(-1.88591e-06 3.25513e-06 0.0718968)
(2.92286e-06 -4.85777e-05 0.101917)
(1.76052e-05 -9.86861e-05 0.109122)
(1.35836e-05 -5.2225e-05 0.0951597)
(5.7631e-05 -9.19425e-05 0.108348)
(3.22706e-06 -9.03251e-05 0.101914)
(1.75119e-05 -9.83891e-05 0.109181)
(2.66552e-06 -2.15602e-05 0.0951614)
(-2.44921e-05 -1.11881e-05 0.0889178)
(-1.11306e-05 -2.4501e-05 0.0889169)
(1.17409e-05 1.1805e-05 0.106825)
(-1.3962e-05 1.78203e-07 0.0888986)
(2.47222e-07 -1.39629e-05 0.0888955)
(8.58903e-07 1.19427e-05 0.0932009)
(-1.07017e-06 1.6233e-05 0.0829855)
(1.00382e-06 3.30099e-05 0.0932324)
(-3.446e-06 -2.20707e-06 0.0829818)
(-2.08288e-06 6.16953e-06 0.0717622)
(3.18611e-06 -1.86554e-06 0.0717761)
(1.19611e-05 8.83874e-07 0.0932008)
(1.62194e-05 -1.06292e-06 0.0829855)
(3.30238e-05 1.00797e-06 0.0932322)
(-2.22876e-06 -3.43595e-06 0.0829819)
(-5.6392e-05 5.63827e-05 0.109794)
(5.63919e-05 -5.64011e-05 0.109794)
(-5.64247e-05 -5.63989e-05 0.109794)
(5.53131e-05 5.53203e-05 0.109998)
(-5.53035e-05 5.53049e-05 0.109997)
(5.53346e-05 -5.53399e-05 0.109997)
(-5.53454e-05 -5.53248e-05 0.109997)
(-4.25827e-05 2.46484e-06 0.101652)
(-4.85007e-05 1.24998e-05 0.0949084)
(-9.7365e-05 1.71981e-05 0.109353)
(-8.9253e-05 5.65107e-05 0.108483)
(-8.31398e-05 2.68947e-06 0.101645)
(-1.86895e-05 1.84569e-06 0.0949169)
(-9.69858e-05 1.71331e-05 0.109408)
(6.14637e-06 -2.0868e-06 0.0717623)
(-1.90122e-06 3.11911e-06 0.0717754)
(2.43747e-06 -4.26251e-05 0.10165)
(1.72234e-05 -9.73577e-05 0.109352)
(1.24507e-05 -4.85968e-05 0.0949097)