/*--------------------------------*- C++ -*----------------------------------*\
| =========                 |                                                 |
| \\      /  F ield         | OpenFOAM: The Open Source CFD Toolbox           |
|  \\    /   O peration     | Version:  2312                                  |
|   \\  /    A nd           | Website:  www.openfoam.com                      |
|    \\/     M anipulation  |                                                 |
\*---------------------------------------------------------------------------*/
FoamFile
{
    version     2.0;
    format      ascii;
    arch        "LSB;label=32;scalar=64";
    class       volScalarField;
    location    "350";
    object      nut;
}
// * * * * * * * * * * * * * * * * * * * * * * * * * * * * * * * * * * * * * //

dimensions      [0 2 -1 0 0 0 0];

internalField   nonuniform List<scalar> 
43496
(
0.000100295
2.39009e-05
0.000201368
0.000104122
0.000144943
0.000210866
0.000100295
5.07722e-05
0.000144947
0.000201377
0.000210863
0.000104099
0.000182942
7.81637e-05
7.81825e-05
2.39031e-05
5.0775e-05
3.67251e-05
0.00010024
9.48463e-05
4.10719e-05
9.47934e-05
4.10706e-05
3.67318e-05
2.03237e-05
7.92986e-05
7.92742e-05
2.03257e-05
2.38989e-05
3.67236e-05
0.000100237
4.10739e-05
9.48426e-05
4.1068e-05
9.4792e-05
3.67302e-05
2.03229e-05
7.92823e-05
5.0766e-05
7.92589e-05
2.03249e-05
8.16787e-05
2.17158e-05
2.1719e-05
2.17138e-05
2.17171e-05
8.16877e-05
0.000105644
4.86816e-05
7.81509e-05
0.00012948
4.86739e-05
0.000129401
0.000105672
0.000105645
4.86906e-05
7.81698e-05
0.000129522
0.000129439
4.86906e-05
0.000105674
2.39012e-05
5.07737e-05
0.000203632
0.000207262
0.000203669
0.000104065
0.000148412
0.000148344
0.00017212
0.000144814
0.000138341
0.000177475
0.00013822
0.000177344
0.000172216
0.000161613
0.000123434
0.000123351
0.000161669
0.000172106
0.000144814
0.000177475
0.000138351
0.000177339
0.000138223
0.000172218
0.000161545
0.000123426
0.000104043
0.000148392
0.000123336
0.000161674
0.000148318
0.000139064
0.000182844
0.000162704
0.000162729
0.000162664
0.000162637
0.000139126
0.000204023
0.000199514
0.000199472
0.000181473
0.00020665
0.000201044
0.000200991
0.000182517
0.000181494
0.000182463
0.000199521
0.000199505
0.000200626
0.000200624
0.000181495
0.000182462
0.000199515
0.000199448
0.000200625
0.000200631
0.000199474
0.000200616
0.000200648
0.000181472
0.000182437
0.00019948
0.00020063
0.00020065
0.000182494
0.000182596
0.000201046
0.000201029
0.000182574
0.000201046
0.000200963
0.000200986
0.000182582
0.000200991
0.000100148
5.07491e-05
5.0757e-05
0.000100046
2.38878e-05
2.38924e-05
0.000100125
5.07444e-05
5.0753e-05
0.000100036
0.000204042
0.000203988
0.000204008
0.000205921
0.000205957
0.000205973
0.000205984
0.000144468
0.000103806
0.000208408
0.000199879
0.000103916
0.000208939
0.000144218
2.38875e-05
2.38919e-05
0.000144466
0.000208389
0.000103806
0.000199891
0.00020893
0.000103916
0.000144207
7.8048e-05
7.80351e-05
0.000181973
7.80859e-05
7.80721e-05
5.0769e-05
0.000100217
2.38972e-05
5.07647e-05
0.000100196
0.000206664
0.000206598
0.000206613
0.000144961
0.000104013
0.000210362
0.000144722
0.000210841
2.38967e-05
0.000144977
0.000210345
0.000104015
0.00014471
0.00021083
7.81387e-05
7.81255e-05
0.000182975
7.81761e-05
7.81621e-05
2.38902e-05
2.38947e-05
2.38883e-05
2.38928e-05
7.80583e-05
7.80419e-05
0.000181983
7.80974e-05
7.808e-05
2.38994e-05
2.3895e-05
2.38975e-05
2.38931e-05
0.000182045
7.81444e-05
7.81281e-05
7.81089e-05
7.80925e-05
0.000100139
5.07401e-05
5.07526e-05
0.000100041
0.000144485
0.000103815
0.00020846
0.000199882
0.000103925
0.000208937
0.000144207
0.000144484
0.000103788
0.000208459
0.000199875
0.000103899
0.000208936
0.000144217
0.000100138
5.077e-05
5.07575e-05
0.000100228
0.000100131
5.0764e-05
5.07521e-05
0.000100222
0.000144473
0.000200295
0.000104031
0.000209898
0.000103923
0.000209451
0.000144731
0.000144482
0.000200281
0.000104004
0.000209898
0.000103897
0.000209451
0.000144733
7.80344e-05
7.80523e-05
0.000182001
7.8073e-05
7.80897e-05
2.38893e-05
2.38938e-05
2.3897e-05
2.38926e-05
0.000182031
7.81164e-05
7.81362e-05
7.80819e-05
7.81017e-05
2.38984e-05
2.3894e-05
0.00014445
0.000103791
0.000208402
0.000199881
0.000103903
0.000208942
0.000144183
0.000100122
5.07377e-05
5.07492e-05
0.00010003
0.000144445
0.000208393
0.000103783
0.000199881
0.00020894
0.000103894
0.000144173
0.000100119
5.07653e-05
5.07531e-05
0.000100205
0.000144444
0.000200292
0.000104009
0.000209906
0.0001039
0.000209391
0.00014468
0.000100115
5.07612e-05
5.07492e-05
0.000100203
0.000144437
0.000200221
0.000209903
0.000103997
0.000209382
0.000103891
0.000144684
0.000100124
5.07441e-05
5.07544e-05
0.000100033
0.00014447
0.00020842
0.000103804
0.00019991
0.000208962
0.000103912
0.000144207
0.000100127
5.07408e-05
5.07481e-05
0.000100039
0.000144477
0.000200295
0.000104021
0.000209884
0.000103915
0.000209402
0.000144707
0.000100121
5.07657e-05
5.07539e-05
0.000100206
0.000144471
0.000200244
0.00020991
0.000104016
0.000209406
0.000103911
0.000144706
0.000100123
5.07591e-05
5.07521e-05
0.000100206
7.80374e-05
7.80524e-05
0.000181969
7.80744e-05
7.80912e-05
2.38896e-05
2.38941e-05
2.38965e-05
2.38922e-05
0.000182004
7.81189e-05
7.81363e-05
7.80868e-05
7.81025e-05
2.38986e-05
2.38944e-05
0.00014447
0.00020841
0.000103788
0.000199912
0.000208953
0.000103899
0.00014421
0.000100128
5.07456e-05
5.07532e-05
0.000100034
0.000100128
5.07392e-05
5.07483e-05
0.000100029
0.000144469
0.00020025
0.000209873
0.000104021
0.000209384
0.000103915
0.000144707
0.000144472
0.000200249
0.000209901
0.000104003
0.000209397
0.000103897
0.000144712
0.000100121
5.07642e-05
5.0757e-05
0.000100212
0.00010012
5.07603e-05
5.07482e-05
0.000100209
2.38877e-05
2.38922e-05
2.38865e-05
2.38909e-05
0.000182008
7.81306e-05
7.81167e-05
7.80972e-05
7.80842e-05
2.38968e-05
2.38925e-05
2.38956e-05
2.38912e-05
2.38996e-05
2.38977e-05
7.81531e-05
7.81368e-05
5.07632e-05
0.000100213
0.000104024
0.000210413
0.000144732
0.000103996
0.000210414
0.000144733
7.81242e-05
7.81453e-05
2.38987e-05
0.000104003
0.000210345
0.000144689
5.07606e-05
0.000100199
0.000210337
0.000103993
0.00014469
0.000100292
5.07649e-05
0.000100201
0.000144961
0.000210364
0.000104011
0.000201402
0.000144722
0.000210884
0.000104112
0.000100288
5.07634e-05
0.000100203
5.07706e-05
7.81306e-05
7.81481e-05
2.38989e-05
0.000144971
0.000210354
0.000103997
0.000201406
0.000144716
0.000210874
0.000104098
0.000100302
5.07684e-05
0.000100205
0.000100299
5.07595e-05
0.000100204
5.07713e-05
2.3897e-05
2.39012e-05
2.38958e-05
2.39e-05
3.67106e-05
4.10568e-05
9.47278e-05
0.000100095
4.10505e-05
9.4679e-05
3.67157e-05
2.03158e-05
5.07504e-05
7.92e-05
7.92258e-05
2.03137e-05
2.03157e-05
7.92425e-05
5.0755e-05
7.9219e-05
2.03177e-05
3.67104e-05
0.000100105
4.10458e-05
9.46407e-05
4.10523e-05
9.46913e-05
3.67083e-05
2.389e-05
2.38902e-05
3.67145e-05
9.47025e-05
4.10572e-05
0.000100082
9.46667e-05
4.1051e-05
3.67136e-05
2.03164e-05
5.07461e-05
7.91863e-05
7.92118e-05
2.03143e-05
2.03162e-05
7.92282e-05
5.07494e-05
7.92049e-05
2.03183e-05
3.67098e-05
0.000100081
9.46329e-05
4.10468e-05
9.46687e-05
4.10522e-05
3.67105e-05
2.38895e-05
2.38899e-05
8.16166e-05
2.17106e-05
2.17073e-05
2.17085e-05
2.17052e-05
8.16276e-05
0.000105461
0.000128981
7.8063e-05
4.86565e-05
0.000129082
4.86643e-05
0.000105437
0.000105462
0.00012896
7.80489e-05
4.86494e-05
0.000129043
4.86497e-05
0.000105439
0.000105478
4.86697e-05
7.80737e-05
0.000129159
0.000129077
4.86619e-05
0.000105504
0.000105481
4.86552e-05
7.80607e-05
0.000129128
0.000129059
4.86549e-05
0.000105505
8.16129e-05
2.17066e-05
2.17033e-05
2.17087e-05
2.17054e-05
8.16015e-05
2.03234e-05
7.92711e-05
5.07758e-05
2.03214e-05
7.92979e-05
3.67273e-05
0.000100271
4.10639e-05
9.4784e-05
3.67223e-05
4.10692e-05
9.48269e-05
2.38993e-05
2.03239e-05
7.92567e-05
5.07704e-05
2.03219e-05
7.92815e-05
3.67275e-05
0.000100251
9.4758e-05
4.1064e-05
3.67225e-05
9.4809e-05
4.10695e-05
2.38987e-05
8.16765e-05
2.17179e-05
2.17145e-05
2.17159e-05
2.17126e-05
8.16858e-05
0.00010563
0.000129347
4.86777e-05
7.81537e-05
0.000105606
0.000129434
4.86854e-05
0.00010563
0.000129312
4.86707e-05
7.81403e-05
0.000105607
0.000129394
4.86708e-05
8.16721e-05
2.17141e-05
2.17108e-05
8.16621e-05
2.17161e-05
2.17128e-05
0.000105645
4.86908e-05
7.81623e-05
0.000129514
0.000129434
4.86829e-05
0.000105673
0.000105644
4.86758e-05
7.81495e-05
0.000129474
0.000129398
4.8676e-05
0.000105674
2.38923e-05
2.38927e-05
2.38904e-05
2.38907e-05
8.1623e-05
2.17115e-05
2.17081e-05
2.17095e-05
2.17061e-05
8.16281e-05
0.000105462
0.000129004
7.80729e-05
4.8664e-05
4.86641e-05
0.000129082
0.000105439
0.000105462
0.00012897
7.80567e-05
4.86512e-05
4.86516e-05
0.000129054
0.000105438
0.000105482
4.86705e-05
7.80853e-05
0.000129175
4.86697e-05
0.000105506
0.000129104
0.000105481
4.86571e-05
7.80683e-05
0.000129142
4.86569e-05
0.000105505
0.00012907
8.16116e-05
2.17075e-05
2.17042e-05
2.17096e-05
2.17062e-05
8.16075e-05
2.38973e-05
2.38971e-05
2.38954e-05
2.38951e-05
8.16436e-05
2.17113e-05
2.1708e-05
8.1639e-05
2.17134e-05
2.171e-05
0.000105563
0.000129364
7.81308e-05
4.8684e-05
4.86759e-05
0.000129282
0.00010559
0.000105563
0.000129337
7.81145e-05
4.86678e-05
4.86675e-05
0.000129253
0.000105591
0.000105547
4.86711e-05
0.000129196
7.81218e-05
0.000105526
4.86777e-05
0.000129275
0.000105547
4.86622e-05
0.000129165
7.81049e-05
0.000105525
4.86623e-05
0.000129247
8.16547e-05
2.17153e-05
2.17119e-05
2.17132e-05
2.17099e-05
8.16599e-05
3.67095e-05
4.1054e-05
9.47117e-05
0.00010009
4.10531e-05
9.46675e-05
3.67133e-05
2.03148e-05
5.07472e-05
7.91727e-05
7.91988e-05
2.03127e-05
2.03146e-05
7.92152e-05
5.07462e-05
7.91914e-05
2.03167e-05
3.6711e-05
0.000100096
4.1049e-05
9.46287e-05
4.1049e-05
9.46789e-05
3.67044e-05
3.67201e-05
4.10548e-05
9.4715e-05
0.000100193
3.67136e-05
4.10612e-05
9.47642e-05
2.03195e-05
5.07635e-05
7.92787e-05
2.03216e-05
7.92551e-05
2.03197e-05
7.92369e-05
5.07641e-05
2.03176e-05
7.92615e-05
3.67174e-05
0.000100178
4.10655e-05
9.47933e-05
3.67237e-05
4.10592e-05
9.47497e-05
3.6716e-05
4.10564e-05
9.47009e-05
0.000100184
3.67153e-05
4.10598e-05
9.47445e-05
2.03185e-05
5.07577e-05
7.92499e-05
7.92263e-05
2.03205e-05
2.03186e-05
7.9209e-05
5.07585e-05
2.03166e-05
7.92338e-05
3.67186e-05
0.00010017
4.1065e-05
9.4776e-05
4.10586e-05
9.47305e-05
3.67198e-05
8.16151e-05
2.17078e-05
2.17108e-05
2.17058e-05
2.17088e-05
8.1626e-05
0.000105463
0.000128971
7.80501e-05
4.86463e-05
4.86544e-05
0.000129051
0.000105439
0.00010546
0.000129006
7.80665e-05
4.8662e-05
0.000129091
4.86622e-05
0.000105436
0.000105481
4.86587e-05
7.80586e-05
0.000129137
4.86517e-05
0.000129069
0.000105505
0.000105478
4.86677e-05
7.80783e-05
0.00012918
0.000129105
4.86675e-05
0.000105503
8.16113e-05
2.17039e-05
2.17069e-05
2.17059e-05
2.17089e-05
8.16e-05
2.38914e-05
2.38917e-05
2.38949e-05
2.38947e-05
8.16415e-05
2.17077e-05
2.17107e-05
8.16308e-05
2.17097e-05
2.17127e-05
0.000105561
0.000129326
7.81032e-05
4.86667e-05
0.000129246
4.86666e-05
0.000105587
0.000105559
0.000129361
7.81236e-05
4.86783e-05
4.86781e-05
0.000129281
0.000105586
0.000105545
4.86613e-05
0.00012916
7.80957e-05
0.000129237
0.000105525
4.86621e-05
0.000105544
4.86728e-05
0.000129196
7.81136e-05
0.000105522
4.86728e-05
0.000129275
8.16461e-05
2.17116e-05
2.17146e-05
2.17095e-05
2.17126e-05
8.16564e-05
2.38964e-05
2.38961e-05
3.67085e-05
4.10545e-05
9.47035e-05
0.000100076
4.10539e-05
9.46548e-05
3.67154e-05
2.03156e-05
5.0744e-05
7.91705e-05
7.91957e-05
2.03135e-05
2.03154e-05
7.92124e-05
5.07455e-05
7.91894e-05
2.03175e-05
3.67117e-05
0.000100076
4.10494e-05
9.46153e-05
4.10493e-05
9.46673e-05
3.67046e-05
3.67176e-05
9.46933e-05
4.10553e-05
0.000100169
3.67184e-05
9.47379e-05
4.10616e-05
2.032e-05
5.07591e-05
7.92636e-05
2.03221e-05
7.92401e-05
2.03202e-05
7.92222e-05
5.07596e-05
2.03181e-05
7.92468e-05
3.67202e-05
0.000100157
9.47706e-05
4.10658e-05
3.67225e-05
9.4725e-05
4.10597e-05
3.67193e-05
4.10554e-05
9.46909e-05
0.000100166
3.67122e-05
4.10607e-05
9.47405e-05
2.03192e-05
5.0755e-05
7.92471e-05
7.92247e-05
2.03212e-05
2.03194e-05
7.92076e-05
5.07556e-05
2.03173e-05
7.92313e-05
3.67159e-05
0.000100153
4.10655e-05
9.47716e-05
4.10591e-05
9.47245e-05
3.67231e-05
3.67125e-05
9.4705e-05
4.1053e-05
0.000100079
9.46619e-05
4.10529e-05
3.67143e-05
2.03162e-05
5.07477e-05
7.91856e-05
7.92004e-05
2.03141e-05
2.0316e-05
7.9218e-05
5.07479e-05
7.92046e-05
2.03181e-05
3.67109e-05
0.000100081
9.4625e-05
4.10486e-05
9.46706e-05
4.10485e-05
3.67084e-05
3.67119e-05
4.10538e-05
9.47051e-05
0.000100084
4.10535e-05
9.46688e-05
3.67121e-05
2.03153e-05
5.07423e-05
7.91728e-05
7.91979e-05
2.03132e-05
2.03152e-05
7.9214e-05
5.07467e-05
7.91914e-05
2.03172e-05
3.67076e-05
0.000100084
4.10492e-05
9.46331e-05
4.10492e-05
9.46702e-05
3.67084e-05
3.67181e-05
9.46955e-05
4.10576e-05
0.000100168
3.67162e-05
9.47406e-05
4.10573e-05
2.03198e-05
5.07595e-05
7.92524e-05
7.92385e-05
2.03219e-05
2.032e-05
7.92222e-05
5.07603e-05
2.03179e-05
7.92356e-05
3.67194e-05
0.000100161
9.47718e-05
4.10625e-05
9.47291e-05
4.10616e-05
3.67222e-05
3.6717e-05
4.10579e-05
9.46957e-05
0.00010017
3.67143e-05
4.10586e-05
9.47402e-05
2.0319e-05
5.07576e-05
7.92486e-05
7.92258e-05
2.0321e-05
2.03191e-05
7.92089e-05
5.07536e-05
2.03171e-05
7.92324e-05
3.67173e-05
0.000100159
4.10642e-05
9.47701e-05
4.10604e-05
9.47266e-05
3.6721e-05
8.16182e-05
2.17085e-05
2.17118e-05
2.17065e-05
2.17097e-05
8.16292e-05
0.000105463
0.000128961
7.80511e-05
4.86517e-05
4.8652e-05
0.000129046
0.00010544
0.000105463
0.000128993
7.80677e-05
4.86602e-05
0.000129075
4.86681e-05
0.000105439
0.000105482
4.86574e-05
7.80633e-05
0.00012913
4.86571e-05
0.000129058
0.000105506
0.000105481
4.86729e-05
7.80786e-05
0.000129158
0.00012909
4.86656e-05
0.000105505
8.16143e-05
2.17046e-05
2.17078e-05
2.17067e-05
2.17099e-05
8.16029e-05
2.38917e-05
2.3892e-05
2.38945e-05
2.38942e-05
8.16444e-05
2.17084e-05
2.17116e-05
8.16339e-05
2.17104e-05
2.17136e-05
0.000105563
0.000129303
7.81079e-05
4.86685e-05
0.000129232
4.86679e-05
0.000105588
0.000105562
0.00012934
7.81245e-05
4.86807e-05
4.86802e-05
0.000129265
0.000105587
0.000105546
4.86628e-05
0.000129148
7.80982e-05
0.000129225
0.000105526
4.86625e-05
0.000105546
4.86731e-05
0.00012918
7.81151e-05
0.000105525
4.8677e-05
0.000129254
8.16494e-05
2.17122e-05
2.17154e-05
2.17102e-05
2.17135e-05
8.16593e-05
2.38967e-05
2.38964e-05
3.67113e-05
9.47159e-05
4.10553e-05
0.00010008
9.4671e-05
4.1051e-05
3.67167e-05
2.03171e-05
5.07474e-05
7.91955e-05
7.92208e-05
2.0315e-05
2.03169e-05
7.9237e-05
5.07515e-05
7.92142e-05
2.0319e-05
3.67113e-05
0.000100083
9.46355e-05
4.10486e-05
9.46798e-05
4.10491e-05
3.67092e-05
3.67109e-05
9.47052e-05
4.1056e-05
0.000100077
9.46602e-05
4.10494e-05
3.67113e-05
2.03148e-05
5.07413e-05
7.91701e-05
7.91957e-05
2.03127e-05
2.03146e-05
7.9212e-05
5.07433e-05
7.91888e-05
2.03167e-05
3.67069e-05
0.000100084
9.46216e-05
4.10447e-05
9.46679e-05
4.10516e-05
3.67076e-05
3.67212e-05
9.47051e-05
4.10539e-05
0.000100174
3.67142e-05
9.47531e-05
4.10605e-05
2.03207e-05
5.07627e-05
7.92724e-05
7.92493e-05
2.03227e-05
2.03209e-05
7.92322e-05
5.07587e-05
2.03188e-05
7.92557e-05
3.67178e-05
0.000100161
9.47867e-05
4.10649e-05
9.47387e-05
4.10585e-05
3.6725e-05
3.67165e-05
9.4695e-05
4.10537e-05
0.000100172
3.67132e-05
9.47421e-05
4.10603e-05
2.03184e-05
5.0754e-05
7.92475e-05
7.92241e-05
2.03205e-05
2.03186e-05
7.92071e-05
5.07546e-05
2.03166e-05
7.92308e-05
3.67156e-05
0.000100161
9.47756e-05
4.10647e-05
9.47296e-05
4.10581e-05
3.67212e-05
2.38898e-05
2.38901e-05
2.38886e-05
2.38889e-05
8.16428e-05
2.17104e-05
2.17071e-05
8.16321e-05
2.17125e-05
2.17091e-05
0.000105561
0.000129342
7.81187e-05
4.86802e-05
0.000105586
0.000129264
4.86728e-05
0.000105563
0.000129306
7.81056e-05
4.86657e-05
0.000105587
0.000129234
4.86654e-05
0.000105544
4.86672e-05
0.000129174
7.81091e-05
0.000105522
0.000129253
4.86752e-05
0.000105545
4.86603e-05
0.000129149
7.80956e-05
0.000105524
0.000129222
4.86603e-05
8.16472e-05
2.17143e-05
2.1711e-05
8.1658e-05
2.17123e-05
2.1709e-05
2.38948e-05
2.38945e-05
2.38935e-05
2.38933e-05
2.39017e-05
2.38998e-05
0.000105635
0.000129367
4.86816e-05
7.81721e-05
0.00010561
4.86896e-05
0.000129458
0.000105634
0.00012934
4.86729e-05
7.8156e-05
0.000105609
4.86736e-05
0.000129432
8.16751e-05
2.17151e-05
2.17117e-05
8.16691e-05
2.17171e-05
2.17137e-05
2.03224e-05
7.92426e-05
5.0769e-05
2.03204e-05
7.92701e-05
3.67246e-05
0.000100272
4.10638e-05
9.47651e-05
4.1069e-05
3.67211e-05
9.48167e-05
0.00010563
0.000129331
4.86714e-05
7.81402e-05
4.86722e-05
0.000105607
0.000129419
0.000105628
0.000129363
4.86833e-05
7.81627e-05
0.000129451
0.000105605
4.86838e-05
8.16706e-05
2.17114e-05
2.17144e-05
2.17134e-05
8.16608e-05
2.17164e-05
2.03231e-05
7.92421e-05
5.07668e-05
2.03211e-05
7.9266e-05
3.67268e-05
0.00010025
4.10636e-05
9.4762e-05
4.10699e-05
3.67197e-05
9.48072e-05
3.67262e-05
0.000100245
4.1073e-05
9.47974e-05
4.10668e-05
2.03238e-05
7.92546e-05
5.07713e-05
7.92723e-05
2.03217e-05
3.67261e-05
0.000100251
9.47644e-05
4.10624e-05
9.48056e-05
3.67228e-05
4.10684e-05
2.03235e-05
3.67263e-05
0.000100242
4.10734e-05
9.48331e-05
4.10676e-05
9.47979e-05
3.67268e-05
2.03228e-05
7.92428e-05
5.07646e-05
2.03208e-05
7.92664e-05
3.6724e-05
0.000100249
4.1063e-05
9.47646e-05
3.67217e-05
4.10692e-05
9.48029e-05
2.03226e-05
7.92817e-05
5.07687e-05
7.92599e-05
2.03246e-05
0.000105629
0.000129317
4.867e-05
7.81424e-05
4.86756e-05
0.000105609
0.000129396
0.00010563
0.000129352
4.86857e-05
7.81601e-05
0.000129436
0.000105609
4.86856e-05
8.16736e-05
2.1712e-05
2.17153e-05
2.1714e-05
8.16645e-05
2.17172e-05
2.39009e-05
3.67256e-05
0.000100244
9.48599e-05
4.10733e-05
9.48087e-05
4.10671e-05
3.67318e-05
2.03246e-05
7.92664e-05
5.07697e-05
7.9291e-05
2.03226e-05
3.67287e-05
0.000100259
9.47772e-05
4.10626e-05
9.48237e-05
3.67216e-05
4.10692e-05
2.03244e-05
7.9306e-05
7.92832e-05
2.03264e-05
3.67225e-05
0.000100246
9.48462e-05
4.10724e-05
9.47987e-05
4.10668e-05
3.67288e-05
2.03223e-05
7.92409e-05
5.07659e-05
2.03203e-05
7.92662e-05
3.67254e-05
0.000100257
9.47663e-05
4.10621e-05
3.67189e-05
9.48114e-05
4.10689e-05
2.03221e-05
7.92818e-05
5.0765e-05
7.92575e-05
2.03241e-05
2.3899e-05
2.38993e-05
2.38978e-05
2.3898e-05
0.000199613
0.000199576
0.000204643
0.000200403
0.000200406
0.000189429
0.000188415
0.000138612
0.000161743
0.000161719
0.000181697
0.00016185
0.000161811
0.000138563
0.000202909
0.000202862
0.000193536
0.000192503
0.000139021
0.000162465
0.000162451
0.000182735
0.000138972
0.000162544
0.00016255
0.000138622
0.000161761
0.000161741
0.000181723
0.000161867
0.000161848
0.000138571
0.000138875
0.000182332
0.000162389
0.000162391
0.000162317
0.000162301
0.000138928
0.000138623
0.000161749
0.000161766
0.000181729
0.000161872
0.000161855
0.000138572
0.000138872
0.000182284
0.000162389
0.000162391
0.000162299
0.000162313
0.000138925
0.000138616
0.000161732
0.000161743
0.000181704
0.000161843
0.000161838
0.000138565
0.000138867
0.0001823
0.000162357
0.000162362
0.000162281
0.000162291
0.000138918
0.000138865
0.000182266
0.000162385
0.000162377
0.000138917
0.000162295
0.000162274
0.000139033
0.000162495
0.00016247
0.000182735
0.000138983
0.000162578
0.000162562
0.000139027
0.000162465
0.000162482
0.000182724
0.000162568
0.000138978
0.000162553
0.000139019
0.000162456
0.000162479
0.000182687
0.000162544
0.000138975
0.000162526
0.000199643
0.000199616
0.000204667
0.000200411
0.000200428
0.000189396
0.000188484
0.000199595
0.000199599
0.000204683
0.000200425
0.000200422
0.000189397
0.000188475
0.000199624
0.000199613
0.000204708
0.000200441
0.000200435
0.000189388
0.000188501
0.000205357
0.000202014
0.000202021
0.000201279
0.000201241
0.000190474
0.000191492
0.000205369
0.000202035
0.000202038
0.000201303
0.000201272
0.000190539
0.00019145
0.000205312
0.000202047
0.000202031
0.000201253
0.000201254
0.00019053
0.00019145
0.000205327
0.000202052
0.000202047
0.000201278
0.000201265
0.000190556
0.000191439
0.000171289
0.000137935
0.000176512
0.000144352
0.000137827
0.000176467
0.000171379
0.000160793
0.000147679
0.000103867
0.000122966
0.000147728
0.000123054
0.000160731
0.000160913
0.000123132
0.000103861
0.000147867
0.000147822
0.00012305
0.000160973
0.000171161
0.000144343
0.000137718
0.000176216
0.00013783
0.000176268
0.00017107
0.000171273
0.000176542
0.000137935
0.000144343
0.000176427
0.00013783
0.000171368
0.00016079
0.000147672
0.000103867
0.000122962
0.000147721
0.000123051
0.000160727
0.000160907
0.000123131
0.000103861
0.00014786
0.000147814
0.000123047
0.00016097
0.000171147
0.000144337
0.000176187
0.00013771
0.000176293
0.000137823
0.000171049
0.000138664
0.000181745
0.000162038
0.000162004
0.000161931
0.000161905
0.000138715
0.000202933
0.000202898
0.000203675
0.00019347
0.000192576
0.000202876
0.00020288
0.000203668
0.000193469
0.000192568
0.000202903
0.000202888
0.000207285
0.000203684
0.000203683
0.000193455
0.000192593
0.000172148
0.000144853
0.000138367
0.000177455
0.00013825
0.000177423
0.000172236
0.000161513
0.000148241
0.000123286
0.000104074
0.000161456
0.000148296
0.000123374
0.000172028
0.000144835
0.000138137
0.000177185
0.000171936
0.000138257
0.000177223
0.000172136
0.00014484
0.000177494
0.000138369
0.00017736
0.000138247
0.000172241
0.000161531
0.000148207
0.000123285
0.000104073
0.000161431
0.000148273
0.000123372
0.000172029
0.000144841
0.000177125
0.000138137
0.000171926
0.000177255
0.000138256
0.000161586
0.000123448
0.000123363
0.000161692
0.000139063
0.000182766
0.000162718
0.000162723
0.000162638
0.000162623
0.000139124
0.000138674
0.000181766
0.000162049
0.000162037
0.000138726
0.000161951
0.000161932
0.000138827
0.000182211
0.000162135
0.000162118
0.000138781
0.000162217
0.000162222
0.000171276
0.00013795
0.000176552
0.000144347
0.000137832
0.000176417
0.000171388
0.000160819
0.000147662
0.000103876
0.000122971
0.000123063
0.000147741
0.000160694
0.000160874
0.000123141
0.00010387
0.000147886
0.000123056
0.000147807
0.000161
0.000171165
0.000144358
0.000137715
0.000176167
0.000137841
0.000176304
0.000171053
0.000171282
0.00013795
0.000176561
0.000144355
0.000137828
0.000176423
0.000171419
0.000160814
0.000147634
0.000103851
0.000122949
0.000123042
0.000147714
0.00016068
0.000160863
0.000123122
0.000103844
0.000147859
0.000123035
0.000160996
0.00014778
0.000171221
0.000144355
0.000137707
0.000176172
0.00013784
0.000176313
0.000171062
0.000171608
0.000137941
0.000176655
0.000144617
0.000171495
0.000138061
0.000176792
0.000161234
0.000148169
0.000103975
0.000123303
0.000148093
0.000123218
0.000161361
0.000161185
0.000123137
0.000147951
0.000103982
0.000148031
0.000161057
0.000123225
0.000171713
0.000144595
0.000138166
0.000177032
0.000138046
0.000176896
0.000171825
0.000171632
0.000137938
0.000176663
0.000144613
0.000171509
0.000138059
0.0001768
0.000161225
0.000148139
0.000103947
0.000123283
0.000123198
0.000148064
0.000161357
0.000161181
0.000123117
0.000147922
0.000103955
0.000161048
0.000123206
0.000148003
0.000171726
0.000144607
0.000138158
0.000177039
0.000138036
0.000176903
0.000171842
0.000138674
0.000181769
0.000162041
0.000162059
0.000161953
0.000161935
0.000138726
0.000138826
0.000182256
0.000162118
0.000162136
0.000162225
0.000138779
0.000162236
0.000171252
0.000137901
0.00017651
0.000144321
0.000137797
0.000176447
0.000171346
0.00016077
0.000147651
0.000103853
0.000122945
0.000123034
0.000147702
0.000160707
0.000160889
0.000123113
0.000103847
0.000147843
0.000123029
0.000147796
0.00016095
0.000171122
0.000144322
0.000137682
0.000176204
0.000137791
0.000176261
0.000171028
0.000171237
0.000176531
0.000137906
0.000144312
0.000176427
0.00013778
0.000171345
0.000160776
0.000147618
0.000103845
0.000122932
0.000123024
0.000147696
0.000160654
0.000160833
0.000123102
0.000103838
0.000147841
0.000123017
0.000160956
0.000147763
0.000171119
0.000144316
0.000176194
0.000137663
0.000176278
0.000137795
0.000171013
0.000171568
0.000137905
0.000176671
0.000144579
0.000171473
0.00013801
0.000176765
0.000161254
0.000148131
0.000103953
0.000123273
0.000148085
0.000123191
0.000161313
0.000161129
0.00012311
0.000147943
0.000103959
0.000147987
0.000161074
0.000123197
0.00017169
0.00014456
0.000138115
0.000177002
0.000138015
0.000176889
0.000171786
0.000171567
0.000176648
0.000137891
0.000144576
0.000171457
0.000176764
0.000138022
0.000161192
0.000148122
0.000103943
0.000123261
0.000123178
0.000148046
0.00016132
0.000161141
0.000123098
0.000147906
0.000103949
0.000161015
0.000123186
0.000147984
0.000171674
0.000144554
0.000177002
0.000138123
0.000176878
0.000137996
0.000171786
0.000171293
0.000176516
0.000137934
0.000144346
0.00017647
0.000137833
0.000171381
0.000160791
0.000147673
0.000103864
0.000122961
0.000147722
0.00012305
0.00016073
0.000160911
0.000123128
0.000103858
0.000147859
0.000147814
0.000123045
0.000160971
0.000171163
0.000144343
0.00017622
0.000137717
0.000176271
0.000137825
0.000171076
0.000171597
0.00013793
0.000176708
0.000144592
0.000171505
0.000138043
0.000176751
0.000161274
0.000148149
0.000103966
0.000123291
0.000161335
0.000148109
0.000123212
0.000161152
0.000123131
0.000147968
0.000103971
0.000161095
0.00014801
0.000123214
0.00017172
0.000144603
0.000138143
0.000176986
0.000171813
0.000138036
0.000176947
0.000171599
0.000176709
0.00013794
0.000144598
0.000171509
0.000176755
0.00013804
0.000161272
0.00014814
0.000103961
0.000123286
0.000123206
0.000148097
0.00016133
0.000161148
0.000123126
0.000147958
0.000103967
0.000161094
0.00012321
0.000148
0.000171723
0.000144592
0.000176987
0.00013814
0.000176945
0.000138047
0.000171814
0.000138667
0.000181745
0.000162024
0.00016202
0.000161927
0.00016192
0.000138718
0.000138818
0.000182186
0.000162104
0.000162111
0.0001622
0.000138773
0.000162192
0.000171275
0.000176545
0.000137943
0.000144347
0.000176415
0.000137825
0.000171395
0.000160805
0.000147631
0.00010385
0.000122948
0.000147709
0.000123041
0.000160677
0.000160858
0.00012312
0.000103843
0.000147854
0.000147776
0.000123034
0.000160987
0.000171171
0.000144344
0.000176166
0.000137707
0.000176297
0.000137834
0.000171042
0.000171591
0.000176657
0.00013794
0.000144592
0.000171493
0.000176778
0.000138047
0.000161261
0.000148139
0.000103967
0.000123292
0.00016135
0.000148081
0.00012321
0.000161151
0.000123129
0.000147954
0.000103972
0.000161089
0.000148
0.000123214
0.00017171
0.000144594
0.000177019
0.000138141
0.00017181
0.000176893
0.000138039
0.000171611
0.000176652
0.000137933
0.000144597
0.000171496
0.000176781
0.00013805
0.000161218
0.000148128
0.000103948
0.000123281
0.000123196
0.000148056
0.000161347
0.00016117
0.000123116
0.000147917
0.000103954
0.000161041
0.000123204
0.000147997
0.000171711
0.000144594
0.000177021
0.000138153
0.00017689
0.000138037
0.000171824
0.000138816
0.00018224
0.000162115
0.000162089
0.000138769
0.000162222
0.000162197
0.000161544
0.00014823
0.000123295
0.000104088
0.000123393
0.000161416
0.000148305
0.000172044
0.000144881
0.000138158
0.000177134
0.000138293
0.000171931
0.000177263
0.000161524
0.000148198
0.000123274
0.000104059
0.000161404
0.000123372
0.000148269
0.000172053
0.00014488
0.000138149
0.00017714
0.00017194
0.000138283
0.00017727
0.00016149
0.000148221
0.000123271
0.000104067
0.000123358
0.00016144
0.000148279
0.000172005
0.000144817
0.000138118
0.000177117
0.000138228
0.000171907
0.000177243
0.000161503
0.000148183
0.000123258
0.000104051
0.000161375
0.000123346
0.00014826
0.000172004
0.000144818
0.000177111
0.000138119
0.000171893
0.000177242
0.000138232
0.000172149
0.000144848
0.000177456
0.000138349
0.000177423
0.00013825
0.000172236
0.000161508
0.000148235
0.000123283
0.000104068
0.000148281
0.000161454
0.000123365
0.000172028
0.000144835
0.000177193
0.000138148
0.000177226
0.000171938
0.000138244
0.000161621
0.000123439
0.000104059
0.000148413
0.000148363
0.000123361
0.000161688
0.000172135
0.000144831
0.000177494
0.000138372
0.000177356
0.000138248
0.000172247
0.000161525
0.000148187
0.000123274
0.000104056
0.000148249
0.000161398
0.000123364
0.000172038
0.000144839
0.000177127
0.000138148
0.000177262
0.000171926
0.000138261
0.000161564
0.000123439
0.000104044
0.000148372
0.000148312
0.000123349
0.000161688
0.000138645
0.000136678
0.000138655
5.00167e-05
9.38183e-05
2.36115e-05
7.37211e-05
7.37315e-05
2.36127e-05
9.38246e-05
5.00173e-05
2.01025e-05
5.00091e-05
7.60418e-05
7.6002e-05
2.01045e-05
2.36093e-05
9.72758e-05
0.000112662
7.36892e-05
4.79324e-05
0.000112492
4.79233e-05
9.73286e-05
9.72639e-05
0.000112676
7.37003e-05
4.79428e-05
4.79337e-05
0.000112514
9.73152e-05
7.88225e-05
2.14898e-05
2.14928e-05
2.14878e-05
2.14907e-05
7.88402e-05
2.36105e-05
2.01033e-05
5.00102e-05
7.60526e-05
7.60083e-05
2.01054e-05
0.000119498
0.000136642
0.000129846
0.000129855
0.000129684
0.000129679
0.000119626
0.000128411
0.000122164
9.36857e-05
0.000107738
0.000107547
0.000121998
0.000128767
0.000128459
0.000122166
9.36964e-05
0.000107744
0.000122015
0.000107543
0.000128682
0.000123073
0.000139442
0.000139453
0.000137089
0.000125871
0.000142567
0.000142579
0.000139612
0.000128829
0.000145654
0.000145668
0.000142029
0.000131924
0.000148698
0.000148711
0.000144356
0.000135138
0.000151693
0.000151705
0.00014663
0.000138448
0.000154631
0.000154643
0.000148875
0.000141836
0.000157509
0.000157521
0.000150978
0.000145283
0.000160325
0.000160336
0.000153035
0.000148773
0.000163076
0.000163088
0.000155059
0.00015229
0.000165761
0.000165774
0.000157041
0.000155821
0.000168381
0.000168393
0.000158969
0.000159352
0.000170932
0.000170943
0.000160916
0.000162871
0.000173414
0.000173425
0.000162686
0.000166367
0.000175827
0.000175838
0.000164473
0.000169829
0.000178172
0.000178182
0.000166153
0.000173252
0.000180447
0.000180455
0.000167787
0.000176627
0.000182654
0.00018266
0.000169428
0.000179948
0.000184793
0.000184797
0.000170969
0.00018321
0.000186865
0.000186866
0.000172473
0.000186408
0.000188872
0.000188868
0.000173905
0.000189539
0.000190812
0.000190804
0.000175332
0.000192597
0.000192688
0.000192673
0.000176658
0.00019558
0.000194496
0.000194477
0.00017799
0.000198481