/*--------------------------------*- C++ -*----------------------------------*\
| =========                 |                                                 |
| \\      /  F ield         | OpenFOAM: The Open Source CFD Toolbox           |
|  \\    /   O peration     | Version:  2312                                  |
|   \\  /    A nd           | Website:  www.openfoam.com                      |
|    \\/     M anipulation  |                                                 |
\*---------------------------------------------------------------------------*/
FoamFile
{
    version     2.0;
    format      ascii;
    arch        "LSB;label=32;scalar=64";
    class       volVectorField;
    location    "350";
    object      U;
}
// * * * * * * * * * * * * * * * * * * * * * * * * * * * * * * * * * * * * * //

dimensions      [0 1 -1 0 0 0 0];

internalField   nonuniform List<vector> 
43496
(
(-1.55546e-05 -6.20182e-07 0.0914091)
(-5.71895e-06 3.28368e-06 0.0716084)
(-4.75512e-06 8.95797e-06 0.107485)
(-7.23273e-06 1.92818e-05 0.0930532)
(-2.54702e-05 -9.48141e-07 0.0985602)
(-1.15206e-05 -2.25451e-06 0.109913)
(-1.55804e-05 -1.85604e-08 0.0914089)
(-1.15579e-05 1.17365e-06 0.0822827)
(-2.54962e-05 3.10933e-07 0.09856)
(-9.03545e-06 4.62592e-06 0.107483)
(-1.15637e-05 1.89329e-06 0.109912)
(-1.92873e-05 7.2849e-06 0.0930537)
(-3.99734e-05 3.98759e-05 0.104307)
(-9.2476e-06 6.58863e-06 0.0875992)
(-6.48819e-06 9.29011e-06 0.0876011)
(-3.17006e-06 5.79636e-06 0.0716083)
(-1.07521e-06 1.16111e-05 0.0822816)
(4.60918e-06 -1.11053e-06 0.0768819)
(6.03073e-06 -5.96195e-07 0.0913662)
(-1.49966e-05 -1.46895e-06 0.0899347)
(-7.14054e-06 -1.50386e-07 0.0786961)
(6.50832e-06 -8.99332e-07 0.0898858)
(4.21029e-06 -4.9183e-07 0.0786561)
(-7.13397e-06 1.46057e-07 0.0769284)
(5.12212e-06 -1.23554e-06 0.0684176)
(-1.16047e-05 -1.7058e-06 0.0858774)
(6.56024e-06 -1.10672e-06 0.085822)
(-5.91268e-06 -1.6665e-07 0.0684783)
(4.47763e-06 -2.65742e-06 0.0715557)
(4.55155e-06 5.40186e-07 0.0768807)
(6.00015e-06 -7.76565e-08 0.091366)
(-7.16192e-06 -3.2946e-07 0.0786958)
(-1.50821e-05 8.28391e-07 0.0899339)
(4.1729e-06 -2.59717e-08 0.0786557)
(6.3884e-06 2.13223e-07 0.0898856)
(-7.17968e-06 -6.68396e-07 0.0769271)
(4.98909e-06 7.00348e-07 0.0684195)
(-1.17371e-05 1.1374e-06 0.0858771)
(7.6546e-06 -6.75201e-07 0.0822325)
(6.38249e-06 4.92473e-07 0.0858226)
(-5.9987e-06 -3.15145e-07 0.0684798)
(3.58187e-06 -3.48113e-06 0.0836142)
(-3.46539e-06 5.06659e-06 0.0683772)
(-4.95352e-06 3.56353e-06 0.0683827)
(2.78635e-06 -4.13324e-06 0.068322)
(4.25973e-06 -2.68139e-06 0.0683272)
(-6.7795e-06 6.86401e-06 0.0836597)
(8.67727e-06 -4.46855e-06 0.0916651)
(-7.59094e-06 3.94879e-06 0.0816076)
(4.21198e-06 -3.80212e-06 0.0875517)
(-2.27059e-05 1.32439e-05 0.0963116)
(4.36966e-06 -3.08956e-06 0.0815577)
(1.22984e-05 -6.51483e-06 0.0962644)
(-1.58739e-05 9.5971e-06 0.0917115)
(4.51712e-06 -8.65942e-06 0.0916714)
(-3.83563e-06 7.64078e-06 0.0816131)
(3.87071e-06 -4.1853e-06 0.0875525)
(-1.32419e-05 2.26739e-05 0.0963142)
(6.52129e-06 -1.22952e-05 0.0962663)
(3.19662e-06 -4.30169e-06 0.0815623)
(-9.5592e-06 1.58899e-05 0.0917181)
(2.73321e-06 -4.44307e-06 0.071555)
(7.32883e-07 -7.62746e-06 0.0822314)
(-9.3553e-06 -2.81697e-06 0.115046)
(-8.15602e-06 8.04774e-06 0.112489)
(-9.37281e-06 2.65439e-06 0.115044)
(3.60708e-06 -9.93229e-06 0.0929982)
(-1.07445e-05 4.77968e-05 0.0995764)
(4.70545e-06 -3.35976e-05 0.0995167)
(2.98094e-05 -1.07765e-06 0.102857)
(9.85855e-06 -6.96343e-07 0.0985048)
(-2.54401e-05 -2.65497e-06 0.0976086)
(-4.9775e-05 -1.12506e-06 0.103605)
(1.07387e-05 -9.9532e-07 0.0975441)
(2.83492e-05 -9.94778e-07 0.103512)
(-5.05449e-05 -3.45489e-06 0.102972)
(3.33519e-05 7.29076e-07 0.101313)
(-2.32138e-05 -5.08348e-06 0.0956585)
(1.18357e-05 2.31385e-08 0.095592)
(-5.02325e-05 -7.33724e-06 0.101416)
(2.97027e-05 4.99301e-07 0.102857)
(9.82802e-06 1.0353e-08 0.0985047)
(-4.98075e-05 5.78774e-07 0.103605)
(-2.55251e-05 2.03665e-06 0.0976079)
(2.83179e-05 3.98323e-07 0.103511)
(1.06224e-05 3.29172e-07 0.0975442)
(-5.06586e-05 2.92386e-06 0.102972)
(3.31999e-05 -1.27723e-06 0.101312)
(-2.33491e-05 4.48632e-06 0.0956578)
(9.90187e-06 -3.59675e-06 0.0929989)
(-4.787e-05 1.07305e-05 0.0995759)
(1.16673e-05 -6.30806e-07 0.0955922)
(-5.04114e-05 6.81339e-06 0.101415)
(3.35507e-05 -4.75331e-06 0.0995164)
(1.13124e-05 -1.13681e-05 0.0975304)
(2.54195e-05 -2.55441e-05 0.104192)
(-2.48353e-05 3.99307e-05 0.101495)
(-3.99977e-05 2.47623e-05 0.101497)
(2.8791e-05 -1.25922e-05 0.10143)
(1.25189e-05 -2.88666e-05 0.101428)
(-2.09799e-05 2.09519e-05 0.0975852)
(-8.15087e-06 -8.07459e-06 0.112527)
(9.22882e-06 -5.02217e-06 0.107494)
(-5.00795e-06 9.31667e-06 0.107495)
(-2.52312e-05 -2.52682e-05 0.104187)
(-8.11203e-06 -8.20054e-06 0.112496)
(8.94334e-06 -4.92428e-06 0.107486)
(-4.82955e-06 9.05211e-06 0.107487)
(-2.53259e-05 -2.55329e-05 0.104189)
(2.52771e-05 2.51352e-05 0.104189)
(-4.00086e-05 -4.03335e-05 0.104305)
(-4.91367e-06 -9.33813e-06 0.107492)
(4.77725e-06 -9.37338e-06 0.107491)
(-4.74014e-06 -9.21082e-06 0.107486)
(4.69822e-06 -9.19586e-06 0.107484)
(-2.53756e-05 2.51049e-05 0.104187)
(4.00299e-05 -4.02553e-05 0.104304)
(-9.36001e-06 -5.01968e-06 0.107495)
(-9.42756e-06 4.82246e-06 0.107493)
(-9.1064e-06 -4.99567e-06 0.107489)
(-9.19288e-06 4.69834e-06 0.107487)
(9.28754e-06 4.88151e-06 0.10749)
(9.02892e-06 -4.94838e-06 0.107487)
(9.10787e-06 4.74256e-06 0.107485)
(2.51311e-05 -2.53012e-05 0.10419)
(-4.01962e-05 4.00849e-05 0.104306)
(4.90595e-06 9.32959e-06 0.107493)
(-4.85489e-06 9.08948e-06 0.107489)
(4.88406e-06 9.07946e-06 0.107487)
(4.02202e-05 4.00398e-05 0.104303)
(2.55729e-05 2.52198e-05 0.104191)
(-4.67427e-06 -9.14718e-06 0.107484)
(4.67805e-06 -9.10077e-06 0.107483)
(-2.55485e-05 2.53022e-05 0.104189)
(-8.99706e-06 -4.98377e-06 0.107487)
(-9.14269e-06 4.67952e-06 0.107485)
(9.09508e-06 4.69853e-06 0.107482)
(2.53685e-05 -2.55055e-05 0.104191)
(4.88449e-06 9.00568e-06 0.107485)
(-8.36286e-08 -1.58434e-05 0.0913791)
(8.45181e-07 7.43041e-06 0.0821937)
(-9.3997e-07 -1.18283e-05 0.0822522)
(-1.01251e-07 5.75121e-06 0.0913294)
(-2.58189e-06 4.42337e-06 0.071519)
(3.30471e-06 -5.71428e-06 0.0715833)
(-1.5832e-05 -6.26689e-07 0.0913842)
(7.72541e-06 2.28887e-07 0.0821979)
(-1.14987e-05 -1.63562e-06 0.0822562)
(5.75657e-06 -5.84886e-07 0.0913345)
(7.95641e-06 -8.09189e-06 0.112526)
(-8.18728e-06 8.05378e-06 0.112527)
(8.01042e-06 8.10273e-06 0.112525)
(-8.12839e-06 -8.16888e-06 0.112503)
(8.00176e-06 -8.16668e-06 0.112502)
(-8.18076e-06 8.05788e-06 0.112504)
(8.09306e-06 8.10657e-06 0.112502)
(2.57039e-05 -8.07707e-07 0.0985408)
(-9.76775e-06 3.16989e-06 0.0929673)
(1.16005e-05 -2.14151e-06 0.109931)
(9.13752e-06 -4.98103e-06 0.107491)
(1.94103e-05 -7.72575e-06 0.0930298)
(1.15353e-05 -2.13775e-06 0.109926)
(-9.55085e-06 -5.59621e-07 0.098481)
(4.37669e-06 -2.76632e-06 0.0715231)
(-5.83436e-06 3.19845e-06 0.0715828)
(-5.13178e-07 2.57552e-05 0.0985407)
(-2.16686e-06 1.16768e-05 0.109931)
(3.42926e-06 -9.62747e-06 0.0929687)
(-4.94071e-06 9.21723e-06 0.107493)
(-2.12918e-06 1.15962e-05 0.109927)
(-7.40592e-06 1.95589e-05 0.0930302)
(-2.5493e-07 -9.51079e-06 0.098481)
(-3.89898e-06 -3.91995e-06 0.0875159)
(-3.43467e-06 -4.168e-06 0.0875154)
(4.03806e-05 4.02793e-05 0.104302)
(9.59079e-06 6.44703e-06 0.087572)
(7.04109e-06 9.25465e-06 0.087571)
(8.83131e-07 7.53841e-06 0.0822227)
(3.34543e-08 5.93803e-06 0.0913552)
(-2.41513e-06 4.54783e-06 0.0715459)
(7.8679e-06 1.83859e-07 0.0822267)
(5.97312e-06 -6.04441e-07 0.09136)
(8.00164e-06 -8.18279e-06 0.112495)
(-8.19766e-06 8.07442e-06 0.112496)
(8.09716e-06 8.11733e-06 0.112494)
(2.53464e-05 -7.9891e-07 0.0985572)
(-1.00107e-05 3.26189e-06 0.0929915)
(1.14911e-05 -2.18618e-06 0.109914)
(-9.82739e-06 -5.72948e-07 0.0984976)
(1.14439e-05 -2.18418e-06 0.10991)
(4.45652e-06 -2.6823e-06 0.0715494)
(-3.59e-07 2.53689e-05 0.0985569)
(-2.06662e-06 1.15445e-05 0.109915)
(3.57594e-06 -9.87311e-06 0.0929924)
(-1.02536e-07 -9.8058e-06 0.0984975)
(-2.02902e-06 1.14604e-05 0.109911)
(-4.0268e-06 -4.02969e-06 0.0875429)
(-3.32698e-06 -4.44197e-06 0.0875422)
(4.01151e-05 3.97982e-05 0.104305)
(9.43185e-06 6.33302e-06 0.0875985)
(7.11326e-06 8.9716e-06 0.0875973)
(2.93173e-06 4.31204e-06 0.0715211)
(-2.95134e-06 -5.98648e-06 0.0715821)
(4.62066e-06 2.29486e-06 0.0715225)
(-5.61178e-06 -3.6732e-06 0.071583)
(3.95469e-06 3.82557e-06 0.0875176)
(4.23841e-06 3.30198e-06 0.0875185)
(-4.02706e-05 -4.04873e-05 0.104305)
(-6.36353e-06 -9.64861e-06 0.0875748)
(-9.23563e-06 -7.12542e-06 0.0875745)
(-2.94696e-06 -5.95093e-06 0.0715954)
(2.93858e-06 4.32578e-06 0.0715348)
(-5.5719e-06 -3.69787e-06 0.0715963)
(4.65934e-06 2.24583e-06 0.0715361)
(2.54237e-05 2.51744e-05 0.10419)
(-6.29438e-06 -9.57312e-06 0.0875883)
(-9.11794e-06 -7.11202e-06 0.0875879)
(4.0236e-06 3.89374e-06 0.0875314)
(4.36592e-06 3.29041e-06 0.0875322)
(4.44943e-07 -1.58264e-05 0.0913793)
(-5.02273e-07 7.58995e-06 0.0821932)
(1.30424e-06 -1.15973e-05 0.0822533)
(3.57799e-07 5.76814e-06 0.0913296)
(-5.32555e-07 -2.58159e-05 0.0985386)
(3.57694e-06 9.56841e-06 0.0929657)
(-2.17284e-06 -1.16647e-05 0.10993)
(-4.84535e-06 -9.27994e-06 0.10749)
(-7.24486e-06 -1.96444e-05 0.0930282)
(-2.14417e-06 -1.16336e-05 0.109926)
(-3.11911e-07 9.5341e-06 0.0984788)
(6.74403e-07 -2.58136e-05 0.0985389)
(-3.38234e-06 9.63995e-06 0.092965)
(1.94626e-06 -1.16798e-05 0.10993)
(4.73792e-06 -9.303e-06 0.107488)
(7.48377e-06 -1.95239e-05 0.0930283)
(1.94856e-06 -1.16454e-05 0.109925)
(3.76652e-07 9.53638e-06 0.098479)
(-3.0368e-08 5.84635e-06 0.0913424)
(-9.2595e-07 -1.17737e-05 0.0822665)
(8.67427e-07 7.4765e-06 0.0822084)
(-1.42786e-08 -1.57297e-05 0.0913919)
(4.1811e-07 5.86885e-06 0.0913426)
(1.38074e-06 -1.14891e-05 0.0822677)
(-4.23138e-07 7.68742e-06 0.082208)
(5.01177e-07 -1.56986e-05 0.0913921)
(-2.37691e-07 9.65262e-06 0.0984873)
(-4.78852e-06 -9.23606e-06 0.107488)
(-7.14357e-06 -1.9534e-05 0.0930402)
(-2.10042e-06 -1.16269e-05 0.109918)
(3.67251e-06 9.66358e-06 0.092978)
(-2.12474e-06 -1.16232e-05 0.109922)
(-4.55029e-07 -2.56651e-05 0.098547)
(4.19156e-07 9.66843e-06 0.0984875)
(4.71963e-06 -9.23575e-06 0.107487)
(7.50324e-06 -1.93601e-05 0.0930405)
(1.96856e-06 -1.16266e-05 0.109917)
(-3.35733e-06 9.79019e-06 0.0929774)
(1.95875e-06 -1.1628e-05 0.109922)
(7.24285e-07 -2.56564e-05 0.0985473)
(-3.70418e-06 3.97417e-06 0.0875153)
(-4.1431e-06 3.51007e-06 0.087518)
(4.02184e-05 -4.04582e-05 0.104303)
(6.7225e-06 -9.43356e-06 0.0875731)
(9.34811e-06 -6.88241e-06 0.0875746)
(-4.52565e-06 2.49394e-06 0.0715212)
(5.71824e-06 -3.45508e-06 0.0715824)
(3.38602e-06 -5.63754e-06 0.0715967)
(-2.49728e-06 4.48555e-06 0.0715327)
(-2.54688e-05 2.52003e-05 0.104188)
(6.75969e-06 -9.29525e-06 0.0875866)
(9.2677e-06 -6.81392e-06 0.0875879)
(-3.66355e-06 4.10154e-06 0.0875291)
(-4.22815e-06 3.55492e-06 0.0875318)
(5.69524e-06 -3.43048e-06 0.0715958)
(-4.53913e-06 2.49059e-06 0.0715349)
(-2.58346e-05 -9.35747e-07 0.0985439)
(9.7866e-06 3.02261e-06 0.0929696)
(-1.17609e-05 -2.17443e-06 0.109933)
(-9.26103e-06 -4.99721e-06 0.107493)
(-1.94129e-05 -7.91728e-06 0.0930314)
(-1.16969e-05 -2.18174e-06 0.109929)
(9.51095e-06 -6.59068e-07 0.0984839)
(-1.58632e-05 -2.32314e-08 0.091384)
(7.46091e-06 -7.50005e-07 0.0821973)
(-1.17452e-05 1.09806e-06 0.0822551)
(5.71917e-06 -7.50926e-08 0.0913344)
(-2.58601e-05 3.4704e-07 0.0985438)
(-1.17862e-05 1.98638e-06 0.109933)
(9.54821e-06 -3.53475e-06 0.0929695)
(-9.33999e-06 4.77384e-06 0.107491)
(-1.17275e-05 1.96201e-06 0.109928)
(-1.96048e-05 7.35503e-06 0.0930304)
(9.47653e-06 6.99528e-08 0.098484)
(5.85981e-06 -6.0227e-07 0.0913474)
(-1.14287e-05 -1.65426e-06 0.0822704)
(7.80079e-06 1.8968e-07 0.0822125)
(-1.57029e-05 -6.37431e-07 0.0913968)
(9.64862e-06 -6.88461e-07 0.0984924)
(-9.17327e-06 -4.99838e-06 0.107491)
(-1.92562e-05 -7.90295e-06 0.0930433)
(-1.1619e-05 -2.22059e-06 0.10992)
(9.93617e-06 3.00758e-06 0.0929818)
(-1.16784e-05 -2.21176e-06 0.109925)
(-2.56644e-05 -9.50515e-07 0.098552)
(5.82695e-06 -8.28495e-08 0.0913473)
(-1.16608e-05 1.13379e-06 0.0822691)
(7.53687e-06 -7.23885e-07 0.0822117)
(-1.57266e-05 -2.82082e-08 0.0913966)
(9.62087e-06 3.81552e-08 0.0984924)
(-9.28102e-06 4.74672e-06 0.107489)
(-1.16551e-05 1.92848e-06 0.10992)
(-1.94482e-05 7.31598e-06 0.0930422)
(-1.17136e-05 1.94564e-06 0.109924)
(9.69158e-06 -3.56659e-06 0.0929815)
(-2.56863e-05 3.20466e-07 0.0985519)
(1.57356e-05 -4.58914e-07 0.0913823)
(-7.63201e-06 4.25964e-07 0.0821954)
(1.15685e-05 -1.48332e-06 0.0822544)
(-5.76052e-06 -5.10307e-07 0.0913314)
(2.57363e-05 4.38321e-07 0.0985404)
(1.1617e-05 2.04692e-06 0.10993)
(-9.58876e-06 -3.57503e-06 0.0929656)
(9.21188e-06 4.83361e-06 0.107489)
(1.15642e-05 2.0312e-06 0.109925)
(1.95701e-05 7.28482e-06 0.0930276)
(-9.55417e-06 1.58353e-07 0.0984809)
(1.57941e-05 8.01478e-08 0.0913813)
(-7.44611e-06 -8.11646e-07 0.082194)
(1.1789e-05 1.01122e-06 0.0822522)
(-5.76427e-06 -4.96409e-09 0.0913316)
(-9.69954e-06 -5.66599e-07 0.0984893)
(9.07467e-06 -4.96515e-06 0.10749)
(1.92722e-05 -7.65899e-06 0.0930417)
(1.1502e-05 -2.16022e-06 0.109918)
(-9.90003e-06 3.20896e-06 0.0929795)
(1.15385e-05 -2.15669e-06 0.109922)
(2.55355e-05 -8.10456e-07 0.098549)
(-5.87235e-06 -5.17803e-07 0.0913442)
(1.14987e-05 -1.46514e-06 0.0822686)
(-7.70025e-06 4.2431e-07 0.0822099)
(1.56048e-05 -4.64487e-07 0.0913948)
(-9.69552e-06 1.25111e-07 0.0984891)
(9.18568e-06 4.78733e-06 0.107486)
(1.15373e-05 2.01144e-06 0.109917)
(1.9459e-05 7.20577e-06 0.0930395)
(1.15697e-05 2.00792e-06 0.109921)
(-9.70472e-06 -3.64366e-06 0.0929778)
(2.55758e-05 4.09847e-07 0.0985487)
(-5.87173e-06 -3.05345e-08 0.0913444)
(1.17214e-05 1.00908e-06 0.0822664)
(-7.5066e-06 -8.14875e-07 0.0822085)
(1.56654e-05 5.75941e-08 0.0913939)
(3.93809e-06 -3.7988e-06 0.0875189)
(3.74481e-06 -3.95431e-06 0.0875195)
(-4.04276e-05 4.02995e-05 0.104305)
(-9.49854e-06 6.60591e-06 0.0875735)
(-6.59605e-06 9.48691e-06 0.0875754)
(2.75992e-06 -4.38328e-06 0.0715224)
(-3.1528e-06 5.87097e-06 0.0715827)
(-5.77932e-06 3.23802e-06 0.0715958)
(4.41515e-06 -2.72509e-06 0.0715365)
(2.52474e-05 -2.53992e-05 0.10419)
(-9.37647e-06 6.59638e-06 0.0875866)
(-6.5457e-06 9.39327e-06 0.0875884)
(4.0556e-06 -3.80636e-06 0.0875323)
(3.80106e-06 -4.05318e-06 0.087533)
(-3.15616e-06 5.83164e-06 0.0715957)
(2.75732e-06 -4.40062e-06 0.0715358)
(7.65326e-07 2.5726e-05 0.0985409)
(2.01522e-06 1.16785e-05 0.109931)
(-3.18861e-06 -9.74476e-06 0.0929667)
(4.88982e-06 9.23761e-06 0.107491)
(2.03458e-06 1.16136e-05 0.109926)
(7.78526e-06 1.94106e-05 0.0930284)
(4.55928e-07 -9.51903e-06 0.0984809)
(-9.71933e-08 1.57793e-05 0.0913818)
(7.232e-07 -7.47133e-06 0.0821962)
(-1.08446e-06 1.17637e-05 0.0822541)
(-1.84048e-08 -5.72795e-06 0.0913311)
(5.33996e-07 1.57283e-05 0.0913823)
(-3.43535e-07 -7.69321e-06 0.0821951)
(1.58479e-06 1.14998e-05 0.0822534)
(4.59868e-07 -5.73098e-06 0.0913305)
(-1.78068e-07 -9.66612e-06 0.0984892)
(-4.91675e-06 9.17549e-06 0.107491)
(-2.08571e-06 1.15451e-05 0.109918)
(-7.31936e-06 1.94209e-05 0.0930418)
(-2.11692e-06 1.16028e-05 0.109923)
(3.50959e-06 -9.7535e-06 0.0929807)
(-4.33202e-07 2.55759e-05 0.0985488)
(5.20854e-07 -9.67334e-06 0.0984892)
(4.89145e-06 9.16425e-06 0.107489)
(2.08965e-06 1.15539e-05 0.109918)
(7.81991e-06 1.92273e-05 0.0930403)
(2.05597e-06 1.15972e-05 0.109922)
(-3.13611e-06 -9.91853e-06 0.0929788)
(8.28192e-07 2.55379e-05 0.098549)
(4.69337e-08 -5.8381e-06 0.0913438)
(-1.07315e-06 1.16955e-05 0.0822681)
(7.34018e-07 -7.53376e-06 0.0822106)
(-3.31086e-08 1.5643e-05 0.0913942)
(5.245e-07 -5.84624e-06 0.0913433)
(1.66044e-06 1.13932e-05 0.0822676)
(-2.57754e-07 -7.79876e-06 0.0822097)
(5.91471e-07 1.55871e-05 0.0913947)
(-4.32926e-06 -2.87937e-06 0.0715203)
(5.92866e-06 3.03307e-06 0.0715808)
(-2.3952e-06 -4.58246e-06 0.0715203)
(3.63195e-06 5.62074e-06 0.0715806)
(-2.52805e-05 -2.5401e-05 0.104188)
(9.52441e-06 6.38888e-06 0.0875853)
(7.08605e-06 9.10781e-06 0.0875843)
(-3.97449e-06 -3.97926e-06 0.0875296)
(-3.37988e-06 -4.31906e-06 0.087529)
(5.89489e-06 3.03193e-06 0.0715941)
(-4.34508e-06 -2.8828e-06 0.0715339)
(3.71181e-06 5.55315e-06 0.0715938)
(-2.30574e-06 -4.64421e-06 0.0715339)
(2.93602e-06 4.35209e-06 0.071548)
(4.68532e-06 2.22505e-06 0.0715493)
(4.07673e-06 3.95687e-06 0.0875449)
(4.46058e-06 3.29833e-06 0.0875455)
(-3.5101e-07 7.78929e-06 0.0822224)
(4.76029e-07 5.97671e-06 0.0913555)
(3.75761e-06 9.76387e-06 0.0929902)
(-2.06782e-06 -1.15959e-05 0.109914)
(-1.64201e-07 9.77441e-06 0.0984958)
(-3.32298e-06 9.93067e-06 0.0929895)
(1.9944e-06 -1.15854e-05 0.109914)
(4.71188e-07 9.79279e-06 0.0984961)
(-3.61657e-06 4.21938e-06 0.0875426)
(-4.28591e-06 3.61001e-06 0.0875452)
(-4.54908e-06 2.5104e-06 0.0715481)
(1.00746e-05 3.01521e-06 0.0929938)
(-1.16012e-05 -2.24641e-06 0.109917)
(9.79863e-06 -6.9724e-07 0.0985007)
(7.61802e-06 -6.94009e-07 0.0822257)
(5.94632e-06 -8.39565e-08 0.0913598)
(-1.16462e-05 1.91427e-06 0.109916)
(9.84098e-06 -3.59291e-06 0.0929932)
(9.7699e-06 1.41783e-08 0.0985006)
(1.54666e-05 -4.60276e-07 0.0914072)
(-7.75332e-06 4.4291e-07 0.0822241)
(-5.97728e-06 -5.25758e-07 0.0913568)
(2.54036e-05 3.87775e-07 0.0985569)
(1.15384e-05 1.97026e-06 0.109913)
(-9.8082e-06 -3.70508e-06 0.0929897)
(8.9729e-06 4.63708e-06 0.107482)
(-9.82169e-06 9.79201e-08 0.0984974)
(1.1477e-05 1.98914e-06 0.109909)
(1.93479e-05 7.13103e-06 0.0930513)
(1.55199e-05 3.93822e-08 0.0914063)
(-7.57148e-06 -8.15714e-07 0.0822226)
(-5.97784e-06 -5.2794e-08 0.091357)
(1.16238e-05 9.99883e-07 0.0822802)
(4.16358e-06 -3.80561e-06 0.0875453)
(3.84705e-06 -4.1473e-06 0.0875462)
(2.74389e-06 -4.42798e-06 0.0715488)
(8.91376e-07 2.53382e-05 0.098557)
(2.11401e-06 1.15179e-05 0.109914)
(-3.08847e-06 -1.0084e-05 0.0929907)
(4.85493e-06 8.88947e-06 0.107483)
(5.83658e-07 -9.8246e-06 0.0984974)
(2.1458e-06 1.14486e-05 0.10991)
(7.84035e-06 1.90576e-05 0.0930519)
(2.55309e-08 1.54924e-05 0.0914064)
(7.35647e-07 -7.58981e-06 0.0822246)
(1.12512e-07 -5.95468e-06 0.0913562)
(6.35192e-07 1.54335e-05 0.0914069)
(-1.84671e-07 -7.88738e-06 0.0822239)
(5.81005e-07 -5.96894e-06 0.0913558)
(1.71634e-06 1.12951e-05 0.0822814)
(-4.37253e-06 -2.8791e-06 0.071547)
(5.85729e-06 3.03328e-06 0.071607)
(-2.22753e-06 -4.69546e-06 0.071547)
(3.77434e-06 5.49089e-06 0.0716066)
(-4.33196e-07 4.45699e-06 0.0768492)
(4.04218e-07 -7.2552e-06 0.0786638)
(-8.44748e-07 -1.53505e-05 0.0899039)
(-6.56227e-08 5.79636e-06 0.0913359)
(6.99279e-08 4.09843e-06 0.0786233)
(-2.76722e-07 6.20266e-06 0.0898547)
(8.21534e-07 -7.31095e-06 0.0768961)
(4.97496e-07 -6.13386e-06 0.0684435)
(-9.5607e-07 -1.1868e-05 0.0822449)
(-4.53842e-07 6.14227e-06 0.085783)
(-1.0653e-06 -1.20662e-05 0.0858389)
(-5.61975e-07 4.92638e-06 0.0683823)
(-5.45872e-07 4.92644e-06 0.0683892)
(-1.03199e-06 -1.20296e-05 0.0858461)
(8.53614e-07 7.44509e-06 0.0822011)
(-4.22946e-07 6.1737e-06 0.0857903)
(5.1585e-07 -6.12462e-06 0.0684502)
(8.00775e-07 -7.31865e-06 0.0768888)
(-1.18125e-07 -1.59024e-05 0.0913726)
(4.58787e-08 4.08206e-06 0.0786158)
(-3.17522e-07 6.16137e-06 0.0898478)
(3.81727e-07 -7.27877e-06 0.0786564)
(-8.85699e-07 -1.54055e-05 0.0898971)
(-4.55854e-07 4.44761e-06 0.0768419)
(3.26312e-06 -5.74997e-06 0.0715765)
(-2.54129e-06 4.45453e-06 0.0715259)
(4.55855e-06 -1.09346e-06 0.0768539)
(-1.5264e-05 -1.4722e-06 0.0899087)
(-7.21904e-06 -1.8086e-07 0.0786682)
(5.80774e-06 -5.92651e-07 0.091341)
(6.29144e-06 -8.86953e-07 0.0898594)
(4.13279e-06 -5.17207e-07 0.0786278)
(-7.1947e-06 1.51133e-07 0.0769008)
(-5.96871e-06 -1.79177e-07 0.068446)
(-1.15378e-05 -1.61383e-06 0.0822489)
(6.35262e-06 -1.11828e-06 0.0857866)
(-1.18496e-05 -1.74679e-06 0.0858425)
(5.09846e-06 -1.22115e-06 0.0683849)
(5.10453e-06 -1.23783e-06 0.0683916)
(-1.18029e-05 -1.74968e-06 0.0858497)
(7.75881e-06 2.02793e-07 0.0822053)
(6.39721e-06 -1.12934e-06 0.0857939)
(-5.95609e-06 -1.88177e-07 0.0684527)
(-7.22793e-06 1.56487e-07 0.0768936)
(-1.58966e-05 -6.17814e-07 0.0913778)
(6.24223e-06 -8.75594e-07 0.0898526)
(4.10538e-06 -5.20982e-07 0.0786204)
(-1.5328e-05 -1.46398e-06 0.089902)
(-7.25038e-06 -1.82174e-07 0.0786609)
(4.53441e-06 -1.08447e-06 0.0768466)
(-5.85743e-06 3.17715e-06 0.0715762)
(4.39819e-06 -2.74595e-06 0.0715299)
(-3.18876e-06 -3.66486e-06 0.0835863)
(3.75756e-06 4.81282e-06 0.0683579)
(5.33803e-06 3.31207e-06 0.0683522)
(-2.50718e-06 -4.42972e-06 0.0683022)
(-3.91571e-06 -2.94763e-06 0.0682967)
(7.20803e-06 6.71308e-06 0.0836318)
(1.63356e-05 9.64606e-06 0.091686)
(-1.19009e-05 -6.37708e-06 0.0962387)
(9.63199e-06 6.48386e-06 0.0875653)
(-4.04765e-06 -3.31157e-06 0.0815255)
(2.31898e-05 1.3393e-05 0.0962874)
(7.92767e-06 3.73426e-06 0.0815771)
(-8.29969e-06 -4.4542e-06 0.0916386)
(1.00539e-05 1.60704e-05 0.0916797)
(-6.1039e-06 -1.20545e-05 0.0962369)
(7.01868e-06 9.33313e-06 0.0875643)
(-2.85258e-06 -4.42689e-06 0.0815223)
(1.37265e-05 2.2983e-05 0.0962854)
(4.25078e-06 7.5618e-06 0.081573)
(-4.11405e-06 -8.55839e-06 0.0916328)
(-8.33072e-06 -4.5146e-06 0.0916445)
(7.90519e-06 3.71203e-06 0.0815838)
(-3.93737e-06 -3.95154e-06 0.0875228)
(2.31189e-05 1.33173e-05 0.0962922)
(-1.19585e-05 -6.44014e-06 0.0962437)
(-4.06561e-06 -3.3316e-06 0.0815323)
(1.6283e-05 9.57077e-06 0.0916918)
(-4.11273e-06 -8.64105e-06 0.0916387)
(4.27708e-06 7.49438e-06 0.0815798)
(-3.40671e-06 -4.24299e-06 0.0875223)
(1.37177e-05 2.28708e-05 0.0962903)
(-6.10611e-06 -1.21551e-05 0.0962418)
(-2.82371e-06 -4.49028e-06 0.0815292)
(1.00382e-05 1.59644e-05 0.0916856)
(7.2161e-06 6.77439e-06 0.0836254)
(-2.51085e-06 -4.40502e-06 0.0682964)
(-3.93454e-06 -2.91507e-06 0.0682909)
(3.75398e-06 4.84014e-06 0.0683521)
(5.32299e-06 3.34346e-06 0.0683464)
(-3.18655e-06 -3.61003e-06 0.0835799)
(5.19352e-07 -6.0799e-06 0.0684697)
(-3.4673e-07 6.28712e-06 0.0858117)
(-9.20882e-07 -1.17308e-05 0.0822735)
(-5.35018e-07 4.94393e-06 0.0684089)
(-9.54915e-07 -1.18773e-05 0.0858673)
(8.4042e-07 -7.26049e-06 0.0769173)
(1.40794e-08 -1.56523e-05 0.0913982)
(1.21964e-07 4.16909e-06 0.078645)
(-1.75144e-07 6.33058e-06 0.0898748)
(-4.07431e-07 4.49907e-06 0.0768707)
(4.5994e-07 -7.18136e-06 0.0786852)
(-7.38619e-07 -1.51741e-05 0.0899238)
(3.42235e-06 -5.59845e-06 0.0716032)
(-5.91936e-06 -1.83757e-07 0.068472)
(6.52617e-06 -1.11726e-06 0.0858151)
(-1.13978e-05 -1.6471e-06 0.0822774)
(5.12081e-06 -1.24789e-06 0.0684113)
(-1.16485e-05 -1.72184e-06 0.0858706)
(-7.13825e-06 1.35849e-07 0.0769216)
(-1.56266e-05 -6.29893e-07 0.091403)
(6.45995e-06 -9.02926e-07 0.0898794)
(4.19865e-06 -5.07625e-07 0.0786491)
(4.59931e-06 -1.11538e-06 0.076875)
(-1.50616e-05 -1.47674e-06 0.0899283)
(-7.16827e-06 -1.68864e-07 0.0786893)
(-5.75183e-06 3.26021e-06 0.0716021)
(-3.1815e-06 -3.85919e-06 0.0836112)
(3.74951e-06 4.73033e-06 0.0683804)
(5.37662e-06 3.2051e-06 0.0683747)
(-2.47689e-06 -4.50904e-06 0.0683249)
(-3.84581e-06 -3.03004e-06 0.0683194)
(7.17553e-06 6.50034e-06 0.0836566)
(1.61651e-05 9.39168e-06 0.0917093)
(-1.21158e-05 -6.63351e-06 0.0962583)
(-4.11699e-06 -3.38521e-06 0.0815521)
(9.48372e-06 6.36396e-06 0.0875919)
(-8.4246e-06 -4.69833e-06 0.0916621)
(2.29165e-05 1.31341e-05 0.0963067)
(7.84031e-06 3.66413e-06 0.0816033)
(1.00146e-05 1.56891e-05 0.0917031)
(-6.13289e-06 -1.24378e-05 0.0962565)
(-2.73502e-06 -4.65683e-06 0.081549)
(7.10447e-06 9.0397e-06 0.0875908)
(-4.1302e-06 -8.89291e-06 0.0916562)
(1.36819e-05 2.25477e-05 0.0963047)
(4.35149e-06 7.31397e-06 0.0815994)
(7.19236e-06 6.54718e-06 0.0836505)
(-2.48166e-06 -4.49347e-06 0.0683194)
(-3.85785e-06 -3.01817e-06 0.0683139)
(-3.18303e-06 -3.82106e-06 0.083605)
(3.75804e-06 4.74585e-06 0.0683749)
(5.37597e-06 3.22668e-06 0.0683691)
(-8.44257e-06 -4.75057e-06 0.0916679)
(7.8174e-06 3.65183e-06 0.0816098)
(-4.06019e-06 -4.04826e-06 0.0875495)
(2.28196e-05 1.30583e-05 0.0963115)
(-1.21565e-05 -6.68345e-06 0.0962632)
(-4.1334e-06 -3.40008e-06 0.0815586)
(1.6106e-05 9.31355e-06 0.091715)
(-4.12926e-06 -8.95718e-06 0.091662)
(4.3604e-06 7.2563e-06 0.0816058)
(-3.31203e-06 -4.5031e-06 0.0875488)
(1.36617e-05 2.24451e-05 0.0963095)
(-6.14038e-06 -1.25165e-05 0.0962614)
(-2.71477e-06 -4.70065e-06 0.0815555)
(9.99068e-06 1.55826e-05 0.0917088)
(-2.95408e-06 -5.99765e-06 0.0715753)
(2.93705e-06 4.31917e-06 0.071528)
(-5.63648e-06 -3.64781e-06 0.0715762)
(4.64165e-06 2.26824e-06 0.0715294)
(3.75499e-06 3.10413e-06 0.0835891)
(-4.73967e-06 -3.8248e-06 0.0683605)
(-3.27482e-06 -5.39877e-06 0.0683548)
(4.4961e-06 2.46049e-06 0.0683042)
(3.00716e-06 3.85507e-06 0.0682988)
(-6.63925e-06 -7.31425e-06 0.0836354)
(-9.56678e-06 -1.64187e-05 0.0916891)
(6.42312e-06 1.18127e-05 0.0962406)
(-6.39936e-06 -9.67859e-06 0.087568)
(3.36566e-06 3.94652e-06 0.0815278)
(-3.63134e-06 -7.97267e-06 0.0815807)
(-1.3331e-05 -2.32374e-05 0.0962893)
(4.52534e-06 8.19825e-06 0.091641)
(-1.59734e-05 -1.01623e-05 0.0916835)
(1.20979e-05 5.95463e-06 0.0962397)
(-9.29599e-06 -7.12188e-06 0.0875677)
(4.49297e-06 2.73952e-06 0.0815251)
(-7.49129e-06 -4.30923e-06 0.081577)
(-2.29244e-05 -1.38507e-05 0.0962886)
(8.61723e-06 3.98339e-06 0.0916356)
(4.58255e-06 8.22257e-06 0.091647)
(-3.59946e-06 -7.93807e-06 0.0815875)
(3.99086e-06 3.86138e-06 0.0875246)
(-1.32628e-05 -2.31832e-05 0.0962943)
(3.37862e-06 3.95405e-06 0.0815346)
(-9.50199e-06 -1.6377e-05 0.0916951)
(6.49551e-06 1.18652e-05 0.0962456)
(8.69505e-06 3.98775e-06 0.0916416)
(-7.43931e-06 -4.31621e-06 0.0815837)
(4.30375e-06 3.2926e-06 0.0875254)
(-2.28198e-05 -1.38354e-05 0.0962935)
(4.54248e-06 2.72582e-06 0.0815319)
(-1.58801e-05 -1.01448e-05 0.0916895)
(1.2196e-05 5.9661e-06 0.0962446)
(-6.69153e-06 -7.327e-06 0.083629)
(4.47746e-06 2.45964e-06 0.0682983)
(2.98709e-06 3.86178e-06 0.0682929)
(-4.75919e-06 -3.82573e-06 0.0683547)
(-3.29339e-06 -5.39786e-06 0.068349)
(3.70597e-06 3.09724e-06 0.0835827)
(2.93998e-06 4.3368e-06 0.0715415)
(-2.94773e-06 -5.96765e-06 0.0715888)
(4.67189e-06 2.23284e-06 0.0715428)
(-5.58841e-06 -3.69005e-06 0.0715897)
(-6.58907e-06 -7.29259e-06 0.0836417)
(4.5075e-06 2.45864e-06 0.06831)
(3.01805e-06 3.84993e-06 0.0683046)
(3.7997e-06 3.11461e-06 0.0835955)
(-4.72268e-06 -3.81523e-06 0.0683662)
(-3.25968e-06 -5.39437e-06 0.0683606)
(4.69472e-06 8.27769e-06 0.0916589)
(-1.31156e-05 -2.30456e-05 0.0963041)
(4.05237e-06 3.9215e-06 0.0875382)
(-3.58402e-06 -7.9055e-06 0.0816007)
(3.40652e-06 3.99469e-06 0.081548)
(6.63908e-06 1.19643e-05 0.0962554)
(-9.37305e-06 -1.6284e-05 0.0917068)
(8.84246e-06 4.01883e-06 0.0916534)
(-2.26013e-05 -1.37829e-05 0.0963032)
(4.41473e-06 3.29202e-06 0.0875389)
(-7.34947e-06 -4.31892e-06 0.0815969)
(4.62508e-06 2.71095e-06 0.0815452)
(1.23859e-05 6.01051e-06 0.0962545)
(-1.57002e-05 -1.00928e-05 0.0917012)
(-9.44136e-06 -1.63344e-05 0.091701)
(3.39364e-06 3.972e-06 0.0815413)
(6.57425e-06 1.19216e-05 0.0962505)
(-6.32552e-06 -9.61071e-06 0.0875816)
(4.64399e-06 8.25258e-06 0.091653)
(-3.59374e-06 -7.9303e-06 0.0815942)
(-1.31816e-05 -2.31071e-05 0.0962992)
(-1.57922e-05 -1.01245e-05 0.0916954)
(4.58619e-06 2.71639e-06 0.0815386)
(1.23015e-05 5.99449e-06 0.0962496)
(-9.17162e-06 -7.12111e-06 0.0875813)
(8.77449e-06 4.00602e-06 0.0916475)
(-7.39034e-06 -4.31763e-06 0.0815904)
(-2.27003e-05 -1.38036e-05 0.0962984)
(3.83944e-06 3.12852e-06 0.0836018)
(-4.71652e-06 -3.81126e-06 0.0683719)
(-3.25475e-06 -5.39164e-06 0.0683662)
(4.51322e-06 2.45896e-06 0.0683157)
(3.02329e-06 3.84761e-06 0.0683103)
(-6.54843e-06 -7.27434e-06 0.0836479)
(9.3749e-07 4.55302e-06 0.0768496)
(1.31252e-07 -7.21183e-06 0.078664)
(1.20998e-06 -1.52934e-05 0.0899039)
(3.87585e-07 5.81785e-06 0.0913361)
(4.50174e-07 4.12825e-06 0.0786236)
(6.14142e-07 6.26675e-06 0.0898553)
(-2.90849e-07 -7.21083e-06 0.0768963)
(-7.7321e-08 -6.0108e-06 0.0684449)
(1.26692e-06 -1.16537e-05 0.0822459)
(8.11312e-07 6.27682e-06 0.0857836)
(1.39038e-06 -1.19294e-05 0.0858389)
(9.85349e-07 5.04597e-06 0.0683841)
(1.02958e-06 5.05994e-06 0.0683909)
(1.42361e-06 -1.18798e-05 0.0858462)
(-4.64732e-07 7.63979e-06 0.0822007)
(8.47132e-07 6.32557e-06 0.0857909)
(-3.56821e-08 -5.99078e-06 0.0684517)
(-3.21655e-07 -7.24456e-06 0.0768889)
(4.15626e-07 -1.58862e-05 0.0913728)
(4.23257e-07 4.11331e-06 0.0786161)
(5.82648e-07 6.22513e-06 0.0898484)
(1.08636e-07 -7.24394e-06 0.0786566)
(1.18125e-06 -1.5343e-05 0.0898971)
(9.02177e-07 4.52311e-06 0.0768422)
(8.32151e-07 -7.29808e-06 0.0769033)
(8.57927e-08 4.11721e-06 0.0786307)
(-2.39157e-07 6.24616e-06 0.0898614)
(-4.91324e-08 -1.57762e-05 0.0913855)
(-4.16465e-07 4.4717e-06 0.0768565)
(4.1968e-07 -7.22994e-06 0.078671)
(-8.07649e-07 -1.52912e-05 0.0899106)
(-5.25154e-07 4.9358e-06 0.0684025)
(8.78399e-07 7.50384e-06 0.0822156)
(-9.78963e-07 -1.19416e-05 0.0858603)
(5.26121e-07 -6.10079e-06 0.0684633)
(-3.68481e-07 6.2467e-06 0.0858047)
(5.22856e-07 -6.11108e-06 0.0684568)
(-3.93336e-07 6.21247e-06 0.0857975)
(-9.33826e-07 -1.18072e-05 0.0822594)
(-5.31694e-07 4.93088e-06 0.0683959)
(-1.00185e-06 -1.1979e-05 0.0858533)
(-4.05646e-07 4.50469e-06 0.0768637)
(2.87877e-09 5.8923e-06 0.0913488)
(4.32935e-07 -7.20341e-06 0.0786782)
(-7.76556e-07 -1.52535e-05 0.0899172)
(8.39167e-07 -7.26164e-06 0.0769104)
(9.83273e-08 4.13693e-06 0.0786379)
(-2.07602e-07 6.28482e-06 0.0898681)
(-2.55264e-07 -7.17065e-06 0.0769035)
(4.70582e-07 4.14737e-06 0.0786309)
(6.44228e-07 6.31491e-06 0.0898621)
(4.73526e-07 -1.5757e-05 0.0913857)
(9.74305e-07 4.56575e-06 0.076857)
(1.5316e-07 -7.17929e-06 0.0786712)
(1.23824e-06 -1.52244e-05 0.0899107)
(1.12104e-06 5.09301e-06 0.0684042)
(-3.84622e-07 7.73625e-06 0.0822153)
(1.49072e-06 -1.1764e-05 0.0858604)
(9.17097e-07 6.43152e-06 0.0858053)
(5.317e-08 -5.94972e-06 0.0684648)
(1.01875e-08 -5.96691e-06 0.0684583)
(8.81772e-07 6.3829e-06 0.0857982)
(1.3443e-06 -1.15391e-05 0.0822606)
(1.07536e-06 5.07837e-06 0.0683976)
(1.45845e-06 -1.18116e-05 0.0858533)
(1.01356e-06 4.57719e-06 0.0768642)
(4.49952e-07 5.91876e-06 0.0913491)
(1.78833e-07 -7.1705e-06 0.0786784)
(1.26697e-06 -1.51646e-05 0.0899174)
(4.93199e-07 4.17639e-06 0.0786382)
(6.77129e-07 6.36551e-06 0.0898689)
(-2.19817e-07 -7.14042e-06 0.0769106)
(-3.5011e-06 3.33628e-06 0.083588)
(5.05663e-06 -3.55091e-06 0.0683546)
(3.51461e-06 -5.10567e-06 0.0683599)