/*--------------------------------*- C++ -*----------------------------------*\
| =========                 |                                                 |
| \\      /  F ield         | OpenFOAM: The Open Source CFD Toolbox           |
|  \\    /   O peration     | Version:  2312                                  |
|   \\  /    A nd           | Website:  www.openfoam.com                      |
|    \\/     M anipulation  |                                                 |
\*---------------------------------------------------------------------------*/
FoamFile
{
    version     2.0;
    format      ascii;
    arch        "LSB;label=32;scalar=64";
    class       volScalarField;
    location    "100";
    object      epsilon;
}
// * * * * * * * * * * * * * * * * * * * * * * * * * * * * * * * * * * * * * //

dimensions      [0 2 -3 0 0 0 0];

internalField   nonuniform List<scalar> 
172512
(
1.21757e-07
2.20214e-07
2.20152e-07
3.37836e-07
3.37626e-07
2.20141e-07
2.2046e-07
3.37321e-07
2.20151e-07
2.20205e-07
2.20212e-07
2.19884e-07
3.37155e-07
2.20161e-07
2.19845e-07
3.36901e-07
3.38418e-07
2.20122e-07
2.20462e-07
3.38283e-07
2.20164e-07
2.20186e-07
2.19917e-07
3.38061e-07
2.19875e-07
8.76495e-06
3.44942e-06
8.766e-06
1.21748e-07
1.21811e-07
1.21785e-07
1.21725e-07
1.83197e-05
2.20136e-07
2.68602e-06
3.41706e-06
8.76471e-06
3.41733e-06
8.76495e-06
1.83217e-05
1.83261e-05
3.44885e-06
8.7652e-06
3.44971e-06
8.76549e-06
1.21806e-07
1.21788e-07
1.21726e-07
1.05924e-06
2.68573e-06
1.49018e-07
2.20214e-07
1.05995e-06
2.68549e-06
1.49026e-07
1.83179e-05
1.83205e-05
1.05819e-06
1.48942e-07
2.68775e-06
2.20171e-07
1.0592e-06
1.48938e-07
2.68694e-06
4.99271e-06
4.99554e-06
3.36877e-07
4.99238e-06
4.99396e-06
1.83153e-05
1.83188e-05
3.37609e-07
5.00082e-06
5.004e-06
1.83165e-05
1.83124e-05
1.83191e-05
1.83158e-05
3.38134e-07
5.00053e-06
5.00359e-06
5.00126e-06
5.00468e-06
2.20061e-07
2.68437e-06
3.41728e-06
8.76488e-06
8.76466e-06
3.4159e-06
3.4408e-06
8.7762e-06
8.7758e-06
3.44041e-06
1.04249e-06
2.2012e-07
2.68401e-06
1.48592e-07
2.68476e-06
1.48598e-07
1.04118e-06
1.05316e-06
2.20421e-07
2.68628e-06
1.48988e-07
2.6876e-06
1.48983e-07
1.0523e-06
1.83247e-05
1.8321e-05
3.38394e-07
5.00192e-06
5.00179e-06
5.00375e-06
1.83214e-05
1.05342e-06
2.20089e-07
2.68552e-06
1.48745e-07
3.45881e-06
8.77173e-06
1.05766e-06
2.20211e-07
1.48914e-07
2.68656e-06
3.45235e-06
8.76542e-06
8.76554e-06
3.44893e-06
1.0538e-06
2.20123e-07
2.68528e-06
1.48732e-07
2.68597e-06
1.48741e-07
1.05294e-06
3.46145e-06
8.77298e-06
8.77216e-06
3.45162e-06
1.05806e-06
2.20215e-07
1.48919e-07
2.68709e-06
1.48931e-07
2.68774e-06
1.05698e-06
2.6841e-06
1.49013e-07
1.05926e-06
8.77441e-06
3.46497e-06
1.48977e-07
2.6822e-06
1.05912e-06
8.76928e-06
3.46319e-06
3.37164e-07
5.00315e-06
5.00226e-06
1.83196e-05
1.8321e-05
1.83171e-05
3.38423e-07
5.00468e-06
5.00327e-06
5.00458e-06
5.00328e-06
1.83215e-05
1.83168e-05
8.77264e-06
1.05912e-06
2.20167e-07
1.48948e-07
2.68643e-06
1.4895e-07
2.68715e-06
1.05856e-06
1.05896e-06
2.1982e-07
1.48892e-07
2.68252e-06
1.48894e-07
2.68356e-06
1.05849e-06
3.4661e-06
8.77401e-06
8.77226e-06
3.46486e-06
3.4663e-06
8.76808e-06
8.76756e-06
3.46533e-06
3.3777e-07
4.9912e-06
4.99463e-06
4.99602e-06
1.82889e-05
1.82922e-05
1.82899e-05
1.83138e-05
1.83185e-05
1.83161e-05
1.832e-05
5.00148e-06
5.00421e-06
3.37569e-07
5.00147e-06
5.00358e-06
1.83159e-05
1.83172e-05
3.3856e-07
5.00295e-06
5.00456e-06
3.4372e-06
8.77595e-06
3.44127e-06
8.77537e-06
1.04077e-06
2.68493e-06
1.48578e-07
2.2014e-07
1.04139e-06
2.68436e-06
1.48566e-07
1.05212e-06
2.68719e-06
1.48988e-07
2.20457e-07
1.05259e-06
2.68651e-06
1.48986e-07
3.41849e-06
8.7648e-06
3.4383e-06
8.7744e-06
1.04132e-06
2.20162e-07
2.68565e-06
1.48552e-07
1.05255e-06
2.20463e-07
2.68776e-06
1.48985e-07
5.00253e-06
5.00286e-06
3.37092e-07
5.00223e-06
5.00263e-06
1.83188e-05
1.83235e-05
1.83233e-05
3.38154e-07
5.00378e-06
5.00358e-06
1.83208e-05
1.05268e-06
2.68611e-06
1.48731e-07
2.20175e-07
1.05333e-06
2.68536e-06
1.48727e-07
3.44732e-06
8.7728e-06
3.45306e-06
8.77207e-06
1.05608e-06
1.48915e-07
2.68824e-06
2.2018e-07
1.05733e-06
1.48906e-07
2.68736e-06
3.44963e-06
8.76545e-06
1.05308e-06
2.20183e-07
2.68657e-06
1.48723e-07
3.4437e-06
8.77165e-06
1.05635e-06
2.20175e-07
1.48901e-07
2.6884e-06
3.46392e-06
8.7746e-06
3.46564e-06
8.77535e-06
1.05866e-06
1.48987e-07
2.68331e-06
2.19932e-07
1.05952e-06
1.4899e-07
2.68246e-06
3.45822e-06
8.76924e-06
3.46361e-06
8.77014e-06
1.05963e-06
2.20216e-07
2.68697e-06
1.49028e-07
3.46409e-06
8.77535e-06
1.05891e-06
2.19939e-07
1.4899e-07
2.68353e-06
3.45046e-06
8.76943e-06
5.00559e-06
5.0047e-06
3.36924e-07
5.0039e-06
5.00495e-06
1.83191e-05
1.83237e-05
1.83173e-05
3.37739e-07
5.00444e-06
5.00542e-06
1.83204e-05
1.05834e-06
1.48885e-07
2.68356e-06
2.19902e-07
1.05896e-06
1.48887e-07
2.68241e-06
3.46159e-06
8.77402e-06
3.46543e-06
8.77447e-06
3.46317e-06
8.76739e-06
3.4661e-06
8.76724e-06
1.05849e-06
2.20144e-07
1.48928e-07
2.68803e-06
1.05868e-06
2.19922e-07
1.48887e-07
2.68337e-06
3.46156e-06
8.77425e-06
3.46285e-06
8.7663e-06
1.82865e-05
1.82908e-05
1.82889e-05
1.82904e-05
3.37885e-07
4.99312e-06
4.99468e-06
1.82879e-05
1.82867e-05
2.21499e-05
7.05599e-06
8.7648e-06
7.05722e-06
2.21551e-05
1.19615e-05
3.4541e-06
4.24991e-06
1.05981e-05
4.25043e-06
1.05979e-05
1.1962e-05
2.21502e-05
7.05723e-06
8.76599e-06
7.05891e-06
2.21549e-05
1.83163e-05
1.19507e-05
3.41772e-06
1.05704e-05
4.244e-06
1.05701e-05
4.24464e-06
1.19513e-05
2.21537e-05
7.05797e-06
8.7649e-06
2.21478e-05
7.05698e-06
1.1952e-05
3.41661e-06
1.05705e-05
4.24465e-06
1.19515e-05
1.05709e-05
4.24378e-06
2.21475e-05
7.05715e-06
8.76469e-06
7.05813e-06
2.21536e-05
1.83253e-05
1.83224e-05
1.19596e-05
3.44988e-06
4.2512e-06
1.05954e-05
4.25174e-06
1.0595e-05
1.19606e-05
2.21545e-05
7.05748e-06
8.76541e-06
2.21478e-05
7.05655e-06
1.19604e-05
3.44877e-06
4.25112e-06
1.05953e-05
1.19595e-05
4.25042e-06
1.05957e-05
2.21493e-05
7.05732e-06
8.76507e-06
7.05801e-06
2.21563e-05
1.83209e-05
1.83175e-05
9.58214e-06
2.17457e-05
2.17539e-05
2.17398e-05
2.17479e-05
9.58109e-06
3.76209e-06
1.80156e-06
8.85014e-06
4.99199e-06
3.76262e-06
1.80072e-06
8.85067e-06
3.77946e-06
1.80811e-06
8.86624e-06
4.99437e-06
3.78096e-06
1.80735e-06
8.86669e-06
9.58048e-06
2.17389e-05
2.17466e-05
9.58171e-06
2.17446e-05
2.17525e-05
3.76325e-06
8.85069e-06
4.99314e-06
1.80077e-06
1.80146e-06
8.85033e-06
3.76215e-06
3.78016e-06
8.86696e-06
4.99515e-06
1.80766e-06
1.80819e-06
8.86644e-06
3.77925e-06
1.83119e-05
1.83154e-05
9.58161e-06
2.17624e-05
2.1762e-05
2.1758e-05
2.17578e-05
9.57918e-06
3.77184e-06
8.86967e-06
5.00176e-06
1.80677e-06
8.86739e-06
3.77113e-06
1.80867e-06
3.78071e-06
8.87654e-06
5.00458e-06
1.80716e-06
8.87569e-06
3.77975e-06
1.8104e-06
1.83129e-05
1.83157e-05
1.8316e-05
1.83189e-05
9.57751e-06
2.17562e-05
2.17557e-05
9.57964e-06
2.17608e-05
2.17601e-05
3.77308e-06
1.80425e-06
5.00128e-06
8.87105e-06
8.8698e-06
1.80564e-06
3.77209e-06
3.78093e-06
1.80214e-06
5.00463e-06
8.87741e-06
8.87622e-06
1.80582e-06
3.77916e-06
3.77156e-06
8.86984e-06
1.80646e-06
5.00029e-06
3.77259e-06
8.86987e-06
1.80558e-06
3.7798e-06
8.87632e-06
1.80361e-06
5.00371e-06
3.78098e-06
8.87634e-06
1.8039e-06
9.57819e-06
2.17596e-05
2.17587e-05
2.17547e-05
2.1754e-05
9.57658e-06
1.19533e-05
1.0572e-05
4.24295e-06
3.41546e-06
1.19528e-05
1.0572e-05
4.24201e-06
2.21481e-05
8.76463e-06
7.05651e-06
2.21539e-05
7.0573e-06
2.21542e-05
7.05685e-06
8.7648e-06
2.21487e-05
7.0558e-06
1.19522e-05
3.41655e-06
1.05713e-05
4.24339e-06
1.19527e-05
1.05711e-05
4.24384e-06
1.20111e-05
1.05968e-05
4.27526e-06
3.43953e-06
1.2011e-05
1.05973e-05
4.2729e-06
2.22061e-05
8.77591e-06
7.06234e-06
7.06345e-06
2.22121e-05
2.22121e-05
7.0636e-06
8.77602e-06
2.22061e-05
7.06226e-06
1.20089e-05
3.44091e-06
1.05974e-05
4.2726e-06
1.05968e-05
4.27318e-06
1.20088e-05
1.83214e-05
1.83244e-05
3.77995e-06
1.80982e-06
5.00321e-06
8.87578e-06
1.81048e-06
8.87552e-06
3.77823e-06
3.76294e-06
1.79938e-06
5.00255e-06
8.86321e-06
8.86281e-06
1.80075e-06
3.76202e-06
1.811e-06
5.00236e-06
1.80971e-06
9.58003e-06
2.1756e-05
2.17526e-05
2.17507e-05
2.17468e-05
9.57868e-06
1.83176e-05
1.20106e-05
3.46405e-06
1.06083e-05
4.2874e-06
1.0608e-05
4.28913e-06
1.20112e-05
2.21882e-05
7.06456e-06
8.77119e-06
7.06538e-06
2.21943e-05
1.19613e-05
4.25089e-06
1.0597e-05
3.45029e-06
1.19607e-05
4.25036e-06
1.0597e-05
2.21472e-05
8.76527e-06
7.05624e-06
2.21533e-05
7.05736e-06
2.21532e-05
7.05775e-06
8.76557e-06
2.21479e-05
7.05626e-06
1.19599e-05
3.45019e-06
4.25009e-06
1.05961e-05
1.19605e-05
4.25112e-06
1.05959e-05
1.20101e-05
1.06075e-05
4.28757e-06
3.45743e-06
1.20098e-05
1.06073e-05
4.28305e-06
2.2188e-05
8.77265e-06
7.06506e-06
7.06625e-06
2.21939e-05
2.21943e-05
7.06602e-06
8.77267e-06
2.21884e-05
7.06512e-06
1.20077e-05
3.45681e-06
1.06057e-05
4.27417e-06
1.06059e-05
4.28365e-06
1.20074e-05
2.22005e-05
8.77425e-06
7.06179e-06
7.06311e-06
2.22073e-05
1.20155e-05
3.46596e-06
4.28216e-06
1.06135e-05
4.28426e-06
1.06129e-05
1.20161e-05
2.22032e-05
8.76929e-06
7.06189e-06
7.06294e-06
2.22094e-05
1.20127e-05
3.46456e-06
1.06131e-05
4.27734e-06
1.06128e-05
4.27943e-06
1.20128e-05
9.58203e-06
2.17466e-05
2.1747e-05
2.17415e-05
2.17419e-05
9.5809e-06
3.77681e-06
8.87008e-06
5.00381e-06
1.80309e-06
8.86963e-06
1.80344e-06
3.77597e-06
3.76424e-06
8.86424e-06
5.00296e-06
1.80606e-06
1.80677e-06
8.86387e-06
3.763e-06
1.83161e-05
1.83178e-05
1.83207e-05
9.57958e-06
2.17406e-05
2.17409e-05
9.58162e-06
2.17453e-05
2.17456e-05
3.7773e-06
1.79896e-06
5.00541e-06
8.8686e-06
1.8036e-06
8.8693e-06
3.77496e-06
3.76398e-06
1.80594e-06
5.00385e-06
8.86457e-06
8.86397e-06
1.80656e-06
3.76238e-06
3.77652e-06
8.86986e-06
1.80391e-06
5.00422e-06
1.80313e-06
3.77726e-06
8.8704e-06
3.76253e-06
8.86374e-06
1.80652e-06
5.00264e-06
3.76335e-06
8.86423e-06
1.80582e-06
9.58008e-06
2.17442e-05
2.17447e-05
2.17393e-05
2.17397e-05
9.57839e-06
1.83178e-05
1.83205e-05
8.77255e-06
1.20116e-05
4.28883e-06
1.06106e-05
3.46511e-06
1.20116e-05
4.28371e-06
1.06111e-05
2.21916e-05
8.77361e-06
7.06695e-06
7.06804e-06
2.21971e-05
2.21977e-05
7.06718e-06
8.77348e-06
2.21918e-05
7.06654e-06
1.20096e-05
3.46591e-06
4.28057e-06
1.06109e-05
4.28431e-06
1.06104e-05
1.20096e-05
1.20135e-05
4.29147e-06
1.06105e-05
3.46537e-06
1.20128e-05
4.28985e-06
1.06111e-05
2.21909e-05
8.76787e-06
7.06517e-06
7.06624e-06
2.21967e-05
2.2197e-05
7.06562e-06
8.768e-06
2.21908e-05
7.0649e-06
1.2012e-05
3.46634e-06
4.28712e-06
1.0611e-05
4.28982e-06
1.06104e-05
1.20124e-05
9.58065e-06
2.17436e-05
2.17505e-05
3.76216e-06
1.80083e-06
4.99169e-06
8.85036e-06
3.7609e-06
1.80151e-06
8.84987e-06
3.78183e-06
1.80728e-06
4.99553e-06
8.86648e-06
3.78011e-06
1.80782e-06
8.86584e-06
3.76064e-06
4.99033e-06
1.80081e-06
8.85015e-06
3.78066e-06
1.80754e-06
4.99478e-06
1.80698e-06
8.86594e-06
9.58156e-06
2.17439e-05
2.17514e-05
9.58041e-06
2.17383e-05
2.17456e-05
1.82852e-05
1.82878e-05
1.82893e-05
1.82926e-05
1.83175e-05
1.83148e-05
1.83194e-05
1.83167e-05
9.57813e-06
2.17594e-05
2.17577e-05
2.17538e-05
2.17524e-05
9.57724e-06
3.7726e-06
1.80411e-06
8.87093e-06
5.00083e-06
3.77353e-06
8.8713e-06
1.80314e-06
3.77848e-06
1.80471e-06
8.87726e-06
5.00325e-06
3.77999e-06
8.87784e-06
1.8032e-06
9.57661e-06
2.17539e-05
2.17529e-05
9.57769e-06
2.17592e-05
2.1758e-05
3.77378e-06
8.87253e-06
5.0021e-06
1.80263e-06
8.87036e-06
3.77284e-06
1.80372e-06
3.77916e-06
8.8781e-06
5.00444e-06
1.80188e-06
8.87756e-06
3.77817e-06
1.80323e-06
1.83195e-05
1.83205e-05
9.57793e-06
2.17543e-05
2.17523e-05
9.57889e-06
2.17599e-05
2.17576e-05
3.77289e-06
8.87268e-06
1.80304e-06
5.00249e-06
3.77421e-06
8.87319e-06
1.80178e-06
3.77891e-06
8.8778e-06
1.80581e-06
5.00379e-06
3.77966e-06
8.87833e-06
1.80612e-06
1.20057e-05
3.44147e-06
1.05969e-05
4.2698e-06
1.05966e-05
4.27007e-06
1.2006e-05
2.22112e-05
7.06318e-06
8.77611e-06
2.22058e-05
7.06184e-06
1.20073e-05
3.44057e-06
1.05968e-05
4.26911e-06
1.05973e-05
1.2007e-05
4.26884e-06
2.22041e-05
7.05964e-06
8.77536e-06
7.06245e-06
2.22082e-05
1.19512e-05
1.05699e-05
4.24461e-06
3.41788e-06
1.19502e-05
1.05703e-05
4.24421e-06
2.21543e-05
7.0585e-06
8.76513e-06
2.21478e-05
7.05787e-06
1.20042e-05
1.05959e-05
4.26777e-06
3.43648e-06
1.20041e-05
1.05962e-05
4.2661e-06
2.22036e-05
7.06007e-06
8.77431e-06
2.21999e-05
7.05754e-06
9.58038e-06
2.17562e-05
2.17536e-05
2.17508e-05
2.17479e-05
9.5793e-06
3.77769e-06
1.81005e-06
8.87522e-06
5.00174e-06
8.87564e-06
3.77901e-06
1.80937e-06
3.76318e-06
1.80006e-06
8.8638e-06
5.00216e-06
1.79811e-06
3.76382e-06
8.86441e-06
9.57892e-06
2.17505e-05
2.17472e-05
2.17561e-05
9.57997e-06
2.1753e-05
3.77836e-06
8.87552e-06
5.00294e-06
1.8094e-06
8.87521e-06
1.81012e-06
3.77666e-06
3.76452e-06
8.86516e-06
5.00345e-06
1.79601e-06
1.79815e-06
8.86424e-06
3.764e-06
1.83224e-05
1.83199e-05
1.83269e-05
9.57885e-06
2.17507e-05
2.17483e-05
9.58044e-06
2.17557e-05
2.17536e-05
3.77599e-06
8.87437e-06
1.80951e-06
5.00343e-06
1.80777e-06
3.77738e-06
8.87404e-06
3.76525e-06
8.86486e-06
1.79659e-06
5.00275e-06
3.76584e-06
8.86611e-06
1.79232e-06
1.83244e-05
1.20016e-05
3.45155e-06
1.06035e-05
4.27037e-06
1.06036e-05
4.27192e-06
1.20013e-05
2.21931e-05
7.06613e-06
8.77291e-06
2.21877e-05
7.06391e-06
1.20042e-05
3.45118e-06
1.06046e-05
4.27329e-06
1.06044e-05
1.20044e-05
4.27145e-06
2.21855e-05
7.06169e-06
8.77207e-06
7.06438e-06
2.21899e-05
1.19609e-05
4.25183e-06
1.05948e-05
3.4481e-06
1.19598e-05
4.25131e-06
1.05952e-05
2.21584e-05
7.05891e-06
8.76566e-06
2.21513e-05
7.05848e-06
1.19991e-05
1.06025e-05
4.27062e-06
3.43634e-06
1.19991e-05
1.06022e-05
4.26884e-06
2.21873e-05
7.06181e-06
8.77167e-06
2.21824e-05
7.06e-06
1.20132e-05
3.46534e-06
4.27961e-06
1.0613e-05
4.28112e-06
1.06126e-05
1.20139e-05
2.22079e-05
7.06305e-06
8.77491e-06
7.06169e-06
2.22013e-05
1.20149e-05
3.46457e-06
4.28273e-06
1.06128e-05
4.28085e-06
1.20146e-05
1.06133e-05
2.22018e-05
7.06159e-06
8.77485e-06
7.06301e-06
2.22083e-05
1.20097e-05
3.4611e-06
1.06121e-05
4.27245e-06
1.06119e-05
4.27582e-06
1.20099e-05
2.22094e-05
7.06307e-06
8.76996e-06
2.22035e-05
7.06192e-06
1.20113e-05
3.45898e-06
1.06124e-05
4.27714e-06
1.2011e-05
1.06127e-05
4.27559e-06
2.22029e-05
7.06098e-06
8.76988e-06
7.06276e-06
2.22081e-05
1.20129e-05
4.28014e-06
1.06122e-05
3.46218e-06
1.20124e-05
4.27859e-06
1.06124e-05
2.22089e-05
7.06294e-06
8.7757e-06
2.22023e-05
7.06166e-06
1.20077e-05
1.0611e-05
4.26884e-06
3.44862e-06
1.20078e-05
1.06108e-05
4.26407e-06
2.22041e-05
7.0611e-06
8.76956e-06
2.22003e-05
7.05851e-06
9.57997e-06
2.17436e-05
2.17443e-05
2.17385e-05
2.17392e-05
9.5783e-06
3.77419e-06
1.7984e-06
8.86767e-06
5.00451e-06
8.86795e-06
3.77581e-06
1.79412e-06
3.76341e-06
1.80652e-06
8.86444e-06
5.0043e-06
1.80593e-06
3.76406e-06
8.86512e-06
9.57883e-06
2.17388e-05
2.17394e-05
2.17441e-05
9.57997e-06
2.17448e-05
3.77471e-06
8.86784e-06
5.005e-06
1.79683e-06
8.86746e-06
1.79697e-06
3.77325e-06
3.76464e-06
8.86564e-06
5.00584e-06
1.80617e-06
1.80676e-06
8.86504e-06
3.76393e-06
1.83228e-05
1.83203e-05
1.83204e-05
9.57817e-06
2.17381e-05
2.17388e-05
9.57962e-06
2.17433e-05
2.1744e-05
3.77278e-06
8.86737e-06
1.79327e-06
5.00229e-06
1.7927e-06
3.77409e-06
8.86779e-06
3.76414e-06
8.8652e-06
1.80669e-06
5.00395e-06
3.76526e-06
8.86545e-06
1.80604e-06
1.83231e-05
1.20064e-05
3.46448e-06
4.27492e-06
1.061e-05
4.27748e-06
1.06098e-05
1.20062e-05
2.21964e-05
7.06827e-06
8.77434e-06
7.06727e-06
2.21908e-05
1.20081e-05
3.46391e-06
4.27634e-06
1.06102e-05
4.27659e-06
1.20077e-05
1.06105e-05
2.219e-05
7.06755e-06
8.77422e-06
7.06862e-06
2.21954e-05
1.20095e-05
3.46538e-06
4.28229e-06
1.06101e-05
4.28573e-06
1.06099e-05
1.20097e-05
2.21955e-05
7.06614e-06
8.76771e-06
2.21901e-05
7.06484e-06
1.20111e-05
3.46474e-06
4.28684e-06
1.06103e-05
1.20107e-05
4.28535e-06
1.06107e-05
2.21888e-05
7.06464e-06
8.76721e-06
7.06589e-06
2.21942e-05
1.20035e-05
4.27442e-06
1.06089e-05
3.45874e-06
1.20037e-05
4.27268e-06
1.06091e-05
2.21941e-05
7.06867e-06
8.77442e-06
2.21888e-05
7.06739e-06
1.20068e-05
4.27653e-06
1.0609e-05
3.4575e-06
1.20072e-05
4.27395e-06
1.06092e-05
2.21918e-05
7.06564e-06
8.76626e-06
2.21874e-05
7.06376e-06
1.829e-05
1.82873e-05
1.82916e-05
1.8288e-05
9.58196e-06
2.17409e-05
2.17493e-05
9.58287e-06
2.17468e-05
2.17552e-05
3.7613e-06
8.85004e-06
1.80118e-06
4.9925e-06
3.76281e-06
1.80047e-06
8.8504e-06
3.78037e-06
8.86681e-06
1.80829e-06
4.99374e-06
3.78097e-06
1.80779e-06
8.86744e-06
1.82916e-05
1.82892e-05
1.21737e-07
1.04331e-07
1.04337e-07
1.04332e-07
1.21761e-07
1.04333e-07
1.04329e-07
9.65037e-08
9.65032e-08
1.59481e-06
7.08174e-07
7.09542e-07
3.36883e-07
1.59571e-06
7.07034e-07
7.08468e-07
1.601e-06
3.38457e-07
7.09724e-07
7.10024e-07
7.1057e-07
7.10867e-07
1.59988e-06
1.59677e-06
3.38488e-07
7.09435e-07
7.07879e-07
7.10356e-07
7.08827e-07
1.59543e-06
1.59492e-06
3.38207e-07
7.07923e-07
7.08397e-07
7.09068e-07
7.09415e-07
1.59276e-06
1.59601e-06
3.37803e-07
7.07166e-07
7.08456e-07
1.59443e-06
7.08136e-07
7.09358e-07
1.60023e-06
7.10454e-07
7.10811e-07
3.37503e-07
1.60117e-06
7.09612e-07
7.09997e-07
1.59548e-06
7.10094e-07
7.08535e-07
3.37174e-07
7.07584e-07
1.59656e-06
7.09175e-07
1.59291e-06
7.08562e-07
7.09164e-07
3.37035e-07
7.08147e-07
1.59394e-06
7.07342e-07
1.2178e-07
1.04376e-07
1.21741e-07
1.0434e-07
1.04331e-07
1.04341e-07
1.04332e-07
9.65025e-08
9.65006e-08
1.21794e-07
1.04355e-07
1.04363e-07
1.04346e-07
1.04363e-07
9.64879e-08
9.64974e-08
1.21781e-07
1.04345e-07
1.04356e-07
1.0433e-07
1.04357e-07
9.65065e-08
9.65039e-08
1.21721e-07
1.04357e-07
1.0435e-07
1.04358e-07
1.04346e-07
9.64772e-08
9.65015e-08
2.68705e-06
9.48116e-07
9.49091e-07
1.04357e-07
1.04355e-07
1.21808e-07
1.04359e-07
1.04358e-07
9.65018e-08
9.6501e-08
1.0433e-07
1.04349e-07
1.21784e-07
1.04335e-07
1.04345e-07
9.64989e-08
9.64953e-08
1.04356e-07
1.04356e-07
1.21727e-07
1.04352e-07
1.0434e-07
9.65013e-08
9.65026e-08
1.21768e-07
1.04334e-07
1.04328e-07
9.65011e-08
1.21811e-07
1.0436e-07
1.04361e-07
9.65024e-08
1.2178e-07
1.04338e-07
1.04343e-07
9.65062e-08
1.21728e-07
1.04352e-07
1.04333e-07
9.65012e-08
4.47378e-07
1.05986e-06
1.35495e-06
3.66252e-07
1.35579e-06
3.66847e-07
4.46269e-07
6.22858e-07
9.46478e-07
1.96232e-06
2.68476e-06
6.24068e-07
9.4549e-07
1.96154e-06
4.4623e-07
1.05917e-06
1.35607e-06
3.6688e-07
4.47209e-07
1.35501e-06
3.6625e-07
6.24083e-07
1.96253e-06
2.68631e-06
9.45988e-07
9.46777e-07
1.96318e-06
6.22853e-07
4.45297e-07
1.05893e-06
3.65773e-07
1.35086e-06
3.6638e-07
1.35272e-06
4.44286e-07
6.22273e-07
9.49187e-07
1.96462e-06
2.68662e-06
6.23409e-07
9.48043e-07
1.96348e-06
4.43955e-07
1.05832e-06
3.66465e-07
1.35402e-06
4.44861e-07
3.65802e-07
1.35245e-06
6.23372e-07
1.96363e-06
2.68795e-06
9.48158e-07
9.4913e-07
1.96461e-06
6.21934e-07
1.59553e-06
3.37803e-07
7.0709e-07
7.08672e-07
7.08049e-07
7.09562e-07
1.59467e-06
1.59998e-06
3.38703e-07
7.09677e-07
7.09983e-07
1.59915e-06
7.1047e-07
7.108e-07
1.59966e-06
3.37076e-07
7.10213e-07
7.1051e-07
1.60052e-06
7.09427e-07
7.09685e-07
6.22062e-07
1.95532e-06
2.68547e-06
9.47817e-07
1.95901e-06
9.48727e-07
6.209e-07
4.40202e-07
1.32983e-06
3.62992e-07
1.04124e-06
4.41278e-07
1.3284e-06
3.62189e-07
6.22057e-07
9.47579e-07
2.68502e-06
1.9552e-06
9.48499e-07
1.95581e-06
6.20754e-07
6.2087e-07
1.95332e-06
9.48205e-07
2.68371e-06
9.47354e-07
6.22038e-07
1.95409e-06
4.41124e-07
1.04183e-06
1.32835e-06
3.62134e-07
1.32924e-06
3.62759e-07
4.3999e-07
4.46533e-07
1.35512e-06
3.6555e-07
1.05203e-06
4.47564e-07
1.35359e-06
3.64777e-07
6.24995e-07
9.49153e-07
2.68735e-06
1.9642e-06
1.9651e-06
9.50069e-07
6.23683e-07
6.23701e-07
1.96545e-06
9.50393e-07
2.686e-06
6.24931e-07
1.9639e-06
9.48923e-07
4.47507e-07
1.0528e-06
1.35352e-06
3.64822e-07
1.35427e-06
3.65374e-07
4.46433e-07
3.37265e-07
7.10733e-07
7.09292e-07
4.44257e-07
1.0541e-06
1.34141e-06
3.6451e-07
1.34226e-06
3.6512e-07
4.43129e-07
6.22721e-07
1.96022e-06
2.68655e-06
9.4835e-07
1.96134e-06
9.49272e-07
6.21518e-07
4.47223e-07
1.05831e-06
3.65547e-07
1.35484e-06
3.66151e-07
1.35567e-06
4.46104e-07
6.23838e-07
1.96337e-06
2.68758e-06
9.48267e-07
1.96433e-06
6.22717e-07
9.49311e-07
4.4135e-07
1.34199e-06
3.65231e-07
1.05307e-06
4.44045e-07
1.34108e-06
3.64501e-07
6.22595e-07
9.48068e-07
2.68628e-06
1.95997e-06
9.48987e-07
1.9609e-06
6.20924e-07
6.21339e-07
1.96098e-06
9.48717e-07
2.68498e-06
9.47823e-07
6.22938e-07
1.95987e-06
4.40313e-07
1.05362e-06
1.34085e-06
3.64434e-07
1.34177e-06
3.65074e-07
4.39374e-07
4.44348e-07
3.66248e-07
1.35541e-06
1.05727e-06
4.47024e-07
3.65546e-07
1.35446e-06
6.23748e-07
9.47922e-07
2.68809e-06
1.9635e-06
1.96447e-06
9.49025e-07
6.22061e-07
6.22633e-07
1.96431e-06
9.49109e-07
2.68675e-06
6.23889e-07
1.96335e-06
9.4804e-07
4.4329e-07
1.05776e-06
3.65492e-07
1.35383e-06
3.66131e-07
1.35502e-06
4.42359e-07
6.24164e-07
9.45212e-07
2.68469e-06
1.9603e-06
6.22872e-07
9.46021e-07
1.96099e-06
4.47509e-07
1.05984e-06
1.35532e-06
3.66267e-07
4.46082e-07
1.35618e-06
3.66838e-07
6.2317e-07
9.45252e-07
2.68325e-06
1.9629e-06
1.96391e-06
9.46249e-07
6.21944e-07
4.47361e-07
1.05977e-06
3.66253e-07
1.35103e-06
3.66814e-07
1.35555e-06
4.45896e-07
1.59602e-06
3.38342e-07
7.0857e-07
7.08706e-07
7.09715e-07
7.09648e-07
1.59466e-06
1.59385e-06
3.37117e-07
7.09315e-07
7.09497e-07
7.08186e-07
1.59503e-06
7.08452e-07
4.45977e-07
3.66498e-07
1.35541e-06
1.0585e-06
4.46992e-07
3.65891e-07
1.35442e-06
6.23568e-07
9.48109e-07
2.68745e-06
1.96347e-06
6.22264e-07
9.49082e-07
1.96441e-06
6.22258e-07
1.96418e-06
9.4898e-07
2.68614e-06
6.23811e-07
9.48005e-07
1.96325e-06
4.44919e-07
1.05917e-06
3.65864e-07
1.35381e-06
4.4359e-07
3.66497e-07
1.35503e-06
4.4562e-07
3.66383e-07
1.3551e-06
1.05837e-06
4.46633e-07
3.65812e-07
1.35428e-06
6.2248e-07
9.46375e-07
2.68364e-06
1.96179e-06
1.96276e-06
9.47304e-07
6.2123e-07
6.21186e-07
1.96258e-06
9.4712e-07
2.68244e-06
6.228e-07
1.96161e-06
9.46186e-07
4.44551e-07
1.05907e-06
3.65802e-07
1.35415e-06
3.66385e-07
1.35505e-06
4.43295e-07
1.59478e-06
3.36861e-07
7.09205e-07
7.07141e-07
7.08286e-07
1.60122e-06
3.38568e-07
7.09864e-07
7.10291e-07
1.60028e-06
7.10728e-07
7.11149e-07
1.60059e-06
3.37667e-07
7.10876e-07
7.11354e-07
1.60155e-06
7.09982e-07
7.1048e-07
4.40867e-07
1.04136e-06
1.32765e-06
3.61861e-07
1.32847e-06
3.62462e-07
4.39715e-07
6.20707e-07
9.48284e-07
1.95622e-06
2.68397e-06
1.95552e-06
6.21929e-07
9.47389e-07
4.39885e-07
1.0407e-06
1.32874e-06
3.62595e-07
1.32769e-06
4.40973e-07
3.61892e-07
6.21883e-07
1.95629e-06
2.68533e-06
9.4763e-07
1.95701e-06
9.48537e-07
6.20601e-07
4.47459e-07
1.05274e-06
1.34943e-06
3.64701e-07
1.35004e-06
3.65278e-07
4.46297e-07
6.23706e-07
9.49849e-07
1.96486e-06
2.68616e-06
6.24884e-07
1.96391e-06
9.4895e-07
4.46411e-07
1.05201e-06
1.34912e-06
3.65303e-07
4.4747e-07
1.34866e-06
3.64681e-07
6.24797e-07
1.96408e-06
2.68753e-06
9.49191e-07
1.96505e-06
6.23671e-07
9.50112e-07
4.39691e-07
1.32853e-06
3.62394e-07
1.04075e-06
4.40722e-07
1.32798e-06
3.61784e-07
6.20643e-07
1.95775e-06
9.48681e-07
2.68467e-06
9.47756e-07
6.21892e-07
1.95698e-06
4.46223e-07
1.34991e-06
3.6525e-07
1.05185e-06
4.47305e-07
1.34908e-06
3.64682e-07
6.23668e-07
1.96501e-06
9.50133e-07
2.68675e-06
6.24844e-07
1.96398e-06
9.49131e-07
1.59634e-06
3.38253e-07
7.09307e-07
7.07631e-07
7.08609e-07
7.10245e-07
1.59525e-06
1.59532e-06
3.37201e-07
7.10156e-07
7.08567e-07
7.09132e-07
1.59639e-06
7.07567e-07
4.41821e-07
1.05331e-06
1.34059e-06
3.64294e-07
1.34135e-06
3.64893e-07
4.4092e-07
6.20903e-07
9.48805e-07
1.95674e-06
2.68509e-06
1.95601e-06
6.22048e-07
9.47933e-07
4.40162e-07
1.05266e-06
1.34139e-06
3.65004e-07
1.34053e-06
4.40938e-07
3.64324e-07
6.21977e-07
1.95706e-06
2.68636e-06
9.48203e-07
1.95768e-06
9.49102e-07
6.20697e-07
4.44728e-07
1.05696e-06
3.6532e-07
1.35021e-06
3.65964e-07
1.353e-06
4.43801e-07
6.2203e-07
9.48639e-07
1.9644e-06
2.68719e-06
6.23236e-07
1.96338e-06
9.47487e-07
4.43137e-07
1.05647e-06
3.66078e-07
1.35422e-06
4.43928e-07
3.65367e-07
1.35275e-06
6.23188e-07
1.96325e-06
2.68843e-06
9.47287e-07
1.96438e-06
6.21826e-07
9.48401e-07
4.41496e-07
1.3412e-06
3.64822e-07
1.05242e-06
4.4236e-07
1.34048e-06
3.64237e-07
6.20852e-07
1.95861e-06
9.49293e-07
2.68557e-06
9.48391e-07
6.22016e-07
1.95797e-06
4.44156e-07
3.65916e-07
1.34979e-06
1.0552e-06
4.45079e-07
3.65218e-07
1.34798e-06
6.21902e-07
1.96396e-06
9.47978e-07
2.68732e-06
6.23105e-07
1.96282e-06
9.46862e-07
4.47021e-07
1.0594e-06
3.66234e-07
1.3458e-06
3.66802e-07
1.34589e-06
4.45835e-07
6.21942e-07
9.46101e-07
1.9638e-06
2.68226e-06
9.4512e-07
6.23082e-07
1.96277e-06
4.45958e-07
1.05882e-06
3.66777e-07
1.34752e-06
3.66218e-07
4.4696e-07
1.34867e-06
6.22924e-07
1.96278e-06
2.68352e-06
9.45191e-07
9.46179e-07
1.96384e-06
6.21812e-07
4.46391e-07
1.3555e-06
3.6683e-07
1.05895e-06
4.47385e-07
1.35464e-06
3.66204e-07
6.23005e-07
1.96417e-06
9.47176e-07
2.68608e-06
6.24203e-07
9.46359e-07
1.96346e-06
4.45773e-07
3.66733e-07
1.34224e-06
1.05771e-06
4.46844e-07
3.66148e-07
1.34209e-06
6.21876e-07
1.96357e-06
9.46038e-07
2.68246e-06
6.22996e-07
1.96244e-06
9.45062e-07
1.59358e-06
3.37906e-07
7.07016e-07
7.08098e-07
7.09113e-07
7.08159e-07
1.59256e-06
1.59269e-06
3.36752e-07
7.07651e-07
7.08862e-07
7.06496e-07
1.59372e-06
7.07856e-07
4.4522e-07
1.05901e-06
3.6574e-07
1.3536e-06
3.66312e-07
1.35455e-06
4.44255e-07
6.21231e-07
9.47312e-07
1.96272e-06
2.68241e-06
9.4639e-07
6.22366e-07
1.96172e-06
4.43757e-07
1.05833e-06
3.66318e-07
1.35467e-06
3.65738e-07
4.44633e-07
1.35378e-06
6.2225e-07
1.96184e-06
2.68358e-06
9.46588e-07
9.47517e-07
1.96283e-06
6.21112e-07
4.4452e-07
3.66337e-07
1.35107e-06
1.05768e-06
4.45483e-07
3.65688e-07
1.34939e-06
6.22146e-07
1.96447e-06
9.49021e-07
2.68695e-06
6.23306e-07
9.48053e-07
1.96345e-06
4.44662e-07
3.66254e-07
1.35406e-06
1.05795e-06
4.45593e-07
3.65686e-07
1.3527e-06
6.21216e-07
1.96272e-06
9.47501e-07
2.68219e-06
6.22331e-07
1.9617e-06
9.46576e-07
1.59511e-06
3.36753e-07
7.07899e-07
7.09562e-07
1.59599e-06
7.0695e-07
7.08681e-07
1.21771e-07
2.20252e-07
2.20132e-07
3.37922e-07
1.21776e-07
2.20317e-07
2.20072e-07
3.3799e-07
1.21768e-07
2.20341e-07
2.20018e-07
3.38066e-07
1.21754e-07
2.20317e-07
2.19986e-07
3.38128e-07
1.2174e-07
2.20234e-07
2.19941e-07
3.37993e-07
1.21723e-07
2.20037e-07
2.19855e-07
3.37626e-07
1.21707e-07
2.19815e-07
2.19731e-07
3.37308e-07
1.21687e-07
2.19655e-07
2.19641e-07
3.36741e-07
1.21667e-07
2.19522e-07
2.19576e-07
3.3669e-07
1.21645e-07
2.19439e-07
2.19537e-07
3.36539e-07
1.2164e-07
2.19391e-07
2.19512e-07
3.36295e-07
1.21633e-07
2.19391e-07
2.19442e-07
3.3614e-07
1.21629e-07
2.19396e-07
2.19383e-07
3.36269e-07
1.21626e-07
2.19401e-07
2.19309e-07
3.36078e-07
1.21618e-07
2.19387e-07
2.19248e-07
3.36152e-07
1.21611e-07
2.19377e-07
2.1922e-07
3.36071e-07
1.21602e-07
2.1936e-07
2.19197e-07
3.36497e-07
1.21589e-07
2.19323e-07
2.19132e-07
3.36486e-07
1.21461e-07
2.18605e-07
2.18431e-07
3.33627e-07
1.27668e-07
1.9848e-07
1.98333e-07
3.0619e-07
3.3778e-07
2.20175e-07
2.20462e-07
3.37227e-07
2.20192e-07
2.20145e-07
2.20233e-07
2.19939e-07
3.36607e-07
2.20138e-07
2.1995e-07
3.36839e-07
3.38692e-07
3.38e-07
2.20218e-07
2.2047e-07
2.20289e-07
2.20471e-07
3.38141e-07
3.37187e-07
2.20216e-07
2.20132e-07
2.20232e-07
2.20051e-07
2.19942e-07
2.20303e-07
2.19952e-07
3.37641e-07
3.36332e-07
2.19984e-07
2.20087e-07
2.20043e-07
3.37042e-07
3.38927e-07
3.37706e-07
2.20274e-07
2.20406e-07
2.2027e-07
2.20413e-07
3.38091e-07
3.37178e-07
2.20226e-07
2.19998e-07
2.20165e-07
2.19866e-07
2.19952e-07
2.20338e-07
2.19985e-07
3.37469e-07
3.36166e-07
2.19995e-07
2.20031e-07
2.19967e-07
3.37121e-07
3.38551e-07
3.37128e-07
2.20267e-07
2.20415e-07
2.20237e-07
2.20405e-07
3.3807e-07
3.37121e-07
2.20106e-07
2.19805e-07
2.20003e-07
2.19742e-07
2.20006e-07
2.2032e-07
2.20072e-07
3.37029e-07
3.36019e-07
2.19954e-07
2.19986e-07
2.19882e-07
3.37199e-07
3.3808e-07
3.364e-07
2.2018e-07
2.20382e-07
2.20145e-07
2.20298e-07
3.37977e-07
3.36885e-07
2.19928e-07
2.19681e-07
2.19801e-07
2.19578e-07
2.20054e-07
2.20268e-07
2.20071e-07
3.36923e-07
3.35789e-07
2.19855e-07
2.19952e-07
2.19805e-07
3.37082e-07
3.37597e-07
3.35768e-07
2.20096e-07
2.20262e-07
2.20059e-07
2.20084e-07
3.37838e-07
3.3611e-07
2.1976e-07
2.19537e-07
2.19602e-07
2.19343e-07
2.20067e-07
2.20082e-07
2.19994e-07
3.36744e-07
3.35269e-07
2.1975e-07
2.19876e-07
2.19754e-07
3.36756e-07
3.3696e-07
3.35267e-07
2.20026e-07
2.20028e-07
2.19925e-07
2.19823e-07
3.37265e-07
3.3555e-07
2.1953e-07
2.19275e-07
2.19426e-07
2.19136e-07
2.19945e-07
2.19853e-07
2.19776e-07
3.3645e-07
3.35207e-07
2.19698e-07
2.19737e-07
2.19678e-07
3.36153e-07
3.36482e-07
3.35004e-07
2.19887e-07
2.19728e-07
2.19742e-07
2.19558e-07
3.36556e-07
3.35108e-07
2.19378e-07
2.19066e-07
2.19367e-07
2.19051e-07
2.19685e-07
2.19683e-07
2.19523e-07
3.3616e-07
3.35178e-07
2.19663e-07
2.19649e-07
2.19607e-07
3.35853e-07
3.36244e-07
3.34928e-07
2.19701e-07
2.19513e-07
2.19522e-07
2.19369e-07
3.35955e-07
3.3458e-07
2.19317e-07
2.19047e-07
2.1932e-07
2.19099e-07
2.19459e-07
2.19546e-07
2.19329e-07
3.36353e-07
3.35257e-07
2.19549e-07
2.19591e-07
2.19513e-07
3.35511e-07
3.35792e-07
3.34592e-07
2.19449e-07
2.19281e-07
2.19324e-07
2.19175e-07
3.35673e-07
3.34464e-07
2.19275e-07
2.19094e-07
2.19268e-07
2.19158e-07
2.19309e-07
2.19454e-07
2.19243e-07
3.36548e-07
3.35571e-07
2.19484e-07
2.19536e-07
2.19466e-07
3.35387e-07
3.35832e-07
3.34833e-07
2.19265e-07
2.19092e-07
2.19224e-07
2.19071e-07
3.35382e-07
3.34433e-07
2.1926e-07
2.19155e-07
2.19289e-07
2.19251e-07
2.19232e-07
2.19391e-07
2.19205e-07
3.36552e-07
3.35471e-07
2.19392e-07
2.19523e-07
2.19401e-07
3.35379e-07
3.35747e-07
3.34839e-07
2.19199e-07
2.1908e-07
2.19224e-07
2.19156e-07
3.35342e-07
3.34486e-07
2.19294e-07
2.19218e-07
2.19295e-07
2.19287e-07
2.19161e-07
2.19389e-07
2.19182e-07
3.36614e-07
3.35474e-07
2.19383e-07
2.19447e-07
2.19393e-07
3.35225e-07
3.35761e-07
3.34721e-07
2.192e-07
2.19144e-07
2.19193e-07
2.19232e-07
3.35705e-07
3.34841e-07
2.19279e-07
2.19294e-07
2.19295e-07
2.1933e-07
2.19193e-07
2.19388e-07
2.19264e-07
3.36436e-07
3.35194e-07
2.19384e-07
2.19401e-07
2.19377e-07
3.35083e-07
3.35959e-07
3.34933e-07
2.19198e-07
2.19236e-07
2.19216e-07