/*--------------------------------*- C++ -*----------------------------------*\
| =========                 |                                                 |
| \\      /  F ield         | OpenFOAM: The Open Source CFD Toolbox           |
|  \\    /   O peration     | Version:  2312                                  |
|   \\  /    A nd           | Website:  www.openfoam.com                      |
|    \\/     M anipulation  |                                                 |
\*---------------------------------------------------------------------------*/
FoamFile
{
    version     2.0;
    format      ascii;
    arch        "LSB;label=32;scalar=64";
    class       volScalarField;
    location    "100";
    object      nut;
}
// * * * * * * * * * * * * * * * * * * * * * * * * * * * * * * * * * * * * * //

dimensions      [0 2 -1 0 0 0 0];

internalField   nonuniform List<scalar> 
172512
(
0.000147327
0.00010096
0.000100967
8.26806e-05
8.26903e-05
0.000100911
0.000100893
8.27479e-05
0.000100936
0.000100916
0.000100956
0.000100957
8.23697e-05
0.000100964
0.000100957
8.27431e-05
8.27055e-05
0.000100935
0.000100897
8.26422e-05
0.000100945
0.000100917
0.000100948
8.23591e-05
0.000100958
4.93137e-05
6.61115e-05
4.93106e-05
0.000147335
0.000147275
0.000147298
0.000147279
2.35515e-05
0.000100977
6.44057e-05
6.4842e-05
4.9313e-05
6.49792e-05
4.93137e-05
2.35534e-05
2.35547e-05
6.58194e-05
4.93075e-05
6.55414e-05
4.93074e-05
0.000147284
0.000147283
0.000147292
6.54579e-05
6.45034e-05
0.000124361
0.000100965
6.54558e-05
6.452e-05
0.000124368
2.3551e-05
2.35519e-05
6.53585e-05
0.000124392
6.4404e-05
0.00010095
6.53967e-05
0.000124396
6.44199e-05
5.93829e-05
5.93937e-05
8.27997e-05
5.94185e-05
5.94152e-05
2.35544e-05
2.35523e-05
8.26128e-05
5.96093e-05
5.95596e-05
2.35546e-05
2.35531e-05
2.35528e-05
2.35511e-05
8.26568e-05
5.96169e-05
5.958e-05
5.96124e-05
5.96179e-05
0.000100921
6.43738e-05
6.49247e-05
4.93131e-05
4.9313e-05
6.49692e-05
6.5495e-05
4.9326e-05
4.93252e-05
6.55897e-05
6.46119e-05
0.000100907
6.43928e-05
0.000124429
6.43806e-05
0.000124426
6.46166e-05
6.51165e-05
0.000100904
6.44262e-05
0.00012435
6.44092e-05
0.000124352
6.51405e-05
2.3555e-05
2.35535e-05
8.2576e-05
5.95833e-05
5.95945e-05
5.95962e-05
2.35549e-05
6.52119e-05
0.000100939
6.43973e-05
0.000124402
6.6386e-05
4.93148e-05
6.53529e-05
0.000100922
0.000124333
6.44e-05
6.58227e-05
4.93081e-05
4.93097e-05
6.55979e-05
6.5209e-05
0.000100937
6.44131e-05
0.000124435
6.44037e-05
0.000124434
6.51704e-05
6.61034e-05
4.93176e-05
4.93094e-05
6.59295e-05
6.53501e-05
0.000100919
0.000124364
6.44043e-05
0.000124341
6.43934e-05
6.53082e-05
6.45095e-05
0.000124362
6.54571e-05
4.9324e-05
6.65317e-05
0.000124346
6.42889e-05
6.54468e-05
4.93125e-05
6.63077e-05
8.25736e-05
5.95576e-05
5.95986e-05
2.35545e-05
2.35521e-05
2.35501e-05
8.21594e-05
5.95888e-05
5.96074e-05
5.95404e-05
5.95961e-05
2.35551e-05
2.35533e-05
4.93244e-05
6.54228e-05
0.000100963
0.000124386
6.44121e-05
0.00012438
6.43998e-05
6.5408e-05
6.54152e-05
0.000100963
0.000124366
6.4293e-05
0.000124362
6.42858e-05
6.54073e-05
6.6518e-05
4.93212e-05
4.93242e-05
6.63643e-05
6.65115e-05
4.93088e-05
4.93043e-05
6.65086e-05
8.27081e-05
5.93584e-05
5.93282e-05
5.93752e-05
2.35409e-05
2.35416e-05
2.35409e-05
2.35533e-05
2.3555e-05
2.35514e-05
2.35528e-05
5.96109e-05
5.95954e-05
8.27899e-05
5.9596e-05
5.96081e-05
2.35536e-05
2.35514e-05
8.27536e-05
5.95662e-05
5.95665e-05
6.57026e-05
4.93261e-05
6.56287e-05
4.9327e-05
6.45998e-05
6.43889e-05
0.000124437
0.000100939
6.46238e-05
6.44007e-05
0.000124437
6.51516e-05
6.4421e-05
0.000124349
0.000100902
6.51553e-05
6.44302e-05
0.000124347
6.49126e-05
4.93132e-05
6.54969e-05
4.93249e-05
6.45962e-05
0.000100937
6.43921e-05
0.000124444
6.51461e-05
0.000100903
6.44225e-05
0.000124346
5.95585e-05
5.96094e-05
8.28241e-05
5.95575e-05
5.96233e-05
2.35537e-05
2.35557e-05
2.35534e-05
8.27388e-05
5.95704e-05
5.96182e-05
2.35545e-05
6.51595e-05
6.44092e-05
0.000124424
0.000100952
6.51704e-05
6.44205e-05
0.000124428
6.59165e-05
4.93182e-05
6.5924e-05
4.93175e-05
6.52593e-05
0.000124363
6.43975e-05
0.000100909
6.53063e-05
0.000124365
6.4402e-05
6.58948e-05
4.93071e-05
6.51712e-05
0.000100959
6.44111e-05
0.000124433
6.59845e-05
4.93166e-05
6.52554e-05
0.000100899
0.000124368
6.43944e-05
6.63576e-05
4.93206e-05
6.6522e-05
4.93232e-05
6.54593e-05
0.000124351
6.42832e-05
0.000100945
6.54586e-05
0.000124357
6.42948e-05
6.63819e-05
4.93119e-05
6.63375e-05
4.93127e-05
6.54657e-05
0.000100974
6.45099e-05
0.000124364
6.63967e-05
4.93241e-05
6.54579e-05
0.000100944
0.000124363
6.42891e-05
6.61553e-05
4.93134e-05
5.95886e-05
5.95704e-05
8.2535e-05
5.95118e-05
5.96113e-05
2.35537e-05
2.35561e-05
2.35505e-05
8.24891e-05
5.95057e-05
5.95539e-05
2.35549e-05
6.53945e-05
0.000124385
6.42866e-05
0.000100957
6.54136e-05
0.000124393
6.42951e-05
6.62617e-05
4.93231e-05
6.64332e-05
4.93263e-05
6.62444e-05
4.93101e-05
6.64969e-05
4.93099e-05
6.53517e-05
0.000100961
0.00012439
6.44135e-05
6.53956e-05
0.00010096
0.000124398
6.42881e-05
6.60285e-05
4.93262e-05
6.61286e-05
4.93082e-05
2.35397e-05
2.35421e-05
2.35404e-05
2.3542e-05
8.26929e-05
5.94006e-05
5.93718e-05
2.35409e-05
2.35403e-05
2.01271e-05
6.67737e-05
4.93134e-05
6.67671e-05
2.01287e-05
3.60298e-05
6.61782e-05
6.6958e-05
4.02404e-05
6.69737e-05
4.02401e-05
3.60299e-05
2.01291e-05
6.67942e-05
4.93105e-05
6.67671e-05
2.01305e-05
2.35502e-05
3.60168e-05
6.48296e-05
4.02014e-05
6.66923e-05
4.0201e-05
6.68078e-05
3.60168e-05
2.01282e-05
6.67868e-05
4.93135e-05
2.01263e-05
6.68082e-05
3.60181e-05
6.50172e-05
4.02022e-05
6.68176e-05
3.60171e-05
4.02025e-05
6.68174e-05
2.01263e-05
6.68013e-05
4.93133e-05
6.67864e-05
2.0128e-05
2.35544e-05
2.35531e-05
3.60266e-05
6.5666e-05
6.71212e-05
4.02339e-05
6.70943e-05
4.02331e-05
3.60275e-05
2.01281e-05
6.67517e-05
4.93075e-05
2.01264e-05
6.6756e-05
3.60278e-05
6.57226e-05
6.70368e-05
4.0234e-05
3.60271e-05
6.70695e-05
4.02345e-05
2.01264e-05
6.67721e-05
4.93077e-05
6.67721e-05
2.01282e-05
2.35524e-05
2.35507e-05
6.92884e-05
2.14905e-05
2.14899e-05
2.14886e-05
2.1488e-05
6.93e-05
7.05999e-05
6.8811e-05
4.68702e-05
5.93915e-05
7.06733e-05
6.88199e-05
4.68708e-05
7.09904e-05
6.90032e-05
4.68787e-05
5.94039e-05
7.10384e-05
6.9016e-05
4.68806e-05
6.92873e-05
2.14887e-05
2.14878e-05
6.92758e-05
2.14904e-05
2.14896e-05
7.0776e-05
4.68727e-05
5.94019e-05
6.88198e-05
6.88168e-05
4.6871e-05
7.07364e-05
7.10237e-05
4.68811e-05
5.94103e-05
6.90226e-05
6.90151e-05
4.68799e-05
7.10301e-05
2.35528e-05
2.3551e-05
6.93128e-05
2.14973e-05
2.14943e-05
2.14956e-05
2.14926e-05
6.93095e-05
7.1104e-05
4.68988e-05
5.9598e-05
6.92116e-05
4.69043e-05
7.11164e-05
6.91152e-05
7.11439e-05
4.6894e-05
5.95897e-05
6.91742e-05
4.6892e-05
7.11959e-05
6.90468e-05
2.35532e-05
2.35545e-05
2.35515e-05
2.35528e-05
6.93123e-05
2.14954e-05
2.14924e-05
6.93039e-05
2.1497e-05
2.1494e-05
7.10202e-05
6.88201e-05
5.96126e-05
4.69041e-05
4.69044e-05
6.88502e-05
7.09935e-05
7.12261e-05
6.93093e-05
5.96252e-05
4.68967e-05
4.68976e-05
6.92255e-05
7.11781e-05
7.11066e-05
4.68943e-05
6.9043e-05
5.96198e-05
7.11095e-05
4.6905e-05
6.92089e-05
7.12296e-05
4.68953e-05
6.9336e-05
5.96223e-05
7.12139e-05
4.68988e-05
6.9115e-05
6.93044e-05
2.14966e-05
2.14935e-05
2.1495e-05
2.1492e-05
6.93144e-05
3.60184e-05
4.02043e-05
6.67116e-05
6.49681e-05
3.60177e-05
4.02044e-05
6.67588e-05
2.01262e-05
4.93126e-05
6.67943e-05
2.0128e-05
6.67425e-05
2.01283e-05
6.67693e-05
4.93133e-05
2.01267e-05
6.67803e-05
3.60172e-05
6.49679e-05
4.02034e-05
6.68022e-05
3.60183e-05
4.02032e-05
6.68051e-05
3.6074e-05
4.0232e-05
6.77453e-05
6.55169e-05
3.60745e-05
4.02334e-05
6.75681e-05
2.01414e-05
4.93253e-05
6.69842e-05
6.69546e-05
2.01434e-05
2.01431e-05
6.69275e-05
4.93255e-05
2.01415e-05
6.69357e-05
3.60727e-05
6.55568e-05
4.02337e-05
6.7446e-05
4.02327e-05
6.75653e-05
3.60724e-05
2.35536e-05
2.3555e-05
7.11265e-05
6.91194e-05
5.9598e-05
4.68966e-05
6.91205e-05
4.68953e-05
7.11105e-05
7.06566e-05
6.90192e-05
5.95942e-05
4.68896e-05
4.68899e-05
6.9042e-05
7.06898e-05
6.91056e-05
5.96074e-05
6.91271e-05
6.92615e-05
2.14911e-05
2.14924e-05
2.14892e-05
2.14905e-05
6.9286e-05
2.35537e-05
3.60769e-05
6.64433e-05
4.0254e-05
6.78639e-05
4.02536e-05
6.79368e-05
3.60767e-05
2.01386e-05
6.69551e-05
4.93176e-05
6.69568e-05
2.01402e-05
3.60289e-05
6.69259e-05
4.02389e-05
6.56404e-05
3.60279e-05
6.70661e-05
4.02384e-05
2.01269e-05
4.93083e-05
6.67341e-05
2.01283e-05
6.67304e-05
2.01294e-05
6.67667e-05
4.93094e-05
2.01282e-05
6.67581e-05
3.60278e-05
6.56298e-05
6.70119e-05
4.02361e-05
3.60286e-05
6.69927e-05
4.02368e-05
3.60762e-05
4.02527e-05
6.79321e-05
6.59539e-05
3.60752e-05
4.02534e-05
6.80207e-05
2.01386e-05
4.93163e-05
6.69881e-05
6.69713e-05
2.01405e-05
2.01404e-05
6.69537e-05
4.93155e-05
2.01384e-05
6.69935e-05
3.60753e-05
6.57872e-05
4.02508e-05
6.76396e-05
4.02512e-05
6.77269e-05
3.60746e-05
2.01417e-05
4.93246e-05
6.70067e-05
6.6985e-05
2.01439e-05
3.60826e-05
6.65268e-05
6.80449e-05
4.02602e-05
6.81538e-05
4.02595e-05
3.60832e-05
2.01413e-05
4.93091e-05
6.69859e-05
6.69587e-05
2.01433e-05
3.60794e-05
6.63116e-05
4.02599e-05
6.776e-05
4.02591e-05
6.77806e-05
3.60791e-05
6.92661e-05
2.14897e-05
2.14929e-05
2.14879e-05
2.14911e-05
6.92974e-05
7.09433e-05
4.68878e-05
5.9576e-05
6.85414e-05
4.68872e-05
6.86435e-05
7.09186e-05
7.07904e-05
4.68972e-05
5.95879e-05
6.89771e-05
6.89791e-05
4.68968e-05
7.08023e-05
2.35529e-05
2.35504e-05
2.35513e-05
6.92508e-05
2.14878e-05
2.1491e-05
6.92637e-05
2.14893e-05
2.14924e-05
7.07752e-05
6.83284e-05
5.95689e-05
4.68858e-05
6.83547e-05
4.68847e-05
7.08488e-05
7.07583e-05
6.89653e-05
5.96006e-05
4.68955e-05
4.68947e-05
6.89637e-05
7.0811e-05
7.09466e-05
4.68864e-05
6.85221e-05
5.95158e-05
6.8268e-05
7.09645e-05
4.68867e-05
7.06531e-05
4.68961e-05
6.89723e-05
5.96037e-05
7.07686e-05
4.68958e-05
6.89712e-05
6.92411e-05
2.14886e-05
2.14918e-05
2.14872e-05
2.14903e-05
6.92425e-05
2.35535e-05
2.35548e-05
4.93237e-05
3.60809e-05
6.78994e-05
4.0257e-05
6.65171e-05
3.60813e-05
6.77714e-05
4.02577e-05
2.01413e-05
4.93215e-05
6.7003e-05
6.69888e-05
2.01432e-05
2.0143e-05
6.69743e-05
4.93192e-05
2.01414e-05
6.69751e-05
3.60785e-05
6.65123e-05
6.76402e-05
4.0257e-05
6.76836e-05
4.02569e-05
3.60779e-05
3.60786e-05
6.80373e-05
4.02565e-05
6.65186e-05
3.60778e-05
6.8057e-05
4.02573e-05
2.01386e-05
4.93075e-05
6.69887e-05
6.697e-05
2.01406e-05
2.01402e-05
6.69222e-05
4.93066e-05
2.01381e-05
6.69794e-05
3.60772e-05
6.65053e-05
6.78686e-05
4.02572e-05
6.7972e-05
4.02565e-05
3.60773e-05
6.93051e-05
2.14906e-05
2.14893e-05
7.06465e-05
6.88161e-05
5.93519e-05
4.68711e-05
7.07042e-05
6.88138e-05
4.68702e-05
7.11864e-05
6.9005e-05
5.93609e-05
4.68786e-05
7.10945e-05
6.89989e-05
4.68774e-05
7.05051e-05
5.93457e-05
6.8821e-05
4.68715e-05
7.11681e-05
6.89878e-05
5.93839e-05
6.89986e-05
4.68766e-05
6.92944e-05
2.14906e-05
2.14896e-05
6.93061e-05
2.14888e-05
2.14877e-05
2.35394e-05
2.35408e-05
2.35406e-05
2.35422e-05
2.35548e-05
2.35535e-05
2.35528e-05
2.35513e-05
6.9304e-05
2.14958e-05
2.14927e-05
2.14942e-05
2.14911e-05
6.93031e-05
7.11137e-05
6.8843e-05
4.69048e-05
5.96132e-05
7.10782e-05
4.69075e-05
6.88575e-05
7.10214e-05
6.90829e-05
4.68964e-05
5.95905e-05
7.11447e-05
4.68974e-05
6.92335e-05
6.9294e-05
2.14945e-05
2.14914e-05
6.92978e-05
2.14961e-05
2.14929e-05
7.11282e-05
4.69017e-05
5.96032e-05
6.88914e-05
4.6909e-05
7.11493e-05
6.88641e-05
7.10185e-05
4.68976e-05
5.96062e-05
6.92902e-05
4.68969e-05
7.09607e-05
6.93734e-05
2.35553e-05
2.35529e-05
6.93279e-05
2.14942e-05
2.1491e-05
6.93171e-05
2.1496e-05
2.14928e-05
7.11075e-05
4.69037e-05
6.89084e-05
5.9613e-05
7.11576e-05
4.69085e-05
6.88456e-05
7.0922e-05
4.68965e-05
6.89603e-05
5.96126e-05
7.09748e-05
4.68974e-05
6.91147e-05
3.60678e-05
6.56432e-05
4.02346e-05
6.76186e-05
4.02335e-05
6.75072e-05
3.60683e-05
2.01436e-05
6.69752e-05
4.93267e-05
2.01417e-05
6.69919e-05
3.60699e-05
6.56443e-05
4.02332e-05
6.75691e-05
4.02341e-05
3.60703e-05
6.75656e-05
2.01418e-05
6.69455e-05
4.93275e-05
6.6951e-05
2.01435e-05
3.60152e-05
4.02e-05
6.67075e-05
6.49266e-05
3.60153e-05
4.02008e-05
6.66709e-05
2.01278e-05
6.67853e-05
4.93136e-05
2.01261e-05
6.67937e-05
3.60669e-05
4.02338e-05
6.75691e-05
6.53872e-05
3.6067e-05
4.02333e-05
6.74911e-05
2.01424e-05
6.68514e-05
4.93245e-05
2.01411e-05
6.6882e-05
6.92914e-05
2.14915e-05
2.14931e-05
2.14896e-05
2.14912e-05
6.93076e-05
7.10596e-05
6.91192e-05
4.68952e-05
5.95108e-05
4.68952e-05
7.09921e-05
6.91163e-05
7.07814e-05
6.89748e-05
4.688e-05
5.96098e-05
6.9002e-05
7.07427e-05
4.68904e-05
6.92972e-05
2.14895e-05
2.14909e-05
2.14913e-05
6.92791e-05
2.14928e-05
7.10939e-05
4.68955e-05
5.95513e-05
6.91145e-05
4.68944e-05
6.91064e-05
7.10649e-05
7.07719e-05
4.68924e-05
5.96216e-05
6.89008e-05
6.90088e-05
4.68914e-05
7.07272e-05
2.35553e-05
2.3554e-05
2.3555e-05
6.92921e-05
2.14897e-05
2.14914e-05
6.92737e-05
2.14915e-05
2.14934e-05
7.1057e-05
4.68931e-05
6.8884e-05
5.95839e-05
6.83204e-05
7.10539e-05
4.68928e-05
7.08397e-05
4.68927e-05
6.87035e-05
5.96143e-05
7.06807e-05
4.68896e-05
6.88258e-05
2.35561e-05
3.60682e-05
6.59151e-05
4.02471e-05
6.74984e-05
4.02464e-05
6.76111e-05
3.60683e-05
2.01405e-05
6.6977e-05
4.93193e-05
2.01386e-05
6.69984e-05
3.60704e-05
6.58915e-05
4.02489e-05
6.76062e-05
4.02492e-05
3.60722e-05
6.75247e-05
2.01385e-05
6.68579e-05
4.93178e-05
6.69267e-05
2.01396e-05
3.60276e-05
6.70783e-05
4.02333e-05
6.58007e-05
3.60267e-05
6.70821e-05
4.02338e-05
2.01287e-05
6.67867e-05
4.93081e-05
2.01267e-05
6.67912e-05
3.60647e-05
4.02449e-05
6.75245e-05
6.60363e-05
3.6065e-05
4.02458e-05
6.75068e-05
2.01381e-05
6.68369e-05
4.93163e-05
2.0137e-05
6.68336e-05
3.60806e-05
6.65113e-05
6.79657e-05
4.02594e-05
6.79271e-05
4.02592e-05
3.6081e-05
2.0144e-05
6.69683e-05
4.93246e-05
6.7e-05
2.0142e-05
3.60824e-05
6.65239e-05
6.80946e-05
4.02594e-05
6.7915e-05
3.60822e-05
4.02601e-05
2.01422e-05
6.70018e-05
4.93247e-05
6.69863e-05
2.01442e-05
3.60742e-05
6.63277e-05
4.02591e-05
6.76878e-05
4.02585e-05
6.77154e-05
3.60745e-05
2.01435e-05
6.69766e-05
4.93115e-05
2.01416e-05
6.69954e-05
3.60762e-05
6.63643e-05
4.02589e-05
6.77322e-05
3.60769e-05
4.02597e-05
6.76516e-05
2.01417e-05
6.69807e-05
4.93117e-05
6.69676e-05
2.01436e-05
3.60794e-05
6.78816e-05
4.02585e-05
6.63321e-05
3.60792e-05
6.7816e-05
4.02592e-05
2.0144e-05
6.69585e-05
4.93255e-05
2.01421e-05
6.6984e-05
3.60727e-05
4.0258e-05
6.75174e-05
6.6122e-05
3.60723e-05
4.02576e-05
6.76346e-05
2.01433e-05
6.6911e-05
4.93131e-05
2.01417e-05
6.69345e-05
6.9231e-05
2.1488e-05
2.14914e-05
2.14864e-05
2.14896e-05
6.92439e-05
7.0832e-05
6.79124e-05
4.68845e-05
5.95569e-05
4.68852e-05
7.08614e-05
6.80691e-05
7.08414e-05
6.89644e-05
4.68942e-05
5.96134e-05
6.89678e-05
7.08287e-05
4.68954e-05
6.92583e-05
2.14864e-05
2.14896e-05
2.14882e-05
6.92202e-05
2.14914e-05
7.08365e-05
4.68839e-05
5.94741e-05
6.80041e-05
4.68835e-05
6.80081e-05
7.08332e-05
7.08486e-05
4.68966e-05
5.96311e-05
6.89666e-05
6.89634e-05
4.68952e-05
7.08623e-05
2.35553e-05
2.35543e-05
2.35518e-05
6.92589e-05
2.14863e-05
2.14896e-05
6.92436e-05
2.14881e-05
2.14914e-05
7.08418e-05
4.68828e-05
6.81867e-05
5.95471e-05
6.82049e-05
7.08287e-05
4.68833e-05
7.0783e-05
4.68964e-05
6.89671e-05
5.95551e-05
7.08549e-05
4.68976e-05
6.89667e-05
2.35564e-05
3.60747e-05
6.63813e-05
6.7682e-05
4.02562e-05
6.78594e-05
4.02559e-05
3.60753e-05
2.01429e-05
6.6977e-05
4.93245e-05
6.69824e-05
2.01413e-05
3.60761e-05
6.6394e-05
6.77823e-05
4.02561e-05
6.78402e-05
3.6076e-05
4.0257e-05
2.01412e-05
6.70245e-05
4.93251e-05
6.69996e-05
2.01431e-05
3.60744e-05
6.63867e-05
6.78602e-05
4.0256e-05
6.78746e-05
4.02556e-05
3.60752e-05
2.01407e-05
6.69619e-05
4.93096e-05
2.01389e-05
6.69758e-05
3.60758e-05
6.63395e-05
6.7842e-05
4.02563e-05
3.60759e-05
6.77893e-05
4.02565e-05
2.01387e-05
6.69758e-05
4.93097e-05
6.69592e-05
2.01404e-05
3.60726e-05
6.74832e-05
4.02542e-05
6.61553e-05
3.60728e-05
6.75492e-05
4.02543e-05
2.01429e-05
6.69838e-05
4.93271e-05
2.01411e-05
6.70166e-05
3.60737e-05
6.76356e-05
4.02549e-05
6.62235e-05
3.60734e-05
6.76571e-05
4.02548e-05
2.01402e-05
6.69635e-05
4.93085e-05
2.01385e-05
6.69436e-05
2.35415e-05
2.35404e-05
2.35419e-05
2.35406e-05
6.92864e-05
2.14888e-05
2.14883e-05
6.92845e-05
2.14907e-05
2.14902e-05
7.05829e-05
4.68718e-05
6.88161e-05
5.93655e-05
7.05149e-05
6.88157e-05
4.68722e-05
7.11359e-05
4.688e-05
6.90316e-05
5.94126e-05
7.10889e-05
6.90418e-05
4.68813e-05
2.35421e-05
2.35416e-05
0.000147316
0.0001704
0.000170431
0.000170435
0.00014732
0.000170447
0.000170447
0.000189608
0.000189608
7.15589e-05
7.21098e-05
7.21487e-05
8.27953e-05
7.15581e-05
7.21254e-05
7.21672e-05
7.17264e-05
8.26415e-05
7.2298e-05
7.23133e-05
7.23029e-05
7.23085e-05
7.17376e-05
7.15334e-05
8.25962e-05
7.22427e-05
7.22216e-05
7.22467e-05
7.2226e-05
7.15438e-05
7.14988e-05
8.22301e-05
7.2062e-05
7.21457e-05
7.2078e-05
7.21511e-05
7.15275e-05
7.15423e-05
8.26503e-05
7.21163e-05
7.2152e-05
7.15619e-05
7.21157e-05
7.21483e-05
7.17383e-05
7.23124e-05
7.2333e-05
8.26703e-05
7.17357e-05
7.23067e-05
7.23361e-05
7.15419e-05
7.22581e-05
7.22339e-05
8.27601e-05
7.22311e-05
7.15389e-05
7.22538e-05
7.15069e-05
7.20504e-05
7.2148e-05
8.24904e-05
7.21436e-05
7.15147e-05
7.20295e-05
0.000147258
0.000170347
0.000147338
0.000170425
0.000170435
0.000170426
0.000170425
0.000189587
0.000189611
0.000147279
0.000170452
0.000170411
0.000170455
0.000170402
0.000189614
0.000189595
0.000147287
0.000170464
0.000170412
0.000170494
0.000170383
0.000189589
0.000189593
0.000147268
0.00017039
0.000170377
0.000170384
0.000170376
0.000189647
0.000189612
6.43955e-05
6.8084e-05
6.80859e-05
0.000170445
0.00017043
0.00014728
0.000170433
0.000170431
0.000189599
0.000189596
0.00017046
0.000170453
0.000147285
0.000170452
0.000170458
0.000189604
0.000189612
0.000170398
0.00017041
0.000147297
0.000170415
0.000170442
0.000189614
0.000189613
0.000147309
0.000170435
0.000170455
0.000189598
0.000147277
0.000170429
0.000170438
0.000189591
0.000147287
0.000170448
0.000170462
0.000189584
0.000147302
0.000170423
0.000170456
0.000189607
7.33646e-05
6.54626e-05
6.65284e-05
7.62768e-05
6.65304e-05
7.62312e-05
7.34096e-05
6.89809e-05
6.83345e-05
6.62981e-05
6.45148e-05
6.89497e-05
6.83309e-05
6.62874e-05
7.34117e-05
6.54642e-05
6.6532e-05
7.62191e-05
7.33759e-05
6.65321e-05
7.62679e-05
6.89668e-05
6.62807e-05
6.45087e-05
6.83146e-05
6.83233e-05
6.629e-05
6.90006e-05
7.35416e-05
6.53787e-05
7.62657e-05
6.55502e-05
7.6225e-05
6.55571e-05
7.35286e-05
6.89227e-05
6.80803e-05
6.60645e-05
6.44169e-05
6.89034e-05
6.8087e-05
6.60554e-05
7.36511e-05
6.53946e-05
7.62136e-05
6.59468e-05
7.36449e-05
7.62643e-05
6.59428e-05
6.89049e-05
6.60396e-05
6.44098e-05
6.80815e-05
6.80838e-05
6.60551e-05
6.89559e-05
7.15739e-05
8.27014e-05
7.21208e-05
7.21686e-05
7.21193e-05
7.2164e-05
7.15767e-05
7.17035e-05
8.25167e-05
7.22577e-05
7.22568e-05
7.1715e-05
7.2251e-05
7.22518e-05
7.17265e-05
8.2795e-05
7.23047e-05
7.23041e-05
7.17182e-05
7.23126e-05
7.23103e-05
6.87265e-05
6.58365e-05
6.43633e-05
6.80939e-05
6.57522e-05
6.80894e-05
6.87453e-05
7.28914e-05
6.4546e-05
7.60528e-05
6.46322e-05
7.28582e-05
6.46415e-05
7.61174e-05
6.87288e-05
6.8129e-05
6.43828e-05
6.58816e-05
6.81356e-05
6.5892e-05
6.87653e-05
6.87497e-05
6.595e-05
6.81379e-05
6.43908e-05
6.81411e-05
6.87273e-05
6.58931e-05
7.28531e-05
6.46242e-05
6.47235e-05
7.61051e-05
6.4716e-05
7.60712e-05
7.28957e-05
7.3319e-05
6.64499e-05
7.61474e-05
6.51444e-05
7.32836e-05
6.6461e-05
7.62183e-05
6.88911e-05
6.81654e-05
6.44175e-05
6.61325e-05
6.61406e-05
6.81683e-05
6.89271e-05
6.89189e-05
6.61265e-05
6.81438e-05
6.44268e-05
6.88903e-05
6.61331e-05
6.81709e-05
7.32866e-05
6.51421e-05
6.6433e-05
7.62093e-05
6.64548e-05
7.61759e-05
7.33282e-05
8.26706e-05
7.22215e-05
7.2257e-05
7.3192e-05
6.52174e-05
6.60252e-05
7.62024e-05
6.60309e-05
7.6158e-05
7.32399e-05
6.88145e-05
6.59228e-05
6.43875e-05
6.81118e-05
6.59334e-05
6.81087e-05
6.88393e-05
7.32406e-05
6.53566e-05
7.62037e-05
6.64475e-05
7.61592e-05
6.64552e-05
7.32886e-05
6.88613e-05
6.60574e-05
6.43907e-05
6.8045e-05
6.60661e-05
6.88759e-05
6.8057e-05
7.35322e-05
6.60261e-05
7.61291e-05
6.51938e-05
7.32087e-05
6.60243e-05
7.61953e-05
6.88249e-05
6.81626e-05
6.44048e-05
6.59103e-05
6.81606e-05
6.59258e-05
6.88908e-05
6.88547e-05
6.59323e-05
6.81567e-05
6.44134e-05
6.81584e-05
6.87884e-05
6.59212e-05
7.38431e-05
6.51809e-05
6.60162e-05
7.62057e-05
6.60205e-05
7.61562e-05
7.38851e-05
7.35813e-05
7.61355e-05
6.64502e-05
6.53357e-05
7.32611e-05
7.61975e-05
6.64458e-05
6.8862e-05
6.79982e-05
6.43948e-05
6.60582e-05
6.60675e-05
6.8012e-05
6.89275e-05
6.88779e-05
6.60688e-05
6.80405e-05
6.44029e-05
6.88513e-05
6.60607e-05
6.80257e-05
7.3897e-05
6.53224e-05
7.62067e-05
6.64223e-05
7.6157e-05
6.64418e-05
7.39369e-05
6.89208e-05
6.8339e-05
6.45015e-05
6.63044e-05
6.89588e-05
6.83388e-05
6.63058e-05
7.33225e-05
6.54582e-05
6.65313e-05
7.62593e-05
7.34187e-05
6.65322e-05
7.62189e-05
6.88575e-05
6.79729e-05
6.42797e-05
6.60563e-05
6.60631e-05
6.79757e-05
6.88764e-05
7.3294e-05
6.54484e-05
7.62544e-05
6.66599e-05
7.6217e-05
6.64828e-05
7.3397e-05
7.15022e-05
8.26325e-05
7.213e-05
7.21677e-05
7.21722e-05
7.21447e-05
7.15013e-05
7.15117e-05
8.23183e-05
7.21187e-05
7.21679e-05
7.21015e-05
7.15136e-05
7.21637e-05
7.33344e-05
7.62059e-05
6.64784e-05
6.54204e-05
7.33001e-05
7.62492e-05
6.64629e-05
6.88955e-05
6.80833e-05
6.4402e-05
6.60622e-05
6.89206e-05
6.80861e-05
6.60726e-05
6.89307e-05
6.60725e-05
6.80918e-05
6.44099e-05
6.88638e-05
6.80891e-05
6.60646e-05
7.36382e-05
6.54174e-05
7.62564e-05
6.6161e-05
7.37304e-05
7.62061e-05
6.64544e-05
7.33008e-05
7.62003e-05
6.64464e-05
6.54127e-05
7.32644e-05
7.62371e-05
6.64421e-05
6.88354e-05
6.8013e-05
6.42848e-05
6.5996e-05
6.60036e-05
6.80117e-05
6.88602e-05
6.88612e-05
6.60024e-05
6.80095e-05
6.42945e-05
6.87878e-05
6.5995e-05
6.80105e-05
7.36117e-05
6.541e-05
7.62427e-05
6.64314e-05
7.62018e-05
6.64381e-05
7.37038e-05
7.15437e-05
8.27474e-05
7.21478e-05
7.21225e-05
7.21518e-05
7.17422e-05
8.26639e-05
7.22939e-05
7.23364e-05
7.17447e-05
7.22959e-05
7.23343e-05
7.17449e-05
8.28607e-05
7.22878e-05
7.23269e-05
7.17424e-05
7.22868e-05
7.23282e-05
7.28333e-05
6.46092e-05
6.456e-05
7.61089e-05
6.46362e-05
7.60773e-05
7.28761e-05
6.87731e-05
6.81402e-05
6.5893e-05
6.43987e-05
6.58803e-05
6.87443e-05
6.8133e-05
7.28815e-05
6.46208e-05
6.4752e-05
7.60761e-05
6.46624e-05
7.28492e-05
7.61233e-05
6.87489e-05
6.58645e-05
6.43906e-05
6.81214e-05
6.58792e-05
6.81263e-05
6.87829e-05
7.33002e-05
6.51564e-05
6.63369e-05
7.62221e-05
6.6652e-05
7.61846e-05
7.33441e-05
6.89303e-05
6.81812e-05
6.61484e-05
6.44295e-05
6.89073e-05
6.61419e-05
6.8177e-05
7.33361e-05
6.51581e-05
6.66861e-05
7.6183e-05
7.32941e-05
6.66779e-05
7.62278e-05
6.89197e-05
6.61373e-05
6.44206e-05
6.8168e-05
6.61491e-05
6.89361e-05
6.81724e-05
7.28607e-05
6.44639e-05
7.60676e-05
6.45905e-05
7.28291e-05
6.42256e-05
7.61006e-05
6.87816e-05
6.58586e-05
6.81168e-05
6.44031e-05
6.81119e-05
6.87497e-05
6.58449e-05
7.33243e-05
6.61569e-05
7.61829e-05
6.51241e-05
7.3297e-05
6.61339e-05
7.62132e-05
6.89402e-05
6.61383e-05
6.81623e-05
6.44327e-05
6.89192e-05
6.61238e-05
6.81428e-05
7.1546e-05
8.26868e-05
7.22385e-05
7.22211e-05
7.22223e-05
7.22424e-05
7.15463e-05
7.15434e-05
8.28485e-05
7.22306e-05
7.22097e-05
7.22115e-05
7.15401e-05
7.22096e-05
7.36257e-05
6.5161e-05
6.60215e-05
7.6221e-05
6.60215e-05
7.61804e-05
7.36281e-05
6.89015e-05
6.8179e-05
6.60734e-05
6.44186e-05
6.6068e-05
6.88794e-05
6.818e-05
7.3769e-05
6.51665e-05
6.60213e-05
7.61629e-05
6.60209e-05
7.37671e-05
7.6219e-05
6.88881e-05
6.60584e-05
6.44107e-05
6.81804e-05
6.60682e-05
6.81815e-05
6.89243e-05
7.36609e-05
6.52772e-05
7.62228e-05
6.58939e-05
7.61769e-05
6.56902e-05
7.36432e-05
6.89319e-05
6.79878e-05
6.60677e-05
6.44058e-05
6.89053e-05
6.60553e-05
6.79708e-05
7.38121e-05
6.52914e-05
7.61616e-05
6.64184e-05
7.38197e-05
7.62227e-05
6.61719e-05
6.89008e-05
6.60351e-05
6.43947e-05
6.79375e-05
6.60526e-05
6.89337e-05
6.79533e-05
7.35221e-05
6.603e-05
7.61881e-05
6.51676e-05
7.3517e-05
6.60277e-05
7.62236e-05
6.89214e-05
6.60596e-05
6.81731e-05
6.44212e-05
6.81703e-05
6.88969e-05
6.60497e-05
7.35053e-05
7.61739e-05
6.55366e-05
6.52372e-05
7.35363e-05
7.62242e-05
6.55697e-05
6.89174e-05
6.60354e-05
6.79375e-05
6.44022e-05
6.88979e-05
6.60151e-05
6.79269e-05
7.33735e-05
6.54615e-05
7.62659e-05
6.66945e-05
7.62277e-05
6.69969e-05
7.34243e-05
6.8882e-05
6.79799e-05
6.60709e-05
6.42931e-05
6.79772e-05
6.88617e-05
6.60647e-05
7.34037e-05
6.54596e-05
7.62258e-05
6.68832e-05
7.6263e-05
7.33637e-05
6.67924e-05
6.88795e-05
6.60674e-05
6.42851e-05
6.79712e-05
6.79737e-05
6.60756e-05
6.88957e-05
7.34038e-05
6.65352e-05
7.62379e-05
6.5458e-05
7.33675e-05
6.6531e-05
7.62892e-05
6.90074e-05
6.62759e-05
6.83029e-05
6.452e-05
6.89778e-05
6.82933e-05
6.62652e-05
7.34239e-05
7.62416e-05
6.6507e-05
6.53357e-05
7.33846e-05
7.62752e-05
6.66124e-05
6.88971e-05
6.6077e-05
6.79796e-05
6.42982e-05
6.88794e-05
6.6066e-05
6.79766e-05
7.14981e-05
8.2433e-05
7.19877e-05
7.21289e-05
7.21326e-05
7.20046e-05
7.14905e-05
7.14681e-05
8.2626e-05
7.19847e-05
7.2135e-05
7.19776e-05
7.14765e-05
7.21318e-05
7.35537e-05
6.5403e-05
7.62584e-05
6.64153e-05
7.62204e-05
6.64218e-05
7.35706e-05
6.88694e-05
6.80237e-05
6.60077e-05
6.42958e-05
6.80249e-05
6.88478e-05
6.59994e-05
7.36546e-05
6.5408e-05
7.62149e-05
6.64331e-05
7.62554e-05
7.36326e-05
6.64249e-05
6.88645e-05
6.59982e-05
6.42866e-05
6.80272e-05
6.80257e-05
6.60068e-05
6.88868e-05
7.34301e-05
7.62238e-05
6.55705e-05
6.53302e-05
7.34416e-05
7.62679e-05
6.56114e-05
6.89331e-05
6.60448e-05
6.80895e-05
6.44219e-05
6.89122e-05
6.80864e-05
6.60295e-05
7.34935e-05
7.62299e-05
6.64136e-05
6.53842e-05
7.34842e-05
7.62656e-05
6.61764e-05
6.88905e-05
6.60109e-05
6.80399e-05
6.42966e-05
6.88712e-05
6.59981e-05
6.80409e-05
7.15741e-05
8.28498e-05
7.21303e-05
7.21812e-05
7.15709e-05
7.21317e-05
7.21858e-05
0.00014731
0.000100971
0.000100947
8.2753e-05
0.0001473
0.000100992
0.000100954
8.2771e-05
0.000147295
0.000100986
0.000100955
8.27592e-05
0.000147288
0.000100971
0.000100947
8.27908e-05
0.000147297
0.000100939
0.000100937
8.22698e-05
0.000147306
0.000100921
0.000100925
8.22453e-05
0.000147315
0.000100932
0.000100937
8.24202e-05
0.000147325
0.000100952
0.000100953
8.24366e-05
0.000147334
0.000100965
0.000100969
8.25125e-05
0.000147348
0.000100988
0.000100981
8.23091e-05
0.000147358
0.000101019
0.000100976
8.25159e-05
0.000147362
0.000101019
0.000100985
8.24372e-05
0.000147363
0.000101009
0.00010098
8.23672e-05
0.000147342
0.000100987
0.000100973
8.22469e-05
0.000147299
0.000100963
0.000100962
8.24932e-05
0.000147235
0.000100944
0.000100943
8.25666e-05
0.000147181
0.000100933
0.000100935
8.25214e-05
0.000147158
0.000100945
0.000100965
8.20828e-05
0.000147292
0.000101167
0.000101201
8.25796e-05
0.000143627
0.000105457
0.000105521
8.61687e-05
8.29039e-05
0.000100944
0.000100904
8.28208e-05
0.000100964
0.000100902
0.000100971
0.000100949
8.2711e-05
0.000100952
0.00010096
8.28367e-05
8.28557e-05
8.26048e-05
0.00010093
0.0001009
0.000100919
0.000100889
8.2775e-05
8.29321e-05
0.000100961
0.000100891
0.00010096
0.000100877
0.000100949
0.000100991
0.000100952
8.26024e-05
8.27618e-05
0.000100954
0.000100953
0.000100947
8.2871e-05
8.23519e-05
8.25258e-05
0.000100934
0.000100918
0.000100941
0.00010091
8.28732e-05
8.27513e-05
0.000100958
0.000100892
0.000100949
0.000100903
0.000100956
0.000100992
0.000100953
8.26456e-05
8.25375e-05
0.000100977
0.000100957
0.000100979
8.28548e-05
8.26526e-05
8.25888e-05
0.000100935
0.000100906
0.000100924
0.000100892
8.24686e-05
8.26002e-05
0.00010096
0.000100915
0.000100948
0.000100893
0.000100949
0.000100976
0.000100933
8.22678e-05
8.25674e-05
0.000100972
0.00010095
0.00010096
8.28595e-05
8.23007e-05
8.27494e-05
0.000100942
0.000100896
0.000100939
0.000100887
8.23661e-05
8.24172e-05
0.000100963
0.000100909
0.00010096
0.000100892
0.00010095
0.000100945
0.000100935
8.24953e-05
8.25363e-05
0.000100959
0.00010094
0.000100942
8.25271e-05
8.23858e-05
8.24979e-05
0.000100959
0.000100885
0.000100958
0.00010088
8.23393e-05
8.26372e-05
0.000100958
0.000100885
0.000100956
0.000100885
0.000100929
0.000100926
0.000100914
8.25204e-05
8.27137e-05
0.00010096
0.000100928
0.000100935
8.25138e-05
8.23935e-05
8.25309e-05
0.000100967
0.000100878
0.000100967
0.00010087
8.22901e-05
8.23895e-05
0.000100969
0.000100891
0.000100966
0.000100895
0.000100915
0.00010093
0.000100902
8.25318e-05
8.27356e-05
0.000100956
0.000100943
0.000100935
8.25592e-05
8.2391e-05
8.26796e-05
0.000100971
0.000100887
0.000100966
0.000100881
8.23206e-05
8.24771e-05
0.000100983
0.000100922
0.000100976
0.000100925
0.000100912
0.000100947
0.000100898
8.26242e-05
8.27861e-05
0.000100937
0.000100953
0.000100931
8.24878e-05
8.25577e-05
8.2433e-05
0.000100963
0.000100884
0.000100951
0.000100878
8.24378e-05
8.2479e-05
0.000101001
0.00010093
0.000100985
0.00010092
0.000100907
0.000100963
0.000100919
8.26949e-05
8.25768e-05
0.000100953
0.000100964
0.000100945
8.26579e-05
8.23998e-05
8.26691e-05
0.000100961
0.0001009
0.000100951
0.000100901
8.24375e-05
8.26522e-05
0.000101007
0.000100934
0.000101004
0.000100929
0.000100923
0.000100981
0.000100934
8.24427e-05
8.27461e-05
0.000100957
0.000100983
0.00010095
8.23799e-05
8.25125e-05
8.27067e-05
0.000100973
0.000100938
0.000100981
0.000100951
8.25678e-05
8.27251e-05
0.00010101
0.000100945
0.000101007
0.000100923
0.000100939
0.000101015
0.000100948
8.24207e-05
8.25671e-05
0.000100984
0.000100973
0.000100977
8.25966e-05
8.26346e-05
8.25213e-05
0.000100993
0.000100955
0.000100979
0.000100945
8.26463e-05
8.24702e-05
0.00010101
0.000100954
0.000101011
0.00010094
0.000100971
0.000101019
0.000100968
8.23081e-05
8.24717e-05
0.000100986
0.000100986
0.00010098
8.24784e-05
8.25304e-05
8.28104e-05
0.000100991
0.000100966
0.00010099
0.00010095
8.24189e-05
8.26399e-05
0.000101019
0.000100949
0.000101009
0.000100946
0.000100971
0.000101013
0.000100952
8.21655e-05
8.24018e-05
0.000100984
0.000100977
0.000100979
8.25164e-05
8.26343e-05
8.25037e-05
0.000100988
0.000100961
0.000100974