/*--------------------------------*- C++ -*----------------------------------*\
| =========                 |                                                 |
| \\      /  F ield         | OpenFOAM: The Open Source CFD Toolbox           |
|  \\    /   O peration     | Version:  2312                                  |
|   \\  /    A nd           | Website:  www.openfoam.com                      |
|    \\/     M anipulation  |                                                 |
\*---------------------------------------------------------------------------*/
FoamFile
{
    version     2.0;
    format      ascii;
    arch        "LSB;label=32;scalar=64";
    class       volScalarField;
    location    "600";
    object      epsilon;
}
// * * * * * * * * * * * * * * * * * * * * * * * * * * * * * * * * * * * * * //

dimensions      [0 2 -3 0 0 0 0];

internalField   nonuniform List<scalar> 
43008
(
1.40296e-07
2.15334e-07
1.36483e-07
2.21679e-07
2.21699e-07
3.346e-07
3.14467e-07
3.29673e-07
2.15365e-07
2.154e-07
2.19949e-07
2.19984e-07
3.29173e-07
2.15343e-07
2.15404e-07
2.19923e-07
2.19992e-07
2.19895e-07
2.1995e-07
3.1455e-07
3.29687e-07
2.15363e-07
2.19918e-07
2.19946e-07
3.29373e-07
3.34121e-07
2.21739e-07
2.21772e-07
3.3458e-07
2.21714e-07
2.21781e-07
2.21735e-07
3.34058e-07
2.21733e-07
3.46781e-06
8.88388e-06
3.42489e-06
8.88942e-06
1.85247e-05
3.46837e-06
8.88498e-06
3.42437e-06
8.89052e-06
1.40295e-07
1.403e-07
1.40299e-07
1.3736e-07
1.3736e-07
1.37366e-07
1.37364e-07
9.87804e-07
2.1671e-07
2.66112e-06
1.59052e-07
1.85351e-05
1.85255e-05
9.87982e-07
1.59527e-07
2.63293e-06
2.16736e-07
9.61411e-07
1.5907e-07
2.66135e-06
3.19375e-07
5.05948e-06
5.06129e-06
3.58614e-06
8.89731e-06
3.54942e-06
8.90244e-06
1.85008e-05
1.84921e-05
3.58591e-06
8.89854e-06
3.54858e-06
8.90368e-06
1.36483e-07
1.3649e-07
1.36487e-07
1.0722e-06
2.72068e-06
1.58239e-07
2.23612e-07
1.04472e-06
2.74556e-06
1.58099e-07
1.85014e-05
1.84926e-05
1.07234e-06
1.58264e-07
2.72072e-06
2.23629e-07
1.04497e-06
1.5812e-07
2.74767e-06
5.09482e-06
5.09652e-06
3.39555e-07
5.10904e-06
5.10872e-06
1.85318e-05
1.85219e-05
1.85347e-05
1.8525e-05
5.04211e-06
5.04541e-06
3.19739e-07
5.06089e-06
5.06142e-06
1.85052e-05
1.85143e-05
1.85083e-05
1.85174e-05
3.23807e-07
5.086e-06
5.08654e-06
5.06902e-06
5.07227e-06
3.46761e-06
8.88397e-06
3.42484e-06
8.88957e-06
9.88249e-07
2.63313e-06
1.59519e-07
2.16763e-07
9.6085e-07
2.66119e-06
1.59065e-07
9.87951e-07
2.63367e-06
1.5952e-07
2.16797e-07
9.61221e-07
2.66155e-06
1.59064e-07
3.48977e-06
8.89606e-06
8.89073e-06
3.5291e-06
3.4897e-06
8.89639e-06
8.89094e-06
3.52914e-06
1.00239e-06
2.18291e-07
2.7044e-06
1.58428e-07
2.67803e-06
1.58727e-07
1.03027e-06
1.00266e-06
2.18325e-07
2.70487e-06
1.58426e-07
2.67861e-06
1.58727e-07
1.02981e-06
3.1909e-07
5.06097e-06
5.05949e-06
1.85229e-05
1.85082e-05
1.85172e-05
3.24357e-07
5.08627e-06
5.08461e-06
5.07196e-06
5.07054e-06
1.8506e-05
1.85153e-05
9.87957e-07
2.63361e-06
1.59532e-07
2.1674e-07
9.6141e-07
2.66162e-06
1.59075e-07
3.46771e-06
8.88459e-06
3.42489e-06
8.89011e-06
9.87984e-07
1.59538e-07
2.63367e-06
2.16805e-07
9.61462e-07
1.59082e-07
2.66191e-06
3.48917e-06
8.89728e-06
8.89188e-06
3.52994e-06
1.00283e-06
2.18268e-07
2.70488e-06
1.58439e-07
2.67852e-06
1.5874e-07
1.02994e-06
3.48972e-06
8.89681e-06
8.89149e-06
3.52904e-06
1.00287e-06
2.18332e-07
1.58446e-07
2.70517e-06
1.58748e-07
2.67869e-06
1.02974e-06
3.46787e-06
8.88992e-06
9.88565e-07
2.16762e-07
1.59055e-07
2.6612e-06
3.46755e-06
8.88966e-06
1.00269e-06
2.18233e-07
2.70438e-06
1.58414e-07
2.67797e-06
1.58712e-07
1.02984e-06
3.48937e-06
8.89654e-06
8.89121e-06
3.52933e-06
1.00215e-06
2.18288e-07
1.58419e-07
2.70599e-06
1.5872e-07
2.67811e-06
1.03012e-06
3.48979e-06
8.89636e-06
8.89093e-06
3.52895e-06
5.04521e-06
5.04364e-06
3.19934e-07
5.06119e-06
5.05963e-06
1.85327e-05
1.85232e-05
1.85087e-05
1.8518e-05
3.23862e-07
5.08636e-06
5.08483e-06
5.07206e-06
5.07055e-06
1.85065e-05
1.85156e-05
9.87974e-07
1.59536e-07
2.63373e-06
2.16761e-07
9.61501e-07
1.59077e-07
2.66179e-06
3.46772e-06
8.88449e-06
3.42496e-06
8.89004e-06
3.46757e-06
8.88469e-06
3.42506e-06
8.89028e-06
1.0028e-06
2.18258e-07
1.58434e-07
2.70447e-06
1.58736e-07
2.67804e-06
1.02979e-06
1.00294e-06
2.18286e-07
1.58442e-07
2.70513e-06
1.58743e-07
2.67866e-06
1.02983e-06
3.48991e-06
8.89678e-06
8.89143e-06
3.52906e-06
3.48995e-06
8.89699e-06
8.89161e-06
3.52897e-06
1.85237e-05
1.85257e-05
3.24043e-07
5.08463e-06
5.08638e-06
5.07029e-06
5.07207e-06
1.8507e-05
1.85161e-05
1.8509e-05
1.85182e-05
1.84978e-05
1.84892e-05
1.85009e-05
1.84922e-05
5.09344e-06
5.09657e-06
3.40501e-07
5.10885e-06
5.1108e-06
3.58484e-06
8.8976e-06
3.54938e-06
8.90275e-06
1.07262e-06
2.72039e-06
1.58256e-07
2.23667e-07
1.04451e-06
2.74759e-06
1.58112e-07
1.07194e-06
2.72087e-06
1.58254e-07
2.23703e-07
1.04489e-06
2.74796e-06
1.58109e-07
5.09625e-06
5.095e-06
3.40745e-07
5.11053e-06
5.10689e-06
1.84986e-05
1.84898e-05
1.07236e-06
2.72091e-06
1.58269e-07
2.23639e-07
1.0449e-06
2.74792e-06
1.58124e-07
3.58513e-06
8.89804e-06
3.54923e-06
8.9032e-06
1.07218e-06
1.58277e-07
2.72125e-06
2.23713e-07
1.04505e-06
1.58131e-07
2.74617e-06
3.586e-06
8.89781e-06
3.549e-06
8.90295e-06
1.07246e-06
1.58248e-07
2.71968e-06
2.23666e-07
1.0445e-06
1.58102e-07
2.74769e-06
3.58586e-06
8.89758e-06
3.5492e-06
8.90275e-06
5.09639e-06
5.09491e-06
3.40542e-07
5.10868e-06
5.10716e-06
1.84991e-05
1.84904e-05
1.07244e-06
1.58271e-07
2.72118e-06
2.23663e-07
1.04502e-06
1.58126e-07
2.74621e-06
3.5859e-06
8.89802e-06
3.5495e-06
8.9032e-06
3.58585e-06
8.89822e-06
3.54948e-06
8.90343e-06
1.84996e-05
1.84909e-05
1.85016e-05
1.84928e-05
1.21035e-05
3.45798e-06
1.06412e-05
4.33906e-06
1.06394e-05
4.33187e-06
1.21065e-05
2.25121e-05
7.18579e-06
8.88602e-06
2.25103e-05
7.18606e-06
1.21033e-05
3.43498e-06
1.06379e-05
4.30682e-06
1.21006e-05
1.06394e-05
4.31446e-06
2.25009e-05
7.1916e-06
8.88732e-06
7.19194e-06
2.25027e-05
1.85333e-05
1.85257e-05
1.21037e-05
3.45744e-06
4.33876e-06
1.06417e-05
4.33171e-06
1.06399e-05
1.21067e-05
2.25117e-05
7.18501e-06
8.88711e-06
2.25099e-05
7.18632e-06
1.21035e-05
3.43561e-06
4.30661e-06
1.06384e-05
1.21008e-05
4.31424e-06
1.06398e-05
2.25006e-05
7.19231e-06
8.88842e-06
7.19087e-06
2.25024e-05
1.85341e-05
1.85265e-05
9.71722e-06
2.19929e-05
2.19925e-05
2.19925e-05
2.19921e-05
9.71691e-06
3.80588e-06
5.04583e-06
1.74767e-06
8.97426e-06
3.81308e-06
5.04771e-06
1.74929e-06
8.97921e-06
9.71378e-06
2.20032e-05
2.20027e-05
3.82294e-06
8.98378e-06
5.05737e-06
1.77245e-06
1.76508e-06
8.97784e-06
3.82842e-06
3.82979e-06
8.98871e-06
5.05918e-06
1.77396e-06
1.76673e-06
8.98261e-06
3.83546e-06
1.21171e-05
3.57698e-06
1.06554e-05
4.42434e-06
1.06523e-05
4.41912e-06
1.21203e-05
2.24742e-05
7.20685e-06
8.89933e-06
2.24726e-05
7.20674e-06
1.21167e-05
3.55779e-06
1.06481e-05
4.39907e-06
1.21136e-05
1.06511e-05
4.40494e-06
2.24631e-05
7.20996e-06
8.90049e-06
7.21021e-06
2.24646e-05
1.85001e-05
1.84928e-05
1.21173e-05
3.57633e-06
4.42411e-06
1.06558e-05
4.41886e-06
1.06527e-05
1.21205e-05
2.24741e-05
7.20599e-06
8.90054e-06
2.24725e-05
7.20635e-06
1.21169e-05
3.55839e-06
4.39886e-06
1.06485e-05
1.21137e-05
4.40467e-06
1.06515e-05
2.24631e-05
7.20969e-06
8.90174e-06
7.20969e-06
2.24647e-05
1.85006e-05
1.84933e-05
9.72654e-06
2.19518e-05
2.19513e-05
2.19515e-05
2.19511e-05
9.72539e-06
3.89039e-06
1.8374e-06
9.00507e-06
5.0963e-06
3.88537e-06
1.84414e-06
9.01043e-06
3.89892e-06
1.839e-06
9.00982e-06
5.09792e-06
3.89187e-06
1.84579e-06
9.01541e-06
9.72382e-06
2.19617e-05
2.19613e-05
9.72476e-06
2.1962e-05
2.19616e-05
3.90533e-06
9.01862e-06
5.10569e-06
1.8671e-06
1.8607e-06
9.01354e-06
3.9093e-06
3.9111e-06
9.02363e-06
5.10785e-06
1.86867e-06
1.86217e-06
9.0183e-06
3.91824e-06
1.85307e-05
1.85228e-05
1.85337e-05
1.8526e-05
9.71761e-06
2.19933e-05
2.19928e-05
2.19929e-05
2.19924e-05
9.71728e-06
3.80568e-06
1.73996e-06
8.96789e-06
5.04734e-06
3.80005e-06
8.97405e-06
1.74735e-06
3.81258e-06
1.74168e-06
8.97299e-06
5.04773e-06
3.80712e-06
8.97946e-06
1.74876e-06
9.71418e-06
2.20033e-05
2.20028e-05
9.71435e-06
2.20037e-05
2.20031e-05
3.82278e-06
8.9835e-06
5.05607e-06
1.77225e-06
8.9776e-06
3.82818e-06
1.76494e-06
3.82975e-06
8.98892e-06
5.0593e-06
1.77373e-06
8.98273e-06
3.83519e-06
1.76668e-06
1.8506e-05
1.85135e-05
1.85091e-05
1.85166e-05
9.71989e-06
2.19826e-05
2.19821e-05
9.7205e-06
2.19827e-05
2.19824e-05
3.86558e-06
1.82068e-06
5.0815e-06
9.00158e-06
8.99601e-06
1.81345e-06
3.87039e-06
3.87265e-06
1.82203e-06
5.08496e-06
9.00698e-06
9.00138e-06
1.81534e-06
3.87751e-06
3.84954e-06
8.98698e-06
1.78943e-06
5.07349e-06
3.84463e-06
8.99278e-06
1.79665e-06
3.8566e-06
8.99212e-06
1.7912e-06
5.0743e-06
3.85162e-06
8.99817e-06
1.79804e-06
9.72296e-06
2.19722e-05
2.19721e-05
2.19719e-05
2.19718e-05
9.72219e-06
1.21037e-05
3.45801e-06
1.06411e-05
4.33915e-06
1.06393e-05
4.33134e-06
1.21066e-05
2.25125e-05
7.18304e-06
8.88611e-06
2.25106e-05
7.18529e-06
1.21035e-05
3.43489e-06
1.06377e-05
4.30628e-06
1.06392e-05
1.21007e-05
4.31463e-06
2.25014e-05
7.191e-06
8.88746e-06
7.18989e-06
2.25031e-05
1.21098e-05
1.06416e-05
4.3555e-06
3.49905e-06
1.21067e-05
1.06439e-05
4.36232e-06
2.24822e-05
8.89406e-06
7.2021e-06
2.24837e-05
7.20253e-06
2.24933e-05
7.19783e-06
8.89285e-06
2.24916e-05
7.19799e-06
1.21101e-05
3.52017e-06
1.06472e-05
4.38425e-06
1.21132e-05
1.06445e-05
4.37786e-06
1.21099e-05
1.06415e-05
4.35503e-06
3.49906e-06
1.21069e-05
1.06438e-05
4.36253e-06
2.24826e-05
8.89436e-06
7.20105e-06
7.20043e-06
2.24841e-05
2.24937e-05
7.19494e-06
8.8931e-06
2.2492e-05
7.1964e-06
1.21103e-05
3.52018e-06
1.06471e-05
4.38459e-06
1.06444e-05
4.37732e-06
1.21134e-05
9.71761e-06
2.19931e-05
2.19932e-05
2.19926e-05
2.19928e-05
9.71732e-06
3.81416e-06
5.04726e-06
8.97949e-06
1.74899e-06
3.80683e-06
5.04572e-06
1.74789e-06
8.97482e-06
9.71417e-06
2.20035e-05
2.20037e-05
3.82873e-06
8.98898e-06
5.05914e-06
1.77377e-06
8.98203e-06
1.76674e-06
3.83659e-06
3.82156e-06
8.98427e-06
5.05752e-06
1.77261e-06
1.76435e-06
8.97735e-06
3.82913e-06
1.85315e-05
1.85238e-05
1.85089e-05
1.85164e-05
9.72004e-06
2.19824e-05
2.19825e-05
9.72055e-06
2.19828e-05
2.19829e-05
3.87164e-06
1.82217e-06
5.08467e-06
9.00701e-06
1.81536e-06
9.00059e-06
3.87898e-06
3.86448e-06
1.82108e-06
5.08337e-06
9.00236e-06
8.99578e-06
1.81265e-06
3.87135e-06
3.85833e-06
8.99149e-06
1.79125e-06
5.07399e-06
1.79836e-06
3.85064e-06
8.99818e-06
3.85093e-06
8.98674e-06
1.78892e-06
5.07228e-06
3.84345e-06
8.99343e-06
1.79712e-06
9.72304e-06
2.19723e-05
2.19726e-05
2.19721e-05
2.19722e-05
9.72231e-06
1.85068e-05
1.85143e-05
1.21039e-05
3.458e-06
1.06415e-05
4.33906e-06
1.06397e-05
4.33126e-06
1.21068e-05
2.25114e-05
7.18394e-06
8.88671e-06
2.25096e-05
7.18413e-06
1.21037e-05
3.43497e-06
1.06382e-05
4.30626e-06
1.06397e-05
1.2101e-05
4.31453e-06
2.25002e-05
7.18934e-06
8.88802e-06
7.18962e-06
2.25019e-05
1.211e-05
4.35531e-06
1.0642e-05
3.4998e-06
1.21069e-05
4.36205e-06
1.06443e-05
2.24819e-05
8.89525e-06
7.20227e-06
2.24836e-05
7.20164e-06
2.2493e-05
7.19671e-06
8.89401e-06
2.24913e-05
7.19761e-06
1.21103e-05
3.5195e-06
4.38387e-06
1.06477e-05
1.21134e-05
4.37767e-06
1.06449e-05
1.21101e-05
1.06419e-05
4.35492e-06
3.49899e-06
1.2107e-05
1.06442e-05
4.36248e-06
2.24814e-05
8.89483e-06
7.1998e-06
7.20022e-06
2.24829e-05
2.24925e-05
7.19562e-06
8.89357e-06
2.24908e-05
7.19586e-06
1.21104e-05
3.52015e-06
1.06475e-05
4.3844e-06
1.06448e-05
4.37717e-06
1.21135e-05
1.21035e-05
3.4574e-06
4.3395e-06
1.06415e-05
4.33072e-06
1.06398e-05
1.21063e-05
2.24995e-05
7.19192e-06
8.88786e-06
7.19065e-06
2.25015e-05
1.21035e-05
3.45804e-06
1.06412e-05
4.33916e-06
1.06394e-05
4.33096e-06
1.21064e-05
2.24997e-05
7.19032e-06
8.88759e-06
7.19026e-06
2.25014e-05
1.21096e-05
4.35463e-06
1.06419e-05
3.49919e-06
1.21066e-05
4.36258e-06
1.06442e-05
2.24806e-05
8.89458e-06
7.20182e-06
7.20133e-06
2.24825e-05
2.2492e-05
7.19638e-06
8.8933e-06
2.249e-05
7.19715e-06
1.21099e-05
3.51987e-06
4.38465e-06
1.06475e-05
4.37699e-06
1.06447e-05
1.2113e-05
1.21097e-05
1.06416e-05
4.35482e-06
3.49884e-06
1.21067e-05
1.06439e-05
4.36225e-06
2.24809e-05
8.89434e-06
7.20044e-06
7.20045e-06
2.24825e-05
2.2492e-05
7.19512e-06
8.8931e-06
2.24903e-05
7.19507e-06
1.211e-05
3.52022e-06
1.06472e-05
4.38425e-06
1.06444e-05
4.3773e-06
1.21131e-05
9.71727e-06
2.19926e-05
2.19928e-05
2.19923e-05
2.19924e-05
9.71692e-06
3.81274e-06
1.74169e-06
8.97252e-06
5.04756e-06
8.97907e-06
3.80699e-06
1.749e-06
3.80576e-06
1.73995e-06
8.96784e-06
5.04599e-06
1.74743e-06
3.7999e-06
8.97425e-06
9.7138e-06
2.20025e-05
2.20027e-05
2.20029e-05
9.7139e-06
2.20031e-05
3.82975e-06
8.98853e-06
5.05904e-06
1.77378e-06
8.98227e-06
1.76672e-06
3.83516e-06
3.82261e-06
8.98368e-06
5.0575e-06
1.77239e-06
1.76495e-06
8.97753e-06
3.82821e-06
1.85318e-05
1.85241e-05
1.85096e-05
1.85171e-05
9.71958e-06
2.1982e-05
2.19821e-05
9.72017e-06
2.19823e-05
2.19825e-05
3.87269e-06
1.82216e-06
5.08476e-06
9.00657e-06
1.8154e-06
9.0009e-06
3.87756e-06
3.86555e-06
1.82063e-06
5.08327e-06
9.00182e-06
8.99612e-06
1.81356e-06
3.8706e-06
3.85671e-06
8.99165e-06
1.79125e-06
5.07411e-06
1.7983e-06
3.85159e-06
8.99775e-06
3.84964e-06
8.98696e-06
1.78953e-06
5.07254e-06
3.84448e-06
8.99296e-06
1.79658e-06
9.72267e-06
2.1972e-05
2.19721e-05
2.19717e-05
2.19719e-05
9.72187e-06
1.85073e-05
1.85148e-05
1.21035e-05
3.45816e-06
4.33895e-06
1.06415e-05
4.33163e-06
1.06397e-05
1.21064e-05
2.25109e-05
7.18519e-06
8.88661e-06
7.18504e-06
2.25091e-05
1.21032e-05
3.43508e-06
4.30661e-06
1.06382e-05
4.31431e-06
1.21005e-05
1.06396e-05
2.24998e-05
7.1916e-06
8.88793e-06
7.19123e-06
2.25016e-05
1.21039e-05
3.45828e-06
4.33901e-06
1.06415e-05
4.33142e-06
1.06397e-05
1.21068e-05
2.25119e-05
7.18401e-06
8.88685e-06
2.25101e-05
7.18443e-06
1.21037e-05
3.43494e-06
4.30636e-06
1.06382e-05
1.2101e-05
4.31451e-06
1.06396e-05
2.25007e-05
7.18962e-06
8.88813e-06
7.18974e-06
2.25025e-05
1.21097e-05
4.35534e-06
1.06419e-05
3.49894e-06
1.21066e-05
4.36201e-06
1.06441e-05
2.24811e-05
8.89477e-06
7.20152e-06
7.2018e-06
2.24827e-05
2.24922e-05
7.19651e-06
8.89351e-06
2.24905e-05
7.19639e-06
1.211e-05
3.52032e-06
4.38404e-06
1.06475e-05
4.37771e-06
1.06447e-05
1.21131e-05
1.21101e-05
4.35507e-06
1.06418e-05
3.49893e-06
1.2107e-05
4.3623e-06
1.06441e-05
2.24819e-05
8.89494e-06
7.20041e-06
7.20039e-06
2.24836e-05
2.24931e-05
7.19562e-06
8.89373e-06
2.24913e-05
7.19565e-06
1.21104e-05
3.52036e-06
4.38428e-06
1.06475e-05
4.37738e-06
1.06447e-05
1.21135e-05
1.85322e-05
1.85246e-05
1.85343e-05
1.85267e-05
9.71958e-06
2.19823e-05
2.19818e-05
9.72014e-06
2.19826e-05
2.19822e-05
3.86485e-06
1.82085e-06
5.08306e-06
9.00186e-06
3.8718e-06
1.81367e-06
8.99631e-06
3.87178e-06
1.82237e-06
5.08477e-06
9.00682e-06
3.879e-06
1.81536e-06
9.00107e-06
3.85124e-06
8.98714e-06
1.78961e-06
5.07244e-06
3.84461e-06
1.7969e-06
8.99305e-06
3.85814e-06
8.99189e-06
1.7913e-06
5.07425e-06
3.8515e-06
1.79835e-06
8.998e-06
9.72263e-06
2.19723e-05
2.19719e-05
9.72189e-06
2.1972e-05
2.19716e-05
1.85078e-05
1.85152e-05
1.85098e-05
1.85173e-05
1.84972e-05
1.84899e-05
1.85001e-05
1.84929e-05
9.72681e-06
2.19518e-05
2.19518e-05
2.19514e-05
2.19514e-05
9.72573e-06
3.89024e-06
1.83701e-06
9.00475e-06
5.09757e-06
3.88566e-06
9.01015e-06
1.84426e-06
3.89729e-06
1.83893e-06
9.01007e-06
5.0981e-06
3.89276e-06
9.01558e-06
1.84542e-06
9.72412e-06
2.19616e-05
2.19615e-05
9.72507e-06
2.19619e-05
2.19618e-05
3.90525e-06
9.01837e-06
5.1046e-06
1.86732e-06
9.01328e-06
3.90883e-06
1.86015e-06
3.91237e-06
9.02381e-06
5.10752e-06
1.86839e-06
9.01862e-06
3.91594e-06
1.86213e-06
1.21173e-05
3.57726e-06
1.06558e-05
4.42494e-06
1.06518e-05
4.41824e-06
1.21205e-05
2.24746e-05
7.20445e-06
8.89965e-06
2.24731e-05
7.20498e-06
1.2117e-05
3.55759e-06
1.06479e-05
4.39845e-06
1.06511e-05
1.21138e-05
4.40525e-06
2.24636e-05
7.20832e-06
8.90082e-06
7.2083e-06
2.24651e-05
9.72688e-06
2.19516e-05
2.1952e-05
2.19513e-05
2.19517e-05
9.72582e-06
3.89893e-06
1.83888e-06
9.00929e-06
5.0978e-06
9.01544e-06
3.89187e-06
1.84637e-06
3.88992e-06
1.83656e-06
9.00461e-06
5.09606e-06
1.84456e-06
3.88516e-06
9.01094e-06
9.72423e-06
2.19616e-05
2.1962e-05
2.19619e-05
9.7251e-06
2.19623e-05
3.91091e-06
9.02377e-06
5.10725e-06
1.86999e-06
9.0177e-06
1.86144e-06
3.91859e-06
3.905e-06
9.01926e-06
5.10647e-06
1.86759e-06
1.85969e-06
9.0131e-06
3.909e-06
1.84978e-05
1.84905e-05
1.21173e-05
3.57694e-06
1.06556e-05
4.42512e-06
1.06525e-05
4.41798e-06
1.21205e-05
2.24734e-05
7.20455e-06
8.90008e-06
2.24719e-05
7.20456e-06
1.2117e-05
3.55786e-06
1.06483e-05
4.39834e-06
1.06514e-05
1.21138e-05
4.40521e-06
2.24624e-05
7.20779e-06
8.9013e-06
7.20805e-06
2.24639e-05
1.21168e-05
3.57646e-06
4.42524e-06
1.06561e-05
4.41783e-06
1.0652e-05
1.212e-05
2.24729e-05
7.20569e-06
8.89981e-06
7.20582e-06
2.2471e-05
1.21164e-05
3.55816e-06
4.39821e-06
1.06482e-05
4.4052e-06
1.21133e-05
1.06515e-05
2.24615e-05
7.20925e-06
8.90104e-06
7.2094e-06
2.24633e-05
1.2117e-05
3.57647e-06
1.06558e-05
4.42447e-06
1.06517e-05
4.4185e-06
1.21202e-05
2.2473e-05
7.20422e-06
8.89963e-06
2.24714e-05
7.20391e-06
1.21166e-05
3.55814e-06
1.06479e-05
4.39847e-06
1.21135e-05
1.06512e-05
4.4048e-06
2.2462e-05
7.20774e-06
8.90083e-06
7.20797e-06
2.24635e-05
9.72652e-06
2.19514e-05
2.19516e-05
2.19512e-05
2.19513e-05
9.72535e-06
3.89745e-06
1.83888e-06
9.00962e-06
5.09784e-06
9.01514e-06
3.8928e-06
1.84591e-06
3.89156e-06
1.83715e-06
9.00481e-06
5.0963e-06
1.84456e-06
3.88535e-06
9.0104e-06
9.72378e-06
2.19614e-05
2.19616e-05
2.19617e-05
9.72477e-06
2.19618e-05
3.91234e-06
9.02337e-06
5.10782e-06
1.86889e-06
9.01816e-06
1.86206e-06
3.91624e-06
3.90402e-06
9.01865e-06
5.10634e-06
1.86814e-06
1.8598e-06
9.01333e-06
3.91151e-06
1.84984e-05
1.84911e-05
1.2117e-05
3.57673e-06
4.42439e-06
1.06561e-05
4.41875e-06
1.06521e-05
1.21202e-05
2.24733e-05
7.20576e-06
8.90006e-06
7.20565e-06
2.24717e-05
1.21166e-05
3.55806e-06
4.39886e-06
1.06482e-05
4.40482e-06
1.21135e-05
1.06515e-05
2.24623e-05
7.20924e-06
8.90128e-06
7.20939e-06
2.24637e-05
1.21174e-05
3.57669e-06
4.42495e-06
1.06561e-05
4.41819e-06
1.0652e-05
1.21206e-05
2.24741e-05
7.20447e-06
8.90028e-06
2.24725e-05
7.20474e-06
1.2117e-05
3.55806e-06
4.39851e-06
1.06482e-05
1.21138e-05
4.40512e-06
1.06515e-05
2.2463e-05
7.20825e-06
8.90146e-06
7.20799e-06
2.24646e-05
1.84988e-05
1.84916e-05
1.85008e-05
1.84936e-05
1.27762e-07
1.2776e-07
1.39265e-07
1.26356e-07
1.26354e-07
1.21063e-07
1.22602e-07
1.54923e-06
3.14719e-07
6.54609e-07
6.54937e-07
1.22376e-07
1.22374e-07
1.35663e-07
1.21125e-07
1.21123e-07
1.15233e-07
1.16644e-07
1.64878e-06
7.08019e-07
7.08183e-07
3.34396e-07
1.64074e-06
7.1093e-07
7.11499e-07
1.54861e-06
6.51515e-07
6.51829e-07
3.15078e-07
1.54216e-06
6.54401e-07
6.54565e-07
1.61725e-06
3.28921e-07
6.96624e-07
6.9669e-07
6.93535e-07
6.93907e-07
1.6233e-06
1.54972e-06
3.14819e-07
6.55629e-07
6.54659e-07
1.61627e-06
3.29359e-07
6.96764e-07
6.97802e-07
6.93954e-07
6.92434e-07
1.62459e-06
1.54924e-06
6.51114e-07
6.51494e-07
3.15112e-07
6.54633e-07
1.54182e-06
6.55559e-07
1.61703e-06
3.29079e-07
6.97554e-07
6.96703e-07
6.92915e-07
6.93521e-07
1.62372e-06
1.6165e-06
3.29378e-07
6.96667e-07
6.97127e-07
1.62473e-06
6.93627e-07
6.93842e-07
1.64822e-06
7.07859e-07
7.08148e-07
3.34905e-07
1.64128e-06
7.11052e-07
7.12164e-07
1.64839e-06
7.08171e-07
7.07054e-07
3.34681e-07
7.12245e-07
1.6406e-06
7.12188e-07
1.64819e-06
7.07754e-07
7.07887e-07
3.35058e-07
7.11136e-07
1.64117e-06
7.11082e-07
1.27762e-07
1.27756e-07
1.39265e-07
1.26356e-07
1.26351e-07
1.21063e-07
1.22601e-07
1.27765e-07
1.27761e-07
1.39271e-07
1.26359e-07
1.26355e-07
1.21064e-07
1.22602e-07
1.27761e-07
1.27762e-07
1.39268e-07
1.26355e-07
1.26355e-07
1.21064e-07
1.22602e-07
1.38284e-07
1.23664e-07
1.23662e-07
1.24991e-07
1.2499e-07
1.19558e-07
1.18085e-07
1.38284e-07
1.23663e-07
1.23659e-07
1.24991e-07
1.24985e-07
1.19558e-07
1.18085e-07
1.3829e-07
1.23667e-07
1.23663e-07
1.24995e-07
1.24991e-07
1.19559e-07
1.18086e-07
1.38287e-07
1.23663e-07
1.23663e-07
1.2499e-07
1.24991e-07
1.19559e-07
1.18085e-07
4.11899e-07
9.81966e-07
1.29443e-06
3.38225e-07
1.28702e-06
3.3769e-07
4.1409e-07
5.77431e-07
1.92422e-06
2.65595e-06
8.8747e-07
8.83813e-07
1.91857e-06
5.78232e-07
4.12858e-07
9.82126e-07
3.38316e-07
1.29421e-06
3.37755e-07
1.28771e-06
4.13016e-07
5.68223e-07
8.67612e-07
1.89443e-06
2.63856e-06
5.67393e-07
8.71043e-07
1.901e-06
4.05945e-07
9.67314e-07
3.32494e-07
1.26435e-06
4.05898e-07
3.33056e-07
1.27101e-06
5.77351e-07
1.92465e-06
2.65595e-06
8.88143e-07
8.83808e-07
1.91849e-06
5.7829e-07
1.5675e-06
3.19391e-07
6.68401e-07
6.68661e-07
6.65434e-07
6.65717e-07
1.57435e-06
1.22376e-07
1.2237e-07
1.35664e-07
1.21125e-07
1.2112e-07
1.15233e-07
1.16643e-07
1.2238e-07
1.22376e-07
1.35671e-07
1.21129e-07
1.21124e-07
1.15234e-07
1.16645e-07
1.22375e-07
1.22376e-07
1.35668e-07
1.21124e-07
1.21125e-07
1.15233e-07
1.16644e-07
4.43112e-07
1.06598e-06
1.38583e-06
3.61148e-07
1.37913e-06
3.60522e-07
4.44914e-07
6.10216e-07
9.32957e-07
1.98808e-06
2.72517e-06
6.09276e-07
9.37385e-07
1.99378e-06
4.36773e-07
1.05108e-06
1.35624e-06
3.54295e-07
4.34411e-07
1.36345e-06
3.55036e-07
6.20382e-07
2.01728e-06
2.74124e-06
9.54378e-07
9.49787e-07
2.01e-06
6.2085e-07
4.44094e-07
1.0662e-06
3.62185e-07
1.38609e-06
3.60369e-07
1.37963e-06
4.43579e-07
6.11242e-07
9.33297e-07
1.9879e-06
2.7253e-06
6.08104e-07
9.37196e-07
1.99401e-06
4.35685e-07
1.05097e-06
3.54355e-07
1.35678e-06
4.35498e-07
3.55183e-07
1.36341e-06
6.19539e-07
2.01666e-06
2.7406e-06
9.54601e-07
9.49885e-07
2.01024e-06
6.20373e-07
1.66461e-06
3.40324e-07
7.25322e-07
7.25991e-07
7.22846e-07
7.2293e-07
1.67293e-06
1.56734e-06
3.1905e-07
6.68464e-07
6.68614e-07
1.57433e-06
6.65401e-07
6.65784e-07
1.59922e-06
3.24483e-07
6.79398e-07
6.79753e-07
1.59229e-06
6.82451e-07
6.8262e-07
4.11854e-07
9.81419e-07
1.29477e-06
3.38866e-07
1.28698e-06
3.37192e-07
4.14115e-07
5.69279e-07
8.67434e-07
1.89488e-06
2.63842e-06
1.90063e-06
5.66231e-07
8.71489e-07
4.06909e-07
9.67689e-07
1.26374e-06
3.32008e-07
1.27158e-06
4.04777e-07
3.33581e-07
5.76379e-07
1.92461e-06
2.65595e-06
8.87942e-07
1.91891e-06
8.83759e-07
5.79313e-07
4.12288e-07
9.81801e-07
1.29384e-06
3.38803e-07
1.28766e-06
3.3717e-07
4.12592e-07
5.68176e-07
8.68083e-07
1.89449e-06
2.63877e-06
5.67466e-07
1.9003e-06
8.71488e-07
4.05785e-07
9.67228e-07
1.26415e-06
3.3199e-07
4.04977e-07
1.27055e-06
3.33536e-07
5.77404e-07
1.92414e-06
2.65654e-06
8.87845e-07
1.91845e-06
5.78215e-07
8.8434e-07
4.21514e-07
1.31025e-06
3.42491e-07
1.00921e-06
4.19304e-07
1.31787e-06
3.44189e-07
5.97249e-07
9.20723e-07
2.69963e-06
1.97108e-06
9.16518e-07
1.96573e-06
6.0024e-07
5.89832e-07
1.94247e-06
9.00166e-07
2.6832e-06
9.04143e-07
5.86685e-07
1.94823e-06
4.26667e-07
1.02335e-06
1.34121e-06
3.49867e-07
1.33332e-06
3.48023e-07
4.28875e-07
4.20112e-07
1.31065e-06
3.42457e-07
1.00882e-06
4.19918e-07
1.31703e-06
3.44122e-07
5.98283e-07
9.20805e-07
2.70012e-06
1.97073e-06
1.96528e-06
9.17227e-07
5.99195e-07
5.88442e-07
1.94193e-06
9.00652e-07
2.68358e-06
5.87695e-07
1.94793e-06
9.0455e-07
4.27393e-07
1.02369e-06
1.34006e-06
3.49803e-07
1.33375e-06
3.47992e-07
4.27707e-07
1.56652e-06
3.19428e-07
6.68472e-07
6.69455e-07
6.64404e-07
6.65783e-07
1.57554e-06
1.59981e-06
3.24236e-07
6.79757e-07
6.78553e-07
6.82618e-07
1.59131e-06
6.83299e-07
4.12473e-07
9.82114e-07
1.2942e-06
3.38336e-07
1.28767e-06
3.3779e-07
4.12807e-07
5.68293e-07
8.67775e-07
1.89488e-06
2.63889e-06
1.90081e-06
5.67525e-07
8.71737e-07
4.06021e-07
9.6723e-07
1.26443e-06
3.32526e-07
1.27097e-06
4.05897e-07
3.33065e-07
5.77454e-07
1.92457e-06
2.65644e-06
8.88246e-07
1.91879e-06
8.84175e-07
5.78329e-07
4.11903e-07
9.82187e-07
3.38278e-07
1.29418e-06
3.37745e-07
1.28774e-06
4.14145e-07
5.694e-07
8.68095e-07
1.89438e-06
2.6391e-06
5.66251e-07
1.90097e-06
8.71654e-07
4.0694e-07
9.67137e-07
3.32446e-07
1.26441e-06
4.04837e-07
3.33023e-07
1.27085e-06
5.76394e-07
1.92507e-06
2.65654e-06
8.87895e-07
1.91832e-06
5.79403e-07
8.84357e-07
4.20351e-07
1.31087e-06
3.43042e-07
1.00888e-06
4.20122e-07
1.31706e-06
3.43639e-07
5.98325e-07
9.21005e-07
2.7001e-06
1.97143e-06
9.16889e-07
1.96541e-06
5.99303e-07
5.88544e-07
1.94226e-06
9.0055e-07
2.68372e-06
9.04393e-07
5.87749e-07
1.9486e-06
4.27505e-07
1.02381e-06
1.34019e-06
3.49235e-07
1.33396e-06
3.48621e-07
4.27794e-07
4.2154e-07
3.43013e-07
1.3108e-06
1.00873e-06
4.19344e-07
3.43613e-07
1.3173e-06
5.97207e-07
9.20753e-07
2.70029e-06
1.97111e-06
1.96505e-06
9.17401e-07
6.00471e-07
5.89943e-07
1.94201e-06
9.00699e-07
2.68377e-06
5.86696e-07
1.94815e-06
9.04734e-07
4.26685e-07
1.02395e-06
3.49197e-07
1.34023e-06
3.4858e-07
1.33388e-06
4.28895e-07
4.12724e-07
9.8112e-07
3.38181e-07
1.29384e-06
3.37669e-07
1.28764e-06
4.12667e-07
5.7728e-07
1.92442e-06
2.65615e-06
8.87482e-07
8.84091e-07
1.91818e-06
5.7821e-07
4.21497e-07
1.31023e-06
3.42936e-07
1.00884e-06
4.19349e-07
1.31772e-06
3.43555e-07
5.98288e-07
9.20684e-07
2.69964e-06
1.97067e-06
5.99349e-07
9.1642e-07
1.96535e-06
5.88517e-07
1.94197e-06
8.99974e-07
2.68295e-06
5.87695e-07
9.04218e-07
1.94774e-06
4.26704e-07
1.02359e-06
1.34081e-06
3.49068e-07
4.28737e-07
1.33317e-06
3.48469e-07
4.20316e-07
3.42927e-07
1.3107e-06
1.00926e-06
4.1999e-07
3.43543e-07
1.31705e-06
5.98295e-07
9.20452e-07
2.6993e-06
1.97088e-06
1.9651e-06
9.16977e-07
5.99291e-07
5.8844e-07
1.94188e-06
9.00241e-07
2.68349e-06
5.87655e-07
1.94747e-06
9.04055e-07
4.27457e-07
1.02323e-06
3.49156e-07
1.34005e-06
3.48536e-07
1.33379e-06
4.27739e-07
1.56727e-06
3.19083e-07
6.69486e-07
6.68699e-07
6.65441e-07
6.65016e-07
1.57431e-06
1.59917e-06
3.24608e-07
6.79009e-07
6.79424e-07
6.83415e-07
1.59218e-06
6.82466e-07
4.12634e-07
9.82149e-07
3.38318e-07
1.29456e-06
3.37779e-07
1.28726e-06
4.12857e-07
5.68313e-07
8.67808e-07
1.89433e-06
2.63911e-06
8.7196e-07
5.67478e-07
1.90083e-06
4.06353e-07
9.67314e-07
3.32548e-07
1.26404e-06
3.33088e-07
4.06216e-07
1.27134e-06
5.77405e-07
1.92487e-06
2.65658e-06
8.88419e-07
8.84179e-07
1.91829e-06
5.78359e-07
4.205e-07
3.42991e-07
1.31081e-06
1.00901e-06
4.20262e-07
3.43643e-07
1.31733e-06
5.97329e-07
9.20873e-07
2.69966e-06
1.97145e-06
6.00262e-07
9.16445e-07
1.96505e-06
5.89589e-07
1.94209e-06
9.00245e-07
2.6832e-06
5.87484e-07
9.03895e-07
1.94826e-06
4.27623e-07
1.02384e-06
3.49161e-07
1.34063e-06
4.28043e-07
3.48558e-07
1.33371e-06
4.20572e-07
3.43038e-07
1.31042e-06
1.00874e-06
4.20271e-07
3.43626e-07
1.31784e-06
5.98262e-07
9.213e-07
2.70029e-06
1.97108e-06
1.96504e-06
9.16907e-07
5.99353e-07
5.88568e-07
1.94195e-06
9.00576e-07
2.68388e-06
5.87706e-07
1.94799e-06
9.0469e-07
4.27623e-07
1.02393e-06
3.49261e-07
1.341e-06
3.48639e-07
1.33333e-06
4.27925e-07
1.60006e-06
3.24065e-07
6.79415e-07
6.79715e-07
1.59243e-06
6.82576e-07
6.82901e-07
1.66543e-06
3.39615e-07
7.25499e-07
7.26486e-07
1.67081e-06
7.22468e-07
7.22059e-07
4.42959e-07
1.06568e-06
1.38555e-06
3.62073e-07
1.37965e-06
3.59841e-07
4.44751e-07
6.09802e-07
9.3318e-07
1.9883e-06
2.72682e-06
1.99402e-06
6.08625e-07
9.37447e-07
4.36647e-07
1.05131e-06
1.35634e-06
3.53921e-07
1.36327e-06
4.34348e-07
3.55676e-07
6.20232e-07
2.01638e-06
2.73983e-06
9.54359e-07
2.01068e-06
9.49829e-07
6.20841e-07
4.43704e-07
1.0662e-06
1.38709e-06
3.62001e-07
1.37889e-06
3.59797e-07
4.43306e-07
6.10145e-07
9.33574e-07
1.98776e-06
2.72727e-06
6.09122e-07
1.99454e-06
9.37933e-07
4.35205e-07
1.05083e-06
1.35667e-06
3.53857e-07
4.35028e-07
1.36348e-06
3.5563e-07
6.20389e-07
2.01687e-06
2.74031e-06
9.54871e-07
2.00949e-06
6.20852e-07
9.50317e-07
1.66432e-06
3.40127e-07
7.26908e-07
7.27137e-07
7.21379e-07
7.22019e-07
1.6728e-06
4.43784e-07
1.06605e-06
1.3856e-06
3.62002e-07
1.37988e-06
3.60138e-07
4.43375e-07
6.10159e-07
9.33564e-07
1.98809e-06
2.72721e-06
1.99422e-06
6.09218e-07
9.38365e-07
4.35256e-07
1.05125e-06
1.35695e-06
3.54453e-07
1.36304e-06
4.35134e-07
3.5542e-07
6.20475e-07
2.01604e-06
2.74038e-06
9.54916e-07
2.01074e-06
9.49695e-07
6.20869e-07
4.42976e-07
1.06627e-06
3.62026e-07
1.38594e-06
3.60126e-07
1.37968e-06
4.44788e-07
6.11628e-07
9.33781e-07
1.9879e-06
2.72593e-06
6.08228e-07
1.99398e-06
9.37915e-07
4.36696e-07
1.05108e-06
3.54438e-07
1.35688e-06
4.34366e-07
3.55389e-07
1.36329e-06
6.18919e-07
2.01625e-06
2.74178e-06
9.55451e-07
2.01031e-06
6.23016e-07
9.50201e-07
4.43679e-07
1.06578e-06
3.61915e-07
1.38547e-06
3.60059e-07
1.37973e-06
4.4329e-07
6.10036e-07
9.33446e-07
1.98785e-06
2.72693e-06
9.37159e-07
6.09059e-07
1.99372e-06
4.35182e-07
1.05116e-06
3.54355e-07
1.35675e-06
3.55336e-07
4.35012e-07
1.36301e-06
6.19895e-07
2.0173e-06
2.73998e-06
9.53616e-07
9.50322e-07
2.00966e-06
6.23007e-07
1.66513e-06
3.39767e-07
7.2585e-07
7.25845e-07
7.22378e-07
7.22746e-07
1.67144e-06
4.43824e-07
1.06611e-06
3.61233e-07
1.38739e-06
3.60579e-07
1.37858e-06
4.43455e-07
6.10148e-07
9.33573e-07
1.98793e-06
2.726e-06
9.3804e-07
6.09173e-07
1.99364e-06
4.35348e-07
1.05114e-06
3.54447e-07
1.35628e-06
3.55205e-07
4.35178e-07
1.36406e-06
6.20425e-07
2.01611e-06
2.74174e-06
9.54862e-07
9.50289e-07
2.01026e-06
6.20897e-07
4.99174e-07
4.99984e-07
4.99985e-07
4.99924e-07
4.45589e-07
4.54244e-07
4.54256e-07
4.64011e-07
4.03811e-07
4.18886e-07
4.18905e-07
4.39729e-07
3.68432e-07
3.88816e-07
3.88828e-07
4.17831e-07
3.38077e-07
3.62266e-07
3.62275e-07
3.95968e-07
3.11692e-07
3.38351e-07
3.38358e-07
3.74312e-07
2.885e-07
3.16645e-07
3.16645e-07
3.53304e-07
2.67932e-07
2.96969e-07
2.96964e-07
3.3365e-07
2.4957e-07
2.79264e-07
2.79259e-07
3.15828e-07
2.33109e-07
2.63528e-07
2.63524e-07
3.00372e-07
2.18321e-07
2.49767e-07
2.49764e-07
2.87648e-07
2.0503e-07
2.37976e-07
2.37974e-07
2.77869e-07
1.93097e-07
2.28157e-07
2.28157e-07
2.7117e-07
1.82408e-07
2.20315e-07
2.20318e-07
2.67542e-07
1.72875e-07
2.14452e-07
2.14458e-07
2.66997e-07
1.64422e-07
2.1058e-07
2.1059e-07
2.69821e-07
1.56986e-07
2.08707e-07
2.0872e-07
2.76144e-07
1.50514e-07
2.0884e-07
2.08856e-07
2.85825e-07
1.44963e-07
2.11039e-07
2.1106e-07
2.98722e-07
2.15312e-07
3.1477e-07
5.06196e-07
5.05571e-07
5.05573e-07
5.06209e-07
5.05571e-07
5.05569e-07
5.05986e-07
5.05986e-07
5.05986e-07
5.05983e-07
5.05574e-07
5.05562e-07
5.06197e-07
5.05572e-07
5.0556e-07
5.06189e-07
4.99893e-07
4.67426e-07