/*--------------------------------*- C++ -*----------------------------------*\
| =========                 |                                                 |
| \\      /  F ield         | OpenFOAM: The Open Source CFD Toolbox           |
|  \\    /   O peration     | Version:  2312                                  |
|   \\  /    A nd           | Website:  www.openfoam.com                      |
|    \\/     M anipulation  |                                                 |
\*---------------------------------------------------------------------------*/
FoamFile
{
    version     2.0;
    format      ascii;
    arch        "LSB;label=32;scalar=64";
    class       volVectorField;
    location    "250";
    object      U;
}
// * * * * * * * * * * * * * * * * * * * * * * * * * * * * * * * * * * * * * //

dimensions      [0 1 -1 0 0 0 0];

internalField   nonuniform List<vector> 
43168
(
(-7.78641e-07 -6.98843e-07 0.113191)
(-5.90657e-07 5.09424e-07 0.107845)
(5.96463e-07 -4.17382e-07 0.107847)
(-3.59806e-05 -3.57674e-05 0.104318)
(-3.83452e-05 -3.83449e-05 0.104462)
(7.49647e-07 4.68054e-07 0.107843)
(-8.59111e-07 4.83749e-07 0.107842)
(3.813e-05 -3.84033e-05 0.104464)
(3.9276e-07 7.21957e-07 0.107844)
(4.65391e-07 -7.24097e-07 0.107842)
(-5.39358e-07 5.41216e-07 0.107845)
(-6.0491e-07 -7.17906e-07 0.10784)
(-3.84114e-05 3.82846e-05 0.104465)
(6.27574e-07 -4.14809e-07 0.107847)
(-8.19086e-07 -4.75014e-07 0.107843)
(3.80991e-05 3.83116e-05 0.104462)
(3.5697e-05 3.56932e-05 0.104317)
(7.63782e-07 4.42053e-07 0.107843)
(-8.87122e-07 4.53582e-07 0.107841)
(-3.60097e-05 3.56394e-05 0.104318)
(3.85113e-07 7.07134e-07 0.107843)
(4.78107e-07 -7.72919e-07 0.107842)
(-6.358e-07 -7.59394e-07 0.10784)
(3.57373e-05 -3.59477e-05 0.10432)
(-8.89537e-07 -4.56709e-07 0.107843)
(-1.61213e-06 -1.03253e-05 0.0816014)
(-1.03503e-05 -1.63015e-06 0.0816022)
(-8.10087e-07 -7.09589e-07 0.113191)
(7.54634e-07 -7.22665e-07 0.113192)
(-7.88889e-07 9.01105e-07 0.113192)
(8.26429e-07 8.69436e-07 0.113191)
(-3.60019e-07 -1.25972e-05 0.0908726)
(3.80726e-07 1.093e-05 0.0815479)
(-2.40007e-07 1.17353e-05 0.0908237)
(-1.57181e-06 -1.03397e-05 0.0816039)
(-3.32467e-06 5.76821e-06 0.0708961)
(2.90412e-06 -5.88722e-06 0.0709601)
(-1.27549e-05 -2.5733e-07 0.0908715)
(1.08554e-05 4.49251e-07 0.0815484)
(1.16543e-05 -1.14339e-07 0.0908224)
(-1.03652e-05 -1.58238e-06 0.0816042)
(6.99079e-07 -7.39246e-07 0.113192)
(-7.48655e-07 7.96626e-07 0.113192)
(7.45506e-07 7.84674e-07 0.113191)
(1.989e-05 -6.53779e-07 0.0983041)
(-1.62168e-05 5.41991e-06 0.0924863)
(-4.54983e-07 -1.07343e-07 0.110455)
(-6.14681e-07 4.69528e-07 0.107844)
(-1.9078e-05 -2.61263e-07 0.0982374)
(1.50324e-05 -6.97888e-06 0.092551)
(-4.71933e-07 -1.48784e-07 0.110454)
(5.74398e-06 -3.43646e-06 0.0708967)
(-5.95584e-06 2.87835e-06 0.0709566)
(-5.96217e-07 1.99469e-05 0.0983027)
(-3.88348e-08 -3.59998e-07 0.110456)
(5.57146e-06 -1.59706e-05 0.0924856)
(5.5607e-07 -4.19883e-07 0.107847)
(-8.281e-08 -1.90245e-05 0.0982354)
(-3.90346e-08 -3.3234e-07 0.110455)
(-6.68986e-06 1.51568e-05 0.0925496)
(-7.69541e-06 -5.5669e-06 0.0869261)
(-5.92649e-06 -7.44065e-06 0.0869243)
(3.80223e-05 3.82636e-05 0.104462)
(7.15587e-06 5.82866e-06 0.0869811)
(5.5119e-06 7.36867e-06 0.0869789)
(-3.36033e-06 -5.77468e-06 0.0709523)
(-5.71636e-06 -3.42542e-06 0.0709521)
(-3.83748e-05 -3.8322e-05 0.104463)
(-5.69562e-06 -7.33898e-06 0.0869745)
(-7.27743e-06 -5.78822e-06 0.0869726)
(-3.29908e-06 -5.77159e-06 0.0709539)
(3.03666e-06 5.95373e-06 0.0708928)
(-5.69188e-06 -3.41739e-06 0.0709533)
(5.98751e-06 2.99937e-06 0.0708929)
(3.57288e-05 3.57686e-05 0.104317)
(-5.61936e-06 -7.31881e-06 0.0869757)
(-7.25783e-06 -5.77496e-06 0.0869737)
(5.69409e-06 7.47891e-06 0.0869192)
(7.57495e-06 5.5957e-06 0.0869184)
(8.25159e-07 5.44899e-07 0.107844)
(-6.511e-06 -1.53169e-05 0.092544)
(-1.80069e-07 1.16997e-05 0.0908232)
(-1.64318e-06 -1.03139e-05 0.0816027)
(4.15825e-07 1.09224e-05 0.0815466)
(-3.73416e-07 -1.26737e-05 0.090872)
(-1.09545e-07 1.17233e-05 0.0908231)
(1.19316e-06 -1.04682e-05 0.0816057)
(-7.03568e-07 1.07138e-05 0.0815484)
(-7.5556e-08 -1.26356e-05 0.0908718)
(1.09149e-07 1.89306e-05 0.0982325)
(7.81126e-07 4.98189e-07 0.107844)
(-6.47763e-06 -1.52888e-05 0.0925449)
(1.38968e-07 3.55212e-07 0.110455)
(5.81296e-06 1.59371e-05 0.0924802)
(1.11832e-07 3.64654e-07 0.110455)
(-3.83169e-07 -2.00398e-05 0.0983)
(-2.50435e-07 1.89468e-05 0.0982329)
(-8.13598e-07 5.11702e-07 0.107843)
(6.07448e-06 -1.53985e-05 0.0925481)
(6.10949e-08 3.45397e-07 0.110455)
(-6.11064e-06 1.57762e-05 0.0924824)
(1.13849e-07 3.26614e-07 0.110455)
(1.24788e-07 -2.00741e-05 0.0983003)
(2.99858e-06 -5.82771e-06 0.0709593)
(-3.29705e-06 5.78398e-06 0.0708951)
(-3.58705e-05 3.56486e-05 0.104318)
(5.33703e-06 -7.46454e-06 0.0869781)
(6.94267e-06 -6.26317e-06 0.0869795)
(-6.03531e-06 7.30495e-06 0.0869211)
(5.4679e-06 -3.88421e-06 0.0709569)
(3.54598e-07 7.80176e-07 0.107845)
(-1.5282e-05 -6.46513e-06 0.0925442)
(1.17507e-05 -1.20681e-07 0.0908219)
(-1.03788e-05 -1.62237e-06 0.0816032)
(1.08393e-05 4.15962e-07 0.0815474)
(-1.2784e-05 -2.34361e-07 0.0908709)
(1.89284e-05 9.22127e-08 0.0982327)
(3.66204e-07 7.38822e-07 0.107844)
(-1.5337e-05 -6.54588e-06 0.0925449)
(3.18472e-07 -2.65407e-08 0.110454)
(1.60062e-05 5.87959e-06 0.092481)
(2.01311e-07 -3.81238e-08 0.110455)
(-2.01811e-05 -3.41862e-07 0.0983004)
(1.1732e-05 -7.9885e-08 0.0908219)
(-1.05011e-05 1.23919e-06 0.0816032)
(1.07047e-05 -7.21422e-07 0.0815477)
(-1.27368e-05 9.59767e-08 0.0908709)
(1.88882e-05 -2.89443e-07 0.0982327)
(4.36475e-07 -6.92131e-07 0.107843)
(3.252e-07 1.00584e-07 0.110453)
(-1.54857e-05 6.30402e-06 0.0925453)
(1.77858e-07 1.49589e-07 0.110454)
(1.58396e-05 -6.00421e-06 0.092482)
(-2.01165e-05 1.56987e-07 0.0983002)
(1.50845e-05 -6.94688e-06 0.0925504)
(-4.49454e-07 -9.24475e-08 0.110454)
(1.99099e-05 -6.17412e-07 0.0983043)
(1.01304e-05 -1.98487e-06 0.0816068)
(1.26441e-05 -6.35853e-07 0.0908765)
(-2.67486e-07 -2.42456e-09 0.110453)
(1.52042e-05 6.49218e-06 0.0925508)
(2.00133e-05 7.06364e-08 0.0983049)
(1.03472e-05 1.56163e-06 0.0816064)
(1.27215e-05 -1.3945e-07 0.0908758)
(-5.90102e-06 3.03143e-06 0.0709553)
(5.77907e-06 -3.28866e-06 0.0708953)
(3.57919e-05 -3.58432e-05 0.10432)
(-7.5472e-06 5.42159e-06 0.0869754)
(-6.01517e-06 7.13721e-06 0.0869788)
(7.30883e-06 -5.8335e-06 0.0869214)
(5.33567e-06 -7.60652e-06 0.0869235)
(-3.58042e-06 5.61411e-06 0.0709562)
(2.84496e-06 -6.04658e-06 0.070896)
(-4.57853e-08 -1.89416e-05 0.0982352)
(6.26416e-07 -3.49853e-07 0.107848)
(-6.09212e-08 -4.47911e-07 0.110456)
(-6.72583e-06 1.52894e-05 0.0925487)
(-1.17288e-07 -4.2234e-07 0.110457)
(5.62856e-06 -1.59203e-05 0.0924851)
(-5.52235e-07 1.99234e-05 0.0983023)
(-4.07863e-07 -1.87169e-05 0.0982345)
(-7.07479e-07 -3.99161e-07 0.107844)
(-3.2975e-08 -2.6348e-07 0.110456)
(6.2468e-06 1.54184e-05 0.092549)
(-2.40083e-09 -1.73734e-07 0.110456)
(-6.10581e-06 -1.57523e-05 0.0924849)
(1.09357e-08 2.00898e-05 0.0983021)
(-3.54676e-07 -1.1662e-05 0.0908226)
(-1.75044e-06 1.02846e-05 0.0816057)
(3.51114e-07 -1.08721e-05 0.0815502)
(-6.64567e-07 1.26361e-05 0.090873)
(-2.61923e-07 -1.14829e-05 0.0908219)
(1.3354e-06 1.04871e-05 0.0816063)
(-8.1327e-07 -1.07021e-05 0.0815504)
(-2.459e-07 1.27067e-05 0.0908733)
(-3.58673e-05 -3.57128e-05 0.104318)
(7.10189e-06 5.82166e-06 0.0869809)
(5.48309e-06 7.38966e-06 0.0869782)
(-5.9916e-06 -7.35241e-06 0.0869234)
(5.6922e-06 3.47668e-06 0.0709581)
(3.13359e-06 5.83277e-06 0.0709577)
(-3.36671e-06 -5.81815e-06 0.0708977)
(3.09334e-06 5.96964e-06 0.0708942)
(-3.2523e-06 -5.78588e-06 0.0709552)
(5.99594e-06 3.00799e-06 0.070894)
(-5.72105e-06 -3.35161e-06 0.0709542)
(5.75775e-06 7.46811e-06 0.0869204)
(7.5758e-06 5.65769e-06 0.0869194)
(-3.83676e-05 -3.83876e-05 0.104462)
(-5.5306e-06 -7.31014e-06 0.0869769)
(-7.27182e-06 -5.68193e-06 0.0869746)
(3.14067e-06 5.92838e-06 0.0708956)
(5.96752e-06 3.08539e-06 0.0708949)
(3.57223e-05 3.56892e-05 0.104317)
(5.82394e-06 7.47742e-06 0.0869215)
(7.58363e-06 5.73783e-06 0.0869204)
(-1.25574e-07 -1.26202e-05 0.0908722)
(-8.01987e-07 1.07195e-05 0.0815492)
(-2.22513e-07 1.17637e-05 0.0908235)
(1.06931e-06 -1.05445e-05 0.0816063)
(-4.04867e-07 -1.99981e-05 0.0983008)
(5.84252e-06 1.59263e-05 0.0924813)
(1.31235e-07 3.22314e-07 0.110455)
(7.42358e-07 4.55256e-07 0.107842)
(3.35561e-08 1.89743e-05 0.0982332)
(-6.4022e-06 -1.53041e-05 0.0925464)
(9.20833e-08 3.3091e-07 0.110454)
(7.59235e-08 -2.00792e-05 0.0983012)
(-6.2275e-06 1.58515e-05 0.0924835)
(3.36903e-08 3.203e-07 0.110455)
(-8.93567e-07 4.3622e-07 0.107841)
(-2.94524e-07 1.90051e-05 0.0982336)
(5.99259e-06 -1.53739e-05 0.092549)
(1.27493e-08 3.06537e-07 0.110454)
(-2.3302e-07 1.18044e-05 0.0908243)
(5.07276e-07 1.08682e-05 0.0815491)
(-2.75398e-07 1.17786e-05 0.0908238)
(-9.2877e-07 1.06354e-05 0.0815498)
(2.29007e-08 1.90226e-05 0.0982341)
(7.14799e-07 4.21704e-07 0.107842)
(5.94557e-06 1.59508e-05 0.0924827)
(1.56285e-08 2.82719e-07 0.110454)
(-3.4335e-07 1.89117e-05 0.0982345)
(-9.23901e-07 3.62164e-07 0.107841)
(-6.27863e-06 1.58762e-05 0.0924843)
(-1.92717e-09 2.0421e-07 0.110454)
(-6.06199e-06 7.32107e-06 0.0869222)
(-7.91035e-06 5.14614e-06 0.0869246)
(3.80181e-05 -3.84393e-05 0.104463)
(5.26143e-06 -7.47447e-06 0.0869791)
(6.91436e-06 -6.2966e-06 0.0869803)
(-6.23335e-06 2.55574e-06 0.070897)
(5.46166e-06 -3.88645e-06 0.0709572)
(-3.41533e-06 5.72165e-06 0.0708968)
(-3.60873e-05 3.55765e-05 0.104318)
(-6.13094e-06 7.29013e-06 0.0869231)
(-7.95516e-06 5.12026e-06 0.0869253)
(-6.23898e-06 2.53942e-06 0.0708973)
(-2.01906e-05 -3.95693e-07 0.0983009)
(1.59135e-05 5.80904e-06 0.0924818)
(3.91494e-07 -2.06094e-09 0.110454)
(4.32446e-07 6.5681e-07 0.107843)
(1.88732e-05 5.35747e-08 0.0982333)
(-1.53556e-05 -6.54489e-06 0.0925461)
(4.29443e-07 -1.42594e-08 0.110453)
(-1.28113e-05 7.61512e-08 0.0908717)
(1.07081e-05 -8.43795e-07 0.0815487)
(1.16725e-05 -5.51388e-08 0.0908225)
(-1.05271e-05 1.16933e-06 0.0816043)
(-2.01166e-05 1.52571e-07 0.0983007)
(4.1418e-07 5.45226e-08 0.110453)
(1.57493e-05 -6.10099e-06 0.092483)
(4.48463e-07 -7.51158e-07 0.107842)
(1.89162e-05 -2.89876e-07 0.0982332)
(4.53756e-07 3.17095e-08 0.110452)
(-1.55192e-05 6.2094e-06 0.0925465)
(1.16577e-05 -1.51579e-07 0.090823)
(1.08279e-05 4.97563e-07 0.0815494)
(1.88811e-05 1.66957e-08 0.0982336)
(4.24488e-07 6.11788e-07 0.107843)
(1.59223e-05 5.81444e-06 0.0924831)
(3.95771e-07 -5.75864e-08 0.110453)
(1.15967e-05 -9.97587e-08 0.0908233)
(1.06595e-05 -9.37098e-07 0.0815498)
(1.89543e-05 -3.00529e-07 0.0982334)
(4.04503e-07 -7.61117e-07 0.107841)
(3.654e-07 1.1267e-08 0.110452)
(1.5712e-05 -6.1803e-06 0.0924843)
(1.26181e-05 -5.97381e-07 0.0908763)
(-1.10792e-05 1.22397e-07 0.0815511)
(-1.16733e-05 -6.22363e-07 0.0908266)
(1.01203e-05 -2.005e-06 0.0816074)
(1.99243e-05 1.69213e-08 0.0983044)
(-3.55708e-07 -1.33677e-08 0.110453)
(-1.60632e-05 -5.87861e-06 0.0924871)
(-6.13314e-07 -7.72235e-07 0.10784)
(-1.90429e-05 -3.96817e-07 0.0982381)
(-3.64876e-07 -3.44307e-08 0.110453)
(1.51265e-05 6.46163e-06 0.0925509)
(1.26949e-05 -1.64956e-07 0.0908754)
(-1.08736e-05 -5.07965e-07 0.0815512)
(-1.16582e-05 -3.64388e-07 0.090827)
(1.03898e-05 1.4246e-06 0.0816063)
(-1.9064e-05 -2.58755e-07 0.098237)
(-5.96155e-07 4.20908e-07 0.107844)
(-1.62195e-05 5.33805e-06 0.0924869)
(-4.55462e-07 -2.2926e-07 0.110454)
(-1.17146e-05 -5.67387e-07 0.0908265)
(-1.10744e-05 8.44101e-08 0.0815516)
(-1.90523e-05 -4.59252e-07 0.0982377)
(-5.87655e-07 -7.27041e-07 0.10784)
(-3.60888e-07 -5.76323e-08 0.110453)
(-1.60652e-05 -5.87871e-06 0.092487)
(-1.16737e-05 -3.62191e-07 0.0908267)
(-1.08236e-05 -6.59992e-07 0.0815512)
(7.24896e-06 -6.05225e-06 0.0869225)
(5.34582e-06 -7.64131e-06 0.0869243)
(-3.84876e-05 3.82548e-05 0.104465)
(-7.56909e-06 5.24044e-06 0.0869765)
(-5.89995e-06 7.09943e-06 0.0869797)
(2.80781e-06 -6.10791e-06 0.0708969)
(-3.55525e-06 5.59489e-06 0.0709568)
(5.69736e-06 -3.56194e-06 0.0708979)
(3.56498e-05 -3.59424e-05 0.10432)
(7.24426e-06 -6.1722e-06 0.0869236)
(5.47347e-06 -7.71305e-06 0.0869252)
(2.84661e-06 -6.11631e-06 0.0708974)
(-1.43526e-08 1.99815e-05 0.0983027)
(-4.92567e-08 -2.74971e-07 0.110456)
(-6.1394e-06 -1.58791e-05 0.0924858)
(-9.28791e-07 -3.89318e-07 0.107843)
(-3.86142e-07 -1.88456e-05 0.0982349)
(-5.98554e-08 -2.17973e-07 0.110455)
(6.17632e-06 1.53163e-05 0.0925495)
(-6.29309e-07 1.25417e-05 0.0908735)
(2.62207e-07 -1.09801e-05 0.0815512)
(-4.1711e-07 -1.17079e-05 0.0908235)
(-1.78421e-06 1.01298e-05 0.0816065)
(-2.07094e-07 1.25494e-05 0.0908733)
(-7.43687e-07 -1.07363e-05 0.0815515)
(-3.59135e-07 -1.16324e-05 0.0908226)
(1.34635e-06 1.04923e-05 0.0816071)
(-1.15162e-07 -1.90622e-05 0.0982359)
(5.38418e-07 -4.04662e-07 0.107846)
(-9.67966e-08 -2.73847e-07 0.110455)
(5.62034e-06 -1.60916e-05 0.0924867)
(-4.35903e-07 -1.89654e-05 0.0982356)
(-9.30254e-07 -3.24618e-07 0.107843)
(-8.13759e-08 -1.59475e-07 0.110455)
(-6.18734e-06 -1.59178e-05 0.0924862)
(-3.75802e-07 -1.17755e-05 0.0908239)
(2.3529e-07 -1.10986e-05 0.0815519)
(-3.16762e-07 -1.17383e-05 0.0908225)
(-7.46381e-07 -1.07188e-05 0.0815523)
(-6.00724e-06 -2.92981e-06 0.0708985)
(5.70945e-06 3.34969e-06 0.0709582)
(-3.29324e-06 -5.85392e-06 0.0708985)
(3.1616e-06 5.81084e-06 0.0709583)
(-3.60783e-05 -3.58252e-05 0.104318)
(-7.65211e-06 -5.59577e-06 0.0869262)
(-5.91842e-06 -7.45135e-06 0.086925)
(-5.97352e-06 -3.07994e-06 0.0708984)
(-3.27555e-06 -5.87614e-06 0.070899)
(-1.17328e-06 6.35233e-06 0.0677747)
(-1.25355e-06 -1.00107e-05 0.0852158)
(4.30397e-07 1.08721e-05 0.081546)
(-2.89764e-07 1.00451e-05 0.0851548)
(-4.06801e-07 -6.20577e-06 0.0678425)
(1.08652e-05 4.18484e-07 0.0815469)
(-9.00941e-07 6.57502e-06 0.0762018)
(-2.24526e-07 1.1783e-05 0.0908239)
(-1.56139e-07 -6.45154e-06 0.0780222)
(-8.81258e-07 -1.24119e-05 0.0893516)
(-3.92489e-07 6.30744e-06 0.077978)
(-6.93639e-10 1.1674e-05 0.0892966)
(1.49579e-07 -6.61835e-06 0.0762535)
(-2.49521e-07 -6.19738e-06 0.067844)
(-3.52962e-07 1.00109e-05 0.0851558)
(-1.64743e-06 -1.03117e-05 0.0816033)
(-1.04951e-06 6.3399e-06 0.0677765)
(-1.27701e-06 -1.0054e-05 0.0852169)
(9.90783e-08 -6.61351e-06 0.0762532)
(-3.60756e-07 -1.26158e-05 0.0908723)
(-4.00699e-07 6.30328e-06 0.0779776)
(-3.14956e-08 1.16626e-05 0.0892964)
(-9.58097e-07 6.58035e-06 0.0762016)
(-1.46743e-07 -6.45496e-06 0.0780219)
(-9.15148e-07 -1.24105e-05 0.0893513)
(-9.79137e-07 6.35332e-06 0.0677767)
(-1.19161e-06 -1.00778e-05 0.0852172)
(4.19306e-07 1.09198e-05 0.0815485)
(-3.15489e-07 9.99043e-06 0.0851562)
(-1.78956e-07 -6.19205e-06 0.0678442)
(2.95235e-06 -5.85715e-06 0.0709597)
(-3.3916e-06 5.73796e-06 0.0708965)
(6.56101e-06 -8.20349e-07 0.0762018)
(1.16664e-05 -1.13359e-07 0.0908227)
(-1.24801e-05 -8.24164e-07 0.0893502)
(-6.53514e-06 -8.16944e-08 0.0780214)
(1.16266e-05 6.56792e-08 0.0892952)
(6.24629e-06 -3.10098e-07 0.077977)
(-6.64015e-06 2.17337e-07 0.0762536)
(-6.19404e-06 -1.54732e-07 0.0678444)
(9.9606e-06 -2.51603e-07 0.0851557)
(-1.03659e-05 -1.59332e-06 0.0816037)
(6.36442e-06 -9.44555e-07 0.0677769)
(-1.01139e-05 -1.17343e-06 0.0852168)
(-6.64276e-06 1.73639e-07 0.0762533)
(-1.27446e-05 -2.4132e-07 0.0908712)
(1.1639e-05 4.32447e-08 0.0892949)
(6.28281e-06 -3.0397e-07 0.0779766)
(6.56226e-06 -8.69828e-07 0.0762015)
(-1.24517e-05 -8.43538e-07 0.0893499)
(-6.50478e-06 -6.30556e-08 0.0780209)
(6.33398e-06 -8.73353e-07 0.067777)
(-1.01712e-05 -1.1365e-06 0.0852172)
(1.08706e-05 4.53766e-07 0.0815489)
(9.93497e-06 -2.25468e-07 0.0851561)
(-6.21538e-06 -9.52256e-08 0.0678445)
(-5.93086e-06 2.95169e-06 0.0709559)
(5.72723e-06 -3.51566e-06 0.0708973)
(-5.86377e-06 -5.54962e-06 0.0830076)
(3.45033e-06 5.3966e-06 0.0678197)
(5.15366e-06 3.6608e-06 0.0678134)
(-3.72209e-06 -5.06502e-06 0.0677572)
(-5.28512e-06 -3.52389e-06 0.0677512)
(5.67944e-06 6.00605e-06 0.0830577)
(1.38582e-05 7.96089e-06 0.0912056)
(-1.93289e-05 -1.07327e-05 0.095887)
(-6.8109e-06 -3.7012e-06 0.0809233)
(7.13173e-06 5.83289e-06 0.0869811)
(-1.36538e-05 -7.58267e-06 0.091152)
(1.92973e-05 1.04788e-05 0.0959438)
(6.47614e-06 4.11714e-06 0.0809808)
(7.66854e-06 1.4239e-05 0.091198)
(-1.10307e-05 -1.90078e-05 0.0958842)
(-4.03632e-06 -6.52072e-06 0.0809181)
(5.49523e-06 7.36143e-06 0.0869786)
(-7.96114e-06 -1.33054e-05 0.0911449)
(1.02162e-05 1.95869e-05 0.0959411)
(3.81921e-06 6.78625e-06 0.0809744)
(5.68582e-06 6.02011e-06 0.0830575)
(-3.72152e-06 -5.03924e-06 0.067757)
(-5.30656e-06 -3.50148e-06 0.0677509)
(-5.86731e-06 -5.54419e-06 0.0830074)
(3.45571e-06 5.406e-06 0.0678195)
(5.14053e-06 3.68113e-06 0.0678131)
(-1.36975e-05 -7.64634e-06 0.091152)
(6.48418e-06 4.09857e-06 0.080981)
(-7.6831e-06 -5.56835e-06 0.0869261)
(1.93137e-05 1.05048e-05 0.0959439)
(-1.93616e-05 -1.07505e-05 0.0958869)
(-6.7885e-06 -3.72045e-06 0.0809235)
(1.38629e-05 7.93749e-06 0.0912057)
(-7.93759e-06 -1.33256e-05 0.0911451)
(3.82099e-06 6.75388e-06 0.0809748)
(-5.91774e-06 -7.44042e-06 0.0869246)
(1.0212e-05 1.95728e-05 0.095941)
(-1.10818e-05 -1.90765e-05 0.0958842)
(-4.03965e-06 -6.54614e-06 0.0809185)
(7.69545e-06 1.42297e-05 0.0911983)
(3.00992e-06 5.94975e-06 0.070892)
(5.97665e-06 2.96927e-06 0.0708924)
(5.68182e-06 5.58964e-06 0.0829998)
(-5.20408e-06 -3.68081e-06 0.0678134)
(-3.56771e-06 -5.34334e-06 0.0678072)
(5.21642e-06 3.54509e-06 0.0677501)
(3.64863e-06 5.10654e-06 0.0677442)
(-5.87489e-06 -6.00334e-06 0.0830511)
(7.6295e-06 1.33548e-05 0.0911447)
(-3.86532e-06 -6.66998e-06 0.0809743)
(5.63249e-06 7.45743e-06 0.0869186)
(-1.04529e-05 -1.94605e-05 0.0959387)
(3.88215e-06 6.56245e-06 0.0809156)
(-7.92952e-06 -1.41978e-05 0.0911991)
(1.07627e-05 1.91733e-05 0.0958817)
(1.34117e-05 7.62408e-06 0.0911383)
(-6.64838e-06 -4.02506e-06 0.0809688)
(7.56642e-06 5.60292e-06 0.0869178)
(-1.95088e-05 -1.05138e-05 0.0959364)
(6.6657e-06 3.78338e-06 0.0809111)
(-1.41382e-05 -7.98711e-06 0.0911926)
(1.90989e-05 1.07266e-05 0.0958792)
(3.07025e-06 5.95663e-06 0.0708935)
(-3.30712e-06 -5.77835e-06 0.0709532)
(5.99522e-06 2.98107e-06 0.0708935)
(-5.70374e-06 -3.43173e-06 0.0709528)
(-5.87391e-06 -6.03148e-06 0.0830516)
(5.23998e-06 3.52655e-06 0.0677506)
(3.65612e-06 5.105e-06 0.0677446)
(5.70711e-06 5.56797e-06 0.0830003)
(-5.18149e-06 -3.6851e-06 0.0678139)
(-3.54946e-06 -5.35055e-06 0.0678076)
(7.71013e-06 1.33271e-05 0.0911453)
(-1.0457e-05 -1.95507e-05 0.095939)
(5.71747e-06 7.46019e-06 0.0869198)
(-3.82382e-06 -6.71884e-06 0.0809754)
(3.94973e-06 6.52127e-06 0.0809167)
(1.07864e-05 1.91276e-05 0.0958821)
(-7.83539e-06 -1.4197e-05 0.0911997)
(1.33818e-05 7.57655e-06 0.0911389)
(-1.94773e-05 -1.0546e-05 0.0959367)
(7.58718e-06 5.60665e-06 0.0869189)
(-6.64917e-06 -3.98608e-06 0.0809699)
(6.66615e-06 3.80673e-06 0.0809122)
(1.91413e-05 1.07049e-05 0.0958795)
(-1.41285e-05 -8.01358e-06 0.0911932)
(-7.87241e-06 -1.41878e-05 0.0911994)
(3.9189e-06 6.56367e-06 0.0809161)
(1.07761e-05 1.91335e-05 0.0958819)
(-5.65052e-06 -7.33483e-06 0.0869751)
(7.6623e-06 1.3313e-05 0.091145)
(-3.83766e-06 -6.69675e-06 0.0809749)
(-1.04568e-05 -1.95087e-05 0.0959388)
(-1.41452e-05 -8.02827e-06 0.0911929)
(6.66396e-06 3.79564e-06 0.0809117)
(1.91535e-05 1.07494e-05 0.0958794)
(-7.27107e-06 -5.82406e-06 0.0869732)
(1.33923e-05 7.61191e-06 0.0911386)
(-6.65656e-06 -4.0124e-06 0.0809694)
(-1.94954e-05 -1.05476e-05 0.0959365)
(5.70661e-06 5.53696e-06 0.0830008)
(-5.17321e-06 -3.69909e-06 0.0678143)
(-3.54721e-06 -5.35709e-06 0.067808)
(5.26052e-06 3.5078e-06 0.0677511)
(3.6699e-06 5.08182e-06 0.0677451)
(-5.87112e-06 -6.04238e-06 0.083052)
(-4.33343e-08 -6.6506e-06 0.0762529)
(-4.24822e-07 6.25582e-06 0.0779771)
(-8.99477e-08 1.1628e-05 0.089296)
(-3.42088e-07 -1.26884e-05 0.0908718)
(-1.08919e-06 6.54389e-06 0.0762013)
(-1.97042e-07 -6.5048e-06 0.0780213)
(-9.95511e-07 -1.24513e-05 0.0893509)
(-1.13044e-06 6.3335e-06 0.067776)
(3.85577e-07 1.09127e-05 0.0815472)
(-1.29052e-06 -1.00313e-05 0.0852166)
(-3.21453e-07 -6.20452e-06 0.0678437)
(-3.81799e-07 1.00408e-05 0.0851556)
(-3.92903e-07 -6.19667e-06 0.0678431)
(-3.46452e-07 1.00397e-05 0.0851552)
(-1.6151e-06 -1.03242e-05 0.0816021)
(-1.17567e-06 6.33409e-06 0.0677755)
(-1.29648e-06 -1.00307e-05 0.0852163)
(-1.03206e-06 6.54806e-06 0.0762014)
(-2.2645e-07 1.17284e-05 0.0908234)
(-1.74886e-07 -6.48663e-06 0.0780216)
(-9.59814e-07 -1.24091e-05 0.0893511)
(2.97315e-08 -6.62979e-06 0.0762531)
(-4.27331e-07 6.25425e-06 0.0779774)
(-8.48106e-08 1.16577e-05 0.0892962)
(-4.6038e-07 -6.69467e-06 0.0762535)
(1.71989e-09 6.29926e-06 0.0779772)
(-3.27703e-07 1.16242e-05 0.0892958)
(-7.03946e-09 -1.26623e-05 0.0908716)
(6.02298e-07 6.48618e-06 0.0762021)
(-2.80073e-07 -6.48355e-06 0.0780214)
(5.38077e-07 -1.24577e-05 0.0893502)
(6.49905e-07 6.25891e-06 0.0677808)
(-7.43676e-07 1.07256e-05 0.0815488)
(7.59811e-07 -1.01483e-05 0.085218)
(-7.10062e-08 9.9338e-06 0.0851577)
(-1.6691e-07 -6.29558e-06 0.0678479)
(-1.27766e-07 -6.27959e-06 0.0678477)
(-8.92586e-09 9.91667e-06 0.0851574)
(1.24297e-06 -1.04721e-05 0.0816054)
(7.14991e-07 6.28181e-06 0.0677805)
(8.13899e-07 -1.01518e-05 0.0852179)
(5.32739e-07 6.45841e-06 0.0762023)
(-1.7753e-07 1.17759e-05 0.0908233)
(-3.21879e-07 -6.50952e-06 0.0780216)
(4.93932e-07 -1.24506e-05 0.0893503)
(-5.32279e-08 6.26097e-06 0.0779775)
(-3.71382e-07 1.16318e-05 0.0892961)
(-5.28329e-07 -6.72292e-06 0.0762537)
(-3.30199e-06 5.78384e-06 0.0708956)
(3.00878e-06 -5.82802e-06 0.0709588)
(-8.06128e-06 1.31414e-05 0.0911425)
(1.01495e-05 -1.97196e-05 0.0959391)
(-6.04591e-06 7.30957e-06 0.0869217)
(3.62339e-06 -6.89175e-06 0.0809727)
(-1.11149e-05 1.89291e-05 0.095882)
(-4.26917e-06 6.40932e-06 0.0809155)
(7.54647e-06 -1.44012e-05 0.0911965)
(-1.37411e-05 7.2803e-06 0.0911498)
(1.92767e-05 -1.09406e-05 0.0959437)
(-7.8787e-06 5.17295e-06 0.0869243)
(6.20567e-06 -4.45351e-06 0.08098)
(-7.09292e-06 3.38318e-06 0.0809222)
(-1.93455e-05 1.03403e-05 0.0958862)
(1.37512e-05 -8.28417e-06 0.0912044)
(-1.11089e-05 1.90059e-05 0.0958817)
(5.35276e-06 -7.46257e-06 0.0869776)
(1.01955e-05 -1.96872e-05 0.0959389)
(-6.08831e-06 5.27279e-06 0.0830047)
(4.87098e-06 -3.89815e-06 0.0678119)
(3.19371e-06 -5.70544e-06 0.0678179)
(-5.56422e-06 3.29895e-06 0.0677488)
(-3.98238e-06 4.74145e-06 0.0677546)
(5.42886e-06 -6.28674e-06 0.0830562)
(-6.22212e-06 2.54561e-06 0.0708968)
(-6.67978e-06 1.3949e-07 0.0762527)
(1.16813e-05 3.03704e-08 0.0892945)
(6.25115e-06 -3.26301e-07 0.0779761)
(-1.27176e-05 -2.5271e-07 0.0908706)
(6.53975e-06 -8.707e-07 0.0762009)
(-1.24491e-05 -8.80033e-07 0.0893494)
(-6.51797e-06 -7.31425e-08 0.0780204)
(6.35735e-06 -9.79795e-07 0.0677767)
(1.08393e-05 4.06738e-07 0.0815479)
(-1.00918e-05 -1.21707e-06 0.0852164)
(-6.18196e-06 -2.23739e-07 0.0678443)
(9.99059e-06 -2.97454e-07 0.0851553)
(-6.20483e-06 -2.2609e-07 0.067844)
(1.0017e-05 -2.80243e-07 0.0851549)
(-1.03977e-05 -1.65288e-06 0.0816027)
(6.34424e-06 -9.59128e-07 0.0677765)
(-1.00674e-05 -1.24079e-06 0.085216)
(6.53551e-06 -8.84332e-07 0.0762012)
(1.1653e-05 -1.19405e-07 0.0908222)
(-1.24775e-05 -8.6767e-07 0.0893497)
(-6.48818e-06 -5.86704e-08 0.0780206)
(-6.65319e-06 1.35728e-07 0.076253)
(1.16384e-05 2.54754e-08 0.0892947)
(6.27226e-06 -3.16574e-07 0.0779764)
(-6.70008e-06 -2.93571e-07 0.0762516)
(6.24496e-06 1.07839e-07 0.0779763)
(1.15715e-05 -2.53524e-07 0.0892947)
(-1.27162e-05 9.80157e-08 0.0908705)
(6.45999e-06 6.98924e-07 0.0762)
(-6.53789e-06 -1.01073e-07 0.0780206)
(-1.25361e-05 6.79344e-07 0.0893491)
(6.26003e-06 7.08649e-07 0.0677781)
(1.06996e-05 -7.9511e-07 0.0815482)
(-1.02576e-05 8.29604e-07 0.0852171)
(9.81109e-06 -8.00117e-08 0.0851566)
(-6.27442e-06 -6.09803e-08 0.0678455)
(-6.2726e-06 -1.21594e-08 0.0678449)
(9.8203e-06 1.6482e-08 0.0851562)
(-1.05096e-05 1.31406e-06 0.0816027)
(6.25054e-06 7.60793e-07 0.0677775)
(-1.02182e-05 9.16732e-07 0.0852166)
(6.49864e-06 6.95403e-07 0.0762004)
(1.16769e-05 -4.73448e-08 0.0908221)
(-6.50343e-06 -8.70624e-08 0.0780209)
(-1.25341e-05 6.17298e-07 0.0893495)
(6.24969e-06 1.43119e-07 0.0779766)
(1.15388e-05 -2.70093e-07 0.089295)
(-6.6782e-06 -3.28923e-07 0.0762521)
(-6.4103e-06 -1.45045e-06 0.0677747)
(-1.10755e-05 1.27429e-07 0.0815508)
(9.83026e-06 -1.5902e-06 0.0852205)
(-1.01644e-05 -6.40464e-07 0.085157)
(6.01937e-06 -6.32132e-07 0.0678475)
(-6.54242e-06 -1.41774e-06 0.0762032)
(-1.17151e-05 -5.96746e-07 0.0908267)
(1.22284e-05 -1.30983e-06 0.089355)
(6.45108e-06 -4.50125e-07 0.0780267)
(-1.17154e-05 -4.53143e-07 0.0892976)
(-6.23447e-06 -7.8776e-07 0.07798)
(6.49411e-06 -3.41224e-07 0.0762603)
(-6.31622e-06 8.01667e-07 0.0677786)
(-1.08687e-05 -4.90082e-07 0.0815513)
(1.00504e-05 9.90029e-07 0.08522)
(-9.99177e-06 7.3684e-08 0.0851593)
(6.24267e-06 4.38912e-08 0.067846)
(-6.47432e-06 5.92206e-07 0.0762025)
(-1.16922e-05 -3.49882e-07 0.0908272)
(6.54105e-06 -2.91916e-07 0.0780243)
(1.24271e-05 5.81325e-07 0.0893545)
(-6.20967e-06 -1.30072e-07 0.07798)
(-1.16258e-05 -3.41262e-07 0.0892998)
(6.70709e-06 -3.73394e-07 0.0762541)
(5.7825e-06 -3.35027e-06 0.070896)
(-5.9009e-06 3.09875e-06 0.0709546)
(-6.19226e-06 5.60756e-06 0.0830558)
(3.35229e-06 -5.45228e-06 0.0677487)
(4.85717e-06 -3.8473e-06 0.0677548)
(5.38546e-06 -5.92113e-06 0.083005)
(-3.86829e-06 4.9487e-06 0.0678111)
(-5.57943e-06 3.34529e-06 0.0678174)
(1.32219e-05 -7.88666e-06 0.0911431)
(-1.97619e-05 1.03158e-05 0.0959381)
(7.2489e-06 -5.92131e-06 0.086922)
(-6.9544e-06 3.62152e-06 0.0809717)
(1.90004e-05 -1.09182e-05 0.0958825)
(6.4008e-06 -4.19152e-06 0.0809155)
(-1.4365e-05 7.66698e-06 0.0911962)
(7.37041e-06 -1.35798e-05 0.0911505)
(-1.07586e-05 1.93949e-05 0.0959434)
(5.33343e-06 -7.62686e-06 0.0869239)
(-4.21882e-06 6.45042e-06 0.0809792)
(3.57665e-06 -6.83567e-06 0.0809219)
(1.05139e-05 -1.92768e-05 0.0958866)
(-8.19366e-06 1.39474e-05 0.091204)
(-1.43391e-05 7.72521e-06 0.0911958)
(6.42558e-06 -4.12492e-06 0.080915)
(1.9079e-05 -1.09083e-05 0.0958824)
(-7.50793e-06 5.52605e-06 0.0869748)
(-1.96611e-05 1.03316e-05 0.095938)
(1.33155e-05 -7.8811e-06 0.0911426)
(-6.90884e-06 3.67198e-06 0.0809711)
(-8.24274e-06 1.40245e-05 0.0912036)
(3.55564e-06 -6.82114e-06 0.0809215)
(1.04961e-05 -1.92028e-05 0.0958865)
(-6.04372e-06 7.19645e-06 0.0869783)
(7.40157e-06 -1.35746e-05 0.09115)
(-4.24954e-06 6.44776e-06 0.0809787)
(-1.07824e-05 1.94402e-05 0.0959432)
(5.37007e-06 -5.95507e-06 0.0830055)
(-3.89461e-06 4.93782e-06 0.0678116)
(-5.57534e-06 3.35859e-06 0.0678178)
(3.3183e-06 -5.47556e-06 0.0677492)
(4.85338e-06 -3.83839e-06 0.0677552)
(-6.22235e-06 5.60561e-06 0.0830563)
(2.82002e-06 -6.08915e-06 0.0708964)
(-3.56157e-06 5.65791e-06 0.0709558)
(-1.61006e-07 6.52777e-06 0.0762552)
(-3.06575e-08 -1.16094e-05 0.0892964)
(-6.06592e-07 -6.28702e-06 0.0779767)
(-6.23498e-07 1.26668e-05 0.0908725)
(-1.08284e-06 -6.63758e-06 0.0762033)
(-1.04338e-06 1.24391e-05 0.089351)
(-4.63085e-07 6.39351e-06 0.0780235)
(-1.17185e-06 -6.38186e-06 0.0677793)
(2.93701e-07 -1.09063e-05 0.0815508)
(-1.30275e-06 9.95692e-06 0.085218)
(-3.39974e-07 -1.00492e-05 0.0851581)
(-4.60408e-07 6.1087e-06 0.0678463)
(-3.99697e-07 6.13677e-06 0.0678459)
(-2.74588e-07 -9.98455e-06 0.0851577)
(-1.7067e-06 1.03527e-05 0.0816053)
(-1.10314e-06 -6.35048e-06 0.0677788)
(-1.25166e-06 1.00214e-05 0.0852177)
(-1.14424e-06 -6.66628e-06 0.0762037)
(-4.23319e-07 -1.16856e-05 0.0908231)
(-1.08182e-06 1.23714e-05 0.0893516)
(-4.77914e-07 6.36537e-06 0.0780238)
(-8.79882e-08 -1.16382e-05 0.0892971)
(-6.53062e-07 -6.30371e-06 0.077977)
(-2.05388e-07 6.49271e-06 0.0762555)
(-5.13098e-07 6.6152e-06 0.0762546)
(-5.07941e-07 -1.14504e-05 0.089295)
(-1.2141e-07 -6.22773e-06 0.0779745)
(-1.76625e-07 1.28325e-05 0.090873)
(4.6411e-07 -6.51112e-06 0.0761999)
(4.67215e-07 1.25478e-05 0.0893515)
(-4.12092e-07 6.40317e-06 0.0780231)
(6.84854e-07 -6.30514e-06 0.0677801)
(-7.48324e-07 -1.0714e-05 0.081551)
(9.1062e-07 1.0193e-05 0.0852193)
(-9.07333e-08 -9.82379e-06 0.0851581)
(-1.5536e-08 6.22957e-06 0.0678481)
(-6.18865e-08 6.24804e-06 0.0678479)
(-1.49881e-07 -9.78621e-06 0.0851577)
(1.30156e-06 1.05114e-05 0.0816058)
(6.39513e-07 -6.30075e-06 0.0677799)
(8.72281e-07 1.02412e-05 0.085219)
(4.92522e-07 -6.50413e-06 0.0762)
(-3.25233e-07 -1.15292e-05 0.0908224)
(4.66147e-07 1.24742e-05 0.0893517)
(-4.28396e-07 6.38497e-06 0.0780232)
(-4.97144e-07 -1.14834e-05 0.0892954)
(-1.50181e-07 -6.23319e-06 0.0779745)
(-4.90955e-07 6.62173e-06 0.0762547)
(5.68355e-06 6.09587e-06 0.0830571)
(3.45556e-06 5.44082e-06 0.0678189)
(5.08602e-06 3.74164e-06 0.0678125)
(-1.36412e-05 -7.55007e-06 0.091152)
(1.93026e-05 1.04895e-05 0.0959437)
(-7.69915e-06 -5.58441e-06 0.0869261)
(6.49579e-06 4.11756e-06 0.0809806)
(1.38715e-05 8.01205e-06 0.0912055)
(-1.9313e-05 -1.07156e-05 0.0958871)
(-6.77971e-06 -3.70987e-06 0.0809231)
(-7.97024e-06 -1.32717e-05 0.0911447)
(1.02587e-05 1.96193e-05 0.095941)
(-5.95189e-06 -7.39984e-06 0.0869239)
(3.79458e-06 6.83229e-06 0.0809741)
(7.66716e-06 1.42832e-05 0.0911978)
(-1.10098e-05 -1.90272e-05 0.095884)
(-4.07587e-06 -6.46551e-06 0.0809178)
(1.39204e-05 8.07239e-06 0.0912054)
(7.16776e-06 5.82516e-06 0.0869808)
(1.93163e-05 1.05237e-05 0.0959437)
(6.5038e-06 4.1054e-06 0.0809804)
(7.65895e-06 1.43125e-05 0.0911976)
(-1.09769e-05 -1.89764e-05 0.0958838)
(5.44582e-06 7.43173e-06 0.0869778)
(1.03047e-05 1.96315e-05 0.0959406)
(3.75702e-06 6.86292e-06 0.0809737)
(-5.86455e-06 -5.4885e-06 0.0830072)
(3.45282e-06 5.41627e-06 0.0678192)
(5.11299e-06 3.69722e-06 0.0678128)
(5.69178e-06 6.05431e-06 0.0830573)
(-3.72209e-06 -5.01365e-06 0.0677568)
(-5.33855e-06 -3.46424e-06 0.0677506)
(-6.03228e-06 -2.94434e-06 0.0708982)
(5.69335e-06 3.46505e-06 0.0709579)
(-3.31722e-06 -5.83322e-06 0.0708981)
(3.08696e-06 5.85748e-06 0.0709573)
(-3.26589e-06 -5.75068e-06 0.0709546)
(3.12256e-06 5.98275e-06 0.0708949)
(-5.70972e-06 -3.3775e-06 0.0709538)
(5.98507e-06 3.04319e-06 0.0708945)
(5.71197e-06 5.51414e-06 0.0830017)
(-5.16709e-06 -3.68883e-06 0.0678151)
(-3.54407e-06 -5.34016e-06 0.0678087)
(5.26378e-06 3.51903e-06 0.0677519)
(3.67602e-06 5.09574e-06 0.0677458)
(-5.86048e-06 -6.0529e-06 0.0830528)
(-7.79832e-06 -1.42131e-05 0.0912)
(1.08082e-05 1.90824e-05 0.0958824)
(3.9625e-06 6.49538e-06 0.0809173)