/*--------------------------------*- C++ -*----------------------------------*\
| =========                 |                                                 |
| \\      /  F ield         | OpenFOAM: The Open Source CFD Toolbox           |
|  \\    /   O peration     | Version:  2312                                  |
|   \\  /    A nd           | Website:  www.openfoam.com                      |
|    \\/     M anipulation  |                                                 |
\*---------------------------------------------------------------------------*/
FoamFile
{
    version     2.0;
    format      ascii;
    arch        "LSB;label=32;scalar=64";
    class       volScalarField;
    location    "900";
    object      nut;
}
// * * * * * * * * * * * * * * * * * * * * * * * * * * * * * * * * * * * * * //

dimensions      [0 2 -1 0 0 0 0];

internalField   nonuniform List<scalar> 
43496
(
9.98386e-05
2.38911e-05
0.000200499
0.000103598
0.000144112
0.000210022
9.98358e-05
5.07387e-05
0.000144109
0.000200463
0.000210019
0.00010358
0.000181931
7.78918e-05
7.79048e-05
2.38933e-05
5.07412e-05
3.67141e-05
9.98128e-05
9.44558e-05
4.10537e-05
9.44337e-05
4.10542e-05
3.67136e-05
2.03164e-05
7.9078e-05
7.9061e-05
2.03185e-05
2.3889e-05
3.67119e-05
9.98099e-05
4.10535e-05
9.44457e-05
4.1054e-05
9.44238e-05
3.67109e-05
2.03155e-05
7.90579e-05
5.07324e-05
7.904e-05
2.03175e-05
8.14834e-05
2.17077e-05
2.17109e-05
2.17057e-05
2.17089e-05
8.14898e-05
0.000105201
4.86426e-05
7.78816e-05
0.000128753
4.86435e-05
0.000128696
0.000105218
0.000105197
4.86595e-05
7.78946e-05
0.000128784
0.000128727
4.86516e-05
0.000105216
2.38913e-05
5.07406e-05
0.000203206
0.000206575
0.000203213
0.00010356
0.000147552
0.000147516
0.000171221
0.000144039
0.000137567
0.000176439
0.000137501
0.000176451
0.000171269
0.000160693
0.000122732
0.000122678
0.000160697
0.000171206
0.000144036
0.000176437
0.000137559
0.000176448
0.000137493
0.000171281
0.000160592
0.000122728
0.000103539
0.000147527
0.000122661
0.000160795
0.000147467
0.000138285
0.000181875
0.000161725
0.000161752
0.000161708
0.000161681
0.000138321
0.000203451
0.000198754
0.000198761
0.00018067
0.000205961
0.000200156
0.000200162
0.000181623
0.000180692
0.000181482
0.00019874
0.000198721
0.000199797
0.000199773
0.00018068
0.000181491
0.00019875
0.000198725
0.000199808
0.000199783
0.000198726
0.000199807
0.000199788
0.000180677
0.000181484
0.000198738
0.000199818
0.000199797
0.000181467
0.000181647
0.000200141
0.000200122
0.0001816
0.000200151
0.000200127
0.000200127
0.000181626
0.000200139
9.97298e-05
5.0716e-05
5.07272e-05
9.96619e-05
2.38785e-05
2.38828e-05
9.97233e-05
5.07135e-05
5.07198e-05
9.96626e-05
0.000203446
0.000203457
0.000203449
0.000205342
0.000205333
0.000205347
0.000205344
0.000143705
0.000103359
0.000207743
0.000199106
0.000103444
0.000208208
0.000143511
2.38775e-05
2.38819e-05
0.000143704
0.000207748
0.000103362
0.000199118
0.000208217
0.000103446
0.00014351
7.78105e-05
7.78038e-05
0.000180988
7.78359e-05
7.7832e-05
5.07367e-05
9.97841e-05
2.38877e-05
5.07338e-05
9.97845e-05
0.000205956
0.000205966
0.000205957
0.00014411
0.00010352
0.000209581
0.000143935
0.000210022
2.38868e-05
0.000144109
0.000209586
0.000103523
0.000143934
0.00021003
7.78736e-05
7.78666e-05
0.000181912
7.78978e-05
7.7893e-05
2.38805e-05
2.38849e-05
2.38785e-05
2.38828e-05
7.78198e-05
7.78133e-05
0.000181007
7.78455e-05
7.78389e-05
2.38895e-05
2.38852e-05
2.38874e-05
2.38832e-05
0.000181165
7.78767e-05
7.78702e-05
7.78521e-05
7.78458e-05
9.97266e-05
5.07103e-05
5.07216e-05
9.96585e-05
0.00014372
0.000103361
0.000207742
0.000199096
0.000103447
0.000208209
0.000143505
0.000143716
0.000103337
0.000207735
0.000199073
0.000103423
0.000208201
0.000143501
9.97241e-05
5.07374e-05
5.07264e-05
9.97906e-05
9.97207e-05
5.07311e-05
5.07209e-05
9.97864e-05
0.000143722
0.000199451
0.000103525
0.000209127
0.000103443
0.000208673
0.000143928
0.000143717
0.000199432
0.000103502
0.000209119
0.000103419
0.000208666
0.000143923
7.77988e-05
7.78198e-05
0.000180997
7.78244e-05
7.78455e-05
2.38798e-05
2.38841e-05
2.38874e-05
2.38831e-05
0.000181152
7.78552e-05
7.78763e-05
7.78311e-05
7.78522e-05
2.38887e-05
2.38845e-05
0.000143705
0.000103353
0.000207739
0.000199107
0.000103436
0.000208207
0.000143512
9.97203e-05
5.07071e-05
5.07182e-05
9.96598e-05
0.000143702
0.000207737
0.00010334
0.000199082
0.000208205
0.000103427
0.000143509
9.97248e-05
5.07301e-05
5.07238e-05
9.97832e-05
0.000143729
0.00019946
0.000103515
0.000209126
0.000103435
0.000208671
0.000143913
9.97219e-05
5.07283e-05
5.07175e-05
9.97799e-05
0.000143726
0.000199436
0.000209123
0.000103505
0.000208668
0.000103423
0.00014391
9.97167e-05
5.07146e-05
5.0721e-05
9.96543e-05
0.000143705
0.000207739
0.000103349
0.000199088
0.000208206
0.000103434
0.000143512
9.97217e-05
5.07082e-05
5.07194e-05
9.96612e-05
0.000143727
0.000199465
0.000103522
0.000209127
0.000103441
0.000208674
0.000143911
9.97165e-05
5.07313e-05
5.07249e-05
9.97762e-05
0.000143729
0.000199436
0.000209124
0.000103512
0.00020867
0.000103431
0.000143913
9.97233e-05
5.07295e-05
5.07186e-05
9.97813e-05
7.78045e-05
7.7817e-05
0.000180999
7.78298e-05
7.78442e-05
2.38797e-05
2.38841e-05
2.38865e-05
2.38822e-05
0.000181158
7.78608e-05
7.78754e-05
7.78369e-05
7.78494e-05
2.38887e-05
2.38844e-05
0.000143696
0.000207739
0.000103343
0.000199096
0.000208207
0.000103427
0.000143502
9.97153e-05
5.0713e-05
5.07214e-05
9.9653e-05
9.97058e-05
5.07067e-05
5.07178e-05
9.96417e-05
0.000143727
0.000199471
0.000209135
0.000103524
0.000208679
0.000103444
0.000143911
0.000143719
0.000199448
0.000209125
0.000103506
0.00020867
0.000103425
0.000143903
9.97152e-05
5.07316e-05
5.07252e-05
9.97748e-05
9.97042e-05
5.0728e-05
5.07171e-05
9.97653e-05
2.38784e-05
2.38828e-05
2.38773e-05
2.38817e-05
0.000181144
7.78667e-05
7.78631e-05
7.7843e-05
7.78364e-05
2.38874e-05
2.38831e-05
2.38863e-05
2.38819e-05
2.38898e-05
2.38878e-05
7.78824e-05
7.78761e-05
5.07338e-05
9.97803e-05
0.000103521
0.000209581
0.00014393
0.000103497
0.000209573
0.000143925
7.78616e-05
7.78823e-05
2.38891e-05
0.000103513
0.000209578
0.000143937
5.07278e-05
9.97812e-05
0.000209576
0.000103501
0.000143934
9.9832e-05
5.07352e-05
9.97758e-05
0.000144112
0.000209578
0.000103509
0.000200468
0.000143937
0.00021002
0.000103587
9.9837e-05
5.07289e-05
9.97826e-05
5.07398e-05
7.78676e-05
7.788e-05
2.3889e-05
0.000144102
0.000209578
0.000103503
0.000200478
0.000143926
0.00021002
0.00010358
9.98307e-05
5.07352e-05
9.97746e-05
9.98213e-05
5.07273e-05
9.97636e-05
5.07383e-05
2.38876e-05
2.38919e-05
2.38865e-05
2.38909e-05
3.66992e-05
4.10378e-05
9.43726e-05
9.96928e-05
4.10377e-05
9.43387e-05
3.66984e-05
2.03086e-05
5.0722e-05
7.90067e-05
7.90257e-05
2.03066e-05
2.03085e-05
7.90377e-05
5.07213e-05
7.90189e-05
2.03106e-05
3.66947e-05
9.9699e-05
4.10331e-05
9.43147e-05
4.10336e-05
9.43484e-05
3.66956e-05
2.38805e-05
2.38808e-05
3.66992e-05
9.43646e-05
4.10372e-05
9.96945e-05
9.43402e-05
4.10372e-05
3.66982e-05
2.0309e-05
5.07147e-05
7.90027e-05
7.90212e-05
2.0307e-05
2.03089e-05
7.90332e-05
5.07185e-05
7.90149e-05
2.03109e-05
3.66946e-05
9.96923e-05
9.43156e-05
4.10327e-05
9.43407e-05
4.10331e-05
3.66956e-05
2.38796e-05
2.38799e-05
8.1443e-05
2.17029e-05
2.16997e-05
2.17009e-05
2.16977e-05
8.14493e-05
0.000105054
0.000128361
7.78196e-05
4.86291e-05
0.000128423
4.86289e-05
0.000105034
0.000105061
0.000128341
7.78157e-05
4.86148e-05
0.000128406
4.86221e-05
0.000105041
0.000105066
4.86337e-05
7.7827e-05
0.000128496
0.000128435
4.86338e-05
0.000105087
0.000105073
4.86269e-05
7.78206e-05
0.000128479
0.000128415
4.86198e-05
0.000105093
8.1439e-05
2.1699e-05
2.16958e-05
2.17011e-05
2.16978e-05
8.14327e-05
2.03162e-05
7.9054e-05
5.07419e-05
2.03142e-05
7.9072e-05
3.6709e-05
9.98175e-05
4.10505e-05
9.44101e-05
3.67105e-05
4.10498e-05
9.4444e-05
2.38897e-05
2.03166e-05
7.90502e-05
5.07358e-05
2.03146e-05
7.90674e-05
3.67095e-05
9.98118e-05
9.44117e-05
4.10498e-05
3.67103e-05
9.44348e-05
4.105e-05
2.38888e-05
8.14817e-05
2.17103e-05
2.17071e-05
2.17084e-05
2.17051e-05
8.14878e-05
0.00010518
0.000128648
4.8648e-05
7.78816e-05
0.00010516
0.000128705
4.86482e-05
0.000105187
0.000128628
4.86338e-05
7.78779e-05
0.000105166
0.000128687
4.86411e-05
8.14789e-05
2.17065e-05
2.17033e-05
8.14725e-05
2.17085e-05
2.17053e-05
0.000105191
4.86544e-05
7.78877e-05
0.000128771
0.000128716
4.86513e-05
0.000105209
0.000105196
4.86463e-05
7.78813e-05
0.000128754
0.000128696
4.86383e-05
0.000105215
2.38826e-05
2.38829e-05
2.38805e-05
2.38808e-05
8.14482e-05
2.17033e-05
2.17e-05
2.17013e-05
2.1698e-05
8.14552e-05
0.000105062
0.000128374
7.78292e-05
4.86321e-05
4.86319e-05
0.000128431
0.000105043
0.000105064
0.000128351
7.78227e-05
4.86195e-05
4.86193e-05
0.000128413
0.000105043
0.000105075
4.86366e-05
7.78362e-05
0.000128504
4.86368e-05
0.000105094
0.000128448
0.000105076
4.86241e-05
7.78298e-05
0.000128486
4.86242e-05
0.000105096
0.000128425
8.14448e-05
2.16994e-05
2.16961e-05
2.17014e-05
2.16981e-05
8.14377e-05
2.38875e-05
2.38872e-05
2.38855e-05
2.38851e-05
8.14652e-05
2.17032e-05
2.16999e-05
8.14584e-05
2.17052e-05
2.17019e-05
0.000105138
0.000128645
7.78674e-05
4.86462e-05
4.86466e-05
0.000128592
0.000105157
0.000105139
0.000128627
7.78611e-05
4.86336e-05
4.8634e-05
0.000128568
0.000105159
0.000105126
4.86417e-05
0.000128521
7.78612e-05
0.000105107
4.86419e-05
0.000128575
0.000105128
4.86291e-05
0.000128497
7.78549e-05
0.000105108
4.86294e-05
0.000128557
8.14684e-05
2.1707e-05
2.17037e-05
2.1705e-05
2.17017e-05
8.14749e-05
3.66977e-05
4.10377e-05
9.4361e-05
9.96895e-05
4.10375e-05
9.43272e-05
3.66969e-05
2.0308e-05
5.07164e-05
7.89843e-05
7.90037e-05
2.03059e-05
2.03078e-05
7.90158e-05
5.07156e-05
7.89965e-05
2.03099e-05
3.66932e-05
9.96957e-05
4.1033e-05
9.43031e-05
4.10335e-05
9.43367e-05
3.66941e-05
3.6702e-05
4.10416e-05
9.43637e-05
9.97603e-05
3.67028e-05
4.10422e-05
9.43966e-05
2.03123e-05
5.07313e-05
7.90608e-05
2.03144e-05
7.90426e-05
2.03125e-05
7.90309e-05
5.0732e-05
2.03104e-05
7.90494e-05
3.67067e-05
9.97542e-05
4.10464e-05
9.44203e-05
3.6706e-05
4.10458e-05
9.43877e-05
3.67005e-05
4.10416e-05
9.43521e-05
9.97572e-05
3.67013e-05
4.10421e-05
9.43852e-05
2.03116e-05
5.0726e-05
7.90386e-05
7.90204e-05
2.03137e-05
2.03118e-05
7.90085e-05
5.07262e-05
2.03097e-05
7.90273e-05
3.67053e-05
9.97507e-05
4.10461e-05
9.44093e-05
4.10458e-05
9.43761e-05
3.67043e-05
8.14449e-05
2.17e-05
2.17031e-05
2.1698e-05
2.1701e-05
8.14525e-05
0.000105063
0.00012834
7.7808e-05
4.8619e-05
4.86189e-05
0.000128399
0.000105041
0.000105059
0.000128371
7.78291e-05
4.86309e-05
0.000128432
4.86309e-05
0.000105039
0.000105073
4.86237e-05
7.78152e-05
0.000128472
4.86237e-05
0.000128414
0.000105095
0.000105072
4.86354e-05
7.78363e-05
0.000128505
0.000128445
4.86356e-05
0.000105092
8.14422e-05
2.16961e-05
2.16992e-05
2.16981e-05
2.17012e-05
8.14344e-05
2.38818e-05
2.38821e-05
2.38854e-05
2.38852e-05
8.14626e-05
2.16999e-05
2.17029e-05
8.14552e-05
2.17019e-05
2.17049e-05
0.000105136
0.000128613
7.78466e-05
4.86332e-05
0.000128558
4.86335e-05
0.000105159
0.000105135
0.000128646
7.78678e-05
4.8645e-05
4.86453e-05
0.000128589
0.000105155
0.000105127
4.86286e-05
0.000128487
7.78401e-05
0.000128543
0.000105105
4.86289e-05
0.000105123
4.86403e-05
0.000128517
7.78609e-05
0.000105104
4.86405e-05
0.000128576
8.14651e-05
2.17037e-05
2.17068e-05
2.17017e-05
2.17048e-05
8.14724e-05
2.38868e-05
2.38864e-05
3.66974e-05
4.1037e-05
9.43542e-05
9.96913e-05
4.10369e-05
9.43298e-05
3.66964e-05
2.0308e-05
5.0713e-05
7.89814e-05
7.90005e-05
2.0306e-05
2.03079e-05
7.90127e-05
5.07124e-05
7.89938e-05
2.031e-05
3.66928e-05
9.96898e-05
4.10325e-05
9.4305e-05
4.10329e-05
9.433e-05
3.66938e-05
3.6702e-05
9.43643e-05
4.10412e-05
9.9754e-05
3.67029e-05
9.4389e-05
4.10417e-05
2.03127e-05
5.07291e-05
7.90563e-05
2.03147e-05
7.90387e-05
2.03128e-05
7.90269e-05
5.07254e-05
2.03108e-05
7.9045e-05
3.67064e-05
9.97548e-05
9.44124e-05
4.10457e-05
3.67061e-05
9.43881e-05
4.10454e-05
3.67001e-05
4.1041e-05
9.43541e-05
9.9751e-05
3.6701e-05
4.10414e-05
9.43788e-05
2.03117e-05
5.07224e-05
7.9036e-05
7.90175e-05
2.03138e-05
2.03119e-05
7.90059e-05
5.07231e-05
2.03098e-05
7.90244e-05
3.67047e-05
9.9752e-05
4.10455e-05
9.44017e-05
4.10454e-05
9.43781e-05
3.67041e-05
3.66993e-05
9.43547e-05
4.10366e-05
9.96859e-05
9.43273e-05
4.10367e-05
3.6698e-05
2.03092e-05
5.07159e-05
7.89994e-05
7.90105e-05
2.03071e-05
2.0309e-05
7.90227e-05
5.07196e-05
7.90117e-05
2.03111e-05
3.66945e-05
9.96861e-05
9.43022e-05
4.10322e-05
9.43305e-05
4.10325e-05
3.66956e-05
3.66979e-05
4.10374e-05
9.43572e-05
9.96926e-05
4.10374e-05
9.43327e-05
3.66969e-05
2.03083e-05
5.07142e-05
7.89827e-05
7.90015e-05
2.03062e-05
2.03081e-05
7.90135e-05
5.07136e-05
7.8995e-05
2.03102e-05
3.66933e-05
9.96912e-05
4.10329e-05
9.4308e-05
4.10333e-05
9.43332e-05
3.66943e-05
3.67017e-05
9.43514e-05
4.10407e-05
9.97472e-05
3.67028e-05
9.43789e-05
4.1041e-05
2.03128e-05
5.07301e-05
7.90457e-05
7.90352e-05
2.03149e-05
2.0313e-05
7.90236e-05
5.07265e-05
2.03109e-05
7.90342e-05
3.67067e-05
9.97465e-05
9.44019e-05
4.10451e-05
9.43752e-05
4.10451e-05
3.67057e-05
3.67006e-05
4.10415e-05
9.43569e-05
9.97523e-05
3.67015e-05
4.10418e-05
9.43817e-05
2.0312e-05
5.07236e-05
7.90365e-05
7.90187e-05
2.0314e-05
2.03121e-05
7.90069e-05
5.07243e-05
2.03101e-05
7.90252e-05
3.67053e-05
9.97533e-05
4.10459e-05
9.44045e-05
4.10458e-05
9.43809e-05
3.67046e-05
8.14444e-05
2.17002e-05
2.17035e-05
2.16982e-05
2.17015e-05
8.14512e-05
0.000105064
0.00012834
7.78135e-05
4.86195e-05
4.86195e-05
0.000128405
0.000105045
0.000105063
0.000128372
7.78281e-05
4.8628e-05
0.000128435
4.86353e-05
0.00010504
0.000105078
4.86242e-05
7.78209e-05
0.000128478
4.86242e-05
0.000128414
0.000105096
0.000105073
4.86401e-05
7.78334e-05
0.000128508
0.000128445
4.8633e-05
0.000105096
8.14408e-05
2.16963e-05
2.16996e-05
2.16984e-05
2.17016e-05
8.1434e-05
2.38818e-05
2.38821e-05
2.38845e-05
2.38842e-05
8.14614e-05
2.17001e-05
2.17033e-05
8.14545e-05
2.17021e-05
2.17054e-05
0.000105141
0.000128619
7.78524e-05
4.86338e-05
0.000128558
4.86341e-05
0.000105159
0.000105136
0.000128649
7.78645e-05
4.86495e-05
4.86421e-05
0.000128589
0.000105159
0.000105128
4.86292e-05
0.000128487
7.78454e-05
0.000128549
0.00010511
4.86294e-05
0.000105128
4.86377e-05
0.000128517
7.786e-05
0.000105105
4.86446e-05
0.000128579
8.14644e-05
2.1704e-05
2.17072e-05
2.1702e-05
2.17052e-05
8.14712e-05
2.38867e-05
2.38865e-05
3.66998e-05
9.43657e-05
4.10366e-05
9.96846e-05
9.43414e-05
4.10367e-05
3.66988e-05
2.03097e-05
5.07176e-05
7.90036e-05
7.90224e-05
2.03077e-05
2.03096e-05
7.90344e-05
5.07201e-05
7.90158e-05
2.03116e-05
3.66951e-05
9.96847e-05
9.43168e-05
4.10322e-05
9.43418e-05
4.10324e-05
3.66962e-05
3.66968e-05
9.43464e-05
4.10359e-05
9.96735e-05
9.43205e-05
4.10362e-05
3.66956e-05
2.03078e-05
5.07127e-05
7.89807e-05
7.89995e-05
2.03057e-05
2.03077e-05
7.90115e-05
5.0712e-05
7.89929e-05
2.03097e-05
3.6692e-05
9.96751e-05
9.42956e-05
4.10317e-05
9.43223e-05
4.10318e-05
3.66932e-05
3.67025e-05
9.43656e-05
4.10407e-05
9.97459e-05
3.67033e-05
9.43901e-05
4.10409e-05
2.03134e-05
5.07305e-05
7.90575e-05
7.90395e-05
2.03154e-05
2.03135e-05
7.90278e-05
5.07268e-05
2.03115e-05
7.9046e-05
3.67071e-05
9.97452e-05
9.4413e-05
4.1045e-05
9.43894e-05
4.10451e-05
3.67064e-05
3.66993e-05
9.43447e-05
4.10402e-05
9.97363e-05
3.67004e-05
9.43708e-05
4.10403e-05
2.03115e-05
5.0722e-05
7.90347e-05
7.90165e-05
2.03135e-05
2.03116e-05
7.90048e-05
5.07227e-05
2.03096e-05
7.90232e-05
3.67041e-05
9.97343e-05
9.43938e-05
4.10444e-05
9.43687e-05
4.10446e-05
3.67033e-05
2.38804e-05
2.38807e-05
2.38794e-05
2.38796e-05
8.14595e-05
2.17028e-05
2.16996e-05
8.1453e-05
2.17048e-05
2.17016e-05
0.00010513
0.000128637
7.78585e-05
4.86433e-05
0.000105149
0.000128579
4.86436e-05
0.000105136
0.000128619
7.78517e-05
4.86363e-05
0.000105157
0.000128559
4.86289e-05
0.000105118
4.86386e-05
0.000128507
7.78513e-05
0.000105098
0.000128567
4.8639e-05
0.000105125
4.86245e-05
0.000128487
7.78472e-05
0.000105105
0.00012855
4.86312e-05
8.14628e-05
2.17067e-05
2.17034e-05
8.14694e-05
2.17047e-05
2.17014e-05
2.38854e-05
2.38851e-05
2.38843e-05
2.3884e-05
2.38918e-05
2.38897e-05
0.000105187
0.000128661
4.86513e-05
7.78914e-05
0.000105169
4.86502e-05
0.000128713
0.000105189
0.000128637
4.86388e-05
7.7885e-05
0.00010517
4.86377e-05
0.000128695
8.14843e-05
2.17069e-05
2.17036e-05
8.14781e-05
2.17089e-05
2.17056e-05
2.03155e-05
7.9032e-05
5.07339e-05
2.03135e-05
7.90495e-05
3.67075e-05
9.98139e-05
4.10506e-05
9.43986e-05
4.10497e-05
3.67089e-05
9.44326e-05
0.00010519
0.000128627
4.86383e-05
7.78696e-05
4.86372e-05
0.000105166
0.000128682
0.000105187
0.000128657
4.86488e-05
7.7893e-05
0.000128714
0.000105164
4.86508e-05
8.14822e-05
2.17036e-05
2.17066e-05
2.17056e-05
8.14747e-05
2.17086e-05
2.03156e-05
7.9029e-05
5.07333e-05
2.03136e-05
7.90471e-05
3.67076e-05
9.9809e-05
4.10495e-05
9.44013e-05
4.105e-05
3.67082e-05
9.44248e-05
3.67123e-05
9.98045e-05
4.10531e-05
9.44208e-05
4.10537e-05
2.03168e-05
7.90463e-05
5.07358e-05
7.90567e-05
2.03147e-05
3.67096e-05
9.98051e-05
9.43984e-05
4.10492e-05
9.44245e-05
3.67096e-05
4.10495e-05
2.03166e-05
3.67124e-05
9.98112e-05
4.10539e-05
9.44484e-05
4.10544e-05
9.44263e-05
3.67113e-05
2.03159e-05
7.90299e-05
5.07346e-05
2.03138e-05
7.90476e-05
3.67082e-05
9.98103e-05
4.105e-05
9.44039e-05
3.67087e-05
4.10504e-05
9.44276e-05
2.03157e-05
7.90582e-05
5.07337e-05
7.90408e-05
2.03177e-05
0.000105189
0.000128628
4.86383e-05
7.7876e-05
4.86386e-05
0.000105171
0.000128687
0.000105189
0.000128658
4.86476e-05
7.789e-05
0.000128717
0.000105167
4.86543e-05
8.14807e-05
2.17038e-05
2.17071e-05
2.17058e-05
8.1474e-05
2.17091e-05
2.3891e-05
3.67143e-05
9.98033e-05
9.44567e-05
4.1053e-05
9.44348e-05
4.10537e-05
3.67132e-05
2.03173e-05
7.90508e-05
5.07367e-05
7.90683e-05
2.03153e-05
3.671e-05
9.98038e-05
9.44125e-05
4.10492e-05
9.44359e-05
3.67105e-05
4.10495e-05
2.03171e-05
7.90788e-05
7.90618e-05
2.03191e-05
3.67111e-05
9.97923e-05
9.44377e-05
4.10524e-05
9.44143e-05
4.10532e-05
3.67108e-05
2.03154e-05
7.90278e-05
5.0733e-05
2.03133e-05
7.90457e-05
3.6708e-05
9.97943e-05
9.43917e-05
4.10487e-05
3.67075e-05
9.44168e-05
4.10489e-05
2.03152e-05
7.90563e-05
5.07321e-05
7.90387e-05
2.03172e-05
2.38896e-05
2.38899e-05
2.38886e-05
2.38888e-05
0.000199217
0.000199216
0.000204087
0.000200027
0.000200026
0.000189324
0.000188301
0.000137894
0.000160916
0.000160894
0.000180747
0.00016097
0.00016095
0.000137857
0.000202423
0.000202422
0.00019339
0.000192378
0.000138235
0.000161541
0.000161523
0.000181696
0.000138198
0.000161588
0.000161576
0.000137907
0.000160922
0.000160917
0.000180768
0.000160976
0.00016097
0.000137867
0.000138126
0.000181412
0.000161454
0.000161438
0.000161403
0.000161383
0.000138162
0.0001379
0.000160896
0.000160918
0.000180757
0.000160973
0.000160951
0.000137863
0.000138121
0.00018139
0.000161421
0.000161447
0.000161368
0.000161397
0.000138157
0.000137901
0.000160906
0.000160928
0.000180758
0.000160983
0.000160962
0.000137864
0.000138122
0.000181408
0.00016143
0.000161451
0.000161374
0.000161398
0.000138158
0.000138115
0.000181393
0.000161442
0.000161427
0.000138151
0.00016139
0.000161368
0.000138244
0.000161556
0.00016154
0.000181698
0.000138209
0.000161594
0.000161582
0.000138246
0.000161527
0.00016155
0.00018179
0.000161625
0.0001382
0.000161602
0.000138242
0.000161525
0.000161547
0.000181712
0.000161602
0.000138203
0.000161586
0.000199215
0.000199217
0.000204078
0.000200024
0.000200024
0.000189324
0.000188301
0.000199224
0.000199227
0.000204093
0.000200033
0.000200037
0.000189333
0.00018831
0.000199224
0.000199223
0.000204089
0.000200032
0.000200035
0.000189332
0.00018831
0.000204719
0.00020163
0.000201628
0.000200832
0.000200831
0.000190345
0.000191363
0.000204714
0.000201627
0.000201626
0.00020083
0.000200832
0.000190345
0.000191363
0.000204725
0.000201636
0.00020164
0.000200839
0.000200842
0.000190353
0.000191371
0.000204716
0.000201634
0.000201639
0.00020084
0.000200837
0.000190354
0.000191371
0.000170446
0.000137218
0.000175602
0.000143621
0.000137143
0.000175587
0.000170515
0.00015995
0.000146888
0.000103404
0.000122355
0.000146962
0.00012242
0.000159911
0.00016007
0.000122486
0.000103401
0.000147072
0.000147018
0.000122423
0.000160108
0.00017032
0.000143597
0.000137051
0.000175352
0.000137127
0.000175373
0.000170243
0.000170454
0.000175603
0.000137225
0.000143621
0.000175589
0.000137152
0.000170519
0.000159958
0.000146911
0.000103405
0.000122366
0.000146948
0.000122426
0.000159921
0.000160078
0.000122492
0.000103403
0.000147074
0.000147036
0.000122433
0.000160113
0.000170325
0.000143597
0.000175353
0.000137059
0.000175374
0.000137134
0.000170251
0.000137945
0.000180909
0.000161124
0.000161113
0.000161068
0.000161055
0.000137982
0.00020242
0.000202423
0.000203204
0.000193389
0.000192378
0.000202429
0.000202432
0.000203218
0.000193398
0.000192386
0.000202431
0.000202426
0.000206574
0.00020321
0.00020322
0.000193397
0.000192387
0.000171214
0.000144037
0.000137565
0.000176436
0.000137499
0.000176449
0.000171282
0.000160569
0.000147395
0.000122617
0.00010356
0.000160548
0.000147427
0.000122675
0.000171096
0.000144013
0.000137414
0.000176224
0.000171032
0.000137483
0.000176238
0.000171228
0.000144036
0.000176439
0.000137573
0.000176449
0.000137507
0.000171277
0.000160577
0.000147396
0.000122627
0.000103562
0.00016055
0.00014743
0.000122682
0.000171099
0.000144013
0.000176225
0.000137423
0.000171039
0.000176239
0.000137491
0.000160703
0.00012274
0.000122688
0.000160714
0.000138279
0.000181854
0.000161733
0.000161719
0.000161698
0.000161679
0.000138314
0.000137955
0.000180929
0.000161135
0.000161125
0.000137993
0.000161083
0.000161068
0.000138079
0.000181251
0.000161244
0.000161226
0.000138041
0.000161296
0.000161285
0.000170424
0.000137235
0.000175664
0.000143614
0.000137138
0.000175525
0.000170557
0.000159996
0.000146888
0.000103406
0.000122358
0.000122426
0.000146964
0.000159863
0.000160019
0.000122493
0.000103402
0.000147088
0.000122424
0.000147013
0.000160159
0.000170343
0.000143612
0.000137046
0.000175296
0.000137143
0.000175435
0.000170224
0.000170403
0.000137222
0.000175658
0.00014361
0.000137124
0.000175519
0.000170547
0.000159973
0.000146855
0.000103383
0.000122339
0.000122409
0.000146932
0.000159838
0.000159993
0.000122475
0.000103378
0.000147056
0.000122405
0.000160137
0.000146981
0.000170331
0.000143608
0.000137033
0.000175291
0.00013713
0.00017543
0.000170206
0.000170767
0.000137231
0.000175739
0.000143826
0.000170611
0.000137326
0.000175877
0.000160317
0.000147328
0.000103483
0.000122622
0.000147257
0.000122555
0.00016048
0.000160325
0.000122491
0.000147134
0.000103486
0.000147206
0.000160173
0.000122558
0.000170785
0.000143827
0.000137416
0.000176093
0.000137321
0.000175956
0.000170957
0.000170757
0.000137217
0.000175732
0.000143821
0.000170587
0.000137313
0.000175871
0.000160286
0.000147296
0.000103458
0.000122605
0.000122536
0.000147224
0.000160465
0.000160304
0.000122472
0.000147102
0.000103463
0.000160145
0.00012254
0.000147174
0.000170759
0.000143822
0.000137403
0.000176087
0.000137308
0.000175949
0.000170953
0.00013795
0.000180918
0.000161113
0.000161135
0.00016108
0.000161056
0.000137987
0.000138074
0.000181244
0.000161212
0.000161233
0.000161271
0.000138036
0.000161287
0.00017044
0.000137218
0.000175598
0.000143622
0.000137144
0.000175584
0.000170506
0.000159937
0.000146889
0.000103395
0.000122355
0.000122416
0.000146926
0.000159901
0.000160059
0.000122482
0.000103394
0.000147051
0.000122422
0.000147014
0.000160093
0.000170311
0.000143598
0.000137051
0.00017535
0.000137127
0.000175371
0.000170237
0.000170427
0.000175595
0.000137209
0.000143619
0.00017558
0.000137135
0.000170511
0.000159971
0.000146857
0.000103386
0.000122337
0.000122408
0.000146933
0.00015985
0.000160008
0.000122475
0.000103382
0.000147057
0.000122404
0.000160131
0.000146983
0.000170313
0.000143595
0.000175347
0.000137042
0.000175369
0.000137117
0.000170225
0.000170702
0.000137236
0.000175797
0.000143811
0.000170641
0.00013731
0.000175811
0.000160374
0.0001473
0.000103475
0.000122612
0.00014726
0.000122554
0.000160404
0.000160243
0.000122488
0.000147135
0.000103476
0.000147173
0.000160219
0.000122548
0.000170839
0.000143834
0.000137398
0.000176025
0.000137327
0.000176015
0.000170897
0.000170708
0.000175794
0.000137228
0.000143808
0.000170628
0.000175809
0.000137301
0.000160316
0.000147299
0.000103462
0.000122604
0.000122536
0.000147225
0.000160457
0.000160295
0.000122471
0.000147105
0.000103466
0.000160167
0.000122539
0.000147176
0.000170826
0.000143831
0.000176022
0.000137389
0.000176011
0.000137318
0.000170897
0.000170442
0.000175599
0.000137215
0.000143622
0.000175586
0.000137141
0.000170507
0.000159938
0.000146893
0.000103393
0.000122348
0.00014693
0.000122413
0.000159901
0.000160059
0.000122479
0.00010339
0.000147055
0.000147017
0.000122416
0.000160095
0.000170312
0.000143598
0.000175352
0.000137047
0.000175373
0.000137124
0.000170239
0.000170709
0.000137235
0.000175798
0.00014381
0.000170647
0.000137309
0.000175815
0.000160386
0.000147305
0.000103481
0.000122614
0.000160414
0.000147268
0.000122554
0.000160258
0.000122488
0.000147141
0.000103484
0.000160229
0.000147187
0.000122551
0.000170845
0.000143832
0.000137398
0.000176021
0.000170905
0.000137325
0.000176013
0.000170702
0.000175799
0.000137233
0.000143811
0.000170643
0.000175813
0.000137307
0.000160376
0.000147297
0.000103472
0.000122607
0.000122548
0.000147262
0.000160403
0.000160245
0.000122481
0.000147138
0.000103473
0.000160219
0.000122544
0.000147176
0.000170841
0.000143834
0.000176026
0.000137395
0.000176016
0.000137323
0.000170899
0.000137951
0.00018092
0.000161115
0.000161137
0.000161079
0.000161057
0.000137989
0.000138074
0.000181243
0.000161215
0.000161238
0.000161275
0.000138038
0.000161297
0.000170433
0.000175594
0.000137205
0.000143612
0.000175581
0.000137131
0.0001705
0.00015993
0.000146879
0.000103386
0.000122342
0.000146916
0.000122404
0.000159893
0.00016005
0.00012247
0.000103385
0.000147041
0.000147004
0.00012241
0.000160086
0.000170305
0.000143588
0.000175347
0.000137038
0.000175368
0.000137114
0.00017023
0.000170715
0.000175799
0.000137243
0.000143809
0.000170654
0.000175816
0.000137317
0.000160393
0.000147314
0.000103483
0.000122621
0.000160424
0.000147279
0.000122564
0.000160263
0.000122499
0.000147156
0.000103486
0.000160238
0.000147196
0.000122558
0.000170852
0.000143831
0.000176022
0.000137405
0.000170911
0.000176015
0.000137333
0.000170694
0.000175794
0.000137223
0.000143801
0.000170634
0.000175808
0.000137297
0.000160367
0.000147283
0.000103465
0.000122599
0.000122541
0.000147247
0.000160396
0.000160236
0.000122475
0.000147125
0.000103467
0.00016021
0.000122536
0.000147163
0.000170832
0.000143823
0.000176021
0.000137384
0.000176011
0.000137313
0.00017089
0.000138068
0.000181233
0.000161224
0.00016121
0.000138031
0.000161279
0.000161272
0.000160632
0.000147382
0.000122619
0.000103563
0.000122684
0.000160477
0.000147439
0.00017115
0.000144028
0.000137408
0.000176173
0.000137505
0.000170985
0.000176308
0.000160633
0.000147349
0.0001226
0.000103539
0.000160431
0.000122667
0.000147406
0.000171162
0.000144024
0.000137395
0.000176167
0.000170945
0.000137492
0.000176303
0.000160551
0.000147369
0.000122616
0.000103552
0.000122674
0.000160527
0.000147399
0.000171091
0.000144016
0.000137415
0.000176226
0.000137485
0.000171031
0.000176244
0.000160618
0.000147344
0.000122599
0.000103543
0.000160461
0.000122665
0.000147413
0.000171091
0.000144013
0.000176223
0.000137407
0.00017102
0.000176243
0.000137476
0.000171214
0.000144039
0.000176439
0.000137564
0.000176453
0.000137498
0.00017128
0.00016055
0.000147378
0.00012261
0.00010355
0.00014741
0.000160531
0.000122668
0.000171095
0.000144016
0.000176228
0.000137411
0.000176246
0.000171032
0.000137482
0.000160695
0.000122727
0.000103547
0.000147522
0.000147496
0.000122673
0.000160693
0.000171215
0.000144029
0.000176435
0.000137554
0.000176447
0.000137487
0.000171261
0.000160545
0.000147363
0.000122604
0.000103543
0.000147399
0.00016052
0.000122661
0.000171083
0.000144006
0.000176223
0.000137401
0.000176241
0.000171024
0.000137472
0.000160678
0.000122719
0.000103541
0.000147518
0.000147481
0.000122666
0.000160688
0.00013864
0.000136666
0.000138657
5.00142e-05
9.38209e-05
2.36114e-05
7.37214e-05
7.37309e-05
2.36127e-05
9.38301e-05
5.00151e-05
2.01023e-05
5.00126e-05
7.6044e-05
7.60001e-05
2.01043e-05
2.36093e-05
9.72733e-05
0.00011265
7.36903e-05
4.79319e-05
0.000112501
4.79215e-05
9.73341e-05
9.72669e-05
0.000112666
7.3702e-05
4.79394e-05
4.7938e-05
0.000112524
9.73164e-05
7.88204e-05
2.14899e-05
2.14928e-05
2.14877e-05
2.14907e-05
7.8844e-05
2.36106e-05
2.01034e-05
5.00133e-05
7.60533e-05
7.60086e-05
2.01055e-05
0.000119527
0.000136648
0.000129817
0.000129824
0.000129709
0.000129724
0.000119608
0.000128558
0.000122114
9.36847e-05
0.000107739
0.000107539
0.000122032
0.000128589
0.000128481
0.000122176
9.37008e-05
0.000107736
0.000122037
0.000107553
0.000128694
0.000123071
0.000139445
0.000139453
0.000137114
0.000125869
0.000142567
0.000142578
0.00013962
0.000128827
0.000145655
0.000145666
0.000141963
0.000131922
0.000148698
0.000148711
0.000144285
0.000135135
0.000151692
0.000151707
0.00014655
0.000138445
0.00015463
0.000154646
0.000148766
0.000141833
0.000157508
0.000157524
0.000150926
0.00014528
0.000160324
0.000160339
0.000153016
0.000148771
0.000163077
0.000163091
0.000155065
0.00015229
0.000165763
0.000165777
0.000157056
0.000155822
0.000168382
0.000168395
0.00015897
0.000159355
0.000170931
0.000170943
0.000160818
0.000162875
0.00017341
0.000173421
0.000162724
0.00016637
0.000175817
0.000175828
0.000164462
0.00016983
0.000178151
0.000178161
0.000166128
0.000173248
0.00018041
0.00018042
0.000167733
0.000176613
0.000182594
0.000182604
0.000169293
0.000179919
0.000184702
0.00018471
0.000170795
0.000183157
0.000186732
0.00018674
0.000172246
0.00018632
0.000188685
0.000188693
0.000173612
0.000189404
0.000190559
0.000190567
0.000174921
0.000192402
0.000192356
0.000192363
0.000176172
0.000195309
0.000194073
0.000194081
0.000177362
0.000198122