/*--------------------------------*- C++ -*----------------------------------*\
| =========                 |                                                 |
| \\      /  F ield         | OpenFOAM: The Open Source CFD Toolbox           |
|  \\    /   O peration     | Version:  2312                                  |
|   \\  /    A nd           | Website:  www.openfoam.com                      |
|    \\/     M anipulation  |                                                 |
\*---------------------------------------------------------------------------*/
FoamFile
{
    version     2.0;
    format      ascii;
    arch        "LSB;label=32;scalar=64";
    class       volScalarField;
    location    "150";
    object      k;
}
// * * * * * * * * * * * * * * * * * * * * * * * * * * * * * * * * * * * * * //

dimensions      [0 2 -2 0 0 0 0];

internalField   nonuniform List<scalar> 
172512
(
1.34214e-05
2.19235e-05
2.18783e-05
2.78747e-05
2.77756e-05
2.19063e-05
2.19046e-05
2.77695e-05
2.18676e-05
2.18842e-05
2.19228e-05
2.18924e-05
2.76507e-05
2.18771e-05
2.18721e-05
2.78265e-05
2.78263e-05
2.1907e-05
2.19059e-05
2.78173e-05
2.1871e-05
2.18853e-05
2.18952e-05
2.77075e-05
2.18732e-05
7.00583e-05
5.99944e-05
7.00307e-05
1.34205e-05
1.3439e-05
1.34213e-05
1.34195e-05
6.8755e-05
2.18782e-05
5.37589e-05
5.98806e-05
7.00523e-05
5.99463e-05
7.00491e-05
6.87403e-05
6.87486e-05
5.99672e-05
7.00296e-05
5.99819e-05
7.00306e-05
1.34388e-05
1.34216e-05
1.34205e-05
4.22569e-05
5.38223e-05
1.65512e-05
2.19243e-05
4.22293e-05
5.37744e-05
1.65511e-05
6.87487e-05
6.87571e-05
4.22396e-05
1.6497e-05
5.37687e-05
2.18781e-05
4.22438e-05
1.64972e-05
5.37578e-05
6.31818e-05
6.31771e-05
2.78283e-05
6.31858e-05
6.31802e-05
6.87528e-05
6.87492e-05
2.77549e-05
6.31929e-05
6.31877e-05
6.87504e-05
6.87452e-05
6.87511e-05
6.87422e-05
2.77996e-05
6.31558e-05
6.31929e-05
6.31976e-05
6.31996e-05
2.19047e-05
5.38155e-05
6.00041e-05
7.00551e-05
7.00561e-05
5.99682e-05
5.9996e-05
7.003e-05
7.00303e-05
5.99281e-05
4.25927e-05
2.19053e-05
5.37953e-05
1.66239e-05
5.38054e-05
1.66242e-05
4.2494e-05
4.25302e-05
2.19041e-05
5.37768e-05
1.66013e-05
5.38201e-05
1.66011e-05
4.2429e-05
6.87481e-05
6.87405e-05
2.77999e-05
6.31819e-05
6.31924e-05
6.31931e-05
6.87632e-05
4.23015e-05
2.18637e-05
5.37835e-05
1.64909e-05
5.99989e-05
7.00309e-05
4.23914e-05
2.18841e-05
1.6521e-05
5.38076e-05
5.99763e-05
7.00314e-05
7.00296e-05
5.9989e-05
4.22884e-05
2.1865e-05
5.37676e-05
1.6492e-05
5.37934e-05
1.64911e-05
4.2359e-05
5.99935e-05
7.00326e-05
7.00299e-05
6.00045e-05
4.24297e-05
2.18837e-05
1.65229e-05
5.38021e-05
1.65204e-05
5.38057e-05
4.24158e-05
5.38087e-05
1.65504e-05
4.22342e-05
7.00359e-05
5.98706e-05
1.65476e-05
5.37874e-05
4.23691e-05
7.00316e-05
5.99398e-05
2.77105e-05
6.31985e-05
6.31662e-05
6.87447e-05
6.87557e-05
6.87475e-05
2.76916e-05
6.31867e-05
6.31631e-05
6.31888e-05
6.31693e-05
6.87463e-05
6.87375e-05
7.00223e-05
4.22141e-05
2.1877e-05
1.64966e-05
5.37784e-05
1.64972e-05
5.37569e-05
4.22456e-05
4.22379e-05
2.18718e-05
1.64952e-05
5.37534e-05
1.64933e-05
5.37443e-05
4.22599e-05
5.98819e-05
7.00242e-05
7.00211e-05
5.98888e-05
5.98622e-05
7.00128e-05
7.00105e-05
5.98639e-05
2.78739e-05
6.31792e-05
6.31741e-05
6.31733e-05
6.87498e-05
6.87369e-05
6.8729e-05
6.87416e-05
6.87462e-05
6.8744e-05
6.8752e-05
6.31565e-05
6.32059e-05
2.78e-05
6.31474e-05
6.31965e-05
6.87379e-05
6.87443e-05
2.78474e-05
6.31527e-05
6.31959e-05
5.98943e-05
7.00276e-05
5.99276e-05
7.00274e-05
4.24878e-05
5.37894e-05
1.66224e-05
2.19083e-05
4.25132e-05
5.37668e-05
1.66213e-05
4.24213e-05
5.37747e-05
1.66008e-05
2.19065e-05
4.24315e-05
5.37691e-05
1.66003e-05
5.98584e-05
7.00461e-05
5.98832e-05
7.00251e-05
4.24491e-05
2.19093e-05
5.37673e-05
1.66196e-05
4.24278e-05
2.19072e-05
5.37588e-05
1.65983e-05
6.31858e-05
6.31958e-05
2.77893e-05
6.31875e-05
6.31956e-05
6.87563e-05
6.87656e-05
6.87408e-05
2.78366e-05
6.31901e-05
6.31977e-05
6.87586e-05
4.23097e-05
5.37647e-05
1.64928e-05
2.18733e-05
4.23671e-05
5.37607e-05
1.64944e-05
5.99962e-05
7.00313e-05
6.00003e-05
7.0034e-05
4.24391e-05
1.65246e-05
5.37929e-05
2.18872e-05
4.24535e-05
1.65261e-05
5.38239e-05
5.99734e-05
7.00286e-05
4.22955e-05
2.18747e-05
5.37504e-05
1.64956e-05
5.99909e-05
7.00325e-05
4.24481e-05
2.18884e-05
1.65274e-05
5.38127e-05
5.98905e-05
7.00343e-05
5.98715e-05
7.00348e-05
4.23573e-05
1.65486e-05
5.38151e-05
2.18962e-05
4.23773e-05
1.65502e-05
5.38234e-05
5.99348e-05
7.003e-05
5.99251e-05
7.00312e-05
4.22489e-05
2.19279e-05
5.37854e-05
1.65521e-05
5.98837e-05
7.00328e-05
4.23336e-05
2.18968e-05
1.65511e-05
5.38099e-05
5.99294e-05
7.00293e-05
6.31877e-05
6.31679e-05
2.76903e-05
6.31828e-05
6.31801e-05
6.87394e-05
6.87491e-05
6.87496e-05
2.77433e-05
6.31838e-05
6.31835e-05
6.87423e-05
4.21833e-05
1.64976e-05
5.37661e-05
2.18746e-05
4.22626e-05
1.64981e-05
5.37691e-05
5.98785e-05
7.00231e-05
5.98743e-05
7.00254e-05
5.98774e-05
7.00117e-05
5.98776e-05
7.00144e-05
4.22236e-05
2.18801e-05
1.64992e-05
5.37748e-05
4.22309e-05
2.18752e-05
1.64984e-05
5.37665e-05
5.98811e-05
7.00238e-05
5.98786e-05
7.00131e-05
6.87421e-05
6.87499e-05
6.87297e-05
6.87389e-05
2.78757e-05
6.31934e-05
6.31837e-05
6.87426e-05
6.87321e-05
6.98378e-05
7.55886e-05
7.00569e-05
7.55882e-05
6.98487e-05
6.93336e-05
5.99995e-05
6.43441e-05
6.89323e-05
6.43337e-05
6.89286e-05
6.93387e-05
6.97883e-05
7.55718e-05
7.00284e-05
7.55694e-05
6.98007e-05
6.87472e-05
6.93999e-05
5.98985e-05
6.89897e-05
6.43351e-05
6.89907e-05
6.43356e-05
6.9401e-05
6.98391e-05
7.55682e-05
7.00524e-05
6.98285e-05
7.55684e-05
6.94066e-05
5.99283e-05
6.89991e-05
6.43474e-05
6.94054e-05
6.89982e-05
6.43463e-05
6.98254e-05
7.55644e-05
7.00486e-05
7.55638e-05
6.9836e-05
6.87483e-05
6.87405e-05
6.93424e-05
5.99632e-05
6.43752e-05
6.89377e-05
6.43725e-05
6.89344e-05
6.93469e-05
6.98013e-05
7.55671e-05
7.00309e-05
6.97889e-05
7.55687e-05
6.93455e-05
5.99814e-05
6.43689e-05
6.89335e-05
6.93407e-05
6.43744e-05
6.89367e-05
6.97892e-05
7.55675e-05
7.00293e-05
7.55657e-05
6.98017e-05
6.87569e-05
6.87496e-05
8.97046e-05
7.1483e-05
7.14739e-05
7.14711e-05
7.14618e-05
8.97035e-05
6.41881e-05
5.03177e-05
6.93819e-05
6.31816e-05
6.41911e-05
5.03039e-05
6.93848e-05
6.42513e-05
5.03541e-05
6.9382e-05
6.31781e-05
6.42291e-05
5.03588e-05
6.93853e-05
8.97024e-05
7.14703e-05
7.14609e-05
8.97026e-05
7.14821e-05
7.14727e-05
6.41932e-05
6.93858e-05
6.31857e-05
5.03513e-05
5.03392e-05
6.93826e-05
6.41918e-05
6.42537e-05
6.93869e-05
6.31804e-05
5.03259e-05
5.03568e-05
6.93834e-05
6.42617e-05
6.87451e-05
6.87412e-05
8.97232e-05
7.14882e-05
7.14845e-05
7.14766e-05
7.14728e-05
8.97237e-05
6.42013e-05
6.93902e-05
6.3188e-05
5.02954e-05
6.93873e-05
6.42049e-05
5.03255e-05
6.42688e-05
6.94037e-05
6.31932e-05
5.03498e-05
6.94007e-05
6.42723e-05
5.03565e-05
6.87441e-05
6.87526e-05
6.87432e-05
6.87503e-05
8.97186e-05
7.14765e-05
7.14729e-05
8.97257e-05
7.14874e-05
7.14841e-05
6.41978e-05
5.03247e-05
6.31752e-05
6.93874e-05
6.93865e-05
5.03101e-05
6.41686e-05
6.42753e-05
5.04023e-05
6.31996e-05
6.94047e-05
6.9402e-05
5.03729e-05
6.42615e-05
6.42096e-05
6.93875e-05
5.0328e-05
6.31939e-05
6.41953e-05
6.93901e-05
5.03439e-05
6.42789e-05
6.94014e-05
5.03931e-05
6.32012e-05
6.42776e-05
6.94044e-05
5.03937e-05
8.97133e-05
7.14853e-05
7.14825e-05
7.14749e-05
7.14717e-05
8.97043e-05
6.94176e-05
6.90145e-05
6.43794e-05
5.99964e-05
6.94162e-05
6.90141e-05
6.43765e-05
6.98317e-05
7.00546e-05
7.55737e-05
6.98423e-05
7.55729e-05
6.98455e-05
7.55804e-05
7.00572e-05
6.98349e-05
7.55812e-05
6.94109e-05
5.9976e-05
6.90063e-05
6.43594e-05
6.94121e-05
6.90071e-05
6.43622e-05
6.93973e-05
6.9009e-05
6.43656e-05
5.99955e-05
6.9394e-05
6.90095e-05
6.43653e-05
6.98052e-05
7.00291e-05
7.55189e-05
7.55166e-05
6.98166e-05
6.98179e-05
7.55233e-05
7.00313e-05
6.98062e-05
7.55241e-05
6.93925e-05
5.99531e-05
6.90031e-05
6.43477e-05
6.90036e-05
6.43461e-05
6.93954e-05
6.87402e-05
6.87483e-05
6.42498e-05
5.03345e-05
6.3178e-05
6.93943e-05
5.03606e-05
6.93915e-05
6.4247e-05
6.42413e-05
5.03768e-05
6.31838e-05
6.94066e-05
6.94029e-05
5.03872e-05
6.4244e-05
5.03611e-05
6.31865e-05
5.03532e-05
8.97166e-05
7.14813e-05
7.14973e-05
7.14698e-05
7.14851e-05
8.97087e-05
6.87547e-05
6.93582e-05
5.99999e-05
6.89508e-05
6.43451e-05
6.89475e-05
6.43366e-05
6.93627e-05
6.97958e-05
7.55345e-05
7.00285e-05
7.55303e-05
6.98088e-05
6.93411e-05
6.4339e-05
6.89305e-05
5.99905e-05
6.9336e-05
6.43458e-05
6.89341e-05
6.97888e-05
7.003e-05
7.55702e-05
6.9801e-05
7.55685e-05
6.98009e-05
7.5569e-05
7.00316e-05
6.97886e-05
7.55712e-05
6.93385e-05
5.99857e-05
6.43674e-05
6.89356e-05
6.93436e-05
6.43588e-05
6.89322e-05
6.93644e-05
6.89487e-05
6.43482e-05
6.00023e-05
6.93598e-05
6.89523e-05
6.43507e-05
6.97984e-05
7.00306e-05
7.55372e-05
7.55349e-05
6.98109e-05
6.98101e-05
7.55333e-05
7.00319e-05
6.97973e-05
7.55368e-05
6.93613e-05
6.0001e-05
6.89539e-05
6.43552e-05
6.89504e-05
6.43498e-05
6.93657e-05
6.97959e-05
7.00344e-05
7.55289e-05
7.55269e-05
6.9809e-05
6.93503e-05
5.98866e-05
6.42913e-05
6.89431e-05
6.42899e-05
6.89399e-05
6.93548e-05
6.97985e-05
7.00303e-05
7.55245e-05
7.55235e-05
6.98103e-05
6.93595e-05
5.99386e-05
6.89585e-05
6.43023e-05
6.89549e-05
6.4296e-05
6.93642e-05
8.97216e-05
7.14872e-05
7.14924e-05
7.14756e-05
7.14808e-05
8.9715e-05
6.42705e-05
6.94042e-05
6.32091e-05
5.03615e-05
6.94017e-05
5.03696e-05
6.4254e-05
6.41883e-05
6.93869e-05
6.31714e-05
5.03191e-05
5.03636e-05
6.93847e-05
6.41684e-05
6.8737e-05
6.87479e-05
6.87552e-05
8.97171e-05
7.14759e-05
7.14809e-05
8.97191e-05
7.14875e-05
7.14924e-05
6.42752e-05
5.03565e-05
6.31862e-05
6.9405e-05
5.03398e-05
6.94021e-05
6.42762e-05
6.41913e-05
5.02875e-05
6.31715e-05
6.93867e-05
6.93842e-05
5.03005e-05
6.4181e-05
6.42583e-05
6.94016e-05
5.03378e-05
6.31878e-05
5.03679e-05
6.42703e-05
6.94043e-05
6.41874e-05
6.9384e-05
5.03132e-05
6.31697e-05
6.4174e-05
6.93868e-05
5.02989e-05
8.97187e-05
7.14874e-05
7.14922e-05
7.1476e-05
7.14808e-05
8.97165e-05
6.87384e-05
6.87455e-05
7.00204e-05
6.93429e-05
6.42914e-05
6.89196e-05
5.98862e-05
6.93388e-05
6.42947e-05
6.89227e-05
6.97886e-05
7.00221e-05
7.5525e-05
7.55228e-05
6.9801e-05
6.98005e-05
7.55228e-05
7.0023e-05
6.9788e-05
7.55254e-05
6.93393e-05
5.98859e-05
6.42947e-05
6.89234e-05
6.42923e-05
6.89203e-05
6.93435e-05
6.93347e-05
6.42522e-05
6.89176e-05
5.98562e-05
6.93305e-05
6.42534e-05
6.89207e-05
6.978e-05
7.00109e-05
7.54938e-05
7.54925e-05
6.97923e-05
6.97922e-05
7.54941e-05
7.00121e-05
6.97798e-05
7.54957e-05
6.9331e-05
5.98725e-05
6.42494e-05
6.89216e-05
6.4249e-05
6.89184e-05
6.93354e-05
8.96995e-05
7.14813e-05
7.14716e-05
6.41853e-05
5.03164e-05
6.31814e-05
6.93844e-05
6.41823e-05
5.02973e-05
6.93818e-05
6.42422e-05
5.03452e-05
6.31742e-05
6.93845e-05
6.42368e-05
5.03508e-05
6.9382e-05
6.41813e-05
6.3172e-05
5.03395e-05
6.93846e-05
6.42407e-05
5.03396e-05
6.31656e-05
5.0341e-05
6.93848e-05
8.97009e-05
7.14815e-05
7.1472e-05
8.97003e-05
7.14698e-05
7.14603e-05
6.87424e-05
6.875e-05
6.87291e-05
6.87364e-05
6.87481e-05
6.87396e-05
6.87519e-05
6.87445e-05
8.97048e-05
7.1482e-05
7.14805e-05
7.14712e-05
7.14692e-05
8.97034e-05
6.4165e-05
5.03404e-05
6.93831e-05
6.31493e-05
6.41863e-05
6.93839e-05
5.03229e-05
6.42759e-05
5.04023e-05
6.94024e-05
6.32067e-05
6.42777e-05
6.94054e-05
5.04107e-05
8.97039e-05
7.14728e-05
7.14702e-05
8.97055e-05
7.14834e-05
7.14813e-05
6.41619e-05
6.93806e-05
6.31568e-05
5.02995e-05
6.93796e-05
6.416e-05
5.02759e-05
6.42858e-05
6.94059e-05
6.32083e-05
5.03817e-05
6.94031e-05
6.42826e-05
5.04129e-05
6.87449e-05
6.87518e-05
8.97027e-05
7.147e-05
7.14686e-05
8.97044e-05
7.1481e-05
7.148e-05
6.41564e-05
6.93766e-05
5.0312e-05
6.31487e-05
6.41612e-05
6.9378e-05
5.03114e-05
6.42878e-05
6.94033e-05
5.04015e-05
6.31901e-05
6.42883e-05
6.9406e-05
5.03767e-05
6.93879e-05
5.99014e-05
6.89893e-05
6.4333e-05
6.89898e-05
6.43318e-05
6.93904e-05
6.98151e-05
7.55143e-05
7.00285e-05
6.98038e-05
7.55147e-05
6.9393e-05
5.993e-05
6.89966e-05
6.43372e-05
6.89965e-05
6.93904e-05
6.43367e-05
6.98021e-05
7.55103e-05
7.00263e-05
7.55099e-05
6.98133e-05
6.93957e-05
6.89817e-05
6.43296e-05
5.98694e-05
6.93944e-05
6.89808e-05
6.43304e-05
6.98329e-05
7.55601e-05
7.00463e-05
6.98222e-05
7.55614e-05
6.93879e-05
6.89821e-05
6.43286e-05
5.98757e-05
6.93853e-05
6.89815e-05
6.43301e-05
6.98116e-05
7.55057e-05
7.00261e-05
6.98003e-05
7.55062e-05
8.97103e-05
7.14822e-05
7.14983e-05
7.14704e-05
7.14863e-05
8.97077e-05
6.42482e-05
5.03685e-05
6.93919e-05
6.31822e-05
6.93948e-05
6.42593e-05
5.03294e-05
6.42515e-05
5.04227e-05
6.94049e-05
6.31916e-05
5.04122e-05
6.42503e-05
6.94084e-05
8.97086e-05
7.14699e-05
7.14857e-05
7.14815e-05
8.9711e-05
7.14976e-05
6.42432e-05
6.93953e-05
6.31862e-05
5.03463e-05
6.93923e-05
5.03397e-05
6.42532e-05
6.42547e-05
6.94098e-05
6.3195e-05
5.03969e-05
5.03786e-05
6.94066e-05
6.42453e-05
6.87644e-05
6.87574e-05
6.87489e-05
8.97071e-05
7.14711e-05
7.14871e-05
8.97091e-05
7.14831e-05
7.14992e-05
6.42559e-05
6.93929e-05
5.03381e-05
6.31979e-05
5.0307e-05
6.42589e-05
6.93959e-05
6.42447e-05
6.94077e-05
5.04078e-05
6.31968e-05
6.42449e-05
6.9411e-05
5.04066e-05
6.87667e-05
6.93627e-05
6.00082e-05
6.89569e-05
6.43597e-05
6.89537e-05
6.43564e-05
6.93667e-05
6.98112e-05
7.55348e-05
7.00334e-05
6.97989e-05
7.55367e-05
6.93664e-05
6.0009e-05
6.8952e-05
6.43542e-05
6.89555e-05
6.93622e-05
6.43579e-05
6.97991e-05
7.55355e-05
7.00321e-05
7.55342e-05
6.98114e-05
6.93478e-05
6.43699e-05
6.89358e-05
5.99789e-05
6.93435e-05
6.4371e-05
6.89394e-05
6.98022e-05
7.55644e-05
7.00295e-05
6.97897e-05
7.55661e-05
6.9367e-05
6.89546e-05
6.43571e-05
5.99905e-05
6.9363e-05
6.89577e-05
6.43605e-05
6.98114e-05
7.55324e-05
7.00338e-05
6.97992e-05
7.55338e-05
6.93518e-05
5.98661e-05
6.42777e-05
6.89464e-05
6.42738e-05
6.89424e-05
6.93565e-05
6.98095e-05
7.55275e-05
7.00359e-05
7.55292e-05
6.97963e-05
6.93556e-05
5.9874e-05
6.42879e-05
6.89408e-05
6.42885e-05
6.9351e-05
6.89444e-05
6.97968e-05
7.55294e-05
7.00339e-05
7.55279e-05
6.98099e-05
6.93634e-05
5.99246e-05
6.89625e-05
6.43192e-05
6.89586e-05
6.43108e-05
6.93684e-05
6.98098e-05
7.55208e-05
7.00315e-05
6.97978e-05
7.55221e-05
6.9366e-05
5.99315e-05
6.89566e-05
6.42972e-05
6.93612e-05
6.89602e-05
6.42993e-05
6.97974e-05
7.5521e-05
7.00298e-05
7.5519e-05
6.98096e-05
6.93579e-05
6.42693e-05
6.89448e-05
5.99064e-05
6.93529e-05
6.4287e-05
6.8949e-05
6.98103e-05
7.55279e-05
7.0034e-05
6.97972e-05
7.55301e-05
6.93702e-05
6.89611e-05
6.4313e-05
5.99538e-05
6.93655e-05
6.89652e-05
6.43058e-05
6.98099e-05
7.55181e-05
7.00308e-05
6.97975e-05
7.55201e-05
8.97151e-05
7.1487e-05
7.14917e-05
7.14757e-05
7.14803e-05
8.97113e-05
6.42687e-05
5.03558e-05
6.94029e-05
6.31923e-05
6.94058e-05
6.42824e-05
5.03553e-05
6.42115e-05
5.03316e-05
6.93845e-05
6.31654e-05
5.03334e-05
6.42061e-05
6.93875e-05
8.97149e-05
7.14759e-05
7.14806e-05
7.14873e-05
8.97178e-05
7.14919e-05
6.42413e-05
6.94053e-05
6.3183e-05
5.03064e-05
6.9403e-05
5.0341e-05
6.42477e-05
6.4217e-05
6.93885e-05
6.31738e-05
5.03545e-05
5.03478e-05
6.93854e-05
6.42167e-05
6.87475e-05
6.87408e-05
6.87567e-05
8.9706e-05
7.14754e-05
7.148e-05
8.9711e-05
7.14866e-05
7.14913e-05
6.42328e-05
6.94024e-05
5.03262e-05
6.31744e-05
5.03339e-05
6.42544e-05
6.94041e-05
6.4185e-05
6.93858e-05
5.03312e-05
6.31791e-05
6.41927e-05
6.93883e-05
5.03291e-05
6.87503e-05
6.93408e-05
5.9862e-05
6.42956e-05
6.89243e-05
6.42918e-05
6.89211e-05
6.9345e-05
6.98013e-05
7.55224e-05
7.00252e-05
7.55241e-05
6.9789e-05
6.93442e-05
5.98749e-05
6.42917e-05
6.89208e-05
6.42946e-05
6.934e-05
6.89238e-05
6.97892e-05
7.55199e-05
7.00239e-05
7.55193e-05
6.98011e-05
6.93334e-05
5.98742e-05
6.42441e-05
6.89235e-05
6.42413e-05
6.89202e-05
6.93383e-05
6.97925e-05
7.54907e-05
7.00137e-05
6.97801e-05
7.5492e-05
6.93366e-05
5.98817e-05
6.42453e-05
6.89193e-05
6.9332e-05
6.42477e-05
6.89227e-05
6.97804e-05
7.54907e-05
7.00124e-05
7.54892e-05
6.97928e-05
6.93459e-05
6.42935e-05
6.89219e-05
5.98838e-05
6.93416e-05
6.42968e-05
6.89251e-05
6.98005e-05
7.55155e-05
7.00253e-05
6.97887e-05
7.5516e-05
6.93404e-05
6.42565e-05
6.89212e-05
5.9881e-05
6.93353e-05
6.42648e-05
6.89246e-05
6.97932e-05
7.54879e-05
7.00152e-05
6.97807e-05
7.54894e-05
6.87497e-05
6.87422e-05
6.87377e-05
6.87307e-05
8.97032e-05
7.14719e-05
7.1463e-05
8.97051e-05
7.14839e-05
7.14751e-05
6.41868e-05
6.93838e-05
5.0347e-05
6.3194e-05
6.41899e-05
5.03301e-05
6.93872e-05
6.425e-05
6.93852e-05
5.03517e-05
6.31762e-05
6.42611e-05
5.0353e-05
6.93887e-05
6.87504e-05
6.87403e-05
1.34197e-05
1.15751e-05
1.1599e-05
1.15751e-05
1.34214e-05
1.15989e-05
1.15753e-05
1.07445e-05
1.07448e-05
5.01199e-05
3.8138e-05
3.81391e-05
2.7828e-05
5.01236e-05
3.81229e-05
3.8124e-05
5.00799e-05
2.78133e-05
3.81197e-05
3.81384e-05
3.8134e-05
3.81529e-05
5.00601e-05
5.01376e-05
2.78072e-05
3.81235e-05
3.81543e-05
3.81389e-05
3.8169e-05
5.01339e-05
5.01268e-05
2.76853e-05
3.81228e-05
3.81074e-05
3.81389e-05
3.81249e-05
5.01223e-05
5.01257e-05
2.78742e-05
3.81228e-05
3.81238e-05
5.01197e-05
3.81384e-05
3.81391e-05
5.01149e-05
3.81353e-05
3.81547e-05
2.77884e-05
5.01081e-05
3.81212e-05
3.81402e-05
5.01351e-05
3.81384e-05
3.81707e-05
2.77793e-05
3.81562e-05
5.01389e-05
3.81233e-05
5.01223e-05
3.81375e-05
3.81221e-05
2.76723e-05
3.81058e-05
5.01265e-05
3.8121e-05
1.34212e-05
1.15807e-05
1.342e-05
1.15992e-05
1.15751e-05
1.15992e-05
1.15751e-05
1.07452e-05
1.0745e-05
1.34389e-05
1.15989e-05
1.15907e-05
1.15989e-05
1.15908e-05
1.07475e-05
1.07473e-05
1.34212e-05
1.15809e-05
1.15771e-05
1.15809e-05
1.15772e-05
1.07431e-05
1.07429e-05
1.34192e-05
1.15874e-05
1.15761e-05
1.15873e-05
1.15761e-05
1.0744e-05
1.07438e-05
5.37544e-05
4.10817e-05
4.10932e-05
1.15988e-05
1.15905e-05
1.34385e-05
1.15985e-05
1.15902e-05
1.07467e-05
1.07471e-05
1.15807e-05
1.15769e-05
1.34222e-05
1.15807e-05
1.15768e-05
1.07424e-05
1.07427e-05
1.15873e-05
1.15761e-05
1.34209e-05
1.15873e-05
1.1576e-05
1.07433e-05
1.07437e-05
1.3423e-05
1.15986e-05
1.15753e-05
1.07438e-05
1.34385e-05
1.15983e-05
1.159e-05
1.07466e-05
1.34222e-05
1.15807e-05
1.15768e-05
1.07422e-05
1.3421e-05
1.15872e-05
1.15759e-05
1.0743e-05
3.12124e-05
4.22509e-05
4.56669e-05
2.86761e-05
4.56216e-05
2.8699e-05
3.11774e-05
3.50758e-05
4.11724e-05
5.03421e-05
5.38234e-05
3.51027e-05
4.11624e-05
5.03495e-05
3.11747e-05
4.22009e-05
4.56398e-05
2.86955e-05
3.12092e-05
4.56385e-05
2.86712e-05
3.5106e-05
5.03452e-05
5.38009e-05
4.11659e-05
4.11762e-05
5.03519e-05
3.50791e-05
3.11306e-05
4.22412e-05
2.85616e-05
4.5587e-05
2.85856e-05
4.55303e-05
3.10969e-05
3.50085e-05
4.10956e-05
5.03066e-05
5.37876e-05
3.50363e-05
4.10848e-05
5.02817e-05
3.10882e-05
4.22438e-05
2.85858e-05
4.55271e-05
3.11208e-05
2.85609e-05
4.55324e-05
3.50369e-05
5.02813e-05
5.37788e-05
4.10874e-05
4.1098e-05
5.03088e-05
3.50099e-05
5.01248e-05
2.78759e-05
3.81248e-05
3.81235e-05
3.81393e-05
3.81392e-05
5.01212e-05
5.00597e-05
2.78164e-05
3.81145e-05
3.81306e-05
5.00587e-05
3.81292e-05
3.81446e-05
5.00649e-05
2.77609e-05
3.81306e-05
3.81495e-05
5.00574e-05
3.81168e-05
3.81356e-05
3.51651e-05
5.04363e-05
5.38088e-05
4.11171e-05
5.04556e-05
4.11284e-05
3.51375e-05
3.1371e-05
4.57883e-05
2.89897e-05
4.2584e-05
3.141e-05
4.58153e-05
2.89562e-05
3.51692e-05
4.1118e-05
5.37936e-05
5.04166e-05
4.11294e-05
5.0442e-05
3.5139e-05
3.51382e-05
5.04633e-05
4.11275e-05
5.38183e-05
4.11174e-05
3.51687e-05
5.04678e-05
3.14044e-05
4.25539e-05
4.57995e-05
2.89431e-05
4.57861e-05
2.89783e-05
3.1364e-05
3.12771e-05
4.57614e-05
2.89412e-05
4.24346e-05
3.13127e-05
4.57544e-05
2.89075e-05
3.50987e-05
4.10994e-05
5.37899e-05
5.03566e-05
5.03515e-05
4.11113e-05
3.50713e-05
3.50684e-05
5.03543e-05
4.11128e-05
5.37921e-05
3.50991e-05
5.03284e-05
4.10992e-05
3.1311e-05
4.24293e-05
4.57162e-05
2.88952e-05
4.57103e-05
2.89293e-05
3.12726e-05
2.77596e-05
3.81412e-05
3.81236e-05
3.11264e-05
4.22955e-05
4.56116e-05
2.86092e-05
4.5637e-05
2.86316e-05
3.10917e-05
3.50372e-05
5.03506e-05
5.37775e-05
4.1094e-05
5.03483e-05
4.11036e-05
3.50098e-05
3.11965e-05
4.24195e-05
2.86873e-05
4.56855e-05
2.87109e-05
4.56794e-05
3.1162e-05
3.50623e-05
5.03396e-05
5.3785e-05
4.11042e-05
5.03183e-05
3.50348e-05
4.11147e-05
3.10985e-05
4.56545e-05
2.86389e-05
4.23373e-05
3.1131e-05
4.56622e-05
2.86168e-05
3.50432e-05
4.11001e-05
5.37737e-05
5.03379e-05
4.11102e-05
5.03573e-05
3.50149e-05
3.50132e-05
5.03519e-05
4.11063e-05
5.37984e-05
4.10968e-05
3.50416e-05
5.03529e-05
3.1142e-05
4.23505e-05
4.56175e-05
2.8624e-05
4.56499e-05
2.86466e-05
3.11094e-05
3.11662e-05
2.87164e-05
4.57028e-05
4.24046e-05
3.1199e-05
2.86932e-05
4.56741e-05
3.50648e-05
4.11085e-05
5.37816e-05
5.03241e-05
5.0324e-05
4.11188e-05
3.50359e-05
3.5038e-05
5.03219e-05
4.11165e-05
5.3795e-05
3.5065e-05
5.03414e-05
4.11062e-05
3.12098e-05
4.24442e-05
2.86995e-05
4.57217e-05
2.87227e-05
4.57125e-05
3.11783e-05
3.50982e-05
4.11551e-05
5.38279e-05
5.0365e-05
3.50715e-05
4.11623e-05
5.03606e-05
3.12081e-05
4.2241e-05
4.56726e-05
2.86694e-05
3.11728e-05
4.56717e-05
2.86936e-05
3.50848e-05
4.11013e-05
5.37977e-05
5.03571e-05
5.03555e-05
4.11126e-05
3.50554e-05
3.12109e-05
4.23621e-05
2.87067e-05
4.56331e-05
2.87299e-05
4.56243e-05
3.11763e-05
5.01295e-05
2.78176e-05
3.8126e-05
3.81156e-05
3.81318e-05
3.81414e-05
5.01237e-05
5.01224e-05
2.76402e-05
3.81403e-05
3.81295e-05
3.81241e-05
5.01275e-05
3.81106e-05
3.10739e-05
2.85846e-05
4.55353e-05
4.22269e-05
3.1109e-05
2.85603e-05
4.55504e-05
3.50359e-05
4.10825e-05
5.37728e-05
5.03026e-05
3.50076e-05
4.10935e-05
5.02899e-05
3.50079e-05
5.03139e-05
4.10928e-05
5.37464e-05
3.50357e-05
4.10811e-05
5.03135e-05
3.11106e-05
4.22403e-05
2.85609e-05
4.55252e-05
3.10781e-05
2.85849e-05
4.55494e-05
3.1092e-05
2.85951e-05
4.55808e-05
4.22482e-05
3.1128e-05
2.85706e-05
4.55693e-05
3.50331e-05
4.10795e-05
5.3751e-05
5.02615e-05
5.02551e-05
4.10904e-05
3.50048e-05
3.50046e-05
5.02742e-05
4.10886e-05
5.37291e-05
3.50328e-05
5.02555e-05
4.10775e-05
3.11275e-05
4.22554e-05
2.85716e-05
4.55273e-05
2.85956e-05
4.55493e-05
3.10924e-05
5.01223e-05
2.78261e-05
3.81388e-05
3.81236e-05
3.81238e-05
5.01267e-05
2.78382e-05
3.81218e-05
3.81419e-05
5.01262e-05
3.81364e-05
3.81567e-05
5.01292e-05
2.78087e-05
3.81366e-05
3.81573e-05
5.01323e-05
3.81215e-05
3.81422e-05
3.13901e-05
4.2469e-05
4.58016e-05
2.89148e-05
4.58002e-05
2.89493e-05
3.13486e-05
3.51377e-05
4.1128e-05
5.04049e-05
5.37889e-05
5.04286e-05
3.51669e-05
4.11161e-05
3.13566e-05
4.25083e-05
4.57914e-05
2.89634e-05
4.57985e-05
3.13976e-05
2.89283e-05
3.51646e-05
5.04141e-05
5.37816e-05
4.11132e-05
5.04129e-05
4.11263e-05
3.51337e-05
3.13024e-05
4.24181e-05
4.57246e-05
2.88687e-05
4.57086e-05
2.89022e-05
3.12641e-05
3.50713e-05
4.11098e-05
5.03514e-05
5.37678e-05
3.50985e-05
5.03509e-05
4.10979e-05
3.12679e-05
4.2389e-05
4.57039e-05
2.89158e-05
3.13067e-05
4.56762e-05
2.88805e-05
3.50978e-05
5.03201e-05
5.3774e-05
4.1098e-05
5.0325e-05
3.50691e-05
4.11098e-05
3.13385e-05
4.57682e-05
2.8935e-05
4.23644e-05
3.13815e-05
4.57526e-05
2.88965e-05
3.5131e-05
5.03993e-05
4.11227e-05
5.37648e-05
4.11098e-05
3.51608e-05
5.04234e-05
3.12596e-05
4.57155e-05
2.88897e-05
4.2394e-05
3.12985e-05
4.57053e-05
2.88555e-05
3.50673e-05
5.03208e-05
4.11085e-05
5.37458e-05
3.50975e-05
5.02951e-05
4.10961e-05
5.01397e-05
2.78274e-05
3.81235e-05
3.81586e-05
3.81732e-05
3.81389e-05
5.01348e-05
5.01341e-05
2.77982e-05
3.81383e-05
3.81749e-05
3.81218e-05
5.01388e-05
3.81603e-05
3.11636e-05
4.23237e-05
4.56221e-05
2.86316e-05
4.56334e-05
2.86553e-05
3.11288e-05
3.50173e-05
4.1111e-05
5.03459e-05
5.37531e-05
5.03421e-05
3.50444e-05
4.11006e-05
3.11217e-05
4.23469e-05
4.56518e-05
2.86521e-05
4.56479e-05
3.11544e-05
2.86287e-05
3.50457e-05
5.03548e-05
5.37793e-05
4.11023e-05
5.03538e-05
4.11137e-05
3.50186e-05
3.1235e-05
4.24252e-05
2.87087e-05
4.57281e-05
2.87324e-05
4.573e-05
3.12012e-05
3.50384e-05
4.11203e-05
5.03206e-05
5.38156e-05
3.50656e-05
5.03282e-05
4.11098e-05
3.11911e-05
4.24624e-05
2.87284e-05
4.57156e-05
3.12235e-05
2.87053e-05
4.56909e-05
3.50671e-05
5.02967e-05
5.38044e-05
4.11108e-05
5.03418e-05
3.50401e-05
4.11219e-05
3.11353e-05
4.56256e-05
2.86583e-05
4.23462e-05
3.11689e-05
4.56623e-05
2.86351e-05
3.50227e-05
5.03665e-05
4.11131e-05
5.37323e-05
4.11012e-05
3.50498e-05
5.03552e-05
3.12088e-05
2.87346e-05
4.57048e-05
4.24091e-05
3.12418e-05
2.87101e-05
4.57417e-05
3.50437e-05
5.03083e-05
4.11221e-05
5.37872e-05
3.50705e-05
5.02943e-05
4.11106e-05
3.12226e-05
4.23208e-05
2.87161e-05
4.5669e-05
2.87388e-05
4.5657e-05
3.11883e-05
3.50537e-05
4.11132e-05
5.03631e-05
5.38153e-05
4.11022e-05
3.50833e-05
5.03472e-05
3.11817e-05
4.23561e-05
2.87346e-05
4.56297e-05
2.87113e-05
3.12153e-05
4.56174e-05
3.50821e-05
5.0353e-05
5.38225e-05
4.11044e-05
4.1115e-05
5.03531e-05
3.50543e-05
3.11813e-05
4.56795e-05
2.87044e-05
4.23124e-05
3.12152e-05
4.56902e-05
2.86824e-05
3.50837e-05
5.03385e-05
4.11785e-05
5.37888e-05
3.51104e-05
4.11676e-05
5.0372e-05
3.11948e-05
2.8745e-05
4.56682e-05
4.23753e-05
3.12281e-05
2.87227e-05
4.56572e-05
3.50541e-05
5.03456e-05
4.1116e-05
5.38221e-05
3.50824e-05
5.03216e-05
4.11045e-05
5.00868e-05
2.77259e-05
3.8117e-05
3.81044e-05
3.81205e-05
3.81353e-05
5.0077e-05
5.00746e-05
2.77072e-05
3.81312e-05
3.81189e-05
3.81138e-05
5.00802e-05
3.81021e-05
3.11394e-05
4.22372e-05
2.857e-05
4.55872e-05
2.85954e-05
4.55751e-05
3.11042e-05
3.50047e-05
4.10919e-05
5.02659e-05
5.37685e-05
4.10813e-05
3.50322e-05
5.02501e-05
3.11005e-05
4.22639e-05
2.8596e-05
4.55769e-05
2.85713e-05
3.1134e-05
4.55725e-05
3.50336e-05
5.02997e-05
5.37649e-05
4.10828e-05
4.10938e-05
5.02904e-05
3.50054e-05
3.11049e-05
2.85859e-05
4.56016e-05
4.22203e-05
3.11379e-05
2.85619e-05
4.5613e-05
3.50124e-05
5.02529e-05
4.10992e-05
5.37793e-05
3.50395e-05
4.10882e-05
5.02732e-05
3.11068e-05
2.85939e-05
4.55835e-05
4.22025e-05
3.11415e-05
2.85689e-05
4.55548e-05
3.50066e-05
5.03055e-05
4.10952e-05
5.37901e-05
3.50338e-05
5.03087e-05
4.10847e-05
5.01237e-05
2.78331e-05
3.81404e-05
3.81387e-05
5.01272e-05
3.81255e-05
3.81239e-05
1.3423e-05
2.19287e-05
2.18821e-05
2.78757e-05
1.34254e-05
2.1936e-05
2.18906e-05
2.7817e-05
1.34275e-05
2.19385e-05
2.1901e-05
2.78444e-05
1.34287e-05
2.19381e-05
2.19068e-05
2.78165e-05
1.34304e-05
2.19383e-05
2.19127e-05
2.76388e-05
1.3433e-05
2.19364e-05
2.19217e-05
2.7658e-05
1.34362e-05
2.19329e-05
2.19337e-05
2.77335e-05
1.34403e-05
2.19314e-05
2.19484e-05
2.76794e-05
1.34442e-05
2.19302e-05
2.196e-05
2.77681e-05
1.34484e-05
2.19306e-05
2.19678e-05
2.76869e-05
1.34507e-05
2.19322e-05
2.19633e-05
2.77601e-05
1.34505e-05
2.19291e-05
2.19538e-05
2.77387e-05
1.3449e-05
2.19289e-05
2.19465e-05
2.77254e-05
1.34464e-05
2.19284e-05
2.19443e-05
2.7635e-05
1.34433e-05
2.1923e-05
2.19463e-05
2.77124e-05
1.34407e-05
2.19176e-05
2.1946e-05
2.77721e-05
1.34387e-05
2.19134e-05
2.19434e-05
2.76893e-05
1.34373e-05
2.19136e-05
2.19418e-05
2.76309e-05
1.34257e-05
2.19145e-05
2.19419e-05
2.76005e-05
1.40241e-05
2.02645e-05
2.02851e-05
2.63742e-05
2.78169e-05
2.19112e-05
2.19081e-05
2.78071e-05
2.18772e-05
2.18907e-05
2.19271e-05
2.18979e-05
2.77227e-05
2.18811e-05
2.18767e-05
2.78354e-05
2.78633e-05
2.77002e-05
2.19124e-05
2.19085e-05
2.19153e-05
2.19094e-05
2.78539e-05
2.78359e-05
2.18789e-05
2.18922e-05
2.18842e-05
2.18965e-05
2.18987e-05
2.19349e-05
2.19e-05
2.77736e-05
2.77725e-05
2.18769e-05
2.18886e-05
2.18799e-05
2.77719e-05
2.76891e-05
2.76907e-05
2.19157e-05
2.19099e-05
2.19144e-05
2.191e-05
2.78816e-05
2.77244e-05
2.1885e-05
2.18997e-05
2.18888e-05
2.19072e-05
2.19004e-05
2.19388e-05
2.19024e-05
2.78211e-05
2.7675e-05
2.18828e-05
2.19002e-05
2.18862e-05
2.77991e-05
2.7744e-05
2.76891e-05
2.19124e-05
2.19092e-05
2.19104e-05
2.19091e-05
2.77145e-05
2.76562e-05
2.18918e-05
2.19083e-05
2.1896e-05
2.1911e-05
2.1904e-05
2.19383e-05
2.19078e-05
2.76674e-05
2.76804e-05
2.18871e-05
2.19057e-05
2.18934e-05
2.78255e-05
2.76774e-05
2.76952e-05
2.19103e-05
2.19089e-05
2.19079e-05
2.19103e-05
2.76481e-05
2.76081e-05
2.18971e-05
2.19118e-05
2.19018e-05
2.19159e-05
2.19095e-05
2.19385e-05
2.1912e-05
2.77356e-05
2.76878e-05
2.18944e-05
2.19121e-05
2.18979e-05
2.76495e-05
2.76855e-05
2.76223e-05
2.19077e-05
2.19102e-05
2.1905e-05
2.19133e-05
2.76571e-05
2.76246e-05
2.1902e-05
2.19173e-05
2.19062e-05
2.19226e-05
2.19124e-05
2.1938e-05
2.19161e-05
2.77425e-05
2.77566e-05
2.18982e-05
2.19197e-05
2.19007e-05
2.76664e-05
2.76797e-05
2.76364e-05
2.19052e-05
2.19161e-05
2.19051e-05
2.19174e-05
2.76154e-05
2.75752e-05
2.19084e-05
2.19249e-05
2.19129e-05
2.19305e-05
2.1917e-05
2.19337e-05
2.19227e-05
2.78072e-05
2.77359e-05
2.19021e-05
2.19313e-05
2.19068e-05
2.76777e-05
2.76934e-05
2.77142e-05
2.19052e-05
2.1918e-05
2.19062e-05
2.19202e-05
2.76251e-05
2.75974e-05
2.19137e-05
2.19315e-05
2.19204e-05
2.19379e-05
2.19243e-05
2.19326e-05
2.19322e-05
2.77883e-05
2.7795e-05
2.19083e-05
2.19458e-05
2.19153e-05
2.762e-05
2.77657e-05
2.76317e-05
2.19065e-05
2.19233e-05
2.19093e-05
2.19223e-05
2.7655e-05
2.76155e-05
2.19225e-05
2.19413e-05
2.1928e-05
2.19459e-05
2.19358e-05
2.19307e-05
2.19436e-05
2.7845e-05
2.77044e-05
2.19162e-05
2.19587e-05
2.19248e-05
2.7714e-05
2.76786e-05
2.77009e-05
2.19102e-05
2.19221e-05
2.19121e-05
2.19204e-05
2.76709e-05
2.76887e-05
2.19306e-05
2.19455e-05
2.19331e-05
2.19432e-05
2.19448e-05
2.19305e-05
2.19526e-05
2.77583e-05
2.77767e-05
2.19297e-05
2.19672e-05
2.19362e-05
2.76409e-05
2.77531e-05
2.77547e-05
2.19122e-05
2.19198e-05
2.19147e-05
2.19156e-05
2.77393e-05
2.77381e-05
2.19341e-05
2.19416e-05
2.19344e-05
2.19331e-05
2.19561e-05
2.19318e-05
2.19538e-05
2.77655e-05
2.7693e-05
2.19369e-05
2.19665e-05
2.19355e-05
2.77092e-05
2.78023e-05
2.77198e-05
2.19175e-05
2.19152e-05
2.19169e-05
2.19116e-05
2.77852e-05
2.76359e-05
2.19335e-05
2.19294e-05
2.19326e-05
2.19187e-05
2.19522e-05
2.19305e-05
2.19476e-05
2.77446e-05
2.76447e-05
2.19334e-05
2.19578e-05
2.19278e-05
2.76882e-05
2.77625e-05
2.77544e-05
2.19156e-05
2.19097e-05
2.19136e-05
2.19077e-05
2.76888e-05
2.77026e-05
2.19305e-05
2.19165e-05
2.19275e-05
2.19036e-05
2.19462e-05
2.19291e-05
2.19398e-05
2.76322e-05
2.7596e-05
2.19264e-05
2.195e-05
2.19174e-05
2.76743e-05
2.78009e-05
2.76505e-05
2.19121e-05