/*--------------------------------*- C++ -*----------------------------------*\
| =========                 |                                                 |
| \\      /  F ield         | OpenFOAM: The Open Source CFD Toolbox           |
|  \\    /   O peration     | Version:  2312                                  |
|   \\  /    A nd           | Website:  www.openfoam.com                      |
|    \\/     M anipulation  |                                                 |
\*---------------------------------------------------------------------------*/
FoamFile
{
    version     2.0;
    format      ascii;
    arch        "LSB;label=32;scalar=64";
    class       volScalarField;
    location    "800";
    object      nut;
}
// * * * * * * * * * * * * * * * * * * * * * * * * * * * * * * * * * * * * * //

dimensions      [0 2 -1 0 0 0 0];

internalField   nonuniform List<scalar> 
43008
(
0.000158329
0.000108541
0.000154171
0.000104789
0.000104783
8.33383e-05
8.52709e-05
8.37338e-05
0.000108517
0.000108501
0.000105632
0.000105617
8.38886e-05
0.00010854
0.000108501
0.000105655
0.000105616
0.00010566
0.000105627
8.52684e-05
8.37468e-05
0.000108527
0.000105653
0.00010564
8.39666e-05
8.35524e-05
0.00010476
0.000104745
8.3481e-05
0.000104782
0.000104745
0.000104757
8.3558e-05
0.00010477
6.5142e-05
4.95066e-05
6.39649e-05
4.95231e-05
2.36525e-05
6.5132e-05
4.95015e-05
6.39734e-05
4.95178e-05
0.000158324
0.00015832
0.000158316
0.000155204
0.000155199
0.000155194
0.000155191
6.16642e-05
0.000107543
6.23532e-05
0.000133383
2.36552e-05
2.36513e-05
6.16552e-05
0.000134456
6.1585e-05
0.000107537
6.08056e-05
0.000133376
6.23505e-05
8.47977e-05
5.93403e-05
5.93396e-05
6.77249e-05
4.95323e-05
6.66857e-05
4.9548e-05
2.36418e-05
2.3638e-05
6.77253e-05
4.95268e-05
6.66948e-05
4.95424e-05
0.000154167
0.000154161
0.000154159
6.42014e-05
6.36938e-05
0.000130148
0.000103916
6.32714e-05
6.44351e-05
0.000129103
2.36409e-05
2.36373e-05
6.42413e-05
0.000130136
6.36989e-05
0.000103909
6.32811e-05
0.000129093
6.43862e-05
6.00616e-05
6.00589e-05
8.34804e-05
6.0424e-05
6.04464e-05
2.36583e-05
2.36546e-05
2.36558e-05
2.36522e-05
5.89448e-05
5.8931e-05
8.46184e-05
5.93282e-05
5.93463e-05
2.36474e-05
2.36513e-05
2.36451e-05
2.36487e-05
8.43543e-05
5.98932e-05
5.99099e-05
5.95277e-05
5.95128e-05
6.51368e-05
4.9501e-05
6.39668e-05
4.95173e-05
6.15962e-05
6.1576e-05
0.000134458
0.000107516
6.08712e-05
6.23531e-05
0.000133375
6.16529e-05
6.15757e-05
0.000134449
0.000107498
6.08339e-05
6.23519e-05
0.000133368
6.53631e-05
4.95358e-05
4.95198e-05
6.64827e-05
6.53636e-05
4.95291e-05
4.95137e-05
6.64826e-05
6.20648e-05
0.000106585
6.34089e-05
0.000131217
6.26495e-05
0.000132281
6.28511e-05
6.20236e-05
0.00010657
6.34047e-05
0.000131211
6.26427e-05
0.000132273
6.28884e-05
8.46682e-05
5.93417e-05
5.93473e-05
2.36535e-05
2.36451e-05
2.3649e-05
8.42601e-05
5.99034e-05
5.99118e-05
5.9507e-05
5.95117e-05
2.36466e-05
2.365e-05
6.16328e-05
6.15822e-05
0.000134456
0.000107538
6.08403e-05
6.23569e-05
0.000133376
6.51384e-05
4.94975e-05
6.3963e-05
4.95139e-05
6.16275e-05
0.000134445
6.1578e-05
0.000107497
6.084e-05
0.000133365
6.23401e-05
6.53693e-05
4.953e-05
4.95145e-05
6.64671e-05
6.20395e-05
0.000106607
6.34089e-05
0.000131219
6.26452e-05
0.000132281
6.28776e-05
6.53593e-05
4.95261e-05
4.95105e-05
6.64826e-05
6.20315e-05
0.000106569
0.000131208
6.33909e-05
0.000132268
6.2645e-05
6.28791e-05
6.50891e-05
4.95186e-05
6.16367e-05
0.000107509
0.000133376
6.23401e-05
6.51269e-05
4.95145e-05
6.19979e-05
0.000106615
6.34018e-05
0.000131226
6.26484e-05
0.000132291
6.29083e-05
6.53927e-05
4.95312e-05
4.95155e-05
6.64329e-05
6.20252e-05
0.000106581
0.000131218
6.3361e-05
0.000132281
6.26491e-05
6.28899e-05
6.53679e-05
4.95268e-05
4.95118e-05
6.6469e-05
5.89237e-05
5.893e-05
8.45966e-05
5.93411e-05
5.93471e-05
2.36574e-05
2.36536e-05
2.36442e-05
2.36479e-05
8.4312e-05
5.99031e-05
5.99104e-05
5.95061e-05
5.9513e-05
2.36464e-05
2.36501e-05
6.16463e-05
0.000134451
6.1574e-05
0.000107523
6.0827e-05
0.00013337
6.23526e-05
6.51238e-05
4.95027e-05
6.39823e-05
4.95191e-05
6.51213e-05
4.94969e-05
6.39784e-05
4.95133e-05
6.20006e-05
0.000106608
0.000131217
6.33953e-05
0.000132279
6.26479e-05
6.29116e-05
6.20173e-05
0.000106595
0.000131213
6.34044e-05
0.000132275
6.26411e-05
6.28904e-05
6.53781e-05
4.95311e-05
4.95156e-05
6.64658e-05
6.5377e-05
4.95255e-05
4.95098e-05
6.64642e-05
2.36521e-05
2.36509e-05
8.41976e-05
5.99044e-05
5.99047e-05
5.95085e-05
5.95074e-05
2.3645e-05
2.36486e-05
2.36438e-05
2.36475e-05
2.36441e-05
2.36403e-05
2.36417e-05
2.36381e-05
6.00822e-05
6.00678e-05
8.30467e-05
6.04304e-05
6.04293e-05
6.77479e-05
4.95262e-05
6.66835e-05
4.95416e-05
6.41593e-05
6.37029e-05
0.000130137
0.000103887
6.33349e-05
6.43699e-05
0.000129094
6.42023e-05
6.36962e-05
0.00013013
0.000103874
6.33036e-05
6.43633e-05
0.000129089
6.00614e-05
6.00657e-05
8.29941e-05
6.04218e-05
6.04536e-05
2.36432e-05
2.36397e-05
6.41907e-05
6.36998e-05
0.000130137
0.000103908
6.33094e-05
6.43715e-05
0.000129095
6.77453e-05
4.95232e-05
6.66812e-05
4.95387e-05
6.41912e-05
0.000130125
6.36951e-05
0.00010387
6.3307e-05
0.000129085
6.44135e-05
6.77004e-05
4.95278e-05
6.67142e-05
4.95438e-05
6.41649e-05
0.000130138
6.37213e-05
0.000103886
6.32948e-05
0.000129098
6.43616e-05
6.77126e-05
4.9524e-05
6.66895e-05
4.95392e-05
6.00618e-05
6.00683e-05
8.30588e-05
6.04458e-05
6.04528e-05
2.36431e-05
2.36396e-05
6.42161e-05
0.000130132
6.36913e-05
0.000103897
6.32928e-05
0.000129089
6.44163e-05
6.77115e-05
4.95283e-05
6.66997e-05
4.95436e-05
6.77103e-05
4.95224e-05
6.66986e-05
4.95379e-05
2.36416e-05
2.3638e-05
2.36404e-05
2.36369e-05
3.61704e-05
6.46712e-05
4.03051e-05
6.75573e-05
4.03028e-05
6.7148e-05
3.61733e-05
2.02412e-05
6.67428e-05
4.95167e-05
2.02406e-05
6.69465e-05
3.61703e-05
6.44401e-05
4.03009e-05
6.6631e-05
3.61675e-05
4.03028e-05
6.70459e-05
2.02378e-05
6.71668e-05
4.95133e-05
6.69675e-05
2.02383e-05
2.36561e-05
2.36526e-05
3.61703e-05
6.46792e-05
6.75539e-05
4.03047e-05
6.7146e-05
4.03025e-05
3.61733e-05
2.02415e-05
6.67477e-05
4.95116e-05
2.02409e-05
6.69348e-05
3.61702e-05
6.44316e-05
6.66286e-05
4.03005e-05
3.61674e-05
6.7043e-05
4.03023e-05
2.02381e-05
6.71469e-05
4.95081e-05
6.6973e-05
2.02387e-05
2.3655e-05
2.36515e-05
6.93131e-05
2.1579e-05
2.15759e-05
2.15789e-05
2.15757e-05
6.94767e-05
7.01928e-05
5.90488e-05
6.60359e-05
4.70418e-05
7.02449e-05
5.90495e-05
6.6055e-05
4.70323e-05
6.92638e-05
2.15824e-05
2.15792e-05
7.04926e-05
4.70583e-05
5.92187e-05
6.66889e-05
6.64543e-05
4.70426e-05
7.0693e-05
7.05345e-05
4.70487e-05
5.92167e-05
6.67063e-05
6.64583e-05
4.70332e-05
7.07388e-05
3.61838e-05
6.73227e-05
4.03255e-05
6.94555e-05
4.03165e-05
6.90708e-05
3.61872e-05
2.02299e-05
6.75914e-05
4.95416e-05
2.02294e-05
6.77626e-05
3.61836e-05
6.71207e-05
4.03129e-05
6.86141e-05
3.61803e-05
4.03184e-05
6.90002e-05
2.02265e-05
6.79562e-05
4.95385e-05
6.77906e-05
2.0227e-05
2.36416e-05
2.36383e-05
3.61837e-05
6.733e-05
6.94501e-05
4.03249e-05
6.90688e-05
4.03163e-05
3.61871e-05
2.02301e-05
6.75969e-05
4.9536e-05
2.02296e-05
6.77571e-05
3.61835e-05
6.71102e-05
6.86101e-05
4.03128e-05
3.61802e-05
6.89973e-05
4.03177e-05
2.02268e-05
6.79482e-05
4.9533e-05
6.77907e-05
2.02273e-05
2.36407e-05
2.36375e-05
7.01187e-05
2.15656e-05
2.15624e-05
2.15655e-05
2.15623e-05
7.02641e-05
7.21348e-05
6.83933e-05
4.70901e-05
6.0177e-05
7.19455e-05
6.86379e-05
4.71049e-05
7.21444e-05
6.84043e-05
4.70809e-05
6.01767e-05
7.19999e-05
6.86461e-05
4.70954e-05
7.00762e-05
2.15688e-05
2.15656e-05
6.99244e-05
2.15689e-05
2.15658e-05
7.23951e-05
4.712e-05
6.03331e-05
6.92761e-05
6.90363e-05
4.71048e-05
7.26101e-05
7.24636e-05
4.71107e-05
6.03267e-05
6.93089e-05
6.9042e-05
4.70957e-05
7.26155e-05
2.36582e-05
2.3655e-05
2.36557e-05
2.36523e-05
6.93155e-05
2.15797e-05
2.15764e-05
2.15795e-05
2.15763e-05
6.94818e-05
7.01911e-05
6.5808e-05
4.70288e-05
5.90365e-05
6.99887e-05
4.70446e-05
6.60505e-05
7.02351e-05
6.58177e-05
4.70177e-05
5.90556e-05
7.00308e-05
4.70337e-05
6.60575e-05
6.92694e-05
2.15828e-05
2.15796e-05
6.9101e-05
2.15831e-05
2.15798e-05
7.04942e-05
4.70609e-05
5.92379e-05
6.66956e-05
4.70455e-05
7.06963e-05
6.64568e-05
7.05397e-05
4.705e-05
5.92243e-05
6.67009e-05
4.70347e-05
7.07408e-05
6.6463e-05
2.36477e-05
2.3651e-05
2.36452e-05
2.36486e-05
6.9687e-05
2.15762e-05
2.15729e-05
6.95301e-05
2.15765e-05
2.1573e-05
7.14634e-05
6.79908e-05
5.98084e-05
4.70926e-05
4.70774e-05
6.77503e-05
7.16663e-05
7.15124e-05
6.79913e-05
5.97913e-05
4.70815e-05
4.70664e-05
6.77602e-05
7.16993e-05
7.11891e-05
4.7062e-05
6.71077e-05
5.96172e-05
7.09847e-05
4.70768e-05
6.73416e-05
7.12266e-05
4.70511e-05
6.71143e-05
5.96304e-05
7.10307e-05
4.70657e-05
6.73486e-05
6.97334e-05
2.15733e-05
2.15697e-05
2.15732e-05
2.15696e-05
6.9888e-05
3.61689e-05
6.46738e-05
4.03049e-05
6.7547e-05
4.03026e-05
6.71429e-05
3.61717e-05
2.02403e-05
6.6731e-05
4.95109e-05
2.02397e-05
6.69159e-05
3.61686e-05
6.44357e-05
4.03007e-05
6.66263e-05
4.03026e-05
3.61659e-05
6.70372e-05
2.02369e-05
6.71343e-05
4.95075e-05
6.6949e-05
2.02375e-05
3.61766e-05
4.03055e-05
6.76517e-05
6.582e-05
3.61736e-05
4.03085e-05
6.80518e-05
2.02322e-05
4.95257e-05
6.75736e-05
2.02328e-05
6.73922e-05
2.02355e-05
6.71796e-05
4.95288e-05
2.02349e-05
6.73631e-05
3.61769e-05
6.60353e-05
4.03129e-05
6.85335e-05
3.618e-05
4.0309e-05
6.81409e-05
3.6175e-05
4.03052e-05
6.76469e-05
6.58212e-05
3.6172e-05
4.03083e-05
6.80432e-05
2.02313e-05
4.95192e-05
6.75429e-05
6.73762e-05
2.0232e-05
2.02346e-05
6.71681e-05
4.95226e-05
2.02341e-05
6.73393e-05
3.61753e-05
6.60331e-05
4.03125e-05
6.85219e-05
4.03089e-05
6.81352e-05
3.61783e-05
6.93213e-05
2.15764e-05
2.15793e-05
2.15763e-05
2.15792e-05
6.94775e-05
7.02014e-05
5.90509e-05
4.70295e-05
6.60234e-05
7.01614e-05
5.90571e-05
6.60225e-05
4.7038e-05
6.92643e-05
2.15796e-05
2.15825e-05
7.0568e-05
4.70463e-05
5.92165e-05
6.66726e-05
4.70385e-05
6.64949e-05
7.07058e-05
7.05223e-05
4.7055e-05
5.92226e-05
6.66696e-05
6.64764e-05
4.70497e-05
7.06608e-05
2.36571e-05
2.36536e-05
2.36454e-05
2.36487e-05
6.96844e-05
2.1573e-05
2.15759e-05
6.95297e-05
2.15731e-05
2.1576e-05
7.15403e-05
6.79701e-05
5.97842e-05
4.70775e-05
6.779e-05
4.70713e-05
7.16715e-05
7.14945e-05
6.7964e-05
5.97887e-05
4.70866e-05
4.70823e-05
6.77845e-05
7.16321e-05
7.11887e-05
4.70541e-05
6.71385e-05
5.96252e-05
6.73282e-05
7.10583e-05
4.70622e-05
7.11481e-05
4.70655e-05
6.7127e-05
5.96333e-05
7.10108e-05
4.70716e-05
6.73203e-05
6.97338e-05
2.15698e-05
2.15726e-05
2.15696e-05
2.15725e-05
6.98845e-05
2.36467e-05
2.36501e-05
3.61685e-05
6.46702e-05
4.03044e-05
6.75393e-05
4.0302e-05
6.71458e-05
3.61714e-05
2.02404e-05
6.67181e-05
4.95075e-05
2.02398e-05
6.69154e-05
3.61683e-05
6.44376e-05
4.03002e-05
6.66272e-05
4.0302e-05
3.61656e-05
6.70294e-05
2.0237e-05
6.71374e-05
4.95043e-05
6.69466e-05
2.02376e-05
3.61766e-05
6.76496e-05
4.03052e-05
6.58111e-05
3.61735e-05
6.80494e-05
4.0308e-05
2.02324e-05
4.95201e-05
6.75601e-05
2.0233e-05
6.73935e-05
2.02358e-05
6.71882e-05
4.95234e-05
2.02353e-05
6.73577e-05
3.61768e-05
6.60419e-05
6.85312e-05
4.03123e-05
3.618e-05
6.81378e-05
4.03088e-05
3.61747e-05
4.03047e-05
6.76484e-05
6.58231e-05
3.61717e-05
4.03078e-05
6.80328e-05
2.02314e-05
4.95162e-05
6.75478e-05
6.7369e-05
2.0232e-05
2.02348e-05
6.71564e-05
4.95196e-05
2.02342e-05
6.73366e-05
3.6175e-05
6.60301e-05
4.03122e-05
6.85123e-05
4.03082e-05
6.81384e-05
3.61781e-05
3.61701e-05
6.47033e-05
6.7504e-05
4.03038e-05
6.71805e-05
4.03016e-05
3.61729e-05
2.0238e-05
6.7142e-05
4.9508e-05
6.69557e-05
2.02387e-05
3.61688e-05
6.46768e-05
4.03046e-05
6.75371e-05
4.03022e-05
6.71483e-05
3.61717e-05
2.02372e-05
6.71293e-05
4.95044e-05
6.69382e-05
2.02378e-05
3.61762e-05
6.76795e-05
4.03043e-05
6.57705e-05
3.61733e-05
6.8002e-05
4.03071e-05
2.02324e-05
4.95211e-05
6.75526e-05
6.73856e-05
2.0233e-05
2.02358e-05
6.71773e-05
4.95246e-05
2.02352e-05
6.73491e-05
3.61766e-05
6.60645e-05
6.84817e-05
4.03111e-05
6.8166e-05
4.03081e-05
3.61796e-05
3.6175e-05
4.03049e-05
6.76519e-05
6.58087e-05
3.6172e-05
4.03079e-05
6.80334e-05
2.02315e-05
4.95172e-05
6.75419e-05
6.73636e-05
2.02321e-05
2.02349e-05
6.71613e-05
4.95205e-05
2.02344e-05
6.73432e-05
3.61753e-05
6.6038e-05
4.0312e-05
6.8513e-05
4.03086e-05
6.81399e-05
3.61784e-05
6.93194e-05
2.15767e-05
2.15798e-05
2.15766e-05
2.15797e-05
6.94755e-05
7.02336e-05
6.58195e-05
4.70213e-05
5.90497e-05
4.70301e-05
7.00441e-05
6.60536e-05
7.01977e-05
6.58004e-05
4.70289e-05
5.90557e-05
6.60498e-05
6.99882e-05
4.70447e-05
6.92629e-05
2.15799e-05
2.15831e-05
2.158e-05
6.91028e-05
2.15832e-05
7.05474e-05
4.70467e-05
5.92182e-05
6.6706e-05
4.70381e-05
6.64647e-05
7.07293e-05
7.04947e-05
4.70612e-05
5.92245e-05
6.67003e-05
6.64545e-05
4.7046e-05
7.0695e-05
2.36572e-05
2.36537e-05
2.36443e-05
2.36477e-05
6.96811e-05
2.15732e-05
2.15763e-05
6.95299e-05
2.15733e-05
2.15764e-05
7.15211e-05
6.79956e-05
5.97848e-05
4.70811e-05
6.77629e-05
4.70668e-05
7.16968e-05
7.14694e-05
6.80057e-05
5.97908e-05
4.70925e-05
4.70774e-05
6.77419e-05
7.16628e-05
7.12185e-05
4.70542e-05
6.71155e-05
5.96247e-05
6.73406e-05
7.10401e-05
4.70639e-05
7.11862e-05
4.70621e-05
6.71044e-05
5.96318e-05
7.09881e-05
4.70767e-05
6.7345e-05
6.97345e-05
2.15699e-05
2.15731e-05
2.15698e-05
2.1573e-05
6.98817e-05
2.36466e-05
2.36499e-05
3.61708e-05
6.46875e-05
6.75469e-05
4.03044e-05
6.71511e-05
4.03021e-05
3.61737e-05
2.02421e-05
6.67375e-05
4.95127e-05
6.69382e-05
2.02415e-05
3.61706e-05
6.442e-05
6.66371e-05
4.03002e-05
6.7038e-05
3.61678e-05
4.0302e-05
2.02387e-05
6.71474e-05
4.95095e-05
6.69621e-05
2.02392e-05
3.6168e-05
6.46857e-05
6.75398e-05
4.03038e-05
6.71479e-05
4.03014e-05
3.61708e-05
2.02401e-05
6.67271e-05
4.95068e-05
2.02396e-05
6.69159e-05
3.61677e-05
6.44202e-05
6.66292e-05
4.02996e-05
3.6165e-05
6.70282e-05
4.03014e-05
2.02368e-05
6.71281e-05
4.95038e-05
6.69485e-05
2.02373e-05
3.6177e-05
6.76557e-05
4.03047e-05
6.58042e-05
3.61739e-05
6.80437e-05
4.03078e-05
2.02331e-05
4.95214e-05
6.75619e-05
6.73841e-05
2.02336e-05
2.02364e-05
6.71825e-05
4.95246e-05
2.02359e-05
6.73636e-05
3.61772e-05
6.60482e-05
6.85263e-05
4.03119e-05
6.81421e-05
4.03085e-05
3.61804e-05
3.61741e-05
6.7649e-05
4.03041e-05
6.58033e-05
3.61711e-05
6.80379e-05
4.03072e-05
2.02312e-05
4.95157e-05
6.75362e-05
6.73772e-05
2.02316e-05
2.02345e-05
6.71663e-05
4.95188e-05
2.0234e-05
6.7336e-05
3.61744e-05
6.60467e-05
6.85174e-05
4.03113e-05
6.81354e-05
4.03078e-05
3.61775e-05
2.36558e-05
2.36523e-05
2.36546e-05
2.36511e-05
6.9683e-05
2.15755e-05
2.15724e-05
6.95214e-05
2.15757e-05
2.15725e-05
7.14882e-05
6.79869e-05
5.9786e-05
4.70897e-05
7.16376e-05
6.77477e-05
4.70747e-05
7.1529e-05
6.79994e-05
5.97842e-05
4.70802e-05
7.16794e-05
6.77608e-05
4.70653e-05
7.11507e-05
4.70594e-05
6.7103e-05
5.96249e-05
7.09867e-05
6.73382e-05
4.70734e-05
7.12022e-05
4.70503e-05
6.71093e-05
5.96239e-05
7.10315e-05
6.73444e-05
4.70643e-05
6.97264e-05
2.15723e-05
2.15691e-05
6.98821e-05
2.15722e-05
2.1569e-05
2.36451e-05
2.36485e-05
2.36439e-05
2.36473e-05
2.36437e-05
2.36406e-05
2.36416e-05
2.36383e-05
7.0127e-05
2.15664e-05
2.15627e-05
2.15664e-05
2.15627e-05
7.02696e-05
7.21367e-05
6.84002e-05
4.70934e-05
6.01669e-05
7.19354e-05
4.71078e-05
6.86392e-05
7.21647e-05
6.84155e-05
4.70824e-05
6.0182e-05
7.19888e-05
4.70966e-05
6.86262e-05
7.00799e-05
2.15698e-05
2.15662e-05
6.99317e-05
2.15699e-05
2.15663e-05
7.23884e-05
4.71229e-05
6.03513e-05
6.92915e-05
4.71076e-05
7.26113e-05
6.904e-05
7.24455e-05
4.71118e-05
6.03394e-05
6.92858e-05
4.70967e-05
7.26415e-05
6.90565e-05
3.61823e-05
6.73137e-05
4.03211e-05
6.94377e-05
4.03201e-05
6.90701e-05
3.61853e-05
2.02291e-05
6.7579e-05
4.95351e-05
2.02286e-05
6.77386e-05
3.61818e-05
6.71233e-05
4.03136e-05
6.86088e-05
4.0317e-05
3.61787e-05
6.89877e-05
2.02258e-05
6.79284e-05
4.95323e-05
6.77747e-05
2.02262e-05
7.01263e-05
2.15632e-05
2.15659e-05
2.15632e-05
2.15658e-05
7.02664e-05
7.2136e-05
6.84299e-05
4.70869e-05
6.01749e-05
4.70928e-05
7.20097e-05
6.86273e-05
7.21286e-05
6.84241e-05
4.70966e-05
6.01864e-05
6.86099e-05
7.19552e-05
4.71016e-05
7.00769e-05
2.15665e-05
2.15691e-05
2.15666e-05
6.9934e-05
2.15692e-05
7.24755e-05
4.71065e-05
6.0333e-05
6.92571e-05
4.71023e-05
6.90688e-05
7.26026e-05
7.2407e-05
4.71155e-05
6.03321e-05
6.926e-05
6.9069e-05
4.71118e-05
7.25995e-05
2.36431e-05
2.36398e-05
3.6182e-05
6.73136e-05
4.0325e-05
6.94296e-05
4.03156e-05
6.90729e-05
3.61852e-05
2.02291e-05
6.75683e-05
4.95322e-05
2.02286e-05
6.77355e-05
3.61816e-05
6.71194e-05
4.03122e-05
6.86114e-05
4.03178e-05
3.61785e-05
6.89806e-05
2.02258e-05
6.79283e-05
4.95289e-05
6.77688e-05
2.02262e-05
3.61836e-05
6.73456e-05
6.94025e-05
4.03194e-05
6.90983e-05
4.03198e-05
3.61866e-05
2.02302e-05
6.75859e-05
4.95372e-05
6.77488e-05
2.02295e-05
3.61831e-05
6.70811e-05
6.86369e-05
4.03131e-05
6.89512e-05
3.618e-05
4.03155e-05
2.02267e-05
6.7939e-05
4.95335e-05
6.77832e-05
2.02273e-05
3.61823e-05
6.73277e-05
4.03203e-05
6.9427e-05
4.03202e-05
6.90754e-05
3.61853e-05
2.02292e-05
6.757e-05
4.95329e-05
2.02287e-05
6.77375e-05
3.61819e-05
6.7104e-05
4.03134e-05
6.86125e-05
3.61788e-05
4.03165e-05
6.89785e-05
2.02259e-05
6.79268e-05
4.95298e-05
6.77651e-05
2.02263e-05
7.01264e-05
2.15632e-05
2.15663e-05
2.15631e-05
2.15663e-05
7.02617e-05
7.2169e-05
6.84135e-05
4.70822e-05
6.01779e-05
4.70966e-05
7.1991e-05
6.86378e-05
7.2104e-05
6.83931e-05
4.70935e-05
6.01844e-05
6.86437e-05
7.19488e-05
4.71074e-05
7.00749e-05
2.15665e-05
2.15696e-05
2.15666e-05
6.9932e-05
2.15697e-05
7.24492e-05
4.71114e-05
6.03275e-05
6.92983e-05
4.70969e-05
6.90486e-05
7.2633e-05
7.24289e-05
4.71223e-05
6.03348e-05
6.92925e-05
6.90357e-05
4.71079e-05
7.25394e-05
2.36429e-05
2.36397e-05
3.61842e-05
6.73413e-05
6.94479e-05
4.03203e-05
6.90718e-05
4.03201e-05
3.61874e-05
2.02308e-05
6.75922e-05
4.95373e-05
6.77573e-05
2.02303e-05
3.61839e-05
6.70953e-05
6.86147e-05
4.03132e-05
6.89917e-05
3.61807e-05
4.03163e-05
2.02274e-05
6.79455e-05
4.9534e-05
6.77875e-05
2.02279e-05
3.61814e-05
6.73394e-05
6.94347e-05
4.03196e-05
6.90678e-05
4.03194e-05
3.61844e-05
2.02288e-05
6.75803e-05
4.95315e-05
2.02283e-05
6.77313e-05
3.6181e-05
6.70942e-05
6.86084e-05
4.03126e-05
3.61779e-05
6.89845e-05
4.03157e-05
2.02255e-05
6.79208e-05
4.95281e-05
6.77752e-05
2.02259e-05
2.36415e-05
2.36382e-05
2.36403e-05
2.3637e-05
0.000180012
0.000180022
0.000157282
0.000179147
0.000179158
0.000197122
0.000197822
6.88909e-05
8.52978e-05
7.04908e-05
7.04375e-05
0.000176562
0.000176572
0.000153132
0.000175701
0.000175711
0.000194315
0.000195017
7.14838e-05
7.11513e-05
7.11885e-05
8.36791e-05
7.12742e-05
7.15362e-05
7.14854e-05
6.8874e-05
7.03177e-05
7.02927e-05
8.50941e-05
6.85939e-05
7.03758e-05
7.04065e-05
7.05821e-05
8.39526e-05
7.1064e-05
7.11202e-05
7.10047e-05
7.09728e-05
7.08778e-05
6.88207e-05
8.51962e-05
7.0272e-05
7.05025e-05
7.06403e-05
8.38323e-05
7.12089e-05
7.10472e-05
7.08775e-05
7.10692e-05
7.08027e-05
6.89192e-05
7.03952e-05
7.02605e-05
8.50616e-05
7.04394e-05
6.85922e-05
7.02756e-05
7.05811e-05
8.39232e-05
7.09808e-05
7.11378e-05
7.10872e-05
7.0917e-05
7.08694e-05
7.06274e-05
8.37121e-05
7.12515e-05
7.11771e-05
7.08295e-05
7.0863e-05
7.08905e-05
7.15172e-05
7.12869e-05
7.12664e-05
8.33784e-05
7.12426e-05
7.13656e-05
7.13128e-05
7.14587e-05
7.11959e-05
7.13297e-05
8.34971e-05
7.13485e-05
7.13e-05
7.13965e-05
7.15529e-05
7.13126e-05
7.12152e-05
8.34043e-05
7.14879e-05
7.12459e-05
7.14252e-05
0.000180009
0.000180022
0.000157277
0.000179145
0.000179156
0.000197121
0.000197821
0.000180006
0.000180016
0.000157272
0.000179141
0.000179152
0.000197116
0.000197817
0.000180007
0.000180012
0.000157269
0.000179142
0.000179149
0.000197115
0.000197816
0.000156247
0.000177422
0.000177432
0.000178285
0.000178294
0.00019642
0.000195719
0.000156243
0.000177419
0.000177431
0.000178282
0.000178295
0.00019642
0.000195718
0.000156237
0.000177415
0.000177426
0.000178278
0.000178288
0.000196415
0.000195713
0.000156235
0.000177416
0.000177423
0.000178279
0.000178285
0.000196414
0.000195713
7.30715e-05
6.13858e-05
6.31791e-05
7.69176e-05
6.30025e-05
7.67328e-05
7.30367e-05
6.68185e-05
6.38414e-05
6.21121e-05
6.5231e-05
6.49696e-05
6.35476e-05
6.71008e-05
7.299e-05
6.13827e-05
7.68312e-05
6.32442e-05
7.67987e-05
6.29444e-05
7.3109e-05
6.69899e-05
6.45206e-05
6.2928e-05
6.18269e-05
6.6664e-05
6.48436e-05
6.32196e-05
7.33273e-05
6.10662e-05
7.72108e-05
6.23122e-05
7.32043e-05
7.72188e-05
6.25877e-05
6.68148e-05
6.37884e-05
6.21137e-05
6.52574e-05
6.4938e-05
6.35517e-05
6.71167e-05
6.92601e-05
8.45953e-05
7.07274e-05
7.07011e-05
7.03957e-05
7.04126e-05
6.95484e-05
0.000176559
0.000176572
0.000153128
0.000175698
0.00017571
0.000194314
0.000195016
0.000176555
0.000176565
0.000153122
0.000175694
0.000175705
0.000194309
0.000195011
0.000176557
0.000176563
0.00015312
0.000175695
0.000175703
0.000194308
0.00019501
7.24016e-05
6.39475e-05
6.59505e-05
7.58404e-05
6.56655e-05
7.55378e-05
7.25835e-05
6.76881e-05
6.63384e-05
6.54543e-05
6.39167e-05
6.73646e-05
6.65998e-05
6.57013e-05
7.26094e-05
6.35379e-05
6.5005e-05
7.58042e-05
7.26159e-05
6.5194e-05
7.603e-05
6.75776e-05
6.63045e-05
6.42015e-05
6.70987e-05
6.68472e-05
6.61039e-05
6.80358e-05
7.23554e-05
6.39252e-05
7.55131e-05
6.59406e-05
7.566e-05
6.56364e-05
7.26082e-05
6.76986e-05
6.63356e-05
6.5448e-05
6.39185e-05
6.73643e-05
6.66383e-05
6.57313e-05
7.26999e-05
6.35595e-05
7.58722e-05
6.49598e-05
7.25359e-05
7.59316e-05
6.52438e-05
6.7607e-05
6.6311e-05
6.42202e-05
6.7167e-05
6.68188e-05
6.60902e-05
6.78611e-05
7.19451e-05
8.29663e-05
7.19323e-05
7.18599e-05
7.14724e-05
7.14891e-05
7.21439e-05
6.92695e-05
8.47968e-05
7.0568e-05
7.05963e-05
6.95416e-05
7.05047e-05
7.04922e-05
7.01954e-05
8.41912e-05
7.07311e-05
7.0718e-05
6.99299e-05
7.08252e-05
7.08261e-05
7.31854e-05
6.14582e-05
6.31792e-05
7.66773e-05
6.30165e-05
7.69314e-05
7.29213e-05
6.70176e-05
6.45039e-05
6.29157e-05
6.18262e-05
6.3218e-05
6.66548e-05
6.4846e-05
7.3165e-05
6.10231e-05
6.23745e-05
7.73255e-05
6.25375e-05
7.34213e-05
7.70772e-05
6.68043e-05
6.38536e-05
6.21178e-05
6.52465e-05
6.35548e-05
6.49368e-05
6.71435e-05
7.30019e-05
6.14083e-05
6.32296e-05
7.6676e-05
6.2967e-05
7.69177e-05
7.32933e-05
6.69663e-05
6.4592e-05
6.29345e-05
6.18196e-05
6.66839e-05
6.31759e-05
6.47289e-05
7.34583e-05
6.10644e-05
6.23308e-05
7.7315e-05
7.32738e-05
6.25766e-05
7.7076e-05
6.68311e-05
6.38136e-05
6.21122e-05
6.51362e-05
6.35628e-05
6.70986e-05
6.50046e-05
7.27499e-05
6.36692e-05
7.65807e-05
6.2223e-05
7.29817e-05
6.38577e-05
7.63433e-05
6.71549e-05
6.61394e-05
6.31707e-05
6.51174e-05
6.58305e-05
6.48122e-05
6.74974e-05
6.7332e-05
6.41835e-05
6.53828e-05
6.28763e-05
6.56621e-05
6.69634e-05
6.44587e-05
7.28515e-05
6.26912e-05
6.45195e-05
7.60292e-05
6.43321e-05
7.62817e-05
7.26383e-05
7.30958e-05
6.36297e-05
7.65745e-05
6.22676e-05
7.27817e-05
6.3883e-05
7.63487e-05
6.71779e-05
6.60675e-05
6.31678e-05
6.50795e-05
6.48173e-05
6.59182e-05
6.7459e-05
6.72923e-05
6.41935e-05
6.54445e-05
6.28699e-05
6.699e-05
6.44483e-05
6.56168e-05
7.26225e-05
6.26519e-05
6.45495e-05
7.60315e-05
6.42974e-05
7.62719e-05
7.29266e-05
6.93192e-05
8.46818e-05
7.06957e-05
7.05129e-05
7.0596e-05
7.03918e-05
6.94827e-05
7.01411e-05
8.42467e-05
7.0637e-05
7.08005e-05
7.09039e-05
6.99815e-05
7.07868e-05
7.29597e-05
6.14328e-05
6.32382e-05
7.68846e-05
6.29579e-05
7.67456e-05
7.32814e-05
6.70092e-05
6.45869e-05
6.29175e-05
6.1822e-05
6.32094e-05
6.66635e-05
6.47411e-05
7.34101e-05
6.10428e-05
6.23139e-05
7.71636e-05
6.25815e-05
7.31456e-05
7.72841e-05
6.68164e-05
6.38494e-05
6.2116e-05
6.51543e-05
6.35552e-05
6.50006e-05
6.71453e-05
7.31772e-05
6.14318e-05
7.68895e-05
6.317e-05
7.67569e-05
6.30157e-05
7.29165e-05
6.69918e-05
6.44991e-05
6.29274e-05
6.18152e-05
6.66563e-05
6.31868e-05
6.48217e-05
7.31578e-05
6.10494e-05
7.71797e-05
6.23624e-05
7.34119e-05
7.72884e-05
6.25296e-05
6.68069e-05
6.37908e-05
6.21126e-05
6.52597e-05
6.35528e-05
6.71251e-05
6.49365e-05
7.31292e-05
6.36219e-05
7.64119e-05
6.22461e-05
7.28198e-05
6.38908e-05
7.65594e-05
6.71661e-05
6.6071e-05
6.31711e-05
6.51101e-05
6.59129e-05
6.48134e-05
6.7497e-05
6.73386e-05
6.41869e-05
6.54406e-05
6.28725e-05
6.56102e-05
6.69746e-05
6.44463e-05
7.26392e-05
6.26682e-05
6.45641e-05
7.62658e-05
6.42918e-05
7.60957e-05
7.29387e-05
7.27474e-05
7.64161e-05
6.36622e-05
6.2252e-05
7.29704e-05
7.6557e-05
6.38552e-05
6.71511e-05
6.61759e-05
6.31662e-05
6.50865e-05
6.4806e-05
6.5821e-05
6.74859e-05
6.73255e-05
6.41939e-05
6.53724e-05
6.28691e-05
6.6964e-05
6.44556e-05
6.56351e-05
7.28432e-05
6.26646e-05
7.62676e-05
6.45476e-05
7.61041e-05
6.43194e-05
7.26415e-05
7.29161e-05
6.1419e-05
7.69092e-05
6.32495e-05
7.67199e-05
6.29339e-05
7.32814e-05
6.68095e-05
6.3838e-05
6.21118e-05
6.51587e-05
6.49857e-05
6.35271e-05
6.71458e-05
7.28578e-05
6.36601e-05
7.63983e-05
6.22795e-05
7.28727e-05
6.38457e-05
7.65817e-05
6.71755e-05
6.61313e-05
6.3176e-05
6.50886e-05
6.7449e-05
6.58603e-05
6.48241e-05
6.73088e-05
6.41905e-05
6.54063e-05
6.28646e-05
6.69923e-05
6.56521e-05
6.44304e-05
7.27396e-05
6.26299e-05
6.44933e-05
7.63142e-05
7.27393e-05
6.43194e-05
7.60889e-05
7.30775e-05
7.63981e-05
6.36054e-05
6.2252e-05
7.27587e-05
7.65765e-05
6.39023e-05
6.71447e-05
6.60551e-05
6.31827e-05
6.51052e-05
6.48013e-05
6.58983e-05
6.75051e-05
6.73482e-05
6.41834e-05
6.54354e-05
6.28616e-05
6.69722e-05
6.44345e-05
6.55898e-05
7.26075e-05
6.26504e-05
7.62911e-05
6.45697e-05
7.60725e-05
6.42714e-05
7.29384e-05
6.92545e-05
8.47327e-05
7.04666e-05
7.06241e-05
7.04417e-05
7.05648e-05
6.95526e-05
7.02377e-05
8.41845e-05
7.08152e-05
7.06761e-05
7.07469e-05
6.99241e-05
7.0894e-05
7.30652e-05
6.14094e-05
7.68288e-05
6.31959e-05
7.67993e-05
6.30021e-05
7.29474e-05
6.67274e-05
6.45388e-05
6.29672e-05
6.18208e-05
6.47852e-05
6.68911e-05
6.31324e-05
7.3136e-05
6.1051e-05
7.72047e-05
6.23619e-05
7.72163e-05
7.33916e-05
6.25333e-05
6.70108e-05
6.37684e-05
6.21125e-05
6.52228e-05
6.4956e-05
6.36032e-05
6.68855e-05
7.29167e-05
7.64582e-05
6.3609e-05
6.22808e-05
7.27964e-05
7.65015e-05
6.3898e-05
6.71602e-05
6.61468e-05
6.31744e-05
6.50736e-05
6.74768e-05
6.58349e-05
6.48126e-05
6.73249e-05
6.42005e-05
6.53825e-05
6.28706e-05
6.69693e-05
6.56501e-05
6.44726e-05
7.26701e-05
6.2627e-05
7.62169e-05
6.4579e-05
7.27819e-05
7.61445e-05
6.42815e-05
7.27568e-05
7.64574e-05
6.365e-05
6.22606e-05
7.30065e-05
7.64971e-05
6.38492e-05
6.7363e-05
6.61577e-05
6.31686e-05
6.50306e-05
6.48865e-05
6.58367e-05
6.72562e-05
6.70181e-05
6.42289e-05
6.53915e-05
6.28669e-05
6.71667e-05
6.43909e-05
6.56502e-05
7.28637e-05
6.26418e-05
7.61998e-05
6.45179e-05
7.61467e-05
6.43223e-05
7.26392e-05
7.01525e-05
8.43862e-05
7.06332e-05
7.0645e-05
6.99283e-05
7.08974e-05
7.08859e-05
7.18838e-05
8.31866e-05
7.16808e-05
7.15758e-05
7.22407e-05
7.15999e-05
7.16517e-05
7.2558e-05
6.39994e-05
6.59244e-05
7.54783e-05
6.5671e-05
7.57917e-05
7.24186e-05
6.75833e-05
6.63402e-05
6.54595e-05
6.38834e-05
6.57022e-05
6.74065e-05
6.66448e-05
7.25248e-05
6.3513e-05
6.50019e-05
7.59918e-05
6.52322e-05
7.27386e-05
7.57855e-05
6.76721e-05
6.63106e-05
6.42448e-05
6.71603e-05
6.61081e-05
6.68033e-05
6.78553e-05
7.23177e-05
6.39709e-05
6.58631e-05
7.54888e-05
6.56823e-05
7.57911e-05
7.2838e-05
6.76955e-05
6.63815e-05
6.54538e-05
6.38735e-05
6.73893e-05
6.56984e-05
6.65969e-05
7.28733e-05
6.35221e-05
6.49766e-05
7.59935e-05
7.25282e-05
6.52086e-05
7.57865e-05
6.75778e-05
6.62814e-05
6.42411e-05
6.71618e-05
6.61068e-05
6.80451e-05
6.68304e-05
7.19542e-05
8.3125e-05
7.17761e-05
7.16233e-05
7.16607e-05
7.15616e-05
7.22228e-05
7.23714e-05
6.39793e-05
6.59276e-05
7.56212e-05
6.56562e-05
7.56542e-05
7.26203e-05
6.75955e-05
6.63879e-05
6.5461e-05
6.38713e-05
6.56957e-05
6.74146e-05
6.65167e-05
7.28491e-05
6.35343e-05
6.49649e-05
7.58297e-05
6.52356e-05
7.25372e-05
7.59245e-05
6.76723e-05
6.63194e-05
6.42445e-05
6.70805e-05
6.61045e-05
6.69102e-05
6.78605e-05
7.25471e-05
6.39769e-05
7.5616e-05
6.59095e-05
7.56541e-05
6.56636e-05
7.24241e-05
6.7426e-05
6.63252e-05
6.54507e-05
6.3916e-05
6.7436e-05
6.57157e-05
6.65803e-05
7.25256e-05
6.35317e-05
7.5827e-05
6.49827e-05
7.27285e-05
7.59302e-05
6.52294e-05
6.778e-05
6.63428e-05
6.4203e-05
6.70473e-05
6.60771e-05
6.76296e-05
6.6844e-05
7.2314e-05
6.39811e-05
7.56717e-05
6.59048e-05
7.56239e-05
6.56546e-05
7.28476e-05
6.77481e-05
6.63772e-05
6.54494e-05
6.38768e-05
6.65745e-05
6.73712e-05
6.56674e-05
7.28873e-05
6.35127e-05
7.58057e-05
6.49553e-05
7.59436e-05
7.25247e-05
6.52126e-05
6.75982e-05
6.62379e-05
6.42395e-05
6.71481e-05
6.6822e-05
6.61287e-05
6.78158e-05
7.18995e-05
8.32203e-05
7.17393e-05
7.181e-05
7.15053e-05
7.15677e-05
7.21756e-05
7.25504e-05
6.39471e-05
7.5707e-05
6.58804e-05
7.5619e-05
6.56853e-05
7.24137e-05
6.76198e-05
6.63352e-05
6.54944e-05
6.39105e-05
6.65769e-05
6.75028e-05
6.56879e-05
7.2522e-05
6.35377e-05
7.58721e-05
6.49937e-05
7.59262e-05
7.27325e-05
6.52014e-05
6.76995e-05
6.63238e-05
6.42056e-05
6.70579e-05
6.68519e-05
6.61112e-05
6.78572e-05
0.000233968
0.000233542
0.000233542
0.000233425
0.00023252
0.000227493
0.000227496
0.00022366
0.000230465
0.000220037
0.000220034
0.000208829
0.000227721
0.000211408
0.000211399
0.00019354
0.000224337
0.000202421
0.000202409
0.000179564
0.000220444
0.000193571
0.000193559
0.000167263
0.000216192
0.0001851
0.00018509
0.000156584
0.000211708
0.000177083
0.000177074
0.000147261
0.000207098
0.000169558
0.00016955
0.000139036
0.000202441
0.000162497
0.000162488
0.000131754
0.000197792
0.000155846
0.000155836
0.000125103
0.000193183
0.000149552
0.00014954
0.00011894
0.000188597
0.000143572
0.000143559
0.000113213
0.000184068
0.000137853
0.000137838
0.000107896
0.000179626
0.000132354
0.00013234
0.000102977
0.00017526
0.000127064
0.000127053
9.82946e-05
0.000170958
0.000122005
0.000121997
9.3993e-05
0.000166706
0.000117209
0.000117204
9.03566e-05
0.000162505
0.000112702
0.000112697
8.74032e-05
0.000108547
8.50992e-05
0.000234252
0.000234467
0.000234466
0.000234248
0.000234467
0.000234466
0.00023426
0.00023426
0.00023426
0.000234261
0.000234466
0.00023447
0.00023425
0.000234465
0.000234471
0.000234255
0.000233433
0.000226049
0.000233539
0.000233539