/*--------------------------------*- C++ -*----------------------------------*\
| =========                 |                                                 |
| \\      /  F ield         | OpenFOAM: The Open Source CFD Toolbox           |
|  \\    /   O peration     | Version:  2312                                  |
|   \\  /    A nd           | Website:  www.openfoam.com                      |
|    \\/     M anipulation  |                                                 |
\*---------------------------------------------------------------------------*/
FoamFile
{
    version     2.0;
    format      ascii;
    arch        "LSB;label=32;scalar=64";
    class       volVectorField;
    location    "800";
    object      U;
}
// * * * * * * * * * * * * * * * * * * * * * * * * * * * * * * * * * * * * * //

dimensions      [0 1 -1 0 0 0 0];

internalField   nonuniform List<vector> 
43008
(
(6.34911e-05 6.35164e-05 0.108289)
(5.91529e-05 -9.5552e-05 0.107557)
(6.22815e-05 6.22738e-05 0.108604)
(-9.36593e-05 5.81669e-05 0.107771)
(5.81202e-05 -9.37123e-05 0.107771)
(-0.000149539 -0.000149573 0.106584)
(0.000152379 0.000152402 0.106508)
(1.26172e-05 1.27022e-05 0.106725)
(5.93147e-05 9.55036e-05 0.107557)
(-5.9406e-05 9.5671e-05 0.107556)
(5.85883e-05 9.41779e-05 0.107719)
(-5.86132e-05 9.42839e-05 0.107718)
(-1.25965e-05 1.26952e-05 0.106725)
(9.55471e-05 5.9233e-05 0.107557)
(9.55614e-05 -5.93642e-05 0.107556)
(9.41964e-05 5.84934e-05 0.107719)
(9.4152e-05 -5.85888e-05 0.107718)
(-9.41214e-05 5.84461e-05 0.107719)
(-9.40449e-05 -5.85278e-05 0.107718)
(0.000152416 -0.000152451 0.106508)
(1.26081e-05 -1.25845e-05 0.106725)
(-5.9202e-05 -9.5543e-05 0.107557)
(5.83812e-05 -9.41604e-05 0.107719)
(-5.84162e-05 -9.41704e-05 0.107719)
(-1.26493e-05 -1.25909e-05 0.106724)
(0.000149573 0.000149553 0.106585)
(5.83404e-05 9.37338e-05 0.10777)
(-5.83416e-05 9.38103e-05 0.10777)
(-0.00014953 0.000149552 0.106584)
(9.37459e-05 5.8228e-05 0.107771)
(9.36951e-05 -5.832e-05 0.10777)
(-9.35789e-05 -5.82562e-05 0.10777)
(0.000149536 -0.000149602 0.106585)
(-5.81488e-05 -9.37253e-05 0.10777)
(2.13103e-06 2.08551e-05 0.0947509)
(-2.81345e-06 3.82844e-05 0.0840946)
(2.83347e-06 7.04779e-05 0.0947943)
(-5.18854e-06 -1.2513e-06 0.0840817)
(5.94879e-06 -4.84156e-06 0.0725368)
(2.08143e-05 2.15502e-06 0.0947509)
(3.83014e-05 -2.80814e-06 0.0840946)
(7.04468e-05 2.88567e-06 0.0947941)
(-1.3043e-06 -5.36595e-06 0.0840817)
(-6.35263e-05 6.35259e-05 0.108289)
(6.34789e-05 -6.35363e-05 0.108289)
(-6.3506e-05 -6.3525e-05 0.108289)
(6.25805e-05 6.25807e-05 0.108526)
(-6.2579e-05 6.25819e-05 0.108526)
(6.25397e-05 -6.26035e-05 0.108526)
(-6.25616e-05 -6.2597e-05 0.108526)
(-6.21557e-05 6.39407e-06 0.103006)
(-9.50519e-05 5.89853e-05 0.107612)
(-3.02927e-05 2.14867e-06 0.0963716)
(-0.000104298 2.11287e-05 0.108126)
(1.63628e-05 -3.47489e-06 0.0725069)
(-4.76808e-06 5.92026e-06 0.0725358)
(6.28252e-06 -6.2136e-05 0.103005)
(2.12638e-05 -0.000104791 0.108055)
(3.08957e-05 -7.53199e-05 0.0963608)
(5.88949e-05 -9.50824e-05 0.107612)
(7.57251e-06 -0.000126279 0.102969)
(2.11234e-05 -0.000104382 0.108127)
(2.1557e-06 -3.02189e-05 0.0963701)
(-1.41425e-05 -1.40309e-05 0.106681)
(-1.56241e-05 2.00233e-06 0.0899647)
(2.05225e-06 -1.56282e-05 0.0899617)
(1.668e-06 1.53029e-05 0.094385)
(-1.85737e-06 3.51783e-05 0.083821)
(2.38627e-06 6.36369e-05 0.0944191)
(-4.5341e-06 -3.3257e-06 0.0838169)
(-3.42137e-06 1.56251e-05 0.0723247)
(5.66851e-06 -5.17351e-06 0.0723587)
(1.52635e-05 1.67583e-06 0.094385)
(3.52027e-05 -1.9764e-06 0.0838212)
(6.36318e-05 2.38681e-06 0.0944191)
(-3.32453e-06 -4.54399e-06 0.0838169)
(-6.22698e-05 6.2272e-05 0.108604)
(6.22334e-05 -6.22947e-05 0.108604)
(-6.22533e-05 -6.22912e-05 0.108604)
(-5.53738e-05 5.20427e-06 0.102755)
(-6.98202e-05 2.83721e-05 0.0960257)
(-0.000103131 2.06779e-05 0.108337)
(-9.31835e-05 5.78946e-05 0.107821)
(-0.000118553 6.53264e-06 0.102725)
(-2.55872e-05 7.06392e-07 0.096042)
(-0.000102747 2.05328e-05 0.108405)
(1.55579e-05 -3.52577e-06 0.0723248)
(-5.18095e-06 5.73479e-06 0.0723579)
(5.13443e-06 -5.54146e-05 0.102754)
(2.0694e-05 -0.00010324 0.108337)
(2.84247e-05 -6.98805e-05 0.0960272)
(5.78324e-05 -9.3234e-05 0.107822)
(6.64139e-06 -0.000118655 0.102725)
(2.05503e-05 -0.000102835 0.108405)
(7.36159e-07 -2.5515e-05 0.0960403)
(-3.43154e-05 -1.83126e-05 0.0896681)
(-1.82561e-05 -3.43142e-05 0.0896673)
(-1.12287e-05 -1.11798e-05 0.106761)
(-1.30742e-05 2.63163e-06 0.0896667)
(2.64008e-06 -1.30592e-05 0.0896636)
(3.4284e-06 1.62954e-05 0.0725071)
(-6.04552e-06 -4.81765e-06 0.0725365)
(1.62979e-05 3.33981e-06 0.0725057)
(-4.97136e-06 -6.24689e-06 0.0725355)
(1.95442e-05 3.6913e-05 0.0899757)
(3.69308e-05 1.938e-05 0.0899727)
(1.40286e-05 1.41316e-05 0.106682)
(-2.06663e-06 1.56166e-05 0.0899659)
(1.5412e-05 -2.14484e-06 0.0899633)
(-5.57903e-06 -5.00014e-06 0.0724453)
(3.53284e-06 1.60053e-05 0.0724137)
(-5.00804e-06 -5.89109e-06 0.0724446)
(1.5891e-05 3.33131e-06 0.0724122)
(0.000151008 0.000151019 0.10655)
(-2.24762e-06 1.43247e-05 0.0898132)
(1.42567e-05 -2.39256e-06 0.0898108)
(1.8893e-05 3.56796e-05 0.089819)
(3.55595e-05 1.87877e-05 0.0898158)
(-2.1405e-06 2.08475e-05 0.0947506)
(2.79702e-06 3.8246e-05 0.084094)
(-2.90308e-06 7.04752e-05 0.0947941)
(5.13417e-06 -1.2441e-06 0.0840812)
(6.35693e-06 6.20965e-05 0.103006)
(3.0884e-05 7.53758e-05 0.0963597)
(2.12703e-05 0.000104728 0.108055)
(5.90739e-05 9.50711e-05 0.107612)
(7.49737e-06 0.000126272 0.102968)
(2.11846e-06 3.03047e-05 0.0963698)
(2.11331e-05 0.00010433 0.108126)
(-6.35882e-06 6.20905e-05 0.103005)
(-3.08758e-05 7.53409e-05 0.0963585)
(-2.12908e-05 0.000104766 0.108055)
(-5.91623e-05 9.52166e-05 0.107611)
(-7.59416e-06 0.000126285 0.102968)
(-2.20519e-06 3.02866e-05 0.0963684)
(-2.11557e-05 0.000104362 0.108126)
(2.58915e-06 6.69229e-05 0.0946025)
(-4.64766e-06 -2.45489e-06 0.0839457)
(-2.21723e-06 3.66736e-05 0.0839543)
(1.87709e-06 1.79291e-05 0.0945638)
(-2.63527e-06 6.69279e-05 0.0946023)
(4.65341e-06 -2.31531e-06 0.0839451)
(2.27994e-06 3.66927e-05 0.0839539)
(-1.88832e-06 1.79447e-05 0.0945634)
(7.06499e-06 0.000122456 0.102849)
(5.88474e-05 9.46462e-05 0.107666)
(1.48125e-06 2.77391e-05 0.0962022)
(2.08591e-05 0.000103564 0.108267)
(2.9684e-05 7.25828e-05 0.0961904)
(2.09971e-05 0.00010395 0.108197)
(5.76902e-06 5.86691e-05 0.102882)
(-7.10211e-06 0.000122456 0.102849)
(-5.88818e-05 9.47526e-05 0.107665)
(-1.45782e-06 2.79096e-05 0.0962005)
(-2.08631e-05 0.000103585 0.108267)
(-2.96559e-05 7.26044e-05 0.0961894)
(-2.1009e-05 0.000103974 0.108197)
(-5.72696e-06 5.86685e-05 0.102882)
(-1.40715e-05 1.4166e-05 0.106681)
(1.99181e-06 1.56243e-05 0.0899637)
(-1.56845e-05 -2.08897e-06 0.0899673)
(4.74894e-06 -5.95303e-06 0.0725387)
(5.74556e-06 -4.81062e-06 0.0724455)
(-3.4485e-06 1.59433e-05 0.0724135)
(-0.000151038 0.000151059 0.10655)
(2.41986e-06 1.45001e-05 0.0898109)
(-1.43327e-05 -2.42314e-06 0.0898149)
(-1.88403e-05 3.56429e-05 0.0898159)
(-3.55934e-05 1.88246e-05 0.0898172)
(5.00911e-06 -5.8522e-06 0.072448)
(-1.5962e-05 3.42062e-06 0.072411)
(6.2056e-05 6.36939e-06 0.103006)
(7.5322e-05 3.08678e-05 0.0963595)
(0.000104714 2.12561e-05 0.108055)
(9.50905e-05 5.89829e-05 0.107612)
(0.00012623 7.55735e-06 0.102968)
(3.0154e-05 2.02968e-06 0.0963691)
(0.000104305 2.11135e-05 0.108126)
(2.08188e-05 -2.10894e-06 0.0947507)
(3.83031e-05 2.69953e-06 0.0840943)
(7.04596e-05 -2.84025e-06 0.0947939)
(-1.18523e-06 5.17359e-06 0.0840811)
(6.20625e-05 -6.32957e-06 0.103006)
(0.000104735 -2.13024e-05 0.108055)
(7.5343e-05 -3.09382e-05 0.0963591)
(9.50808e-05 -5.91139e-05 0.107611)
(0.000126225 -7.55162e-06 0.102968)
(0.000104316 -2.11686e-05 0.108126)
(3.02992e-05 -2.09601e-06 0.0963677)
(6.69089e-05 2.61883e-06 0.0946024)
(-2.37003e-06 -4.82444e-06 0.0839458)
(3.66587e-05 -2.3585e-06 0.0839541)
(1.7913e-05 1.91803e-06 0.0945637)
(0.000122411 7.08289e-06 0.102849)
(9.4658e-05 5.87491e-05 0.107666)
(2.77507e-05 1.38539e-06 0.0962016)
(0.000103541 2.08418e-05 0.108267)
(7.25562e-05 2.96289e-05 0.0961898)
(0.000103928 2.09776e-05 0.108197)
(5.8669e-05 5.77323e-06 0.102883)
(6.69153e-05 -2.59994e-06 0.0946022)
(-2.29288e-06 4.86059e-06 0.0839452)
(3.66888e-05 2.29757e-06 0.083954)
(1.79137e-05 -1.83978e-06 0.0945636)
(0.000122428 -7.09226e-06 0.102849)
(9.4621e-05 -5.88588e-05 0.107665)
(0.000103534 -2.08855e-05 0.108267)
(2.78528e-05 -1.34704e-06 0.0962001)
(0.000103921 -2.10284e-05 0.108197)
(7.2558e-05 -2.96638e-05 0.0961897)
(5.8673e-05 -5.71256e-06 0.102883)
(-2.09134e-05 2.20692e-06 0.0947518)
(1.2096e-06 -5.19218e-06 0.0840832)
(-6.2092e-05 -6.333e-06 0.103005)
(-9.50043e-05 -5.90424e-05 0.107612)
(-0.000104273 -2.11663e-05 0.108126)
(-3.03049e-05 -2.15447e-06 0.0963694)
(-2.08723e-05 -2.09475e-06 0.0947505)
(1.23159e-06 5.14906e-06 0.0840811)
(-0.000122388 7.00695e-06 0.102849)
(-9.45934e-05 5.87148e-05 0.107666)
(-2.78681e-05 1.40411e-06 0.0962041)
(-0.000103507 2.0827e-05 0.108267)
(-7.24802e-05 2.95835e-05 0.0961897)
(-0.000103899 2.0978e-05 0.108197)
(-5.87341e-05 5.79417e-06 0.102883)
(-6.68901e-05 2.51989e-06 0.094601)
(2.33586e-06 -4.88312e-06 0.0839475)
(-3.66543e-05 -2.31379e-06 0.0839528)
(-1.8023e-05 1.92677e-06 0.0945646)
(-0.000122402 -7.12614e-06 0.102849)
(-9.45304e-05 -5.88021e-05 0.107665)
(-0.000103491 -2.08915e-05 0.108267)
(-2.79459e-05 -1.43193e-06 0.0962018)
(-0.000103875 -2.10299e-05 0.108197)
(-7.24914e-05 -2.96658e-05 0.0961895)
(-5.86631e-05 -5.73e-06 0.102882)
(-6.69097e-05 -2.68052e-06 0.0946018)
(2.34433e-06 4.83266e-06 0.0839452)
(-3.67073e-05 2.29935e-06 0.0839535)
(-1.79838e-05 -1.84743e-06 0.0945634)
(3.69557e-05 -1.94923e-05 0.0899732)
(1.94447e-05 -3.69536e-05 0.0899754)
(1.40789e-05 -1.40515e-05 0.106681)
(1.56331e-05 1.99087e-06 0.0899617)
(-1.99923e-06 -1.56356e-05 0.0899658)
(3.41895e-06 -1.63979e-05 0.072507)
(-5.93163e-06 4.79113e-06 0.0725366)
(-4.98839e-06 5.82402e-06 0.0724448)
(1.5945e-05 -3.51129e-06 0.0724137)
(0.000151038 -0.000151095 0.10655)
(1.43081e-05 2.31541e-06 0.0898091)
(-2.29448e-06 -1.43047e-05 0.0898131)
(3.55863e-05 -1.88827e-05 0.0898166)
(1.88384e-05 -3.55766e-05 0.0898186)
(-5.80994e-06 5.02151e-06 0.0724456)
(3.46762e-06 -1.59803e-05 0.0724138)
(-6.40514e-06 -6.21305e-05 0.103006)
(-2.12694e-05 -0.000104728 0.108055)
(-3.09383e-05 -7.53629e-05 0.096359)
(-5.89244e-05 -9.50863e-05 0.107612)
(-7.55443e-06 -0.000126235 0.102967)
(-2.11243e-05 -0.00010431 0.108126)
(-2.12512e-06 -3.02028e-05 0.0963681)
(2.10297e-06 -2.09105e-05 0.0947507)
(-2.70579e-06 -3.83038e-05 0.0840953)
(2.87695e-06 -7.04731e-05 0.0947937)
(-5.12548e-06 1.25267e-06 0.084082)
(-2.16009e-06 -2.08739e-05 0.094751)
(2.69361e-06 -3.82924e-05 0.0840945)
(-2.88916e-06 -7.04527e-05 0.0947929)
(5.1611e-06 1.22235e-06 0.0840811)
(7.09394e-06 -0.00012247 0.102849)
(5.8643e-05 -9.46289e-05 0.107666)
(2.08392e-05 -0.000103593 0.108267)
(1.41735e-06 -2.77899e-05 0.0962025)
(2.09802e-05 -0.000104002 0.108197)
(2.96235e-05 -7.25367e-05 0.0961913)
(5.71189e-06 -5.87678e-05 0.102882)
(-7.08097e-06 -0.000122415 0.102848)
(-5.86806e-05 -9.46342e-05 0.107666)
(-2.08507e-05 -0.000103545 0.108267)
(-1.37866e-06 -2.77466e-05 0.0962004)
(-2.09861e-05 -0.000103949 0.108197)
(-2.9659e-05 -7.25619e-05 0.0961898)
(-5.77666e-06 -5.87486e-05 0.102883)
(2.64093e-06 -6.69305e-05 0.0946019)
(-4.80051e-06 2.35373e-06 0.083946)
(-2.30576e-06 -3.6686e-05 0.0839549)
(1.8488e-06 -1.80181e-05 0.0945636)
(-2.62211e-06 -6.69169e-05 0.0946011)
(4.84463e-06 2.30906e-06 0.0839452)
(2.30879e-06 -3.66708e-05 0.0839541)
(-1.89067e-06 -1.79825e-05 0.0945638)
(4.79059e-06 5.91801e-06 0.0725363)
(5.96875e-06 4.75937e-06 0.0725355)
(-0.000151056 -0.000151063 0.10655)
(-1.43071e-05 2.33405e-06 0.0898122)
(2.36571e-06 -1.42886e-05 0.089809)
(-3.56073e-05 -1.88912e-05 0.0898173)
(-1.88305e-05 -3.56086e-05 0.0898163)
(5.01833e-06 5.81773e-06 0.0724452)
(-1.59779e-05 -3.4859e-06 0.0724132)
(5.86177e-06 4.97565e-06 0.0724444)
(-3.47444e-06 -1.59585e-05 0.0724133)
(3.63742e-06 1.56447e-05 0.0723247)
(-5.68948e-06 -5.22936e-06 0.0723586)
(1.55733e-05 3.46366e-06 0.0723235)
(-5.23532e-06 -5.73586e-06 0.0723578)
(1.83357e-05 3.4434e-05 0.08967)
(3.43114e-05 1.82807e-05 0.0896666)
(1.11845e-05 1.12712e-05 0.106762)
(-2.52698e-06 1.30387e-05 0.0896677)
(1.30309e-05 -2.5872e-06 0.0896654)
(-1.62145e-06 1.52981e-05 0.0943846)
(1.99945e-06 3.52398e-05 0.083821)
(-2.38142e-06 6.36454e-05 0.0944189)
(4.50466e-06 -3.31578e-06 0.0838163)
(5.19169e-06 5.53225e-05 0.102755)
(2.85393e-05 6.99607e-05 0.0960263)
(2.07214e-05 0.000103199 0.108337)
(5.80664e-05 9.32656e-05 0.107821)
(6.6218e-06 0.00011863 0.102725)
(7.62711e-07 2.55152e-05 0.0960399)
(2.05806e-05 0.000102818 0.108405)
(-5.11938e-06 5.53194e-05 0.102755)
(-2.84214e-05 6.99601e-05 0.0960256)
(-2.07132e-05 0.000103212 0.108337)
(-5.80616e-05 9.33204e-05 0.107821)
(-6.60787e-06 0.000118634 0.102725)
(-7.41888e-07 2.55701e-05 0.0960382)
(-2.05644e-05 0.000102829 0.108405)
(-1.80804e-05 3.43377e-05 0.0896668)
(-3.42933e-05 1.82349e-05 0.0896681)
(-1.11702e-05 1.12519e-05 0.106761)
(2.53934e-06 1.30936e-05 0.0896656)
(-1.30915e-05 -2.69032e-06 0.0896694)
(-1.55308e-05 3.42879e-06 0.0723221)
(5.23947e-06 -5.74779e-06 0.0723611)
(5.53206e-05 5.16566e-06 0.102755)
(6.99227e-05 2.8476e-05 0.0960257)
(0.000103169 2.07042e-05 0.108337)
(9.32696e-05 5.79522e-05 0.107821)
(0.000118601 6.6298e-06 0.102724)
(2.54776e-05 7.46288e-07 0.0960393)
(0.000102779 2.05561e-05 0.108405)
(1.52577e-05 -1.59957e-06 0.0943849)
(3.52235e-05 1.98044e-06 0.083821)
(6.36315e-05 -2.34214e-06 0.0944189)
(-3.23722e-06 4.60698e-06 0.0838164)
(5.53277e-05 -5.12145e-06 0.102755)
(0.000103155 -2.0735e-05 0.108337)
(6.99009e-05 -2.84728e-05 0.0960257)
(9.32176e-05 -5.80296e-05 0.107821)
(0.000118599 -6.60692e-06 0.102724)
(0.000102771 -2.05918e-05 0.108405)
(2.55507e-05 -6.5597e-07 0.096038)
(-1.53477e-05 1.69202e-06 0.0943858)
(-3.51846e-05 -1.99525e-06 0.0838198)
(-6.36003e-05 2.26244e-06 0.0944177)
(3.30817e-06 -4.61165e-06 0.0838186)
(-5.53175e-05 -5.15898e-06 0.102754)
(-0.000103112 -2.0743e-05 0.108337)
(-6.98728e-05 -2.8477e-05 0.0960253)
(-9.30948e-05 -5.79747e-05 0.107821)
(-0.000118565 -6.65736e-06 0.102725)
(-0.000102736 -2.06065e-05 0.108405)
(-2.56612e-05 -7.29895e-07 0.0960395)
(-1.53449e-05 -1.60802e-06 0.0943846)
(-3.52391e-05 1.97246e-06 0.0838205)
(-6.36366e-05 -2.43966e-06 0.0944184)
(3.32359e-06 4.57172e-06 0.0838163)
(3.4292e-05 -1.82939e-05 0.0896675)
(1.82706e-05 -3.42754e-05 0.0896694)
(1.11607e-05 -1.11375e-05 0.106761)
(1.30819e-05 2.59866e-06 0.0896637)
(-2.57554e-06 -1.3071e-05 0.0896677)
(3.50189e-06 -1.55833e-05 0.0723248)
(-5.70184e-06 5.22783e-06 0.0723587)
(-5.18472e-06 -5.54116e-05 0.102755)
(-2.07038e-05 -0.000103201 0.108337)
(-2.84562e-05 -6.99017e-05 0.0960258)
(-5.7867e-05 -9.32509e-05 0.107821)
(-6.59806e-06 -0.000118608 0.102724)
(-2.0562e-05 -0.000102795 0.108405)
(-6.83779e-07 -2.54544e-05 0.0960382)
(1.61319e-06 -1.53727e-05 0.0943848)
(-1.96941e-06 -3.52212e-05 0.0838218)
(2.40304e-06 -6.36422e-05 0.0944185)
(-4.53133e-06 3.3221e-06 0.0838171)
(-1.64628e-06 -1.53299e-05 0.0943851)
(1.99033e-06 -3.52176e-05 0.0838211)
(-2.37676e-06 -6.36311e-05 0.0944177)
(4.58899e-06 3.25102e-06 0.0838162)
(-1.5579e-05 -3.51317e-06 0.0723242)
(5.2183e-06 5.71974e-06 0.0723584)
(-3.49576e-06 -1.55703e-05 0.0723243)
(5.76337e-06 5.16651e-06 0.0723574)
(-1.10256e-06 1.3331e-05 0.0780383)
(2.70366e-06 6.867e-05 0.0946973)
(2.60657e-07 -1.0271e-05 0.0799121)
(4.22458e-06 1.39326e-05 0.0928161)
(1.22731e-07 8.39149e-06 0.0798525)
(6.44034e-06 5.91645e-05 0.0927535)
(2.15184e-07 -6.15487e-06 0.0781088)
(2.35151e-06 -6.69072e-06 0.0694216)
(5.35871e-06 3.91837e-05 0.0880757)
(-5.5736e-06 -6.57793e-07 0.0841524)
(9.00312e-07 1.24666e-05 0.069327)
(3.72507e-06 3.64124e-06 0.0881443)
(-5.78487e-08 -6.25248e-06 0.0781575)
(2.25337e-06 2.24074e-05 0.0948477)
(2.86706e-08 8.17106e-06 0.0799012)
(6.65902e-06 6.06835e-05 0.0928435)
(-1.348e-06 1.32565e-05 0.0780872)
(1.8135e-07 -1.05077e-05 0.0799605)
(4.40693e-06 1.52255e-05 0.0929058)
(9.28826e-07 1.23451e-05 0.0692837)
(3.68059e-06 2.90014e-06 0.0880649)
(-2.51388e-06 3.74889e-05 0.0840234)
(5.30707e-06 3.8241e-05 0.0879958)
(2.44029e-06 -6.72635e-06 0.069378)
(6.02324e-06 -4.72543e-06 0.0725841)
(-3.37276e-06 1.61525e-05 0.0724592)
(1.33316e-05 -1.01245e-06 0.0780386)
(6.86494e-05 2.74772e-06 0.0946972)
(1.39143e-05 4.23381e-06 0.092816)
(-1.02885e-05 2.94431e-07 0.0799125)
(5.91538e-05 6.50122e-06 0.0927534)
(8.37585e-06 1.84034e-07 0.0798527)
(-6.17922e-06 1.9016e-07 0.0781092)
(-6.74206e-06 2.37924e-06 0.069422)
(3.91797e-05 5.42978e-06 0.0880757)
(-6.48359e-07 -5.35114e-06 0.0841525)
(1.2493e-05 9.3944e-07 0.0693275)
(3.56546e-06 3.801e-06 0.0881443)
(-6.274e-06 -1.5126e-08 0.0781579)
(2.23687e-05 2.31091e-06 0.0948476)
(6.06733e-05 6.71437e-06 0.0928434)
(8.15698e-06 9.17418e-08 0.0799014)
(1.32549e-05 -1.28119e-06 0.0780874)
(1.5201e-05 4.47362e-06 0.0929056)
(-1.05233e-05 2.33018e-07 0.0799608)
(1.23925e-05 9.94051e-07 0.0692843)
(2.85257e-06 3.63079e-06 0.0880649)
(3.74481e-05 -2.66251e-06 0.0840235)
(3.82735e-05 5.27067e-06 0.0879959)
(-6.79999e-06 2.39171e-06 0.0693784)
(-4.6439e-06 5.98179e-06 0.072583)
(1.61542e-05 -3.49582e-06 0.0724597)
(-2.75221e-05 -2.75389e-05 0.0856508)
(-3.92061e-07 6.27508e-06 0.0695837)
(6.29124e-06 -4.07231e-07 0.069577)
(-1.00346e-05 -1.20215e-05 0.0695013)
(-1.19709e-05 -1.00885e-05 0.069495)
(-8.4802e-06 -8.48371e-06 0.0857041)
(-1.61568e-05 -2.08946e-05 0.0946917)
(-1.63195e-05 1.84099e-06 0.0900439)
(-3.28307e-05 -3.54516e-05 0.10001)
(-1.2426e-05 6.99618e-06 0.0834761)
(-2.08531e-05 -1.60888e-05 0.0946829)
(1.87568e-06 -1.63435e-05 0.0900409)
(-3.53537e-05 -3.28428e-05 0.100006)
(7.02687e-06 -1.24308e-05 0.08347)
(-8.97048e-06 -8.94768e-06 0.0857766)
(-5.58066e-07 6.27466e-06 0.0696321)
(6.28433e-06 -5.6596e-07 0.0696254)
(-6.921e-05 -4.42762e-05 0.0945369)
(-1.19517e-05 6.87686e-06 0.0834102)
(-3.62756e-05 -1.91899e-05 0.0898947)
(-3.16537e-05 -3.41965e-05 0.0999312)
(-9.96043e-05 -6.26961e-05 0.0998519)
(-3.07716e-05 -5.78213e-06 0.0833397)
(-1.53281e-05 -1.99764e-05 0.094608)
(-4.42719e-05 -6.91928e-05 0.0945291)
(6.90981e-06 -1.19501e-05 0.0834041)
(-1.91395e-05 -3.62928e-05 0.0898936)
(-3.40744e-05 -3.1658e-05 0.099927)
(-6.26717e-05 -9.96125e-05 0.0998487)
(-5.75231e-06 -3.08634e-05 0.0833355)
(-1.98995e-05 -1.52816e-05 0.0945993)
(-2.09454e-07 1.35805e-05 0.0778569)
(2.27923e-06 6.21074e-05 0.0943305)
(4.4881e-07 -9.13715e-06 0.0797347)
(3.47077e-06 9.47352e-06 0.0924798)
(3.93542e-07 9.4296e-06 0.0796744)
(5.76616e-06 5.37435e-05 0.0924159)
(8.54316e-07 -5.81738e-06 0.0779274)
(2.49063e-06 -7.00649e-06 0.0692536)
(4.98025e-06 3.57672e-05 0.0877694)
(-4.57055e-06 -2.83269e-06 0.0838805)
(1.09787e-06 1.19773e-05 0.0691602)
(3.27184e-06 9.70803e-07 0.0878397)
(7.60056e-07 -5.89611e-06 0.0779708)
(1.80467e-06 1.65938e-05 0.0944733)
(3.56722e-07 9.15407e-06 0.0797166)
(5.93036e-06 5.50103e-05 0.0924969)
(-4.31057e-07 1.35193e-05 0.0779002)
(4.52225e-07 -9.44084e-06 0.0797768)
(3.68879e-06 1.05202e-05 0.0925606)
(1.23497e-06 1.19894e-05 0.0691215)
(3.07469e-06 3.86631e-07 0.0877688)
(-1.80203e-06 3.45288e-05 0.0837574)
(4.84045e-06 3.50961e-05 0.0876982)
(2.48848e-06 -7.02784e-06 0.0692144)
(5.758e-06 -5.072e-06 0.0724014)
(-3.60608e-06 1.55268e-05 0.0722815)
(1.35774e-05 -2.25891e-07 0.0778571)
(6.20862e-05 2.27454e-06 0.0943305)
(9.47151e-06 3.46787e-06 0.0924797)
(-9.14325e-06 4.6445e-07 0.0797351)
(5.37314e-05 5.74917e-06 0.0924158)
(9.42757e-06 3.96331e-07 0.0796746)
(-5.82559e-06 8.57328e-07 0.0779277)
(-6.9628e-06 2.49538e-06 0.0692542)
(3.58164e-05 4.98033e-06 0.0877695)
(-2.85026e-06 -4.67146e-06 0.0838805)
(1.21091e-05 1.18684e-06 0.069161)
(9.3317e-07 3.24777e-06 0.0878398)
(-5.91126e-06 7.23696e-07 0.0779712)
(1.65501e-05 1.79366e-06 0.0944733)
(5.49949e-05 5.92638e-06 0.0924969)
(9.15656e-06 3.59925e-07 0.0797169)
(1.35267e-05 -3.88646e-07 0.0779006)
(1.04873e-05 3.65244e-06 0.0925605)
(-9.44176e-06 4.37733e-07 0.0797772)
(1.20114e-05 1.24293e-06 0.069122)
(3.67226e-07 3.09889e-06 0.0877688)
(3.4534e-05 -1.84168e-06 0.0837572)
(3.5067e-05 4.8537e-06 0.0876982)
(-7.00862e-06 2.50971e-06 0.0692148)
(-5.088e-06 5.78e-06 0.0724008)
(1.53742e-05 -3.52382e-06 0.0722819)
(-2.55434e-05 -2.55841e-05 0.0853785)
(2.65524e-07 6.21742e-06 0.0694008)
(6.24894e-06 2.41146e-07 0.0693942)
(-9.4313e-06 -1.17265e-05 0.0693187)
(-1.16473e-05 -9.49629e-06 0.0693125)
(-6.74641e-06 -6.76433e-06 0.0854334)
(-1.29823e-05 -1.74404e-05 0.0943685)
(-9.53217e-05 -5.89873e-05 0.099621)
(-2.93638e-05 -5.99961e-06 0.0831504)
(-1.3674e-05 2.48511e-06 0.0897386)
(-6.60678e-05 -4.15178e-05 0.0942968)
(-2.83382e-05 -3.06991e-05 0.0996999)
(-1.05338e-05 6.53339e-06 0.0832212)
(-1.73067e-05 -1.29248e-05 0.0943597)
(-5.89199e-05 -9.53016e-05 0.099618)
(-5.95687e-06 -2.94472e-05 0.0831462)
(2.50288e-06 -1.36628e-05 0.0897354)
(-4.14831e-05 -6.60823e-05 0.0942891)
(-3.04813e-05 -2.83036e-05 0.0996956)
(6.57545e-06 -1.05191e-05 0.0832151)
(-7.15007e-06 -7.16749e-06 0.0854984)
(-9.57877e-06 -1.17932e-05 0.0693628)
(-1.17212e-05 -9.64095e-06 0.0693565)
(-2.60171e-05 -2.60584e-05 0.0854438)
(1.04627e-07 6.23147e-06 0.0694449)
(6.26072e-06 8.34593e-08 0.0694383)
(-6.50958e-05 -4.06689e-05 0.0942204)
(-1.00693e-05 6.4363e-06 0.083161)
(-3.37043e-05 -1.80407e-05 0.0895962)
(-2.72881e-05 -2.95777e-05 0.0996244)
(-9.39438e-05 -5.78076e-05 0.0995457)
(-2.88876e-05 -6.05653e-06 0.0830902)
(-1.2215e-05 -1.66056e-05 0.0942922)
(-4.06135e-05 -6.50908e-05 0.0942127)
(6.48478e-06 -1.00485e-05 0.083155)
(-1.798e-05 -3.36895e-05 0.0895954)
(-2.93472e-05 -2.72405e-05 0.09962)
(-5.77334e-05 -9.39238e-05 0.0995427)
(-6.01314e-06 -2.89745e-05 0.083086)
(-1.65063e-05 -1.21812e-05 0.0942834)
(-6.25936e-06 -4.88978e-06 0.0725838)
(3.42208e-06 1.61221e-05 0.0724595)
(-4.5313e-06 -6.01808e-06 0.0725829)
(1.61282e-05 3.30988e-06 0.0724587)
(2.74697e-05 2.75012e-05 0.0856508)
(-6.25356e-06 3.92468e-07 0.0695845)
(3.10353e-07 -6.19949e-06 0.0695776)
(1.19312e-05 1.00209e-05 0.0695013)
(1.0049e-05 1.19612e-05 0.0694946)
(8.41482e-06 8.4903e-06 0.0857054)
(2.08212e-05 1.60215e-05 0.094693)
(6.40336e-05 0.000101088 0.0999312)
(5.78713e-06 3.12938e-05 0.0834075)
(-1.9623e-06 1.61683e-05 0.0900451)
(4.52099e-05 7.03127e-05 0.0946214)
(-7.10317e-06 1.23417e-05 0.0834778)
(3.53508e-05 3.27609e-05 0.100011)
(1.61323e-05 2.07281e-05 0.0946848)
(0.000100986 6.39163e-05 0.099927)
(3.12505e-05 5.57391e-06 0.0834012)
(1.63849e-05 -1.95466e-06 0.0900427)
(7.01831e-05 4.52031e-05 0.0946126)
(1.24275e-05 -7.18062e-06 0.0834718)
(3.27813e-05 3.5305e-05 0.100007)
(8.81624e-06 8.72746e-06 0.085778)
(1.21778e-05 1.03829e-05 0.0695503)
(1.01354e-05 1.2087e-05 0.0695433)
(2.79475e-05 2.81325e-05 0.0857239)
(-6.36519e-06 3.77359e-07 0.0696333)
(4.42422e-07 -6.56958e-06 0.0696262)
(4.42237e-05 6.92001e-05 0.0945374)
(-6.83259e-06 1.1932e-05 0.0834117)
(1.91417e-05 3.63046e-05 0.0898962)
(3.41337e-05 3.16585e-05 0.0999322)
(5.69165e-06 3.07911e-05 0.083341)
(1.99762e-05 1.53134e-05 0.0946093)
(6.26898e-05 9.96706e-05 0.0998527)
(6.91124e-05 4.42243e-05 0.0945288)
(1.18638e-05 -6.83142e-06 0.0834058)
(3.61766e-05 1.90877e-05 0.0898933)
(3.157e-05 3.40789e-05 0.0999289)
(3.0798e-05 5.76532e-06 0.0833351)
(1.52273e-05 1.99117e-05 0.0946011)
(9.94778e-05 6.26017e-05 0.0998486)
(3.57219e-06 1.57867e-05 0.0723686)
(-5.98827e-06 -4.97573e-06 0.0724905)
(1.57656e-05 3.43083e-06 0.0723674)
(-4.89481e-06 -5.96222e-06 0.0724895)
(8.00572e-06 7.9888e-06 0.0856351)
(1.19224e-05 9.95213e-06 0.0694542)
(9.90542e-06 1.19908e-05 0.0694474)
(2.69881e-05 2.70663e-05 0.08558)
(-6.23021e-06 1.94768e-07 0.0695373)
(1.98976e-07 -6.29482e-06 0.0695303)
(4.24248e-05 6.71799e-05 0.0943758)
(3.17897e-05 2.94455e-05 0.0997771)
(1.86038e-05 3.50326e-05 0.0897435)
(-6.62844e-06 1.10322e-05 0.0832842)
(5.94735e-06 2.98949e-05 0.0832136)
(6.02298e-05 9.68355e-05 0.0996983)
(1.82435e-05 1.37683e-05 0.0944477)
(6.70872e-05 4.24382e-05 0.094367)
(2.94058e-05 3.17232e-05 0.0997739)
(3.49398e-05 1.85215e-05 0.0897403)
(1.09727e-05 -6.66858e-06 0.0832783)
(2.98835e-05 5.9513e-06 0.0832074)
(9.66782e-05 6.01549e-05 0.0996939)
(1.36926e-05 1.81666e-05 0.0944396)
(1.91024e-05 1.44985e-05 0.0945276)
(5.89143e-06 3.03567e-05 0.0832766)
(6.14521e-05 9.8238e-05 0.0997752)
(-2.21038e-06 1.48862e-05 0.0898886)
(4.33283e-05 6.82023e-05 0.0944556)
(-6.7014e-06 1.14339e-05 0.0833472)
(3.29292e-05 3.05057e-05 0.0998543)
(1.45059e-05 1.90222e-05 0.0945195)
(3.03278e-05 5.8731e-06 0.0832704)
(9.80962e-05 6.13833e-05 0.0997708)
(1.49351e-05 -2.26603e-06 0.0898861)
(6.80811e-05 4.33478e-05 0.094447)
(1.14531e-05 -6.78425e-06 0.0833413)
(3.05127e-05 3.28864e-05 0.099851)
(2.65303e-05 2.65694e-05 0.0855111)
(-6.36309e-06 4.37874e-08 0.0694911)
(4.14972e-09 -6.29782e-06 0.069484)
(1.18607e-05 9.78811e-06 0.0694083)
(9.79835e-06 1.18917e-05 0.0694013)
(7.51887e-06 7.56256e-06 0.0855665)
(9.33149e-07 1.33385e-05 0.0780377)
(-2.77611e-06 6.86633e-05 0.0946972)
(-3.02829e-07 -1.02763e-05 0.0799119)
(-4.21594e-06 1.39286e-05 0.0928149)
(-2.2472e-07 8.39051e-06 0.0798524)
(-6.52672e-06 5.91729e-05 0.0927536)
(-2.27987e-07 -6.16673e-06 0.0781078)
(-2.39788e-06 -6.7317e-06 0.0694229)
(-5.42177e-06 3.91635e-05 0.0880763)
(5.35014e-06 -6.33321e-07 0.0841519)
(-9.2833e-07 1.24574e-05 0.0693293)
(-3.83288e-06 3.62178e-06 0.0881435)
(6.30777e-10 -6.25155e-06 0.0781565)
(-2.28074e-06 2.23948e-05 0.0948473)
(-1.11195e-07 8.16751e-06 0.0799011)
(-6.71233e-06 6.06736e-05 0.0928436)
(-2.34742e-07 -1.0515e-05 0.0799603)
(1.28294e-06 1.3244e-05 0.0780865)
(-4.44525e-06 1.52246e-05 0.0929045)
(-1.07124e-06 1.24527e-05 0.0692859)
(-3.68487e-06 2.88705e-06 0.0880643)
(2.4919e-06 3.74983e-05 0.084023)
(-5.38165e-06 3.83261e-05 0.0879965)
(-2.44809e-06 -6.75372e-06 0.0693795)
(4.09816e-07 -6.07332e-06 0.0780615)
(1.99186e-07 8.63673e-06 0.0798056)
(6.25609e-06 5.76975e-05 0.0926657)
(1.99972e-06 1.93728e-05 0.0946563)
(-8.78111e-07 1.33894e-05 0.077991)
(3.10107e-07 -1.00149e-05 0.0798654)
(4.00588e-06 1.27036e-05 0.0927287)
(1.03299e-06 1.21411e-05 0.0692008)
(-1.95641e-06 3.58974e-05 0.083887)
(3.37076e-06 1.30734e-06 0.0879126)
(2.24692e-06 -7.22091e-06 0.069294)
(5.14106e-06 3.64656e-05 0.0878429)
(2.47442e-06 -6.75961e-06 0.0693356)
(5.2393e-06 3.7347e-05 0.0879183)
(-4.99484e-06 -1.83183e-06 0.0840128)
(9.99912e-07 1.22005e-05 0.0692415)
(3.54943e-06 2.2698e-06 0.0879879)
(-7.06147e-07 1.34419e-05 0.077945)
(2.46708e-06 6.52571e-05 0.0945098)
(3.39878e-07 -9.74376e-06 0.0798204)
(3.77507e-06 1.15327e-05 0.0926435)
(3.65387e-07 -6.04997e-06 0.0780155)
(2.4521e-07 8.90057e-06 0.0797604)
(6.03215e-06 5.62938e-05 0.0925802)
(-4.04323e-07 -6.0907e-06 0.0780605)
(-2.75911e-07 8.63502e-06 0.0798055)
(-6.29253e-06 5.77117e-05 0.0926658)
(-2.00553e-06 1.93678e-05 0.0946559)
(7.6212e-07 1.3388e-05 0.0779903)
(-3.57603e-07 -1.00199e-05 0.0798652)
(-4.00217e-06 1.27101e-05 0.0927275)
(-1.15326e-06 1.21892e-05 0.0692028)
(2.09545e-06 3.59574e-05 0.0838865)
(-3.4703e-06 1.54666e-06 0.0879121)
(-5.13179e-06 3.66041e-05 0.0878436)
(-2.52373e-06 -6.91862e-06 0.0692956)
(-2.46587e-06 -6.85137e-06 0.069337)
(-5.23568e-06 3.74137e-05 0.087919)
(4.94473e-06 -1.81215e-06 0.0840121)
(-1.07698e-06 1.22944e-05 0.0692438)
(-3.5341e-06 2.20864e-06 0.0879871)
(5.47194e-07 1.34591e-05 0.0779444)
(-2.50356e-06 6.52547e-05 0.0945096)
(-4.23455e-07 -9.74445e-06 0.0798201)
(-3.8265e-06 1.15736e-05 0.0926424)
(-3.28195e-07 8.89976e-06 0.0797602)
(-6.10856e-06 5.63329e-05 0.0925803)
(-6.04003e-07 -5.99502e-06 0.0780146)
(-2.75578e-05 2.7544e-05 0.0856515)
(6.25735e-06 3.21763e-07 0.0695787)
(-4.34275e-07 -6.35236e-06 0.0695841)
(-1.20448e-05 1.00909e-05 0.0694956)
(-1.0042e-05 1.19924e-05 0.0695011)
(-8.5233e-06 8.39417e-06 0.0857055)
(-2.08781e-05 1.61073e-05 0.0946844)
(1.8307e-06 1.63246e-05 0.0900428)
(6.96771e-06 1.24312e-05 0.083472)
(-3.54328e-05 3.28562e-05 0.100007)
(-1.61683e-05 2.08557e-05 0.0946933)
(-1.63809e-05 -1.9057e-06 0.0900463)
(-3.28972e-05 3.53739e-05 0.100012)
(-1.24595e-05 -7.08188e-06 0.0834778)
(-9.00173e-06 8.87366e-06 0.0857779)
(6.2368e-06 4.92554e-07 0.069627)
(-6.06768e-07 -6.34803e-06 0.0696325)
(-4.43057e-05 6.92031e-05 0.094529)
(6.84455e-06 1.19677e-05 0.0834063)
(-1.91245e-05 3.63116e-05 0.0898931)
(-3.41877e-05 3.16898e-05 0.0999282)
(-5.80315e-06 3.08329e-05 0.0833351)
(-6.26519e-05 9.96367e-05 0.0998485)
(-1.9957e-05 1.52958e-05 0.0946009)
(-6.92073e-05 4.42849e-05 0.0945379)
(-1.19896e-05 -6.97085e-06 0.0834119)
(-3.62551e-05 1.91502e-05 0.0898947)
(-3.17377e-05 3.4115e-05 0.0999331)
(-9.95601e-05 6.26978e-05 0.0998525)
(-3.07663e-05 5.77698e-06 0.0833406)
(-1.53487e-05 1.99308e-05 0.0946097)
(4.62854e-06 -6.00844e-06 0.0725856)
(-1.61585e-05 3.42013e-06 0.0724573)
(-3.45983e-06 1.57943e-05 0.0723685)
(5.86398e-06 -4.93826e-06 0.0724904)
(-8.06765e-06 7.8708e-06 0.085635)
(-1.19596e-05 9.9526e-06 0.0694485)
(-9.90791e-06 1.19027e-05 0.0694539)
(-2.70543e-05 2.70315e-05 0.0855806)
(6.29282e-06 1.06989e-07 0.0695314)
(-2.87183e-07 -6.36269e-06 0.0695368)
(-4.24257e-05 6.70727e-05 0.0943671)
(-3.17516e-05 2.94359e-05 0.0997732)
(-1.8508e-05 3.50199e-05 0.0897404)
(6.73994e-06 1.10316e-05 0.0832791)
(-6.01155e-05 9.67604e-05 0.0996938)
(-5.91624e-06 2.98866e-05 0.0832072)
(-1.81615e-05 1.36471e-05 0.0944394)
(-6.7113e-05 4.23782e-05 0.0943761)
(-2.94877e-05 3.16936e-05 0.0997782)
(-3.49096e-05 1.85174e-05 0.0897417)
(-1.10352e-05 -6.76952e-06 0.0832845)
(-2.98452e-05 5.89879e-06 0.083213)
(-9.67041e-05 6.01633e-05 0.099698)
(-1.37636e-05 1.81344e-05 0.0944481)
(-1.90593e-05 1.44658e-05 0.0945192)
(-5.87776e-06 3.0363e-05 0.0832704)
(-6.13804e-05 9.81839e-05 0.0997708)
(2.18234e-06 1.49852e-05 0.0898862)
(-3.29527e-05 3.05431e-05 0.0998503)
(-4.33504e-05 6.81222e-05 0.0944471)
(6.78396e-06 1.14832e-05 0.0833419)
(-1.45492e-05 1.90088e-05 0.094528)
(-3.03056e-05 5.84796e-06 0.0832761)
(-9.81339e-05 6.14307e-05 0.0997749)
(-1.4997e-05 -2.25476e-06 0.0898903)
(-6.81657e-05 4.3339e-05 0.0944561)