/*--------------------------------*- C++ -*----------------------------------*\
| =========                 |                                                 |
| \\      /  F ield         | OpenFOAM: The Open Source CFD Toolbox           |
|  \\    /   O peration     | Version:  2312                                  |
|   \\  /    A nd           | Website:  www.openfoam.com                      |
|    \\/     M anipulation  |                                                 |
\*---------------------------------------------------------------------------*/
FoamFile
{
    version     2.0;
    format      ascii;
    arch        "LSB;label=32;scalar=64";
    class       volScalarField;
    location    "800";
    object      nut;
}
// * * * * * * * * * * * * * * * * * * * * * * * * * * * * * * * * * * * * * //

dimensions      [0 2 -1 0 0 0 0];

internalField   nonuniform List<scalar> 
172512
(
0.000208362
0.000201475
0.000201484
0.000182435
0.00018239
0.000201136
0.000201117
0.000182418
0.000201147
0.000201125
0.000201149
0.000201127
0.000182396
0.000201159
0.000201136
0.000182441
0.000182493
0.000201461
0.000201441
0.000182448
0.000201472
0.000201449
0.000201451
0.000182519
0.000201461
5.07451e-05
9.98383e-05
5.07423e-05
0.00020777
0.000207762
0.000207776
0.000207766
2.3891e-05
0.000200498
0.000103599
9.99459e-05
5.07586e-05
9.98968e-05
5.07643e-05
2.38967e-05
2.39008e-05
9.99413e-05
5.07512e-05
9.98926e-05
5.07616e-05
0.000208354
0.000208369
0.000208359
0.000144493
0.000103663
0.000211327
0.00020179
0.000144315
0.000103734
0.000211742
2.38957e-05
2.38999e-05
0.000144492
0.000211331
0.000103665
0.000201799
0.000144311
0.000211749
0.000103736
7.79283e-05
7.79231e-05
0.000182846
7.79506e-05
7.79452e-05
2.3894e-05
2.3892e-05
0.000181948
7.79054e-05
7.78991e-05
2.38985e-05
2.38943e-05
2.38965e-05
2.38922e-05
0.000182081
7.79329e-05
7.79268e-05
7.79115e-05
7.79056e-05
0.000200476
0.0001036
9.98445e-05
5.07549e-05
5.07489e-05
9.98967e-05
9.98412e-05
5.07492e-05
5.07432e-05
9.98927e-05
0.000144139
0.000200811
0.00010367
0.000210893
0.000103595
0.000210462
0.000144308
0.000144135
0.000200792
0.000103646
0.000210885
0.000103571
0.000210455
0.000144303
2.38964e-05
2.38923e-05
0.000182001
7.79125e-05
7.7933e-05
7.78908e-05
2.38978e-05
0.000144111
0.000200487
0.00010359
0.00021002
9.98396e-05
5.07386e-05
0.00014412
0.000200464
0.000210018
0.000103581
9.98406e-05
5.0752e-05
5.07415e-05
9.9892e-05
0.000144137
0.000200821
0.00010366
0.000210893
0.000103586
0.000210462
0.000144303
9.98324e-05
5.07481e-05
5.07373e-05
9.98921e-05
0.00014412
0.000200798
0.000210891
0.000103651
0.00021046
0.000103576
0.00014431
0.000103668
0.000210893
0.000144312
5.07512e-05
9.98851e-05
0.000210891
0.000103658
0.000144313
5.07492e-05
9.98927e-05
0.000181929
7.7891e-05
7.79056e-05
2.38932e-05
2.38955e-05
2.38912e-05
0.000182098
7.7919e-05
7.79332e-05
7.78957e-05
7.79084e-05
2.38977e-05
2.38935e-05
5.07411e-05
0.00014412
0.000200833
0.000210901
0.00010367
0.000210469
0.000103594
0.000144311
0.000144113
0.00020081
0.000210892
0.000103652
0.00021046
0.000103577
0.000144303
9.9826e-05
5.07512e-05
5.07455e-05
9.98863e-05
9.98159e-05
5.07477e-05
5.07367e-05
9.98766e-05
0.000181995
7.79247e-05
7.79192e-05
7.78956e-05
2.38964e-05
2.38953e-05
2.3891e-05
2.38988e-05
2.39028e-05
2.38967e-05
2.39008e-05
7.79383e-05
7.79324e-05
0.000182843
7.79588e-05
7.79527e-05
2.39031e-05
2.39011e-05
0.000182909
7.79637e-05
7.79577e-05
9.99426e-05
5.07529e-05
9.98935e-05
5.07587e-05
0.000144491
0.000103665
0.000211323
0.000201776
0.000144329
0.000103737
0.000211742
0.000144486
0.000103641
0.000211316
0.000201756
0.000144324
0.000103713
0.000211734
9.99455e-05
5.07681e-05
9.99424e-05
5.07625e-05
0.000144509
0.000202092
0.000103731
0.000212161
0.000144505
0.000202072
0.000103707
0.000212154
7.79177e-05
7.79368e-05
0.000182846
7.79381e-05
7.79591e-05
2.3898e-05
2.39022e-05
2.39011e-05
0.000182877
7.79429e-05
7.79621e-05
2.39024e-05
0.000144487
0.000103656
0.000211324
0.000201787
0.000144325
0.000103727
0.000211742
9.9942e-05
5.07474e-05
9.98855e-05
5.07577e-05
0.000144493
0.000211321
0.000103646
0.000201764
0.000144311
0.00021174
0.000103718
9.99414e-05
5.07606e-05
0.000144505
0.000202103
0.000103722
0.000212161
9.9935e-05
5.07568e-05
0.000144493
0.00020208
0.000212159
0.000103712
9.99348e-05
5.07547e-05
9.98835e-05
5.07606e-05
0.000144496
0.000211322
0.000103652
0.000201766
0.000144315
0.000211741
0.000103724
9.99425e-05
5.07485e-05
9.98865e-05
5.07588e-05
0.000144496
0.000202106
0.000103729
0.000212165
9.99328e-05
5.07643e-05
0.000144496
0.000202082
0.000212161
0.000103718
9.99359e-05
5.07578e-05
7.79227e-05
7.7936e-05
0.000182838
7.79449e-05
7.79592e-05
2.38979e-05
2.39021e-05
2.39001e-05
0.000182914
7.79478e-05
7.79612e-05
2.39023e-05
0.000144486
0.000211322
0.000103647
0.000201776
0.000144304
0.000211741
0.000103718
9.99362e-05
5.07548e-05
9.98791e-05
5.07607e-05
9.99267e-05
5.07469e-05
9.98691e-05
5.07573e-05
0.000144493
0.000202115
0.000212168
0.000103731
0.000144487
0.000202092
0.00021216
0.000103713
9.99289e-05
5.07644e-05
9.9919e-05
5.07563e-05
2.38966e-05
2.39008e-05
2.38955e-05
2.38997e-05
0.000182863
7.79535e-05
7.79484e-05
2.39009e-05
2.38999e-05
2.0316e-05
7.90825e-05
5.07442e-05
7.90648e-05
2.03181e-05
3.67136e-05
9.98123e-05
9.44557e-05
4.10537e-05
9.44336e-05
4.10541e-05
3.67125e-05
2.03164e-05
7.90785e-05
5.07361e-05
7.90606e-05
2.03185e-05
2.3889e-05
3.67241e-05
9.99216e-05
4.10736e-05
9.45458e-05
4.10677e-05
9.45158e-05
3.67309e-05
2.03236e-05
7.90957e-05
5.07597e-05
2.03216e-05
7.91129e-05
3.67273e-05
9.99221e-05
4.1064e-05
9.44973e-05
3.67204e-05
4.10695e-05
9.45271e-05
2.03234e-05
7.91223e-05
5.07632e-05
7.91054e-05
2.03254e-05
2.38986e-05
2.38989e-05
3.6728e-05
9.99175e-05
9.45365e-05
4.10703e-05
9.45161e-05
4.10704e-05
3.67269e-05
2.0324e-05
7.90917e-05
5.07569e-05
2.0322e-05
7.91084e-05
3.67237e-05
9.99175e-05
9.44969e-05
4.10662e-05
3.67245e-05
9.4518e-05
4.10665e-05
2.03238e-05
7.91176e-05
5.07561e-05
7.91013e-05
2.03258e-05
2.38977e-05
2.38979e-05
8.15158e-05
2.17175e-05
2.17143e-05
2.17156e-05
2.17123e-05
8.15222e-05
0.000105292
0.000128909
4.86664e-05
7.79381e-05
0.000105275
0.000128961
4.86661e-05
0.000105298
0.00012889
4.86521e-05
7.79325e-05
0.000105281
0.000128944
4.8659e-05
8.1514e-05
2.17138e-05
2.17105e-05
8.15075e-05
2.17158e-05
2.17125e-05
0.0001053
4.86703e-05
7.7941e-05
0.000129022
0.00012897
4.86707e-05
0.000105319
0.000105307
4.86635e-05
7.79359e-05
0.000129004
0.000128951
4.86566e-05
0.000105325
2.38921e-05
2.389e-05
8.14872e-05
2.17107e-05
2.17074e-05
2.17087e-05
2.17054e-05
8.14939e-05
0.000105199
4.86554e-05
7.78972e-05
0.00012878
4.86562e-05
0.000105217
0.000128728
0.0001052
4.86434e-05
7.78912e-05
0.000128762
4.86446e-05
0.000105219
0.000128705
2.38966e-05
2.38962e-05
2.38945e-05
2.38942e-05
8.15028e-05
2.17106e-05
2.17073e-05
8.14963e-05
2.17125e-05
2.17092e-05
0.000105255
0.000128908
7.79252e-05
4.86645e-05
4.86652e-05
0.000128859
0.000105273
0.000105256
0.00012889
7.79194e-05
4.8652e-05
4.86525e-05
0.000128835
0.000105275
0.000105245
4.86605e-05
0.000128794
7.79196e-05
0.000105227
4.86604e-05
0.000128844
0.000105247
4.86475e-05
0.00012877
7.79135e-05
0.000105228
4.86478e-05
0.000128826
8.15051e-05
2.17144e-05
2.17111e-05
2.17124e-05
2.17091e-05
8.15116e-05
3.67201e-05
4.10558e-05
9.44556e-05
9.98708e-05
3.67132e-05
4.10614e-05
9.44866e-05
2.03197e-05
5.07539e-05
7.91032e-05
2.03218e-05
7.90858e-05
2.03199e-05
7.90754e-05
5.07503e-05
2.03179e-05
7.9093e-05
3.67175e-05
9.98705e-05
4.10658e-05
9.4508e-05
3.67234e-05
4.10599e-05
9.44764e-05
3.67151e-05
4.10586e-05
9.44444e-05
9.98672e-05
3.67161e-05
4.10586e-05
9.44751e-05
2.03191e-05
5.07483e-05
7.90813e-05
7.90636e-05
2.03211e-05
2.03193e-05
7.90534e-05
5.07446e-05
2.03172e-05
7.90712e-05
3.67193e-05
9.98673e-05
4.10627e-05
9.44957e-05
4.10625e-05
9.44651e-05
3.67188e-05
2.38945e-05
2.38942e-05
0.000105254
0.000128877
7.79046e-05
4.86516e-05
0.000128825
4.86521e-05
0.000105276
0.000105251
0.00012891
7.79233e-05
4.86664e-05
4.8659e-05
0.000128857
0.000105273
0.000128761
7.78991e-05
0.000128814
8.14996e-05
2.17108e-05
2.17139e-05
2.17089e-05
2.17119e-05
8.15071e-05
2.38961e-05
3.67122e-05
9.98048e-05
4.10535e-05
9.44506e-05
4.10539e-05
9.44185e-05
3.67106e-05
2.03155e-05
7.9058e-05
5.07324e-05
7.90402e-05
2.03175e-05
3.67175e-05
9.44561e-05
4.10585e-05
9.98662e-05
3.67171e-05
9.44777e-05
4.10583e-05
2.03201e-05
5.07462e-05
7.90987e-05
2.03221e-05
7.90818e-05
2.03203e-05
7.90715e-05
5.07468e-05
2.03183e-05
7.90887e-05
3.67206e-05
9.98661e-05
9.44983e-05
4.10621e-05
3.67205e-05
9.4476e-05
4.1062e-05
3.67148e-05
4.10582e-05
9.44404e-05
9.98663e-05
3.67163e-05
4.1058e-05
9.44715e-05
2.03192e-05
5.07423e-05
7.90784e-05
7.90612e-05
2.03212e-05
2.03193e-05
7.90512e-05
5.07432e-05
2.03173e-05
7.90684e-05
3.67193e-05
9.98594e-05
4.1062e-05
9.44919e-05
4.10618e-05
9.44618e-05
3.67184e-05
2.03203e-05
5.07504e-05
7.90881e-05
7.90786e-05
2.03223e-05
3.6721e-05
9.98581e-05
9.4488e-05
4.10616e-05
9.44637e-05
4.10619e-05
3.672e-05
2.03194e-05
5.07434e-05
7.90787e-05
7.90612e-05
2.03214e-05
3.6719e-05
9.98601e-05
4.10625e-05
9.44936e-05
4.10625e-05
9.4463e-05
3.67194e-05
8.14831e-05
2.17076e-05
2.17109e-05
2.17056e-05
2.17089e-05
8.14899e-05
0.0001052
4.86457e-05
7.78814e-05
0.000128753
4.86405e-05
0.000128697
0.000105218
0.000105197
4.86594e-05
7.7894e-05
0.000128783
0.000128726
4.86515e-05
0.000105215
2.38912e-05
2.38935e-05
2.38933e-05
8.14989e-05
2.17075e-05
2.17107e-05
8.14922e-05
2.17095e-05
2.17127e-05
0.000105258
0.000128882
7.79092e-05
4.86554e-05
0.000128828
4.86482e-05
0.000105275
0.000105255
0.000128912
7.79226e-05
4.8668e-05
4.86608e-05
0.000128858
0.000105273
0.000105247
4.86432e-05
0.000128763
7.79053e-05
0.000128819
0.000105229
4.86506e-05
0.000105245
4.8656e-05
0.000128793
7.79194e-05
0.000105226
4.86634e-05
0.000128848
8.15011e-05
2.17113e-05
2.17145e-05
2.17093e-05
2.17125e-05
8.15076e-05
2.38957e-05
2.38955e-05
5.07405e-05
3.67189e-05
9.44503e-05
4.10539e-05
9.98603e-05
3.67158e-05
9.44818e-05
4.10604e-05
2.03208e-05
5.07502e-05
7.90994e-05
7.90818e-05
2.03228e-05
2.0321e-05
7.90717e-05
5.07465e-05
2.0319e-05
7.90892e-05
3.67188e-05
9.98531e-05
9.45024e-05
4.10645e-05
9.44717e-05
4.10584e-05
3.67234e-05
3.67135e-05
9.44311e-05
4.10531e-05
9.98506e-05
3.67147e-05
9.44624e-05
4.10598e-05
2.03189e-05
5.07418e-05
7.90768e-05
7.90596e-05
2.03209e-05
2.03191e-05
7.90491e-05
5.07427e-05
2.03171e-05
7.90668e-05
3.67179e-05
9.98431e-05
9.44829e-05
4.1064e-05
9.44526e-05
4.10578e-05
3.67182e-05
8.14968e-05
2.17122e-05
2.17089e-05
0.000105247
0.0001289
7.79149e-05
4.86615e-05
0.000105266
0.000128846
4.86619e-05
0.000105254
0.000128883
7.79096e-05
4.86548e-05
0.000105272
0.000128827
4.86476e-05
0.000105238
7.79115e-05
0.000128837
4.86573e-05
0.000105244
0.000128761
7.79056e-05
0.000128819
4.865e-05
8.14989e-05
2.1714e-05
2.17107e-05
8.15055e-05
2.1712e-05
2.17087e-05
2.38944e-05
2.38942e-05
2.38933e-05
2.38931e-05
2.39007e-05
2.3901e-05
2.38987e-05
2.38989e-05
8.15219e-05
2.17179e-05
2.17146e-05
2.1716e-05
2.17127e-05
8.15282e-05
0.0001053
0.000128921
4.86692e-05
7.79461e-05
0.000105282
4.8669e-05
0.000128969
0.000105302
0.000128897
4.86566e-05
7.79401e-05
0.000105283
4.86564e-05
0.000128951
8.152e-05
2.17142e-05
2.17109e-05
8.15137e-05
2.17162e-05
2.17129e-05
0.000105309
4.86733e-05
7.79512e-05
0.000129029
4.86738e-05
0.000105326
0.000128982
0.00010531
4.86607e-05
7.79454e-05
0.000129011
4.86612e-05
0.000105328
0.000128959
2.3905e-05
2.3903e-05
8.15361e-05
2.17178e-05
2.17145e-05
8.15298e-05
2.17197e-05
2.17164e-05
0.000105351
4.86782e-05
0.000129042
7.7971e-05
0.000105334
4.86777e-05
0.000129088
0.000105353
4.86656e-05
0.000129018
7.7965e-05
0.000105335
4.86652e-05
0.00012907
3.67265e-05
9.99186e-05
4.10708e-05
9.45341e-05
4.10709e-05
9.45046e-05
3.67258e-05
2.03229e-05
7.90736e-05
5.07541e-05
2.03209e-05
7.90911e-05
3.67221e-05
9.99188e-05
4.10666e-05
9.44857e-05
4.10671e-05
3.67228e-05
9.45153e-05
2.03227e-05
7.91004e-05
5.07578e-05
7.90833e-05
2.03247e-05
3.67342e-05
4.1072e-05
9.45353e-05
9.99698e-05
3.67277e-05
4.10775e-05
9.45643e-05
2.03272e-05
7.91146e-05
5.07692e-05
2.03252e-05
7.91313e-05
3.67291e-05
4.10745e-05
9.45241e-05
9.99663e-05
3.67299e-05
4.10748e-05
9.45527e-05
2.03265e-05
7.90926e-05
5.07635e-05
2.03245e-05
7.91094e-05
8.15169e-05
2.17146e-05
2.17177e-05
2.17126e-05
2.17157e-05
8.1524e-05
0.000105302
0.000128888
4.86561e-05
7.79255e-05
4.86561e-05
0.000105281
0.000128939
0.000105301
0.00012892
4.86641e-05
7.79464e-05
0.000128972
0.000105279
4.86713e-05
8.15156e-05
2.17109e-05
2.1714e-05
2.17128e-05
8.15084e-05
2.17159e-05
0.000105307
4.86603e-05
7.79305e-05
0.000128998
4.86607e-05
0.000128949
0.000105328
0.000105305
4.86757e-05
7.79496e-05
0.000129032
0.000128981
4.86686e-05
0.000105326
2.39e-05
2.39002e-05
2.3903e-05
8.15321e-05
2.17144e-05
2.17175e-05
8.15252e-05
2.17164e-05
2.17194e-05
0.000105353
4.86652e-05
0.000129008
7.79503e-05
0.000129057
0.000105332
4.86648e-05
0.000105352
4.86729e-05
0.00012904
7.79715e-05
0.00010533
4.868e-05
0.000129091
2.39043e-05
3.67262e-05
9.99102e-05
4.10701e-05
9.45307e-05
4.10702e-05
9.45012e-05
3.67253e-05
2.0323e-05
7.90712e-05
5.07529e-05
2.0321e-05
7.90882e-05
3.67217e-05
9.99175e-05
4.10659e-05
9.44822e-05
4.10663e-05
3.67225e-05
9.45116e-05
2.03228e-05
7.90976e-05
5.07521e-05
7.90808e-05
2.03248e-05
3.67304e-05
9.45348e-05
4.10741e-05
9.99654e-05
3.67314e-05
9.45553e-05
4.10744e-05
2.03276e-05
7.91106e-05
5.07661e-05
2.03256e-05
7.91267e-05
3.67286e-05
4.10738e-05
9.45208e-05
9.99658e-05
3.67295e-05
4.10741e-05
9.45496e-05
2.03266e-05
7.90901e-05
5.07623e-05
2.03246e-05
7.91065e-05
3.67276e-05
9.99089e-05
9.45268e-05
4.10697e-05
9.45033e-05
4.10699e-05
3.67274e-05
2.03242e-05
7.90883e-05
5.07559e-05
7.9098e-05
2.03221e-05
3.67237e-05
9.99107e-05
9.44835e-05
4.10655e-05
9.45083e-05
3.67239e-05
4.10659e-05
2.03239e-05
7.91073e-05
5.07595e-05
7.90978e-05
2.0326e-05
3.67267e-05
9.99112e-05
4.10705e-05
9.45326e-05
4.10706e-05
9.45031e-05
3.67259e-05
2.03232e-05
7.90712e-05
5.0754e-05
2.03212e-05
7.90885e-05
3.67223e-05
9.99181e-05
4.10662e-05
9.4484e-05
3.67227e-05
4.10668e-05
9.45136e-05
2.0323e-05
7.90979e-05
5.07532e-05
7.90808e-05
2.0325e-05
3.6731e-05
9.45219e-05
4.10736e-05
9.99584e-05
3.67304e-05
9.45453e-05
4.10737e-05
2.03278e-05
7.91069e-05
5.07654e-05
2.03257e-05
7.91166e-05
3.67291e-05
4.10743e-05
9.45226e-05
9.99662e-05
3.673e-05
4.10748e-05
9.45513e-05
2.03268e-05
7.909e-05
5.07634e-05
2.03248e-05
7.91069e-05
8.15178e-05
2.17148e-05
2.17181e-05
2.17129e-05
2.17161e-05
8.15243e-05
0.000105302
0.000128891
4.86531e-05
7.79323e-05
4.86599e-05
0.000105285
0.000128944
0.0001053
0.000128921
4.86653e-05
7.79463e-05
0.000128974
0.000105282
4.86722e-05
8.15161e-05
2.17111e-05
2.17143e-05
2.17131e-05
8.15096e-05
2.17163e-05
0.000105311
4.86644e-05
7.79354e-05
0.000129004
4.86574e-05
0.000128952
0.000105328
0.000105309
4.86767e-05
7.79489e-05
0.000129034
0.000128982
4.86697e-05
0.000105326
2.38999e-05
2.39001e-05
2.39021e-05
8.15322e-05
2.17147e-05
2.17179e-05
8.15258e-05
2.17166e-05
2.17199e-05
0.000105354
4.86617e-05
0.000129012
7.79572e-05
0.000129062
0.000105337
4.86686e-05
0.000105351
4.8674e-05
0.000129042
7.79711e-05
0.000105334
4.8681e-05
0.000129093
2.39043e-05
3.67246e-05
9.99041e-05
9.45412e-05
4.10725e-05
9.45113e-05
4.10662e-05
3.67311e-05
2.03246e-05
7.90919e-05
5.0756e-05
7.91091e-05
2.03226e-05
3.67277e-05
9.99116e-05
9.44923e-05
4.10625e-05
9.45222e-05
3.67214e-05
4.10683e-05
2.03244e-05
7.91185e-05
5.07596e-05
7.91015e-05
2.03264e-05
3.67252e-05
9.98942e-05
9.45221e-05
4.1072e-05
9.44925e-05
4.10657e-05
3.67248e-05
2.03227e-05
7.90695e-05
5.07525e-05
2.03207e-05
7.90866e-05
3.67212e-05
9.9902e-05
9.44731e-05
4.10619e-05
3.67214e-05
9.45029e-05
4.10678e-05
2.03225e-05
7.9096e-05
5.07516e-05
7.90792e-05
2.03245e-05
3.67347e-05
9.4531e-05
4.10706e-05
9.99599e-05
3.6728e-05
9.456e-05
4.10765e-05
2.03282e-05
7.91108e-05
5.07655e-05
2.03262e-05
7.91275e-05
3.6728e-05
9.4512e-05
4.107e-05
9.99504e-05
3.67286e-05
9.45407e-05
4.1076e-05
2.03263e-05
7.90885e-05
5.07619e-05
2.03243e-05
7.9105e-05
2.38986e-05
2.38988e-05
2.38975e-05
2.38977e-05
8.15302e-05
2.17174e-05
2.17141e-05
8.15238e-05
2.17193e-05
2.17161e-05
0.000105344
4.86752e-05
0.000129029
7.79628e-05
0.000105326
0.00012908
4.86749e-05
0.00010535
4.86608e-05
0.000129011
7.79576e-05
0.000105332
0.000129063
4.86676e-05
2.39029e-05
2.39019e-05
0.000206568
0.000203204
0.000205524
0.000205525
0.000208945
0.000206282
0.000206283
0.000197393
0.000196398
0.000138548
0.000162106
0.000162095
0.000182633
0.000138507
0.000162187
0.000162178
0.000138445
0.000182305
0.000162043
0.000162027
0.000161996
0.000161982
0.000138478
0.000138438
0.000182232
0.000162025
0.000162055
0.00016195
0.000161973
0.00013848
0.000138444
0.000182319
0.000162024
0.000162045
0.000161983
0.000162004
0.000138478
0.000138434
0.000182224
0.000162049
0.000162038
0.000138472
0.000161964
0.000161953
0.000138553
0.000162134
0.000162121
0.000182626
0.000138521
0.000162188
0.000162172
0.000138552
0.000162093
0.000162117
0.000182634
0.000162195
0.000138512
0.000162167
0.000138552
0.000162123
0.000162144
0.000182608
0.000162186
0.000138519
0.000162165
0.000206574
0.000203211
0.000207174
0.000204756
0.000204756
0.000203985
0.000203984
0.000194394
0.000195398
0.000207171
0.000204754
0.000204755
0.000203983
0.000203986
0.000194393
0.000195397
0.00020718
0.000204764
0.000204767
0.000203992
0.000203996
0.000194403
0.000195406
0.000207171
0.000204762
0.000204763
0.00020399
0.000203993
0.000194401
0.000195405
0.000103558
0.000147568
0.000147495
0.000205521
0.000205523
0.000208936
0.000206279
0.00020628
0.000197393
0.000196398
0.000205532
0.000205535
0.000208951
0.00020629
0.000206293
0.000197401
0.000196407
0.000205529
0.000205531
0.000208941
0.000206287
0.000206289
0.0001974
0.000196405
0.000209524
0.000207037
0.000207038
0.000198385
0.000209516
0.000207034
0.000207036
0.000198384
0.00020953
0.000207045
0.000207048
0.000198393
0.000209521
0.000207042
0.000207044
0.000198392
0.00017194
0.000144406
0.000137895
0.000177307
0.00013781
0.000177183
0.000172025
0.000161201
0.000147819
0.000122853
0.000103702
0.000161105
0.000147877
0.00012291
0.000171849
0.000144403
0.000137735
0.00017699
0.000171767
0.000137818
0.000177112
0.000161238
0.000122965
0.000103697
0.000147984
0.000147924
0.000122909
0.000161335
0.00017188
0.000144403
0.000177312
0.000137901
0.000177165
0.000137812
0.000172067
0.00016121
0.00014782
0.000122856
0.000103704
0.00016107
0.000147888
0.000122918
0.000171879
0.000144402
0.000176971
0.000137739
0.000171713
0.000177107
0.000137826
0.000161202
0.000122972
0.000103698
0.000147986
0.000147932
0.000122911
0.000161352
0.000138582
0.000182653
0.000162325
0.000162314
0.000162246
0.000162234
0.000138621
0.00013829
0.00018187
0.00016175
0.000161735
0.000138324
0.000161707
0.000161693
0.000138402
0.000182166
0.000161852
0.000161837
0.000138368
0.000161899
0.000161884
0.000160587
0.000122745
0.000103558
0.000147558
0.000122679
0.000147492
0.000160782
0.000171517
0.000137581
0.000176573
0.000144215
0.000171347
0.000137669
0.000176673
0.000160895
0.00014777
0.000103631
0.00012286
0.000147711
0.000122797
0.000161066
0.000160933
0.000122739
0.000147595
0.000103635
0.00014766
0.000160759
0.000122803
0.00017153
0.000144234
0.00013775
0.00017689
0.000137662
0.000176785
0.000171701
0.000171517
0.000137567
0.000176567
0.00014421
0.000171312
0.000137656
0.000176669
0.000160883
0.000147739
0.000103607
0.000122843
0.00012278
0.00014768
0.000161048
0.000160909
0.000122722
0.000147565
0.000103612
0.000160732
0.000122784
0.000147631
0.000171492
0.000144229
0.000137737
0.000176885
0.000137648
0.000176779
0.000171692
0.000182185
0.000161804
0.000161881
0.000171221
0.000144037
0.000137567
0.000176438
0.000137501
0.000176443
0.000171268
0.000160684
0.000122731
0.000103551
0.000147523
0.000122678
0.000147483
0.000160701
0.000171164
0.000144022
0.000176511
0.000137572
0.000176377
0.000137479
0.00017132
0.000160612
0.000122728
0.000103539
0.000147533
0.000122662
0.000160761
0.000147461
0.000171468
0.000137587
0.000176651
0.000144211
0.000171418
0.000137652
0.00017666
0.000160953
0.000147741
0.000103623
0.000122848
0.000147706
0.000122796
0.000161017
0.000160857
0.000122739
0.000147588
0.000103625
0.000147628
0.000160829
0.000122792
0.000171595
0.000144231
0.000137731
0.000176854
0.000137667
0.000176844
0.000171651
0.000171522
0.000176579
0.000137563
0.000144216
0.000171338
0.000176714
0.000137653
0.000160891
0.000147747
0.000103611
0.000122842
0.000122779
0.000147683
0.000161041
0.000160907
0.000122722
0.000147574
0.000103616
0.000160738
0.000122785
0.000147638
0.000171499
0.000144217
0.000176913
0.000137734
0.000176781
0.000137645
0.000171708
0.000160964
0.000147766
0.000103629
0.000122854
0.000161045
0.000147716
0.000122795
0.000171586
0.00014422
0.00013774
0.00017692
0.000171664
0.000137653
0.000176797
0.000160894
0.000147758
0.000103618
0.000122848
0.000122785
0.000147698
0.000161045
0.000171521
0.00014422
0.000176921
0.000137737
0.000176786
0.000137648
0.0001717
0.000138285
0.000181877
0.000161724
0.000161751
0.000161709
0.000161684
0.00013832
0.0001384
0.000182176
0.000161838
0.000161858
0.000161882
0.000138365
0.000161903
0.000171527
0.000176574
0.000137575
0.000144215
0.000171323
0.000176713
0.000137665
0.00016091
0.000147778
0.00010363
0.000122862
0.000161056
0.00014772
0.000122799
0.000160936
0.00012274
0.000147604
0.000103635
0.000160784
0.00014767
0.000122804
0.000171525
0.000144217
0.000176913
0.000137749
0.000171692
0.000176778
0.000137659
0.000171512
0.000176578
0.000137557
0.000144208
0.000171321
0.000176715
0.000137647
0.000160877
0.00014775
0.000103612
0.000122841
0.000122778
0.000147682
0.000161036
0.000160916
0.000122719
0.000147577
0.000103617
0.000160737
0.000122783
0.000147636
0.000171511
0.00014421
0.000176914
0.000137728
0.000176779
0.00013764
0.000171692
0.000138398
0.000182218
0.000161805
0.000161906
0.000161892
0.000138594
0.000182701
0.000162326
0.00016231
0.000138626
0.000162271
0.000162259
0.000138698
0.000183056
0.000162407
0.000162396
0.000138666
0.000162463
0.000162447
0.000171881
0.00014442
0.000137903
0.00017728
0.000137813
0.000177182
0.000172064
0.000161221
0.000147811
0.000122855
0.000103704
0.000122916
0.000161041
0.000147878
0.000171888
0.000144402
0.000137741
0.000176985
0.000137828
0.000171706
0.000177086
0.000161173
0.00012297
0.000103698
0.000147983
0.00012291
0.000147918
0.000161349
0.00017187
0.000144416
0.000137891
0.000177275
0.0001378
0.000177176
0.000172048
0.000161193
0.000147779
0.000122837
0.00010368
0.000161032
0.000122898
0.000147847
0.00017187
0.000144398
0.000137728
0.000176978
0.000171691
0.000137815
0.00017708
0.000161165
0.000122953
0.000103675
0.000147951
0.000122892
0.00016133
0.000147888
0.000172242
0.000137889
0.000177374
0.000144578
0.000172059
0.00013798
0.000177471
0.000161487
0.000122964
0.000148021
0.000103768
0.000148084
0.000161325
0.000123023
0.000172226
0.000137876
0.000177368
0.000144574
0.000172044
0.000137967
0.000177466
0.000161458
0.000122946
0.00014799
0.000103745
0.000161295
0.000123005
0.00014805
0.000138586
0.000182665
0.000162307
0.000162333
0.000162257
0.000162234
0.000138627
0.000138697
0.000183055
0.000162371
0.000162395
0.000162443
0.000138657
0.00016247
0.000171942
0.000144417
0.000137881
0.000177267
0.000137824
0.000177213
0.000172001
0.000161156
0.000147811
0.000122852
0.000103694
0.000122904
0.000161089
0.000147858
0.000171831
0.000144398
0.000137747
0.000177036
0.000137808
0.000171771
0.000177059
0.00016123
0.000122958
0.00010369
0.000147954
0.000122908
0.000147911
0.000161294
0.000171869
0.000144403
0.000177307
0.000137889
0.00017717
0.000137799
0.00017206
0.000161191
0.000147788
0.000122837
0.000103685
0.000161036
0.000122897
0.00014785
0.000171878
0.000144403
0.000176972
0.000137726
0.000171692
0.000177104
0.000137813
0.000161171
0.000122952
0.000103679
0.000147953
0.000122892
0.000161329
0.000147891
0.00017218
0.0001379
0.000177395
0.000144574
0.000172113
0.000137957
0.000177457
0.000161434
0.000122962
0.000148013
0.000103758
0.000148056
0.000161366
0.000123011
0.000172237
0.000177356
0.000137875
0.000144581
0.000172042
0.000177498
0.000137965
0.000161458
0.000122946
0.000147993
0.000103749
0.000161301
0.000123004
0.000148054
0.000171891
0.000144406
0.000177311
0.000137894
0.000177176
0.000137801
0.000172061
0.00016121
0.000147803
0.000122842
0.000103691
0.000147861
0.000161037
0.000122904
0.000171894
0.000144405
0.000176977
0.00013773
0.000177109
0.000171703
0.000137817
0.000161175
0.000122958
0.000103686
0.000147965
0.000147907
0.000122898
0.000161339
0.000172201
0.000137883
0.000177368
0.000144582
0.000172113
0.00013797
0.000177491
0.000161459
0.000122962
0.000148024
0.000103766
0.000161368
0.000148085
0.000123018
0.00017224
0.000177358
0.000137879
0.000144583
0.000172066
0.00017749
0.00013797
0.000161477
0.000122952
0.000148007
0.000103756
0.000161323
0.000123011
0.00014807
0.000138592
0.000182707
0.000162303
0.000162325
0.000162282
0.00016226
0.000138625
0.000138697
0.000183054
0.000162397
0.000162419
0.000162441
0.000138665
0.000162463
0.000171869
0.000144396
0.000177308
0.000137884
0.000177166
0.000137793
0.000172057
0.0001612
0.000147794
0.000122835
0.000103685
0.00014785
0.000161025
0.000122897
0.000171877
0.000144395
0.000176968
0.000137721
0.000177105
0.000171694
0.000137807
0.000161162
0.000122951
0.00010368
0.000147958
0.000147891
0.000122891
0.000161329
0.000172244
0.000177341
0.000137888
0.00014458
0.000172059
0.000177498
0.000137978
0.000161491
0.000122965
0.00014803
0.000103768
0.00016134
0.000148087
0.000123025
0.000172231
0.000177345
0.000137869
0.000144573
0.000172048
0.000177485
0.00013796
0.000161467
0.000122945
0.000147998
0.00010375
0.000161311
0.000123004
0.000148058
0.000138691
0.000183055
0.000162381
0.000162369
0.000138653
0.00016246
0.000162449
0.000210659
0.000202717
0.000202725
0.000183279
0.000212846
0.000203881
0.00020389
0.000184057
0.000214925
0.000204968
0.000204977
0.000184775
0.000216893
0.000205979
0.000205988
0.000185432
0.000218752
0.000206916
0.000206925
0.000186029
0.000220503
0.000207773
0.000207782
0.000186572
0.000222147
0.000208558
0.000208567
0.00018706
0.000223686
0.000209272
0.000209281
0.000187495
0.000225123
0.000209916
0.000209925
0.000187878
0.00022646
0.000210492
0.0002105
0.000188214
0.000227697
0.000210999
0.000211008
0.000188502
0.000228832
0.000211439
0.000211448
0.000188721
0.000229859
0.000211827
0.000211837
0.000188902
0.000230791
0.000212156
0.000212167
0.000189054
0.000231634
0.000212428
0.00021244
0.000189167
0.000232396
0.000212645
0.000212658
0.000189243
0.000233075
0.00021281
0.000212824
0.000189278
0.000233661
0.000212934
0.000212946
0.000189277
0.000234286
0.000213179
0.000213187
0.00018924
0.00023396
0.000213725
0.000213737
0.00019372
0.000183263
0.000202397
0.000202377
0.00018326
0.000202408
0.000202385
0.000202411
0.000202387
0.000183261
0.00020242
0.000202397
0.000183258
0.000183311
0.000184049
0.000202703
0.000202682
0.000203579
0.000203558
0.000183288
0.000184045
0.000202714
0.000202691
0.000203591
0.000203567
0.000202693
0.000203593
0.000203569
0.000183315
0.000184049
0.000202703
0.000203602
0.000203579
0.000184035
0.000184078
0.000184764
0.000203867
0.000203846
0.000204683
0.000204662
0.000184061
0.000184783
0.000203879
0.000203855
0.000204696
0.000204671
0.000203857
0.000204697
0.000204673
0.000184079
0.000184763
0.000203867
0.000204707
0.000204684
0.000184747
0.000184792
0.000185428
0.000204954
0.000204933
0.00020571
0.000205688
0.000184754
0.00018546
0.000204967
0.000204942
0.000205723
0.000205698
0.000204944
0.000205724
0.000205699
0.000184791
0.000185427
0.000204955
0.000205734
0.000205711
0.000185411
0.000185446
0.000186042
0.000205965
0.000205943
0.00020666
0.000206638
0.000185396
0.000186072
0.000205978
0.000205953
0.000206674
0.000206648
0.000205954
0.000206675
0.000206649
0.000185445
0.000186039
0.000205966
0.000206684
0.000206661
0.000186026
0.000186042
0.0001866
0.000206902
0.00020688
0.00020754
0.000207517
0.000185995
0.000186629
0.000206915
0.000206889
0.000207554
0.000207527
0.000206891
0.000207554
0.000207529
0.00018604
0.000186597
0.000206903
0.000207563
0.000207541
0.000186585
0.000186584
0.000187102
0.000207759
0.000207737
0.000208346
0.000208324
0.000186538
0.000187132
0.000207772
0.000207747
0.000208361
0.000208333
0.000207748
0.00020836
0.000208335
0.000186582
0.000187099
0.00020776
0.000208369
0.000208348
0.000187088
0.000187073
0.000187552
0.000208544
0.000208521
0.000209081
0.000209058
0.000187026
0.000187581
0.000208558
0.000208531
0.000209095
0.000209068
0.000208533
0.000209095
0.00020907
0.000187069
0.000187548
0.000208545
0.000209104
0.000209082
0.000187537
0.000187508
0.000187948
0.000209258
0.000209235
0.000209745
0.000209722
0.000187461
0.000187978
0.000209272
0.000209245
0.00020976
0.000209732
0.000209247
0.000209759
0.000209734
0.000187504
0.000187945
0.000209259
0.000209768
0.000209747
0.000187935
0.000187891
0.000188338
0.000209902
0.000209879
0.000210342
0.000210319
0.000187845
0.000188327
0.000209916
0.000209889
0.000210357
0.000210329
0.000209891
0.000210356
0.000210331
0.000187888
0.000188291
0.000209904
0.000210365
0.000210344
0.000188281
0.000188188
0.000188626
0.000210477
0.000210454
0.000210876
0.000210853
0.00018818
0.000188642
0.000210492
0.000210464
0.000210891
0.000210862
0.000210465
0.00021089
0.000210864
0.000188225
0.000188576
0.000210479
0.000210899
0.000210878
0.000188598
0.000188511
0.00018886
0.000210984
0.000210961
0.000211348
0.000211326
0.000188476
0.000188897
0.000210999
0.000210971
0.000211364
0.000211335
0.000210972
0.000211363
0.000211336
0.00018856
0.000188813
0.000210986
0.000211372
0.00021135
0.000188848
0.000188783
0.000189022
0.000211424
0.000211401
0.000211751
0.000211728
0.000188724
0.000189042
0.00021144
0.00021141
0.000211767
0.000211737
0.000211412
0.000211766
0.000211739
0.000188801
0.000189017
0.000211426
0.000211775
0.000211752
0.000189076
0.000188969
0.00018919
0.000211813
0.00021179
0.000212092