/*--------------------------------*- C++ -*----------------------------------*\
| =========                 |                                                 |
| \\      /  F ield         | OpenFOAM: The Open Source CFD Toolbox           |
|  \\    /   O peration     | Version:  2312                                  |
|   \\  /    A nd           | Website:  www.openfoam.com                      |
|    \\/     M anipulation  |                                                 |
\*---------------------------------------------------------------------------*/
FoamFile
{
    version     2.0;
    format      ascii;
    arch        "LSB;label=32;scalar=64";
    class       volScalarField;
    location    "850";
    object      epsilon;
}
// * * * * * * * * * * * * * * * * * * * * * * * * * * * * * * * * * * * * * //

dimensions      [0 2 -3 0 0 0 0];

internalField   nonuniform List<scalar> 
172512
(
6.63558e-07
1.18843e-06
1.18854e-06
1.42056e-06
1.4184e-06
1.18795e-06
1.18784e-06
1.41835e-06
1.18777e-06
1.18795e-06
1.18785e-06
1.18798e-06
1.41849e-06
1.18795e-06
1.18783e-06
1.41849e-06
1.42052e-06
1.18854e-06
1.18843e-06
1.42045e-06
1.18836e-06
1.18854e-06
1.18857e-06
1.42056e-06
1.18841e-06
9.56617e-06
4.23893e-06
9.56767e-06
6.62215e-07
6.62219e-07
6.62338e-07
6.62323e-07
1.90948e-05
1.18669e-06
3.64745e-06
4.2411e-06
9.57264e-06
4.24063e-06
9.57702e-06
1.91047e-05
1.91147e-05
4.24117e-06
9.57383e-06
4.24072e-06
9.57859e-06
6.63556e-07
6.63683e-07
6.63654e-07
2.29663e-06
3.64931e-06
9.37693e-07
1.18897e-06
2.29658e-06
3.64957e-06
9.385e-07
1.91061e-05
1.9116e-05
2.29665e-06
9.37794e-07
3.64929e-06
1.18907e-06
2.29656e-06
9.38581e-07
3.64956e-06
5.65369e-06
5.65544e-06
1.4196e-06
5.65463e-06
5.65638e-06
1.90911e-05
1.90944e-05
1.41718e-06
5.65056e-06
5.65235e-06
1.91018e-05
1.90918e-05
1.91051e-05
1.9095e-05
1.41936e-06
5.6526e-06
5.65439e-06
5.65168e-06
5.65343e-06
1.1867e-06
3.64724e-06
4.23949e-06
9.57165e-06
9.56712e-06
4.24001e-06
4.23944e-06
9.57183e-06
9.56735e-06
4.23995e-06
2.29593e-06
1.18734e-06
3.64834e-06
9.36814e-07
3.64802e-06
9.35949e-07
2.29605e-06
2.29587e-06
1.18715e-06
3.64873e-06
9.36753e-07
3.64844e-06
9.35873e-07
2.296e-06
1.91042e-05
1.9094e-05
1.41928e-06
5.65406e-06
5.65291e-06
5.65324e-06
1.91032e-05
2.29549e-06
1.18652e-06
3.64781e-06
9.35007e-07
4.23887e-06
9.56734e-06
2.29546e-06
1.18669e-06
9.35046e-07
3.64773e-06
4.23959e-06
9.57321e-06
9.56834e-06
4.24009e-06
2.29599e-06
1.18717e-06
3.64891e-06
9.36804e-07
3.64857e-06
9.35938e-07
2.2961e-06
4.23951e-06
9.57282e-06
9.56796e-06
4.24002e-06
2.2959e-06
1.18735e-06
9.36842e-07
3.64883e-06
9.35973e-07
3.64849e-06
2.29605e-06
3.64856e-06
9.36851e-07
2.29611e-06
9.57246e-06
4.24016e-06
9.36874e-07
3.64843e-06
2.29607e-06
9.57248e-06
4.24005e-06
1.41728e-06
5.65218e-06
5.65074e-06
1.90923e-05
1.91055e-05
1.90954e-05
1.41938e-06
5.65422e-06
5.65277e-06
5.65324e-06
5.65178e-06
1.9103e-05
1.9093e-05
9.56707e-06
2.29599e-06
1.18734e-06
9.36943e-07
3.64854e-06
9.36083e-07
3.6482e-06
2.29614e-06
2.29592e-06
1.18723e-06
9.36884e-07
3.64893e-06
9.36022e-07
3.64859e-06
2.29606e-06
4.23972e-06
9.57259e-06
9.56814e-06
4.24016e-06
4.23974e-06
9.57319e-06
9.56831e-06
4.24012e-06
1.41936e-06
5.65266e-06
5.65441e-06
5.65342e-06
1.9104e-05
1.91063e-05
1.90961e-05
1.91024e-05
1.91123e-05
1.91057e-05
1.91156e-05
5.65369e-06
5.65544e-06
1.41951e-06
5.65456e-06
5.65636e-06
1.91129e-05
1.91162e-05
1.42158e-06
5.65564e-06
5.65739e-06
4.24104e-06
9.57283e-06
4.24058e-06
9.57722e-06
2.29657e-06
3.6491e-06
9.37663e-07
1.18907e-06
2.29652e-06
3.64937e-06
9.38451e-07
2.29652e-06
3.64952e-06
9.37604e-07
1.18896e-06
2.29646e-06
3.64975e-06
9.38392e-07
4.24169e-06
9.57801e-06
4.24164e-06
9.57821e-06
2.297e-06
1.1896e-06
3.6501e-06
9.39225e-07
2.29694e-06
1.18949e-06
3.65052e-06
9.39167e-07
5.65525e-06
5.65393e-06
1.41947e-06
5.65603e-06
5.65481e-06
1.91037e-05
1.91137e-05
1.91152e-05
1.42152e-06
5.65719e-06
5.65582e-06
1.91142e-05
2.29661e-06
3.64965e-06
9.37653e-07
1.1889e-06
2.29656e-06
3.64993e-06
9.38445e-07
4.2411e-06
9.57346e-06
4.24063e-06
9.57823e-06
2.29655e-06
9.37689e-07
3.64957e-06
1.18908e-06
2.29647e-06
9.3848e-07
3.64986e-06
4.24177e-06
9.5792e-06
2.29704e-06
1.18943e-06
3.65066e-06
9.3922e-07
4.24168e-06
9.57883e-06
2.29696e-06
1.1896e-06
9.39257e-07
3.65058e-06
4.24124e-06
9.57344e-06
4.24086e-06
9.57783e-06
2.29659e-06
9.37721e-07
3.64918e-06
1.18911e-06
2.29654e-06
9.38513e-07
3.64945e-06
4.24113e-06
9.57311e-06
4.24068e-06
9.57788e-06
2.29707e-06
1.18949e-06
3.6503e-06
9.39254e-07
4.24191e-06
9.57881e-06
2.29703e-06
1.18963e-06
9.39286e-07
3.65019e-06
4.24173e-06
9.57847e-06
5.65525e-06
5.65382e-06
1.41958e-06
5.65619e-06
5.65474e-06
1.91036e-05
1.91135e-05
1.91166e-05
1.42163e-06
5.6572e-06
5.65579e-06
1.91141e-05
2.29658e-06
9.37733e-07
3.64967e-06
1.18894e-06
2.29649e-06
9.38519e-07
3.64995e-06
4.24125e-06
9.57358e-06
4.24084e-06
9.57797e-06
4.2412e-06
9.57382e-06
4.24087e-06
9.57859e-06
2.29705e-06
1.1896e-06
9.39355e-07
3.65029e-06
2.29698e-06
1.18947e-06
9.39292e-07
3.65068e-06
4.24189e-06
9.57895e-06
4.24192e-06
9.57919e-06
1.91045e-05
1.91145e-05
1.91068e-05
1.91168e-05
1.42163e-06
5.65565e-06
5.65739e-06
1.9115e-05
1.91173e-05
2.27632e-05
7.24529e-06
9.56438e-06
7.2455e-06
2.277e-05
1.26559e-05
4.239e-06
4.88462e-06
1.12474e-05
4.88473e-06
1.12453e-05
1.26587e-05
2.2763e-05
7.24531e-06
9.56548e-06
7.24553e-06
2.27698e-05
1.909e-05
1.26705e-05
4.24117e-06
1.12609e-05
4.88717e-06
1.12581e-05
4.88727e-06
1.26729e-05
2.27886e-05
7.24913e-06
9.57436e-06
2.27818e-05
7.24888e-06
1.26693e-05
4.24057e-06
1.12549e-05
4.88665e-06
1.26668e-05
1.12576e-05
4.88656e-06
2.27879e-05
7.25005e-06
9.57532e-06
7.25031e-06
2.27946e-05
1.91094e-05
1.911e-05
1.26706e-05
4.24125e-06
4.88718e-06
1.12607e-05
4.8873e-06
1.12587e-05
1.26729e-05
2.27883e-05
7.24915e-06
9.57593e-06
2.27815e-05
7.2489e-06
1.26693e-05
4.24064e-06
4.88669e-06
1.12554e-05
1.26669e-05
4.88657e-06
1.12575e-05
2.27876e-05
7.25007e-06
9.57653e-06
7.25032e-06
2.27943e-05
1.91108e-05
1.91114e-05
9.97151e-06
2.24192e-05
2.24185e-05
2.24131e-05
2.24124e-05
9.97113e-06
4.70579e-06
2.97598e-06
9.93692e-06
5.65363e-06
4.70618e-06
2.97578e-06
9.9393e-06
4.71158e-06
2.97716e-06
9.9417e-06
5.6554e-06
4.71195e-06
2.97695e-06
9.94406e-06
9.96945e-06
2.24076e-05
2.24069e-05
9.96982e-06
2.24137e-05
2.24129e-05
4.70677e-06
9.94197e-06
5.65468e-06
2.97604e-06
2.97626e-06
9.93961e-06
4.70636e-06
4.71252e-06
9.94673e-06
5.65643e-06
2.97722e-06
2.97743e-06
9.94439e-06
4.71215e-06
1.90864e-05
1.90896e-05
9.96479e-06
2.23965e-05
2.23957e-05
2.23903e-05
2.23895e-05
9.96443e-06
4.70427e-06
9.93039e-06
5.65064e-06
2.97482e-06
9.92865e-06
4.70385e-06
2.97502e-06
4.71004e-06
9.93552e-06
5.65239e-06
2.97596e-06
9.93375e-06
4.70964e-06
2.97616e-06
1.90971e-05
1.90965e-05
1.91004e-05
1.90997e-05
9.96615e-06
2.23959e-05
2.23952e-05
9.96653e-06
2.24021e-05
2.24013e-05
4.70551e-06
2.97543e-06
5.6527e-06
9.93592e-06
9.93418e-06
2.97565e-06
4.70507e-06
4.71128e-06
2.97658e-06
5.65445e-06
9.94099e-06
9.93924e-06
2.97679e-06
4.71086e-06
4.70447e-06
9.93143e-06
2.97535e-06
5.65159e-06
4.7049e-06
9.93323e-06
2.97513e-06
4.71026e-06
9.93644e-06
2.97649e-06
5.65338e-06
4.71067e-06
9.93829e-06
2.97628e-06
9.96825e-06
2.24077e-05
2.24069e-05
2.24016e-05
2.24008e-05
9.96786e-06
1.26619e-05
1.12482e-05
4.88536e-06
4.23944e-06
1.26595e-05
1.12509e-05
4.88527e-06
2.27757e-05
9.56991e-06
7.2477e-06
2.27824e-05
7.24793e-06
2.27763e-05
7.24673e-06
9.56893e-06
2.27695e-05
7.2465e-06
1.26632e-05
4.24007e-06
1.12544e-05
4.88593e-06
1.26657e-05
1.12515e-05
4.88601e-06
1.26621e-05
1.12484e-05
4.88525e-06
4.23938e-06
1.26597e-05
1.12505e-05
4.88517e-06
2.27761e-05
9.57011e-06
7.24641e-06
7.24663e-06
2.27828e-05
2.27766e-05
7.24542e-06
9.56911e-06
2.27699e-05
7.24521e-06
1.26634e-05
4.24002e-06
1.12539e-05
4.88582e-06
1.12517e-05
4.88591e-06
1.26658e-05
1.90994e-05
1.90988e-05
4.71139e-06
2.97653e-06
5.65425e-06
9.94063e-06
2.97673e-06
9.93888e-06
4.71097e-06
4.70558e-06
2.97551e-06
5.65296e-06
9.93681e-06
9.93436e-06
2.97571e-06
4.70516e-06
2.97643e-06
5.65306e-06
2.97623e-06
9.96845e-06
2.24076e-05
2.24085e-05
2.24015e-05
2.24021e-05
9.96797e-06
1.90982e-05
1.26561e-05
4.23893e-06
1.12473e-05
4.88448e-06
1.12452e-05
4.88456e-06
1.26585e-05
2.27629e-05
7.24371e-06
9.56516e-06
7.24392e-06
2.27697e-05
1.26619e-05
4.8854e-06
1.12487e-05
4.23952e-06
1.26596e-05
4.88529e-06
1.12508e-05
2.27754e-05
9.57108e-06
7.24772e-06
2.27822e-05
7.24796e-06
2.2776e-05
7.24675e-06
9.57044e-06
2.27692e-05
7.24652e-06
1.26633e-05
4.24016e-06
4.88594e-06
1.12542e-05
1.26657e-05
4.88605e-06
1.1252e-05
1.26623e-05
1.12486e-05
4.88522e-06
4.23946e-06
1.266e-05
1.12507e-05
4.88514e-06
2.27754e-05
9.57071e-06
7.24612e-06
7.24635e-06
2.27821e-05
2.27759e-05
7.24514e-06
9.57008e-06
2.27692e-05
7.24492e-06
1.26636e-05
4.24008e-06
1.1254e-05
4.88579e-06
1.12519e-05
4.88586e-06
1.26659e-05
2.27742e-05
9.57069e-06
7.24737e-06
7.2478e-06
2.27813e-05
1.26629e-05
4.24031e-06
4.88591e-06
1.1254e-05
4.88618e-06
1.12519e-05
1.26653e-05
2.27753e-05
9.57036e-06
7.24589e-06
7.24613e-06
2.2782e-05
1.26633e-05
4.24013e-06
1.12539e-05
4.88573e-06
1.12518e-05
4.88585e-06
1.26658e-05
9.96432e-06
2.23955e-05
2.2396e-05
2.23894e-05
2.23898e-05
9.96394e-06
4.71004e-06
9.93503e-06
5.65221e-06
2.97599e-06
9.93328e-06
2.97615e-06
4.70968e-06
4.7041e-06
9.93068e-06
5.65076e-06
2.97486e-06
2.97504e-06
9.92816e-06
4.70376e-06
1.90876e-05
1.91008e-05
1.91002e-05
9.96567e-06
2.2395e-05
2.23954e-05
9.96606e-06
2.24012e-05
2.24016e-05
4.71129e-06
2.97661e-06
5.65426e-06
9.94058e-06
2.97678e-06
9.93883e-06
4.7109e-06
4.70535e-06
2.97547e-06
5.6528e-06
9.93615e-06
9.93373e-06
2.97567e-06
4.70498e-06
4.7103e-06
9.93613e-06
2.97648e-06
5.65321e-06
2.97631e-06
4.71067e-06
9.93786e-06
4.70438e-06
9.93099e-06
2.97536e-06
5.65175e-06
4.70474e-06
9.9334e-06
2.97517e-06
9.96777e-06
2.24068e-05
2.24072e-05
2.24007e-05
2.24011e-05
9.96738e-06
1.90983e-05
1.90977e-05
9.56534e-06
1.26619e-05
4.88537e-06
1.12485e-05
4.2396e-06
1.26595e-05
4.8853e-06
1.12506e-05
2.27747e-05
9.57086e-06
7.24734e-06
7.24756e-06
2.27814e-05
2.27753e-05
7.24636e-06
9.56987e-06
2.27685e-05
7.24614e-06
1.2663e-05
4.24029e-06
4.88594e-06
1.12539e-05
4.88602e-06
1.12518e-05
1.26655e-05
1.26623e-05
4.88533e-06
1.12483e-05
4.23955e-06
1.26597e-05
4.88517e-06
1.12504e-05
2.27761e-05
9.57107e-06
7.24635e-06
7.2466e-06
2.27829e-05
2.27768e-05
7.2454e-06
9.57045e-06
2.277e-05
7.24515e-06
1.26633e-05
4.24031e-06
4.88581e-06
1.12537e-05
4.88598e-06
1.12516e-05
1.26658e-05
9.96603e-06
2.24025e-05
2.24018e-05
4.70558e-06
2.9755e-06
5.65269e-06
9.93661e-06
4.7052e-06
2.9757e-06
9.93416e-06
4.71136e-06
2.97667e-06
5.65444e-06
9.94137e-06
4.711e-06
2.97687e-06
9.93893e-06
4.70458e-06
5.65161e-06
2.97518e-06
9.93378e-06
4.71038e-06
2.97657e-06
5.65339e-06
2.97638e-06
9.93858e-06
9.96812e-06
2.24081e-05
2.24074e-05
9.96776e-06
2.2402e-05
2.24013e-05
1.90992e-05
1.90986e-05
1.91015e-05
1.91009e-05
1.91071e-05
1.91077e-05
1.91104e-05
1.91109e-05
9.97163e-06
2.24188e-05
2.2418e-05
2.24127e-05
2.24119e-05
9.97123e-06
4.70566e-06
2.97593e-06
9.93688e-06
5.65359e-06
4.7061e-06
9.93866e-06
2.97571e-06
4.71145e-06
2.97708e-06
9.94196e-06
5.65539e-06
4.71187e-06
9.94374e-06
2.97686e-06
9.96956e-06
2.24071e-05
2.24064e-05
9.96995e-06
2.24133e-05
2.24125e-05
4.70668e-06
9.94133e-06
5.65467e-06
2.97597e-06
9.93961e-06
4.70623e-06
2.9762e-06
4.71245e-06
9.94641e-06
5.65642e-06
2.97712e-06
9.94469e-06
4.71202e-06
2.97734e-06
1.91175e-05
1.91208e-05
9.97288e-06
2.24182e-05
2.24174e-05
9.97329e-06
2.24243e-05
2.24235e-05
4.70677e-06
9.9423e-06
2.97644e-06
5.65552e-06
4.70724e-06
9.944e-06
2.97621e-06
4.71257e-06
9.94738e-06
2.97759e-06
5.65732e-06
4.71301e-06
9.94909e-06
2.97736e-06
1.26708e-05
4.24112e-06
1.12605e-05
4.88707e-06
1.12584e-05
4.88715e-06
1.26731e-05
2.27889e-05
7.24781e-06
9.57456e-06
2.27822e-05
7.2476e-06
1.26695e-05
4.2405e-06
1.12551e-05
4.88653e-06
1.12573e-05
1.26671e-05
4.88646e-06
2.27883e-05
7.24877e-06
9.57554e-06
7.24899e-06
2.2795e-05
1.26764e-05
1.12614e-05
4.88788e-06
4.24161e-06
1.26741e-05
1.12642e-05
4.88777e-06
2.28007e-05
7.25147e-06
9.5797e-06
2.2794e-05
7.25121e-06
1.26767e-05
1.12617e-05
4.88776e-06
4.24155e-06
1.26743e-05
1.12638e-05
4.88767e-06
2.2801e-05
7.25016e-06
9.57989e-06
2.27944e-05
7.24992e-06
9.97165e-06
2.24184e-05
2.24191e-05
2.24123e-05
2.2413e-05
9.97123e-06
4.71155e-06
2.97702e-06
9.94159e-06
5.65505e-06
9.94337e-06
4.71192e-06
2.97681e-06
4.70571e-06
2.976e-06
9.93712e-06
5.65386e-06
2.97577e-06
4.70613e-06
9.93947e-06
9.9696e-06
2.24068e-05
2.24076e-05
2.24129e-05
9.97001e-06
2.24136e-05
4.7125e-06
9.94604e-06
5.65623e-06
2.97707e-06
9.94432e-06
2.97729e-06
4.71211e-06
4.70671e-06
9.94215e-06
5.65488e-06
2.97603e-06
2.97627e-06
9.93976e-06
4.70629e-06
1.91084e-05
1.9109e-05
1.91199e-05
9.97287e-06
2.24178e-05
2.24185e-05
9.97328e-06
2.24238e-05
2.24245e-05
4.71265e-06
9.94701e-06
2.97754e-06
5.65699e-06
2.97731e-06
4.71306e-06
9.94872e-06
4.70684e-06
9.94244e-06
2.97651e-06
5.65575e-06
4.70727e-06
9.9448e-06
2.97627e-06
1.91189e-05
1.26708e-05
4.24117e-06
1.12606e-05
4.88702e-06
1.12586e-05
4.88711e-06
1.26731e-05
2.27882e-05
7.24754e-06
9.57555e-06
2.27815e-05
7.2473e-06
1.26696e-05
4.24057e-06
1.12553e-05
4.88649e-06
1.12574e-05
1.26671e-05
4.88641e-06
2.27876e-05
7.24847e-06
9.57616e-06
7.24872e-06
2.27943e-05
1.26764e-05
4.8879e-06
1.12619e-05
4.24168e-06
1.26741e-05
4.88777e-06
1.1264e-05
2.28004e-05
7.25148e-06
9.58124e-06
2.27937e-05
7.25122e-06
1.26767e-05
1.12618e-05
4.88771e-06
4.24161e-06
1.26743e-05
1.12639e-05
4.88761e-06
2.28003e-05
7.24988e-06
9.58087e-06
2.27936e-05
7.24963e-06
1.26701e-05
4.24139e-06
4.88714e-06
1.12606e-05
4.88742e-06
1.12586e-05
1.26725e-05
2.27874e-05
7.24899e-06
9.57517e-06
7.24855e-06
2.27804e-05
1.2669e-05
4.24071e-06
4.88681e-06
1.12552e-05
4.88652e-06
1.26664e-05
1.12574e-05
2.27865e-05
7.24971e-06
9.57614e-06
7.25016e-06
2.27935e-05
1.26706e-05
4.24122e-06
1.12605e-05
4.88697e-06
1.12584e-05
4.8871e-06
1.2673e-05
2.27882e-05
7.24732e-06
9.5752e-06
2.27814e-05
7.24707e-06
1.26694e-05
4.2406e-06
1.12551e-05
4.88648e-06
1.26669e-05
1.12572e-05
4.88636e-06
2.27875e-05
7.24824e-06
9.57581e-06
7.24849e-06
2.27942e-05
1.26763e-05
4.88802e-06
1.12618e-05
4.24176e-06
1.26736e-05
4.88774e-06
1.12639e-05
2.27995e-05
7.25131e-06
9.5805e-06
2.27925e-05
7.25085e-06
1.26765e-05
1.12617e-05
4.8877e-06
4.24165e-06
1.26742e-05
1.12638e-05
4.88757e-06
2.28002e-05
7.24965e-06
9.58052e-06
2.27936e-05
7.24939e-06
9.97115e-06
2.24178e-05
2.24183e-05
2.24118e-05
2.24122e-05
9.97074e-06
4.71149e-06
2.97707e-06
9.94156e-06
5.65522e-06
9.94333e-06
4.71188e-06
2.97689e-06
4.70557e-06
2.97596e-06
9.93656e-06
5.65375e-06
2.97575e-06
4.70596e-06
9.93894e-06
9.96907e-06
2.24062e-05
2.24066e-05
2.24123e-05
9.96947e-06
2.24127e-05
4.71246e-06
9.94601e-06
5.65624e-06
2.97716e-06
9.94428e-06
2.97734e-06
4.71206e-06
4.70654e-06
9.94163e-06
5.65481e-06
2.97601e-06
2.97623e-06
9.93927e-06
4.70613e-06
1.91083e-05
1.91089e-05
1.91212e-05
9.97239e-06
2.24173e-05
2.24177e-05
9.97281e-06
2.24233e-05
2.24237e-05
4.7126e-06
9.94697e-06
2.97758e-06
5.65714e-06
2.9774e-06
4.71301e-06
9.94868e-06
4.70668e-06
9.94195e-06
2.97648e-06
5.65571e-06
4.70709e-06
9.94429e-06
2.97625e-06
1.91187e-05
1.26703e-05
4.24138e-06
4.88718e-06
1.12607e-05
4.88726e-06
1.12583e-05
1.26727e-05
2.27875e-05
7.24875e-06
9.57532e-06
7.24851e-06
2.27808e-05
1.26691e-05
4.24071e-06
4.88665e-06
1.12551e-05
4.88657e-06
1.26667e-05
1.12573e-05
2.27869e-05
7.24968e-06
9.57628e-06
7.24992e-06
2.27936e-05
1.26706e-05
4.2414e-06
4.88706e-06
1.12603e-05
4.88724e-06
1.12583e-05
1.2673e-05
2.2789e-05
7.24779e-06
9.57591e-06
2.27823e-05
7.24753e-06
1.26695e-05
4.24067e-06
4.88662e-06
1.1255e-05
1.2667e-05
4.88644e-06
1.12571e-05
2.27884e-05
7.2487e-06
9.57652e-06
7.24897e-06
2.27951e-05
1.26762e-05
4.88787e-06
1.12614e-05
4.24176e-06
1.26739e-05
4.88778e-06
1.12641e-05
2.27996e-05
7.25108e-06
9.58063e-06
2.2793e-05
7.25083e-06
1.26766e-05
4.88784e-06
1.12615e-05
4.24172e-06
1.26741e-05
4.88766e-06
1.12636e-05
2.28011e-05
7.25013e-06
9.58124e-06
2.27944e-05
7.24986e-06
1.91092e-05
1.91098e-05
1.91115e-05
1.91121e-05
9.97279e-06
2.24186e-05
2.24179e-05
9.97318e-06
2.24247e-05
2.24239e-05
4.70691e-06
9.94228e-06
2.97651e-06
5.65558e-06
4.70733e-06
2.97628e-06
9.94461e-06
4.71269e-06
9.94706e-06
2.97768e-06
5.65733e-06
4.71308e-06
2.97746e-06
9.94937e-06
1.91197e-05
1.9122e-05
6.59442e-07
4.50825e-07
4.55969e-07
4.55902e-07
6.64842e-07
4.57573e-07
4.57511e-07
2.50594e-07
2.48786e-07
2.82923e-06
1.96982e-06
1.97005e-06
1.41906e-06
2.82957e-06
1.96909e-06
1.96931e-06
2.82928e-06
1.41996e-06
1.96882e-06
1.96902e-06
1.96955e-06
1.96977e-06
2.82893e-06
2.82932e-06
1.41985e-06
1.96891e-06
1.96884e-06
1.96964e-06
1.96957e-06
2.82896e-06
2.82927e-06
1.41999e-06
1.96898e-06
1.96888e-06
1.96971e-06
1.96961e-06
2.82893e-06
2.82935e-06
1.41998e-06
1.96884e-06
1.96907e-06
2.82901e-06
1.96957e-06
1.9698e-06
2.82915e-06
1.9698e-06
1.97001e-06
1.41897e-06
2.8295e-06
1.96906e-06
1.96927e-06
2.82918e-06
1.9699e-06
1.96983e-06
1.41893e-06
1.96909e-06
2.82953e-06
1.96916e-06
2.82915e-06
1.96996e-06
1.96986e-06
1.41906e-06
1.96912e-06
2.82949e-06
1.96923e-06
6.59556e-07
4.50956e-07
6.60856e-07
4.54307e-07
4.54237e-07
4.52632e-07
4.52557e-07
2.45105e-07
2.46947e-07
6.60857e-07
4.54297e-07
4.54279e-07
4.52622e-07
4.52599e-07
2.45113e-07
2.46956e-07
6.60977e-07
4.54376e-07
4.54367e-07
4.52693e-07
4.52693e-07
2.45178e-07
2.47019e-07
6.60964e-07
4.5441e-07
4.54348e-07
4.52719e-07
4.52678e-07
2.45192e-07
2.47033e-07
3.64764e-06
2.22352e-06
2.22405e-06
4.55957e-07
4.55936e-07
6.64832e-07
4.57561e-07
4.57547e-07
2.50603e-07
2.48794e-07
4.56041e-07
4.56027e-07
6.6497e-07
4.5765e-07
4.57635e-07
2.50667e-07
2.48859e-07
4.56064e-07
4.5601e-07
6.6494e-07
4.57676e-07
4.57614e-07
2.50679e-07
2.48872e-07
6.66113e-07
4.59168e-07
4.59108e-07
2.524e-07
6.66102e-07
4.59156e-07
4.59134e-07
2.52408e-07
6.66238e-07
4.59247e-07
4.59228e-07
2.52473e-07
6.66211e-07
4.59265e-07
4.59211e-07
2.52484e-07
1.66782e-06
2.29684e-06
2.54193e-06
1.54501e-06
2.54231e-06
1.54615e-06
1.66563e-06
1.84465e-06
2.22474e-06
3.02427e-06
3.64907e-06
1.84652e-06
2.22415e-06
3.02382e-06
1.66537e-06
2.29638e-06
2.54205e-06
1.54576e-06
1.66741e-06
2.54167e-06
1.54471e-06
1.84691e-06
3.02414e-06
3.64982e-06
2.22433e-06
2.22492e-06
3.02459e-06
1.84495e-06
1.66776e-06
2.29682e-06
1.54519e-06
2.54208e-06
1.54607e-06
2.54225e-06
1.66621e-06
1.84507e-06
2.22474e-06
3.02424e-06
3.64906e-06
1.84616e-06
2.22418e-06
3.02388e-06
1.6656e-06
2.2964e-06
1.54573e-06
2.542e-06
1.66763e-06
1.5448e-06
2.54178e-06
1.84643e-06
3.02421e-06
3.6498e-06
2.22435e-06
2.22493e-06
3.02456e-06
1.84537e-06
2.82978e-06
1.42111e-06
1.96931e-06
1.96953e-06
1.97005e-06
1.97028e-06
2.82943e-06
2.82877e-06
1.41873e-06
1.96827e-06
1.96847e-06
2.82844e-06
1.96899e-06
1.9692e-06
2.8287e-06
1.41781e-06
1.96928e-06
1.9695e-06
2.82904e-06
1.96855e-06
1.96876e-06
1.84497e-06
3.0228e-06
3.64745e-06
2.22345e-06
3.02317e-06
2.22399e-06
1.84398e-06
1.66521e-06
2.54145e-06
1.54484e-06
2.29576e-06
1.66648e-06
2.5412e-06
1.54393e-06
1.84577e-06
2.22391e-06
3.64857e-06
3.02354e-06
2.22446e-06
3.02392e-06
1.84475e-06
1.84439e-06
3.02355e-06
2.22423e-06
3.6478e-06
2.22369e-06
1.84542e-06
3.02317e-06
1.66682e-06
2.29623e-06
2.54149e-06
1.54436e-06
2.54172e-06
1.54526e-06
1.66555e-06
1.66514e-06
2.54129e-06
1.54479e-06
2.2957e-06
1.66638e-06
2.54107e-06
1.54388e-06
1.84572e-06
2.22412e-06
3.649e-06
3.02325e-06
3.02362e-06
2.22468e-06
1.84462e-06
1.84429e-06
3.02326e-06
2.22445e-06
3.64818e-06
1.84534e-06
3.02288e-06
2.22389e-06
1.66666e-06
2.29618e-06
2.54134e-06
1.5443e-06
2.54156e-06
1.5452e-06
1.66543e-06
1.41771e-06
1.96939e-06
1.96864e-06
1.66663e-06
2.29567e-06
2.54093e-06
1.54348e-06
2.54118e-06
1.5445e-06
1.66434e-06
1.84555e-06
3.02287e-06
3.648e-06
2.22378e-06
3.02331e-06
2.22431e-06
1.84352e-06
1.66629e-06
2.29561e-06
1.5435e-06
2.54079e-06
1.54445e-06
2.541e-06
1.66464e-06
1.84496e-06
3.02252e-06
3.64793e-06
2.22373e-06
3.02287e-06
1.84383e-06
2.22426e-06
1.66479e-06
2.54148e-06
1.54495e-06
2.29581e-06
1.66702e-06
2.54122e-06
1.54394e-06
1.84626e-06
2.22423e-06
3.64912e-06
3.02362e-06
2.2248e-06
3.02407e-06
1.84435e-06
1.84399e-06
3.02371e-06
2.22457e-06
3.64837e-06
2.22402e-06
1.84599e-06
3.02327e-06
1.66732e-06
2.29628e-06
2.54148e-06
1.54433e-06
2.54176e-06
1.54535e-06
1.66511e-06
1.66513e-06
1.54487e-06
2.54128e-06
2.29576e-06
1.66641e-06
1.54394e-06
2.54107e-06
1.84568e-06
2.22421e-06
3.64904e-06
3.02326e-06
3.0236e-06
2.22475e-06
1.84458e-06
1.84424e-06
3.02324e-06
2.22452e-06
3.64829e-06
1.84528e-06
3.02289e-06
2.22398e-06
1.66662e-06
2.2962e-06
1.54435e-06
2.54134e-06
1.54526e-06
2.54156e-06
1.66542e-06
1.84616e-06
2.22397e-06
3.64878e-06
3.02349e-06
1.84439e-06
2.22453e-06
3.02392e-06
1.66719e-06
2.29631e-06
2.54145e-06
1.54434e-06
1.66517e-06
2.54172e-06
1.54538e-06
1.84611e-06
2.22391e-06
3.64864e-06
3.02309e-06
3.02354e-06
2.22446e-06
1.84429e-06
1.66717e-06
2.29627e-06
1.54432e-06
2.54134e-06
1.54536e-06
2.54161e-06
1.66507e-06
2.82875e-06
1.41875e-06
1.96842e-06
1.96832e-06
1.96904e-06
1.96914e-06
2.82843e-06
2.82869e-06
1.41789e-06
1.96944e-06
1.96933e-06
1.96871e-06
2.82902e-06
1.96861e-06
1.66484e-06
1.54496e-06
2.54148e-06
2.29585e-06
1.66698e-06
1.54403e-06
2.54125e-06
1.84588e-06
2.22399e-06
3.64876e-06
3.02355e-06
1.84481e-06
2.22454e-06
3.0239e-06
1.84445e-06
3.02355e-06
2.2243e-06
3.648e-06
1.84568e-06
2.22376e-06
3.0232e-06
1.66745e-06
2.29629e-06
1.54443e-06
2.54152e-06
1.66518e-06
1.54536e-06
2.54176e-06
1.6651e-06
1.54484e-06
2.5413e-06
2.29577e-06
1.66639e-06
1.54397e-06
2.54105e-06
1.84566e-06
2.22425e-06
3.64914e-06
3.02331e-06
3.02367e-06
2.2248e-06
1.84462e-06
1.84428e-06
3.0233e-06
2.22457e-06
3.64839e-06
1.84529e-06
3.02293e-06
2.22403e-06
1.6666e-06
2.29621e-06
1.54437e-06
2.54135e-06
1.54525e-06
2.54158e-06
1.66541e-06
2.82878e-06
1.41789e-06
1.96953e-06
1.96857e-06
1.96881e-06
2.82971e-06
1.42106e-06
1.96928e-06
1.96949e-06
2.82935e-06
1.97002e-06
1.97024e-06
2.82953e-06
1.42003e-06
1.97022e-06
1.97044e-06
2.82989e-06
1.96948e-06
1.96968e-06
1.66735e-06
2.29677e-06
2.54205e-06
1.54507e-06
2.54223e-06
1.54599e-06
1.66609e-06
1.84506e-06
2.22467e-06
3.02427e-06
3.64886e-06
3.02388e-06
1.8461e-06
2.22411e-06
1.66583e-06
2.29632e-06
2.54198e-06
1.54564e-06
2.54176e-06
1.6671e-06
1.54472e-06
1.8464e-06
3.0242e-06
3.64961e-06
2.22428e-06
3.0246e-06
2.22486e-06
1.84536e-06
1.66726e-06
2.29671e-06
2.54188e-06
1.54501e-06
2.54206e-06
1.54593e-06
1.66598e-06
1.84491e-06
2.22489e-06
3.02396e-06
3.64925e-06
1.84604e-06
3.02359e-06
2.22431e-06
1.6657e-06
2.29627e-06
2.54182e-06
1.54558e-06
1.66699e-06
2.54162e-06
1.54467e-06
1.84635e-06
3.02392e-06
3.65003e-06
2.22449e-06
3.02429e-06
1.84526e-06
2.22508e-06
1.66629e-06
2.54242e-06
1.54631e-06
2.2968e-06
1.6676e-06
2.54224e-06
1.54539e-06
1.84565e-06
3.0249e-06
2.22502e-06
3.64985e-06
2.22443e-06
1.84671e-06
3.0245e-06
1.66617e-06
2.54227e-06
1.54626e-06
2.29674e-06
1.6675e-06
2.5421e-06
1.54534e-06
1.84553e-06
3.0246e-06
2.22524e-06
3.65023e-06
1.84663e-06
3.02422e-06
2.22464e-06
2.82974e-06
1.421e-06
1.96938e-06
1.96931e-06
1.97006e-06
1.97013e-06
2.82938e-06
2.82955e-06
1.41999e-06
1.97033e-06
1.97026e-06
1.96958e-06
2.82993e-06
1.96951e-06
1.66784e-06
2.29681e-06
2.54195e-06
1.54502e-06
2.54237e-06
1.5461e-06
1.66563e-06
1.84457e-06
2.225e-06
3.02441e-06
3.64943e-06
3.02396e-06
1.84657e-06
2.22443e-06
1.66537e-06
2.29636e-06
2.54203e-06
1.54573e-06
2.54172e-06
1.66756e-06
1.5447e-06
1.84696e-06
3.02427e-06
3.65016e-06
2.2246e-06
3.02473e-06
2.22519e-06
1.84497e-06
1.66725e-06
2.29672e-06
1.54508e-06
2.54187e-06
1.54598e-06
2.54205e-06
1.66599e-06
1.84491e-06
2.22496e-06
3.02394e-06
3.64935e-06
1.84602e-06
3.02359e-06
2.2244e-06
1.6657e-06
2.29631e-06
1.54563e-06
2.54182e-06
1.66696e-06
1.54472e-06
2.5416e-06
1.84635e-06
3.02392e-06
3.65009e-06
2.22458e-06
3.02427e-06
1.84528e-06
2.22514e-06
1.66583e-06
2.54255e-06
1.54645e-06
2.29684e-06
1.66805e-06
2.54212e-06
1.5453e-06
1.84524e-06
3.02504e-06
2.22534e-06
3.65042e-06
2.22475e-06
1.84718e-06
3.02457e-06
1.6662e-06
1.5463e-06
2.54227e-06
2.29678e-06
1.66749e-06
1.54542e-06
2.5421e-06
1.84555e-06
3.02458e-06
2.2253e-06
3.65034e-06
1.84663e-06
3.02421e-06
2.22473e-06
1.66771e-06
2.2968e-06
1.545e-06
2.5418e-06
1.54612e-06
2.54221e-06
1.66556e-06
1.84447e-06
2.22467e-06
3.02389e-06
3.64895e-06
2.22411e-06
1.84641e-06
3.02344e-06
1.66523e-06
2.29635e-06
1.54575e-06
2.54189e-06
1.5447e-06
1.6674e-06
2.54158e-06
1.84678e-06
3.02376e-06
3.6497e-06
2.22428e-06
2.22486e-06
3.02421e-06
1.84486e-06
1.66576e-06
2.54253e-06
1.54654e-06
2.29685e-06
1.66803e-06
2.54207e-06
1.54527e-06
1.84519e-06
3.0249e-06
2.22508e-06
3.65004e-06
1.84716e-06
2.22448e-06
3.02443e-06
1.66574e-06
1.54649e-06
2.54241e-06
2.29683e-06
1.66794e-06
1.54528e-06
2.54198e-06
1.84513e-06
3.02451e-06
2.22502e-06
3.64994e-06
1.84702e-06
3.02406e-06
2.22443e-06
2.8297e-06
1.42111e-06
1.96945e-06
1.96934e-06
1.97009e-06
1.97019e-06
2.82935e-06
2.82953e-06
1.42009e-06
1.97039e-06
1.97029e-06
1.96964e-06
2.82988e-06
1.96954e-06
1.66725e-06
2.29674e-06
1.54512e-06
2.54191e-06
1.54598e-06
2.54209e-06
1.66599e-06
1.84494e-06
2.22501e-06
3.02401e-06
3.64945e-06
2.22445e-06
1.84596e-06
3.02364e-06
1.66571e-06
2.29633e-06
1.54563e-06
2.54183e-06
1.54475e-06
1.66697e-06
2.54161e-06
1.84627e-06
3.02396e-06
3.65019e-06
2.22462e-06
2.22519e-06
3.02434e-06
1.84525e-06
1.66635e-06
1.54638e-06
2.54244e-06
2.29687e-06
1.66766e-06
1.54554e-06
2.54227e-06
1.84566e-06
3.02486e-06
2.22509e-06
3.65004e-06
1.84673e-06
2.2245e-06
3.0245e-06
1.6662e-06
1.5463e-06
2.54227e-06
2.2968e-06
1.6675e-06
1.54547e-06
2.54209e-06
1.84554e-06
3.02465e-06
2.22536e-06
3.65044e-06
1.8466e-06
3.02426e-06
2.22477e-06
2.82961e-06
1.42011e-06
1.97025e-06
1.97048e-06
2.82997e-06
1.96951e-06
1.96973e-06
6.68522e-07
1.19042e-06
1.19054e-06
1.4226e-06
6.72916e-07
1.19192e-06
1.19204e-06
1.42421e-06
6.7676e-07
1.19295e-06
1.19308e-06
1.42543e-06
6.80076e-07
1.19353e-06
1.19366e-06
1.42625e-06
6.82884e-07
1.19367e-06
1.19379e-06
1.42671e-06
6.85209e-07
1.19344e-06
1.19356e-06
1.42682e-06
6.87073e-07
1.19281e-06
1.19293e-06
1.42685e-06
6.88498e-07
1.19183e-06
1.19195e-06
1.42631e-06
6.89506e-07
1.19051e-06
1.19062e-06
1.42544e-06
6.90119e-07
1.18887e-06
1.18897e-06
1.42427e-06
6.90364e-07
1.18694e-06
1.18704e-06
1.42284e-06
6.90281e-07
1.18474e-06
1.18485e-06
1.42115e-06
6.89912e-07
1.1823e-06
1.1824e-06
1.41917e-06
6.89254e-07
1.17963e-06
1.17973e-06
1.41687e-06
6.88329e-07
1.17675e-06
1.17686e-06
1.41448e-06
6.87167e-07
1.1737e-06
1.17382e-06
1.41194e-06
6.85786e-07
1.1705e-06
1.17063e-06
1.40924e-06
6.84192e-07
1.16718e-06
1.16729e-06
1.40638e-06
6.81246e-07
1.16249e-06
1.16259e-06
1.40282e-06
7.37725e-07
1.07615e-06
1.07623e-06
1.35163e-06
1.42051e-06
1.19007e-06
1.18996e-06
1.42047e-06
1.1899e-06
1.19008e-06
1.18996e-06
1.1901e-06
1.42058e-06
1.19007e-06
1.18994e-06
1.4206e-06
1.42254e-06
1.4222e-06
1.19054e-06
1.19043e-06
1.19169e-06
1.19158e-06
1.42249e-06
1.42217e-06
1.19036e-06
1.19054e-06
1.19152e-06
1.1917e-06
1.19057e-06
1.19158e-06
1.19172e-06
1.4226e-06
1.42228e-06
1.19041e-06
1.19169e-06
1.19156e-06
1.42229e-06
1.42415e-06
1.42341e-06
1.19204e-06
1.19193e-06
1.19284e-06
1.19273e-06
1.42411e-06
1.42355e-06
1.19187e-06
1.19205e-06
1.19267e-06
1.19285e-06
1.19207e-06
1.19272e-06
1.19286e-06
1.42423e-06
1.42349e-06
1.19191e-06
1.19284e-06
1.19271e-06
1.42367e-06
1.42554e-06
1.42424e-06
1.19307e-06
1.19296e-06
1.19353e-06
1.19342e-06
1.42532e-06
1.42449e-06
1.1929e-06
1.19309e-06
1.19336e-06
1.19355e-06
1.1931e-06
1.19341e-06
1.19356e-06
1.42563e-06
1.42432e-06
1.19294e-06
1.19353e-06
1.1934e-06
1.4246e-06
1.42646e-06
1.42475e-06
1.19365e-06
1.19354e-06
1.1938e-06
1.19369e-06
1.42615e-06
1.425e-06
1.19348e-06
1.19367e-06
1.19363e-06
1.19381e-06
1.19368e-06
1.19368e-06
1.19382e-06
1.42655e-06
1.42483e-06
1.19352e-06
1.1938e-06
1.19367e-06
1.4251e-06
1.42693e-06
1.4249e-06
1.19379e-06
1.19368e-06
1.19363e-06
1.19352e-06
1.42662e-06
1.42515e-06
1.19362e-06
1.19381e-06
1.19346e-06
1.19364e-06
1.19382e-06
1.19351e-06
1.19365e-06
1.42701e-06
1.42497e-06
1.19367e-06
1.19363e-06
1.1935e-06
1.42524e-06
1.42703e-06
1.4247e-06
1.19356e-06
1.19345e-06
1.19307e-06
1.19296e-06
1.42672e-06
1.42495e-06
1.19339e-06
1.19358e-06
1.1929e-06
1.19309e-06
1.19358e-06
1.19295e-06
1.19309e-06
1.42711e-06
1.42477e-06
1.19343e-06
1.19307e-06
1.19294e-06
1.42474e-06
1.42679e-06
1.42417e-06
1.19294e-06
1.19283e-06
1.19214e-06
1.19204e-06
1.42648e-06
1.42442e-06
1.19277e-06
1.19295e-06
1.19198e-06
1.19216e-06
1.19296e-06
1.19203e-06
1.19217e-06
1.42686e-06
1.42424e-06
1.19281e-06
1.19214e-06
1.19202e-06
1.42424e-06
1.42622e-06
1.42333e-06
1.19195e-06
1.19184e-06
1.19088e-06
1.19077e-06
1.42592e-06
1.42358e-06
1.19178e-06
1.19197e-06
1.19071e-06
1.19089e-06
1.19198e-06
1.19076e-06
1.19091e-06
1.42629e-06
1.4234e-06
1.19182e-06
1.19087e-06
1.19075e-06
1.42341e-06
1.42534e-06
1.42219e-06
1.19062e-06
1.19052e-06
1.18929e-06
1.18919e-06
1.42504e-06
1.42245e-06
1.19046e-06
1.19064e-06
1.18912e-06
1.18931e-06
1.19065e-06
1.18918e-06
1.18932e-06
1.42541e-06
1.42226e-06
1.1905e-06
1.18928e-06
1.18917e-06
1.42228e-06
1.42417e-06
1.42079e-06
1.18898e-06
1.18888e-06
1.18741e-06
1.18731e-06
1.42388e-06
1.42105e-06
1.18881e-06
1.189e-06
1.18724e-06
1.18742e-06
1.18901e-06
1.1873e-06
1.18744e-06
1.42424e-06
1.42086e-06
1.18886e-06
1.1874e-06
1.18729e-06
1.42088e-06
1.42274e-06
1.41914e-06
1.18705e-06
1.18695e-06
1.18525e-06
1.18515e-06
1.42245e-06
1.4194e-06
1.18688e-06
1.18706e-06
1.18508e-06
1.18526e-06
1.18708e-06
1.18514e-06
1.18528e-06
1.42281e-06
1.41921e-06
1.18693e-06
1.18524e-06
1.18513e-06
1.41922e-06
1.42103e-06
1.41733e-06
1.18485e-06
1.18476e-06
1.18283e-06
1.18274e-06
1.42078e-06
1.41746e-06
1.18469e-06
1.18487e-06
1.18267e-06
1.18285e-06
1.18489e-06
1.18272e-06
1.18287e-06
1.4211e-06
1.41739e-06
1.18474e-06
1.18282e-06
1.18272e-06
1.41733e-06
1.41897e-06
1.41523e-06
1.18241e-06