/*--------------------------------*- C++ -*----------------------------------*\
| =========                 |                                                 |
| \\      /  F ield         | OpenFOAM: The Open Source CFD Toolbox           |
|  \\    /   O peration     | Version:  2312                                  |
|   \\  /    A nd           | Website:  www.openfoam.com                      |
|    \\/     M anipulation  |                                                 |
\*---------------------------------------------------------------------------*/
FoamFile
{
    version     2.0;
    format      ascii;
    arch        "LSB;label=32;scalar=64";
    class       volScalarField;
    location    "150";
    object      k;
}
// * * * * * * * * * * * * * * * * * * * * * * * * * * * * * * * * * * * * * //

dimensions      [0 2 -2 0 0 0 0];

internalField   nonuniform List<scalar> 
43496
(
5.99944e-05
6.8755e-05
2.18782e-05
5.37589e-05
4.23015e-05
1.64909e-05
5.99989e-05
7.00309e-05
4.23914e-05
2.18841e-05
1.6521e-05
5.38076e-05
2.77105e-05
6.31985e-05
6.31662e-05
6.87447e-05
7.00223e-05
6.93336e-05
5.99995e-05
6.43441e-05
6.89323e-05
6.43337e-05
6.89286e-05
6.93387e-05
6.97883e-05
7.55718e-05
7.55694e-05
6.98007e-05
6.87472e-05
6.93582e-05
5.99999e-05
6.89508e-05
6.43451e-05
6.89475e-05
6.43366e-05
6.93627e-05
6.97958e-05
7.55345e-05
7.00285e-05
7.55303e-05
6.98088e-05
8.97216e-05
7.14872e-05
7.14924e-05
7.14756e-05
7.14808e-05
8.9715e-05
6.42705e-05
6.94042e-05
6.32091e-05
5.03615e-05
6.94017e-05
5.03696e-05
6.4254e-05
6.41883e-05
6.93869e-05
6.31714e-05
5.03191e-05
5.03636e-05
6.93847e-05
6.41684e-05
6.8737e-05
7.00204e-05
1.15751e-05
1.34212e-05
1.15807e-05
5.37544e-05
4.10817e-05
4.10932e-05
3.11264e-05
4.22955e-05
4.56116e-05
2.86092e-05
4.5637e-05
2.86316e-05
3.10917e-05
3.50372e-05
5.03506e-05
5.03483e-05
3.50098e-05
3.11965e-05
4.24195e-05
2.86873e-05
4.56855e-05
2.87109e-05
4.56794e-05
3.1162e-05
3.50623e-05
5.03396e-05
5.3785e-05
4.11042e-05
5.03183e-05
3.50348e-05
4.11147e-05
5.01295e-05
2.78176e-05
3.8126e-05
3.81156e-05
3.81318e-05
3.81414e-05
5.01237e-05
1.34177e-05
2.19314e-05
2.18781e-05
2.78596e-05
1.34196e-05
2.19255e-05
2.18779e-05
2.78732e-05
2.78432e-05
2.78156e-05
2.18953e-05
2.1913e-05
2.19016e-05
2.19127e-05
2.78423e-05
2.78179e-05
2.18558e-05
2.18808e-05
2.18615e-05
2.18818e-05
2.18841e-05
2.19299e-05
2.18893e-05
2.78578e-05
2.77623e-05
2.18672e-05
2.18777e-05
2.18692e-05
2.78244e-05
2.78643e-05
2.19048e-05
2.19108e-05
2.78628e-05
2.18629e-05
2.18838e-05
2.18919e-05
2.78098e-05
2.18698e-05
6.01192e-05
7.00605e-05
7.00617e-05
6.01045e-05
6.87396e-05
6.87484e-05
5.99652e-05
7.00231e-05
7.00259e-05
5.99708e-05
1.34411e-05
1.3421e-05
1.34174e-05
1.34195e-05
1.34409e-05
1.34211e-05
1.3418e-05
4.22086e-05
5.37966e-05
1.65547e-05
2.19317e-05
5.38003e-05
1.65544e-05
4.22708e-05
6.87405e-05
6.87502e-05
4.21926e-05
1.65025e-05
5.37519e-05
2.18779e-05
1.65022e-05
5.37573e-05
4.22173e-05
6.31849e-05
6.31626e-05
2.78233e-05
6.31825e-05
6.31661e-05
7.0058e-05
6.00865e-05
6.87412e-05
7.00272e-05
5.99936e-05
1.34406e-05
1.34212e-05
1.34189e-05
4.22254e-05
5.37899e-05
1.65518e-05
4.22041e-05
1.65518e-05
6.87463e-05
4.21585e-05
1.64985e-05
5.37707e-05
4.21563e-05
1.64987e-05
6.32031e-05
6.31774e-05
2.78251e-05
6.31893e-05
6.31711e-05
6.87441e-05
6.87523e-05
6.87364e-05
6.87453e-05
6.32076e-05
6.31843e-05
2.78075e-05
6.31966e-05
6.31869e-05
6.87526e-05
6.87446e-05
6.87472e-05
6.87385e-05
2.78554e-05
6.31959e-05
6.31867e-05
6.31917e-05
6.3193e-05
6.00777e-05
7.00299e-05
7.00327e-05
6.00654e-05
4.26841e-05
5.38268e-05
1.66178e-05
2.18986e-05
5.38308e-05
1.66216e-05
4.26264e-05
4.26174e-05
5.38416e-05
1.65976e-05
2.19129e-05
5.38266e-05
1.65988e-05
4.26253e-05
6.01189e-05
7.00601e-05
7.00597e-05
6.01137e-05
6.00789e-05
7.00327e-05
7.00312e-05
6.00795e-05
4.26674e-05
2.19001e-05
5.37879e-05
1.66229e-05
5.38133e-05
1.6622e-05
4.27055e-05
4.26014e-05
2.19127e-05
5.38181e-05
1.66003e-05
5.38297e-05
1.65996e-05
4.25892e-05
6.31988e-05
6.31756e-05
2.78077e-05
6.32143e-05
6.31784e-05
6.87495e-05
6.87574e-05
6.87489e-05
6.87406e-05
2.78524e-05
6.3215e-05
6.31666e-05
6.32161e-05
6.31815e-05
6.87578e-05
6.875e-05
4.22843e-05
5.3758e-05
1.64883e-05
2.18593e-05
5.37595e-05
1.64886e-05
4.22285e-05
6.00166e-05
7.00259e-05
7.00275e-05
6.00132e-05
4.23638e-05
1.65195e-05
5.37986e-05
2.1881e-05
1.65198e-05
5.38042e-05
4.23671e-05
5.99816e-05
7.00281e-05
7.00249e-05
5.99807e-05
4.22793e-05
2.18588e-05
5.37402e-05
1.64899e-05
5.37565e-05
1.64889e-05
4.22709e-05
6.0002e-05
7.00283e-05
7.00259e-05
6.00049e-05
4.24033e-05
2.1881e-05
1.65209e-05
5.38007e-05
1.65203e-05
5.37952e-05
4.24187e-05
5.98661e-05
7.0033e-05
7.00347e-05
5.98975e-05
4.23619e-05
1.65425e-05
5.3788e-05
2.18868e-05
1.65442e-05
5.38038e-05
4.23429e-05
5.99566e-05
7.00283e-05
7.00311e-05
5.99538e-05
4.22678e-05
2.193e-05
5.38047e-05
1.65529e-05
5.38015e-05
1.65539e-05
4.22574e-05
5.98644e-05
7.00348e-05
7.00332e-05
5.98832e-05
4.23624e-05
2.18881e-05
1.65452e-05
5.3801e-05
1.65446e-05
5.38102e-05
4.23538e-05
5.99544e-05
7.00323e-05
7.003e-05
5.99534e-05
6.31873e-05
6.31481e-05
2.77507e-05
6.31927e-05
6.31585e-05
6.87305e-05
6.87401e-05
6.87532e-05
6.87435e-05
2.77932e-05
6.32058e-05
6.31707e-05
6.3195e-05
6.31548e-05
6.87432e-05
6.87332e-05
4.22175e-05
1.64985e-05
5.37317e-05
2.18678e-05
1.64986e-05
5.3738e-05
4.22468e-05
5.98927e-05
7.0014e-05
7.00179e-05
5.98817e-05
5.98705e-05
7.00033e-05
7.00068e-05
5.98789e-05
4.21854e-05
2.18776e-05
1.65005e-05
5.37633e-05
1.65018e-05
5.37586e-05
4.21784e-05
4.2206e-05
2.18676e-05
1.6499e-05
5.37558e-05
1.6499e-05
5.37431e-05
4.22026e-05
5.98777e-05
7.00204e-05
7.0017e-05
5.98802e-05
5.98646e-05
7.00102e-05
7.00061e-05
5.98456e-05
6.87379e-05
6.87475e-05
6.87242e-05
6.87333e-05
2.78679e-05
6.32015e-05
6.31758e-05
6.31951e-05
6.31678e-05
6.87498e-05
6.87407e-05
6.87355e-05
6.87264e-05
6.87452e-05
6.87401e-05
6.31987e-05
6.31828e-05
7.00308e-05
6.00732e-05
5.37952e-05
1.66248e-05
4.27072e-05
5.38013e-05
1.66016e-05
4.26391e-05
6.32156e-05
6.31752e-05
6.87507e-05
5.37562e-05
1.649e-05
4.2285e-05
7.00274e-05
6.00057e-05
1.65207e-05
5.38034e-05
4.23976e-05
5.98943e-05
7.00332e-05
5.98865e-05
4.22962e-05
1.6546e-05
5.37806e-05
2.18898e-05
4.2311e-05
1.65479e-05
5.38074e-05
5.99426e-05
7.00306e-05
5.99486e-05
7.00324e-05
6.32082e-05
6.31643e-05
6.87362e-05
4.22379e-05
1.64963e-05
5.3761e-05
2.1872e-05
4.21762e-05
1.64998e-05
5.37504e-05
5.98818e-05
7.00194e-05
5.98808e-05
5.98651e-05
7.00093e-05
5.985e-05
7.0012e-05
6.87427e-05
6.87505e-05
6.87284e-05
6.87365e-05
6.94267e-05
6.90256e-05
6.44596e-05
6.01144e-05
6.90221e-05
6.44529e-05
6.94309e-05
6.98552e-05
7.0062e-05
7.56079e-05
7.56103e-05
6.98429e-05
6.9843e-05
7.56108e-05
7.00602e-05
7.56083e-05
6.98552e-05
6.94301e-05
6.01124e-05
6.90202e-05
6.44492e-05
6.90239e-05
6.44461e-05
6.9426e-05
6.87478e-05
6.87402e-05
6.93258e-05
6.43524e-05
6.89217e-05
5.99669e-05
6.43504e-05
6.89178e-05
6.93306e-05
6.97935e-05
7.00249e-05
7.55539e-05
7.55534e-05
6.97806e-05
6.97822e-05
7.55604e-05
7.00238e-05
7.55539e-05
6.97955e-05
6.93289e-05
5.99717e-05
6.4353e-05
6.89158e-05
6.43544e-05
6.89194e-05
6.93243e-05
6.87486e-05
6.87419e-05
8.97323e-05
7.14864e-05
7.14768e-05
7.1475e-05
7.14655e-05
8.97253e-05
6.42189e-05
5.03438e-05
6.31849e-05
6.9384e-05
5.03254e-05
6.9387e-05
6.42265e-05
6.42705e-05
5.03292e-05
6.3161e-05
6.93873e-05
5.03196e-05
6.93898e-05
6.42829e-05
6.42096e-05
6.93881e-05
6.31872e-05
5.03448e-05
5.03735e-05
6.93849e-05
6.42297e-05
6.42918e-05
6.93903e-05
6.31576e-05
5.03219e-05
5.02953e-05
6.93875e-05
6.42848e-05
8.97307e-05
7.14745e-05
7.14652e-05
7.14863e-05
7.14768e-05
8.97318e-05
6.98513e-05
7.55979e-05
7.00589e-05
6.98402e-05
7.55971e-05
6.94268e-05
6.00858e-05
6.90229e-05
6.44243e-05
6.94244e-05
6.90245e-05
6.44227e-05
6.8749e-05
6.98002e-05
7.55678e-05
7.00293e-05
6.97874e-05
7.55712e-05
6.93363e-05
5.99978e-05
6.4325e-05
6.89259e-05
6.93311e-05
6.43433e-05
6.893e-05
6.87543e-05
8.97013e-05
7.14814e-05
7.14717e-05
7.14702e-05
7.14606e-05
8.96996e-05
6.41698e-05
5.02991e-05
6.93846e-05
6.32012e-05
6.4196e-05
5.02995e-05
6.93865e-05
6.42464e-05
5.03413e-05
6.93857e-05
6.31706e-05
6.42484e-05
5.0344e-05
6.93874e-05
8.97009e-05
7.14712e-05
7.14616e-05
8.9704e-05
7.14821e-05
7.14725e-05
6.41771e-05
6.93854e-05
6.32014e-05
5.02736e-05
5.02946e-05
6.93834e-05
6.41697e-05
6.42472e-05
6.93861e-05
6.31827e-05
5.02968e-05
5.03276e-05
6.93842e-05
6.42461e-05
6.8752e-05
6.87447e-05
6.87442e-05
6.87372e-05
8.97026e-05
7.14862e-05
7.14814e-05
7.14746e-05
7.14697e-05
8.96988e-05
6.4182e-05
5.03425e-05
6.32063e-05
6.93873e-05
6.939e-05
5.03011e-05
6.41968e-05
6.42587e-05
5.03651e-05
6.3178e-05
6.93953e-05
6.93983e-05
5.03653e-05
6.42399e-05
6.42046e-05
6.93905e-05
6.32069e-05
5.03391e-05
6.93878e-05
6.42085e-05
5.03303e-05
6.42651e-05
6.93996e-05
6.31874e-05
5.03756e-05
6.93964e-05
6.42604e-05
5.03792e-05
8.96995e-05
7.14748e-05
7.14696e-05
7.14862e-05
7.14811e-05
8.97098e-05
6.87447e-05
6.87522e-05
6.87394e-05
6.87464e-05
8.97047e-05
7.14749e-05
7.14702e-05
8.97053e-05
7.14867e-05
7.14822e-05
6.42042e-05
5.03417e-05
6.31906e-05
6.93899e-05
6.93874e-05
5.03461e-05
6.41838e-05
6.42644e-05
5.03447e-05
6.31903e-05
6.9402e-05
6.9399e-05
5.03723e-05
6.42588e-05
6.4203e-05
6.93878e-05
5.03282e-05
6.31839e-05
6.42127e-05
6.93902e-05
5.03296e-05
6.42514e-05
6.93978e-05
5.03556e-05
6.31845e-05
6.42671e-05
6.94009e-05
5.03862e-05
8.97084e-05
7.14874e-05
7.14832e-05
7.14755e-05
7.14711e-05
8.97108e-05
6.93933e-05
6.90137e-05
6.43851e-05
6.00683e-05
6.90103e-05
6.43825e-05
6.93974e-05
6.98183e-05
7.00321e-05
7.55211e-05
7.55252e-05
6.98054e-05
6.98067e-05
7.55268e-05
7.00309e-05
7.55237e-05
6.98191e-05
6.93967e-05
6.00695e-05
6.90091e-05
6.43825e-05
6.90124e-05
6.43886e-05
6.93922e-05
6.9431e-05
6.90235e-05
6.44571e-05
6.01217e-05
6.94272e-05
6.90266e-05
6.4459e-05
6.98419e-05
7.00591e-05
7.56044e-05
6.98534e-05
7.56048e-05
6.98547e-05
7.56085e-05
7.00611e-05
6.98428e-05
7.56105e-05
6.94265e-05
6.01139e-05
6.90264e-05
6.44487e-05
6.94297e-05
6.90239e-05
6.44495e-05
6.93975e-05
6.90116e-05
6.43701e-05
6.00819e-05
6.93936e-05
6.90147e-05
6.43766e-05
6.98071e-05
7.00313e-05
7.5527e-05
7.55247e-05
6.98192e-05
6.98193e-05
7.55247e-05
7.00329e-05
6.98071e-05
7.55275e-05
6.93936e-05
6.00759e-05
6.90152e-05
6.43653e-05
6.90123e-05
6.43624e-05
6.93975e-05
8.97209e-05
7.14818e-05
7.14949e-05
7.14702e-05
7.14831e-05
8.97187e-05
6.42587e-05
5.02867e-05
6.32073e-05
6.93942e-05
6.9397e-05
5.02663e-05
6.42537e-05
6.42158e-05
5.03948e-05
6.31716e-05
6.93973e-05
5.03921e-05
6.94e-05
6.42324e-05
6.42637e-05
6.93971e-05
6.32135e-05
5.03276e-05
6.93946e-05
5.03167e-05
6.42565e-05
6.4231e-05
6.94002e-05
6.3177e-05
5.03567e-05
5.03888e-05
6.93977e-05
6.42043e-05
8.97198e-05
7.147e-05
7.14828e-05
7.14817e-05
7.14946e-05
8.97214e-05
6.87571e-05
6.87497e-05
6.87409e-05
6.87486e-05
8.9717e-05
7.14702e-05
7.14833e-05
8.97195e-05
7.14816e-05
7.14951e-05
6.42366e-05
5.03342e-05
6.32164e-05
6.93955e-05
5.03341e-05
6.93934e-05
6.42207e-05
6.41861e-05
5.03524e-05
6.31741e-05
6.94e-05
6.93972e-05
5.03758e-05
6.42048e-05
6.42495e-05
6.93943e-05
5.03184e-05
6.32152e-05
5.02917e-05
6.42598e-05
6.93966e-05
6.41956e-05
6.93975e-05
5.03808e-05
6.31748e-05
6.42073e-05
6.94e-05
5.03847e-05
8.97175e-05
7.14814e-05
7.14952e-05
7.14699e-05
7.14834e-05
8.97154e-05
6.87501e-05
6.87576e-05
6.93553e-05
6.89454e-05
6.43759e-05
6.0014e-05
6.8942e-05
6.43741e-05
6.93595e-05
6.98023e-05
7.00274e-05
7.55287e-05
7.55295e-05
6.97901e-05
6.97903e-05
7.55275e-05
7.00258e-05
7.55262e-05
6.98027e-05
6.93588e-05
6.00151e-05
6.89409e-05
6.4377e-05
6.89441e-05
6.43782e-05
6.93547e-05
6.93323e-05
6.43443e-05
6.89204e-05
5.99891e-05
6.93275e-05
6.43459e-05
6.89245e-05
6.97861e-05
7.0026e-05
7.55693e-05
6.97991e-05
7.55654e-05
6.97975e-05
7.5561e-05
7.00269e-05
6.97843e-05
7.55658e-05
6.93292e-05
5.99889e-05
6.43351e-05
6.89272e-05
6.9334e-05
6.43301e-05
6.89232e-05
6.93603e-05
6.89433e-05
6.4372e-05
6.00022e-05
6.93561e-05
6.89465e-05
6.43732e-05
6.97921e-05
7.00262e-05
7.55228e-05
7.55222e-05
6.9805e-05
6.98035e-05
7.55211e-05
7.00274e-05
6.97908e-05
7.5524e-05
6.93567e-05
5.99885e-05
6.89479e-05
6.43439e-05
6.89444e-05
6.43576e-05
6.93607e-05
6.93502e-05
6.42914e-05
6.89404e-05
5.9863e-05
6.42885e-05
6.89385e-05
6.93542e-05
6.9808e-05
7.00346e-05
7.55261e-05
7.55275e-05
6.97951e-05
6.97951e-05
7.55272e-05
7.00329e-05
7.55258e-05
6.98079e-05
6.93543e-05
5.98708e-05
6.4279e-05
6.89405e-05
6.42879e-05
6.89423e-05
6.93501e-05
6.93572e-05
6.89549e-05
6.43319e-05
5.99551e-05
6.89524e-05
6.43304e-05
6.93609e-05
6.98107e-05
7.00302e-05
7.55384e-05
7.55399e-05
6.97984e-05
6.97986e-05
7.55381e-05
7.00289e-05
7.55366e-05
6.98109e-05
6.93613e-05
5.99562e-05
6.89524e-05
6.43287e-05
6.89552e-05
6.43339e-05
6.93576e-05
6.93538e-05
6.42897e-05
6.89369e-05
5.9859e-05
6.93499e-05
6.42922e-05
6.8939e-05
6.97949e-05
7.00331e-05
7.55263e-05
7.55252e-05
6.98078e-05
6.98078e-05
7.55256e-05
7.00346e-05
6.97949e-05
7.5527e-05
6.93495e-05
5.98737e-05
6.4294e-05
6.89389e-05
6.42908e-05
6.89361e-05
6.93534e-05
6.93605e-05
6.89521e-05
6.43255e-05
5.9955e-05
6.93569e-05
6.89546e-05
6.43246e-05
6.97991e-05
7.00306e-05
7.55359e-05
7.55339e-05
6.98114e-05
6.98111e-05
7.55348e-05
7.00318e-05
6.97988e-05
7.55368e-05
6.93563e-05
5.99528e-05
6.89544e-05
6.43124e-05
6.89518e-05
6.43076e-05
6.93601e-05
8.97031e-05
7.14836e-05
7.14887e-05
7.14715e-05
7.14765e-05
8.97073e-05
6.428e-05
5.03389e-05
6.3186e-05
6.93972e-05
6.94006e-05
5.03582e-05
6.42776e-05
6.42064e-05
5.0288e-05
6.31569e-05
6.938e-05
5.02626e-05
6.93828e-05
6.42069e-05
6.42851e-05
6.9402e-05
6.31925e-05
5.03406e-05
6.93989e-05
5.03667e-05
6.42668e-05
6.4192e-05
6.93836e-05
6.31603e-05
5.03169e-05
5.03052e-05
6.93805e-05
6.42071e-05
8.96991e-05
7.14706e-05
7.14755e-05
7.14825e-05
7.14874e-05
8.97046e-05
6.87387e-05
6.87319e-05
6.87451e-05
6.87517e-05
8.9712e-05
7.14728e-05
7.14779e-05
8.97129e-05
7.14847e-05
7.14899e-05
6.42773e-05
5.03523e-05
6.32042e-05
6.94039e-05
5.03243e-05
6.9401e-05
6.42748e-05
6.42146e-05
5.03413e-05
6.31599e-05
6.93865e-05
6.93832e-05
5.03344e-05
6.41991e-05
6.42756e-05
6.94001e-05
5.03671e-05
6.31905e-05
5.03519e-05
6.42782e-05
6.94031e-05
6.42108e-05
6.93815e-05
5.03185e-05
6.31623e-05
6.41946e-05
6.9385e-05
5.03018e-05
8.97138e-05
7.14856e-05
7.14909e-05
7.14737e-05
7.14789e-05
8.97109e-05
6.87348e-05
6.87416e-05
6.93384e-05
6.42998e-05
6.8923e-05
5.98904e-05
6.42958e-05
6.89202e-05
6.93424e-05
6.97938e-05
7.00163e-05
7.55012e-05
7.55095e-05
6.97806e-05
6.97827e-05
7.55181e-05
7.00156e-05
7.5513e-05
6.97958e-05
6.93419e-05
5.9889e-05
6.42862e-05
6.89199e-05
6.42956e-05
6.89229e-05
6.93375e-05
6.93286e-05
6.42463e-05
6.89202e-05
5.98649e-05
6.42453e-05
6.89174e-05
6.93328e-05
6.97858e-05
7.00054e-05
7.54726e-05
7.54758e-05
6.97729e-05
6.97744e-05
7.54821e-05
7.00043e-05
7.54749e-05
6.97875e-05
6.93326e-05
5.98832e-05
6.42474e-05
6.89173e-05
6.42517e-05
6.89204e-05
6.93286e-05
6.93425e-05
6.42968e-05
6.892e-05
5.98768e-05
6.93386e-05
6.42986e-05
6.89224e-05
6.97857e-05
7.00182e-05
7.55241e-05
7.55211e-05
6.97983e-05
6.97972e-05
7.55181e-05
7.00192e-05
6.97844e-05
7.55223e-05
6.93386e-05
5.98786e-05
6.42965e-05
6.89221e-05
6.4295e-05
6.89195e-05
6.93423e-05
6.93337e-05
6.42567e-05
6.89171e-05
5.98686e-05
6.93293e-05
6.42645e-05
6.89198e-05
6.97777e-05
7.00078e-05
7.54951e-05
7.54912e-05
6.97905e-05
6.97892e-05
7.5485e-05
7.00085e-05
6.97761e-05
7.54909e-05
6.93301e-05
5.98606e-05
6.42673e-05
6.89194e-05
6.42639e-05
6.89168e-05
6.93343e-05
6.87462e-05
6.87394e-05
6.87322e-05
6.87251e-05
8.97116e-05
7.14745e-05
7.1465e-05
8.9727e-05
7.14851e-05
7.14755e-05
6.41955e-05
5.02857e-05
6.32009e-05
6.93876e-05
6.41936e-05
5.029e-05
6.93853e-05
6.42509e-05
5.03414e-05
6.31642e-05
6.93891e-05
6.42477e-05
5.03005e-05
6.93872e-05
6.41953e-05
6.93856e-05
5.02951e-05
6.31975e-05
6.42012e-05
5.02864e-05
6.93882e-05
6.42854e-05
6.9388e-05
5.03108e-05
6.31657e-05
6.42987e-05
5.03122e-05
6.93905e-05
8.97092e-05
7.14834e-05
7.14738e-05
8.97048e-05
7.14726e-05
7.14631e-05
6.87418e-05
6.87488e-05
6.87274e-05
6.87344e-05
6.87528e-05
6.87482e-05
6.41909e-05
5.03551e-05
6.93873e-05
6.31939e-05
6.41946e-05
6.93899e-05
5.03455e-05
6.42448e-05
5.03573e-05
6.93998e-05
6.31924e-05
6.42592e-05
6.94028e-05
5.03505e-05
8.97201e-05
7.14763e-05
7.14722e-05
8.97194e-05
7.1488e-05
7.14841e-05
6.98189e-05
7.55244e-05
7.00323e-05
6.98069e-05
7.55269e-05
6.93978e-05
6.0075e-05
6.90126e-05
6.43547e-05
6.90152e-05
6.93937e-05
6.43701e-05
6.42296e-05
5.03462e-05
6.93927e-05
6.32046e-05
6.9395e-05
6.42413e-05
5.03415e-05
6.42004e-05
5.03788e-05
6.93978e-05
6.31741e-05
5.03559e-05
6.42045e-05
6.9401e-05
8.97153e-05
7.14697e-05
7.14836e-05
7.14812e-05
8.9717e-05
7.14955e-05
6.9807e-05
7.55239e-05
7.00295e-05
6.97938e-05
7.55305e-05
6.93615e-05
6.00081e-05
6.89461e-05
6.43438e-05
6.89495e-05
6.93572e-05
6.43487e-05
6.93494e-05
5.98907e-05
6.89408e-05
6.42947e-05
6.89375e-05
6.98079e-05
7.55248e-05
7.00349e-05
7.55265e-05
6.97949e-05
6.93534e-05
5.98938e-05
6.42932e-05
6.89364e-05
6.42957e-05
6.93493e-05
6.89397e-05
6.97951e-05
6.93569e-05
5.99481e-05
6.89554e-05
6.43102e-05
6.89523e-05
6.43045e-05
6.93613e-05
6.98116e-05
7.55327e-05
7.00323e-05
6.97993e-05
7.55341e-05
6.93602e-05
5.99492e-05
6.89518e-05
6.43071e-05
6.93562e-05
6.89547e-05
6.43004e-05
6.97994e-05
7.55311e-05
7.00307e-05
7.55305e-05
6.98114e-05
6.42754e-05
5.03671e-05
6.94014e-05
6.32082e-05
6.94042e-05
6.42764e-05
5.0368e-05
6.41994e-05
5.03381e-05
6.93844e-05
6.31691e-05
5.03522e-05
6.42144e-05
6.93873e-05
8.97191e-05
7.14747e-05
7.148e-05
7.14866e-05
8.97188e-05
7.1492e-05
6.87442e-05
6.93385e-05
5.98687e-05
6.42943e-05
6.89222e-05
6.42914e-05
6.89192e-05
6.93425e-05
6.97991e-05
7.55223e-05
7.00216e-05
7.5525e-05
6.97866e-05
6.93423e-05
5.98838e-05
6.42929e-05
6.89193e-05
6.4295e-05
6.93384e-05
6.89221e-05
6.97873e-05
7.55254e-05
7.5523e-05
6.97998e-05
6.93303e-05
5.98615e-05
6.42556e-05
6.89202e-05
6.4249e-05
6.8917e-05
6.93344e-05
6.97914e-05
7.5494e-05
7.00114e-05
6.97787e-05
7.54968e-05
6.93345e-05
5.98616e-05
6.42632e-05
6.89166e-05
6.93304e-05
6.42642e-05
6.89196e-05
6.97794e-05
7.54971e-05
7.00102e-05
7.5495e-05
6.97918e-05
6.87505e-05
6.87431e-05
6.87362e-05
6.8729e-05
1.15987e-05
1.15754e-05
1.34184e-05
1.15988e-05
1.15753e-05
1.07454e-05
1.07454e-05
5.01398e-05
3.81429e-05
3.81351e-05
2.7822e-05
3.81281e-05
3.81194e-05
5.01439e-05
1.15991e-05
1.15752e-05
1.07451e-05
1.07447e-05
5.01293e-05
3.81414e-05
3.81392e-05
2.78265e-05
5.01377e-05
3.81245e-05
3.81237e-05
4.99747e-05
3.81074e-05
3.81114e-05
2.78031e-05
3.80929e-05
3.80977e-05
5.00001e-05
5.0035e-05
2.78597e-05
3.81063e-05
3.81187e-05
3.812e-05
3.81327e-05
5.00089e-05
5.01399e-05
3.8147e-05
3.81764e-05
2.78025e-05
3.81592e-05
3.81292e-05
5.01444e-05
5.0139e-05
2.78575e-05
3.81283e-05
3.8153e-05
3.81434e-05
3.81693e-05
5.01333e-05
5.01234e-05
3.81319e-05
3.81241e-05
2.78212e-05
3.81087e-05
3.81179e-05
5.01271e-05
5.01295e-05
2.78005e-05
3.81234e-05
3.81132e-05
3.81381e-05
3.81277e-05
5.01255e-05
5.01424e-05
2.78711e-05
3.81268e-05
3.81231e-05
5.0135e-05
3.81439e-05
3.81375e-05
5.00449e-05
3.81254e-05
3.81384e-05
2.78257e-05
5.00442e-05
3.8112e-05
3.81248e-05
5.01319e-05
3.81434e-05
3.81681e-05
2.78276e-05
3.81529e-05
5.01372e-05
3.81283e-05
5.01257e-05
3.81395e-05
3.81294e-05
2.77715e-05
3.8115e-05
5.01299e-05
3.81248e-05
1.15989e-05
1.1592e-05
1.34411e-05
1.15989e-05
1.15917e-05
1.07474e-05
1.07474e-05
1.15813e-05
1.15784e-05
1.3421e-05
1.15811e-05
1.15781e-05
1.0743e-05
1.07432e-05
1.15868e-05
1.15766e-05
1.34179e-05
1.15868e-05
1.15764e-05
1.07436e-05
1.07436e-05
1.34185e-05
1.1599e-05
1.15753e-05
1.15989e-05
1.15753e-05
1.07448e-05
1.0745e-05
1.3441e-05
1.15989e-05
1.15912e-05
1.15989e-05
1.15915e-05
1.07472e-05
1.07471e-05
1.3421e-05
1.1581e-05
1.15777e-05
1.1581e-05
1.1578e-05
1.07427e-05
1.07427e-05
1.3418e-05
1.15869e-05
1.15762e-05
1.15869e-05
1.15764e-05
1.07434e-05
1.07434e-05
3.12108e-05
4.56044e-05
2.86763e-05
4.22441e-05
4.56323e-05
2.87017e-05
3.11739e-05
3.50675e-05
4.11411e-05
5.37874e-05
5.0339e-05
4.11291e-05
5.02987e-05
3.50976e-05
3.50957e-05
5.03188e-05
5.37775e-05
4.11286e-05
4.11406e-05
5.03079e-05
3.50648e-05
3.11751e-05
4.22572e-05
4.5632e-05
2.87037e-05
4.56382e-05
2.86779e-05
3.1211e-05
3.11305e-05
2.85718e-05
4.55383e-05
4.22264e-05
2.85997e-05
4.55445e-05
3.10909e-05
3.50061e-05
4.10848e-05
5.37513e-05
5.02694e-05
4.10722e-05
5.03041e-05
3.50336e-05
3.50375e-05
5.02905e-05
5.376e-05
4.10736e-05
4.10845e-05
5.03134e-05
3.50064e-05
3.10965e-05
4.22271e-05
2.86022e-05
4.55729e-05
2.85759e-05
4.55779e-05
3.11341e-05
5.01443e-05
2.78621e-05
3.81314e-05
3.81197e-05
3.81459e-05
3.81345e-05
5.01408e-05
1.1599e-05
1.15911e-05
1.15907e-05
1.07471e-05
1.07469e-05
1.15807e-05
1.15775e-05
1.15773e-05
1.07427e-05
1.07424e-05
1.1587e-05
1.15762e-05
1.3418e-05
1.15871e-05
1.15762e-05
1.07434e-05
1.07431e-05
3.12079e-05
4.22291e-05
4.56539e-05
2.86702e-05
4.56591e-05
2.86958e-05
3.11725e-05
3.50639e-05
4.1141e-05
5.03163e-05
5.38e-05
3.50937e-05
4.11295e-05
5.03142e-05
3.1173e-05
4.22108e-05
4.56517e-05
2.8699e-05
3.12083e-05
4.56262e-05
2.8672e-05
3.11079e-05
4.219e-05
2.85603e-05
4.55322e-05
2.8585e-05
4.54858e-05
3.10729e-05
3.50083e-05
4.10909e-05
5.03216e-05
5.3773e-05
3.5036e-05
4.10804e-05
5.03215e-05
3.10742e-05
4.21974e-05
2.85858e-05
4.55107e-05
3.11123e-05
2.8561e-05
4.5507e-05
3.50351e-05
5.03137e-05
5.03142e-05
3.50071e-05
5.01321e-05
2.78758e-05
3.81229e-05
3.81225e-05
3.81393e-05
3.81388e-05
5.01243e-05
5.00111e-05
2.78495e-05
3.80975e-05
3.81053e-05
5.00059e-05
3.81113e-05
3.81186e-05
5.00001e-05
2.78113e-05
3.81147e-05
3.81249e-05
4.99968e-05
3.81008e-05
3.81116e-05
3.13997e-05
4.5869e-05
2.89702e-05
4.26743e-05
4.58604e-05
2.8993e-05
3.13658e-05
3.5127e-05
4.11353e-05
5.38291e-05
5.04318e-05
5.04258e-05
4.11222e-05
3.51547e-05
3.51549e-05
5.0436e-05
5.38304e-05
4.11206e-05
5.04375e-05
4.1133e-05
3.51271e-05
3.13604e-05
4.26832e-05
4.58575e-05
2.89849e-05
4.58226e-05
2.89625e-05
3.13953e-05
3.13073e-05
4.57603e-05
2.89239e-05
4.26291e-05
4.57955e-05
2.8948e-05
3.12721e-05
3.50659e-05
4.11146e-05
5.38357e-05
5.03115e-05
5.02909e-05
4.11018e-05
3.50959e-05
3.50949e-05
5.02948e-05
5.38354e-05
4.1102e-05
5.02823e-05
3.50632e-05
4.11138e-05
3.12695e-05
4.26469e-05
4.57904e-05
2.89436e-05
4.57911e-05
2.89205e-05
3.13038e-05
3.13728e-05
4.58958e-05
2.89983e-05
4.27151e-05
3.14062e-05
4.59021e-05
2.89755e-05
3.51603e-05
4.11183e-05
5.38135e-05
5.04308e-05
4.11304e-05
5.04466e-05
3.51326e-05
3.51299e-05
5.04505e-05
4.1131e-05
5.38222e-05
4.11188e-05
3.51572e-05
5.04555e-05
3.14125e-05
4.27064e-05
4.58978e-05
2.89781e-05
4.59227e-05
2.90029e-05
3.13785e-05
3.12746e-05
4.57897e-05
2.89501e-05
4.26472e-05
3.13095e-05
4.57839e-05
2.89265e-05
3.50945e-05
4.11019e-05
5.38317e-05
5.03347e-05
5.03105e-05
4.11138e-05
3.5067e-05
3.50643e-05
5.03178e-05
4.11136e-05
5.38298e-05
3.50944e-05
5.03296e-05
4.11015e-05
3.1311e-05
4.26309e-05
4.57489e-05
2.89268e-05
4.57891e-05
2.89523e-05
3.12761e-05
5.01441e-05
2.78471e-05
3.81289e-05
3.81564e-05
3.81737e-05
3.81442e-05
5.01383e-05
5.01358e-05
2.78127e-05
3.81439e-05
3.81709e-05
3.8128e-05
5.01419e-05
3.81546e-05
3.11117e-05
4.56053e-05
2.85889e-05
4.22744e-05
4.55889e-05
2.86124e-05
3.10768e-05
3.49943e-05
4.10921e-05
5.37574e-05
5.03164e-05
5.03226e-05
4.10813e-05
3.50224e-05
3.5024e-05
5.03254e-05
5.37669e-05
4.10842e-05
5.03217e-05
4.10946e-05
3.49964e-05
3.10761e-05
4.22731e-05
4.55896e-05
2.8609e-05
4.55905e-05
2.85852e-05
3.11114e-05
3.11821e-05
2.8666e-05
4.56734e-05
4.23884e-05
2.869e-05
4.56342e-05
3.11478e-05
3.50207e-05
4.11031e-05
5.37985e-05
5.03157e-05
5.03026e-05
4.10931e-05
3.50503e-05
3.50491e-05
5.03002e-05
5.37885e-05
4.1096e-05
5.02964e-05
3.50219e-05
4.11062e-05
3.11453e-05
4.2389e-05
2.86869e-05
4.56381e-05
2.8663e-05
4.56487e-05
3.11804e-05
3.10795e-05
4.56057e-05
2.86155e-05
4.22541e-05
3.11145e-05
4.55765e-05
2.85916e-05
3.50298e-05
4.10888e-05
5.37539e-05
5.03284e-05
4.10996e-05
5.03305e-05
3.50025e-05
3.4999e-05
5.03238e-05
4.10967e-05
5.37398e-05
4.10865e-05
3.50269e-05
5.0302e-05
3.11173e-05
4.22234e-05
4.56223e-05
2.85958e-05
4.56136e-05
2.86188e-05
3.1083e-05
3.11516e-05
2.86944e-05
4.56764e-05
4.23934e-05
3.11857e-05
2.86711e-05
4.56924e-05
3.50557e-05
4.10997e-05
5.37869e-05
5.03412e-05
5.03269e-05
4.11099e-05
3.5029e-05
3.50254e-05
5.02957e-05
4.11085e-05
5.37731e-05
3.50522e-05
5.03209e-05
4.10977e-05
3.11897e-05
4.23716e-05
2.8677e-05
4.56709e-05
2.86998e-05
4.56928e-05
3.11554e-05
3.12008e-05
2.86944e-05
4.56174e-05
4.23588e-05
2.8718e-05
4.56079e-05
3.11637e-05
3.50448e-05
4.11132e-05
5.37864e-05
5.03589e-05
4.11024e-05
5.0333e-05
3.5073e-05
3.50733e-05
5.03256e-05
5.37801e-05
4.11053e-05
4.1116e-05
5.03331e-05
3.50446e-05
3.11663e-05
4.23527e-05
2.8715e-05
4.55815e-05
2.86916e-05
4.56088e-05
3.12027e-05
3.11721e-05
4.55939e-05
2.87002e-05
4.22815e-05
3.12082e-05
4.56002e-05
2.86758e-05
3.50931e-05
4.11286e-05
5.38015e-05
5.0289e-05
3.50629e-05
4.11402e-05
5.03121e-05
3.50659e-05
5.03168e-05
4.11401e-05
5.37843e-05
3.50946e-05
4.11283e-05
5.03161e-05
3.12073e-05
4.22952e-05
4.564e-05
2.86756e-05
3.11729e-05
4.55906e-05
2.87004e-05
3.11644e-05
2.87197e-05
4.5619e-05
4.23638e-05
3.11993e-05
2.86959e-05
4.56003e-05
3.50758e-05
4.11017e-05
5.38118e-05
5.03543e-05
5.03417e-05
4.11144e-05
3.50487e-05
3.50457e-05
5.03125e-05
4.11163e-05
5.37955e-05
3.5073e-05
5.03357e-05
4.11035e-05
3.12018e-05
4.23534e-05
2.8697e-05
4.56516e-05
2.8721e-05
4.5644e-05
3.11678e-05
5.0128e-05
2.7812e-05
3.81207e-05
3.81097e-05
3.81247e-05
3.81355e-05
5.0124e-05
5.01249e-05
2.7754e-05
3.81371e-05
3.81254e-05
3.81224e-05
5.01286e-05
3.81104e-05
3.11355e-05
2.85753e-05
4.55675e-05
4.22332e-05
2.86014e-05
4.55502e-05
3.10982e-05
3.4999e-05
4.10828e-05
5.37342e-05
5.02451e-05
4.10701e-05
5.02474e-05
3.50291e-05
3.50256e-05
5.02393e-05
5.37226e-05
4.10701e-05
4.10813e-05
5.02435e-05
3.49961e-05
3.11008e-05
4.22041e-05
2.8604e-05
4.55983e-05
2.85775e-05
4.55796e-05
3.11368e-05
3.10848e-05
2.85943e-05
4.5547e-05
4.21701e-05
3.11247e-05
2.85656e-05
4.54998e-05
3.50375e-05
4.10779e-05
5.37607e-05
5.03175e-05
3.50091e-05
4.10881e-05
5.03211e-05
3.50079e-05
5.03179e-05
4.10857e-05
5.37539e-05
3.50378e-05
4.10748e-05
5.03169e-05
3.11181e-05
4.21833e-05
2.85625e-05
4.55084e-05
3.10786e-05
2.85887e-05
4.55149e-05
3.10962e-05
2.85986e-05
4.5563e-05
4.21741e-05
3.11329e-05
2.85718e-05
4.55456e-05
3.50276e-05
4.10743e-05
5.37516e-05
5.02769e-05
5.02785e-05
4.10843e-05
3.50007e-05
3.49976e-05
5.02411e-05
4.10822e-05
5.37403e-05
3.5025e-05
5.02782e-05
4.10714e-05
3.11312e-05
4.22132e-05
2.85707e-05
4.55978e-05
2.85958e-05
4.55972e-05
3.10947e-05
5.01395e-05
2.78221e-05
3.81462e-05
3.81354e-05
5.01452e-05
3.81292e-05
3.81205e-05
3.51358e-05
4.11298e-05
5.04374e-05
5.37818e-05
5.04238e-05
3.51632e-05
4.11179e-05
3.13812e-05
4.26741e-05
4.585e-05
2.90028e-05
4.58767e-05
3.14162e-05
2.89749e-05
3.50659e-05
4.11133e-05
5.03415e-05
5.38157e-05
3.50949e-05
5.03364e-05
4.11014e-05
3.12757e-05
4.25881e-05
4.57677e-05
2.89516e-05
3.13123e-05
4.57365e-05
2.89244e-05
3.5006e-05
4.11014e-05
5.03156e-05
5.37503e-05
5.03452e-05
3.50331e-05
4.10912e-05
3.10872e-05
4.22468e-05
4.56222e-05
2.86247e-05
4.56005e-05
3.11218e-05
2.86014e-05
3.50326e-05
4.11123e-05
5.0344e-05
5.37951e-05
3.50596e-05
5.03334e-05
4.11019e-05
3.11589e-05
4.24238e-05
2.87056e-05
4.56487e-05
3.1193e-05
2.86827e-05
4.5694e-05
3.12077e-05
4.23261e-05
2.86983e-05
4.56416e-05
2.87228e-05
4.56599e-05
3.11729e-05
3.5052e-05
4.11121e-05
5.03393e-05
5.37948e-05
4.10999e-05
3.50791e-05
5.0344e-05
3.11706e-05
4.23276e-05
2.87215e-05
4.56417e-05
2.86973e-05
3.12048e-05
4.56516e-05
3.5081e-05
5.0356e-05
5.3797e-05
4.10997e-05
4.11114e-05
5.03506e-05
3.50541e-05
3.11289e-05
4.21962e-05
2.85707e-05
4.56149e-05
2.85948e-05
4.56089e-05
3.10927e-05
3.50026e-05
4.10866e-05
5.02971e-05
5.37577e-05
4.10757e-05
3.50296e-05
5.02761e-05
3.1094e-05
4.22219e-05
2.85945e-05
4.56125e-05
2.85706e-05
3.11299e-05
4.5617e-05
3.50313e-05
5.02798e-05
5.37578e-05
4.10764e-05
4.10878e-05
5.03101e-05
3.50038e-05
2.18154e-05
2.76198e-05
2.17987e-05
6.99833e-05
5.36129e-05
6.87228e-05
6.31374e-05
6.31247e-05
6.87069e-05
5.35722e-05
6.99605e-05
6.97882e-05
6.99808e-05
7.55529e-05
7.55494e-05
6.98009e-05
6.87141e-05
6.41662e-05
5.02995e-05
6.31305e-05
6.93667e-05
5.03119e-05
6.93634e-05
6.41543e-05
6.41075e-05
5.02831e-05
6.31283e-05
6.9346e-05
6.93426e-05
5.02644e-05
6.41029e-05
8.96461e-05
7.14562e-05
7.1456e-05
7.14442e-05
7.14438e-05
8.96423e-05
6.86983e-05
6.97703e-05
6.99582e-05
7.54994e-05
7.54983e-05
6.9784e-05
4.98105e-05
2.76779e-05
3.79645e-05
3.79438e-05
3.79793e-05
3.79576e-05
4.9809e-05
3.49707e-05
4.09947e-05
5.36144e-05
5.027e-05
5.02719e-05
4.10048e-05
3.49443e-05
3.49262e-05
4.09613e-05
5.35862e-05
5.01625e-05
4.09694e-05
5.01791e-05
3.49003e-05
1.34145e-05
2.18007e-05
2.18672e-05
2.77404e-05
1.34187e-05
2.18128e-05
2.18779e-05
2.76465e-05
1.34227e-05
2.18282e-05
2.18947e-05
2.77023e-05
1.34254e-05
2.18394e-05
2.19079e-05
2.77007e-05
1.34272e-05
2.18488e-05
2.19183e-05
2.75688e-05
1.34285e-05
2.18587e-05
2.1925e-05
2.75329e-05
1.34303e-05
2.1868e-05
2.19322e-05
2.75874e-05
1.34328e-05
2.18773e-05
2.19405e-05
2.75499e-05
1.3435e-05
2.18851e-05
2.19496e-05
2.75928e-05
1.34363e-05
2.18943e-05
2.19571e-05
2.76906e-05
1.34364e-05
2.19028e-05
2.19601e-05
2.77011e-05
1.34348e-05
2.19108e-05
2.19529e-05
2.76819e-05
1.34329e-05
2.19202e-05
2.19449e-05
2.77424e-05
1.34303e-05
2.19285e-05
2.1934e-05
2.77854e-05
1.34295e-05
2.1931e-05
2.19228e-05
2.7815e-05
1.34292e-05
2.19245e-05
2.19117e-05
2.7838e-05
1.34294e-05
2.19194e-05
2.19034e-05
2.78605e-05
1.3429e-05
2.19164e-05
2.18969e-05
2.78617e-05
1.34281e-05
2.19168e-05
2.18937e-05
2.77878e-05
1.34259e-05
2.19184e-05
2.18898e-05
2.78094e-05
1.34231e-05
2.19244e-05
2.18866e-05
2.78307e-05
1.34201e-05
2.19299e-05
2.18838e-05
2.784e-05
1.3418e-05
2.19343e-05
2.1882e-05
2.78462e-05
1.34174e-05
2.19354e-05
2.18804e-05