/*--------------------------------*- C++ -*----------------------------------*\
| =========                 |                                                 |
| \\      /  F ield         | OpenFOAM: The Open Source CFD Toolbox           |
|  \\    /   O peration     | Version:  2312                                  |
|   \\  /    A nd           | Website:  www.openfoam.com                      |
|    \\/     M anipulation  |                                                 |
\*---------------------------------------------------------------------------*/
FoamFile
{
    version     2.0;
    format      ascii;
    arch        "LSB;label=32;scalar=64";
    class       volScalarField;
    location    "150";
    object      nut;
}
// * * * * * * * * * * * * * * * * * * * * * * * * * * * * * * * * * * * * * //

dimensions      [0 2 -1 0 0 0 0];

internalField   nonuniform List<scalar> 
43496
(
8.1819e-05
2.34774e-05
9.64185e-05
8.08216e-05
9.23709e-05
0.000100013
8.18546e-05
4.95551e-05
9.26002e-05
9.64178e-05
0.000100026
8.09114e-05
9.63787e-05
6.79172e-05
6.7891e-05
2.34779e-05
4.95559e-05
3.60637e-05
8.18194e-05
8.01366e-05
4.02779e-05
8.01044e-05
4.02767e-05
3.60651e-05
2.00428e-05
7.2518e-05
7.25029e-05
2.00447e-05
2.34761e-05
3.60688e-05
8.18447e-05
4.02831e-05
8.01644e-05
4.02822e-05
8.01353e-05
3.60699e-05
2.00428e-05
7.24839e-05
4.95542e-05
7.24668e-05
2.00447e-05
7.51283e-05
2.14071e-05
2.14102e-05
2.14054e-05
2.14085e-05
7.51297e-05
8.63509e-05
4.73614e-05
6.79282e-05
9.22164e-05
4.73609e-05
9.21771e-05
8.63229e-05
8.6269e-05
4.73702e-05
6.78917e-05
9.21026e-05
9.2259e-05
4.73695e-05
8.62353e-05
2.34766e-05
4.95551e-05
0.000130888
0.000109493
0.000130815
8.07924e-05
9.41759e-05
9.41674e-05
9.38008e-05
9.2322e-05
9.2122e-05
9.33447e-05
9.2283e-05
9.33525e-05
9.37903e-05
9.41008e-05
8.84047e-05
8.83822e-05
9.40922e-05
9.40379e-05
9.27088e-05
9.35651e-05
9.24036e-05
9.35801e-05
9.23659e-05
9.40313e-05
9.42078e-05
8.83726e-05
8.08273e-05
9.4213e-05
8.82801e-05
9.41961e-05
9.41998e-05
9.74072e-05
9.67914e-05
9.75779e-05
9.75644e-05
9.75668e-05
9.7576e-05
9.74138e-05
0.000109505
9.66188e-05
9.64274e-05
9.70655e-05
0.000109512
9.6581e-05
9.64174e-05
9.7131e-05
9.70305e-05
9.70276e-05
9.64737e-05
9.65627e-05
9.65225e-05
9.6568e-05
9.68167e-05
9.70087e-05
9.63179e-05
9.64178e-05
9.63229e-05
9.64236e-05
9.64193e-05
9.66179e-05
9.64647e-05
9.70541e-05
9.6727e-05
9.63793e-05
9.64257e-05
9.63894e-05
9.70523e-05
9.71217e-05
9.65225e-05
9.65544e-05
9.69784e-05
9.64257e-05
9.64184e-05
9.64706e-05
9.672e-05
9.63895e-05
8.21564e-05
4.95739e-05
4.95744e-05
8.21111e-05
2.3476e-05
2.34777e-05
8.17354e-05
4.95549e-05
4.95555e-05
8.17434e-05
0.000109572
0.000109509
0.000109495
0.000109515
0.000109582
0.000109514
0.000109507
9.20326e-05
8.09077e-05
0.000100157
9.66268e-05
8.09299e-05
0.000100162
9.22817e-05
2.34748e-05
2.34763e-05
9.20602e-05
9.99603e-05
8.07934e-05
9.643e-05
9.99755e-05
8.08265e-05
9.22248e-05
6.79022e-05
6.78526e-05
9.70666e-05
6.79017e-05
6.78665e-05
4.9573e-05
8.20751e-05
2.34765e-05
4.95558e-05
8.1801e-05
0.000109581
0.000109502
0.000109499
9.2096e-05
8.08782e-05
0.000100133
9.19522e-05
0.000100157
2.34759e-05
9.18653e-05
9.99409e-05
8.08437e-05
9.18446e-05
9.99576e-05
6.79326e-05
6.78761e-05
9.70665e-05
6.79156e-05
6.78712e-05
2.34792e-05
2.34806e-05
2.3475e-05
2.34763e-05
6.79418e-05
6.78847e-05
9.70108e-05
6.79291e-05
6.78976e-05
2.34804e-05
2.34792e-05
2.34768e-05
2.34752e-05
9.70775e-05
6.79284e-05
6.78972e-05
6.79108e-05
6.78999e-05
8.20735e-05
4.95582e-05
4.95599e-05
8.20343e-05
9.36575e-05
8.09229e-05
0.000100296
9.6508e-05
8.09626e-05
0.000100352
9.3454e-05
9.33315e-05
8.09623e-05
0.000100272
9.65676e-05
8.09447e-05
0.000100304
9.33492e-05
8.21468e-05
4.95737e-05
4.95736e-05
8.21513e-05
8.20669e-05
4.95601e-05
4.95594e-05
8.20831e-05
9.35524e-05
9.65163e-05
8.08462e-05
0.000100354
8.08969e-05
0.000100347
9.37884e-05
9.32392e-05
9.65693e-05
8.093e-05
0.000100291
8.0939e-05
0.000100305
9.33521e-05
6.78987e-05
6.79019e-05
9.69378e-05
6.79424e-05
6.79166e-05
2.34787e-05
2.348e-05
2.34779e-05
2.34764e-05
9.68984e-05
6.79465e-05
6.78928e-05
6.79361e-05
6.79135e-05
2.34799e-05
2.34788e-05
9.22514e-05
8.07753e-05
9.99766e-05
9.63489e-05
8.07954e-05
9.99931e-05
9.20222e-05
8.18811e-05
4.95541e-05
4.95546e-05
8.18577e-05
9.24149e-05
0.00010005
8.0865e-05
9.64219e-05
0.000100054
8.08987e-05
9.24156e-05
8.17694e-05
4.9556e-05
4.95552e-05
8.17757e-05
9.21934e-05
9.63342e-05
8.07375e-05
0.000100019
8.07729e-05
9.99861e-05
9.22609e-05
8.18344e-05
4.95543e-05
4.9554e-05
8.18577e-05
9.25529e-05
9.64188e-05
0.000100058
8.08901e-05
0.000100061
8.08575e-05
9.26196e-05
8.16207e-05
4.956e-05
4.95606e-05
8.16719e-05
9.25889e-05
0.000100109
8.08469e-05
9.64568e-05
0.000100138
8.09018e-05
9.24995e-05
8.18109e-05
4.95555e-05
4.95564e-05
8.17819e-05
9.22448e-05
9.66178e-05
8.0941e-05
0.00010015
8.09173e-05
0.000100162
9.22105e-05
8.16105e-05
4.95608e-05
4.95603e-05
8.16731e-05
9.25528e-05
9.6462e-05
0.000100136
8.08914e-05
0.000100138
8.09035e-05
9.25289e-05
8.17992e-05
4.95572e-05
4.95562e-05
8.18143e-05
6.78897e-05
6.78473e-05
9.66434e-05
6.79065e-05
6.78773e-05
2.34753e-05
2.34769e-05
2.3477e-05
2.34751e-05
9.65912e-05
6.79289e-05
6.78973e-05
6.78994e-05
6.78584e-05
2.34774e-05
2.34756e-05
9.20848e-05
9.99626e-05
8.07331e-05
9.6384e-05
9.99718e-05
8.07616e-05
9.21856e-05
8.16867e-05
4.95523e-05
4.95539e-05
8.16482e-05
8.16329e-05
4.95441e-05
4.95447e-05
8.16416e-05
9.20042e-05
9.6428e-05
9.9964e-05
8.08415e-05
9.99777e-05
8.0815e-05
9.19786e-05
9.20183e-05
9.63809e-05
9.9977e-05
8.08038e-05
9.99751e-05
8.07584e-05
9.20828e-05
8.16365e-05
4.95551e-05
4.95537e-05
8.16574e-05
8.1608e-05
4.95464e-05
4.95446e-05
8.15718e-05
2.34753e-05
2.3477e-05
2.34716e-05
2.3473e-05
9.71187e-05
6.7939e-05
6.78824e-05
6.79178e-05
6.78603e-05
2.34777e-05
2.34759e-05
2.34735e-05
2.34719e-05
2.34792e-05
2.34754e-05
6.79251e-05
6.78788e-05
4.95593e-05
8.20608e-05
8.08551e-05
0.00010035
9.38375e-05
8.08656e-05
0.000100337
9.36455e-05
6.7938e-05
6.79018e-05
2.34787e-05
8.0769e-05
9.9965e-05
9.22984e-05
4.9554e-05
8.18538e-05
0.000100017
8.08839e-05
9.26089e-05
8.16969e-05
4.95601e-05
8.16702e-05
9.22843e-05
0.000100129
8.08156e-05
9.64652e-05
9.23239e-05
0.000100144
8.09109e-05
8.1792e-05
4.95566e-05
8.17949e-05
4.95574e-05
6.79251e-05
6.78747e-05
2.34763e-05
9.21853e-05
9.99505e-05
8.0803e-05
9.63944e-05
9.19109e-05
9.9993e-05
8.07895e-05
8.16635e-05
4.95548e-05
8.16496e-05
8.16272e-05
4.95463e-05
8.15742e-05
4.95478e-05
2.34765e-05
2.34779e-05
2.34725e-05
2.34739e-05
3.60881e-05
4.03053e-05
8.03912e-05
8.21343e-05
4.03041e-05
8.03662e-05
3.60893e-05
2.00519e-05
4.95744e-05
7.25662e-05
7.25806e-05
2.00502e-05
2.00502e-05
7.25813e-05
4.95739e-05
7.25665e-05
2.0052e-05
3.60889e-05
8.21399e-05
4.03034e-05
8.03577e-05
4.03045e-05
8.03575e-05
3.6088e-05
2.34774e-05
2.34763e-05
3.60626e-05
8.0156e-05
4.02745e-05
8.17325e-05
8.01421e-05
4.02736e-05
3.60637e-05
2.00432e-05
4.95555e-05
7.24766e-05
7.24862e-05
2.00415e-05
2.00415e-05
7.2498e-05
4.95548e-05
7.24766e-05
2.00434e-05
3.60635e-05
8.17569e-05
8.01455e-05
4.02734e-05
8.01582e-05
4.02743e-05
3.60624e-05
2.34761e-05
2.34749e-05
7.51364e-05
2.14089e-05
2.14053e-05
2.14072e-05
2.14036e-05
7.51379e-05
8.63241e-05
9.20961e-05
6.79111e-05
4.73663e-05
9.20406e-05
4.73675e-05
8.63259e-05
8.63205e-05
9.20571e-05
6.78585e-05
4.73546e-05
9.20358e-05
4.73553e-05
8.63392e-05
8.6282e-05
4.73676e-05
6.79039e-05
9.21099e-05
9.21948e-05
4.73664e-05
8.63511e-05
8.63623e-05
4.73555e-05
6.784e-05
9.2035e-05
9.19281e-05
4.73545e-05
8.63596e-05
7.51456e-05
2.1407e-05
2.14035e-05
2.14088e-05
2.14052e-05
7.51354e-05
2.00518e-05
7.25522e-05
4.9573e-05
2.00502e-05
7.25634e-05
3.60895e-05
8.21027e-05
4.03057e-05
8.03217e-05
3.60887e-05
4.03064e-05
8.03384e-05
2.34778e-05
2.00445e-05
7.24992e-05
4.95564e-05
2.00426e-05
7.25159e-05
3.60644e-05
8.18234e-05
8.0085e-05
4.02758e-05
3.60631e-05
8.01367e-05
4.0277e-05
2.34773e-05
7.51029e-05
2.14081e-05
2.14045e-05
2.14065e-05
2.14029e-05
7.51129e-05
8.62308e-05
9.20398e-05
4.73676e-05
6.7939e-05
8.62788e-05
9.20593e-05
4.73682e-05
8.62977e-05
9.20804e-05
4.7355e-05
6.78701e-05
8.628e-05
9.21084e-05
4.73555e-05
7.5113e-05
2.14068e-05
2.14031e-05
7.51044e-05
2.14083e-05
2.14047e-05
8.62387e-05
4.73678e-05
6.793e-05
9.19383e-05
9.20151e-05
4.73673e-05
8.62387e-05
8.62899e-05
4.73551e-05
6.78855e-05
9.19351e-05
9.20361e-05
4.73545e-05
8.63072e-05
2.34805e-05
2.34793e-05
2.34762e-05
2.3475e-05
7.51041e-05
2.14089e-05
2.14058e-05
2.14072e-05
2.14041e-05
7.51097e-05
8.62398e-05
9.21064e-05
6.7949e-05
4.73701e-05
4.73709e-05
9.19763e-05
8.62616e-05
8.63258e-05
9.21427e-05
6.78797e-05
4.73572e-05
4.7358e-05
9.21561e-05
8.62603e-05
8.62851e-05
4.73715e-05
6.79403e-05
9.21423e-05
4.73704e-05
8.63148e-05
9.20742e-05
8.6327e-05
4.73585e-05
6.78896e-05
9.21894e-05
4.73574e-05
8.63309e-05
9.21896e-05
7.51103e-05
2.14074e-05
2.14043e-05
2.1409e-05
2.14059e-05
7.51142e-05
2.34791e-05
2.34804e-05
2.34754e-05
2.34765e-05
7.51182e-05
2.14072e-05
2.14041e-05
7.51081e-05
2.14089e-05
2.14059e-05
8.62953e-05
9.21685e-05
6.79086e-05
4.73711e-05
4.73705e-05
9.21694e-05
8.62602e-05
8.6321e-05
9.20677e-05
6.78945e-05
4.73593e-05
4.73581e-05
9.21548e-05
8.63239e-05
8.63069e-05
4.73708e-05
9.20955e-05
6.79039e-05
8.6311e-05
4.73715e-05
9.21227e-05
8.63034e-05
4.73577e-05
9.20983e-05
6.78906e-05
8.63299e-05
4.73586e-05
9.22193e-05
7.51102e-05
2.14091e-05
2.14061e-05
2.14073e-05
2.14042e-05
7.51247e-05
3.60783e-05
4.03016e-05
8.02715e-05
8.20406e-05
4.03007e-05
8.02563e-05
3.60794e-05
2.00457e-05
4.95592e-05
7.24669e-05
7.24833e-05
2.00438e-05
2.00442e-05
7.24847e-05
4.9559e-05
7.24694e-05
2.0046e-05
3.6079e-05
8.20543e-05
4.03002e-05
8.02552e-05
4.03012e-05
8.02774e-05
3.60777e-05
3.60898e-05
4.03049e-05
8.03799e-05
8.21657e-05
3.60886e-05
4.0306e-05
8.03956e-05
2.00503e-05
4.95735e-05
7.25728e-05
2.0052e-05
7.25616e-05
2.0052e-05
7.25669e-05
4.95741e-05
2.00503e-05
7.25811e-05
3.60889e-05
8.21377e-05
4.03064e-05
8.0383e-05
3.60899e-05
4.03055e-05
8.03698e-05
3.60795e-05
4.03012e-05
8.02292e-05
8.20864e-05
3.60785e-05
4.03022e-05
8.02558e-05
2.00445e-05
4.95596e-05
7.24856e-05
7.24706e-05
2.00462e-05
2.00462e-05
7.24705e-05
4.95601e-05
2.00444e-05
7.24858e-05
3.60784e-05
8.20626e-05
4.03025e-05
8.02338e-05
4.03016e-05
8.02162e-05
3.60794e-05
7.51293e-05
2.14062e-05
2.14102e-05
2.14045e-05
2.14084e-05
7.51381e-05
8.63417e-05
9.19445e-05
6.79272e-05
4.73574e-05
4.73586e-05
9.18774e-05
8.63119e-05
8.63432e-05
9.23413e-05
6.79036e-05
4.73714e-05
9.23428e-05
4.73724e-05
8.63697e-05
8.63405e-05
4.73594e-05
6.79297e-05
9.20871e-05
4.73582e-05
9.20385e-05
8.63408e-05
8.63698e-05
4.73727e-05
6.79041e-05
9.22138e-05
9.2319e-05
4.73717e-05
8.63187e-05
7.51394e-05
2.14044e-05
2.14083e-05
2.14062e-05
2.14101e-05
7.51297e-05
2.348e-05
2.34787e-05
2.34765e-05
2.34778e-05
7.51357e-05
2.14045e-05
2.14084e-05
7.51273e-05
2.14062e-05
2.14102e-05
8.62803e-05
9.21416e-05
6.79379e-05
4.73588e-05
9.20918e-05
4.73584e-05
8.62555e-05
8.62573e-05
9.21933e-05
6.78995e-05
4.7372e-05
4.73713e-05
9.22691e-05
8.63251e-05
8.63281e-05
4.73586e-05
9.20395e-05
6.79454e-05
9.19521e-05
8.63351e-05
4.73596e-05
8.63002e-05
4.73718e-05
9.22874e-05
6.79092e-05
8.63134e-05
4.73725e-05
9.2315e-05
7.51245e-05
2.14062e-05
2.14102e-05
2.14045e-05
2.14084e-05
7.51337e-05
2.34788e-05
2.34801e-05
3.60689e-05
4.02818e-05
8.02216e-05
8.18636e-05
4.02809e-05
8.0207e-05
3.60699e-05
2.00442e-05
4.95548e-05
7.24624e-05
7.24754e-05
2.00425e-05
2.00424e-05
7.24737e-05
4.9554e-05
7.246e-05
2.00441e-05
3.60698e-05
8.18745e-05
4.02807e-05
8.02093e-05
4.02816e-05
8.02224e-05
3.60688e-05
3.6064e-05
8.01306e-05
4.02741e-05
8.17982e-05
3.60628e-05
8.01433e-05
4.02754e-05
2.00423e-05
4.95554e-05
7.25119e-05
2.00442e-05
7.2495e-05
2.00438e-05
7.2488e-05
4.95557e-05
2.00419e-05
7.2506e-05
3.6063e-05
8.17889e-05
8.01191e-05
4.02761e-05
3.60641e-05
8.00981e-05
4.02751e-05
3.607e-05
4.0281e-05
8.02063e-05
8.18477e-05
3.6069e-05
4.0282e-05
8.02193e-05
2.00423e-05
4.95538e-05
7.2466e-05
7.2455e-05
2.00441e-05
2.0044e-05
7.24521e-05
4.95543e-05
2.00423e-05
7.24685e-05
3.6069e-05
8.18024e-05
4.02821e-05
8.0154e-05
4.02811e-05
8.01765e-05
3.60698e-05
3.60684e-05
8.01191e-05
4.02799e-05
8.15951e-05
8.01018e-05
4.02794e-05
3.60696e-05
2.00458e-05
4.95606e-05
7.24687e-05
7.24833e-05
2.00439e-05
2.00439e-05
7.24831e-05
4.95598e-05
7.24682e-05
2.00458e-05
3.60693e-05
8.16181e-05
8.00811e-05
4.02799e-05
8.01115e-05
4.02804e-05
3.60681e-05
3.60696e-05
4.02846e-05
8.01664e-05
8.17935e-05
4.02838e-05
8.01518e-05
3.60705e-05
2.00454e-05
4.95563e-05
7.24822e-05
7.24954e-05
2.00436e-05
2.00437e-05
7.24929e-05
4.95555e-05
7.24794e-05
2.00454e-05
3.60706e-05
8.18024e-05
4.02835e-05
8.01419e-05
4.02845e-05
8.01656e-05
3.60697e-05
3.60696e-05
8.01051e-05
4.02788e-05
8.16076e-05
3.60685e-05
8.01218e-05
4.02791e-05
2.00439e-05
4.95602e-05
7.24819e-05
7.24676e-05
2.00457e-05
2.00458e-05
7.2468e-05
4.95607e-05
2.00439e-05
7.24826e-05
3.60684e-05
8.16377e-05
8.01272e-05
4.02788e-05
8.01085e-05
4.02781e-05
3.60695e-05
3.60704e-05
4.02838e-05
8.01466e-05
8.18136e-05
3.60695e-05
4.02846e-05
8.01566e-05
2.00437e-05
4.95565e-05
7.24916e-05
7.24767e-05
2.00454e-05
2.00454e-05
7.24771e-05
4.95568e-05
2.00437e-05
7.24916e-05
3.60691e-05
8.18004e-05
4.02844e-05
8.01346e-05
4.02837e-05
8.01108e-05
3.607e-05
7.51061e-05
2.14064e-05
2.14094e-05
2.14046e-05
2.14076e-05
7.51239e-05
8.63805e-05
9.20788e-05
6.7896e-05
4.73582e-05
4.73595e-05
9.21571e-05
8.63584e-05
8.63332e-05
9.199e-05
6.78749e-05
4.73676e-05
9.19078e-05
4.73685e-05
8.63179e-05
8.63776e-05
4.73601e-05
6.78981e-05
9.2081e-05
4.7359e-05
9.21693e-05
8.63452e-05
8.62787e-05
4.73685e-05
6.78719e-05
9.20973e-05
9.20459e-05
4.73675e-05
8.63344e-05
7.51131e-05
2.14046e-05
2.14076e-05
2.14062e-05
2.14092e-05
7.51113e-05
2.34767e-05
2.34755e-05
2.34755e-05
2.34765e-05
7.51298e-05
2.14048e-05
2.14078e-05
7.51197e-05
2.14067e-05
2.14097e-05
8.63631e-05
9.21237e-05
6.79158e-05
4.73614e-05
9.20089e-05
4.73602e-05
8.63754e-05
8.63335e-05
9.21605e-05
6.78661e-05
4.73691e-05
4.7368e-05
9.21262e-05
8.63078e-05
8.63731e-05
4.73595e-05
9.21643e-05
6.7897e-05
9.21208e-05
8.63613e-05
4.73607e-05
8.63394e-05
4.73673e-05
9.20859e-05
6.78829e-05
8.62818e-05
4.73686e-05
9.20311e-05
7.512e-05
2.14068e-05
2.14098e-05
2.1405e-05
2.1408e-05
7.51261e-05
2.34759e-05
2.34771e-05
3.60653e-05
8.01206e-05
4.02743e-05
8.16704e-05
8.01038e-05
4.02733e-05
3.60665e-05
2.00435e-05
4.95532e-05
7.24334e-05
7.24574e-05
2.00416e-05
2.0042e-05
7.24712e-05
4.95529e-05
7.24525e-05
2.00439e-05
3.6066e-05
8.16776e-05
8.00822e-05
4.02729e-05
8.01117e-05
4.02739e-05
3.60646e-05
3.60602e-05
8.00207e-05
4.02731e-05
8.16039e-05
8.0011e-05
4.02722e-05
3.60611e-05
2.00406e-05
4.95446e-05
7.23991e-05
7.24139e-05
2.00388e-05
2.0039e-05
7.24223e-05
4.95439e-05
7.23999e-05
2.00408e-05
3.60614e-05
8.16641e-05
8.00154e-05
4.02719e-05
8.00366e-05
4.0273e-05
3.60605e-05
3.60667e-05
8.0106e-05
4.02734e-05
8.16466e-05
3.60657e-05
8.01178e-05
4.02742e-05
2.00426e-05
4.95543e-05
7.24796e-05
7.24642e-05
2.00445e-05
2.00442e-05
7.246e-05
4.95547e-05
2.00424e-05
7.24769e-05
3.60657e-05
8.16414e-05
8.01129e-05
4.02741e-05
8.01013e-05
4.02733e-05
3.60667e-05
3.60615e-05
8.00366e-05
4.02723e-05
8.1631e-05
3.60602e-05
8.00635e-05
4.0273e-05
2.00397e-05
4.95453e-05
7.24427e-05
7.24254e-05
2.00416e-05
2.00412e-05
7.24159e-05
4.95456e-05
2.00393e-05
7.24362e-05
3.60607e-05
8.15986e-05
8.00709e-05
4.02726e-05
8.00538e-05
4.0272e-05
3.60619e-05
2.34768e-05
2.34756e-05
2.34729e-05
2.34716e-05
7.51215e-05
2.14073e-05
2.14037e-05
7.5131e-05
2.14089e-05
2.14053e-05
8.62653e-05
9.20098e-05
6.79287e-05
4.73685e-05
8.62832e-05
9.19837e-05
4.73676e-05
8.62677e-05
9.20893e-05
6.78491e-05
4.73559e-05
8.62859e-05
9.19291e-05
4.7355e-05
8.6274e-05
4.73672e-05
9.19232e-05
6.79315e-05
8.62655e-05
9.1992e-05
4.73683e-05
8.63673e-05
4.73551e-05
9.19769e-05
6.78633e-05
8.63822e-05
9.19885e-05
4.73561e-05
7.51086e-05
2.14086e-05
2.1405e-05
7.51156e-05
2.1407e-05
2.14034e-05
2.34763e-05
2.34774e-05
2.3472e-05
2.34732e-05
2.34806e-05
2.34768e-05
8.62806e-05
9.22682e-05
4.73703e-05
6.79258e-05
8.62731e-05
4.73712e-05
9.22424e-05
8.62828e-05
9.2104e-05
4.73583e-05
6.79079e-05
8.63057e-05
4.73593e-05
9.20881e-05
7.51379e-05
2.14075e-05
2.14045e-05
7.51255e-05
2.14093e-05
2.14064e-05
2.00462e-05
7.24706e-05
4.95599e-05
2.00445e-05
7.24857e-05
3.60793e-05
8.20779e-05
4.03018e-05
8.02005e-05
4.03027e-05
3.60782e-05
8.02471e-05
8.6281e-05
9.22324e-05
4.73578e-05
6.7927e-05
4.73584e-05
8.62958e-05
9.22026e-05
8.63072e-05
9.22725e-05
4.7371e-05
6.79089e-05
9.2196e-05
8.63044e-05
4.73717e-05
7.51339e-05
2.14044e-05
2.14085e-05
2.14061e-05
7.51241e-05
2.14102e-05
2.00444e-05
7.24565e-05
4.95547e-05
2.00425e-05
7.24782e-05
3.60698e-05
8.18723e-05
4.02816e-05
8.01501e-05
4.02827e-05
3.60688e-05
8.01719e-05
3.60683e-05
8.16776e-05
4.0279e-05
8.01192e-05
4.02781e-05
2.00457e-05
7.24675e-05
4.95608e-05
7.24827e-05
2.00439e-05
3.60694e-05
8.16975e-05
8.01155e-05
4.0278e-05
8.0132e-05
3.60684e-05
4.02788e-05
2.00439e-05
3.60686e-05
8.17954e-05
4.02841e-05
8.01357e-05
4.02833e-05
8.01136e-05
3.60697e-05
2.00455e-05
7.24763e-05
4.95572e-05
2.00437e-05
7.24901e-05
3.60696e-05
8.18073e-05
4.02835e-05
8.01174e-05
3.60689e-05
4.02842e-05
8.01102e-05
2.00438e-05
7.24874e-05
4.95569e-05
7.24743e-05
2.00456e-05
8.63786e-05
9.2167e-05
4.73607e-05
6.7935e-05
4.73618e-05
8.63643e-05
9.21816e-05
8.63115e-05
9.21552e-05
4.73689e-05
6.78952e-05
9.22682e-05
8.63328e-05
4.73701e-05
7.51371e-05
2.14052e-05
2.14082e-05
2.1407e-05
7.51253e-05
2.14101e-05
2.34778e-05
3.60656e-05
8.16169e-05
8.01104e-05
4.02738e-05
8.00945e-05
4.02729e-05
3.60666e-05
2.00446e-05
7.24659e-05
4.95556e-05
7.24808e-05
2.00428e-05
3.60667e-05
8.16689e-05
8.00972e-05
4.02732e-05
8.01102e-05
3.60657e-05
4.0274e-05
2.0043e-05
7.24813e-05
7.24668e-05
2.00448e-05
3.60608e-05
8.16047e-05
8.00509e-05
4.02727e-05
8.0023e-05
4.02718e-05
3.60618e-05
2.00418e-05
7.24301e-05
4.95473e-05
2.00399e-05
7.2446e-05
3.6062e-05
8.16158e-05
8.00544e-05
4.02717e-05
3.60609e-05
8.00674e-05
4.02725e-05
2.00401e-05
7.24472e-05
4.9547e-05
7.24326e-05
2.00419e-05
2.34779e-05
2.34766e-05
2.34738e-05
2.34726e-05
0.000130797
0.000130864
0.000109518
0.000130797
0.00013087
0.000156003
0.000156002
9.7406e-05
9.75719e-05
9.75336e-05
9.70646e-05
9.7582e-05
9.75426e-05
9.73977e-05
0.000130792
0.000130846
0.000155997
0.000155986
9.73928e-05
9.75753e-05
9.75529e-05
9.70691e-05
9.73957e-05
9.75817e-05
9.7564e-05
9.68837e-05
9.74689e-05
9.74544e-05
9.69978e-05
9.74757e-05
9.74644e-05
9.69672e-05
9.70615e-05
9.70912e-05
9.75214e-05
9.75299e-05
9.7515e-05
9.75263e-05
9.69819e-05
9.7458e-05
9.7612e-05
9.77102e-05
9.68777e-05
9.77099e-05
9.76087e-05
9.74501e-05
9.74398e-05
9.69512e-05
9.76073e-05
9.76846e-05
9.76013e-05
9.76862e-05
9.74476e-05
9.74001e-05
9.75473e-05
9.75375e-05
9.71216e-05
9.75455e-05
9.75589e-05
9.73905e-05
9.74018e-05
9.66605e-05
9.75671e-05
9.75524e-05
9.75632e-05
9.75475e-05
9.74141e-05
9.74009e-05
9.71275e-05
9.75812e-05
9.75536e-05
9.74044e-05
9.75835e-05
9.75467e-05
9.71077e-05
9.75432e-05
9.75514e-05
9.71236e-05
9.70863e-05
9.75534e-05
9.75576e-05
9.7443e-05
9.76131e-05
9.7688e-05
9.71112e-05
9.76915e-05
9.74384e-05
9.76197e-05
9.74157e-05
9.75739e-05
9.75602e-05
9.68039e-05
9.75664e-05
9.74072e-05
9.75782e-05
0.000130814
0.000130823
0.000109581
0.000130819
0.000130825
0.000155987
0.000155984
0.000130829
0.000130814
0.000109514
0.000130828
0.000130818
0.000155988
0.000155989
0.000130811
0.000130826
0.000109506
0.000130815
0.000130827
0.000155983
0.000155984
0.000109514
0.000130789
0.00013087
0.000130795
0.000130868
0.000155986
0.000155992
0.000109584
0.000130808
0.000130819
0.000130817
0.000130822
0.000155981
0.000155977
0.000109513
0.000130821
0.000130813
0.000130825
0.000130818
0.000155979
0.000155978
0.000109509
0.000130815
0.000130823
0.000130817
0.000130827
0.000155979
0.000155976
9.40892e-05
9.22083e-05
9.35546e-05
9.21712e-05
9.2253e-05
9.35765e-05
9.40709e-05
9.43176e-05
9.43221e-05
8.08962e-05
8.83699e-05
9.43337e-05
8.82509e-05
9.43297e-05
9.43153e-05
8.83255e-05
8.08464e-05
9.43285e-05
9.43216e-05
8.82675e-05
9.43065e-05
9.40698e-05
9.2259e-05
9.2268e-05
9.35766e-05
9.23058e-05
9.35667e-05
9.40942e-05
9.38051e-05
9.31969e-05
9.20675e-05
9.21908e-05
9.32277e-05
9.20732e-05
9.37794e-05
9.40951e-05
9.41335e-05
8.08099e-05
8.81746e-05
9.41437e-05
8.83162e-05
9.41058e-05
9.41273e-05
8.82882e-05
8.08171e-05
9.4147e-05
9.4136e-05
8.83182e-05
9.40971e-05
9.379e-05
9.22333e-05
9.32281e-05
9.20905e-05
9.32166e-05
9.22328e-05
9.38169e-05
9.74024e-05
9.70839e-05
9.75912e-05
9.75388e-05
9.75848e-05
9.75341e-05
9.74127e-05
0.000130822
0.000130819
0.000130821
0.000155984
0.000155979
0.000130809
0.00013081
0.000130811
0.00015598
0.000155972
0.000130802
0.000130816
0.000109505
0.000130814
0.000130824
0.000155961
0.00015597
9.40805e-05
9.20868e-05
9.23528e-05
9.3535e-05
9.23402e-05
9.35566e-05
9.40722e-05
9.4297e-05
9.43192e-05
8.82979e-05
8.09256e-05
9.43207e-05
9.43333e-05
8.83199e-05
9.40658e-05
9.2028e-05
9.23277e-05
9.35619e-05
9.40875e-05
9.22333e-05
9.35466e-05
9.37148e-05
9.1978e-05
9.31552e-05
9.20178e-05
9.31722e-05
9.17455e-05
9.37095e-05
9.41084e-05
9.41561e-05
8.83268e-05
8.08661e-05
9.41208e-05
9.41742e-05
8.83421e-05
9.37091e-05
9.20368e-05
9.31671e-05
9.18645e-05
9.37436e-05
9.31611e-05
9.19172e-05
9.412e-05
8.83103e-05
8.82946e-05
9.41054e-05
9.73869e-05
9.71534e-05
9.75756e-05
9.75587e-05
9.7575e-05
9.75579e-05
9.73859e-05
9.69973e-05
9.70558e-05
9.74897e-05
9.74869e-05
9.69981e-05
9.74825e-05
9.74796e-05
9.69594e-05
9.70219e-05
9.74995e-05
9.75038e-05
9.69298e-05
9.75052e-05
9.75103e-05
9.46612e-05
9.2931e-05
9.44974e-05
9.35629e-05
9.28708e-05
9.45049e-05
9.46533e-05
9.44773e-05
9.4278e-05
8.09512e-05
8.85577e-05
8.86075e-05
9.42852e-05
9.44866e-05
9.44906e-05
8.85942e-05
8.09415e-05
9.42808e-05
8.85843e-05
9.42731e-05
9.44764e-05
9.46314e-05
9.3646e-05
9.28796e-05
9.44694e-05
9.2807e-05
9.44658e-05
9.46512e-05
9.44243e-05
9.25868e-05
9.4354e-05
9.3369e-05
9.27168e-05
9.43679e-05
9.44109e-05
9.43054e-05
9.42068e-05
8.09657e-05
8.82411e-05
8.81952e-05
9.42147e-05
9.43283e-05
9.43267e-05
8.82169e-05
8.0949e-05
9.42144e-05
8.81486e-05
9.42932e-05
9.42055e-05
9.4401e-05
9.34735e-05
9.27182e-05
9.43465e-05
9.27301e-05
9.43409e-05
9.44186e-05
9.46815e-05
9.30175e-05
9.45325e-05
9.37947e-05
9.46942e-05
9.30545e-05
9.45258e-05
9.4505e-05
9.42798e-05
8.09029e-05
8.85623e-05
9.42723e-05
8.85991e-05
9.44964e-05
9.44837e-05
8.86215e-05
9.42736e-05
8.0943e-05
9.42814e-05
9.44956e-05
8.86578e-05
9.47303e-05
9.37286e-05
9.30983e-05
9.45437e-05
9.31974e-05
9.45579e-05
9.47195e-05
9.44158e-05
9.26834e-05
9.43776e-05
9.35047e-05
9.44348e-05
9.26942e-05
9.43703e-05
9.43175e-05
9.42193e-05
8.095e-05
8.83543e-05
8.8246e-05
9.42098e-05
9.43134e-05
9.42948e-05
8.82733e-05
9.421e-05
8.09599e-05
9.43197e-05
8.83326e-05
9.42177e-05
9.44473e-05
9.34342e-05
9.26106e-05
9.43774e-05
9.27594e-05
9.43917e-05
9.44324e-05
9.74537e-05
9.68758e-05
9.76047e-05
9.76954e-05
9.7701e-05
9.76003e-05
9.7458e-05
9.74509e-05
9.69681e-05
9.76058e-05
9.7695e-05
9.76073e-05
9.74484e-05
9.76948e-05
9.37463e-05
9.22084e-05
9.32693e-05
9.21948e-05
9.20797e-05
9.32826e-05
9.37361e-05
9.40324e-05
9.41077e-05
8.07917e-05
8.82373e-05
8.82836e-05
9.4123e-05
9.40478e-05
9.40554e-05
8.82863e-05
8.08016e-05
9.41313e-05
8.82582e-05
9.41187e-05
9.40408e-05
9.37308e-05
9.22281e-05
9.20514e-05
9.32705e-05
9.20836e-05
9.32619e-05
9.3752e-05
9.39812e-05
9.34832e-05
9.2331e-05
9.25076e-05
9.34992e-05
9.21509e-05
9.39738e-05
9.41485e-05
9.4154e-05
8.08828e-05
8.82829e-05
8.82586e-05
9.41713e-05
9.41642e-05
9.41579e-05
8.82347e-05
8.08348e-05
9.41786e-05
8.82072e-05
9.41541e-05
9.41664e-05
9.39608e-05
9.25317e-05
9.34875e-05
9.21641e-05
9.34782e-05
9.22393e-05
9.39816e-05
9.374e-05
9.21056e-05
9.32954e-05
9.20968e-05
9.37615e-05
9.20122e-05
9.32795e-05
9.40703e-05
9.4147e-05
8.0764e-05
8.83178e-05
9.41368e-05
8.83105e-05
9.40674e-05
9.40481e-05
8.82544e-05
9.41297e-05
8.07387e-05
9.41426e-05
9.4063e-05
8.81908e-05
9.37796e-05
9.2031e-05
9.21766e-05
9.32879e-05
9.21812e-05
9.32981e-05
9.37622e-05
9.3983e-05
9.35174e-05
9.23156e-05
9.25244e-05
9.4001e-05
9.35049e-05
9.23778e-05
9.41804e-05
9.41931e-05
8.08347e-05
8.83832e-05
8.83193e-05
9.41806e-05
9.41774e-05
9.41643e-05
8.82012e-05
9.41786e-05
8.08087e-05
9.41693e-05
8.83146e-05
9.41889e-05
9.4022e-05
9.24e-05
9.35184e-05
9.23123e-05
9.35276e-05
9.24189e-05
9.40028e-05
9.4047e-05
9.35963e-05
9.22405e-05
9.25586e-05
9.36092e-05
9.21647e-05
9.40252e-05
9.42088e-05
9.4193e-05
8.08587e-05
8.83812e-05
9.42063e-05
8.83176e-05
9.42249e-05
9.42285e-05
8.83139e-05
8.08177e-05
9.42128e-05
9.42016e-05
8.8313e-05
9.42083e-05
9.40331e-05
9.25748e-05
9.35951e-05
9.20741e-05
9.35874e-05
9.21952e-05
9.40603e-05
9.4056e-05
9.21033e-05
9.35704e-05
9.23233e-05
9.40819e-05
9.21392e-05
9.35592e-05
9.431e-05
9.43284e-05
8.09151e-05
8.82335e-05
9.42931e-05
9.43204e-05
8.82878e-05
9.43116e-05
8.8303e-05
9.4323e-05
8.08819e-05
9.43125e-05
9.43309e-05
8.83209e-05
9.40821e-05
9.23529e-05
9.23518e-05
9.35564e-05
9.40713e-05
9.20773e-05
9.35738e-05
9.40212e-05
9.36183e-05
9.2194e-05
9.25775e-05
9.40429e-05
9.36049e-05
9.21257e-05
9.42272e-05
9.42068e-05
8.09065e-05
8.83924e-05
8.83349e-05
9.42004e-05
9.42212e-05
9.42063e-05
8.82336e-05
9.42059e-05
8.08749e-05
9.42192e-05
8.83298e-05
9.42119e-05
9.40579e-05
9.2509e-05
9.36043e-05
9.23281e-05
9.36196e-05
9.22696e-05
9.40438e-05
9.7397e-05
9.67348e-05
9.75616e-05
9.75431e-05
9.75408e-05
9.75606e-05
9.74056e-05
9.74082e-05
9.66651e-05
9.75668e-05
9.75456e-05
9.75698e-05
9.73986e-05
9.7547e-05
9.38161e-05
9.31935e-05
9.21012e-05
9.21252e-05
9.32171e-05
9.20079e-05
9.37988e-05
9.40677e-05
9.40868e-05
8.07568e-05
8.81183e-05
9.40958e-05
8.81441e-05
9.40877e-05
9.4078e-05
8.81047e-05
8.07016e-05
9.40925e-05
9.4083e-05
8.81019e-05
9.40531e-05
9.38006e-05
9.20189e-05
9.32256e-05
9.22364e-05
9.32054e-05
9.21574e-05
9.38216e-05
9.37521e-05
9.32083e-05
9.20549e-05
9.19573e-05
9.37927e-05
9.31777e-05
9.1928e-05
9.41246e-05
9.41619e-05
8.08191e-05
8.83376e-05
9.41148e-05
9.41492e-05
8.83345e-05
9.41034e-05
8.8336e-05
9.41441e-05
8.0818e-05
9.41276e-05
9.41546e-05
8.8347e-05
9.37689e-05
9.19817e-05
9.31601e-05
9.18904e-05
9.37343e-05
9.31846e-05
9.19077e-05
9.37869e-05
9.32096e-05
9.20445e-05
9.1904e-05
9.38128e-05
9.31854e-05
9.20173e-05
9.40682e-05
9.41074e-05
8.07767e-05
8.82321e-05
8.81927e-05
9.40935e-05
9.40751e-05
9.40614e-05
8.80792e-05
9.40894e-05
8.07648e-05
9.40699e-05
8.82423e-05
9.41003e-05
9.3813e-05
9.20346e-05
9.31802e-05
9.22056e-05
9.31972e-05
9.22371e-05
9.37923e-05
9.74106e-05
9.70497e-05
9.75918e-05
9.75424e-05
9.74063e-05
9.75896e-05
9.7546e-05
9.45085e-05
9.42783e-05
8.85547e-05
8.08319e-05
8.85819e-05
9.45196e-05
9.42875e-05
9.47386e-05
9.36644e-05
9.29123e-05
9.45709e-05
9.31046e-05
9.47515e-05
9.45534e-05
9.43072e-05
9.42172e-05
8.83601e-05
8.09296e-05
9.43239e-05
8.83773e-05
9.4227e-05
9.44294e-05
9.34048e-05
9.26931e-05
9.44063e-05
9.44546e-05
9.27058e-05
9.4395e-05
9.40752e-05
9.41467e-05
8.82887e-05
8.07634e-05
8.8405e-05
9.40846e-05
9.41592e-05
9.37695e-05
9.21449e-05
9.21657e-05
9.33314e-05
9.21242e-05
9.37881e-05
9.33215e-05
9.41869e-05
9.41945e-05
8.83739e-05
8.08754e-05
9.41981e-05
8.83555e-05
9.42065e-05
9.40115e-05
9.27502e-05
9.35603e-05
9.22728e-05
9.40287e-05
9.35519e-05
9.2458e-05
9.40757e-05
9.23981e-05
9.36075e-05
9.23554e-05
9.36267e-05
9.23994e-05
9.40708e-05
9.42343e-05
9.42015e-05
8.83553e-05
8.08751e-05
9.42095e-05
9.42446e-05
8.83939e-05
9.4049e-05
9.24211e-05
9.3625e-05
9.22606e-05
9.36119e-05
9.40673e-05
9.2329e-05
9.42571e-05
8.84245e-05
8.08651e-05
9.42087e-05
9.41993e-05
8.83909e-05
9.42485e-05
9.38018e-05
9.19782e-05
9.31911e-05
9.23006e-05
9.32042e-05
9.22572e-05
9.37894e-05
9.40796e-05
9.41073e-05
8.83243e-05
8.08101e-05
9.41179e-05
9.40807e-05
8.82624e-05
9.37868e-05
9.21226e-05
9.31981e-05
9.23106e-05
9.31925e-05
9.38095e-05
9.23213e-05
9.40956e-05
8.82554e-05
8.07939e-05
9.41177e-05
9.41091e-05
8.83446e-05
9.40844e-05
9.62276e-05
9.61774e-05
9.61828e-05
4.95422e-05
8.05443e-05
2.34725e-05
6.78309e-05
6.7817e-05
2.34714e-05
8.04514e-05
4.95348e-05
2.00416e-05
4.95413e-05
7.2492e-05
7.24759e-05
2.00434e-05
2.34709e-05
8.61322e-05
9.20698e-05
6.78069e-05
4.73464e-05
9.20597e-05
4.73455e-05
8.61156e-05
8.6091e-05
9.19772e-05
6.78155e-05
4.73533e-05
4.73525e-05
9.1882e-05
8.60932e-05
7.50587e-05
2.14016e-05
2.14038e-05
2.13998e-05
2.1402e-05
7.50638e-05
2.347e-05
2.004e-05
4.95341e-05
7.24363e-05
7.24217e-05
2.00419e-05
9.65456e-05
9.63364e-05
9.71117e-05
9.70597e-05
9.71081e-05
9.70556e-05
9.65627e-05
9.39288e-05
9.3955e-05
8.05345e-05
8.81594e-05
8.81492e-05
9.39415e-05
9.39268e-05
9.3822e-05
9.38831e-05
8.04788e-05
8.79399e-05
9.3864e-05
8.7991e-05
9.38192e-05
0.000109512
9.61921e-05
9.64327e-05
9.66974e-05
0.000109396
9.61815e-05
9.63628e-05
9.59527e-05
0.000109429
9.62563e-05
9.64661e-05
9.63281e-05
0.000109433
9.62959e-05
9.64925e-05
9.62601e-05
0.000109447
9.63185e-05
9.65371e-05
9.53319e-05
0.000109445
9.63356e-05
9.65502e-05
9.51791e-05
0.000109454
9.63746e-05
9.65798e-05
9.55673e-05
0.00010946
9.63939e-05
9.65986e-05
9.52569e-05
0.000109474
9.64187e-05
9.66202e-05
9.55904e-05
0.000109499
9.64528e-05
9.66556e-05
9.6208e-05
0.000109502
9.64879e-05
9.66761e-05
9.61939e-05
0.00010948
9.65029e-05
9.66215e-05
9.61192e-05
0.000109468
9.65402e-05
9.65815e-05
9.64773e-05
0.000109476
9.65694e-05
9.65374e-05
9.67155e-05
0.000109499
9.65871e-05
9.64989e-05
9.68849e-05
0.000109515
9.65373e-05
9.64685e-05
9.69909e-05
0.000109517
9.65342e-05
9.64674e-05
9.70851e-05
0.00010951
9.65361e-05
9.64554e-05
9.70701e-05
0.000109504
9.65622e-05
9.64471e-05
9.65881e-05
0.00010948
9.65601e-05
9.64413e-05
9.67746e-05
0.000109474
9.65855e-05
9.64207e-05
9.69042e-05
0.000109457
9.66116e-05
9.63985e-05
9.69122e-05
0.000109474
9.66349e-05
9.64049e-05
9.70033e-05
0.000109501
9.66435e-05
9.63955e-05