/*--------------------------------*- C++ -*----------------------------------*\
| =========                 |                                                 |
| \\      /  F ield         | OpenFOAM: The Open Source CFD Toolbox           |
|  \\    /   O peration     | Version:  2312                                  |
|   \\  /    A nd           | Website:  www.openfoam.com                      |
|    \\/     M anipulation  |                                                 |
\*---------------------------------------------------------------------------*/
FoamFile
{
    version     2.0;
    format      ascii;
    arch        "LSB;label=32;scalar=64";
    class       volScalarField;
    location    "1000";
    object      epsilon;
}
// * * * * * * * * * * * * * * * * * * * * * * * * * * * * * * * * * * * * * //

dimensions      [0 2 -3 0 0 0 0];

internalField   nonuniform List<scalar> 
172512
(
4.9917e-07
4.99974e-07
4.99974e-07
4.99867e-07
4.45574e-07
4.54107e-07
4.54107e-07
4.63745e-07
4.03788e-07
4.18744e-07
4.18746e-07
4.39534e-07
3.68405e-07
3.88705e-07
3.88708e-07
4.17793e-07
3.38054e-07
3.62209e-07
3.62212e-07
3.96187e-07
3.11679e-07
3.38348e-07
3.38352e-07
3.74663e-07
2.885e-07
3.16691e-07
3.16695e-07
3.53771e-07
2.67943e-07
2.97059e-07
2.97063e-07
3.34191e-07
2.49595e-07
2.79396e-07
2.794e-07
3.16513e-07
2.33147e-07
2.63696e-07
2.637e-07
3.0118e-07
2.18372e-07
2.49965e-07
2.49969e-07
2.88504e-07
2.05093e-07
2.38203e-07
2.38208e-07
2.787e-07
1.93172e-07
2.28412e-07
2.28416e-07
2.71875e-07
1.82496e-07
2.20598e-07
2.20603e-07
2.68159e-07
1.72975e-07
2.1477e-07
2.14774e-07
2.67642e-07
1.64535e-07
2.10936e-07
2.10941e-07
2.70499e-07
1.57114e-07
2.09107e-07
2.09112e-07
2.76705e-07
1.50659e-07
2.09296e-07
2.09302e-07
2.86287e-07
1.45126e-07
2.11549e-07
2.11558e-07
2.99232e-07
1.40479e-07
2.15888e-07
2.15895e-07
3.15604e-07
1.36691e-07
2.22327e-07
2.22337e-07
3.3537e-07
1.33732e-07
2.3088e-07
2.30891e-07
3.58401e-07
1.31589e-07
2.41545e-07
2.41556e-07
3.84515e-07
1.30242e-07
2.54304e-07
2.54314e-07
4.13513e-07
1.29678e-07
2.6909e-07
2.69122e-07
4.4507e-07
1.299e-07
2.85864e-07
2.85892e-07
4.7874e-07
1.30899e-07
3.04652e-07
3.04659e-07
5.14156e-07
1.32698e-07
3.25152e-07
3.25151e-07
5.51016e-07
1.35201e-07
3.46939e-07
3.47075e-07
5.88174e-07
1.38426e-07
3.70718e-07
3.70686e-07
6.2533e-07
1.4251e-07
3.96044e-07
3.96058e-07
6.64025e-07
1.47363e-07
4.21725e-07
4.22353e-07
7.01404e-07
1.5304e-07
4.49097e-07
4.49277e-07
7.38429e-07
1.60646e-07
4.79018e-07
4.77921e-07
7.76995e-07
1.67689e-07
5.10205e-07
5.09771e-07
8.12639e-07
1.72097e-07
5.33807e-07
5.43711e-07
8.45185e-07
1.85995e-07
5.58189e-07
5.63122e-07
8.73778e-07
1.94597e-07
6.0636e-07
5.81886e-07
9.1341e-07
1.91046e-07
6.4442e-07
6.0959e-07
9.50887e-07
1.95277e-07
6.59226e-07
6.66935e-07
9.5038e-07
2.48739e-07
6.51846e-07
7.21042e-07
9.50861e-07
2.70572e-07
6.39516e-07
6.97274e-07
1.00064e-06
2.38424e-07
7.5356e-07
6.36996e-07
1.04204e-06
2.23204e-07
7.83181e-07
7.90923e-07
1.02231e-06
2.93492e-07
8.1427e-07
8.78921e-07
1.15468e-06
3.5103e-07
8.69989e-07
8.14699e-07
1.14395e-06
2.96582e-07
8.29146e-07
8.20133e-07
1.06079e-06
3.05422e-07
8.27923e-07
8.2222e-07
1.15361e-06
4.15125e-07
9.25854e-07
9.74786e-07
1.2258e-06
4.18643e-07
9.97327e-07
1.00656e-06
1.29011e-06
3.55815e-07
9.29734e-07
8.68609e-07
1.22845e-06
3.38379e-07
8.67742e-07
8.68578e-07
1.11809e-06
3.92316e-07
9.30446e-07
9.86194e-07
1.17485e-06
4.48844e-07
1.02555e-06
1.02735e-06
1.28957e-06
4.6679e-07
1.05306e-06
1.0309e-06
1.31631e-06
4.71258e-07
1.04636e-06
1.03779e-06
1.30385e-06
4.76219e-07
1.04456e-06
1.04715e-06
1.3034e-06
4.8679e-07
1.06132e-06
1.0656e-06
1.31501e-06
5.01882e-07
1.07582e-06
1.07568e-06
1.32263e-06
5.17398e-07
1.08709e-06
1.08721e-06
1.33131e-06
5.32093e-07
1.10398e-06
1.10364e-06
1.34695e-06
5.46159e-07
1.11468e-06
1.11469e-06
1.35666e-06
5.60305e-07
1.12351e-06
1.12436e-06
1.36448e-06
5.73432e-07
1.13388e-06
1.13309e-06
1.37117e-06
5.83859e-07
1.14173e-06
1.14158e-06
1.37886e-06
5.94349e-07
1.14992e-06
1.15111e-06
1.38715e-06
6.06181e-07
1.15812e-06
1.15816e-06
1.39327e-06
6.16024e-07
1.16401e-06
1.16356e-06
1.39823e-06
6.25201e-07
1.17069e-06
1.17067e-06
1.40441e-06
6.33688e-07
1.17508e-06
1.17567e-06
1.40834e-06
6.41592e-07
1.17994e-06
1.17987e-06
1.41259e-06
6.48705e-07
1.18406e-06
1.18438e-06
1.4167e-06
6.5591e-07
1.18817e-06
1.18815e-06
1.42041e-06
6.62218e-07
1.19108e-06
1.1909e-06
1.42285e-06
6.66989e-07
1.19269e-06
1.19321e-06
1.42509e-06
6.7191e-07
1.19463e-06
1.19459e-06
1.42665e-06
6.76813e-07
1.19673e-06
1.19683e-06
1.42879e-06
6.802e-07
1.19761e-06
1.19769e-06
1.4306e-06
6.83104e-07
1.19712e-06
1.19715e-06
1.42947e-06
6.86348e-07
1.19785e-06
1.19812e-06
1.43084e-06
6.8886e-07
1.19827e-06
1.19848e-06
1.43232e-06
6.90397e-07
1.19685e-06
1.19671e-06
1.4306e-06
6.90686e-07
1.19444e-06
1.19462e-06
1.42831e-06
6.92217e-07
1.19389e-06
1.19413e-06
1.42894e-06
6.94708e-07
1.1951e-06
1.1951e-06
1.43103e-06
6.93071e-07
1.18988e-06
1.19022e-06
1.42642e-06
6.91711e-07
1.18545e-06
1.18525e-06
1.42056e-06
6.9275e-07
1.18639e-06
1.18642e-06
1.42304e-06
6.92372e-07
1.18453e-06
1.18519e-06
1.42286e-06
6.91289e-07
1.18007e-06
1.17999e-06
1.41772e-06
6.89838e-07
1.17653e-06
1.17647e-06
1.41458e-06
6.87465e-07
1.17323e-06
1.1735e-06
1.41227e-06
6.86586e-07
1.17068e-06
1.17085e-06
1.40997e-06
6.83527e-07
1.16454e-06
1.16443e-06
1.40494e-06
7.39263e-07
1.07784e-06
1.07793e-06
1.35348e-06
5.06203e-07
5.05587e-07
5.05586e-07
5.06203e-07
5.05586e-07
5.05586e-07
5.05987e-07
5.05987e-07
5.05987e-07
5.05987e-07
5.05588e-07
5.05588e-07
5.06203e-07
5.05588e-07
5.05587e-07
5.06204e-07
4.99868e-07
4.67259e-07
4.99975e-07
4.99976e-07
4.6413e-07
4.64138e-07
4.99868e-07
4.67258e-07
4.99976e-07
4.99976e-07
4.64134e-07
4.64139e-07
4.99974e-07
4.64124e-07
4.64129e-07
4.99867e-07
4.67261e-07
4.99976e-07
4.64125e-07
4.64134e-07
4.67263e-07
4.63745e-07
4.41544e-07
4.54112e-07
4.5412e-07
4.26998e-07
4.27007e-07
4.63745e-07
4.41543e-07
4.54116e-07
4.54123e-07
4.26998e-07
4.27009e-07
4.54113e-07
4.2699e-07
4.27e-07
4.63745e-07
4.41549e-07
4.54116e-07
4.26992e-07
4.27001e-07
4.41556e-07
4.39527e-07
4.19399e-07
4.18753e-07
4.18761e-07
3.95843e-07
3.95852e-07
4.3953e-07
4.19402e-07
4.18752e-07
4.18764e-07
3.95838e-07
3.95855e-07
4.18757e-07
3.95833e-07
3.95848e-07
4.39531e-07
4.19407e-07
4.18755e-07
3.95835e-07
3.95843e-07
4.19415e-07
4.17778e-07
3.97737e-07
3.88717e-07
3.88725e-07
3.68574e-07
3.68582e-07
4.17781e-07
3.97742e-07
3.8871e-07
3.88728e-07
3.68564e-07
3.68585e-07
3.88722e-07
3.68561e-07
3.68581e-07
4.17786e-07
3.97748e-07
3.88716e-07
3.68564e-07
3.68572e-07
3.97758e-07
3.96168e-07
3.76152e-07
3.62222e-07
3.6223e-07
3.4411e-07
3.44117e-07
3.96173e-07
3.76158e-07
3.62212e-07
3.62234e-07
3.44097e-07
3.44121e-07
3.6223e-07
3.44096e-07
3.44118e-07
3.96178e-07
3.76165e-07
3.62219e-07
3.44099e-07
3.44106e-07
3.76175e-07
3.74642e-07
3.55156e-07
3.38363e-07
3.3837e-07
3.21928e-07
3.21934e-07
3.74648e-07
3.55162e-07
3.38349e-07
3.38374e-07
3.21912e-07
3.21937e-07
3.38371e-07
3.21912e-07
3.21936e-07
3.74654e-07
3.55169e-07
3.38358e-07
3.21915e-07
3.21921e-07
3.5518e-07
3.53749e-07
3.35422e-07
3.16708e-07
3.16713e-07
3.01799e-07
3.01804e-07
3.53755e-07
3.35429e-07
3.16691e-07
3.16717e-07
3.01781e-07
3.01808e-07
3.16716e-07
3.01783e-07
3.01807e-07
3.53762e-07
3.35436e-07
3.16701e-07
3.01786e-07
3.01791e-07
3.35446e-07
3.34168e-07
3.17546e-07
2.97077e-07
2.97082e-07
2.83646e-07
2.83651e-07
3.34175e-07
3.17552e-07
2.97058e-07
2.97085e-07
2.83626e-07
2.83655e-07
2.97085e-07
2.83629e-07
2.83654e-07
3.34182e-07
3.1756e-07
2.97068e-07
2.83632e-07
2.83637e-07
3.1757e-07
3.1649e-07
3.01977e-07
2.79415e-07
2.79419e-07
2.67455e-07
2.6746e-07
3.16498e-07
3.01982e-07
2.79394e-07
2.79422e-07
2.67434e-07
2.67464e-07
2.79423e-07
2.67437e-07
2.67463e-07
3.16505e-07
3.0199e-07
2.79405e-07
2.6744e-07
2.67445e-07
3.02002e-07
3.01156e-07
2.89033e-07
2.63715e-07
2.6372e-07
2.53233e-07
2.53237e-07
3.01164e-07
2.89038e-07
2.63693e-07
2.63723e-07
2.5321e-07
2.53241e-07
2.63723e-07
2.53213e-07
2.5324e-07
3.01171e-07
2.89046e-07
2.63704e-07
2.53216e-07
2.53221e-07
2.8906e-07
2.88479e-07
2.78933e-07
2.49985e-07
2.4999e-07
2.4098e-07
2.40985e-07
2.88487e-07
2.7894e-07
2.49962e-07
2.49993e-07
2.40955e-07
2.40988e-07
2.49993e-07
2.40959e-07
2.40987e-07
2.88493e-07
2.7895e-07
2.49973e-07
2.40962e-07
2.40967e-07
2.78963e-07
2.78672e-07
2.7181e-07
2.38226e-07
2.38231e-07
2.30696e-07
2.30702e-07
2.78681e-07
2.71816e-07
2.38201e-07
2.38234e-07
2.3067e-07
2.30705e-07
2.38233e-07
2.30673e-07
2.30703e-07
2.78688e-07
2.71825e-07
2.38213e-07
2.30676e-07
2.30683e-07
2.71836e-07
2.71848e-07
2.67834e-07
2.28436e-07
2.28443e-07
2.22388e-07
2.22397e-07
2.71857e-07
2.67845e-07
2.2841e-07
2.28445e-07
2.22362e-07
2.224e-07
2.28443e-07
2.22364e-07
2.22396e-07
2.71865e-07
2.67854e-07
2.28422e-07
2.22367e-07
2.22375e-07
2.67869e-07
2.68126e-07
2.6695e-07
2.20624e-07
2.20633e-07
2.16063e-07
2.16074e-07
2.6814e-07
2.66963e-07
2.20597e-07
2.20636e-07
2.16035e-07
2.16078e-07
2.20632e-07
2.16036e-07
2.16072e-07
2.68147e-07
2.66974e-07
2.20611e-07
2.1604e-07
2.1605e-07
2.6699e-07
2.676e-07
2.69119e-07
2.14797e-07
2.1481e-07
2.11728e-07
2.11745e-07
2.67619e-07
2.69144e-07
2.14769e-07
2.14812e-07
2.117e-07
2.11747e-07
2.14807e-07
2.11701e-07
2.11738e-07
2.67628e-07
2.69152e-07
2.14784e-07
2.11704e-07
2.11717e-07
2.69172e-07
2.70448e-07
2.74633e-07
2.10964e-07
2.10982e-07
2.09392e-07
2.09416e-07
2.70474e-07
2.74652e-07
2.10937e-07
2.10984e-07
2.09367e-07
2.09417e-07
2.10974e-07
2.09363e-07
2.09402e-07
2.70482e-07
2.74664e-07
2.10954e-07
2.09369e-07
2.09385e-07
2.74684e-07
2.76655e-07
2.83519e-07
2.09134e-07
2.0916e-07
2.09103e-07
2.09131e-07
2.76678e-07
2.83535e-07
2.09111e-07
2.0916e-07
2.09079e-07
2.09132e-07
2.09145e-07
2.09072e-07
2.09112e-07
2.76688e-07
2.83547e-07
2.09128e-07
2.09077e-07
2.09097e-07
2.83568e-07
2.86242e-07
2.95787e-07
2.0933e-07
2.09358e-07
2.10824e-07
2.10856e-07
2.86263e-07
2.95794e-07
2.09305e-07
2.09359e-07
2.10798e-07
2.10857e-07
2.09338e-07
2.10786e-07
2.10828e-07
2.8627e-07
2.95813e-07
2.09324e-07
2.10794e-07
2.10817e-07
2.95831e-07
2.99189e-07
3.1146e-07
2.11591e-07
2.11621e-07
2.1464e-07
2.14683e-07
2.992e-07
3.11479e-07
2.11565e-07
2.11623e-07
2.14614e-07
2.14682e-07
2.11593e-07
2.14602e-07
2.14648e-07
2.99219e-07
3.11496e-07
2.11582e-07
2.14609e-07
2.14638e-07
3.11514e-07
3.15549e-07
3.30527e-07
2.15927e-07
2.1597e-07
2.2057e-07
2.20606e-07
3.15575e-07
3.3054e-07
2.15901e-07
2.1597e-07
2.20541e-07
2.20609e-07
2.15937e-07
2.20518e-07
2.20572e-07
3.15588e-07
3.30552e-07
2.15926e-07
2.20526e-07
2.20563e-07
3.30591e-07
3.35323e-07
3.52886e-07
2.22386e-07
2.22419e-07
2.2861e-07
2.28645e-07
3.35321e-07
3.52876e-07
2.22355e-07
2.22422e-07
2.28574e-07
2.2865e-07
2.22384e-07
2.28549e-07
2.28611e-07
3.35335e-07
3.52912e-07
2.22375e-07
2.28558e-07
2.28602e-07
3.52953e-07
3.5834e-07
3.78312e-07
2.30944e-07
2.30982e-07
2.38741e-07
2.38786e-07
3.58331e-07
3.78335e-07
2.30906e-07
2.30986e-07
2.38699e-07
2.38797e-07
2.30948e-07
2.38681e-07
2.38758e-07
3.58365e-07
3.78372e-07
2.30938e-07
2.38694e-07
2.38744e-07
3.7842e-07
3.84419e-07
4.06742e-07
2.41609e-07
2.41655e-07
2.51005e-07
2.51039e-07
3.84443e-07
4.06771e-07
2.41565e-07
2.41664e-07
2.50957e-07
2.5105e-07
2.4162e-07
2.50922e-07
2.50997e-07
3.84475e-07
4.06785e-07
2.41604e-07
2.50933e-07
2.50984e-07
4.06811e-07
4.13458e-07
4.37679e-07
2.54389e-07
2.54428e-07
2.65298e-07
2.65349e-07
4.13485e-07
4.37726e-07
2.54338e-07
2.54436e-07
2.65242e-07
2.65369e-07
2.54377e-07
2.65217e-07
2.65311e-07
4.13492e-07
4.37768e-07
2.54364e-07
2.65238e-07
2.653e-07
4.37819e-07
4.44922e-07
4.70836e-07
2.69183e-07
2.69222e-07
2.81579e-07
2.81613e-07
4.44962e-07
4.70832e-07
2.69125e-07
2.69254e-07
2.81519e-07
2.81644e-07
2.69208e-07
2.81495e-07
2.81613e-07
4.45021e-07
4.70913e-07
2.69194e-07
2.81516e-07
2.81597e-07
4.71031e-07
4.78558e-07
5.05785e-07
2.85944e-07
2.85986e-07
2.9978e-07
2.99912e-07
4.7855e-07
5.06005e-07
2.85883e-07
2.86018e-07
2.9971e-07
2.99922e-07
2.85997e-07
2.99772e-07
2.99828e-07
4.78632e-07
5.06044e-07
2.85976e-07
2.99782e-07
2.998e-07
5.06016e-07
5.13935e-07
5.42446e-07
3.04653e-07
3.04802e-07
3.19971e-07
3.20022e-07
5.14196e-07
5.42512e-07
3.04581e-07
3.04809e-07
3.1989e-07
3.2007e-07
3.04692e-07
3.1988e-07
3.19985e-07
5.14235e-07
5.42594e-07
3.04658e-07
3.19898e-07
3.19946e-07
5.42573e-07
5.50946e-07
5.79697e-07
3.25295e-07
3.25299e-07
3.41735e-07
3.41504e-07
5.50899e-07
5.79112e-07
3.2521e-07
3.25328e-07
3.41647e-07
3.41645e-07
3.25254e-07
3.41342e-07
3.41677e-07
5.5099e-07
5.79339e-07
3.25217e-07
3.41456e-07
3.41641e-07
5.79608e-07
5.88305e-07
6.16939e-07
3.47381e-07
3.47114e-07
3.64833e-07
3.64808e-07
5.8765e-07
6.16659e-07
3.47294e-07
3.47271e-07
3.64744e-07
3.64787e-07
3.47294e-07
3.6461e-07
3.64578e-07
5.87892e-07
6.16649e-07
3.47254e-07
3.64616e-07
3.64539e-07
6.16583e-07
6.25684e-07
6.54619e-07
3.70808e-07
3.70922e-07
3.89494e-07
3.89788e-07
6.25585e-07
6.55098e-07
3.70717e-07
3.70831e-07
3.89364e-07
3.89695e-07
3.70647e-07
3.89646e-07
3.89698e-07
6.25485e-07
6.5499e-07
3.70595e-07
3.89589e-07
3.89599e-07
6.54979e-07
6.63565e-07
6.92294e-07
3.95913e-07
3.96186e-07
4.15646e-07
4.15439e-07
6.63995e-07
6.91843e-07
3.95772e-07
3.96186e-07
4.15493e-07
4.15926e-07
3.96208e-07
4.15193e-07
4.15693e-07
6.64018e-07
6.92895e-07
3.96098e-07
4.15675e-07
4.15585e-07
6.92638e-07
7.01256e-07
7.30087e-07
4.22291e-07
4.2201e-07
4.42693e-07
4.42246e-07
7.00554e-07
7.28486e-07
4.22156e-07
4.22661e-07
4.42618e-07
4.42834e-07
4.22234e-07
4.4207e-07
4.42684e-07
7.01816e-07
7.29404e-07
4.22136e-07
4.42512e-07
4.4263e-07
7.29437e-07
7.39333e-07
7.71777e-07
4.49882e-07
4.49162e-07
4.73453e-07
4.71268e-07
7.37484e-07
7.67088e-07
4.49823e-07
4.49539e-07
4.73326e-07
4.70347e-07
4.49739e-07
4.71297e-07
4.71594e-07
7.38021e-07
7.65633e-07
4.49695e-07
4.70477e-07
4.71595e-07
7.67662e-07
7.81896e-07
8.08961e-07
4.81937e-07
4.79125e-07
5.05306e-07
5.03232e-07
7.76539e-07
8.05759e-07
4.81743e-07
4.77666e-07
5.04852e-07
5.01449e-07
4.79186e-07
5.02722e-07
5.01428e-07
7.74832e-07
8.05369e-07
4.79167e-07
5.01515e-07
5.01228e-07
8.04341e-07
8.15802e-07
8.29565e-07
5.10727e-07
5.10707e-07
5.23773e-07
5.28404e-07
8.14239e-07
8.33945e-07
5.10191e-07
5.09975e-07
5.23427e-07
5.36147e-07
5.08548e-07
5.28791e-07
5.30552e-07
8.15288e-07
8.46672e-07
5.08154e-07
5.35597e-07
5.29817e-07
8.37095e-07
8.36932e-07
8.78614e-07
5.30565e-07
5.33127e-07
5.62741e-07
5.5082e-07
8.40109e-07
8.59105e-07
5.30545e-07
5.44124e-07
5.63594e-07
5.59975e-07
5.37559e-07
5.50411e-07
5.55967e-07
8.55039e-07
8.69441e-07
5.37177e-07
5.59653e-07
5.5718e-07
8.66184e-07
8.91778e-07
9.17724e-07
5.74494e-07
5.59592e-07
5.99066e-07
5.9562e-07
8.68425e-07
9.11603e-07
5.75397e-07
5.63683e-07
5.99222e-07
5.77629e-07
5.62253e-07
5.92996e-07
5.87755e-07
8.73158e-07
8.81321e-07
5.63486e-07
5.76567e-07
5.87708e-07
9.02793e-07
9.19876e-07
8.85056e-07
6.01369e-07
6.08641e-07
5.95494e-07
6.36788e-07
9.24884e-07
9.5855e-07
6.01249e-07
5.8281e-07
5.94363e-07
6.00431e-07
5.98582e-07
6.37837e-07
6.29131e-07
8.87312e-07
9.05245e-07
5.98076e-07
6.00514e-07
6.27541e-07
9.4432e-07
8.84512e-07
8.8954e-07
5.92914e-07
6.42246e-07
5.97158e-07
6.52667e-07
9.64961e-07
9.70582e-07
5.91492e-07
6.08738e-07
5.9558e-07
6.46386e-07
6.35713e-07
6.56639e-07
6.44431e-07
9.14371e-07
9.65022e-07
6.33852e-07
6.5002e-07
6.4235e-07
9.48892e-07
9.09694e-07
1.04006e-06
6.15208e-07
6.55281e-07
7.08829e-07
6.5741e-07
9.73519e-07
9.516e-07
6.13603e-07
6.63028e-07
7.07138e-07
7.11881e-07
6.45691e-07
6.59266e-07
6.50417e-07
9.81114e-07
1.03667e-06
6.43556e-07
7.12373e-07
6.48102e-07
9.45541e-07
1.06765e-06
1.08786e-06
7.35158e-07
6.52999e-07
7.647e-07
6.41449e-07
9.4862e-07
9.02738e-07
7.34572e-07
7.22553e-07
7.70705e-07
7.24767e-07
6.53902e-07
6.36941e-07
6.87226e-07
1.04606e-06
1.00747e-06
6.52727e-07
7.19242e-07
6.95168e-07
9.85895e-07
1.08356e-06
9.70658e-07
7.58969e-07
6.44189e-07
7.01506e-07
7.27003e-07
9.09752e-07
1.02507e-06
7.67914e-07
7.04342e-07
7.01662e-07
6.4055e-07
7.03037e-07
7.2688e-07
7.39896e-07
9.96713e-07
8.75065e-07
7.11746e-07
6.40353e-07
7.41132e-07
1.04105e-06
9.64122e-07
9.35291e-07
6.87518e-07
7.51754e-07
6.73603e-07
7.82592e-07
1.05058e-06
1.08288e-06
6.82578e-07
6.3603e-07
6.63123e-07
7.32745e-07
7.43338e-07
7.85898e-07
7.376e-07
8.7527e-07
1.03976e-06
7.40725e-07
7.36542e-07
7.26667e-07
1.01493e-06
9.51573e-07
1.10627e-06
6.7897e-07
7.80717e-07
7.88223e-07
7.87492e-07
1.08255e-06
1.09008e-06
6.71301e-07
7.88385e-07
7.99113e-07
8.78378e-07
7.39016e-07
7.89817e-07
8.14184e-07
1.08372e-06
1.20228e-06
7.29744e-07
8.80467e-07
8.24473e-07
1.13162e-06
1.14431e-06
1.21439e-06
8.30281e-07
8.11029e-07
9.03416e-07
8.66336e-07
1.10882e-06
1.1734e-06
8.42082e-07
8.7638e-07
9.0578e-07
8.23051e-07
8.40216e-07
8.66201e-07
8.65495e-07
1.19578e-06
1.09272e-06
8.51767e-07
8.21184e-07
8.70695e-07
1.15301e-06
1.204e-06
1.03096e-06
8.99972e-07
8.72242e-07
7.91826e-07
8.44124e-07
1.17751e-06
1.113e-06
8.98861e-07
8.19073e-07
7.89508e-07
8.24526e-07
8.50345e-07
8.40394e-07
8.02382e-07
1.09061e-06
1.08801e-06
8.48062e-07
8.18472e-07
8.02413e-07
1.05803e-06
1.02027e-06
1.0755e-06
7.69879e-07
8.29428e-07
7.88061e-07
8.13212e-07
1.10935e-06
1.09841e-06
7.69383e-07
8.24634e-07
7.87749e-07
8.14888e-07
8.00639e-07
8.20339e-07
8.44537e-07
1.09155e-06
1.0889e-06
8.01978e-07
8.1755e-07
8.46129e-07
1.13421e-06
1.11906e-06
1.31526e-06
8.51147e-07
8.18225e-07
9.85972e-07
9.00546e-07
1.11185e-06
1.20028e-06
8.48684e-07
8.18239e-07
9.83344e-07
9.40689e-07
8.6223e-07
8.97507e-07
9.13112e-07
1.10143e-06
1.24848e-06
8.60989e-07
9.36788e-07
9.11686e-07
1.21076e-06
1.32724e-06
1.25784e-06
1.00569e-06
9.31798e-07
9.79087e-07
9.96634e-07
1.22402e-06
1.29286e-06
1.00521e-06
9.82024e-07
9.84905e-07
1.02804e-06
9.31573e-07
9.91591e-07
9.82904e-07
1.28077e-06
1.31869e-06
9.32542e-07
1.01968e-06
9.88432e-07
1.2818e-06
1.24853e-06
1.13439e-06
9.53913e-07
1.0004e-06
8.96452e-07
9.51951e-07
1.29653e-06
1.21164e-06
9.56611e-07
1.01124e-06
8.91305e-07
8.90412e-07
9.91901e-07
9.58256e-07
9.78939e-07
1.30589e-06
1.12323e-06
9.96563e-07
8.93788e-07
9.74551e-07
1.23798e-06
1.1311e-06
1.12511e-06
8.83688e-07
9.2423e-07
8.75965e-07
8.70907e-07
1.20205e-06
1.11094e-06
8.77156e-07
8.65241e-07
8.69809e-07
8.49639e-07
9.49967e-07
8.72308e-07
8.81243e-07
1.11046e-06
1.09236e-06
9.44259e-07
8.49835e-07
8.76903e-07
1.11926e-06
1.13836e-06
1.21823e-06
8.85824e-07
8.67806e-07
9.46906e-07
9.10283e-07
1.1121e-06
1.16978e-06
8.81892e-07
8.71642e-07
9.49748e-07
9.67296e-07
8.70831e-07
9.04984e-07
8.87344e-07
1.11647e-06
1.24186e-06
8.68097e-07
9.61472e-07
8.91879e-07
1.15315e-06
1.23769e-06
1.28742e-06
9.68458e-07
9.35765e-07
1.01643e-06
1.00937e-06
1.19104e-06
1.27652e-06
9.72818e-07
9.92204e-07
1.01987e-06
1.02736e-06
9.1677e-07
1.00594e-06
1.00055e-06
1.26352e-06
1.29849e-06
9.219e-07
1.02459e-06
1.00448e-06
1.27218e-06
1.29413e-06
1.29968e-06
1.02487e-06
1.02727e-06
1.03724e-06
1.0501e-06
1.29117e-06
1.31548e-06
1.02666e-06
1.02859e-06
1.03525e-06
1.02863e-06
1.02372e-06
1.05167e-06
1.05272e-06
1.30104e-06
1.29368e-06
1.02618e-06
1.02975e-06
1.05091e-06
1.31458e-06
1.30178e-06
1.30035e-06
1.03915e-06
1.05128e-06
1.0431e-06
1.04763e-06
1.31809e-06
1.30667e-06
1.03683e-06
1.02926e-06
1.04179e-06
1.03582e-06
1.05327e-06
1.04846e-06
1.04617e-06
1.29528e-06
1.29362e-06
1.05108e-06
1.03639e-06
1.04456e-06
1.3028e-06
1.30251e-06
1.30222e-06
1.04428e-06
1.04601e-06
1.04845e-06
1.0443e-06
1.30757e-06
1.29781e-06
1.0434e-06
1.03781e-06
1.04833e-06
1.0445e-06
1.04455e-06
1.04389e-06
1.04466e-06
1.29569e-06
1.29668e-06
1.04339e-06
1.04371e-06
1.04445e-06
1.29993e-06
1.30469e-06
1.30858e-06
1.05034e-06
1.04512e-06
1.0583e-06
1.05654e-06
1.29999e-06
1.30606e-06
1.05034e-06
1.04784e-06
1.05871e-06
1.06104e-06
1.04801e-06
1.05668e-06
1.06043e-06
1.30006e-06
1.30967e-06
1.04826e-06
1.06103e-06
1.06078e-06
1.31101e-06
1.31223e-06
1.31937e-06
1.06173e-06
1.06102e-06
1.07261e-06
1.07299e-06
1.31034e-06
1.31966e-06
1.06216e-06
1.06534e-06
1.07243e-06
1.07354e-06
1.06408e-06
1.07315e-06
1.07275e-06
1.31442e-06
1.32081e-06
1.06449e-06
1.07395e-06
1.07275e-06
1.31997e-06
1.32313e-06
1.33059e-06
1.07614e-06
1.07584e-06
1.08637e-06
1.08391e-06
1.32317e-06
1.32807e-06
1.07574e-06
1.07544e-06
1.08588e-06
1.08367e-06
1.0749e-06
1.08347e-06
1.08319e-06
1.32352e-06
1.32789e-06
1.07471e-06
1.08339e-06
1.08288e-06
1.32721e-06
1.33454e-06
1.34189e-06
1.08966e-06
1.08753e-06
1.0989e-06
1.10011e-06
1.33198e-06
1.34264e-06
1.0893e-06
1.08755e-06
1.0988e-06
1.10008e-06
1.08702e-06
1.10009e-06
1.09981e-06
1.33189e-06
1.34282e-06
1.08675e-06
1.09993e-06
1.09965e-06
1.34258e-06
1.3454e-06
1.35099e-06
1.10179e-06
1.10388e-06
1.1105e-06
1.1123e-06
1.34715e-06
1.35373e-06
1.10167e-06
1.10362e-06
1.11021e-06
1.11197e-06
1.10354e-06
1.11251e-06
1.11242e-06
1.34718e-06
1.35325e-06
1.10339e-06
1.11216e-06
1.11213e-06
1.35345e-06
1.35451e-06
1.36132e-06
1.11348e-06
1.11451e-06
1.12219e-06
1.12107e-06
1.3567e-06
1.36047e-06
1.11318e-06
1.11452e-06
1.12206e-06
1.12199e-06
1.11498e-06
1.12114e-06
1.12212e-06
1.35641e-06
1.3614e-06
1.11469e-06
1.12206e-06
1.12201e-06
1.36138e-06
1.36489e-06
1.3703e-06
1.12495e-06
1.12349e-06
1.13265e-06
1.13152e-06
1.36365e-06
1.36894e-06
1.12487e-06
1.12433e-06
1.13251e-06
1.13111e-06
1.1243e-06
1.13134e-06
1.13061e-06
1.3646e-06
1.36858e-06
1.12424e-06
1.13094e-06
1.13048e-06
1.36822e-06
1.37339e-06
1.37641e-06
1.13486e-06
1.13413e-06
1.14004e-06
1.14025e-06
1.37224e-06
1.37656e-06
1.13464e-06
1.13333e-06
1.13968e-06
1.13961e-06
1.13278e-06
1.14004e-06
1.13964e-06
1.37154e-06
1.37573e-06
1.13258e-06
1.1394e-06
1.1393e-06
1.37564e-06
1.37897e-06
1.38208e-06
1.14154e-06
1.14184e-06
1.14713e-06
1.14738e-06
1.37932e-06
1.38249e-06
1.14121e-06
1.14168e-06
1.14702e-06
1.14853e-06
1.14198e-06
1.14759e-06
1.14893e-06
1.37881e-06
1.38358e-06
1.14167e-06
1.14873e-06
1.14884e-06
1.38399e-06
1.38524e-06
1.39042e-06
1.14947e-06
1.14968e-06
1.15644e-06
1.15637e-06
1.38559e-06
1.39051e-06
1.14941e-06
1.15088e-06
1.15633e-06
1.15672e-06
1.1511e-06
1.15646e-06
1.15643e-06
1.38685e-06
1.39104e-06
1.15105e-06
1.1568e-06
1.15633e-06
1.39071e-06
1.39341e-06
1.39608e-06
1.15834e-06
1.15813e-06
1.16296e-06
1.16257e-06
1.39342e-06
1.39579e-06
1.15819e-06
1.15817e-06
1.16272e-06
1.16216e-06
1.15787e-06
1.16242e-06
1.16235e-06
1.39362e-06
1.39531e-06
1.15773e-06
1.16201e-06
1.16214e-06
1.39549e-06
1.39865e-06
1.40132e-06
1.16442e-06
1.16413e-06
1.169e-06
1.16915e-06
1.39842e-06
1.40154e-06
1.16417e-06
1.16368e-06
1.16872e-06
1.16891e-06
1.1641e-06
1.1692e-06
1.16935e-06
1.39791e-06
1.40124e-06
1.16387e-06
1.16894e-06
1.1691e-06
1.40171e-06
1.404e-06
1.4061e-06
1.17046e-06
1.17063e-06
1.1743e-06
1.17405e-06
1.40428e-06
1.406e-06
1.17021e-06
1.17061e-06
1.17416e-06
1.17465e-06
1.1708e-06
1.17406e-06
1.17415e-06
1.40409e-06
1.4065e-06
1.17056e-06
1.17464e-06
1.17403e-06
1.40603e-06
1.40852e-06
1.41017e-06
1.17547e-06
1.1751e-06
1.17901e-06
1.17872e-06
1.40829e-06
1.40986e-06
1.17536e-06
1.1757e-06
1.17885e-06
1.17879e-06
1.17524e-06
1.17869e-06
1.17894e-06
1.40884e-06
1.41003e-06
1.17514e-06
1.17875e-06
1.17879e-06
1.41006e-06
1.41259e-06
1.41395e-06
1.18014e-06
1.17997e-06
1.18305e-06
1.18312e-06
1.41239e-06
1.41417e-06
1.17993e-06
1.17991e-06
1.18282e-06
1.18328e-06
1.18016e-06
1.18313e-06
1.18334e-06
1.41243e-06
1.41424e-06
1.17998e-06
1.18328e-06
1.18314e-06
1.41437e-06
1.41626e-06
1.41774e-06
1.18398e-06
1.18404e-06
1.18715e-06
1.18706e-06
1.41646e-06
1.41778e-06
1.18378e-06
1.18436e-06
1.18702e-06
1.18725e-06
1.18436e-06
1.18713e-06
1.18744e-06
1.41667e-06
1.41801e-06
1.18419e-06
1.18732e-06
1.18733e-06
1.41809e-06
1.42017e-06
1.42129e-06
1.18825e-06
1.18812e-06
1.19077e-06
1.19064e-06
1.42019e-06
1.42124e-06
1.18809e-06
1.1881e-06
1.19051e-06
1.19033e-06
1.18833e-06
1.19056e-06
1.19025e-06
1.42028e-06
1.42083e-06
1.18819e-06
1.19024e-06
1.19001e-06
1.42085e-06
1.42331e-06
1.42253e-06
1.1913e-06
1.1912e-06
1.19229e-06
1.19227e-06
1.42327e-06
1.42264e-06
1.19104e-06
1.19102e-06
1.19214e-06
1.19276e-06
1.19083e-06
1.19227e-06
1.19274e-06
1.42293e-06
1.42311e-06
1.19059e-06
1.19275e-06
1.1926e-06
1.42301e-06
1.42448e-06
1.42455e-06
1.19264e-06
1.19263e-06
1.19421e-06
1.19402e-06
1.4246e-06
1.42447e-06
1.19252e-06
1.19315e-06
1.19406e-06
1.19411e-06
1.1933e-06
1.19412e-06
1.19429e-06
1.42512e-06
1.42459e-06
1.19319e-06
1.1942e-06
1.19415e-06
1.4248e-06
1.42671e-06
1.42724e-06
1.1949e-06
1.1946e-06
1.19671e-06
1.19636e-06
1.42655e-06
1.42689e-06
1.19471e-06
1.19456e-06
1.19649e-06
1.19639e-06
1.1946e-06
1.19622e-06
1.19618e-06
1.42657e-06
1.42683e-06
1.19443e-06
1.19625e-06
1.19599e-06
1.42665e-06
1.42925e-06
1.42783e-06
1.19705e-06
1.19685e-06
1.19727e-06
1.19752e-06
1.42895e-06
1.4284e-06
1.19685e-06
1.19696e-06
1.19711e-06
1.19764e-06
1.19682e-06
1.19758e-06
1.19788e-06
1.42897e-06
1.42854e-06
1.19664e-06
1.19769e-06
1.19773e-06
1.4288e-06
1.42949e-06
1.42784e-06
1.19723e-06
1.19752e-06
1.19719e-06
1.19718e-06
1.43014e-06
1.42785e-06
1.19707e-06
1.19763e-06
1.197e-06
1.19718e-06
1.1979e-06
1.19723e-06
1.19728e-06
1.43024e-06
1.42777e-06
1.19775e-06
1.19723e-06
1.19711e-06
1.42782e-06
1.42973e-06
1.42932e-06
1.19735e-06
1.19711e-06
1.19814e-06
1.19762e-06
1.42956e-06
1.4288e-06
1.19713e-06
1.19713e-06
1.19796e-06
1.19787e-06
1.19714e-06
1.19749e-06
1.19761e-06
1.42951e-06
1.42902e-06
1.19696e-06
1.19775e-06
1.19744e-06
1.4288e-06
1.43127e-06
1.42999e-06
1.19832e-06
1.19795e-06
1.19834e-06
1.19829e-06
1.43076e-06
1.43016e-06
1.19816e-06
1.19822e-06
1.1982e-06
1.19855e-06
1.19804e-06
1.19829e-06
1.19861e-06
1.43104e-06
1.43044e-06
1.19789e-06
1.19853e-06
1.19847e-06
1.43055e-06
1.43162e-06
1.42907e-06
1.19817e-06
1.19825e-06
1.19736e-06
1.19729e-06
1.43191e-06
1.42907e-06
1.19803e-06
1.19847e-06
1.19717e-06
1.1972e-06
1.19859e-06
1.19735e-06
1.19741e-06
1.43213e-06
1.42897e-06
1.19846e-06
1.19724e-06
1.19723e-06
1.42909e-06
1.43064e-06
1.42696e-06
1.19696e-06
1.19686e-06
1.19507e-06
1.19507e-06
1.43061e-06
1.42703e-06
1.19675e-06
1.19673e-06
1.19487e-06
1.19515e-06
1.19679e-06
1.19499e-06
1.19496e-06
1.4305e-06
1.42698e-06
1.1966e-06
1.19507e-06
1.19478e-06
1.42678e-06
1.42847e-06
1.42626e-06
1.19447e-06
1.19449e-06
1.19378e-06
1.19367e-06
1.42854e-06
1.42632e-06
1.19428e-06
1.19467e-06
1.19363e-06
1.19395e-06
1.19453e-06
1.19373e-06
1.19411e-06
1.42851e-06
1.4267e-06
1.19436e-06
1.19402e-06
1.19399e-06
1.42692e-06
1.42851e-06
1.4296e-06
1.19408e-06
1.19381e-06
1.19546e-06
1.19516e-06
1.42845e-06
1.42918e-06
1.19395e-06
1.19405e-06
1.19528e-06
1.19519e-06
1.19435e-06
1.19506e-06
1.19514e-06
1.42873e-06
1.42912e-06
1.19424e-06
1.19506e-06
1.19496e-06
1.42916e-06
1.43152e-06
1.42436e-06
1.19545e-06
1.19523e-06
1.19107e-06
1.19161e-06
1.43116e-06
1.42492e-06
1.19526e-06
1.19525e-06
1.19092e-06
1.19194e-06
1.19513e-06
1.19167e-06
1.19192e-06
1.43108e-06
1.42521e-06
1.19495e-06
1.19201e-06
1.19179e-06
1.42522e-06
1.42551e-06
1.41929e-06
1.18935e-06
1.18971e-06
1.18636e-06
1.1858e-06
1.42607e-06
1.41891e-06
1.18922e-06
1.19004e-06
1.1862e-06
1.18576e-06
1.19023e-06
1.18588e-06
1.18598e-06
1.42638e-06
1.41887e-06
1.19013e-06
1.18583e-06
1.18584e-06
1.41908e-06
1.42126e-06
1.42218e-06
1.1863e-06
1.1855e-06
1.18689e-06
1.18642e-06
1.42052e-06
1.42129e-06
1.1861e-06
1.18531e-06
1.18663e-06
1.18625e-06
1.18538e-06
1.18611e-06
1.1859e-06
1.4204e-06
1.42094e-06
1.18521e-06
1.18591e-06
1.18564e-06
1.42069e-06
1.42417e-06
1.41929e-06
1.18685e-06
1.18664e-06
1.18407e-06
1.18524e-06
1.42352e-06
1.42048e-06
1.1866e-06
1.18666e-06
1.18397e-06
1.18598e-06
1.18642e-06
1.18554e-06
1.18629e-06
1.42328e-06
1.42114e-06
1.1862e-06
1.1862e-06
1.18618e-06
1.4215e-06
1.42066e-06
1.41625e-06
1.18317e-06
1.18413e-06
1.18096e-06
1.18064e-06
1.42186e-06
1.41632e-06
1.1831e-06
1.18479e-06
1.18081e-06
1.1807e-06
1.18531e-06
1.18073e-06
1.18079e-06
1.42251e-06
1.41638e-06
1.18527e-06
1.1808e-06
1.18067e-06
1.41636e-06
1.41791e-06
1.41422e-06
1.18065e-06
1.18008e-06
1.17819e-06
1.17741e-06
1.41779e-06
1.41345e-06
1.18047e-06
1.18002e-06
1.17794e-06
1.17725e-06
1.17993e-06
1.17708e-06
1.17693e-06
1.4178e-06
1.4133e-06
1.17977e-06
1.17695e-06
1.17674e-06
1.41307e-06
1.41561e-06
1.40957e-06
1.17715e-06
1.1768e-06
1.17311e-06
1.17356e-06
1.41492e-06
1.41019e-06
1.17693e-06
1.17674e-06
1.17296e-06
1.17382e-06
1.17649e-06
1.17368e-06
1.17417e-06
1.41479e-06
1.41043e-06
1.1763e-06
1.17394e-06
1.17403e-06
1.41076e-06
1.41098e-06
1.40821e-06
1.1725e-06
1.17307e-06
1.17106e-06
1.17097e-06
1.41167e-06
1.40824e-06
1.17236e-06
1.17334e-06
1.17094e-06
1.17119e-06
1.17373e-06
1.17112e-06
1.17137e-06
1.41193e-06
1.40843e-06
1.1736e-06
1.17134e-06
1.17125e-06
1.40853e-06
1.4101e-06
1.40469e-06
1.17096e-06
1.17061e-06
1.16794e-06
1.1674e-06
1.4098e-06
1.40423e-06
1.17082e-06
1.17079e-06
1.16773e-06
1.16731e-06
1.17077e-06
1.16719e-06
1.16705e-06
1.40992e-06
1.40413e-06
1.17065e-06
1.1671e-06
1.16684e-06
1.40385e-06
1.40572e-06
1.37344e-06
1.16493e-06
1.16467e-06
1.10124e-06
1.10153e-06
1.40533e-06
1.37397e-06
1.16477e-06
1.16455e-06
1.10114e-06
1.10155e-06
1.16436e-06
1.10171e-06
1.1018e-06
1.40521e-06
1.37386e-06
1.1642e-06
1.10172e-06
1.10173e-06
1.37409e-06
1.35262e-06
1.07735e-06
1.07762e-06
1.35319e-06
1.07728e-06
1.07771e-06
7.39479e-07
7.39507e-07
7.39547e-07
1.078e-06
1.35321e-06
1.07795e-06
5.35653e-07
5.35523e-07
5.35636e-07
5.35636e-07
5.34569e-07
5.35438e-07
5.33635e-07
5.35608e-07
5.34569e-07
5.35438e-07
5.35608e-07
5.33635e-07
5.35198e-07
5.35984e-07
5.35983e-07
1.10651e-06
3.87795e-06
9.32087e-07
4.60325e-06
1.26012e-05
1.65943e-05
1.10694e-06
3.87828e-06
9.31846e-07
4.60417e-06
4.9917e-07
4.9917e-07
4.9917e-07
4.57217e-07
4.57217e-07
4.57217e-07
4.57217e-07
5.4296e-07
1.2178e-06
4.99137e-07
4.86008e-07
5.25011e-07
1.20859e-06
4.82348e-07
1.26025e-05
1.65956e-05
5.42967e-07
4.99137e-07
1.21778e-06
4.86008e-07
5.25009e-07
4.82348e-07
1.20857e-06
2.51892e-06
2.51951e-06
4.84042e-07
2.37147e-06
2.37214e-06
1.43151e-06
5.59224e-06
1.3307e-06
6.1352e-06
2.12846e-05
2.31118e-05
1.43187e-06
5.593e-06
1.3305e-06
6.13645e-06
4.45574e-07