/*--------------------------------*- C++ -*----------------------------------*\
| =========                 |                                                 |
| \\      /  F ield         | OpenFOAM: The Open Source CFD Toolbox           |
|  \\    /   O peration     | Version:  2312                                  |
|   \\  /    A nd           | Website:  www.openfoam.com                      |
|    \\/     M anipulation  |                                                 |
\*---------------------------------------------------------------------------*/
FoamFile
{
    version     2.0;
    format      ascii;
    arch        "LSB;label=32;scalar=64";
    class       volScalarField;
    location    "1000";
    object      k;
}
// * * * * * * * * * * * * * * * * * * * * * * * * * * * * * * * * * * * * * //

dimensions      [0 2 -2 0 0 0 0];

internalField   nonuniform List<scalar> 
172512
(
3.60232e-05
3.60198e-05
3.60198e-05
3.60083e-05
3.39295e-05
3.38866e-05
3.38866e-05
3.39612e-05
3.21573e-05
3.20055e-05
3.20055e-05
3.19506e-05
3.05338e-05
3.02267e-05
3.02267e-05
2.99864e-05
2.90318e-05
2.85515e-05
2.85515e-05
2.81202e-05
2.7634e-05
2.69848e-05
2.69847e-05
2.6388e-05
2.63293e-05
2.55287e-05
2.55286e-05
2.48046e-05
2.51097e-05
2.41827e-05
2.41826e-05
2.33754e-05
2.39694e-05
2.29484e-05
2.29482e-05
2.21019e-05
2.29042e-05
2.18247e-05
2.18245e-05
2.09832e-05
2.19105e-05
2.08092e-05
2.08091e-05
2.00106e-05
2.09849e-05
1.98992e-05
1.98991e-05
1.91789e-05
2.01226e-05
1.90926e-05
1.90925e-05
1.84871e-05
1.93223e-05
1.83864e-05
1.83862e-05
1.79305e-05
1.85832e-05
1.77773e-05
1.77773e-05
1.75039e-05
1.79027e-05
1.72638e-05
1.72637e-05
1.71981e-05
1.72784e-05
1.68448e-05
1.68448e-05
1.7021e-05
1.67081e-05
1.65195e-05
1.65194e-05
1.69803e-05
1.61908e-05
1.6288e-05
1.6288e-05
1.70777e-05
1.57239e-05
1.615e-05
1.61503e-05
1.73021e-05
1.53057e-05
1.61059e-05
1.61059e-05
1.76553e-05
1.4936e-05
1.61518e-05
1.61518e-05
1.81328e-05
1.4613e-05
1.62904e-05
1.62905e-05
1.87281e-05
1.43363e-05
1.65179e-05
1.65181e-05
1.94255e-05
1.41063e-05
1.68344e-05
1.68333e-05
2.02183e-05
1.39205e-05
1.72343e-05
1.72351e-05
2.10943e-05
1.37813e-05
1.77116e-05
1.77123e-05
2.20327e-05
1.36891e-05
1.82765e-05
1.82793e-05
2.30326e-05
1.36479e-05
1.89154e-05
1.89087e-05
2.40908e-05
1.36402e-05
1.95741e-05
1.95908e-05
2.5128e-05
1.36784e-05
2.03557e-05
2.0345e-05
2.61573e-05
1.37682e-05
2.12009e-05
2.11942e-05
2.73368e-05
1.39025e-05
2.19961e-05
2.20479e-05
2.83291e-05
1.40646e-05
2.29082e-05
2.29115e-05
2.94388e-05
1.44322e-05
2.39656e-05
2.38803e-05
3.06184e-05
1.47344e-05
2.51348e-05
2.49972e-05
3.16655e-05
1.47119e-05
2.57139e-05
2.63924e-05
3.2631e-05
1.55167e-05
2.61273e-05
2.68618e-05
3.31733e-05
1.59933e-05
2.86999e-05
2.70165e-05
3.50041e-05
1.52604e-05
2.9905e-05
2.76247e-05
3.62472e-05
1.48754e-05
3.06852e-05
3.08141e-05
3.57928e-05
1.90988e-05
2.93266e-05
3.37781e-05
3.48718e-05
2.06124e-05
2.75866e-05
3.20632e-05
3.83607e-05
1.75127e-05
3.4729e-05
2.63621e-05
3.94387e-05
1.56116e-05
3.46839e-05
3.69595e-05
3.62755e-05
2.08914e-05
3.67422e-05
4.08241e-05
4.61214e-05
2.4818e-05
3.85712e-05
3.59239e-05
4.18774e-05
1.98828e-05
3.55675e-05
3.52302e-05
3.77481e-05
1.92723e-05
3.50878e-05
3.45029e-05
4.31404e-05
2.84312e-05
4.08158e-05
4.4412e-05
4.59848e-05
2.92793e-05
4.4216e-05
4.58247e-05
4.93402e-05
2.28738e-05
3.97191e-05
3.61473e-05
4.44007e-05
2.08156e-05
3.60884e-05
3.54397e-05
3.99136e-05
2.49186e-05
3.92793e-05
4.31403e-05
4.34312e-05
2.87142e-05
4.4478e-05
4.47461e-05
4.86356e-05
2.9496e-05
4.53859e-05
4.43654e-05
4.90825e-05
2.93514e-05
4.47924e-05
4.41246e-05
4.81226e-05
2.92541e-05
4.44492e-05
4.43179e-05
4.8106e-05
2.97759e-05
4.51833e-05
4.55256e-05
4.89001e-05
3.05214e-05
4.572e-05
4.57603e-05
4.89307e-05
3.13505e-05
4.62918e-05
4.62958e-05
4.95021e-05
3.21184e-05
4.71528e-05
4.71025e-05
5.01688e-05
3.286e-05
4.761e-05
4.76234e-05
5.05502e-05
3.36027e-05
4.79916e-05
4.8053e-05
5.08975e-05
3.43528e-05
4.85657e-05
4.84925e-05
5.11784e-05
3.48555e-05
4.88673e-05
4.88634e-05
5.15437e-05
3.54321e-05
4.9368e-05
4.94373e-05
5.19977e-05
3.61064e-05
4.97578e-05
4.97599e-05
5.22021e-05
3.66432e-05
5.0086e-05
5.00529e-05
5.24999e-05
3.71859e-05
5.04877e-05
5.04819e-05
5.28089e-05
3.76618e-05
5.07098e-05
5.07461e-05
5.29793e-05
3.81426e-05
5.10431e-05
5.1025e-05
5.32533e-05
3.85525e-05
5.12804e-05
5.13115e-05
5.34514e-05
3.90185e-05
5.15871e-05
5.15733e-05
5.36952e-05
3.94239e-05
5.17928e-05
5.17783e-05
5.38159e-05
3.97247e-05
5.19431e-05
5.19763e-05
5.4e-05
4.00547e-05
5.21234e-05
5.21112e-05
5.40865e-05
4.04174e-05
5.2331e-05
5.23401e-05
5.42891e-05
4.06678e-05
5.24684e-05
5.24673e-05
5.43937e-05
4.08805e-05
5.25065e-05
5.25018e-05
5.4388e-05
4.11555e-05
5.26675e-05
5.26813e-05
5.45552e-05
4.13909e-05
5.27953e-05
5.28078e-05
5.46674e-05
4.15578e-05
5.28214e-05
5.28097e-05
5.46507e-05
4.16157e-05
5.2766e-05
5.27727e-05
5.45747e-05
4.17883e-05
5.28742e-05
5.28906e-05
5.47392e-05
4.21047e-05
5.30842e-05
5.30804e-05
5.49223e-05
4.207e-05
5.28675e-05
5.28922e-05
5.46692e-05
4.19927e-05
5.27218e-05
5.27123e-05
5.44943e-05
4.22002e-05
5.29513e-05
5.29472e-05
5.47884e-05
4.22956e-05
5.29557e-05
5.29827e-05
5.47776e-05
4.22823e-05
5.28016e-05
5.2802e-05
5.45941e-05
4.22824e-05
5.27217e-05
5.27107e-05
5.45207e-05
4.22442e-05
5.26577e-05
5.2666e-05
5.45023e-05
4.22363e-05
5.26393e-05
5.26545e-05
5.44924e-05
4.39513e-05
5.06702e-05
5.066e-05
5.40019e-05
3.62984e-05
3.62919e-05
3.62919e-05
3.62984e-05
3.62919e-05
3.62919e-05
3.62908e-05
3.62908e-05
3.62908e-05
3.62908e-05
3.62919e-05
3.62919e-05
3.62984e-05
3.62919e-05
3.62919e-05
3.62984e-05
3.60083e-05
3.42676e-05
3.60198e-05
3.60198e-05
3.43745e-05
3.43744e-05
3.60083e-05
3.42677e-05
3.60198e-05
3.60198e-05
3.43745e-05
3.43744e-05
3.60198e-05
3.43745e-05
3.43745e-05
3.60083e-05
3.42677e-05
3.60198e-05
3.43745e-05
3.43745e-05
3.42676e-05
3.39612e-05
3.22619e-05
3.38865e-05
3.38865e-05
3.24658e-05
3.24657e-05
3.39612e-05
3.22619e-05
3.38865e-05
3.38865e-05
3.24659e-05
3.24657e-05
3.38865e-05
3.2466e-05
3.24658e-05
3.39612e-05
3.22619e-05
3.38865e-05
3.24659e-05
3.24659e-05
3.22618e-05
3.19506e-05
3.02973e-05
3.20054e-05
3.20053e-05
3.06617e-05
3.06616e-05
3.19506e-05
3.02973e-05
3.20054e-05
3.20052e-05
3.06618e-05
3.06615e-05
3.20053e-05
3.0662e-05
3.06617e-05
3.19506e-05
3.02972e-05
3.20054e-05
3.06619e-05
3.06618e-05
3.02971e-05
2.99865e-05
2.84231e-05
3.02264e-05
3.02263e-05
2.89599e-05
2.89597e-05
2.99865e-05
2.8423e-05
3.02266e-05
3.02262e-05
2.89601e-05
2.89596e-05
3.02264e-05
2.89603e-05
2.89598e-05
2.99864e-05
2.84229e-05
3.02265e-05
2.89602e-05
2.896e-05
2.84228e-05
2.81204e-05
2.66716e-05
2.85511e-05
2.85509e-05
2.73656e-05
2.73653e-05
2.81204e-05
2.66715e-05
2.85513e-05
2.85508e-05
2.73659e-05
2.73652e-05
2.8551e-05
2.73661e-05
2.73655e-05
2.81203e-05
2.66714e-05
2.85513e-05
2.7366e-05
2.73658e-05
2.66712e-05
2.63884e-05
2.50638e-05
2.69842e-05
2.6984e-05
2.58817e-05
2.58815e-05
2.63883e-05
2.50638e-05
2.69846e-05
2.69839e-05
2.58822e-05
2.58813e-05
2.69841e-05
2.58824e-05
2.58816e-05
2.63882e-05
2.50636e-05
2.69844e-05
2.58823e-05
2.5882e-05
2.50634e-05
2.4805e-05
2.361e-05
2.5528e-05
2.55277e-05
2.45079e-05
2.45077e-05
2.48049e-05
2.36099e-05
2.55285e-05
2.55276e-05
2.45085e-05
2.45075e-05
2.55279e-05
2.45087e-05
2.45078e-05
2.48048e-05
2.36097e-05
2.55283e-05
2.45086e-05
2.45083e-05
2.36095e-05
2.33759e-05
2.231e-05
2.41819e-05
2.41816e-05
2.32456e-05
2.32453e-05
2.33758e-05
2.23099e-05
2.41824e-05
2.41814e-05
2.32462e-05
2.32451e-05
2.41817e-05
2.32465e-05
2.32455e-05
2.33756e-05
2.23096e-05
2.41823e-05
2.32464e-05
2.32461e-05
2.23094e-05
2.21024e-05
2.11657e-05
2.29475e-05
2.29472e-05
2.20943e-05
2.2094e-05
2.21023e-05
2.11656e-05
2.29481e-05
2.2947e-05
2.20951e-05
2.20939e-05
2.29473e-05
2.20953e-05
2.20942e-05
2.21021e-05
2.11653e-05
2.29479e-05
2.20952e-05
2.20949e-05
2.1165e-05
2.09839e-05
2.01684e-05
2.18236e-05
2.18233e-05
2.1052e-05
2.10517e-05
2.09838e-05
2.01683e-05
2.18244e-05
2.18232e-05
2.10528e-05
2.10515e-05
2.18235e-05
2.10531e-05
2.10519e-05
2.09835e-05
2.01679e-05
2.18242e-05
2.10529e-05
2.10527e-05
2.01677e-05
2.00113e-05
1.93123e-05
2.08081e-05
2.08078e-05
2.01159e-05
2.01156e-05
2.00112e-05
1.93122e-05
2.0809e-05
2.08077e-05
2.01167e-05
2.01154e-05
2.0808e-05
2.01169e-05
2.01158e-05
2.00109e-05
1.93119e-05
2.08088e-05
2.01168e-05
2.01166e-05
1.93117e-05
1.91793e-05
1.85882e-05
1.9898e-05
1.98978e-05
1.92835e-05
1.92832e-05
1.91793e-05
1.8588e-05
1.98989e-05
1.98977e-05
1.92844e-05
1.92831e-05
1.9898e-05
1.92845e-05
1.92834e-05
1.91789e-05
1.85878e-05
1.98988e-05
1.92845e-05
1.92842e-05
1.85874e-05
1.84873e-05
1.79956e-05
1.90915e-05
1.90913e-05
1.85525e-05
1.85523e-05
1.84874e-05
1.79955e-05
1.90924e-05
1.90911e-05
1.85534e-05
1.85522e-05
1.90915e-05
1.85536e-05
1.85524e-05
1.84872e-05
1.79952e-05
1.90923e-05
1.85535e-05
1.85533e-05
1.79949e-05
1.7931e-05
1.7537e-05
1.83853e-05
1.83851e-05
1.79193e-05
1.79192e-05
1.7931e-05
1.7537e-05
1.83862e-05
1.83849e-05
1.79202e-05
1.7919e-05
1.83853e-05
1.79204e-05
1.79193e-05
1.79307e-05
1.75367e-05
1.83861e-05
1.79203e-05
1.79201e-05
1.75366e-05
1.75041e-05
1.72156e-05
1.77763e-05
1.77761e-05
1.73818e-05
1.73816e-05
1.75044e-05
1.72155e-05
1.77772e-05
1.77761e-05
1.73826e-05
1.73816e-05
1.77763e-05
1.73827e-05
1.73818e-05
1.7504e-05
1.72155e-05
1.77771e-05
1.73827e-05
1.73827e-05
1.72153e-05
1.71983e-05
1.70239e-05
1.72628e-05
1.72628e-05
1.69391e-05
1.69392e-05
1.71983e-05
1.70244e-05
1.72636e-05
1.72626e-05
1.69399e-05
1.69391e-05
1.72628e-05
1.69401e-05
1.69393e-05
1.71982e-05
1.70242e-05
1.72636e-05
1.694e-05
1.69401e-05
1.70243e-05
1.70206e-05
1.69708e-05
1.68439e-05
1.6844e-05
1.65904e-05
1.65903e-05
1.70212e-05
1.6971e-05
1.68447e-05
1.68439e-05
1.65911e-05
1.65903e-05
1.6844e-05
1.6591e-05
1.65904e-05
1.70209e-05
1.69709e-05
1.68448e-05
1.6591e-05
1.65911e-05
1.6971e-05
1.69801e-05
1.70419e-05
1.65186e-05
1.65188e-05
1.63349e-05
1.63352e-05
1.69804e-05
1.70421e-05
1.65194e-05
1.65187e-05
1.63356e-05
1.6335e-05
1.65188e-05
1.63357e-05
1.63351e-05
1.69802e-05
1.70419e-05
1.65196e-05
1.63355e-05
1.63358e-05
1.70422e-05
1.70772e-05
1.72421e-05
1.62873e-05
1.62876e-05
1.61735e-05
1.61737e-05
1.70777e-05
1.72417e-05
1.6288e-05
1.62875e-05
1.61741e-05
1.61738e-05
1.62876e-05
1.61739e-05
1.61736e-05
1.70774e-05
1.7242e-05
1.62883e-05
1.61741e-05
1.61743e-05
1.72421e-05
1.73023e-05
1.75703e-05
1.61495e-05
1.61498e-05
1.61052e-05
1.61057e-05
1.73019e-05
1.75704e-05
1.61501e-05
1.615e-05
1.61057e-05
1.61057e-05
1.61497e-05
1.61057e-05
1.61056e-05
1.73025e-05
1.75703e-05
1.61505e-05
1.61058e-05
1.61061e-05
1.75704e-05
1.76549e-05
1.80242e-05
1.61053e-05
1.61059e-05
1.61313e-05
1.61315e-05
1.76555e-05
1.80241e-05
1.61057e-05
1.61059e-05
1.61317e-05
1.61315e-05
1.61057e-05
1.61312e-05
1.61313e-05
1.7655e-05
1.80236e-05
1.61063e-05
1.61313e-05
1.6132e-05
1.80245e-05
1.81338e-05
1.85971e-05
1.61523e-05
1.6152e-05
1.62476e-05
1.62478e-05
1.81324e-05
1.85961e-05
1.61526e-05
1.61522e-05
1.62478e-05
1.62477e-05
1.61519e-05
1.62475e-05
1.62478e-05
1.81319e-05
1.8597e-05
1.61525e-05
1.62475e-05
1.62483e-05
1.85973e-05
1.87272e-05
1.92713e-05
1.62903e-05
1.62907e-05
1.6452e-05
1.64531e-05
1.87268e-05
1.9272e-05
1.62904e-05
1.62909e-05
1.64521e-05
1.64527e-05
1.62907e-05
1.64526e-05
1.64533e-05
1.87275e-05
1.92727e-05
1.62911e-05
1.64521e-05
1.64536e-05
1.92737e-05
1.94239e-05
2.00495e-05
1.65178e-05
1.65186e-05
1.67481e-05
1.67483e-05
1.94245e-05
2.00501e-05
1.65178e-05
1.65189e-05
1.67481e-05
1.6748e-05
1.6519e-05
1.67472e-05
1.67473e-05
1.94246e-05
2.00492e-05
1.65189e-05
1.67471e-05
1.67474e-05
2.00481e-05
2.02208e-05
2.09025e-05
1.68352e-05
1.68354e-05
1.71255e-05
1.71279e-05
2.02217e-05
2.09048e-05
1.68349e-05
1.68345e-05
1.71254e-05
1.71288e-05
1.68337e-05
1.7126e-05
1.71279e-05
2.0219e-05
2.0907e-05
1.68339e-05
1.7127e-05
1.71283e-05
2.09067e-05
2.10894e-05
2.18312e-05
1.72323e-05
1.72363e-05
1.75875e-05
1.75838e-05
2.10933e-05
2.18226e-05
1.72317e-05
1.7237e-05
1.75878e-05
1.75862e-05
1.72362e-05
1.75844e-05
1.75879e-05
2.10946e-05
2.18272e-05
1.72362e-05
1.75854e-05
1.75883e-05
2.18343e-05
2.20315e-05
2.28072e-05
1.77122e-05
1.77113e-05
1.81222e-05
1.81314e-05
2.2024e-05
2.2824e-05
1.77123e-05
1.77128e-05
1.81213e-05
1.81297e-05
1.77171e-05
1.81291e-05
1.81229e-05
2.20265e-05
2.28256e-05
1.77169e-05
1.81287e-05
1.81226e-05
2.28198e-05
2.30222e-05
2.38616e-05
1.82705e-05
1.82798e-05
1.87486e-05
1.8751e-05
2.30411e-05
2.38636e-05
1.82697e-05
1.82812e-05
1.87475e-05
1.87495e-05
1.82702e-05
1.8751e-05
1.8755e-05
2.30436e-05
2.38645e-05
1.82698e-05
1.87473e-05
1.87523e-05
2.38662e-05
2.40861e-05
2.49111e-05
1.89178e-05
1.89148e-05
1.94245e-05
1.94083e-05
2.408e-05
2.48802e-05
1.89166e-05
1.89119e-05
1.94234e-05
1.94202e-05
1.8912e-05
1.94039e-05
1.9429e-05
2.40827e-05
2.48924e-05
1.89104e-05
1.9418e-05
1.94307e-05
2.49017e-05
2.51347e-05
2.59663e-05
1.96041e-05
1.95774e-05
2.01643e-05
2.01645e-05
2.5098e-05
2.59591e-05
1.96028e-05
1.95924e-05
2.01641e-05
2.0156e-05
1.96115e-05
2.01608e-05
2.01326e-05
2.51161e-05
2.59449e-05
1.96113e-05
2.01507e-05
2.01309e-05
2.59325e-05
2.61955e-05
2.70399e-05
2.03468e-05
2.03632e-05
2.09594e-05
2.09795e-05
2.6208e-05
2.70726e-05
2.03471e-05
2.03458e-05
2.09557e-05
2.09742e-05
2.03216e-05
2.09846e-05
2.09951e-05
2.61817e-05
2.70641e-05
2.03227e-05
2.09802e-05
2.09904e-05
2.70849e-05
2.72807e-05
2.81212e-05
2.11797e-05
2.11927e-05
2.18151e-05
2.17979e-05
2.73046e-05
2.80995e-05
2.11744e-05
2.11901e-05
2.18131e-05
2.1824e-05
2.12192e-05
2.17858e-05
2.17939e-05
2.73049e-05
2.81565e-05
2.12088e-05
2.18158e-05
2.17961e-05
2.81106e-05
2.83468e-05
2.91437e-05
2.20327e-05
2.20112e-05
2.26516e-05
2.26848e-05
2.8317e-05
2.91503e-05
2.20309e-05
2.20568e-05
2.26502e-05
2.27328e-05
2.20017e-05
2.26816e-05
2.27303e-05
2.83907e-05
2.91965e-05
2.20051e-05
2.27143e-05
2.27208e-05
2.91954e-05
2.93867e-05
3.06122e-05
2.28835e-05
2.29005e-05
2.38373e-05
2.36495e-05
2.93909e-05
3.03175e-05
2.28877e-05
2.29305e-05
2.38363e-05
2.35909e-05
2.29597e-05
2.36695e-05
2.36728e-05
2.94087e-05
3.01982e-05
2.29589e-05
2.36173e-05
2.36759e-05
3.03543e-05
3.09572e-05
3.17164e-05
2.41693e-05
2.39627e-05
2.50794e-05
2.4913e-05
3.06032e-05
3.16535e-05
2.41605e-05
2.38427e-05
2.50591e-05
2.46638e-05
2.39668e-05
2.4866e-05
2.4762e-05
3.04499e-05
3.14342e-05
2.39669e-05
2.46745e-05
2.47679e-05
3.147e-05
3.18094e-05
3.15777e-05
2.52079e-05
2.51849e-05
2.5216e-05
2.55925e-05
3.1871e-05
3.21976e-05
2.51816e-05
2.50066e-05
2.5193e-05
2.61315e-05
2.49376e-05
2.56724e-05
2.5726e-05
3.17431e-05
3.30429e-05
2.49208e-05
2.61151e-05
2.56619e-05
3.23878e-05
3.16421e-05
3.42418e-05
2.52472e-05
2.56116e-05
2.69573e-05
2.58553e-05
3.22615e-05
3.25361e-05
2.52348e-05
2.63968e-05
2.7031e-05
2.68303e-05
2.60422e-05
2.58586e-05
2.64056e-05
3.32678e-05
3.34241e-05
2.60135e-05
2.68117e-05
2.64792e-05
3.30864e-05
3.48282e-05
3.57566e-05
2.76541e-05
2.62828e-05
2.85322e-05
2.82166e-05
3.2855e-05
3.50992e-05
2.77099e-05
2.69013e-05
2.85407e-05
2.6992e-05
2.64599e-05
2.8054e-05
2.75925e-05
3.34558e-05
3.33369e-05
2.65398e-05
2.69319e-05
2.75921e-05
3.44816e-05
3.57102e-05
3.28479e-05
2.8522e-05
2.88075e-05
2.75743e-05
2.96578e-05
3.55796e-05
3.63886e-05
2.85229e-05
2.70721e-05
2.75072e-05
2.74138e-05
2.82171e-05
2.97489e-05
2.94672e-05
3.34384e-05
3.38572e-05
2.81712e-05
2.74216e-05
2.93707e-05
3.61541e-05
3.2555e-05
3.16746e-05
2.70042e-05
2.97364e-05
2.64433e-05
3.02466e-05
3.64956e-05
3.71518e-05
2.69506e-05
2.75715e-05
2.63915e-05
2.95149e-05
2.96102e-05
3.05134e-05
2.96598e-05
3.40065e-05
3.64776e-05
2.95101e-05
2.98066e-05
2.95808e-05
3.57982e-05
3.30867e-05
4.1055e-05
2.69265e-05
3.04512e-05
3.32885e-05
3.02535e-05
3.74796e-05
3.5772e-05
2.6833e-05
3.0557e-05
3.31564e-05
3.32792e-05
2.96527e-05
3.02428e-05
2.93836e-05
3.73198e-05
4.04966e-05
2.95746e-05
3.32157e-05
2.92606e-05
3.49255e-05
4.18502e-05
4.25422e-05
3.45573e-05
2.95202e-05
3.55088e-05
2.77335e-05
3.52698e-05
3.14776e-05
3.45757e-05
3.39591e-05
3.60062e-05
3.38797e-05
2.92666e-05
2.751e-05
3.01334e-05
4.10916e-05
3.88523e-05
2.92241e-05
3.3552e-05
3.10158e-05
3.74021e-05
4.19926e-05
3.5226e-05
3.52714e-05
2.78007e-05
3.13943e-05
3.31397e-05
3.15836e-05
4.10096e-05
3.58301e-05
3.24383e-05
3.12718e-05
2.65704e-05
3.16564e-05
3.33257e-05
3.33951e-05
3.75561e-05
2.8504e-05
3.23803e-05
2.66193e-05
3.32531e-05
3.96394e-05
3.46641e-05
3.24782e-05
3.03725e-05
3.44965e-05
2.85167e-05
3.48857e-05
4.17217e-05
4.00216e-05
2.9943e-05
2.62855e-05
2.81831e-05
3.28156e-05
3.33436e-05
3.50024e-05
3.21454e-05
2.83785e-05
4.26929e-05
3.30452e-05
3.28699e-05
3.17047e-05
3.62202e-05
3.29812e-05
4.36152e-05
2.85768e-05
3.45982e-05
3.5427e-05
3.50456e-05
3.96329e-05
4.12911e-05
2.83577e-05
3.69707e-05
3.63024e-05
4.07969e-05
3.21753e-05
3.52781e-05
3.69131e-05
4.49208e-05
4.84292e-05
3.18213e-05
4.09815e-05
3.77271e-05
4.51083e-05
4.50956e-05
4.85188e-05
3.83446e-05
3.641e-05
4.15469e-05
3.88386e-05
4.24967e-05
4.47503e-05
3.8923e-05
4.06129e-05
4.1471e-05
3.67456e-05
3.8603e-05
3.86663e-05
3.90216e-05
4.73789e-05
3.9033e-05
3.92108e-05
3.65594e-05
3.91504e-05
4.32839e-05
4.79399e-05
3.4603e-05
4.1267e-05
3.87965e-05
3.36353e-05
3.62866e-05
4.43855e-05
3.99126e-05
4.11502e-05
3.63009e-05
3.35959e-05
3.57335e-05
3.77535e-05
3.6144e-05
3.41655e-05
3.90257e-05
4.07546e-05
3.75571e-05
3.54385e-05
3.43146e-05
3.73175e-05
3.33968e-05
4.0926e-05
3.18827e-05
3.54705e-05
3.27994e-05
3.4638e-05
3.97317e-05
4.0153e-05
3.18727e-05
3.52662e-05
3.26191e-05
3.40614e-05
3.40889e-05
3.50159e-05
3.61037e-05
4.07181e-05
3.83184e-05
3.42685e-05
3.42736e-05
3.60013e-05
4.25367e-05
4.36742e-05
5.23011e-05
3.67e-05
3.47353e-05
4.50298e-05
3.95064e-05
4.04964e-05
4.53078e-05
3.63198e-05
3.43039e-05
4.50614e-05
4.25864e-05
3.71088e-05
3.91876e-05
3.99526e-05
3.84378e-05
4.9697e-05
3.68083e-05
4.21789e-05
4.00606e-05
4.5294e-05
5.2558e-05
4.75435e-05
4.58067e-05
4.12101e-05
4.5207e-05
4.41697e-05
4.62436e-05
4.96956e-05
4.60013e-05
4.49636e-05
4.55363e-05
4.67056e-05
4.10116e-05
4.39914e-05
4.36285e-05
5.10958e-05
5.20869e-05
4.12609e-05
4.62942e-05
4.39354e-05
4.90871e-05
4.62147e-05
4.01664e-05
4.31483e-05
4.43044e-05
3.78189e-05
4.14713e-05
4.9816e-05
4.399e-05
4.3427e-05
4.60856e-05
3.76077e-05
3.78707e-05
4.40054e-05
4.19091e-05
4.29452e-05
5.0597e-05
3.88065e-05
4.42209e-05
3.80218e-05
4.26696e-05
4.54337e-05
3.9915e-05
4.05208e-05
3.68315e-05
3.93941e-05
3.60382e-05
3.62637e-05
4.29284e-05
3.95302e-05
3.65784e-05
3.60473e-05
3.57811e-05
3.48943e-05
4.08323e-05
3.63217e-05
3.68643e-05
3.79296e-05
3.93827e-05
4.04767e-05
3.48881e-05
3.67209e-05
3.99998e-05
4.13237e-05
4.63117e-05
3.63553e-05
3.60794e-05
4.08597e-05
3.76344e-05
3.96139e-05
4.33933e-05
3.61419e-05
3.55217e-05
4.11763e-05
4.21834e-05
3.63516e-05
3.72768e-05
3.65625e-05
4.0933e-05
4.76875e-05
3.62819e-05
4.1815e-05
3.66875e-05
4.21555e-05
4.69631e-05
4.82761e-05
4.20634e-05
3.96811e-05
4.4121e-05
4.38159e-05
4.45302e-05
4.8227e-05
4.2416e-05
4.3466e-05
4.42712e-05
4.479e-05
3.79466e-05
4.36904e-05
4.3464e-05
4.82953e-05
4.88115e-05
3.83716e-05
4.46813e-05
4.3644e-05
4.81898e-05
4.83613e-05
4.82768e-05
4.4415e-05
4.45177e-05
4.46886e-05
4.52954e-05
4.86274e-05
4.9133e-05
4.44811e-05
4.48144e-05
4.46254e-05
4.4413e-05
4.44012e-05
4.53713e-05
4.53623e-05
4.87518e-05
4.79144e-05
4.44755e-05
4.44846e-05
4.52793e-05
4.91114e-05
4.82882e-05
4.81087e-05
4.46891e-05
4.53065e-05
4.4586e-05
4.49323e-05
4.91342e-05
4.83281e-05
4.46139e-05
4.42897e-05
4.4515e-05
4.41238e-05
4.53637e-05
4.49796e-05
4.48602e-05
4.79152e-05
4.77081e-05
4.52762e-05
4.41699e-05
4.47874e-05
4.81422e-05
4.8126e-05
4.81522e-05
4.45559e-05
4.47677e-05
4.45443e-05
4.4468e-05
4.82994e-05
4.79239e-05
4.44947e-05
4.40957e-05
4.45091e-05
4.41698e-05
4.46783e-05
4.44653e-05
4.45013e-05
4.77237e-05
4.78017e-05
4.46204e-05
4.41421e-05
4.44625e-05
4.79971e-05
4.82303e-05
4.85654e-05
4.45974e-05
4.44518e-05
4.50616e-05
4.48141e-05
4.79443e-05
4.84538e-05
4.46041e-05
4.43958e-05
4.51014e-05
4.52733e-05
4.45167e-05
4.48105e-05
4.51888e-05
4.79735e-05
4.88056e-05
4.44846e-05
4.52868e-05
4.5232e-05
4.87894e-05
4.86608e-05
4.89378e-05
4.52143e-05
4.51688e-05
4.56281e-05
4.56755e-05
4.86698e-05
4.89933e-05
4.52512e-05
4.54981e-05
4.56175e-05
4.57222e-05
4.54265e-05
4.56848e-05
4.56509e-05
4.89345e-05
4.8995e-05
4.54655e-05
4.57574e-05
4.56695e-05
4.89145e-05
4.90486e-05
4.95413e-05
4.57746e-05
4.57249e-05
4.62918e-05
4.60848e-05
4.90303e-05
4.92963e-05
4.57507e-05
4.57309e-05
4.62803e-05
4.60491e-05
4.56653e-05
4.60589e-05
4.60417e-05
4.90092e-05
4.93069e-05
4.56768e-05
4.59961e-05
4.60064e-05
4.9305e-05
4.96693e-05
4.99588e-05
4.64627e-05
4.63116e-05
4.68639e-05
4.69788e-05
4.9472e-05
5.01209e-05
4.6462e-05
4.63339e-05
4.68668e-05
4.69583e-05
4.6298e-05
4.69886e-05
4.69423e-05
4.95131e-05
5.0088e-05
4.62853e-05
4.69649e-05
4.69436e-05
5.00706e-05
5.00351e-05
5.03506e-05
4.69816e-05
4.71377e-05
4.73945e-05
4.74965e-05
5.02333e-05
5.04608e-05
4.69787e-05
4.70889e-05
4.73825e-05
4.74759e-05
4.70942e-05
4.75093e-05
4.74929e-05
5.01758e-05
5.04458e-05
4.7091e-05
4.74883e-05
4.74811e-05
5.04533e-05
5.04611e-05
5.0822e-05
4.75368e-05
4.75984e-05
4.79316e-05
4.78709e-05
5.05306e-05
5.07453e-05
4.75273e-05
4.76124e-05
4.7936e-05
4.79436e-05
4.76235e-05
4.78816e-05
4.79559e-05
5.05471e-05
5.08237e-05
4.76141e-05
4.79544e-05
4.79608e-05
5.08257e-05
5.09256e-05
5.1272e-05
4.80726e-05
4.79839e-05
4.85057e-05
4.84414e-05
5.0831e-05
5.12091e-05
4.80793e-05
4.80449e-05
4.8504e-05
4.83997e-05
4.80502e-05
4.84318e-05
4.83518e-05
5.08969e-05
5.1143e-05
4.80576e-05
4.83898e-05
4.83502e-05
5.11027e-05
5.13441e-05
5.14546e-05
4.86153e-05
4.85796e-05
4.88025e-05
4.88095e-05
5.13087e-05
5.14726e-05
4.86075e-05
4.85073e-05
4.8787e-05
4.8761e-05
4.84577e-05
4.88004e-05
4.87756e-05
5.12241e-05
5.14295e-05
4.84497e-05
4.87527e-05
4.87609e-05
5.14483e-05
5.15037e-05
5.17902e-05
4.88608e-05
4.88683e-05
4.91853e-05
4.92019e-05
5.15229e-05
5.18117e-05
4.88496e-05
4.88635e-05
4.91912e-05
4.92812e-05
4.88951e-05
4.92218e-05
4.93009e-05
5.151e-05
5.19004e-05
4.88849e-05
4.93002e-05
4.93066e-05
5.19104e-05
5.1898e-05
5.21862e-05
4.93273e-05
4.93473e-05
4.96858e-05
4.96865e-05
5.19228e-05
5.21852e-05
4.9334e-05
4.94176e-05
4.9685e-05
4.96976e-05
4.94245e-05
4.96934e-05
4.96708e-05
5.20015e-05
5.21886e-05
4.94309e-05
4.97049e-05
4.9671e-05
5.21557e-05
5.22489e-05
5.24309e-05
4.97703e-05
4.9757e-05
5.00089e-05
4.99818e-05
5.22378e-05
5.24068e-05
4.97682e-05
4.97587e-05
5.00047e-05
4.99617e-05
4.97286e-05
4.9977e-05
4.9977e-05
5.22333e-05
5.23803e-05
4.97272e-05
4.99565e-05
4.99731e-05
5.24082e-05
5.25039e-05
5.27325e-05
5.01023e-05
5.00875e-05
5.03844e-05
5.04052e-05
5.249e-05
5.27609e-05
5.00962e-05
5.00547e-05
5.03747e-05
5.03776e-05
5.00928e-05
5.04139e-05
5.04103e-05
5.24566e-05
5.27416e-05
5.0087e-05
5.03863e-05
5.04012e-05
5.27567e-05
5.27926e-05
5.29481e-05
5.04626e-05
5.04793e-05
5.06622e-05
5.06404e-05
5.28168e-05
5.29249e-05
5.04547e-05
5.04735e-05
5.06649e-05
5.06834e-05
5.04786e-05
5.06422e-05
5.06386e-05
5.28141e-05
5.2967e-05
5.04713e-05
5.06851e-05
5.06415e-05
5.29219e-05
5.30078e-05
5.31972e-05
5.07353e-05
5.07085e-05
5.0977e-05
5.09654e-05
5.29782e-05
5.31939e-05
5.07394e-05
5.07451e-05
5.09738e-05
5.09524e-05
5.07136e-05
5.09688e-05
5.09733e-05
5.30159e-05
5.31726e-05
5.07179e-05
5.09554e-05
5.09704e-05
5.31974e-05
5.32514e-05
5.33749e-05
5.10453e-05
5.10398e-05
5.12062e-05
5.12111e-05
5.32538e-05
5.33838e-05
5.10391e-05
5.10221e-05
5.12023e-05
5.12308e-05
5.10415e-05
5.12147e-05
5.12195e-05
5.32322e-05
5.3407e-05
5.10356e-05
5.12344e-05
5.1216e-05
5.33915e-05
5.34274e-05
5.36355e-05
5.12699e-05
5.12748e-05
5.15081e-05
5.15034e-05
5.3436e-05
5.36349e-05
5.12691e-05
5.13059e-05
5.15095e-05
5.15103e-05
5.12955e-05
5.15143e-05
5.15327e-05
5.34685e-05
5.36313e-05
5.12951e-05
5.15209e-05
5.15344e-05
5.36489e-05
5.36973e-05
5.38218e-05
5.15849e-05
5.15777e-05
5.1762e-05
5.1755e-05
5.36943e-05
5.38174e-05
5.15838e-05
5.15645e-05
5.17529e-05
5.17237e-05
5.15894e-05
5.17516e-05
5.17092e-05
5.36761e-05
5.3789e-05
5.15883e-05
5.172e-05
5.17006e-05
5.37738e-05
5.38571e-05
5.39118e-05
5.18049e-05
5.17986e-05
5.18942e-05
5.18977e-05
5.38538e-05
5.39204e-05
5.17966e-05
5.17842e-05
5.18957e-05
5.19338e-05
5.17591e-05
5.19039e-05
5.19373e-05
5.38386e-05
5.39553e-05
5.17514e-05
5.19396e-05
5.19385e-05
5.39583e-05
5.39442e-05
5.40713e-05
5.19248e-05
5.19309e-05
5.20741e-05
5.20646e-05
5.3955e-05
5.40629e-05
5.19278e-05
5.19645e-05
5.20718e-05
5.20572e-05
5.19835e-05
5.20746e-05
5.20647e-05
5.39881e-05
5.40515e-05
5.19863e-05
5.20672e-05
5.20632e-05
5.40536e-05
5.4129e-05
5.42641e-05
5.21383e-05
5.21195e-05
5.23084e-05
5.22832e-05
5.41115e-05
5.42435e-05
5.21341e-05
5.21075e-05
5.23045e-05
5.22876e-05
5.20989e-05
5.22781e-05
5.22718e-05
5.40959e-05
5.4248e-05
5.20952e-05
5.22824e-05
5.22684e-05
5.42362e-05
5.42995e-05
5.43304e-05
5.23507e-05
5.23338e-05
5.24178e-05
5.24396e-05
5.42856e-05
5.43557e-05
5.23481e-05
5.2343e-05
5.24172e-05
5.24446e-05
5.2336e-05
5.24489e-05
5.24615e-05
5.42934e-05
5.43592e-05
5.23338e-05
5.24534e-05
5.24606e-05
5.43744e-05
5.43469e-05
5.43824e-05
5.24296e-05
5.24572e-05
5.24858e-05
5.24808e-05
5.4378e-05
5.4381e-05
5.24284e-05
5.24563e-05
5.24817e-05
5.2474e-05
5.24741e-05
5.24893e-05
5.24817e-05
5.43781e-05
5.43709e-05
5.24725e-05
5.24826e-05
5.24786e-05
5.43639e-05
5.44219e-05
5.45351e-05
5.25221e-05
5.2503e-05
5.26507e-05
5.26238e-05
5.4407e-05
5.45092e-05
5.25177e-05
5.24983e-05
5.26484e-05
5.26358e-05
5.24938e-05
5.26221e-05
5.26222e-05
5.44014e-05
5.45221e-05
5.24899e-05
5.26339e-05
5.26203e-05
5.45098e-05
5.45711e-05
5.46185e-05
5.26906e-05
5.26684e-05
5.27652e-05
5.27674e-05
5.45505e-05
5.4623e-05
5.26892e-05
5.26827e-05
5.27658e-05
5.27852e-05
5.26702e-05
5.27729e-05
5.27894e-05
5.45651e-05
5.46374e-05
5.26692e-05
5.27904e-05
5.27898e-05
5.46426e-05
5.46384e-05
5.46491e-05
5.27792e-05
5.27846e-05
5.28195e-05
5.28162e-05
5.46468e-05
5.46549e-05
5.27797e-05
5.27985e-05
5.28161e-05
5.28056e-05
5.28115e-05
5.28222e-05
5.28202e-05
5.4659e-05
5.46364e-05
5.28113e-05
5.28135e-05
5.28183e-05
5.46433e-05
5.46651e-05
5.45781e-05
5.28212e-05
5.28164e-05
5.27856e-05
5.27835e-05
5.46673e-05
5.45838e-05
5.28171e-05
5.28047e-05
5.27808e-05
5.2781e-05
5.2813e-05
5.2782e-05
5.27651e-05
5.4646e-05
5.45859e-05
5.28095e-05
5.27804e-05
5.27616e-05
5.45646e-05
5.45805e-05
5.46253e-05
5.27599e-05
5.27643e-05
5.27778e-05
5.27799e-05
5.459e-05
5.46344e-05
5.27565e-05
5.27703e-05
5.27783e-05
5.27991e-05
5.27586e-05
5.27925e-05
5.28256e-05
5.45954e-05
5.46546e-05
5.27559e-05
5.28161e-05
5.28282e-05
5.46744e-05
5.47201e-05
5.49693e-05
5.28695e-05
5.28575e-05
5.30983e-05
5.30752e-05
5.47094e-05
5.49234e-05
5.28724e-05
5.28768e-05
5.30947e-05
5.30698e-05
5.28987e-05
5.30707e-05
5.30597e-05
5.47198e-05
5.49079e-05
5.28989e-05
5.30639e-05
5.30558e-05
5.48986e-05
5.49868e-05
5.45897e-05
5.31048e-05
5.30888e-05
5.29205e-05
5.29641e-05
5.49481e-05
5.46568e-05
5.3101e-05
5.30858e-05
5.29209e-05
5.29879e-05
5.30734e-05
5.29757e-05
5.29894e-05
5.49346e-05
5.46881e-05
5.30697e-05
5.29999e-05
5.29904e-05
5.46898e-05
5.45658e-05
5.45129e-05
5.28167e-05
5.28503e-05
5.27289e-05
5.27113e-05
5.46334e-05
5.44779e-05
5.28179e-05
5.28737e-05
5.27279e-05
5.27066e-05
5.28855e-05
5.27196e-05
5.27123e-05
5.46645e-05
5.44664e-05
5.28879e-05
5.2714e-05
5.27106e-05
5.44699e-05
5.45912e-05
5.48122e-05
5.27474e-05
5.27164e-05
5.29502e-05
5.29116e-05
5.45245e-05
5.47614e-05
5.27444e-05
5.27077e-05
5.29437e-05
5.28907e-05
5.27103e-05
5.28959e-05
5.28692e-05
5.44975e-05
5.47446e-05
5.27076e-05
5.28728e-05
5.28612e-05
5.47319e-05
5.48291e-05
5.46434e-05
5.29665e-05
5.29577e-05
5.29096e-05
5.29621e-05
5.47987e-05
5.47235e-05
5.29621e-05
5.29557e-05
5.29125e-05
5.29838e-05
5.29448e-05
5.29721e-05
5.29943e-05
5.47946e-05
5.47586e-05
5.29397e-05
5.29937e-05
5.29947e-05
5.47767e-05
5.46449e-05
5.46001e-05
5.28684e-05
5.29341e-05
5.28096e-05
5.28075e-05
5.47258e-05
5.46003e-05
5.28725e-05
5.29662e-05
5.28083e-05
5.28161e-05
5.2983e-05
5.28208e-05
5.28215e-05
5.47601e-05
5.46004e-05
5.29845e-05
5.283e-05
5.28225e-05
5.45898e-05
5.46291e-05
5.46073e-05
5.28104e-05
5.2794e-05
5.27999e-05
5.27426e-05
5.46087e-05
5.45409e-05
5.28082e-05
5.27952e-05
5.27956e-05
5.2729e-05
5.27907e-05
5.27323e-05
5.27116e-05
5.46063e-05
5.45257e-05
5.27899e-05
5.272e-05
5.27078e-05
5.45113e-05
5.46071e-05
5.4419e-05
5.27801e-05
5.27313e-05
5.26372e-05
5.26567e-05
5.45475e-05
5.44601e-05
5.2775e-05
5.27195e-05
5.26359e-05
5.26639e-05
5.27048e-05
5.26633e-05
5.26764e-05
5.45335e-05
5.44697e-05
5.27009e-05
5.26681e-05
5.26739e-05
5.44879e-05
5.44258e-05
5.44604e-05
5.26247e-05
5.26472e-05
5.26167e-05
5.26222e-05
5.44692e-05
5.44708e-05
5.26238e-05
5.26579e-05
5.26165e-05
5.26368e-05
5.26755e-05
5.26369e-05
5.26542e-05
5.44797e-05
5.44859e-05
5.26734e-05
5.26529e-05
5.26551e-05
5.44877e-05
5.44786e-05
5.42713e-05
5.26241e-05
5.26258e-05
5.1271e-05
5.12424e-05
5.44839e-05
5.42291e-05
5.26239e-05
5.26398e-05
5.12709e-05
5.1236e-05
5.26503e-05
5.12421e-05
5.12161e-05
5.44984e-05
5.42175e-05
5.26513e-05
5.12347e-05
5.12153e-05
5.41964e-05
5.40629e-05
5.06967e-05
5.0671e-05
5.40321e-05
5.06961e-05
5.06615e-05
4.39309e-05
4.39258e-05
4.39123e-05
5.06447e-05
5.40165e-05
5.06437e-05
3.73769e-05
3.73764e-05
3.73767e-05
3.73767e-05
3.73694e-05
3.73756e-05
3.73043e-05
3.73764e-05
3.73695e-05
3.73756e-05
3.73764e-05
3.73043e-05
3.73714e-05
3.72959e-05
3.72959e-05
3.58829e-05
4.08678e-05
3.6601e-05
4.51384e-05
5.51099e-05
6.48883e-05
3.58835e-05
4.08674e-05
3.66009e-05
4.51411e-05
3.60232e-05
3.60232e-05
3.60232e-05
3.44005e-05
3.44005e-05
3.44005e-05
3.44005e-05
3.52763e-05
3.56383e-05
3.60241e-05
3.53761e-05
3.60479e-05
3.42427e-05
3.53827e-05
5.51119e-05
6.48899e-05
3.52764e-05
3.60241e-05
3.56379e-05
3.53761e-05
3.60478e-05
3.53827e-05
3.42432e-05
3.65942e-05
3.65948e-05
3.52782e-05
3.40673e-05
3.40664e-05
3.39695e-05
5.13493e-05
3.46835e-05
5.46194e-05
7.65443e-05
8.08619e-05
3.39704e-05
5.13498e-05
3.46828e-05
5.46227e-05
3.39295e-05