/*--------------------------------*- C++ -*----------------------------------*\
| =========                 |                                                 |
| \\      /  F ield         | OpenFOAM: The Open Source CFD Toolbox           |
|  \\    /   O peration     | Version:  2312                                  |
|   \\  /    A nd           | Website:  www.openfoam.com                      |
|    \\/     M anipulation  |                                                 |
\*---------------------------------------------------------------------------*/
FoamFile
{
    version     2.0;
    format      ascii;
    arch        "LSB;label=32;scalar=64";
    class       volScalarField;
    location    "1000";
    object      nut;
}
// * * * * * * * * * * * * * * * * * * * * * * * * * * * * * * * * * * * * * //

dimensions      [0 2 -1 0 0 0 0];

internalField   nonuniform List<scalar> 
172512
(
0.000233969
0.000233549
0.000233549
0.00023345
0.000232529
0.000227583
0.000227583
0.000223835
0.000230489
0.000220163
0.000220162
0.00020903
0.00022776
0.000211546
0.000211543
0.0001937
0.00022439
0.000202555
0.000202552
0.00017963
0.000220508
0.000193694
0.000193691
0.000167269
0.000216261
0.00018521
0.000185206
0.000156525
0.000211779
0.000177178
0.000177173
0.000147152
0.000207168
0.000169639
0.000169635
0.000138902
0.000202509
0.000162568
0.000162563
0.000131572
0.000197856
0.000155911
0.000155906
0.000124915
0.000193244
0.000149612
0.000149607
0.000118782
0.000188653
0.000143633
0.000143629
0.000113138
0.000184123
0.000137922
0.000137917
0.000107904
0.000179681
0.000132434
0.000132431
0.000103028
0.000175315
0.000127164
0.00012716
9.84092e-05
0.000171014
0.000122126
0.000122122
9.42312e-05
0.000166764
0.000117347
0.000117343
9.06427e-05
0.000162568
0.000112868
0.000112863
8.77186e-05
0.000158399
0.000108732
0.000108733
8.53681e-05
0.000154245
0.000105007
0.000105002
8.36506e-05
0.000150133
0.000101695
0.00010169
8.25663e-05
0.000146049
9.88797e-05
9.88766e-05
8.2095e-05
0.000142026
9.65598e-05
9.65596e-05
8.21294e-05
0.000138103
9.47856e-05
9.47612e-05
8.26615e-05
0.000134259
9.35124e-05
9.35128e-05
8.36515e-05
0.000130583
9.26729e-05
9.26786e-05
8.49738e-05
0.000127094
9.24579e-05
9.24866e-05
8.66488e-05
0.000123993
9.28155e-05
9.27138e-05
8.88056e-05
0.000120967
9.30174e-05
9.31842e-05
9.0876e-05
0.000118159
9.41608e-05
9.40583e-05
9.27354e-05
0.000115774
9.59229e-05
9.57195e-05
9.58888e-05
0.000113664
9.696e-05
9.73785e-05
9.78135e-05
0.000110822
9.85993e-05
9.88539e-05
0.000100384
0.000111791
0.000101315
0.000100681
0.000103827
0.000113536
0.000106515
0.000103432
0.000106774
0.000104731
0.00010661
0.000111326
0.000109674
0.000111354
0.000101321
0.000111602
0.000108431
0.000120498
0.000115036
0.000107761
0.000115971
0.00010733
0.000122094
0.000102981
0.000124421
8.00634e-05
0.000130003
0.000118517
0.00012126
0.000121331
0.000121036
0.000147269
0.000109374
0.00016038
9.0891e-05
0.000145251
0.000127096
0.000123665
0.000138601
7.90803e-05
0.000136933
7.47382e-05
0.000132962
0.000139877
0.000102567
0.0001119
0.000139656
0.000184111
0.000167355
0.00018691
0.000161487
0.00014162
0.000148789
0.000116492
0.000137518
0.000135858
0.000111166
8.05248e-05
0.000119678
0.000109912
0.000136645
0.000173776
0.000150335
0.000176361
0.000147518
0.00021684
0.000189253
0.000217579
0.000178355
0.000139161
0.000163625
0.00013539
0.000158689
9.93994e-05
0.000125975
0.00011462
0.00012204
0.000124507
0.000135398
0.000163038
0.000131644
0.00015897
0.000169076
0.000174797
0.000161731
0.000166154
0.000177175
0.000170695
0.000166291
0.000162815
0.00017287
0.000167337
0.000159905
0.000158225
0.000167542
0.000165885
0.000158384
0.00015899
0.000170788
0.000173409
0.000162713
0.000162042
0.000173057
0.000173344
0.000161855
0.000166243
0.000174698
0.000174783
0.000163734
0.000169993
0.000179518
0.000179134
0.00016697
0.000173441
0.000181577
0.000181542
0.000168547
0.000177219
0.000182813
0.000183409
0.000170038
0.000181911
0.000185925
0.00018539
0.000170961
0.000183968
0.000186902
0.000186678
0.000172374
0.000186395
0.0001894
0.000189926
0.000174652
0.000190464
0.000191429
0.00019152
0.000175404
0.00019329
0.000192856
0.000192604
0.00017663
0.000196392
0.000195231
0.000195088
0.000178218
0.000198969
0.00019614
0.000196432
0.000178829
0.000201844
0.000198035
0.000197842
0.000180159
0.000203941
0.00019919
0.000199436
0.000181029
0.000206911
0.000201087
0.00020101
0.00018237
0.000209722
0.000202419
0.000202218
0.000182903
0.000211374
0.000203266
0.000203533
0.000183956
0.000213344
0.000204321
0.000204208
0.000184269
0.000216143
0.0002058
0.000205857
0.000185417
0.0002179
0.000206967
0.000206954
0.00018628
0.000219144
0.000207142
0.000207057
0.000186062
0.000221293
0.00020834
0.000208413
0.000187015
0.000223333
0.0002096
0.000209724
0.000188011
0.000225043
0.000210231
0.000210106
0.000188197
0.000225172
0.000209887
0.000209898
0.000187591
0.00022623
0.000210536
0.000210667
0.000188447
0.000230211
0.000213142
0.000213052
0.000190324
0.000230284
0.000212196
0.000212429
0.000189351
0.000229094
0.000210861
0.00021078
0.000187814
0.00023149
0.000213034
0.000212882
0.000189871
0.000232903
0.000213875
0.000214107
0.000190483
0.000233245
0.000213272
0.000213286
0.000189629
0.000234051
0.000213225
0.000213087
0.000189429
0.000233928
0.000213171
0.000213206
0.000189611
0.000234886
0.000214145
0.000214289
0.00019022
0.000235172
0.000214385
0.000214281
0.000193914
0.000234257
0.000234459
0.00023446
0.000234257
0.000234459
0.000234459
0.000234259
0.000234259
0.000234259
0.000234259
0.000234459
0.000234459
0.000234257
0.000234458
0.000234459
0.000234257
0.00023345
0.00022618
0.000233549
0.000233548
0.000229126
0.000229122
0.00023345
0.00022618
0.000233548
0.000233548
0.000229124
0.000229121
0.000233549
0.000229129
0.000229127
0.00023345
0.000226179
0.000233548
0.000229129
0.000229124
0.000226178
0.000223836
0.000212153
0.00022758
0.000227575
0.000222162
0.000222156
0.000223835
0.000212153
0.000227578
0.000227574
0.000222162
0.000222155
0.000227579
0.000222168
0.000222161
0.000223836
0.00021215
0.000227578
0.000222167
0.000222161
0.000212146
0.000209033
0.000196981
0.000220156
0.00022015
0.000213753
0.000213746
0.000209032
0.000196979
0.000220157
0.000220148
0.000213758
0.000213744
0.000220154
0.000213762
0.00021375
0.000209031
0.000196976
0.000220156
0.000213761
0.000213754
0.00019697
0.000193708
0.000182805
0.000211535
0.000211528
0.000204791
0.000204784
0.000193707
0.000182802
0.000211541
0.000211526
0.0002048
0.000204781
0.000211531
0.000204804
0.000204786
0.000193704
0.000182798
0.000211537
0.000204802
0.000204795
0.000182792
0.000179642
0.000170207
0.000202541
0.000202534
0.000195864
0.000195857
0.000179639
0.000170204
0.000202551
0.000202531
0.000195876
0.000195853
0.000202536
0.000195879
0.000195858
0.000179635
0.000170198
0.000202545
0.000195877
0.000195869
0.000170192
0.000167283
0.000159191
0.000193677
0.00019367
0.000187271
0.000187264
0.00016728
0.000159187
0.000193691
0.000193666
0.000187287
0.00018726
0.000193671
0.000187289
0.000187264
0.000167275
0.000159182
0.000193684
0.000187286
0.000187279
0.000159174
0.00015654
0.00014957
0.00018519
0.000185183
0.000179118
0.000179111
0.000156537
0.000149566
0.000185206
0.000185179
0.000179137
0.000179106
0.000185183
0.000179138
0.000179111
0.000156531
0.00014956
0.000185198
0.000179135
0.000179128
0.000149552
0.000147168
0.00014107
0.000177155
0.000177148
0.000171454
0.000171447
0.000147164
0.000141066
0.000177175
0.000177144
0.000171475
0.000171442
0.000177148
0.000171477
0.000171447
0.000147158
0.000141059
0.000177166
0.000171474
0.000171466
0.000141052
0.000138919
0.000133516
0.000169614
0.000169607
0.000164268
0.000164261
0.000138915
0.000133512
0.000169637
0.000169603
0.000164292
0.000164256
0.000169608
0.000164294
0.000164262
0.000138909
0.000133505
0.000169628
0.00016429
0.000164283
0.000133497
0.00013159
0.000126659
0.000162541
0.000162533
0.000157511
0.000157503
0.000131585
0.000126656
0.000162566
0.000162529
0.000157537
0.000157499
0.000162534
0.000157539
0.000157504
0.000131579
0.000126648
0.000162556
0.000157535
0.000157528
0.000126639
0.000124934
0.00012034
0.000155881
0.000155874
0.000151126
0.000151118
0.000124929
0.000120336
0.000155909
0.00015587
0.000151154
0.000151114
0.000155875
0.000151155
0.00015112
0.000124923
0.000120328
0.000155899
0.000151152
0.000151145
0.000120319
0.000118799
0.000114407
0.00014958
0.000149573
0.000145068
0.00014506
0.000118796
0.000114402
0.000149609
0.00014957
0.000145098
0.000145057
0.000149575
0.000145099
0.000145063
0.000118788
0.000114396
0.0001496
0.000145096
0.000145088
0.000114386
0.000113153
0.00010882
0.000143601
0.000143594
0.000139295
0.000139286
0.00011315
0.000108814
0.000143631
0.00014359
0.000139325
0.000139283
0.000143597
0.000139326
0.000139289
0.000113144
0.000108807
0.000143622
0.000139323
0.000139315
0.000108798
0.000107923
0.000103687
0.000137889
0.000137881
0.000133753
0.000133745
0.000107917
0.000103682
0.00013792
0.000137877
0.000133784
0.00013374
0.000137884
0.000133786
0.000133748
0.000107911
0.000103674
0.00013791
0.000133782
0.000133774
0.000103667
0.000103047
9.91154e-05
0.000132403
0.000132392
0.000128426
0.000128413
0.000103043
9.9106e-05
0.000132433
0.00013239
0.000128455
0.000128412
0.000132397
0.000128456
0.000128421
0.000103035
9.91025e-05
0.000132423
0.000128454
0.000128446
9.90925e-05
9.84302e-05
9.49747e-05
0.000127133
0.000127121
0.000123329
0.000123316
9.84212e-05
9.49737e-05
0.000127161
0.000127118
0.000123355
0.000123314
0.000127127
0.000123359
0.000123326
9.84176e-05
9.49672e-05
0.000127151
0.000123356
0.000123347
9.49612e-05
9.4244e-05
9.1425e-05
0.000122096
0.000122082
0.000118466
0.00011845
9.42426e-05
9.14223e-05
0.000122121
0.000122081
0.00011849
0.000118449
0.000122092
0.000118492
0.000118461
9.42357e-05
9.14166e-05
0.000122113
0.00011849
0.00011848
9.14113e-05
9.0655e-05
8.83689e-05
0.000117316
0.000117303
0.000113909
0.000113895
9.06506e-05
8.8369e-05
0.000117341
0.000117302
0.000113932
0.000113892
0.000117315
0.00011394
0.000113908
9.06468e-05
8.83608e-05
0.000117333
0.000113934
0.000113925
8.83588e-05
8.77263e-05
8.59058e-05
0.000112835
0.000112822
0.000109684
0.000109664
8.77284e-05
8.58956e-05
0.000112858
0.000112821
0.000109705
0.000109666
0.000112838
0.000109708
0.000109681
8.77192e-05
8.5895e-05
0.000112854
0.000109707
0.000109696
8.58908e-05
8.53852e-05
8.40612e-05
0.000108707
0.000108688
0.000105835
0.000105824
8.53742e-05
8.40589e-05
0.000108728
0.000108691
0.000105855
0.000105823
0.000108704
0.000105867
0.000105838
8.53765e-05
8.40544e-05
0.00010872
0.000105863
0.00010585
8.40456e-05
8.36585e-05
8.28555e-05
0.000104972
0.000104964
0.000102444
0.000102431
8.36646e-05
8.28567e-05
0.000104992
0.000104963
0.000102465
0.000102428
0.000104978
0.000102471
0.000102444
8.36564e-05
8.28432e-05
0.00010499
0.000102467
0.000102456
8.2842e-05
8.25891e-05
8.22778e-05
0.000101673
0.000101652
9.95156e-05
9.94996e-05
8.25784e-05
8.22639e-05
0.000101694
0.000101653
9.9536e-05
9.94946e-05
0.000101665
9.95402e-05
9.95115e-05
8.25662e-05
8.22636e-05
0.000101677
9.95348e-05
9.95236e-05
8.22565e-05
8.21078e-05
8.21756e-05
9.88526e-05
9.88391e-05
9.70507e-05
9.70504e-05
8.20993e-05
8.21765e-05
9.88717e-05
9.88378e-05
9.70699e-05
9.70419e-05
9.88527e-05
9.70897e-05
9.70684e-05
8.20982e-05
8.21791e-05
9.88639e-05
9.70798e-05
9.7077e-05
8.21826e-05
8.2127e-05
8.26599e-05
9.65267e-05
9.65209e-05
9.51568e-05
9.51401e-05
8.21264e-05
8.2656e-05
9.6546e-05
9.65215e-05
9.51766e-05
9.51301e-05
9.6546e-05
9.5176e-05
9.51426e-05
8.21258e-05
8.26406e-05
9.65499e-05
9.51667e-05
9.51482e-05
8.26216e-05
8.27097e-05
8.35159e-05
9.4762e-05
9.47498e-05
9.37407e-05
9.37561e-05
8.27092e-05
8.3535e-05
9.47782e-05
9.47287e-05
9.37595e-05
9.37558e-05
9.47351e-05
9.37746e-05
9.37557e-05
8.26759e-05
8.35385e-05
9.47435e-05
9.37786e-05
9.37652e-05
8.35146e-05
8.36444e-05
8.48074e-05
9.34642e-05
9.34951e-05
9.28648e-05
9.27837e-05
8.36768e-05
8.47037e-05
9.3478e-05
9.34911e-05
9.28886e-05
9.28062e-05
9.34898e-05
9.28339e-05
9.28536e-05
8.36722e-05
8.47325e-05
9.34966e-05
9.28407e-05
9.28661e-05
8.47926e-05
8.50004e-05
8.63038e-05
9.26793e-05
9.26244e-05
9.23744e-05
9.24542e-05
8.49001e-05
8.64207e-05
9.27024e-05
9.26381e-05
9.23887e-05
9.24225e-05
9.2719e-05
9.24713e-05
9.2378e-05
8.49124e-05
8.64198e-05
9.27269e-05
9.24625e-05
9.23857e-05
8.63792e-05
8.65822e-05
8.83974e-05
9.23565e-05
9.24493e-05
9.25744e-05
9.26603e-05
8.67316e-05
8.85017e-05
9.2372e-05
9.24548e-05
9.25869e-05
9.26077e-05
9.23648e-05
9.27047e-05
9.26535e-05
8.67358e-05
8.84737e-05
9.23711e-05
9.26373e-05
9.26362e-05
8.8445e-05
8.87512e-05
9.05286e-05
9.27213e-05
9.2763e-05
9.30779e-05
9.29293e-05
8.88047e-05
9.03448e-05
9.27318e-05
9.26923e-05
9.30907e-05
9.30483e-05
9.26876e-05
9.29373e-05
9.31865e-05
8.87882e-05
9.04349e-05
9.26821e-05
9.30709e-05
9.32131e-05
9.05122e-05
9.08733e-05
9.2699e-05
9.32797e-05
9.2997e-05
9.39526e-05
9.38837e-05
9.0622e-05
9.25798e-05
9.32898e-05
9.31623e-05
9.39822e-05
9.38261e-05
9.33909e-05
9.38834e-05
9.36085e-05
9.07671e-05
9.24937e-05
9.34019e-05
9.38032e-05
9.36158e-05
9.2407e-05
9.30708e-05
9.50523e-05
9.41096e-05
9.41965e-05
9.51212e-05
9.53509e-05
9.30988e-05
9.53443e-05
9.41461e-05
9.40358e-05
9.51223e-05
9.5191e-05
9.38067e-05
9.54543e-05
9.5435e-05
9.29089e-05
9.514e-05
9.38428e-05
9.53031e-05
9.54163e-05
9.53217e-05
9.55158e-05
9.74846e-05
9.56027e-05
9.57839e-05
9.67507e-05
9.66956e-05
9.57796e-05
9.75481e-05
9.5586e-05
9.56126e-05
9.67497e-05
9.67992e-05
9.59729e-05
9.66272e-05
9.65651e-05
9.56094e-05
9.78206e-05
9.5901e-05
9.67966e-05
9.65963e-05
9.74981e-05
9.78165e-05
9.90469e-05
9.71135e-05
9.70791e-05
9.75355e-05
9.82755e-05
9.78551e-05
9.96972e-05
9.71105e-05
9.74002e-05
9.75496e-05
9.8885e-05
9.68711e-05
9.82419e-05
9.86017e-05
9.8294e-05
0.000100204
9.69101e-05
9.86965e-05
9.8519e-05
9.99314e-05
9.94023e-05
0.000104256
9.77906e-05
9.85111e-05
0.000101205
0.000100027
0.000100117
0.000102665
9.78655e-05
9.90705e-05
0.000101288
9.98857e-05
9.90083e-05
0.000100298
0.000100585
0.000100458
0.000101908
9.90055e-05
0.000100097
0.000100652
0.000103096
0.000105726
0.000109134
0.000102939
0.000101191
0.000108078
0.000105713
0.00010352
0.000108131
0.000102973
0.000100324
0.000107973
0.000102113
0.000101655
0.000105238
0.000104012
0.000102353
0.000105034
0.000101735
0.000102306
0.000104206
0.000106479
0.000108808
0.000102142
0.00010779
0.000107076
0.000101692
0.000107018
0.000108817
0.000108603
0.000107569
0.000103432
0.000101352
0.000109749
0.000104118
0.000107768
0.000107137
0.000106061
0.000113021
0.000104052
0.000109675
0.000106371
0.000108992
0.000101045
0.000114986
9.9858e-05
0.000105498
0.000109175
0.000101012
0.000107865
0.000104513
9.96039e-05
0.000111252
0.000109743
0.000112162
0.000108559
0.000101485
0.000106767
0.000114077
0.000114085
0.000108083
0.000112213
0.000107372
0.000109132
0.00011868
0.000130012
0.000114451
0.000102147
0.000123037
0.000112527
0.000105041
0.00011567
0.000114936
0.000111754
0.000123344
0.000109206
0.000105267
0.000111051
0.000108914
0.000113529
0.000110491
0.000105994
0.000108706
0.000109187
0.000113318
0.000129755
0.000109167
0.000123484
0.000116292
0.000114594
0.000121291
0.000118069
0.000122783
0.000123789
0.000108357
0.000114339
0.000104638
0.000112722
0.000121299
0.000121267
0.000110055
0.000106907
0.000112684
0.000104112
0.000120864
0.000123977
0.000104853
8.68171e-05
0.00010668
0.000121449
8.87836e-05
0.000125245
0.000123134
0.000130541
0.000106535
0.000103189
8.86476e-05
0.000110133
0.000122208
0.000127105
0.000121727
0.000106083
0.00011552
0.000121786
0.000112243
0.000121512
0.000121979
9.22827e-05
0.000139445
8.87607e-05
0.000127802
0.000130419
0.00012842
0.000133273
0.000127576
8.82159e-05
0.000116304
0.000128377
0.000137528
0.000121021
0.000129237
0.000113072
0.00011983
0.000146504
0.0001206
0.000138055
0.000110846
0.000111352
0.000145474
0.000167809
0.000141612
0.000121749
0.000161764
9.52174e-05
0.000123062
8.6995e-05
0.000140111
0.000147357
0.000166291
0.000161275
0.00010965
9.37047e-05
0.000110451
0.000152468
0.000155251
0.000107994
0.000158219
0.000116819
0.000120938
0.00016461
0.000119405
0.000162856
9.25293e-05
0.000131686
0.0001263
8.54551e-05
0.000139777
0.000169273
0.000148896
0.000132725
8.67136e-05
0.000121333
0.000127185
0.000136077
0.000145031
7.03273e-05
0.000127393
8.65843e-05
0.000136953
0.000139335
0.000113647
8.58159e-05
0.000122279
0.000137183
9.2852e-05
0.000139089
0.000144717
0.000132243
0.000120204
7.88746e-05
8.94567e-05
0.000110337
0.000135398
0.000139609
0.000114224
6.68809e-05
0.000136443
0.000134675
0.00011044
0.000109727
0.000104338
8.55526e-05
0.000140981
8.85204e-05
0.000132835
0.000125032
0.000127592
0.000127495
0.00013077
8.59471e-05
0.000140367
0.000130945
0.000182
0.000110891
0.000129311
0.00014169
0.000151875
0.000193174
0.000106994
0.000184068
0.000147124
0.000158826
0.000152014
0.000205503
0.000147035
0.000136788
0.000196196
0.000160828
0.000138035
0.000161934
0.000151692
0.000181237
0.000196053
0.000147384
0.000157721
0.000160112
0.000170794
0.000185244
0.000126029
0.000163165
0.000146973
0.000171916
0.000159366
0.000202732
0.000100198
0.000199079
0.000163323
0.000129203
0.000145724
0.000159828
0.000130526
0.000198081
0.000143819
0.000128952
0.000141025
0.000160221
0.000143325
0.000124394
0.000125574
0.00013728
0.000158294
0.000138254
0.000125246
0.000110503
8.97014e-05
0.000114612
0.000107485
0.00013839
9.81994e-05
0.000119906
0.000127782
0.000120892
0.000107729
0.000136798
9.73825e-05
0.000111
0.000121295
0.000122952
0.000128476
0.000135475
0.000105846
0.000122754
0.000112855
0.000127948
0.000134497
0.000129343
0.000195722
0.000120535
0.000116537
0.000186389
0.000140943
0.000120583
0.000142902
0.000118106
0.000107847
0.000185549
0.000158772
0.000133039
0.000139382
0.000146157
0.000103822
0.000168562
0.000130757
0.000157025
0.000146127
0.000144047
0.000199124
0.000179334
0.000197967
0.000152783
0.000205176
0.000184449
0.000148444
0.000183444
0.000199089
0.000179934
0.000209378
0.00022049
0.000152612
0.000181759
0.000174996
0.000179931
0.000217387
0.00015375
0.000215805
0.000178266
0.000175172
0.000169943
0.000129055
0.000189614
0.000191142
0.000146951
0.000177733
0.000185805
0.00015677
0.000193502
0.00022092
0.000146343
0.00015192
0.000183462
0.000181213
0.000188355
0.000207485
0.000124075
0.000186383
0.000153099
0.000186865
0.000165985
0.00012596
0.000121302
0.000137827
0.000160947
0.000123441
0.00013002
0.000149138
0.000120225
0.000136545
0.000134168
0.000121322
0.00011329
0.000172312
0.0001312
0.000137836
0.000115971
0.000112404
0.000169857
0.000113936
0.000136071
0.000124875
0.000124174
0.000149936
0.000122828
0.000125197
0.000147827
0.000126288
0.00011858
0.000132758
0.000120846
0.000114454
0.000149622
0.000155884
0.000129726
0.000124322
0.000120247
0.000119347
0.000157621
0.00012851
0.000153588
0.000120598
0.00012572
0.000153384
0.000161388
0.000155376
0.000137952
0.000168909
0.000164542
0.000138219
0.000159125
0.000157716
0.00016531
0.000170389
0.000175527
0.000126593
0.000163356
0.000161507
0.000161348
0.000165752
0.000129133
0.000174488
0.000163128
0.000158988
0.000161696
0.000161309
0.000170853
0.000169663
0.000172311
0.000176256
0.000161458
0.000166273
0.000171747
0.000175611
0.000172039
0.000171388
0.000168458
0.000176707
0.000177023
0.000165143
0.000159724
0.000169374
0.000171846
0.000176648
0.000166621
0.000161118
0.000159958
0.000172119
0.000176614
0.000170645
0.000173994
0.000166168
0.000161969
0.000171684
0.000170111
0.000170121
0.000167756
0.000177309
0.00017443
0.000173376
0.000159473
0.000157977
0.000176821
0.000168234
0.000172848
0.000160463
0.000159771
0.000159469
0.000170108
0.000172586
0.00016874
0.000168443
0.000161505
0.000158265
0.000169639
0.000167009
0.000168408
0.000165486
0.000171423
0.0001684
0.000168077
0.00015767
0.000157024
0.000170939
0.00016528
0.000167728
0.000158149
0.000159542
0.000160891
0.000168596
0.000167609
0.000170378
0.000168452
0.000157882
0.000160117
0.000168579
0.000166509
0.000170708
0.000171834
0.000167615
0.0001684
0.000171318
0.000157584
0.000162309
0.000167309
0.00017187
0.000171646
0.000162304
0.000161064
0.00016199
0.000170972
0.000170675
0.000172477
0.000173227
0.000161118
0.000162665
0.000171315
0.000173237
0.000172475
0.00017362
0.00017278
0.000173369
0.000173156
0.000162832
0.000162698
0.000173108
0.000173932
0.000173346
0.000162247
0.000162242
0.000164612
0.000173062
0.000173025
0.000175507
0.000173749
0.000162433
0.000162896
0.000172938
0.000173066
0.000175434
0.000173484
0.000172654
0.000173556
0.000173471
0.000162304
0.000162944
0.000172785
0.00017311
0.000173231
0.000162961
0.000165031
0.00016627
0.000176341
0.000174864
0.000177992
0.000178577
0.00016351
0.000167012
0.000176355
0.000175074
0.000178061
0.000178474
0.000174815
0.000178617
0.00017828
0.000163779
0.000166852
0.000174743
0.000178493
0.000178335
0.000166712
0.000166344
0.000167607
0.000178409
0.00017943
0.000180149
0.000181106
0.000167395
0.000168446
0.000178434
0.000179057
0.000180079
0.0001808
0.000179024
0.000181192
0.000180909
0.000167047
0.000168231
0.000179045
0.000180884
0.000180838
0.000168284
0.000167903
0.000169641
0.000180788
0.000181493
0.000182554
0.000182274
0.000168518
0.000169298
0.000180729
0.000181463
0.00018261
0.000182893
0.000181552
0.000182384
0.000183069
0.000168511
0.000169866
0.000181491
0.000183004
0.000183126
0.000169923
0.00016995
0.000171892
0.000183271
0.000182714
0.000185741
0.000185215
0.000169461
0.000171451
0.000183358
0.000183308
0.000185787
0.000185
0.000183437
0.000185175
0.000184629
0.000169987
0.000171112
0.000183525
0.000184958
0.000184672
0.000170855
0.000172056
0.000172408
0.000186336
0.000186013
0.000186859
0.000186871
0.000171775
0.000172478
0.000186331
0.000185486
0.000186759
0.000186314
0.000185058
0.000186769
0.00018636
0.000171272
0.000172054
0.000185048
0.000186219
0.000186263
0.000172129
0.000172344
0.000173617
0.000186924
0.000186948
0.000188274
0.000188413
0.000172428
0.000173749
0.000186849
0.000186717
0.000188338
0.000188963
0.000186922
0.00018855
0.000189162
0.000172185
0.000174279
0.000186853
0.000189096
0.000189221
0.000174388
0.000173966
0.000175568
0.000189051
0.00018924
0.000191048
0.000191118
0.000174132
0.000175597
0.000189128
0.000189773
0.000191081
0.00019127
0.000189875
0.000191194
0.000191032
0.000174634
0.000175681
0.000189946
0.000191351
0.000191068
0.000175436
0.000175666
0.000176556
0.000191458
0.000191403
0.000192541
0.000192307
0.000175621
0.000176364
0.000191483
0.00019149
0.000192555
0.000192192
0.00019119
0.000192263
0.000192237
0.000175654
0.000176225
0.000191217
0.000192147
0.000192249
0.000176353
0.00017671
0.000177985
0.000193019
0.000192877
0.000194561
0.000194763
0.00017658
0.000178189
0.000193014
0.000192628
0.000194509
0.000194451
0.000192891
0.000194829
0.000194786
0.000176379
0.000177996
0.000192885
0.000194519
0.000194736
0.000178157
0.000178085
0.000178925
0.00019497
0.000195161
0.000195926
0.000195806
0.000178277
0.000178808
0.000194928
0.000195018
0.000195974
0.000196126
0.000195133
0.000195825
0.000195756
0.000178188
0.000179072
0.000195092
0.000196147
0.000195803
0.000178763
0.000179022
0.00018013
0.000196305
0.000196126
0.000197692
0.000197589
0.000178847
0.00018008
0.00019637
0.000196419
0.000197705
0.000197462
0.000196132
0.000197615
0.000197614
0.000179097
0.000179926
0.000196196
0.000197486
0.000197626
0.000180078
0.000180203
0.000180852
0.000198066
0.000198013
0.000198784
0.000198838
0.000180193
0.000180906
0.00019805
0.000197822
0.000198776
0.000198958
0.000197972
0.000198853
0.000198839
0.000180021
0.000181034
0.000197955
0.000198975
0.000198831
0.000180918
0.000180896
0.000182165
0.000199095
0.000199155
0.000200524
0.00020051
0.000180952
0.000182167
0.000199115
0.0001994
0.000200579
0.000200615
0.00019928
0.000200607
0.000200803
0.000181161
0.000182195
0.000199301
0.000200714
0.000200856
0.000182312
0.000182325
0.000183273
0.000201032
0.000200994
0.000202247
0.000202196
0.00018231
0.000183228
0.000201067
0.000200922
0.000202202
0.000201869
0.000201147
0.000202169
0.00020176
0.000182231
0.000182975
0.000201179
0.000201842
0.000201716
0.000182884
0.000183262
0.000183625
0.000202523
0.000202476
0.000202955
0.000203015
0.000183224
0.000183694
0.000202478
0.000202275
0.000202993
0.000203281
0.000202054
0.000203047
0.000203278
0.000183054
0.000183917
0.000202012
0.000203311
0.000203311
0.000183911
0.000183567
0.000184365
0.000203076
0.000203176
0.000203938
0.000203923
0.000183662
0.000184354
0.000203132
0.000203444
0.000203956
0.00020386
0.000203588
0.000204025
0.000203955
0.000183885
0.000184283
0.000203639
0.000203963
0.000203975
0.000184321
0.000184499
0.000185606
0.000204384
0.000204269
0.00020568
0.00020544
0.000184418
0.000185391
0.000204384
0.000204157
0.000205678
0.000205453
0.000204113
0.00020539
0.000205287
0.00018431
0.000185404
0.000204114
0.000205405
0.000205286
0.000185288
0.000185632
0.000186059
0.00020602
0.000205837
0.000206555
0.00020673
0.000185452
0.00018623
0.000206027
0.00020589
0.000206584
0.000206769
0.000205789
0.000206793
0.000206884
0.000185492
0.000186265
0.000205797
0.00020683
0.000206908
0.000186363
0.000185925
0.000186221
0.000206621
0.000206879
0.000206927
0.000206977
0.00018616
0.00018628
0.00020665
0.000206869
0.000206927
0.000206881
0.000207008
0.000207068
0.000206987
0.000186167
0.000186182
0.000207027
0.00020697
0.000206991
0.000186163
0.000186238
0.000187181
0.000207182
0.000207097
0.000208196
0.000207991
0.000186203
0.000186981
0.000207177
0.000207012
0.000208202
0.000208041
0.000207007
0.000207978
0.000207924
0.000186128
0.000187033
0.000207003
0.00020803
0.000207932
0.000186935
0.000187214
0.000187875
0.000208541
0.00020835
0.000209273
0.000209302
0.000187036
0.000187905
0.000208554
0.000208426
0.000209311
0.000209459
0.000208306
0.000209335
0.000209457
0.000187107
0.000188018
0.000208321
0.000209493
0.00020949
0.000188037
0.000187805
0.000188363
0.000209454
0.000209515
0.000210106
0.00021008
0.000187867
0.000188395
0.000209494
0.000209648
0.000210115
0.00020998
0.00020974
0.000210141
0.000210131
0.000187965
0.000188274
0.000209771
0.000210058
0.000210147
0.000188346
0.000188275
0.000187966
0.000210225
0.000210183
0.000210062
0.000210066
0.000188281
0.000187999
0.000210226
0.000210057
0.000210051
0.000209997
0.000210149
0.000210043
0.000209841
0.000188138
0.000187962
0.000210151
0.000209979
0.000209835
0.000187787
0.000187687
0.000187852
0.000209805
0.000209889
0.000209705
0.000209775
0.00018776
0.00018797
0.000209802
0.000209894
0.000209741
0.000209923
0.000209747
0.000209892
0.000210141
0.00018776
0.000188116
0.000209746
0.000210079
0.000210194
0.000188247
0.000188252
0.000190925
0.000210437
0.00021038
0.000213043
0.000212761
0.000188226
0.000190532
0.000210493
0.000210531
0.000213041
0.000212659
0.000210725
0.000212714
0.000212582
0.000188308
0.000190385
0.000210759
0.000212599
0.000212573
0.000190319
0.000190893
0.000188971
0.000213403
0.000213209
0.000212458
0.000212909
0.00019055
0.000189485
0.000213396
0.000213127
0.000212491
0.000213108
0.000212994
0.000212989
0.00021308
0.000190415
0.000189708
0.000212982
0.000213192
0.000213114
0.000189692
0.000188543
0.000188055
0.000211637
0.000212048
0.000210829
0.000210771
0.000189109
0.000187931
0.000211682
0.000212271
0.000210867
0.000210764
0.000212352
0.000210893
0.000210872
0.000189341
0.000187898
0.000212403
0.000210885
0.000210904
0.000187956
0.000188333
0.000190514
0.000210983
0.000210774
0.000213109
0.000212587
0.000187958
0.000190002
0.000211004
0.000210699
0.000213074
0.000212288
0.000210763
0.000212407
0.00021206
0.000187804
0.000189797
0.00021078
0.000212104
0.000212014
0.000189661
0.000190447
0.000189749
0.000213401
0.000213158
0.000213342
0.000213823
0.000190075
0.000190296
0.000213378
0.000213022
0.000213393
0.000213987
0.000212842
0.000213888
0.000214056
0.00018996
0.000190532
0.000212807
0.000214051
0.000214082
0.000190661
0.000189536
0.00018972
0.000213065
0.000213699
0.000213037
0.000213161
0.000190114
0.000189825
0.000213131
0.000213969
0.000213072
0.000213258
0.000214121
0.000213327
0.00021336
0.000190352
0.000189845
0.000214161
0.000213426
0.000213403
0.000189802
0.000189735
0.000190396
0.00021323
0.000213161
0.00021388
0.000213335
0.000189686
0.00018985
0.000213252
0.000213182
0.000213872
0.000213177
0.000213191
0.00021323
0.000212973
0.000189686
0.000189712
0.000213219
0.000213082
0.000212967
0.000189567
0.000190203
0.000189268
0.00021383
0.000213332
0.000212935
0.00021311
0.000189696
0.000189549
0.000213815
0.000213187
0.000212947
0.000213128
0.000212997
0.000213136
0.000213197
0.000189565
0.00018959
0.00021299
0.000213135
0.000213198
0.000189704
0.000189061
0.00019003
0.000212854
0.000213098
0.000213338
0.000213482
0.000189403
0.000190166
0.000212871
0.000213153
0.000213375
0.000213617
0.000213298
0.000213639
0.000213805
0.00018946
0.000190284
0.000213303
0.000213786
0.000213851
0.000190335
0.000190018
0.000193008
0.00021395
0.000214012
0.000214834
0.000214538
0.000190108
0.000192633
0.000213978
0.000214148
0.000214852
0.000214481
0.000214268
0.000214501
0.000214265
0.000190225
0.000192566
0.000214305
0.000214437
0.000214274
0.000192384
0.000194476
0.000214707
0.000214435
0.000194172
0.000214716
0.000214336
0.000234886
0.000234823
0.000234665
0.000214137
0.000194058
0.000214137
0.000234728
0.000234779
0.000234733
0.000234733
0.000235111
0.000234805
0.000234701
0.000234742
0.000235111
0.000234806
0.000234742
0.000234701
0.000234859
0.000233567
0.000233568
0.000104728
3.87617e-05
0.000129351
3.98355e-05
2.16916e-05
2.28358e-05
0.000104691
3.87577e-05
0.000129384
3.98322e-05
0.000233969
0.000233969
0.000233969
0.000232943
0.000232943
0.000232943
0.000232943
0.000206273
9.38644e-05
0.000233996
0.00023175
0.000222758
8.73169e-05
0.000233595
2.16909e-05
2.28351e-05
0.000206271
0.000233996
9.38633e-05
0.00023175
0.000222758
0.000233595
8.73207e-05
4.78467e-05
4.78373e-05
0.000231405
4.40453e-05
4.40307e-05
7.2548e-05
4.24352e-05
8.13597e-05
4.3763e-05
2.47743e-05
2.54623e-05
7.25339e-05
4.24302e-05
8.13687e-05
4.37594e-05
0.000232529