/*--------------------------------*- C++ -*----------------------------------*\
| =========                 |                                                 |
| \\      /  F ield         | OpenFOAM: The Open Source CFD Toolbox           |
|  \\    /   O peration     | Version:  2312                                  |
|   \\  /    A nd           | Website:  www.openfoam.com                      |
|    \\/     M anipulation  |                                                 |
\*---------------------------------------------------------------------------*/
FoamFile
{
    version     2.0;
    format      ascii;
    arch        "LSB;label=32;scalar=64";
    class       volScalarField;
    location    "1000";
    object      p;
}
// * * * * * * * * * * * * * * * * * * * * * * * * * * * * * * * * * * * * * //

dimensions      [0 2 -2 0 0 0 0];

internalField   nonuniform List<scalar> 
172512
(
0.00360773
0.00360813
0.00360813
0.00360804
0.00354987
0.00355002
0.00355002
0.0035527
0.00349829
0.00349829
0.00349829
0.00350107
0.00344603
0.00344603
0.00344603
0.00344879
0.00339465
0.00339466
0.00339466
0.00339741
0.00334468
0.00334469
0.00334469
0.00334741
0.00329615
0.00329616
0.00329617
0.00329885
0.00324892
0.00324894
0.00324895
0.00325159
0.00320279
0.00320282
0.00320282
0.00320543
0.00315756
0.00315759
0.00315758
0.00316017
0.00311305
0.00311307
0.00311307
0.00311564
0.00306914
0.00306916
0.00306916
0.00307171
0.00302575
0.00302577
0.00302577
0.00302828
0.00298282
0.00298284
0.00298283
0.00298534
0.00294032
0.00294033
0.00294033
0.00294283
0.00289823
0.00289824
0.00289823
0.00290072
0.00285653
0.00285652
0.00285652
0.002859
0.00281518
0.00281517
0.00281517
0.00281764
0.00277417
0.00277415
0.00277415
0.00277662
0.00273347
0.00273344
0.00273344
0.0027359
0.00269306
0.00269302
0.00269302
0.00269548
0.00265292
0.00265287
0.00265287
0.00265532
0.00261302
0.00261297
0.00261298
0.00261542
0.00257337
0.00257331
0.00257332
0.00257575
0.00253395
0.00253389
0.00253389
0.00253631
0.00249474
0.00249468
0.00249468
0.00249709
0.00245574
0.00245569
0.00245569
0.00245807
0.00241694
0.00241689
0.00241689
0.00241925
0.00237832
0.00237828
0.00237828
0.00238062
0.0023399
0.00233986
0.00233986
0.00234219
0.00230166
0.00230163
0.00230164
0.00230394
0.00226361
0.00226357
0.00226357
0.00226584
0.00222569
0.00222568
0.00222567
0.00222794
0.00218801
0.00218799
0.00218798
0.00219024
0.00215049
0.00215043
0.00215043
0.00215261
0.00211278
0.00211284
0.00211298
0.00211516
0.00207567
0.00207553
0.0020754
0.0020777
0.00203857
0.00203873
0.00203848
0.00204072
0.00200107
0.00200133
0.00200137
0.00200355
0.0019642
0.00196429
0.00196468
0.00196643
0.00192899
0.00192798
0.00192812
0.00193014
0.00189145
0.00189075
0.00189102
0.00189366
0.00185364
0.00185666
0.00185289
0.00185666
0.00181864
0.00181689
0.00182227
0.00182037
0.001785
0.00178486
0.00178299
0.0017878
0.00174932
0.00174875
0.00174574
0.00174883
0.00170752
0.00170838
0.00171122
0.00171157
0.0016749
0.00167448
0.00167345
0.00167733
0.00164207
0.00164087
0.00164204
0.00164193
0.00160342
0.00160453
0.00160317
0.00160659
0.00156431
0.00156416
0.00156297
0.00156662
0.00152778
0.00152751
0.00152948
0.0015298
0.00149409
0.00149476
0.00149483
0.00149694
0.00146014
0.00146043
0.00145882
0.00146229
0.00142483
0.00142413
0.00142434
0.0014259
0.0013887
0.00138815
0.00138878
0.00139026
0.00135221
0.00135224
0.00135234
0.00135445
0.00131623
0.00131643
0.00131633
0.00131851
0.00128071
0.00128058
0.00128042
0.0012825
0.00124525
0.00124509
0.00124516
0.00124716
0.00120995
0.00120989
0.00120988
0.00121187
0.00117461
0.00117444
0.00117445
0.00117645
0.00113925
0.0011391
0.00113911
0.0011411
0.00110385
0.00110376
0.00110372
0.00110573
0.0010684
0.00106831
0.00106833
0.00107035
0.00103303
0.00103295
0.00103297
0.00103497
0.000997727
0.000997591
0.00099756
0.000999562
0.00096227
0.000962178
0.000962177
0.000964192
0.000926894
0.000926816
0.000926829
0.000928822
0.000891472
0.000891366
0.000891375
0.000893378
0.000856045
0.000855973
0.000855953
0.000857974
0.000820598
0.000820521
0.000820532
0.000822533
0.000785167
0.000785085
0.000785078
0.00078709
0.000749685
0.000749595
0.000749596
0.000751601
0.000714141
0.000714078
0.000714091
0.000716109
0.000678616
0.000678554
0.00067854
0.000680557
0.000643084
0.000643011
0.000643017
0.000645032
0.000607472
0.000607411
0.000607409
0.000609428
0.000571843
0.000571779
0.000571779
0.0005738
0.00053622
0.000536167
0.000536171
0.000538197
0.00050053
0.000500476
0.000500472
0.000502501
0.000464806
0.000464737
0.000464733
0.000466759
0.000429001
0.000428963
0.000428972
0.000431006
0.000393235
0.00039321
0.000393209
0.000395253
0.000357536
0.000357447
0.000357439
0.000359463
0.000321485
0.000321445
0.000321458
0.000323498
0.000285591
0.000285556
0.000285539
0.000287595
0.000249757
0.000249754
0.000249762
0.000251812
0.000213731
0.000213684
0.000213694
0.000215742
0.000177774
0.000177703
0.000177683
0.000179721
0.000141674
0.000141654
0.00014166
0.000143727
0.000105508
0.000105528
0.000105535
0.00010761
6.94804e-05
6.9418e-05
6.94117e-05
7.14873e-05
3.40953e-05
3.34196e-05
3.34094e-05
3.54378e-05
1.04129e-05
6.34302e-06
6.34244e-06
4.8941e-06
0.0036179
0.00361697
0.00361697
0.00361789
0.00361697
0.00361697
0.00361587
0.00361587
0.00361587
0.00361587
0.00361697
0.00361697
0.0036179
0.00361697
0.00361697
0.00361789
0.00360804
0.0035591
0.00360814
0.00360813
0.00356147
0.00356147
0.00360804
0.0035591
0.00360814
0.00360814
0.00356147
0.00356147
0.00360813
0.00356147
0.00356147
0.00360804
0.0035591
0.00360813
0.00356147
0.00356147
0.0035591
0.0035527
0.00350802
0.00355002
0.00355002
0.00351149
0.00351149
0.0035527
0.00350802
0.00355002
0.00355002
0.00351148
0.00351149
0.00355002
0.00351149
0.00351149
0.0035527
0.00350802
0.00355002
0.00351149
0.00351149
0.00350802
0.00350107
0.00345567
0.00349829
0.00349829
0.00345903
0.00345903
0.00350107
0.00345567
0.00349829
0.00349829
0.00345903
0.00345903
0.00349829
0.00345903
0.00345903
0.00350107
0.00345567
0.00349829
0.00345903
0.00345903
0.00345567
0.00344879
0.00340412
0.00344603
0.00344603
0.00340738
0.00340738
0.00344879
0.00340412
0.00344603
0.00344603
0.00340738
0.00340738
0.00344603
0.00340738
0.00340738
0.00344879
0.00340412
0.00344603
0.00340738
0.00340738
0.00340412
0.00339741
0.00335391
0.00339466
0.00339466
0.00335704
0.00335704
0.00339741
0.0033539
0.00339466
0.00339466
0.00335704
0.00335704
0.00339466
0.00335704
0.00335704
0.00339741
0.0033539
0.00339466
0.00335704
0.00335704
0.0033539
0.00334741
0.00330515
0.00334469
0.00334469
0.00330817
0.00330817
0.0033474
0.00330515
0.00334469
0.00334469
0.00330817
0.00330817
0.00334469
0.00330817
0.00330817
0.00334741
0.00330515
0.00334469
0.00330816
0.00330817
0.00330515
0.00329885
0.00325772
0.00329616
0.00329617
0.00326064
0.00326064
0.00329885
0.00325772
0.00329616
0.00329617
0.00326064
0.00326063
0.00329616
0.00326064
0.00326064
0.00329885
0.00325772
0.00329616
0.00326063
0.00326064
0.00325772
0.00325159
0.00321142
0.00324894
0.00324894
0.00321425
0.00321425
0.00325159
0.00321142
0.00324894
0.00324894
0.00321425
0.00321424
0.00324894
0.00321425
0.00321426
0.00325159
0.00321142
0.00324892
0.00321425
0.00321425
0.00321142
0.00320543
0.00316605
0.00320281
0.00320281
0.00316882
0.00316881
0.00320543
0.00316605
0.00320281
0.00320281
0.00316882
0.00316881
0.00320281
0.00316881
0.00316882
0.00320544
0.00316605
0.00320281
0.00316881
0.00316882
0.00316605
0.00316017
0.00312142
0.00315758
0.00315759
0.00312414
0.00312414
0.00316018
0.00312142
0.00315758
0.00315758
0.00312414
0.00312415
0.00315758
0.00312414
0.00312414
0.00316018
0.00312142
0.00315758
0.00312415
0.00312414
0.00312142
0.00311564
0.0030774
0.00311308
0.00311308
0.00308009
0.00308009
0.00311564
0.0030774
0.00311308
0.00311307
0.00308009
0.00308009
0.00311308
0.0030801
0.00308008
0.00311564
0.0030774
0.00311308
0.0030801
0.00308008
0.00307741
0.0030717
0.00303392
0.00306915
0.00306916
0.00303657
0.00303657
0.0030717
0.00303391
0.00306915
0.00306916
0.00303657
0.00303656
0.00306917
0.00303657
0.00303657
0.0030717
0.00303391
0.00306917
0.00303656
0.00303657
0.00303391
0.00302828
0.00299089
0.00302577
0.00302577
0.00299352
0.00299352
0.00302828
0.00299091
0.00302577
0.00302577
0.00299352
0.00299353
0.00302576
0.00299352
0.00299353
0.00302828
0.0029909
0.00302576
0.00299353
0.00299353
0.0029909
0.00298533
0.00294835
0.00298283
0.00298284
0.00295092
0.00295092
0.00298534
0.00294835
0.00298283
0.00298283
0.00295092
0.00295092
0.00298283
0.00295092
0.00295092
0.00298534
0.00294835
0.00298283
0.00295092
0.00295092
0.00294835
0.00294283
0.00290619
0.00294034
0.00294033
0.00290873
0.00290872
0.00294283
0.00290619
0.00294034
0.00294033
0.00290872
0.00290872
0.00294034
0.00290872
0.00290873
0.00294283
0.00290619
0.00294034
0.00290872
0.00290872
0.00290619
0.00290072
0.00286442
0.00289824
0.00289824
0.00286692
0.00286692
0.00290073
0.00286442
0.00289823
0.00289823
0.00286692
0.00286691
0.00289824
0.00286692
0.00286692
0.00290072
0.00286442
0.00289823
0.00286691
0.00286692
0.00286442
0.002859
0.00282301
0.00285652
0.00285652
0.00282547
0.00282548
0.002859
0.00282301
0.00285652
0.00285652
0.00282547
0.00282548
0.00285652
0.00282548
0.00282548
0.002859
0.00282301
0.00285652
0.00282548
0.00282548
0.00282301
0.00281764
0.00278195
0.00281517
0.00281517
0.00278437
0.00278438
0.00281764
0.00278195
0.00281517
0.00281517
0.00278437
0.00278438
0.00281517
0.00278438
0.00278437
0.00281764
0.00278195
0.00281517
0.00278438
0.00278437
0.00278195
0.00277662
0.00274119
0.00277416
0.00277415
0.00274359
0.00274359
0.00277662
0.00274119
0.00277415
0.00277415
0.00274359
0.00274359
0.00277415
0.00274359
0.00274359
0.00277662
0.00274119
0.00277415
0.00274359
0.00274359
0.00274119
0.0027359
0.00270073
0.00273344
0.00273344
0.0027031
0.0027031
0.0027359
0.00270073
0.00273344
0.00273344
0.0027031
0.0027031
0.00273345
0.0027031
0.0027031
0.0027359
0.00270073
0.00273344
0.0027031
0.0027031
0.00270073
0.00269547
0.00266054
0.00269302
0.00269302
0.00266288
0.00266288
0.00269547
0.00266054
0.00269302
0.00269302
0.00266288
0.00266289
0.00269302
0.00266288
0.00266289
0.00269548
0.00266055
0.00269302
0.00266289
0.00266289
0.00266055
0.00265532
0.00262061
0.00265287
0.00265287
0.00262293
0.00262293
0.00265532
0.00262061
0.00265287
0.00265287
0.00262293
0.00262293
0.00265287
0.00262293
0.00262293
0.00265532
0.00262061
0.00265287
0.00262293
0.00262293
0.00262062
0.00261541
0.00258092
0.00261298
0.00261297
0.00258321
0.00258321
0.00261542
0.00258092
0.00261297
0.00261297
0.00258321
0.00258321
0.00261298
0.00258321
0.00258321
0.00261542
0.00258092
0.00261298
0.00258321
0.00258321
0.00258092
0.00257575
0.00254145
0.00257332
0.00257331
0.00254373
0.00254373
0.00257575
0.00254145
0.00257332
0.00257332
0.00254373
0.00254372
0.00257332
0.00254373
0.00254373
0.00257575
0.00254145
0.00257332
0.00254372
0.00254373
0.00254146
0.00253631
0.00250221
0.00253389
0.00253389
0.00250446
0.00250447
0.0025363
0.00250221
0.00253389
0.00253389
0.00250446
0.00250446
0.00253389
0.00250447
0.00250446
0.00253631
0.00250221
0.00253389
0.00250446
0.00250446
0.00250221
0.00249708
0.00246317
0.00249468
0.00249468
0.00246541
0.00246542
0.00249708
0.00246318
0.00249468
0.00249468
0.00246541
0.00246541
0.00249468
0.00246542
0.00246541
0.00249708
0.00246317
0.00249468
0.00246541
0.00246541
0.00246317
0.00245807
0.00242434
0.00245568
0.00245569
0.00242657
0.00242657
0.00245807
0.00242434
0.00245568
0.00245569
0.00242657
0.00242657
0.00245569
0.00242657
0.00242657
0.00245807
0.00242434
0.00245569
0.00242657
0.00242657
0.00242433
0.00241926
0.00238569
0.00241689
0.00241689
0.00238792
0.00238791
0.00241926
0.00238569
0.00241689
0.00241689
0.00238792
0.00238791
0.00241689
0.00238791
0.00238792
0.00241926
0.00238569
0.00241688
0.00238791
0.00238792
0.00238569
0.00238063
0.00234723
0.00237828
0.00237828
0.00234945
0.00234945
0.00238063
0.00234723
0.00237828
0.00237828
0.00234945
0.00234945
0.00237828
0.00234944
0.00234945
0.00238062
0.00234723
0.00237828
0.00234945
0.00234945
0.00234723
0.00234218
0.00230896
0.00233986
0.00233986
0.00231117
0.00231118
0.00234218
0.00230897
0.00233986
0.00233986
0.00231117
0.00231118
0.00233986
0.00231118
0.00231117
0.00234219
0.00230897
0.00233986
0.00231118
0.00231117
0.00230897
0.00230393
0.00227086
0.00230163
0.00230163
0.00227307
0.00227306
0.00230394
0.00227086
0.00230163
0.00230164
0.00227307
0.00227307
0.00230163
0.00227306
0.00227307
0.00230394
0.00227086
0.00230163
0.00227307
0.00227307
0.00227085
0.00226586
0.00223293
0.00226357
0.00226357
0.00223512
0.00223513
0.00226585
0.00223293
0.00226357
0.00226357
0.00223512
0.00223513
0.00226356
0.00223513
0.00223514
0.00226586
0.00223293
0.00226356
0.00223513
0.00223514
0.00223293
0.00222794
0.00219521
0.00222567
0.00222568
0.00219739
0.00219739
0.00222794
0.0021952
0.00222567
0.00222567
0.00219738
0.00219739
0.00222568
0.00219739
0.00219739
0.00222793
0.00219519
0.00222568
0.00219739
0.00219739
0.0021952
0.00219024
0.00215763
0.002188
0.00218799
0.00215985
0.00215983
0.00219024
0.00215762
0.002188
0.00218798
0.00215985
0.0021598
0.002188
0.00215982
0.0021598
0.00219022
0.0021576
0.00218799
0.0021598
0.0021598
0.00215759
0.00215263
0.00211997
0.00215044
0.00215043
0.00212214
0.00212223
0.00215265
0.00212001
0.00215043
0.00215043
0.00212215
0.00212233
0.00215039
0.00212224
0.00212228
0.00215265
0.00212015
0.00215039
0.00212233
0.00212229
0.00212011
0.00211506
0.00208292
0.00211276
0.00211282
0.00208503
0.00208482
0.00211503
0.00208269
0.00211278
0.00211297
0.00208504
0.00208487
0.00211295
0.0020848
0.0020848
0.00211518
0.00208261
0.00211295
0.00208485
0.00208483
0.00208262
0.00207799
0.00204538
0.00207586
0.00207558
0.00204777
0.00204795
0.00207779
0.00204578
0.00207586
0.00207543
0.00204773
0.00204767
0.00207547
0.00204792
0.00204778
0.00207764
0.0020455
0.00207548
0.00204767
0.00204773
0.00204565
0.00204045
0.00200806
0.00203839
0.00203871
0.00201026
0.00201067
0.00204085
0.00200839
0.00203835
0.00203845
0.00201024
0.00201052
0.00203857
0.00201076
0.00201081
0.00204058
0.00200847
0.00203853
0.00201059
0.00201079
0.0020085
0.00200306
0.00197148
0.00200086
0.00200125
0.00197339
0.00197331
0.00200338
0.00197123
0.00200082
0.00200131
0.00197346
0.00197385
0.00200144
0.00197332
0.00197346
0.00200362
0.00197175
0.00200143
0.00197386
0.00197352
0.00197133
0.00196677
0.00193654
0.00196454
0.00196434
0.00193862
0.00193753
0.00196645
0.00193538
0.00196462
0.00196471
0.00193858
0.00193737
0.00196425
0.00193733
0.00193704
0.0019668
0.00193499
0.00196431
0.00193718
0.001937
0.00193496
0.00193144
0.00189747
0.00192942
0.00192818
0.00189992
0.00189951
0.00193034
0.00189768
0.00192938
0.00192831
0.00190011
0.00190072
0.00192796
0.00189958
0.0019004
0.00193025
0.00189848
0.00192793
0.00190072
0.00190055
0.00189842
0.00189249
0.00186013
0.0018904
0.0018906
0.00186248
0.00186527
0.00189305
0.00186322
0.00189056
0.00189095
0.00186197
0.00186123
0.00189146
0.00186559
0.00186459
0.00189319
0.00185988
0.0018916
0.0018616
0.00186407
0.00186191
0.00185544
0.00182636
0.00185351
0.00185633
0.0018278
0.00182656
0.00185836
0.00182413
0.00185284
0.00185256
0.00182809
0.00183004
0.00185496
0.00182645
0.00182638
0.00185552
0.00182796
0.00185435
0.00183032
0.00182662
0.00182472
0.00182172
0.00179247
0.00181909
0.00181715
0.0017941
0.00179253
0.00181943
0.00179087
0.00181966
0.00182242
0.00179462
0.00179361
0.0018177
0.00179252
0.00179433
0.00182369
0.0017907
0.00181834
0.00179352
0.0017948
0.0017925
0.00178802
0.00175455
0.00178588
0.0017848
0.00175796
0.00175898
0.00178672
0.00175641
0.00178602
0.00178301
0.00175708
0.0017546
0.00178611
0.00175889
0.00175716
0.00178545
0.00175249
0.00178644
0.00175449
0.00175631
0.00175407
0.00174909
0.00171437
0.00174751
0.00174891
0.00171629
0.00171784
0.00175094
0.0017154
0.00174695
0.00174593
0.00171661
0.00172037
0.00174675
0.00171791
0.00171762
0.00174772
0.00171832
0.00174597
0.00172061
0.00171798
0.00171609
0.00170954
0.00168269
0.00170652
0.00170806
0.00168389
0.00168263
0.00171023
0.00168118
0.00170703
0.00171087
0.00168393
0.00168206
0.00170917
0.0016828
0.00168404
0.00171302
0.0016806
0.00170963
0.00168225
0.00168416
0.00168224
0.00167839
0.00164802
0.00167683
0.00167457
0.0016511
0.00164991
0.00167687
0.00164771
0.00167673
0.00167362
0.00165102
0.00165063
0.00167517
0.0016493
0.00164833
0.00167632
0.00164842
0.0016751
0.00165014
0.00164837
0.00164628
0.00164282
0.00160922
0.00164085
0.00164133
0.00161143
0.00161364
0.00164304
0.0016109
0.00164101
0.0016425
0.00161144
0.00161301
0.00163976
0.00161409
0.00161409
0.0016439
0.00161038
0.00163992
0.00161335
0.00161404
0.00161168
0.00160423
0.00157205
0.00160208
0.00160395
0.00157404
0.00157408
0.0016059
0.00157179
0.00160182
0.00160269
0.00157366
0.00157228
0.00160487
0.00157448
0.00157502
0.001605
0.0015702
0.00160467
0.00157259
0.00157465
0.00157217
0.00156715
0.00153624
0.00156493
0.00156358
0.0015379
0.0015363
0.00156637
0.0015347
0.00156472
0.00156302
0.00153821
0.0015383
0.0015646
0.00153573
0.00153537
0.00156532
0.00153655
0.00156434
0.0015377
0.00153575
0.00153419
0.00153144
0.0015012
0.00152895
0.00152797
0.00150291
0.00150304
0.00153013
0.00150131
0.00152928
0.00152994
0.00150316
0.0015039
0.00152707
0.00150297
0.00150284
0.00153191
0.00150174
0.0015275
0.0015038
0.00150305
0.00150138
0.00149656
0.00146566
0.00149433
0.00149477
0.00146805
0.00146902
0.00149686
0.00146675
0.00149447
0.00149481
0.00146761
0.00146699
0.00149478
0.00146934
0.00146974
0.00149687
0.00146525
0.0014949
0.00146759
0.00146945
0.0014672
0.00146096
0.00143094
0.00145931
0.00146003
0.00143314
0.00143311
0.00146196
0.0014309
0.00145892
0.00145839
0.00143305
0.00143294
0.00146083
0.00143316
0.00143305
0.00146065
0.00143089
0.00146047
0.00143297
0.00143293
0.00143071
0.00142624
0.00139561
0.00142436
0.00142419
0.00139764
0.00139731
0.00142608
0.00139512
0.00142438
0.00142439
0.00139779
0.00139795
0.00142397
0.00139715
0.00139704
0.00142622
0.00139577
0.00142397
0.00139781
0.00139723
0.00139508
0.00139074
0.00135933
0.0013886
0.00138829
0.00136135
0.00136124
0.00139026
0.00135922
0.00138875
0.00138891
0.00136143
0.00136148
0.0013881
0.0013612
0.00136127
0.00139087
0.00135938
0.00138827
0.00136143
0.00136135
0.00135932
0.00135442
0.00132317
0.00135227
0.00135225
0.00132521
0.00132532
0.00135437
0.00132333
0.00135231
0.00135235
0.00132519
0.00132526
0.00135233
0.00132537
0.00132539
0.00135448
0.00132323
0.00135237
0.00132531
0.00132537
0.00132335
0.00131833
0.00128741
0.00131626
0.00131638
0.00128951
0.00128957
0.0013185
0.00128744
0.00131623
0.00131628
0.00128945
0.00128935
0.00131641
0.00128958
0.00128946
0.00131837
0.00128728
0.00131638
0.00128935
0.00128939
0.00128733
0.0012826
0.00125193
0.00128061
0.00128056
0.00125398
0.00125391
0.00128259
0.00125188
0.00128056
0.00128044
0.00125398
0.00125395
0.0012805
0.00125389
0.00125394
0.00128246
0.00125193
0.00128046
0.00125394
0.00125395
0.00125192
0.00124715
0.00121659
0.00124512
0.00124509
0.00121864
0.0012187
0.00124711
0.00121664
0.00124514
0.00124516
0.00121865
0.00121873
0.00124514
0.00121872
0.00121873
0.00124717
0.00121666
0.00124515
0.00121874
0.00121874
0.00121666
0.00121182
0.00118127
0.00120981
0.00120987
0.00118333
0.00118331
0.00121187
0.00118124
0.00120982
0.00120986
0.00118332
0.00118329
0.00120988
0.0011833
0.0011833
0.00121186
0.00118123
0.00120988
0.00118329
0.0011833
0.00118124
0.00117649
0.00114592
0.0011745
0.00117445
0.00114798
0.00114794
0.00117645
0.00114589
0.00117449
0.00117446
0.00114798
0.00114796
0.00117445
0.00114793
0.00114794
0.00117645
0.00114591
0.00117445
0.00114795
0.00114794
0.00114589
0.00114113
0.00111052
0.00113913
0.00113911
0.00111258
0.0011126
0.00114111
0.00111055
0.00113914
0.00113912
0.00111257
0.00111257
0.0011391
0.0011126
0.00111256
0.00114112
0.00111052
0.0011391
0.00111257
0.00111256
0.00111052
0.00110573
0.00107509
0.00110373
0.00110376
0.00107714
0.00107716
0.00110576
0.00107511
0.00110372
0.00110372
0.00107714
0.00107717
0.00110372
0.00107717
0.00107719
0.00110573
0.00107512
0.00110372
0.00107718
0.00107719
0.00107514
0.0010703
0.00103975
0.00106829
0.0010683
0.00104178
0.00104177
0.00107031
0.00103974
0.00106829
0.00106831
0.00104179
0.0010418
0.00106834
0.00104178
0.0010418
0.00107033
0.00103976
0.00106835
0.00104181
0.00104181
0.00103976
0.00103497
0.00100441
0.00103296
0.00103295
0.00100647
0.00100646
0.00103496
0.0010044
0.00103296
0.00103297
0.00100646
0.00100643
0.00103296
0.00100645
0.00100642
0.00103497
0.00100437
0.00103296
0.00100642
0.00100641
0.00100436
0.000999606
0.000968978
0.000997614
0.000997605
0.000971024
0.000971021
0.000999596
0.000968979
0.000997606
0.000997574
0.000971022
0.000971015
0.000997563
0.00097102
0.000971025
0.000999569
0.000968976
0.000997555
0.000971013
0.000971023
0.000968985
0.000964178
0.000933606
0.000962172
0.000962175
0.000935646
0.000935658
0.000964183
0.000933617
0.000962172
0.000962174
0.000935647
0.000935667
0.000962188
0.000935666
0.000935671
0.000964183
0.000933628
0.000962188
0.000935675
0.000935673
0.000933623
0.000928809
0.000898195
0.000926802
0.00092681
0.000900239
0.000900228
0.000928815
0.000898181
0.000926805
0.000926823
0.000900244
0.000900245
0.000926816
0.000900224
0.000900226
0.000928828
0.000898193
0.000926819
0.000900241
0.00090023
0.000898183
0.000893388
0.000862775
0.000891382
0.000891369
0.000864818
0.00086482
0.000893376
0.000862782
0.000891384
0.000891379
0.000864814
0.000864803
0.00089137
0.000864821
0.000864822
0.000893383
0.000862765
0.000891372
0.000864804
0.000864818
0.000862779
0.000857969
0.000827339
0.000855964
0.000855971
0.000829381
0.000829387
0.000857978
0.000827343
0.000855959
0.000855952
0.000829381
0.000829392
0.00085597
0.000829388
0.000829385
0.000857961
0.00082735
0.000855965
0.000829392
0.000829385
0.000827342
0.00082253
0.000791907
0.000820519
0.00082052
0.000793948
0.000793942
0.00082253
0.000791903
0.000820521
0.000820532
0.000793949
0.000793944
0.000820522
0.000793942
0.000793947
0.000822539
0.0007919
0.000820525
0.000793944
0.000793948
0.000791904
0.000787095
0.000756429
0.00078509
0.000785086
0.00075848
0.00075848
0.000787093
0.000756429
0.000785089
0.000785079
0.000758477
0.000758471
0.000785084
0.000758475
0.000758463
0.000787087
0.000756424
0.000785083
0.000758467
0.00075846
0.000756418
0.000751606
0.00072091
0.000749597
0.000749597
0.000722949
0.00072295
0.000751605
0.000720912
0.000749596
0.000749598
0.000722954
0.000722968
0.000749589
0.000722955
0.000722973
0.000751605
0.000720926
0.000749588
0.000722973
0.000722977
0.000720932
0.000716086
0.0006854
0.00071407
0.000714071
0.00068744
0.000687439
0.00071609
0.000685399
0.000714073
0.000714084
0.000687437
0.000687427
0.000714096
0.000687438
0.000687429
0.000716101
0.000685386
0.000714099
0.000687425
0.000687426
0.000685383
0.000680575
0.000649859
0.000678563
0.00067856
0.000651905
0.000651903
0.000680573
0.000649859
0.000678559
0.000678545
0.000651905
0.000651903
0.000678539
0.000651899
0.000651895
0.00068056
0.000649862
0.000678536
0.0006519
0.000651895
0.000649857
0.000645024
0.000614254
0.000643007
0.00064301
0.000616301
0.000616311
0.000645028
0.000614264
0.000643008
0.000643017
0.000616302
0.000616312
0.000643016
0.000616318
0.000616324
0.000645034
0.000614263
0.000643017
0.000616319
0.000616325
0.00061427
0.000609417
0.000578656
0.000607401
0.000607406
0.000580699
0.000580689
0.000609423
0.000578645
0.0006074
0.000607404
0.000580698
0.000580688
0.000607412
0.000580684
0.00058068
0.000609421
0.000578645
0.000607411
0.000580683
0.000580679
0.000578638
0.000573817
0.000543037
0.000571795
0.000571785
0.000545078
0.000545072
0.000573806
0.000543034
0.000571795
0.000571785
0.000545079
0.000545077
0.000571775
0.000545071
0.000545071
0.000573807
0.000543038
0.000571775
0.000545076
0.000545072
0.000543036
0.000538191
0.000507337
0.000536164
0.000536166
0.00050939
0.000509403
0.000538192
0.000507352
0.000536165
0.00053617
0.000509389
0.0005094
0.00053617
0.000509407
0.000509411
0.000538197
0.000507348
0.000536171
0.000509405
0.000509411
0.000507356
0.000502485
0.000471633
0.000500463
0.000500472
0.000473683
0.000473676
0.000502497
0.000471624
0.000500461
0.000500468
0.000473682
0.00047367
0.000500478
0.000473673
0.000473667
0.000502492
0.00047162
0.000500477
0.000473668
0.000473666
0.000471615
0.000466776
0.000435866
0.000464751
0.000464742
0.000437911
0.000437911
0.000466767
0.000435863
0.00046475
0.000464739
0.000437912
0.000437916
0.00046473
0.00043791
0.000437909
0.000466765
0.00043587
0.000464729
0.000437916
0.000437911
0.000435866
0.000431
0.000400092
0.000428957
0.000428961
0.000402134
0.000402136
0.000430999
0.000400099
0.000428959
0.000428969
0.000402135
0.00040214
0.000428969
0.00040214
0.000402151
0.000431006
0.000400102
0.00042897
0.000402144
0.000402152
0.00040011
0.000395242
0.000364368
0.000393213
0.000393209
0.000366428
0.000366419
0.000395246
0.000364356
0.000393213
0.000393207
0.000366424
0.000366407
0.000393215
0.00036641
0.000366394
0.000395246
0.000364344
0.000393215
0.000366398
0.00036639
0.000364332
0.000359488
0.000328356
0.000357454
0.000357455
0.000330428
0.000330445
0.000359481
0.000328374
0.000357451
0.000357446
0.00033043
0.000330456
0.000357432
0.000330455
0.000330467
0.000359472
0.000328385
0.00035743
0.000330467
0.00033047
0.000328395
0.000323456
0.000292494
0.000321418
0.000321432
0.000294521
0.000294499
0.000323474
0.000292472
0.000321421
0.000321445
0.000294519
0.000294489
0.000321463
0.000294493
0.000294489
0.000323486
0.000292461
0.000321466
0.000294483
0.000294487
0.000292458
0.000287635
0.000256693
0.000285595
0.000285568
0.000258736
0.000258735
0.000287616
0.000256695
0.000285592
0.000285552
0.000258733
0.00025873
0.00028554
0.000258727
0.000258712
0.000287604
0.000256692
0.000285536
0.000258722
0.000258711
0.00025668
0.000251802
0.000220589
0.000249734
0.000249752
0.000222656
0.000222683
0.000251812
0.000220613
0.000249735
0.00024976
0.000222661
0.000222704
0.000249755
0.000222704
0.000222733
0.000251816
0.000220629
0.000249757
0.000222725
0.000222738
0.00022065
0.000215695
0.000184679
0.000213657
0.00021367
0.000186734
0.000186704
0.000215714
0.000184642
0.00021366
0.000213681
0.000186729
0.000186685
0.000213703
0.000186689
0.000186668
0.000215724
0.00018462
0.000213706
0.00018667
0.000186663
0.000184603
0.000179796
0.000148624
0.000177755
0.000177723
0.000150689
0.000150685
0.000179763
0.000148626
0.000177749
0.000177702
0.000150689
0.000150684
0.000177677
0.00015068
0.000150676
0.000179742
0.000148629
0.000177672
0.000150679
0.000150675
0.000148626
0.000143711
0.000112442
0.000141639
0.00014165
0.000114502
0.000114534
0.000143719
0.000112477
0.00014164
0.000141656
0.000114506
0.000114546
0.00014166
0.000114552
0.00011457
0.000143724
0.000112487
0.000141661
0.000114562
0.000114572
0.000112506
0.000107557
7.64063e-05
0.000105489
0.000105512
7.84816e-05
7.8461e-05
0.000107584
7.63788e-05
0.000105492
0.000105521
7.848e-05
7.84557e-05
0.000105542
7.84518e-05
7.84427e-05
0.000107592
7.63724e-05
0.000105544
7.84477e-05
7.84419e-05
7.63595e-05
7.15355e-05
4.01496e-05
6.94572e-05
6.94305e-05
4.2324e-05
4.23177e-05
7.15089e-05
4.01469e-05
6.94549e-05
6.94232e-05
4.23215e-05
4.23101e-05
6.9404e-05
4.23114e-05
4.23014e-05
7.1503e-05
4.01385e-05
6.94019e-05
4.23032e-05
4.2299e-05
4.01349e-05
3.54328e-05
6.24335e-06
3.34099e-05
3.34209e-05
8.00244e-06
8.03087e-06
3.54427e-05
6.27609e-06
3.34088e-05
3.34106e-05
8.00318e-06
8.02656e-06
3.34149e-05
8.04885e-06
8.06322e-06
3.54333e-05
6.27723e-06
3.34141e-05
8.04589e-06
8.06502e-06
6.30636e-06
4.84272e-06
6.30603e-06
6.33072e-06
4.86956e-06
6.306e-06
6.32904e-06
1.04404e-05
1.04333e-05
1.04527e-05
6.35775e-06
4.87221e-06
6.35829e-06
0.00362592
0.00363616
0.00363065
0.00363065
0.00365325
0.00364016
0.00366862
0.00363407
0.00365325
0.00364017
0.00363407
0.00366862
0.00364468
0.00367234
0.00367234
0.00358033
0.00360001
0.00360915
0.00357247
0.00357371
0.003576
0.00358032
0.00360004
0.00360913
0.00357245
0.00360772
0.00360773
0.00360772
0.00356127
0.00356127
0.00356127
0.00356127
0.0035778
0.00360422
0.00360758
0.00358533
0.00360703
0.00357669
0.00358627
0.00357377
0.00357598
0.0035778
0.00360758
0.00360422
0.00358533
0.00360704
0.00358627
0.00357668
0.00361007
0.00361007
0.00358062
0.0035764
0.0035764
0.00353512
0.00355416
0.00355555
0.00353365
0.00355306
0.0035332
0.00353512
0.00355418
0.00355555
0.00353365
0.00354987
0.00354987
0.00354987
0.00351156
0.00351156
0.00351156
0.00351156
0.00353374
0.00355428
0.00354975
0.00353766
0.0035531
0.00353426
0.00353748
0.00355307
0.0035332
0.00353374
0.00354975
0.00355428
0.00353766
0.0035531
0.00353748
0.00353426
0.00355527
0.00355527
0.00353401
0.00353457
0.00353457
0.00348271
0.00350153
0.00350261
0.00348169
0.00350117
0.00348141
0.00348271
0.00350153
0.00350261
0.00348169
0.00349829
0.00349829
0.00349829
0.00345901
0.00345901
0.00345901
0.00345901
0.00348181
0.00350194
0.00349817
0.00348515
0.00350137
0.00348217
0.00348505
0.00350117
0.00348141
0.00348181
0.00349817
0.00350194
0.00348515
0.00350137
0.00348505
0.00348217
0.00350218
0.00350218
0.00348179
0.00348224
0.00348224
0.00343022
0.00344887
0.00344973
0.00342945
0.00344866
0.00342927
0.00343022
0.00344887
0.00344973
0.00342945
0.00344603
0.00344603
0.00344603
0.00340737
0.00340737
0.00340737
0.00340737
0.00342971
0.00344928
0.00344598
0.00343308
0.00344899
0.0034299
0.00343304
0.00344866
0.00342927
0.00342971
0.00344598
0.00344928
0.00343308
0.00344899
0.00343304
0.0034299
0.00344931
0.00344931
0.00342976
0.00342983
0.00342983
0.00337902
0.00339737
0.003398
0.00337846
0.00339723
0.00337833
0.00337902
0.00339737
0.003398
0.00337846
0.00339465
0.00339465
0.00339465
0.00335703
0.00335703
0.00335703
0.00335703
0.00337875
0.00339772
0.00339463
0.00338202
0.00339755
0.00337885
0.003382
0.00339723
0.00337833
0.00337875
0.00339463
0.00339772
0.00338202
0.00339755
0.003382
0.00337885
0.00339771
0.00339771
0.00337882
0.00337876
0.00337876
0.00332938
0.00334732
0.00334778
0.00332898
0.00334721
0.00332887
0.00332937
0.00334732
0.00334778
0.00332898
0.00334468
0.00334468
0.00334468
0.00330815
0.00330815
0.00330815