/*--------------------------------*- C++ -*----------------------------------*\
| =========                 |                                                 |
| \\      /  F ield         | OpenFOAM: The Open Source CFD Toolbox           |
|  \\    /   O peration     | Version:  2312                                  |
|   \\  /    A nd           | Website:  www.openfoam.com                      |
|    \\/     M anipulation  |                                                 |
\*---------------------------------------------------------------------------*/
FoamFile
{
    version     2.0;
    format      ascii;
    arch        "LSB;label=32;scalar=64";
    class       volScalarField;
    location    "900";
    object      k;
}
// * * * * * * * * * * * * * * * * * * * * * * * * * * * * * * * * * * * * * //

dimensions      [0 2 -2 0 0 0 0];

internalField   nonuniform List<scalar> 
172512
(
3.9195e-05
5.1579e-05
5.15827e-05
5.3669e-05
5.36147e-05
5.15258e-05
5.15206e-05
5.36166e-05
5.15232e-05
5.15237e-05
5.15246e-05
5.15253e-05
5.3619e-05
5.15283e-05
5.15231e-05
5.36148e-05
5.36689e-05
5.15801e-05
5.15751e-05
5.36611e-05
5.15776e-05
5.15781e-05
5.15795e-05
5.3669e-05
5.15773e-05
7.34428e-05
6.85735e-05
7.34452e-05
3.90996e-05
3.9099e-05
3.91035e-05
3.91024e-05
7.11957e-05
5.14163e-05
6.47961e-05
6.86277e-05
7.3476e-05
6.86071e-05
7.34983e-05
7.12226e-05
7.12474e-05
6.8627e-05
7.34767e-05
6.86064e-05
7.3501e-05
3.91941e-05
3.91989e-05
3.91974e-05
6.07205e-05
6.48326e-05
4.6923e-05
5.16308e-05
6.06857e-05
6.48568e-05
4.69891e-05
7.12238e-05
7.12485e-05
6.07208e-05
4.6926e-05
6.48338e-05
5.16347e-05
6.06858e-05
4.69922e-05
6.48578e-05
6.9967e-05
6.99754e-05
5.37005e-05
6.99828e-05
6.99914e-05
7.11933e-05
7.11963e-05
5.3527e-05
6.99376e-05
6.99457e-05
7.12199e-05
7.11949e-05
7.12229e-05
7.11979e-05
5.35861e-05
6.99624e-05
6.99706e-05
6.99468e-05
6.99548e-05
5.14141e-05
6.47948e-05
6.858e-05
7.34709e-05
7.34477e-05
6.86021e-05
6.85783e-05
7.34675e-05
7.34446e-05
6.86003e-05
6.06388e-05
5.1471e-05
6.48266e-05
4.68532e-05
6.48003e-05
4.67838e-05
6.0676e-05
6.06372e-05
5.14642e-05
6.48226e-05
4.68508e-05
6.47966e-05
4.6781e-05
6.06743e-05
7.12212e-05
7.11961e-05
5.35733e-05
6.9962e-05
6.99639e-05
6.9947e-05
7.12212e-05
6.06272e-05
5.14114e-05
6.47966e-05
4.67108e-05
6.8572e-05
7.34409e-05
6.06257e-05
5.14117e-05
4.67113e-05
6.47926e-05
6.85794e-05
7.34735e-05
7.34486e-05
6.86013e-05
6.06388e-05
5.14685e-05
6.48286e-05
4.68527e-05
6.48027e-05
4.67831e-05
6.06756e-05
6.85778e-05
7.3469e-05
7.34441e-05
6.85996e-05
6.06373e-05
5.14689e-05
4.68533e-05
6.48246e-05
4.67836e-05
6.47981e-05
6.06741e-05
6.48272e-05
4.68537e-05
6.06756e-05
7.34709e-05
6.85994e-05
4.68544e-05
6.48236e-05
6.06756e-05
7.34687e-05
6.86003e-05
5.35252e-05
6.9941e-05
6.9938e-05
7.11945e-05
7.12223e-05
7.11972e-05
5.35888e-05
6.99659e-05
6.99631e-05
6.9949e-05
6.99466e-05
7.12211e-05
7.1196e-05
7.34436e-05
6.0639e-05
5.14735e-05
4.6857e-05
6.4828e-05
4.67876e-05
6.48025e-05
6.06756e-05
6.06363e-05
5.14683e-05
4.68547e-05
6.48261e-05
4.67851e-05
6.48e-05
6.06731e-05
6.85774e-05
7.34719e-05
7.34492e-05
6.85991e-05
6.85738e-05
7.34704e-05
7.34454e-05
6.85956e-05
5.3587e-05
6.99591e-05
6.99677e-05
6.99505e-05
7.12208e-05
7.12235e-05
7.11984e-05
7.12214e-05
7.12461e-05
7.12244e-05
7.12491e-05
6.99714e-05
6.99794e-05
5.3702e-05
6.99861e-05
6.99943e-05
7.12475e-05
7.12505e-05
5.37502e-05
6.99948e-05
7.00028e-05
6.86262e-05
7.34726e-05
6.86054e-05
7.34951e-05
6.07211e-05
6.48319e-05
4.69223e-05
5.16321e-05
6.0686e-05
6.48565e-05
4.69884e-05
6.07194e-05
6.4828e-05
4.69199e-05
5.1627e-05
6.06843e-05
6.48524e-05
4.69861e-05
6.86324e-05
7.35034e-05
6.86308e-05
7.35002e-05
6.07302e-05
5.16839e-05
6.48614e-05
4.70543e-05
6.07286e-05
5.16787e-05
6.48575e-05
4.7052e-05
6.99715e-05
6.99716e-05
5.37007e-05
6.99856e-05
6.99873e-05
7.12226e-05
7.12473e-05
7.12486e-05
5.37443e-05
6.99948e-05
6.99947e-05
7.12487e-05
6.07211e-05
6.48341e-05
4.69217e-05
5.16296e-05
6.0686e-05
6.48583e-05
4.6988e-05
6.86256e-05
7.34722e-05
6.86048e-05
7.34966e-05
6.07196e-05
4.69222e-05
6.48297e-05
5.16301e-05
6.06846e-05
4.69885e-05
6.48545e-05
6.86317e-05
7.35041e-05
6.07304e-05
5.16814e-05
6.48637e-05
4.70539e-05
6.86302e-05
7.34997e-05
6.0729e-05
5.16818e-05
4.70545e-05
6.48594e-05
6.86252e-05
7.34759e-05
6.86044e-05
7.34985e-05
6.07207e-05
4.69234e-05
6.4829e-05
5.16315e-05
6.06856e-05
4.69896e-05
6.48533e-05
6.86261e-05
7.34719e-05
6.86053e-05
7.34963e-05
6.073e-05
5.16826e-05
6.48619e-05
4.7055e-05
6.86299e-05
7.35035e-05
6.073e-05
5.16833e-05
4.70556e-05
6.48586e-05
6.86307e-05
7.34994e-05
6.99738e-05
6.99714e-05
5.37051e-05
6.99897e-05
6.99871e-05
7.12226e-05
7.12473e-05
7.12499e-05
5.37484e-05
6.99972e-05
6.99947e-05
7.12487e-05
6.07185e-05
4.69237e-05
6.48315e-05
5.16293e-05
6.06835e-05
4.69898e-05
6.48559e-05
6.8625e-05
7.3477e-05
6.86043e-05
7.34995e-05
6.86216e-05
7.34736e-05
6.86008e-05
7.3498e-05
6.07302e-05
5.16864e-05
4.70581e-05
6.48633e-05
6.07278e-05
5.16811e-05
4.70557e-05
6.4861e-05
6.86297e-05
7.35045e-05
6.86263e-05
7.35011e-05
7.12222e-05
7.12469e-05
7.12249e-05
7.12497e-05
5.375e-05
6.99904e-05
6.99988e-05
7.12483e-05
7.1251e-05
7.16829e-05
7.97898e-05
7.34337e-05
7.97819e-05
7.16972e-05
7.18504e-05
6.85649e-05
7.15994e-05
7.1629e-05
7.15915e-05
7.16201e-05
7.1861e-05
7.16831e-05
7.97875e-05
7.34338e-05
7.97802e-05
7.16974e-05
7.11838e-05
7.19059e-05
6.862e-05
7.16869e-05
7.16519e-05
7.16751e-05
7.16415e-05
7.19148e-05
7.17361e-05
7.98175e-05
7.34847e-05
7.17219e-05
7.98248e-05
7.19013e-05
6.86153e-05
7.16613e-05
7.16299e-05
7.18921e-05
7.16728e-05
7.16403e-05
7.17347e-05
7.9836e-05
7.34897e-05
7.98289e-05
7.17488e-05
7.12344e-05
7.12356e-05
7.1906e-05
6.86194e-05
7.16487e-05
7.16857e-05
7.16416e-05
7.1677e-05
7.19149e-05
7.17362e-05
7.98156e-05
7.34874e-05
7.17221e-05
7.98225e-05
7.19014e-05
6.86146e-05
7.16298e-05
7.16631e-05
7.18921e-05
7.16372e-05
7.1672e-05
7.17349e-05
7.98337e-05
7.34905e-05
7.98268e-05
7.1749e-05
7.12355e-05
7.12369e-05
9.50344e-05
7.35519e-05
7.35453e-05
7.35387e-05
7.3532e-05
9.50363e-05
7.41986e-05
6.52886e-05
7.33009e-05
6.99711e-05
7.41951e-05
6.52995e-05
7.33127e-05
7.42464e-05
6.52966e-05
7.33108e-05
6.99796e-05
7.42427e-05
6.53082e-05
7.33224e-05
9.50235e-05
7.35265e-05
7.35199e-05
9.50216e-05
7.35399e-05
7.35332e-05
7.42089e-05
7.33258e-05
6.99789e-05
6.53176e-05
6.53071e-05
7.33142e-05
7.42121e-05
7.42565e-05
7.33355e-05
6.99873e-05
6.53261e-05
6.53152e-05
7.3324e-05
7.42599e-05
7.11815e-05
7.11845e-05
9.49858e-05
7.35031e-05
7.34963e-05
7.34896e-05
7.34828e-05
9.49876e-05
7.41533e-05
7.32714e-05
6.9934e-05
6.5243e-05
7.32629e-05
7.41564e-05
6.52322e-05
7.4199e-05
7.32808e-05
6.99421e-05
6.52509e-05
7.32722e-05
7.42027e-05
6.52386e-05
7.12082e-05
7.12067e-05
7.12112e-05
7.12097e-05
9.50011e-05
7.35019e-05
7.34952e-05
9.49993e-05
7.35154e-05
7.35086e-05
7.4183e-05
6.52821e-05
6.99592e-05
7.32986e-05
7.32901e-05
6.5272e-05
7.41858e-05
7.42287e-05
6.52901e-05
6.99673e-05
7.3308e-05
7.32994e-05
6.52786e-05
7.42321e-05
7.41712e-05
7.32766e-05
6.52524e-05
6.99501e-05
7.41683e-05
7.32854e-05
6.52627e-05
7.42175e-05
7.32859e-05
6.52589e-05
6.99582e-05
7.4214e-05
7.32947e-05
6.52707e-05
9.50126e-05
7.35277e-05
7.35209e-05
7.35142e-05
7.35075e-05
9.50144e-05
7.18734e-05
7.16344e-05
7.16047e-05
6.85886e-05
7.18644e-05
7.16436e-05
7.16156e-05
7.1709e-05
7.3462e-05
7.98134e-05
7.17232e-05
7.98058e-05
7.17103e-05
7.9794e-05
7.3457e-05
7.1696e-05
7.98017e-05
7.18783e-05
6.85935e-05
7.16584e-05
7.16284e-05
7.18876e-05
7.16481e-05
7.16175e-05
7.18726e-05
7.16341e-05
7.15995e-05
6.85869e-05
7.18635e-05
7.16433e-05
7.16105e-05
7.17084e-05
7.34587e-05
7.97952e-05
7.97874e-05
7.17226e-05
7.17096e-05
7.97756e-05
7.34536e-05
7.16954e-05
7.97835e-05
7.18774e-05
6.85919e-05
7.16573e-05
7.1623e-05
7.16483e-05
7.16122e-05
7.18867e-05
7.12094e-05
7.1208e-05
7.42285e-05
6.52861e-05
6.99594e-05
7.33063e-05
6.5275e-05
7.32977e-05
7.42328e-05
7.41814e-05
6.52827e-05
6.99595e-05
7.33008e-05
7.32887e-05
6.52715e-05
7.41859e-05
6.52556e-05
6.99497e-05
6.52667e-05
9.50099e-05
7.35215e-05
7.35282e-05
7.35081e-05
7.35144e-05
9.50119e-05
7.12095e-05
7.18495e-05
6.85634e-05
7.16284e-05
7.15944e-05
7.16195e-05
7.15864e-05
7.18585e-05
7.16813e-05
7.97684e-05
7.34297e-05
7.97605e-05
7.16956e-05
7.18734e-05
7.16049e-05
7.16348e-05
6.85879e-05
7.18644e-05
7.16126e-05
7.16436e-05
7.17092e-05
7.34626e-05
7.98111e-05
7.17234e-05
7.9804e-05
7.17105e-05
7.97922e-05
7.34593e-05
7.16962e-05
7.97995e-05
7.18787e-05
6.85928e-05
7.16251e-05
7.16578e-05
7.18878e-05
7.16172e-05
7.16486e-05
7.18729e-05
7.16342e-05
7.15997e-05
6.85863e-05
7.18639e-05
7.16431e-05
7.16076e-05
7.17074e-05
7.34581e-05
7.9792e-05
7.97845e-05
7.17216e-05
7.17086e-05
7.97727e-05
7.34549e-05
7.16944e-05
7.97803e-05
7.18771e-05
6.85913e-05
7.16571e-05
7.16199e-05
7.16481e-05
7.16122e-05
7.18866e-05
7.17075e-05
7.34621e-05
7.98038e-05
7.9801e-05
7.17222e-05
7.18774e-05
6.85912e-05
7.16207e-05
7.16566e-05
7.16133e-05
7.16477e-05
7.18864e-05
7.17078e-05
7.34579e-05
7.97911e-05
7.97839e-05
7.1722e-05
7.18773e-05
6.8592e-05
7.16569e-05
7.16205e-05
7.1648e-05
7.1613e-05
7.18866e-05
9.49811e-05
7.34964e-05
7.35026e-05
7.3483e-05
7.34891e-05
9.4983e-05
7.41993e-05
7.3279e-05
6.99365e-05
6.52487e-05
7.32704e-05
6.52359e-05
7.42027e-05
7.41512e-05
7.32729e-05
6.99337e-05
6.52441e-05
6.52317e-05
7.32605e-05
7.41551e-05
7.11826e-05
7.12106e-05
7.12091e-05
9.49965e-05
7.34953e-05
7.35015e-05
9.49947e-05
7.35087e-05
7.35149e-05
7.42293e-05
6.52883e-05
6.99616e-05
7.33063e-05
6.52761e-05
7.32977e-05
7.42324e-05
7.41816e-05
6.52834e-05
6.9959e-05
7.32999e-05
7.3288e-05
6.5272e-05
7.41849e-05
7.42178e-05
7.32845e-05
6.52563e-05
6.99534e-05
6.52688e-05
7.42146e-05
7.3293e-05
7.41703e-05
7.32745e-05
6.52521e-05
6.99507e-05
7.41667e-05
7.32864e-05
6.52641e-05
9.5008e-05
7.3521e-05
7.35272e-05
7.35076e-05
7.35138e-05
9.50097e-05
7.12094e-05
7.12078e-05
7.34348e-05
7.18741e-05
7.16053e-05
7.16336e-05
6.85858e-05
7.18651e-05
7.16131e-05
7.16425e-05
7.17094e-05
7.34631e-05
7.98096e-05
7.98023e-05
7.17235e-05
7.17106e-05
7.97907e-05
7.3458e-05
7.16964e-05
7.97979e-05
7.18783e-05
6.85908e-05
7.16254e-05
7.16565e-05
7.16176e-05
7.16475e-05
7.18878e-05
7.18713e-05
7.15973e-05
7.16325e-05
6.85823e-05
7.1862e-05
7.1605e-05
7.16414e-05
7.17084e-05
7.34595e-05
7.97928e-05
7.97855e-05
7.17226e-05
7.17097e-05
7.97737e-05
7.34563e-05
7.16954e-05
7.97811e-05
7.18766e-05
6.85873e-05
7.16173e-05
7.16554e-05
7.16097e-05
7.16464e-05
7.18856e-05
9.49971e-05
7.35155e-05
7.35089e-05
7.41809e-05
6.52808e-05
6.99549e-05
7.32994e-05
7.41845e-05
6.52695e-05
7.32872e-05
7.42286e-05
6.52893e-05
6.99632e-05
7.33092e-05
7.42323e-05
6.52775e-05
7.32972e-05
7.41698e-05
6.99467e-05
6.52615e-05
7.32855e-05
7.42175e-05
6.52576e-05
6.99551e-05
6.527e-05
7.32955e-05
9.50085e-05
7.35277e-05
7.35211e-05
9.50104e-05
7.35144e-05
7.35078e-05
7.1209e-05
7.12076e-05
7.12118e-05
7.12103e-05
7.1233e-05
7.12345e-05
7.12361e-05
7.12375e-05
9.50384e-05
7.35519e-05
7.35451e-05
7.35386e-05
7.35318e-05
9.50401e-05
7.41999e-05
6.5291e-05
7.33034e-05
6.99744e-05
7.41973e-05
7.33121e-05
6.53007e-05
7.42462e-05
6.52974e-05
7.33127e-05
6.99825e-05
7.4243e-05
7.33214e-05
6.53086e-05
9.50273e-05
7.35265e-05
7.35197e-05
9.50257e-05
7.35399e-05
7.3533e-05
7.42111e-05
7.33253e-05
6.99832e-05
6.53188e-05
7.33168e-05
7.42136e-05
6.53094e-05
7.42568e-05
7.33346e-05
6.99913e-05
6.53267e-05
7.33261e-05
7.42598e-05
6.53159e-05
7.1259e-05
7.1262e-05
9.50526e-05
7.35506e-05
7.35438e-05
9.5051e-05
7.35639e-05
7.35571e-05
7.42268e-05
7.333e-05
6.53271e-05
6.99975e-05
7.42244e-05
7.33384e-05
6.53362e-05
7.4273e-05
7.33393e-05
6.53337e-05
7.00057e-05
7.42702e-05
7.33477e-05
6.53442e-05
7.19054e-05
6.86184e-05
7.16853e-05
7.16468e-05
7.16765e-05
7.16363e-05
7.19142e-05
7.17354e-05
7.97991e-05
7.34815e-05
7.17213e-05
7.98066e-05
7.19007e-05
6.86137e-05
7.16625e-05
7.16245e-05
7.16716e-05
7.18913e-05
7.16351e-05
7.17342e-05
7.98178e-05
7.34865e-05
7.98104e-05
7.17482e-05
7.19283e-05
7.16893e-05
7.16533e-05
6.86401e-05
7.19194e-05
7.17008e-05
7.16632e-05
7.17615e-05
7.984e-05
7.3512e-05
7.17474e-05
7.98469e-05
7.19276e-05
7.16903e-05
7.1648e-05
6.86385e-05
7.19187e-05
7.16993e-05
7.16582e-05
7.17608e-05
7.98215e-05
7.35087e-05
7.17469e-05
7.98287e-05
9.50352e-05
7.35456e-05
7.35519e-05
7.35323e-05
7.35387e-05
9.50374e-05
7.42468e-05
6.52941e-05
7.3311e-05
6.99739e-05
7.33197e-05
7.42423e-05
6.53047e-05
7.42001e-05
6.52905e-05
7.33025e-05
6.99757e-05
6.53013e-05
7.41956e-05
7.33143e-05
9.50247e-05
7.35202e-05
7.35268e-05
7.35336e-05
9.50225e-05
7.35401e-05
7.42559e-05
7.33328e-05
6.99833e-05
6.53227e-05
7.33244e-05
6.53125e-05
7.42603e-05
7.42093e-05
7.33275e-05
6.99833e-05
6.53194e-05
6.53089e-05
7.33157e-05
7.42136e-05
7.12343e-05
7.12357e-05
7.12603e-05
9.50499e-05
7.35443e-05
7.35506e-05
9.50478e-05
7.35575e-05
7.35638e-05
7.42734e-05
7.33376e-05
6.53303e-05
6.9997e-05
6.53402e-05
7.42692e-05
7.3346e-05
7.42269e-05
7.33289e-05
6.53268e-05
6.99986e-05
7.42226e-05
7.33405e-05
6.53369e-05
7.12602e-05
7.1905e-05
6.86178e-05
7.16852e-05
7.16439e-05
7.16765e-05
7.16366e-05
7.19138e-05
7.17345e-05
7.97962e-05
7.34829e-05
7.17204e-05
7.98035e-05
7.19003e-05
6.8613e-05
7.16624e-05
7.16247e-05
7.16715e-05
7.18911e-05
7.16324e-05
7.17332e-05
7.98148e-05
7.34861e-05
7.98075e-05
7.17472e-05
7.19283e-05
7.16531e-05
7.16908e-05
6.86395e-05
7.19196e-05
7.16603e-05
7.16998e-05
7.17616e-05
7.98379e-05
7.35145e-05
7.17476e-05
7.98446e-05
7.19272e-05
7.16903e-05
7.16481e-05
6.86379e-05
7.19184e-05
7.16992e-05
7.16554e-05
7.17599e-05
7.98187e-05
7.35102e-05
7.17459e-05
7.98257e-05
7.19045e-05
6.86175e-05
7.16445e-05
7.16848e-05
7.16375e-05
7.1676e-05
7.19136e-05
7.17351e-05
7.98125e-05
7.34848e-05
7.98152e-05
7.17204e-05
7.19002e-05
6.86126e-05
7.16254e-05
7.16618e-05
7.16329e-05
7.18908e-05
7.1671e-05
7.17332e-05
7.98264e-05
7.34898e-05
7.98237e-05
7.17478e-05
7.1905e-05
6.86184e-05
7.16851e-05
7.16444e-05
7.16763e-05
7.16372e-05
7.19139e-05
7.17348e-05
7.97954e-05
7.34826e-05
7.17207e-05
7.98025e-05
7.19004e-05
6.86136e-05
7.16621e-05
7.16252e-05
7.18911e-05
7.16713e-05
7.16329e-05
7.17335e-05
7.98136e-05
7.34857e-05
7.98068e-05
7.17475e-05
7.19271e-05
7.1649e-05
7.16898e-05
6.86375e-05
7.19179e-05
7.16559e-05
7.16988e-05
7.17605e-05
7.98348e-05
7.35121e-05
7.17459e-05
7.98373e-05
7.19272e-05
7.16901e-05
7.16487e-05
6.86384e-05
7.19184e-05
7.1699e-05
7.16559e-05
7.17602e-05
7.98179e-05
7.35099e-05
7.17462e-05
7.98245e-05
9.50338e-05
7.35452e-05
7.35514e-05
7.3532e-05
7.35381e-05
9.50355e-05
7.42465e-05
6.52951e-05
7.33112e-05
6.99779e-05
7.33199e-05
7.42434e-05
6.53069e-05
7.4199e-05
6.5291e-05
7.33017e-05
6.99753e-05
6.53019e-05
7.41958e-05
7.33134e-05
9.50227e-05
7.35198e-05
7.3526e-05
7.35332e-05
9.5021e-05
7.35393e-05
7.42572e-05
7.3333e-05
6.99857e-05
6.5325e-05
7.33246e-05
6.53137e-05
7.42602e-05
7.42096e-05
7.33267e-05
6.99832e-05
6.53201e-05
6.53094e-05
7.3315e-05
7.42126e-05
7.12342e-05
7.12357e-05
7.12614e-05
9.5048e-05
7.3544e-05
7.35501e-05
9.50464e-05
7.35572e-05
7.35634e-05
7.42734e-05
7.33378e-05
6.53315e-05
7.00011e-05
6.53426e-05
7.42706e-05
7.33462e-05
7.42259e-05
7.33282e-05
6.53272e-05
6.99986e-05
7.4223e-05
7.33397e-05
6.53377e-05
7.12602e-05
7.19061e-05
6.86173e-05
7.16491e-05
7.16846e-05
7.16419e-05
7.16758e-05
7.1915e-05
7.17364e-05
7.98138e-05
7.34859e-05
7.9821e-05
7.17223e-05
7.19015e-05
6.86125e-05
7.16301e-05
7.16618e-05
7.16377e-05
7.18923e-05
7.16709e-05
7.17351e-05
7.98321e-05
7.34908e-05
7.9825e-05
7.17491e-05
7.19038e-05
6.86139e-05
7.16413e-05
7.16835e-05
7.16342e-05
7.16747e-05
7.19129e-05
7.17354e-05
7.97971e-05
7.34843e-05
7.17213e-05
7.98042e-05
7.18995e-05
6.8609e-05
7.16222e-05
7.16607e-05
7.189e-05
7.16297e-05
7.16698e-05
7.17341e-05
7.98153e-05
7.34874e-05
7.98084e-05
7.17482e-05
7.19283e-05
7.16533e-05
7.16896e-05
6.86373e-05
7.19195e-05
7.16606e-05
7.16986e-05
7.17617e-05
7.98361e-05
7.35131e-05
7.17478e-05
7.9843e-05
7.19262e-05
7.16457e-05
7.16885e-05
6.86339e-05
7.19174e-05
7.16527e-05
7.16975e-05
7.17608e-05
7.98195e-05
7.35115e-05
7.17468e-05
7.98263e-05
7.12339e-05
7.12353e-05
7.12367e-05
7.12381e-05
9.50489e-05
7.35507e-05
7.35441e-05
9.5047e-05
7.35639e-05
7.35573e-05
7.42254e-05
7.33273e-05
6.53247e-05
6.99942e-05
7.42223e-05
6.5335e-05
7.33388e-05
7.42732e-05
7.33371e-05
6.53329e-05
7.00027e-05
7.42698e-05
6.53435e-05
7.33485e-05
7.12598e-05
7.12626e-05
3.89047e-05
3.19045e-05
3.22688e-05
3.22663e-05
3.92877e-05
3.23851e-05
3.23828e-05
2.34443e-05
2.33006e-05
6.59947e-05
5.95688e-05
5.95705e-05
5.36594e-05
6.59907e-05
5.95664e-05
5.95675e-05
6.59715e-05
5.36304e-05
5.95386e-05
5.95387e-05
5.95407e-05
5.95415e-05
6.59754e-05
6.59696e-05
5.36179e-05
5.95368e-05
5.95407e-05
5.95344e-05
5.95372e-05
6.59753e-05
6.59705e-05
5.36283e-05
5.95374e-05
5.95399e-05
5.95387e-05
5.95414e-05
6.59752e-05
6.59703e-05
5.36303e-05
5.95361e-05
5.95376e-05
6.59745e-05
5.95393e-05
5.95409e-05
6.59958e-05
5.95698e-05
5.95707e-05
5.366e-05
6.59921e-05
5.95687e-05
5.95689e-05
6.59955e-05
5.95643e-05
5.95671e-05
5.36593e-05
5.957e-05
6.599e-05
5.95662e-05
6.59956e-05
5.9568e-05
5.95704e-05
5.36628e-05
5.95715e-05
6.59902e-05
5.9569e-05
3.89083e-05
3.19096e-05
3.90034e-05
3.21497e-05
3.21471e-05
3.20299e-05
3.20271e-05
2.30093e-05
2.31552e-05
3.90031e-05
3.21492e-05
3.21486e-05
3.20295e-05
3.20288e-05
2.30098e-05
2.31556e-05
3.90073e-05
3.21525e-05
3.21523e-05
3.20324e-05
3.20326e-05
2.30132e-05
2.3159e-05
3.90062e-05
3.21537e-05
3.21514e-05
3.20333e-05
3.20318e-05
2.30138e-05
2.31596e-05
6.4786e-05
6.03772e-05
6.03769e-05
3.22682e-05
3.22675e-05
3.92865e-05
3.23845e-05
3.2384e-05
2.34448e-05
2.33011e-05
3.22717e-05
3.22714e-05
3.92917e-05
3.23882e-05
3.23878e-05
2.34481e-05
2.33044e-05
3.22725e-05
3.22705e-05
3.92902e-05
3.2389e-05
3.23868e-05
2.34487e-05
2.3305e-05
3.93797e-05
3.25008e-05
3.24986e-05
2.35876e-05
3.93785e-05
3.25001e-05
3.24994e-05
2.35881e-05
3.93836e-05
3.25039e-05
3.25034e-05
2.35914e-05
3.93822e-05
3.25045e-05
3.25026e-05
2.35919e-05
5.64399e-05
6.07084e-05
6.24043e-05
5.51634e-05
6.23936e-05
5.51782e-05
5.64286e-05
5.74776e-05
6.04485e-05
6.4251e-05
6.48422e-05
5.74896e-05
6.04482e-05
6.42606e-05
5.63951e-05
6.06985e-05
6.23733e-05
5.51414e-05
5.64065e-05
6.23845e-05
5.5127e-05
5.75182e-05
6.42781e-05
6.48474e-05
6.04732e-05
6.04735e-05
6.42689e-05
5.75072e-05
5.64422e-05
6.07086e-05
5.51637e-05
6.24073e-05
5.51784e-05
6.23965e-05
5.64303e-05
5.74822e-05
6.04502e-05
6.42536e-05
6.48432e-05
5.74872e-05
6.04499e-05
6.42631e-05
5.63976e-05
6.06988e-05
5.51408e-05
6.23764e-05
5.64092e-05
5.51271e-05
6.23876e-05
5.75172e-05
6.42805e-05
6.48487e-05
6.04747e-05
6.04751e-05
6.42714e-05
5.75122e-05
6.60106e-05
5.3709e-05
5.95947e-05
5.95958e-05
5.95971e-05
5.95987e-05
6.60142e-05
6.59286e-05
5.35433e-05
5.94765e-05
5.94768e-05
6.5933e-05
5.94795e-05
5.94797e-05
6.59545e-05
5.35705e-05
5.95104e-05
5.95108e-05
6.59504e-05
5.95084e-05
5.95084e-05
5.7388e-05
6.4207e-05
6.47838e-05
6.0376e-05
6.41946e-05
6.03708e-05
5.73907e-05
5.63282e-05
6.23304e-05
5.50549e-05
6.06526e-05
5.63346e-05
6.23472e-05
5.50532e-05
5.74521e-05
6.04278e-05
6.48161e-05
6.42453e-05
6.04215e-05
6.42335e-05
5.74536e-05
5.74228e-05
6.42145e-05
6.03948e-05
6.4811e-05
6.04021e-05
5.74208e-05
6.42263e-05
5.63701e-05
6.06625e-05
6.23687e-05
5.50936e-05
6.23521e-05
5.50948e-05
5.63633e-05
5.63236e-05
6.23255e-05
5.5053e-05
6.06509e-05
5.63303e-05
6.23426e-05
5.50515e-05
5.74465e-05
6.04242e-05
6.48125e-05
6.42375e-05
6.42254e-05
6.04179e-05
5.74481e-05
5.74172e-05
6.42066e-05
6.03916e-05
6.48068e-05
5.7415e-05
6.42186e-05
6.03982e-05
5.63658e-05
6.06608e-05
6.23641e-05
5.50917e-05
6.23472e-05
5.50928e-05
5.63588e-05
5.35708e-05
5.9504e-05
5.95058e-05
5.62991e-05
6.06136e-05
6.23208e-05
5.50097e-05
6.23086e-05
5.50268e-05
5.62869e-05
5.73949e-05
6.42052e-05
6.47861e-05
6.03745e-05
6.4195e-05
6.03747e-05
5.73799e-05
5.62956e-05
6.06121e-05
5.50087e-05
6.23168e-05
5.50256e-05
6.23045e-05
5.62856e-05
5.73835e-05
6.4199e-05
6.47816e-05
6.03742e-05
6.41859e-05
5.73854e-05
6.03693e-05
5.63244e-05
6.23317e-05
5.50663e-05
6.06523e-05
5.63371e-05
6.23436e-05
5.50519e-05
5.7454e-05
6.04264e-05
6.48185e-05
6.42436e-05
6.04256e-05
6.42338e-05
5.74482e-05
5.74143e-05
6.42149e-05
6.04007e-05
6.48128e-05
6.04012e-05
5.74259e-05
6.4225e-05
5.63727e-05
6.06625e-05
6.23649e-05
5.50894e-05
6.23531e-05
5.51039e-05
5.63601e-05
5.63227e-05
5.50652e-05
6.23275e-05
6.06508e-05
5.63329e-05
5.50508e-05
6.23396e-05
5.74459e-05
6.04251e-05
6.48142e-05
6.4237e-05
6.42248e-05
6.04205e-05
5.74471e-05
5.74168e-05
6.42057e-05
6.0395e-05
6.48088e-05
5.74138e-05
6.4218e-05
6.03999e-05
5.63685e-05
6.0661e-05
5.50883e-05
6.2361e-05
5.51027e-05
6.2349e-05
5.63582e-05
5.74581e-05
6.04251e-05
6.48169e-05
6.42426e-05
5.74467e-05
6.0425e-05
6.42323e-05
5.63726e-05
6.06624e-05
6.23639e-05
5.50896e-05
5.63612e-05
6.2352e-05
5.51048e-05
5.74529e-05
6.04228e-05
6.48136e-05
6.4237e-05
6.42272e-05
6.04228e-05
5.74482e-05
5.63718e-05
6.06624e-05
5.50909e-05
6.23623e-05
5.51053e-05
6.23506e-05
5.63607e-05
6.59268e-05
5.35448e-05
5.94736e-05
5.94772e-05
5.948e-05
5.94764e-05
6.59318e-05
6.59536e-05
5.35736e-05
5.95089e-05
5.95116e-05
5.95069e-05
6.59493e-05
5.95098e-05
5.63274e-05
5.50669e-05
6.23336e-05
6.06524e-05
5.63398e-05
5.5053e-05
6.23454e-05
5.74585e-05
6.04271e-05
6.48184e-05
6.42451e-05
5.74534e-05
6.04264e-05
6.42352e-05
5.74188e-05
6.42164e-05
6.04015e-05
6.48124e-05
5.74295e-05
6.0403e-05
6.42265e-05
5.63754e-05
6.06624e-05
5.50888e-05
6.23669e-05
5.63634e-05
5.51039e-05
6.23548e-05
5.63222e-05
5.50656e-05
6.2327e-05
6.06498e-05
5.63347e-05
5.50513e-05
6.23389e-05
5.74519e-05
6.04243e-05
6.48161e-05
6.4237e-05
6.42272e-05
6.04251e-05
5.7447e-05
5.74121e-05
6.42082e-05
6.03982e-05
6.48104e-05
5.74229e-05
6.42184e-05
6.03985e-05
5.63705e-05
6.066e-05
5.50886e-05
6.23602e-05
5.51031e-05
6.23485e-05
5.6358e-05
6.59534e-05
5.35712e-05
5.95103e-05
5.95058e-05
5.95076e-05
6.60119e-05
5.37099e-05
5.95975e-05
5.95976e-05
6.60155e-05
5.95984e-05
5.95994e-05
6.60346e-05
5.3743e-05
5.96266e-05
5.96277e-05
6.60313e-05
5.96257e-05
5.96258e-05
5.64384e-05
6.07086e-05
6.24094e-05
5.51669e-05
6.23935e-05
5.51694e-05
5.64309e-05
5.74842e-05
6.04469e-05
6.42523e-05
6.48418e-05
6.42634e-05
5.74827e-05
6.04517e-05
5.63974e-05
6.06992e-05
6.23734e-05
5.51325e-05
6.23894e-05
5.64048e-05
5.51308e-05
5.75121e-05
6.4281e-05
6.48467e-05
6.04752e-05
6.42701e-05
6.04705e-05
5.75133e-05
5.6434e-05
6.07069e-05
6.24048e-05
5.5165e-05
6.23885e-05
5.51675e-05
5.64264e-05
5.74782e-05
6.04438e-05
6.42441e-05
6.48377e-05
5.74767e-05
6.42557e-05
6.04473e-05
5.63929e-05
6.06976e-05
6.23685e-05
5.51305e-05
5.64004e-05
6.23848e-05
5.51288e-05
5.7506e-05
6.42733e-05
6.48429e-05
6.04708e-05
6.4262e-05
5.75073e-05
6.04669e-05
5.64629e-05
6.24135e-05
5.52051e-05
6.07425e-05
5.6471e-05
6.24288e-05
5.52019e-05
5.75402e-05
6.42875e-05
6.04937e-05
6.48707e-05
6.04977e-05
5.75406e-05
6.42979e-05
5.64585e-05
6.24085e-05
5.52032e-05
6.07408e-05
5.64666e-05
6.24242e-05
5.52e-05
5.7534e-05
6.42794e-05
6.04894e-05
6.48666e-05
5.75345e-05
6.42903e-05
6.0494e-05
6.60099e-05
5.37033e-05
5.95949e-05
5.95986e-05
5.95961e-05
5.95933e-05
6.60152e-05
6.60342e-05
5.37411e-05
5.96215e-05
5.96244e-05
5.96229e-05
6.60291e-05
5.96266e-05
5.64399e-05
6.07089e-05
6.24058e-05
5.51641e-05
6.2395e-05
5.5178e-05
5.64278e-05
5.74779e-05
6.04491e-05
6.42521e-05
6.48435e-05
6.42617e-05
5.74835e-05
6.04486e-05
5.63949e-05
6.06991e-05
6.23746e-05
5.51404e-05
6.23861e-05
5.64068e-05
5.51271e-05
5.75137e-05
6.42792e-05
6.48491e-05
6.0473e-05
6.42701e-05
6.04743e-05
5.75082e-05
5.64362e-05
6.07074e-05
5.51629e-05
6.2402e-05
5.51767e-05
6.23909e-05
5.64256e-05
5.7478e-05
6.04446e-05
6.42435e-05
6.48398e-05
5.74763e-05
6.42552e-05
6.04489e-05
5.63927e-05
6.06976e-05
5.51394e-05
6.23705e-05
5.64029e-05
5.51261e-05
6.23822e-05
5.75061e-05
6.42728e-05
6.48449e-05
6.04725e-05
6.42614e-05
5.75075e-05
6.04684e-05
5.64607e-05
6.24147e-05
5.52093e-05
6.07425e-05
5.64723e-05
6.24253e-05
5.52014e-05
5.75374e-05
6.42875e-05
6.04974e-05
6.48725e-05
6.04966e-05
5.75426e-05
6.42963e-05
5.64584e-05
5.52082e-05
6.24107e-05
6.0741e-05
5.64688e-05
5.52003e-05
6.24215e-05
5.75345e-05
6.42789e-05
6.04915e-05
6.48687e-05
5.75348e-05
6.42896e-05
6.04952e-05
5.64388e-05
6.07085e-05
5.51643e-05
6.24032e-05
5.51781e-05
6.23924e-05
5.64277e-05
5.7477e-05
6.04467e-05
6.42455e-05
6.48387e-05
6.04483e-05
5.74818e-05
6.42551e-05
5.63944e-05
6.06987e-05
5.51406e-05
6.23718e-05
5.51275e-05
5.64053e-05
6.23835e-05
5.7512e-05
6.42726e-05
6.48441e-05
6.04702e-05
6.04696e-05
6.42635e-05
5.7507e-05
5.6461e-05
6.24133e-05
5.5212e-05
6.0742e-05
5.64723e-05
6.24239e-05
5.51986e-05
5.75378e-05
6.4286e-05
6.04961e-05
6.4871e-05
5.75446e-05
6.04971e-05
6.42951e-05
5.64604e-05
5.52097e-05
6.24121e-05
6.07421e-05
5.64712e-05
5.52017e-05
6.24228e-05
5.7536e-05
6.42809e-05
6.04924e-05
6.48675e-05
5.75408e-05
6.42896e-05
6.04918e-05
6.60101e-05
5.37087e-05
5.95986e-05
5.96008e-05
5.9599e-05
5.95963e-05
6.60157e-05
6.60349e-05
5.37459e-05
5.96248e-05
5.9627e-05
5.96267e-05
6.60294e-05
5.96291e-05
5.64376e-05
6.07063e-05
5.51632e-05
6.24012e-05
5.5177e-05
6.23903e-05
5.64256e-05
5.74759e-05
6.04495e-05
6.42456e-05
6.48413e-05
6.04509e-05
5.74808e-05
6.42552e-05
5.63928e-05
6.06965e-05
5.51397e-05
6.23699e-05
5.51265e-05
5.64046e-05
6.23814e-05
5.7511e-05
6.42727e-05
6.48466e-05
6.04728e-05
6.04718e-05
6.42636e-05
5.7506e-05
5.6463e-05
5.52122e-05
6.24162e-05
6.07422e-05
5.64745e-05
5.51989e-05
6.24268e-05
5.75413e-05
6.42888e-05
6.0498e-05
6.48721e-05
5.7546e-05
6.04984e-05
6.42976e-05
5.64586e-05
5.52085e-05
6.241e-05
6.07398e-05
5.647e-05
5.52004e-05
6.24206e-05
5.75351e-05
6.4281e-05
6.04943e-05
6.48702e-05
5.75398e-05
6.42897e-05
6.04952e-05
6.60333e-05
5.37416e-05
5.96255e-05
5.9627e-05
6.60301e-05
5.96231e-05
5.96242e-05
3.95575e-05
5.1781e-05
5.1785e-05
5.38269e-05
3.98928e-05
5.19622e-05
5.19663e-05
5.39694e-05
4.02014e-05
5.21231e-05
5.21272e-05
5.40964e-05
4.04839e-05
5.22642e-05
5.22683e-05
5.42078e-05
4.07409e-05
5.2386e-05
5.239e-05
5.43041e-05
4.09731e-05
5.24892e-05
5.24932e-05
5.43854e-05
4.11814e-05
5.25746e-05
5.25785e-05
5.44521e-05
4.13666e-05
5.26428e-05
5.26467e-05
5.45046e-05
4.15296e-05
5.26945e-05
5.26983e-05
5.45436e-05
4.16712e-05
5.27303e-05
5.27341e-05
5.45698e-05
4.17923e-05
5.27509e-05
5.27548e-05
5.45906e-05
4.18938e-05
5.27571e-05
5.27609e-05
5.45941e-05
4.19763e-05
5.2751e-05
5.27548e-05
5.45805e-05
4.20409e-05
5.27325e-05
5.27364e-05
5.45592e-05
4.20891e-05
5.27022e-05
5.27062e-05
5.45273e-05
4.21223e-05
5.26609e-05
5.26652e-05
5.4488e-05
4.21412e-05
5.26099e-05
5.26142e-05
5.44407e-05
4.21455e-05
5.255e-05
5.25542e-05
5.43853e-05
4.21118e-05
5.24742e-05
5.24778e-05
5.43107e-05
4.37927e-05
5.05507e-05
5.0554e-05
5.39559e-05
5.37825e-05
5.17331e-05
5.17279e-05
5.37804e-05
5.17307e-05
5.17311e-05
5.17318e-05
5.17324e-05
5.37854e-05
5.17357e-05
5.17303e-05
5.37814e-05
5.38276e-05
5.39298e-05
5.17823e-05
5.17771e-05
5.19193e-05
5.1914e-05
5.38228e-05
5.39278e-05
5.17799e-05
5.17804e-05
5.19169e-05
5.19175e-05
5.17817e-05
5.19179e-05
5.19185e-05
5.38266e-05
5.39321e-05
5.17795e-05
5.1922e-05
5.19165e-05
5.39291e-05
5.39707e-05
5.40605e-05
5.19636e-05
5.19583e-05
5.20849e-05
5.20795e-05
5.39671e-05
5.40589e-05
5.19613e-05
5.19618e-05
5.20827e-05
5.20833e-05
5.19628e-05
5.20835e-05
5.20841e-05
5.3971e-05
5.40627e-05
5.19608e-05
5.20877e-05
5.20822e-05
5.40605e-05
5.40982e-05
5.41754e-05
5.21244e-05
5.21191e-05
5.22305e-05
5.22251e-05
5.40948e-05
5.41736e-05
5.21222e-05
5.21228e-05
5.22284e-05
5.2229e-05
5.21237e-05
5.22292e-05
5.22297e-05
5.40985e-05
5.41765e-05
5.21217e-05
5.22333e-05
5.22278e-05
5.41752e-05
5.42096e-05
5.42746e-05
5.22655e-05
5.22601e-05
5.23568e-05
5.23513e-05
5.42065e-05
5.42726e-05
5.22634e-05
5.2264e-05
5.23547e-05
5.23553e-05
5.22647e-05
5.23555e-05
5.23559e-05
5.42105e-05
5.42756e-05
5.22628e-05
5.23595e-05
5.23541e-05
5.42743e-05
5.43055e-05
5.43587e-05
5.23873e-05
5.23818e-05
5.24644e-05
5.24589e-05
5.43028e-05
5.43566e-05
5.23852e-05
5.23858e-05
5.24624e-05
5.2463e-05
5.23865e-05
5.24632e-05
5.24636e-05
5.43064e-05
5.43595e-05
5.23846e-05
5.24672e-05
5.24618e-05
5.43583e-05
5.43865e-05
5.44281e-05
5.24904e-05
5.2485e-05
5.25539e-05
5.25485e-05
5.43839e-05
5.4426e-05
5.24885e-05
5.24891e-05
5.2552e-05
5.25525e-05
5.24897e-05
5.25527e-05
5.25531e-05
5.43873e-05
5.44288e-05
5.24879e-05
5.25567e-05
5.25514e-05
5.44277e-05
5.4453e-05
5.44832e-05
5.25758e-05
5.25704e-05
5.2626e-05
5.26206e-05
5.44505e-05
5.44812e-05
5.25739e-05
5.25744e-05
5.26241e-05
5.26246e-05
5.25751e-05
5.26249e-05
5.26253e-05
5.44537e-05
5.4484e-05
5.25734e-05
5.26288e-05
5.26236e-05
5.4483e-05
5.45054e-05
5.45248e-05
5.26439e-05
5.26385e-05
5.26814e-05
5.26761e-05
5.45031e-05
5.45228e-05
5.26421e-05
5.26426e-05
5.26796e-05
5.26801e-05
5.26432e-05
5.26804e-05
5.26808e-05
5.45062e-05
5.45256e-05
5.26416e-05
5.26843e-05
5.26792e-05
5.45245e-05
5.45444e-05
5.45532e-05
5.26955e-05
5.26902e-05
5.27212e-05
5.27159e-05
5.45421e-05
5.45516e-05
5.26937e-05
5.26942e-05
5.27194e-05
5.27199e-05
5.26949e-05
5.27202e-05
5.27205e-05
5.45452e-05
5.4554e-05
5.26932e-05
5.2724e-05
5.2719e-05
5.45533e-05
5.45709e-05
5.45676e-05
5.27312e-05
5.2726e-05
5.27462e-05
5.2741e-05
5.45683e-05
5.45703e-05
5.27295e-05
5.273e-05
5.27445e-05
5.2745e-05
5.27306e-05
5.27453e-05
5.27455e-05
5.45717e-05
5.45703e-05
5.2729e-05
5.27491e-05
5.27439e-05
5.45663e-05
5.4592e-05
5.45702e-05
5.27519e-05
5.27466e-05
5.27572e-05
5.2752e-05
5.45841e-05
5.45745e-05
5.27502e-05
5.27506e-05
5.27555e-05
5.2756e-05
5.27512e-05
5.27564e-05
5.27565e-05
5.45906e-05
5.45757e-05
5.27496e-05
5.27602e-05
5.27549e-05
5.45692e-05
5.45949e-05
5.45624e-05
5.2758e-05
5.27527e-05
5.27537e-05
5.27484e-05
5.45869e-05
5.4566e-05
5.27563e-05
5.27568e-05
5.27521e-05
5.27525e-05
5.27572e-05
5.27529e-05
5.27529e-05
5.4592e-05
5.4566e-05
5.27557e-05
5.27567e-05
5.27514e-05
5.4564e-05
5.4583e-05
5.45436e-05
5.27519e-05
5.27466e-05
5.27372e-05
5.27319e-05