/*--------------------------------*- C++ -*----------------------------------*\
| =========                 |                                                 |
| \\      /  F ield         | OpenFOAM: The Open Source CFD Toolbox           |
|  \\    /   O peration     | Version:  2312                                  |
|   \\  /    A nd           | Website:  www.openfoam.com                      |
|    \\/     M anipulation  |                                                 |
\*---------------------------------------------------------------------------*/
FoamFile
{
    version     2.0;
    format      ascii;
    arch        "LSB;label=32;scalar=64";
    class       volScalarField;
    location    "900";
    object      nut;
}
// * * * * * * * * * * * * * * * * * * * * * * * * * * * * * * * * * * * * * //

dimensions      [0 2 -1 0 0 0 0];

internalField   nonuniform List<scalar> 
172512
(
0.000208365
0.000201474
0.000201484
0.000182486
0.000182391
0.000201138
0.000201117
0.000182416
0.000201149
0.000201124
0.000201148
0.000201128
0.000182416
0.000201159
0.000201137
0.000182383
0.000182493
0.000201463
0.000201441
0.000182446
0.000201473
0.000201448
0.000201452
0.000182488
0.000201462
5.07455e-05
9.98386e-05
5.07421e-05
0.000207772
0.000207764
0.000207777
0.000207768
2.38911e-05
0.000200499
0.000103598
9.99456e-05
5.07586e-05
9.98966e-05
5.07643e-05
2.38967e-05
2.39008e-05
9.99418e-05
5.07512e-05
9.98931e-05
5.07616e-05
0.000208356
0.00020837
0.000208361
0.000144485
0.000103663
0.000211327
0.000201788
0.000144325
0.000103733
0.000211742
2.38957e-05
2.38999e-05
0.000144484
0.000211332
0.000103666
0.000201799
0.000144323
0.000211751
0.000103735
7.79283e-05
7.79226e-05
0.000182824
7.79508e-05
7.79457e-05
2.3894e-05
2.3892e-05
0.000181949
7.79061e-05
7.78995e-05
2.38985e-05
2.38943e-05
2.38965e-05
2.38923e-05
0.000182082
7.79333e-05
7.79268e-05
7.79115e-05
7.79053e-05
0.000200478
0.0001036
9.98444e-05
5.07549e-05
5.07486e-05
9.98964e-05
9.98408e-05
5.07492e-05
5.07433e-05
9.98924e-05
0.00014414
0.000200812
0.00010367
0.000210895
0.000103595
0.000210465
0.000144308
0.000144135
0.000200792
0.000103646
0.000210887
0.000103571
0.000210457
0.000144304
2.38964e-05
2.38923e-05
0.000181998
7.79121e-05
7.79329e-05
7.78905e-05
2.38978e-05
0.000144112
0.000200488
0.000103589
0.000210022
9.98358e-05
5.07387e-05
0.000144109
0.000200463
0.000210019
0.00010358
9.98412e-05
5.07521e-05
5.07417e-05
9.98923e-05
0.000144139
0.000200823
0.000103661
0.000210895
0.000103587
0.000210464
0.000144305
9.9838e-05
5.07481e-05
5.07373e-05
9.98891e-05
0.000144136
0.000200798
0.000210892
0.000103651
0.000210461
0.000103576
0.000144302
0.000103667
0.000210893
0.000144303
5.07511e-05
9.98852e-05
0.000210893
0.000103657
0.000144306
5.07492e-05
9.989e-05
0.000181931
7.78918e-05
7.79048e-05
2.38933e-05
2.38955e-05
2.38912e-05
0.000182094
7.79192e-05
7.79328e-05
7.78951e-05
7.79092e-05
2.38977e-05
2.38935e-05
5.07412e-05
0.000144136
0.000200833
0.000210902
0.000103669
0.000210471
0.000103597
0.000144301
0.000144128
0.000200811
0.000210893
0.000103651
0.000210462
0.000103577
0.000144294
9.98312e-05
5.07513e-05
5.07457e-05
9.98837e-05
9.98202e-05
5.07477e-05
5.07368e-05
9.98745e-05
0.000182084
7.79251e-05
7.792e-05
7.7895e-05
2.38964e-05
2.38953e-05
2.3891e-05
2.38988e-05
2.39029e-05
2.38967e-05
2.39008e-05
7.79385e-05
7.79323e-05
0.000182844
7.79591e-05
7.79526e-05
2.39032e-05
2.39011e-05
0.000182909
7.79639e-05
7.79576e-05
9.99423e-05
5.0753e-05
9.98932e-05
5.07587e-05
0.000144491
0.000103665
0.000211326
0.000201778
0.000144329
0.000103737
0.000211744
0.000144486
0.000103641
0.000211318
0.000201756
0.000144324
0.000103713
0.000211736
9.99453e-05
5.07681e-05
9.99421e-05
5.07626e-05
0.000144509
0.000202093
0.000103731
0.000212163
0.000144505
0.000202072
0.000103707
0.000212156
7.79173e-05
7.79359e-05
0.000182843
7.79377e-05
7.79589e-05
2.3898e-05
2.39021e-05
2.39011e-05
0.000182875
7.79425e-05
7.79614e-05
2.39024e-05
0.000144489
0.000103657
0.000211325
0.000201789
0.000144327
0.000103726
0.000211744
9.99391e-05
5.07474e-05
9.989e-05
5.07577e-05
0.000144486
0.000211323
0.000103646
0.000201764
0.000144324
0.000211741
0.000103717
9.99419e-05
5.07607e-05
0.000144507
0.000202104
0.000103723
0.000212163
9.99391e-05
5.07568e-05
0.000144505
0.000202079
0.000212161
0.000103712
9.99349e-05
5.07546e-05
9.98839e-05
5.07605e-05
0.000144487
0.000211324
0.000103654
0.000201767
0.000144326
0.000211742
0.000103723
9.99398e-05
5.07485e-05
9.98905e-05
5.07588e-05
0.000144505
0.000202105
0.000103728
0.000212165
9.99333e-05
5.07642e-05
0.000144507
0.000202083
0.000212162
0.000103719
9.99397e-05
5.07579e-05
7.79224e-05
7.79364e-05
0.00018286
7.7945e-05
7.7959e-05
2.3898e-05
2.39021e-05
2.39001e-05
0.000182889
7.79477e-05
7.79613e-05
2.39024e-05
0.000144478
0.000211323
0.000103647
0.000201777
0.000144316
0.000211742
0.000103717
9.99337e-05
5.07549e-05
9.98831e-05
5.07608e-05
9.99246e-05
5.07469e-05
9.98722e-05
5.07573e-05
0.000144504
0.000202114
0.000212169
0.000103732
0.000144496
0.000202093
0.000212161
0.000103713
9.99321e-05
5.07645e-05
9.99214e-05
5.07563e-05
2.38966e-05
2.39008e-05
2.38955e-05
2.38997e-05
0.000182899
7.79533e-05
7.7948e-05
2.39009e-05
2.38999e-05
2.03161e-05
7.90828e-05
5.07446e-05
7.90647e-05
2.03181e-05
3.67141e-05
9.98128e-05
9.44558e-05
4.10537e-05
9.44337e-05
4.10542e-05
3.67136e-05
2.03164e-05
7.9078e-05
5.07358e-05
7.9061e-05
2.03185e-05
2.3889e-05
3.6728e-05
9.99214e-05
4.10735e-05
9.45454e-05
4.10676e-05
9.45159e-05
3.67271e-05
2.03236e-05
7.90959e-05
5.07597e-05
2.03216e-05
7.9113e-05
3.67237e-05
9.99218e-05
4.10639e-05
9.44973e-05
3.67245e-05
4.10692e-05
9.45266e-05
2.03234e-05
7.91223e-05
5.07633e-05
7.91054e-05
2.03254e-05
2.38986e-05
2.38989e-05
3.67281e-05
9.99181e-05
9.45366e-05
4.10703e-05
9.45163e-05
4.10704e-05
3.67269e-05
2.0324e-05
7.90918e-05
5.07569e-05
2.0322e-05
7.91082e-05
3.67236e-05
9.99179e-05
9.44971e-05
4.10662e-05
3.67245e-05
9.45182e-05
4.10665e-05
2.03238e-05
7.91176e-05
5.07561e-05
7.91012e-05
2.03258e-05
2.38977e-05
2.38979e-05
8.15159e-05
2.17175e-05
2.17143e-05
2.17156e-05
2.17123e-05
8.15222e-05
0.000105293
0.000128909
4.86625e-05
7.79383e-05
0.000105274
0.000128961
4.86696e-05
0.000105299
0.00012889
4.86522e-05
7.79328e-05
0.00010528
0.000128945
4.86591e-05
8.15139e-05
2.17138e-05
2.17105e-05
8.15076e-05
2.17158e-05
2.17125e-05
0.000105301
4.8674e-05
7.7941e-05
0.000129022
0.00012897
4.8667e-05
0.000105319
0.000105307
4.86635e-05
7.79357e-05
0.000129004
0.000128952
4.86566e-05
0.000105325
2.38921e-05
2.389e-05
8.14876e-05
2.17107e-05
2.17074e-05
2.17087e-05
2.17054e-05
8.14937e-05
0.000105199
4.86555e-05
7.78973e-05
0.00012878
4.86562e-05
0.000105217
0.000128729
0.0001052
4.86429e-05
7.78911e-05
0.000128762
4.86437e-05
0.000105219
0.000128705
2.38966e-05
2.38963e-05
2.38945e-05
2.38942e-05
8.15027e-05
2.17106e-05
2.17073e-05
8.14966e-05
2.17126e-05
2.17093e-05
0.000105255
0.000128908
7.79252e-05
4.86646e-05
4.86652e-05
0.000128859
0.000105273
0.000105256
0.00012889
7.7919e-05
4.8652e-05
4.86526e-05
0.000128835
0.000105275
0.000105245
4.86606e-05
0.000128795
7.79198e-05
0.000105227
4.86604e-05
0.000128845
0.000105247
4.8648e-05
0.000128771
7.79132e-05
0.000105228
4.86479e-05
0.000128827
8.15054e-05
2.17144e-05
2.17111e-05
2.17124e-05
2.17091e-05
8.15115e-05
3.67166e-05
4.10586e-05
9.44558e-05
9.98704e-05
3.67176e-05
4.10591e-05
9.44862e-05
2.03198e-05
5.07539e-05
7.91033e-05
2.03218e-05
7.90856e-05
2.03199e-05
7.90754e-05
5.07504e-05
2.03179e-05
7.90932e-05
3.67207e-05
9.98703e-05
4.10643e-05
9.45075e-05
3.67205e-05
4.10615e-05
9.44769e-05
3.67151e-05
4.10585e-05
9.44443e-05
9.98668e-05
3.67161e-05
4.10588e-05
9.44749e-05
2.03191e-05
5.07483e-05
7.90811e-05
7.90633e-05
2.03211e-05
2.03193e-05
7.90532e-05
5.07446e-05
2.03173e-05
7.9071e-05
3.67193e-05
9.98669e-05
4.10627e-05
9.44955e-05
4.10626e-05
9.44649e-05
3.67188e-05
2.38945e-05
2.38942e-05
0.000105253
0.000128877
7.79042e-05
4.86515e-05
0.000128824
4.8652e-05
0.000105275
0.00010525
0.000128908
7.79223e-05
4.86663e-05
4.86589e-05
0.000128855
0.000105272
0.000128761
7.78987e-05
0.000128813
8.14993e-05
2.17108e-05
2.17139e-05
2.17089e-05
2.17119e-05
8.15066e-05
2.38961e-05
3.67119e-05
9.98099e-05
4.10535e-05
9.44457e-05
4.1054e-05
9.44238e-05
3.67109e-05
2.03155e-05
7.90579e-05
5.07324e-05
7.904e-05
2.03175e-05
3.6716e-05
9.44563e-05
4.10586e-05
9.98666e-05
3.67173e-05
9.44778e-05
4.10584e-05
2.03202e-05
5.07463e-05
7.90985e-05
2.03222e-05
7.90818e-05
2.03203e-05
7.90716e-05
5.07469e-05
2.03183e-05
7.90885e-05
3.67207e-05
9.98666e-05
9.44984e-05
4.10622e-05
3.67207e-05
9.4476e-05
4.1062e-05
3.67158e-05
4.10583e-05
9.4446e-05
9.98636e-05
3.67151e-05
4.10581e-05
9.44678e-05
2.03192e-05
5.07423e-05
7.90784e-05
7.9061e-05
2.03212e-05
2.03193e-05
7.90507e-05
5.07431e-05
2.03173e-05
7.90683e-05
3.6719e-05
9.98638e-05
4.1062e-05
9.44878e-05
4.10619e-05
9.44663e-05
3.67186e-05
2.03203e-05
5.07503e-05
7.90882e-05
7.90779e-05
2.03223e-05
3.67211e-05
9.98585e-05
9.44876e-05
4.10616e-05
9.44634e-05
4.10619e-05
3.67202e-05
2.03194e-05
5.07434e-05
7.90785e-05
7.90617e-05
2.03214e-05
3.67197e-05
9.9865e-05
4.10625e-05
9.44901e-05
4.10626e-05
9.44687e-05
3.6719e-05
8.14834e-05
2.17077e-05
2.17109e-05
2.17057e-05
2.17089e-05
8.14898e-05
0.000105201
4.86426e-05
7.78816e-05
0.000128753
4.86435e-05
0.000128696
0.000105218
0.000105197
4.86595e-05
7.78946e-05
0.000128784
0.000128727
4.86516e-05
0.000105216
2.38913e-05
2.38935e-05
2.38933e-05
8.14989e-05
2.17075e-05
2.17107e-05
8.14925e-05
2.17095e-05
2.17127e-05
0.000105258
0.000128882
7.79091e-05
4.86521e-05
0.000128827
4.86524e-05
0.000105275
0.000105255
0.000128912
7.7923e-05
4.86681e-05
4.86608e-05
0.000128858
0.000105273
0.000105247
4.86482e-05
0.000128762
7.79053e-05
0.000128819
0.00010523
4.86478e-05
0.000105245
4.86561e-05
0.000128793
7.79193e-05
0.000105227
4.86635e-05
0.000128849
8.15014e-05
2.17113e-05
2.17145e-05
2.17093e-05
2.17126e-05
8.15076e-05
2.38958e-05
2.38955e-05
5.07406e-05
3.67182e-05
9.4457e-05
4.1058e-05
9.98583e-05
3.67175e-05
9.44786e-05
4.10576e-05
2.03208e-05
5.07503e-05
7.90994e-05
7.90825e-05
2.03228e-05
2.0321e-05
7.90727e-05
5.07466e-05
2.0319e-05
7.90893e-05
3.67214e-05
9.98569e-05
9.44986e-05
4.10615e-05
9.44771e-05
4.10616e-05
3.67209e-05
3.67133e-05
9.44365e-05
4.10575e-05
9.98489e-05
3.67145e-05
9.44595e-05
4.1057e-05
2.03189e-05
5.07419e-05
7.90768e-05
7.90596e-05
2.03209e-05
2.03191e-05
7.90494e-05
5.07427e-05
2.03171e-05
7.90667e-05
3.67185e-05
9.98461e-05
9.44796e-05
4.10609e-05
9.44566e-05
4.10611e-05
3.67178e-05
8.14967e-05
2.17122e-05
2.17089e-05
0.000105248
0.0001289
7.7915e-05
4.86652e-05
0.000105266
0.000128847
4.86578e-05
0.000105254
0.000128882
7.79093e-05
4.86548e-05
0.000105272
0.000128827
4.86476e-05
0.000105239
7.79119e-05
0.000128837
4.86604e-05
0.000105244
0.000128762
7.79061e-05
0.000128819
4.86501e-05
8.14991e-05
2.1714e-05
2.17107e-05
8.15054e-05
2.1712e-05
2.17087e-05
2.38944e-05
2.38942e-05
2.38933e-05
2.38931e-05
2.39007e-05
2.3901e-05
2.38987e-05
2.38989e-05
8.15221e-05
2.17179e-05
2.17146e-05
2.1716e-05
2.17127e-05
8.15282e-05
0.0001053
0.000128922
4.86692e-05
7.79463e-05
0.000105283
4.8669e-05
0.00012897
0.000105302
0.000128897
4.86566e-05
7.79397e-05
0.000105283
4.86565e-05
0.000128951
8.152e-05
2.17142e-05
2.17109e-05
8.15139e-05
2.17162e-05
2.17129e-05
0.000105309
4.86733e-05
7.79514e-05
0.00012903
4.86738e-05
0.000105326
0.000128983
0.00010531
4.86608e-05
7.79452e-05
0.000129011
4.86612e-05
0.000105328
0.000128959
2.3905e-05
2.3903e-05
8.15361e-05
2.17178e-05
2.17145e-05
8.153e-05
2.17197e-05
2.17164e-05
0.000105351
4.86782e-05
0.000129042
7.79712e-05
0.000105334
4.86778e-05
0.000129088
0.000105353
4.86656e-05
0.000129018
7.79648e-05
0.000105335
4.86652e-05
0.00012907
3.67266e-05
9.99183e-05
4.10708e-05
9.45339e-05
4.10709e-05
9.45044e-05
3.67258e-05
2.03229e-05
7.90735e-05
5.07541e-05
2.03209e-05
7.90908e-05
3.67221e-05
9.99185e-05
4.10667e-05
9.44855e-05
4.10671e-05
3.67228e-05
9.45151e-05
2.03227e-05
7.91002e-05
5.07578e-05
7.90831e-05
2.03247e-05
3.67305e-05
4.1072e-05
9.45354e-05
9.99695e-05
3.67313e-05
4.10775e-05
9.45638e-05
2.03272e-05
7.91147e-05
5.07692e-05
2.03252e-05
7.91314e-05
3.67291e-05
4.10745e-05
9.45239e-05
9.9966e-05
3.67299e-05
4.10748e-05
9.45525e-05
2.03265e-05
7.90924e-05
5.07635e-05
2.03245e-05
7.91093e-05
8.15165e-05
2.17146e-05
2.17177e-05
2.17126e-05
2.17157e-05
8.15236e-05
0.000105302
0.000128887
4.86561e-05
7.79251e-05
4.8656e-05
0.000105281
0.000128938
0.0001053
0.000128918
4.8664e-05
7.7946e-05
0.00012897
0.000105278
4.86712e-05
8.15152e-05
2.17109e-05
2.1714e-05
2.17128e-05
8.1508e-05
2.17159e-05
0.000105306
4.86603e-05
7.79301e-05
0.000128998
4.86607e-05
0.000128948
0.000105327
0.000105304
4.86757e-05
7.79488e-05
0.00012903
0.000128979
4.86685e-05
0.000105326
2.39e-05
2.39002e-05
2.3903e-05
8.15317e-05
2.17144e-05
2.17175e-05
8.15248e-05
2.17164e-05
2.17194e-05
0.000105352
4.86651e-05
0.000129008
7.79499e-05
0.000129056
0.000105332
4.86648e-05
0.000105351
4.86728e-05
0.000129039
7.79711e-05
0.000105329
4.86799e-05
0.000129089
2.39043e-05
3.67262e-05
9.99153e-05
4.10701e-05
9.45269e-05
4.10703e-05
9.45065e-05
3.67253e-05
2.0323e-05
7.9071e-05
5.07529e-05
2.0321e-05
7.90882e-05
3.67218e-05
9.99152e-05
4.1066e-05
9.4487e-05
4.10664e-05
3.67225e-05
9.45084e-05
2.03228e-05
7.90976e-05
5.07521e-05
7.90807e-05
2.03248e-05
3.67304e-05
9.4535e-05
4.10741e-05
9.99658e-05
3.67314e-05
9.45555e-05
4.10744e-05
2.03276e-05
7.91105e-05
5.07661e-05
2.03256e-05
7.91267e-05
3.67286e-05
4.10739e-05
9.45252e-05
9.9963e-05
3.67296e-05
4.10741e-05
9.45459e-05
2.03266e-05
7.909e-05
5.07623e-05
2.03246e-05
7.91066e-05
3.6728e-05
9.99095e-05
9.45265e-05
4.10697e-05
9.45034e-05
4.107e-05
3.6727e-05
2.03242e-05
7.90877e-05
5.07559e-05
7.90979e-05
2.03221e-05
3.67237e-05
9.99108e-05
9.44833e-05
4.10655e-05
9.4508e-05
3.67241e-05
4.10659e-05
2.03239e-05
7.91074e-05
5.07595e-05
7.90972e-05
2.0326e-05
3.67267e-05
9.99159e-05
4.10705e-05
9.4529e-05
4.10707e-05
9.45085e-05
3.67258e-05
2.03232e-05
7.90716e-05
5.0754e-05
2.03212e-05
7.90883e-05
3.67224e-05
9.99159e-05
4.10663e-05
9.44886e-05
3.67229e-05
4.10668e-05
9.45105e-05
2.0323e-05
7.90976e-05
5.07532e-05
7.90812e-05
2.0325e-05
3.67307e-05
9.45218e-05
4.10736e-05
9.99586e-05
3.67309e-05
9.45451e-05
4.10737e-05
2.03278e-05
7.91065e-05
5.07653e-05
2.03257e-05
7.91164e-05
3.67291e-05
4.10743e-05
9.45271e-05
9.99636e-05
3.67302e-05
4.10745e-05
9.45477e-05
2.03268e-05
7.90905e-05
5.07634e-05
2.03248e-05
7.91066e-05
8.1518e-05
2.17149e-05
2.17181e-05
2.17129e-05
2.17161e-05
8.15243e-05
0.000105302
0.00012889
4.86566e-05
7.79321e-05
4.86566e-05
0.000105285
0.000128944
0.0001053
0.000128921
4.86654e-05
7.79465e-05
0.000128973
0.000105282
4.86723e-05
8.15161e-05
2.17111e-05
2.17144e-05
2.17131e-05
8.15099e-05
2.17163e-05
0.000105311
4.86609e-05
7.79353e-05
0.000129004
4.86612e-05
0.000128951
0.000105328
0.000105308
4.86768e-05
7.7949e-05
0.000129034
0.000128982
4.86698e-05
0.000105326
2.38999e-05
2.39002e-05
2.39021e-05
8.15322e-05
2.17147e-05
2.17179e-05
8.15259e-05
2.17166e-05
2.17199e-05
0.000105353
4.86656e-05
0.000129011
7.79572e-05
0.000129063
0.000105337
4.86653e-05
0.000105351
4.86741e-05
0.000129042
7.79712e-05
0.000105334
4.8681e-05
0.000129093
2.39043e-05
3.67286e-05
9.99084e-05
9.45373e-05
4.10696e-05
9.45171e-05
4.10699e-05
3.67276e-05
2.03246e-05
7.90923e-05
5.07561e-05
7.91091e-05
2.03227e-05
3.67242e-05
9.99097e-05
9.44977e-05
4.10657e-05
9.4519e-05
3.67249e-05
4.10659e-05
2.03245e-05
7.91185e-05
5.07597e-05
7.91018e-05
2.03264e-05
3.67255e-05
9.98976e-05
9.45187e-05
4.1069e-05
9.44969e-05
4.10695e-05
3.67244e-05
2.03227e-05
7.90695e-05
5.07525e-05
2.03207e-05
7.90865e-05
3.67214e-05
9.99004e-05
9.44772e-05
4.10652e-05
3.67214e-05
9.45002e-05
4.10653e-05
2.03225e-05
7.90958e-05
5.07517e-05
7.90792e-05
2.03245e-05
3.67309e-05
9.45356e-05
4.10736e-05
9.99573e-05
3.6732e-05
9.4556e-05
4.10736e-05
2.03282e-05
7.91111e-05
5.07656e-05
2.03263e-05
7.91275e-05
3.67278e-05
9.45155e-05
4.10731e-05
9.99482e-05
3.6729e-05
9.45374e-05
4.1073e-05
2.03263e-05
7.90885e-05
5.07619e-05
2.03243e-05
7.91049e-05
2.38986e-05
2.38988e-05
2.38975e-05
2.38977e-05
8.15302e-05
2.17173e-05
2.17141e-05
8.15238e-05
2.17193e-05
2.17161e-05
0.000105344
4.86712e-05
0.000129029
7.79629e-05
0.000105326
0.00012908
4.86781e-05
0.00010535
4.86608e-05
0.000129011
7.79576e-05
0.000105332
0.000129062
4.86676e-05
2.39029e-05
2.39019e-05
0.00020657
0.000203206
0.000205528
0.000205527
0.000208947
0.000206286
0.000206286
0.000197397
0.000196402
0.000138545
0.000162126
0.000162117
0.000182614
0.000138512
0.000162173
0.000162161
0.000138446
0.000182306
0.000162043
0.000162028
0.000161997
0.000161983
0.000138479
0.000138436
0.000182229
0.000162028
0.000162055
0.000161954
0.000161975
0.000138478
0.000138443
0.000182285
0.000162026
0.000162048
0.000161973
0.000161996
0.000138479
0.000138437
0.000182297
0.000162029
0.000162018
0.000138471
0.000161986
0.000161976
0.000138554
0.000162134
0.000162121
0.000182627
0.000138521
0.000162188
0.000162172
0.000138552
0.000162095
0.000162117
0.000182632
0.000162194
0.000138511
0.000162167
0.000138554
0.000162112
0.000162133
0.000182641
0.0001622
0.000138515
0.000162178
0.000206575
0.000203213
0.000207176
0.00020476
0.000204759
0.000203988
0.000203987
0.000194398
0.000195402
0.000207173
0.000204757
0.000204758
0.000203987
0.000203989
0.000194398
0.000195402
0.000207181
0.000204766
0.000204769
0.000203994
0.000203998
0.000194406
0.000195409
0.000207173
0.000204765
0.000204765
0.000203993
0.000203995
0.000194405
0.000195409
0.00010356
0.000147552
0.000147516
0.000205525
0.000205526
0.000208938
0.000206283
0.000206284
0.000197397
0.000196402
0.000205534
0.000205537
0.000208952
0.000206292
0.000206295
0.000197405
0.00019641
0.000205532
0.000205533
0.000208943
0.00020629
0.000206291
0.000197404
0.000196409
0.000209526
0.000207041
0.000207041
0.000198389
0.000209517
0.000207038
0.000207039
0.000198389
0.000209531
0.000207047
0.000207049
0.000198396
0.000209523
0.000207045
0.000207046
0.000198395
0.000171949
0.000144416
0.000137878
0.000177243
0.000137821
0.000177241
0.000172011
0.000161153
0.000147823
0.000122854
0.0001037
0.000161127
0.00014786
0.000122907
0.000171833
0.000144395
0.000137745
0.000177046
0.000171772
0.000137806
0.000177051
0.000161262
0.000122961
0.000103696
0.00014797
0.000147933
0.000122909
0.000161293
0.000171948
0.000144415
0.000177239
0.000137886
0.000177238
0.00013783
0.000172007
0.000161172
0.000147829
0.000122863
0.000103703
0.000161106
0.000147865
0.000122913
0.000171836
0.000144395
0.000177037
0.000137754
0.000171779
0.000177047
0.000137814
0.000161249
0.000122967
0.000103699
0.000147974
0.000147938
0.000122917
0.000161314
0.000138585
0.000182687
0.000162309
0.000162297
0.000162261
0.000162251
0.000138617
0.000138291
0.000181871
0.000161751
0.000161736
0.000138325
0.000161709
0.000161693
0.000138403
0.000182167
0.000161854
0.000161838
0.000138369
0.000161902
0.000161885
0.000160624
0.000122745
0.000103559
0.000147551
0.00012268
0.00014749
0.000160782
0.00017153
0.000137581
0.000176574
0.000144215
0.000171336
0.00013767
0.000176674
0.000160909
0.000147774
0.00010363
0.000122861
0.000147706
0.000122798
0.000161068
0.000160933
0.00012274
0.000147591
0.000103635
0.000147663
0.000160758
0.000122803
0.000171514
0.000144234
0.00013775
0.000176891
0.000137662
0.000176786
0.000171708
0.0001715
0.000137568
0.000176568
0.000144211
0.000171332
0.000137656
0.00017667
0.000160873
0.000147743
0.000103606
0.000122843
0.000122779
0.000147674
0.000161059
0.000160912
0.000122722
0.000147562
0.000103612
0.000160735
0.000122785
0.000147631
0.000171516
0.00014423
0.000137737
0.000176886
0.000137648
0.00017678
0.000171687
0.000182184
0.000161809
0.000161881
0.000171221
0.000144039
0.000137567
0.000176439
0.000137501
0.000176451
0.000171269
0.000160693
0.000122732
0.000103551
0.000147522
0.000122678
0.000147488
0.000160697
0.000171206
0.000144036
0.000176437
0.000137559
0.000176448
0.000137493
0.000171281
0.000160592
0.000122728
0.000103539
0.000147527
0.000122661
0.000160795
0.000147467
0.000171468
0.000137587
0.000176656
0.000144212
0.000171422
0.000137653
0.000176662
0.000160959
0.000147746
0.000103622
0.000122849
0.000147706
0.000122796
0.000161015
0.000160857
0.000122739
0.000147599
0.000103625
0.000147638
0.000160835
0.000122793
0.000171602
0.000144233
0.000137732
0.000176857
0.000137667
0.00017685
0.000171653
0.000171467
0.000176654
0.000137579
0.000144209
0.000171401
0.00017666
0.000137643
0.000160876
0.000147743
0.000103611
0.000122842
0.000122778
0.000147684
0.00016105
0.000160919
0.00012272
0.000147575
0.000103616
0.000160707
0.000122784
0.000147635
0.000171587
0.000144229
0.000176854
0.000137723
0.000176847
0.000137659
0.000171649
0.000160981
0.00014776
0.000103628
0.000122852
0.000161009
0.000147722
0.000122797
0.000171597
0.000144231
0.000137728
0.000176855
0.00017166
0.000137664
0.000176854
0.000160959
0.000147749
0.000103619
0.000122844
0.000122791
0.000147713
0.000161025
0.000171597
0.000144233
0.000176865
0.000137727
0.000176858
0.000137663
0.000171662
0.000138285
0.000181875
0.000161725
0.000161752
0.000161708
0.000161681
0.000138321
0.0001384
0.000182182
0.000161833
0.000161856
0.000161882
0.000138366
0.000161906
0.000171476
0.000176654
0.000137594
0.00014421
0.00017143
0.000176661
0.000137658
0.000160974
0.000147766
0.000103632
0.000122858
0.000161042
0.000147725
0.000122806
0.000160872
0.000122749
0.000147619
0.000103634
0.00016084
0.000147662
0.000122802
0.000171609
0.000144229
0.000176846
0.000137739
0.000171663
0.000176844
0.000137673
0.000171462
0.000176652
0.000137573
0.000144202
0.000171413
0.000176658
0.000137638
0.000160947
0.000147733
0.000103613
0.000122837
0.000122784
0.0001477
0.000161016
0.000160845
0.000122726
0.000147584
0.000103616
0.000160813
0.000122781
0.000147622
0.000171591
0.000144222
0.000176851
0.000137718
0.000176845
0.000137654
0.000171646
0.000138393
0.000182164
0.000161832
0.000161886
0.000161876
0.000138595
0.000182702
0.000162326
0.00016231
0.000138626
0.000162271
0.000162259
0.000138698
0.000183057
0.000162408
0.000162396
0.000138667
0.000162464
0.000162447
0.000171888
0.00014442
0.000137904
0.000177281
0.000137812
0.000177183
0.000172064
0.000161215
0.000147817
0.000122856
0.000103704
0.000122916
0.000161056
0.000147878
0.000171886
0.000144402
0.000137741
0.000176986
0.000137828
0.000171709
0.000177087
0.00016119
0.00012297
0.000103698
0.000147982
0.000122911
0.00014792
0.000161351
0.000171864
0.000144416
0.000137891
0.000177275
0.000137801
0.000177177
0.000172051
0.000161211
0.000147787
0.000122837
0.00010368
0.000161013
0.000122898
0.000147843
0.000171875
0.000144398
0.000137728
0.000176979
0.00017169
0.000137815
0.000177081
0.000161141
0.000122953
0.000103674
0.000147947
0.000122892
0.000161334
0.000147888
0.000172241
0.000137889
0.000177375
0.000144578
0.000172062
0.00013798
0.000177472
0.000161479
0.000122965
0.000148023
0.000103768
0.000148082
0.000161321
0.000123023
0.000172228
0.000137877
0.000177369
0.000144574
0.000172043
0.000137967
0.000177467
0.000161461
0.000122946
0.000147988
0.000103744
0.00016129
0.000123005
0.00014805
0.000138585
0.000182663
0.000162305
0.000162332
0.000162256
0.000162234
0.000138625
0.000138696
0.000183053
0.000162371
0.000162393
0.000162442
0.000138656
0.000162468
0.000171946
0.00014442
0.000137881
0.00017725
0.000137824
0.000177241
0.000172003
0.000161155
0.000147807
0.000122853
0.000103693
0.000122905
0.000161096
0.000147842
0.000171833
0.000144399
0.000137748
0.000177041
0.00013781
0.000171776
0.000177055
0.000161237
0.000122958
0.00010369
0.00014795
0.000122908
0.000147918
0.000161298
0.000171933
0.000144417
0.000177247
0.000137876
0.000177238
0.000137817
0.000171998
0.000161208
0.000147788
0.000122836
0.000103684
0.000161018
0.000122897
0.000147847
0.000171827
0.000144397
0.000177039
0.000137739
0.000171759
0.000177053
0.000137803
0.000161152
0.000122951
0.00010368
0.00014795
0.000122891
0.000161335
0.000147893
0.000172182
0.000137901
0.000177405
0.000144576
0.000172117
0.000137958
0.00017745
0.000161436
0.000122962
0.00014802
0.000103758
0.000148055
0.00016137
0.000123011
0.000172178
0.000177403
0.000137892
0.000144573
0.000172107
0.000177448
0.000137949
0.000161463
0.000122946
0.000147995
0.000103749
0.000161296
0.000123004
0.000148052
0.00017195
0.000144419
0.00017725
0.000137878
0.000177242
0.00013782
0.000172012
0.00016116
0.000147816
0.000122847
0.000103691
0.000147861
0.000161095
0.0001229
0.000171836
0.000144398
0.000177042
0.000137743
0.000177057
0.000171772
0.000137806
0.000161237
0.000122954
0.000103687
0.000147957
0.000147915
0.000122903
0.0001613
0.000172188
0.000137899
0.000177422
0.000144573
0.000172123
0.000137956
0.00017743
0.000161442
0.000122962
0.000148033
0.000103765
0.000161385
0.000148078
0.000123014
0.000172188
0.000177408
0.000137897
0.000144575
0.000172121
0.000177452
0.000137954
0.000161438
0.000122957
0.000148016
0.000103755
0.000161371
0.000123007
0.000148052
0.000138588
0.000182687
0.000162321
0.000162341
0.00016227
0.000162247
0.000138629
0.0001387
0.000183071
0.000162385
0.000162405
0.000162457
0.00013866
0.000162479
0.000171938
0.000144409
0.000177243
0.00013787
0.000177235
0.000137811
0.000171995
0.00016115
0.000147806
0.00012284
0.000103685
0.00014785
0.000161082
0.000122893
0.000171825
0.000144388
0.000177037
0.000137733
0.000177051
0.000171767
0.000137796
0.000161224
0.000122946
0.000103681
0.000147946
0.000147903
0.000122896
0.000161289
0.000172186
0.000177419
0.000137906
0.000144572
0.000172121
0.000177426
0.000137962
0.000161453
0.000122972
0.000148039
0.000103767
0.000161385
0.00014808
0.00012302
0.000172174
0.000177401
0.000137886
0.000144565
0.000172108
0.000177444
0.000137943
0.000161428
0.00012295
0.000148002
0.000103749
0.00016136
0.000122999
0.000148046
0.000138688
0.000183038
0.000162399
0.000162388
0.000138658
0.000162447
0.000162435
0.000210661
0.000202716
0.000202726
0.000183298
0.000212848
0.00020388
0.00020389
0.000184061
0.000214926
0.000204967
0.000204977
0.000184748
0.000216895
0.000205978
0.000205988
0.000185385
0.000218754
0.000206915
0.000206925
0.000185984
0.000220505
0.000207772
0.000207782
0.000186528
0.000222148
0.000208557
0.000208567
0.000187017
0.000223687
0.000209271
0.000209281
0.000187453
0.000225123
0.000209916
0.000209925
0.000187837
0.00022646
0.000210491
0.000210501
0.000188171
0.000227697
0.000210998
0.000211008
0.000188505
0.000228831
0.000211438
0.000211448
0.000188757
0.000229859
0.000211827
0.000211837
0.000188951
0.000230791
0.000212158
0.000212168
0.000189087
0.000231634
0.000212431
0.000212443
0.000189181
0.000232395
0.000212647
0.000212664
0.000189247
0.000233075
0.000212811
0.000212833
0.000189281
0.000233661
0.000212935
0.00021295
0.000189279
0.000234285
0.000213179
0.000213189
0.00018924
0.00023396
0.000213725
0.000213738
0.000193737
0.000183264
0.000202398
0.000202376
0.000183258
0.00020241
0.000202385
0.000202409
0.000202387
0.000183277
0.00020242
0.000202398
0.000183246
0.000183312
0.00018405
0.000202704
0.000202682
0.00020358
0.000203558
0.000183286
0.000184044
0.000202716
0.000202691
0.000203592
0.000203567
0.000202693
0.000203591
0.000203569
0.000183296
0.000184058
0.000202704
0.000203602
0.00020358
0.000184036
0.000184079
0.000184765
0.000203868
0.000203846
0.000204684
0.000204662
0.00018406
0.000184782
0.00020388
0.000203855
0.000204697
0.000204672
0.000203857
0.000204696
0.000204673
0.000184072
0.000184793
0.000203868
0.000204707
0.000204684
0.000184775
0.000184792
0.000185429
0.000204955
0.000204933
0.000205711
0.000205688
0.000184753
0.00018546
0.000204968
0.000204943
0.000205724
0.000205698
0.000204944
0.000205723
0.000205699
0.000184762
0.000185449
0.000204955
0.000205734
0.000205711
0.000185453
0.000185447
0.000186042
0.000205966
0.000205943
0.000206661
0.000206638
0.000185395
0.000186071
0.000205979
0.000205953
0.000206675
0.000206649
0.000205954
0.000206673
0.000206649
0.00018544
0.00018604
0.000205966
0.000206684
0.000206661
0.000186066
0.000186043
0.0001866
0.000206902
0.00020688
0.00020754
0.000207517
0.000185994
0.000186628
0.000206916
0.00020689
0.000207555
0.000207528
0.000206891
0.000207553
0.000207529
0.00018604
0.000186596
0.000206903
0.000207563
0.000207541
0.000186623
0.000186585
0.000187103
0.00020776
0.000207737
0.000208346
0.000208323
0.000186537
0.000187131
0.000207773
0.000207747
0.000208361
0.000208334
0.000207748
0.00020836
0.000208335
0.000186581
0.000187099
0.000207761
0.000208369
0.000208348
0.000187126
0.000187073
0.000187552
0.000208544
0.000208522
0.000209081
0.000209057
0.000187025
0.00018758
0.000208558
0.000208532
0.000209096
0.000209068
0.000208533
0.000209094
0.00020907
0.000187069
0.000187548
0.000208546
0.000209104
0.000209083
0.000187576
0.000187508
0.000187949
0.000209258
0.000209235
0.000209745
0.000209722
0.000187461
0.000187977
0.000209273
0.000209245
0.00020976
0.000209732
0.000209247
0.000209758
0.000209734
0.000187504
0.000187945
0.00020926
0.000209769
0.000209747
0.000187973
0.000187892
0.000188295
0.000209902
0.000209879
0.000210342
0.000210319
0.000187845
0.000188326
0.000209917
0.000209889
0.000210357
0.000210329
0.000209891
0.000210355
0.00021033
0.000187888
0.000188291
0.000209904
0.000210366
0.000210344
0.000188321
0.000188228
0.00018858
0.000210477
0.000210454
0.000210876
0.000210853
0.000188179
0.000188641
0.000210492
0.000210464
0.000210891
0.000210863
0.000210465
0.000210889
0.000210864
0.000188225
0.000188589
0.000210479
0.0002109
0.000210878
0.000188597
0.000188564
0.000188818
0.000210984
0.000210961
0.000211348
0.000211325
0.000188477
0.00018889
0.000211
0.000210971
0.000211364
0.000211335
0.000210972
0.000211362
0.000211336
0.000188544
0.000188847
0.000210986
0.000211373
0.00021135
0.000188838
0.000188805
0.000189022
0.000211424
0.0002114
0.000211751
0.000211727
0.000188724
0.000189071
0.00021144
0.000211411
0.000211767
0.000211737
0.000211412
0.000211765
0.000211738
0.000188776
0.000189037
0.000211426
0.000211775
0.000211752
0.000189032
0.000188969
0.00018919
0.000211813
0.000211789