/*--------------------------------*- C++ -*----------------------------------*\
| =========                 |                                                 |
| \\      /  F ield         | OpenFOAM: The Open Source CFD Toolbox           |
|  \\    /   O peration     | Version:  2312                                  |
|   \\  /    A nd           | Website:  www.openfoam.com                      |
|    \\/     M anipulation  |                                                 |
\*---------------------------------------------------------------------------*/
FoamFile
{
    version     2.0;
    format      ascii;
    arch        "LSB;label=32;scalar=64";
    class       volScalarField;
    location    "900";
    object      p;
}
// * * * * * * * * * * * * * * * * * * * * * * * * * * * * * * * * * * * * * //

dimensions      [0 2 -2 0 0 0 0];

internalField   nonuniform List<scalar> 
172512
(
0.000710851
0.000710799
0.000710799
0.000712375
0.000718023
0.000719634
0.000719634
0.000718022
0.000719634
0.000719634
0.000719634
0.000719634
0.000718023
0.000719634
0.000719634
0.000718023
0.000712375
0.000710799
0.000710799
0.000712375
0.000710799
0.000710799
0.000710799
0.000712375
0.000710799
0.000735139
0.000735137
0.00073514
0.000719687
0.000719687
0.000719687
0.000719687
0.000735138
0.000737301
0.000735175
0.000699801
0.000712943
0.000712931
0.000699804
0.00071295
0.000699802
0.000699801
0.000712943
0.000712931
0.000699803
0.000710851
0.000710851
0.000710851
0.000699883
0.000712895
0.000710819
0.000701962
0.000712846
0.000699839
0.000701982
0.00071295
0.000699802
0.000699883
0.000710819
0.000712895
0.000701963
0.000712846
0.000701982
0.000699838
0.000712942
0.000712942
0.00070035
0.000699797
0.000699797
0.000735138
0.000735139
0.000735689
0.000735133
0.000735133
0.000717474
0.000730616
0.000717474
0.000730617
0.000730043
0.000717468
0.000717468
0.000730608
0.000730609
0.0007373
0.000735175
0.000730597
0.000717475
0.000730609
0.000717472
0.000730597
0.000717475
0.000730609
0.000717472
0.000730513
0.000728468
0.00071751
0.000719654
0.000730562
0.000728488
0.000717554
0.000730513
0.000728469
0.00071751
0.000719654
0.000730561
0.000728489
0.000717554
0.000717473
0.000730616
0.000730042
0.000717468
0.000717468
0.000730608
0.000717474
0.00073522
0.0007373
0.000735175
0.000737321
0.000735137
0.000735139
0.00073522
0.000737301
0.000737321
0.000735175
0.000730597
0.000717475
0.000730609
0.000717472
0.000730513
0.000728468
0.00071751
0.000719654
0.000730562
0.000728488
0.000717554
0.000730597
0.000717474
0.000730609
0.000717472
0.000730513
0.000728468
0.000719654
0.00071751
0.000728488
0.000730562
0.000717554
0.00071751
0.000719654
0.000717554
0.000717474
0.000717472
0.000719654
0.000717509
0.000717554
0.000717474
0.000717472
0.000735689
0.000735133
0.000735133
0.000735138
0.000717473
0.000730616
0.000730043
0.000717468
0.000717468
0.000730609
0.000730609
0.000717473
0.000730617
0.000735139
0.000730513
0.000728468
0.000719655
0.00071751
0.000728489
0.000730562
0.000717554
0.000730513
0.000728468
0.000719654
0.00071751
0.000728488
0.000730562
0.000717554
0.000730597
0.000717475
0.000730609
0.000717473
0.000730596
0.000717474
0.000730609
0.000717473
0.000730042
0.000717468
0.000717468
0.000730609
0.000717473
0.000717473
0.000730616
0.00071295
0.000699803
0.00071295
0.000699802
0.000712942
0.000712942
0.000700351
0.000699797
0.000699797
0.000695277
0.000695277
0.000694701
0.000695269
0.00069527
0.000699801
0.000712942
0.000712931
0.000699804
0.000699882
0.000712895
0.000710819
0.000701962
0.000712846
0.000699839
0.000701982
0.000699882
0.000712895
0.000710819
0.000701962
0.000712846
0.000699839
0.000701982
0.000695258
0.00069527
0.000695258
0.00069527
0.000695173
0.000693124
0.000695222
0.000693143
0.000695173
0.000693124
0.000695222
0.000693143
0.000712942
0.000712942
0.000700351
0.000699797
0.000699797
0.00071295
0.000699803
0.000695277
0.000694701
0.000695269
0.000695269
0.000695277
0.000699883
0.000712895
0.000710819
0.000701962
0.000712846
0.000699838
0.000701982
0.000699801
0.000712943
0.00071293
0.000699803
0.000699883
0.000710819
0.000712895
0.000701963
0.000712846
0.000701982
0.000699838
0.000695258
0.00069527
0.000695173
0.000693124
0.000695222
0.000693143
0.000695258
0.00069527
0.000695173
0.000693124
0.000693143
0.000695222
0.000699802
0.000712942
0.00071293
0.000699804
0.000699882
0.000710819
0.000712895
0.000701962
0.000712846
0.000701982
0.000699838
0.000699801
0.000712943
0.00071293
0.000699803
0.000695173
0.000693124
0.000695222
0.000693143
0.000695257
0.00069527
0.000695173
0.000693124
0.000693143
0.000695223
0.000695258
0.00069527
0.000712942
0.000712942
0.000700351
0.000699797
0.000699797
0.00071295
0.000699802
0.000695277
0.000694701
0.00069527
0.000695269
0.000695277
0.000699883
0.000710819
0.000712895
0.000701962
0.000712846
0.000701982
0.000699838
0.000699802
0.000712943
0.00071293
0.000699803
0.000699802
0.000712943
0.00071293
0.000699804
0.000695173
0.000693124
0.000693143
0.000695222
0.000695173
0.000693124
0.000693143
0.000695222
0.000695257
0.00069527
0.000695257
0.00069527
0.00071295
0.000699802
0.00071295
0.000699802
0.000694701
0.00069527
0.00069527
0.000695277
0.000695277
0.000739452
0.000735127
0.00073944
0.000739444
0.000735135
0.00073945
0.000739428
0.000735136
0.000735131
0.000739431
0.000739448
0.000735132
0.000739451
0.000735127
0.00073944
0.000739444
0.000735136
0.000739447
0.000704117
0.000704095
0.000699796
0.0006998
0.000704115
0.000704098
0.000699796
0.000708636
0.000712947
0.00070864
0.000712954
0.000708627
0.000708632
0.000708637
0.000712951
0.000712934
0.000712953
0.000708632
0.000708636
0.000704119
0.000699791
0.000704107
0.000704111
0.0006998
0.000708639
0.000704114
0.000704117
0.000704095
0.0006998
0.000699795
0.000704098
0.000704115
0.000699795
0.000708636
0.000712947
0.00070864
0.000712954
0.000708627
0.000708632
0.000708637
0.000712934
0.000712951
0.000712953
0.000708636
0.000708632
0.000704119
0.000699791
0.000704107
0.000704111
0.0006998
0.000708639
0.000704114
0.000704121
0.000699798
0.000699798
0.000704124
0.000704124
0.000699788
0.000708656
0.000712885
0.000712945
0.000708633
0.000712919
0.000708686
0.000708641
0.000708656
0.000712885
0.000712946
0.000708633
0.000712919
0.000708686
0.000708641
0.000708625
0.00071296
0.00071296
0.000712956
0.000708634
0.000708634
0.000704083
0.000699805
0.000704107
0.000699849
0.000704049
0.00070411
0.00069982
0.000704083
0.000699805
0.000704107
0.000699849
0.000704049
0.00070411
0.00069982
0.000739447
0.000739447
0.000739454
0.000735134
0.000735134
0.000739457
0.000739457
0.000735125
0.000739416
0.000735141
0.000739439
0.000735186
0.000739443
0.000735156
0.000739382
0.000739416
0.000735141
0.00073944
0.000735186
0.000739443
0.000735156
0.000739383
0.000721784
0.000726307
0.000721784
0.000726307
0.000726293
0.000730626
0.000730626
0.000730623
0.000726302
0.000726302
0.000721752
0.000717521
0.000721776
0.000717476
0.000721779
0.000721719
0.000717491
0.000721752
0.000717521
0.000721776
0.000717476
0.000721779
0.000721719
0.000717491
0.000726325
0.000730612
0.000730551
0.000726301
0.000730585
0.000726309
0.000726354
0.000726324
0.000730612
0.000730552
0.000726301
0.000730585
0.000726309
0.000726354
0.00072179
0.000717469
0.000717469
0.000721794
0.000721794
0.00071746
0.0007263
0.000730617
0.0007306
0.000726306
0.000730619
0.000726299
0.000726304
0.000721788
0.000721777
0.000717462
0.000717471
0.000721781
0.000726304
0.000730613
0.000726308
0.000730621
0.000726295
0.000721787
0.000721765
0.000717466
0.000717471
0.000717467
0.000721785
0.000721768
0.0007263
0.000730617
0.0007306
0.000726305
0.000730619
0.0007263
0.000726304
0.000721788
0.000721777
0.000717462
0.000721781
0.000717471
0.000726304
0.000730613
0.000726308
0.000730621
0.000726295
0.000721787
0.000721765
0.000717467
0.000717471
0.000721785
0.000721768
0.000717467
0.000721784
0.000726306
0.000721752
0.000717521
0.000721776
0.000717476
0.000721719
0.000721779
0.000717491
0.000721752
0.000717521
0.000721776
0.000717476
0.000721779
0.000721718
0.000717491
0.000730551
0.000726301
0.000726354
0.00072179
0.000717469
0.000717469
0.000721793
0.000721794
0.00071746
0.000721784
0.00073945
0.000739428
0.000735131
0.000735136
0.000739448
0.000739431
0.000735131
0.000739452
0.000735126
0.00073944
0.000739444
0.000735135
0.0007263
0.0007306
0.000730617
0.000726306
0.000730619
0.000726304
0.0007263
0.000721788
0.000721777
0.000717462
0.000717471
0.000721781
0.000726304
0.000730613
0.000726308
0.000730621
0.000726295
0.000721787
0.000721765
0.000717471
0.000717466
0.000717467
0.000721768
0.000721785
0.0007263
0.000730617
0.0007306
0.000726305
0.000730619
0.0007263
0.000726304
0.000721788
0.000721777
0.000717461
0.000721781
0.00071747
0.000726304
0.000730613
0.000726308
0.000730621
0.000726295
0.000721787
0.000721765
0.000717466
0.000717471
0.000721785
0.000721768
0.000717466
0.000721788
0.000721776
0.000717462
0.00072178
0.00071747
0.000721786
0.000721764
0.000717472
0.000717466
0.000721766
0.000721784
0.000717466
0.000721788
0.000721776
0.000717461
0.000721781
0.00071747
0.000721787
0.000721764
0.000717466
0.000717471
0.000721784
0.000721767
0.000717466
0.000739453
0.000735134
0.000735134
0.000739457
0.000739457
0.000735124
0.000739416
0.000735141
0.000739439
0.000735186
0.000739443
0.000739383
0.000735156
0.000739416
0.000735141
0.00073944
0.000735186
0.000739383
0.000739443
0.000735156
0.000739447
0.000721784
0.000726307
0.000726293
0.000730626
0.000730626
0.000730623
0.000726302
0.000726302
0.000721753
0.00071752
0.000721776
0.000717476
0.000721719
0.00072178
0.000717491
0.000721753
0.000717521
0.000721776
0.000717476
0.00072178
0.000721719
0.000717491
0.000726324
0.000730612
0.000730552
0.000726301
0.000726354
0.000730585
0.000726309
0.000726324
0.000730612
0.000730552
0.000726301
0.000730586
0.000726309
0.000726354
0.00072179
0.000717469
0.000717469
0.000721794
0.000721794
0.00071746
0.000721784
0.000726307
0.00073944
0.0007263
0.0007306
0.000730617
0.000726306
0.000730619
0.000726304
0.0007263
0.000721788
0.000721777
0.000717462
0.000721781
0.000717471
0.000726304
0.000730614
0.000726308
0.000730621
0.000726295
0.000721787
0.000721764
0.000717471
0.000717467
0.000721768
0.000721785
0.000717467
0.0007263
0.0007306
0.000730617
0.000726306
0.000730619
0.000726305
0.0007263
0.000721788
0.000721777
0.000717462
0.000721781
0.000717471
0.000726304
0.000730614
0.000726308
0.000730621
0.000726295
0.000721787
0.000721764
0.000717471
0.000717467
0.000721767
0.000721785
0.000717467
0.000726293
0.000726302
0.000726302
0.000721752
0.00071752
0.000721776
0.000717476
0.000717491
0.000721719
0.000721779
0.000721753
0.000717521
0.000721776
0.000717476
0.000717491
0.000721719
0.00072178
0.000726324
0.000726301
0.000726354
0.000726309
0.000726324
0.000730551
0.000726301
0.000726354
0.000726309
0.00072179
0.000717469
0.000717469
0.000717459
0.000721794
0.000721794
0.000721784
0.000726307
0.000721784
0.000726307
0.000708639
0.000704114
0.000708639
0.000704114
0.000704121
0.000699798
0.000699798
0.000704124
0.000704124
0.000699788
0.000708656
0.000712885
0.000712945
0.000708633
0.000712918
0.000708641
0.000708686
0.000708656
0.000712885
0.000712945
0.000708633
0.000712918
0.000708641
0.000708686
0.000708625
0.00071296
0.00071296
0.000712956
0.000708634
0.000708634
0.000704083
0.000699805
0.000704106
0.000699849
0.00070411
0.00069982
0.000704049
0.000704083
0.000699805
0.000704107
0.000699849
0.00070411
0.00069982
0.000704049
0.000690965
0.000690965
0.000690951
0.000695287
0.000695287
0.000695284
0.00069096
0.00069096
0.000690982
0.000695273
0.000695212
0.000690959
0.000695246
0.000690967
0.000691011
0.000690982
0.000695273
0.000695212
0.000690959
0.000695246
0.000690967
0.000691011
0.000704117
0.000704095
0.000699795
0.0006998
0.000704115
0.000704098
0.000699796
0.000708636
0.000712947
0.00070864
0.000712954
0.000708627
0.000708632
0.000708637
0.000712951
0.000712934
0.000708632
0.000712953
0.000708636
0.000704119
0.000699791
0.000704107
0.000704111
0.0006998
0.000690958
0.000695278
0.000695261
0.000690963
0.00069528
0.000690958
0.000690962
0.000690962
0.000695274
0.000690966
0.000695282
0.000690953
0.000690958
0.000695278
0.000695261
0.000690963
0.00069528
0.000690958
0.000690962
0.000690962
0.000695274
0.000690966
0.000695282
0.000690953
0.000704121
0.000699798
0.000699798
0.000704124
0.000704124
0.000699789
0.000708656
0.000712885
0.000712945
0.000708633
0.000708641
0.000712919
0.000708686
0.000708656
0.000712884
0.000712945
0.000708633
0.000708686
0.000712918
0.000708641
0.000708625
0.000712959
0.000712959
0.000708634
0.000712956
0.000708634
0.000704083
0.000699805
0.000704106
0.000699849
0.00070411
0.000704049
0.00069982
0.000704083
0.000699805
0.000704107
0.00069985
0.000704049
0.00070411
0.00069982
0.000708639
0.000704114
0.000690964
0.000690951
0.000695287
0.000695287
0.000695284
0.00069096
0.00069096
0.000690982
0.000695273
0.000695212
0.000690959
0.000691011
0.000695246
0.000690967
0.000690982
0.000695273
0.000695212
0.000690959
0.000695245
0.000690967
0.000691011
0.000690965
0.000704117
0.000704095
0.000699795
0.0006998
0.000704115
0.000704098
0.000699795
0.000708636
0.000712947
0.00070864
0.000712954
0.000708627
0.000708632
0.000708637
0.000712951
0.000712934
0.000708632
0.000712953
0.000708636
0.000704119
0.000699791
0.000704107
0.000704111
0.000699799
0.000690958
0.000695261
0.000695278
0.000690963
0.00069528
0.000690962
0.000690958
0.000690962
0.000695274
0.000690966
0.000695282
0.000690953
0.000690958
0.000695278
0.000695261
0.000690963
0.00069528
0.000690958
0.000690962
0.000690962
0.000695274
0.000690965
0.000695282
0.000690953
0.000704117
0.000704094
0.000699801
0.000699795
0.000704097
0.000704115
0.000699796
0.000708636
0.000712946
0.00070864
0.000708628
0.000712954
0.000708632
0.000708638
0.000712932
0.000712951
0.000708637
0.000712952
0.000708632
0.000704119
0.000699791
0.000704107
0.000704111
0.000699799
0.000704117
0.000704095
0.000699795
0.0006998
0.000704115
0.000704098
0.000699796
0.000708636
0.000712947
0.00070864
0.000712954
0.000708627
0.000708632
0.000708637
0.000712951
0.000712933
0.000712953
0.000708632
0.000708636
0.000704119
0.000699791
0.000704107
0.000704111
0.0006998
0.000690958
0.00069526
0.000695278
0.000690964
0.00069528
0.000690963
0.000690958
0.000690962
0.000695274
0.000690966
0.000695282
0.000690953
0.000690958
0.000695278
0.000695261
0.000690963
0.00069528
0.000690958
0.000690962
0.000690962
0.000695274
0.000690966
0.000695282
0.000690953
0.000704121
0.000699798
0.000699798
0.000704124
0.000704124
0.000699788
0.000708656
0.000712886
0.000712946
0.000708633
0.000708641
0.000712919
0.000708685
0.000708656
0.000712885
0.000712946
0.000708633
0.000708686
0.000712919
0.000708641
0.000708625
0.00071296
0.00071296
0.000708634
0.000712956
0.000708634
0.000704083
0.000699805
0.000704107
0.000699849
0.00070411
0.00070405
0.000699819
0.000704083
0.000699805
0.000704107
0.000699849
0.000704049
0.00070411
0.00069982
0.000708639
0.000704114
0.000690964
0.00069095
0.000695287
0.000695287
0.000695284
0.00069096
0.00069096
0.000690981
0.000695273
0.000695212
0.000690959
0.000691011
0.000695246
0.000690967
0.000690982
0.000695273
0.000695212
0.000690959
0.000695246
0.000690967
0.000691011
0.000690964
0.000704117
0.000704095
0.0006998
0.000699795
0.000704098
0.000704115
0.000699796
0.000708636
0.000712947
0.00070864
0.000708627
0.000712954
0.000708632
0.000708638
0.000712934
0.000712951
0.000708636
0.000712953
0.000708632
0.000704119
0.000699791
0.000704107
0.000704111
0.0006998
0.000704117
0.000704094
0.0006998
0.000699796
0.000704098
0.000704115
0.000699796
0.000708636
0.000712947
0.00070864
0.000712954
0.000708627
0.000708632
0.000708638
0.000712933
0.000712951
0.000712953
0.000708636
0.000708632
0.000704119
0.000699791
0.000704107
0.000704111
0.0006998
0.000690958
0.000695261
0.000695278
0.000690963
0.00069528
0.000690962
0.000690958
0.000690962
0.000695274
0.000690965
0.000695282
0.000690953
0.000690958
0.000695261
0.000695278
0.000690964
0.00069528
0.000690962
0.000690958
0.000690962
0.000695274
0.000690966
0.000695282
0.000690953
0.000708639
0.000704114
0.000708639
0.000704114
0.00069095
0.000695287
0.000695287
0.000695284
0.00069096
0.00069096
0.000690982
0.000695273
0.000695212
0.000690959
0.000695246
0.000691011
0.000690967
0.000690981
0.000695273
0.000695212
0.000690959
0.000695246
0.000691011
0.000690967
0.000690965
0.000690965
0.000737354
0.000737388
0.000710883
0.000710883
0.000702014
0.000702045
0.000702045
0.00070209
0.000710928
0.000708757
0.000712654
0.000712655
0.000709187
0.000712817
0.00070893
0.000708929
0.00072165
0.00072121
0.000717765
0.000717764
0.000721488
0.000721489
0.000717592
0.00072165
0.000721208
0.000717766
0.000717764
0.00072149
0.000721487
0.000717592
0.000721651
0.00072121
0.000717765
0.000717765
0.000721488
0.000721489
0.000717592
0.000721651
0.00072121
0.000717765
0.000717765
0.000717592
0.000721489
0.000721489
0.000708757
0.000712655
0.000712655
0.000709188
0.000712816
0.00070893
0.000708929
0.000708757
0.000712654
0.000712654
0.000709188
0.00070893
0.000712817
0.00070893
0.000708757
0.000712654
0.000712655
0.000709188
0.00070893
0.000712817
0.00070893
0.000737354
0.000737387
0.000728521
0.000719719
0.000719719
0.000728554
0.000728554
0.000728601
0.000719765
0.000728521
0.000719719
0.00071972
0.000728555
0.000728552
0.000728601
0.000719765
0.000728522
0.000719719
0.00071972
0.000728554
0.000728555
0.000728601
0.000719765
0.000728521
0.000719719
0.000719719
0.000728553
0.000728554
0.000728602
0.000719765
0.000739393
0.000735336
0.000739244
0.000710883
0.000710883
0.000702013
0.000702045
0.000702045
0.00070209
0.000710928
0.000710883
0.000710883
0.000702013
0.000702045
0.000702045
0.00070209
0.000710928
0.000710883
0.000710883
0.000702013
0.000702045
0.000702045
0.00070209
0.000710928
0.000693174
0.000693205
0.000693206
0.00069325
0.000693174
0.000693205
0.000693205
0.00069325
0.000693174
0.000693206
0.000693205
0.00069325
0.000693174
0.000693206
0.000693205
0.00069325
0.000703778
0.00070401
0.00069988
0.000700118
0.000704015
0.00070378
0.000700123
0.000708921
0.000712746
0.000712865
0.000708675
0.000712642
0.000708836
0.000708701
0.000708959
0.000708719
0.00071285
0.000712616
0.000712614
0.000708716
0.000708954
0.000703806
0.000699865
0.00070406
0.000699999
0.00070391
0.000704029
0.000700084
0.000703778
0.00070401
0.000700118
0.000699879
0.00070378
0.000704015
0.000700123
0.00070892
0.000712746
0.000712865
0.000708675
0.000712642
0.000708835
0.000708701
0.00070896
0.000708719
0.000712616
0.000712851
0.000712614
0.000708955
0.000708716
0.000703806
0.000699864
0.00070406
0.000699999
0.000703911
0.00070403
0.000700084
0.000703981
0.000703539
0.000700093
0.000700093
0.000703818
0.000703819
0.00069992
0.000739314
0.000738874
0.000735431
0.00073543
0.000735258
0.000739153
0.000739153
0.000726426
0.000726857
0.000730322
0.000730322
0.000730483
0.000726599
0.000726598
0.000739141
0.000735202
0.000739393
0.000735336
0.000739363
0.000739244
0.000735422
0.000726629
0.000730517
0.000730284
0.000726388
0.000730282
0.000726385
0.000726624
0.000721476
0.00071767
0.000721729
0.000717536
0.000721581
0.000721699
0.000717756
0.000726589
0.000730532
0.000730413
0.000726343
0.000726504
0.000730309
0.000726369
0.000721449
0.000721681
0.000717551
0.00071779
0.000721685
0.000721451
0.000717795
0.000726629
0.000730517
0.000730284
0.000726388
0.000730281
0.000726385
0.000726624
0.000721476
0.00071767
0.000721729
0.000717536
0.000721699
0.00072158
0.000717756
0.000726589
0.000730532
0.000730413
0.000726343
0.000730309
0.000726369
0.000726504
0.000721448
0.000721681
0.000717551
0.00071779
0.000721685
0.00072145
0.000717795
0.000726858
0.000730319
0.000726599
0.000739113
0.000739344
0.000735217
0.000735456
0.000739348
0.000739115
0.000735461
0.00073914
0.000735202
0.000739393
0.000735336
0.000739363
0.000739244
0.000735422
0.000739113
0.000739344
0.000735456
0.000735216
0.000739115
0.000739348
0.000735461
0.000739141
0.000735201
0.000739392
0.000735336
0.000739363
0.000735422
0.000739245
0.000726629
0.000730517
0.000730284
0.000726388
0.000730281
0.000726385
0.000726624
0.000721476
0.000717671
0.000721729
0.000717536
0.00072158
0.000721699
0.000717756
0.00072659
0.000730532
0.000730413
0.000726343
0.000726504
0.000730309
0.000726369
0.000721448
0.00072168
0.000717551
0.00071779
0.000721685
0.000721451
0.000717795
0.000726629
0.000730284
0.000730518
0.000726388
0.000730282
0.000726624
0.000726384
0.000721476
0.00071767
0.000721729
0.000717536
0.0007217
0.000721581
0.000717755
0.000726589
0.000730532
0.000730413
0.000726343
0.000730309
0.000726369
0.000726504
0.000721449
0.00072168
0.00071779
0.000717551
0.000721451
0.000721685
0.000717795
0.000721476
0.00071767
0.000721729
0.000717536
0.000717755
0.000721579
0.000721699
0.000721448
0.00072168
0.000717551
0.000717789
0.000717794
0.000721684
0.00072145
0.000721476
0.00071767
0.000721729
0.000717536
0.000721699
0.00072158
0.000717755
0.000721448
0.00072168
0.000717789
0.000717551
0.00072145
0.000721684
0.000717794
0.000739314
0.000738874
0.000735431
0.000735431
0.000739153
0.000739152
0.000735257
0.000726426
0.000726857
0.000730321
0.000730321
0.000726599
0.000730484
0.000726598
0.000726629
0.000730284
0.000730517
0.000726388
0.000730282
0.000726624
0.000726385
0.000721477
0.000717671
0.000721729
0.000717536
0.000717756
0.000721581
0.0007217
0.000726589
0.000730532
0.000730414
0.000726343
0.00073031
0.000726504
0.000726369
0.000721449
0.00072168
0.00071779
0.000717551
0.000717795
0.000721451
0.000721685
0.000726629
0.000730284
0.000730517
0.000726388
0.000730281
0.000726624
0.000726385
0.000721476
0.000717671
0.000721729
0.000717536
0.0007217
0.000721581
0.000717756
0.000726589
0.000730532
0.000730413
0.000726343
0.000730309
0.000726369
0.000726504
0.000721448
0.00072168
0.00071779
0.000717551
0.000721451
0.000721685
0.000717795
0.000726426
0.000726856
0.000730318
0.000726601
0.000726597
0.000703981
0.000703539
0.000700093
0.000700092
0.00069992
0.000703818
0.000703819
0.000691082
0.000691512
0.000694981
0.000694982
0.000695143
0.000691255
0.000691254
0.000703778
0.00070401
0.00069988
0.000700118
0.000704015
0.00070378
0.000700123
0.000708921
0.000712746
0.000712865
0.000708675
0.000708701
0.000712642
0.000708835
0.00070896
0.000708719
0.000712851
0.000712616
0.000708716
0.000712614
0.000708955
0.000703806
0.000699865
0.00070406
0.000699999
0.00070403
0.000703911
0.000700084
0.000703778
0.00070401
0.000699879
0.000700118
0.000704015
0.00070378
0.000700123
0.000708921
0.000712746
0.000712865
0.000708675
0.000712641
0.000708701
0.000708836
0.00070896
0.000708719
0.00071285
0.000712616
0.000712614
0.000708716
0.000708955
0.000703805
0.000699865
0.000704059
0.000699999
0.000704029
0.000700084
0.00070391
0.000691285
0.000695177
0.000694942
0.000691044
0.000694941
0.000691041
0.000691279
0.000691245
0.000695192
0.000695073
0.000691
0.000691161
0.000694968
0.000691026
0.000691285
0.000695178
0.000694942
0.000691044
0.00069494
0.000691041
0.000691279
0.000691246
0.000695192
0.000695072
0.000691001
0.000694968
0.000691026
0.000691161
0.00070398
0.000703539
0.000700093
0.000700093
0.000703819
0.000703818
0.000699921
0.000691082
0.000691512
0.00069498
0.000694981
0.000691255
0.000695143
0.000691255
0.000703778
0.00070401
0.00069988
0.000700118
0.000704015
0.00070378
0.000700123
0.000708921
0.000712746
0.000712865
0.000708675
0.000708701
0.000712642
0.000708836
0.00070896
0.000708719
0.00071285
0.000712616
0.000708716
0.000712614
0.000708955
0.000703806
0.000699865
0.00070406
0.000699999
0.000704029
0.00070391
0.000700084
0.000703778
0.00070401
0.000700118
0.000699879
0.00070378
0.000704015
0.000700123
0.00070892
0.000712747
0.000712865
0.000708675
0.000712642
0.000708701
0.000708835
0.00070896
0.000708719
0.000712616
0.000712851
0.000712614
0.000708955
0.000708716
0.000703806
0.000699864
0.00070406
0.000699998
0.00070403
0.000700084
0.000703911
0.000691285
0.000695177
0.000694942
0.000691044
0.00069494
0.000691041
0.000691279
0.000691246
0.000695192
0.000695073
0.000691
0.000691161
0.000694968
0.000691026
0.000691285
0.000694942
0.000695178
0.000691044
0.000694941
0.000691279
0.000691041
0.000691245
0.000695193
0.000695074
0.000691
0.000694969
0.000691026
0.00069116
0.000703779
0.00070401
0.000700118
0.00069988
0.00070378
0.000704015
0.000700123
0.00070892
0.000712747
0.000712865
0.000708675
0.000708835
0.000712642
0.000708701
0.000708959
0.000708719
0.000712616
0.00071285
0.000708954
0.000712615
0.000708716
0.000703806
0.000699865
0.00070406
0.000699999
0.000703911
0.00070403
0.000700084
0.000691285
0.000695177
0.000694943
0.000691044
0.000694941
0.000691042
0.000691279
0.000691246
0.000695192
0.000695073
0.000691001
0.000694968
0.000691161
0.000691027
0.000691284
0.000694943
0.000695178
0.000691044
0.000694941
0.000691279
0.000691041
0.000691245
0.000695192
0.000695074
0.000691
0.000694969
0.000691026
0.00069116
0.000703981
0.000703539
0.000700093
0.000700093
0.000703819
0.000703818
0.00069992
0.000691082
0.000691512
0.000694981
0.000694981
0.000691255
0.000695144
0.000691254
0.000703778
0.00070401
0.000700118
0.00069988
0.00070378
0.000704015
0.000700123
0.00070892
0.000712746
0.000712865
0.000708675
0.000708836
0.000712642
0.000708701
0.00070896
0.000708719
0.000712616
0.00071285
0.000708955
0.000712614
0.000708716
0.000703806
0.000699864
0.00070406
0.000699999
0.000703911
0.00070403
0.000700084
0.000691285
0.000694943
0.000695178
0.000691044
0.000694941
0.000691279
0.000691041
0.000691245
0.000695193
0.000695073
0.000691
0.000694969
0.000691161
0.000691026
0.000691285
0.000694943
0.000695177
0.000691044
0.000694941
0.000691279
0.000691041
0.000691246
0.000695192
0.000695073
0.000691
0.000694969
0.000691026
0.000691161
0.000691082
0.000691512
0.000694981
0.000694981
0.000695144
0.000691255
0.000691254
0.000675491
0.000675442
0.000675442
0.000677021
0.000640104
0.000640058
0.000640058
0.00064164
0.000604689
0.000604645
0.000604645
0.000606229
0.000569243
0.000569202
0.000569202
0.000570789
0.000533765
0.000533727
0.000533727
0.000535316
0.000498255
0.000498219
0.000498219
0.000499811
0.000462711
0.000462677
0.000462677
0.000464272
0.000427132
0.000427101
0.000427101
0.000428699
0.000391519
0.00039149
0.00039149
0.000393091
0.00035587
0.000355843
0.000355843
0.000357446
0.000320185
0.00032016
0.00032016
0.000321766
0.000284463
0.00028444
0.00028444
0.000286049
0.000248706
0.000248685
0.000248685
0.000250296
0.000212912
0.000212893
0.000212893
0.000214507
0.000177082
0.000177064
0.000177064
0.00017868
0.000141214
0.000141197
0.000141197
0.000142817
0.000105304
0.000105289
0.000105289
0.000106912
6.93651e-05
6.93357e-05
6.93351e-05
7.09588e-05
3.40293e-05
3.34896e-05
3.34863e-05
3.49304e-05
1.09744e-05
7.25599e-06
7.25348e-06
5.71958e-06
0.000682672
0.000684284
0.000684284
0.000682672
0.000684284
0.000684284
0.000684284
0.000684284
0.000682672
0.000684284
0.000684284
0.000682672
0.000677021
0.000647295
0.000675442
0.000675442
0.000648907
0.000648907
0.00067702
0.000647295
0.000675442
0.000675442
0.000648907
0.000648907
0.000675442
0.000648907
0.000648907
0.000677021
0.000647294
0.000675442
0.000648907
0.000648907
0.000647294
0.000641639
0.000611888
0.000640058
0.000640058
0.000613501
0.000613501
0.000641639
0.000611888
0.000640058
0.000640058
0.000613501
0.000613501
0.000640058
0.000613501
0.000613501
0.000641639
0.000611888
0.000640058
0.000613501
0.000613501
0.000611888
0.000606229
0.000576452
0.000604645
0.000604645
0.000578066
0.000578066
0.000606229
0.000576452
0.000604645
0.000604645
0.000578066
0.000578066
0.000604645
0.000578066
0.000578066
0.000606229
0.000576452
0.000604645
0.000578066
0.000578066
0.000576452
0.000570788
0.000540984
0.000569202
0.000569202
0.000542599
0.000542599
0.000570788
0.000540984
0.000569202
0.000569202
0.000542599
0.000542599
0.000569202
0.000542599
0.000542599
0.000570788
0.000540984
0.000569202
0.000542599
0.000542599
0.000540984
0.000535316
0.000505484
0.000533727
0.000533727
0.000507099
0.000507099
0.000535316
0.000505484
0.000533727
0.000533727
0.000507099
0.000507099
0.000533727
0.000507099
0.000507099
0.000535316
0.000505484
0.000533727
0.000507099
0.000507099
0.000505483
0.000499811
0.00046995
0.000498219
0.000498219
0.000471566
0.000471566
0.000499811
0.00046995
0.000498219
0.000498219
0.000471566
0.000471566
0.000498219
0.000471566
0.000471566
0.000499811
0.000469949
0.000498219
0.000471566
0.000471566
0.000469949
0.000464272
0.000434381
0.000462677
0.000462677
0.000435998
0.000435998
0.000464272
0.000434381
0.000462677
0.000462677
0.000435998
0.000435998
0.000462677
0.000435998
0.000435998
0.000464272
0.000434381
0.000462677
0.000435998
0.000435998
0.000434381
0.000428699
0.000398778
0.000427101
0.000427101
0.000400396
0.000400396
0.000428698
0.000398778
0.000427101
0.000427101
0.000400396
0.000400396
0.000427101
0.000400396
0.000400396
0.000428698
0.000398778
0.000427101
0.000400396
0.000400396
0.000398778
0.00039309
0.000363139
0.00039149
0.00039149
0.000364757
0.000364757
0.00039309
0.000363139
0.00039149
0.00039149
0.000364757
0.000364758
0.00039149
0.000364757
0.000364757
0.00039309
0.000363139
0.00039149
0.000364758
0.000364758
0.000363139
0.000357446
0.000327464
0.000355843
0.000355843
0.000329083
0.000329083
0.000357446
0.000327464
0.000355843
0.000355843
0.000329083
0.000329083
0.000355843
0.000329083
0.000329083
0.000357446
0.000327464
0.000355843
0.000329083
0.000329083
0.000327463
0.000321765
0.000291752
0.00032016
0.00032016
0.000293373
0.000293373
0.000321765
0.000291753
0.00032016
0.00032016
0.000293373
0.000293373
0.00032016
0.000293373
0.000293373
0.000321766
0.000291752
0.00032016
0.000293373
0.000293373
0.000291752
0.000286049
0.000256005
0.00028444
0.00028444
0.000257626
0.000257626
0.000286049
0.000256005
0.00028444
0.00028444
0.000257626
0.000257626
0.00028444
0.000257626
0.000257626
0.000286049
0.000256005
0.00028444
0.000257626
0.000257626
0.000256005
0.000250296
0.000220222
0.000248685
0.000248685
0.000221843
0.000221843
0.000250296
0.000220222
0.000248685
0.000248685
0.000221843