/*--------------------------------*- C++ -*----------------------------------*\
| =========                 |                                                 |
| \\      /  F ield         | OpenFOAM: The Open Source CFD Toolbox           |
|  \\    /   O peration     | Version:                                        |
|   \\  /    A nd           | Website:  www.openfoam.com                      |
|    \\/     M anipulation  |                                                 |
\*---------------------------------------------------------------------------*/
FoamFile
{
    version     2.0;
    format      ascii;
    class       volScalarField;
    location    "100.5";
    object      p;
}
// * * * * * * * * * * * * * * * * * * * * * * * * * * * * * * * * * * * * * //

dimensions      [0 2 -2 0 0 0 0];


internalField   nonuniform List<scalar> 
247096
(
8.63994e-07
8.63956e-07
8.63959e-07
8.63931e-07
8.63911e-07
8.63936e-07
8.63959e-07
8.63947e-07
8.63956e-07
8.6394e-07
8.63797e-07
8.63658e-07
8.63609e-07
8.63672e-07
8.63817e-07
8.6395e-07
8.63959e-07
8.63797e-07
8.63539e-07
8.63345e-07
8.63281e-07
8.63363e-07
8.6357e-07
8.63827e-07
8.6396e-07
8.63931e-07
8.63658e-07
8.63345e-07
8.63124e-07
8.63052e-07
8.63144e-07
8.63381e-07
8.63698e-07
8.63951e-07
8.63994e-07
8.63911e-07
8.63609e-07
8.63281e-07
8.63052e-07
8.62979e-07
8.63073e-07
8.63318e-07
8.63651e-07
8.63936e-07
8.63936e-07
8.63672e-07
8.63363e-07
8.63144e-07
8.63073e-07
8.63164e-07
8.63398e-07
8.63711e-07
8.63954e-07
8.63959e-07
8.63817e-07
8.6357e-07
8.63381e-07
8.63318e-07
8.63398e-07
8.636e-07
8.63845e-07
8.63957e-07
8.63947e-07
8.6395e-07
8.63827e-07
8.63698e-07
8.63651e-07
8.63711e-07
8.63845e-07
8.63958e-07
8.6396e-07
8.63951e-07
8.63936e-07
8.63953e-07
8.63957e-07
8.52016e-07
8.52e-07
8.51764e-07
8.51187e-07
8.51146e-07
8.51122e-07
8.51185e-07
8.51857e-07
8.51845e-07
8.51764e-07
8.50871e-07
8.49767e-07
8.49769e-07
8.49769e-07
8.49767e-07
8.51039e-07
8.51382e-07
8.51187e-07
8.49767e-07
8.49767e-07
8.49778e-07
8.49778e-07
8.49767e-07
8.49767e-07
8.51487e-07
8.52079e-07
8.52016e-07
8.51146e-07
8.49769e-07
8.49778e-07
8.49786e-07
8.49786e-07
8.49778e-07
8.49769e-07
8.51519e-07
8.52039e-07
8.52e-07
8.51122e-07
8.49769e-07
8.49778e-07
8.49786e-07
8.49786e-07
8.49778e-07
8.49769e-07
8.51502e-07
8.51518e-07
8.51185e-07
8.49767e-07
8.49767e-07
8.49778e-07
8.49778e-07
8.49767e-07
8.49767e-07
8.51506e-07
8.52156e-07
8.51857e-07
8.51039e-07
8.49767e-07
8.49769e-07
8.49769e-07
8.49767e-07
8.51326e-07
8.51468e-07
8.52025e-07
8.51846e-07
8.51382e-07
8.51487e-07
8.51519e-07
8.51502e-07
8.51506e-07
8.51468e-07
8.52006e-07
8.52079e-07
8.5204e-07
8.51518e-07
8.52156e-07
8.52025e-07
8.42873e-07
8.42857e-07
8.42706e-07
8.42082e-07
8.42021e-07
8.41996e-07
8.42078e-07
8.42799e-07
8.4281e-07
8.42706e-07
8.41757e-07
8.40628e-07
8.4063e-07
8.4063e-07
8.40628e-07
8.4191e-07
8.42283e-07
8.42082e-07
8.40628e-07
8.40633e-07
8.40639e-07
8.40639e-07
8.40633e-07
8.40628e-07
8.42366e-07
8.42991e-07
8.42873e-07
8.42021e-07
8.4063e-07
8.40639e-07
8.40644e-07
8.40644e-07
8.40639e-07
8.4063e-07
8.42382e-07
8.42902e-07
8.42857e-07
8.41996e-07
8.4063e-07
8.40639e-07
8.40644e-07
8.40644e-07
8.40639e-07
8.4063e-07
8.42359e-07
8.42407e-07
8.42078e-07
8.40628e-07
8.40633e-07
8.40639e-07
8.40639e-07
8.40633e-07
8.40628e-07
8.4238e-07
8.43039e-07
8.42799e-07
8.4191e-07
8.40628e-07
8.4063e-07
8.4063e-07
8.40628e-07
8.42183e-07
8.42366e-07
8.42962e-07
8.4281e-07
8.42283e-07
8.42366e-07
8.42382e-07
8.42359e-07
8.4238e-07
8.42366e-07
8.42967e-07
8.42991e-07
8.42902e-07
8.42407e-07
8.43039e-07
8.42962e-07
8.33775e-07
8.33759e-07
8.33607e-07
8.32981e-07
8.32919e-07
8.32894e-07
8.32977e-07
8.337e-07
8.33712e-07
8.33607e-07
8.32655e-07
8.31518e-07
8.3152e-07
8.3152e-07
8.31518e-07
8.32807e-07
8.33182e-07
8.32981e-07
8.31518e-07
8.31522e-07
8.31524e-07
8.31524e-07
8.31522e-07
8.31518e-07
8.33263e-07
8.33893e-07
8.33775e-07
8.32919e-07
8.3152e-07
8.31524e-07
8.31526e-07
8.31526e-07
8.31524e-07
8.3152e-07
8.33277e-07
8.33804e-07
8.33759e-07
8.32894e-07
8.3152e-07
8.31524e-07
8.31526e-07
8.31526e-07
8.31524e-07
8.3152e-07
8.33255e-07
8.33307e-07
8.32977e-07
8.31518e-07
8.31522e-07
8.31524e-07
8.31524e-07
8.31522e-07
8.31518e-07
8.33277e-07
8.33941e-07
8.33701e-07
8.32807e-07
8.31518e-07
8.3152e-07
8.3152e-07
8.31518e-07
8.33079e-07
8.33265e-07
8.33864e-07
8.33712e-07
8.33182e-07
8.33263e-07
8.33278e-07
8.33255e-07
8.33277e-07
8.33265e-07
8.3387e-07
8.33893e-07
8.33804e-07
8.33307e-07
8.33941e-07
8.33864e-07
8.24669e-07
8.24653e-07
8.24501e-07
8.23874e-07
8.23813e-07
8.23788e-07
8.23871e-07
8.24594e-07
8.24606e-07
8.24501e-07
8.23549e-07
8.22411e-07
8.22411e-07
8.22411e-07
8.22411e-07
8.23701e-07
8.24076e-07
8.23874e-07
8.22411e-07
8.22413e-07
8.22414e-07
8.22414e-07
8.22413e-07
8.22411e-07
8.24157e-07
8.24787e-07
8.24669e-07
8.23813e-07
8.22411e-07
8.22414e-07
8.22414e-07
8.22414e-07
8.22414e-07
8.22411e-07
8.2417e-07
8.24698e-07
8.24653e-07
8.23787e-07
8.22411e-07
8.22414e-07
8.22415e-07
8.22414e-07
8.22414e-07
8.22411e-07
8.24147e-07
8.24201e-07
8.23871e-07
8.22411e-07
8.22413e-07
8.22414e-07
8.22414e-07
8.22413e-07
8.22411e-07
8.2417e-07
8.24835e-07
8.24594e-07
8.237e-07
8.22411e-07
8.22411e-07
8.22411e-07
8.22411e-07
8.23972e-07
8.24159e-07
8.24758e-07
8.24606e-07
8.24076e-07
8.24157e-07
8.2417e-07
8.24147e-07
8.2417e-07
8.24159e-07
8.24764e-07
8.24787e-07
8.24698e-07
8.24201e-07
8.24835e-07
8.24758e-07
8.15562e-07
8.15546e-07
8.15394e-07
8.14768e-07
8.14706e-07
8.14681e-07
8.14764e-07
8.15488e-07
8.15499e-07
8.15394e-07
8.14442e-07
8.13304e-07
8.13304e-07
8.13304e-07
8.13304e-07
8.14594e-07
8.1497e-07
8.14768e-07
8.13303e-07
8.13305e-07
8.13305e-07
8.13305e-07
8.13305e-07
8.13304e-07
8.1505e-07
8.15681e-07
8.15562e-07
8.14706e-07
8.13304e-07
8.13305e-07
8.13306e-07
8.13306e-07
8.13305e-07
8.13304e-07
8.15064e-07
8.15591e-07
8.15546e-07
8.14681e-07
8.13304e-07
8.13305e-07
8.13306e-07
8.13306e-07
8.13305e-07
8.13304e-07
8.15041e-07
8.15095e-07
8.14764e-07
8.13303e-07
8.13305e-07
8.13305e-07
8.13305e-07
8.13306e-07
8.13304e-07
8.15063e-07
8.15729e-07
8.15488e-07
8.14594e-07
8.13304e-07
8.13304e-07
8.13304e-07
8.13304e-07
8.14865e-07
8.15052e-07
8.15652e-07
8.15499e-07
8.14969e-07
8.1505e-07
8.15064e-07
8.15041e-07
8.15063e-07
8.15053e-07
8.15658e-07
8.15681e-07
8.15591e-07
8.15095e-07
8.15729e-07
8.15652e-07
8.06455e-07
8.0644e-07
8.06288e-07
8.05661e-07
8.05599e-07
8.05574e-07
8.05657e-07
8.06381e-07
8.06393e-07
8.06288e-07
8.05335e-07
8.04197e-07
8.04197e-07
8.04197e-07
8.04197e-07
8.05487e-07
8.05863e-07
8.05661e-07
8.04197e-07
8.04199e-07
8.04198e-07
8.04198e-07
8.04199e-07
8.04197e-07
8.05944e-07
8.06574e-07
8.06455e-07
8.05599e-07
8.04197e-07
8.04198e-07
8.04198e-07
8.04198e-07
8.04198e-07
8.04197e-07
8.05957e-07
8.06485e-07
8.0644e-07
8.05574e-07
8.04197e-07
8.04198e-07
8.04198e-07
8.04198e-07
8.04198e-07
8.04197e-07
8.05934e-07
8.05988e-07
8.05657e-07
8.04197e-07
8.04199e-07
8.04198e-07
8.04198e-07
8.04199e-07
8.04197e-07
8.05956e-07
8.06622e-07
8.06381e-07
8.05487e-07
8.04197e-07
8.04197e-07
8.04197e-07
8.04197e-07
8.05758e-07
8.05946e-07
8.06545e-07
8.06393e-07
8.05863e-07
8.05944e-07
8.05957e-07
8.05934e-07
8.05956e-07
8.05946e-07
8.06551e-07
8.06574e-07
8.06485e-07
8.05988e-07
8.06622e-07
8.06545e-07
7.97349e-07
7.97333e-07
7.97181e-07
7.96554e-07
7.96493e-07
7.96467e-07
7.96551e-07
7.97275e-07
7.97286e-07
7.97181e-07
7.96229e-07
7.9509e-07
7.9509e-07
7.9509e-07
7.9509e-07
7.96381e-07
7.96756e-07
7.96554e-07
7.9509e-07
7.95092e-07
7.95091e-07
7.95091e-07
7.95092e-07
7.9509e-07
7.96837e-07
7.97468e-07
7.97349e-07
7.96493e-07
7.9509e-07
7.95091e-07
7.95091e-07
7.95091e-07
7.95091e-07
7.9509e-07
7.9685e-07
7.97378e-07
7.97333e-07
7.96467e-07
7.9509e-07
7.95091e-07
7.95091e-07
7.95091e-07
7.95091e-07
7.9509e-07
7.96827e-07
7.96882e-07
7.96551e-07
7.9509e-07
7.95092e-07
7.95091e-07
7.95091e-07
7.95092e-07
7.9509e-07
7.9685e-07
7.97516e-07
7.97275e-07
7.96381e-07
7.9509e-07
7.9509e-07
7.9509e-07
7.9509e-07
7.96652e-07
7.96839e-07
7.97439e-07
7.97286e-07
7.96756e-07
7.96837e-07
7.9685e-07
7.96827e-07
7.9685e-07
7.9684e-07
7.97445e-07
7.97468e-07
7.97378e-07
7.96882e-07
7.97516e-07
7.97439e-07
7.88242e-07
7.88227e-07
7.88075e-07
7.87448e-07
7.87386e-07
7.87361e-07
7.87444e-07
7.88168e-07
7.8818e-07
7.88075e-07
7.87122e-07
7.85983e-07
7.85984e-07
7.85984e-07
7.85983e-07
7.87274e-07
7.8765e-07
7.87448e-07
7.85983e-07
7.85985e-07
7.85984e-07
7.85984e-07
7.85985e-07
7.85983e-07
7.87731e-07
7.88361e-07
7.88242e-07
7.87386e-07
7.85984e-07
7.85984e-07
7.85984e-07
7.85984e-07
7.85984e-07
7.85984e-07
7.87744e-07
7.88271e-07
7.88226e-07
7.87361e-07
7.85984e-07
7.85984e-07
7.85984e-07
7.85984e-07
7.85984e-07
7.85984e-07
7.87721e-07
7.87775e-07
7.87444e-07
7.85983e-07
7.85985e-07
7.85984e-07
7.85984e-07
7.85985e-07
7.85983e-07
7.87743e-07
7.88409e-07
7.88168e-07
7.87274e-07
7.85983e-07
7.85984e-07
7.85984e-07
7.85983e-07
7.87545e-07
7.87733e-07
7.88332e-07
7.8818e-07
7.8765e-07
7.87731e-07
7.87744e-07
7.87721e-07
7.87743e-07
7.87733e-07
7.88338e-07
7.88361e-07
7.88271e-07
7.87775e-07
7.88409e-07
7.88332e-07
7.79136e-07
7.7912e-07
7.78968e-07
7.78341e-07
7.78279e-07
7.78254e-07
7.78337e-07
7.79061e-07
7.79073e-07
7.78968e-07
7.78016e-07
7.76877e-07
7.76877e-07
7.76877e-07
7.76877e-07
7.78167e-07
7.78543e-07
7.78341e-07
7.76877e-07
7.76879e-07
7.76878e-07
7.76878e-07
7.76879e-07
7.76877e-07
7.78624e-07
7.79254e-07
7.79136e-07
7.78279e-07
7.76877e-07
7.76878e-07
7.76877e-07
7.76877e-07
7.76878e-07
7.76877e-07
7.78637e-07
7.79165e-07
7.7912e-07
7.78254e-07
7.76877e-07
7.76878e-07
7.76877e-07
7.76877e-07
7.76878e-07
7.76877e-07
7.78614e-07
7.78668e-07
7.78337e-07
7.76877e-07
7.76879e-07
7.76878e-07
7.76878e-07
7.76879e-07
7.76877e-07
7.78637e-07
7.79302e-07
7.79062e-07
7.78167e-07
7.76877e-07
7.76877e-07
7.76877e-07
7.76877e-07
7.78439e-07
7.78626e-07
7.79225e-07
7.79073e-07
7.78543e-07
7.78624e-07
7.78637e-07
7.78614e-07
7.78637e-07
7.78626e-07
7.79231e-07
7.79254e-07
7.79165e-07
7.78668e-07
7.79302e-07
7.79225e-07
7.70029e-07
7.70013e-07
7.69861e-07
7.69235e-07
7.69173e-07
7.69147e-07
7.69231e-07
7.69955e-07
7.69966e-07
7.69861e-07
7.68909e-07
7.6777e-07
7.6777e-07
7.6777e-07
7.6777e-07
7.69061e-07
7.69436e-07
7.69234e-07
7.6777e-07
7.67772e-07
7.67771e-07
7.67771e-07
7.67772e-07
7.6777e-07
7.69517e-07
7.70148e-07
7.70029e-07
7.69173e-07
7.6777e-07
7.67771e-07
7.67771e-07
7.67771e-07
7.67771e-07
7.6777e-07
7.6953e-07
7.70058e-07
7.70013e-07
7.69147e-07
7.6777e-07
7.67771e-07
7.67771e-07
7.67771e-07
7.67771e-07
7.6777e-07
7.69507e-07
7.69562e-07
7.69231e-07
7.6777e-07
7.67772e-07
7.67771e-07
7.67771e-07
7.67772e-07
7.6777e-07
7.6953e-07
7.70196e-07
7.69955e-07
7.69061e-07
7.6777e-07
7.6777e-07
7.6777e-07
7.6777e-07
7.69332e-07
7.69519e-07
7.70119e-07
7.69966e-07
7.69436e-07
7.69517e-07
7.6953e-07
7.69507e-07
7.6953e-07
7.6952e-07
7.70125e-07
7.70148e-07
7.70058e-07
7.69562e-07
7.70196e-07
7.70119e-07
7.60922e-07
7.60907e-07
7.60755e-07
7.60128e-07
7.60066e-07
7.60041e-07
7.60124e-07
7.60848e-07
7.6086e-07
7.60755e-07
7.59802e-07
7.58663e-07
7.58664e-07
7.58664e-07
7.58663e-07
7.59954e-07
7.6033e-07
7.60128e-07
7.58663e-07
7.58665e-07
7.58664e-07
7.58664e-07
7.58665e-07
7.58663e-07
7.60411e-07
7.61041e-07
7.60922e-07
7.60066e-07
7.58664e-07
7.58664e-07
7.58664e-07
7.58664e-07
7.58664e-07
7.58664e-07
7.60424e-07
7.60952e-07
7.60907e-07
7.60041e-07
7.58664e-07
7.58664e-07
7.58664e-07
7.58664e-07
7.58664e-07
7.58664e-07
7.60401e-07
7.60455e-07
7.60124e-07
7.58663e-07
7.58665e-07
7.58664e-07
7.58664e-07
7.58665e-07
7.58663e-07
7.60423e-07
7.61089e-07
7.60848e-07
7.59954e-07
7.58663e-07
7.58664e-07
7.58664e-07
7.58663e-07
7.60226e-07
7.60413e-07
7.61012e-07
7.6086e-07
7.6033e-07
7.60411e-07
7.60424e-07
7.60401e-07
7.60423e-07
7.60413e-07
7.61018e-07
7.61041e-07
7.60952e-07
7.60455e-07
7.61089e-07
7.61012e-07
7.51816e-07
7.518e-07
7.51648e-07
7.51021e-07
7.50959e-07
7.50934e-07
7.51018e-07
7.51742e-07
7.51753e-07
7.51648e-07
7.50696e-07
7.49557e-07
7.49557e-07
7.49557e-07
7.49557e-07
7.50848e-07
7.51223e-07
7.51021e-07
7.49557e-07
7.49559e-07
7.49558e-07
7.49558e-07
7.49559e-07
7.49557e-07
7.51304e-07
7.51934e-07
7.51816e-07
7.50959e-07
7.49557e-07
7.49558e-07
7.49557e-07
7.49557e-07
7.49558e-07
7.49557e-07
7.51317e-07
7.51845e-07
7.518e-07
7.50934e-07
7.49557e-07
7.49558e-07
7.49557e-07
7.49557e-07
7.49558e-07
7.49557e-07
7.51294e-07
7.51348e-07
7.51018e-07
7.49557e-07
7.49559e-07
7.49558e-07
7.49558e-07
7.49559e-07
7.49557e-07
7.51317e-07
7.51983e-07
7.51742e-07
7.50847e-07
7.49557e-07
7.49557e-07
7.49557e-07
7.49557e-07
7.51119e-07
7.51306e-07
7.51906e-07
7.51753e-07
7.51223e-07
7.51304e-07
7.51317e-07
7.51294e-07
7.51317e-07
7.51306e-07
7.51911e-07
7.51934e-07
7.51845e-07
7.51348e-07
7.51982e-07
7.51905e-07
7.42709e-07
7.42693e-07
7.42541e-07
7.41915e-07
7.41853e-07
7.41828e-07
7.41911e-07
7.42635e-07
7.42647e-07
7.42541e-07
7.41589e-07
7.4045e-07
7.4045e-07
7.40451e-07
7.4045e-07
7.41741e-07
7.42117e-07
7.41915e-07
7.4045e-07
7.40452e-07
7.40451e-07
7.40451e-07
7.40452e-07
7.4045e-07
7.42198e-07
7.42828e-07
7.42709e-07
7.41853e-07
7.40451e-07
7.40451e-07
7.40451e-07
7.40451e-07
7.40451e-07
7.40451e-07
7.42211e-07
7.42738e-07
7.42693e-07
7.41828e-07
7.40451e-07
7.40451e-07
7.40451e-07
7.40451e-07
7.40451e-07
7.40451e-07
7.42188e-07
7.42242e-07
7.41911e-07
7.4045e-07
7.40452e-07
7.40451e-07
7.40451e-07
7.40452e-07
7.4045e-07
7.4221e-07
7.42876e-07
7.42635e-07
7.41741e-07
7.4045e-07
7.40451e-07
7.40451e-07
7.4045e-07
7.42012e-07
7.422e-07
7.42799e-07
7.42647e-07
7.42117e-07
7.42197e-07
7.42211e-07
7.42188e-07
7.4221e-07
7.422e-07
7.42805e-07
7.42828e-07
7.42738e-07
7.42242e-07
7.42876e-07
7.42799e-07
7.33602e-07
7.33587e-07
7.33435e-07
7.32808e-07
7.32746e-07
7.32721e-07
7.32804e-07
7.33528e-07
7.3354e-07
7.33435e-07
7.32483e-07
7.31344e-07
7.31344e-07
7.31344e-07
7.31344e-07
7.32634e-07
7.3301e-07
7.32808e-07
7.31344e-07
7.31345e-07
7.31345e-07
7.31345e-07
7.31345e-07
7.31344e-07
7.33091e-07
7.33721e-07
7.33602e-07
7.32746e-07
7.31344e-07
7.31345e-07
7.31344e-07
7.31344e-07
7.31345e-07
7.31344e-07
7.33104e-07
7.33632e-07
7.33587e-07
7.32721e-07
7.31344e-07
7.31345e-07
7.31344e-07
7.31344e-07
7.31345e-07
7.31344e-07
7.33081e-07
7.33135e-07
7.32804e-07
7.31344e-07
7.31345e-07
7.31345e-07
7.31345e-07
7.31346e-07
7.31344e-07
7.33104e-07
7.33769e-07
7.33528e-07
7.32634e-07
7.31344e-07
7.31344e-07
7.31344e-07
7.31344e-07
7.32906e-07
7.33093e-07
7.33692e-07
7.3354e-07
7.3301e-07
7.33091e-07
7.33104e-07
7.33081e-07
7.33104e-07
7.33093e-07
7.33698e-07
7.33721e-07
7.33632e-07
7.33135e-07
7.33769e-07
7.33692e-07
7.24496e-07
7.2448e-07
7.24328e-07
7.23701e-07
7.2364e-07
7.23614e-07
7.23698e-07
7.24422e-07
7.24433e-07
7.24328e-07
7.23376e-07
7.22237e-07
7.22237e-07
7.22237e-07
7.22237e-07
7.23528e-07
7.23903e-07
7.23701e-07
7.22237e-07
7.22239e-07
7.22238e-07
7.22238e-07
7.22239e-07
7.22237e-07
7.23984e-07
7.24615e-07
7.24496e-07
7.2364e-07
7.22237e-07
7.22238e-07
7.22238e-07
7.22238e-07
7.22238e-07
7.22237e-07
7.23997e-07
7.24525e-07
7.2448e-07
7.23614e-07
7.22237e-07
7.22238e-07
7.22238e-07
7.22238e-07
7.22238e-07
7.22237e-07
7.23974e-07
7.24029e-07
7.23698e-07
7.22237e-07
7.22239e-07
7.22238e-07
7.22238e-07
7.22239e-07
7.22237e-07
7.23997e-07
7.24663e-07
7.24422e-07
7.23528e-07
7.22237e-07
7.22237e-07
7.22237e-07
7.22237e-07
7.23799e-07
7.23986e-07
7.24586e-07
7.24433e-07
7.23903e-07
7.23984e-07
7.23997e-07
7.23974e-07
7.23997e-07
7.23987e-07
7.24592e-07
7.24615e-07
7.24525e-07
7.24029e-07
7.24663e-07
7.24586e-07
7.15389e-07
7.15374e-07
7.15222e-07
7.14595e-07
7.14533e-07
7.14508e-07
7.14591e-07
7.15315e-07
7.15327e-07
7.15222e-07
7.14269e-07
7.1313e-07
7.13131e-07
7.13131e-07
7.1313e-07
7.14421e-07
7.14797e-07
7.14595e-07
7.1313e-07
7.13132e-07
7.13131e-07
7.13131e-07
7.13132e-07
7.1313e-07
7.14878e-07
7.15508e-07
7.15389e-07
7.14533e-07
7.13131e-07
7.13131e-07
7.13131e-07
7.13131e-07
7.13131e-07
7.13131e-07
7.14891e-07
7.15418e-07
7.15374e-07
7.14508e-07
7.13131e-07
7.13131e-07
7.13131e-07
7.13131e-07
7.13131e-07
7.13131e-07
7.14868e-07
7.14922e-07
7.14591e-07
7.1313e-07
7.13132e-07
7.13131e-07
7.13131e-07
7.13132e-07
7.1313e-07
7.1489e-07
7.15556e-07
7.15315e-07
7.14421e-07
7.1313e-07
7.13131e-07
7.13131e-07
7.1313e-07
7.14692e-07
7.1488e-07
7.15479e-07
7.15327e-07
7.14797e-07
7.14878e-07
7.14891e-07
7.14868e-07
7.1489e-07
7.1488e-07
7.15485e-07
7.15508e-07
7.15419e-07
7.14922e-07
7.15556e-07
7.15479e-07
7.06283e-07
7.06267e-07
7.06115e-07
7.05488e-07
7.05426e-07
7.05401e-07
7.05484e-07
7.06209e-07
7.0622e-07
7.06115e-07
7.05163e-07
7.04024e-07
7.04024e-07
7.04024e-07
7.04024e-07
7.05314e-07
7.0569e-07
7.05488e-07
7.04024e-07
7.04026e-07
7.04025e-07
7.04025e-07
7.04026e-07
7.04024e-07
7.05771e-07
7.06401e-07
7.06283e-07
7.05426e-07
7.04024e-07
7.04025e-07
7.04024e-07
7.04024e-07
7.04025e-07
7.04024e-07
7.05784e-07
7.06312e-07
7.06267e-07
7.05401e-07
7.04024e-07
7.04025e-07
7.04024e-07
7.04024e-07
7.04025e-07
7.04024e-07
7.05761e-07
7.05815e-07
7.05484e-07
7.04024e-07
7.04026e-07
7.04025e-07
7.04025e-07
7.04026e-07
7.04024e-07
7.05784e-07
7.06449e-07
7.06208e-07
7.05314e-07
7.04024e-07
7.04024e-07
7.04024e-07
7.04024e-07
7.05586e-07
7.05773e-07
7.06372e-07
7.0622e-07
7.0569e-07
7.05771e-07
7.05784e-07
7.05761e-07
7.05784e-07
7.05773e-07
7.06378e-07
7.06401e-07
7.06312e-07
7.05815e-07
7.06449e-07
7.06372e-07
6.97176e-07
6.9716e-07
6.97008e-07
6.96382e-07
6.9632e-07
6.96295e-07
6.96378e-07
6.97102e-07
6.97113e-07
6.97008e-07
6.96056e-07
6.94917e-07
6.94917e-07
6.94917e-07
6.94917e-07
6.96208e-07
6.96584e-07
6.96382e-07
6.94917e-07
6.94919e-07
6.94918e-07
6.94918e-07
6.94919e-07
6.94917e-07
6.96664e-07
6.97295e-07
6.97176e-07
6.9632e-07
6.94917e-07
6.94918e-07
6.94918e-07
6.94918e-07
6.94918e-07
6.94917e-07
6.96677e-07
6.97205e-07
6.9716e-07
6.96295e-07
6.94917e-07
6.94918e-07
6.94918e-07
6.94918e-07
6.94918e-07
6.94917e-07
6.96654e-07
6.96709e-07
6.96378e-07
6.94917e-07
6.94919e-07
6.94918e-07
6.94918e-07
6.94919e-07
6.94917e-07
6.96677e-07
6.97343e-07
6.97102e-07
6.96208e-07
6.94917e-07
6.94917e-07
6.94917e-07
6.94917e-07
6.96479e-07
6.96666e-07
6.97266e-07
6.97113e-07
6.96583e-07
6.96664e-07
6.96677e-07
6.96654e-07
6.96677e-07
6.96667e-07
6.97272e-07
6.97295e-07
6.97205e-07
6.96709e-07
6.97343e-07
6.97266e-07
6.88069e-07
6.88054e-07
6.87902e-07
6.87275e-07
6.87213e-07
6.87188e-07
6.87271e-07
6.87995e-07
6.88007e-07
6.87902e-07
6.86949e-07
6.8581e-07
6.85811e-07
6.85811e-07
6.8581e-07
6.87101e-07
6.87477e-07
6.87275e-07
6.8581e-07
6.85812e-07
6.85811e-07
6.85811e-07
6.85812e-07
6.8581e-07
6.87558e-07
6.88188e-07
6.88069e-07
6.87213e-07
6.85811e-07
6.85811e-07
6.85811e-07
6.85811e-07
6.85811e-07
6.85811e-07
6.87571e-07
6.88099e-07
6.88054e-07
6.87188e-07
6.85811e-07
6.85811e-07
6.85811e-07
6.85811e-07
6.85811e-07
6.85811e-07
6.87548e-07
6.87602e-07
6.87271e-07
6.8581e-07
6.85812e-07
6.85811e-07
6.85811e-07
6.85812e-07
6.85811e-07
6.8757e-07
6.88236e-07
6.87995e-07
6.87101e-07
6.8581e-07
6.85811e-07
6.85811e-07
6.85811e-07
6.87373e-07
6.8756e-07
6.88159e-07
6.88007e-07
6.87477e-07
6.87558e-07
6.87571e-07
6.87548e-07
6.8757e-07
6.8756e-07
6.88165e-07
6.88188e-07
6.88099e-07
6.87602e-07
6.88236e-07
6.88159e-07
6.78963e-07
6.78947e-07
6.78795e-07
6.78168e-07
6.78106e-07
6.78081e-07
6.78165e-07
6.78889e-07
6.789e-07
6.78795e-07
6.77843e-07
6.76704e-07
6.76704e-07
6.76704e-07
6.76704e-07
6.77995e-07
6.7837e-07
6.78168e-07
6.76704e-07
6.76706e-07
6.76705e-07
6.76705e-07
6.76706e-07
6.76704e-07
6.78451e-07
6.79081e-07
6.78963e-07
6.78106e-07
6.76704e-07
6.76705e-07
6.76704e-07
6.76704e-07
6.76705e-07
6.76704e-07
6.78464e-07
6.78992e-07
6.78947e-07
6.78081e-07
6.76704e-07
6.76705e-07
6.76704e-07
6.76704e-07
6.76705e-07
6.76704e-07
6.78441e-07
6.78495e-07
6.78165e-07
6.76704e-07
6.76706e-07
6.76705e-07
6.76705e-07
6.76706e-07
6.76704e-07
6.78464e-07
6.7913e-07
6.78889e-07
6.77995e-07
6.76704e-07
6.76704e-07
6.76704e-07
6.76704e-07
6.78266e-07
6.78453e-07
6.79053e-07
6.789e-07
6.7837e-07
6.78451e-07
6.78464e-07
6.78441e-07
6.78464e-07
6.78453e-07
6.79058e-07
6.79082e-07
6.78992e-07
6.78495e-07
6.7913e-07
6.79053e-07
6.69856e-07
6.6984e-07
6.69688e-07
6.69062e-07
6.69e-07
6.68975e-07
6.69058e-07
6.69782e-07
6.69793e-07
6.69688e-07
6.68736e-07
6.67597e-07
6.67597e-07
6.67597e-07
6.67597e-07
6.68888e-07
6.69264e-07
6.69062e-07
6.67597e-07
6.67599e-07
6.67598e-07
6.67598e-07
6.67599e-07
6.67597e-07
6.69344e-07
6.69975e-07
6.69856e-07
6.69e-07
6.67597e-07
6.67598e-07
6.67598e-07
6.67598e-07
6.67598e-07
6.67597e-07
6.69358e-07
6.69885e-07
6.6984e-07
6.68975e-07
6.67598e-07
6.67598e-07
6.67598e-07
6.67598e-07
6.67598e-07
6.67597e-07
6.69334e-07
6.69389e-07
6.69058e-07
6.67597e-07
6.67599e-07
6.67598e-07
6.67598e-07
6.67599e-07
6.67597e-07
6.69357e-07
6.70023e-07
6.69782e-07
6.68888e-07
6.67597e-07
6.67598e-07
6.67598e-07
6.67597e-07
6.69159e-07
6.69347e-07
6.69946e-07
6.69794e-07
6.69264e-07
6.69344e-07
6.69358e-07
6.69334e-07
6.69357e-07
6.69347e-07
6.69952e-07
6.69975e-07
6.69885e-07
6.69389e-07
6.70023e-07
6.69946e-07
6.60749e-07
6.60734e-07
6.60582e-07
6.59955e-07
6.59893e-07
6.59868e-07
6.59951e-07
6.60675e-07
6.60687e-07
6.60582e-07
6.5963e-07
6.58491e-07
6.58491e-07
6.58491e-07
6.58491e-07
6.59781e-07
6.60157e-07
6.59955e-07
6.58491e-07
6.58492e-07
6.58492e-07
6.58492e-07
6.58492e-07
6.58491e-07
6.60238e-07
6.60868e-07
6.60749e-07
6.59893e-07
6.58491e-07
6.58492e-07
6.58491e-07
6.58491e-07
6.58492e-07
6.58491e-07
6.60251e-07
6.60779e-07
6.60734e-07
6.59868e-07
6.58491e-07
6.58492e-07
6.58491e-07
6.58491e-07
6.58492e-07
6.58491e-07
6.60228e-07
6.60282e-07
6.59951e-07
6.58491e-07
6.58492e-07
6.58492e-07
6.58492e-07
6.58492e-07
6.58491e-07
6.6025e-07
6.60916e-07
6.60675e-07
6.59781e-07
6.58491e-07
6.58491e-07
6.58491e-07
6.58491e-07
6.60053e-07
6.6024e-07
6.60839e-07
6.60687e-07
6.60157e-07
6.60238e-07
6.60251e-07
6.60228e-07
6.60251e-07
6.6024e-07
6.60845e-07
6.60868e-07
6.60779e-07
6.60282e-07
6.60916e-07
6.60839e-07
6.51643e-07
6.51627e-07
6.51475e-07
6.50848e-07
6.50787e-07
6.50761e-07
6.50845e-07
6.51569e-07
6.5158e-07
6.51475e-07
6.50523e-07
6.49384e-07
6.49384e-07
6.49384e-07
6.49384e-07
6.50675e-07
6.5105e-07
6.50848e-07
6.49384e-07
6.49386e-07
6.49385e-07
6.49385e-07
6.49386e-07
6.49384e-07
6.51131e-07
6.51761e-07
6.51643e-07
6.50787e-07
6.49384e-07
6.49385e-07
6.49385e-07
6.49385e-07
6.49385e-07
6.49384e-07
6.51144e-07
6.51672e-07
6.51627e-07
6.50761e-07
6.49384e-07
6.49385e-07
6.49385e-07
6.49385e-07
6.49385e-07
6.49384e-07
6.51121e-07
6.51175e-07
6.50845e-07
6.49384e-07
6.49386e-07
6.49385e-07
6.49385e-07
6.49386e-07
6.49384e-07
6.51144e-07
6.5181e-07
6.51569e-07
6.50675e-07
6.49384e-07
6.49384e-07
6.49384e-07
6.49384e-07
6.50946e-07
6.51133e-07
6.51733e-07
6.5158e-07
6.5105e-07
6.51131e-07
6.51144e-07
6.51121e-07
6.51144e-07
6.51133e-07
6.51739e-07
6.51762e-07
6.51672e-07
6.51175e-07
6.5181e-07
6.51733e-07
6.42536e-07
6.4252e-07
6.42368e-07
6.41742e-07
6.4168e-07
6.41655e-07
6.41738e-07
6.42462e-07
6.42474e-07
6.42368e-07
6.41416e-07
6.40277e-07
6.40278e-07
6.40278e-07
6.40277e-07
6.41568e-07
6.41944e-07
6.41742e-07
6.40277e-07
6.40279e-07
6.40278e-07
6.40278e-07
6.40279e-07
6.40277e-07
6.42025e-07
6.42655e-07
6.42536e-07
6.4168e-07
6.40277e-07
6.40278e-07
6.40278e-07
6.40278e-07
6.40278e-07
6.40278e-07
6.42038e-07
6.42565e-07
6.4252e-07
6.41655e-07
6.40278e-07
6.40278e-07
6.40278e-07
6.40278e-07
6.40278e-07
6.40278e-07
6.42015e-07
6.42069e-07
6.41738e-07
6.40277e-07
6.40279e-07
6.40278e-07
6.40278e-07
6.40279e-07
6.40277e-07
6.42037e-07
6.42703e-07
6.42462e-07
6.41568e-07
6.40277e-07
6.40278e-07
6.40278e-07
6.40277e-07
6.41839e-07
6.42027e-07
6.42626e-07
6.42474e-07
6.41944e-07
6.42024e-07
6.42038e-07
6.42014e-07
6.42037e-07
6.42027e-07
6.42632e-07
6.42655e-07
6.42565e-07
6.42069e-07
6.42703e-07
6.42626e-07
6.33429e-07
6.33414e-07
6.33262e-07
6.32635e-07
6.32573e-07
6.32548e-07
6.32631e-07
6.33355e-07
6.33367e-07
6.33262e-07
6.3231e-07
6.31171e-07
6.31171e-07
6.31171e-07
6.31171e-07
6.32461e-07
6.32837e-07
6.32635e-07
6.31171e-07
6.31172e-07
6.31172e-07
6.31172e-07
6.31172e-07
6.31171e-07
6.32918e-07
6.33548e-07
6.33429e-07
6.32573e-07
6.31171e-07
6.31172e-07
6.31171e-07
6.31171e-07
6.31172e-07
6.31171e-07
6.32931e-07
6.33459e-07
6.33414e-07
6.32548e-07
6.31171e-07
6.31172e-07
6.31171e-07
6.31171e-07
6.31172e-07
6.31171e-07
6.32908e-07
6.32962e-07
6.32631e-07
6.31171e-07
6.31172e-07
6.31172e-07
6.31172e-07
6.31172e-07
6.31171e-07
6.32931e-07
6.33596e-07
6.33355e-07
6.32461e-07
6.31171e-07
6.31171e-07
6.31171e-07
6.31171e-07
6.32733e-07
6.3292e-07
6.33519e-07
6.33367e-07
6.32837e-07
6.32918e-07
6.32931e-07
6.32908e-07
6.32931e-07
6.3292e-07
6.33525e-07
6.33548e-07
6.33459e-07
6.32962e-07
6.33596e-07
6.33519e-07
6.24323e-07
6.24307e-07
6.24155e-07
6.23528e-07
6.23467e-07
6.23441e-07
6.23525e-07
6.24249e-07
6.2426e-07
6.24155e-07
6.23203e-07
6.22064e-07
6.22064e-07
6.22064e-07
6.22064e-07
6.23355e-07
6.2373e-07
6.23528e-07
6.22064e-07
6.22066e-07
6.22065e-07
6.22065e-07
6.22066e-07
6.22064e-07
6.23811e-07
6.24442e-07
6.24323e-07
6.23467e-07
6.22064e-07
6.22065e-07
6.22065e-07
6.22065e-07
6.22065e-07
6.22064e-07
6.23824e-07
6.24352e-07
6.24307e-07
6.23441e-07
6.22064e-07
6.22065e-07
6.22065e-07
6.22065e-07
6.22065e-07
6.22064e-07
6.23801e-07
6.23855e-07
6.23525e-07
6.22064e-07
6.22066e-07
6.22065e-07
6.22065e-07
6.22066e-07
6.22064e-07
6.23824e-07
6.2449e-07
6.24249e-07
6.23355e-07
6.22064e-07
6.22064e-07
6.22064e-07
6.22064e-07
6.23626e-07
6.23813e-07
6.24413e-07
6.2426e-07
6.2373e-07
6.23811e-07
6.23824e-07
6.23801e-07
6.23824e-07
6.23813e-07
6.24419e-07
6.24442e-07
6.24352e-07
6.23855e-07
6.2449e-07
6.24413e-07
6.15216e-07
6.15201e-07
6.15049e-07
6.14422e-07
6.1436e-07
6.14335e-07
6.14418e-07
6.15142e-07
6.15154e-07
6.15049e-07
6.14096e-07
6.12957e-07
6.12958e-07
6.12958e-07
6.12957e-07
6.14248e-07
6.14624e-07
6.14422e-07
6.12957e-07
6.12959e-07
6.12958e-07
6.12958e-07
6.12959e-07
6.12957e-07
6.14705e-07
6.15335e-07
6.15216e-07
6.1436e-07
6.12958e-07
6.12958e-07
6.12958e-07
6.12958e-07
6.12958e-07
6.12958e-07
6.14718e-07
6.15245e-07
6.15201e-07
6.14335e-07
6.12958e-07
6.12958e-07
6.12958e-07
6.12958e-07
6.12958e-07
6.12958e-07
6.14695e-07
6.14749e-07
6.14418e-07
6.12957e-07
6.12959e-07
6.12958e-07
6.12958e-07
6.12959e-07
6.12957e-07
6.14717e-07
6.15383e-07
6.15142e-07
6.14248e-07
6.12957e-07
6.12958e-07
6.12958e-07
6.12957e-07
6.14519e-07
6.14707e-07
6.15306e-07
6.15154e-07
6.14624e-07
6.14705e-07
6.14718e-07
6.14695e-07
6.14717e-07
6.14707e-07
6.15312e-07
6.15335e-07
6.15245e-07
6.14749e-07
6.15383e-07
6.15306e-07
6.0611e-07
6.06094e-07
6.05942e-07
6.05315e-07
6.05253e-07
6.05228e-07
6.05311e-07
6.06036e-07
6.06047e-07
6.05942e-07
6.0499e-07
6.03851e-07
6.03851e-07
6.03851e-07
6.03851e-07
6.05141e-07
6.05517e-07
6.05315e-07
6.03851e-07
6.03853e-07
6.03852e-07
6.03852e-07
6.03853e-07
6.03851e-07
6.05598e-07
6.06228e-07
6.0611e-07
6.05253e-07
6.03851e-07
6.03852e-07
6.03851e-07
6.03851e-07
6.03852e-07
6.03851e-07
6.05611e-07
6.06139e-07
6.06094e-07
6.05228e-07
6.03851e-07
6.03852e-07
6.03851e-07
6.03851e-07
6.03852e-07
6.03851e-07
6.05588e-07
6.05642e-07
6.05312e-07
6.03851e-07
6.03853e-07
6.03852e-07
6.03852e-07
6.03853e-07
6.03851e-07
6.05611e-07
6.06276e-07
6.06036e-07
6.05141e-07
6.03851e-07
6.03851e-07
6.03851e-07
6.03851e-07
6.05413e-07
6.056e-07
6.06199e-07
6.06047e-07
6.05517e-07
6.05598e-07
6.05611e-07
6.05588e-07
6.05611e-07
6.056e-07
6.06205e-07
6.06228e-07
6.06139e-07
6.05642e-07
6.06276e-07
6.06199e-07
5.97003e-07
5.96987e-07
5.96835e-07
5.96209e-07
5.96147e-07
5.96122e-07
5.96205e-07
5.96929e-07
5.9694e-07
5.96835e-07
5.95883e-07
5.94744e-07
5.94744e-07
5.94744e-07
5.94744e-07
5.96035e-07
5.9641e-07
5.96209e-07
5.94744e-07
5.94746e-07
5.94745e-07
5.94745e-07
5.94746e-07
5.94744e-07
5.96491e-07
5.97122e-07
5.97003e-07
5.96147e-07
5.94744e-07
5.94745e-07
5.94745e-07
5.94745e-07
5.94745e-07
5.94744e-07
5.96504e-07
5.97032e-07
5.96987e-07
5.96122e-07
5.94744e-07
5.94745e-07
5.94745e-07
5.94745e-07
5.94745e-07
5.94744e-07
5.96481e-07
5.96536e-07
5.96205e-07
5.94744e-07
5.94746e-07
5.94745e-07
5.94745e-07
5.94746e-07
5.94744e-07
5.96504e-07
5.9717e-07
5.96929e-07
5.96035e-07
5.94744e-07
5.94744e-07
5.94744e-07
5.94744e-07
5.96306e-07
5.96493e-07
5.97093e-07
5.9694e-07
5.96411e-07
5.96491e-07
5.96504e-07
5.96481e-07
5.96504e-07
5.96494e-07
5.97099e-07
5.97122e-07
5.97032e-07
5.96536e-07
5.9717e-07
5.97093e-07
5.87896e-07
5.87881e-07
5.87729e-07
5.87102e-07
5.8704e-07
5.87015e-07
5.87098e-07
5.87822e-07
5.87834e-07
5.87729e-07
5.86776e-07
5.85637e-07
5.85638e-07
5.85638e-07
5.85637e-07
5.86928e-07
5.87304e-07
5.87102e-07
5.85637e-07
5.85639e-07
5.85638e-07
5.85638e-07
5.85639e-07
5.85637e-07
5.87385e-07
5.88015e-07
5.87896e-07
5.8704e-07
5.85638e-07
5.85638e-07
5.85638e-07
5.85638e-07
5.85638e-07
5.85638e-07
5.87398e-07
5.87925e-07
5.87881e-07
5.87015e-07
5.85638e-07
5.85638e-07
5.85638e-07
5.85638e-07
5.85638e-07
5.85638e-07
5.87375e-07
5.87429e-07
5.87098e-07
5.85637e-07
5.85639e-07
5.85638e-07
5.85638e-07
5.85639e-07
5.85637e-07
5.87397e-07
5.88063e-07
5.87822e-07
5.86928e-07
5.85637e-07
5.85638e-07
5.85638e-07
5.85637e-07
5.87199e-07
5.87387e-07
5.87986e-07
5.87834e-07
5.87304e-07
5.87385e-07
5.87398e-07
5.87375e-07
5.87397e-07
5.87387e-07
5.87992e-07
5.88015e-07
5.87925e-07
5.87429e-07
5.88063e-07
5.87986e-07
5.7879e-07
5.78774e-07
5.78622e-07
5.77995e-07
5.77933e-07
5.77908e-07
5.77992e-07
5.78716e-07
5.78727e-07
5.78622e-07
5.7767e-07
5.76531e-07
5.76531e-07
5.76531e-07
5.76531e-07
5.77821e-07
5.78197e-07
5.77995e-07
5.76531e-07
5.76533e-07
5.76532e-07
5.76532e-07
5.76533e-07
5.76531e-07
5.78278e-07
5.78908e-07
5.7879e-07
5.77933e-07
5.76531e-07
5.76532e-07
5.76531e-07
5.76531e-07
5.76532e-07
5.76531e-07
5.78291e-07
5.78819e-07
5.78774e-07
5.77908e-07
5.76531e-07
5.76532e-07
5.76531e-07
5.76531e-07
5.76532e-07
5.76531e-07
5.78268e-07
5.78322e-07
5.77991e-07
5.76531e-07
5.76533e-07
5.76532e-07
5.76532e-07
5.76533e-07
5.76531e-07
5.78291e-07
5.78956e-07
5.78716e-07
5.77821e-07
5.76531e-07
5.76531e-07
5.76531e-07
5.76531e-07