/*--------------------------------*- C++ -*----------------------------------*\
| =========                 |                                                 |
| \\      /  F ield         | OpenFOAM: The Open Source CFD Toolbox           |
|  \\    /   O peration     | Version:  2312                                  |
|   \\  /    A nd           | Website:  www.openfoam.com                      |
|    \\/     M anipulation  |                                                 |
\*---------------------------------------------------------------------------*/
FoamFile
{
    version     2.0;
    format      ascii;
    arch        "LSB;label=32;scalar=64";
    class       volScalarField;
    location    "250";
    object      nut;
}
// * * * * * * * * * * * * * * * * * * * * * * * * * * * * * * * * * * * * * //

dimensions      [0 2 -1 0 0 0 0];

internalField   nonuniform List<scalar> 
43168
(
0.000157344
0.000169283
0.000169178
0.000159502
0.00015941
0.000169388
0.000169395
0.000159381
0.000169402
0.000169176
0.000169272
0.000169327
0.000159063
0.000169174
0.000169301
0.000159501
0.000159409
0.000169428
0.000169424
0.000159403
0.000169425
0.000169257
0.000169418
0.00015907
0.000169358
5.02898e-05
5.02937e-05
0.000157328
0.000157578
0.000157271
0.000157268
9.65373e-05
5.02955e-05
9.65314e-05
5.02975e-05
2.36889e-05
2.369e-05
9.64928e-05
5.02934e-05
9.64914e-05
5.02941e-05
0.000157629
0.000157433
0.000157426
0.000133422
9.92138e-05
0.000170932
0.000169315
0.000133419
9.92761e-05
0.00017097
2.36865e-05
2.36877e-05
0.000133471
0.000170876
9.91836e-05
0.000169211
0.000133463
0.000170916
9.91989e-05
7.61348e-05
7.61258e-05
0.000159595
7.61286e-05
7.61322e-05
2.36894e-05
2.36879e-05
0.000159228
7.61148e-05
7.61143e-05
2.369e-05
2.36886e-05
2.36882e-05
2.36871e-05
0.000159295
7.6123e-05
7.6115e-05
7.61176e-05
7.61109e-05
0.000169335
9.92084e-05
9.65403e-05
5.02953e-05
5.02918e-05
9.65538e-05
9.65382e-05
5.02952e-05
5.02942e-05
9.65558e-05
0.000133478
0.000169372
9.92121e-05
0.000170832
9.91768e-05
0.000170797
0.000133512
0.000133506
0.000169397
9.92447e-05
0.000170823
9.92272e-05
0.000170845
0.000133559
2.36898e-05
2.36884e-05
0.000159248
7.61411e-05
7.61589e-05
7.61198e-05
2.36909e-05
0.000169412
9.92061e-05
9.65457e-05
5.02938e-05
5.0293e-05
9.65146e-05
0.000133418
0.000169405
9.92028e-05
0.000170626
9.91861e-05
0.000170639
0.000133449
9.65258e-05
5.02856e-05
5.02808e-05
9.65318e-05
0.000133356
0.000169192
0.000170549
9.91777e-05
0.00017055
9.91753e-05
0.000133402
9.92383e-05
0.000170934
0.000133428
5.02956e-05
9.65363e-05
0.000170666
9.92006e-05
0.00013339
5.02912e-05
9.65236e-05
2.36872e-05
2.3686e-05
0.000159077
7.60993e-05
7.60999e-05
7.60891e-05
7.61014e-05
2.36898e-05
2.36889e-05
0.000133322
0.000169153
0.000170876
9.92086e-05
0.000170846
9.91675e-05
0.000133481
0.000133412
0.00016931
0.000170592
9.92232e-05
0.000170613
9.92046e-05
0.000133408
9.65092e-05
5.02945e-05
5.02929e-05
9.65558e-05
9.65374e-05
5.02922e-05
5.02913e-05
9.65146e-05
0.000159458
7.61408e-05
7.61318e-05
7.61214e-05
2.36897e-05
2.36887e-05
2.36875e-05
2.36893e-05
2.36906e-05
2.36875e-05
2.36887e-05
7.61196e-05
7.61206e-05
0.000159513
7.61295e-05
7.61307e-05
2.36898e-05
2.36879e-05
0.000159388
7.61283e-05
7.61231e-05
9.65397e-05
5.02946e-05
9.65352e-05
5.02949e-05
0.000133523
9.91765e-05
0.000170898
0.000169453
0.000133503
9.92268e-05
0.000170916
0.000133477
9.91968e-05
0.000170853
0.000169433
0.000133499
9.92146e-05
0.000170867
9.65241e-05
5.02972e-05
9.65233e-05
5.02943e-05
0.000133487
0.000169459
9.92078e-05
0.000170908
0.000133413
0.000169438
9.91905e-05
0.000170902
7.61364e-05
7.61499e-05
0.000159453
7.61426e-05
7.61475e-05
2.36901e-05
2.36909e-05
2.36891e-05
0.000159472
7.6135e-05
7.61406e-05
2.369e-05
0.000133424
9.92093e-05
0.000170757
0.00016945
0.00013343
9.92137e-05
0.000170765
9.65223e-05
5.02856e-05
9.65188e-05
5.02868e-05
0.00013338
0.000170658
9.9156e-05
0.00016927
0.000133367
0.000170709
9.916e-05
9.64767e-05
5.02936e-05
0.000133382
0.00016947
9.91944e-05
0.000170765
9.65045e-05
5.02866e-05
0.000133352
0.000169283
0.000170726
9.91679e-05
9.65143e-05
5.0295e-05
9.65051e-05
5.02959e-05
0.000133367
0.0001708
9.91967e-05
0.000169428
0.000133323
0.000170801
9.92264e-05
9.64927e-05
5.02905e-05
9.64818e-05
5.02903e-05
0.000133304
0.000169326
9.92631e-05
0.000170977
9.64982e-05
5.02957e-05
0.000133338
0.000169444
0.000170821
9.92084e-05
9.64715e-05
5.02898e-05
7.60967e-05
7.61048e-05
0.000159174
7.61064e-05
7.61105e-05
2.36891e-05
2.36902e-05
2.36869e-05
0.000159158
7.60941e-05
7.61028e-05
2.36893e-05
0.000133311
0.000170726
9.92395e-05
0.000169362
0.000133353
0.000170743
9.92502e-05
9.65577e-05
5.02944e-05
9.65423e-05
5.02959e-05
9.65055e-05
5.0292e-05
9.64844e-05
5.02928e-05
0.000133485
0.000169233
0.000170935
9.9183e-05
0.000133282
0.000169381
0.000170774
9.92249e-05
9.65242e-05
5.02958e-05
9.64854e-05
5.02923e-05
2.36889e-05
2.36898e-05
2.36879e-05
2.36889e-05
0.00015944
7.61283e-05
7.61217e-05
2.36889e-05
2.3688e-05
2.01553e-05
7.78101e-05
5.02875e-05
7.77926e-05
2.01566e-05
5.02932e-05
3.6401e-05
9.65261e-05
4.06939e-05
9.18492e-05
4.06934e-05
9.18387e-05
3.64016e-05
2.01576e-05
7.78224e-05
5.02966e-05
2.01562e-05
7.78356e-05
3.64018e-05
9.65438e-05
4.06935e-05
9.18469e-05
3.64012e-05
4.0694e-05
9.18574e-05
2.01563e-05
7.78313e-05
5.02966e-05
7.78173e-05
2.01576e-05
2.36899e-05
2.3689e-05
3.64013e-05
9.6481e-05
9.18346e-05
4.06928e-05
9.18186e-05
4.06923e-05
3.6402e-05
2.01585e-05
7.7835e-05
5.0294e-05
2.01573e-05
7.78465e-05
3.64021e-05
9.6504e-05
9.18408e-05
4.06926e-05
3.64015e-05
9.18514e-05
4.0693e-05
2.01573e-05
7.78449e-05
5.02935e-05
7.7834e-05
2.01585e-05
2.36875e-05
2.36867e-05
8.04044e-05
2.15491e-05
2.1546e-05
2.15479e-05
2.15447e-05
8.04114e-05
0.000101729
0.00012127
4.82264e-05
7.61374e-05
0.000101721
0.000121298
4.82272e-05
0.000101732
0.000121173
4.82159e-05
7.6135e-05
0.000101716
0.000121198
4.82167e-05
8.04124e-05
2.15478e-05
2.15447e-05
8.04059e-05
2.15491e-05
2.15459e-05
0.000101702
4.82272e-05
7.61302e-05
0.000121309
0.000121291
4.82265e-05
0.000101734
0.000101715
4.82167e-05
7.61269e-05
0.000121211
0.000121152
4.8216e-05
0.000101717
2.36884e-05
2.36869e-05
8.03944e-05
2.15476e-05
2.15444e-05
2.15463e-05
2.15431e-05
8.04018e-05
0.000101685
4.82242e-05
7.61072e-05
0.0001212
4.82233e-05
0.000101692
0.000121176
0.000101675
4.82121e-05
7.61051e-05
0.000121143
4.82112e-05
0.000101695
0.000121156
2.36889e-05
2.36897e-05
2.36872e-05
2.3688e-05
8.04018e-05
2.15464e-05
2.15432e-05
8.03946e-05
2.15477e-05
2.15445e-05
0.000101672
0.000121198
7.61104e-05
4.82247e-05
4.82237e-05
0.000121155
0.000101687
0.000101682
0.000121156
7.61114e-05
4.82127e-05
4.8212e-05
0.000121162
0.000101687
0.000101686
4.82235e-05
0.000121207
7.61274e-05
0.000101676
4.82244e-05
0.000121212
0.000101702
4.82116e-05
0.000121119
7.61101e-05
0.000101685
4.82124e-05
0.00012118
8.0396e-05
2.15479e-05
2.15446e-05
2.15466e-05
2.15433e-05
8.04032e-05
3.64021e-05
4.06939e-05
9.18565e-05
9.65647e-05
3.64014e-05
4.06943e-05
9.18717e-05
2.01558e-05
5.02939e-05
7.78324e-05
2.01573e-05
7.7807e-05
2.01569e-05
7.78046e-05
5.02937e-05
2.01555e-05
7.78177e-05
3.64013e-05
9.6532e-05
4.06941e-05
9.18666e-05
3.64019e-05
4.06936e-05
9.18548e-05
3.64019e-05
4.06942e-05
9.18686e-05
9.65577e-05
3.64013e-05
4.06946e-05
9.18847e-05
2.01567e-05
5.02946e-05
7.78386e-05
7.78282e-05
2.0158e-05
2.0158e-05
7.78281e-05
5.02949e-05
2.01567e-05
7.78408e-05
3.64012e-05
9.65427e-05
4.06944e-05
9.188e-05
4.06939e-05
9.18682e-05
3.64019e-05
2.36887e-05
2.36894e-05
0.000101704
0.00012125
7.61304e-05
4.82155e-05
0.000121227
4.82145e-05
0.000101716
0.000101694
0.000121294
7.61533e-05
4.82271e-05
4.82263e-05
0.000121281
0.000101714
0.000121177
7.61234e-05
0.000121244
8.03903e-05
2.15453e-05
2.15482e-05
2.1544e-05
2.15469e-05
8.03986e-05
2.36903e-05
3.64024e-05
9.18626e-05
4.06931e-05
9.65518e-05
3.64018e-05
9.18721e-05
4.06936e-05
2.01573e-05
5.02933e-05
7.78505e-05
2.01586e-05
7.78398e-05
2.01586e-05
7.78419e-05
5.02936e-05
2.01573e-05
7.78528e-05
3.64016e-05
9.65045e-05
9.18611e-05
4.06933e-05
3.64022e-05
9.1852e-05
4.06929e-05
3.63995e-05
4.0693e-05
9.18227e-05
9.65436e-05
3.63989e-05
4.06934e-05
9.18324e-05
2.0155e-05
5.02846e-05
7.77883e-05
7.77779e-05
2.01563e-05
2.01562e-05
7.77798e-05
5.02844e-05
2.01549e-05
7.77901e-05
3.63987e-05
9.65203e-05
4.06933e-05
9.18224e-05
4.06928e-05
9.18136e-05
3.63994e-05
2.0157e-05
5.02953e-05
7.78187e-05
7.78063e-05
2.01583e-05
3.6404e-05
9.65167e-05
9.18631e-05
4.06958e-05
9.18499e-05
4.06953e-05
3.64047e-05
2.01556e-05
5.0291e-05
7.77908e-05
7.77813e-05
2.01568e-05
3.64004e-05
9.65126e-05
4.06954e-05
9.18372e-05
4.0695e-05
9.18282e-05
3.64009e-05
2.36862e-05
2.36869e-05
8.03805e-05
2.15434e-05
2.15466e-05
8.03733e-05
2.15447e-05
2.15479e-05
0.000101655
0.000121118
7.60929e-05
4.8212e-05
0.000121082
4.82111e-05
0.000101688
0.000101619
0.000121109
7.60968e-05
4.82239e-05
4.82233e-05
0.000121034
0.00010163
0.000101684
4.82108e-05
0.000121076
7.60911e-05
0.000121132
0.000101667
4.82116e-05
0.000101625
4.82234e-05
0.000121033
7.61072e-05
0.000101632
4.82241e-05
0.000121069
8.03766e-05
2.15448e-05
2.1548e-05
2.15435e-05
2.15467e-05
8.03839e-05
2.36889e-05
2.36898e-05
3.64036e-05
9.18337e-05
4.06937e-05
9.65241e-05
3.64026e-05
9.18481e-05
4.06944e-05
2.01575e-05
5.02936e-05
7.78184e-05
7.78018e-05
2.01589e-05
2.01586e-05
7.7798e-05
5.02937e-05
2.01572e-05
7.78109e-05
3.64032e-05
9.6532e-05
9.18718e-05
4.06948e-05
9.18495e-05
4.0694e-05
3.64041e-05
3.64016e-05
9.18653e-05
4.06936e-05
9.65124e-05
3.64008e-05
9.18794e-05
4.06941e-05
2.01567e-05
5.02916e-05
7.78349e-05
7.78217e-05
2.0158e-05
2.0158e-05
7.78284e-05
5.02919e-05
2.01567e-05
7.78401e-05
3.64009e-05
9.64976e-05
9.18675e-05
4.06939e-05
9.18566e-05
4.06934e-05
3.64016e-05
8.04119e-05
2.1549e-05
2.15458e-05
0.000101701
0.00012125
7.61241e-05
4.82269e-05
0.000101733
0.000121266
4.82261e-05
0.000101733
0.000121232
7.61254e-05
4.82165e-05
0.000101735
0.000121218
4.82157e-05
0.000101732
7.61408e-05
0.00012128
4.82271e-05
0.000101746
0.000121205
7.6129e-05
0.000121229
4.82162e-05
8.04073e-05
2.1549e-05
2.15459e-05
8.04138e-05
2.15478e-05
2.15446e-05
2.36887e-05
2.36896e-05
2.36877e-05
2.36885e-05
2.36903e-05
2.36895e-05
2.36885e-05
2.36877e-05
8.03965e-05
2.15482e-05
2.15449e-05
2.15468e-05
2.15436e-05
8.04046e-05
0.000101684
0.000121175
4.82241e-05
7.61257e-05
0.00010167
4.82251e-05
0.000121184
0.000101676
0.000121173
4.82123e-05
7.61297e-05
0.000101672
4.82132e-05
0.000121188
8.04035e-05
2.15467e-05
2.15434e-05
8.03961e-05
2.1548e-05
2.15447e-05
0.000101676
4.82257e-05
7.61209e-05
0.000121212
4.82247e-05
0.000101703
0.000121141
0.000101689
4.82139e-05
7.61235e-05
0.000121203
4.82129e-05
0.000101707
0.00012114
2.36909e-05
2.36889e-05
8.04047e-05
2.1547e-05
2.15437e-05
8.03975e-05
2.15483e-05
2.1545e-05
0.000101723
4.82254e-05
0.000121211
7.61386e-05
0.000101704
4.82265e-05
0.000121232
0.00010171
4.82134e-05
0.000121218
7.6134e-05
0.000101696
4.82144e-05
0.000121204
3.64011e-05
9.65286e-05
4.06941e-05
9.18688e-05
4.06936e-05
9.18579e-05
3.64017e-05
2.0158e-05
7.78266e-05
5.02951e-05
2.01567e-05
7.78369e-05
3.64018e-05
9.65459e-05
4.06937e-05
9.18645e-05
4.06942e-05
3.64011e-05
9.18756e-05
2.01568e-05
7.78352e-05
5.02945e-05
7.78245e-05
2.0158e-05
3.64015e-05
4.06933e-05
9.18332e-05
9.65357e-05
3.64008e-05
4.06938e-05
9.18433e-05
2.01576e-05
7.78145e-05
5.02979e-05
2.01564e-05
7.78286e-05
3.64016e-05
4.06935e-05
9.18527e-05
9.65327e-05
3.6401e-05
4.0694e-05
9.18639e-05
2.01581e-05
7.78241e-05
5.0295e-05
2.01568e-05
7.78353e-05
8.03909e-05
2.15457e-05
2.15485e-05
2.15444e-05
2.15473e-05
8.03991e-05
0.000101701
0.000121252
4.8215e-05
7.61434e-05
4.82158e-05
0.000101699
0.000121268
0.000101695
0.000121265
4.82265e-05
7.61474e-05
0.000121287
0.000101684
4.82274e-05
8.03981e-05
2.15443e-05
2.15472e-05
2.15456e-05
8.0391e-05
2.15485e-05
0.000101715
4.82162e-05
7.6135e-05
0.000121267
4.82153e-05
0.000121243
0.000101728
0.00010169
4.82274e-05
7.61437e-05
0.000121238
0.000121234
4.82267e-05
0.000101707
2.36909e-05
2.369e-05
2.36901e-05
8.03986e-05
2.15445e-05
2.15473e-05
8.03915e-05
2.15457e-05
2.15486e-05
0.000101731
4.82157e-05
0.000121203
7.61418e-05
0.000121229
0.000101718
4.82166e-05
0.000101698
4.82267e-05
0.00012124
7.61384e-05
0.000101684
4.82273e-05
0.000121221
2.36909e-05
3.63987e-05
9.65126e-05
4.06932e-05
9.18034e-05
4.06927e-05
9.17952e-05
3.63994e-05
2.01564e-05
7.77768e-05
5.02863e-05
2.01551e-05
7.7788e-05
3.63994e-05
9.65301e-05
4.06927e-05
9.18056e-05
4.06932e-05
3.63987e-05
9.18141e-05
2.01552e-05
7.77837e-05
5.02861e-05
7.77709e-05
2.01565e-05
3.64019e-05
9.18138e-05
4.06922e-05
9.64879e-05
3.64012e-05
9.18208e-05
4.06928e-05
2.01585e-05
7.78335e-05
5.02943e-05
2.01573e-05
7.78445e-05
3.63995e-05
4.06927e-05
9.17863e-05
9.65136e-05
3.63987e-05
4.06933e-05
9.17921e-05
2.01566e-05
7.77711e-05
5.02872e-05
2.01553e-05
7.77795e-05
3.64039e-05
9.6503e-05
9.18503e-05
4.06952e-05
9.18313e-05
4.06948e-05
3.64047e-05
2.01584e-05
7.78043e-05
5.02955e-05
7.78167e-05
2.0157e-05
3.64047e-05
9.65262e-05
9.18471e-05
4.0695e-05
9.18613e-05
3.64039e-05
4.06955e-05
2.01571e-05
7.78213e-05
5.02952e-05
7.78016e-05
2.01585e-05
3.63999e-05
9.64724e-05
4.06945e-05
9.18231e-05
4.06941e-05
9.18126e-05
3.64005e-05
2.01566e-05
7.77746e-05
5.02906e-05
2.01555e-05
7.77756e-05
3.64007e-05
9.65081e-05
4.06945e-05
9.1821e-05
3.64001e-05
4.06949e-05
9.1831e-05
2.01553e-05
7.77764e-05
5.02899e-05
7.77643e-05
2.01566e-05
3.64046e-05
9.18302e-05
4.06944e-05
9.65095e-05
3.64039e-05
9.18466e-05
4.06949e-05
2.01586e-05
7.78099e-05
5.02963e-05
2.01572e-05
7.78212e-05
3.64004e-05
4.06938e-05
9.18056e-05
9.64799e-05
3.63998e-05
4.06942e-05
9.18157e-05
2.01565e-05
7.77643e-05
5.02902e-05
2.01553e-05
7.77707e-05
8.03764e-05
2.15451e-05
2.15482e-05
2.15438e-05
2.15469e-05
8.03838e-05
0.00010168
0.000121111
4.82116e-05
7.61045e-05
4.82125e-05
0.000101676
0.000121133
0.000101642
0.000121104
4.82233e-05
7.61122e-05
0.000121101
0.000101638
4.82241e-05
8.03839e-05
2.15437e-05
2.15468e-05
2.1545e-05
8.03768e-05
2.15481e-05
0.000101669
4.82128e-05
7.60988e-05
0.000121138
4.8212e-05
0.000121121
0.000101682
0.000101613
4.82243e-05
7.61047e-05
0.000121135
0.000121123
4.82235e-05
0.000101641
2.36901e-05
2.36892e-05
2.36879e-05
8.03837e-05
2.15439e-05
2.1547e-05
8.03765e-05
2.15452e-05
2.15483e-05
0.000101656
4.82122e-05
0.000121125
7.61111e-05
0.000121138
0.000101659
4.8213e-05
0.000101652
4.82237e-05
0.000121101
7.61054e-05
0.000101628
4.82245e-05
0.00012109
2.36902e-05
3.64039e-05
9.6544e-05
9.18853e-05
4.06951e-05
9.18707e-05
4.06945e-05
3.64046e-05
2.01592e-05
7.78142e-05
5.02953e-05
7.78308e-05
2.01578e-05
3.64045e-05
9.65581e-05
9.18657e-05
4.06944e-05
9.1883e-05
3.64036e-05
4.0695e-05
2.01582e-05
7.78431e-05
5.02952e-05
7.78285e-05
2.01595e-05
3.64006e-05
9.64904e-05
9.18559e-05
4.06933e-05
9.18446e-05
4.06928e-05
3.64013e-05
2.01579e-05
7.78242e-05
5.02926e-05
2.01567e-05
7.78351e-05
3.64015e-05
9.65062e-05
9.18518e-05
4.06931e-05
3.64008e-05
9.18634e-05
4.06936e-05
2.01566e-05
7.78293e-05
5.02923e-05
7.78163e-05
2.01579e-05
3.64047e-05
9.18719e-05
4.06944e-05
9.65443e-05
3.6404e-05
9.18849e-05
4.06949e-05
2.01597e-05
7.78334e-05
5.02964e-05
2.01584e-05
7.78451e-05
3.6401e-05
9.18383e-05
4.06926e-05
9.64968e-05
3.64004e-05
9.18496e-05
4.0693e-05
2.01578e-05
7.78171e-05
5.0293e-05
2.01566e-05
7.78277e-05
2.36898e-05
2.36889e-05
2.36888e-05
2.3688e-05
8.04101e-05
2.15479e-05
2.15448e-05
8.04036e-05
2.15492e-05
2.1546e-05
0.000101733
4.82266e-05
0.0001213
7.61328e-05
0.000101716
0.000121317
4.82274e-05
0.0001017
4.82159e-05
0.000121176
7.61369e-05
0.000101698
0.000121222
4.82166e-05
2.36898e-05
2.36889e-05
0.000157302
0.000146333
0.000146301
0.000157341
0.000146322
0.000146394
0.000135262
0.000135262
0.000129427
0.000146029
0.000145974
0.000159524
0.000129412
0.000146071
0.000146025
0.00012925
0.000159329
0.000145999
0.000146051
0.000145986
0.000146016
0.000129227
0.000129329
0.000159342
0.000145916
0.00014615
0.000145931
0.000146119
0.000129326
0.00012931
0.000159013
0.000145806
0.000145843
0.000145777
0.000145777
0.000129328
0.000129384
0.000159499
0.000146026
0.000146112
0.000129415
0.000145987
0.000146068
0.000129304
0.00014599
0.000146063
0.000159466
0.000129275
0.000146043
0.000146097
0.000129345
0.000145983
0.000146153
0.000159421
0.000146178
0.000129377
0.000145929
0.0001293
0.000145801
0.0001457
0.000159128
0.000145783
0.000129308
0.000145849
0.00015731
0.000146326
0.000146312
0.000146296
0.000146355
0.000135299
0.000135242
0.000157599
0.000146719
0.000146271
0.000146783
0.000146271
0.000135047
0.000135077
0.000157287
0.000146185
0.000146157
0.000146184
0.000146203
0.000135036
0.00013506
0.000157289
0.000146178
0.000146006
0.000146163
0.000146066
0.000134949
0.000134949
0.000146769
0.000146403
0.000157644
0.000146793
0.000146451
0.000135155
0.000135104
0.000146433
0.000146387
0.000157456
0.000146497
0.000146404
0.000135167
0.000135171
0.000146412
0.000146375
0.000157441
0.000146442
0.000146414
0.000135053
0.000135046
0.000157357
0.000146351
0.000146403
0.000135249
0.000157647
0.000146774
0.000146473
0.000135167
0.000157457
0.000146506
0.000146421
0.000135125
0.000157479
0.000146438
0.000146466
0.00013501
0.000152179
0.000133353
0.000128197
0.000155528
0.000128165
0.000155489
0.000152102
0.000145166
0.000135557
0.000115862
9.92336e-05
0.000145231
0.000135575
0.000115904
0.00015219
0.000133433
0.000128177
0.000155445
0.000152164
0.000128201
0.000155478
0.000145232
0.000115888
9.92428e-05
0.000135571
0.000135557
0.000115827
0.00014515
0.000152315
0.00013346
0.000155787
0.00012833
0.000155753
0.00012832
0.000152305
0.000145069
0.000135222
0.000115801
9.9201e-05
0.000145047
0.000135217
0.000115843
0.000152288
0.000133475
0.000155748
0.000128265
0.000152296
0.000155768
0.000128315
0.000145075
0.000115859
9.91761e-05
0.000135159
0.000135174
0.000115833
0.000145108
0.000129379
0.000159447
0.000146147
0.000145951
0.000146089
0.000145882
0.000129425
0.000129308
0.000159177
0.000145882
0.000145877
0.000129297
0.000145817
0.000145819
0.000129285
0.000159314
0.000145923
0.000145947
0.000129284
0.000145998
0.000146004
0.000144979
0.000115802
9.9194e-05
0.000135261
0.000115773
0.000135238
0.000145108
0.000152036
0.000128315
0.000155645
0.000133496
0.000152162
0.000128338
0.000155676
0.000145055
0.000135267
9.91687e-05
0.000115882
0.00013527
0.000115852
0.0001451
0.000145119
0.000115785
0.000135279
9.92007e-05
0.0001353
0.000145009
0.000115865
0.000152128
0.000133498
0.000128357
0.000155723
0.000128334
0.000155703
0.000152179
0.000152218
0.000128308
0.000155731
0.000133519
0.000152173
0.000128331
0.000155762
0.000145108
0.000135536
9.924e-05
0.000115861
0.000115839
0.000135514
0.000145152
0.00014512
0.000115826
0.000135463
9.92582e-05
0.000145098
0.000115874
0.000135512
0.000152252
0.00013351
0.000128345
0.000155797
0.000128325
0.000155805
0.00015224
0.000159367
0.000145857
0.000145912
9.91806e-05
0.0001354
0.000135377
0.000152235
0.000128246
0.000155706
0.00013345
0.000152204
0.00012827
0.000155733
0.0001451
0.000135288
9.92034e-05
0.000115894
0.00013527
0.000115852
0.000145168
0.000145112
0.000115873
0.000135324
9.92243e-05
0.000135277
0.000145035
0.000115893
0.000152234
0.000133417
0.000128272
0.000155802
0.0001282
0.000155704
0.00015234
0.000152226
0.000155744
0.000128187
0.000133353
0.000152094
0.000155859
0.000128213
0.000144711
0.000135173
9.91668e-05
0.000115784
0.000115737
0.000135158
0.000144801
0.000144838
0.00011573
0.000135174
9.91964e-05
0.00014477
0.000115761
0.000135112
0.000152123
0.000133295
0.000155813
0.000128132
0.0001558
0.000128162
0.000152209
0.000145163
0.000135576
9.92086e-05
0.000115841
0.000145243
0.00013556
0.000115835
0.000152117
0.000133384
0.000128231
0.000155465
0.000152188
0.000128232
0.000155411
0.000145096
0.000135547
9.9234e-05
0.000115753
0.000115778
0.000135535
0.000145153
0.000152101
0.00013337
0.000155544
0.000128281
0.000155493
0.000128267
0.000152176
0.000129324
0.000159054
0.000145721
0.00014572
0.000145766
0.00012931
0.000145764
0.000152203
0.000155746
0.000128113
0.00013332
0.000152183
0.000155753
0.000128113
0.000144974
0.000135237
9.91899e-05
0.000115779
0.000145046
0.000135209
0.000115763
0.000145077
0.000115776
0.000135179
9.9205e-05
0.000144925
0.000135202
0.000115803
0.000152224
0.000133385
0.000155735
0.000128249
0.000152208
0.000155713
0.000128105
0.000152043
0.000155494
0.000128237
0.000133422
0.000152044
0.000155504
0.00012826
0.000144859
0.000135472
9.92155e-05
0.000115876
0.000115835
0.000135451
0.000144918
0.00014483
0.000115829
0.000135426
9.9226e-05
0.000144762
0.000115876
0.00013545
0.000152124
0.000133402
0.000155594
0.000128232
0.00015551
0.000128229
0.000152115
0.000129436
0.000159548
0.000146043
0.000145967
0.000146064
0.000129296
0.000159384
0.000145939
0.000146125
0.000129276
0.000145911
0.000146094
0.000129336
0.000159529
0.000145961
0.000146127
0.000129321
0.000146003
0.000146162
0.000152212
0.000133502
0.000128364
0.000155822
0.000128344
0.000155814
0.000152235
0.000145124
0.000135232
0.00011586
9.92084e-05
0.000115882
0.000145098
0.000135225
0.000152278
0.000133503
0.000128333
0.000155759
0.000128357
0.000152199
0.00015579
0.000145134
0.000115884
9.92061e-05
0.000135364
0.000115857
0.000135279
0.000145179
0.00015225
0.000133421
0.000128314
0.000155838
0.000128282
0.000155831
0.000152306
0.000145159
0.000135535
0.000115826
9.92224e-05
0.000145142
0.00011584
0.000135552
0.000152308
0.000133513
0.000128312
0.000155841
0.000152236
0.000128318
0.000155749
0.000145176
0.000115827
9.91971e-05
0.000135553
0.000115823
0.000145311
0.000135535
0.000152183
0.000128331
0.000155856
0.000133514
0.000152277
0.000128337
0.000155867
0.000145216
0.000115867
0.000135443
9.92172e-05
0.000135478
0.000145188
0.000115904
0.000152195
0.000128286
0.000155859
0.000133415
0.000152289
0.000128278
0.000155867
0.000145213
0.000115835
0.000135541
9.9242e-05
0.000145124
0.000115877
0.000135554
0.00012937
0.000159429
0.00014604
0.000146194
0.000146169
0.000146006
0.000129367
0.000129354
0.000159474
0.000146038
0.000146179
0.000146068
0.000129349
0.000146208
0.000152295
0.000133397
0.000128219
0.000155866
0.000128198
0.000155785
0.000152304
0.000145133
0.000135287
0.00011583
9.9225e-05
0.000115883
0.000144982
0.000135285
0.000152282
0.000133424
0.00012818
0.000155724
0.000128251
0.00015226
0.000155769
0.000144903
0.000115899
9.91968e-05
0.000135312
0.000115871
0.000135263
0.000144977
0.000152221
0.000133404
0.000155894
0.00012813
0.000155871
0.000128097
0.000152122
0.000144874
0.00013514
0.000115758
9.91561e-05
0.00014477
0.000115792
0.000135116
0.000152245
0.00013342
0.000155826
0.000128103
0.000152214
0.000155905
0.000128099
0.000144853
0.000115786
9.91605e-05
0.000135236
0.000115746
0.000145001
0.000135153
0.000152305
0.000128103
0.000155798
0.000133389
0.000152255
0.00012817
0.000155855
0.000145055
0.000115852
0.000135397
9.92485e-05
0.000135432
0.000144981
0.000115871
0.000152236
0.000155846
0.000128182
0.000133352
0.000152215
0.000155902
0.000128225
0.000145015
0.000115728
0.000135311
9.91738e-05
0.000144952
0.000115806
0.000135345
0.000152197
0.000133334
0.000155556
0.000128263
0.000155549
0.000128247
0.000152087
0.000145174
0.000135541
0.000115751
9.91982e-05
0.000135554
0.000145085
0.000115787
0.000152166
0.000133401
0.000155497
0.000128253
0.000155552
0.000152176
0.000128259
0.000145101
0.000115793
9.91973e-05
0.000135549
0.000135534
0.000115767
0.000145211
0.000152044
0.000128115
0.000155576
0.000133353
0.000152005
0.000128135
0.000155584
0.000145019
0.000115819
0.000135561
9.92819e-05
0.000144984
0.00013557
0.000115861
0.000152173
0.000155563
0.000128248
0.000133349
0.000152141
0.000155617
0.00012825
0.000145246
0.000115731
0.000135538
9.92249e-05
0.000145144
0.000115769
0.000135552
0.000129247
0.000159117
0.000145899
0.000145692
0.000145653
0.000145864
0.000129202
0.00012926
0.000159201
0.000145905
0.000145716
0.000145925
0.000129231
0.000145676
0.000152133
0.000133295
0.000155722
0.000128196
0.000155619
0.000128145
0.00015218
0.000144996
0.000135478
0.000115844
9.9237e-05
0.000135497
0.000144937
0.000115872
0.000152178
0.000133303
0.000155567
0.000128219
0.000155622
0.000152112
0.000128224
0.000145009
0.000115859
9.92347e-05
0.000135502
0.000135482
0.000115818
0.000145081
0.000152333
0.000155797
0.000128331
0.000133489
0.000152338
0.000155847
0.000128352
0.000145159
0.000115826
0.00013523
9.91888e-05
0.000145125
0.000135307
0.000115808
0.000152081
0.000155643
0.000128134
0.000133227
0.000152234
0.000155691
0.0001281
0.000145153
0.000115827
0.000135495
9.92757e-05
0.000145034
0.000115849
0.000135514
0.000129404
0.000159578
0.000146007
0.00014583
0.000129395
0.000146054
0.000145877
0.00015745
0.000169378
0.000169283
0.000159518
0.000157476
0.000169394
0.000169334
0.000159239
0.000157486
0.000169425
0.00016938
0.000159334
0.00015752
0.000169438
0.000169423
0.000159097
0.000157566
0.000169439
0.000169481
0.000158791
0.000157626
0.000169447
0.000169534
0.000158891
0.000157695
0.000169464
0.00016956
0.000159213
0.000157736
0.000169461
0.000169579
0.000159243
0.000157774
0.000169475
0.000169562
0.000159398
0.000157809
0.000169492
0.000169541
0.000159322
0.00015785
0.000169509
0.000169534
0.000159447
0.000157866
0.000169501
0.000169519
0.000159385
0.000157858
0.000169511
0.000169506
0.000159323
0.000157874
0.000169541
0.000169505
0.000159245
0.000157897
0.000169551
0.000169522
0.000159526
0.000157906
0.000169543
0.000169525
0.000159633
0.000157911
0.000169551
0.000169535
0.000159404
0.000157918
0.000169575
0.000169541
0.000159488
0.000157891
0.000169576
0.00016951
0.00015915
0.000161172
0.000166427
0.000166338
0.000161253
0.000159565
0.00016949
0.000169447
0.000159507
0.000169497
0.000169302
0.000169356
0.000169459
0.000159227
0.000169254
0.0001694
0.000159539
0.000159421
0.000159491
0.000169496
0.000169466
0.000169526
0.000169513
0.000159478
0.000159533
0.000169504
0.000169311
0.000169543
0.000169383
0.000169459
0.000169383
0.000169488
0.000159235
0.000159326
0.000169429
0.000169322
0.000169487
0.00015927
0.000159282
0.00015951
0.000169525
0.000169486
0.000169531
0.000169527
0.000159543
0.000159321
0.000169542
0.000169373
0.000169538
0.000169414
0.000169466
0.000169414
0.0001695
0.000159331
0.000159484
0.000169438
0.000169369
0.000169476
0.000159462
0.00015935
0.000159323
0.000169522
0.000169494
0.00016953
0.000169496
0.000159131
0.000159309
0.000169513
0.000169407
0.000169525
0.000169422
0.000169487
0.000169431
0.000169514
0.000159183
0.000159283
0.000169454
0.000169413
0.000169479
0.000159321
0.000159133
0.000159404
0.000169514
0.000169483
0.000169529
0.00016949
0.000159118
0.000159052
0.000169495
0.000169409
0.000169516
0.000169415
0.000169502
0.000169435
0.000169513
0.000159272
0.000159231
0.000169459
0.000169471
0.000169482
0.000159082
0.000159065
0.000159117
0.000169507
0.000169468
0.000169517
0.000169501
0.000159025
0.000159275
0.000169498
0.000169418
0.000169522
0.000169444
0.000169498
0.000169444
0.000169503
0.00015924
0.000159412
0.000169456
0.000169521
0.000169492
0.000159162
0.000159132
0.00015917
0.000169492
0.000169492
0.000169506
0.000169508
0.00015899
0.000158965
0.000169498
0.000169439
0.000169511
0.000169453
0.00016949
0.000169458
0.000169515
0.000159322
0.000159317
0.0001695
0.00016957
0.000169531
0.000159274
0.000159047
0.000159371
0.000169494
0.000169482
0.000169508
0.000169496
0.000158873
0.00015907
0.000169504
0.000169453
0.000169513
0.000169454
0.000169503
0.000169457
0.000169536
0.00015918
0.000159427
0.000169516
0.000169575
0.000169525
0.000159259
0.000159378
0.000159322
0.000169494
0.000169471
0.000169512
0.00016949
0.000158975
0.000159131
0.000169486
0.000169438
0.000169533
0.000169473
0.000169519
0.000169478
0.000169534
0.000159279
0.000159116
0.000169499
0.000169565
0.000169523
0.000159404
0.000159181
0.000159494
0.000169492
0.00016948
0.000169507
0.000169498
0.000159032
0.000159371
0.000169528
0.000169487
0.000169542
0.000169486
0.00016952
0.000169484
0.000169549
0.000158998
0.000159297
0.000169503
0.000169541
0.000169519
0.000159387
0.000159327
0.000159509
0.000169498
0.00016949
0.000169517
0.000169515
0.000159259
0.000159494
0.000169555
0.000169494
0.00016955
0.000169501
0.000169532
0.000169503
0.000169541
0.000159174
0.000159125
0.000169497
0.000169535
0.00016952
0.000159541
0.000159398
0.000159328
0.000169497
0.000169512
0.000169528
0.00016953
0.000159357
0.000159331
0.000169542
0.000169476
0.000169558
0.000169495
0.000169562
0.0001695
0.000169577
0.000159011
0.000159027
0.000169529
0.000169523
0.000169556
0.000159395
0.000159293
0.000159405
0.00016953
0.000169503
0.000169549
0.000169515
0.000159182
0.000159438
0.000169533
0.000169482
0.000169541
0.000169493
0.000169576
0.000169508
0.000169577
0.000158928
0.000159116
0.000169542
0.00016951
0.000169569
0.000159393
0.000159369
0.00015911
0.00016954
0.000169494
0.000169547
0.000169519
0.0001593
0.000159466
0.000169526
0.000169476
0.000169532
0.00016947
0.000169562
0.000169531
0.000169583
0.000159006
0.000159135
0.000169554
0.000169506
0.000169575
0.00015935
0.000159131
0.00015919
0.000169528
0.000169512
0.000169538
0.000169529
0.000159457
0.000159308
0.000169505
0.000169446
0.000169507
0.000169463
0.000169575
0.000169548
0.000169595
0.000159033
0.00015939
0.000169559
0.000169519
0.000169567
0.000159532
0.000159143
0.000159241
0.000169516
0.000169512
0.000169534
0.000169538
0.000159283
0.000159507
0.00016949
0.000169448
0.000169502
0.000169457
0.000169584
0.000169533
0.000169605
0.000159267
0.000159243
0.000169557
0.000169523
0.000169579
0.000159659
0.000159086
0.000159229
0.000169508
0.000169521
0.000169527
0.000169537
0.000159336
0.000159445
0.000169474
0.000169446
0.000169494
0.000169451
0.00016959
0.000169543
0.000169604
0.000159133
0.000159321
0.000169563
0.000169531
0.00016959
0.000159396
0.000158911
0.000159328
0.000169511
0.000169516
0.000169527
0.000169538
0.000159195
0.000159296
0.000169484
0.000169428
0.00016949
0.000169445
0.000169609
0.000169565
0.000169625
0.00015916
0.000159301
0.000169585
0.000169538
0.00016961
0.000159754