/*--------------------------------*- C++ -*----------------------------------*\
| =========                 |                                                 |
| \\      /  F ield         | OpenFOAM: The Open Source CFD Toolbox           |
|  \\    /   O peration     | Version:  2312                                  |
|   \\  /    A nd           | Website:  www.openfoam.com                      |
|    \\/     M anipulation  |                                                 |
\*---------------------------------------------------------------------------*/
FoamFile
{
    version     2.0;
    format      ascii;
    arch        "LSB;label=32;scalar=64";
    class       volScalarField;
    location    "750";
    object      epsilon;
}
// * * * * * * * * * * * * * * * * * * * * * * * * * * * * * * * * * * * * * //

dimensions      [0 2 -3 0 0 0 0];

internalField   nonuniform List<scalar> 
42973
(
3.26831e-07
8.74465e-07
1.15967e-06
3.43013e-07
8.97981e-07
8.98117e-07
1.17906e-06
3.59417e-07
9.20487e-07
9.20623e-07
1.19752e-06
3.75992e-07
9.41975e-07
9.42113e-07
1.21508e-06
3.92623e-07
9.62433e-07
9.62565e-07
1.23173e-06
4.09256e-07
9.81887e-07
9.82038e-07
1.24756e-06
4.25776e-07
1.00031e-06
1.00045e-06
1.26251e-06
4.42173e-07
1.0178e-06
1.01793e-06
1.27673e-06
4.58307e-07
1.03427e-06
1.03442e-06
1.29015e-06
4.74159e-07
1.0498e-06
1.04992e-06
1.30282e-06
4.89636e-07
1.06435e-06
1.06453e-06
1.31474e-06
5.04672e-07
1.07799e-06
1.07813e-06
1.32592e-06
5.19292e-07
1.0909e-06
1.09099e-06
1.33659e-06
5.335e-07
1.10269e-06
1.10284e-06
1.34637e-06
5.46857e-07
1.11376e-06
1.11396e-06
1.3556e-06
5.60215e-07
1.12423e-06
1.12425e-06
1.36443e-06
5.72247e-07
1.13365e-06
1.13375e-06
1.37229e-06
5.84257e-07
1.14203e-06
1.14228e-06
1.37942e-06
5.95355e-07
1.15025e-06
1.15024e-06
1.38648e-06
6.05685e-07
1.15783e-06
1.15783e-06
1.393e-06
6.16635e-07
1.16467e-06
1.16499e-06
1.3995e-06
6.24792e-07
1.17017e-06
1.17031e-06
1.40367e-06
6.33958e-07
1.17595e-06
1.17572e-06
1.40944e-06
6.39112e-07
1.17532e-06
1.17506e-06
1.40598e-06
6.51383e-07
1.19089e-06
1.19222e-06
1.42722e-06
6.61042e-07
1.19766e-06
1.1979e-06
1.43447e-06
6.52363e-07
1.16653e-06
1.16453e-06
1.38734e-06
1.15952e-06
1.17343e-06
8.74636e-07
8.74581e-07
8.92372e-07
8.92307e-07
1.15951e-06
1.17342e-06
8.74423e-07
8.92159e-07
8.92423e-07
8.74736e-07
8.92199e-07
8.92459e-07
1.17353e-06
8.7453e-07
8.92337e-07
8.92257e-07
1.17358e-06
1.17892e-06
1.19208e-06
8.9815e-07
8.98086e-07
9.15116e-07
9.15045e-07
1.17891e-06
1.19207e-06
8.97937e-07
8.98202e-07
9.14902e-07
9.15163e-07
8.98241e-07
9.14949e-07
9.15208e-07
1.17902e-06
1.19218e-06
8.98034e-07
9.15087e-07
9.15007e-07
1.19223e-06
1.19737e-06
1.20984e-06
9.20653e-07
9.20582e-07
9.36873e-07
9.36791e-07
1.19736e-06
1.20983e-06
9.20438e-07
9.20698e-07
9.36661e-07
9.36915e-07
9.20747e-07
9.36705e-07
9.36962e-07
1.19747e-06
1.20994e-06
9.20541e-07
9.36848e-07
9.36762e-07
1.20999e-06
1.21494e-06
1.22668e-06
9.42141e-07
9.42059e-07
9.57571e-07
9.57491e-07
1.21493e-06
1.22667e-06
9.41928e-07
9.42182e-07
9.57358e-07
9.57613e-07
9.42231e-07
9.57414e-07
9.57655e-07
1.21504e-06
1.22677e-06
9.42026e-07
9.57552e-07
9.57455e-07
1.22682e-06
1.23159e-06
1.24269e-06
9.62591e-07
9.6251e-07
9.77283e-07
9.7719e-07
1.23159e-06
1.24267e-06
9.62375e-07
9.62625e-07
9.77073e-07
9.77321e-07
9.62676e-07
9.77121e-07
9.77368e-07
1.23169e-06
1.24278e-06
9.62472e-07
9.7727e-07
9.77172e-07
1.24283e-06
1.24743e-06
1.25782e-06
9.82056e-07
9.81955e-07
9.95956e-07
9.95859e-07
1.2474e-06
1.2578e-06
9.81847e-07
9.8209e-07
9.95746e-07
9.95991e-07
9.82138e-07
9.95798e-07
9.96034e-07
1.24752e-06
1.25792e-06
9.8194e-07
9.9594e-07
9.95832e-07
1.25796e-06
1.26238e-06
1.27218e-06
1.00046e-06
1.00037e-06
1.01367e-06
1.01358e-06
1.26236e-06
1.27218e-06
1.00025e-06
1.0005e-06
1.01346e-06
1.0137e-06
1.00054e-06
1.01352e-06
1.01375e-06
1.26248e-06
1.27228e-06
1.00034e-06
1.01366e-06
1.01356e-06
1.27233e-06
1.2766e-06
1.28579e-06
1.01796e-06
1.01786e-06
1.0304e-06
1.03029e-06
1.27659e-06
1.28577e-06
1.01775e-06
1.01797e-06
1.03018e-06
1.03042e-06
1.01803e-06
1.03025e-06
1.03047e-06
1.27669e-06
1.28587e-06
1.01784e-06
1.03039e-06
1.03028e-06
1.28592e-06
1.29003e-06
1.29861e-06
1.03442e-06
1.03432e-06
1.04616e-06
1.04605e-06
1.29e-06
1.29859e-06
1.03422e-06
1.03446e-06
1.04595e-06
1.04616e-06
1.0345e-06
1.04601e-06
1.04622e-06
1.29011e-06
1.2987e-06
1.0343e-06
1.04613e-06
1.04602e-06
1.29874e-06
1.3027e-06
1.31068e-06
1.04995e-06
1.04985e-06
1.06096e-06
1.06086e-06
1.30268e-06
1.31067e-06
1.04974e-06
1.04995e-06
1.06076e-06
1.06102e-06
1.05002e-06
1.06083e-06
1.06104e-06
1.30278e-06
1.31079e-06
1.04982e-06
1.06098e-06
1.06086e-06
1.31082e-06
1.31461e-06
1.32202e-06
1.06451e-06
1.0644e-06
1.07482e-06
1.0747e-06
1.3146e-06
1.32197e-06
1.0643e-06
1.06456e-06
1.0746e-06
1.0748e-06
1.06457e-06
1.07466e-06
1.07487e-06
1.31472e-06
1.32208e-06
1.06439e-06
1.07478e-06
1.07468e-06
1.32212e-06
1.32583e-06
1.33279e-06
1.07817e-06
1.07803e-06
1.08785e-06
1.08774e-06
1.32577e-06
1.33277e-06
1.07796e-06
1.07815e-06
1.08765e-06
1.08787e-06
1.07822e-06
1.08772e-06
1.08794e-06
1.32587e-06
1.33285e-06
1.07804e-06
1.08785e-06
1.08775e-06
1.33294e-06
1.33644e-06
1.3428e-06
1.09096e-06
1.09092e-06
1.10007e-06
1.09997e-06
1.33646e-06
1.34285e-06
1.09075e-06
1.09101e-06
1.09985e-06
1.10004e-06
1.09108e-06
1.09994e-06
1.10008e-06
1.33653e-06
1.34288e-06
1.09087e-06
1.10001e-06
1.09988e-06
1.34289e-06
1.3463e-06
1.35199e-06
1.10292e-06
1.10275e-06
1.11106e-06
1.11096e-06
1.34631e-06
1.3519e-06
1.10272e-06
1.10288e-06
1.11089e-06
1.1112e-06
1.10289e-06
1.11096e-06
1.11122e-06
1.34637e-06
1.35216e-06
1.10271e-06
1.11122e-06
1.11108e-06
1.35216e-06
1.35541e-06
1.36118e-06
1.11383e-06
1.11376e-06
1.12204e-06
1.12183e-06
1.35535e-06
1.36113e-06
1.11364e-06
1.11393e-06
1.12182e-06
1.12187e-06
1.114e-06
1.12178e-06
1.12191e-06
1.35558e-06
1.36108e-06
1.11385e-06
1.12178e-06
1.1217e-06
1.36118e-06
1.36447e-06
1.36884e-06
1.12449e-06
1.12427e-06
1.13121e-06
1.13127e-06
1.36439e-06
1.36898e-06
1.12429e-06
1.12433e-06
1.13097e-06
1.13132e-06
1.12439e-06
1.13131e-06
1.13152e-06
1.36433e-06
1.36905e-06
1.12417e-06
1.13138e-06
1.13132e-06
1.36916e-06
1.37192e-06
1.37658e-06
1.13353e-06
1.13363e-06
1.1404e-06
1.14013e-06
1.37214e-06
1.37647e-06
1.13329e-06
1.13369e-06
1.14026e-06
1.14041e-06
1.13381e-06
1.1401e-06
1.1402e-06
1.37222e-06
1.37668e-06
1.13363e-06
1.14035e-06
1.14005e-06
1.37647e-06
1.37963e-06
1.38326e-06
1.1424e-06
1.14205e-06
1.14831e-06
1.14818e-06
1.37937e-06
1.38311e-06
1.14226e-06
1.14234e-06
1.14809e-06
1.14819e-06
1.14222e-06
1.14818e-06
1.14851e-06
1.37962e-06
1.38314e-06
1.14206e-06
1.14821e-06
1.14833e-06
1.38347e-06
1.38619e-06
1.38994e-06
1.15036e-06
1.1503e-06
1.15577e-06
1.15591e-06
1.38619e-06
1.39026e-06
1.15014e-06
1.15024e-06
1.15553e-06
1.15586e-06
1.15049e-06
1.15585e-06
1.15581e-06
1.38611e-06
1.39013e-06
1.15032e-06
1.15582e-06
1.15562e-06
1.39009e-06
1.3928e-06
1.39672e-06
1.15758e-06
1.15783e-06
1.16372e-06
1.16344e-06
1.39317e-06
1.39664e-06
1.15733e-06
1.15782e-06
1.16356e-06
1.16377e-06
1.15785e-06
1.16355e-06
1.16386e-06
1.39311e-06
1.39694e-06
1.15764e-06
1.16378e-06
1.16366e-06
1.39693e-06
1.39959e-06
1.40139e-06
1.16528e-06
1.16463e-06
1.16852e-06
1.16812e-06
1.39915e-06
1.40066e-06
1.16516e-06
1.16507e-06
1.1684e-06
1.16841e-06
1.16501e-06
1.16805e-06
1.16816e-06
1.39955e-06
1.401e-06
1.16484e-06
1.16828e-06
1.16799e-06
1.40083e-06
1.40385e-06
1.40599e-06
1.17004e-06
1.1702e-06
1.17484e-06
1.17557e-06
1.40359e-06
1.40756e-06
1.16988e-06
1.17034e-06
1.17464e-06
1.17534e-06
1.1702e-06
1.17565e-06
1.1757e-06
1.40379e-06
1.40724e-06
1.17003e-06
1.17548e-06
1.17553e-06
1.40749e-06
1.40799e-06
1.40477e-06
1.17544e-06
1.1759e-06
1.17553e-06
1.17534e-06
1.40953e-06
1.40427e-06
1.17524e-06
1.1756e-06
1.17528e-06
1.17495e-06
1.17604e-06
1.17525e-06
1.17541e-06
1.40917e-06
1.40361e-06
1.17586e-06
1.17495e-06
1.17523e-06
1.40424e-06
1.40698e-06
1.42044e-06
1.17585e-06
1.17545e-06
1.18633e-06
1.18499e-06
1.40592e-06
1.41826e-06
1.17556e-06
1.17508e-06
1.18612e-06
1.18592e-06
1.17551e-06
1.18481e-06
1.18571e-06
1.40528e-06
1.41946e-06
1.17534e-06
1.18579e-06
1.18574e-06
1.41977e-06
1.42711e-06
1.43309e-06
1.19187e-06
1.19093e-06
1.19805e-06
1.19822e-06
1.42562e-06
1.43453e-06
1.19179e-06
1.19233e-06
1.19805e-06
1.19931e-06
1.19182e-06
1.19847e-06
1.19846e-06
1.42754e-06
1.43633e-06
1.19185e-06
1.19919e-06
1.19822e-06
1.43399e-06
1.43374e-06
1.39241e-06
1.19714e-06
1.19742e-06
1.17498e-06
1.17504e-06
1.4353e-06
1.39254e-06
1.19711e-06
1.19807e-06
1.17468e-06
1.17278e-06
1.19724e-06
1.17506e-06
1.17306e-06
1.43684e-06
1.38802e-06
1.19687e-06
1.17249e-06
1.17235e-06
1.38906e-06
1.39041e-06
1.16663e-06
1.16651e-06
1.39032e-06
1.16636e-06
1.16459e-06
1.16534e-06
1.38588e-06
1.1649e-06
4.09739e-06
9.16493e-06
4.09424e-06
9.1718e-06
1.84334e-05
1.84436e-05
4.09746e-06
9.16623e-06
4.0943e-06
9.17311e-06
3.26845e-07
3.26941e-07
3.38947e-07
3.38957e-07
3.3905e-07
3.39053e-07
2.11724e-06
3.47872e-06
5.68224e-07
8.80442e-07
2.11151e-06
3.4821e-06
5.74165e-07
1.8445e-05
2.1173e-06
5.68362e-07
8.80583e-07
2.11157e-06
5.74254e-07
3.48221e-06
5.46416e-06
5.46587e-06
1.1639e-06
5.46717e-06
5.46889e-06
4.10507e-06
9.18125e-06
4.10195e-06
9.18823e-06
1.84559e-05
1.84665e-05
4.10514e-06
9.18256e-06
4.10202e-06
9.18954e-06
3.43023e-07
3.43117e-07
3.4312e-07
3.55295e-07
3.55306e-07
3.55404e-07
3.55409e-07
2.1311e-06
3.48979e-06
5.91723e-07
9.03699e-07
2.12568e-06
3.49302e-06
5.97583e-07
1.84573e-05
1.84679e-05
2.13117e-06
5.91861e-07
3.48981e-06
9.03839e-07
2.12573e-06
5.97672e-07
3.49313e-06
5.47347e-06
5.47518e-06
1.18302e-06
5.47646e-06
5.47818e-06
4.11271e-06
9.19786e-06
4.1096e-06
9.20493e-06
1.84792e-05
1.84902e-05
4.11277e-06
9.19917e-06
4.10967e-06
9.20624e-06
3.59427e-07
3.59526e-07
3.59532e-07
3.71845e-07
3.71853e-07
3.71958e-07
3.71961e-07
2.14429e-06
3.50045e-06
6.14873e-07
9.25964e-07
2.13913e-06
3.50357e-06
6.20643e-07
1.84807e-05
1.84916e-05
2.14435e-06
6.15012e-07
3.50048e-06
9.26106e-07
2.13919e-06
6.20734e-07
3.50367e-06
5.48275e-06
5.48446e-06
1.20123e-06
5.48571e-06
5.48743e-06
4.12018e-06
9.2146e-06
4.11715e-06
9.22169e-06
1.85033e-05
1.85145e-05
4.12025e-06
9.21592e-06
4.11722e-06
9.22301e-06
3.75998e-07
3.76104e-07
3.7611e-07
3.88461e-07
3.88474e-07
3.88582e-07
3.88579e-07
2.15676e-06
3.51069e-06
6.37595e-07
9.47185e-07
2.15191e-06
3.51365e-06
6.43227e-07
1.85048e-05
1.85159e-05
2.15681e-06
6.37736e-07
3.51071e-06
9.47325e-07
2.15196e-06
6.43318e-07
3.51374e-06
5.49185e-06
5.49356e-06
1.21851e-06
5.49474e-06
5.49646e-06
4.12756e-06
9.23147e-06
4.12456e-06
9.23864e-06
1.85281e-05
1.85395e-05
4.12762e-06
9.23279e-06
4.12462e-06
9.23996e-06
3.92635e-07
3.92743e-07
3.92741e-07
4.05099e-07
4.05108e-07
4.0522e-07
4.05223e-07
2.16858e-06
3.52052e-06
6.59768e-07
9.67391e-07
2.16398e-06
3.52336e-06
6.65252e-07
1.85295e-05
1.85409e-05
2.16863e-06
6.59907e-07
3.52053e-06
9.67524e-07
2.16403e-06
6.65341e-07
3.52346e-06
5.50085e-06
5.50256e-06
1.23493e-06
5.50372e-06
5.50546e-06
4.13475e-06
9.24842e-06
4.13184e-06
9.25556e-06
1.85532e-05
1.85649e-05
4.13483e-06
9.24976e-06
4.13192e-06
9.2569e-06
4.09259e-07
4.09381e-07
4.09379e-07
4.21667e-07
4.21667e-07
4.21783e-07
4.21783e-07
2.17974e-06
3.52994e-06
6.81332e-07
9.86587e-07
2.17542e-06
3.53263e-06
6.86647e-07
1.85548e-05
1.85663e-05
2.1798e-06
6.81484e-07
3.52997e-06
9.86737e-07
2.17548e-06
6.86751e-07
3.53273e-06
5.5097e-06
5.51141e-06
1.2505e-06
5.51247e-06
5.51419e-06
4.14179e-06
9.26537e-06
4.13893e-06
9.27257e-06
1.8579e-05
1.85908e-05
4.14185e-06
9.26669e-06
4.13899e-06
9.27389e-06
4.25782e-07
4.25903e-07
4.25897e-07
4.38079e-07
4.38093e-07
4.38212e-07
4.38212e-07
2.19029e-06
3.53896e-06
7.02169e-07
1.00477e-06
2.18621e-06
3.54156e-06
7.07301e-07
1.85805e-05
1.85922e-05
2.19034e-06
7.02309e-07
3.53896e-06
1.00491e-06
2.18625e-06
7.07395e-07
3.54164e-06
5.51833e-06
5.52004e-06
1.26523e-06
5.52112e-06
5.52285e-06
4.14876e-06
9.28247e-06
4.14595e-06
9.28965e-06
1.86052e-05
1.86171e-05
4.14881e-06
9.2838e-06
4.14599e-06
9.29098e-06
4.42176e-07
4.42295e-07
4.42298e-07
4.54299e-07
4.54307e-07
4.54423e-07
4.54427e-07
2.20029e-06
3.54763e-06
7.22297e-07
1.02201e-06
2.19645e-06
3.55014e-06
7.27232e-07
1.86067e-05
1.86185e-05
2.20035e-06
7.22439e-07
3.54769e-06
1.02214e-06
2.1965e-06
7.27327e-07
3.55024e-06
5.52698e-06
5.52871e-06
1.27924e-06
5.52967e-06
5.53141e-06
4.15545e-06
9.29941e-06
4.15274e-06
9.30656e-06
1.86315e-05
1.86436e-05
4.15554e-06
9.30076e-06
4.1528e-06
9.30792e-06
4.58315e-07
4.58446e-07
4.5844e-07
4.70236e-07
4.70226e-07
4.70355e-07
4.70347e-07
2.20968e-06
3.5559e-06
7.41613e-07
1.03824e-06
2.20609e-06
3.55832e-06
7.46337e-07
1.86331e-05
1.8645e-05
2.20972e-06
7.41758e-07
3.556e-06
1.03839e-06
2.20613e-06
7.46446e-07
3.55843e-06
5.53532e-06
5.53702e-06
1.29241e-06
5.53799e-06
5.5397e-06
4.16207e-06
9.31638e-06
4.15941e-06
9.32346e-06
1.86583e-05
1.86703e-05
4.16211e-06
9.31772e-06
4.15947e-06
9.32478e-06
4.74156e-07
4.74268e-07
4.74275e-07
4.85806e-07
4.85814e-07
4.85959e-07
4.85944e-07
2.21854e-06
3.56393e-06
7.60073e-07
1.05355e-06
2.21517e-06
3.56622e-06
7.64594e-07
1.86597e-05
1.86717e-05
2.21858e-06
7.6019e-07
3.56397e-06
1.05366e-06
2.2152e-06
7.64675e-07
3.56628e-06
5.5436e-06
5.54533e-06
1.30488e-06
5.54616e-06
5.5479e-06
4.16836e-06
9.33308e-06
4.16582e-06
9.34015e-06
1.86849e-05
1.8697e-05
4.16843e-06
9.33442e-06
4.16589e-06
9.3415e-06
4.89634e-07
4.89799e-07
4.89767e-07
5.00939e-07
5.00941e-07
5.01052e-07
5.01055e-07
2.22677e-06
3.57147e-06
7.77648e-07
1.06784e-06
2.22366e-06
3.5736e-06
7.819e-07
1.86865e-05
1.86985e-05
2.22686e-06
7.77811e-07
3.57159e-06
1.068e-06
2.22374e-06
7.82028e-07
3.57374e-06
5.55147e-06
5.55321e-06
1.31655e-06
5.55393e-06
5.55569e-06
4.17465e-06
9.34993e-06
4.1721e-06
9.35702e-06
1.8712e-05
1.87244e-05
4.1747e-06
9.35125e-06
4.17213e-06
9.35836e-06
5.04667e-07
5.04782e-07
5.04795e-07
5.15707e-07
5.15667e-07
5.15829e-07
5.1583e-07
2.23464e-06
3.57873e-06
7.94293e-07
1.08128e-06
2.23163e-06
3.58089e-06
7.98343e-07
1.87134e-05
1.87258e-05
2.23466e-06
7.94413e-07
3.57874e-06
1.08143e-06
2.23169e-06
7.98457e-07
3.58089e-06
5.55943e-06
5.56116e-06
1.32761e-06
5.56205e-06
5.56379e-06
4.18078e-06
9.36655e-06
4.17836e-06
9.37343e-06
1.87394e-05
1.87513e-05
4.1808e-06
9.36791e-06
4.1784e-06
9.37476e-06
5.19306e-07
5.19434e-07
5.19435e-07
5.3001e-07
5.30056e-07
5.30136e-07
5.30129e-07
2.24211e-06
3.586e-06
8.10103e-07
1.09404e-06
2.23935e-06
3.58799e-06
8.13992e-07
1.87408e-05
1.87526e-05
2.24207e-06
8.10199e-07
3.58592e-06
1.09408e-06
2.23933e-06
8.14027e-07
3.58787e-06
5.5673e-06
5.56899e-06
1.33803e-06
5.56955e-06
5.57124e-06
4.18632e-06
9.38276e-06
4.18416e-06
9.3895e-06
1.87656e-05
1.87777e-05
4.18649e-06
9.38412e-06
4.1842e-06
9.39095e-06
5.33458e-07
5.33589e-07
5.33566e-07
5.43518e-07
5.43509e-07
5.43742e-07
5.43695e-07
2.24863e-06
3.59229e-06
8.24872e-07
1.10542e-06
2.24627e-06
3.59388e-06
8.28327e-07
1.87674e-05
1.87796e-05
2.24882e-06
8.25006e-07
3.59236e-06
1.10565e-06
2.24631e-06
8.285e-07
3.59418e-06
5.57432e-06
5.57606e-06
1.34754e-06
5.5766e-06
5.57841e-06
4.19236e-06
9.39913e-06
4.18978e-06
9.40641e-06
1.87934e-05
1.88061e-05
4.19237e-06
9.40052e-06
4.18994e-06
9.40766e-06
5.46908e-07
5.47107e-07
5.4709e-07
5.5699e-07
5.56901e-07
5.56978e-07
5.56985e-07
2.25533e-06
3.5986e-06
8.38703e-07
1.11654e-06
2.25274e-06
3.60075e-06
8.42142e-07
1.87948e-05
1.88069e-05
2.25535e-06
8.38897e-07
3.59878e-06
1.11663e-06
2.25291e-06
8.42245e-07
3.60063e-06
5.58198e-06
5.58375e-06
1.35678e-06
5.58452e-06
5.58622e-06
4.19756e-06
9.41551e-06
4.19587e-06
9.42139e-06
1.882e-05
1.88316e-05
4.19757e-06
9.41676e-06
4.19576e-06
9.42273e-06
5.60086e-07
5.60182e-07
5.60175e-07
5.69219e-07
5.6938e-07
5.69462e-07
5.69532e-07
2.26126e-06
3.60503e-06
8.51809e-07
1.12662e-06
2.25929e-06
3.60635e-06
8.54902e-07
1.88213e-05
1.88331e-05
2.26115e-06
8.51843e-07
3.6047e-06
1.12666e-06
2.2591e-06
8.54927e-07
3.60621e-06
5.58923e-06
5.59084e-06
1.36525e-06
5.5912e-06
5.5929e-06
4.20267e-06
9.43012e-06
4.2004e-06
9.43717e-06
1.88466e-05
1.88581e-05
4.20271e-06
9.43147e-06
4.20039e-06
9.43856e-06
5.72448e-07
5.72525e-07
5.72572e-07
5.81432e-07
5.81301e-07
5.8155e-07
5.81366e-07
2.26665e-06
3.61043e-06
8.63797e-07
1.13594e-06
2.26468e-06
3.61204e-06
8.66693e-07
1.88482e-05
1.88599e-05
2.2668e-06
8.63902e-07
3.61047e-06
1.13608e-06
2.26476e-06
8.66825e-07
3.61217e-06
5.59575e-06
5.59756e-06
1.37295e-06
5.59759e-06
5.5994e-06
4.20697e-06
9.44598e-06
4.20556e-06
9.45185e-06
1.88713e-05
1.88836e-05
4.20731e-06
9.44758e-06
4.20586e-06
9.45337e-06
5.8406e-07
5.84334e-07
5.84186e-07
5.92491e-07
5.9248e-07
5.92578e-07
5.92735e-07
2.27111e-06
3.61501e-06
8.74679e-07
1.14399e-06
2.26963e-06
3.61607e-06
8.77273e-07
1.88733e-05
1.88847e-05
2.27121e-06
8.74896e-07
3.6153e-06
1.14419e-06
2.26976e-06
8.77423e-07
3.61626e-06
5.60153e-06
5.60324e-06
1.37989e-06
5.60373e-06
5.60546e-06
4.21251e-06
9.461e-06
4.21014e-06
9.46808e-06
1.89004e-05
1.89132e-05
4.21214e-06
9.46206e-06
4.2099e-06
9.46915e-06
5.95344e-07
5.95404e-07
5.95538e-07
6.032e-07
6.03315e-07
6.03361e-07
6.03274e-07
2.27628e-06
3.62038e-06
8.85153e-07
1.15219e-06
2.27441e-06
3.62219e-06
8.87607e-07
1.89007e-05
1.89139e-05
2.27625e-06
8.85215e-07
3.62009e-06
1.15215e-06
2.2744e-06
8.87647e-07
3.62187e-06
5.60882e-06
5.61057e-06
1.38693e-06
5.61076e-06
5.6125e-06
4.21751e-06
9.47681e-06
4.21571e-06
9.48335e-06
1.89276e-05
1.89383e-05
4.21778e-06
9.47827e-06
4.21571e-06
9.4848e-06
6.05945e-07
6.05992e-07
6.05932e-07
6.14038e-07
6.14061e-07
6.14269e-07
6.14286e-07
2.28135e-06
3.62631e-06
8.94627e-07
1.15995e-06
2.27953e-06
3.628e-06
8.97248e-07
1.89295e-05
1.8941e-05
2.28124e-06
8.94644e-07
3.62611e-06
1.15998e-06
2.27943e-06
8.97254e-07
3.62794e-06
5.616e-06
5.6176e-06
1.39357e-06
5.61884e-06
5.6205e-06
4.22098e-06
9.49225e-06
4.22032e-06
9.49726e-06
1.89494e-05
1.8961e-05
4.22162e-06
9.49383e-06
4.22074e-06
9.49921e-06
6.16356e-07
6.16646e-07
6.16629e-07
6.22763e-07
6.22357e-07
6.22625e-07
6.22496e-07
2.28422e-06
3.63009e-06
9.03809e-07
1.16552e-06
2.28395e-06
3.62986e-06
9.0522e-07
1.89525e-05
1.89629e-05
2.28436e-06
9.03998e-07
3.63053e-06
1.16586e-06
2.28398e-06
9.0543e-07
3.63041e-06
5.62087e-06
5.62269e-06
1.3989e-06
5.62108e-06
5.62298e-06
4.22641e-06
9.50469e-06
4.22365e-06
9.5099e-06
1.89799e-05
1.89881e-05
4.22603e-06
9.50622e-06
4.22397e-06
9.5109e-06
6.24757e-07
6.24952e-07
6.24804e-07
6.31874e-07
6.32542e-07
6.32517e-07
6.32526e-07
2.28903e-06
3.63491e-06
9.10536e-07
1.17254e-06
2.28636e-06
3.63832e-06
9.13134e-07
1.898e-05
1.8988e-05
2.28923e-06
9.10681e-07
3.63488e-06
1.17257e-06
2.28656e-06
9.13205e-07
3.63824e-06
5.63035e-06
5.63218e-06
1.40454e-06
5.634e-06
5.63572e-06
4.22223e-06
9.50982e-06
4.22707e-06
9.50822e-06
1.89861e-05
1.89865e-05
4.22201e-06
9.51085e-06
4.22659e-06
9.50909e-06
6.3452e-07
6.34428e-07
6.34554e-07
6.37952e-07
6.38e-07
6.37762e-07
6.38087e-07
2.28683e-06
3.63829e-06
9.18915e-07
1.17588e-06
2.29047e-06
3.63049e-06
9.19459e-07
1.89856e-05
1.89849e-05
2.28665e-06
9.1884e-07
3.63814e-06
1.17562e-06
2.29058e-06
9.19341e-07
3.62983e-06
5.62938e-06
5.63071e-06
1.40643e-06
5.61817e-06
5.61946e-06
4.22725e-06
9.52259e-06
4.21777e-06
9.55055e-06
1.90177e-05
1.90666e-05
4.22623e-06
9.52248e-06
4.21696e-06
9.55154e-06
6.39007e-07
6.38829e-07
6.39092e-07
6.46974e-07
6.46306e-07
6.46986e-07
6.46745e-07
2.28552e-06
3.62557e-06
9.20252e-07
1.17613e-06
2.28179e-06
3.63436e-06
9.21415e-07
1.90169e-05
1.90708e-05
2.2852e-06
9.20191e-07
3.62412e-06
1.17603e-06
2.2812e-06
9.21473e-07
3.63359e-06
5.61693e-06
5.61858e-06
1.40732e-06
5.63911e-06
5.64185e-06
4.26969e-06
9.59035e-06
4.25739e-06
9.59639e-06
1.91153e-05
1.91162e-05
4.27244e-06
9.59372e-06
4.25913e-06
9.59977e-06
6.50741e-07
6.51729e-07
6.51319e-07
6.60637e-07
6.60753e-07
6.61005e-07
6.60706e-07
2.32095e-06
3.66969e-06
9.33674e-07
1.1957e-06
2.31008e-06
3.68135e-06
9.38453e-07
1.91273e-05
1.91268e-05
2.3226e-06
9.34469e-07
3.67278e-06
1.19698e-06
2.31159e-06
9.39129e-07
3.68576e-06
5.68435e-06
5.6876e-06
1.4329e-06
5.69702e-06
5.69933e-06
4.22061e-06
9.54554e-06
4.26145e-06
9.48945e-06
1.90233e-05
1.89542e-05
4.21989e-06
9.54685e-06
4.2634e-06
9.49022e-06
6.61213e-07
6.61173e-07
6.60947e-07
6.55972e-07
6.56116e-07
6.54829e-07
6.54984e-07
2.29104e-06
3.67405e-06
9.41935e-07
1.19387e-06
2.31793e-06
3.63288e-06
9.40126e-07
1.90146e-05
1.89355e-05
2.28719e-06
9.4182e-07
3.67437e-06
1.19259e-06
2.31698e-06
9.39353e-07
3.6267e-06
5.66564e-06
5.66402e-06
1.4177e-06
5.60516e-06
5.60376e-06
9.43265e-06
4.15529e-06
1.89126e-05
4.13941e-06
9.4327e-06
4.15301e-06
6.52531e-07
6.51506e-07
6.51707e-07
3.56845e-06
9.21579e-07
2.2407e-06
1.89011e-05
1.89884e-05
2.22679e-06
9.20535e-07
3.55988e-06
1.16047e-06
2.23692e-06
9.17378e-07
3.54907e-06
5.53046e-06
5.53199e-06
1.3749e-06
5.52402e-06
5.52736e-06
1.84313e-05
1.84415e-05
1.84344e-05
1.84446e-05
5.46411e-06
5.46585e-06
1.16375e-06
5.46709e-06
5.46889e-06
1.84528e-05
1.84425e-05
1.84559e-05
1.84456e-05
1.16934e-06
5.47173e-06
5.47354e-06
5.46879e-06
5.47054e-06
4.09734e-06
9.16506e-06
4.09418e-06
9.17192e-06
2.11718e-06
3.47857e-06
5.68236e-07
8.80613e-07
2.11144e-06
3.48202e-06
5.74139e-07
2.11713e-06
3.47898e-06
5.68206e-07
8.80554e-07
2.1114e-06
3.48238e-06
5.74108e-07
4.09811e-06
9.17998e-06
9.17306e-06
4.10124e-06
4.09805e-06
9.1801e-06
9.17319e-06
4.10119e-06
2.11862e-06
8.86527e-07
3.48753e-06
5.85894e-07
3.48417e-06
5.80027e-07
2.12421e-06
2.11857e-06
8.86464e-07
3.48789e-06
5.8586e-07
3.48458e-06
5.79995e-07
2.12415e-06
5.4656e-06
5.46423e-06
1.16374e-06
5.46847e-06
5.46709e-06
1.84314e-05
1.84417e-05
1.84549e-05
1.84445e-05
1.16934e-06
5.47312e-06
5.47174e-06
5.47028e-06
5.46891e-06
1.8453e-05
1.84426e-05
2.11722e-06
3.47909e-06
5.68219e-07
8.80401e-07
2.11148e-06
3.48257e-06
5.74124e-07
4.0974e-06
9.17271e-06
2.11717e-06
8.8067e-07
5.742e-07
3.48253e-06
4.09817e-06
9.18129e-06
9.17437e-06
4.10131e-06
2.11866e-06
8.86315e-07
3.48809e-06
5.85878e-07
3.48469e-06
5.80013e-07
2.12424e-06
4.09811e-06
9.1809e-06
9.17397e-06
4.10125e-06
2.11862e-06
8.8658e-07
5.85951e-07
3.48804e-06
5.80087e-07
3.48465e-06
2.12419e-06
4.09727e-06
9.1653e-06
4.09469e-06
9.17217e-06
2.11722e-06
5.68331e-07
3.47869e-06
8.80708e-07
2.11149e-06
5.74233e-07
3.48214e-06
4.09737e-06
9.1655e-06
4.09432e-06
9.17238e-06
2.11869e-06
8.86353e-07
3.48762e-06
5.85915e-07
3.48431e-06
5.80013e-07
2.12426e-06
4.09856e-06
9.18035e-06
9.17344e-06
4.10113e-06
2.11866e-06
8.86617e-07
5.85983e-07
3.48765e-06
5.80119e-07
3.48428e-06
2.12425e-06
4.09818e-06
9.18056e-06
9.17364e-06
4.10123e-06
1.16385e-06
5.46872e-06
5.46729e-06
1.84426e-05
1.84563e-05
1.8446e-05
1.16944e-06
5.47337e-06
5.47194e-06
5.47035e-06
5.46898e-06
1.84539e-05
1.84435e-05
2.11721e-06
5.68322e-07
3.47916e-06
8.80507e-07
2.11157e-06
5.74213e-07
3.48263e-06
4.09734e-06
4.09472e-06
9.17263e-06
4.09725e-06
9.16621e-06
4.09468e-06
9.17308e-06
2.11874e-06
8.86489e-07
5.86003e-07
3.48772e-06
5.80153e-07
3.48434e-06
2.12432e-06
2.11874e-06
8.86411e-07
5.8596e-07
3.48813e-06
5.8011e-07
3.48475e-06
2.12423e-06
4.09858e-06
9.18082e-06
9.1739e-06
4.10119e-06
4.09854e-06
9.18127e-06
9.17434e-06
4.1011e-06
1.84333e-05
1.84435e-05
1.84355e-05
1.84457e-05
1.16949e-06
5.47181e-06
5.47354e-06
5.46883e-06
5.47054e-06
1.84548e-05
1.84444e-05
1.8457e-05
1.84466e-05
1.84538e-05
1.84644e-05
1.84569e-05
1.84675e-05
5.47342e-06
5.47517e-06
1.18287e-06
5.47636e-06
5.47817e-06
1.84762e-05
1.84654e-05
1.84793e-05
1.84685e-05
1.18826e-06
5.481e-06
5.4828e-06
5.47805e-06
5.4798e-06
4.10502e-06
9.18138e-06
4.10189e-06
9.18835e-06
2.13105e-06
3.48964e-06
5.91737e-07
9.03865e-07
2.12561e-06
3.49293e-06
5.97556e-07
2.13099e-06
3.49005e-06
5.91704e-07
9.03799e-07
2.12556e-06
3.49329e-06
5.97522e-07
4.10577e-06
9.19656e-06
9.18952e-06
4.1089e-06
4.10572e-06
9.19667e-06
9.18965e-06
4.10884e-06
2.13242e-06
9.0952e-07
3.49825e-06
6.09129e-07
3.495e-06
6.03353e-07
2.13772e-06
2.13237e-06
9.09452e-07
3.4986e-06
6.09092e-07
3.49542e-06
6.03318e-07
2.13766e-06
5.47491e-06
5.47355e-06
1.18286e-06
5.47775e-06
5.47638e-06
1.84539e-05
1.84646e-05
1.84783e-05
1.84674e-05
1.18825e-06
5.48239e-06
5.48101e-06
5.47955e-06
5.47819e-06
1.84764e-05
1.84655e-05
2.13108e-06
3.49016e-06
5.91719e-07
9.03654e-07
2.12565e-06
3.49349e-06
5.9754e-07
4.10508e-06
9.18217e-06
4.10196e-06
9.18915e-06
2.13103e-06
5.91794e-07
3.49012e-06
9.03919e-07
2.12561e-06
5.97615e-07
3.49345e-06
4.10584e-06
9.19787e-06
9.19083e-06
4.10897e-06
2.13246e-06
9.09309e-07
3.4988e-06
6.09112e-07
3.49553e-06
6.03338e-07
2.13775e-06
4.10578e-06
9.19748e-06
9.19044e-06
4.10891e-06
2.13242e-06
9.09571e-07
6.09186e-07
3.49876e-06
6.03413e-07
3.49549e-06
2.1377e-06
4.10496e-06
9.18164e-06
4.1024e-06
9.18861e-06
2.13109e-06
5.91828e-07
3.48976e-06
9.03957e-07
2.12565e-06
5.9765e-07
3.49306e-06
4.10507e-06
9.18184e-06
4.10203e-06
9.18883e-06
2.13249e-06
9.09353e-07
3.49834e-06
6.09155e-07
3.49516e-06
6.03343e-07
2.13778e-06
4.10624e-06
9.19694e-06
9.1899e-06
4.10879e-06
2.13246e-06
9.09614e-07
6.09224e-07
3.49838e-06
6.03449e-07
3.49513e-06
2.13776e-06
4.10586e-06
9.19716e-06
9.19011e-06
4.10889e-06
5.47499e-06
5.47362e-06
1.18297e-06
5.478e-06
5.47657e-06
1.84549e-05
1.84655e-05
1.84797e-05
1.84689e-05
1.18835e-06
5.48263e-06
5.48121e-06
5.47962e-06
5.47825e-06
1.84772e-05
1.84665e-05
2.13108e-06
5.91816e-07
3.49022e-06
9.03756e-07
2.12573e-06
5.97627e-07
3.49354e-06
4.10503e-06
9.18209e-06
4.10243e-06
9.18908e-06
4.10494e-06
9.18254e-06
4.10239e-06
9.18953e-06
2.13254e-06
9.0949e-07
6.09244e-07
3.49845e-06
6.03484e-07
3.49519e-06
2.13784e-06
2.13253e-06
9.09408e-07
6.09199e-07
3.49886e-06
6.03438e-07
3.4956e-06
2.13776e-06
4.10626e-06
9.1974e-06
9.19036e-06
4.10886e-06
4.10622e-06
9.19787e-06
9.19082e-06
4.10877e-06
1.84558e-05
1.84664e-05
1.8458e-05
1.84686e-05
1.1884e-06
5.4811e-06
5.48282e-06
5.47811e-06
5.47982e-06
1.84782e-05
1.84674e-05
1.84804e-05
1.84696e-05
1.84772e-05
1.84881e-05
1.84803e-05
1.84912e-05
5.48269e-06
5.48443e-06
1.20107e-06
5.48562e-06
5.48742e-06
1.85002e-05
1.84892e-05
1.85033e-05
1.84923e-05
1.20627e-06
5.49016e-06
5.49196e-06
5.48729e-06
5.48903e-06
4.11265e-06
9.19798e-06
4.10955e-06
9.20504e-06
2.14423e-06
3.5003e-06
6.14885e-07
9.26129e-07
2.13907e-06
3.50348e-06
6.20617e-07
2.14417e-06
3.5007e-06
6.14848e-07
9.26054e-07
2.13902e-06
3.50383e-06
6.20579e-07
4.1134e-06
9.21329e-06
9.20623e-06
4.11646e-06
4.11335e-06
9.21341e-06
9.20635e-06
4.11641e-06
2.14555e-06
9.31537e-07
3.50858e-06
6.3198e-07
3.50549e-06
6.26317e-07
2.15055e-06
2.1455e-06
9.31458e-07
3.50892e-06
6.31938e-07
3.50589e-06
6.26278e-07
2.1505e-06
5.48418e-06
5.48282e-06
1.20106e-06
5.487e-06
5.48562e-06
1.84773e-05
1.84883e-05
1.85023e-05
1.84912e-05
1.20626e-06
5.49154e-06
5.49017e-06
5.48877e-06
5.48741e-06
1.85004e-05
1.84893e-05
2.14426e-06
3.50082e-06
6.14864e-07
9.25915e-07
2.13911e-06
3.50403e-06
6.20595e-07
4.11271e-06
9.19877e-06
4.10961e-06
9.20585e-06
2.14421e-06
6.14938e-07
3.50077e-06
9.26175e-07
2.13906e-06
6.2067e-07
3.50398e-06
4.11347e-06
9.21461e-06
9.20754e-06
4.11654e-06
2.14558e-06
9.31325e-07
3.50913e-06
6.31961e-07
3.50601e-06
6.26298e-07
2.15059e-06
4.11341e-06
9.21422e-06
9.20715e-06
4.11648e-06
2.14554e-06
9.31581e-07
6.32034e-07
3.50908e-06
6.26372e-07
3.50596e-06
2.15054e-06
4.1126e-06
9.19824e-06
4.11006e-06
9.2053e-06
2.14427e-06
6.1498e-07
3.50043e-06
9.2622e-07
2.13911e-06
6.20712e-07
3.50361e-06
4.1127e-06
9.19845e-06
4.10968e-06
9.20552e-06
2.14561e-06
9.31369e-07
3.50867e-06
6.32004e-07
3.50564e-06
6.26306e-07
2.15061e-06
4.11386e-06
9.21368e-06
9.20661e-06
4.11637e-06
2.14559e-06
9.31628e-07
6.32074e-07
3.5087e-06
6.26413e-07
3.50561e-06
2.1506e-06
4.11348e-06
9.21389e-06
9.20682e-06
4.11647e-06
5.48425e-06
5.48288e-06
1.20117e-06
5.48724e-06
5.48582e-06
1.84783e-05
1.84892e-05
1.85037e-05
1.84927e-05
1.20637e-06
5.49179e-06
5.49037e-06
5.48885e-06
5.48748e-06
1.85012e-05
1.84903e-05
2.14427e-06
6.14966e-07
3.50089e-06
9.2602e-07
2.13918e-06
6.20687e-07
3.50409e-06
4.11267e-06
9.1987e-06
4.11008e-06
9.20577e-06
4.11258e-06
9.19916e-06
4.11004e-06
9.20623e-06
2.14567e-06
9.31511e-07
6.32099e-07
3.50877e-06
6.2645e-07
3.50566e-06
2.15067e-06
2.14565e-06
9.31425e-07
6.32051e-07
3.50918e-06
6.26402e-07
3.50608e-06
2.1506e-06
4.11388e-06
9.21414e-06
9.20707e-06
4.11643e-06
4.11384e-06
9.2146e-06
9.20753e-06
4.11634e-06
1.84792e-05
1.84901e-05
1.84814e-05
1.84923e-05
1.20642e-06
5.49025e-06
5.49197e-06
5.48734e-06
5.48905e-06
1.85022e-05
1.84912e-05
1.85044e-05
1.84934e-05
1.85013e-05
1.85124e-05
1.85044e-05
1.85155e-05
5.4918e-06
5.49355e-06
1.21837e-06
5.49465e-06
5.49645e-06
1.85248e-05
1.85135e-05
1.85279e-05
1.85167e-05
1.22337e-06
5.49915e-06
5.50095e-06
5.49629e-06
5.49804e-06
4.12012e-06
9.21473e-06
4.11709e-06
9.22182e-06
2.1567e-06
3.51053e-06
6.37606e-07
9.47345e-07
2.15184e-06
3.51355e-06
6.43199e-07
2.15664e-06
3.51094e-06
6.37564e-07
9.47264e-07
2.15179e-06
3.5139e-06
6.43158e-07
4.12086e-06
9.23015e-06
9.223e-06
4.12388e-06
4.12081e-06
9.23028e-06
9.22315e-06
4.12383e-06
2.15795e-06
9.52488e-07
3.51844e-06
6.54289e-07
3.51547e-06
6.48762e-07
2.16268e-06
2.1579e-06
9.5241e-07
3.51881e-06
6.54248e-07
3.51589e-06
6.48721e-07
2.16263e-06
5.4933e-06
5.49194e-06
1.21835e-06
5.49605e-06
5.49468e-06
1.85014e-05
1.85126e-05
1.8527e-05
1.85156e-05
1.22336e-06
5.50056e-06
5.49919e-06
5.4978e-06
5.49645e-06
1.8525e-05
1.85137e-05
2.15673e-06
3.51106e-06
6.37586e-07
9.47133e-07
2.15188e-06
3.5141e-06
6.43179e-07
4.12019e-06
9.21553e-06
4.11716e-06
9.22262e-06
2.15668e-06
6.37659e-07
3.51101e-06
9.4739e-07
2.15183e-06
6.43254e-07
3.51406e-06
4.12093e-06
9.23147e-06
9.22432e-06
4.12394e-06
2.15799e-06
9.52278e-07
3.51899e-06
6.5427e-07
3.516e-06
6.48743e-07
2.16271e-06
4.12087e-06
9.23108e-06
9.22394e-06
4.12388e-06
2.15794e-06
9.52535e-07
6.54345e-07
3.51895e-06
6.48819e-07
3.51596e-06
2.16266e-06
4.12009e-06
9.21499e-06
4.11761e-06
9.22209e-06
2.15674e-06
6.37702e-07
3.51066e-06
9.47433e-07
2.15188e-06
6.43296e-07
3.51367e-06
4.12019e-06
9.2152e-06
4.11723e-06
9.2223e-06
2.15802e-06
9.52331e-07
3.51855e-06