/*--------------------------------*- C++ -*----------------------------------*\
| =========                 |                                                 |
| \\      /  F ield         | OpenFOAM: The Open Source CFD Toolbox           |
|  \\    /   O peration     | Version:  2312                                  |
|   \\  /    A nd           | Website:  www.openfoam.com                      |
|    \\/     M anipulation  |                                                 |
\*---------------------------------------------------------------------------*/
FoamFile
{
    version     2.0;
    format      ascii;
    arch        "LSB;label=32;scalar=64";
    class       volScalarField;
    location    "750";
    object      k;
}
// * * * * * * * * * * * * * * * * * * * * * * * * * * * * * * * * * * * * * //

dimensions      [0 2 -2 0 0 0 0];

internalField   nonuniform List<scalar> 
42973
(
2.11971e-05
3.69001e-05
4.21281e-05
2.19626e-05
3.78082e-05
3.78124e-05
4.28505e-05
2.27434e-05
3.86884e-05
3.86926e-05
4.35479e-05
2.35414e-05
3.95434e-05
3.95479e-05
4.42231e-05
2.43468e-05
4.0369e-05
4.03731e-05
4.48712e-05
2.51594e-05
4.11667e-05
4.11716e-05
4.54982e-05
2.59753e-05
4.19332e-05
4.19378e-05
4.60985e-05
2.67873e-05
4.26741e-05
4.26784e-05
4.66781e-05
2.75985e-05
4.33849e-05
4.33892e-05
4.72346e-05
2.84026e-05
4.40661e-05
4.40693e-05
4.77674e-05
2.91951e-05
4.47204e-05
4.47265e-05
4.82792e-05
2.9969e-05
4.53399e-05
4.53433e-05
4.87617e-05
3.07362e-05
4.59378e-05
4.59429e-05
4.92367e-05
3.14905e-05
4.65176e-05
4.65156e-05
4.96804e-05
3.21964e-05
4.70359e-05
4.70512e-05
5.00946e-05
3.29313e-05
4.7574e-05
4.75714e-05
5.05161e-05
3.3588e-05
4.80544e-05
4.8052e-05
5.08926e-05
3.42707e-05
4.85077e-05
4.8522e-05
5.12426e-05
3.48773e-05
4.89331e-05
4.89349e-05
5.15862e-05
3.54794e-05
4.93404e-05
4.93337e-05
5.1904e-05
3.61336e-05
4.98234e-05
4.98318e-05
5.22898e-05
3.66465e-05
5.00331e-05
5.00536e-05
5.24595e-05
3.72263e-05
5.05753e-05
5.05677e-05
5.28767e-05
3.75635e-05
5.05654e-05
5.05386e-05
5.27531e-05
3.78742e-05
5.08507e-05
5.08838e-05
5.32901e-05
3.9215e-05
5.2099e-05
5.21581e-05
5.44343e-05
3.92146e-05
5.11553e-05
5.09423e-05
5.27737e-05
4.21255e-05
4.26871e-05
3.69029e-05
3.68998e-05
3.75871e-05
3.75834e-05
4.21246e-05
4.2686e-05
3.68981e-05
3.75824e-05
3.75872e-05
3.6906e-05
3.75837e-05
3.75893e-05
4.26891e-05
3.69008e-05
3.75883e-05
3.75843e-05
4.26893e-05
4.28487e-05
4.33896e-05
3.78113e-05
3.78077e-05
3.84734e-05
3.84697e-05
4.28476e-05
4.33886e-05
3.78066e-05
3.78113e-05
3.84689e-05
3.84736e-05
3.78135e-05
3.84704e-05
3.84758e-05
4.28506e-05
4.33917e-05
3.78083e-05
3.8475e-05
3.84709e-05
4.33919e-05
4.35457e-05
4.40703e-05
3.86913e-05
3.86876e-05
3.9336e-05
3.93318e-05
4.35447e-05
4.4069e-05
3.86866e-05
3.86912e-05
3.93314e-05
3.93358e-05
3.86937e-05
3.93327e-05
3.93382e-05
4.35477e-05
4.40722e-05
3.86887e-05
3.93376e-05
3.93336e-05
4.40725e-05
4.42211e-05
4.47242e-05
3.95466e-05
3.95422e-05
4.01676e-05
4.01637e-05
4.42197e-05
4.47232e-05
3.9542e-05
3.95463e-05
4.01633e-05
4.0168e-05
3.95488e-05
4.01651e-05
4.01696e-05
4.4223e-05
4.47262e-05
3.9544e-05
4.01697e-05
4.0165e-05
4.47261e-05
4.48694e-05
4.5356e-05
4.03714e-05
4.03676e-05
4.09724e-05
4.09684e-05
4.48686e-05
4.53548e-05
4.03669e-05
4.03714e-05
4.09678e-05
4.0972e-05
4.03733e-05
4.09698e-05
4.09744e-05
4.48715e-05
4.53577e-05
4.03685e-05
4.09742e-05
4.097e-05
4.5358e-05
4.54964e-05
4.5963e-05
4.11695e-05
4.11652e-05
4.17483e-05
4.17429e-05
4.5495e-05
4.59608e-05
4.11652e-05
4.11695e-05
4.17438e-05
4.17471e-05
4.11715e-05
4.17444e-05
4.17492e-05
4.5498e-05
4.59645e-05
4.11672e-05
4.17492e-05
4.17447e-05
4.59643e-05
4.60973e-05
4.65452e-05
4.19362e-05
4.19314e-05
4.24926e-05
4.24888e-05
4.60955e-05
4.65449e-05
4.19319e-05
4.19359e-05
4.24883e-05
4.2493e-05
4.19375e-05
4.2491e-05
4.2495e-05
4.60989e-05
4.65479e-05
4.19328e-05
4.24955e-05
4.24908e-05
4.65476e-05
4.66759e-05
4.7109e-05
4.26764e-05
4.26722e-05
4.32126e-05
4.32079e-05
4.66754e-05
4.71072e-05
4.2672e-05
4.26759e-05
4.32078e-05
4.32106e-05
4.26781e-05
4.32097e-05
4.32137e-05
4.66782e-05
4.71097e-05
4.26741e-05
4.32135e-05
4.32097e-05
4.71103e-05
4.72335e-05
4.76465e-05
4.3387e-05
4.33825e-05
4.39012e-05
4.38957e-05
4.72318e-05
4.76446e-05
4.33825e-05
4.33863e-05
4.38975e-05
4.39007e-05
4.33887e-05
4.3898e-05
4.39016e-05
4.72345e-05
4.76484e-05
4.33845e-05
4.39029e-05
4.38976e-05
4.76474e-05
4.77668e-05
4.81625e-05
4.40691e-05
4.40638e-05
4.45623e-05
4.45582e-05
4.7765e-05
4.81618e-05
4.40648e-05
4.40669e-05
4.45585e-05
4.45624e-05
4.40695e-05
4.45609e-05
4.45645e-05
4.77681e-05
4.81642e-05
4.40651e-05
4.4565e-05
4.45606e-05
4.81645e-05
4.82772e-05
4.86515e-05
4.4722e-05
4.47179e-05
4.5189e-05
4.51846e-05
4.82766e-05
4.86497e-05
4.47187e-05
4.4724e-05
4.51841e-05
4.51874e-05
4.47241e-05
4.51865e-05
4.51885e-05
4.82799e-05
4.86538e-05
4.47206e-05
4.51907e-05
4.51848e-05
4.86516e-05
4.87622e-05
4.91284e-05
4.5343e-05
4.53377e-05
4.57954e-05
4.57857e-05
4.87598e-05
4.91233e-05
4.5338e-05
4.53398e-05
4.57928e-05
4.57931e-05
4.53424e-05
4.57884e-05
4.57957e-05
4.87629e-05
4.91271e-05
4.53386e-05
4.57956e-05
4.57934e-05
4.91298e-05
4.92345e-05
4.95792e-05
4.59407e-05
4.59345e-05
4.63777e-05
4.63795e-05
4.92308e-05
4.95857e-05
4.59377e-05
4.59402e-05
4.63721e-05
4.63758e-05
4.59432e-05
4.63836e-05
4.63801e-05
4.92345e-05
4.95819e-05
4.594e-05
4.63792e-05
4.63739e-05
4.95808e-05
4.96811e-05
4.99958e-05
4.65186e-05
4.65151e-05
4.69056e-05
4.6897e-05
4.96857e-05
4.99874e-05
4.65136e-05
4.65136e-05
4.6904e-05
4.69109e-05
4.65155e-05
4.68997e-05
4.69071e-05
4.96822e-05
5.00008e-05
4.651e-05
4.6915e-05
4.69066e-05
4.99965e-05
5.00903e-05
5.04259e-05
4.70349e-05
4.70312e-05
4.74534e-05
4.74462e-05
5.0084e-05
5.04248e-05
4.70332e-05
4.70448e-05
4.74488e-05
4.74452e-05
4.70438e-05
4.74471e-05
4.74464e-05
5.00986e-05
5.04214e-05
4.70438e-05
4.74462e-05
4.74428e-05
5.0423e-05
5.0525e-05
5.07969e-05
4.75878e-05
4.75741e-05
4.7927e-05
4.79256e-05
5.05201e-05
5.07977e-05
4.75839e-05
4.75733e-05
4.79223e-05
4.79254e-05
4.75727e-05
4.79325e-05
4.79388e-05
5.05143e-05
5.07972e-05
4.75679e-05
4.79306e-05
4.79331e-05
5.08042e-05
5.08767e-05
5.11687e-05
4.80384e-05
4.80471e-05
4.84085e-05
4.84063e-05
5.08855e-05
5.1173e-05
4.80317e-05
4.80434e-05
4.84059e-05
4.84143e-05
4.80592e-05
4.84079e-05
4.83994e-05
5.08853e-05
5.11798e-05
4.80543e-05
4.84175e-05
4.83985e-05
5.1164e-05
5.1258e-05
5.14997e-05
4.85202e-05
4.8506e-05
4.88238e-05
4.88095e-05
5.12512e-05
5.14817e-05
4.85205e-05
4.85219e-05
4.88216e-05
4.88177e-05
4.85017e-05
4.8816e-05
4.88313e-05
5.12623e-05
5.1489e-05
4.85008e-05
4.88228e-05
4.88284e-05
5.15e-05
5.15776e-05
5.18359e-05
4.89381e-05
4.8928e-05
4.9245e-05
4.9242e-05
5.15666e-05
5.18437e-05
4.8934e-05
4.89287e-05
4.92409e-05
4.92343e-05
4.89485e-05
4.9238e-05
4.92291e-05
5.15681e-05
5.18325e-05
4.8946e-05
4.92337e-05
4.92269e-05
5.18308e-05
5.19094e-05
5.21835e-05
4.93315e-05
4.93425e-05
4.96954e-05
4.97171e-05
5.1922e-05
5.22076e-05
4.93259e-05
4.93332e-05
4.96884e-05
4.9719e-05
4.93274e-05
4.97296e-05
4.97305e-05
5.19118e-05
5.22127e-05
4.93237e-05
4.97293e-05
4.97247e-05
5.22127e-05
5.22751e-05
5.24634e-05
4.98172e-05
4.98116e-05
5.00142e-05
4.99452e-05
5.22777e-05
5.23892e-05
4.98142e-05
4.9825e-05
5.00197e-05
4.99736e-05
4.98313e-05
4.99454e-05
4.9957e-05
5.22904e-05
5.24149e-05
4.98269e-05
4.99662e-05
4.99562e-05
5.24034e-05
5.25177e-05
5.27496e-05
5.0083e-05
5.00359e-05
5.04279e-05
5.04746e-05
5.24482e-05
5.28276e-05
5.0086e-05
5.00586e-05
5.0423e-05
5.04712e-05
5.00401e-05
5.04824e-05
5.04755e-05
5.24715e-05
5.28183e-05
5.00407e-05
5.04833e-05
5.04734e-05
5.28183e-05
5.28039e-05
5.27466e-05
5.05146e-05
5.05663e-05
5.0559e-05
5.05945e-05
5.28888e-05
5.27709e-05
5.05093e-05
5.05541e-05
5.05525e-05
5.05682e-05
5.05662e-05
5.06014e-05
5.059e-05
5.28755e-05
5.27355e-05
5.05629e-05
5.05795e-05
5.05843e-05
5.27536e-05
5.27527e-05
5.31029e-05
5.05448e-05
5.05617e-05
5.06665e-05
5.06134e-05
5.27694e-05
5.29564e-05
5.05374e-05
5.05303e-05
5.06561e-05
5.05938e-05
5.05565e-05
5.06095e-05
5.06206e-05
5.27313e-05
5.29436e-05
5.05503e-05
5.05961e-05
5.06196e-05
5.30044e-05
5.33752e-05
5.43068e-05
5.10198e-05
5.08687e-05
5.19922e-05
5.1991e-05
5.32212e-05
5.43453e-05
5.10105e-05
5.0892e-05
5.20019e-05
5.2077e-05
5.09054e-05
5.20039e-05
5.20233e-05
5.32435e-05
5.44701e-05
5.09183e-05
5.20768e-05
5.20259e-05
5.4379e-05
5.4362e-05
5.33108e-05
5.20617e-05
5.20825e-05
5.17648e-05
5.18045e-05
5.44166e-05
5.33675e-05
5.20714e-05
5.216e-05
5.17625e-05
5.17556e-05
5.20985e-05
5.18155e-05
5.1706e-05
5.45373e-05
5.31897e-05
5.2095e-05
5.17292e-05
5.16612e-05
5.31447e-05
5.29499e-05
5.11226e-05
5.11546e-05
5.29833e-05
5.11072e-05
5.09734e-05
5.09682e-05
5.27783e-05
5.09141e-05
6.48578e-05
7.13745e-05
6.4759e-05
7.14102e-05
6.95442e-05
6.957e-05
6.48571e-05
7.1376e-05
6.47583e-05
7.14118e-05
2.11975e-05
2.12017e-05
2.17694e-05
2.17697e-05
2.17737e-05
2.17739e-05
5.36073e-05
6.02725e-05
2.92562e-05
3.71296e-05
5.34085e-05
6.03954e-05
2.95031e-05
6.95712e-05
5.36084e-05
2.926e-05
3.71343e-05
5.34096e-05
2.95065e-05
6.03988e-05
6.6955e-05
6.69633e-05
4.23284e-05
6.70301e-05
6.70384e-05
6.50855e-05
7.14593e-05
6.49898e-05
7.14955e-05
6.96007e-05
6.96274e-05
6.50849e-05
7.14608e-05
6.49891e-05
7.1497e-05
2.19626e-05
2.19666e-05
2.19667e-05
2.25466e-05
2.2547e-05
2.25513e-05
2.25512e-05
5.40728e-05
6.05633e-05
3.02397e-05
3.80307e-05
5.38823e-05
6.06813e-05
3.04849e-05
6.96022e-05
6.96287e-05
5.40739e-05
3.02436e-05
6.05662e-05
3.80352e-05
5.38833e-05
3.04883e-05
6.06844e-05
6.7132e-05
6.71403e-05
4.30435e-05
6.72049e-05
6.72132e-05
6.53074e-05
7.15454e-05
6.52139e-05
7.15821e-05
6.96595e-05
6.9687e-05
6.53066e-05
7.15469e-05
6.52132e-05
7.15836e-05
2.27436e-05
2.27478e-05
2.2748e-05
2.3341e-05
2.33412e-05
2.33457e-05
2.33457e-05
5.452e-05
6.0843e-05
3.12146e-05
3.89051e-05
5.43367e-05
6.09572e-05
3.14579e-05
6.9661e-05
6.96883e-05
5.45211e-05
3.12184e-05
6.08459e-05
3.89095e-05
5.43376e-05
3.14612e-05
6.09605e-05
6.73046e-05
6.73129e-05
4.37351e-05
6.73758e-05
6.73841e-05
6.55217e-05
7.16322e-05
6.54318e-05
7.16689e-05
6.972e-05
6.97481e-05
6.55211e-05
7.16338e-05
6.54311e-05
7.16705e-05
2.35413e-05
2.35459e-05
2.35461e-05
2.41443e-05
2.41445e-05
2.41492e-05
2.41491e-05
5.49489e-05
6.11129e-05
3.21809e-05
3.97521e-05
5.47735e-05
6.1222e-05
3.24198e-05
6.97215e-05
6.97494e-05
5.49499e-05
3.21851e-05
6.11158e-05
3.97567e-05
5.47745e-05
3.24234e-05
6.12251e-05
6.74719e-05
6.74801e-05
4.44025e-05
6.75401e-05
6.75484e-05
6.57298e-05
7.17196e-05
6.5642e-05
7.17567e-05
6.97821e-05
6.98108e-05
6.57287e-05
7.17212e-05
6.56412e-05
7.17583e-05
2.43472e-05
2.4352e-05
2.43515e-05
2.49555e-05
2.4956e-05
2.49599e-05
2.49605e-05
5.536e-05
6.13715e-05
3.31303e-05
4.05708e-05
5.51913e-05
6.14773e-05
3.33649e-05
6.97836e-05
6.98121e-05
5.53609e-05
3.31342e-05
6.13742e-05
4.05748e-05
5.5192e-05
3.33681e-05
6.14802e-05
6.76335e-05
6.76418e-05
4.50447e-05
6.77004e-05
6.77088e-05
6.59304e-05
7.18074e-05
6.58462e-05
7.18443e-05
6.98453e-05
6.98745e-05
6.59301e-05
7.1809e-05
6.58456e-05
7.1846e-05
2.51597e-05
2.51643e-05
2.51645e-05
2.57723e-05
2.57711e-05
2.57762e-05
2.57764e-05
5.57544e-05
6.16207e-05
3.40615e-05
4.13613e-05
5.5593e-05
6.17215e-05
3.42915e-05
6.9847e-05
6.98759e-05
5.57557e-05
3.40659e-05
6.16238e-05
4.13667e-05
5.55941e-05
3.4296e-05
6.1725e-05
6.77908e-05
6.77991e-05
4.56649e-05
6.78547e-05
6.78629e-05
6.61241e-05
7.1895e-05
6.60424e-05
7.19323e-05
6.99099e-05
6.99396e-05
6.61232e-05
7.18966e-05
6.60419e-05
7.19339e-05
2.59743e-05
2.59791e-05
2.59791e-05
2.65829e-05
2.65838e-05
2.65893e-05
2.65887e-05
5.61318e-05
6.18592e-05
3.49694e-05
4.21202e-05
5.5977e-05
6.19568e-05
3.51925e-05
6.99114e-05
6.99409e-05
5.61323e-05
3.49733e-05
6.1862e-05
4.2125e-05
5.59777e-05
3.5196e-05
6.19595e-05
6.79415e-05
6.79495e-05
4.62577e-05
6.80039e-05
6.80122e-05
6.63133e-05
7.19835e-05
6.62337e-05
7.20206e-05
6.99756e-05
7.00054e-05
6.63122e-05
7.19851e-05
6.62326e-05
7.20222e-05
2.67881e-05
2.67934e-05
2.67931e-05
2.73977e-05
2.73972e-05
2.74009e-05
2.74019e-05
5.64957e-05
6.20903e-05
3.58549e-05
4.28546e-05
5.63463e-05
6.21845e-05
3.60726e-05
6.99771e-05
7.00068e-05
5.64968e-05
3.5859e-05
6.20929e-05
4.28588e-05
5.63471e-05
3.60764e-05
6.2187e-05
6.80897e-05
6.80982e-05
4.68329e-05
6.81501e-05
6.81586e-05
6.64935e-05
7.2071e-05
6.64178e-05
7.2108e-05
7.00417e-05
7.0072e-05
6.64931e-05
7.20727e-05
6.64169e-05
7.21097e-05
2.75988e-05
2.76027e-05
2.76037e-05
2.82028e-05
2.82015e-05
2.82088e-05
2.82068e-05
5.68427e-05
6.23114e-05
3.67134e-05
4.35578e-05
5.67005e-05
6.24016e-05
3.69241e-05
7.00433e-05
7.00733e-05
5.68432e-05
3.67171e-05
6.23136e-05
4.35633e-05
5.67012e-05
3.69283e-05
6.24037e-05
6.82311e-05
6.82392e-05
4.73812e-05
6.82894e-05
6.82975e-05
6.66698e-05
7.21587e-05
6.65954e-05
7.21953e-05
7.01087e-05
7.01388e-05
6.66686e-05
7.21603e-05
6.65949e-05
7.21968e-05
2.8401e-05
2.84068e-05
2.84058e-05
2.89976e-05
2.89982e-05
2.90018e-05
2.90032e-05
5.71762e-05
6.25247e-05
3.75415e-05
4.4233e-05
5.70394e-05
6.26113e-05
3.77451e-05
7.01101e-05
7.01401e-05
5.71764e-05
3.75448e-05
6.25258e-05
4.42351e-05
5.70396e-05
3.77469e-05
6.26119e-05
6.83692e-05
6.83775e-05
4.79088e-05
6.84252e-05
6.84336e-05
6.68364e-05
7.22449e-05
6.67665e-05
7.22814e-05
7.01753e-05
7.02057e-05
6.6836e-05
7.22465e-05
6.67654e-05
7.2283e-05
2.91954e-05
2.92017e-05
2.92011e-05
2.97771e-05
2.97769e-05
2.97827e-05
2.97806e-05
5.74926e-05
6.27271e-05
3.83437e-05
4.48771e-05
5.73634e-05
6.28082e-05
3.85367e-05
7.01771e-05
7.02071e-05
5.74948e-05
3.83486e-05
6.27289e-05
4.48842e-05
5.73644e-05
3.85428e-05
6.28111e-05
6.84997e-05
6.85081e-05
4.84114e-05
6.85523e-05
6.85608e-05
6.69997e-05
7.23318e-05
6.69302e-05
7.23684e-05
7.02432e-05
7.02742e-05
6.69981e-05
7.23333e-05
6.69289e-05
7.237e-05
2.99695e-05
2.99727e-05
2.99725e-05
3.05481e-05
3.05416e-05
3.05511e-05
3.05515e-05
5.77963e-05
6.29191e-05
3.91059e-05
4.54914e-05
5.76702e-05
6.3e-05
3.92934e-05
7.02445e-05
7.02754e-05
5.77967e-05
3.91089e-05
6.29201e-05
4.54959e-05
5.7672e-05
3.9297e-05
6.29997e-05
6.86264e-05
6.86348e-05
4.88919e-05
6.86816e-05
6.86899e-05
6.7158e-05
7.24175e-05
6.70917e-05
7.2453e-05
7.03116e-05
7.03416e-05
6.71568e-05
7.24192e-05
6.7091e-05
7.24545e-05
3.07295e-05
3.07396e-05
3.07398e-05
3.12995e-05
3.131e-05
3.13073e-05
3.13089e-05
5.80933e-05
6.31111e-05
3.98407e-05
4.60895e-05
5.79719e-05
6.31892e-05
4.0025e-05
7.03129e-05
7.03426e-05
5.80915e-05
3.98465e-05
6.31103e-05
4.60903e-05
5.79712e-05
4.0027e-05
6.31866e-05
6.87541e-05
6.87621e-05
4.93595e-05
6.88021e-05
6.88098e-05
6.73036e-05
7.25011e-05
6.72437e-05
7.25358e-05
7.03773e-05
7.04075e-05
6.73037e-05
7.25028e-05
6.72414e-05
7.25379e-05
3.14973e-05
3.14947e-05
3.14957e-05
3.20257e-05
3.2017e-05
3.203e-05
3.20248e-05
5.83622e-05
6.32872e-05
4.0561e-05
4.66441e-05
5.8255e-05
6.33505e-05
4.07216e-05
7.03795e-05
7.041e-05
5.83647e-05
4.05581e-05
6.32854e-05
4.66479e-05
5.82531e-05
4.07231e-05
6.33553e-05
6.88655e-05
6.88738e-05
4.97902e-05
6.89115e-05
6.89208e-05
6.745e-05
7.25853e-05
6.73836e-05
7.26228e-05
7.04468e-05
7.04785e-05
6.74495e-05
7.25872e-05
6.73863e-05
7.26239e-05
3.2194e-05
3.22094e-05
3.22047e-05
3.27434e-05
3.27447e-05
3.27487e-05
3.27491e-05
5.86263e-05
6.34457e-05
4.12065e-05
4.71755e-05
5.85111e-05
6.35261e-05
4.13765e-05
7.0448e-05
7.04783e-05
5.86305e-05
4.12203e-05
6.34535e-05
4.71861e-05
5.85191e-05
4.13879e-05
6.35262e-05
6.89801e-05
6.89895e-05
5.02119e-05
6.90325e-05
6.90407e-05
6.7591e-05
7.26697e-05
6.75388e-05
7.27e-05
7.05133e-05
7.05421e-05
6.7588e-05
7.26708e-05
6.75341e-05
7.27015e-05
3.29226e-05
3.29251e-05
3.2924e-05
3.3433e-05
3.34309e-05
3.34337e-05
3.34387e-05
5.88855e-05
6.36257e-05
4.18654e-05
4.76952e-05
5.87863e-05
6.36821e-05
4.20196e-05
7.05143e-05
7.05437e-05
5.88783e-05
4.18646e-05
6.36173e-05
4.76932e-05
5.87803e-05
4.20178e-05
6.36771e-05
6.90958e-05
6.91024e-05
5.0617e-05
6.91355e-05
6.91429e-05
6.77119e-05
7.27448e-05
6.76536e-05
7.27811e-05
7.05797e-05
7.06084e-05
6.77095e-05
7.27464e-05
6.76526e-05
7.27828e-05
3.35996e-05
3.35983e-05
3.36084e-05
3.41019e-05
3.41089e-05
3.41136e-05
3.41052e-05
5.91142e-05
6.3766e-05
4.24692e-05
4.81778e-05
5.9016e-05
6.38336e-05
4.2619e-05
7.05813e-05
7.06107e-05
5.91175e-05
4.24663e-05
6.37664e-05
4.81769e-05
5.90153e-05
4.26178e-05
6.38353e-05
6.91934e-05
6.9203e-05
5.09909e-05
6.92329e-05
6.92427e-05
6.78295e-05
7.28264e-05
6.77882e-05
7.28566e-05
7.06414e-05
7.06719e-05
6.78356e-05
7.28293e-05
6.779e-05
7.2859e-05
3.42641e-05
3.4277e-05
3.42602e-05
3.47172e-05
3.471e-05
3.47223e-05
3.47256e-05
5.93198e-05
6.3905e-05
4.30368e-05
4.86032e-05
5.92416e-05
6.39475e-05
4.31617e-05
7.06442e-05
7.06726e-05
5.93239e-05
4.30488e-05
6.39113e-05
4.86185e-05
5.92465e-05
4.31739e-05
6.39537e-05
6.92799e-05
6.92881e-05
5.13245e-05
6.93193e-05
6.93272e-05
6.79556e-05
7.29035e-05
6.78919e-05
7.29398e-05
7.07139e-05
7.07457e-05
6.79447e-05
7.29036e-05
6.78894e-05
7.294e-05
3.48737e-05
3.48806e-05
3.48928e-05
3.53508e-05
3.53385e-05
3.53393e-05
3.53364e-05
5.95377e-05
6.40307e-05
4.35707e-05
4.90446e-05
5.94393e-05
6.41018e-05
4.37088e-05
7.07123e-05
7.07452e-05
5.95361e-05
4.35741e-05
6.4027e-05
4.90435e-05
5.94396e-05
4.37115e-05
6.40941e-05
6.93839e-05
6.93924e-05
5.16802e-05
6.94234e-05
6.94321e-05
6.80766e-05
7.29847e-05
6.80303e-05
7.30182e-05
7.07816e-05
7.08085e-05
6.80787e-05
7.29869e-05
6.80254e-05
7.30203e-05
3.54788e-05
3.54768e-05
3.54704e-05
3.59484e-05
3.59867e-05
3.59828e-05
3.59864e-05
5.97557e-05
6.41863e-05
4.40613e-05
4.9463e-05
5.96649e-05
6.42531e-05
4.42006e-05
7.07842e-05
7.08129e-05
5.97512e-05
4.40595e-05
6.4181e-05
4.94549e-05
5.9662e-05
4.41957e-05
6.4249e-05
6.94789e-05
6.94859e-05
5.20019e-05
6.95365e-05
6.95439e-05
6.81802e-05
7.3064e-05
6.81455e-05
7.30898e-05
7.08362e-05
7.08649e-05
6.81883e-05
7.30667e-05
6.8149e-05
7.30944e-05
3.6158e-05
3.61613e-05
3.61646e-05
3.65488e-05
3.649e-05
3.65137e-05
3.6508e-05
5.99439e-05
6.43229e-05
4.46669e-05
4.98753e-05
5.98891e-05
6.43271e-05
4.47596e-05
7.08416e-05
7.08673e-05
5.99473e-05
4.46671e-05
6.43295e-05
4.98906e-05
5.98867e-05
4.47655e-05
6.43398e-05
6.9575e-05
6.95843e-05
5.23356e-05
6.95726e-05
6.95822e-05
6.82793e-05
7.31278e-05
6.82119e-05
7.31547e-05
7.09119e-05
7.09328e-05
6.82753e-05
7.31303e-05
6.82227e-05
7.31545e-05
3.65882e-05
3.66118e-05
3.66024e-05
3.70571e-05
3.70815e-05
3.7092e-05
3.70795e-05
6.00989e-05
6.43857e-05
4.49475e-05
5.0175e-05
5.9991e-05
6.45165e-05
4.5079e-05
7.091e-05
7.09302e-05
6.01043e-05
4.49625e-05
6.43897e-05
5.01899e-05
5.99984e-05
4.50927e-05
6.45147e-05
6.96654e-05
6.9672e-05
5.25786e-05
6.97535e-05
6.97588e-05
6.82927e-05
7.31547e-05
6.83318e-05
7.31463e-05
7.09279e-05
7.09286e-05
6.82865e-05
7.31546e-05
6.83179e-05
7.31454e-05
3.727e-05
3.72735e-05
3.72664e-05
3.75395e-05
3.75973e-05
3.75767e-05
3.75931e-05
6.02398e-05
6.45799e-05
4.55787e-05
5.06115e-05
6.02486e-05
6.44837e-05
4.56764e-05
7.09246e-05
7.09225e-05
6.0236e-05
4.55792e-05
6.45773e-05
5.05973e-05
6.02484e-05
4.56706e-05
6.44747e-05
6.97475e-05
6.97527e-05
5.28726e-05
6.9578e-05
6.95838e-05
6.81851e-05
7.32182e-05
6.81308e-05
7.33608e-05
7.10051e-05
7.11262e-05
6.81503e-05
7.32123e-05
6.81132e-05
7.33603e-05
3.76197e-05
3.75951e-05
3.76153e-05
3.76707e-05
3.76667e-05
3.76475e-05
3.76672e-05
5.99847e-05
6.42678e-05
4.57223e-05
5.05497e-05
6.00152e-05
6.42989e-05
4.57115e-05
7.10007e-05
7.11343e-05
5.99641e-05
4.57073e-05
6.42351e-05
5.05229e-05
5.99952e-05
4.5696e-05
6.4262e-05
6.94421e-05
6.94471e-05
5.26842e-05
6.96501e-05
6.96691e-05
6.91412e-05
7.35657e-05
6.87973e-05
7.3598e-05
7.12487e-05
7.12522e-05
6.9183e-05
7.35775e-05
6.88102e-05
7.36098e-05
3.7773e-05
3.77751e-05
3.77871e-05
3.89782e-05
3.89459e-05
3.90214e-05
3.89834e-05
6.1194e-05
6.50269e-05
4.58845e-05
5.13558e-05
6.06302e-05
6.54305e-05
4.63231e-05
7.12763e-05
7.12763e-05
6.12579e-05
4.59013e-05
6.50727e-05
5.14272e-05
6.06694e-05
4.63819e-05
6.55233e-05
7.03352e-05
7.0363e-05
5.39051e-05
7.06363e-05
7.06428e-05
6.8665e-05
7.33421e-05
6.92746e-05
7.30547e-05
7.10238e-05
7.0851e-05
6.86695e-05
7.33435e-05
6.93284e-05
7.30533e-05
3.92116e-05
3.92628e-05
3.92264e-05
3.93293e-05
3.93494e-05
3.93434e-05
3.93141e-05
6.12565e-05
6.56123e-05
4.72641e-05
5.21063e-05
6.15587e-05
6.50535e-05
4.73016e-05
7.10005e-05
7.08022e-05
6.11726e-05
4.72881e-05
6.57094e-05
5.21571e-05
6.16044e-05
4.73133e-05
6.49805e-05
7.0556e-05
7.04892e-05
5.43316e-05
6.97176e-05
6.96653e-05
7.27585e-05
6.71881e-05
7.07439e-05
6.66049e-05
7.27535e-05
6.71339e-05
3.92379e-05
3.91698e-05
3.91522e-05
6.34614e-05
4.67813e-05
5.94114e-05
7.07124e-05
7.09264e-05
5.84559e-05
4.66217e-05
6.32435e-05
5.02808e-05
5.92394e-05
4.59965e-05
6.26766e-05
6.83549e-05
6.83452e-05
5.17847e-05
6.80114e-05
6.80345e-05
6.95434e-05
6.95691e-05
6.95462e-05
6.95719e-05
6.69583e-05
6.69666e-05
4.23257e-05
6.70335e-05
6.7042e-05
6.95975e-05
6.95714e-05
6.96004e-05
6.95743e-05
4.24903e-05
6.71216e-05
6.71301e-05
6.70478e-05
6.70561e-05
6.48562e-05
7.1371e-05
6.47575e-05
7.14067e-05
5.36078e-05
6.02744e-05
2.92548e-05
3.71325e-05
5.34089e-05
6.03976e-05
2.95011e-05
5.36063e-05
6.02711e-05
2.92532e-05
3.71293e-05
5.34074e-05
6.03941e-05
2.94995e-05
6.48753e-05
7.14527e-05
7.14168e-05
6.49725e-05
6.48738e-05
7.14491e-05
7.14133e-05
6.4971e-05
5.36485e-05
3.73607e-05
6.05419e-05
2.99935e-05
6.04213e-05
2.97475e-05
5.38432e-05
5.36469e-05
3.73573e-05
6.05383e-05
2.99917e-05
6.0418e-05
2.97458e-05
5.38416e-05
6.69581e-05
6.69547e-05
4.23249e-05
6.70332e-05
6.70298e-05
6.95423e-05
6.95682e-05
6.95984e-05
6.95721e-05
4.24894e-05
6.71212e-05
6.71179e-05
6.70475e-05
6.70442e-05
6.95967e-05
6.95704e-05
5.36074e-05
6.02765e-05
2.92539e-05
3.71278e-05
5.34086e-05
6.03998e-05
2.95002e-05
6.48557e-05
7.14074e-05
5.36063e-05
3.71331e-05
2.95023e-05
6.03966e-05
6.48746e-05
7.14542e-05
7.14183e-05
6.49719e-05
5.36481e-05
3.73561e-05
6.05442e-05
2.99928e-05
6.04234e-05
2.97468e-05
5.38428e-05
6.48733e-05
7.14499e-05
7.1414e-05
6.49705e-05
5.3647e-05
3.73611e-05
2.99947e-05
6.05409e-05
2.97488e-05
6.04203e-05
5.38416e-05
6.48556e-05
7.1373e-05
6.4757e-05
7.14086e-05
5.36074e-05
2.92592e-05
6.02722e-05
3.71355e-05
5.34086e-05
2.95055e-05
6.03952e-05
6.48562e-05
7.13712e-05
6.47576e-05
7.14069e-05
5.36479e-05
3.73577e-05
6.05398e-05
2.9995e-05
6.04194e-05
2.97488e-05
5.38425e-05
6.48733e-05
7.14511e-05
7.14152e-05
6.49704e-05
5.3648e-05
3.73634e-05
2.99974e-05
6.05394e-05
2.97518e-05
6.04189e-05
5.38426e-05
6.48738e-05
7.14493e-05
7.14134e-05
6.4971e-05
4.23279e-05
6.70372e-05
6.70339e-05
6.95699e-05
6.95997e-05
6.95736e-05
4.24924e-05
6.71253e-05
6.7122e-05
6.70514e-05
6.70481e-05
6.95983e-05
6.95722e-05
5.36067e-05
2.92581e-05
6.02745e-05
3.71306e-05
5.34081e-05
2.95045e-05
6.03976e-05
6.48562e-05
6.47576e-05
7.14108e-05
6.48546e-05
7.13729e-05
6.47561e-05
7.14085e-05
5.3649e-05
3.73621e-05
2.99985e-05
6.0543e-05
2.9753e-05
6.04224e-05
5.38436e-05
5.36475e-05
3.73583e-05
2.99964e-05
6.05417e-05
2.97509e-05
6.04212e-05
5.38418e-05
6.48738e-05
7.14533e-05
7.14173e-05
6.49709e-05
6.48722e-05
7.1451e-05
7.14151e-05
6.49693e-05
6.95439e-05
6.95696e-05
6.95465e-05
6.95722e-05
4.24927e-05
6.7118e-05
6.71264e-05
6.70442e-05
6.70525e-05
6.9598e-05
6.95719e-05
6.96006e-05
6.95745e-05
6.96e-05
6.96265e-05
6.96028e-05
6.96294e-05
6.71356e-05
6.7144e-05
4.30416e-05
6.72083e-05
6.72168e-05
6.96561e-05
6.96291e-05
6.9659e-05
6.9632e-05
4.32001e-05
6.72942e-05
6.73026e-05
6.72221e-05
6.72305e-05
6.5084e-05
7.14558e-05
6.49883e-05
7.14919e-05
5.40734e-05
6.05651e-05
3.02389e-05
3.80337e-05
5.38829e-05
6.06832e-05
3.04834e-05
5.40718e-05
6.05617e-05
3.0237e-05
3.80301e-05
5.38813e-05
6.06796e-05
3.04816e-05
6.51025e-05
7.15387e-05
7.15022e-05
6.51971e-05
6.5101e-05
7.15351e-05
7.14986e-05
6.51956e-05
5.41122e-05
3.82543e-05
6.08222e-05
3.09705e-05
6.0706e-05
3.07272e-05
5.42989e-05
5.41106e-05
3.82507e-05
6.08186e-05
3.09686e-05
6.07025e-05
3.07254e-05
5.42974e-05
6.71354e-05
6.71321e-05
4.30404e-05
6.72079e-05
6.72047e-05
6.95989e-05
6.96257e-05
6.9657e-05
6.96298e-05
4.31991e-05
6.72938e-05
6.72906e-05
6.72219e-05
6.72187e-05
6.96553e-05
6.96281e-05
5.4073e-05
6.05673e-05
3.0238e-05
3.8029e-05
5.38825e-05
6.06855e-05
3.04825e-05
6.50835e-05
7.14565e-05
6.49878e-05
7.14927e-05
5.40719e-05
3.02398e-05
6.0564e-05
3.80339e-05
5.38814e-05
3.04845e-05
6.06823e-05
6.51019e-05
7.15402e-05
7.15037e-05
6.51965e-05
5.41119e-05
3.82498e-05
6.08244e-05
3.09699e-05
6.07081e-05
3.07265e-05
5.42985e-05
6.51005e-05
7.15359e-05
7.14994e-05
6.51951e-05
5.41108e-05
3.82547e-05
3.09719e-05
6.08212e-05
3.07286e-05
6.07049e-05
5.42974e-05
6.50835e-05
7.14578e-05
6.49878e-05
7.1494e-05
5.40729e-05
3.02426e-05
6.05626e-05
3.80359e-05
5.38823e-05
3.04872e-05
6.06808e-05
6.50841e-05
7.14559e-05
6.49883e-05
7.14922e-05
5.41118e-05
3.82515e-05
6.08203e-05
3.09721e-05
6.07043e-05
3.07285e-05
5.42985e-05
6.51006e-05
7.15371e-05
7.15007e-05
6.51951e-05
5.41117e-05
3.82567e-05
3.09745e-05
6.082e-05
3.07314e-05
6.07036e-05
5.42986e-05
6.51012e-05
7.15354e-05
7.14989e-05
6.51957e-05
6.71392e-05
6.7136e-05
4.30435e-05
6.7212e-05
6.72088e-05
6.96008e-05
6.96274e-05
6.96583e-05
6.96314e-05
4.32021e-05
6.72979e-05
6.72947e-05
6.72258e-05
6.72226e-05
6.9657e-05
6.963e-05
5.4072e-05
3.02415e-05
6.05648e-05
3.8031e-05
5.38817e-05
3.04861e-05
6.06831e-05
6.5084e-05
7.14599e-05
6.49883e-05
7.14961e-05
6.50824e-05
7.14576e-05
6.49867e-05
7.14939e-05
5.41127e-05
3.82559e-05
3.09757e-05
6.08235e-05
3.07326e-05
6.07072e-05
5.42995e-05
5.41111e-05
3.82517e-05
3.09735e-05
6.08224e-05
3.07303e-05
6.07059e-05
5.42978e-05
6.51011e-05
7.15393e-05
7.15028e-05
6.51957e-05
6.50995e-05
7.15371e-05
7.15006e-05
6.5194e-05
6.96005e-05
6.96271e-05
6.96031e-05
6.96297e-05
4.3202e-05
6.7291e-05
6.72993e-05
6.72187e-05
6.7227e-05
6.96567e-05
6.96297e-05
6.96593e-05
6.96323e-05
6.96588e-05
6.96861e-05
6.96617e-05
6.9689e-05
6.73079e-05
6.73162e-05
4.37327e-05
6.73791e-05
6.73875e-05
6.97164e-05
6.96888e-05
6.97193e-05
6.96917e-05
4.38865e-05
6.74622e-05
6.74707e-05
6.73926e-05
6.74009e-05
6.53058e-05
7.15419e-05
6.52124e-05
7.15784e-05
5.45205e-05
6.08447e-05
3.12134e-05
3.89079e-05
5.4337e-05
6.09592e-05
3.14564e-05
5.45189e-05
6.08412e-05
3.12116e-05
3.89043e-05
5.43355e-05
6.09554e-05
3.14545e-05
6.53239e-05
7.16254e-05
7.15888e-05
6.54156e-05
6.53224e-05
7.16218e-05
7.15852e-05
6.54141e-05
5.45578e-05
3.9123e-05
6.10932e-05
3.19402e-05
6.09812e-05
3.16989e-05
5.47376e-05
5.45562e-05
3.91192e-05
6.10893e-05
3.19382e-05
6.09776e-05
3.1697e-05
5.47359e-05
6.73077e-05
6.73045e-05
4.37317e-05
6.73787e-05
6.73755e-05
6.96578e-05
6.96853e-05
6.97173e-05
6.96895e-05
4.38854e-05
6.74617e-05
6.74586e-05
6.73923e-05
6.73891e-05
6.97157e-05
6.96878e-05
5.452e-05
6.08467e-05
3.12126e-05
3.89031e-05
5.43367e-05
6.09614e-05
3.14552e-05
6.53053e-05
7.15426e-05
6.52119e-05
7.15793e-05
5.45189e-05
3.12145e-05
6.08435e-05
3.89079e-05
5.43356e-05
3.14572e-05
6.09581e-05
6.53231e-05
7.1627e-05
7.15904e-05
6.5415e-05
5.45574e-05
3.91183e-05
6.10954e-05
3.19393e-05
6.09833e-05
3.16978e-05
5.4737e-05
6.53218e-05
7.16227e-05
7.1586e-05
6.54136e-05
5.45562e-05
3.9123e-05
3.19413e-05
6.10921e-05
3.16999e-05
6.09799e-05
5.47359e-05
6.53053e-05
7.15439e-05
6.5212e-05
7.15805e-05
5.45201e-05
3.12175e-05
6.08424e-05
3.89103e-05
5.43367e-05
3.14603e-05
6.09569e-05
6.53059e-05
7.15421e-05
6.52126e-05
7.15788e-05
5.45574e-05
3.91202e-05
6.10912e-05
3.19416e-05
6.09794e-05
3.17e-05
5.4737e-05
6.53219e-05
7.1624e-05
7.15873e-05
6.54136e-05
5.45574e-05
3.91254e-05
3.19441e-05
6.10908e-05
3.17029e-05
6.09789e-05
5.47371e-05
6.53225e-05
7.16222e-05
7.15855e-05
6.54142e-05
6.73115e-05
6.73084e-05
4.37347e-05
6.73827e-05
6.73796e-05
6.96596e-05
6.9687e-05
6.97187e-05
6.96911e-05
4.38884e-05
6.74658e-05
6.74627e-05
6.73961e-05
6.7393e-05
6.97173e-05
6.96897e-05
5.45193e-05
3.12163e-05
6.08447e-05
3.89055e-05
5.43361e-05
3.1459e-05
6.09593e-05
6.53059e-05
7.1546e-05
6.52126e-05
7.15827e-05
6.53042e-05
7.15438e-05
6.5211e-05
7.15805e-05
5.45584e-05
3.91247e-05
3.19455e-05
6.10945e-05
3.17041e-05
6.09824e-05
5.47381e-05
5.45568e-05
3.91206e-05
3.19432e-05
6.10932e-05
3.17019e-05
6.09812e-05
5.47363e-05
6.53225e-05
7.16261e-05
7.15894e-05
6.54141e-05
6.53209e-05
7.16238e-05
7.15872e-05
6.54125e-05
6.96594e-05
6.96867e-05
6.9662e-05
6.96893e-05
4.38887e-05
6.74588e-05
6.74671e-05
6.73892e-05
6.73975e-05
6.9717e-05
6.96894e-05
6.97196e-05
6.96921e-05
6.97192e-05
6.97472e-05
6.97221e-05
6.97501e-05
6.74754e-05
6.74837e-05
4.44005e-05
6.75435e-05
6.7552e-05
6.97784e-05
6.975e-05
6.97813e-05
6.9753e-05
4.45482e-05
6.76241e-05
6.76324e-05
6.75565e-05
6.75648e-05
6.55201e-05
7.16287e-05
6.54302e-05
7.16654e-05
5.49493e-05
6.11146e-05
3.218e-05
3.97552e-05
5.4774e-05
6.12238e-05
3.24185e-05
5.49477e-05
6.11109e-05
3.21778e-05
3.97509e-05
5.47724e-05
6.122e-05
3.24163e-05
6.55375e-05
7.17128e-05
7.16757e-05
6.56263e-05
6.5536e-05
7.17092e-05
7.16723e-05
6.56248e-05
5.49849e-05
3.99622e-05
6.13522e-05
3.28932e-05
6.12447e-05
3.26562e-05
5.51567e-05
5.49833e-05
3.99581e-05
6.13486e-05
3.28912e-05
6.12411e-05
3.26541e-05
5.51551e-05
6.7475e-05
6.74719e-05
4.43991e-05
6.75432e-05
6.75401e-05
6.97183e-05
6.97464e-05
6.97793e-05
6.97508e-05
4.45469e-05
6.7624e-05
6.76209e-05
6.75563e-05
6.75533e-05
6.97776e-05
6.97491e-05
5.4949e-05
6.11167e-05
3.21791e-05
3.97506e-05
5.47735e-05
6.12261e-05
3.24175e-05
6.55198e-05
7.16295e-05
6.54298e-05
7.16662e-05
5.49478e-05
3.2181e-05
6.11134e-05
3.9755e-05
5.47724e-05
3.24194e-05
6.12228e-05
6.55369e-05
7.17143e-05
7.16773e-05
6.56255e-05
5.49846e-05
3.99577e-05
6.13543e-05
3.28926e-05
6.12469e-05
3.26554e-05
5.51562e-05
6.55356e-05
7.171e-05
7.1673e-05
6.56242e-05
5.49834e-05
3.99623e-05
3.28947e-05
6.13511e-05
3.26574e-05
6.12436e-05
5.5155e-05
6.55198e-05
7.16308e-05
6.54299e-05
7.16675e-05
5.4949e-05
3.21839e-05
6.11122e-05
3.97574e-05
5.47735e-05
3.24224e-05
6.12214e-05
6.55204e-05
7.16289e-05
6.54304e-05
7.16657e-05
5.49846e-05
3.99595e-05
6.13507e-05
3.28949e-05
6.12432e-05
3.26574e-05
5.51563e-05
6.55358e-05