/*--------------------------------*- C++ -*----------------------------------*\
| =========                 |                                                 |
| \\      /  F ield         | OpenFOAM: The Open Source CFD Toolbox           |
|  \\    /   O peration     | Version:  2312                                  |
|   \\  /    A nd           | Website:  www.openfoam.com                      |
|    \\/     M anipulation  |                                                 |
\*---------------------------------------------------------------------------*/
FoamFile
{
    version     2.0;
    format      ascii;
    arch        "LSB;label=32;scalar=64";
    class       volScalarField;
    location    "750";
    object      p;
}
// * * * * * * * * * * * * * * * * * * * * * * * * * * * * * * * * * * * * * //

dimensions      [0 2 -2 0 0 0 0];

internalField   nonuniform List<scalar> 
42973
(
0.00167375
0.00167367
0.00167574
0.00163778
0.00163769
0.00163769
0.00163975
0.00160187
0.00160177
0.00160177
0.00160383
0.00156603
0.00156593
0.00156593
0.00156798
0.00153025
0.00153014
0.00153014
0.00153219
0.00149453
0.00149441
0.00149441
0.00149646
0.00145885
0.00145874
0.00145874
0.00146077
0.00142323
0.00142311
0.00142311
0.00142514
0.00138764
0.00138752
0.00138752
0.00138955
0.0013521
0.00135197
0.00135197
0.00135399
0.00131658
0.00131645
0.00131645
0.00131847
0.0012811
0.00128097
0.00128097
0.00128299
0.00124563
0.00124552
0.00124551
0.00124753
0.0012102
0.00121007
0.00121008
0.00121209
0.00117478
0.00117466
0.00117466
0.00117667
0.00113937
0.00113926
0.00113926
0.00114126
0.00110397
0.00110386
0.00110386
0.00110587
0.00106857
0.00106847
0.00106846
0.00107047
0.0010332
0.00103309
0.00103309
0.00103509
0.000997811
0.000997719
0.000997724
0.000999726
0.000962438
0.000962312
0.000962314
0.000964315
0.000927001
0.000926957
0.000926949
0.00092896
0.000891507
0.000891367
0.000891365
0.000893382
0.000856139
0.000856085
0.000856098
0.000858089
0.000821157
0.000821064
0.00082108
0.00082305
0.000784942
0.000784824
0.000784762
0.000786807
0.000748725
0.000748793
0.000748881
0.000750936
0.00167574
0.00164458
0.00167367
0.00167367
0.00164668
0.00164668
0.00167574
0.00164458
0.00167367
0.00164668
0.00164668
0.00167367
0.00164668
0.00164668
0.00164458
0.00167367
0.00164668
0.00164668
0.00164458
0.00163975
0.00160865
0.00163769
0.00163769
0.00161075
0.00161075
0.00163975
0.00160865
0.00163769
0.00163769
0.00161075
0.00161075
0.00163769
0.00161075
0.00161075
0.00163975
0.00160865
0.00163769
0.00161075
0.00161075
0.00160865
0.00160383
0.00157279
0.00160177
0.00160177
0.00157488
0.00157488
0.00160383
0.00157279
0.00160177
0.00160177
0.00157488
0.00157488
0.00160177
0.00157488
0.00157488
0.00160383
0.00157279
0.00160177
0.00157488
0.00157488
0.00157279
0.00156798
0.001537
0.00156593
0.00156593
0.00153908
0.00153908
0.00156798
0.001537
0.00156593
0.00156593
0.00153908
0.00153908
0.00156593
0.00153908
0.00153908
0.00156798
0.001537
0.00156593
0.00153908
0.00153908
0.001537
0.00153219
0.00150126
0.00153014
0.00153014
0.00150334
0.00150334
0.00153219
0.00150126
0.00153014
0.00153014
0.00150334
0.00150334
0.00153014
0.00150334
0.00150334
0.00153219
0.00150126
0.00153014
0.00150334
0.00150334
0.00150126
0.00149646
0.00146557
0.00149441
0.00149441
0.00146765
0.00146765
0.00149646
0.00146557
0.00149441
0.00149441
0.00146765
0.00146765
0.00149441
0.00146765
0.00146765
0.00149646
0.00146557
0.00149441
0.00146765
0.00146765
0.00146557
0.00146077
0.00142994
0.00145874
0.00145874
0.00143201
0.00143201
0.00146077
0.00142994
0.00145874
0.00145874
0.00143201
0.00143201
0.00145874
0.00143201
0.00143201
0.00146077
0.00142994
0.00145874
0.00143201
0.00143201
0.00142994
0.00142514
0.00139434
0.00142311
0.00142311
0.00139641
0.00139641
0.00142514
0.00139434
0.00142311
0.00142311
0.00139641
0.00139641
0.00142311
0.00139641
0.00139641
0.00142514
0.00139434
0.00142311
0.00139641
0.00139641
0.00139434
0.00138955
0.00135879
0.00138752
0.00138752
0.00136085
0.00136085
0.00138955
0.00135879
0.00138752
0.00138752
0.00136085
0.00136085
0.00138752
0.00136085
0.00136085
0.00138955
0.00135879
0.00138752
0.00136085
0.00136085
0.00135879
0.00135399
0.00132327
0.00135197
0.00135197
0.00132533
0.00132533
0.00135399
0.00132327
0.00135197
0.00135197
0.00132533
0.00132533
0.00135197
0.00132533
0.00132533
0.00135399
0.00132327
0.00135197
0.00132533
0.00132533
0.00132327
0.00131847
0.00128778
0.00131645
0.00131645
0.00128984
0.00128984
0.00131847
0.00128778
0.00131645
0.00131645
0.00128984
0.00128984
0.00131645
0.00128984
0.00128984
0.00131847
0.00128778
0.00131645
0.00128984
0.00128984
0.00128778
0.00128299
0.00125232
0.00128097
0.00128097
0.00125438
0.00125438
0.00128299
0.00125232
0.00128097
0.00128097
0.00125438
0.00125438
0.00128097
0.00125438
0.00125438
0.00128299
0.00125232
0.00128097
0.00125438
0.00125438
0.00125232
0.00124753
0.00121688
0.00124551
0.00124552
0.00121893
0.00121893
0.00124753
0.00121687
0.00124551
0.00124551
0.00121893
0.00121893
0.00124551
0.00121893
0.00121893
0.00124753
0.00121688
0.00124551
0.00121893
0.00121893
0.00121688
0.00121209
0.00118146
0.00121007
0.00121007
0.00118351
0.00118352
0.00121209
0.00118146
0.00121008
0.00121008
0.00118351
0.00118351
0.00121007
0.00118352
0.00118352
0.00121209
0.00118146
0.00121008
0.00118351
0.00118351
0.00118146
0.00117667
0.00114605
0.00117466
0.00117466
0.00114811
0.00114811
0.00117667
0.00114605
0.00117466
0.00117466
0.00114811
0.00114811
0.00117466
0.00114811
0.00114811
0.00117667
0.00114605
0.00117466
0.00114811
0.00114811
0.00114605
0.00114126
0.00111066
0.00113925
0.00113925
0.00111271
0.00111271
0.00114126
0.00111066
0.00113925
0.00113925
0.00111271
0.00111271
0.00113926
0.00111271
0.00111271
0.00114126
0.00111066
0.00113926
0.00111271
0.00111271
0.00111066
0.00110587
0.00107527
0.00110386
0.00110386
0.00107732
0.00107731
0.00110586
0.00107526
0.00110386
0.00110386
0.00107732
0.00107731
0.00110386
0.00107731
0.00107731
0.00110587
0.00107526
0.00110386
0.00107731
0.00107731
0.00107526
0.00107047
0.00103988
0.00106847
0.00106847
0.00104193
0.00104194
0.00107047
0.00103989
0.00106846
0.00106846
0.00104193
0.00104193
0.00106847
0.00104194
0.00104193
0.00107047
0.00103988
0.00106847
0.00104193
0.00104193
0.00103988
0.00103509
0.00100452
0.00103309
0.00103309
0.00100656
0.00100656
0.00103509
0.00100452
0.00103309
0.00103309
0.00100656
0.00100656
0.00103309
0.00100656
0.00100656
0.00103509
0.00100452
0.00103309
0.00100657
0.00100656
0.00100452
0.000999726
0.000969127
0.000997721
0.000997717
0.00097118
0.000971167
0.000999722
0.000969116
0.000997722
0.000997722
0.000971182
0.000971173
0.000997724
0.000971162
0.000971165
0.000999727
0.000969119
0.000997724
0.000971167
0.000971167
0.000969114
0.000964326
0.000933739
0.000962325
0.000962317
0.000935777
0.000935797
0.000964318
0.00093376
0.000962325
0.000962319
0.000935773
0.000935789
0.00096231
0.000935802
0.000935796
0.00096432
0.000933752
0.000962311
0.000935795
0.000935794
0.000933758
0.000928938
0.000898224
0.000926927
0.00092695
0.000900285
0.000900273
0.000928958
0.000898211
0.000926925
0.000926942
0.000900287
0.000900272
0.000926954
0.000900271
0.000900276
0.00092895
0.000898212
0.000926952
0.000900268
0.000900276
0.000898211
0.000893398
0.000862856
0.000891392
0.000891373
0.000864865
0.000864851
0.000893385
0.000862838
0.000891394
0.000891373
0.000864863
0.000864852
0.000891371
0.000864841
0.00086484
0.000893386
0.000862842
0.000891371
0.000864845
0.000864841
0.000862835
0.000858101
0.000827817
0.000856091
0.000856089
0.00082987
0.000829899
0.000858086
0.000827867
0.000856091
0.0008561
0.000829879
0.000829936
0.000856085
0.000829915
0.000829928
0.000858095
0.000827895
0.000856088
0.000829953
0.000829937
0.000827884
0.00082299
0.000791819
0.000821014
0.000821046
0.000793956
0.000793941
0.00082304
0.000791811
0.000821021
0.000821066
0.000793944
0.00079389
0.000821069
0.00079393
0.000793905
0.000823056
0.000791759
0.00082107
0.000793877
0.000793891
0.000791765
0.000786865
0.000755615
0.000784847
0.000784838
0.000757555
0.000757552
0.000786863
0.0007556
0.000784832
0.000784779
0.000757558
0.000757565
0.000784786
0.000757549
0.000757563
0.000786808
0.000755639
0.000784769
0.00075757
0.000757575
0.000755648
0.000750877
0.00074878
0.000748783
0.000750864
0.000748797
0.000748862
0.000748851
0.00075093
0.000748878
0.00166229
0.00167574
0.00167575
0.00166227
0.00167575
0.00166227
0.00166229
0.00167574
0.00167575
0.00166227
0.00167375
0.00167375
0.00164676
0.00164676
0.00164676
0.00164676
0.0016624
0.00167573
0.00167373
0.00166467
0.00167575
0.00166233
0.00166473
0.00166227
0.0016624
0.00167373
0.00166467
0.00167575
0.00166473
0.00166233
0.00167576
0.00167576
0.00166256
0.00166228
0.00166228
0.00162633
0.00163976
0.00163977
0.00162632
0.00163977
0.00162632
0.00162633
0.00163977
0.00163977
0.00162632
0.00163778
0.00163778
0.00163778
0.00161084
0.00161084
0.00161084
0.00161084
0.00162644
0.00163975
0.00163775
0.0016287
0.00163976
0.00162637
0.00162876
0.00163977
0.00162632
0.00162644
0.00163775
0.00163975
0.0016287
0.00163976
0.00162876
0.00162637
0.00163978
0.00163978
0.0016266
0.00162632
0.00162632
0.00159045
0.00160386
0.00160387
0.00159043
0.00160386
0.00159044
0.00159045
0.00160386
0.00160387
0.00159043
0.00160187
0.00160187
0.00160187
0.00157499
0.00157499
0.00157499
0.00157499
0.00159055
0.00160384
0.00160183
0.00159281
0.00160385
0.00159049
0.00159287
0.00160386
0.00159044
0.00159055
0.00160183
0.00160384
0.00159281
0.00160385
0.00159287
0.00159049
0.00160387
0.00160387
0.00159071
0.00159044
0.00159044
0.00155463
0.00156802
0.00156802
0.00155462
0.00156802
0.00155462
0.00155463
0.00156802
0.00156802
0.00155462
0.00156603
0.00156603
0.00156603
0.00153919
0.00153919
0.00153919
0.00153919
0.00155473
0.001568
0.00156599
0.00155698
0.00156801
0.00155467
0.00155703
0.00156802
0.00155462
0.00155473
0.00156599
0.001568
0.00155698
0.00156801
0.00155703
0.00155467
0.00156803
0.00156803
0.00155489
0.00155462
0.00155462
0.00151887
0.00153224
0.00153224
0.00151886
0.00153224
0.00151886
0.00151887
0.00153224
0.00153224
0.00151886
0.00153025
0.00153025
0.00153025
0.00150346
0.00150345
0.00150346
0.00150345
0.00151897
0.00153222
0.0015302
0.0015212
0.00153222
0.00151891
0.00152126
0.00153224
0.00151886
0.00151897
0.0015302
0.00153222
0.00152121
0.00153222
0.00152126
0.00151891
0.00153224
0.00153224
0.00151912
0.00151886
0.00151886
0.00148316
0.00149651
0.00149652
0.00148315
0.00149651
0.00148316
0.00148316
0.00149651
0.00149652
0.00148315
0.00149453
0.00149453
0.00149453
0.00146777
0.00146777
0.00146777
0.00146777
0.00148326
0.00149649
0.00149447
0.00148549
0.00149649
0.0014832
0.00148555
0.00149651
0.00148316
0.00148326
0.00149447
0.00149649
0.00148549
0.00149649
0.00148554
0.0014832
0.00149652
0.00149652
0.00148341
0.00148316
0.00148316
0.00144751
0.00146084
0.00146084
0.0014475
0.00146084
0.0014475
0.00144751
0.00146084
0.00146084
0.0014475
0.00145885
0.00145885
0.00145885
0.00143213
0.00143213
0.00143213
0.00143213
0.0014476
0.00146082
0.00145879
0.00144982
0.00146082
0.00144754
0.00144988
0.00146084
0.0014475
0.0014476
0.00145879
0.00146082
0.00144982
0.00146082
0.00144988
0.00144754
0.00146085
0.00146085
0.00144775
0.0014475
0.0014475
0.0014119
0.00142521
0.00142522
0.00141189
0.00142521
0.00141189
0.0014119
0.00142521
0.00142522
0.00141189
0.00142323
0.00142323
0.00142323
0.00139654
0.00139654
0.00139654
0.00139654
0.00141199
0.00142519
0.00142316
0.0014142
0.00142519
0.00141193
0.00141426
0.00142521
0.00141189
0.00141199
0.00142316
0.00142519
0.00141421
0.00142519
0.00141426
0.00141193
0.00142522
0.00142522
0.00141213
0.00141189
0.00141189
0.00137633
0.00138963
0.00138963
0.00137632
0.00138963
0.00137633
0.00137633
0.00138963
0.00138963
0.00137632
0.00138764
0.00138764
0.00138764
0.00136098
0.00136098
0.00136098
0.00136098
0.00137641
0.00138961
0.00138757
0.00137863
0.0013896
0.00137636
0.00137868
0.00138963
0.00137633
0.00137641
0.00138757
0.00138961
0.00137863
0.0013896
0.00137868
0.00137636
0.00138964
0.00138964
0.00137656
0.00137632
0.00137632
0.0013408
0.00135409
0.00135409
0.00134079
0.00135409
0.0013408
0.0013408
0.00135409
0.00135409
0.00134079
0.0013521
0.0013521
0.0013521
0.00132546
0.00132546
0.00132546
0.00132546
0.00134088
0.00135406
0.00135202
0.00134309
0.00135406
0.00134083
0.00134314
0.00135409
0.0013408
0.00134088
0.00135202
0.00135406
0.00134309
0.00135406
0.00134314
0.00134083
0.00135409
0.00135409
0.00134102
0.00134079
0.00134079
0.0013053
0.00131858
0.00131858
0.0013053
0.00131858
0.0013053
0.0013053
0.00131858
0.00131858
0.0013053
0.00131658
0.00131658
0.00131658
0.00128997
0.00128997
0.00128997
0.00128997
0.00130538
0.00131855
0.0013165
0.00130758
0.00131854
0.00130533
0.00130763
0.00131858
0.0013053
0.00130538
0.0013165
0.00131855
0.00130758
0.00131854
0.00130763
0.00130533
0.00131858
0.00131858
0.00130552
0.00130529
0.00130529
0.00126983
0.0012831
0.0012831
0.00126983
0.0012831
0.00126983
0.00126983
0.0012831
0.0012831
0.00126983
0.0012811
0.0012811
0.0012811
0.0012545
0.0012545
0.0012545
0.0012545
0.00126991
0.00128307
0.00128102
0.00127211
0.00128306
0.00126986
0.00127215
0.0012831
0.00126983
0.00126991
0.00128102
0.00128307
0.00127211
0.00128306
0.00127215
0.00126986
0.0012831
0.0012831
0.00127005
0.00126982
0.00126982
0.00123439
0.00124765
0.00124765
0.00123438
0.00124765
0.00123438
0.00123439
0.00124765
0.00124765
0.00123438
0.00124564
0.00124564
0.00124564
0.00121906
0.00121905
0.00121906
0.00121905
0.00123446
0.00124762
0.00124556
0.00123665
0.00124761
0.00123441
0.0012367
0.00124765
0.00123439
0.00123446
0.00124556
0.00124762
0.00123665
0.00124761
0.00123669
0.00123441
0.00124765
0.00124765
0.00123459
0.00123438
0.00123438
0.00119896
0.00121221
0.00121221
0.00119896
0.00121222
0.00119897
0.00119896
0.00121222
0.00121221
0.00119896
0.00121019
0.0012102
0.00121019
0.00118363
0.00118363
0.00118363
0.00118363
0.00119903
0.00121218
0.00121011
0.00120122
0.00121217
0.00119899
0.00120126
0.00121222
0.00119896
0.00119903
0.00121011
0.00121218
0.00120122
0.00121217
0.00120126
0.00119899
0.00121222
0.00121222
0.00119917
0.00119896
0.00119895
0.00116356
0.00117681
0.0011768
0.00116355
0.00117681
0.00116355
0.00116356
0.00117681
0.0011768
0.00116355
0.00117478
0.00117478
0.00117478
0.00114823
0.00114822
0.00114822
0.00114822
0.00116362
0.00117677
0.00117471
0.00116581
0.00117676
0.00116358
0.00116585
0.0011768
0.00116355
0.00116362
0.0011747
0.00117677
0.00116581
0.00117676
0.00116585
0.00116358
0.0011768
0.0011768
0.00116375
0.00116354
0.00116354
0.00112816
0.0011414
0.0011414
0.00112816
0.0011414
0.00112816
0.00112816
0.0011414
0.0011414
0.00112816
0.00113937
0.00113937
0.00113937
0.00111281
0.00111282
0.00111282
0.00111282
0.00112822
0.00114137
0.00113929
0.00113041
0.00114136
0.00112819
0.00113044
0.0011414
0.00112816
0.00112823
0.00113929
0.00114137
0.00113041
0.00114136
0.00113044
0.00112819
0.0011414
0.0011414
0.00112835
0.00112815
0.00112815
0.00109277
0.00110602
0.00110601
0.00109277
0.00110601
0.00109277
0.00109277
0.00110602
0.00110601
0.00109277
0.00110397
0.00110397
0.00110397
0.00107742
0.00107741
0.00107742
0.00107742
0.00109283
0.00110598
0.0011039
0.00109501
0.00110596
0.00109279
0.00109505
0.00110602
0.00109277
0.00109283
0.0011039
0.00110598
0.00109501
0.00110596
0.00109505
0.00109279
0.00110601
0.00110601
0.00109296
0.00109276
0.00109276
0.00105739
0.00107063
0.00107062
0.00105739
0.00107063
0.0010574
0.00105739
0.00107062
0.00107062
0.00105739
0.00106856
0.00106857
0.00106857
0.00104204
0.00104204
0.00104204
0.00104204
0.00105745
0.00107059
0.0010685
0.00105962
0.00107058
0.00105742
0.00105966
0.00107063
0.00105739
0.00105745
0.0010685
0.00107059
0.00105962
0.00107057
0.00105965
0.00105741
0.00107063
0.00107063
0.00105758
0.00105738
0.00105738
0.00102201
0.00103525
0.00103525
0.00102201
0.00103525
0.00102201
0.00102201
0.00103525
0.00103525
0.00102201
0.0010332
0.00103319
0.00103319
0.00100665
0.00100666
0.00100666
0.00100665
0.00102207
0.00103521
0.00103313
0.00102425
0.0010352
0.00102203
0.00102428
0.00103525
0.00102201
0.00102207
0.00103312
0.00103521
0.00102425
0.0010352
0.00102428
0.00102204
0.00103524
0.00103524
0.0010222
0.001022
0.001022
0.000986639
0.000999887
0.000999877
0.000986641
0.000999881
0.000986633
0.000986642
0.000999887
0.000999878
0.000986644
0.000997819
0.000997821
0.000997824
0.000971301
0.000971281
0.000971288
0.000971285
0.000986695
0.000999845
0.000997758
0.000988871
0.00099983
0.000986654
0.000988915
0.000999884
0.000986636
0.000986698
0.000997759
0.000999848
0.000988876
0.000999832
0.000988918
0.000986658
0.000999884
0.000999884
0.000986822
0.00098662
0.00098662
0.000951261
0.000964492
0.000964486
0.000951262
0.000964503
0.000951282
0.000951257
0.000964491
0.000964486
0.000951256
0.000962414
0.000962421
0.000962415
0.000935845
0.000935865
0.00093586
0.000935859
0.000951315
0.000964453
0.000962341
0.000953471
0.000964429
0.000951296
0.000953489
0.000964498
0.000951276
0.000951313
0.000962344
0.000964451
0.00095347
0.000964429
0.00095349
0.000951292
0.000964488
0.000964488
0.000951433
0.000951264
0.000951264
0.000915824
0.000929113
0.000929115
0.000915818
0.000929108
0.000915803
0.000915828
0.000929112
0.000929113
0.000915822
0.000927034
0.000927027
0.00092703
0.000900405
0.000900405
0.0009004
0.000900407
0.000915895
0.000929087
0.000926986
0.000918088
0.000929077
0.000915838
0.00091813
0.000929106
0.000915805
0.000915893
0.000926981
0.000929084
0.000918082
0.000929073
0.000918125
0.000915837
0.000929113
0.000929114
0.000916023
0.000915802
0.000915802
0.000880325
0.000893601
0.00089358
0.000880358
0.000893589
0.000880363
0.00088032
0.000893602
0.000893582
0.000880356
0.00089149
0.000891484
0.000891491
0.00086493
0.000864911
0.000864911
0.000864909
0.000880334
0.000893533
0.000891404
0.000882485
0.00089351
0.00088034
0.000882512
0.000893591
0.000880367
0.000880333
0.0008914
0.000893534
0.000882482
0.000893511
0.000882509
0.000880342
0.000893579
0.000893578
0.000880439
0.000880335
0.000880332
0.000845191
0.000858327
0.000858311
0.000845151
0.000858336
0.000845173
0.000845207
0.000858331
0.000858313
0.000845163
0.000856132
0.000856141
0.000856133
0.000829909
0.000829902
0.000829949
0.000829928
0.000845269
0.000858278
0.000856096
0.000847353
0.000858227
0.000845235
0.000847361
0.000858353
0.000845194
0.000845286
0.000856106
0.000858292
0.000847377
0.000858228
0.00084738
0.000845258
0.000858321
0.000858323
0.000845396
0.000845185
0.000845188
0.00080963
0.00082297
0.000823006
0.00080961
0.000822975
0.000809592
0.000809613
0.000822967
0.00082301
0.000809593
0.000821163
0.000821201
0.000821187
0.000794098
0.0007941
0.000794039
0.000794056
0.000809739
0.000822993
0.000821124
0.000812083
0.00082306
0.00080965
0.000812178
0.000822953
0.000809541
0.000809719
0.000821146
0.000822986
0.000812068
0.00082306
0.000812171
0.000809617
0.000822994
0.000822999
0.000809924
0.000809585
0.000809589
0.000773609
0.000787101
0.000787061
0.000773692
0.000787087
0.000773698
0.0007736
0.000787085
0.000787024
0.000773693
0.000784936
0.000784874
0.000784891
0.000757652
0.000757656
0.000757636
0.000757637
0.000773459
0.000787002
0.000784822
0.000775665
0.000786977
0.000773597
0.000775681
0.000787046
0.000773722
0.000773448
0.000784771
0.000786945
0.000775593
0.000786927
0.000775626
0.000773594
0.000787029
0.000787027
0.000773435
0.000773648
0.000773646
0.000751566
0.000751478
0.000751586
0.000738559
0.000751604
0.000751528
0.000748731
0.000748777
0.000748775
0.000751453
0.00074874
0.000751273
0.000751691
0.000738652
0.000738566
0.000748802
0.000751549
0.000740362
0.000751342
0.000740286
0.000738632
0.000751626
0.000751609
0.000738491
0.000738593
0.000738601
0.00167575
0.00166227
0.00167575
0.00166227
0.00167576
0.00167576
0.00166257
0.00166228
0.00166228
0.00164429
0.00165775
0.00164429
0.00165775
0.00165774
0.00164429
0.00164429
0.00165776
0.00165776
0.00166229
0.00167574
0.00167575
0.00166227
0.0016624
0.00167573
0.00167373
0.00166467
0.00167575
0.00166233
0.00166473
0.0016624
0.00167573
0.00167373
0.00166467
0.00167575
0.00166233
0.00166473
0.00165776
0.00164428
0.00165775
0.0016443
0.00165776
0.00164428
0.00165775
0.0016443
0.00165775
0.00165567
0.00164434
0.00164674
0.00165773
0.00165573
0.00164441
0.00165775
0.00165567
0.00164434
0.00164674
0.00165773
0.00165573
0.00164441
0.00167576
0.00167576
0.00166257
0.00166228
0.00166228
0.00167575
0.00166227
0.00164429
0.00165775
0.00165774
0.00164429
0.00164429
0.00165776
0.00165776
0.00164429
0.00165775
0.0016624
0.00167573
0.00167373
0.00166467
0.00167575
0.00166233
0.00166473
0.00166229
0.00166227
0.0016624
0.00166467
0.00166473
0.00166233
0.00165776
0.00164428
0.00165775
0.0016443
0.00165775
0.00165567
0.00164434
0.00164674
0.00165773
0.00165573
0.00164441
0.00165776
0.00164428
0.00165775
0.0016443
0.00165775
0.00165567
0.00164674
0.00164434
0.00165573
0.00165773
0.00164441
0.00166229
0.00167574
0.00167575
0.00166227
0.0016624
0.00167373
0.00167573
0.00166467
0.00167575
0.00166473
0.00166233
0.00166229
0.00167574
0.00167575
0.00166227
0.00165775
0.00165567
0.00164434
0.00164674
0.00165773
0.00165573
0.00164441
0.00165776
0.00164428
0.00165775
0.0016443
0.00165775
0.00165567
0.00164674
0.00164434
0.00165573
0.00165773
0.00164441
0.00165776
0.00164428
0.00165775
0.0016443
0.00166256
0.00166228
0.00166228
0.00166227
0.00164429
0.00165775
0.00165774
0.00164429
0.00164429
0.00165776
0.00165776
0.00164429
0.00165775
0.0016624
0.00167373
0.00167573
0.00166467
0.00167575
0.00166473
0.00166233
0.00166229
0.00167575
0.00166227
0.00166229
0.00167574
0.00167575
0.00166227
0.00165775
0.00165567
0.00164674
0.00164434
0.00165573
0.00165773
0.00164441
0.00165775
0.00165567
0.00164674
0.00164434
0.00165573
0.00165773
0.00164441
0.00165776
0.00164428
0.00165775
0.0016443
0.00165776
0.00164428
0.00165775
0.0016443
0.00167575
0.00166227
0.00167575
0.00166227
0.00165774
0.00164429
0.00164429
0.00165776
0.00165776
0.00164429
0.00165775
0.00164429
0.00165775
0.00163977
0.00162632
0.00163977
0.00162632
0.00163978
0.00163978
0.00162661
0.00162632
0.00162632
0.00160837
0.0016218
0.00160837
0.0016218
0.00162178
0.00160837
0.00160837
0.00162182
0.00162182
0.00162633
0.00163976
0.00163977
0.00162632
0.00162644
0.00163975
0.00163775
0.0016287
0.00163976
0.00162637
0.00162876
0.00162644
0.00163975
0.00163775
0.0016287
0.00163976
0.00162637
0.00162876
0.00162181
0.00160837
0.0016218
0.00160838
0.00162181
0.00160837
0.0016218
0.00160838
0.0016218
0.00161972
0.00160842
0.00161081
0.00162179
0.00161978
0.00160849
0.0016218
0.00161972
0.00160842
0.00161081
0.00162179
0.00161978
0.00160849
0.00163978
0.00163978
0.00162661
0.00162632
0.00162632
0.00163977
0.00162632
0.00160837
0.0016218
0.00162178
0.00160837
0.00160837
0.00162181
0.00162181
0.00160837
0.0016218
0.00162644
0.00163975
0.00163775
0.0016287
0.00163976
0.00162637
0.00162876
0.00162633
0.00163976
0.00163977
0.00162632
0.00162644
0.00163775
0.00163975
0.0016287
0.00163976
0.00162876
0.00162637
0.00162181
0.00160837
0.0016218
0.00160838
0.0016218
0.00161972
0.00160842
0.00161081
0.00162179
0.00161978
0.00160849
0.00162181
0.00160837
0.0016218
0.00160838
0.0016218
0.00161972
0.00161081
0.00160842
0.00161978
0.00162179
0.00160849
0.00162633
0.00163977
0.00163977
0.00162632
0.00162644
0.00163775
0.00163975
0.0016287
0.00163976
0.00162876
0.00162637
0.00162633
0.00163977
0.00163977
0.00162632
0.0016218
0.00161972
0.00160842
0.00161081
0.00162179
0.00161978
0.00160849
0.00162181
0.00160837
0.0016218
0.00160838
0.0016218
0.00161972
0.00161081
0.00160842
0.00161978
0.00162179
0.00160849
0.00162181
0.00160837
0.0016218
0.00160838
0.00163978
0.00163978
0.00162661
0.00162632
0.00162632
0.00163977
0.00162632
0.00160837
0.0016218
0.00162178
0.00160837
0.00160837
0.00162182
0.00162182
0.00160837
0.0016218
0.00162644
0.00163775
0.00163975
0.0016287
0.00163976
0.00162876
0.00162637
0.00162633
0.00163977
0.00163977
0.00162632
0.00162633
0.00163977
0.00163977
0.00162632
0.0016218
0.00161972
0.00161081
0.00160842
0.00161978
0.00162179
0.00160849
0.0016218
0.00161972
0.00161081
0.00160842
0.00161978
0.00162179
0.00160849
0.00162181
0.00160837
0.0016218
0.00160838
0.00162181
0.00160837
0.0016218
0.00160838
0.00163977
0.00162632
0.00163977
0.00162632
0.00162179
0.00160837
0.00160837
0.00162182
0.00162182
0.00160837
0.0016218
0.00160837
0.0016218
0.00160386
0.00159044
0.00160386
0.00159044
0.00160387
0.00160387
0.00159072
0.00159044
0.00159044
0.00157252
0.00158593
0.00157252
0.00158593
0.0015859
0.00157252
0.00157252
0.00158594
0.00158594
0.00159045
0.00160386
0.00160387
0.00159043
0.00159055
0.00160384
0.00160183
0.00159281
0.00160385
0.00159049
0.00159287
0.00159055
0.00160384
0.00160183
0.00159281
0.00160385
0.00159049
0.00159287
0.00158594
0.00157252
0.00158593
0.00157253
0.00158594
0.00157252
0.00158593
0.00157253
0.00158592
0.00158384
0.00157257
0.00157494
0.00158591
0.0015839
0.00157263
0.00158592
0.00158384
0.00157257
0.00157494
0.00158591
0.0015839
0.00157263
0.00160387
0.00160387
0.00159072
0.00159044
0.00159044
0.00160386
0.00159044
0.00157252
0.00158593
0.0015859
0.00157252
0.00157252
0.00158594
0.00158594
0.00157252
0.00158593
0.00159055
0.00160384
0.00160183
0.00159281
0.00160385
0.00159049
0.00159287
0.00159045
0.00160386
0.00160387
0.00159043
0.00159055
0.00160183
0.00160384
0.00159281
0.00160385
0.00159287
0.00159049
0.00158594
0.00157252
0.00158593
0.00157253
0.00158592
0.00158384
0.00157257
0.00157494
0.00158591
0.0015839
0.00157263
0.00158594
0.00157252
0.00158593
0.00157253
0.00158592
0.00158384
0.00157494
0.00157257
0.0015839
0.00158591
0.00157263
0.00159045
0.00160386
0.00160387
0.00159043
0.00159055
0.00160183
0.00160384
0.00159281
0.00160385
0.00159287
0.00159049
0.00159045
0.00160386
0.00160387
0.00159043
0.00158592
0.00158384
0.00157257
0.00157494
0.00158591
0.0015839
0.00157263
0.00158594
0.00157252
0.00158593
0.00157253
0.00158592
0.00158384
0.00157494
0.00157257
0.0015839
0.00158591
0.00157263
0.00158594
0.00157252
0.00158593
0.00157253
0.00160387
0.00160387
0.00159071
0.00159044
0.00159044
0.00160386
0.00159044
0.00157252
0.00158593
0.0015859
0.00157252
0.00157252
0.00158594
0.00158594
0.00157252
0.00158593
0.00159055
0.00160183
0.00160384
0.00159281
0.00160385
0.00159287
0.00159049
0.00159045
0.00160386
0.00160387
0.00159043
0.00159045
0.00160386
0.00160387
0.00159043
0.00158592
0.00158384
0.00157494
0.00157257
0.0015839
0.00158591
0.00157263
0.00158592
0.00158384
0.00157494
0.00157257
0.0015839
0.00158591
0.00157263
0.00158594
0.00157252
0.00158593
0.00157253
0.00158594
0.00157252
0.00158593
0.00157253
0.00160386
0.00159044
0.00160386
0.00159044
0.0015859
0.00157252
0.00157252
0.00158594
0.00158594
0.00157252
0.00158593
0.00157252
0.00158593
0.00156802
0.00155462
0.00156802
0.00155462
0.00156803
0.00156803
0.00155489
0.00155462
0.00155462
0.00153673
0.00155012
0.00153673
0.00155012
0.00155008
0.00153673
0.00153673
0.00155013
0.00155013
0.00155463
0.00156802
0.00156802
0.00155462
0.00155473
0.001568
0.00156599
0.00155698
0.00156801
0.00155467
0.00155703
0.00155473
0.001568
0.00156599
0.00155698
0.00156801
0.00155467
0.00155703
0.00155012
0.00153673
0.00155012
0.00153674
0.00155012
0.00153673
0.00155012
0.00153674
0.00155011
0.00154803
0.00153678
0.00153914
0.0015501
0.00154809
0.00153684
0.00155011
0.00154803
0.00153678
0.00153914
0.0015501
0.00154809
0.00153684
0.00156803
0.00156803
0.00155489
0.00155462
0.00155462
0.00156802
0.00155462
0.00153673
0.00155012
0.00155008
0.00153673
0.00153673
0.00155013
0.00155013
0.00153673
0.00155012
0.00155473
0.001568
0.00156599
0.00155698
0.00156801
0.00155467
0.00155703
0.00155463
0.00156802
0.00156802
0.00155462
0.00155473
0.00156599
0.001568
0.00155698
0.00156801
0.00155703
0.00155467
0.00155012
0.00153673
0.00155012
0.00153674
0.00155011
0.00154803
0.00153678
0.00153914
0.0015501
0.00154809
0.00153684
0.00155012
0.00153673
0.00155012
0.00153674
0.00155011
0.00154803
0.00153914
0.00153678
0.00154809
0.0015501
0.00153684
0.00155463
0.00156802
0.00156802
0.00155462
0.00155473
0.00156599
0.001568
0.00155698
0.00156801
0.00155703
0.00155467
0.00155463
0.00156802
0.00156802
0.00155462
0.00155011
0.00154803
0.00153678
0.00153914
0.0015501
0.00154809
0.00153684
0.00155012
0.00153673
0.00155012
0.00153674
0.00155011
0.00154803
0.00153914
0.00153678
0.00154809
0.0015501
0.00153684
0.00155012
0.00153673
0.00155012
0.00153674
0.00156803
0.00156803
0.00155489
0.00155462
0.00155462
0.00156802
0.00155462
0.00153673
0.00155012
0.00155008
0.00153673
0.00153673
0.00155013
0.00155013
0.00153673
0.00155012
0.00155473
0.00156599
0.001568
0.00155698
0.00156801
0.00155703
0.00155467
0.00155463
0.00156802
0.00156802
0.00155462
0.00155463
0.00156802
0.00156802
0.00155462
0.00155011
0.00154803
0.00153914
0.00153678
0.00154809
0.0015501
0.00153684
0.00155011
0.00154803
0.00153914
0.00153678
0.00154809
0.0015501
0.00153684
0.00155012
0.00153673
0.00155012
0.00153674
0.00155012
0.00153673
0.00155012
0.00153674
0.00156802
0.00155462
0.00156802
0.00155462
0.00155008
0.00153673
0.00153673
0.00155013
0.00155013
0.00153673
0.00155012
0.00153673
0.00155012
0.00153224
0.00151886
0.00153224
0.00151886
0.00153224
0.00153224
0.00151912
0.00151886
0.00151886
0.001501
0.00151437
0.001501
0.00151437
0.00151432
0.001501
0.001501
0.00151437
0.00151437
0.00151887
0.00153224
0.00153224
0.00151886
0.00151897
0.00153222
0.0015302
0.00152121
0.00153222
0.00151891
0.00152126
0.00151897
0.00153222
0.0015302
0.0015212
0.00153222
0.00151891
0.00152126
0.00151437
0.001501
0.00151437
0.00150101
0.00151437
0.001501
0.00151437
0.00150101
0.00151435
0.00151227
0.00150105
0.0015034
0.00151435
0.00151233
0.0015011
0.00151435
0.00151227
0.00150105
0.0015034
0.00151435
0.00151233
0.0015011
0.00153224
0.00153224
0.00151912
0.00151886
0.00151886
0.00153224
0.00151886
0.001501
0.00151437
0.00151432
0.001501
0.001501
0.00151437
0.00151437
0.001501
0.00151437
0.00151897
0.00153222
0.0015302
0.00152121
0.00153222
0.00151891
0.00152126
0.00151887
0.00153224
0.00153224
0.00151886
0.00151897
0.0015302
0.00153222
0.00152121
0.00153222
0.00152126
0.00151891
0.00151437
0.001501
0.00151437