/*--------------------------------*- C++ -*----------------------------------*\
| =========                 |                                                 |
| \\      /  F ield         | OpenFOAM: The Open Source CFD Toolbox           |
|  \\    /   O peration     | Version:  2312                                  |
|   \\  /    A nd           | Website:  www.openfoam.com                      |
|    \\/     M anipulation  |                                                 |
\*---------------------------------------------------------------------------*/
FoamFile
{
    version     2.0;
    format      ascii;
    arch        "LSB;label=32;scalar=64";
    class       volVectorField;
    location    "750";
    object      U;
}
// * * * * * * * * * * * * * * * * * * * * * * * * * * * * * * * * * * * * * //

dimensions      [0 1 -1 0 0 0 0];

internalField   nonuniform List<vector> 
42973
(
(2.40065e-05 2.4034e-05 0.113152)
(-1.67806e-05 1.01135e-05 0.108269)
(-4.78923e-05 -4.78927e-05 0.104719)
(2.194e-05 2.19616e-05 0.113168)
(-1.4425e-05 8.75488e-06 0.108214)
(8.75334e-06 -1.44298e-05 0.108213)
(-4.60159e-05 -4.60126e-05 0.104666)
(1.98414e-05 1.98643e-05 0.113177)
(-1.21481e-05 7.49577e-06 0.108161)
(7.49545e-06 -1.21542e-05 0.10816)
(-4.427e-05 -4.4266e-05 0.104616)
(1.7725e-05 1.77352e-05 0.113179)
(-9.96451e-06 6.32637e-06 0.10811)
(6.32742e-06 -9.96058e-06 0.108109)
(-4.26603e-05 -4.26462e-05 0.104569)
(1.56226e-05 1.56473e-05 0.113176)
(-7.91777e-06 5.24803e-06 0.108061)
(5.24776e-06 -7.92294e-06 0.10806)
(-4.11674e-05 -4.11618e-05 0.104525)
(1.3562e-05 1.35334e-05 0.113167)
(-5.97971e-06 4.23118e-06 0.108015)
(4.24846e-06 -5.98846e-06 0.108014)
(-3.9778e-05 -3.97688e-05 0.104485)
(1.15312e-05 1.15423e-05 0.113153)
(-4.19441e-06 3.29029e-06 0.10797)
(3.27814e-06 -4.18634e-06 0.107969)
(-3.8489e-05 -3.84809e-05 0.104448)
(9.59904e-06 9.63909e-06 0.113135)
(-2.44996e-06 2.3838e-06 0.107928)
(2.39117e-06 -2.44955e-06 0.107927)
(-3.73032e-05 -3.72828e-05 0.104414)
(7.65581e-06 7.61106e-06 0.113113)
(-8.96151e-07 1.56641e-06 0.107888)
(1.58199e-06 -8.99589e-07 0.107886)
(-3.61837e-05 -3.61824e-05 0.104383)
(5.80905e-06 5.89889e-06 0.113088)
(6.04425e-07 7.98625e-07 0.10785)
(7.61235e-07 6.28075e-07 0.107849)
(-3.51704e-05 -3.51462e-05 0.104354)
(4.03649e-06 3.96276e-06 0.113061)
(2.03674e-06 1.33099e-07 0.107814)
(1.58595e-07 1.97352e-06 0.107813)
(-3.42446e-05 -3.42383e-05 0.104329)
(2.38603e-06 2.44122e-06 0.113031)
(3.25279e-06 -5.43091e-07 0.107781)
(-5.4994e-07 3.32927e-06 0.107779)
(-3.33644e-05 -3.33373e-05 0.104306)
(7.0144e-07 8.07656e-07 0.112999)
(4.41073e-06 -1.12957e-06 0.107749)
(-1.16156e-06 4.40389e-06 0.107748)
(-3.24739e-05 -3.23988e-05 0.104285)
(-4.60103e-07 -6.71881e-07 0.112966)
(5.55138e-06 -1.74047e-06 0.10772)
(-1.70135e-06 5.47485e-06 0.107719)
(-3.1692e-05 -3.19002e-05 0.104267)
(-2.17576e-06 -1.98059e-06 0.112931)
(6.18779e-06 -2.11717e-06 0.107692)
(-2.13707e-06 6.22866e-06 0.107691)
(-3.11546e-05 -3.08483e-05 0.104251)
(-2.96838e-06 -2.99902e-06 0.112895)
(7.2507e-06 -2.8896e-06 0.107666)
(-2.88188e-06 7.24783e-06 0.107666)
(-3.02783e-05 -3.03938e-05 0.104237)
(-4.76519e-06 -4.66549e-06 0.112859)
(7.72861e-06 -2.95588e-06 0.107643)
(-2.96865e-06 7.74346e-06 0.107642)
(-2.9777e-05 -2.9907e-05 0.104225)
(-4.7053e-06 -5.06023e-06 0.112821)
(8.67689e-06 -3.96729e-06 0.107622)
(-3.90111e-06 8.58047e-06 0.10762)
(-2.93514e-05 -2.91301e-05 0.104215)
(-6.65913e-06 -6.13326e-06 0.112783)
(9.10887e-06 -3.71416e-06 0.107601)
(-3.88966e-06 9.14968e-06 0.1076)
(-2.87528e-05 -2.87247e-05 0.104207)
(-7.66254e-06 -7.61734e-06 0.112745)
(9.52071e-06 -5.02385e-06 0.10758)
(-4.8255e-06 9.60485e-06 0.10758)
(-2.79722e-05 -2.80513e-05 0.1042)
(-7.34763e-06 -8.16553e-06 0.112706)
(1.12261e-05 -4.44614e-06 0.107566)
(-4.39178e-06 1.10937e-05 0.107565)
(-2.78563e-05 -2.80159e-05 0.104196)
(-8.88036e-06 -7.93401e-06 0.112668)
(8.80605e-06 -5.03277e-06 0.10755)
(-5.30614e-06 8.80705e-06 0.107549)
(-2.81587e-05 -2.75644e-05 0.104193)
(-1.03142e-05 -1.04399e-05 0.112636)
(1.11803e-05 -5.03794e-06 0.107538)
(-4.96219e-06 1.11764e-05 0.107538)
(-2.77847e-05 -2.82177e-05 0.104195)
(-8.53891e-06 -7.86573e-06 0.112594)
(1.2911e-05 -5.76751e-06 0.107532)
(-6.21492e-06 1.35194e-05 0.107533)
(-2.51698e-05 -2.56073e-05 0.104195)
(-6.89362e-06 -1.08347e-05 0.112548)
(9.60227e-06 -6.39792e-06 0.107493)
(-3.62502e-06 7.93341e-06 0.107487)
(-2.54155e-05 -2.59772e-05 0.104173)
(-1.48491e-05 -9.4767e-06 0.11252)
(1.08782e-05 -7.7276e-07 0.107493)
(-4.96194e-06 1.27022e-05 0.107492)
(-3.44232e-05 -2.90809e-05 0.10419)
(-2.11103e-05 -2.01407e-05 0.112488)
(1.24186e-05 -1.09405e-05 0.107549)
(-1.09412e-05 1.39624e-05 0.107563)
(-2.30847e-05 -3.10264e-05 0.104252)
(4.7888e-05 4.7878e-05 0.10472)
(-4.33989e-05 -4.33835e-05 0.104836)
(1.01708e-05 1.68323e-05 0.108266)
(-1.01614e-05 1.68314e-05 0.108266)
(9.14292e-06 1.50619e-05 0.108225)
(-9.1368e-06 1.50612e-05 0.108225)
(-4.78985e-05 4.78642e-05 0.10472)
(4.34048e-05 -4.33881e-05 0.104836)
(1.67766e-05 1.01248e-05 0.108268)
(1.50002e-05 9.10411e-06 0.108227)
(1.50513e-05 -9.14182e-06 0.108224)
(-1.68089e-05 -1.01415e-05 0.108265)
(-1.50067e-05 9.0912e-06 0.108227)
(-1.50381e-05 -9.11976e-06 0.108224)
(-4.33758e-05 4.33939e-05 0.104835)
(-1.01042e-05 -1.67605e-05 0.108267)
(9.08848e-06 -1.50076e-05 0.108226)
(-9.08363e-06 -1.49855e-05 0.108226)
(4.3382e-05 4.33948e-05 0.104835)
(4.6004e-05 4.60052e-05 0.104666)
(-4.372e-05 -4.37049e-05 0.104782)
(8.81006e-06 1.4479e-05 0.108212)
(-8.80818e-06 1.4477e-05 0.108211)
(7.85885e-06 1.27714e-05 0.108172)
(-7.85062e-06 1.27699e-05 0.108171)
(-4.60182e-05 4.59852e-05 0.104666)
(4.37273e-05 -4.37085e-05 0.104783)
(1.44157e-05 8.77094e-06 0.108214)
(1.44671e-05 -8.81353e-06 0.10821)
(1.27039e-05 7.81992e-06 0.108174)
(1.27559e-05 -7.85757e-06 0.10817)
(-1.44573e-05 -8.78884e-06 0.108211)
(-1.27081e-05 7.80574e-06 0.108174)
(-1.27517e-05 -7.84441e-06 0.108171)
(4.59925e-05 -4.60405e-05 0.104666)
(-4.36966e-05 4.3716e-05 0.104782)
(-8.75342e-06 -1.44056e-05 0.108213)
(7.80414e-06 -1.27108e-05 0.108173)
(-7.80689e-06 -1.2698e-05 0.108173)
(4.37007e-05 4.37133e-05 0.104781)
(4.42573e-05 4.42579e-05 0.104616)
(-4.39875e-05 -4.39714e-05 0.104732)
(7.54919e-06 1.2213e-05 0.108159)
(-7.54138e-06 1.22111e-05 0.108158)
(6.66634e-06 1.05614e-05 0.10812)
(-6.65534e-06 1.05517e-05 0.10812)
(-4.42671e-05 4.42396e-05 0.104616)
(4.39948e-05 -4.39766e-05 0.104732)
(1.21422e-05 7.50812e-06 0.108161)
(1.21966e-05 -7.54773e-06 0.108157)
(1.05003e-05 6.62859e-06 0.108122)
(1.05513e-05 -6.65912e-06 0.108119)
(-1.21916e-05 -7.53093e-06 0.108158)
(-1.04952e-05 6.61366e-06 0.108123)
(-1.05423e-05 -6.6398e-06 0.10812)
(4.42473e-05 -4.4289e-05 0.104615)
(-4.39584e-05 4.39845e-05 0.104731)
(-7.49285e-06 -1.21385e-05 0.10816)
(6.61882e-06 -1.04937e-05 0.108122)
(-6.61366e-06 -1.04816e-05 0.108121)
(4.3966e-05 4.39875e-05 0.104731)
(4.26412e-05 4.26469e-05 0.104569)
(-4.42077e-05 -4.41882e-05 0.104685)
(6.37325e-06 1.00334e-05 0.108108)
(-6.3691e-06 1.00234e-05 0.108107)
(5.56276e-06 8.48976e-06 0.108071)
(-5.55738e-06 8.49228e-06 0.108071)
(-4.26521e-05 4.26261e-05 0.104569)
(4.42097e-05 -4.41871e-05 0.104686)
(9.96348e-06 6.33924e-06 0.10811)
(1.00187e-05 -6.37406e-06 0.108106)
(8.41593e-06 5.53141e-06 0.108073)
(8.48357e-06 -5.56758e-06 0.10807)
(-1.00153e-05 -6.35329e-06 0.108107)
(-8.42855e-06 5.52209e-06 0.108073)
(-8.46524e-06 -5.54716e-06 0.10807)
(4.26383e-05 -4.26738e-05 0.104569)
(-4.41793e-05 4.41925e-05 0.104685)
(-6.32611e-06 -9.9498e-06 0.108109)
(5.5166e-06 -8.43716e-06 0.108072)
(-5.51112e-06 -8.41401e-06 0.108072)
(4.4189e-05 4.41992e-05 0.104684)
(4.11537e-05 4.11596e-05 0.104526)
(-4.43961e-05 -4.43939e-05 0.104642)
(5.30626e-06 7.99032e-06 0.108059)
(-5.28921e-06 7.98348e-06 0.108059)
(4.52692e-06 6.51219e-06 0.108024)
(-4.51311e-06 6.50519e-06 0.108023)
(-4.11664e-05 4.11432e-05 0.104526)
(4.44083e-05 -4.43919e-05 0.104642)
(7.91087e-06 5.27347e-06 0.108061)
(7.97004e-06 -5.29804e-06 0.108058)
(6.46238e-06 4.46676e-06 0.108026)
(6.51922e-06 -4.51738e-06 0.108022)
(-7.96273e-06 -5.2854e-06 0.108058)
(-6.45461e-06 4.47153e-06 0.108026)
(-6.50584e-06 -4.50687e-06 0.108023)
(4.11492e-05 -4.11929e-05 0.104525)
(-4.43724e-05 4.4401e-05 0.104641)
(-5.25369e-06 -7.90577e-06 0.10806)
(4.48304e-06 -6.45596e-06 0.108025)
(-4.46356e-06 -6.45107e-06 0.108025)
(4.43799e-05 4.43934e-05 0.104641)
(3.97611e-05 3.97578e-05 0.104486)
(-4.45485e-05 -4.45266e-05 0.104602)
(4.28104e-06 6.04238e-06 0.108012)
(-4.27005e-06 6.03279e-06 0.108012)
(3.55661e-06 4.68872e-06 0.107979)
(-3.56974e-06 4.67292e-06 0.107978)
(-3.97715e-05 3.97463e-05 0.104486)
(4.45527e-05 -4.45384e-05 0.104602)
(5.98183e-06 4.23563e-06 0.108014)
(6.0472e-06 -4.28412e-06 0.108011)
(4.60866e-06 3.52394e-06 0.107981)
(4.67629e-06 -3.56207e-06 0.107977)
(-6.03027e-06 -4.26057e-06 0.108011)
(-4.61722e-06 3.5216e-06 0.107981)
(-4.6694e-06 -3.5376e-06 0.107978)
(3.97632e-05 -3.9793e-05 0.104485)
(-4.45309e-05 4.45454e-05 0.104601)
(-4.22645e-06 -5.97268e-06 0.108013)
(3.51237e-06 -4.6049e-06 0.10798)
(-3.5131e-06 -4.59001e-06 0.10798)
(4.45287e-05 4.45482e-05 0.104601)
(3.84733e-05 3.84824e-05 0.104449)
(-4.46805e-05 -4.46532e-05 0.104565)
(3.31907e-06 4.23919e-06 0.107968)
(-3.33987e-06 4.24093e-06 0.107967)
(2.64572e-06 2.96958e-06 0.107936)
(-2.61536e-06 2.95497e-06 0.107935)
(-3.84903e-05 3.84627e-05 0.104449)
(4.46995e-05 -4.46614e-05 0.104565)
(4.17232e-06 3.28519e-06 0.10797)
(4.24714e-06 -3.34395e-06 0.107966)
(2.87523e-06 2.62861e-06 0.107938)
(2.95012e-06 -2.62727e-06 0.107934)
(-4.22705e-06 -3.312e-06 0.107967)
(-2.87448e-06 2.60371e-06 0.107938)
(-2.94432e-06 -2.63566e-06 0.107935)
(3.84635e-05 -3.85087e-05 0.104448)
(-4.46517e-05 4.46791e-05 0.104564)
(-3.2727e-06 -4.16378e-06 0.107969)
(2.59512e-06 -2.89151e-06 0.107937)
(-2.61114e-06 -2.8891e-06 0.107937)
(4.46505e-05 4.4669e-05 0.104564)
(3.72804e-05 3.72909e-05 0.104414)
(-4.4771e-05 -4.4784e-05 0.10453)
(2.44772e-06 2.55383e-06 0.107925)
(-2.4086e-06 2.5307e-06 0.107925)
(1.80477e-06 1.31463e-06 0.107895)
(-1.80828e-06 1.29885e-06 0.107895)
(-3.72743e-05 3.7266e-05 0.104415)
(4.47716e-05 -4.47736e-05 0.104531)
(2.47215e-06 2.40849e-06 0.107927)
(2.53215e-06 -2.40717e-06 0.107924)
(1.2575e-06 1.72964e-06 0.107897)
(1.32396e-06 -1.80249e-06 0.107894)
(-2.52702e-06 -2.41481e-06 0.107925)
(-1.2809e-06 1.74938e-06 0.107897)
(-1.31973e-06 -1.7791e-06 0.107894)
(3.72756e-05 -3.7294e-05 0.104414)
(-4.47486e-05 4.47694e-05 0.10453)
(-2.39536e-06 -2.4594e-06 0.107926)
(1.76406e-06 -1.26901e-06 0.107896)
(-1.73077e-06 -1.24075e-06 0.107896)
(4.47658e-05 4.47714e-05 0.104529)
(3.61684e-05 3.61582e-05 0.104383)
(-4.48515e-05 -4.4797e-05 0.104499)
(1.60351e-06 9.17029e-07 0.107885)
(-1.60161e-06 9.24863e-07 0.107885)
(1.02092e-06 -1.37874e-07 0.107857)
(-1.02902e-06 -1.87843e-07 0.107856)
(-3.61889e-05 3.61587e-05 0.104383)
(4.486e-05 -4.48365e-05 0.1045)
(8.7102e-07 1.54762e-06 0.107887)
(9.63148e-07 -1.6085e-06 0.107884)
(-2.59625e-07 1.04028e-06 0.107858)
(-1.97189e-07 -1.03605e-06 0.107855)
(-9.29425e-07 -1.59549e-06 0.107884)
(2.65243e-07 9.98481e-07 0.107859)
(1.82919e-07 -1.01113e-06 0.107856)
(3.6178e-05 -3.62094e-05 0.104383)
(-4.48342e-05 4.48439e-05 0.104499)
(-1.55319e-06 -8.65397e-07 0.107886)
(9.76607e-07 2.67582e-07 0.107858)
(-1.01278e-06 2.6656e-07 0.107857)
(4.48152e-05 4.48508e-05 0.104498)
(3.51428e-05 3.51769e-05 0.104355)
(-4.48776e-05 -4.48725e-05 0.104471)
(8.24386e-07 -5.00566e-07 0.107847)
(-8.53316e-07 -5.51832e-07 0.107847)
(3.30233e-07 -1.65549e-06 0.10782)
(-3.04476e-07 -1.61881e-06 0.10782)
(-3.51582e-05 3.51306e-05 0.104355)
(4.48926e-05 -4.48641e-05 0.104471)
(-6.20317e-07 8.11971e-07 0.107849)
(-5.85311e-07 -8.43023e-07 0.107846)
(-1.68329e-06 2.77e-07 0.107822)
(-1.57355e-06 -3.52909e-07 0.107819)
(5.4009e-07 -8.16953e-07 0.107847)
(1.67821e-06 3.00704e-07 0.107823)
(1.64254e-06 -3.3727e-07 0.10782)
(3.5122e-05 -3.51722e-05 0.104354)
(-4.48154e-05 4.48491e-05 0.10447)
(-7.89523e-07 6.23335e-07 0.107848)
(3.21165e-07 1.64478e-06 0.107822)
(-2.64223e-07 1.66559e-06 0.107821)
(4.48616e-05 4.48534e-05 0.10447)
(3.42178e-05 3.42343e-05 0.104329)
(-4.48979e-05 -4.49078e-05 0.104445)
(1.64159e-07 -1.97746e-06 0.107812)
(-1.21053e-07 -1.96015e-06 0.107811)
(-3.15906e-07 -2.87842e-06 0.107786)
(3.1025e-07 -2.93828e-06 0.107786)
(-3.42162e-05 3.42158e-05 0.104329)
(4.49078e-05 -4.49422e-05 0.104446)
(-2.0389e-06 1.54463e-07 0.107814)
(-1.90636e-06 -1.73891e-07 0.10781)
(-2.97124e-06 -3.54896e-07 0.107788)
(-2.9693e-06 3.85923e-07 0.107785)
(1.99149e-06 -1.496e-07 0.107811)
(2.96018e-06 -4.02913e-07 0.107789)
(2.90255e-06 3.67803e-07 0.107786)
(3.4265e-05 -3.42739e-05 0.104329)
(-4.49347e-05 4.49625e-05 0.104445)
(-1.22871e-07 2.0243e-06 0.107813)
(-4.22082e-07 3.02826e-06 0.107787)
(3.41247e-07 3.00872e-06 0.107787)
(4.48845e-05 4.49296e-05 0.104444)
(3.33545e-05 3.33222e-05 0.104306)
(-4.50513e-05 -4.49539e-05 0.104422)
(-4.5063e-07 -3.21953e-06 0.107778)
(4.40683e-07 -3.25657e-06 0.107778)
(-1.04901e-06 -4.08452e-06 0.107754)
(9.63403e-07 -4.13193e-06 0.107754)
(-3.33639e-05 3.32903e-05 0.104306)
(4.50286e-05 -4.49829e-05 0.104423)
(-3.25514e-06 -5.3504e-07 0.10778)
(-3.26554e-06 5.01614e-07 0.107777)
(-4.16314e-06 -9.72577e-07 0.107756)
(-4.06838e-06 9.22122e-07 0.107753)
(3.20628e-06 4.79201e-07 0.107777)
(4.1905e-06 -9.86759e-07 0.107756)
(4.09646e-06 1.0632e-06 0.107753)
(3.32991e-05 -3.33234e-05 0.104305)
(-4.49486e-05 4.49621e-05 0.104421)
(4.93878e-07 3.27865e-06 0.107779)
(-9.66841e-07 4.13106e-06 0.107755)
(9.90766e-07 4.17122e-06 0.107755)
(4.49646e-05 4.50394e-05 0.104421)
(3.2386e-05 3.2484e-05 0.104285)
(-4.4843e-05 -4.49928e-05 0.104402)
(-1.26089e-06 -4.36602e-06 0.107747)
(1.11321e-06 -4.36333e-06 0.107746)
(-1.31413e-06 -5.14947e-06 0.107725)
(1.59818e-06 -5.04839e-06 0.107724)
(-3.24443e-05 3.24598e-05 0.104285)
(4.49833e-05 -4.48984e-05 0.104402)
(-4.5077e-06 -1.16668e-06 0.107748)
(-4.3712e-06 1.11387e-06 0.107745)
(-5.13432e-06 -1.54573e-06 0.107726)
(-5.11964e-06 1.55386e-06 0.107723)
(4.37773e-06 1.27087e-06 0.107746)
(5.18362e-06 -1.49711e-06 0.107727)
(5.19564e-06 1.30532e-06 0.107724)
(3.24642e-05 -3.24986e-05 0.104285)
(-4.49306e-05 4.4971e-05 0.104401)
(1.19321e-06 4.50847e-06 0.107747)
(-1.52668e-06 5.20644e-06 0.107726)
(1.61369e-06 5.13159e-06 0.107726)
(4.50196e-05 4.48104e-05 0.104401)
(3.18852e-05 3.17295e-05 0.104267)
(-4.52004e-05 -4.50046e-05 0.104384)
(-1.41914e-06 -5.34517e-06 0.107717)
(1.7635e-06 -5.39174e-06 0.107717)
(-2.26075e-06 -6.10026e-06 0.107697)
(1.92499e-06 -6.13194e-06 0.107696)
(-3.17155e-05 3.17411e-05 0.104267)
(4.49632e-05 -4.50663e-05 0.104384)
(-5.26066e-06 -1.66823e-06 0.107719)
(-5.36632e-06 1.65718e-06 0.107716)
(-6.21462e-06 -2.08048e-06 0.107698)
(-6.0264e-06 1.94099e-06 0.107695)
(5.46535e-06 1.44455e-06 0.107717)
(5.99859e-06 -2.13465e-06 0.107699)
(5.99e-06 2.23111e-06 0.107696)
(3.17436e-05 -3.17712e-05 0.104267)
(-4.49768e-05 4.49608e-05 0.104383)
(1.76277e-06 5.32189e-06 0.107718)
(-2.07845e-06 5.91888e-06 0.107698)
(1.96735e-06 6.1027e-06 0.107697)
(4.4891e-05 4.51674e-05 0.104383)
(3.07996e-05 3.10084e-05 0.104251)
(-4.48369e-05 -4.49079e-05 0.104367)
(-2.37639e-06 -6.35059e-06 0.10769)
(2.11442e-06 -6.25321e-06 0.10769)
(-2.42495e-06 -6.78639e-06 0.10767)
(2.63227e-06 -6.93112e-06 0.10767)
(-3.1069e-05 3.09985e-05 0.104251)
(4.50641e-05 -4.50481e-05 0.104368)
(-6.56035e-06 -2.12648e-06 0.107692)
(-6.24953e-06 2.22559e-06 0.107688)
(-6.79247e-06 -2.48834e-06 0.107672)
(-6.94514e-06 2.69322e-06 0.107669)
(6.17981e-06 2.34698e-06 0.107689)
(7.12946e-06 -2.61271e-06 0.107672)
(6.95993e-06 2.60949e-06 0.107669)
(3.10533e-05 -3.10418e-05 0.10425)
(-4.50542e-05 4.50668e-05 0.104367)
(1.98451e-06 6.4039e-06 0.107691)
(-2.65668e-06 7.22825e-06 0.107672)
(2.64056e-06 7.05795e-06 0.107671)
(4.50461e-05 4.49809e-05 0.104366)
(3.05111e-05 3.04198e-05 0.104237)
(-4.50886e-05 -4.51506e-05 0.104354)
(-2.63867e-06 -6.99984e-06 0.107664)
(2.60499e-06 -7.27127e-06 0.107664)
(-3.24338e-06 -7.88074e-06 0.107647)
(3.00408e-06 -7.57546e-06 0.107646)
(-3.03711e-05 3.02353e-05 0.104237)
(4.49084e-05 -4.4792e-05 0.104354)
(-6.92253e-06 -2.73816e-06 0.107666)
(-7.19836e-06 2.53183e-06 0.107663)
(-8.01723e-06 -3.37708e-06 0.107649)
(-7.73748e-06 2.96195e-06 0.107645)
(7.1915e-06 2.73415e-06 0.107663)
(7.54109e-06 -3.00314e-06 0.107649)
(7.65748e-06 2.94669e-06 0.107646)
(3.02376e-05 -3.04203e-05 0.104237)
(-4.48757e-05 4.49164e-05 0.104353)
(2.88575e-06 7.18736e-06 0.107665)
(-3.0668e-06 7.46859e-06 0.107648)
(3.18816e-06 7.57627e-06 0.107648)
(4.4979e-05 4.48369e-05 0.104353)
(2.97263e-05 2.96021e-05 0.104226)
(-4.4728e-05 -4.46853e-05 0.104342)
(-3.11225e-06 -7.99756e-06 0.107641)
(3.29069e-06 -7.51782e-06 0.10764)
(-3.15045e-06 -8.15115e-06 0.107625)
(3.69071e-06 -8.39348e-06 0.107624)
(-2.97865e-05 2.99978e-05 0.104226)
(4.49783e-05 -4.50694e-05 0.104343)
(-8.03683e-06 -3.40897e-06 0.107643)
(-7.68417e-06 3.34145e-06 0.107639)
(-7.94452e-06 -3.21957e-06 0.107626)
(-8.0871e-06 3.61682e-06 0.107623)
(7.7994e-06 3.02937e-06 0.10764)
(8.47071e-06 -3.68948e-06 0.107627)
(8.42612e-06 3.56851e-06 0.107624)
(2.99302e-05 -2.9738e-05 0.104225)
(-4.4865e-05 4.49007e-05 0.104342)
(3.29113e-06 7.70833e-06 0.107642)
(-3.47683e-06 8.44372e-06 0.107625)
(3.49009e-06 8.47552e-06 0.107626)
(4.48436e-05 4.5006e-05 0.104342)
(2.92917e-05 2.94831e-05 0.104215)
(-4.51238e-05 -4.49411e-05 0.104332)
(-3.59228e-06 -8.30208e-06 0.107619)
(3.69355e-06 -8.77398e-06 0.107619)
(-4.34175e-06 -8.84254e-06 0.107604)
(3.73931e-06 -8.81083e-06 0.107604)
(-2.92232e-05 2.90008e-05 0.104216)
(4.4888e-05 -4.4774e-05 0.104333)
(-8.34312e-06 -3.31504e-06 0.10762)
(-8.54562e-06 3.58562e-06 0.107618)
(-9.19077e-06 -4.04226e-06 0.107605)
(-9.08062e-06 3.89162e-06 0.107603)
(8.53222e-06 3.72117e-06 0.107619)
(8.89239e-06 -3.7454e-06 0.107606)
(8.61295e-06 3.94758e-06 0.107603)
(2.91378e-05 -2.93467e-05 0.104215)
(-4.49328e-05 4.49166e-05 0.104332)
(3.464e-06 8.68268e-06 0.10762)
(-4.03495e-06 8.8695e-06 0.107605)
(3.77125e-06 8.71975e-06 0.107604)
(4.47878e-05 4.48693e-05 0.104331)
(2.86024e-05 2.86486e-05 0.104208)
(-4.51514e-05 -4.52546e-05 0.104324)
(-4.17757e-06 -8.98737e-06 0.107599)
(3.80881e-06 -8.88584e-06 0.107598)
(-4.58817e-06 -9.93772e-06 0.107584)
(4.20739e-06 -9.74783e-06 0.107582)
(-2.87525e-05 2.88522e-05 0.104208)
(4.48584e-05 -4.52662e-05 0.104323)
(-9.09762e-06 -4.10818e-06 0.107601)
(-9.06749e-06 3.99647e-06 0.107598)
(-9.94602e-06 -4.74747e-06 0.107586)
(-9.75109e-06 4.16959e-06 0.107582)
(8.962e-06 4.1201e-06 0.107598)
(9.58271e-06 -4.7684e-06 0.107585)
(9.96536e-06 4.59828e-06 0.107583)
(2.87524e-05 -2.8699e-05 0.104207)
(-4.52053e-05 4.49138e-05 0.104322)
(4.05405e-06 8.99436e-06 0.107599)
(-4.62571e-06 9.70473e-06 0.107585)
(4.66716e-06 1.00214e-05 0.107585)
(4.52164e-05 4.51677e-05 0.104322)
(2.79291e-05 2.78017e-05 0.104201)
(-4.41663e-05 -4.45526e-05 0.104318)
(-4.70501e-06 -1.02246e-05 0.10758)
(4.50829e-06 -9.87629e-06 0.107578)
(-3.76904e-06 -1.03368e-05 0.107567)
(5.56998e-06 -1.04407e-05 0.107568)
(-2.82577e-05 2.78469e-05 0.1042)
(4.53306e-05 -4.45488e-05 0.104319)
(-1.03225e-05 -5.01743e-06 0.107582)
(-9.88375e-06 4.40791e-06 0.107577)
(-9.90816e-06 -4.34727e-06 0.107568)
(-1.0153e-05 5.45579e-06 0.107566)
(9.89599e-06 4.52487e-06 0.107578)
(1.06999e-05 -4.54698e-06 0.107569)
(1.04367e-05 4.38352e-06 0.107566)
(2.78951e-05 -2.82233e-05 0.104199)
(-4.43939e-05 4.52407e-05 0.104318)
(4.70187e-06 9.93597e-06 0.10758)
(-4.36107e-06 1.06022e-05 0.107568)
(4.84435e-06 1.02336e-05 0.107568)
(4.48212e-05 4.45677e-05 0.104317)
(2.84714e-05 2.82339e-05 0.104196)
(-4.51914e-05 -4.43985e-05 0.104313)
(-3.97618e-06 -1.02269e-05 0.107563)
(5.55405e-06 -1.0683e-05 0.107564)
(-6.17383e-06 -9.27375e-06 0.107551)
(3.64529e-06 -9.76249e-06 0.107552)
(-2.73632e-05 2.81258e-05 0.104198)
(4.376e-05 -4.47254e-05 0.104313)
(-9.81254e-06 -4.18795e-06 0.107564)
(-1.04201e-05 5.42068e-06 0.107562)
(-9.88355e-06 -5.20456e-06 0.107552)
(-9.97393e-06 3.67096e-06 0.10755)
(1.07545e-05 4.61034e-06 0.107563)
(9.58752e-06 -4.87028e-06 0.107555)
(9.44067e-06 5.31435e-06 0.107551)
(2.82197e-05 -2.74694e-05 0.104196)
(-4.48355e-05 4.36773e-05 0.104312)
(4.88827e-06 1.05818e-05 0.107564)
(-5.19774e-06 9.48019e-06 0.107553)
(4.65828e-06 9.78039e-06 0.107552)
(4.42268e-05 4.4843e-05 0.104312)
(2.71343e-05 2.7814e-05 0.104194)
(-4.3491e-05 -4.41809e-05 0.104316)
(-6.44049e-06 -9.3598e-06 0.107548)
(3.30329e-06 -9.40584e-06 0.107547)
(-4.39131e-06 -1.11036e-05 0.107542)
(5.2595e-06 -9.92631e-06 0.107537)
(-2.87863e-05 2.76291e-05 0.104193)
(4.41225e-05 -4.34057e-05 0.104312)
(-1.00224e-05 -5.60045e-06 0.10755)
(-9.66294e-06 3.45219e-06 0.107546)
(-1.07129e-05 -4.99354e-06 0.107544)
(-9.67833e-06 5.58232e-06 0.107537)
(9.04389e-06 5.39319e-06 0.107547)
(9.85509e-06 -4.86671e-06 0.107539)
(1.0403e-05 4.68377e-06 0.107538)
(2.75533e-05 -2.88185e-05 0.104192)
(-4.31635e-05 4.42772e-05 0.104312)
(4.67581e-06 9.47683e-06 0.107549)
(-4.65235e-06 9.90011e-06 0.107539)
(4.78558e-06 1.03817e-05 0.10754)
(4.38476e-05 4.35125e-05 0.104313)
(2.83994e-05 2.77064e-05 0.104198)
(-4.51784e-05 -4.47588e-05 0.10431)
(-3.90908e-06 -1.15545e-05 0.10754)
(6.6668e-06 -1.06174e-05 0.107536)
(-4.90897e-06 -1.08812e-05 0.107529)
(7.55001e-06 -1.19608e-05 0.107533)
(-2.7173e-05 2.83179e-05 0.104194)
(4.66201e-05 -4.52632e-05 0.104316)
(-1.1051e-05 -4.53579e-06 0.107542)
(-1.02895e-05 7.02496e-06 0.107536)
(-1.14201e-05 -4.46598e-06 0.107531)
(-1.28298e-05 7.74087e-06 0.107534)
(1.12582e-05 4.81335e-06 0.107537)
(1.33538e-05 -5.41902e-06 0.107535)
(1.23087e-05 5.74241e-06 0.107531)
(2.85151e-05 -2.70615e-05 0.104195)
(-4.60599e-05 4.68227e-05 0.104317)
(5.06497e-06 1.11197e-05 0.107539)
(-6.16196e-06 1.38315e-05 0.107537)
(5.87827e-06 1.22515e-05 0.107533)
(4.57485e-05 4.54467e-05 0.104313)
(2.58241e-05 2.60959e-05 0.104191)
(-4.63904e-05 -4.83582e-05 0.104291)
(-5.48534e-06 -1.06996e-05 0.107522)
(6.33311e-06 -1.21303e-05 0.107528)
(-6.24837e-06 -1.28422e-05 0.107497)
(3.09469e-06 -1.25001e-05 0.107499)
(-2.49058e-05 2.55754e-05 0.104198)
(4.45028e-05 -4.74676e-05 0.104292)
(-1.11485e-05 -5.56753e-06 0.107524)
(-1.32935e-05 6.1066e-06 0.107529)
(-1.10851e-05 -9.47002e-06 0.1075)
(-1.1279e-05 1.04521e-06 0.107496)
(1.23166e-05 5.68674e-06 0.107526)
(1.04644e-05 -7.46876e-06 0.107503)
(1.18893e-05 4.65021e-06 0.107498)
(2.48493e-05 -2.48009e-05 0.104199)
(-4.57199e-05 4.34469e-05 0.104288)
(6.40934e-06 1.19474e-05 0.107528)
(-5.05048e-06 9.45734e-06 0.107499)
(7.36468e-06 1.0242e-05 0.107499)
(4.68935e-05 4.57546e-05 0.10429)
(2.5214e-05 2.36186e-05 0.104176)
(-4.03053e-05 -3.55313e-05 0.1043)
(-5.69218e-06 -1.31799e-05 0.107491)
(2.803e-06 -1.16563e-05 0.10749)
(-4.94586e-06 -8.18476e-06 0.107491)
(6.09418e-06 -7.67316e-06 0.107486)
(-2.71408e-05 2.46217e-05 0.104175)
(4.08146e-05 -3.67195e-05 0.104297)
(-1.14782e-05 -8.1878e-06 0.107493)
(-9.25253e-06 9.81519e-07 0.107484)
(-1.0899e-05 1.01057e-06 0.10749)
(-6.52354e-06 9.04133e-06 0.107478)
(1.07519e-05 4.1645e-06 0.107489)
(9.78192e-06 -1.28616e-06 0.107486)
(7.15525e-06 7.59397e-06 0.107485)
(2.65997e-05 -2.82313e-05 0.10417)
(-3.73408e-05 4.20911e-05 0.104292)
(5.62908e-06 9.8404e-06 0.10749)
(-3.21198e-06 9.86335e-06 0.107481)
(6.31668e-07 1.13189e-05 0.107486)
(3.61437e-05 4.15933e-05 0.104297)
(3.08273e-05 3.59067e-05 0.104191)
(-3.82705e-05 -4.18189e-05 0.104353)
(-5.46991e-06 -7.00649e-06 0.107496)
(7.53693e-06 -7.58357e-06 0.107493)
(-5.51468e-06 -1.17479e-05 0.10753)
(7.1444e-06 -1.33058e-05 0.107534)
(-3.00075e-05 3.44156e-05 0.104189)
(3.9518e-05 -4.16475e-05 0.104359)
(-1.08946e-05 2.33767e-06 0.107496)
(-8.7704e-06 1.18273e-05 0.107489)
(-1.16585e-05 -7.05503e-06 0.107533)
(-1.87899e-05 7.79424e-06 0.107547)
(8.06059e-06 9.16959e-06 0.107493)
(1.39912e-05 -6.78622e-06 0.107536)
(1.6747e-05 5.99325e-06 0.107541)
(3.27892e-05 -2.81456e-05 0.104186)
(-4.44407e-05 4.00364e-05 0.104372)
(1.31736e-06 1.27936e-05 0.107495)
(-1.02197e-05 1.74114e-05 0.107551)
(1.04792e-05 1.46069e-05 0.107546)
(4.46247e-05 3.859e-05 0.104365)
(3.07391e-05 2.49994e-05 0.104241)
(-5.33036e-06 -1.35945e-05 0.10754)
(5.74079e-06 -1.45144e-05 0.107545)
(-2.99174e-05 2.56974e-05 0.104246)
(-1.02621e-05 -1.29579e-05 0.107545)
(-1.82734e-05 3.22818e-06 0.107559)
(1.7337e-05 3.05918e-06 0.107552)
(2.40146e-05 -3.02175e-05 0.104259)
(1.33438e-05 1.16369e-05 0.107557)
(-5.84329e-07 -8.72595e-06 0.0910046)
(6.62613e-08 6.42519e-06 0.0815664)
(-5.96872e-07 5.84334e-06 0.0909749)
(-1.80528e-06 -7.56166e-06 0.0816094)
(-3.43601e-06 2.26496e-06 0.0708682)
(5.48342e-07 -3.85115e-06 0.0709161)
(-8.72075e-06 -5.63671e-07 0.0910047)
(6.39526e-06 8.56942e-08 0.0815671)
(5.84931e-06 -5.79408e-07 0.0909748)
(-7.59998e-06 -1.78134e-06 0.0816099)
(-2.40055e-05 2.40215e-05 0.113152)
(-2.4017e-05 -2.39949e-05 0.113151)
(2.24691e-05 2.24839e-05 0.113165)
(-2.24497e-05 2.24731e-05 0.113165)
(2.24812e-05 -2.24521e-05 0.113164)
(-2.24619e-05 -2.24456e-05 0.113163)
(1.00979e-05 -3.23308e-07 0.0985702)
(-1.40376e-05 2.88608e-06 0.0926072)
(-2.50778e-05 3.50351e-06 0.11083)
(-1.6186e-05 9.76677e-06 0.108255)
(-1.64034e-05 -3.00278e-07 0.0985204)
(7.7059e-06 -4.09767e-06 0.0926593)
(-2.43581e-05 3.36482e-06 0.110819)
(-3.92637e-06 6.07916e-07 0.0709139)
(-3.36158e-07 1.00862e-05 0.0985695)
(3.52638e-06 -2.5052e-05 0.110829)
(9.76464e-06 -1.61854e-05 0.108254)
(-2.88438e-07 -1.64119e-05 0.0985201)
(3.38782e-06 -2.4349e-05 0.110819)
(-4.12667e-06 7.71172e-06 0.0926579)
(-3.59676e-06 -4.71302e-06 0.086981)
(-4.68294e-06 -3.59816e-06 0.0869801)
(4.32101e-05 4.32213e-05 0.104863)
(4.28304e-06 3.28052e-06 0.0870186)
(3.31241e-06 4.27439e-06 0.0870169)
(-5.58277e-07 -9.05606e-06 0.0909897)
(1.85955e-07 6.18231e-06 0.0815707)
(-5.75131e-07 5.36245e-06 0.0909589)
(-1.67998e-06 -7.69524e-06 0.0816145)
(-3.40688e-06 2.18427e-06 0.0708797)
(5.71191e-07 -3.88193e-06 0.0709281)
(-9.05058e-06 -5.34476e-07 0.0909897)
(6.15192e-06 2.09766e-07 0.0815715)
(5.36926e-06 -5.5359e-07 0.0909589)
(-7.73272e-06 -1.65644e-06 0.0816151)
(-2.1931e-05 2.19466e-05 0.113168)
(2.19491e-05 -2.19308e-05 0.113167)
(-2.19411e-05 -2.19209e-05 0.113167)
(2.03715e-05 2.03862e-05 0.113176)
(-2.03677e-05 2.0374e-05 0.113175)
(2.03804e-05 -2.03721e-05 0.113174)
(-2.03845e-05 -2.03727e-05 0.113174)
(1.10193e-05 -3.33098e-07 0.098532)
(-1.31281e-05 2.78359e-06 0.0925937)
(-2.22595e-05 2.96397e-06 0.110788)
(-1.38511e-05 8.43306e-06 0.108201)
(-1.52105e-05 -3.13954e-07 0.0984815)
(8.45418e-06 -4.13558e-06 0.0926464)
(-2.15647e-05 2.8337e-06 0.110776)
(2.25977e-06 -3.45773e-06 0.0708819)
(-3.9551e-06 6.32482e-07 0.070926)
(-3.43371e-07 1.10073e-05 0.0985314)
(2.98601e-06 -2.22342e-05 0.110786)
(2.7679e-06 -1.31638e-05 0.0925944)
(8.42944e-06 -1.38538e-05 0.1082)
(-3.0299e-07 -1.52189e-05 0.0984813)
(2.85611e-06 -2.15579e-05 0.110775)
(-4.16323e-06 8.4625e-06 0.092645)
(-3.19883e-06 -4.57019e-06 0.0869798)
(-4.53656e-06 -3.20299e-06 0.0869789)
(4.35482e-05 4.35609e-05 0.104808)
(4.619e-06 3.36429e-06 0.0870182)
(3.3975e-06 4.60916e-06 0.0870164)
(-5.36011e-07 -9.34518e-06 0.0909786)
(2.84357e-07 5.96347e-06 0.0815782)
(-5.54104e-07 4.91483e-06 0.0909469)
(-1.57461e-06 -7.80617e-06 0.0816226)
(-3.34661e-06 2.12071e-06 0.0708936)
(6.14827e-07 -3.8976e-06 0.0709424)
(-9.34154e-06 -5.10585e-07 0.0909787)
(5.93366e-06 3.07383e-07 0.081579)
(4.9214e-06 -5.30819e-07 0.0909469)
(-7.84342e-06 -1.55147e-06 0.0816232)
(-1.98355e-05 1.98466e-05 0.113177)
(1.98465e-05 -1.98401e-05 0.113176)
(-1.98547e-05 -1.98411e-05 0.113176)
(1.82639e-05 1.82658e-05 0.113179)
(-1.82452e-05 1.82541e-05 0.113179)
(1.82689e-05 -1.82476e-05 0.113178)
(-1.8251e-05 -1.82417e-05 0.113178)
(1.18915e-05 -3.38e-07 0.0984987)
(-1.22549e-05 2.67289e-06 0.092584)
(-1.95294e-05 2.46701e-06 0.110743)
(-1.1596e-05 7.19786e-06 0.108148)
(-1.40594e-05 -3.21229e-07 0.0984475)
(9.16121e-06 -4.18033e-06 0.0926373)
(-1.88672e-05 2.3506e-06 0.110731)
(2.19782e-06 -3.3936e-06 0.0708958)
(-3.96958e-06 6.78119e-07 0.0709403)
(-3.47033e-07 1.18826e-05 0.098498)
(2.49131e-06 -1.95037e-05 0.110742)
(2.66021e-06 -1.22896e-05 0.0925847)
(7.19777e-06 -1.16029e-05 0.108147)
(-3.11629e-07 -1.40667e-05 0.0984472)
(2.37544e-06 -1.88627e-05 0.11073)
(-4.2061e-06 9.16649e-06 0.0926359)
(-2.84511e-06 -4.4198e-06 0.0869819)
(-4.38582e-06 -2.84768e-06 0.086981)
(4.38446e-05 4.38584e-05 0.104756)
(4.91476e-06 3.44968e-06 0.087021)
(3.48302e-06 4.90616e-06 0.0870193)
(-5.09614e-07 -9.61696e-06 0.0909713)
(3.7314e-07 5.76923e-06 0.0815884)
(-5.28956e-07 4.51138e-06 0.0909387)
(-1.48816e-06 -7.9001e-06 0.0816334)
(-3.26741e-06 2.07318e-06 0.0709096)
(6.84874e-07 -3.90062e-06 0.0709587)
(-9.61108e-06 -4.85829e-07 0.0909714)
(5.73935e-06 3.99701e-07 0.0815892)
(4.52074e-06 -5.04423e-07 0.0909387)
(-7.93684e-06 -1.4637e-06 0.0816341)
(-1.77101e-05 1.7718e-05 0.113179)
(1.77296e-05 -1.7708e-05 0.113178)
(-1.7725e-05 -1.77055e-05 0.113178)
(1.61373e-05 1.61518e-05 0.113177)
(-1.6149e-05 1.61644e-05 0.113177)
(1.61605e-05 -1.61509e-05 0.113176)
(-1.61356e-05 -1.61298e-05 0.113176)
(1.27295e-05 -3.45815e-07 0.0984699)
(-1.14169e-05 2.5738e-06 0.092578)
(-1.68995e-05 2.02507e-06 0.110697)
(-9.45127e-06 6.05355e-06 0.108098)
(-1.29773e-05 -3.28827e-07 0.098418)
(9.84678e-06 -4.22707e-06 0.0926317)
(-1.62707e-05 1.92175e-06 0.110685)
(2.1501e-06 -3.31948e-06 0.0709118)
(-3.97249e-06 7.41526e-07 0.0709566)
(-3.54066e-07 1.27295e-05 0.0984692)
(2.04737e-06 -1.68683e-05 0.110696)
(2.55831e-06 -1.14499e-05 0.0925786)
(6.046e-06 -9.45077e-06 0.108097)
(-3.23851e-07 -1.29828e-05 0.0984178)
(1.94058e-06 -1.62525e-05 0.110684)
(-4.25254e-06 9.85396e-06 0.0926304)
(-2.50982e-06 -4.27312e-06 0.086987)
(-4.23626e-06 -2.51172e-06 0.0869861)
(4.40851e-05 4.40999e-05 0.104707)
(5.19485e-06 3.5465e-06 0.0870268)
(3.58585e-06 5.18572e-06 0.0870251)
(-4.94837e-07 -9.85939e-06 0.0909675)
(4.36856e-07 5.59057e-06 0.0816013)
(-5.06664e-07 4.13691e-06 0.0909341)
(-1.41516e-06 -7.98049e-06 0.0816469)