/*--------------------------------*- C++ -*----------------------------------*\
| =========                 |                                                 |
| \\      /  F ield         | OpenFOAM: The Open Source CFD Toolbox           |
|  \\    /   O peration     | Version:  2312                                  |
|   \\  /    A nd           | Website:  www.openfoam.com                      |
|    \\/     M anipulation  |                                                 |
\*---------------------------------------------------------------------------*/
FoamFile
{
    version     2.0;
    format      ascii;
    arch        "LSB;label=32;scalar=64";
    class       volScalarField;
    location    "800";
    object      k;
}
// * * * * * * * * * * * * * * * * * * * * * * * * * * * * * * * * * * * * * //

dimensions      [0 2 -2 0 0 0 0];

internalField   nonuniform List<scalar> 
43496
(
6.85733e-05
7.11956e-05
5.14163e-05
6.47964e-05
6.06269e-05
4.67106e-05
6.85731e-05
7.34409e-05
6.06278e-05
5.1412e-05
4.67114e-05
6.47931e-05
5.35249e-05
6.99406e-05
6.99382e-05
7.11943e-05
7.34434e-05
7.18503e-05
6.85646e-05
7.15993e-05
7.16288e-05
7.15914e-05
7.16198e-05
7.18595e-05
7.16831e-05
7.97877e-05
7.97799e-05
7.16974e-05
7.11838e-05
7.18492e-05
6.85616e-05
7.16282e-05
7.1596e-05
7.16193e-05
7.15844e-05
7.18582e-05
7.16812e-05
7.97685e-05
7.34297e-05
7.97607e-05
7.16955e-05
9.49807e-05
7.34962e-05
7.35024e-05
7.34828e-05
7.34889e-05
9.49829e-05
7.41988e-05
7.32802e-05
6.99365e-05
6.52487e-05
7.32692e-05
6.52362e-05
7.42023e-05
7.4151e-05
7.32727e-05
6.99332e-05
6.52439e-05
6.52314e-05
7.32603e-05
7.41548e-05
7.11824e-05
7.34345e-05
3.19042e-05
3.89083e-05
3.19095e-05
6.47849e-05
6.03803e-05
6.03726e-05
5.62987e-05
6.06131e-05
6.23206e-05
5.50094e-05
6.23084e-05
5.50255e-05
5.62866e-05
5.73945e-05
6.4205e-05
6.4195e-05
5.73798e-05
5.62946e-05
6.06094e-05
5.50186e-05
6.23199e-05
5.50157e-05
6.23017e-05
5.62894e-05
5.7384e-05
6.41994e-05
6.47819e-05
6.03759e-05
6.41866e-05
5.73858e-05
6.03684e-05
6.59268e-05
5.35451e-05
5.94734e-05
5.9477e-05
5.948e-05
5.94769e-05
6.59314e-05
3.83869e-05
5.11104e-05
5.1113e-05
5.32898e-05
3.88046e-05
5.13562e-05
5.13587e-05
5.34854e-05
5.3302e-05
5.34328e-05
5.11102e-05
5.11053e-05
5.12965e-05
5.12922e-05
5.32906e-05
5.34422e-05
5.11077e-05
5.11087e-05
5.12939e-05
5.12948e-05
5.11099e-05
5.12959e-05
5.12944e-05
5.32956e-05
5.34342e-05
5.1107e-05
5.12991e-05
5.1294e-05
5.34422e-05
5.34978e-05
5.1356e-05
5.13505e-05
5.34862e-05
5.13535e-05
5.13545e-05
5.13569e-05
5.34959e-05
5.13529e-05
6.85153e-05
7.33585e-05
7.3385e-05
6.84867e-05
7.1114e-05
7.11402e-05
6.85133e-05
7.33601e-05
7.33866e-05
6.84871e-05
3.83861e-05
3.83917e-05
3.83902e-05
3.87025e-05
3.87022e-05
3.87069e-05
3.87054e-05
6.05227e-05
6.46961e-05
4.63291e-05
5.11731e-05
6.47266e-05
4.64092e-05
6.04776e-05
7.11151e-05
7.11412e-05
6.05235e-05
4.63325e-05
6.46954e-05
5.11763e-05
4.64121e-05
6.47267e-05
6.04748e-05
6.98612e-05
6.98696e-05
5.33444e-05
6.98804e-05
6.98882e-05
7.34188e-05
6.85498e-05
7.11691e-05
7.34195e-05
6.855e-05
3.88039e-05
3.88092e-05
3.8808e-05
6.06291e-05
6.47689e-05
4.66391e-05
6.05876e-05
4.67125e-05
7.11702e-05
6.0629e-05
4.66424e-05
6.47681e-05
6.05851e-05
4.67151e-05
6.99168e-05
6.9925e-05
5.35339e-05
6.99338e-05
6.99423e-05
7.11127e-05
7.11388e-05
7.11157e-05
7.11418e-05
6.98655e-05
6.98731e-05
5.33357e-05
6.98835e-05
6.98925e-05
7.11662e-05
7.11405e-05
7.11693e-05
7.11435e-05
5.34002e-05
6.99108e-05
6.99198e-05
6.98938e-05
6.99014e-05
6.85137e-05
7.33562e-05
7.33806e-05
6.84851e-05
6.05245e-05
6.4694e-05
4.63281e-05
5.11736e-05
6.47252e-05
4.64079e-05
6.04755e-05
6.05229e-05
6.46904e-05
4.63257e-05
5.1169e-05
6.47213e-05
4.64059e-05
6.04739e-05
6.85189e-05
7.34144e-05
7.33885e-05
6.85466e-05
6.85173e-05
7.34102e-05
7.33862e-05
6.85448e-05
6.05323e-05
5.12359e-05
6.4761e-05
4.65629e-05
6.47312e-05
4.64866e-05
6.05785e-05
6.05307e-05
5.12307e-05
6.4757e-05
4.6561e-05
6.47277e-05
4.64841e-05
6.05769e-05
6.98661e-05
6.98668e-05
5.33447e-05
6.98837e-05
6.98858e-05
7.11142e-05
7.11403e-05
7.11676e-05
7.11417e-05
5.33887e-05
6.9911e-05
6.99131e-05
6.98943e-05
6.98951e-05
7.11677e-05
7.11419e-05
6.05217e-05
6.46961e-05
4.63277e-05
5.1171e-05
6.47271e-05
4.64074e-05
6.04767e-05
6.85127e-05
7.33558e-05
7.33823e-05
6.84841e-05
6.05221e-05
4.63286e-05
6.46923e-05
5.1172e-05
4.64083e-05
6.47235e-05
6.04733e-05
6.85192e-05
7.3416e-05
7.33901e-05
6.85443e-05
6.05334e-05
5.12334e-05
6.4763e-05
4.65623e-05
6.47334e-05
4.64862e-05
6.05758e-05
6.85163e-05
7.34119e-05
7.33859e-05
6.85437e-05
6.05301e-05
5.12343e-05
4.65632e-05
6.47594e-05
4.64871e-05
6.47296e-05
6.05763e-05
6.85122e-05
7.336e-05
7.33845e-05
6.8486e-05
6.05227e-05
4.63299e-05
6.46909e-05
5.11722e-05
4.64092e-05
6.4722e-05
6.04773e-05
6.85138e-05
7.33556e-05
7.33821e-05
6.84864e-05
6.05342e-05
5.12361e-05
6.47623e-05
4.65642e-05
6.47333e-05
4.64875e-05
6.05765e-05
6.85181e-05
7.34141e-05
7.339e-05
6.8543e-05
6.05318e-05
5.1236e-05
4.65639e-05
6.47578e-05
4.64884e-05
6.47282e-05
6.05773e-05
6.85175e-05
7.34116e-05
7.33856e-05
6.85446e-05
6.98686e-05
6.9865e-05
5.33353e-05
6.98867e-05
6.98843e-05
7.11138e-05
7.11398e-05
7.11686e-05
7.11429e-05
5.33999e-05
6.99141e-05
6.99117e-05
6.98969e-05
6.98933e-05
7.11673e-05
7.11415e-05
6.05207e-05
4.63297e-05
6.46932e-05
5.11711e-05
4.6409e-05
6.47246e-05
6.04722e-05
6.85119e-05
7.33605e-05
7.3385e-05
6.84837e-05
6.85082e-05
7.33571e-05
7.33836e-05
6.84803e-05
6.05315e-05
5.12386e-05
4.65669e-05
6.47624e-05
4.64908e-05
6.47326e-05
6.05776e-05
6.0529e-05
5.12326e-05
4.65639e-05
6.47604e-05
4.6488e-05
6.47306e-05
6.05749e-05
6.85159e-05
7.34146e-05
7.33905e-05
6.85429e-05
6.85126e-05
7.34132e-05
7.33871e-05
6.85392e-05
7.11137e-05
7.11398e-05
7.11163e-05
7.11424e-05
5.33884e-05
6.99071e-05
6.99158e-05
6.98895e-05
6.98982e-05
7.11672e-05
7.11414e-05
7.11699e-05
7.11441e-05
7.11679e-05
7.11709e-05
6.99208e-05
6.99287e-05
7.34157e-05
6.85481e-05
6.47666e-05
4.66383e-05
6.0586e-05
6.47631e-05
4.66358e-05
6.05844e-05
6.99213e-05
6.99221e-05
7.11693e-05
6.47688e-05
4.66378e-05
6.05871e-05
7.34154e-05
6.8547e-05
4.66387e-05
6.47651e-05
6.05837e-05
6.8572e-05
7.34195e-05
6.85487e-05
6.06289e-05
4.66401e-05
6.47635e-05
5.14107e-05
6.05849e-05
4.67119e-05
6.47916e-05
6.85739e-05
7.3415e-05
6.85479e-05
7.34406e-05
6.99238e-05
6.99204e-05
7.11689e-05
6.06264e-05
4.66397e-05
6.47662e-05
5.14117e-05
6.05826e-05
4.67121e-05
6.47942e-05
6.85722e-05
7.34198e-05
6.85466e-05
6.85686e-05
7.34166e-05
6.85433e-05
7.34422e-05
7.11688e-05
7.11942e-05
7.11715e-05
7.11969e-05
7.17918e-05
7.15714e-05
7.1547e-05
6.85028e-05
7.1559e-05
7.15346e-05
7.18039e-05
7.16304e-05
7.33701e-05
7.97179e-05
7.97265e-05
7.16159e-05
7.16294e-05
7.97397e-05
7.33736e-05
7.97311e-05
7.1644e-05
7.17885e-05
6.84992e-05
7.15443e-05
7.152e-05
7.15565e-05
7.15323e-05
7.1778e-05
7.11263e-05
7.11279e-05
7.17931e-05
7.15441e-05
7.15701e-05
6.85034e-05
7.15352e-05
7.15607e-05
7.18025e-05
7.16307e-05
7.33716e-05
7.9716e-05
7.97244e-05
7.16161e-05
7.16297e-05
7.97374e-05
7.33752e-05
7.97293e-05
7.16442e-05
7.1788e-05
6.84974e-05
7.15204e-05
7.15458e-05
7.15296e-05
7.15554e-05
7.17784e-05
7.11273e-05
7.1129e-05
9.49253e-05
7.34531e-05
7.34464e-05
7.34394e-05
7.34328e-05
9.4928e-05
7.40741e-05
6.51184e-05
6.98662e-05
7.31884e-05
6.51325e-05
7.3201e-05
7.40681e-05
7.4122e-05
6.51262e-05
6.9874e-05
7.31981e-05
6.5141e-05
7.32103e-05
7.4116e-05
7.40854e-05
7.32154e-05
6.98755e-05
6.51556e-05
6.51417e-05
7.3203e-05
7.4091e-05
7.41333e-05
7.32238e-05
6.98841e-05
6.5164e-05
6.51496e-05
7.3214e-05
7.41388e-05
9.49134e-05
7.34266e-05
7.342e-05
7.34403e-05
7.34337e-05
9.49106e-05
7.1684e-05
7.97697e-05
7.34283e-05
7.16696e-05
7.97775e-05
7.18479e-05
6.8561e-05
7.16035e-05
7.15774e-05
7.18337e-05
7.16162e-05
7.15897e-05
7.11811e-05
7.16842e-05
7.97677e-05
7.34309e-05
7.16699e-05
7.97755e-05
7.18455e-05
6.85592e-05
7.1578e-05
7.16054e-05
7.18362e-05
7.15864e-05
7.16146e-05
7.11822e-05
9.49819e-05
7.35032e-05
7.34965e-05
7.34897e-05
7.34831e-05
9.4984e-05
7.4139e-05
6.52083e-05
7.32474e-05
6.99204e-05
7.41347e-05
6.52208e-05
7.32567e-05
7.41874e-05
6.52161e-05
7.32567e-05
6.99292e-05
7.41824e-05
6.52293e-05
7.32668e-05
9.49705e-05
7.34773e-05
7.34706e-05
9.49682e-05
7.34908e-05
7.34841e-05
7.41506e-05
7.32701e-05
6.99296e-05
6.52413e-05
6.52293e-05
7.32615e-05
7.41541e-05
7.41982e-05
7.32815e-05
6.99379e-05
6.52498e-05
6.52371e-05
7.32693e-05
7.42019e-05
7.1125e-05
7.11267e-05
7.1128e-05
7.11296e-05
9.49286e-05
7.34528e-05
7.34461e-05
7.34391e-05
7.34323e-05
9.49315e-05
7.40748e-05
6.51211e-05
6.98693e-05
7.3191e-05
7.32003e-05
6.51335e-05
7.40711e-05
7.41221e-05
6.51277e-05
6.98782e-05
7.31986e-05
7.32113e-05
6.51415e-05
7.41163e-05
7.40882e-05
7.32147e-05
6.98798e-05
6.51566e-05
7.32055e-05
7.4092e-05
6.51445e-05
7.41336e-05
7.32257e-05
6.98875e-05
6.51646e-05
7.32133e-05
7.4139e-05
6.51511e-05
9.49168e-05
7.34263e-05
7.34195e-05
7.344e-05
7.34333e-05
9.49138e-05
7.11542e-05
7.11526e-05
7.11572e-05
7.11556e-05
9.49459e-05
7.34518e-05
7.34451e-05
9.49431e-05
7.34655e-05
7.34587e-05
7.41213e-05
6.52008e-05
6.99075e-05
7.32434e-05
7.32343e-05
6.51895e-05
7.41248e-05
7.41668e-05
6.52089e-05
6.99152e-05
7.32541e-05
7.32418e-05
6.51961e-05
7.41719e-05
7.41086e-05
7.32201e-05
6.51672e-05
6.98974e-05
7.4105e-05
7.32294e-05
6.51789e-05
7.41559e-05
7.32278e-05
6.51738e-05
6.99061e-05
7.41504e-05
7.324e-05
6.5187e-05
9.49575e-05
7.34781e-05
7.34713e-05
7.34644e-05
7.34577e-05
9.49601e-05
7.17921e-05
7.15711e-05
7.1542e-05
6.85012e-05
7.15587e-05
7.15295e-05
7.18016e-05
7.16299e-05
7.33657e-05
7.96996e-05
7.97084e-05
7.16154e-05
7.16289e-05
7.97215e-05
7.33712e-05
7.97128e-05
7.16434e-05
7.17871e-05
6.84977e-05
7.1544e-05
7.15149e-05
7.15562e-05
7.15273e-05
7.17774e-05
7.18187e-05
7.15741e-05
7.15494e-05
6.8531e-05
7.18054e-05
7.15863e-05
7.15614e-05
7.16563e-05
7.34033e-05
7.97652e-05
7.16707e-05
7.9757e-05
7.16574e-05
7.97441e-05
7.33998e-05
7.16429e-05
7.97525e-05
7.18198e-05
6.85345e-05
7.16012e-05
7.15756e-05
7.18333e-05
7.15891e-05
7.15638e-05
7.18161e-05
7.15737e-05
7.15443e-05
6.85296e-05
7.18065e-05
7.15861e-05
7.15565e-05
7.16558e-05
7.3401e-05
7.97471e-05
7.97386e-05
7.16701e-05
7.16568e-05
7.97258e-05
7.33957e-05
7.16424e-05
7.97344e-05
7.18212e-05
6.85328e-05
7.16008e-05
7.15708e-05
7.15885e-05
7.15587e-05
7.18306e-05
9.49273e-05
7.34469e-05
7.34529e-05
7.34331e-05
7.34392e-05
9.49304e-05
7.41225e-05
6.5125e-05
6.98695e-05
7.31985e-05
7.32086e-05
6.51381e-05
7.41167e-05
7.40759e-05
6.51219e-05
6.98716e-05
7.31903e-05
6.51354e-05
7.32029e-05
7.407e-05
7.4134e-05
7.32226e-05
6.98804e-05
6.51612e-05
7.32132e-05
6.51484e-05
7.41393e-05
7.40874e-05
7.32173e-05
6.98811e-05
6.51585e-05
6.51453e-05
7.32049e-05
7.40927e-05
9.49157e-05
7.34204e-05
7.34264e-05
7.34341e-05
7.34402e-05
9.49125e-05
7.11264e-05
7.11281e-05
7.11554e-05
7.11539e-05
9.49448e-05
7.34458e-05
7.34519e-05
9.4942e-05
7.34596e-05
7.34656e-05
7.41673e-05
6.52053e-05
6.9908e-05
7.32512e-05
6.51933e-05
7.32421e-05
7.41723e-05
7.41207e-05
6.52027e-05
6.99088e-05
7.3246e-05
7.32335e-05
6.51902e-05
7.41258e-05
7.4156e-05
7.32278e-05
6.51712e-05
6.98975e-05
6.51835e-05
7.41509e-05
7.32371e-05
7.41095e-05
7.32194e-05
6.5168e-05
6.98995e-05
7.41043e-05
7.32316e-05
6.51809e-05
9.49562e-05
7.34722e-05
7.34782e-05
7.34585e-05
7.34645e-05
9.4959e-05
7.11557e-05
7.11541e-05
7.17917e-05
7.15696e-05
7.15403e-05
6.85002e-05
7.15601e-05
7.15279e-05
7.18011e-05
7.16287e-05
7.33674e-05
7.96964e-05
7.9705e-05
7.16142e-05
7.16278e-05
7.97182e-05
7.33709e-05
7.97096e-05
7.16423e-05
7.17866e-05
6.84966e-05
7.15452e-05
7.15133e-05
7.15548e-05
7.15255e-05
7.1777e-05
7.18169e-05
7.15497e-05
7.15756e-05
6.85291e-05
7.18076e-05
7.15587e-05
7.15852e-05
7.16566e-05
7.34049e-05
7.97631e-05
7.1671e-05
7.97551e-05
7.16576e-05
7.97423e-05
7.34013e-05
7.16432e-05
7.97504e-05
7.18221e-05
6.85347e-05
7.15728e-05
7.16e-05
7.18316e-05
7.15639e-05
7.15904e-05
7.18156e-05
7.1575e-05
7.15428e-05
6.85285e-05
7.18061e-05
7.15846e-05
7.15549e-05
7.16547e-05
7.34006e-05
7.97439e-05
7.97356e-05
7.1669e-05
7.16557e-05
7.97227e-05
7.33971e-05
7.16413e-05
7.97312e-05
7.18207e-05
6.85318e-05
7.15993e-05
7.1569e-05
7.15899e-05
7.15571e-05
7.18301e-05
7.17916e-05
7.15406e-05
7.15695e-05
6.85023e-05
7.15317e-05
7.15601e-05
7.18011e-05
7.16297e-05
7.33696e-05
7.97139e-05
7.97171e-05
7.16146e-05
7.16281e-05
7.97302e-05
7.33749e-05
7.97271e-05
7.16432e-05
7.17867e-05
6.84963e-05
7.15167e-05
7.15452e-05
7.1526e-05
7.15547e-05
7.1777e-05
7.1792e-05
7.15697e-05
7.15409e-05
6.85014e-05
7.15603e-05
7.15298e-05
7.18014e-05
7.16294e-05
7.33672e-05
7.96959e-05
7.97045e-05
7.16148e-05
7.16284e-05
7.97176e-05
7.33707e-05
7.97091e-05
7.16429e-05
7.1787e-05
6.84973e-05
7.15454e-05
7.15163e-05
7.1555e-05
7.15258e-05
7.17774e-05
7.18156e-05
7.15461e-05
7.1575e-05
6.8528e-05
7.1806e-05
7.1555e-05
7.15846e-05
7.1655e-05
7.34048e-05
7.97557e-05
7.97529e-05
7.16699e-05
7.16566e-05
7.97401e-05
7.33995e-05
7.16416e-05
7.97433e-05
7.18207e-05
6.85336e-05
7.15689e-05
7.15992e-05
7.15604e-05
7.15899e-05
7.18301e-05
7.18158e-05
7.15752e-05
7.15436e-05
6.85295e-05
7.18064e-05
7.15848e-05
7.15557e-05
7.16552e-05
7.34003e-05
7.97431e-05
7.97349e-05
7.16696e-05
7.16563e-05
7.97221e-05
7.33969e-05
7.16418e-05
7.97304e-05
7.1821e-05
6.85329e-05
7.15994e-05
7.15696e-05
7.159e-05
7.15579e-05
7.18303e-05
9.49242e-05
7.3446e-05
7.34522e-05
7.34324e-05
7.34385e-05
9.49265e-05
7.41217e-05
6.5125e-05
6.98724e-05
7.31989e-05
7.32082e-05
6.514e-05
7.41174e-05
7.40747e-05
6.51205e-05
6.98701e-05
7.31891e-05
6.51348e-05
7.32016e-05
7.40689e-05
7.41345e-05
7.32226e-05
6.98829e-05
6.51631e-05
7.32133e-05
6.51485e-05
7.41387e-05
7.40861e-05
7.32161e-05
6.98794e-05
6.5158e-05
6.51439e-05
7.32037e-05
7.40916e-05
9.49118e-05
7.34196e-05
7.34257e-05
7.34332e-05
7.34394e-05
9.49095e-05
7.1126e-05
7.11277e-05
7.11566e-05
7.11549e-05
9.4941e-05
7.34451e-05
7.34512e-05
9.49387e-05
7.34587e-05
7.34649e-05
7.41677e-05
6.52073e-05
6.99105e-05
7.32512e-05
6.51934e-05
7.32422e-05
7.41716e-05
7.41193e-05
6.52023e-05
6.99069e-05
7.32445e-05
7.32323e-05
6.51887e-05
7.41245e-05
7.41553e-05
7.32279e-05
6.51713e-05
6.99006e-05
6.51854e-05
7.41514e-05
7.32372e-05
7.41083e-05
7.32182e-05
6.51666e-05
6.9898e-05
7.41029e-05
7.32304e-05
6.51803e-05
9.49529e-05
7.34713e-05
7.34775e-05
7.34577e-05
7.34639e-05
9.49553e-05
7.11553e-05
7.11536e-05
7.17928e-05
7.15455e-05
7.15704e-05
6.84999e-05
7.15332e-05
7.15577e-05
7.18023e-05
7.16307e-05
7.33701e-05
7.97139e-05
7.97225e-05
7.16162e-05
7.16297e-05
7.97356e-05
7.33754e-05
7.97271e-05
7.16442e-05
7.17878e-05
6.84958e-05
7.15186e-05
7.15429e-05
7.15309e-05
7.15553e-05
7.17782e-05
7.17909e-05
7.15373e-05
7.1568e-05
6.84966e-05
7.15255e-05
7.15586e-05
7.18004e-05
7.16299e-05
7.33687e-05
7.96972e-05
7.97057e-05
7.16153e-05
7.16288e-05
7.97189e-05
7.33722e-05
7.97105e-05
7.16434e-05
7.1786e-05
6.84921e-05
7.15108e-05
7.15437e-05
7.15226e-05
7.15533e-05
7.17762e-05
7.18167e-05
7.15479e-05
7.15729e-05
6.85276e-05
7.18072e-05
7.156e-05
7.15855e-05
7.16566e-05
7.34053e-05
7.97612e-05
7.97529e-05
7.16709e-05
7.16576e-05
7.97401e-05
7.34e-05
7.16432e-05
7.97485e-05
7.18219e-05
6.85315e-05
7.15741e-05
7.16002e-05
7.15622e-05
7.15878e-05
7.18312e-05
7.18148e-05
7.15403e-05
7.15734e-05
6.85239e-05
7.18053e-05
7.15518e-05
7.15831e-05
7.16557e-05
7.34019e-05
7.97446e-05
7.97364e-05
7.16701e-05
7.16568e-05
7.97236e-05
7.33984e-05
7.16423e-05
7.97318e-05
7.18199e-05
6.85281e-05
7.15659e-05
7.15982e-05
7.15546e-05
7.1588e-05
7.18293e-05
7.11259e-05
7.11276e-05
7.11286e-05
7.11303e-05
9.49425e-05
7.34521e-05
7.34455e-05
9.49398e-05
7.34657e-05
7.34591e-05
7.41186e-05
6.51996e-05
6.99032e-05
7.32432e-05
7.41239e-05
6.51866e-05
7.32324e-05
7.41664e-05
6.52082e-05
6.99119e-05
7.32522e-05
7.41718e-05
6.51945e-05
7.32429e-05
7.41078e-05
7.32175e-05
6.51644e-05
6.9894e-05
7.41022e-05
6.51779e-05
7.32295e-05
7.41557e-05
7.32286e-05
6.51724e-05
6.9902e-05
7.41501e-05
6.51864e-05
7.32381e-05
9.4954e-05
7.34783e-05
7.34716e-05
9.49567e-05
7.34647e-05
7.34581e-05
7.11552e-05
7.11536e-05
7.11578e-05
7.11562e-05
7.11798e-05
7.11828e-05
7.41406e-05
6.5211e-05
7.32485e-05
6.99241e-05
7.41373e-05
7.32572e-05
6.5222e-05
7.41869e-05
6.52176e-05
7.32565e-05
6.99324e-05
7.4183e-05
7.32677e-05
6.52301e-05
9.49739e-05
7.3477e-05
7.34702e-05
9.49716e-05
7.34906e-05
7.34838e-05
7.16834e-05
7.97512e-05
7.34245e-05
7.16691e-05
7.97595e-05
7.18445e-05
6.85593e-05
7.16034e-05
7.15724e-05
7.16151e-05
7.18354e-05
7.15848e-05
7.41883e-05
6.52148e-05
7.32563e-05
6.99241e-05
7.3265e-05
7.41832e-05
6.52267e-05
7.41418e-05
6.52117e-05
7.32477e-05
6.99266e-05
6.5224e-05
7.41366e-05
7.32603e-05
9.49731e-05
7.3471e-05
7.34771e-05
7.34847e-05
9.49703e-05
7.34907e-05
7.16823e-05
7.97484e-05
7.34264e-05
7.1668e-05
7.97563e-05
7.18445e-05
6.85585e-05
7.16046e-05
7.15711e-05
7.16141e-05
7.18348e-05
7.15826e-05
7.18492e-05
6.85633e-05
7.1628e-05
7.15879e-05
7.16192e-05
7.16832e-05
7.97654e-05
7.34284e-05
7.97679e-05
7.16683e-05
7.18445e-05
6.85579e-05
7.15743e-05
7.16046e-05
7.15826e-05
7.18348e-05
7.1614e-05
7.16814e-05
7.18493e-05
6.85625e-05
7.16283e-05
7.15967e-05
7.16194e-05
7.1585e-05
7.186e-05
7.16828e-05
7.97475e-05
7.34261e-05
7.16685e-05
7.97554e-05
7.18447e-05
6.85594e-05
7.16047e-05
7.15718e-05
7.1835e-05
7.16142e-05
7.15832e-05
7.16816e-05
7.97675e-05
7.34295e-05
7.97598e-05
7.16959e-05
7.41875e-05
6.52152e-05
7.32561e-05
6.99277e-05
7.32656e-05
7.41833e-05
6.52283e-05
7.41403e-05
6.52102e-05
7.32466e-05
6.99249e-05
6.52233e-05
7.41353e-05
7.32586e-05
9.49692e-05
7.34703e-05
7.34764e-05
7.34838e-05
9.49669e-05
7.349e-05
7.11808e-05
7.18504e-05
6.85612e-05
7.16011e-05
7.16294e-05
7.15894e-05
7.16168e-05
7.18595e-05
7.16842e-05
7.97656e-05
7.34292e-05
7.97736e-05
7.16699e-05
7.18456e-05
6.85577e-05
7.15761e-05
7.16025e-05
7.15877e-05
7.18359e-05
7.16148e-05
7.16831e-05
7.97857e-05
7.9778e-05
7.16973e-05
7.18483e-05
6.8558e-05
7.15931e-05
7.16284e-05
7.1582e-05
7.16155e-05
7.1859e-05
7.16834e-05
7.97491e-05
7.34278e-05
7.1669e-05
7.9757e-05
7.18437e-05
6.8554e-05
7.15686e-05
7.16022e-05
7.18339e-05
7.15796e-05
7.16133e-05
7.16822e-05
7.97692e-05
7.34311e-05
7.97615e-05
7.16966e-05
7.11807e-05
7.11823e-05
7.11834e-05
7.1185e-05
3.12707e-05
3.12686e-05
3.84937e-05
3.14012e-05
3.13988e-05
2.22635e-05
2.21121e-05
6.58138e-05
5.93023e-05
5.9304e-05
5.32947e-05
5.93079e-05
5.93089e-05
6.58061e-05
3.17833e-05
3.1781e-05
2.28614e-05
2.27135e-05
6.59096e-05
5.94411e-05
5.94428e-05
5.34892e-05
6.59029e-05
5.94457e-05
5.94465e-05
6.58141e-05
5.93082e-05
5.93075e-05
5.32861e-05
5.93081e-05
5.93069e-05
6.58089e-05
6.58824e-05
5.34502e-05
5.94111e-05
5.94128e-05
5.94119e-05
5.94134e-05
6.58874e-05
6.58151e-05
5.93028e-05
5.9306e-05
5.32953e-05
5.93108e-05
5.93077e-05
6.58076e-05
6.58818e-05
5.34383e-05
5.94114e-05
5.94147e-05
5.94076e-05
5.94108e-05
6.58879e-05
6.58134e-05
5.9305e-05
5.93061e-05
5.32868e-05
5.93063e-05
5.93054e-05
6.58072e-05
6.5881e-05
5.34507e-05
5.94094e-05
5.94129e-05
5.94099e-05
5.94134e-05
6.58863e-05
6.58796e-05
5.34382e-05
5.94121e-05
5.94138e-05
6.58866e-05
5.94073e-05
5.94072e-05
6.59102e-05
5.94462e-05
5.94467e-05
5.34775e-05
6.59055e-05
5.94427e-05
5.94435e-05
6.5911e-05
5.9441e-05
5.94443e-05
5.34889e-05
5.9449e-05
6.59047e-05
5.94459e-05
6.59095e-05
5.94433e-05
5.94452e-05
5.34805e-05
5.94446e-05
6.59041e-05
5.94431e-05
3.12699e-05
3.12696e-05
3.84933e-05
3.14007e-05
3.13994e-05
2.22637e-05
2.21124e-05
3.12744e-05
3.12741e-05
3.84983e-05
3.14045e-05
3.14046e-05
2.22676e-05
2.21162e-05
3.12752e-05
3.12724e-05
3.84966e-05
3.14044e-05
3.14041e-05
2.22679e-05
2.21161e-05
3.85992e-05
3.16575e-05
3.1655e-05
3.15304e-05
3.15284e-05
2.24145e-05
2.25642e-05
3.85984e-05
3.1657e-05
3.16556e-05
3.15296e-05
3.15294e-05
2.24148e-05
2.25644e-05
3.8604e-05
3.16606e-05
3.16608e-05
3.15341e-05
3.15337e-05
2.24186e-05
2.25683e-05
3.86026e-05
3.16604e-05
3.16606e-05
3.15351e-05
3.15318e-05
2.24184e-05
2.25686e-05
5.61436e-05
6.22247e-05
5.48439e-05
6.05066e-05
6.22105e-05
5.48566e-05
5.61335e-05
5.72098e-05
6.02308e-05
6.4708e-05
6.40868e-05
6.02318e-05
6.40992e-05
5.72204e-05
5.72564e-05
6.41215e-05
6.4715e-05
6.02622e-05
6.02614e-05
6.41096e-05
5.72461e-05
5.60921e-05
6.04945e-05
6.21846e-05
5.48095e-05
6.21992e-05
5.47978e-05
5.61018e-05
5.61421e-05
5.4852e-05
6.22283e-05
6.05034e-05
5.48474e-05
6.22087e-05
5.61365e-05
5.72176e-05
6.02272e-05
6.47081e-05
6.40869e-05
6.02362e-05
6.41015e-05
5.7214e-05
5.72505e-05
6.41237e-05
6.47141e-05
6.02664e-05
6.02579e-05
6.41093e-05
5.72537e-05
5.60945e-05
6.04951e-05
5.48013e-05
6.21831e-05
5.4806e-05
6.22026e-05
5.61002e-05
6.58314e-05
5.33403e-05
5.93429e-05
5.9344e-05
5.93384e-05
5.93391e-05
6.58388e-05
3.17825e-05
3.17824e-05
3.19048e-05
2.28616e-05
2.27138e-05
3.17868e-05
3.17865e-05
3.19102e-05
2.28654e-05
2.27176e-05
3.17882e-05
3.17843e-05
3.89078e-05
3.19092e-05
3.19109e-05
2.28659e-05
2.27173e-05
5.62999e-05
6.06107e-05
6.2321e-05
5.50211e-05
6.23079e-05
5.50206e-05
5.6291e-05
5.73506e-05
6.0349e-05
6.41742e-05
6.47792e-05
5.73635e-05
6.03472e-05
6.4185e-05
5.62526e-05
6.06029e-05
6.22851e-05
5.49821e-05
5.62627e-05
6.2298e-05
5.49735e-05
5.62991e-05
6.06108e-05
5.50206e-05
6.23248e-05
5.50174e-05
6.23066e-05
5.62937e-05
5.73596e-05
6.03446e-05
6.41745e-05
6.47796e-05
5.7357e-05
6.03526e-05
6.41876e-05
5.62552e-05
6.06035e-05
5.49753e-05
6.22838e-05
5.62614e-05
5.49792e-05
6.23016e-05
5.73901e-05
6.42075e-05
6.41946e-05
5.73924e-05
6.59255e-05
5.35314e-05
5.94786e-05
5.94793e-05
5.94736e-05
5.94748e-05
6.59324e-05
6.5834e-05
5.33516e-05
5.93426e-05
5.93425e-05
6.58393e-05
5.93422e-05
5.93433e-05
6.58636e-05
5.33854e-05
5.93772e-05
5.93788e-05
6.58586e-05
5.93778e-05
5.93781e-05
5.61407e-05
6.22282e-05
5.48513e-05
6.05042e-05
6.22088e-05
5.48467e-05
5.61356e-05
5.72155e-05
6.02253e-05
6.47066e-05
6.40863e-05
6.41009e-05
6.02344e-05
5.72119e-05
5.72486e-05
6.41233e-05
6.47128e-05
6.02646e-05
6.4109e-05
6.02561e-05
5.72518e-05
5.60934e-05
6.04961e-05
6.21831e-05
5.48005e-05
6.22024e-05
5.48053e-05
5.60985e-05
5.61365e-05
6.22236e-05
5.48494e-05
6.05026e-05
6.22039e-05
5.48449e-05
5.61312e-05
5.72093e-05
6.02218e-05
6.47027e-05
6.40787e-05
6.40932e-05
6.02308e-05
5.72057e-05
5.72424e-05
6.41155e-05
6.47093e-05
6.0261e-05
6.41012e-05
5.72456e-05
6.02526e-05
5.60891e-05
6.04945e-05
6.21782e-05
5.47987e-05
6.21978e-05
5.48035e-05
5.60943e-05
5.61761e-05
6.22346e-05
5.489e-05
6.0552e-05
5.61817e-05
6.22534e-05
5.48942e-05
5.73202e-05
6.03216e-05
6.47492e-05
6.41665e-05
6.03164e-05
6.41529e-05
5.73232e-05
5.7288e-05
6.41311e-05
6.02855e-05
6.47432e-05
6.02933e-05
5.7285e-05
6.4145e-05
5.62215e-05
6.05595e-05
6.22782e-05
5.49372e-05
6.22596e-05
5.49333e-05
5.62158e-05
5.61718e-05
6.22297e-05
5.48881e-05
6.05504e-05
5.61774e-05
6.22488e-05
5.48924e-05
5.73139e-05
6.0318e-05
6.47456e-05
6.41587e-05
6.41451e-05
6.03129e-05
5.73169e-05
5.72817e-05
6.41234e-05
6.0282e-05
6.47394e-05
5.72788e-05
6.41373e-05
6.02897e-05
5.62172e-05
6.05579e-05
6.22736e-05
5.49353e-05
6.22547e-05
5.49314e-05
5.62114e-05
6.58331e-05
5.33408e-05
5.93439e-05
5.93458e-05
5.93413e-05
5.93372e-05
6.58396e-05
6.58638e-05
5.33927e-05
5.93719e-05
5.93745e-05
5.93772e-05
6.58577e-05
5.93805e-05
5.61414e-05
6.22246e-05
5.48413e-05
6.05055e-05
6.22103e-05
5.48536e-05
5.61313e-05
5.72071e-05
6.02299e-05
6.47086e-05
6.40867e-05
6.40993e-05
6.0231e-05
5.72176e-05
5.72537e-05
6.41215e-05
6.4715e-05
6.02616e-05
6.41095e-05
6.02605e-05
5.72435e-05
5.60898e-05
6.04935e-05
6.21843e-05
5.48064e-05
6.2199e-05
5.47964e-05
5.60995e-05
5.61372e-05
5.48489e-05
6.22236e-05
6.0502e-05
5.4845e-05
6.22038e-05
5.61324e-05
5.72111e-05
6.02234e-05
6.47049e-05
6.40791e-05
6.40936e-05
6.02325e-05
5.72073e-05
5.7244e-05
6.41159e-05
6.47112e-05
6.02627e-05
6.41014e-05
5.72473e-05
6.02542e-05
5.60901e-05
6.04937e-05
5.4799e-05
6.2178e-05
5.48028e-05
6.21977e-05
5.6095e-05
5.61722e-05
6.22359e-05
5.48973e-05
6.05492e-05
5.61824e-05
6.225e-05
5.48848e-05
5.73249e-05
6.03197e-05
6.47514e-05
6.41649e-05
6.03197e-05
6.41536e-05
5.73149e-05
5.72786e-05
6.41316e-05
6.02899e-05
6.47452e-05
6.0291e-05
5.72899e-05
6.41436e-05
5.62224e-05
6.05606e-05
6.22743e-05
5.49275e-05
6.22607e-05
5.49407e-05
5.62118e-05
5.61731e-05
5.48883e-05
6.22296e-05
6.05497e-05
5.61782e-05
5.48921e-05
6.22489e-05
5.73154e-05
6.03209e-05
6.47473e-05
6.41591e-05
6.41452e-05
6.03127e-05
5.73183e-05
5.72835e-05
6.41237e-05
6.02836e-05
6.47417e-05
5.72805e-05
6.41377e-05
6.02915e-05
5.6218e-05
6.05573e-05
5.49352e-05
6.22733e-05
5.49316e-05
6.22545e-05
5.62127e-05
5.61405e-05
5.48429e-05
6.2224e-05
6.05053e-05
5.48555e-05
6.22054e-05
5.61318e-05
5.72108e-05
6.02223e-05
6.47034e-05
6.4079e-05
6.02314e-05
6.40931e-05
5.72104e-05
5.7247e-05
6.41155e-05
6.47098e-05
6.02618e-05
6.02533e-05
6.41016e-05
5.72485e-05
5.60902e-05
6.04942e-05
5.4809e-05
6.21818e-05
5.47975e-05
6.21974e-05
5.60988e-05
5.61743e-05
6.2236e-05
5.4899e-05
6.05501e-05
5.61844e-05
6.225e-05
5.48871e-05
5.73276e-05
6.03204e-05
6.47513e-05
6.41648e-05
5.73169e-05
6.03201e-05
6.4153e-05
5.72812e-05
6.41315e-05
6.02906e-05
6.47448e-05
5.72925e-05
6.02918e-05
6.41435e-05
5.62242e-05
6.05611e-05
6.22745e-05
5.4929e-05
5.62142e-05
6.22607e-05
5.49411e-05
5.61731e-05
5.48979e-05
6.22306e-05
6.05505e-05
5.61811e-05
5.48868e-05
6.22495e-05
5.73173e-05
6.03199e-05
6.47459e-05
6.41588e-05
6.41453e-05
6.03118e-05
5.732e-05
5.7285e-05
6.41239e-05
6.02827e-05
6.47401e-05
5.72827e-05
6.41373e-05
6.02906e-05
5.62206e-05
6.05584e-05
5.49347e-05
6.22739e-05
5.49377e-05
6.22555e-05
5.62132e-05
6.58324e-05
5.33501e-05
5.93406e-05
5.93437e-05
5.93437e-05
5.93404e-05
6.58384e-05
6.58627e-05
5.3385e-05
5.93752e-05
5.93775e-05
5.93756e-05
6.5857e-05
5.93773e-05
5.61365e-05
5.48496e-05
6.22216e-05
6.05009e-05
5.48451e-05
6.22024e-05
5.6131e-05
5.72108e-05
6.02245e-05
6.4706e-05
6.40785e-05
6.02334e-05
6.40933e-05
5.72071e-05
5.72438e-05
6.41157e-05
6.47121e-05
6.02637e-05
6.02552e-05
6.41012e-05
5.72471e-05
5.60889e-05
6.04924e-05
5.4799e-05
6.21766e-05
5.48038e-05
6.21958e-05
5.60944e-05
5.61771e-05
5.48906e-05
6.22345e-05
6.05509e-05
5.61829e-05
5.48948e-05
6.22535e-05
5.73217e-05
6.03246e-05
6.47506e-05
6.41671e-05
5.73247e-05
6.03164e-05
6.41532e-05
5.72899e-05
6.41316e-05
6.02873e-05
6.47447e-05
5.72869e-05
6.02951e-05
6.41455e-05
5.62226e-05
6.05588e-05
5.49377e-05
6.22784e-05
5.62166e-05
5.4934e-05
6.22593e-05
5.61717e-05
5.48883e-05
6.22281e-05
6.05482e-05
5.61775e-05
5.48926e-05
6.2247e-05
5.73153e-05
6.03219e-05
6.47484e-05
6.4159e-05
6.41452e-05
6.03138e-05
5.73184e-05
5.72832e-05
6.41234e-05
6.02847e-05
6.47426e-05
5.72803e-05
6.41374e-05
6.02925e-05
5.62173e-05
6.05562e-05
5.49356e-05
6.22715e-05
5.49317e-05
6.22531e-05
5.62115e-05
6.58633e-05
5.33923e-05
5.93725e-05
5.93735e-05
6.58558e-05
5.93771e-05
5.93784e-05
5.73578e-05
6.03425e-05
6.4174e-05
6.47781e-05
6.41871e-05
5.73551e-05
6.03502e-05
5.6255e-05
6.06043e-05
6.22834e-05
5.4976e-05
6.23024e-05
5.62604e-05
5.49791e-05
5.73515e-05
6.0339e-05
6.41662e-05
6.47743e-05
5.73489e-05
6.41794e-05
6.03469e-05
5.62506e-05
6.06028e-05
6.22785e-05
5.49742e-05
5.62561e-05
6.22978e-05
5.49772e-05
5.73482e-05
6.03477e-05
6.41743e-05
6.47801e-05
6.41854e-05
5.73589e-05
6.03498e-05
5.62507e-05
6.06021e-05
6.2285e-05
5.49825e-05
6.22982e-05
5.62611e-05
5.49707e-05
5.73523e-05
6.0341e-05
6.41664e-05
6.47763e-05
5.735e-05
6.41793e-05
6.03479e-05
5.62509e-05
6.06023e-05
5.49738e-05
6.22787e-05
5.62568e-05
5.49769e-05
6.22968e-05
5.62962e-05
6.06106e-05
5.50204e-05
6.23208e-05
5.50182e-05
6.23027e-05
5.62903e-05
5.73541e-05
6.03418e-05
6.41665e-05
6.47749e-05
6.03466e-05
5.73516e-05
6.41793e-05
5.62519e-05
6.06034e-05
5.49783e-05
6.22797e-05
5.49789e-05
5.62589e-05
6.22975e-05
5.73847e-05
6.41994e-05
6.47805e-05
6.03735e-05
6.03683e-05
6.41867e-05
5.7387e-05
5.62941e-05
6.06084e-05
5.5019e-05
6.23184e-05
5.5016e-05
6.23006e-05
5.62888e-05
5.73526e-05
6.03421e-05
6.41664e-05
6.47775e-05
6.03494e-05
5.73501e-05
6.41795e-05
5.625e-05
6.06009e-05
5.4974e-05
6.22774e-05
5.49775e-05
5.62562e-05
6.22951e-05
5.73834e-05
6.41996e-05
6.47832e-05
6.03758e-05
6.03708e-05
6.41867e-05
5.73858e-05
3.64644e-05
4.17635e-05
3.6464e-05
7.13544e-05
6.01874e-05
6.95325e-05
6.68973e-05
6.68934e-05
6.95305e-05
6.01876e-05
7.13557e-05
7.01868e-05
7.13415e-05
7.73925e-05
7.7371e-05
7.02008e-05
6.95199e-05
7.00871e-05
5.93338e-05
6.68828e-05
7.11461e-05
5.92834e-05
7.11279e-05
7.01098e-05
7.00362e-05
5.93253e-05
6.68792e-05
7.11355e-05
7.11208e-05
5.92771e-05
7.00575e-05
9.23408e-05
7.2031e-05
7.20366e-05
7.20171e-05
7.20226e-05
9.23529e-05
6.95179e-05
7.01846e-05
7.13429e-05
7.74005e-05
7.73807e-05
7.01993e-05
5.95211e-05
4.17729e-05
5.05157e-05
5.05106e-05
5.04707e-05
5.04735e-05
5.95558e-05
4.8063e-05
5.25177e-05
6.01433e-05
5.85161e-05
5.84576e-05
5.24887e-05
4.80756e-05
4.80656e-05
5.25243e-05
6.0145e-05
5.85183e-05
5.2485e-05
5.84624e-05
4.80783e-05
2.10418e-05
3.66943e-05
3.66983e-05
4.19437e-05
2.18003e-05
3.75998e-05
3.76037e-05
4.26655e-05
2.2577e-05
3.84792e-05
3.84837e-05
4.33641e-05
2.33681e-05
3.93318e-05
3.93363e-05
4.40378e-05
2.41698e-05
4.01569e-05
4.01611e-05
4.46878e-05
2.49781e-05
4.09537e-05
4.09576e-05
4.53127e-05
2.57894e-05
4.17215e-05
4.17252e-05
4.59286e-05
2.66001e-05
4.24601e-05
4.2464e-05
4.65008e-05
2.74067e-05
4.31698e-05
4.31738e-05
4.70556e-05
2.82063e-05
4.38509e-05
4.3855e-05
4.75916e-05
2.89959e-05
4.45035e-05
4.45077e-05
4.80953e-05
2.97729e-05
4.5128e-05
4.5132e-05
4.85882e-05
3.05349e-05
4.57248e-05
4.57287e-05
4.90511e-05
3.12797e-05
4.6294e-05
4.62978e-05
4.94985e-05
3.20055e-05
4.68359e-05
4.68397e-05
4.99205e-05
3.27108e-05
4.7351e-05
4.73547e-05
5.03219e-05
3.33938e-05
4.78397e-05
4.78433e-05
5.07054e-05
3.40533e-05
4.8302e-05
4.83057e-05
5.10701e-05
3.46883e-05
4.87387e-05
4.87425e-05
5.14122e-05
3.52978e-05
4.91502e-05
4.91538e-05
5.17376e-05
3.58811e-05
4.95367e-05
4.95402e-05
5.20436e-05
3.64374e-05
4.98986e-05
4.9902e-05
5.23331e-05
3.69665e-05
5.02365e-05
5.02398e-05
5.26045e-05
3.74678e-05
5.05508e-05
5.0554e-05