/*--------------------------------*- C++ -*----------------------------------*\
| =========                 |                                                 |
| \\      /  F ield         | OpenFOAM: The Open Source CFD Toolbox           |
|  \\    /   O peration     | Version:  2312                                  |
|   \\  /    A nd           | Website:  www.openfoam.com                      |
|    \\/     M anipulation  |                                                 |
\*---------------------------------------------------------------------------*/
FoamFile
{
    version     2.0;
    format      ascii;
    arch        "LSB;label=32;scalar=64";
    class       volScalarField;
    location    "800";
    object      nut;
}
// * * * * * * * * * * * * * * * * * * * * * * * * * * * * * * * * * * * * * //

dimensions      [0 2 -1 0 0 0 0];

internalField   nonuniform List<scalar> 
43496
(
9.98383e-05
2.3891e-05
0.000200498
0.000103599
0.000144111
0.00021002
9.98396e-05
5.07386e-05
0.00014412
0.000200464
0.000210018
0.000103581
0.000181929
7.7891e-05
7.79056e-05
2.38932e-05
5.07411e-05
3.67136e-05
9.98123e-05
9.44557e-05
4.10537e-05
9.44336e-05
4.10541e-05
3.67125e-05
2.03164e-05
7.90785e-05
7.90606e-05
2.03185e-05
2.3889e-05
3.67122e-05
9.98048e-05
4.10535e-05
9.44506e-05
4.10539e-05
9.44185e-05
3.67106e-05
2.03155e-05
7.9058e-05
5.07324e-05
7.90402e-05
2.03175e-05
8.14831e-05
2.17076e-05
2.17109e-05
2.17056e-05
2.17089e-05
8.14899e-05
0.0001052
4.86457e-05
7.78814e-05
0.000128753
4.86405e-05
0.000128697
0.000105218
0.000105197
4.86594e-05
7.7894e-05
0.000128783
0.000128726
4.86515e-05
0.000105215
2.38912e-05
5.07405e-05
0.000203204
0.000206574
0.000203211
0.000103558
0.000147568
0.000147495
0.000171221
0.000144037
0.000137567
0.000176438
0.000137501
0.000176443
0.000171268
0.000160684
0.000122731
0.000122678
0.000160701
0.000171164
0.000144022
0.000176511
0.000137572
0.000176377
0.000137479
0.00017132
0.000160612
0.000122728
0.000103539
0.000147533
0.000122662
0.000160761
0.000147461
0.000138285
0.000181877
0.000161724
0.000161751
0.000161709
0.000161684
0.00013832
0.000203448
0.000198755
0.000198759
0.000180595
0.000205958
0.000200157
0.000200161
0.000181549
0.000180691
0.000181481
0.000198739
0.00019872
0.000199795
0.000199772
0.00018061
0.00018155
0.000198748
0.000198725
0.000199806
0.000199783
0.000198724
0.000199808
0.000199786
0.000180639
0.000181485
0.000198736
0.000199817
0.000199795
0.000181538
0.000181646
0.00020014
0.000200122
0.000181565
0.00020015
0.000200127
0.000200126
0.000181627
0.000200138
9.97306e-05
5.0716e-05
5.07272e-05
9.96615e-05
2.38785e-05
2.38828e-05
9.9723e-05
5.07109e-05
5.07221e-05
9.96623e-05
0.000203443
0.000203456
0.000203446
0.000205339
0.000205331
0.000205347
0.000205342
0.000143705
0.000103361
0.000207742
0.000199107
0.000103445
0.000208207
0.000143512
2.38775e-05
2.38819e-05
0.000143711
0.000207747
0.00010336
0.000199117
0.000208215
0.000103446
0.000143497
7.78091e-05
7.78042e-05
0.000181059
7.78371e-05
7.78303e-05
5.07388e-05
9.97843e-05
2.38877e-05
5.07313e-05
9.9784e-05
0.000205954
0.000205965
0.000205955
0.000144119
0.000103522
0.00020958
0.000143934
0.000210021
2.38868e-05
0.00014412
0.000209585
0.00010352
0.000143921
0.000210029
7.7873e-05
7.78673e-05
0.000182003
7.78973e-05
7.78918e-05
2.38805e-05
2.38849e-05
2.38784e-05
2.38829e-05
7.78196e-05
7.78122e-05
0.000181006
7.78448e-05
7.78404e-05
2.38895e-05
2.38852e-05
2.38875e-05
2.38831e-05
0.000181164
7.78757e-05
7.78712e-05
7.7852e-05
7.78448e-05
9.97274e-05
5.07128e-05
5.07192e-05
9.96581e-05
0.00014372
0.00010336
0.000207739
0.000199095
0.000103447
0.000208206
0.000143504
0.000143715
0.000103337
0.000207732
0.000199072
0.000103423
0.000208198
0.0001435
9.97244e-05
5.07369e-05
5.07264e-05
9.97912e-05
9.9721e-05
5.07294e-05
5.07232e-05
9.97871e-05
0.000143722
0.000199449
0.000103525
0.000209125
0.000103442
0.00020867
0.000143927
0.000143717
0.000199431
0.000103502
0.000209117
0.000103419
0.000208664
0.000143923
7.7799e-05
7.78194e-05
0.000181073
7.78246e-05
7.78469e-05
2.38798e-05
2.38842e-05
2.38874e-05
2.38832e-05
0.000181082
7.78555e-05
7.78777e-05
7.78314e-05
7.78519e-05
2.38888e-05
2.38845e-05
0.000143704
0.000103352
0.000207738
0.000199105
0.000103437
0.000208205
0.00014351
9.9723e-05
5.0707e-05
5.07182e-05
9.96548e-05
0.00014371
0.000207736
0.000103342
0.000199083
0.000208204
0.000103427
0.000143498
9.97244e-05
5.07321e-05
5.07214e-05
9.97829e-05
0.000143727
0.000199459
0.000103516
0.000209124
0.000103434
0.000208669
0.000143912
9.97172e-05
5.07283e-05
5.07175e-05
9.97829e-05
0.000143714
0.000199436
0.000209122
0.000103506
0.000208667
0.000103424
0.00014392
9.9717e-05
5.07146e-05
5.07211e-05
9.96546e-05
0.000143708
0.000207738
0.000103348
0.000199086
0.000208205
0.000103434
0.000143513
9.97246e-05
5.07082e-05
5.07194e-05
9.96599e-05
0.000143728
0.000199465
0.000103524
0.000209126
0.000103443
0.000208673
0.000143912
9.97168e-05
5.07314e-05
5.0725e-05
9.97765e-05
0.000143719
0.000199434
0.000209123
0.000103512
0.000208669
0.00010343
0.000143919
9.9719e-05
5.07295e-05
5.07186e-05
9.97841e-05
7.7805e-05
7.78161e-05
0.000180997
7.78298e-05
7.78446e-05
2.38797e-05
2.38841e-05
2.38865e-05
2.38822e-05
0.000181155
7.78609e-05
7.78756e-05
7.78374e-05
7.78486e-05
2.38887e-05
2.38844e-05
0.000143703
0.000207738
0.000103341
0.000199095
0.000208205
0.000103428
0.000143489
9.97171e-05
5.07147e-05
5.07212e-05
9.96484e-05
9.9707e-05
5.07066e-05
5.07178e-05
9.9638e-05
0.000143714
0.00019947
0.000209134
0.000103525
0.000208678
0.000103442
0.000143919
0.000143706
0.000199447
0.000209124
0.000103506
0.000208669
0.000103424
0.000143911
9.97107e-05
5.07315e-05
5.07251e-05
9.97768e-05
9.97005e-05
5.07279e-05
5.0717e-05
9.97669e-05
2.38784e-05
2.38828e-05
2.38773e-05
2.38817e-05
0.000181069
7.78665e-05
7.78618e-05
7.78415e-05
7.78372e-05
2.38874e-05
2.3883e-05
2.38863e-05
2.3882e-05
2.38898e-05
2.38877e-05
7.78824e-05
7.78758e-05
5.07336e-05
9.97806e-05
0.00010352
0.000209578
0.000143929
0.000103497
0.000209571
0.000143925
7.78619e-05
7.78824e-05
2.3889e-05
0.000103512
0.000209577
0.000143935
5.07278e-05
9.97767e-05
0.000209575
0.000103503
0.000143921
9.98322e-05
5.07353e-05
9.97759e-05
0.000144121
0.000209577
0.000103508
0.000200467
0.000143924
0.000210019
0.000103587
9.98405e-05
5.07288e-05
9.9778e-05
5.07398e-05
7.78678e-05
7.78795e-05
2.3889e-05
0.000144112
0.000209577
0.000103502
0.000200477
0.000143913
0.000210019
0.000103581
9.98336e-05
5.07351e-05
9.97701e-05
9.98237e-05
5.07273e-05
9.97599e-05
5.07382e-05
2.38876e-05
2.38919e-05
2.38865e-05
2.38909e-05
3.66964e-05
4.10405e-05
9.43727e-05
9.96929e-05
4.10344e-05
9.43384e-05
3.67009e-05
2.03086e-05
5.0722e-05
7.90064e-05
7.90257e-05
2.03066e-05
2.03085e-05
7.90377e-05
5.07213e-05
7.90185e-05
2.03105e-05
3.6696e-05
9.97e-05
4.10304e-05
9.43145e-05
4.10362e-05
9.43484e-05
3.66944e-05
2.38805e-05
2.38808e-05
3.66992e-05
9.43645e-05
4.10372e-05
9.9694e-05
9.43401e-05
4.10371e-05
3.66982e-05
2.0309e-05
5.07169e-05
7.90027e-05
7.90213e-05
2.0307e-05
2.03089e-05
7.90332e-05
5.07162e-05
7.9015e-05
2.03109e-05
3.66946e-05
9.9692e-05
9.43155e-05
4.10326e-05
9.43406e-05
4.1033e-05
3.66956e-05
2.38796e-05
2.38798e-05
8.14423e-05
2.17029e-05
2.16997e-05
2.17009e-05
2.16977e-05
8.14495e-05
0.000105056
0.00012836
7.78207e-05
4.86251e-05
0.000128423
4.86326e-05
0.000105031
0.000105062
0.00012834
7.7814e-05
4.86151e-05
0.000128405
4.86212e-05
0.000105039
0.000105064
4.86373e-05
7.78256e-05
0.000128496
0.000128434
4.86301e-05
0.000105088
0.000105072
4.86242e-05
7.78211e-05
0.000128478
0.000128414
4.86229e-05
0.000105094
8.14392e-05
2.1699e-05
2.16958e-05
2.17011e-05
2.16978e-05
8.14319e-05
2.03162e-05
7.90539e-05
5.07404e-05
2.03142e-05
7.90717e-05
3.67136e-05
9.98183e-05
4.1047e-05
9.44098e-05
3.6706e-05
4.1054e-05
9.44443e-05
2.38896e-05
2.03166e-05
7.90499e-05
5.07378e-05
2.03146e-05
7.90677e-05
3.67095e-05
9.98114e-05
9.44116e-05
4.10497e-05
3.67102e-05
9.44346e-05
4.105e-05
2.38888e-05
8.14814e-05
2.17103e-05
2.17071e-05
2.17084e-05
2.17051e-05
8.1488e-05
0.000105179
0.000128647
4.86482e-05
7.78815e-05
0.000105159
0.000128705
4.86483e-05
0.000105188
0.000128628
4.86363e-05
7.78771e-05
0.000105165
0.000128687
4.86389e-05
8.1479e-05
2.17065e-05
2.17033e-05
8.14721e-05
2.17085e-05
2.17053e-05
0.00010519
4.86521e-05
7.78874e-05
0.000128772
0.000128716
4.86532e-05
0.000105208
0.000105196
4.86456e-05
7.78814e-05
0.000128754
0.000128696
4.86381e-05
0.000105214
2.38826e-05
2.38828e-05
2.38805e-05
2.38808e-05
8.14477e-05
2.17033e-05
2.17e-05
2.17013e-05
2.1698e-05
8.14554e-05
0.000105061
0.000128374
7.78287e-05
4.8632e-05
4.86318e-05
0.00012843
0.000105042
0.000105066
0.00012835
7.7824e-05
4.86155e-05
4.8623e-05
0.000128412
0.000105041
0.000105075
4.86366e-05
7.7836e-05
0.000128504
4.86367e-05
0.000105094
0.000128448
0.000105074
4.86278e-05
7.7829e-05
0.000128486
4.86205e-05
0.000105098
0.000128424
8.1445e-05
2.16994e-05
2.16961e-05
2.17014e-05
2.16981e-05
8.14372e-05
2.38875e-05
2.38872e-05
2.38854e-05
2.38852e-05
8.14655e-05
2.17032e-05
2.16999e-05
8.1458e-05
2.17052e-05
2.17019e-05
0.000105138
0.000128645
7.78675e-05
4.86461e-05
4.86466e-05
0.000128591
0.000105157
0.000105138
0.000128627
7.78604e-05
4.8637e-05
4.86297e-05
0.000128568
0.00010516
0.000105126
4.86417e-05
0.00012852
7.78608e-05
0.000105107
4.86418e-05
0.000128575
0.00010513
4.86252e-05
0.000128496
7.78555e-05
0.000105107
4.86322e-05
0.000128557
8.14679e-05
2.1707e-05
2.17038e-05
2.1705e-05
2.17017e-05
8.14752e-05
3.66977e-05
4.10404e-05
9.43611e-05
9.96896e-05
4.10343e-05
9.43273e-05
3.66969e-05
2.0308e-05
5.07141e-05
7.89847e-05
7.90037e-05
2.03059e-05
2.03078e-05
7.90158e-05
5.07179e-05
7.89967e-05
2.03099e-05
3.66932e-05
9.96967e-05
4.10303e-05
9.43031e-05
4.1036e-05
9.43367e-05
3.66941e-05
3.67055e-05
4.1039e-05
9.43634e-05
9.9761e-05
3.66991e-05
4.10447e-05
9.43968e-05
2.03123e-05
5.07314e-05
7.90608e-05
2.03143e-05
7.90423e-05
2.03125e-05
7.90305e-05
5.07319e-05
2.03104e-05
7.90494e-05
3.67027e-05
9.97545e-05
4.1049e-05
9.44204e-05
3.67092e-05
4.10433e-05
9.43874e-05
3.67005e-05
4.10388e-05
9.43522e-05
9.97579e-05
3.67012e-05
4.10447e-05
9.43853e-05
2.03116e-05
5.07284e-05
7.9039e-05
7.90203e-05
2.03137e-05
2.03118e-05
7.90087e-05
5.07247e-05
2.03097e-05
7.90276e-05
3.67053e-05
9.9751e-05
4.10489e-05
9.44094e-05
4.1043e-05
9.43762e-05
3.67043e-05
8.1445e-05
2.17e-05
2.17031e-05
2.1698e-05
2.1701e-05
8.14531e-05
0.000105064
0.000128341
7.78084e-05
4.86185e-05
4.86199e-05
0.0001284
0.000105041
0.000105062
0.000128373
7.78307e-05
4.86268e-05
0.000128434
4.86343e-05
0.000105038
0.000105074
4.86238e-05
7.78155e-05
0.000128473
4.86239e-05
0.000128415
0.000105096
0.000105071
4.86391e-05
7.7836e-05
0.000128507
0.000128447
4.86318e-05
0.000105094
8.14428e-05
2.16961e-05
2.16991e-05
2.16981e-05
2.17012e-05
8.14345e-05
2.38819e-05
2.38821e-05
2.38854e-05
2.38851e-05
8.14631e-05
2.16999e-05
2.17029e-05
8.14553e-05
2.17019e-05
2.17049e-05
0.000105137
0.000128614
7.78468e-05
4.86332e-05
0.000128558
4.86335e-05
0.000105159
0.000105134
0.000128648
7.78674e-05
4.86486e-05
4.86411e-05
0.00012859
0.000105157
0.000105128
4.86286e-05
0.000128488
7.78405e-05
0.000128544
0.000105106
4.86289e-05
0.000105126
4.86365e-05
0.000128519
7.78623e-05
0.000105103
4.86434e-05
0.000128578
8.14652e-05
2.17038e-05
2.17068e-05
2.17017e-05
2.17048e-05
8.1473e-05
2.38868e-05
2.38865e-05
3.66973e-05
4.1037e-05
9.43582e-05
9.96859e-05
4.10368e-05
9.43244e-05
3.66964e-05
2.0308e-05
5.0713e-05
7.89816e-05
7.90008e-05
2.0306e-05
2.03079e-05
7.90129e-05
5.07124e-05
7.89939e-05
2.03099e-05
3.66928e-05
9.9692e-05
4.10323e-05
9.43e-05
4.10328e-05
9.43334e-05
3.66937e-05
3.67019e-05
9.43642e-05
4.10411e-05
9.97537e-05
3.67028e-05
9.43889e-05
4.10416e-05
2.03127e-05
5.07264e-05
7.90566e-05
2.03147e-05
7.90386e-05
2.03128e-05
7.9027e-05
5.07269e-05
2.03108e-05
7.90451e-05
3.67064e-05
9.97544e-05
9.44123e-05
4.10456e-05
3.67061e-05
9.4388e-05
4.10454e-05
3.67001e-05
4.10409e-05
9.43494e-05
9.97536e-05
3.67008e-05
4.10413e-05
9.43826e-05
2.03117e-05
5.07224e-05
7.90362e-05
7.90177e-05
2.03137e-05
2.03118e-05
7.9006e-05
5.07231e-05
2.03098e-05
7.90248e-05
3.67047e-05
9.97474e-05
4.10455e-05
9.44059e-05
4.10452e-05
9.43734e-05
3.67041e-05
3.66993e-05
9.43552e-05
4.10366e-05
9.96862e-05
9.43278e-05
4.10367e-05
3.6698e-05
2.03092e-05
5.0716e-05
7.90001e-05
7.90107e-05
2.03071e-05
2.0309e-05
7.90227e-05
5.07197e-05
7.90123e-05
2.03111e-05
3.66945e-05
9.96865e-05
9.43027e-05
4.10322e-05
9.4331e-05
4.10325e-05
3.66956e-05
3.66979e-05
4.10375e-05
9.43595e-05
9.96876e-05
4.10374e-05
9.4329e-05
3.6697e-05
2.03083e-05
5.07142e-05
7.89823e-05
7.90015e-05
2.03062e-05
2.03081e-05
7.90135e-05
5.07135e-05
7.89946e-05
2.03102e-05
3.66933e-05
9.96923e-05
4.10329e-05
9.43078e-05
4.10333e-05
9.43338e-05
3.66943e-05
3.67017e-05
9.43519e-05
4.10408e-05
9.97475e-05
3.67029e-05
9.43795e-05
4.1041e-05
2.03128e-05
5.07302e-05
7.90458e-05
7.90358e-05
2.03149e-05
2.0313e-05
7.90242e-05
5.07266e-05
2.03109e-05
7.90347e-05
3.67067e-05
9.97467e-05
9.44024e-05
4.10451e-05
9.43758e-05
4.10451e-05
3.67057e-05
3.67007e-05
4.10414e-05
9.43514e-05
9.9755e-05
3.67014e-05
4.10418e-05
9.43847e-05
2.03119e-05
5.07235e-05
7.90365e-05
7.9018e-05
2.0314e-05
2.03121e-05
7.90065e-05
5.07243e-05
2.03101e-05
7.90251e-05
3.67053e-05
9.97488e-05
4.1046e-05
9.44079e-05
4.10458e-05
9.43753e-05
3.67046e-05
8.14443e-05
2.17002e-05
2.17035e-05
2.16982e-05
2.17014e-05
8.1451e-05
0.000105064
0.000128341
7.78134e-05
4.86195e-05
4.86194e-05
0.000128405
0.000105045
0.000105063
0.00012837
7.78282e-05
4.86279e-05
0.000128434
4.86353e-05
0.00010504
0.000105077
4.86242e-05
7.78214e-05
0.000128478
4.86242e-05
0.000128415
0.000105097
0.000105073
4.86401e-05
7.78328e-05
0.000128507
0.000128444
4.86329e-05
0.000105096
8.14406e-05
2.16963e-05
2.16995e-05
2.16983e-05
2.17016e-05
8.14339e-05
2.38818e-05
2.38821e-05
2.38845e-05
2.38842e-05
8.14613e-05
2.17001e-05
2.17033e-05
8.14544e-05
2.17021e-05
2.17053e-05
0.000105141
0.00012862
7.78529e-05
4.86338e-05
0.000128558
4.86341e-05
0.000105159
0.000105136
0.000128649
7.78639e-05
4.86494e-05
4.8642e-05
0.000128588
0.000105158
0.000105128
4.86291e-05
0.000128488
7.78457e-05
0.000128549
0.00010511
4.86294e-05
0.000105128
4.86376e-05
0.000128517
7.78599e-05
0.000105105
4.86445e-05
0.000128579
8.14643e-05
2.17039e-05
2.17072e-05
2.17019e-05
2.17052e-05
8.14712e-05
2.38867e-05
2.38864e-05
3.66996e-05
9.43684e-05
4.10394e-05
9.96795e-05
9.43348e-05
4.1033e-05
3.66988e-05
2.03097e-05
5.07161e-05
7.90029e-05
7.90219e-05
2.03076e-05
2.03095e-05
7.90339e-05
5.07198e-05
7.90151e-05
2.03116e-05
3.66951e-05
9.96861e-05
9.43107e-05
4.10289e-05
9.43441e-05
4.10347e-05
3.6696e-05
3.66967e-05
9.4349e-05
4.10359e-05
9.96694e-05
9.43152e-05
4.10361e-05
3.66956e-05
2.03078e-05
5.07126e-05
7.89801e-05
7.89992e-05
2.03057e-05
2.03076e-05
7.90112e-05
5.07119e-05
7.89924e-05
2.03097e-05
3.6692e-05
9.96759e-05
9.42907e-05
4.10316e-05
9.43245e-05
4.10318e-05
3.6693e-05
3.67024e-05
9.43596e-05
4.10376e-05
9.97475e-05
3.67031e-05
9.43927e-05
4.10437e-05
2.03133e-05
5.07304e-05
7.90572e-05
7.90386e-05
2.03154e-05
2.03135e-05
7.9027e-05
5.07266e-05
2.03114e-05
7.90457e-05
3.6707e-05
9.97408e-05
9.4416e-05
4.1048e-05
9.43834e-05
4.10418e-05
3.67064e-05
3.66993e-05
9.434e-05
4.104e-05
9.97374e-05
3.67002e-05
9.43734e-05
4.10405e-05
2.03114e-05
5.07219e-05
7.90346e-05
7.9016e-05
2.03135e-05
2.03116e-05
7.90043e-05
5.07227e-05
2.03095e-05
7.90231e-05
3.67041e-05
9.97307e-05
9.43967e-05
4.10453e-05
9.43639e-05
4.10436e-05
3.67033e-05
2.38805e-05
2.38807e-05
2.38794e-05
2.38796e-05
8.14597e-05
2.17028e-05
2.16996e-05
8.14524e-05
2.17048e-05
2.17016e-05
0.000105128
0.000128636
7.78573e-05
4.86449e-05
0.000105151
0.000128578
4.8641e-05
0.000105135
0.000128619
7.78528e-05
4.86332e-05
0.000105157
0.000128558
4.86328e-05
0.00010512
4.86349e-05
0.000128506
7.78518e-05
0.000105096
0.000128567
4.86414e-05
0.000105127
4.8628e-05
0.000128487
7.78459e-05
0.000105104
0.000128549
4.86285e-05
8.14623e-05
2.17067e-05
2.17034e-05
8.14695e-05
2.17047e-05
2.17014e-05
2.38853e-05
2.38851e-05
2.38843e-05
2.3884e-05
2.38917e-05
2.38897e-05
0.000105187
0.00012866
4.86513e-05
7.78906e-05
0.000105169
4.86502e-05
0.000128713
0.000105189
0.000128637
4.86355e-05
7.78845e-05
0.000105169
4.86405e-05
0.000128695
8.14846e-05
2.17069e-05
2.17036e-05
8.14777e-05
2.17089e-05
2.17056e-05
2.03155e-05
7.90317e-05
5.07339e-05
2.03135e-05
7.90501e-05
3.67075e-05
9.98145e-05
4.10474e-05
9.43988e-05
4.10522e-05
3.67089e-05
9.44328e-05
0.00010519
0.000128628
4.86383e-05
7.78699e-05
4.86372e-05
0.000105167
0.000128683
0.000105188
0.000128659
4.86458e-05
7.7893e-05
0.000128716
0.000105165
4.86536e-05
8.14827e-05
2.17036e-05
2.17066e-05
2.17056e-05
8.14749e-05
2.17087e-05
2.03156e-05
7.90293e-05
5.07333e-05
2.03136e-05
7.90473e-05
3.67077e-05
9.98114e-05
4.10494e-05
9.43967e-05
4.10499e-05
3.6708e-05
9.44284e-05
3.67138e-05
9.98044e-05
4.1053e-05
9.44215e-05
4.10538e-05
2.03168e-05
7.9047e-05
5.07359e-05
7.90566e-05
2.03147e-05
3.67092e-05
9.98053e-05
9.43989e-05
4.10493e-05
9.4425e-05
3.671e-05
4.10495e-05
2.03166e-05
3.67128e-05
9.98061e-05
4.10539e-05
9.44528e-05
4.10544e-05
9.44203e-05
3.67124e-05
2.03159e-05
7.90295e-05
5.07346e-05
2.03138e-05
7.90475e-05
3.67082e-05
9.98125e-05
4.10499e-05
9.43985e-05
3.67085e-05
4.10504e-05
9.44304e-05
2.03157e-05
7.90582e-05
5.07337e-05
7.90405e-05
2.03177e-05
0.00010519
0.000128629
4.86382e-05
7.78766e-05
4.86392e-05
0.00010517
0.000128687
0.000105188
0.000128657
4.86475e-05
7.789e-05
0.000128717
0.000105167
4.86542e-05
8.14807e-05
2.17038e-05
2.1707e-05
2.17058e-05
8.14738e-05
2.1709e-05
2.3891e-05
3.67141e-05
9.97984e-05
9.44608e-05
4.10566e-05
9.44285e-05
4.10499e-05
3.67137e-05
2.03172e-05
7.90501e-05
5.07366e-05
7.90681e-05
2.03152e-05
3.67099e-05
9.98053e-05
9.44067e-05
4.1046e-05
9.44384e-05
3.67103e-05
4.1052e-05
2.03171e-05
7.90788e-05
7.90612e-05
2.03191e-05
3.67115e-05
9.97884e-05
9.44416e-05
4.10561e-05
9.44093e-05
4.10492e-05
3.67111e-05
2.03154e-05
7.90275e-05
5.0733e-05
2.03133e-05
7.90456e-05
3.6707e-05
9.97954e-05
9.43871e-05
4.10466e-05
3.67072e-05
9.44192e-05
4.10509e-05
2.03152e-05
7.90564e-05
5.07321e-05
7.90385e-05
2.03172e-05
2.38896e-05
2.38899e-05
2.38886e-05
2.38888e-05
0.000199214
0.000199213
0.000204085
0.000200023
0.000200023
0.00018932
0.000188297
0.000137899
0.000160894
0.000160885
0.00018082
0.000160981
0.000160969
0.000137852
0.000202419
0.000202419
0.000193386
0.000192374
0.000138239
0.000161525
0.000161516
0.000181771
0.000138194
0.00016161
0.000161596
0.000137904
0.000160929
0.000160908
0.000180767
0.000160984
0.000160961
0.000137867
0.000138125
0.000181411
0.000161449
0.000161442
0.000161397
0.000161387
0.000138162
0.000137906
0.000160888
0.000160911
0.000180835
0.000160995
0.000160972
0.000137859
0.00013812
0.000181328
0.000161442
0.000161465
0.000161362
0.000161385
0.000138162
0.000137902
0.000160899
0.000160913
0.000180766
0.000160971
0.000160958
0.000137861
0.000138121
0.000181408
0.000161429
0.000161456
0.000161374
0.000161401
0.000138159
0.000138111
0.000181316
0.000161453
0.000161444
0.000138155
0.000161369
0.00016135
0.000138243
0.000161555
0.00016154
0.000181697
0.000138208
0.000161594
0.000161581
0.000138245
0.000161515
0.000161538
0.000181781
0.000161624
0.000138201
0.000161601
0.000138242
0.000161527
0.000161545
0.000181712
0.000161601
0.000138203
0.000161585
0.000199211
0.000199213
0.000204076
0.00020002
0.00020002
0.000189319
0.000188297
0.000199222
0.000199225
0.000204092
0.000200031
0.000200036
0.000189329
0.000188306
0.000199221
0.000199221
0.000204087
0.000200029
0.000200033
0.000189328
0.000188306
0.000204716
0.000201626
0.000201626
0.000200829
0.000200829
0.000190341
0.000191359
0.000204712
0.000201623
0.000201623
0.000200826
0.000200828
0.000190341
0.000191358
0.000204724
0.000201634
0.000201638
0.000200837
0.00020084
0.00019035
0.000191368
0.000204714
0.00020163
0.000201637
0.000200836
0.000200835
0.00019035
0.000191367
0.000170448
0.000137219
0.000175602
0.000143622
0.000137145
0.000175587
0.000170516
0.000159953
0.000146909
0.000103405
0.000122358
0.000146946
0.000122421
0.000159916
0.000160073
0.000122487
0.000103403
0.000147071
0.000147034
0.000122426
0.000160109
0.000170321
0.000143598
0.000137052
0.000175352
0.000137128
0.000175373
0.000170245
0.000170429
0.00017566
0.000137233
0.000143606
0.000175521
0.000137135
0.000170553
0.000160001
0.000146892
0.000103405
0.000122359
0.000146968
0.000122429
0.000159872
0.000160029
0.000122495
0.000103401
0.000147092
0.000147018
0.000122425
0.000160163
0.000170341
0.000143603
0.000175293
0.000137044
0.00017543
0.000137141
0.000170229
0.000137941
0.000180838
0.000161138
0.000161126
0.000161056
0.000161042
0.000137987
0.000202417
0.00020242
0.0002032
0.000193385
0.000192374
0.000202427
0.000202431
0.000203216
0.000193394
0.000192383
0.000202427
0.000202424
0.000206572
0.000203207
0.000203218
0.000193393
0.000192383
0.000171225
0.000144023
0.000137569
0.000176513
0.000137499
0.000176406
0.000171291
0.000160565
0.000147397
0.00012262
0.000103561
0.000160553
0.000147424
0.000122676
0.000171095
0.000144016
0.000137415
0.000176213
0.000171036
0.000137485
0.000176258
0.000171143
0.000144022
0.000176517
0.000137585
0.000176377
0.000137492
0.000171373
0.000160639
0.000147377
0.000122621
0.000103562
0.000160481
0.000147451
0.000122686
0.000171156
0.00014402
0.000176161
0.000137408
0.000170968
0.0001763
0.000137499
0.000160632
0.000122747
0.000122681
0.000160786
0.000138275
0.00018178
0.000161765
0.000161751
0.000161676
0.000161664
0.00013832
0.000137955
0.000180928
0.000161138
0.000161121
0.000137992
0.00016108
0.000161068
0.000138078
0.00018125
0.000161238
0.000161229
0.000138041
0.000161298
0.000161283
0.000170423
0.000137235
0.000175663
0.000143614
0.000137137
0.000175524
0.000170556
0.000159995
0.000146887
0.000103406
0.000122356
0.000122427
0.000146963
0.000159862
0.000160018
0.000122494
0.000103402
0.000147087
0.000122423
0.000147013
0.000160158
0.000170342
0.000143612
0.000137045
0.000175295
0.000137142
0.000175434
0.000170222
0.000170402
0.000137221
0.000175657
0.000143609
0.000137124
0.000175518
0.000170545
0.000159973
0.000146855
0.000103382
0.000122339
0.000122409
0.000146932
0.000159838
0.000159993
0.000122475
0.000103378
0.000147056
0.000122405
0.000160136
0.000146981
0.00017033
0.000143607
0.000137032
0.000175289
0.000137129
0.000175429
0.000170205
0.000170767
0.00013723
0.000175737
0.000143825
0.00017061
0.000137326
0.000175876
0.000160314
0.000147323
0.000103482
0.000122622
0.000147263
0.000122554
0.000160489
0.000160325
0.000122489
0.000147134
0.000103486
0.000147205
0.000160172
0.000122558
0.000170782
0.000143826
0.000137416
0.000176092
0.000137321
0.000175955
0.000170967
0.000170751
0.000137217
0.000175731
0.000143821
0.000170587
0.000137313
0.00017587
0.000160288
0.000147291
0.000103458
0.000122604
0.000122536
0.000147231
0.000160455
0.000160303
0.000122472
0.000147102
0.000103463
0.000160145
0.00012254
0.000147173
0.000170768
0.000143822
0.000137402
0.000176086
0.000137307
0.000175948
0.000170938
0.000137948
0.000180852
0.000161136
0.000161151
0.000161069
0.000161041
0.000137992
0.000138076
0.000181304
0.000161198
0.000161217
0.000161285
0.000138035
0.000161308
0.000170438
0.000137218
0.000175592
0.00014362
0.000137144
0.000175573
0.000170505
0.000159936
0.000146889
0.000103396
0.000122354
0.000122416
0.000146926
0.0001599
0.000160058
0.000122482
0.000103393
0.000147051
0.000122422
0.000147014
0.000160092
0.00017031
0.000143596
0.000137051
0.000175337
0.000137126
0.000175371
0.000170234
0.000170395
0.000175651
0.000137221
0.000143606
0.000175517
0.000137123
0.000170554
0.000159976
0.00014686
0.000103387
0.00012234
0.00012241
0.000146935
0.000159845
0.000160002
0.000122476
0.000103383
0.000147059
0.000122407
0.000160139
0.000146985
0.000170336
0.000143602
0.00017529
0.000137031
0.000175421
0.000137128
0.000170205
0.0001707
0.000137236
0.000175791
0.00014381
0.000170639
0.00013731
0.000175809
0.000160373
0.000147292
0.000103474
0.000122612
0.000147259
0.000122554
0.000160404
0.000160242
0.000122487
0.000147134
0.000103477
0.000147173
0.000160218
0.000122548
0.000170837
0.000143832
0.000137397
0.000176023
0.000137326
0.000176009
0.000170895
0.000170757
0.000175731
0.000137216
0.000143816
0.000170577
0.000175865
0.000137312
0.000160297
0.0001473
0.000103463
0.000122605
0.000122537
0.000147227
0.000160461
0.000160306
0.000122473
0.000147106
0.000103467
0.000160155
0.000122541
0.000147178
0.000170764
0.000143819
0.000176082
0.0001374
0.000175947
0.000137306
0.000170945
0.000170435
0.0001756
0.000137222
0.000143619
0.000175583
0.000137128
0.000170522
0.000159974
0.000146872
0.000103393
0.000122344
0.000146949
0.000122413
0.000159869
0.000160028
0.00012248
0.000103389
0.000147073
0.000146999
0.000122411
0.000160141
0.000170321
0.000143599
0.000175351
0.000137046
0.000175373
0.000137126
0.000170234
0.00017071
0.000137236
0.000175797
0.000143811
0.000170649
0.000137311
0.000175817
0.000160389
0.000147312
0.000103483
0.000122616
0.000160415
0.000147277
0.000122556
0.000160259
0.000122491
0.000147154
0.000103485
0.000160233
0.000147193
0.000122552
0.000170846
0.000143831
0.000137399
0.000176027
0.000170906
0.000137326
0.000176007
0.000170728
0.000175792
0.000137219
0.000143815
0.000170634
0.00017582
0.000137314
0.000160331
0.000147314
0.000103469
0.00012261
0.000122542
0.000147241
0.00016047
0.000160307
0.000122478
0.00014712
0.000103473
0.000160184
0.000122545
0.000147192
0.000170823
0.000143821
0.000176072
0.000137403
0.000175987
0.00013731
0.000170942
0.00013795
0.000180911
0.000161116
0.000161141
0.000161084
0.000161058
0.00013799
0.000138075
0.000181241
0.000161215
0.000161236
0.000161274
0.000138036
0.000161292
0.000170408
0.000175652
0.000137213
0.000143598
0.000175514
0.000137116
0.000170533
0.000159974
0.00014686
0.000103387
0.000122336
0.000146937
0.000122407
0.000159844
0.000160002
0.000122474
0.000103383
0.00014706
0.000146986
0.000122403
0.000160136
0.00017032
0.000143595
0.000175286
0.000137024
0.000175424
0.000137121
0.000170208
0.000170764
0.000175735
0.000137229
0.000143816
0.000170616
0.000175872
0.000137324
0.000160326
0.000147333
0.000103482
0.000122625
0.000160487
0.000147259
0.000122556
0.00016033
0.000122492
0.000147139
0.000103485
0.000160184
0.00014721
0.00012256
0.00017079
0.000143819
0.000176089
0.000137414
0.000170961
0.000175953
0.000137319
0.000170745
0.000175728
0.000137209
0.000143808
0.000170597
0.000175866
0.000137305
0.000160302
0.000147302
0.000103463
0.000122603
0.000122535
0.000147228
0.000160467
0.000160302
0.000122469
0.000147107
0.000103467
0.000160158
0.000122539
0.000147179
0.000170772
0.000143811
0.000176083
0.000137393
0.000175945
0.000137299
0.000170946
0.000138073
0.00018129
0.00016121
0.000161196
0.000138026
0.000161292
0.000161281
0.000160656
0.00014737
0.000122617
0.000103563
0.000122684
0.000160456
0.000147443
0.000171177
0.000144028
0.000137408
0.000176172
0.000137504
0.000170962
0.000176308
0.000160608
0.000147338
0.0001226
0.00010354
0.000160451
0.000122666
0.000147412
0.000171131
0.000144023
0.000137394
0.000176166
0.000170969
0.000137491
0.000176302
0.000160555
0.000147375
0.000122615
0.000103553
0.000122673
0.000160524
0.00014742
0.000171088
0.000144015
0.000137414
0.000176221
0.000137485
0.000171029
0.000176245
0.00016061
0.000147345
0.000122601
0.000103544
0.000160452
0.000122665
0.000147413
0.000171129
0.00014402
0.000176162
0.000137395
0.000170962
0.000176293
0.000137486
0.000171142
0.000144025
0.00017652
0.000137576
0.00017639
0.000137483
0.000171375
0.000160635
0.000147368
0.000122606
0.00010355
0.000147426
0.000160471
0.000122671
0.000171151
0.000144021
0.00017619
0.000137398
0.000176302
0.000170992
0.000137489
0.000160594
0.000122733
0.000103546
0.000147541
0.000147479
0.000122667
0.000160796
0.000171135
0.000144015
0.000176512
0.000137565
0.000176375
0.000137473
0.000171345
0.000160631
0.000147346
0.000122598
0.000103544
0.000147416
0.000160442
0.000122665
0.000171143
0.000144012
0.00017616
0.000137388
0.000176295
0.000170955
0.000137479
0.000160574
0.000122726
0.00010354
0.000147527
0.000147468
0.000122659
0.000160778
0.000138643
0.000136639
0.000138658
5.00141e-05
9.38202e-05
2.36114e-05
7.37214e-05
7.37301e-05
2.36127e-05
9.38212e-05
5.00151e-05
2.01024e-05
5.0013e-05
7.60449e-05
7.5999e-05
2.01044e-05
2.36093e-05
9.72729e-05
0.000112652
7.36902e-05
4.79324e-05
0.000112501
4.79225e-05
9.73346e-05
9.72645e-05
0.000112665
7.37029e-05
4.79394e-05
4.79379e-05
0.000112522
9.73171e-05
7.882e-05
2.14899e-05
2.14928e-05
2.14878e-05
2.14907e-05
7.88439e-05
2.36106e-05
2.01033e-05
5.00135e-05
7.60525e-05
7.60079e-05
2.01054e-05
0.000119519
0.00013666
0.000129878
0.00012986
0.000129686
0.000129709
0.000119617
0.000128566
0.000122132
9.36844e-05
0.000107743
0.000107536
0.000122007
0.000128599
0.000128572
0.000122173
9.36961e-05
0.000107733
0.000122036
0.000107552
0.000128607
0.000123073
0.000139444
0.000139455
0.000137107
0.000125872
0.000142568
0.000142578
0.000139571
0.00012883
0.000145655
0.000145668
0.000141959
0.000131925
0.0001487
0.000148712
0.000144288
0.000135137
0.000151695
0.000151706
0.000146563
0.000138447
0.000154636
0.000154645
0.000148775
0.000141835
0.000157515
0.000157522
0.000151031
0.000145282
0.00016033
0.000160339
0.000153092
0.000148773
0.000163081
0.00016309
0.000155132
0.000152291
0.000165766
0.000165775
0.000157136
0.000155823
0.000168383
0.000168392
0.000159016
0.000159355
0.000170931
0.00017094
0.000160907
0.000162874
0.00017341
0.000173419
0.000162687
0.000166369
0.000175817
0.000175826
0.000164443
0.000169829
0.00017815
0.00017816
0.00016611
0.000173247
0.000180409
0.000180418
0.000167716
0.000176612
0.000182593
0.000182602
0.000169275
0.000179917
0.000184699
0.000184709
0.000170784
0.000183155
0.00018673
0.00018674
0.000172214
0.000186319
0.000188683
0.000188692
0.000173601
0.000189402
0.000190558
0.000190567
0.000174926
0.0001924
0.000192354
0.000192363
0.000176206
0.000195307
0.000194072
0.000194081
0.000177429
0.00019812
0.000195712
0.000195719
0.000178517