/*--------------------------------*- C++ -*----------------------------------*\
| =========                 |                                                 |
| \\      /  F ield         | OpenFOAM: The Open Source CFD Toolbox           |
|  \\    /   O peration     | Version:  2312                                  |
|   \\  /    A nd           | Website:  www.openfoam.com                      |
|    \\/     M anipulation  |                                                 |
\*---------------------------------------------------------------------------*/
FoamFile
{
    version     2.0;
    format      ascii;
    arch        "LSB;label=32;scalar=64";
    class       volVectorField;
    location    "800";
    object      U;
}
// * * * * * * * * * * * * * * * * * * * * * * * * * * * * * * * * * * * * * //

dimensions      [0 1 -1 0 0 0 0];

internalField   nonuniform List<vector> 
43496
(
(-1.66096e-05 -2.65083e-07 0.0914271)
(-5.84978e-06 3.36352e-06 0.0716035)
(-6.11395e-06 1.13205e-05 0.107488)
(-7.77689e-06 2.04186e-05 0.0930676)
(-2.73018e-05 -6.66111e-07 0.0985808)
(-1.44093e-05 -2.58852e-06 0.109908)
(-1.66025e-05 3.26183e-07 0.091427)
(-1.20237e-05 1.23348e-06 0.0822861)
(-2.72939e-05 7.29716e-07 0.0985807)
(-1.12734e-05 6.11928e-06 0.107486)
(-1.4394e-05 2.61195e-06 0.109907)
(-2.03934e-05 7.79654e-06 0.0930663)
(-4.16088e-05 4.16261e-05 0.104317)
(-9.8666e-06 6.93404e-06 0.087605)
(-6.92789e-06 9.87568e-06 0.0876077)
(-3.34785e-06 5.87589e-06 0.0716039)
(-1.20595e-06 1.20474e-05 0.0822865)
(4.26195e-06 -6.9582e-07 0.0768853)
(5.01463e-06 -2.37004e-07 0.0913834)
(-1.60057e-05 -1.11822e-06 0.0899497)
(-7.44195e-06 1.59088e-07 0.0787027)
(5.53071e-06 -5.33372e-07 0.0899001)
(3.8719e-06 -1.71027e-07 0.0786622)
(-7.43799e-06 5.52721e-07 0.0769321)
(4.91982e-06 -8.78559e-07 0.0684137)
(-1.23067e-05 -1.36901e-06 0.0858855)
(5.86499e-06 -7.45318e-07 0.0858294)
(-6.0844e-06 1.83555e-07 0.0684745)
(4.33649e-06 -2.56716e-06 0.0715505)
(4.25918e-06 7.24035e-07 0.0768848)
(5.01564e-06 2.61776e-07 0.0913833)
(-7.43709e-06 -1.04622e-07 0.0787025)
(-1.59841e-05 1.17887e-06 0.0899493)
(3.87418e-06 2.002e-07 0.0786621)
(5.51419e-06 5.60621e-07 0.0899002)
(-7.43699e-06 -4.88763e-07 0.0769314)
(4.91439e-06 9.16799e-07 0.0684156)
(-1.22698e-05 1.42031e-06 0.0858855)
(7.17587e-06 -6.18795e-07 0.0822354)
(5.86262e-06 7.84309e-07 0.0858302)
(-6.05815e-06 -1.22295e-07 0.0684762)
(3.13394e-06 -3.12526e-06 0.0836176)
(-3.59381e-06 5.12125e-06 0.0683749)
(-5.1406e-06 3.57908e-06 0.0683807)
(2.64584e-06 -4.06284e-06 0.0683194)
(4.06799e-06 -2.64495e-06 0.0683249)
(-7.24162e-06 7.22224e-06 0.0836638)
(7.83259e-06 -3.80331e-06 0.0916729)
(-8.06419e-06 4.01857e-06 0.0816083)
(3.58719e-06 -3.4658e-06 0.0875568)
(-2.3985e-05 1.42167e-05 0.0963244)
(3.8696e-06 -3.00529e-06 0.0815578)
(1.10549e-05 -5.52936e-06 0.0962764)
(-1.6769e-05 1.02682e-05 0.09172)
(3.80634e-06 -7.82147e-06 0.0916797)
(-4.03173e-06 8.05119e-06 0.0816145)
(3.45571e-06 -3.58825e-06 0.0875584)
(-1.42307e-05 2.39824e-05 0.0963281)
(5.53171e-06 -1.10153e-05 0.0962794)
(3.00242e-06 -3.86298e-06 0.081563)
(-1.02905e-05 1.67703e-05 0.0917271)
(2.55872e-06 -4.34794e-06 0.0715504)
(6.1643e-07 -7.1784e-06 0.0822357)
(-1.16396e-05 -3.47054e-06 0.115012)
(-1.00248e-05 1.00593e-05 0.112469)
(-1.1629e-05 3.50432e-06 0.11501)
(3.10126e-06 -8.7787e-06 0.0930117)
(-1.16672e-05 4.96166e-05 0.0995931)
(3.80304e-06 -3.18425e-05 0.0995327)
(2.74061e-05 -1.18156e-06 0.102871)
(8.05633e-06 -4.11954e-07 0.0985246)
(-2.72142e-05 -2.51285e-06 0.0976283)
(-5.22864e-05 -9.93862e-07 0.10362)
(8.98548e-06 -8.47722e-07 0.0975628)
(2.59006e-05 -8.61216e-07 0.103526)
(-5.29946e-05 -3.55969e-06 0.102987)
(3.12565e-05 3.97649e-07 0.101328)
(-2.4696e-05 -5.05286e-06 0.0956754)
(1.03723e-05 6.66534e-08 0.0956079)
(-5.24171e-05 -7.68839e-06 0.101433)
(2.74004e-05 1.19199e-06 0.102871)
(8.05917e-06 4.21108e-07 0.0985246)
(-5.22802e-05 1.0564e-06 0.10362)
(-2.71971e-05 2.5744e-06 0.0976277)
(2.59024e-05 8.65781e-07 0.103526)
(8.97641e-06 8.63327e-07 0.0975631)
(-5.29875e-05 3.61751e-06 0.102987)
(3.12818e-05 -3.80235e-07 0.101328)
(-2.46572e-05 5.0943e-06 0.0956747)
(8.78255e-06 -3.10643e-06 0.0930107)
(-4.96047e-05 1.16769e-05 0.0995909)
(1.03758e-05 -2.38823e-08 0.0956082)
(-5.23917e-05 7.72439e-06 0.101431)
(3.18763e-05 -3.81459e-06 0.0995308)
(1.01452e-05 -1.01633e-05 0.0975423)
(2.38243e-05 -2.38344e-05 0.104202)
(-2.63337e-05 4.13732e-05 0.101507)
(-4.13826e-05 2.63465e-05 0.10151)
(2.74464e-05 -1.10323e-05 0.101443)
(1.10506e-05 -2.74594e-05 0.10144)
(-2.21793e-05 2.21838e-05 0.0975978)
(-9.60111e-06 -9.57932e-06 0.112516)
(1.11327e-05 -5.99092e-06 0.107501)
(-5.96524e-06 1.11373e-05 0.1075)
(-2.39775e-05 -2.39768e-05 0.104199)
(-9.96931e-06 -9.94747e-06 0.112479)
(1.12756e-05 -6.1174e-06 0.107492)
(-6.09822e-06 1.12939e-05 0.107491)
(-2.38467e-05 -2.38434e-05 0.104201)
(2.39605e-05 2.39966e-05 0.104199)
(-4.16927e-05 -4.16609e-05 0.104316)
(-5.96443e-06 -1.10926e-05 0.107499)
(5.94272e-06 -1.11163e-05 0.107499)
(-6.06362e-06 -1.12095e-05 0.107492)
(6.03431e-06 -1.12419e-05 0.107491)
(-2.40032e-05 2.39477e-05 0.104199)
(4.16673e-05 -4.16908e-05 0.104317)
(-1.11403e-05 -5.95672e-06 0.1075)
(-1.10929e-05 5.96421e-06 0.107497)
(-1.12574e-05 -6.05002e-06 0.107493)
(-1.1209e-05 6.06144e-06 0.10749)
(1.11221e-05 5.94948e-06 0.107498)
(1.12505e-05 -6.08794e-06 0.107494)
(1.122e-05 6.05496e-06 0.107492)
(2.39808e-05 -2.39929e-05 0.104198)
(-4.16592e-05 4.16808e-05 0.104316)
(5.98216e-06 1.11317e-05 0.1075)
(-6.06099e-06 1.12546e-05 0.107493)
(6.08051e-06 1.12507e-05 0.107493)
(4.16698e-05 4.16711e-05 0.104316)
(2.38363e-05 2.38731e-05 0.104202)
(-6.09136e-06 -1.12502e-05 0.10749)
(6.06785e-06 -1.12562e-05 0.10749)
(-2.38872e-05 2.38331e-05 0.104202)
(-1.12968e-05 -6.08389e-06 0.107491)
(-1.12458e-05 6.09385e-06 0.107488)
(1.12834e-05 6.08191e-06 0.107488)
(2.38472e-05 -2.38579e-05 0.104201)
(6.10708e-06 1.1286e-05 0.10749)
(-3.3258e-07 -1.66438e-05 0.0913959)
(6.36645e-07 7.17235e-06 0.0821925)
(-1.1995e-06 -1.21025e-05 0.0822523)
(-2.91208e-07 5.03785e-06 0.0913444)
(-2.62017e-06 4.25977e-06 0.0715101)
(3.22058e-06 -5.90212e-06 0.0715754)
(-1.66508e-05 -2.66769e-07 0.0913959)
(7.13912e-06 6.92476e-07 0.0821933)
(-1.21216e-05 -1.16286e-06 0.0822529)
(5.0343e-06 -2.41788e-07 0.0913443)
(9.59415e-06 -9.591e-06 0.112516)
(-9.58345e-06 9.60983e-06 0.112515)
(9.60997e-06 9.59982e-06 0.112515)
(-9.88089e-06 -9.85602e-06 0.112488)
(9.87708e-06 -9.87691e-06 0.112488)
(-9.85668e-06 9.88853e-06 0.112487)
(9.89326e-06 9.88637e-06 0.112488)
(2.72588e-05 -6.90996e-07 0.0985604)
(-8.7821e-06 3.13547e-06 0.0929754)
(1.39477e-05 -2.51399e-06 0.109933)
(1.11717e-05 -6.02063e-06 0.107498)
(2.04531e-05 -7.81699e-06 0.0930397)
(1.4054e-05 -2.5356e-06 0.109927)
(-8.12799e-06 -4.54968e-07 0.0984987)
(4.30844e-06 -2.64394e-06 0.0715122)
(-5.90705e-06 3.31195e-06 0.0715731)
(-7.16205e-07 2.72609e-05 0.0985599)
(-2.49397e-06 1.39517e-05 0.109931)
(3.14731e-06 -8.77578e-06 0.0929754)
(-5.99534e-06 1.11783e-05 0.107497)
(-2.51135e-06 1.40491e-05 0.109926)
(-7.77874e-06 2.04638e-05 0.0930388)
(-4.00577e-07 -8.14579e-06 0.0984983)
(-3.54823e-06 -3.52368e-06 0.0875182)
(-3.52381e-06 -3.54214e-06 0.0875172)
(4.17338e-05 4.17283e-05 0.104315)
(9.9585e-06 6.91315e-06 0.0875759)
(6.93297e-06 9.95383e-06 0.0875744)
(5.99531e-07 7.2017e-06 0.0822263)
(-2.89754e-07 5.01977e-06 0.0913755)
(-2.55992e-06 4.28356e-06 0.0715408)
(7.15899e-06 6.49605e-07 0.0822271)
(5.01453e-06 -2.37573e-07 0.0913755)
(9.9671e-06 -9.96655e-06 0.11248)
(-9.9514e-06 9.97809e-06 0.112478)
(9.95542e-06 9.97594e-06 0.112478)
(2.7254e-05 -6.81706e-07 0.0985813)
(-8.78403e-06 3.0951e-06 0.0930044)
(1.43266e-05 -2.61066e-06 0.109913)
(-8.02927e-06 -4.51788e-07 0.0985197)
(1.44165e-05 -2.62335e-06 0.109908)
(4.33084e-06 -2.5819e-06 0.0715429)
(-7.16815e-07 2.72588e-05 0.0985809)
(-2.57997e-06 1.43356e-05 0.109912)
(3.10932e-06 -8.77399e-06 0.0930044)
(-4.04255e-07 -8.04459e-06 0.0985194)
(-2.60003e-06 1.44112e-05 0.109907)
(-3.58469e-06 -3.48511e-06 0.0875502)
(-3.48305e-06 -3.57322e-06 0.0875491)
(4.16531e-05 4.16065e-05 0.104318)
(9.88338e-06 6.93043e-06 0.0876078)
(6.95247e-06 9.88731e-06 0.0876062)
(2.60253e-06 4.34989e-06 0.0715115)
(-3.30944e-06 -5.93307e-06 0.0715734)
(4.30797e-06 2.65743e-06 0.0715116)
(-5.93378e-06 -3.28724e-06 0.0715731)
(3.47629e-06 3.55378e-06 0.0875178)
(3.54575e-06 3.53294e-06 0.0875167)
(-4.17496e-05 -4.17183e-05 0.104315)
(-6.91621e-06 -9.92817e-06 0.0875764)
(-9.98238e-06 -6.90525e-06 0.0875743)
(-3.33436e-06 -5.90504e-06 0.0715887)
(2.57164e-06 4.36063e-06 0.0715269)
(-5.90558e-06 -3.31296e-06 0.0715883)
(4.31866e-06 2.62577e-06 0.071527)
(2.38871e-05 2.39225e-05 0.1042)
(-6.92464e-06 -9.89112e-06 0.0875923)
(-9.94704e-06 -6.91444e-06 0.0875902)
(3.45512e-06 3.5717e-06 0.0875338)
(3.56363e-06 3.51107e-06 0.0875327)
(2.59301e-07 -1.66503e-05 0.091396)
(-6.59757e-07 7.11985e-06 0.0821922)
(1.11047e-06 -1.21132e-05 0.0822535)
(2.19375e-07 5.03509e-06 0.0913445)
(-7.29731e-07 -2.72906e-05 0.0985597)
(3.12625e-06 8.79621e-06 0.0929743)
(-2.51271e-06 -1.39285e-05 0.109932)
(-5.99893e-06 -1.11327e-05 0.107496)
(-7.79748e-06 -2.04401e-05 0.0930384)
(-2.53315e-06 -1.40287e-05 0.109927)
(-4.55821e-07 8.17024e-06 0.0984982)
(6.59365e-07 -2.73012e-05 0.0985599)
(-3.15929e-06 8.76851e-06 0.092974)
(2.48778e-06 -1.39363e-05 0.109933)
(5.96708e-06 -1.11603e-05 0.107496)
(7.71732e-06 -2.04619e-05 0.093039)
(2.50799e-06 -1.40356e-05 0.109927)
(3.93478e-07 8.16979e-06 0.0984984)
(-2.88805e-07 5.02656e-06 0.0913599)
(-1.22015e-06 -1.20829e-05 0.0822692)
(6.17202e-07 7.18407e-06 0.0822095)
(-3.32158e-07 -1.66258e-05 0.0914114)
(2.17792e-07 5.02355e-06 0.0913601)
(1.12848e-06 -1.20828e-05 0.0822703)
(-6.38174e-07 7.12921e-06 0.0822091)
(2.58916e-07 -1.66334e-05 0.0914115)
(-4.55477e-07 8.11822e-06 0.0985087)
(-6.03137e-06 -1.11768e-05 0.107494)
(-7.80007e-06 -2.04172e-05 0.0930528)
(-2.57588e-06 -1.42183e-05 0.109917)
(3.10678e-06 8.79602e-06 0.0929887)
(-2.55569e-06 -1.41289e-05 0.109922)
(-7.31985e-07 -2.72945e-05 0.0985701)
(3.91983e-07 8.11787e-06 0.0985089)
(6.00781e-06 -1.11961e-05 0.107494)
(7.72121e-06 -2.04384e-05 0.0930534)
(2.54665e-06 -1.42255e-05 0.109917)
(-3.141e-06 8.76693e-06 0.0929885)
(2.53292e-06 -1.41366e-05 0.109923)
(6.59606e-07 -2.73057e-05 0.0985703)
(-3.54778e-06 3.5083e-06 0.0875163)
(-3.56811e-06 3.49036e-06 0.0875186)
(4.17243e-05 -4.1746e-05 0.104316)
(6.87347e-06 -9.95142e-06 0.0875755)
(9.94808e-06 -6.95826e-06 0.0875766)
(-4.32546e-06 2.6236e-06 0.071512)
(5.90884e-06 -3.33975e-06 0.071574)
(3.24721e-06 -5.87347e-06 0.0715907)
(-2.58854e-06 4.27078e-06 0.0715255)
(-2.39351e-05 2.3879e-05 0.1042)
(6.88385e-06 -9.91502e-06 0.0875914)
(9.90859e-06 -6.96565e-06 0.0875925)
(-3.52551e-06 3.52632e-06 0.0875322)
(-3.58503e-06 3.46639e-06 0.0875346)
(5.87918e-06 -3.36383e-06 0.0715893)
(-4.33503e-06 2.59007e-06 0.0715273)
(-2.73045e-05 -6.6603e-07 0.0985598)
(8.77651e-06 3.17937e-06 0.0929748)
(-1.39446e-05 -2.4924e-06 0.109932)
(-1.11816e-05 -5.98633e-06 0.107498)
(-2.04904e-05 -7.77351e-06 0.0930384)
(-1.40444e-05 -2.5108e-06 0.109927)
(8.16811e-06 -4.16468e-07 0.0984981)
(-1.66448e-05 3.32097e-07 0.0913958)
(7.15109e-06 -6.64636e-07 0.0821932)
(-1.20901e-05 1.19452e-06 0.0822525)
(5.03622e-06 2.62176e-07 0.0913443)
(-2.72968e-05 7.28838e-07 0.0985596)
(-1.3932e-05 2.50865e-06 0.109931)
(8.77133e-06 -3.15258e-06 0.0929745)
(-1.11335e-05 5.99744e-06 0.107495)
(-1.40302e-05 2.52994e-06 0.109926)
(-2.04426e-05 7.79063e-06 0.0930374)
(8.17199e-06 4.25122e-07 0.0984981)
(5.02318e-06 -2.38824e-07 0.0913599)
(-1.20876e-05 -1.17948e-06 0.0822698)
(7.15044e-06 6.71524e-07 0.0822102)
(-1.66325e-05 -2.66284e-07 0.0914115)
(8.11436e-06 -4.1501e-07 0.0985086)
(-1.12247e-05 -6.02347e-06 0.107496)
(-2.04667e-05 -7.77784e-06 0.0930528)
(-1.42345e-05 -2.55137e-06 0.109917)
(8.77502e-06 3.16072e-06 0.0929893)
(-1.41466e-05 -2.53502e-06 0.109922)
(-2.73067e-05 -6.67279e-07 0.0985702)
(5.02445e-06 2.62924e-07 0.0913599)
(-1.20619e-05 1.21512e-06 0.0822693)
(7.16178e-06 -6.4705e-07 0.0822101)
(-1.66271e-05 3.29546e-07 0.0914114)
(8.11842e-06 4.25191e-07 0.0985086)
(-1.11776e-05 6.03392e-06 0.107493)
(-1.42195e-05 2.57246e-06 0.109916)
(-2.0422e-05 7.7986e-06 0.0930518)
(-1.4134e-05 2.55241e-06 0.109921)
(8.77093e-06 -3.13439e-06 0.092989)
(-2.72982e-05 7.26857e-07 0.0985701)
(1.66028e-05 -2.61731e-07 0.0913969)
(-7.1396e-06 6.87942e-07 0.0821932)
(1.20855e-05 -1.23924e-06 0.0822536)
(-4.99559e-06 -3.21245e-07 0.091344)
(2.72737e-05 7.03359e-07 0.0985601)
(1.39504e-05 2.49181e-06 0.109932)
(-8.75789e-06 -3.16917e-06 0.092975)
(1.11565e-05 5.99271e-06 0.107496)
(1.40492e-05 2.52045e-06 0.109927)
(2.04448e-05 7.77395e-06 0.0930388)
(-8.1446e-06 3.97319e-07 0.0984987)
(1.66327e-05 3.19032e-07 0.0913962)
(-7.13968e-06 -6.79501e-07 0.0821934)
(1.21062e-05 1.17517e-06 0.0822531)
(-5.02162e-06 2.06314e-07 0.0913445)
(-8.07759e-06 -4.52572e-07 0.0985091)
(1.12129e-05 -6.05818e-06 0.107497)
(2.04257e-05 -7.81804e-06 0.0930541)
(1.42437e-05 -2.57568e-06 0.109918)
(-8.7791e-06 3.11483e-06 0.0929899)
(1.41481e-05 -2.55952e-06 0.109923)
(2.72598e-05 -6.90637e-07 0.0985708)
(-4.98356e-06 -3.20728e-07 0.0913596)
(1.20544e-05 -1.25609e-06 0.0822704)
(-7.14794e-06 6.64903e-07 0.0822101)
(1.65813e-05 -2.59871e-07 0.0914124)
(-8.09181e-06 4.00354e-07 0.098509)
(1.12118e-05 6.0189e-06 0.107493)
(1.42374e-05 2.56821e-06 0.109917)
(2.04291e-05 7.7742e-06 0.0930532)
(1.41519e-05 2.5291e-06 0.109922)
(-8.75861e-06 -3.15158e-06 0.0929895)
(2.72783e-05 7.05586e-07 0.0985705)
(-5.01208e-06 2.05301e-07 0.0913601)
(1.208e-05 1.19202e-06 0.0822699)
(-7.15432e-06 -6.57476e-07 0.0822103)
(1.66124e-05 3.19944e-07 0.0914117)
(3.53659e-06 -3.51955e-06 0.0875168)
(3.49982e-06 -3.53138e-06 0.0875184)
(-4.172e-05 4.17403e-05 0.104315)
(-9.94475e-06 6.91488e-06 0.0875732)
(-6.90895e-06 9.94154e-06 0.087576)
(2.63223e-06 -4.32112e-06 0.0715121)
(-3.30189e-06 5.92414e-06 0.0715735)
(-5.87913e-06 3.33967e-06 0.0715883)
(4.31906e-06 -2.61268e-06 0.0715276)
(2.39047e-05 -2.39162e-05 0.1042)
(-9.90658e-06 6.92842e-06 0.0875891)
(-6.92238e-06 9.91087e-06 0.0875918)
(3.55472e-06 -3.49718e-06 0.0875328)
(3.47971e-06 -3.5517e-06 0.0875344)
(-3.32609e-06 5.89557e-06 0.0715888)
(2.60113e-06 -4.32925e-06 0.0715275)
(6.91168e-07 2.725e-05 0.0985602)
(2.50871e-06 1.3949e-05 0.109932)
(-3.16548e-06 -8.77323e-06 0.0929753)
(6.01685e-06 1.11792e-05 0.107497)
(2.5352e-06 1.40484e-05 0.109926)
(7.79771e-06 2.0469e-05 0.0930388)
(4.30376e-07 -8.1338e-06 0.0984985)
(-3.4454e-07 1.66005e-05 0.0913965)
(6.6671e-07 -7.14518e-06 0.0821935)
(-1.17698e-06 1.21066e-05 0.0822529)
(-2.06867e-07 -5.00846e-06 0.0913438)
(2.85783e-07 1.65787e-05 0.0913971)
(-6.89646e-07 -7.13969e-06 0.0821939)
(1.19504e-06 1.21069e-05 0.0822536)
(2.62649e-07 -4.98579e-06 0.0913434)
(-4.02633e-07 -8.08989e-06 0.0985088)
(-6.03737e-06 1.12228e-05 0.107495)
(-2.5551e-06 1.42384e-05 0.109917)
(-7.78185e-06 2.04429e-05 0.0930532)
(-2.53689e-06 1.41545e-05 0.109921)
(3.12925e-06 -8.77133e-06 0.0929899)
(-7.18156e-07 2.72634e-05 0.0985703)
(4.30175e-07 -8.07839e-06 0.0985089)
(6.05015e-06 1.12184e-05 0.107495)
(2.58236e-06 1.424e-05 0.109916)
(7.79835e-06 2.04472e-05 0.0930532)
(2.55056e-06 1.4149e-05 0.109922)
(-3.14707e-06 -8.76959e-06 0.0929897)
(6.89748e-07 2.72531e-05 0.0985706)
(-2.06728e-07 -4.9947e-06 0.0913593)
(-1.19067e-06 1.2076e-05 0.0822697)
(6.44674e-07 -7.15312e-06 0.0822104)
(-3.46075e-07 1.65835e-05 0.091412)
(2.61503e-07 -4.97243e-06 0.091359)
(1.21201e-06 1.20775e-05 0.0822704)
(-6.70133e-07 -7.15033e-06 0.0822108)
(2.84022e-07 1.65612e-05 0.0914126)
(-4.31691e-06 -2.64156e-06 0.0715124)
(5.92622e-06 3.29819e-06 0.0715739)
(-2.65307e-06 -4.31019e-06 0.0715125)
(3.31898e-06 5.91739e-06 0.0715738)
(-2.39042e-05 -2.38989e-05 0.1042)
(9.92631e-06 6.92529e-06 0.0875918)
(6.94427e-06 9.91886e-06 0.0875903)
(-3.56463e-06 -3.50175e-06 0.0875343)
(-3.50247e-06 -3.55826e-06 0.0875332)
(5.90099e-06 3.32249e-06 0.0715892)
(-4.32803e-06 -2.60899e-06 0.0715278)
(3.34442e-06 5.89039e-06 0.0715891)
(-2.62281e-06 -4.32081e-06 0.0715279)
(2.54336e-06 4.37331e-06 0.0715421)
(4.33094e-06 2.59651e-06 0.0715423)
(3.43937e-06 3.59436e-06 0.0875497)
(3.5874e-06 3.49176e-06 0.0875487)
(-6.19346e-07 7.14655e-06 0.0822259)
(2.17671e-07 5.01547e-06 0.0913757)
(3.08972e-06 8.80737e-06 0.0930033)
(-2.59414e-06 -1.43103e-05 0.109913)
(-4.56502e-07 8.07784e-06 0.0985193)
(-3.12267e-06 8.77208e-06 0.093003)
(2.57852e-06 -1.43169e-05 0.109913)
(3.90292e-07 8.07904e-06 0.0985195)
(-3.50836e-06 3.54908e-06 0.0875482)
(-3.60552e-06 3.44578e-06 0.0875506)
(-4.34691e-06 2.55903e-06 0.0715425)
(8.78071e-06 3.14247e-06 0.0930038)
(-1.43291e-05 -2.57224e-06 0.109913)
(8.07272e-06 -4.12948e-07 0.0985192)
(7.17016e-06 -6.27908e-07 0.082227)
(5.01591e-06 2.62737e-07 0.0913755)
(-1.43161e-05 2.59396e-06 0.109912)
(8.77758e-06 -3.11466e-06 0.0930034)
(8.07704e-06 4.24723e-07 0.0985192)
(1.65566e-05 -2.55531e-07 0.0914279)
(-7.16452e-06 6.46266e-07 0.0822269)
(-4.97009e-06 -3.20518e-07 0.0913752)
(2.72695e-05 7.02079e-07 0.0985811)
(1.4334e-05 2.55718e-06 0.109912)
(-8.7634e-06 -3.12969e-06 0.093004)
(1.12611e-05 6.10664e-06 0.107488)
(-8.0503e-06 4.01058e-07 0.0985196)
(1.4411e-05 2.61179e-06 0.109907)
(2.04137e-05 7.77935e-06 0.0930677)
(1.65837e-05 3.19912e-07 0.0914273)
(-7.17054e-06 -6.36945e-07 0.0822271)
(-5.00115e-06 2.06367e-07 0.0913757)
(1.20438e-05 1.20737e-06 0.0822866)
(3.57585e-06 -3.47539e-06 0.0875488)
(3.46268e-06 -3.57773e-06 0.0875505)
(2.57243e-06 -4.34078e-06 0.0715428)
(6.88321e-07 2.72515e-05 0.0985812)
(2.59196e-06 1.43239e-05 0.109912)
(-3.12802e-06 -8.77394e-06 0.0930042)
(6.12338e-06 1.1303e-05 0.107488)
(4.29624e-07 -8.03277e-06 0.0985195)
(2.62167e-06 1.4413e-05 0.109907)
(7.79813e-06 2.0425e-05 0.0930677)
(-3.42457e-07 1.65591e-05 0.0914276)
(6.25748e-07 -7.16605e-06 0.0822273)
(-2.08405e-07 -4.98273e-06 0.091375)
(2.81456e-07 1.65379e-05 0.0914282)
(-6.48615e-07 -7.15989e-06 0.0822276)
(2.59613e-07 -4.96201e-06 0.0913746)
(1.22474e-06 1.20432e-05 0.0822871)
(-4.34387e-06 -2.5803e-06 0.071543)
(5.87376e-06 3.34537e-06 0.0716043)
(-2.59368e-06 -4.33119e-06 0.0715431)
(3.36701e-06 5.86104e-06 0.0716042)
(-7.20134e-07 4.27188e-06 0.0768514)
(9.99223e-08 -7.46514e-06 0.0786686)
(-1.16606e-06 -1.6034e-05 0.0899172)
(-2.89799e-07 5.03117e-06 0.0913521)
(-2.18972e-07 3.87277e-06 0.0786281)
(-5.73187e-07 5.54685e-06 0.0898675)
(5.1964e-07 -7.45908e-06 0.0768983)
(1.91952e-07 -6.11702e-06 0.0684363)
(-1.19029e-06 -1.21165e-05 0.0822439)
(-7.6365e-07 5.85522e-06 0.0857866)
(-1.38648e-06 -1.23689e-05 0.0858429)
(-8.70894e-07 4.93046e-06 0.0683752)
(-8.858e-07 4.9298e-06 0.0683828)
(-1.39352e-06 -1.23526e-05 0.0858514)
(6.2643e-07 7.17685e-06 0.082201)
(-7.73607e-07 5.86072e-06 0.0857951)
(1.80068e-07 -6.10884e-06 0.0684438)
(5.27149e-07 -7.45842e-06 0.0768899)
(-3.34167e-07 -1.66547e-05 0.0913882)
(-2.18415e-07 3.87713e-06 0.0786195)
(-5.67263e-07 5.55579e-06 0.0898594)
(9.9491e-08 -7.46724e-06 0.0786601)
(-1.16332e-06 -1.60434e-05 0.0899092)
(-7.1231e-07 4.27051e-06 0.076843)
(3.20578e-06 -5.91466e-06 0.0715678)
(-2.60346e-06 4.26527e-06 0.0715178)
(4.27511e-06 -6.62293e-07 0.0768517)
(-1.60474e-05 -1.10355e-06 0.0899175)
(-7.46723e-06 1.60527e-07 0.0786688)
(5.02784e-06 -2.40381e-07 0.0913521)
(5.54589e-06 -5.13667e-07 0.0898676)
(3.87069e-06 -1.73513e-07 0.0786282)
(-7.47437e-06 5.78371e-07 0.0768987)
(-6.13012e-06 2.46905e-07 0.068437)
(-1.21357e-05 -1.15355e-06 0.0822445)
(5.83067e-06 -6.97612e-07 0.085787)
(-1.23913e-05 -1.33224e-06 0.0858433)
(4.91629e-06 -8.00716e-07 0.0683759)
(4.91682e-06 -8.16437e-07 0.0683835)
(-1.23751e-05 -1.3394e-06 0.0858518)
(7.14327e-06 6.81323e-07 0.0822017)
(5.83734e-06 -7.07447e-07 0.0857955)
(-6.12166e-06 2.34059e-07 0.0684445)
(-7.4798e-06 5.84991e-07 0.0768904)
(-1.66619e-05 -2.67958e-07 0.0913882)
(5.55346e-06 -5.08617e-07 0.0898596)
(3.87269e-06 -1.73869e-07 0.0786196)
(-1.60574e-05 -1.10057e-06 0.0899094)
(-7.47711e-06 1.60306e-07 0.0786603)
(4.278e-06 -6.54177e-07 0.0768433)
(-5.92067e-06 3.29729e-06 0.0715654)
(4.3136e-06 -2.62818e-06 0.0715199)
(-3.11293e-06 -3.13113e-06 0.0835876)
(3.61226e-06 5.14934e-06 0.0683541)
(5.15215e-06 3.6132e-06 0.0683478)
(-2.62907e-06 -4.09465e-06 0.0682982)
(-4.07888e-06 -2.64159e-06 0.0682922)
(7.27737e-06 7.2691e-06 0.0836336)
(1.6887e-05 1.03142e-05 0.0916922)
(-1.10167e-05 -5.56807e-06 0.0962497)
(9.97703e-06 6.9103e-06 0.087568)
(-3.81812e-06 -3.0514e-06 0.0815235)
(2.41123e-05 1.42168e-05 0.0962989)
(8.13386e-06 4.00491e-06 0.0815755)
(-7.77589e-06 -3.80782e-06 0.0916443)
(1.03477e-05 1.68882e-05 0.0916855)
(-5.57136e-06 -1.09979e-05 0.0962472)
(6.92691e-06 9.97218e-06 0.0875665)
(-3.0611e-06 -3.84334e-06 0.081519)
(1.42462e-05 2.41032e-05 0.0962963)
(4.03859e-06 8.15926e-06 0.08157)
(-3.80879e-06 -7.79353e-06 0.091638)
(-7.78285e-06 -3.80586e-06 0.0916514)
(8.11842e-06 4.00938e-06 0.0815832)
(-3.55612e-06 -3.51338e-06 0.0875262)
(2.40864e-05 1.42119e-05 0.0963047)
(-1.10195e-05 -5.56037e-06 0.0962556)
(-3.82712e-06 -3.04344e-06 0.0815313)
(1.68614e-05 1.03045e-05 0.0916992)
(-3.80813e-06 -7.79926e-06 0.091645)
(4.03621e-06 8.13452e-06 0.0815778)
(-3.51348e-06 -3.55043e-06 0.0875252)
(1.42445e-05 2.40768e-05 0.0963021)
(-5.5626e-06 -1.09983e-05 0.0962531)
(-3.0526e-06 -3.85188e-06 0.0815268)
(1.03378e-05 1.6863e-05 0.0916925)
(7.28729e-06 7.27824e-06 0.0836261)
(-2.62654e-06 -4.09835e-06 0.0682915)
(-4.08303e-06 -2.63875e-06 0.0682854)
(3.62111e-06 5.1509e-06 0.0683473)
(5.15367e-06 3.61995e-06 0.0683411)
(-3.10932e-06 -3.12854e-06 0.0835801)
(1.40086e-07 -6.08066e-06 0.0684663)
(-8.02591e-07 5.88089e-06 0.0858205)
(-1.22258e-06 -1.20561e-05 0.0822775)
(-9.33315e-07 4.93001e-06 0.0684055)
(-1.41486e-06 -1.23016e-05 0.0858767)
(4.98776e-07 -7.44994e-06 0.0769234)
(-3.30888e-07 -1.66143e-05 0.0914192)
(-2.17249e-07 3.86635e-06 0.0786536)
(-5.9084e-07 5.53448e-06 0.0898918)
(-7.47026e-07 4.26218e-06 0.0768766)
(1.02281e-07 -7.44191e-06 0.078694)
(-1.17636e-06 -1.60012e-05 0.0899414)
(3.25865e-06 -5.85783e-06 0.0715983)
(-6.09415e-06 1.96274e-07 0.0684671)
(5.85607e-06 -7.37581e-07 0.085821)
(-1.20772e-05 -1.18703e-06 0.0822781)
(4.91801e-06 -8.64051e-07 0.0684062)
(-1.23266e-05 -1.35957e-06 0.0858771)
(-7.45542e-06 5.57309e-07 0.0769238)
(-1.66231e-05 -2.65485e-07 0.0914193)
(5.53189e-06 -5.29623e-07 0.0898919)
(3.86899e-06 -1.71851e-07 0.0786537)
(4.26619e-06 -6.87404e-07 0.0768769)
(-1.60174e-05 -1.11464e-06 0.0899417)
(-7.45215e-06 1.59099e-07 0.0786942)
(-5.86522e-06 3.35112e-06 0.0715959)
(-3.12027e-06 -3.14453e-06 0.0836177)
(3.57795e-06 5.14204e-06 0.0683808)
(5.14323e-06 3.57538e-06 0.0683745)
(-2.62967e-06 -4.0886e-06 0.0683251)
(-4.06275e-06 -2.64504e-06 0.0683191)
(7.23406e-06 7.22966e-06 0.0836637)
(1.67983e-05 1.02863e-05 0.0917203)
(-1.10311e-05 -5.53613e-06 0.0962733)
(-3.85928e-06 -3.02997e-06 0.0815548)
(9.90986e-06 6.93118e-06 0.0875998)
(-7.80971e-06 -3.81142e-06 0.0916725)
(2.40204e-05 1.42311e-05 0.0963224)
(8.07229e-06 4.02635e-06 0.0816065)
(1.03211e-05 1.67997e-05 0.0917136)
(-5.54115e-06 -1.09974e-05 0.0962709)
(-3.02041e-06 -3.86626e-06 0.0815503)
(6.95036e-06 9.90855e-06 0.0875983)
(-3.80449e-06 -7.82472e-06 0.0916661)
(1.4246e-05 2.40283e-05 0.0963197)
(4.03984e-06 8.07025e-06 0.0816011)
(7.2487e-06 7.24088e-06 0.0836562)
(-2.63312e-06 -4.08997e-06 0.0683184)
(-4.06667e-06 -2.64941e-06 0.0683124)
(-3.12081e-06 -3.14515e-06 0.0836101)
(3.58835e-06 5.14534e-06 0.0683741)
(5.14926e-06 3.58926e-06 0.0683679)
(-7.81709e-06 -3.81849e-06 0.0916796)
(8.0531e-06 4.02504e-06 0.0816144)
(-3.5967e-06 -3.47425e-06 0.0875582)
(2.39615e-05 1.42212e-05 0.0963283)
(-1.10403e-05 -5.52791e-06 0.0962793)
(-3.86817e-06 -3.02735e-06 0.0815626)
(1.67623e-05 1.02659e-05 0.0917273)
(-3.81025e-06 -7.83091e-06 0.0916732)
(4.05163e-06 8.06586e-06 0.0816089)
(-3.47623e-06 -3.58429e-06 0.0875571)
(1.42452e-05 2.40108e-05 0.0963257)
(-5.5411e-06 -1.09985e-05 0.0962768)
(-3.01147e-06 -3.87061e-06 0.0815581)
(1.0308e-05 1.67665e-05 0.0917206)
(-3.29562e-06 -5.94622e-06 0.0715658)
(2.58681e-06 4.35503e-06 0.0715192)
(-5.94725e-06 -3.27325e-06 0.0715654)
(4.313e-06 2.64106e-06 0.0715193)
(3.1229e-06 3.13957e-06 0.083587)
(-5.15504e-06 -3.61393e-06 0.0683539)
(-3.62841e-06 -5.14801e-06 0.0683474)
(4.07769e-06 2.65e-06 0.0682974)
(2.64282e-06 4.0927e-06 0.0682912)
(-7.29013e-06 -7.27642e-06 0.0836338)
(-1.03257e-05 -1.68544e-05 0.0916924)
(5.55095e-06 1.10241e-05 0.0962495)
(-6.91084e-06 -9.94378e-06 0.0875685)
(3.01133e-06 3.80903e-06 0.0815231)
(-3.99858e-06 -8.08896e-06 0.0815764)
(-1.42272e-05 -2.40652e-05 0.0962988)
(3.78674e-06 7.78705e-06 0.0916438)
(-1.68847e-05 -1.03219e-05 0.0916859)
(1.09751e-05 5.58322e-06 0.0962468)
(-9.99821e-06 -6.8991e-06 0.0875663)
(3.82286e-06 3.04564e-06 0.0815181)
(-8.1552e-06 -3.99749e-06 0.0815703)
(-2.41115e-05 -1.42153e-05 0.0962964)
(7.75861e-06 3.81656e-06 0.0916374)
(3.78513e-06 7.79154e-06 0.0916509)
(-4.00308e-06 -8.07492e-06 0.0815842)
(3.4648e-06 3.562e-06 0.0875258)
(-1.42276e-05 -2.40442e-05 0.0963046)
(3.00195e-06 3.81597e-06 0.081531)
(-1.03189e-05 -1.68336e-05 0.0916994)
(5.54228e-06 1.10235e-05 0.0962553)
(7.76346e-06 3.81503e-06 0.0916444)
(-8.13947e-06 -4.00156e-06 0.0815781)
(3.55425e-06 3.52123e-06 0.0875247)
(-2.40895e-05 -1.42148e-05 0.0963022)
(3.83062e-06 3.03625e-06 0.0815259)
(-1.68628e-05 -1.03142e-05 0.0916929)
(1.09739e-05 5.57395e-06 0.0962527)
(-7.29959e-06 -7.28567e-06 0.0836263)
(4.08109e-06 2.64837e-06 0.0682907)
(2.64113e-06 4.09658e-06 0.0682845)
(-5.1573e-06 -3.62243e-06 0.0683472)
(-3.63685e-06 -5.14979e-06 0.0683407)
(3.12068e-06 3.13745e-06 0.0835795)
(2.5572e-06 4.36627e-06 0.0715345)
(-3.32137e-06 -5.91949e-06 0.0715811)
(4.32443e-06 2.61054e-06 0.0715347)
(-5.92025e-06 -3.3001e-06 0.0715807)
(-7.27955e-06 -7.2664e-06 0.0836413)
(4.07424e-06 2.65268e-06 0.0683042)
(2.64501e-06 4.08876e-06 0.068298)
(3.12601e-06 3.14251e-06 0.0835945)
(-5.1518e-06 -3.60599e-06 0.0683606)
(-3.62078e-06 -5.1459e-06 0.0683542)
(3.78827e-06 7.80716e-06 0.0916649)
(-1.4226e-05 -2.39966e-05 0.0963164)
(3.44424e-06 3.58109e-06 0.0875418)
(-4.00858e-06 -8.04242e-06 0.0815998)
(2.98767e-06 3.83425e-06 0.0815466)
(5.52907e-06 1.10301e-05 0.0962671)
(-1.0297e-05 -1.67857e-05 0.0917134)
(7.77993e-06 3.81659e-06 0.0916585)
(-2.40408e-05 -1.4213e-05 0.0963139)
(3.57347e-06 3.49926e-06 0.0875407)
(-8.11336e-06 -4.0142e-06 0.0815937)
(3.8503e-06 3.02114e-06 0.0815416)
(1.09809e-05 5.55901e-06 0.0962645)
(-1.68145e-05 -1.02956e-05 0.0917069)
(-1.03091e-05 -1.68102e-05 0.0917064)
(2.99387e-06 3.82284e-06 0.0815388)
(5.53594e-06 1.10257e-05 0.0962612)
(-6.92072e-06 -9.91173e-06 0.0875844)
(3.78649e-06 7.79743e-06 0.0916579)
(-4.00697e-06 -8.06051e-06 0.081592)
(-1.42275e-05 -2.40214e-05 0.0963105)
(-1.68395e-05 -1.03061e-05 0.0916999)
(3.84108e-06 3.03007e-06 0.0815338)
(1.09762e-05 5.56681e-06 0.0962586)
(-9.96494e-06 -6.91106e-06 0.0875822)
(7.76902e-06 3.81434e-06 0.0916515)
(-8.12111e-06 -4.00401e-06 0.0815859)
(-2.40662e-05 -1.4214e-05 0.096308)
(3.13069e-06 3.14639e-06 0.0836021)
(-5.14956e-06 -3.59854e-06 0.0683673)
(-3.61066e-06 -5.14354e-06 0.0683609)
(4.07042e-06 2.6544e-06 0.0683109)
(2.64717e-06 4.08476e-06 0.0683047)
(-7.26706e-06 -7.2557e-06 0.0836488)
(6.52344e-07 4.26178e-06 0.0768514)
(-1.68363e-07 -7.46894e-06 0.0786687)
(1.0897e-06 -1.6048e-05 0.0899172)
(2.18802e-07 5.02899e-06 0.0913523)
(1.56385e-07 3.86941e-06 0.0786282)
(5.021e-07 5.5382e-06 0.0898681)
(-5.89184e-07 -7.4714e-06 0.0768981)
(-2.70217e-07 -6.12894e-06 0.0684387)
(1.10028e-06 -1.21243e-05 0.0822451)
(7.20375e-07 5.83517e-06 0.085788)
(1.29274e-06 -1.23966e-05 0.0858437)
(8.12676e-07 4.9124e-06 0.068378)
(8.28898e-07 4.91229e-06 0.0683856)
(1.29983e-06 -1.23829e-05 0.0858521)
(-6.48938e-07 7.12417e-06 0.0822006)
(7.29961e-07 5.84066e-06 0.0857965)
(-2.57486e-07 -6.12138e-06 0.0684463)
(-5.96031e-07 -7.47593e-06 0.0768897)
(2.6147e-07 -1.66609e-05 0.0913883)
(1.55355e-07 3.87426e-06 0.0786196)
(4.96419e-07 5.54706e-06 0.08986)
(-1.68671e-07 -7.47209e-06 0.0786602)
(1.08738e-06 -1.60557e-05 0.0899092)
(6.42747e-07 4.26584e-06 0.0768429)
(5.11773e-07 -7.46375e-06 0.0769067)
(-2.1829e-07 3.87269e-06 0.0786366)
(-5.78456e-07 5.54221e-06 0.0898756)
(-3.33186e-07 -1.66344e-05 0.0914037)
(-7.29279e-07 4.26671e-06 0.0768598)
(1.01592e-07 -7.45634e-06 0.0786771)
(-1.17021e-06 -1.60217e-05 0.0899253)
(-9.17177e-07 4.92885e-06 0.0683979)
(6.08565e-07 7.19113e-06 0.0822179)
(-1.40767e-06 -1.23197e-05 0.0858682)
(1.54075e-07 -6.09019e-06 0.0684589)
(-7.93586e-07 5.87184e-06 0.085812)
(1.66289e-07 -6.09836e-06 0.0684513)
(-7.84147e-07 5.8664e-06 0.0858036)
(-1.20605e-06 -1.20861e-05 0.0822608)
(-9.01747e-07 4.92913e-06 0.0683904)
(-1.40004e-06 -1.23343e-05 0.0858598)
(-7.37538e-07 4.26744e-06 0.0768682)
(-2.89548e-07 5.01966e-06 0.0913677)
(1.01731e-07 -7.44563e-06 0.0786856)
(-1.17443e-06 -1.60127e-05 0.0899334)
(5.06137e-07 -7.45167e-06 0.076915)
(-2.17779e-07 3.86857e-06 0.0786451)
(-5.85018e-07 5.53687e-06 0.0898837)
(-5.81443e-07 -7.46784e-06 0.0769064)
(1.56642e-07 3.86897e-06 0.0786367)
(5.07756e-07 5.53451e-06 0.0898762)
(2.5899e-07 -1.66404e-05 0.0914038)
(6.60843e-07 4.26086e-06 0.0768598)
(-1.68589e-07 -7.46046e-06 0.0786772)
(1.09413e-06 -1.60361e-05 0.0899253)
(8.61925e-07 4.91314e-06 0.0684007)
(-6.29356e-07 7.13638e-06 0.0822175)
(1.31604e-06 -1.23501e-05 0.085869)
(7.50495e-07 5.8535e-06 0.0858134)
(-2.30474e-07 -6.10321e-06 0.0684613)
(-2.43818e-07 -6.11092e-06 0.0684538)
(7.40581e-07 5.84804e-06 0.0858049)
(1.11902e-06 -1.20957e-05 0.0822619)
(8.45369e-07 4.9132e-06 0.0683932)
(1.30805e-06 -1.23631e-05 0.0858606)
(6.71177e-07 4.25546e-06 0.0768682)
(2.18488e-07 5.01701e-06 0.0913679)
(-1.67259e-07 -7.45991e-06 0.0786856)
(1.09766e-06 -1.60272e-05 0.0899334)
(1.58198e-07 3.86802e-06 0.0786452)
(5.14846e-07 5.52862e-06 0.0898843)
(-5.73229e-07 -7.46141e-06 0.0769148)
(-3.14876e-06 3.09307e-06 0.0835873)
(5.12299e-06 -3.64955e-06 0.0683486)