/*--------------------------------*- C++ -*----------------------------------*\
| =========                 |                                                 |
| \\      /  F ield         | OpenFOAM: The Open Source CFD Toolbox           |
|  \\    /   O peration     | Version:  2312                                  |
|   \\  /    A nd           | Website:  www.openfoam.com                      |
|    \\/     M anipulation  |                                                 |
\*---------------------------------------------------------------------------*/
FoamFile
{
    version     2.0;
    format      ascii;
    arch        "LSB;label=32;scalar=64";
    class       volScalarField;
    location    "750";
    object      epsilon;
}
// * * * * * * * * * * * * * * * * * * * * * * * * * * * * * * * * * * * * * //

dimensions      [0 2 -3 0 0 0 0];

internalField   nonuniform List<scalar> 
172512
(
6.63562e-07
1.18844e-06
1.18854e-06
1.42058e-06
1.4184e-06
1.18796e-06
1.18784e-06
1.41836e-06
1.18778e-06
1.18795e-06
1.18785e-06
1.18798e-06
1.41847e-06
1.18795e-06
1.18783e-06
1.41846e-06
1.42053e-06
1.18854e-06
1.18844e-06
1.42046e-06
1.18837e-06
1.18854e-06
1.18857e-06
1.4206e-06
1.18841e-06
9.56612e-06
4.23893e-06
9.5677e-06
6.62218e-07
6.62228e-07
6.62337e-07
6.62323e-07
1.90948e-05
1.18669e-06
3.64746e-06
4.24111e-06
9.57264e-06
4.24064e-06
9.57701e-06
1.91047e-05
1.91147e-05
4.24116e-06
9.57384e-06
4.24071e-06
9.5786e-06
6.63564e-07
6.63682e-07
6.63655e-07
2.29662e-06
3.6493e-06
9.37696e-07
1.18897e-06
2.29657e-06
3.64956e-06
9.38502e-07
1.91061e-05
1.91161e-05
2.29667e-06
9.37793e-07
3.6493e-06
1.18907e-06
2.29658e-06
9.38581e-07
3.64957e-06
5.65371e-06
5.65547e-06
1.41958e-06
5.65464e-06
5.6564e-06
1.90911e-05
1.90944e-05
1.41719e-06
5.65056e-06
5.65236e-06
1.91018e-05
1.90917e-05
1.91051e-05
1.9095e-05
1.41936e-06
5.6526e-06
5.6544e-06
5.65168e-06
5.65343e-06
1.18671e-06
3.64724e-06
4.23951e-06
9.57165e-06
9.56714e-06
4.24002e-06
4.23945e-06
9.57182e-06
9.56735e-06
4.23996e-06
2.29594e-06
1.18735e-06
3.64834e-06
9.36822e-07
3.64802e-06
9.35956e-07
2.29606e-06
2.29588e-06
1.18716e-06
3.64873e-06
9.36759e-07
3.64844e-06
9.35877e-07
2.29601e-06
1.91042e-05
1.9094e-05
1.4193e-06
5.65407e-06
5.65291e-06
5.65325e-06
1.91031e-05
2.29549e-06
1.18652e-06
3.64782e-06
9.35007e-07
4.23887e-06
9.56733e-06
2.29545e-06
1.18669e-06
9.35042e-07
3.64772e-06
4.23959e-06
9.57322e-06
9.56835e-06
4.24008e-06
2.29598e-06
1.18718e-06
3.64892e-06
9.36803e-07
3.64857e-06
9.35935e-07
2.29609e-06
4.2395e-06
9.57282e-06
9.56795e-06
4.24002e-06
2.2959e-06
1.18734e-06
9.36841e-07
3.64882e-06
9.35971e-07
3.64848e-06
2.29604e-06
3.64855e-06
9.36854e-07
2.2961e-06
9.57243e-06
4.24014e-06
9.36878e-07
3.64844e-06
2.29607e-06
9.57252e-06
4.24005e-06
1.41724e-06
5.65218e-06
5.65076e-06
1.90924e-05
1.91055e-05
1.90954e-05
1.41941e-06
5.65422e-06
5.65278e-06
5.65324e-06
5.6518e-06
1.91031e-05
1.9093e-05
9.56709e-06
2.29601e-06
1.18734e-06
9.36942e-07
3.64855e-06
9.36081e-07
3.64821e-06
2.29616e-06
2.29594e-06
1.18723e-06
9.36888e-07
3.64896e-06
9.36025e-07
3.64862e-06
2.29608e-06
4.23974e-06
9.57262e-06
9.56817e-06
4.2402e-06
4.23976e-06
9.57325e-06
9.56837e-06
4.24016e-06
1.41938e-06
5.65267e-06
5.65444e-06
5.65346e-06
1.9104e-05
1.91063e-05
1.90962e-05
1.91024e-05
1.91123e-05
1.91057e-05
1.91156e-05
5.65369e-06
5.65545e-06
1.41952e-06
5.65456e-06
5.65636e-06
1.91129e-05
1.91162e-05
1.42159e-06
5.65563e-06
5.65739e-06
4.24104e-06
9.57283e-06
4.24058e-06
9.57722e-06
2.29659e-06
3.6491e-06
9.3767e-07
1.18908e-06
2.29653e-06
3.64937e-06
9.38458e-07
2.29653e-06
3.64952e-06
9.3761e-07
1.18897e-06
2.29647e-06
3.64975e-06
9.38398e-07
4.2417e-06
9.578e-06
4.24164e-06
9.57821e-06
2.29701e-06
1.18961e-06
3.65011e-06
9.39233e-07
2.29695e-06
1.1895e-06
3.65053e-06
9.39173e-07
5.65526e-06
5.65392e-06
1.41948e-06
5.65604e-06
5.65481e-06
1.91037e-05
1.91136e-05
1.91152e-05
1.42154e-06
5.6572e-06
5.65582e-06
1.91142e-05
2.2966e-06
3.64965e-06
9.37654e-07
1.1889e-06
2.29655e-06
3.64994e-06
9.38444e-07
4.2411e-06
9.57345e-06
4.24063e-06
9.57822e-06
2.29655e-06
9.37688e-07
3.64956e-06
1.18907e-06
2.29647e-06
9.38478e-07
3.64984e-06
4.24176e-06
9.5792e-06
2.29704e-06
1.18943e-06
3.65066e-06
9.39221e-07
4.24168e-06
9.57882e-06
2.29696e-06
1.1896e-06
9.39254e-07
3.65057e-06
4.24123e-06
9.57341e-06
4.24084e-06
9.57781e-06
2.2966e-06
9.37725e-07
3.64919e-06
1.18911e-06
2.29653e-06
9.38517e-07
3.64946e-06
4.24112e-06
9.57315e-06
4.24066e-06
9.57792e-06
2.29705e-06
1.18949e-06
3.65029e-06
9.39256e-07
4.2419e-06
9.57879e-06
2.29701e-06
1.18963e-06
9.3929e-07
3.6502e-06
4.24173e-06
9.57852e-06
5.65525e-06
5.65383e-06
1.41958e-06
5.65619e-06
5.65476e-06
1.91037e-05
1.91136e-05
1.91166e-05
1.42166e-06
5.6572e-06
5.65581e-06
1.91142e-05
2.2966e-06
9.37736e-07
3.6497e-06
1.18895e-06
2.29651e-06
9.38522e-07
3.64998e-06
4.24128e-06
9.57361e-06
4.24086e-06
9.57801e-06
4.24124e-06
9.57388e-06
4.24089e-06
9.57865e-06
2.29707e-06
1.1896e-06
9.39356e-07
3.6503e-06
2.297e-06
1.18947e-06
9.39296e-07
3.65071e-06
4.24192e-06
9.57899e-06
4.24195e-06
9.57925e-06
1.91046e-05
1.91146e-05
1.91069e-05
1.91169e-05
1.42165e-06
5.65567e-06
5.65742e-06
1.91151e-05
1.91174e-05
2.27632e-05
7.24529e-06
9.5644e-06
7.24551e-06
2.277e-05
1.26559e-05
4.239e-06
4.88463e-06
1.12474e-05
4.88474e-06
1.12453e-05
1.26583e-05
2.2763e-05
7.24532e-06
9.56554e-06
7.24554e-06
2.27698e-05
1.90901e-05
1.26699e-05
4.24118e-06
1.12609e-05
4.88719e-06
1.12581e-05
4.88727e-06
1.26734e-05
2.27886e-05
7.24913e-06
9.57435e-06
2.27818e-05
7.24889e-06
1.26698e-05
4.24058e-06
1.12549e-05
4.88665e-06
1.26662e-05
1.12576e-05
4.88658e-06
2.27879e-05
7.25005e-06
9.57531e-06
7.25031e-06
2.27946e-05
1.91095e-05
1.911e-05
1.26705e-05
4.24125e-06
4.88718e-06
1.12607e-05
4.8873e-06
1.12587e-05
1.26729e-05
2.27883e-05
7.24915e-06
9.57594e-06
2.27816e-05
7.2489e-06
1.26693e-05
4.24063e-06
4.88669e-06
1.12554e-05
1.2667e-05
4.88657e-06
1.12575e-05
2.27877e-05
7.25007e-06
9.57654e-06
7.25032e-06
2.27944e-05
1.91108e-05
1.91114e-05
9.97154e-06
2.24192e-05
2.24185e-05
2.24132e-05
2.24125e-05
9.97116e-06
4.70579e-06
2.97598e-06
9.93729e-06
5.65364e-06
4.70619e-06
2.97578e-06
9.93903e-06
4.7116e-06
2.97717e-06
9.94174e-06
5.65543e-06
4.71196e-06
2.97696e-06
9.9441e-06
9.96949e-06
2.24076e-05
2.24069e-05
9.96986e-06
2.24137e-05
2.2413e-05
4.70677e-06
9.94168e-06
5.65471e-06
2.97604e-06
2.97626e-06
9.93996e-06
4.70636e-06
4.71254e-06
9.94677e-06
5.65645e-06
2.97723e-06
2.97744e-06
9.94442e-06
4.71216e-06
1.90864e-05
1.90896e-05
9.96479e-06
2.23964e-05
2.23957e-05
2.23902e-05
2.23895e-05
9.96443e-06
4.70427e-06
9.93042e-06
5.65064e-06
2.97482e-06
9.92866e-06
4.70385e-06
2.97503e-06
4.71004e-06
9.93553e-06
5.6524e-06
2.97597e-06
9.93376e-06
4.70965e-06
2.97617e-06
1.90971e-05
1.90965e-05
1.91004e-05
1.90998e-05
9.96616e-06
2.23959e-05
2.23952e-05
9.96653e-06
2.24021e-05
2.24013e-05
4.70551e-06
2.97543e-06
5.6527e-06
9.93588e-06
9.93414e-06
2.97565e-06
4.70507e-06
4.71129e-06
2.97659e-06
5.65445e-06
9.941e-06
9.93925e-06
2.9768e-06
4.71087e-06
4.70447e-06
9.93135e-06
2.97535e-06
5.65159e-06
4.7049e-06
9.93318e-06
2.97513e-06
4.71027e-06
9.93645e-06
2.9765e-06
5.65339e-06
4.71067e-06
9.9383e-06
2.97629e-06
9.96825e-06
2.24077e-05
2.24069e-05
2.24015e-05
2.24008e-05
9.96787e-06
1.26624e-05
1.12482e-05
4.88536e-06
4.23945e-06
1.26589e-05
1.12509e-05
4.8853e-06
2.27757e-05
9.56991e-06
7.2477e-06
2.27824e-05
7.24794e-06
2.27763e-05
7.24673e-06
9.56893e-06
2.27695e-05
7.2465e-06
1.26627e-05
4.24008e-06
1.12544e-05
4.88595e-06
1.26661e-05
1.12515e-05
4.88602e-06
1.26626e-05
1.12484e-05
4.88524e-06
4.23939e-06
1.26591e-05
1.12505e-05
4.88518e-06
2.2776e-05
9.57011e-06
7.24641e-06
7.24662e-06
2.27828e-05
2.27766e-05
7.24541e-06
9.56911e-06
2.27698e-05
7.24521e-06
1.26629e-05
4.24003e-06
1.12539e-05
4.88583e-06
1.12517e-05
4.8859e-06
1.26663e-05
1.90994e-05
1.90988e-05
4.7114e-06
2.97654e-06
5.65426e-06
9.94067e-06
2.97674e-06
9.93892e-06
4.71098e-06
4.70559e-06
2.97551e-06
5.65295e-06
9.93682e-06
9.93437e-06
2.97572e-06
4.70517e-06
2.97644e-06
5.65306e-06
2.97624e-06
9.96846e-06
2.24076e-05
2.24085e-05
2.24015e-05
2.24022e-05
9.96798e-06
1.90982e-05
1.26561e-05
4.23892e-06
1.12473e-05
4.88448e-06
1.12452e-05
4.88454e-06
1.26586e-05
2.27629e-05
7.2437e-06
9.56515e-06
7.24391e-06
2.27697e-05
1.26621e-05
4.8854e-06
1.12487e-05
4.23951e-06
1.26598e-05
4.88529e-06
1.12508e-05
2.27754e-05
9.57109e-06
7.24772e-06
2.27822e-05
7.24796e-06
2.2776e-05
7.24675e-06
9.57045e-06
2.27692e-05
7.24653e-06
1.26632e-05
4.24016e-06
4.88593e-06
1.12542e-05
1.26658e-05
4.88605e-06
1.1252e-05
1.26625e-05
1.12486e-05
4.8852e-06
4.23945e-06
1.26594e-05
1.12507e-05
4.88514e-06
2.27753e-05
9.5707e-06
7.24611e-06
7.24634e-06
2.27821e-05
2.27759e-05
7.24513e-06
9.57007e-06
2.27691e-05
7.24491e-06
1.2663e-05
4.24007e-06
1.1254e-05
4.88578e-06
1.12519e-05
4.88585e-06
1.26663e-05
2.27742e-05
9.57066e-06
7.24734e-06
7.24777e-06
2.27812e-05
1.26627e-05
4.24029e-06
4.88588e-06
1.1254e-05
4.88615e-06
1.12519e-05
1.26654e-05
2.27754e-05
9.5704e-06
7.24592e-06
7.24615e-06
2.27821e-05
1.26634e-05
4.24011e-06
1.12539e-05
4.88576e-06
1.12517e-05
4.88585e-06
1.26658e-05
9.96433e-06
2.23956e-05
2.2396e-05
2.23894e-05
2.23898e-05
9.96396e-06
4.71004e-06
9.93534e-06
5.6522e-06
2.97598e-06
9.9329e-06
2.97615e-06
4.70968e-06
4.70411e-06
9.9307e-06
5.65078e-06
2.97486e-06
2.97504e-06
9.92817e-06
4.70376e-06
1.90876e-05
1.91008e-05
1.91002e-05
9.96568e-06
2.23951e-05
2.23955e-05
9.96607e-06
2.24012e-05
2.24016e-05
4.71129e-06
2.97661e-06
5.65425e-06
9.9406e-06
2.97678e-06
9.93883e-06
4.7109e-06
4.70536e-06
2.97547e-06
5.65282e-06
9.93617e-06
9.93375e-06
2.97567e-06
4.70499e-06
4.7103e-06
9.93595e-06
2.97647e-06
5.65321e-06
2.9763e-06
4.71067e-06
9.938e-06
4.70438e-06
9.93101e-06
2.97536e-06
5.65176e-06
4.70474e-06
9.93342e-06
2.97518e-06
9.96779e-06
2.24068e-05
2.24072e-05
2.24007e-05
2.24011e-05
9.96739e-06
1.90984e-05
1.90977e-05
9.56536e-06
1.26624e-05
4.88539e-06
1.12481e-05
4.23963e-06
1.26588e-05
4.88534e-06
1.1251e-05
2.27748e-05
9.57089e-06
7.24736e-06
7.24758e-06
2.27815e-05
2.27753e-05
7.24638e-06
9.5699e-06
2.27686e-05
7.24616e-06
1.26626e-05
4.24031e-06
4.88598e-06
1.12543e-05
4.88604e-06
1.12515e-05
1.26659e-05
1.26621e-05
4.88537e-06
1.12479e-05
4.23959e-06
1.26597e-05
4.88521e-06
1.12508e-05
2.27763e-05
9.57113e-06
7.24639e-06
7.24664e-06
2.2783e-05
2.27769e-05
7.24544e-06
9.5705e-06
2.27701e-05
7.24519e-06
1.26635e-05
4.24033e-06
4.88585e-06
1.12541e-05
4.88602e-06
1.12513e-05
1.26659e-05
9.96607e-06
2.24026e-05
2.24019e-05
4.70559e-06
2.9755e-06
5.65271e-06
9.93631e-06
4.7052e-06
2.97569e-06
9.93453e-06
4.71137e-06
2.97668e-06
5.65447e-06
9.94141e-06
4.71101e-06
2.97688e-06
9.93897e-06
4.70458e-06
5.65162e-06
2.97518e-06
9.9335e-06
4.7104e-06
2.97658e-06
5.65343e-06
2.9764e-06
9.93862e-06
9.96816e-06
2.24082e-05
2.24075e-05
9.9678e-06
2.24021e-05
2.24014e-05
1.90993e-05
1.90987e-05
1.91016e-05
1.9101e-05
1.91071e-05
1.91077e-05
1.91104e-05
1.9111e-05
9.97163e-06
2.24188e-05
2.2418e-05
2.24127e-05
2.24119e-05
9.97123e-06
4.70566e-06
2.97593e-06
9.93685e-06
5.65359e-06
4.7061e-06
9.93863e-06
2.97571e-06
4.71146e-06
2.97708e-06
9.94196e-06
5.65539e-06
4.71188e-06
9.94374e-06
2.97687e-06
9.96956e-06
2.24071e-05
2.24064e-05
9.96995e-06
2.24132e-05
2.24125e-05
4.70668e-06
9.9413e-06
5.65467e-06
2.97597e-06
9.93958e-06
4.70622e-06
2.9762e-06
4.71246e-06
9.94642e-06
5.65643e-06
2.97713e-06
9.94469e-06
4.71202e-06
2.97735e-06
1.91175e-05
1.91208e-05
9.97288e-06
2.24182e-05
2.24174e-05
9.97329e-06
2.24242e-05
2.24235e-05
4.70677e-06
9.94227e-06
2.97644e-06
5.65552e-06
4.70724e-06
9.94398e-06
2.97621e-06
4.71257e-06
9.94738e-06
2.9776e-06
5.65732e-06
4.71301e-06
9.9491e-06
2.97737e-06
1.26702e-05
4.24112e-06
1.12605e-05
4.88709e-06
1.12584e-05
4.88715e-06
1.26736e-05
2.27889e-05
7.24781e-06
9.57456e-06
2.27822e-05
7.24759e-06
1.26701e-05
4.24051e-06
1.12551e-05
4.88653e-06
1.12573e-05
1.26665e-05
4.88647e-06
2.27883e-05
7.24876e-06
9.57554e-06
7.24899e-06
2.2795e-05
1.2677e-05
1.12614e-05
4.88788e-06
4.24162e-06
1.26735e-05
1.12642e-05
4.88779e-06
2.28007e-05
7.25147e-06
9.57969e-06
2.2794e-05
7.25121e-06
1.26772e-05
1.12617e-05
4.88775e-06
4.24156e-06
1.26738e-05
1.12638e-05
4.88768e-06
2.2801e-05
7.25015e-06
9.57989e-06
2.27944e-05
7.24992e-06
9.97166e-06
2.24184e-05
2.24191e-05
2.24123e-05
2.2413e-05
9.97125e-06
4.71156e-06
2.97703e-06
9.94163e-06
5.65506e-06
9.9434e-06
4.71194e-06
2.97682e-06
4.70572e-06
2.976e-06
9.93713e-06
5.65386e-06
2.97578e-06
4.70614e-06
9.93948e-06
9.96961e-06
2.24068e-05
2.24076e-05
2.24129e-05
9.97002e-06
2.24137e-05
4.71252e-06
9.94607e-06
5.65624e-06
2.97708e-06
9.94435e-06
2.9773e-06
4.71212e-06
4.70672e-06
9.94217e-06
5.65487e-06
2.97604e-06
2.97627e-06
9.93978e-06
4.70629e-06
1.91084e-05
1.9109e-05
1.91199e-05
9.97288e-06
2.24178e-05
2.24185e-05
9.9733e-06
2.24239e-05
2.24245e-05
4.71267e-06
9.94704e-06
2.97755e-06
5.657e-06
2.97732e-06
4.71307e-06
9.94875e-06
4.70685e-06
9.94245e-06
2.97651e-06
5.65575e-06
4.70728e-06
9.94482e-06
2.97628e-06
1.91188e-05
1.26702e-05
4.24116e-06
1.12606e-05
4.88703e-06
1.12586e-05
4.8871e-06
1.26736e-05
2.27882e-05
7.24753e-06
9.57554e-06
2.27815e-05
7.24729e-06
1.26701e-05
4.24057e-06
1.12552e-05
4.88648e-06
1.12574e-05
1.26666e-05
4.88641e-06
2.27876e-05
7.24846e-06
9.57615e-06
7.2487e-06
2.27943e-05
1.26764e-05
4.8879e-06
1.12619e-05
4.24168e-06
1.26741e-05
4.88777e-06
1.1264e-05
2.28004e-05
7.25148e-06
9.58124e-06
2.27937e-05
7.25122e-06
1.26772e-05
1.12618e-05
4.8877e-06
4.24161e-06
1.26737e-05
1.12639e-05
4.88762e-06
2.28003e-05
7.24987e-06
9.58086e-06
2.27936e-05
7.24962e-06
1.267e-05
4.24138e-06
4.88712e-06
1.12606e-05
4.88739e-06
1.12585e-05
1.26726e-05
2.27873e-05
7.24897e-06
9.57515e-06
7.24852e-06
2.27803e-05
1.26689e-05
4.24069e-06
4.88678e-06
1.12552e-05
4.88649e-06
1.26663e-05
1.12574e-05
2.27864e-05
7.24968e-06
9.57612e-06
7.25013e-06
2.27934e-05
1.26707e-05
4.24121e-06
1.12605e-05
4.88699e-06
1.12584e-05
4.8871e-06
1.2673e-05
2.27883e-05
7.24734e-06
9.57524e-06
2.27815e-05
7.2471e-06
1.26694e-05
4.24059e-06
1.1255e-05
4.88648e-06
1.26669e-05
1.12572e-05
4.88638e-06
2.27876e-05
7.24827e-06
9.57585e-06
7.24852e-06
2.27943e-05
1.26763e-05
4.888e-06
1.12618e-05
4.24174e-06
1.26735e-05
4.88772e-06
1.12639e-05
2.27994e-05
7.25129e-06
9.58048e-06
2.27925e-05
7.25083e-06
1.26765e-05
1.12617e-05
4.8877e-06
4.24164e-06
1.26742e-05
1.12638e-05
4.88758e-06
2.28003e-05
7.24968e-06
9.58057e-06
2.27937e-05
7.24942e-06
9.97117e-06
2.24179e-05
2.24183e-05
2.24118e-05
2.24122e-05
9.97076e-06
4.71149e-06
2.97706e-06
9.94155e-06
5.65522e-06
9.94333e-06
4.71188e-06
2.97689e-06
4.70558e-06
2.97597e-06
9.93658e-06
5.65377e-06
2.97575e-06
4.70597e-06
9.93897e-06
9.96908e-06
2.24063e-05
2.24067e-05
2.24124e-05
9.96949e-06
2.24128e-05
4.71246e-06
9.94601e-06
5.65624e-06
2.97715e-06
9.94428e-06
2.97733e-06
4.71206e-06
4.70654e-06
9.94166e-06
5.65483e-06
2.97602e-06
2.97624e-06
9.93929e-06
4.70614e-06
1.91084e-05
1.91089e-05
1.91213e-05
9.97241e-06
2.24173e-05
2.24177e-05
9.97283e-06
2.24234e-05
2.24238e-05
4.71261e-06
9.94698e-06
2.97758e-06
5.65714e-06
2.97739e-06
4.71302e-06
9.94869e-06
4.70669e-06
9.94198e-06
2.97648e-06
5.65573e-06
4.7071e-06
9.94432e-06
2.97626e-06
1.91188e-05
1.26698e-05
4.2414e-06
4.88722e-06
1.12609e-05
4.88729e-06
1.12581e-05
1.26733e-05
2.27876e-05
7.24877e-06
9.57535e-06
7.24854e-06
2.27809e-05
1.26697e-05
4.24075e-06
4.88667e-06
1.12548e-05
4.88661e-06
1.26662e-05
1.12576e-05
2.2787e-05
7.2497e-06
9.57632e-06
7.24994e-06
2.27937e-05
1.26707e-05
4.24143e-06
4.8871e-06
1.12607e-05
4.88727e-06
1.12579e-05
1.26731e-05
2.27892e-05
7.24783e-06
9.57597e-06
2.27824e-05
7.24757e-06
1.26695e-05
4.24071e-06
4.88665e-06
1.12546e-05
1.2667e-05
4.88648e-06
1.12575e-05
2.27885e-05
7.24874e-06
9.57658e-06
7.24901e-06
2.27952e-05
1.26768e-05
4.88789e-06
1.12614e-05
4.24179e-06
1.26734e-05
4.88781e-06
1.12642e-05
2.27997e-05
7.2511e-06
9.58067e-06
2.2793e-05
7.25085e-06
1.26766e-05
4.88788e-06
1.12612e-05
4.24175e-06
1.26742e-05
4.88769e-06
1.1264e-05
2.28013e-05
7.25017e-06
9.5813e-06
2.27946e-05
7.24989e-06
1.91093e-05
1.91099e-05
1.91116e-05
1.91122e-05
9.97282e-06
2.24187e-05
2.2418e-05
9.97321e-06
2.24247e-05
2.2424e-05
4.70692e-06
9.94265e-06
2.97651e-06
5.6556e-06
4.70734e-06
2.97628e-06
9.94437e-06
4.7127e-06
9.9471e-06
2.97768e-06
5.65736e-06
4.71309e-06
2.97747e-06
9.94941e-06
1.91198e-05
1.91221e-05
6.59445e-07
4.50825e-07
4.55972e-07
4.55903e-07
6.64846e-07
4.57576e-07
4.57512e-07
2.50595e-07
2.48787e-07
2.82923e-06
1.96982e-06
1.97005e-06
1.41904e-06
2.82957e-06
1.96908e-06
1.9693e-06
2.82928e-06
1.41996e-06
1.96883e-06
1.96903e-06
1.96956e-06
1.96977e-06
2.82894e-06
2.82933e-06
1.41987e-06
1.96892e-06
1.96885e-06
1.96965e-06
1.96958e-06
2.82897e-06
2.82927e-06
1.42002e-06
1.96898e-06
1.96887e-06
1.96972e-06
1.96962e-06
2.82893e-06
2.82934e-06
1.42001e-06
1.96883e-06
1.96906e-06
2.82901e-06
1.96957e-06
1.9698e-06
2.82916e-06
1.9698e-06
1.97002e-06
1.41898e-06
2.82951e-06
1.96907e-06
1.96927e-06
2.82919e-06
1.96991e-06
1.96984e-06
1.41894e-06
1.9691e-06
2.82954e-06
1.96917e-06
2.82915e-06
1.96997e-06
1.96987e-06
1.41904e-06
1.96912e-06
2.82949e-06
1.96922e-06
6.59555e-07
4.50957e-07
6.60859e-07
4.54309e-07
4.54238e-07
4.52634e-07
4.52558e-07
2.45106e-07
2.46948e-07
6.60865e-07
4.54301e-07
4.54286e-07
4.52626e-07
4.52606e-07
2.45116e-07
2.46959e-07
6.60976e-07
4.54377e-07
4.54368e-07
4.52693e-07
4.52694e-07
2.4518e-07
2.47022e-07
6.60964e-07
4.54414e-07
4.5435e-07
4.52724e-07
4.5268e-07
2.45195e-07
2.47036e-07
3.64765e-06
2.22354e-06
2.22406e-06
4.55961e-07
4.55943e-07
6.6484e-07
4.57566e-07
4.57554e-07
2.50607e-07
2.48798e-07
4.56041e-07
4.56029e-07
6.64969e-07
4.57651e-07
4.57637e-07
2.50669e-07
2.48861e-07
4.56069e-07
4.56012e-07
6.64941e-07
4.5768e-07
4.57616e-07
2.50683e-07
2.48875e-07
6.66117e-07
4.59172e-07
4.59109e-07
2.52402e-07
6.6611e-07
4.59161e-07
4.59141e-07
2.52412e-07
6.66237e-07
4.59247e-07
4.5923e-07
2.52475e-07
6.66212e-07
4.5927e-07
4.59213e-07
2.52488e-07
1.66731e-06
2.29682e-06
2.54197e-06
1.54517e-06
2.54217e-06
1.54602e-06
1.66604e-06
1.84503e-06
2.22473e-06
3.02423e-06
3.64906e-06
1.84608e-06
2.22415e-06
3.02382e-06
1.66577e-06
2.29637e-06
2.54194e-06
1.54567e-06
1.66701e-06
2.54173e-06
1.54479e-06
1.8464e-06
3.02414e-06
3.6498e-06
2.22432e-06
2.22491e-06
3.02455e-06
1.84534e-06
1.66749e-06
2.29684e-06
1.54522e-06
2.54211e-06
1.54606e-06
2.54227e-06
1.66618e-06
1.8451e-06
2.22476e-06
3.02426e-06
3.64907e-06
1.84615e-06
2.22419e-06
3.02391e-06
1.66594e-06
2.29642e-06
1.54571e-06
2.54202e-06
1.66722e-06
1.54485e-06
2.54182e-06
1.84646e-06
3.02423e-06
3.64981e-06
2.22437e-06
2.22494e-06
3.02458e-06
1.8454e-06
2.82978e-06
1.42113e-06
1.9693e-06
1.96952e-06
1.97005e-06
1.97028e-06
2.82942e-06
2.82878e-06
1.41874e-06
1.96827e-06
1.96847e-06
2.82844e-06
1.96899e-06
1.96921e-06
2.8287e-06
1.41781e-06
1.96928e-06
1.9695e-06
2.82904e-06
1.96856e-06
1.96876e-06
1.84509e-06
3.02281e-06
3.64745e-06
2.22345e-06
3.02319e-06
2.22399e-06
1.84407e-06
1.66527e-06
2.54146e-06
1.54486e-06
2.29577e-06
1.66648e-06
2.54122e-06
1.54396e-06
1.84582e-06
2.22391e-06
3.64857e-06
3.02355e-06
2.22447e-06
3.02394e-06
1.84474e-06
1.84441e-06
3.02357e-06
2.22424e-06
3.64781e-06
2.22369e-06
1.84546e-06
3.02319e-06
1.66681e-06
2.29625e-06
2.5415e-06
1.54437e-06
2.54174e-06
1.54528e-06
1.66557e-06
1.66511e-06
2.5413e-06
1.5448e-06
2.29571e-06
1.66638e-06
2.54108e-06
1.5439e-06
1.84569e-06
2.22412e-06
3.649e-06
3.02325e-06
3.02362e-06
2.22468e-06
1.84466e-06
1.8443e-06
3.02325e-06
2.22445e-06
3.64818e-06
1.84533e-06
3.02289e-06
2.2239e-06
1.66674e-06
2.29619e-06
2.54136e-06
1.54432e-06
2.54158e-06
1.54522e-06
1.66546e-06
1.41773e-06
1.9694e-06
1.96865e-06
1.66641e-06
2.29567e-06
2.54093e-06
1.54348e-06
2.54118e-06
1.54449e-06
1.66452e-06
1.84534e-06
3.02288e-06
3.648e-06
2.22378e-06
3.02331e-06
2.22432e-06
1.84371e-06
1.66607e-06
2.29558e-06
1.54354e-06
2.54079e-06
1.5444e-06
2.541e-06
1.6647e-06
1.84488e-06
3.02251e-06
3.64791e-06
2.22373e-06
3.02286e-06
1.84389e-06
2.22425e-06
1.66457e-06
2.54148e-06
1.54493e-06
2.2958e-06
1.66682e-06
2.54121e-06
1.54392e-06
1.84611e-06
2.22424e-06
3.64912e-06
3.02362e-06
2.2248e-06
3.02406e-06
1.84444e-06
1.84396e-06
3.0237e-06
2.22457e-06
3.64838e-06
2.22402e-06
1.84574e-06
3.02326e-06
1.66749e-06
2.29628e-06
2.54148e-06
1.54432e-06
2.54176e-06
1.54534e-06
1.66496e-06
1.66517e-06
1.54483e-06
2.5413e-06
2.29576e-06
1.66643e-06
1.54396e-06
2.54109e-06
1.84565e-06
2.2242e-06
3.64903e-06
3.02325e-06
3.02359e-06
2.22474e-06
1.84464e-06
1.84429e-06
3.02323e-06
2.22451e-06
3.64827e-06
1.84529e-06
3.02289e-06
2.22397e-06
1.66671e-06
2.2962e-06
1.54436e-06
2.54136e-06
1.54525e-06
2.54157e-06
1.6655e-06
1.84574e-06
2.22396e-06
3.64877e-06
3.02349e-06
1.84472e-06
2.22452e-06
3.02388e-06
1.66673e-06
2.29629e-06
2.54145e-06
1.54442e-06
1.66551e-06
2.54167e-06
1.54529e-06
1.84565e-06
2.22391e-06
3.64865e-06
3.02314e-06
3.02352e-06
2.22446e-06
1.84464e-06
1.66673e-06
2.29626e-06
1.54441e-06
2.54137e-06
1.54528e-06
2.54161e-06
1.66547e-06
2.82875e-06
1.41878e-06
1.96841e-06
1.96831e-06
1.96904e-06
1.96914e-06
2.82843e-06
2.82869e-06
1.41787e-06
1.96944e-06
1.96934e-06
1.9687e-06
2.82902e-06
1.96861e-06
1.66526e-06
1.54492e-06
2.5415e-06
2.29587e-06
1.66656e-06
1.54407e-06
2.54127e-06
1.84583e-06
2.224e-06
3.64877e-06
3.02358e-06
1.84482e-06
2.22455e-06
3.02392e-06
1.84442e-06
3.02355e-06
2.22431e-06
3.64802e-06
1.84542e-06
2.22378e-06
3.02321e-06
1.6669e-06
2.29631e-06
1.54446e-06
2.54156e-06
1.66562e-06
1.54533e-06
2.54177e-06
1.66512e-06
1.54486e-06
2.54134e-06
2.29579e-06
1.66642e-06
1.544e-06
2.54109e-06
1.84572e-06
2.22427e-06
3.64917e-06
3.02334e-06
3.02371e-06
2.22482e-06
1.84469e-06
1.84432e-06
3.02334e-06
2.22459e-06
3.64842e-06
1.84535e-06
3.02297e-06
2.22405e-06
1.66675e-06
2.29624e-06
1.5444e-06
2.54137e-06
1.54527e-06
2.54161e-06
1.66547e-06
2.82878e-06
1.41785e-06
1.96953e-06
1.96856e-06
1.9688e-06
2.82971e-06
1.42107e-06
1.96929e-06
1.96949e-06
2.82936e-06
1.97003e-06
1.97025e-06
2.82954e-06
1.42003e-06
1.97023e-06
1.97045e-06
2.8299e-06
1.96949e-06
1.96969e-06
1.66738e-06
2.29678e-06
2.54206e-06
1.54508e-06
2.54224e-06
1.546e-06
1.66609e-06
1.84504e-06
2.22467e-06
3.02428e-06
3.64887e-06
3.02389e-06
1.84616e-06
2.2241e-06
1.66583e-06
2.29634e-06
2.542e-06
1.54565e-06
2.54179e-06
1.66711e-06
1.54473e-06
1.84649e-06
3.02421e-06
3.64961e-06
2.22428e-06
3.02461e-06
2.22486e-06
1.84539e-06
1.66726e-06
2.29672e-06
2.5419e-06
1.54502e-06
2.54207e-06
1.54594e-06
1.66597e-06
1.84495e-06
2.22489e-06
3.02396e-06
3.64925e-06
1.846e-06
3.02359e-06
2.22432e-06
1.66573e-06
2.29628e-06
2.54182e-06
1.54559e-06
1.667e-06
2.54162e-06
1.54467e-06
1.84631e-06
3.02392e-06
3.65004e-06
2.22449e-06
3.02429e-06
1.84525e-06
2.22508e-06
1.66629e-06
2.54244e-06
1.54632e-06
2.29681e-06
1.6676e-06
2.54226e-06
1.54541e-06
1.84566e-06
3.02491e-06
2.22502e-06
3.64985e-06
2.22443e-06
1.84676e-06
3.02451e-06
1.66618e-06
2.54227e-06
1.54626e-06
2.29675e-06
1.66749e-06
2.54211e-06
1.54535e-06
1.84552e-06
3.0246e-06
2.22524e-06
3.65023e-06
1.84661e-06
3.02422e-06
2.22464e-06
2.82975e-06
1.42102e-06
1.96939e-06
1.96932e-06
1.97007e-06
1.97014e-06
2.82938e-06
2.82956e-06
1.42e-06
1.97035e-06
1.97027e-06
1.96959e-06
2.82994e-06
1.96952e-06
1.66788e-06
2.29681e-06
2.54195e-06
1.54502e-06
2.54234e-06
1.54608e-06
1.66558e-06
1.84476e-06
2.22501e-06
3.02441e-06
3.64944e-06
3.02396e-06
1.84643e-06
2.22443e-06
1.66538e-06
2.29636e-06
2.54206e-06
1.54572e-06
2.54172e-06
1.6676e-06
1.54469e-06
1.84672e-06
3.02427e-06
3.65017e-06
2.2246e-06
3.02473e-06
2.22519e-06
1.84497e-06
1.66727e-06
2.29672e-06
1.54509e-06
2.54187e-06
1.54597e-06
2.54205e-06
1.66599e-06
1.84494e-06
2.22494e-06
3.02393e-06
3.64934e-06
1.84595e-06
3.02358e-06
2.22439e-06
1.66576e-06
2.29631e-06
1.54562e-06
2.54182e-06
1.66701e-06
1.54473e-06
2.54161e-06
1.84627e-06
3.02391e-06
3.65007e-06
2.22456e-06
3.02426e-06
1.84525e-06
2.22513e-06
1.66587e-06
2.54257e-06
1.54644e-06
2.29683e-06
1.6682e-06
2.54212e-06
1.54529e-06
1.84528e-06
3.02504e-06
2.22535e-06
3.65042e-06
2.22476e-06
1.84716e-06
3.02457e-06
1.66621e-06
1.5463e-06
2.54227e-06
2.29678e-06
1.66749e-06
1.54544e-06
2.54211e-06
1.84553e-06
3.02456e-06
2.22529e-06
3.65033e-06
1.84658e-06
3.0242e-06
2.22471e-06
1.66725e-06
2.29679e-06
1.54515e-06
2.54192e-06
1.54601e-06
2.5421e-06
1.66599e-06
1.84491e-06
2.22467e-06
3.02387e-06
3.64896e-06
2.2241e-06
1.846e-06
3.02347e-06
1.66573e-06
2.29634e-06
1.54566e-06
2.54185e-06
1.54478e-06
1.66702e-06
2.54164e-06
1.84629e-06
3.02379e-06
3.64971e-06
2.22428e-06
2.22486e-06
3.02419e-06
1.84523e-06
1.66624e-06
2.54239e-06
1.54634e-06
2.29686e-06
1.66755e-06
2.5422e-06
1.54551e-06
1.8456e-06
3.02486e-06
2.22507e-06
3.65003e-06
1.84669e-06
2.22447e-06
3.02444e-06
1.6662e-06
1.54632e-06
2.54228e-06
2.29683e-06
1.66749e-06
1.54549e-06
2.5421e-06
1.84551e-06
3.0245e-06
2.22502e-06
3.64995e-06
1.84659e-06
3.02408e-06
2.22443e-06
2.8297e-06
1.42114e-06
1.96945e-06
1.96934e-06
1.9701e-06
1.9702e-06
2.82935e-06
2.82953e-06
1.4201e-06
1.9704e-06
1.9703e-06
1.96965e-06
2.82989e-06
1.96955e-06
1.6673e-06
2.29677e-06
1.54515e-06
2.54191e-06
1.546e-06
2.5421e-06
1.66601e-06
1.84496e-06
2.22503e-06
3.02405e-06
3.64948e-06
2.22446e-06
1.84608e-06
3.02367e-06
1.66575e-06
2.29635e-06
1.54565e-06
2.54186e-06
1.54478e-06
1.66703e-06
2.54165e-06
1.84637e-06
3.02399e-06
3.65021e-06
2.22464e-06
2.22521e-06
3.02437e-06
1.8453e-06
1.66637e-06
1.54638e-06
2.54245e-06
2.2969e-06
1.66769e-06
1.54556e-06
2.54229e-06
1.84567e-06
3.02488e-06
2.2251e-06
3.65006e-06
1.84675e-06
2.22452e-06
3.02452e-06
1.66622e-06
1.54632e-06
2.54232e-06
2.29683e-06
1.66753e-06
1.54549e-06
2.54214e-06
1.84556e-06
3.02467e-06
2.22537e-06
3.65046e-06
1.84665e-06
3.02429e-06
2.22478e-06
2.8296e-06
1.42009e-06
1.97025e-06
1.97048e-06
2.82997e-06
1.96949e-06
1.96972e-06
6.68527e-07
1.19043e-06
1.19054e-06
1.42261e-06
6.72921e-07
1.19193e-06
1.19205e-06
1.42422e-06
6.76765e-07
1.19296e-06
1.19308e-06
1.42561e-06
6.8008e-07
1.19354e-06
1.19366e-06
1.42653e-06
6.82888e-07
1.19368e-06
1.19379e-06
1.42699e-06
6.85212e-07
1.19345e-06
1.19356e-06
1.42677e-06
6.87075e-07
1.19282e-06
1.19294e-06
1.42657e-06
6.88501e-07
1.19184e-06
1.19195e-06
1.42601e-06
6.89509e-07
1.19051e-06
1.19062e-06
1.42514e-06
6.90123e-07
1.18887e-06
1.18898e-06
1.42397e-06
6.90369e-07
1.18694e-06
1.18705e-06
1.42255e-06
6.90287e-07
1.18474e-06
1.18485e-06
1.42086e-06
6.89918e-07
1.18229e-06
1.18241e-06
1.41895e-06
6.89262e-07
1.17962e-06
1.17973e-06
1.41685e-06
6.88339e-07
1.17675e-06
1.17686e-06
1.41448e-06
6.87179e-07
1.1737e-06
1.17381e-06
1.41194e-06
6.85803e-07
1.17049e-06
1.1706e-06
1.40924e-06
6.84204e-07
1.16718e-06
1.1673e-06
1.40638e-06
6.81252e-07
1.1625e-06
1.1626e-06
1.40282e-06
7.37745e-07
1.07622e-06
1.07631e-06
1.3512e-06
1.42052e-06
1.19008e-06
1.18997e-06
1.42048e-06
1.1899e-06
1.19007e-06
1.18997e-06
1.1901e-06
1.42059e-06
1.19007e-06
1.18994e-06
1.42058e-06
1.42255e-06
1.42221e-06
1.19054e-06
1.19044e-06
1.1917e-06
1.19159e-06
1.4225e-06
1.42218e-06
1.19037e-06
1.19054e-06
1.19152e-06
1.1917e-06
1.19056e-06
1.19159e-06
1.19172e-06
1.42262e-06
1.42228e-06
1.19041e-06
1.1917e-06
1.19156e-06
1.42228e-06
1.42416e-06
1.42342e-06
1.19205e-06
1.19194e-06
1.19284e-06
1.19274e-06
1.42412e-06
1.42356e-06
1.19187e-06
1.19205e-06
1.19267e-06
1.19284e-06
1.19207e-06
1.19273e-06
1.19286e-06
1.42423e-06
1.42349e-06
1.19191e-06
1.19284e-06
1.19271e-06
1.42349e-06
1.42553e-06
1.42453e-06
1.19308e-06
1.19297e-06
1.19354e-06
1.19343e-06
1.42534e-06
1.4245e-06
1.19291e-06
1.19308e-06
1.19336e-06
1.19354e-06
1.1931e-06
1.19342e-06
1.19355e-06
1.42563e-06
1.4243e-06
1.19294e-06
1.19353e-06
1.1934e-06
1.42428e-06
1.42619e-06
1.42503e-06
1.19366e-06
1.19355e-06
1.1938e-06
1.19369e-06
1.42616e-06
1.42501e-06
1.19348e-06
1.19366e-06
1.19363e-06
1.19381e-06
1.19368e-06
1.19369e-06
1.19382e-06
1.42656e-06
1.42481e-06
1.19352e-06
1.1938e-06
1.19367e-06
1.42478e-06
1.42664e-06
1.4252e-06
1.1938e-06
1.19369e-06
1.19363e-06
1.19353e-06
1.42662e-06
1.42515e-06
1.19362e-06
1.1938e-06
1.19346e-06
1.19364e-06
1.19382e-06
1.19352e-06
1.19366e-06
1.42703e-06
1.42495e-06
1.19366e-06
1.19363e-06
1.1935e-06
1.42519e-06
1.42674e-06
1.42466e-06
1.19356e-06
1.19346e-06
1.19307e-06
1.19297e-06
1.42672e-06
1.42495e-06
1.19339e-06
1.19357e-06
1.1929e-06
1.19308e-06
1.19358e-06
1.19296e-06
1.1931e-06
1.42713e-06
1.42475e-06
1.19343e-06
1.19307e-06
1.19294e-06
1.42504e-06
1.4268e-06
1.42415e-06
1.19294e-06
1.19283e-06
1.19215e-06
1.19204e-06
1.42648e-06
1.42442e-06
1.19277e-06
1.19295e-06
1.19198e-06
1.19216e-06
1.19296e-06
1.19204e-06
1.19217e-06
1.42688e-06
1.42422e-06
1.19281e-06
1.19214e-06
1.19202e-06
1.42452e-06
1.42624e-06
1.42331e-06
1.19195e-06
1.19185e-06
1.19088e-06
1.19078e-06
1.42591e-06
1.42361e-06
1.19178e-06
1.19196e-06
1.19071e-06
1.19089e-06
1.19198e-06
1.19077e-06
1.19091e-06
1.42631e-06
1.42338e-06
1.19182e-06
1.19087e-06
1.19075e-06
1.42369e-06
1.42536e-06
1.42218e-06
1.19063e-06
1.19052e-06
1.1893e-06
1.18919e-06
1.42534e-06
1.42215e-06
1.19046e-06
1.19064e-06
1.18913e-06
1.1893e-06
1.19065e-06
1.18918e-06
1.18932e-06
1.42543e-06
1.42225e-06
1.1905e-06
1.18929e-06
1.18917e-06
1.42256e-06
1.42419e-06
1.42079e-06
1.18899e-06
1.18888e-06
1.18741e-06
1.18731e-06
1.42416e-06
1.42076e-06
1.18882e-06
1.189e-06
1.18724e-06
1.18742e-06
1.18901e-06
1.1873e-06
1.18744e-06
1.42426e-06
1.42085e-06
1.18886e-06
1.1874e-06
1.18729e-06
1.42116e-06
1.42276e-06
1.41914e-06
1.18706e-06
1.18695e-06
1.18525e-06
1.18515e-06
1.42273e-06
1.41911e-06
1.18689e-06
1.18707e-06
1.18509e-06
1.18526e-06
1.18708e-06
1.18514e-06
1.18528e-06
1.42284e-06
1.41919e-06
1.18693e-06
1.18524e-06
1.18513e-06
1.4195e-06
1.42106e-06
1.41734e-06
1.18486e-06
1.18476e-06
1.18284e-06
1.18274e-06
1.42102e-06
1.41731e-06
1.18469e-06
1.18487e-06
1.18268e-06
1.18285e-06
1.18489e-06
1.18272e-06
1.18287e-06
1.42112e-06
1.41739e-06
1.18474e-06
1.18283e-06
1.18272e-06
1.41759e-06
1.419e-06
1.41523e-06
1.18242e-06
1.18231e-06
1.1802e-06
1.1801e-06