/*--------------------------------*- C++ -*----------------------------------*\
| =========                 |                                                 |
| \\      /  F ield         | OpenFOAM: The Open Source CFD Toolbox           |
|  \\    /   O peration     | Version:  2312                                  |
|   \\  /    A nd           | Website:  www.openfoam.com                      |
|    \\/     M anipulation  |                                                 |
\*---------------------------------------------------------------------------*/
FoamFile
{
    version     2.0;
    format      ascii;
    arch        "LSB;label=32;scalar=64";
    class       volScalarField;
    location    "750";
    object      nut;
}
// * * * * * * * * * * * * * * * * * * * * * * * * * * * * * * * * * * * * * //

dimensions      [0 2 -1 0 0 0 0];

internalField   nonuniform List<scalar> 
172512
(
0.000208364
0.000201476
0.000201485
0.000182437
0.00018245
0.000201137
0.000201118
0.000182403
0.000201148
0.000201125
0.000201151
0.000201128
0.000182464
0.000201161
0.000201137
0.000182443
0.000182449
0.000201462
0.000201442
0.000182472
0.000201473
0.00020145
0.000201453
0.000182453
0.000201462
5.07473e-05
9.98431e-05
5.07402e-05
0.000207771
0.000207764
0.000207778
0.000207769
2.3891e-05
0.0002005
0.000103599
9.99493e-05
5.07562e-05
9.98937e-05
5.07666e-05
2.38966e-05
2.39009e-05
9.9945e-05
5.07537e-05
9.98889e-05
5.07593e-05
0.000208356
0.00020837
0.000208361
0.000144486
0.000103664
0.000211329
0.000201791
0.000144324
0.000103734
0.000211743
2.38958e-05
2.38999e-05
0.000144484
0.000211333
0.000103666
0.000201801
0.000144324
0.000211752
0.000103736
7.79293e-05
7.7924e-05
0.000182848
7.79495e-05
7.79438e-05
2.38941e-05
2.3892e-05
0.000182018
7.79074e-05
7.79011e-05
2.38985e-05
2.38942e-05
2.38965e-05
2.38923e-05
0.000181998
7.79346e-05
7.79285e-05
7.79101e-05
7.79041e-05
0.000200477
0.0001036
9.98412e-05
5.07571e-05
5.07465e-05
9.99007e-05
9.98372e-05
5.07515e-05
5.0741e-05
9.98966e-05
0.000144131
0.000200811
0.00010367
0.000210895
0.000103595
0.000210464
0.000144318
0.000144127
0.000200793
0.000103647
0.000210887
0.000103571
0.000210457
0.000144313
2.38965e-05
2.38922e-05
0.000182054
7.79145e-05
7.79318e-05
7.78889e-05
2.38978e-05
0.000144124
0.000200488
0.000103591
0.000210021
9.98359e-05
5.07359e-05
0.000144109
0.000200464
0.000210018
0.000103579
9.98356e-05
5.075e-05
5.0744e-05
9.98963e-05
0.000144124
0.000200822
0.000103661
0.000210894
0.000103586
0.000210463
0.000144314
9.98374e-05
5.0746e-05
5.07403e-05
9.9889e-05
0.000144134
0.000200799
0.000210891
0.00010365
0.00021046
0.000103577
0.000144301
0.000103667
0.000210895
0.000144305
5.07532e-05
9.98878e-05
0.000210894
0.000103658
0.000144308
5.07471e-05
9.98905e-05
0.000182019
7.78897e-05
7.79043e-05
2.38933e-05
2.38955e-05
2.38914e-05
0.000182022
7.79179e-05
7.79324e-05
7.7897e-05
7.79106e-05
2.38977e-05
2.38936e-05
5.0744e-05
0.000144137
0.000200835
0.000210903
0.00010367
0.000210472
0.000103597
0.000144302
0.000144128
0.000200811
0.000210894
0.000103651
0.000210463
0.000103578
0.000144294
9.98315e-05
5.07535e-05
5.07427e-05
9.9884e-05
9.98203e-05
5.07456e-05
5.07401e-05
9.98747e-05
0.000181998
7.79236e-05
7.79179e-05
7.78972e-05
2.38963e-05
2.38953e-05
2.38912e-05
2.38987e-05
2.39029e-05
2.38967e-05
2.39009e-05
7.79373e-05
7.79313e-05
0.00018286
7.79604e-05
7.79542e-05
2.39031e-05
2.39011e-05
0.000182886
7.79624e-05
7.79565e-05
9.99462e-05
5.07506e-05
9.98897e-05
5.07611e-05
0.0001445
0.000103665
0.000211325
0.000201777
0.000144319
0.000103736
0.000211744
0.000144495
0.000103641
0.000211318
0.000201758
0.000144314
0.000103713
0.000211736
9.99425e-05
5.07656e-05
9.9939e-05
5.076e-05
0.0001445
0.000202093
0.000103731
0.000212163
0.000144495
0.000202073
0.000103707
0.000212155
7.79157e-05
7.79377e-05
0.000182838
7.79402e-05
7.79579e-05
2.3898e-05
2.39021e-05
2.3901e-05
0.00018289
7.79409e-05
7.79633e-05
2.39024e-05
0.000144496
0.000103656
0.000211324
0.000201789
0.000144314
0.000103728
0.000211743
9.9939e-05
5.07496e-05
9.98894e-05
5.07555e-05
0.000144485
0.000211322
0.000103647
0.000201765
0.000144323
0.000211741
0.000103717
9.99379e-05
5.07631e-05
0.000144496
0.000202104
0.000103722
0.000212162
9.99385e-05
5.07592e-05
0.000144503
0.000202081
0.00021216
0.000103712
9.99377e-05
5.07525e-05
9.98811e-05
5.07628e-05
0.000144489
0.000211325
0.000103653
0.000201768
0.000144326
0.000211743
0.000103724
9.99425e-05
5.07507e-05
9.98898e-05
5.07566e-05
0.000144505
0.000202107
0.00010373
0.000212166
9.99306e-05
5.07619e-05
0.000144507
0.000202083
0.000212163
0.000103718
9.99359e-05
5.07604e-05
7.79239e-05
7.79376e-05
0.000182861
7.79438e-05
7.79582e-05
2.3898e-05
2.39021e-05
2.39002e-05
0.000182882
7.79492e-05
7.79628e-05
2.39024e-05
0.000144478
0.000211324
0.000103647
0.000201778
0.000144317
0.000211743
0.000103718
9.99339e-05
5.07527e-05
9.98833e-05
5.0763e-05
9.99247e-05
5.07492e-05
9.98724e-05
5.07551e-05
0.000144504
0.000202116
0.000212171
0.000103732
0.000144497
0.000202093
0.000212162
0.000103713
9.99323e-05
5.07621e-05
9.99216e-05
5.07588e-05
2.38967e-05
2.39007e-05
2.38956e-05
2.38997e-05
0.000182864
7.79544e-05
7.79493e-05
2.3901e-05
2.39e-05
2.03161e-05
7.90829e-05
5.07411e-05
7.9065e-05
2.03181e-05
3.67094e-05
9.98081e-05
9.44615e-05
4.10573e-05
9.44284e-05
4.10507e-05
3.67175e-05
2.03165e-05
7.90784e-05
5.07395e-05
7.9061e-05
2.03185e-05
2.38891e-05
3.67281e-05
9.9918e-05
4.10709e-05
9.45419e-05
4.10709e-05
9.45215e-05
3.6727e-05
2.03236e-05
7.90962e-05
5.07619e-05
2.03216e-05
7.91129e-05
3.67236e-05
9.99252e-05
4.10667e-05
9.45023e-05
3.67247e-05
4.10671e-05
9.45235e-05
2.03234e-05
7.91222e-05
5.07611e-05
7.91058e-05
2.03254e-05
2.38987e-05
2.38988e-05
3.6724e-05
9.99132e-05
9.4541e-05
4.10731e-05
9.4511e-05
4.10671e-05
3.67308e-05
2.0324e-05
7.90915e-05
5.07547e-05
2.0322e-05
7.91087e-05
3.67272e-05
9.99209e-05
9.44925e-05
4.10634e-05
3.67203e-05
9.45223e-05
4.1069e-05
2.03238e-05
7.9118e-05
5.07583e-05
7.91012e-05
2.03258e-05
2.38977e-05
2.3898e-05
8.15154e-05
2.17176e-05
2.17143e-05
2.17156e-05
2.17123e-05
8.15224e-05
0.000105295
0.000128909
4.86626e-05
7.79371e-05
0.000105272
0.000128961
4.86696e-05
0.000105299
0.00012889
4.86559e-05
7.79312e-05
0.000105279
0.000128944
4.86557e-05
8.15142e-05
2.17138e-05
2.17106e-05
8.15071e-05
2.17158e-05
2.17125e-05
0.000105299
4.8674e-05
7.7942e-05
0.000129021
0.000128969
4.8667e-05
0.00010532
0.000105305
4.86599e-05
7.79368e-05
0.000129004
0.000128951
4.86602e-05
0.000105326
2.3892e-05
2.389e-05
8.14872e-05
2.17107e-05
2.17074e-05
2.17087e-05
2.17054e-05
8.14942e-05
0.000105195
4.86586e-05
7.78962e-05
0.00012878
4.86502e-05
0.000105219
0.000128728
0.000105198
4.86461e-05
7.78902e-05
0.000128763
4.86378e-05
0.000105221
0.000128705
2.38965e-05
2.38963e-05
2.38945e-05
2.38942e-05
8.15033e-05
2.17106e-05
2.17073e-05
8.14962e-05
2.17126e-05
2.17093e-05
0.000105253
0.000128908
7.79237e-05
4.86681e-05
4.86606e-05
0.000128858
0.000105276
0.000105254
0.00012889
7.79178e-05
4.86555e-05
4.86481e-05
0.000128835
0.000105277
0.000105248
4.86567e-05
0.000128794
7.79208e-05
0.000105225
4.86633e-05
0.000128844
0.00010525
4.86441e-05
0.000128771
7.79145e-05
0.000105227
4.86508e-05
0.000128827
8.1505e-05
2.17144e-05
2.17111e-05
2.17124e-05
2.17091e-05
8.1512e-05
3.67166e-05
4.10586e-05
9.44609e-05
9.98743e-05
3.67177e-05
4.1059e-05
9.44833e-05
2.03198e-05
5.07512e-05
7.91032e-05
2.03218e-05
7.90861e-05
2.03199e-05
7.90759e-05
5.07519e-05
2.03179e-05
7.90931e-05
3.67207e-05
9.98677e-05
4.10628e-05
9.45037e-05
3.67204e-05
4.10626e-05
9.44814e-05
3.6715e-05
4.10555e-05
9.44491e-05
9.98711e-05
3.67161e-05
4.10614e-05
9.44717e-05
2.03191e-05
5.07456e-05
7.90808e-05
7.90642e-05
2.03211e-05
2.03192e-05
7.9054e-05
5.07465e-05
2.03172e-05
7.90706e-05
3.67193e-05
9.98639e-05
4.10655e-05
9.44916e-05
4.10598e-05
9.44698e-05
3.67187e-05
2.38944e-05
2.38943e-05
0.000105256
0.000128877
7.79024e-05
4.8655e-05
0.000128826
4.86477e-05
0.000105274
0.000105253
0.00012891
7.79246e-05
4.86629e-05
4.86634e-05
0.000128858
0.000105271
0.000128762
7.79007e-05
0.000128815
8.15e-05
2.17108e-05
2.17139e-05
2.17089e-05
2.17119e-05
8.15067e-05
2.38961e-05
3.67083e-05
9.98095e-05
4.1057e-05
9.44458e-05
4.10505e-05
9.44235e-05
3.67145e-05
2.03155e-05
7.90577e-05
5.07353e-05
7.90406e-05
2.03175e-05
3.67201e-05
9.44501e-05
4.10547e-05
9.98696e-05
3.67131e-05
9.44819e-05
4.10609e-05
2.03202e-05
5.07489e-05
7.90991e-05
2.03222e-05
7.90815e-05
2.03203e-05
7.90716e-05
5.07454e-05
2.03183e-05
7.90889e-05
3.67179e-05
9.98627e-05
9.45033e-05
4.10653e-05
3.67229e-05
9.44716e-05
4.10593e-05
3.67163e-05
4.10546e-05
9.44459e-05
9.98635e-05
3.67145e-05
4.10607e-05
9.44677e-05
2.03192e-05
5.0745e-05
7.90782e-05
7.90614e-05
2.03212e-05
2.03193e-05
7.90512e-05
5.07413e-05
2.03173e-05
7.90682e-05
3.67185e-05
9.98633e-05
4.10649e-05
9.44877e-05
4.10591e-05
9.44661e-05
3.67189e-05
2.03202e-05
5.07476e-05
7.90894e-05
7.90769e-05
2.03224e-05
3.67185e-05
9.98548e-05
9.44902e-05
4.10645e-05
9.446e-05
4.10583e-05
3.67226e-05
2.03194e-05
5.07461e-05
7.90788e-05
7.90621e-05
2.03214e-05
3.67156e-05
9.98646e-05
4.10651e-05
9.44905e-05
4.1059e-05
9.44686e-05
3.6722e-05
8.14837e-05
2.17077e-05
2.17109e-05
2.17057e-05
2.17089e-05
8.14901e-05
0.000105201
4.86431e-05
7.78829e-05
0.000128754
4.86434e-05
0.000128697
0.000105222
0.000105198
4.86552e-05
7.78959e-05
0.000128785
0.000128727
4.86561e-05
0.00010522
2.38913e-05
2.38936e-05
2.38933e-05
8.14992e-05
2.17075e-05
2.17108e-05
8.14927e-05
2.17095e-05
2.17127e-05
0.000105256
0.000128883
7.79108e-05
4.86552e-05
0.000128828
4.86484e-05
0.000105278
0.000105254
0.000128913
7.79244e-05
4.86646e-05
4.8665e-05
0.000128859
0.000105275
0.000105251
4.86461e-05
0.000128763
7.79044e-05
0.00012882
0.000105229
4.86493e-05
0.000105248
4.86609e-05
0.000128794
7.79187e-05
0.000105226
4.86603e-05
0.000128849
8.15014e-05
2.17113e-05
2.17145e-05
2.17093e-05
2.17126e-05
8.1508e-05
2.38958e-05
2.38955e-05
5.07378e-05
3.67166e-05
9.44574e-05
4.1058e-05
9.98586e-05
3.67179e-05
9.44788e-05
4.10576e-05
2.03208e-05
5.07477e-05
7.90995e-05
7.90828e-05
2.03228e-05
2.0321e-05
7.90724e-05
5.07485e-05
2.0319e-05
7.90897e-05
3.67214e-05
9.98572e-05
9.44988e-05
4.10615e-05
9.44773e-05
4.10616e-05
3.6721e-05
3.67169e-05
9.44364e-05
4.10575e-05
9.98491e-05
3.67127e-05
9.44599e-05
4.1057e-05
2.03189e-05
5.07446e-05
7.90768e-05
7.90596e-05
2.03209e-05
2.03191e-05
7.90496e-05
5.07409e-05
2.03171e-05
7.90667e-05
3.67142e-05
9.98463e-05
9.44799e-05
4.1061e-05
9.44564e-05
4.1061e-05
3.67209e-05
8.14971e-05
2.17122e-05
2.17089e-05
0.000105246
0.0001289
7.79159e-05
4.86653e-05
0.000105268
0.000128846
4.8658e-05
0.000105252
0.000128883
7.79109e-05
4.86511e-05
0.000105273
0.000128827
4.86514e-05
0.000105241
7.79104e-05
0.000128837
4.86609e-05
0.000105246
0.000128761
7.79048e-05
0.000128819
4.86467e-05
8.14985e-05
2.1714e-05
2.17107e-05
8.15057e-05
2.1712e-05
2.17088e-05
2.38944e-05
2.38941e-05
2.38934e-05
2.3893e-05
2.39007e-05
2.39009e-05
2.38987e-05
2.38989e-05
8.15217e-05
2.1718e-05
2.17146e-05
2.1716e-05
2.17127e-05
8.15286e-05
0.000105303
0.000128921
4.86656e-05
7.79476e-05
0.00010528
4.86726e-05
0.000128969
0.000105304
0.000128898
4.86531e-05
7.79413e-05
0.000105282
4.866e-05
0.000128952
8.15205e-05
2.17142e-05
2.17109e-05
8.15135e-05
2.17162e-05
2.17129e-05
0.000105306
4.8677e-05
7.79501e-05
0.000129029
4.86698e-05
0.000105329
0.000128982
0.000105308
4.86645e-05
7.79442e-05
0.000129012
4.86573e-05
0.00010533
0.000128959
2.39051e-05
2.3903e-05
8.15365e-05
2.17177e-05
2.17144e-05
8.15296e-05
2.17197e-05
2.17164e-05
0.000105354
4.86741e-05
0.000129042
7.79725e-05
0.000105332
4.86813e-05
0.000129088
0.000105355
4.86616e-05
0.000129019
7.79661e-05
0.000105333
4.86687e-05
0.00012907
3.67266e-05
9.99144e-05
4.10735e-05
9.45303e-05
4.10676e-05
9.451e-05
3.67257e-05
2.03229e-05
7.90741e-05
5.07562e-05
2.03209e-05
7.90906e-05
3.67221e-05
9.99219e-05
4.10638e-05
9.44905e-05
4.10693e-05
3.67229e-05
9.45119e-05
2.03227e-05
7.91e-05
5.07554e-05
7.90837e-05
2.03247e-05
3.67305e-05
4.10746e-05
9.454e-05
9.99729e-05
3.67315e-05
4.1075e-05
9.45606e-05
2.03272e-05
7.91151e-05
5.07711e-05
2.03252e-05
7.91312e-05
3.6729e-05
4.10719e-05
9.45284e-05
9.99699e-05
3.673e-05
4.10775e-05
9.4549e-05
2.03265e-05
7.9093e-05
5.07656e-05
2.03245e-05
7.91091e-05
8.15172e-05
2.17146e-05
2.17177e-05
2.17126e-05
2.17157e-05
8.15237e-05
0.000105301
0.000128888
4.86527e-05
7.79274e-05
4.86595e-05
0.000105283
0.000128938
0.000105299
0.00012892
4.86676e-05
7.79451e-05
0.000128972
0.000105281
4.86677e-05
8.15153e-05
2.17109e-05
2.1714e-05
2.17128e-05
8.15087e-05
2.17159e-05
0.000105309
4.8664e-05
7.79285e-05
0.000128999
4.86569e-05
0.000128949
0.000105326
0.000105307
4.8672e-05
7.79508e-05
0.000129032
0.000128981
4.86725e-05
0.000105324
2.39e-05
2.39002e-05
2.3903e-05
8.15318e-05
2.17144e-05
2.17175e-05
8.15254e-05
2.17164e-05
2.17194e-05
0.000105351
4.86612e-05
0.000129008
7.79523e-05
0.000129057
0.000105334
4.86682e-05
0.000105349
4.86769e-05
0.000129041
7.79704e-05
0.000105332
4.86765e-05
0.000129091
2.39043e-05
3.67262e-05
9.99147e-05
4.10728e-05
9.45267e-05
4.10669e-05
9.45064e-05
3.67253e-05
2.0323e-05
7.90712e-05
5.07509e-05
2.0321e-05
7.90881e-05
3.67218e-05
9.9915e-05
4.10631e-05
9.44868e-05
4.10687e-05
3.67224e-05
9.45083e-05
2.03228e-05
7.90973e-05
5.07545e-05
7.90809e-05
2.03248e-05
3.67341e-05
9.45304e-05
4.10714e-05
9.99688e-05
3.67276e-05
9.45596e-05
4.1077e-05
2.03276e-05
7.91104e-05
5.07643e-05
2.03256e-05
7.9127e-05
3.67286e-05
4.10712e-05
9.4525e-05
9.99628e-05
3.67296e-05
4.10768e-05
9.45457e-05
2.03266e-05
7.90902e-05
5.07603e-05
2.03246e-05
7.91064e-05
3.67246e-05
9.99059e-05
9.45292e-05
4.10726e-05
9.44999e-05
4.10663e-05
3.67296e-05
2.03242e-05
7.9087e-05
5.0758e-05
7.90991e-05
2.03221e-05
3.67262e-05
9.99131e-05
9.44806e-05
4.10627e-05
9.45102e-05
3.6722e-05
4.10684e-05
2.03239e-05
7.91086e-05
5.07572e-05
7.90965e-05
2.0326e-05
3.67228e-05
9.99118e-05
4.10733e-05
9.45296e-05
4.10672e-05
9.45082e-05
3.67293e-05
2.03232e-05
7.90719e-05
5.0752e-05
2.03212e-05
7.90885e-05
3.67258e-05
9.9917e-05
4.10637e-05
9.44887e-05
3.67202e-05
4.10691e-05
9.45109e-05
2.03231e-05
7.90977e-05
5.07556e-05
7.90816e-05
2.03251e-05
3.67326e-05
9.45192e-05
4.10707e-05
9.99614e-05
3.67291e-05
9.45478e-05
4.10766e-05
2.03278e-05
7.91057e-05
5.07674e-05
2.03257e-05
7.91176e-05
3.67329e-05
4.10716e-05
9.45262e-05
9.99668e-05
3.67264e-05
4.10773e-05
9.45488e-05
2.03268e-05
7.90909e-05
5.07614e-05
2.03249e-05
7.91069e-05
8.1518e-05
2.17149e-05
2.17181e-05
2.17129e-05
2.17162e-05
8.15247e-05
0.000105305
0.000128891
4.8653e-05
7.79312e-05
4.86599e-05
0.000105283
0.000128945
0.000105303
0.000128922
4.86691e-05
7.79455e-05
0.000128975
0.000105281
4.86689e-05
8.15165e-05
2.17111e-05
2.17144e-05
2.17131e-05
8.15098e-05
2.17163e-05
0.00010531
4.86644e-05
7.79368e-05
0.000129005
4.86575e-05
0.000128952
0.000105331
0.000105307
4.86732e-05
7.79504e-05
0.000129035
0.000128983
4.86735e-05
0.000105329
2.38999e-05
2.39002e-05
2.3902e-05
8.15327e-05
2.17147e-05
2.17179e-05
8.1526e-05
2.17166e-05
2.17199e-05
0.000105356
4.86618e-05
0.000129012
7.79562e-05
0.000129063
0.000105335
4.86687e-05
0.000105354
4.8678e-05
0.000129043
7.79702e-05
0.000105333
4.86777e-05
0.000129094
2.39043e-05
3.67286e-05
9.99086e-05
9.45375e-05
4.10696e-05
9.45173e-05
4.107e-05
3.67276e-05
2.03247e-05
7.90925e-05
5.07582e-05
7.91094e-05
2.03227e-05
3.67241e-05
9.99099e-05
9.44979e-05
4.10657e-05
9.45192e-05
3.67248e-05
4.10659e-05
2.03245e-05
7.91186e-05
5.07574e-05
7.9102e-05
2.03265e-05
3.67216e-05
9.98978e-05
9.4519e-05
4.10691e-05
9.44967e-05
4.10694e-05
3.67279e-05
2.03227e-05
7.90695e-05
5.07504e-05
2.03207e-05
7.90865e-05
3.67244e-05
9.99006e-05
9.44772e-05
4.10652e-05
3.67191e-05
9.45004e-05
4.10653e-05
2.03225e-05
7.90959e-05
5.0754e-05
7.90791e-05
2.03245e-05
3.67309e-05
9.45358e-05
4.10736e-05
9.99576e-05
3.6732e-05
9.45562e-05
4.10736e-05
2.03282e-05
7.91112e-05
5.07676e-05
2.03263e-05
7.91277e-05
3.67315e-05
9.45154e-05
4.10731e-05
9.99484e-05
3.67254e-05
9.45377e-05
4.10731e-05
2.03263e-05
7.90884e-05
5.07599e-05
2.03243e-05
7.91049e-05
2.38985e-05
2.38988e-05
2.38975e-05
2.38978e-05
8.15304e-05
2.17174e-05
2.17141e-05
8.15235e-05
2.17193e-05
2.17161e-05
0.000105346
4.86713e-05
0.000129029
7.79617e-05
0.000105324
0.00012908
4.86782e-05
0.000105351
4.86647e-05
0.00012901
7.79564e-05
0.000105331
0.000129062
4.86645e-05
2.39029e-05
2.39018e-05
0.000206569
0.000203205
0.000205526
0.000205526
0.000208946
0.000206284
0.000206285
0.000197396
0.000196401
0.000138548
0.000162107
0.000162096
0.000182634
0.000138507
0.000162188
0.000162178
0.000138441
0.000182232
0.000162059
0.000162046
0.000161977
0.000161962
0.000138484
0.000138442
0.000182255
0.000162018
0.000162042
0.000161959
0.000161994
0.000138475
0.000138442
0.000182245
0.000162047
0.000162069
0.000161962
0.000161985
0.000138482
0.000138434
0.000182226
0.000162049
0.000162039
0.000138473
0.000161965
0.000161954
0.00013856
0.000162121
0.000162106
0.000182647
0.000138517
0.000162197
0.000162185
0.000138551
0.0001621
0.00016213
0.000182622
0.000162186
0.000138516
0.000162161
0.000138557
0.000162102
0.000162124
0.000182668
0.000162208
0.000138516
0.000162186
0.000206575
0.000203212
0.000207175
0.000204758
0.000204758
0.000203987
0.000203986
0.000194396
0.0001954
0.000207173
0.000204756
0.000204758
0.000203985
0.000203989
0.000194396
0.0001954
0.000207181
0.000204765
0.000204769
0.000203993
0.000203998
0.000194405
0.000195408
0.000207173
0.000204765
0.000204766
0.000203993
0.000203995
0.000194405
0.000195408
0.00010356
0.00014755
0.000147518
0.000205524
0.000205526
0.000208938
0.000206282
0.000206283
0.000197396
0.000196401
0.000205533
0.000205537
0.000208953
0.000206292
0.000206296
0.000197404
0.000196409
0.000205532
0.000205534
0.000208944
0.00020629
0.000206292
0.000197404
0.000196409
0.000209526
0.000207039
0.00020704
0.000198387
0.000209518
0.000207037
0.000207039
0.000198387
0.000209532
0.000207047
0.00020705
0.000198395
0.000209523
0.000207045
0.000207047
0.000198395
0.000171951
0.000144416
0.000137881
0.000177246
0.000137823
0.000177242
0.000172013
0.000161156
0.00014783
0.000122855
0.000103701
0.000161132
0.000147863
0.000122908
0.000171837
0.000144397
0.000137745
0.000177047
0.000171778
0.000137806
0.000177054
0.000161264
0.000122962
0.000103698
0.00014797
0.000147934
0.000122911
0.000161295
0.000171945
0.000144416
0.00017724
0.000137886
0.000177238
0.00013783
0.000172007
0.000161174
0.00014784
0.000122863
0.000103704
0.000161111
0.000147875
0.000122914
0.000171833
0.000144395
0.000177037
0.000137755
0.000171772
0.000177048
0.000137815
0.000161251
0.000122967
0.0001037
0.000147976
0.000147939
0.000122918
0.000161316
0.000138581
0.000182654
0.000162326
0.000162315
0.000162246
0.000162234
0.000138621
0.000138285
0.000181798
0.000161771
0.000161758
0.000138328
0.000161685
0.000161672
0.000138408
0.000182222
0.000161827
0.000161812
0.000138364
0.000161912
0.000161898
0.000160692
0.00012274
0.000103559
0.000147552
0.000122686
0.000147492
0.000160719
0.000171469
0.000137593
0.000176623
0.000144226
0.00017141
0.000137661
0.000176696
0.000160963
0.000147769
0.00010363
0.000122856
0.000147705
0.000122804
0.000161025
0.000160863
0.000122745
0.000147597
0.000103635
0.000147659
0.00016083
0.0001228
0.000171591
0.000144226
0.000137739
0.000176877
0.000137674
0.000176805
0.000171653
0.000171457
0.00013758
0.000176617
0.000144222
0.000171393
0.000137647
0.000176688
0.000160961
0.000147729
0.000103607
0.000122838
0.000122786
0.000147686
0.000160983
0.00016084
0.000122728
0.000147575
0.000103612
0.000160819
0.000122781
0.000147626
0.000171571
0.000144221
0.000137726
0.000176871
0.000137661
0.0001768
0.000171636
0.000182206
0.000161822
0.000161879
0.000171171
0.000144025
0.000137581
0.000176514
0.000137488
0.000176381
0.000171332
0.000160619
0.000122739
0.00010355
0.000147541
0.000122673
0.000147476
0.000160771
0.000171202
0.000144035
0.000176435
0.000137558
0.00017644
0.000137492
0.000171267
0.000160681
0.00012272
0.000103541
0.000147508
0.000122667
0.000160683
0.000147479
0.000171548
0.000137571
0.000176584
0.00014422
0.000171348
0.000137663
0.000176718
0.000160897
0.000147754
0.000103622
0.000122854
0.000147696
0.00012279
0.00016104
0.000160923
0.000122733
0.000147581
0.000103626
0.000147644
0.000160753
0.000122796
0.000171493
0.00014422
0.000137743
0.000176915
0.000137654
0.000176784
0.000171719
0.000171448
0.000176647
0.000137578
0.000144208
0.000171397
0.000176656
0.000137642
0.000160961
0.000147731
0.000103613
0.000122837
0.000122785
0.000147699
0.000160983
0.000160837
0.000122728
0.000147592
0.000103616
0.000160822
0.00012278
0.000147625
0.000171586
0.000144228
0.000176851
0.000137722
0.000176842
0.000137657
0.000171632
0.000160985
0.000147756
0.00010363
0.000122853
0.000161009
0.000147724
0.000122798
0.000171599
0.00014423
0.00013773
0.000176857
0.000171657
0.000137665
0.000176855
0.000160959
0.00014776
0.000103618
0.000122845
0.000122792
0.000147699
0.000161022
0.000171595
0.000144233
0.000176867
0.000137728
0.000176859
0.000137664
0.000171658
0.000138283
0.000181799
0.000161756
0.000161779
0.000161694
0.00016167
0.000138328
0.000138406
0.000182242
0.000161815
0.000161838
0.000161901
0.000138364
0.000161924
0.000171475
0.000176653
0.000137594
0.00014421
0.000171417
0.000176661
0.000137659
0.000160977
0.000147765
0.000103632
0.000122858
0.000161036
0.000147733
0.000122806
0.000160878
0.000122749
0.000147621
0.000103635
0.000160852
0.000147656
0.000122802
0.000171599
0.000144229
0.000176845
0.000137738
0.000171658
0.000176843
0.000137673
0.000171458
0.000176652
0.000137573
0.000144202
0.000171401
0.000176658
0.000137639
0.000160949
0.000147734
0.000103613
0.000122837
0.000122784
0.0001477
0.000161011
0.000160848
0.000122728
0.000147584
0.000103616
0.000160818
0.00012278
0.000147622
0.000171584
0.000144222
0.000176852
0.000137718
0.000176845
0.000137653
0.00017164
0.000138399
0.00018222
0.000161806
0.000161907
0.000161893
0.00013859
0.00018267
0.000162335
0.000162324
0.000138631
0.000162261
0.000162246
0.000138703
0.000183071
0.000162399
0.000162384
0.000138662
0.000162472
0.000162461
0.000171942
0.00014441
0.000137889
0.000177273
0.000137832
0.000177197
0.000172011
0.000161168
0.000147812
0.00012286
0.000103704
0.000122912
0.0001611
0.000147876
0.000171836
0.00014441
0.000137755
0.000177005
0.000137817
0.000171767
0.000177079
0.000161239
0.000122966
0.000103698
0.000147979
0.000122915
0.000147922
0.000161305
0.000171929
0.000144405
0.000137877
0.000177267
0.000137819
0.000177192
0.000171995
0.000161124
0.000147789
0.000122842
0.00010368
0.0001611
0.000122894
0.000147833
0.000171819
0.000144405
0.000137742
0.000177
0.000171752
0.000137805
0.000177073
0.00016124
0.000122948
0.000103675
0.000147937
0.000122898
0.00016127
0.000147894
0.000172188
0.000137907
0.000177385
0.000144587
0.000172116
0.000137964
0.000177462
0.000161446
0.000122969
0.000148024
0.000103768
0.00014808
0.000161376
0.000123019
0.000172172
0.000137894
0.00017738
0.000144583
0.000172103
0.000137951
0.000177456
0.000161416
0.000122952
0.000147995
0.000103744
0.00016136
0.000123001
0.000148034
0.000138588
0.000182682
0.000162309
0.000162325
0.000162266
0.000162239
0.000138626
0.000138698
0.000183049
0.000162378
0.000162402
0.000162447
0.000138658
0.000162464
0.000171873
0.000144406
0.000137898
0.000177289
0.000137806
0.000177167
0.000172069
0.000161189
0.000147797
0.000122848
0.000103695
0.000122909
0.000161047
0.000147861
0.000171883
0.000144406
0.000137732
0.000176975
0.000137822
0.000171695
0.000177105
0.000161193
0.000122964
0.00010369
0.000147966
0.000122903
0.000147906
0.000161338
0.000171938
0.000144415
0.000177243
0.000137875
0.000177238
0.000137817
0.000171995
0.000161124
0.000147802
0.000122841
0.000103684
0.000161103
0.000122893
0.000147837
0.000171817
0.000144395
0.000177035
0.000137739
0.000171762
0.00017705
0.000137802
0.000161243
0.000122947
0.00010368
0.000147939
0.000122897
0.000161271
0.000147905
0.000172233
0.000137882
0.000177363
0.000144584
0.000172039
0.000137975
0.000177482
0.000161473
0.000122957
0.000148006
0.000103759
0.000148067
0.000161319
0.000123016
0.000172174
0.000177418
0.000137891
0.000144572
0.000172114
0.000177431
0.000137948
0.000161417
0.000122951
0.000148005
0.000103748
0.000161364
0.000123
0.000148042
0.00017195
0.000144419
0.000177253
0.000137879
0.000177243
0.000137821
0.000172013
0.00016116
0.000147809
0.000122848
0.000103691
0.000147862
0.000161091
0.000122901
0.000171837
0.0001444
0.000177043
0.000137744
0.000177059
0.00017177
0.000137807
0.000161235
0.000122954
0.000103686
0.000147966
0.000147909
0.000122904
0.000161301
0.00017219
0.000137898
0.000177423
0.000144574
0.000172124
0.000137955
0.000177433
0.000161444
0.000122964
0.000148036
0.000103766
0.000161387
0.00014808
0.000123015
0.00017219
0.00017741
0.000137898
0.000144576
0.000172122
0.000177454
0.000137956
0.00016144
0.000122958
0.000148006
0.000103756
0.00016137
0.000123008
0.000148071
0.00013859
0.000182661
0.000162323
0.000162346
0.000162264
0.000162241
0.000138631
0.000138702
0.000183074
0.000162379
0.000162402
0.00016246
0.000138662
0.000162483
0.000171937
0.000144409
0.000177244
0.00013787
0.000177236
0.000137812
0.000171997
0.000161149
0.000147805
0.000122841
0.000103685
0.00014785
0.000161078
0.000122893
0.000171823
0.000144389
0.000177037
0.000137734
0.000177051
0.000171763
0.000137797
0.000161222
0.000122946
0.000103681
0.000147945
0.000147904
0.000122896
0.000161288
0.000172187
0.000177419
0.000137907
0.000144572
0.000172121
0.000177427
0.000137963
0.000161455
0.000122972
0.000148041
0.000103768
0.000161387
0.000148081
0.00012302
0.000172175
0.000177401
0.000137886
0.000144565
0.00017211
0.000177445
0.000137943
0.000161428
0.00012295
0.000148004
0.000103749
0.000161359
0.000123
0.00014804
0.000138693
0.000183056
0.000162382
0.000162369
0.000138652
0.000162462
0.000162451
0.000210661
0.000202718
0.000202727
0.00018328
0.000212848
0.000203882
0.000203892
0.000184055
0.000214927
0.00020497
0.000204979
0.000184746
0.000216895
0.000205981
0.00020599
0.000185388
0.000218754
0.000206918
0.000206926
0.000185989
0.000220505
0.000207775
0.000207783
0.000186575
0.000222149
0.00020856
0.000208568
0.00018706
0.000223688
0.000209274
0.000209282
0.000187495
0.000225124
0.000209918
0.000209926
0.000187878
0.00022646
0.000210493
0.000210501
0.000188215
0.000227698
0.000211
0.000211008
0.000188539
0.000228832
0.00021144
0.000211448
0.000188795
0.000229857
0.000211829
0.000211837
0.000188954
0.000230789
0.000212161
0.000212168
0.000189085
0.000231633
0.000212436
0.000212442
0.000189181
0.000232389
0.000212657
0.00021266
0.000189247
0.000233058
0.000212826
0.000212828
0.000189281
0.000233649
0.000212942
0.000212946
0.000189279
0.000234286
0.00021318
0.000213187
0.000189239
0.000233962
0.000213687
0.000213697
0.000193755
0.000183275
0.000202398
0.000202378
0.000183257
0.00020241
0.000202386
0.000202411
0.000202388
0.000183278
0.000202422
0.000202398
0.00018326
0.000183298
0.000184057
0.000202704
0.000202684
0.00020358
0.000203559
0.000183294
0.000184043
0.000202716
0.000202692
0.000203592
0.000203568
0.000202694
0.000203594
0.00020357
0.000183297
0.000184059
0.000202704
0.000203604
0.000203581
0.000184043
0.000184072
0.00018479
0.000203868
0.000203847
0.000204684
0.000204664
0.000184066
0.000184757
0.00020388
0.000203856
0.000204697
0.000204673
0.000203858
0.000204698
0.000204674
0.000184073
0.000184795
0.000203869
0.000204709
0.000204685
0.000184779
0.000184765
0.000185429
0.000204955
0.000204934
0.000205711
0.00020569
0.000184783
0.000185421
0.000204968
0.000204943
0.000205724
0.000205699
0.000204944
0.000205726
0.0002057
0.000184762
0.000185473
0.000204956
0.000205735
0.000205712
0.000185458
0.000185443
0.000186043
0.000205966
0.000205945
0.000206661
0.00020664
0.000185441
0.000186035
0.000205979
0.000205954
0.000206675
0.00020665
0.000205955
0.000206676
0.00020665
0.000185402
0.000186083
0.000205966
0.000206685
0.000206662
0.000186069
0.000186042
0.000186597
0.000206903
0.000206882
0.000207541
0.00020752
0.000186037
0.000186592
0.000206916
0.000206891
0.000207554
0.000207529
0.000206892
0.000207556
0.000207529
0.000186
0.000186639
0.000206903
0.000207565
0.000207542
0.000186591
0.000186584
0.000187146
0.000207759
0.000207738
0.000208348
0.000208326
0.000186578
0.000187095
0.000207774
0.000207747
0.000208361
0.000208335
0.000207749
0.000208362
0.000208336
0.000186542
0.000187142
0.00020776
0.000208371
0.000208348
0.000187088
0.000187033
0.000187593
0.000208544
0.000208523
0.000209082
0.00020906
0.000187066
0.000187544
0.000208559
0.000208532
0.000209096
0.000209069
0.000208534
0.000209097
0.00020907
0.00018703
0.00018759
0.000208545
0.000209105
0.000209083
0.000187537
0.000187469
0.00018799
0.000209258
0.000209236
0.000209746
0.000209724
0.000187501
0.000187938
0.000209273
0.000209246
0.00020976
0.000209733
0.000209247
0.00020976
0.000209734
0.000187465
0.000187987
0.00020926
0.000209769
0.000209747
0.000187934
0.000187853
0.000188338
0.000209902
0.00020988
0.000210342
0.000210321
0.000187843
0.000188331
0.000209917
0.00020989
0.000210357
0.000210329
0.000209891
0.000210358
0.000210331
0.000187849
0.000188335
0.000209904
0.000210366
0.000210344
0.00018828
0.000188187
0.000188654
0.000210478
0.000210455
0.000210876
0.000210854
0.000188179
0.000188645
0.000210492
0.000210464
0.000210892
0.000210863
0.000210466
0.000210892
0.000210865
0.000188183
0.00018865
0.000210479
0.0002109
0.000210878
0.000188576
0.000188481
0.000188907
0.000210984
0.000210962
0.000211349
0.000211326
0.000188472
0.000188897
0.000211
0.000210971
0.000211364
0.000211335
0.000210973
0.000211364
0.000211337
0.000188481
0.000188898
0.000210986
0.000211373
0.00021135
0.000188805
0.000188727
0.00018908
0.000211425
0.000211402
0.000211752
0.000211728
0.000188717
0.000189075
0.00021144
0.000211411
0.000211767
0.000211738
0.000211412
0.000211767
0.000211739
0.000188727
0.000189079
0.000211426
0.000211775
0.000211753
0.000189021
0.00018893
0.000189223
0.000211813
0.00021179
0.000212092
0.000212067
0.000188922
0.000189215