/*--------------------------------*- C++ -*----------------------------------*\
| =========                 |                                                 |
| \\      /  F ield         | OpenFOAM: The Open Source CFD Toolbox           |
|  \\    /   O peration     | Version:  2312                                  |
|   \\  /    A nd           | Website:  www.openfoam.com                      |
|    \\/     M anipulation  |                                                 |
\*---------------------------------------------------------------------------*/
FoamFile
{
    version     2.0;
    format      ascii;
    arch        "LSB;label=32;scalar=64";
    class       volScalarField;
    location    "250";
    object      epsilon;
}
// * * * * * * * * * * * * * * * * * * * * * * * * * * * * * * * * * * * * * //

dimensions      [0 2 -3 0 0 0 0];

internalField   nonuniform List<scalar> 
172512
(
4.9917e-07
4.99974e-07
4.99974e-07
4.99867e-07
4.45574e-07
4.54107e-07
4.54107e-07
4.63745e-07
4.03788e-07
4.18744e-07
4.18746e-07
4.39534e-07
3.68405e-07
3.88705e-07
3.88708e-07
4.17793e-07
3.38054e-07
3.62209e-07
3.62212e-07
3.96187e-07
3.11679e-07
3.38348e-07
3.38352e-07
3.74663e-07
2.885e-07
3.16691e-07
3.16695e-07
3.53771e-07
2.67943e-07
2.9706e-07
2.97064e-07
3.34192e-07
2.49595e-07
2.79397e-07
2.794e-07
3.16515e-07
2.33147e-07
2.63696e-07
2.637e-07
3.01182e-07
2.18372e-07
2.49965e-07
2.49969e-07
2.88501e-07
2.05093e-07
2.38204e-07
2.38208e-07
2.78703e-07
1.93172e-07
2.28412e-07
2.28417e-07
2.71878e-07
1.82496e-07
2.20599e-07
2.20603e-07
2.68163e-07
1.72975e-07
2.1477e-07
2.14775e-07
2.67637e-07
1.64535e-07
2.10933e-07
2.10938e-07
2.70479e-07
1.57114e-07
2.09104e-07
2.09109e-07
2.76691e-07
1.50659e-07
2.09294e-07
2.093e-07
2.86283e-07
1.45125e-07
2.11549e-07
2.11557e-07
2.99238e-07
1.40479e-07
2.15888e-07
2.15896e-07
3.1562e-07
1.3669e-07
2.22329e-07
2.22339e-07
3.35378e-07
1.33734e-07
2.30889e-07
2.309e-07
3.5841e-07
1.3159e-07
2.41557e-07
2.4157e-07
3.84555e-07
1.30243e-07
2.54312e-07
2.54328e-07
4.13557e-07
1.29681e-07
2.69109e-07
2.69127e-07
4.45078e-07
1.29906e-07
2.85882e-07
2.85904e-07
4.78726e-07
1.30894e-07
3.04545e-07
3.0457e-07
5.14071e-07
1.32649e-07
3.24993e-07
3.25022e-07
5.50669e-07
1.35171e-07
3.47107e-07
3.47142e-07
5.88076e-07
1.38461e-07
3.70752e-07
3.7079e-07
6.25857e-07
1.42521e-07
3.9578e-07
3.95823e-07
6.63645e-07
1.47358e-07
4.22032e-07
4.22084e-07
7.01104e-07
1.52975e-07
4.49346e-07
4.49402e-07
7.37961e-07
1.59378e-07
4.77549e-07
4.77611e-07
7.73993e-07
1.66575e-07
5.06469e-07
5.0654e-07
8.09078e-07
1.7457e-07
5.35924e-07
5.36001e-07
8.43024e-07
1.83357e-07
5.65747e-07
5.65826e-07
8.75835e-07
1.92931e-07
5.95747e-07
5.95831e-07
9.07454e-07
2.03285e-07
6.25763e-07
6.25858e-07
9.37879e-07
2.14406e-07
6.55646e-07
6.55738e-07
9.67074e-07
2.26271e-07
6.8523e-07
6.85339e-07
9.95095e-07
2.38837e-07
7.14382e-07
7.14486e-07
1.02189e-06
2.52112e-07
7.43002e-07
7.43122e-07
1.04757e-06
2.65994e-07
7.7095e-07
7.71062e-07
1.07211e-06
2.8047e-07
7.98102e-07
7.98245e-07
1.09551e-06
2.95495e-07
8.24551e-07
8.2468e-07
1.11804e-06
3.10907e-07
8.49814e-07
8.49946e-07
1.13908e-06
3.26817e-07
8.7454e-07
8.74689e-07
1.15999e-06
3.42992e-07
8.97655e-07
8.97793e-07
1.17835e-06
3.59538e-07
9.20369e-07
9.20462e-07
1.19794e-06
3.76438e-07
9.41059e-07
9.41285e-07
1.2135e-06
3.93291e-07
9.61178e-07
9.61198e-07
1.23063e-06
4.10707e-07
9.78943e-07
9.79236e-07
1.24554e-06
4.27358e-07
9.94536e-07
9.94545e-07
1.25207e-06
4.50902e-07
1.03039e-06
1.03055e-06
1.31223e-06
4.57695e-07
1.0169e-06
1.01713e-06
1.28572e-06
4.5409e-07
9.84952e-07
9.85003e-07
1.21869e-06
4.6715e-07
9.98574e-07
9.98699e-07
1.23452e-06
4.96708e-07
1.04318e-06
1.04334e-06
1.30492e-06
5.23383e-07
1.07806e-06
1.07815e-06
1.36218e-06
5.35579e-07
1.09324e-06
1.09333e-06
1.3898e-06
5.38752e-07
1.09627e-06
1.09639e-06
1.39654e-06
5.38769e-07
1.09555e-06
1.09568e-06
1.39538e-06
5.38471e-07
1.09492e-06
1.09503e-06
1.39416e-06
5.38534e-07
1.09502e-06
1.09512e-06
1.39425e-06
5.38729e-07
1.09528e-06
1.09539e-06
1.39474e-06
5.38833e-07
1.09539e-06
1.0955e-06
1.39497e-06
5.38851e-07
1.09542e-06
1.09553e-06
1.39504e-06
5.38859e-07
1.09543e-06
1.09555e-06
1.39506e-06
5.38861e-07
1.09544e-06
1.09556e-06
1.3951e-06
5.38859e-07
1.09544e-06
1.09555e-06
1.39507e-06
5.38859e-07
1.09544e-06
1.09555e-06
1.39506e-06
5.38858e-07
1.09544e-06
1.09555e-06
1.39507e-06
5.38859e-07
1.09545e-06
1.09556e-06
1.39508e-06
5.38679e-07
1.09529e-06
1.0954e-06
1.39496e-06
5.38712e-07
1.09533e-06
1.09544e-06
1.39507e-06
5.3873e-07
1.09534e-06
1.09544e-06
1.39502e-06
5.38731e-07
1.09534e-06
1.09544e-06
1.39495e-06
5.38729e-07
1.0953e-06
1.09541e-06
1.3949e-06
5.38734e-07
1.09527e-06
1.09537e-06
1.39489e-06
5.3877e-07
1.09531e-06
1.09541e-06
1.39495e-06
5.38816e-07
1.09538e-06
1.0955e-06
1.39503e-06
5.38838e-07
1.09541e-06
1.09553e-06
1.39502e-06
5.38842e-07
1.09543e-06
1.09553e-06
1.395e-06
5.3884e-07
1.09543e-06
1.09554e-06
1.39501e-06
5.38835e-07
1.09543e-06
1.09553e-06
1.39513e-06
5.38828e-07
1.09541e-06
1.09552e-06
1.39515e-06
5.38824e-07
1.09541e-06
1.09552e-06
1.39512e-06
5.38824e-07
1.09541e-06
1.09552e-06
1.39509e-06
5.38828e-07
1.09542e-06
1.09553e-06
1.39505e-06
5.38834e-07
1.09543e-06
1.09554e-06
1.39503e-06
5.38848e-07
1.09545e-06
1.09556e-06
1.39499e-06
5.38849e-07
1.09545e-06
1.09556e-06
1.39495e-06
5.37655e-07
1.09377e-06
1.09387e-06
1.39439e-06
6.1101e-07
1.0003e-06
1.00037e-06
1.33484e-06
5.06203e-07
5.05587e-07
5.05586e-07
5.06203e-07
5.05586e-07
5.05586e-07
5.05987e-07
5.05987e-07
5.05987e-07
5.05987e-07
5.05588e-07
5.05588e-07
5.06203e-07
5.05588e-07
5.05587e-07
5.06204e-07
4.99868e-07
4.67259e-07
4.99975e-07
4.99976e-07
4.6413e-07
4.64138e-07
4.99868e-07
4.67258e-07
4.99976e-07
4.99976e-07
4.64134e-07
4.64139e-07
4.99974e-07
4.64124e-07
4.64129e-07
4.99867e-07
4.67261e-07
4.99976e-07
4.64125e-07
4.64134e-07
4.67263e-07
4.63745e-07
4.41544e-07
4.54112e-07
4.5412e-07
4.26998e-07
4.27007e-07
4.63745e-07
4.41543e-07
4.54116e-07
4.54123e-07
4.26998e-07
4.27009e-07
4.54113e-07
4.2699e-07
4.27e-07
4.63745e-07
4.41549e-07
4.54116e-07
4.26992e-07
4.27001e-07
4.41556e-07
4.39527e-07
4.19399e-07
4.18753e-07
4.18761e-07
3.95843e-07
3.95852e-07
4.3953e-07
4.19402e-07
4.18752e-07
4.18764e-07
3.95838e-07
3.95855e-07
4.18757e-07
3.95833e-07
3.95848e-07
4.39531e-07
4.19407e-07
4.18755e-07
3.95835e-07
3.95843e-07
4.19415e-07
4.17778e-07
3.97737e-07
3.88717e-07
3.88725e-07
3.68574e-07
3.68582e-07
4.17781e-07
3.97742e-07
3.8871e-07
3.88728e-07
3.68564e-07
3.68585e-07
3.88722e-07
3.68561e-07
3.68581e-07
4.17786e-07
3.97748e-07
3.88716e-07
3.68564e-07
3.68571e-07
3.97758e-07
3.96168e-07
3.76152e-07
3.62222e-07
3.6223e-07
3.4411e-07
3.44117e-07
3.96173e-07
3.76157e-07
3.62212e-07
3.62234e-07
3.44097e-07
3.44121e-07
3.6223e-07
3.44096e-07
3.44118e-07
3.96178e-07
3.76164e-07
3.62219e-07
3.44099e-07
3.44106e-07
3.76175e-07
3.74642e-07
3.55155e-07
3.38363e-07
3.3837e-07
3.21928e-07
3.21933e-07
3.74647e-07
3.55161e-07
3.38349e-07
3.38374e-07
3.21911e-07
3.21937e-07
3.38371e-07
3.21912e-07
3.21936e-07
3.74653e-07
3.55168e-07
3.38358e-07
3.21915e-07
3.21921e-07
3.5518e-07
3.53749e-07
3.35422e-07
3.16708e-07
3.16714e-07
3.01799e-07
3.01804e-07
3.53755e-07
3.35427e-07
3.16691e-07
3.16717e-07
3.01781e-07
3.01808e-07
3.16716e-07
3.01783e-07
3.01807e-07
3.53761e-07
3.35436e-07
3.16701e-07
3.01786e-07
3.01791e-07
3.35446e-07
3.34168e-07
3.17548e-07
2.97077e-07
2.97082e-07
2.83646e-07
2.83651e-07
3.34176e-07
3.17552e-07
2.97058e-07
2.97085e-07
2.83626e-07
2.83655e-07
2.97085e-07
2.83629e-07
2.83655e-07
3.34182e-07
3.1756e-07
2.97068e-07
2.83632e-07
2.83637e-07
3.17571e-07
3.16491e-07
3.01978e-07
2.79415e-07
2.7942e-07
2.67455e-07
2.6746e-07
3.16498e-07
3.01984e-07
2.79394e-07
2.79422e-07
2.67434e-07
2.67463e-07
2.79423e-07
2.67437e-07
2.67463e-07
3.16506e-07
3.0199e-07
2.79405e-07
2.6744e-07
2.67445e-07
3.02002e-07
3.01157e-07
2.89036e-07
2.63716e-07
2.6372e-07
2.53233e-07
2.53237e-07
3.01164e-07
2.89039e-07
2.63694e-07
2.63723e-07
2.5321e-07
2.53241e-07
2.63723e-07
2.53213e-07
2.5324e-07
3.0117e-07
2.89053e-07
2.63704e-07
2.53217e-07
2.53221e-07
2.89059e-07
2.8848e-07
2.78932e-07
2.49986e-07
2.49991e-07
2.4098e-07
2.40986e-07
2.88488e-07
2.78948e-07
2.49962e-07
2.49993e-07
2.40955e-07
2.40989e-07
2.49993e-07
2.4096e-07
2.40987e-07
2.88497e-07
2.78952e-07
2.49974e-07
2.40962e-07
2.40967e-07
2.78963e-07
2.78674e-07
2.71807e-07
2.38226e-07
2.38231e-07
2.30696e-07
2.30702e-07
2.78688e-07
2.71813e-07
2.38202e-07
2.38234e-07
2.30671e-07
2.30705e-07
2.38233e-07
2.30673e-07
2.30704e-07
2.78691e-07
2.71821e-07
2.38213e-07
2.30676e-07
2.30683e-07
2.71841e-07
2.71847e-07
2.67842e-07
2.28437e-07
2.28443e-07
2.22389e-07
2.22397e-07
2.71853e-07
2.67848e-07
2.28411e-07
2.28445e-07
2.22362e-07
2.224e-07
2.28444e-07
2.22364e-07
2.22396e-07
2.7186e-07
2.67858e-07
2.28423e-07
2.22367e-07
2.22375e-07
2.67871e-07
2.68136e-07
2.66954e-07
2.20625e-07
2.20634e-07
2.16064e-07
2.16075e-07
2.68145e-07
2.66968e-07
2.20598e-07
2.20635e-07
2.16035e-07
2.16078e-07
2.20633e-07
2.16037e-07
2.16071e-07
2.68151e-07
2.66979e-07
2.20611e-07
2.1604e-07
2.16049e-07
2.66987e-07
2.67602e-07
2.69109e-07
2.14798e-07
2.14809e-07
2.11726e-07
2.11741e-07
2.67617e-07
2.69121e-07
2.1477e-07
2.14813e-07
2.11698e-07
2.11743e-07
2.14806e-07
2.11697e-07
2.11734e-07
2.67629e-07
2.69129e-07
2.14784e-07
2.11701e-07
2.11714e-07
2.69151e-07
2.70436e-07
2.74618e-07
2.10962e-07
2.10979e-07
2.0939e-07
2.09414e-07
2.70452e-07
2.74638e-07
2.10935e-07
2.10981e-07
2.09364e-07
2.09414e-07
2.10971e-07
2.09361e-07
2.09398e-07
2.70463e-07
2.74647e-07
2.10951e-07
2.09365e-07
2.09381e-07
2.74665e-07
2.76646e-07
2.83504e-07
2.09132e-07
2.09157e-07
2.091e-07
2.09129e-07
2.7667e-07
2.83526e-07
2.09108e-07
2.09158e-07
2.09075e-07
2.09129e-07
2.09142e-07
2.09069e-07
2.0911e-07
2.76676e-07
2.83538e-07
2.09125e-07
2.09075e-07
2.09095e-07
2.8356e-07
2.86228e-07
2.95774e-07
2.09327e-07
2.09356e-07
2.10821e-07
2.10855e-07
2.86258e-07
2.95798e-07
2.09302e-07
2.09357e-07
2.10795e-07
2.10855e-07
2.09336e-07
2.10785e-07
2.10829e-07
2.86265e-07
2.95812e-07
2.09322e-07
2.10792e-07
2.10817e-07
2.95835e-07
2.99177e-07
3.11461e-07
2.11587e-07
2.11622e-07
2.1464e-07
2.14683e-07
2.99206e-07
3.11485e-07
2.11561e-07
2.11622e-07
2.14614e-07
2.14682e-07
2.11596e-07
2.14602e-07
2.1465e-07
2.99216e-07
3.11503e-07
2.11584e-07
2.14609e-07
2.1464e-07
3.11527e-07
3.15557e-07
3.30528e-07
2.15929e-07
2.1597e-07
2.20565e-07
2.20609e-07
3.15584e-07
3.30544e-07
2.15903e-07
2.15971e-07
2.20537e-07
2.20611e-07
2.15939e-07
2.20521e-07
2.20575e-07
3.15599e-07
3.30572e-07
2.15928e-07
2.2053e-07
2.20565e-07
3.30599e-07
3.35319e-07
3.52877e-07
2.2238e-07
2.22422e-07
2.28609e-07
2.28651e-07
3.35331e-07
3.52901e-07
2.22348e-07
2.22424e-07
2.28573e-07
2.28655e-07
2.22387e-07
2.28554e-07
2.28614e-07
3.35358e-07
3.52921e-07
2.22376e-07
2.28563e-07
2.28605e-07
3.5296e-07
3.58339e-07
3.78369e-07
2.30949e-07
2.30991e-07
2.38761e-07
2.38801e-07
3.58356e-07
3.78384e-07
2.30911e-07
2.30996e-07
2.38719e-07
2.38811e-07
2.30954e-07
2.38696e-07
2.38765e-07
3.58381e-07
3.78417e-07
2.30943e-07
2.38707e-07
2.38755e-07
3.78457e-07
3.84477e-07
4.06763e-07
2.41627e-07
2.41666e-07
2.51007e-07
2.51047e-07
3.84486e-07
4.06778e-07
2.41583e-07
2.41677e-07
2.50959e-07
2.51062e-07
2.4163e-07
2.50934e-07
2.51011e-07
3.84521e-07
4.06819e-07
2.41619e-07
2.50947e-07
2.50999e-07
4.06858e-07
4.13471e-07
4.37735e-07
2.54391e-07
2.54431e-07
2.65308e-07
2.65348e-07
4.13481e-07
4.37749e-07
2.54341e-07
2.54446e-07
2.65253e-07
2.65367e-07
2.54395e-07
2.65225e-07
2.65312e-07
4.13523e-07
4.37793e-07
2.5438e-07
2.65241e-07
2.65297e-07
4.37838e-07
4.44985e-07
4.70902e-07
2.69197e-07
2.69237e-07
2.81603e-07
2.81643e-07
4.44994e-07
4.70915e-07
2.69141e-07
2.69258e-07
2.81541e-07
2.81668e-07
2.69202e-07
2.81511e-07
2.81609e-07
4.45039e-07
4.70966e-07
2.69184e-07
2.8153e-07
2.81589e-07
4.71013e-07
4.78627e-07
5.05843e-07
2.8598e-07
2.8602e-07
2.99812e-07
2.99852e-07
4.78633e-07
5.0586e-07
2.85916e-07
2.86046e-07
2.99741e-07
2.99881e-07
2.85987e-07
2.9971e-07
2.9982e-07
4.78686e-07
5.05912e-07
2.85963e-07
2.99733e-07
2.99794e-07
5.05965e-07
5.13964e-07
5.42123e-07
3.04652e-07
3.04693e-07
3.19835e-07
3.19875e-07
5.13973e-07
5.42135e-07
3.0458e-07
3.04723e-07
3.19755e-07
3.19908e-07
3.04661e-07
3.19722e-07
3.19846e-07
5.14028e-07
5.42196e-07
3.04631e-07
3.1975e-07
3.19812e-07
5.42254e-07
5.50552e-07
5.79293e-07
3.2511e-07
3.25151e-07
3.41555e-07
3.41594e-07
5.5056e-07
5.79304e-07
3.25028e-07
3.25185e-07
3.41465e-07
3.41632e-07
3.25123e-07
3.41433e-07
3.4157e-07
5.50619e-07
5.79372e-07
3.25085e-07
3.41465e-07
3.41527e-07
5.79432e-07
5.87951e-07
6.16922e-07
3.47234e-07
3.47274e-07
3.6484e-07
3.64878e-07
5.87954e-07
6.16937e-07
3.47142e-07
3.47313e-07
3.64738e-07
3.64919e-07
3.47252e-07
3.64709e-07
3.64858e-07
5.88024e-07
6.17003e-07
3.47204e-07
3.64745e-07
3.64805e-07
6.17066e-07
6.25728e-07
6.5463e-07
3.70886e-07
3.70927e-07
3.89548e-07
3.89582e-07
6.25736e-07
6.5464e-07
3.70785e-07
3.7097e-07
3.89433e-07
3.89628e-07
3.70909e-07
3.89405e-07
3.89569e-07
6.25803e-07
6.54717e-07
3.7085e-07
3.89448e-07
3.89505e-07
6.54782e-07
6.63513e-07
6.92066e-07
3.95922e-07
3.95963e-07
4.15518e-07
4.15548e-07
6.63518e-07
6.92077e-07
3.95811e-07
3.96008e-07
4.15391e-07
4.15601e-07
3.9595e-07
4.15365e-07
4.15545e-07
6.63589e-07
6.92161e-07
3.9588e-07
4.15415e-07
4.15468e-07
6.92228e-07
7.0096e-07
7.28969e-07
4.22182e-07
4.2222e-07
4.42591e-07
4.42619e-07
7.00962e-07
7.28982e-07
4.22061e-07
4.22274e-07
4.42452e-07
4.42673e-07
4.22218e-07
4.42432e-07
4.42624e-07
7.01049e-07
7.29059e-07
4.22135e-07
4.42484e-07
4.42534e-07
7.29135e-07
7.37811e-07
7.65101e-07
4.49502e-07
4.49538e-07
4.70597e-07
4.70622e-07
7.37817e-07
7.65112e-07
4.49369e-07
4.49594e-07
4.70447e-07
4.70679e-07
4.49546e-07
4.70431e-07
4.70633e-07
7.37895e-07
7.65195e-07
4.49449e-07
4.70489e-07
4.70531e-07
7.65261e-07
7.73854e-07
8.003e-07
4.77712e-07
4.77744e-07
4.99359e-07
4.99379e-07
7.73855e-07
8.00311e-07
4.77569e-07
4.77805e-07
4.99198e-07
4.99441e-07
4.77758e-07
4.99187e-07
4.99406e-07
7.73935e-07
8.00402e-07
4.77649e-07
4.99252e-07
4.9929e-07
8.00479e-07
8.0892e-07
8.34438e-07
5.06635e-07
5.06664e-07
5.287e-07
5.28714e-07
8.08927e-07
8.34447e-07
5.06481e-07
5.06732e-07
5.2853e-07
5.28783e-07
5.06692e-07
5.28521e-07
5.28748e-07
8.09015e-07
8.34535e-07
5.0657e-07
5.28591e-07
5.2862e-07
8.34608e-07
8.42871e-07
8.67448e-07
5.36098e-07
5.36119e-07
5.5844e-07
5.58451e-07
8.42868e-07
8.6746e-07
5.35935e-07
5.36187e-07
5.58262e-07
5.58531e-07
5.36159e-07
5.5826e-07
5.58498e-07
8.42959e-07
8.67546e-07
5.36023e-07
5.58338e-07
5.58358e-07
8.67623e-07
8.75676e-07
8.99296e-07
5.65923e-07
5.65941e-07
5.88414e-07
5.8842e-07
8.75684e-07
8.99304e-07
5.65748e-07
5.66001e-07
5.88229e-07
5.88508e-07
5.6599e-07
5.88231e-07
5.88478e-07
8.75767e-07
8.99396e-07
5.65843e-07
5.88315e-07
5.88325e-07
8.99467e-07
9.07299e-07
9.29953e-07
5.95924e-07
5.95936e-07
6.18455e-07
6.18451e-07
9.073e-07
9.2995e-07
5.95742e-07
5.96002e-07
6.18263e-07
6.18545e-07
5.95999e-07
6.18262e-07
6.18519e-07
9.07391e-07
9.30047e-07
5.95839e-07
6.18362e-07
6.1836e-07
9.3012e-07
9.37728e-07
9.59381e-07
6.25953e-07
6.25953e-07
6.48374e-07
6.48375e-07
9.37716e-07
9.594e-07
6.25764e-07
6.26027e-07
6.48175e-07
6.4846e-07
6.26027e-07
6.48195e-07
6.48456e-07
9.37816e-07
9.59486e-07
6.2586e-07
6.4829e-07
6.48281e-07
9.59558e-07
9.66915e-07
9.87655e-07
6.55824e-07
6.55826e-07
6.78061e-07
6.78039e-07
9.66931e-07
9.87636e-07
6.55628e-07
6.55902e-07
6.77857e-07
6.78141e-07
6.55909e-07
6.7786e-07
6.78132e-07
9.67011e-07
9.87744e-07
6.55729e-07
6.77977e-07
6.77956e-07
9.87812e-07
9.94946e-07
1.01469e-06
6.8543e-07
6.85409e-07
7.07325e-07
7.07312e-07
9.94922e-07
1.0147e-06
6.85226e-07
6.85496e-07
7.07118e-07
7.07409e-07
6.85508e-07
7.07141e-07
7.07412e-07
9.95037e-07
1.01479e-06
6.85325e-07
7.07258e-07
7.07226e-07
1.01486e-06
1.02173e-06
1.04061e-06
7.14565e-07
7.14554e-07
7.36095e-07
7.36076e-07
1.02175e-06
1.0406e-06
7.14357e-07
7.14638e-07
7.35887e-07
7.36164e-07
7.14654e-07
7.35909e-07
7.36184e-07
1.02184e-06
1.04071e-06
7.14461e-07
7.36023e-07
7.35991e-07
1.04077e-06
1.04742e-06
1.06537e-06
7.43192e-07
7.43171e-07
7.64193e-07
7.64169e-07
1.04741e-06
1.06536e-06
7.42985e-07
7.43264e-07
7.63985e-07
7.64285e-07
7.43283e-07
7.6401e-07
7.64286e-07
1.04751e-06
1.06547e-06
7.43086e-07
7.64152e-07
7.64091e-07
1.06553e-06
1.07195e-06
1.08904e-06
7.71132e-07
7.71108e-07
7.91601e-07
7.91572e-07
1.07195e-06
1.08904e-06
7.70923e-07
7.71194e-07
7.91391e-07
7.91655e-07
7.71227e-07
7.91422e-07
7.91699e-07
1.07205e-06
1.08914e-06
7.71027e-07
7.91535e-07
7.915e-07
1.0892e-06
1.09536e-06
1.11171e-06
7.98284e-07
7.98253e-07
8.18179e-07
8.18141e-07
1.09535e-06
1.1117e-06
7.98075e-07
7.98369e-07
8.17969e-07
8.18254e-07
7.98382e-07
8.18006e-07
8.18277e-07
1.09546e-06
1.11181e-06
7.98179e-07
8.18141e-07
8.18075e-07
1.11187e-06
1.11789e-06
1.13311e-06
8.24728e-07
8.2469e-07
8.43779e-07
8.43734e-07
1.11788e-06
1.1331e-06
8.24517e-07
8.24791e-07
8.43567e-07
8.43834e-07
8.24827e-07
8.43598e-07
8.43872e-07
1.11798e-06
1.1332e-06
8.24621e-07
8.4373e-07
8.43671e-07
1.13326e-06
1.13893e-06
1.15401e-06
8.49988e-07
8.49941e-07
8.68609e-07
8.68548e-07
1.13892e-06
1.15399e-06
8.49776e-07
8.50051e-07
8.68398e-07
8.6867e-07
8.50084e-07
8.68444e-07
8.68709e-07
1.13902e-06
1.15414e-06
8.49878e-07
8.68581e-07
8.68506e-07
1.15417e-06
1.15985e-06
1.17299e-06
8.74713e-07
8.74654e-07
8.9224e-07
8.92194e-07
1.15984e-06
1.17301e-06
8.74501e-07
8.74779e-07
8.92025e-07
8.92273e-07
8.74808e-07
8.92068e-07
8.92332e-07
1.15996e-06
1.17305e-06
8.74602e-07
8.92183e-07
8.9213e-07
1.17315e-06
1.1782e-06
1.19209e-06
8.97849e-07
8.97786e-07
9.14727e-07
9.14632e-07
1.17819e-06
1.19202e-06
8.97637e-07
8.9788e-07
9.14513e-07
9.14799e-07
8.97947e-07
9.14579e-07
9.14808e-07
1.17825e-06
1.19224e-06
8.97746e-07
9.1473e-07
9.14603e-07
1.19221e-06
1.19783e-06
1.2091e-06
9.2046e-07
9.204e-07
9.3668e-07
9.36622e-07
1.19782e-06
1.20913e-06
9.20241e-07
9.20535e-07
9.36471e-07
9.36714e-07
9.20545e-07
9.36491e-07
9.36802e-07
1.198e-06
1.20916e-06
9.20325e-07
9.36643e-07
9.36603e-07
1.20932e-06
1.2133e-06
1.22453e-06
9.41323e-07
9.41223e-07
9.55566e-07
9.55473e-07
1.21326e-06
1.22449e-06
9.41122e-07
9.41347e-07
9.5535e-07
9.55581e-07
9.41429e-07
9.55417e-07
9.55607e-07
1.21334e-06
1.22458e-06
9.41249e-07
9.5551e-07
9.55401e-07
1.22457e-06
1.23062e-06
1.24325e-06
9.61261e-07
9.61196e-07
9.76599e-07
9.76512e-07
1.23064e-06
1.24324e-06
9.61032e-07
9.61278e-07
9.76385e-07
9.76673e-07
9.61296e-07
9.76409e-07
9.76731e-07
1.23068e-06
1.24344e-06
9.61064e-07
9.7663e-07
9.76542e-07
1.24351e-06
1.24527e-06
1.24458e-06
9.79178e-07
9.79065e-07
9.88246e-07
9.88143e-07
1.24521e-06
1.24453e-06
9.78978e-07
9.79258e-07
9.88042e-07
9.88251e-07
9.79322e-07
9.88122e-07
9.88324e-07
1.24547e-06
1.24461e-06
9.79159e-07
9.88216e-07
9.88127e-07
1.24468e-06
1.25202e-06
1.30164e-06
9.94623e-07
9.94534e-07
1.02313e-06
1.02306e-06
1.25206e-06
1.30173e-06
9.94406e-07
9.94602e-07
1.02289e-06
1.02312e-06
9.94677e-07
1.02303e-06
1.02318e-06
1.25201e-06
1.30168e-06
9.94452e-07
1.02305e-06
1.02294e-06
1.30176e-06
1.31206e-06
1.28949e-06
1.03055e-06
1.03047e-06
1.02615e-06
1.02607e-06
1.31207e-06
1.28944e-06
1.03032e-06
1.0306e-06
1.02596e-06
1.02626e-06
1.03063e-06
1.02597e-06
1.02626e-06
1.31219e-06
1.28974e-06
1.03044e-06
1.02627e-06
1.02613e-06
1.28972e-06
1.28551e-06
1.21936e-06
1.01705e-06
1.01697e-06
9.89541e-07
9.8944e-07
1.28547e-06
1.21932e-06
1.01686e-06
1.01713e-06
9.89362e-07
9.89525e-07
1.01714e-06
9.89432e-07
9.89579e-07
1.28575e-06
1.21934e-06
1.017e-06
9.89495e-07
9.89408e-07
1.21939e-06
1.21867e-06
1.22433e-06
9.85074e-07
9.84965e-07
9.91078e-07
9.90973e-07
1.21863e-06
1.22427e-06
9.84892e-07
9.8504e-07
9.90885e-07
9.91056e-07
9.85104e-07
9.90897e-07
9.91115e-07
1.21864e-06
1.22433e-06
9.84926e-07
9.90997e-07
9.90932e-07
1.22442e-06
1.23443e-06
1.29018e-06
9.98771e-07
9.98675e-07
1.03125e-06
1.03118e-06
1.23438e-06
1.29017e-06
9.98576e-07
9.98764e-07
1.03105e-06
1.03129e-06
9.98817e-07
1.03107e-06
1.03132e-06
1.23444e-06
1.29027e-06
9.98632e-07
1.03122e-06
1.03113e-06
1.29034e-06
1.30478e-06
1.35205e-06
1.04336e-06
1.04329e-06
1.0715e-06
1.07143e-06
1.30477e-06
1.35206e-06
1.04316e-06
1.04341e-06
1.07129e-06
1.07155e-06
1.04344e-06
1.07139e-06
1.07158e-06
1.30488e-06
1.35216e-06
1.04325e-06
1.07149e-06
1.07139e-06
1.35219e-06
1.36208e-06
1.38452e-06
1.07817e-06
1.0781e-06
1.09107e-06
1.09099e-06
1.36209e-06
1.38453e-06
1.07796e-06
1.07821e-06
1.09086e-06
1.0911e-06
1.07825e-06
1.09095e-06
1.09113e-06
1.36218e-06
1.3846e-06
1.07805e-06
1.09103e-06
1.09094e-06
1.38463e-06
1.3897e-06
1.39404e-06
1.09337e-06
1.09329e-06
1.09629e-06
1.09621e-06
1.38971e-06
1.39402e-06
1.09316e-06
1.0934e-06
1.09609e-06
1.09633e-06
1.09343e-06
1.09614e-06
1.09636e-06
1.38978e-06
1.39412e-06
1.09325e-06
1.09625e-06
1.09618e-06
1.39417e-06
1.39642e-06
1.39333e-06
1.09643e-06
1.09635e-06
1.09595e-06
1.09587e-06
1.3964e-06
1.39331e-06
1.09623e-06
1.09646e-06
1.09575e-06
1.09598e-06
1.0965e-06
1.09578e-06
1.09602e-06
1.39649e-06
1.39341e-06
1.09632e-06
1.09591e-06
1.09584e-06
1.39348e-06
1.39524e-06
1.39196e-06
1.09571e-06
1.09563e-06
1.09514e-06
1.09507e-06
1.39522e-06
1.39195e-06
1.09551e-06
1.09575e-06
1.09494e-06
1.09518e-06
1.09578e-06
1.09499e-06
1.09521e-06
1.39532e-06
1.39205e-06
1.0956e-06
1.09511e-06
1.09503e-06
1.3921e-06
1.39402e-06
1.39193e-06
1.09506e-06
1.09499e-06
1.09509e-06
1.09502e-06
1.39402e-06
1.39193e-06
1.09486e-06
1.0951e-06
1.09489e-06
1.09513e-06
1.09514e-06
1.09495e-06
1.09516e-06
1.39411e-06
1.39201e-06
1.09495e-06
1.09505e-06
1.09498e-06
1.39206e-06
1.39412e-06
1.39243e-06
1.09515e-06
1.09508e-06
1.09537e-06
1.0953e-06
1.39412e-06
1.39243e-06
1.09495e-06
1.09519e-06
1.09516e-06
1.0954e-06
1.09522e-06
1.09523e-06
1.09544e-06
1.39419e-06
1.39251e-06
1.09504e-06
1.09533e-06
1.09525e-06
1.39256e-06
1.39461e-06
1.39269e-06
1.09542e-06
1.09535e-06
1.09552e-06
1.09545e-06
1.39461e-06
1.39269e-06
1.09522e-06
1.09546e-06
1.09532e-06
1.09556e-06
1.09549e-06
1.09538e-06
1.09559e-06
1.39469e-06
1.39277e-06
1.09531e-06
1.09548e-06
1.09541e-06
1.39283e-06
1.39485e-06
1.39278e-06
1.09554e-06
1.09546e-06
1.09556e-06
1.09549e-06
1.39485e-06
1.39277e-06
1.09534e-06
1.09558e-06
1.09536e-06
1.0956e-06
1.09561e-06
1.09541e-06
1.09563e-06
1.39493e-06
1.39286e-06
1.09543e-06
1.09553e-06
1.09545e-06
1.39291e-06
1.39491e-06
1.39278e-06
1.09556e-06
1.09549e-06
1.09558e-06
1.0955e-06
1.3949e-06
1.39278e-06
1.09536e-06
1.0956e-06
1.09537e-06
1.09561e-06
1.09563e-06
1.09543e-06
1.09565e-06
1.39499e-06
1.39286e-06
1.09545e-06
1.09554e-06
1.09547e-06
1.39292e-06
1.39493e-06
1.39284e-06
1.09558e-06
1.09551e-06
1.0956e-06
1.09552e-06
1.39492e-06
1.39283e-06
1.09538e-06
1.09562e-06
1.09539e-06
1.09563e-06
1.09565e-06
1.09545e-06
1.09566e-06
1.39501e-06
1.39292e-06
1.09547e-06
1.09556e-06
1.09549e-06
1.39298e-06
1.39497e-06
1.3928e-06
1.09559e-06
1.09552e-06
1.09558e-06
1.09551e-06
1.39495e-06
1.39279e-06
1.09539e-06
1.09563e-06
1.09538e-06
1.09562e-06
1.09566e-06
1.09543e-06
1.09565e-06
1.39504e-06
1.39289e-06
1.09548e-06
1.09555e-06
1.09547e-06
1.39293e-06
1.39494e-06
1.39279e-06
1.09558e-06
1.09551e-06
1.09559e-06
1.09551e-06
1.39493e-06
1.39279e-06
1.09538e-06
1.09562e-06
1.09538e-06
1.09562e-06
1.09565e-06
1.09544e-06
1.09566e-06
1.39503e-06
1.39288e-06
1.09547e-06
1.09555e-06
1.09547e-06
1.39293e-06
1.39493e-06
1.39281e-06
1.09558e-06
1.09551e-06
1.09558e-06
1.09551e-06
1.39492e-06
1.39281e-06
1.09538e-06
1.09562e-06
1.09538e-06
1.09563e-06
1.09565e-06
1.09544e-06
1.09565e-06
1.39501e-06
1.3929e-06
1.09547e-06
1.09555e-06
1.09547e-06
1.39295e-06
1.39493e-06
1.39281e-06
1.09558e-06
1.09551e-06
1.09559e-06
1.09552e-06
1.39492e-06
1.39281e-06
1.09538e-06
1.09562e-06
1.09538e-06
1.09563e-06
1.09565e-06
1.09545e-06
1.09566e-06
1.39502e-06
1.39289e-06
1.09547e-06
1.09555e-06
1.09547e-06
1.39294e-06
1.39496e-06
1.39269e-06
1.09559e-06
1.09552e-06
1.09543e-06
1.09536e-06
1.39496e-06
1.39269e-06
1.09539e-06
1.09563e-06
1.09523e-06
1.09547e-06
1.09566e-06
1.09529e-06
1.0955e-06
1.39504e-06
1.39277e-06
1.09548e-06
1.09539e-06
1.09532e-06
1.39284e-06
1.39483e-06
1.3928e-06
1.09544e-06
1.09537e-06
1.09548e-06
1.0954e-06
1.39482e-06
1.39278e-06
1.09524e-06
1.09547e-06
1.09528e-06
1.09551e-06
1.0955e-06
1.09533e-06
1.09554e-06
1.3949e-06
1.39286e-06
1.09532e-06
1.09543e-06
1.09536e-06
1.39293e-06
1.39494e-06
1.39274e-06
1.09548e-06
1.0954e-06
1.09549e-06
1.09541e-06
1.39492e-06
1.39272e-06
1.09528e-06
1.09551e-06
1.09528e-06
1.09551e-06
1.09554e-06
1.09533e-06
1.09555e-06
1.395e-06
1.3928e-06
1.09536e-06
1.09544e-06
1.09536e-06
1.39286e-06
1.3949e-06
1.3927e-06
1.09549e-06
1.09541e-06
1.09548e-06
1.09541e-06
1.39488e-06
1.39271e-06
1.09529e-06
1.09552e-06
1.09527e-06
1.09552e-06
1.09555e-06
1.09534e-06
1.09555e-06
1.39496e-06
1.3928e-06
1.09537e-06
1.09544e-06
1.09536e-06
1.39285e-06
1.39481e-06
1.39266e-06
1.09547e-06
1.0954e-06
1.09545e-06
1.09538e-06
1.39482e-06
1.39268e-06
1.09527e-06
1.09552e-06
1.09524e-06
1.09549e-06
1.09554e-06
1.09532e-06
1.09552e-06
1.39492e-06
1.39278e-06
1.09536e-06
1.09542e-06
1.09533e-06
1.3928e-06
1.39476e-06
1.39262e-06
1.09544e-06
1.09537e-06
1.09542e-06
1.09535e-06
1.39479e-06
1.39263e-06
1.09523e-06
1.09548e-06
1.09521e-06
1.09544e-06
1.0955e-06
1.09527e-06
1.09548e-06
1.39488e-06
1.39269e-06
1.09532e-06
1.09537e-06
1.0953e-06
1.39276e-06
1.39475e-06
1.39264e-06
1.09542e-06
1.09535e-06
1.09544e-06
1.09537e-06
1.39476e-06
1.39263e-06
1.09521e-06
1.09544e-06
1.09524e-06
1.09546e-06
1.09548e-06
1.09529e-06
1.0955e-06
1.39481e-06
1.3927e-06
1.0953e-06
1.09539e-06
1.09532e-06
1.39277e-06
1.39484e-06
1.3927e-06
1.09546e-06
1.09538e-06
1.09551e-06
1.09543e-06
1.39483e-06
1.39268e-06
1.09526e-06
1.09549e-06
1.09531e-06
1.09556e-06
1.09552e-06
1.09536e-06
1.09558e-06
1.39489e-06
1.3928e-06
1.09534e-06
1.09548e-06
1.09539e-06
1.39283e-06
1.3949e-06
1.39272e-06
1.09553e-06
1.09545e-06
1.09555e-06
1.09547e-06
1.39489e-06
1.3927e-06
1.09533e-06
1.09558e-06
1.09535e-06
1.0956e-06
1.0956e-06
1.0954e-06
1.09562e-06
1.39501e-06
1.39282e-06
1.09541e-06
1.09552e-06
1.09543e-06
1.39285e-06
1.39489e-06
1.39276e-06
1.09555e-06
1.09548e-06
1.09557e-06
1.09549e-06
1.39488e-06
1.39274e-06
1.09535e-06
1.0956e-06
1.09537e-06
1.0956e-06
1.09563e-06
1.09542e-06
1.09564e-06
1.395e-06
1.39279e-06
1.09544e-06
1.09552e-06
1.09545e-06
1.39288e-06
1.39489e-06
1.39281e-06
1.09558e-06
1.0955e-06
1.09557e-06
1.0955e-06
1.39488e-06
1.3928e-06
1.09537e-06
1.09561e-06
1.09537e-06
1.09561e-06
1.09564e-06
1.09542e-06
1.09564e-06
1.39493e-06
1.39289e-06
1.09546e-06
1.09553e-06
1.09545e-06
1.39295e-06
1.39489e-06
1.39292e-06
1.09557e-06
1.0955e-06
1.09557e-06
1.0955e-06
1.39487e-06
1.39292e-06
1.09537e-06
1.09561e-06
1.09537e-06
1.09561e-06
1.09564e-06
1.09542e-06
1.09564e-06
1.39496e-06
1.39299e-06
1.09546e-06
1.09553e-06
1.09546e-06
1.39307e-06
1.39498e-06
1.39289e-06
1.09557e-06
1.0955e-06
1.09555e-06
1.09548e-06
1.39498e-06
1.39288e-06
1.09537e-06
1.09561e-06
1.09535e-06
1.09559e-06
1.09564e-06
1.09541e-06
1.09562e-06
1.39505e-06
1.39298e-06
1.09546e-06
1.09551e-06
1.09544e-06
1.39302e-06
1.39501e-06
1.39283e-06
1.09556e-06
1.09548e-06
1.09554e-06
1.09547e-06
1.395e-06
1.39284e-06
1.09535e-06
1.0956e-06
1.09534e-06
1.09558e-06
1.09563e-06
1.0954e-06
1.09561e-06
1.3951e-06
1.39292e-06
1.09544e-06
1.09551e-06
1.09543e-06
1.39296e-06
1.39499e-06
1.39282e-06
1.09555e-06
1.09548e-06
1.09554e-06
1.09547e-06
1.39499e-06
1.39281e-06
1.09535e-06
1.09559e-06
1.09534e-06
1.09558e-06
1.09562e-06
1.09539e-06
1.09561e-06
1.39509e-06
1.39285e-06
1.09544e-06
1.0955e-06
1.09542e-06
1.39291e-06
1.39501e-06
1.39273e-06
1.09556e-06
1.09548e-06
1.09553e-06
1.09546e-06
1.39499e-06
1.39275e-06
1.09535e-06
1.09559e-06
1.09533e-06
1.09557e-06
1.09562e-06
1.09539e-06
1.0956e-06
1.39504e-06
1.39283e-06
1.09544e-06
1.0955e-06
1.09542e-06
1.39288e-06
1.39495e-06
1.39269e-06
1.09556e-06
1.09549e-06
1.09553e-06
1.09546e-06
1.39496e-06
1.39271e-06
1.09536e-06
1.0956e-06
1.09533e-06
1.09557e-06
1.09563e-06
1.09539e-06
1.0956e-06
1.39501e-06
1.39282e-06
1.09544e-06
1.0955e-06
1.09542e-06
1.39286e-06
1.39488e-06
1.3927e-06
1.09557e-06
1.0955e-06
1.09553e-06
1.09546e-06
1.39491e-06
1.39267e-06
1.09537e-06
1.09561e-06
1.09533e-06
1.09557e-06
1.09564e-06
1.09538e-06
1.0956e-06
1.39499e-06
1.39284e-06
1.09545e-06
1.0955e-06
1.09542e-06
1.39284e-06
1.39484e-06
1.39277e-06
1.09559e-06
1.09552e-06
1.09552e-06
1.09545e-06
1.39484e-06
1.39272e-06
1.09539e-06
1.09563e-06
1.09532e-06
1.09556e-06
1.09566e-06
1.09538e-06
1.09559e-06
1.395e-06
1.39284e-06
1.09547e-06
1.09549e-06
1.09541e-06
1.39289e-06
1.39484e-06
1.39253e-06
1.09559e-06
1.09552e-06
1.09548e-06
1.09541e-06
1.3948e-06
1.39249e-06
1.09539e-06
1.09563e-06
1.09528e-06
1.09552e-06
1.09566e-06
1.09534e-06
1.09556e-06
1.39497e-06
1.39254e-06
1.09547e-06
1.09544e-06
1.09536e-06
1.39264e-06
1.39429e-06
1.35967e-06
1.09392e-06
1.09384e-06
1.0264e-06
1.02632e-06
1.39425e-06
1.35966e-06
1.09371e-06
1.09394e-06
1.02633e-06
1.0264e-06
1.09398e-06
1.02639e-06
1.02643e-06
1.39433e-06
1.35971e-06
1.09379e-06
1.02646e-06
1.02638e-06
1.35975e-06
1.33474e-06
1.00027e-06
1.0002e-06
1.33474e-06
1.00022e-06
1.00027e-06
6.11011e-07
6.1108e-07
6.11078e-07
1.00033e-06
1.33481e-06
1.00029e-06
5.35653e-07
5.35523e-07
5.35636e-07
5.35636e-07
5.34569e-07
5.35438e-07
5.33635e-07
5.35608e-07
5.34569e-07
5.35438e-07
5.35608e-07
5.33635e-07
5.35198e-07
5.35984e-07
5.35983e-07
1.10651e-06
3.87795e-06
9.32087e-07
4.60327e-06
1.26012e-05
1.65943e-05
1.10694e-06
3.87827e-06
9.31846e-07
4.60419e-06
4.9917e-07
4.9917e-07
4.9917e-07
4.57217e-07
4.57217e-07
4.57217e-07
4.57217e-07
5.4296e-07
1.2178e-06
4.99137e-07
4.86008e-07
5.2501e-07
1.20859e-06
4.82348e-07
1.26025e-05
1.65956e-05
5.42967e-07
4.99137e-07
1.21778e-06
4.86008e-07
5.25009e-07
4.82348e-07
1.20857e-06
2.51892e-06
2.51951e-06
4.84042e-07
2.37147e-06
2.37214e-06
1.43151e-06
5.59223e-06
1.3307e-06
6.1352e-06
2.12846e-05
2.31118e-05
1.43187e-06
5.59299e-06
1.3305e-06
6.13645e-06
4.45574e-07