/*--------------------------------*- C++ -*----------------------------------*\
| =========                 |                                                 |
| \\      /  F ield         | OpenFOAM: The Open Source CFD Toolbox           |
|  \\    /   O peration     | Version:  2312                                  |
|   \\  /    A nd           | Website:  www.openfoam.com                      |
|    \\/     M anipulation  |                                                 |
\*---------------------------------------------------------------------------*/
FoamFile
{
    version     2.0;
    format      ascii;
    arch        "LSB;label=32;scalar=64";
    class       volScalarField;
    location    "250";
    object      k;
}
// * * * * * * * * * * * * * * * * * * * * * * * * * * * * * * * * * * * * * //

dimensions      [0 2 -2 0 0 0 0];

internalField   nonuniform List<scalar> 
172512
(
3.60232e-05
3.60198e-05
3.60198e-05
3.60083e-05
3.39295e-05
3.38866e-05
3.38866e-05
3.39612e-05
3.21574e-05
3.20055e-05
3.20055e-05
3.19506e-05
3.05338e-05
3.02267e-05
3.02267e-05
2.99864e-05
2.90318e-05
2.85515e-05
2.85515e-05
2.81202e-05
2.76341e-05
2.69848e-05
2.69847e-05
2.6388e-05
2.63294e-05
2.55287e-05
2.55286e-05
2.48046e-05
2.51097e-05
2.41827e-05
2.41826e-05
2.33754e-05
2.39694e-05
2.29484e-05
2.29483e-05
2.21019e-05
2.29042e-05
2.18247e-05
2.18246e-05
2.09833e-05
2.19105e-05
2.08093e-05
2.08091e-05
2.00106e-05
2.09849e-05
1.98992e-05
1.98991e-05
1.91798e-05
2.01226e-05
1.90927e-05
1.90927e-05
1.84853e-05
1.93223e-05
1.83864e-05
1.83865e-05
1.79302e-05
1.85832e-05
1.77776e-05
1.77774e-05
1.7504e-05
1.79027e-05
1.72636e-05
1.72634e-05
1.71989e-05
1.72783e-05
1.68446e-05
1.68444e-05
1.70206e-05
1.67081e-05
1.65193e-05
1.65192e-05
1.69793e-05
1.61908e-05
1.62878e-05
1.62879e-05
1.70766e-05
1.57239e-05
1.61499e-05
1.61503e-05
1.73018e-05
1.53058e-05
1.61055e-05
1.61058e-05
1.76557e-05
1.49359e-05
1.61519e-05
1.61518e-05
1.81339e-05
1.4613e-05
1.62903e-05
1.62905e-05
1.87283e-05
1.43367e-05
1.65187e-05
1.65192e-05
1.94279e-05
1.41065e-05
1.68344e-05
1.68349e-05
2.02207e-05
1.3922e-05
1.72342e-05
1.72348e-05
2.1094e-05
1.37829e-05
1.77146e-05
1.77152e-05
2.20354e-05
1.36891e-05
1.82714e-05
1.82724e-05
2.30308e-05
1.36407e-05
1.89007e-05
1.89018e-05
2.4065e-05
1.36375e-05
1.95973e-05
1.95979e-05
2.51261e-05
1.36798e-05
2.03549e-05
2.03567e-05
2.62033e-05
1.37681e-05
2.11681e-05
2.11702e-05
2.7283e-05
1.39025e-05
2.20317e-05
2.20333e-05
2.83618e-05
1.40835e-05
2.29385e-05
2.29408e-05
2.94297e-05
1.43127e-05
2.38822e-05
2.38848e-05
3.04858e-05
1.45885e-05
2.48581e-05
2.48596e-05
3.15219e-05
1.49078e-05
2.58555e-05
2.58573e-05
3.25384e-05
1.52736e-05
2.6871e-05
2.68732e-05
3.35334e-05
1.56864e-05
2.78982e-05
2.79021e-05
3.45046e-05
1.61449e-05
2.89338e-05
2.89356e-05
3.54521e-05
1.66456e-05
2.99682e-05
2.99703e-05
3.63728e-05
1.71881e-05
3.0999e-05
3.10035e-05
3.72715e-05
1.77728e-05
3.20278e-05
3.20293e-05
3.81429e-05
1.83882e-05
3.30298e-05
3.3035e-05
3.89852e-05
1.90542e-05
3.40417e-05
3.40444e-05
3.98204e-05
1.97329e-05
3.50078e-05
3.50112e-05
4.05996e-05
2.04613e-05
3.59726e-05
3.59792e-05
4.13922e-05
2.12003e-05
3.69e-05
3.69047e-05
4.21223e-05
2.19785e-05
3.78621e-05
3.7857e-05
4.29043e-05
2.27473e-05
3.86293e-05
3.86498e-05
4.3475e-05
2.36017e-05
3.97657e-05
3.9756e-05
4.44567e-05
2.43147e-05
4.01679e-05
4.0191e-05
4.45653e-05
2.54063e-05
4.17999e-05
4.18e-05
4.64031e-05
2.60147e-05
4.16012e-05
4.16253e-05
4.49488e-05
2.73262e-05
4.42561e-05
4.41988e-05
4.84734e-05
3.03325e-05
4.77768e-05
4.78002e-05
5.34113e-05
2.89025e-05
4.30485e-05
4.30573e-05
4.60882e-05
2.61899e-05
3.93463e-05
3.9344e-05
4.13431e-05
2.68022e-05
4.14322e-05
4.14403e-05
4.4268e-05
3.32416e-05
4.75011e-05
4.7508e-05
5.02085e-05
3.80241e-05
5.1448e-05
5.14461e-05
5.41905e-05
4.0338e-05
5.3059e-05
5.30603e-05
5.57618e-05
4.09217e-05
5.32797e-05
5.32844e-05
5.59173e-05
4.09077e-05
5.31492e-05
5.31546e-05
5.57362e-05
4.08107e-05
5.30803e-05
5.30836e-05
5.56507e-05
4.08175e-05
5.31109e-05
5.3113e-05
5.56923e-05
4.08703e-05
5.31518e-05
5.31544e-05
5.5731e-05
4.08924e-05
5.31648e-05
5.31678e-05
5.57478e-05
4.08975e-05
5.3166e-05
5.31693e-05
5.57394e-05
4.09007e-05
5.31699e-05
5.31734e-05
5.57574e-05
4.09001e-05
5.31677e-05
5.31714e-05
5.57416e-05
4.08997e-05
5.31678e-05
5.31711e-05
5.57459e-05
4.08991e-05
5.31677e-05
5.31714e-05
5.57565e-05
4.08982e-05
5.31666e-05
5.31696e-05
5.57383e-05
4.08938e-05
5.31646e-05
5.31678e-05
5.57446e-05
4.08982e-05
5.31701e-05
5.31735e-05
5.57551e-05
4.09005e-05
5.317e-05
5.31736e-05
5.57451e-05
4.09005e-05
5.31716e-05
5.31752e-05
5.57615e-05
4.08965e-05
5.31695e-05
5.31733e-05
5.57505e-05
4.08877e-05
5.31572e-05
5.31605e-05
5.57317e-05
4.08831e-05
5.31511e-05
5.31519e-05
5.5724e-05
4.08883e-05
5.31589e-05
5.31615e-05
5.57435e-05
4.0899e-05
5.31678e-05
5.31738e-05
5.575e-05
4.09032e-05
5.3172e-05
5.31745e-05
5.57442e-05
4.09035e-05
5.3172e-05
5.31757e-05
5.57525e-05
4.09039e-05
5.31735e-05
5.31767e-05
5.57594e-05
4.09028e-05
5.31704e-05
5.31741e-05
5.57428e-05
4.09009e-05
5.31692e-05
5.31727e-05
5.57525e-05
4.08998e-05
5.31684e-05
5.31718e-05
5.57535e-05
4.08993e-05
5.31682e-05
5.31716e-05
5.57516e-05
4.08993e-05
5.31687e-05
5.31717e-05
5.57485e-05
4.08998e-05
5.31693e-05
5.31726e-05
5.57405e-05
4.09003e-05
5.31708e-05
5.3174e-05
5.57511e-05
4.08683e-05
5.31615e-05
5.31647e-05
5.57441e-05
4.30681e-05
5.10016e-05
5.10042e-05
5.52992e-05
3.62984e-05
3.62919e-05
3.62919e-05
3.62984e-05
3.62919e-05
3.62919e-05
3.62908e-05
3.62908e-05
3.62908e-05
3.62908e-05
3.62919e-05
3.62919e-05
3.62984e-05
3.62919e-05
3.62919e-05
3.62984e-05
3.60083e-05
3.42676e-05
3.60198e-05
3.60198e-05
3.43745e-05
3.43744e-05
3.60083e-05
3.42677e-05
3.60198e-05
3.60198e-05
3.43745e-05
3.43744e-05
3.60198e-05
3.43745e-05
3.43745e-05
3.60083e-05
3.42677e-05
3.60198e-05
3.43745e-05
3.43745e-05
3.42676e-05
3.39612e-05
3.22619e-05
3.38865e-05
3.38865e-05
3.24658e-05
3.24657e-05
3.39612e-05
3.22619e-05
3.38865e-05
3.38865e-05
3.24659e-05
3.24657e-05
3.38865e-05
3.2466e-05
3.24658e-05
3.39612e-05
3.22619e-05
3.38865e-05
3.24659e-05
3.24659e-05
3.22618e-05
3.19506e-05
3.02973e-05
3.20054e-05
3.20053e-05
3.06617e-05
3.06616e-05
3.19506e-05
3.02973e-05
3.20054e-05
3.20052e-05
3.06618e-05
3.06615e-05
3.20053e-05
3.0662e-05
3.06617e-05
3.19506e-05
3.02972e-05
3.20054e-05
3.06619e-05
3.06618e-05
3.02971e-05
2.99865e-05
2.84231e-05
3.02264e-05
3.02263e-05
2.89599e-05
2.89597e-05
2.99865e-05
2.8423e-05
3.02266e-05
3.02262e-05
2.89601e-05
2.89596e-05
3.02264e-05
2.89603e-05
2.89598e-05
2.99864e-05
2.84229e-05
3.02265e-05
2.89602e-05
2.896e-05
2.84228e-05
2.81204e-05
2.66716e-05
2.85511e-05
2.85509e-05
2.73656e-05
2.73653e-05
2.81204e-05
2.66715e-05
2.85514e-05
2.85508e-05
2.73659e-05
2.73652e-05
2.8551e-05
2.73661e-05
2.73655e-05
2.81203e-05
2.66714e-05
2.85513e-05
2.7366e-05
2.73658e-05
2.66712e-05
2.63884e-05
2.50638e-05
2.69842e-05
2.6984e-05
2.58817e-05
2.58815e-05
2.63883e-05
2.50637e-05
2.69846e-05
2.69839e-05
2.58822e-05
2.58813e-05
2.69841e-05
2.58824e-05
2.58816e-05
2.63882e-05
2.50635e-05
2.69844e-05
2.58823e-05
2.5882e-05
2.50634e-05
2.4805e-05
2.361e-05
2.5528e-05
2.55277e-05
2.45079e-05
2.45077e-05
2.4805e-05
2.36099e-05
2.55285e-05
2.55276e-05
2.45085e-05
2.45075e-05
2.55279e-05
2.45087e-05
2.45078e-05
2.48048e-05
2.36097e-05
2.55283e-05
2.45086e-05
2.45083e-05
2.36095e-05
2.33759e-05
2.231e-05
2.41819e-05
2.41816e-05
2.32456e-05
2.32453e-05
2.33758e-05
2.23099e-05
2.41825e-05
2.41814e-05
2.32462e-05
2.32451e-05
2.41817e-05
2.32465e-05
2.32455e-05
2.33756e-05
2.23096e-05
2.41823e-05
2.32464e-05
2.32461e-05
2.23094e-05
2.21024e-05
2.11657e-05
2.29475e-05
2.29472e-05
2.20943e-05
2.2094e-05
2.21023e-05
2.11657e-05
2.29481e-05
2.2947e-05
2.20951e-05
2.20938e-05
2.29473e-05
2.20953e-05
2.20942e-05
2.21022e-05
2.11653e-05
2.2948e-05
2.20952e-05
2.20949e-05
2.1165e-05
2.0984e-05
2.01685e-05
2.18237e-05
2.18234e-05
2.1052e-05
2.10517e-05
2.09837e-05
2.01685e-05
2.18245e-05
2.18232e-05
2.10529e-05
2.10515e-05
2.18236e-05
2.10531e-05
2.10519e-05
2.09835e-05
2.01681e-05
2.18243e-05
2.10529e-05
2.10526e-05
2.01677e-05
2.00114e-05
1.93124e-05
2.08082e-05
2.08079e-05
2.01159e-05
2.01155e-05
2.00115e-05
1.93122e-05
2.0809e-05
2.08077e-05
2.01168e-05
2.01154e-05
2.08081e-05
2.01169e-05
2.01159e-05
2.00109e-05
1.93118e-05
2.08088e-05
2.01168e-05
2.01167e-05
1.93123e-05
1.91799e-05
1.85889e-05
1.98981e-05
1.98978e-05
1.92835e-05
1.92832e-05
1.9179e-05
1.85873e-05
1.9899e-05
1.98977e-05
1.92844e-05
1.92831e-05
1.9898e-05
1.92845e-05
1.92833e-05
1.9179e-05
1.85875e-05
1.98988e-05
1.92845e-05
1.92841e-05
1.85866e-05
1.84878e-05
1.79965e-05
1.90915e-05
1.90914e-05
1.85525e-05
1.85523e-05
1.84871e-05
1.79964e-05
1.90925e-05
1.90913e-05
1.85534e-05
1.85522e-05
1.90914e-05
1.85536e-05
1.85524e-05
1.84878e-05
1.79961e-05
1.90922e-05
1.85535e-05
1.85533e-05
1.7995e-05
1.79312e-05
1.75367e-05
1.83853e-05
1.83851e-05
1.79193e-05
1.79193e-05
1.79322e-05
1.75381e-05
1.83863e-05
1.83852e-05
1.79202e-05
1.79189e-05
1.83853e-05
1.79205e-05
1.79194e-05
1.79322e-05
1.75356e-05
1.83861e-05
1.79202e-05
1.79202e-05
1.75369e-05
1.75037e-05
1.72179e-05
1.77763e-05
1.77764e-05
1.73822e-05
1.73819e-05
1.75055e-05
1.72172e-05
1.77772e-05
1.77762e-05
1.7383e-05
1.73818e-05
1.77764e-05
1.7383e-05
1.7382e-05
1.7504e-05
1.72165e-05
1.77772e-05
1.73829e-05
1.73828e-05
1.72164e-05
1.72004e-05
1.70249e-05
1.72628e-05
1.72626e-05
1.6939e-05
1.6939e-05
1.71998e-05
1.70252e-05
1.72636e-05
1.72624e-05
1.69398e-05
1.6939e-05
1.72628e-05
1.69399e-05
1.69391e-05
1.71986e-05
1.70258e-05
1.72636e-05
1.69399e-05
1.69399e-05
1.70242e-05
1.7021e-05
1.69702e-05
1.68436e-05
1.68438e-05
1.65898e-05
1.659e-05
1.70215e-05
1.69704e-05
1.68444e-05
1.68435e-05
1.65905e-05
1.65899e-05
1.68437e-05
1.65906e-05
1.65901e-05
1.70215e-05
1.69707e-05
1.68445e-05
1.65907e-05
1.65908e-05
1.69704e-05
1.69785e-05
1.70406e-05
1.65184e-05
1.65187e-05
1.63345e-05
1.63346e-05
1.6979e-05
1.70405e-05
1.65192e-05
1.65185e-05
1.63351e-05
1.63348e-05
1.65186e-05
1.6335e-05
1.63349e-05
1.6979e-05
1.7041e-05
1.65193e-05
1.63353e-05
1.63356e-05
1.70418e-05
1.70751e-05
1.72405e-05
1.62872e-05
1.62874e-05
1.6173e-05
1.61731e-05
1.7075e-05
1.72406e-05
1.62878e-05
1.62874e-05
1.61736e-05
1.61734e-05
1.62873e-05
1.61733e-05
1.61735e-05
1.70758e-05
1.72407e-05
1.6288e-05
1.61736e-05
1.61742e-05
1.72425e-05
1.72998e-05
1.75696e-05
1.61496e-05
1.61497e-05
1.61051e-05
1.61054e-05
1.72992e-05
1.75708e-05
1.61502e-05
1.615e-05
1.61056e-05
1.61056e-05
1.61497e-05
1.61054e-05
1.61056e-05
1.73004e-05
1.75698e-05
1.61504e-05
1.61056e-05
1.61062e-05
1.75718e-05
1.76531e-05
1.80247e-05
1.61053e-05
1.61055e-05
1.61312e-05
1.61317e-05
1.76532e-05
1.80258e-05
1.61058e-05
1.61058e-05
1.61316e-05
1.61316e-05
1.61057e-05
1.61315e-05
1.61317e-05
1.76537e-05
1.80245e-05
1.61063e-05
1.61315e-05
1.61323e-05
1.80256e-05
1.81314e-05
1.85965e-05
1.61516e-05
1.61521e-05
1.62472e-05
1.62476e-05
1.81329e-05
1.85969e-05
1.61519e-05
1.61521e-05
1.62474e-05
1.6248e-05
1.61521e-05
1.62472e-05
1.62477e-05
1.81313e-05
1.85973e-05
1.61527e-05
1.62476e-05
1.62483e-05
1.85969e-05
1.87268e-05
1.92752e-05
1.62903e-05
1.62906e-05
1.64536e-05
1.6454e-05
1.87272e-05
1.92753e-05
1.62905e-05
1.62911e-05
1.64537e-05
1.64545e-05
1.6291e-05
1.64534e-05
1.64541e-05
1.87277e-05
1.92757e-05
1.62914e-05
1.64539e-05
1.64546e-05
1.92757e-05
1.9427e-05
2.00486e-05
1.65189e-05
1.65193e-05
1.67479e-05
1.67483e-05
1.94271e-05
2.00489e-05
1.65189e-05
1.65199e-05
1.67478e-05
1.67489e-05
1.65196e-05
1.67475e-05
1.67484e-05
1.94279e-05
2.0049e-05
1.65199e-05
1.6748e-05
1.67487e-05
2.00497e-05
2.02198e-05
2.0905e-05
1.68349e-05
1.68352e-05
1.71268e-05
1.71275e-05
2.02199e-05
2.09056e-05
1.68348e-05
1.6836e-05
1.71266e-05
1.71281e-05
1.68356e-05
1.71264e-05
1.71276e-05
2.02201e-05
2.09059e-05
1.68357e-05
1.7127e-05
1.71278e-05
2.09068e-05
2.10925e-05
2.18325e-05
1.72348e-05
1.72353e-05
1.75876e-05
1.75882e-05
2.10931e-05
2.18325e-05
1.72345e-05
1.72361e-05
1.75872e-05
1.7589e-05
1.72356e-05
1.75869e-05
1.75887e-05
2.10934e-05
2.18334e-05
1.72356e-05
1.75877e-05
1.75886e-05
2.18347e-05
2.20334e-05
2.28164e-05
1.77153e-05
1.7716e-05
1.81264e-05
1.81268e-05
2.20337e-05
2.28161e-05
1.77148e-05
1.77167e-05
1.81257e-05
1.81279e-05
1.77163e-05
1.81252e-05
1.81276e-05
2.20342e-05
2.28176e-05
1.7716e-05
1.81264e-05
1.81272e-05
2.28186e-05
2.30287e-05
2.38415e-05
1.82726e-05
1.8273e-05
1.87382e-05
1.87389e-05
2.30283e-05
2.38421e-05
1.82718e-05
1.82742e-05
1.87372e-05
1.87398e-05
1.82739e-05
1.87371e-05
1.87394e-05
2.30297e-05
2.38428e-05
1.82733e-05
1.8738e-05
1.87386e-05
2.38437e-05
2.40631e-05
2.4896e-05
1.8902e-05
1.89025e-05
1.94186e-05
1.94192e-05
2.40635e-05
2.48958e-05
1.89009e-05
1.89038e-05
1.94173e-05
1.94202e-05
1.89035e-05
1.94171e-05
1.94199e-05
2.40643e-05
2.48975e-05
1.89025e-05
1.94182e-05
1.94188e-05
2.48988e-05
2.51242e-05
2.59671e-05
1.95985e-05
1.95993e-05
2.01616e-05
2.01618e-05
2.51243e-05
2.59667e-05
1.95972e-05
1.96001e-05
2.016e-05
2.01639e-05
1.95999e-05
2.01596e-05
2.01636e-05
2.51252e-05
2.59696e-05
1.95985e-05
2.01619e-05
2.01621e-05
2.5971e-05
2.61998e-05
2.70457e-05
2.03568e-05
2.03572e-05
2.09619e-05
2.09624e-05
2.61991e-05
2.70463e-05
2.03551e-05
2.03589e-05
2.09599e-05
2.09635e-05
2.03585e-05
2.09601e-05
2.0964e-05
2.62024e-05
2.70464e-05
2.03567e-05
2.09614e-05
2.0962e-05
2.70485e-05
2.72798e-05
2.81248e-05
2.117e-05
2.11704e-05
2.18144e-05
2.18146e-05
2.72801e-05
2.81245e-05
2.11681e-05
2.11725e-05
2.1812e-05
2.18157e-05
2.11725e-05
2.18122e-05
2.18162e-05
2.72811e-05
2.81264e-05
2.11703e-05
2.18136e-05
2.18137e-05
2.81271e-05
2.83597e-05
2.91927e-05
2.20337e-05
2.20341e-05
2.27107e-05
2.27111e-05
2.83596e-05
2.9193e-05
2.20315e-05
2.20358e-05
2.2708e-05
2.27125e-05
2.20362e-05
2.27087e-05
2.27132e-05
2.83604e-05
2.91959e-05
2.20335e-05
2.27106e-05
2.27104e-05
2.91966e-05
2.94272e-05
3.02502e-05
2.29404e-05
2.2941e-05
2.36456e-05
2.3645e-05
2.94274e-05
3.02492e-05
2.29379e-05
2.29432e-05
2.36427e-05
2.3647e-05
2.29426e-05
2.36424e-05
2.36481e-05
2.94298e-05
3.02512e-05
2.29395e-05
2.36447e-05
2.36448e-05
3.02535e-05
3.04822e-05
3.12899e-05
2.38847e-05
2.38845e-05
2.4612e-05
2.46124e-05
3.0481e-05
3.12913e-05
2.38818e-05
2.38869e-05
2.46089e-05
2.46156e-05
2.3888e-05
2.46097e-05
2.46147e-05
3.04837e-05
3.12924e-05
2.38844e-05
2.46127e-05
2.46111e-05
3.12934e-05
3.15193e-05
3.23097e-05
2.48607e-05
2.48609e-05
2.56043e-05
2.56036e-05
3.15201e-05
3.23086e-05
2.48573e-05
2.48607e-05
2.56011e-05
2.56082e-05
2.48633e-05
2.56018e-05
2.56077e-05
3.15212e-05
3.23115e-05
2.48595e-05
2.56052e-05
2.56034e-05
3.2313e-05
3.25352e-05
3.33094e-05
2.58576e-05
2.58573e-05
2.66186e-05
2.66183e-05
3.25346e-05
3.33097e-05
2.58539e-05
2.58579e-05
2.66149e-05
2.66212e-05
2.58614e-05
2.66151e-05
2.66209e-05
3.2537e-05
3.33115e-05
2.58568e-05
2.66188e-05
2.6617e-05
3.33126e-05
3.35307e-05
3.42845e-05
2.68736e-05
2.68735e-05
2.76444e-05
2.76438e-05
3.35306e-05
3.42847e-05
2.687e-05
2.68749e-05
2.76404e-05
2.7646e-05
2.68769e-05
2.76419e-05
2.76478e-05
3.35328e-05
3.42865e-05
2.68723e-05
2.76451e-05
2.76431e-05
3.4288e-05
3.45021e-05
3.52372e-05
2.79021e-05
2.7901e-05
2.8676e-05
2.86747e-05
3.45015e-05
3.52361e-05
2.78985e-05
2.79042e-05
2.86719e-05
2.86778e-05
2.79043e-05
2.86732e-05
2.86803e-05
3.45034e-05
3.52398e-05
2.79002e-05
2.86768e-05
2.86749e-05
3.5241e-05
3.54478e-05
3.61641e-05
2.89349e-05
2.89346e-05
2.97108e-05
2.97104e-05
3.5448e-05
3.6165e-05
2.89307e-05
2.89364e-05
2.97067e-05
2.97139e-05
2.89404e-05
2.97079e-05
2.97132e-05
3.54509e-05
3.61653e-05
2.89342e-05
2.97122e-05
2.97085e-05
3.61662e-05
3.63715e-05
3.70683e-05
2.99723e-05
2.99708e-05
3.0747e-05
3.07445e-05
3.63706e-05
3.70662e-05
2.99682e-05
2.99713e-05
3.07426e-05
3.07489e-05
2.99744e-05
3.07432e-05
3.07506e-05
3.63722e-05
3.7071e-05
2.99697e-05
3.07486e-05
3.07455e-05
3.70718e-05
3.72681e-05
3.79431e-05
3.10017e-05
3.10002e-05
3.17698e-05
3.17689e-05
3.72674e-05
3.79439e-05
3.09974e-05
3.10041e-05
3.17654e-05
3.17721e-05
3.10057e-05
3.17677e-05
3.17734e-05
3.72711e-05
3.79452e-05
3.10003e-05
3.17712e-05
3.1768e-05
3.79463e-05
3.81402e-05
3.87953e-05
3.20304e-05
3.2029e-05
3.27861e-05
3.27838e-05
3.81401e-05
3.87939e-05
3.20259e-05
3.20296e-05
3.27816e-05
3.27873e-05
3.2034e-05
3.27822e-05
3.27892e-05
3.8142e-05
3.87969e-05
3.20284e-05
3.27874e-05
3.27839e-05
3.87977e-05
3.89831e-05
3.96332e-05
3.30334e-05
3.30309e-05
3.37963e-05
3.37944e-05
3.89819e-05
3.96329e-05
3.30288e-05
3.30353e-05
3.37917e-05
3.37979e-05
3.30361e-05
3.37939e-05
3.37999e-05
3.89849e-05
3.96356e-05
3.30308e-05
3.3798e-05
3.37945e-05
3.96365e-05
3.98173e-05
4.04133e-05
3.4045e-05
3.4043e-05
3.4757e-05
3.4754e-05
3.98171e-05
4.04119e-05
3.40403e-05
3.40441e-05
3.47522e-05
3.4758e-05
3.40488e-05
3.47539e-05
3.47595e-05
3.98193e-05
4.04159e-05
3.40433e-05
3.47584e-05
3.47543e-05
4.04154e-05
4.05976e-05
4.12294e-05
3.50094e-05
3.50066e-05
3.5753e-05
3.57497e-05
4.05963e-05
4.12287e-05
3.50047e-05
3.5011e-05
3.57483e-05
3.57525e-05
3.50123e-05
3.57475e-05
3.57558e-05
4.06006e-05
4.12304e-05
3.50068e-05
3.57534e-05
3.57508e-05
4.12323e-05
4.13901e-05
4.19301e-05
3.59789e-05
3.59757e-05
3.66541e-05
3.66514e-05
4.1389e-05
4.19293e-05
3.59741e-05
3.59787e-05
3.66495e-05
3.66553e-05
3.59806e-05
3.6654e-05
3.66583e-05
4.13904e-05
4.19333e-05
3.59757e-05
3.66559e-05
3.66527e-05
4.19337e-05
4.21185e-05
4.27647e-05
3.69018e-05
3.68968e-05
3.76313e-05
3.76303e-05
4.21168e-05
4.27673e-05
3.68977e-05
3.69032e-05
3.76259e-05
3.76325e-05
3.69068e-05
3.76316e-05
3.76314e-05
4.21228e-05
4.27675e-05
3.69013e-05
3.76335e-05
3.7626e-05
4.27654e-05
4.29026e-05
4.32897e-05
3.7859e-05
3.78625e-05
3.84456e-05
3.8433e-05
4.29089e-05
4.32731e-05
3.78533e-05
3.78575e-05
3.84424e-05
3.84432e-05
3.78603e-05
3.84253e-05
3.84488e-05
4.29019e-05
4.32866e-05
3.78543e-05
3.84455e-05
3.84472e-05
4.32929e-05
4.34758e-05
4.43087e-05
3.86446e-05
3.86293e-05
3.94603e-05
3.94686e-05
4.34528e-05
4.43295e-05
3.86411e-05
3.8646e-05
3.9453e-05
3.94637e-05
3.86442e-05
3.94832e-05
3.94652e-05
4.3478e-05
4.43172e-05
3.86426e-05
3.94631e-05
3.94531e-05
4.4314e-05
4.44461e-05
4.45043e-05
3.9755e-05
3.97614e-05
4.0112e-05
4.01005e-05
4.44638e-05
4.44792e-05
3.9749e-05
3.97565e-05
4.01107e-05
4.01103e-05
3.9763e-05
4.00845e-05
4.01176e-05
4.44505e-05
4.44984e-05
3.97535e-05
4.01142e-05
4.01203e-05
4.45085e-05
4.45648e-05
4.61717e-05
4.01903e-05
4.01789e-05
4.14323e-05
4.14356e-05
4.45386e-05
4.61932e-05
4.01884e-05
4.01876e-05
4.14237e-05
4.1429e-05
4.01919e-05
4.14494e-05
4.14263e-05
4.45587e-05
4.6175e-05
4.01934e-05
4.14253e-05
4.14125e-05
4.61687e-05
4.63981e-05
4.51334e-05
4.1798e-05
4.17972e-05
4.17448e-05
4.17352e-05
4.64111e-05
4.51103e-05
4.17916e-05
4.18001e-05
4.17429e-05
4.17517e-05
4.18009e-05
4.17282e-05
4.17548e-05
4.64058e-05
4.51457e-05
4.17931e-05
4.17593e-05
4.17577e-05
4.51497e-05
4.49363e-05
4.69123e-05
4.16137e-05
4.16044e-05
4.23727e-05
4.23699e-05
4.49168e-05
4.69411e-05
4.16121e-05
4.16177e-05
4.23669e-05
4.23604e-05
4.16216e-05
4.23855e-05
4.23692e-05
4.49448e-05
4.68812e-05
4.16237e-05
4.23591e-05
4.2357e-05
4.68867e-05
4.84962e-05
5.33604e-05
4.42299e-05
4.42315e-05
4.77374e-05
4.77338e-05
4.85199e-05
5.33542e-05
4.42204e-05
4.42079e-05
4.77316e-05
4.7745e-05
4.42191e-05
4.77294e-05
4.77424e-05
4.84699e-05
5.33793e-05
4.41962e-05
4.7749e-05
4.7741e-05
5.33759e-05
5.33954e-05
4.72013e-05
4.77856e-05
4.77822e-05
4.49328e-05
4.49312e-05
5.33892e-05
4.72011e-05
4.77803e-05
4.77949e-05
4.49328e-05
4.49428e-05
4.77913e-05
4.49331e-05
4.49374e-05
5.34155e-05
4.72117e-05
4.77913e-05
4.49537e-05
4.4942e-05
4.72028e-05
4.60881e-05
4.14701e-05
4.30449e-05
4.30412e-05
3.96579e-05
3.96502e-05
4.60883e-05
4.14647e-05
4.30445e-05
4.3048e-05
3.96563e-05
3.9651e-05
4.30465e-05
3.96577e-05
3.9655e-05
4.60934e-05
4.14602e-05
4.30481e-05
3.96547e-05
3.96525e-05
4.14629e-05
4.13496e-05
4.32598e-05
3.93485e-05
3.93406e-05
3.99349e-05
3.99283e-05
4.13439e-05
4.32546e-05
3.93465e-05
3.93411e-05
3.99314e-05
3.99285e-05
3.93453e-05
3.99253e-05
3.99318e-05
4.13398e-05
4.32558e-05
3.93425e-05
3.99281e-05
3.99279e-05
4.32599e-05
4.42669e-05
4.93252e-05
4.14466e-05
4.14417e-05
4.61615e-05
4.61577e-05
4.42624e-05
4.93241e-05
4.14423e-05
4.14424e-05
4.61577e-05
4.61629e-05
4.14444e-05
4.61572e-05
4.61636e-05
4.42645e-05
4.93306e-05
4.144e-05
4.61663e-05
4.61598e-05
4.93291e-05
5.02062e-05
5.36883e-05
4.75025e-05
4.7499e-05
5.06859e-05
5.06829e-05
5.02063e-05
5.36909e-05
4.74988e-05
4.75041e-05
5.06822e-05
5.06856e-05
4.75052e-05
5.06918e-05
5.06878e-05
5.02116e-05
5.36905e-05
4.75012e-05
5.06909e-05
5.06835e-05
5.36873e-05
5.41925e-05
5.56149e-05
5.14422e-05
5.1439e-05
5.28368e-05
5.28321e-05
5.41952e-05
5.56144e-05
5.14386e-05
5.14414e-05
5.28338e-05
5.28354e-05
5.14435e-05
5.28394e-05
5.28367e-05
5.41943e-05
5.56157e-05
5.14393e-05
5.28393e-05
5.28335e-05
5.56131e-05
5.57634e-05
5.59067e-05
5.30581e-05
5.30532e-05
5.32807e-05
5.32751e-05
5.57622e-05
5.59039e-05
5.30554e-05
5.30567e-05
5.32785e-05
5.32789e-05
5.30579e-05
5.32783e-05
5.32807e-05
5.5764e-05
5.59066e-05
5.30553e-05
5.32828e-05
5.32792e-05
5.59071e-05
5.59167e-05
5.57298e-05
5.32822e-05
5.32767e-05
5.31942e-05
5.31885e-05
5.59137e-05
5.57272e-05
5.32801e-05
5.32805e-05
5.31924e-05
5.31929e-05
5.32823e-05
5.31914e-05
5.31947e-05
5.59164e-05
5.57308e-05
5.32809e-05
5.31972e-05
5.31935e-05
5.57309e-05
5.57351e-05
5.56354e-05
5.31513e-05
5.31459e-05
5.30847e-05
5.30799e-05
5.57326e-05
5.5634e-05
5.31494e-05
5.31502e-05
5.30826e-05
5.30837e-05
5.31518e-05
5.30842e-05
5.30852e-05
5.57362e-05
5.56369e-05
5.31505e-05
5.3088e-05
5.30833e-05
5.56359e-05
5.56503e-05
5.56649e-05
5.30805e-05
5.30758e-05
5.30944e-05
5.30903e-05
5.56489e-05
5.56645e-05
5.30783e-05
5.30794e-05
5.30921e-05
5.3093e-05
5.30809e-05
5.30952e-05
5.30949e-05
5.56518e-05
5.56655e-05
5.30789e-05
5.30973e-05
5.30927e-05
5.5665e-05
5.56922e-05
5.57089e-05
5.31102e-05
5.31061e-05
5.31443e-05
5.31401e-05
5.56917e-05
5.57082e-05
5.31078e-05
5.31085e-05
5.3142e-05
5.31425e-05
5.31106e-05
5.31444e-05
5.31447e-05
5.56927e-05
5.57092e-05
5.31085e-05
5.31469e-05
5.31429e-05
5.57091e-05
5.57309e-05
5.5729e-05
5.31517e-05
5.31474e-05
5.31637e-05
5.3159e-05
5.573e-05
5.57279e-05
5.31495e-05
5.315e-05
5.31617e-05
5.31624e-05
5.31521e-05
5.31636e-05
5.3164e-05
5.57311e-05
5.57295e-05
5.31504e-05
5.31665e-05
5.31622e-05
5.5729e-05
5.57478e-05
5.57227e-05
5.31649e-05
5.31602e-05
5.3166e-05
5.31612e-05
5.57467e-05
5.57211e-05
5.31629e-05
5.31637e-05
5.3164e-05
5.31649e-05
5.31652e-05
5.31657e-05
5.31662e-05
5.57484e-05
5.57236e-05
5.31633e-05
5.31689e-05
5.31642e-05
5.57223e-05
5.57398e-05
5.57375e-05
5.31663e-05
5.31616e-05
5.31702e-05
5.31653e-05
5.57383e-05
5.57362e-05
5.31643e-05
5.31653e-05
5.3168e-05
5.31687e-05
5.31665e-05
5.31694e-05
5.31704e-05
5.57408e-05
5.57383e-05
5.31646e-05
5.31729e-05
5.31688e-05
5.57376e-05
5.57573e-05
5.57232e-05
5.31707e-05
5.31657e-05
5.3169e-05
5.31639e-05
5.57558e-05
5.57211e-05
5.31686e-05
5.31692e-05
5.31669e-05
5.31677e-05
5.31711e-05
5.31681e-05
5.31694e-05
5.57579e-05
5.57236e-05
5.31694e-05
5.31718e-05
5.31677e-05
5.57237e-05
5.57415e-05
5.57313e-05
5.31687e-05
5.31635e-05
5.31687e-05
5.31637e-05
5.57397e-05
5.57289e-05
5.31666e-05
5.31673e-05
5.31667e-05
5.31669e-05
5.31689e-05
5.31677e-05
5.31688e-05
5.57427e-05
5.57292e-05
5.31673e-05
5.3171e-05
5.31672e-05
5.57319e-05
5.57454e-05
5.57376e-05
5.31687e-05
5.31637e-05
5.31688e-05
5.3164e-05
5.57432e-05
5.57364e-05
5.31666e-05
5.31669e-05
5.31667e-05
5.31676e-05
5.31687e-05
5.31683e-05
5.31691e-05
5.57436e-05
5.57385e-05
5.31671e-05
5.31717e-05
5.31673e-05
5.57373e-05
5.57561e-05
5.57189e-05
5.31681e-05
5.31634e-05
5.31662e-05
5.31616e-05
5.57547e-05
5.57179e-05
5.31661e-05
5.31673e-05
5.31639e-05
5.31652e-05
5.31687e-05
5.31662e-05
5.31667e-05
5.57573e-05
5.57198e-05
5.3167e-05
5.31693e-05
5.31646e-05
5.57189e-05
5.57392e-05
5.57276e-05
5.31664e-05
5.31619e-05
5.31644e-05
5.31601e-05
5.57386e-05
5.57278e-05
5.31641e-05
5.31654e-05
5.31619e-05
5.31634e-05
5.31669e-05
5.31646e-05
5.31648e-05
5.57396e-05
5.57311e-05
5.31647e-05
5.31678e-05
5.31629e-05
5.57306e-05
5.57418e-05
5.57355e-05
5.31644e-05
5.31601e-05
5.31695e-05
5.31648e-05
5.5742e-05
5.57343e-05
5.31619e-05
5.31633e-05
5.31672e-05
5.31677e-05
5.31648e-05
5.31689e-05
5.31687e-05
5.57451e-05
5.5735e-05
5.31628e-05
5.31719e-05
5.31671e-05
5.57335e-05
5.57566e-05
5.57287e-05
5.31711e-05
5.31662e-05
5.31713e-05
5.31658e-05
5.57554e-05
5.57253e-05
5.3169e-05
5.31694e-05
5.31695e-05
5.31696e-05
5.31704e-05
5.31697e-05
5.31707e-05
5.57566e-05
5.57284e-05
5.31688e-05
5.31733e-05
5.31691e-05
5.57291e-05
5.57454e-05
5.57449e-05
5.31718e-05
5.31662e-05
5.31739e-05
5.31684e-05
5.57421e-05
5.57419e-05
5.31701e-05
5.31699e-05
5.31724e-05
5.31722e-05
5.31711e-05
5.31724e-05
5.31736e-05
5.57447e-05
5.57438e-05
5.31694e-05
5.31758e-05
5.31719e-05
5.57443e-05
5.5761e-05
5.57294e-05
5.31727e-05
5.31674e-05
5.31698e-05
5.31657e-05
5.57591e-05
5.57286e-05
5.31711e-05
5.31713e-05
5.31675e-05
5.31699e-05
5.31729e-05
5.31702e-05
5.31708e-05
5.57608e-05
5.57341e-05
5.31712e-05
5.31739e-05
5.31686e-05
5.57299e-05
5.57497e-05
5.57136e-05
5.31679e-05
5.31647e-05
5.31586e-05
5.31555e-05
5.57498e-05
5.57145e-05
5.31656e-05
5.3169e-05
5.31564e-05
5.31593e-05
5.31693e-05
5.31597e-05
5.31596e-05
5.57558e-05
5.57181e-05
5.31669e-05
5.3164e-05
5.31583e-05
5.57144e-05
5.57308e-05
5.57077e-05
5.31563e-05
5.31532e-05
5.31517e-05
5.31481e-05
5.57314e-05
5.57081e-05
5.3154e-05
5.3156e-05
5.31491e-05
5.31481e-05
5.31572e-05
5.31515e-05
5.31515e-05
5.5735e-05
5.57044e-05
5.31557e-05
5.31522e-05
5.31496e-05
5.5709e-05
5.57232e-05
5.57242e-05
5.31516e-05
5.31479e-05
5.31568e-05
5.3151e-05
5.57233e-05
5.57222e-05
5.3149e-05
5.31477e-05
5.31546e-05
5.31525e-05
5.31512e-05
5.31553e-05
5.31566e-05
5.57201e-05
5.57214e-05
5.31494e-05
5.31571e-05
5.31549e-05
5.5724e-05
5.57425e-05
5.57321e-05
5.31603e-05
5.31542e-05
5.31679e-05
5.31624e-05
5.57402e-05
5.57302e-05
5.31582e-05
5.31573e-05
5.31658e-05
5.31681e-05
5.31602e-05
5.31665e-05
5.31674e-05
5.57413e-05
5.57329e-05
5.3158e-05
5.3172e-05
5.31652e-05
5.57277e-05
5.57533e-05
5.57243e-05
5.31687e-05
5.31633e-05
5.31699e-05
5.31647e-05
5.57513e-05
5.57225e-05
5.31668e-05
5.31696e-05
5.31688e-05
5.31697e-05
5.31691e-05
5.31705e-05
5.31713e-05
5.57546e-05
5.57287e-05
5.31672e-05
5.31741e-05
5.31695e-05
5.57263e-05
5.57452e-05
5.57371e-05
5.31722e-05
5.31672e-05
5.31724e-05
5.31676e-05
5.5744e-05
5.57355e-05
5.31705e-05
5.31704e-05
5.31703e-05
5.31714e-05
5.31727e-05
5.31719e-05
5.31725e-05
5.57449e-05
5.57416e-05
5.31707e-05
5.31755e-05
5.31704e-05
5.57382e-05
5.57515e-05
5.57397e-05
5.31722e-05
5.31673e-05
5.31737e-05
5.31692e-05
5.57499e-05
5.5738e-05
5.31702e-05
5.31714e-05
5.31715e-05
5.31724e-05
5.31724e-05
5.31734e-05
5.31739e-05
5.57585e-05
5.57374e-05
5.31704e-05
5.31764e-05
5.31718e-05
5.57383e-05
5.57602e-05
5.57247e-05
5.31737e-05
5.31694e-05
5.31706e-05
5.31659e-05
5.57588e-05
5.57242e-05
5.31716e-05
5.31726e-05
5.31684e-05
5.31698e-05
5.31741e-05
5.31705e-05
5.31711e-05
5.57595e-05
5.57264e-05
5.31721e-05
5.31741e-05
5.3169e-05
5.57259e-05
5.57431e-05
5.57341e-05
5.31708e-05
5.3166e-05
5.31696e-05
5.31652e-05
5.57414e-05
5.57352e-05
5.31686e-05
5.31699e-05
5.31675e-05
5.31686e-05
5.3171e-05
5.31694e-05
5.31704e-05
5.57448e-05
5.57319e-05
5.3169e-05
5.31729e-05
5.31685e-05
5.57378e-05
5.57479e-05
5.57343e-05
5.31693e-05
5.31649e-05
5.31686e-05
5.31637e-05
5.57494e-05
5.57324e-05
5.31672e-05
5.31683e-05
5.31665e-05
5.31671e-05
5.31701e-05
5.31679e-05
5.31687e-05
5.57462e-05
5.57377e-05
5.31683e-05
5.31714e-05
5.31668e-05
5.57332e-05
5.57548e-05
5.57226e-05
5.31691e-05
5.31643e-05
5.31673e-05
5.31629e-05
5.57522e-05
5.57298e-05
5.3167e-05
5.31674e-05
5.31652e-05
5.31663e-05
5.31692e-05
5.31671e-05
5.31678e-05
5.57542e-05
5.57316e-05
5.31673e-05
5.31705e-05
5.31659e-05
5.57294e-05
5.57424e-05
5.57284e-05
5.31684e-05
5.31638e-05
5.31677e-05
5.31631e-05
5.57509e-05
5.57276e-05
5.31664e-05
5.31674e-05
5.31659e-05
5.31664e-05
5.31688e-05
5.31671e-05
5.31675e-05
5.57535e-05
5.57237e-05
5.31669e-05
5.31703e-05
5.31658e-05
5.57252e-05
5.5746e-05
5.57228e-05
5.31689e-05
5.31644e-05
5.31671e-05
5.31624e-05
5.57507e-05
5.57211e-05
5.31671e-05
5.31678e-05
5.3165e-05
5.3166e-05
5.3169e-05
5.31667e-05
5.31674e-05
5.5744e-05
5.57266e-05
5.31672e-05
5.317e-05
5.31653e-05
5.57234e-05
5.57401e-05
5.57351e-05
5.31696e-05
5.31649e-05
5.31676e-05
5.31632e-05
5.5739e-05
5.57346e-05
5.31675e-05
5.31685e-05
5.31657e-05
5.31668e-05
5.31698e-05
5.31677e-05
5.31681e-05
5.57426e-05
5.57358e-05
5.31679e-05
5.31708e-05
5.3166e-05
5.57359e-05
5.57502e-05
5.57304e-05
5.31708e-05
5.31663e-05
5.31576e-05
5.31532e-05
5.57501e-05
5.57284e-05
5.31687e-05
5.31699e-05
5.31557e-05
5.31568e-05
5.31712e-05
5.31574e-05
5.31577e-05
5.57503e-05
5.57342e-05
5.3169e-05
5.31607e-05
5.31557e-05
5.57294e-05
5.57449e-05
5.55229e-05
5.31618e-05
5.31574e-05
5.16191e-05
5.16151e-05
5.57431e-05
5.5522e-05
5.31598e-05
5.31608e-05
5.16192e-05
5.16176e-05
5.31619e-05
5.16207e-05
5.16188e-05
5.57472e-05
5.55225e-05
5.31598e-05
5.1623e-05
5.16189e-05
5.55223e-05
5.52994e-05
5.09999e-05
5.0996e-05
5.52981e-05
5.1e-05
5.09986e-05
4.30673e-05
4.30704e-05
4.30695e-05
5.09999e-05
5.53e-05
5.10002e-05
3.73769e-05
3.73764e-05
3.73767e-05
3.73767e-05
3.73694e-05
3.73756e-05
3.73043e-05
3.73764e-05
3.73695e-05
3.73756e-05
3.73764e-05
3.73043e-05
3.73714e-05
3.72959e-05
3.72959e-05
3.58829e-05
4.08678e-05
3.6601e-05
4.51385e-05
5.51099e-05
6.48883e-05
3.58835e-05
4.08674e-05
3.66009e-05
4.51412e-05
3.60232e-05
3.60232e-05
3.60232e-05
3.44005e-05
3.44005e-05
3.44005e-05
3.44005e-05
3.52763e-05
3.56382e-05
3.60241e-05
3.53761e-05
3.60479e-05
3.42427e-05
3.53827e-05
5.51119e-05
6.489e-05
3.52764e-05
3.60241e-05
3.56379e-05
3.53761e-05
3.60478e-05
3.53827e-05
3.42432e-05
3.65941e-05
3.65948e-05
3.52782e-05
3.40673e-05
3.40664e-05
3.39695e-05
5.13493e-05
3.46835e-05
5.46194e-05
7.65442e-05
8.08619e-05
3.39704e-05
5.13498e-05
3.46829e-05