/*--------------------------------*- C++ -*----------------------------------*\
| =========                 |                                                 |
| \\      /  F ield         | OpenFOAM: The Open Source CFD Toolbox           |
|  \\    /   O peration     | Version:  2312                                  |
|   \\  /    A nd           | Website:  www.openfoam.com                      |
|    \\/     M anipulation  |                                                 |
\*---------------------------------------------------------------------------*/
FoamFile
{
    version     2.0;
    format      ascii;
    arch        "LSB;label=32;scalar=64";
    class       volScalarField;
    location    "250";
    object      nut;
}
// * * * * * * * * * * * * * * * * * * * * * * * * * * * * * * * * * * * * * //

dimensions      [0 2 -1 0 0 0 0];

internalField   nonuniform List<scalar> 
172512
(
0.000233969
0.000233549
0.000233549
0.00023345
0.000232529
0.000227583
0.000227583
0.000223835
0.000230489
0.000220163
0.000220162
0.00020903
0.00022776
0.000211546
0.000211544
0.0001937
0.00022439
0.000202555
0.000202552
0.00017963
0.000220508
0.000193694
0.000193691
0.000167269
0.000216261
0.00018521
0.000185206
0.000156525
0.000211779
0.000177178
0.000177173
0.000147152
0.000207168
0.000169639
0.000169635
0.000138902
0.000202509
0.000162568
0.000162564
0.000131572
0.000197856
0.000155911
0.000155906
0.000124916
0.000193244
0.000149612
0.000149608
0.000118793
0.000188654
0.000143635
0.000143631
0.000113115
0.000184123
0.000137922
0.00013792
0.000107898
0.000179681
0.000132438
0.000132433
0.000103032
0.000175315
0.000127164
0.000127158
9.84257e-05
0.000171014
0.000122125
0.000122118
9.42321e-05
0.000166765
0.000117347
0.000117341
9.0633e-05
0.000162569
0.000112864
0.000112861
8.7706e-05
0.000158398
0.000108731
0.000108732
8.5361e-05
0.000154248
0.000105001
0.000105
8.36525e-05
0.000150128
0.000101691
0.000101686
8.25742e-05
0.000146049
9.88735e-05
9.88713e-05
8.20878e-05
0.000142032
9.65664e-05
9.65663e-05
8.21406e-05
0.000138104
9.47782e-05
9.47781e-05
8.26794e-05
0.000134282
9.3506e-05
9.35055e-05
8.36514e-05
0.000130618
9.27374e-05
9.27359e-05
8.50082e-05
0.000127142
9.24512e-05
9.24534e-05
8.66903e-05
0.000123889
9.26262e-05
9.26284e-05
8.86302e-05
0.000120889
9.3229e-05
9.32256e-05
9.07857e-05
0.000118175
9.42164e-05
9.42226e-05
9.31145e-05
0.000115776
9.55565e-05
9.55634e-05
9.55531e-05
0.000113713
9.72201e-05
9.72225e-05
9.81021e-05
0.000112005
9.91645e-05
9.9171e-05
0.000100711
0.000110681
0.000101353
0.000101362
0.000103383
0.000109723
0.000103771
0.000103768
0.000106078
0.000109086
0.000106347
0.000106347
0.000108796
0.000108824
0.00010908
0.000109083
0.000111525
0.000108939
0.00011194
0.000111954
0.000114248
0.000109416
0.000114917
0.000114915
0.000116968
0.000110208
0.000117958
0.000117956
0.000119655
0.000111326
0.000121062
0.000121079
0.000122346
0.000112762
0.000124253
0.000124244
0.000124993
0.000114406
0.000127359
0.00012738
0.000127587
0.000116503
0.000130679
0.000130676
0.000130268
0.000118597
0.000133769
0.000133774
0.000132687
0.000121193
0.000137045
0.000137073
0.000135371
0.000123771
0.000140125
0.000140137
0.000137662
0.000126751
0.000143728
0.000143668
0.000140595
0.000129526
0.00014592
0.00014606
0.000141999
0.000133179
0.000151231
0.000151121
0.000146581
0.00013529
0.000151076
0.000151247
0.000145247
0.000141447
0.000160633
0.000160586
0.000155588
0.000142525
0.000156615
0.000156795
0.000145228
0.000149046
0.000171075
0.000170606
0.000161153
0.000180918
0.000202021
0.000202174
0.000199693
0.000165567
0.000169334
0.000169394
0.000156865
0.000132145
0.000139531
0.000139497
0.000124609
0.000130162
0.000148101
0.000148136
0.000135157
0.000190014
0.000188368
0.000188407
0.000166556
0.000242961
0.000217904
0.000217869
0.000190167
0.00027182
0.000231124
0.000231109
0.000200383
0.000279736
0.000233203
0.000233218
0.00020167
0.000279699
0.000232195
0.000232219
0.000200542
0.000278341
0.000231574
0.000231581
0.000199915
0.000278333
0.000231785
0.000231781
0.000200142
0.000278999
0.000232118
0.000232117
0.000200387
0.000279291
0.000232226
0.000232228
0.000200499
0.000279358
0.000232233
0.000232238
0.000200435
0.000279401
0.000232265
0.000232272
0.000200559
0.000279394
0.000232248
0.000232256
0.000200449
0.000279388
0.000232247
0.000232252
0.000200483
0.000279381
0.000232246
0.000232256
0.000200558
0.000279367
0.000232235
0.000232238
0.000200424
0.000279401
0.000232251
0.000232256
0.000200487
0.000279444
0.000232292
0.000232298
0.000200547
0.000279466
0.000232288
0.000232297
0.000200482
0.000279465
0.000232303
0.000232311
0.00020061
0.000279412
0.000232292
0.000232302
0.000200538
0.000279288
0.00023219
0.000232199
0.000200405
0.000279207
0.00023213
0.000232114
0.00020034
0.000279255
0.000232183
0.00023218
0.000200468
0.000279389
0.000232254
0.000232282
0.000200517
0.000279445
0.000232287
0.000232287
0.000200478
0.000279449
0.000232287
0.000232296
0.000200537
0.000279457
0.000232301
0.000232305
0.000200569
0.000279446
0.000232276
0.000232285
0.000200447
0.000279423
0.000232266
0.000232274
0.000200521
0.000279408
0.000232259
0.000232265
0.000200532
0.000279398
0.000232255
0.000232262
0.000200524
0.000279395
0.000232257
0.000232261
0.000200505
0.000279395
0.000232259
0.000232264
0.000200454
0.000279401
0.000232272
0.000232276
0.000200535
0.000279584
0.000232547
0.000232555
0.000200566
0.000273216
0.000234036
0.000234042
0.000206181
0.000234257
0.000234459
0.00023446
0.000234257
0.000234459
0.000234459
0.000234259
0.000234259
0.000234259
0.000234259
0.000234458
0.000234459
0.000234257
0.000234458
0.000234459
0.000234257
0.00023345
0.00022618
0.000233549
0.000233548
0.000229126
0.000229122
0.00023345
0.00022618
0.000233548
0.000233548
0.000229124
0.000229121
0.000233549
0.000229129
0.000229127
0.00023345
0.000226179
0.000233548
0.000229129
0.000229124
0.000226178
0.000223836
0.000212153
0.00022758
0.000227575
0.000222162
0.000222156
0.000223835
0.000212153
0.000227578
0.000227574
0.000222162
0.000222155
0.000227579
0.000222168
0.000222161
0.000223836
0.00021215
0.000227578
0.000222167
0.000222161
0.000212146
0.000209034
0.000196981
0.000220156
0.00022015
0.000213753
0.000213746
0.000209032
0.000196979
0.000220157
0.000220148
0.000213758
0.000213744
0.000220154
0.000213762
0.00021375
0.000209031
0.000196975
0.000220156
0.000213761
0.000213754
0.00019697
0.000193708
0.000182805
0.000211535
0.000211528
0.000204791
0.000204784
0.000193707
0.000182802
0.000211541
0.000211526
0.0002048
0.000204781
0.000211531
0.000204804
0.000204786
0.000193704
0.000182798
0.000211537
0.000204802
0.000204795
0.000182791
0.000179642
0.000170207
0.000202541
0.000202534
0.000195864
0.000195857
0.000179639
0.000170204
0.000202551
0.000202531
0.000195876
0.000195853
0.000202536
0.000195879
0.000195858
0.000179635
0.000170199
0.000202545
0.000195877
0.000195869
0.000170192
0.000167283
0.000159191
0.000193677
0.00019367
0.000187271
0.000187264
0.00016728
0.000159187
0.000193691
0.000193666
0.000187287
0.00018726
0.000193671
0.000187289
0.000187264
0.000167275
0.000159182
0.000193684
0.000187286
0.000187279
0.000159174
0.00015654
0.00014957
0.00018519
0.000185183
0.000179118
0.000179111
0.000156537
0.000149566
0.000185207
0.000185179
0.000179137
0.000179106
0.000185183
0.000179139
0.000179111
0.000156532
0.000149559
0.000185198
0.000179135
0.000179128
0.000149552
0.000147168
0.00014107
0.000177155
0.000177148
0.000171453
0.000171446
0.000147164
0.000141066
0.000177175
0.000177144
0.000171475
0.000171442
0.000177148
0.000171477
0.000171447
0.000147158
0.000141059
0.000177166
0.000171473
0.000171466
0.000141051
0.000138918
0.000133516
0.000169614
0.000169607
0.000164268
0.000164261
0.000138914
0.000133512
0.000169637
0.000169603
0.000164292
0.000164256
0.000169608
0.000164294
0.000164262
0.000138909
0.000133505
0.000169628
0.00016429
0.000164283
0.000133497
0.000131591
0.00012666
0.000162541
0.000162534
0.000157511
0.000157504
0.000131585
0.000126658
0.000162566
0.00016253
0.000157537
0.000157498
0.000162534
0.000157539
0.000157504
0.000131579
0.000126647
0.000162556
0.000157535
0.000157528
0.00012664
0.000124935
0.000120342
0.000155882
0.000155874
0.000151126
0.000151117
0.000124932
0.000120333
0.000155909
0.00015587
0.000151155
0.000151114
0.000155876
0.000151154
0.000151121
0.000124921
0.000120326
0.000155899
0.000151152
0.000151146
0.000120327
0.000118806
0.000114417
0.000149581
0.000149573
0.000145069
0.00014506
0.000118789
0.000114394
0.00014961
0.00014957
0.000145098
0.000145056
0.000149576
0.000145099
0.00014506
0.000118788
0.000114393
0.000149601
0.000145096
0.000145086
0.000114375
0.000113159
0.000108828
0.000143601
0.000143595
0.000139294
0.000139286
0.000113148
0.000108824
0.000143631
0.000143592
0.000139325
0.000139283
0.000143595
0.000139326
0.000139289
0.000113153
0.000108817
0.00014362
0.000139324
0.000139315
0.000108798
0.000107921
0.000103681
0.00013789
0.000137881
0.000133753
0.000133747
0.000107929
0.000103693
0.00013792
0.00013788
0.000133784
0.000133738
0.000137884
0.000133788
0.00013375
0.000107928
0.000103659
0.00013791
0.00013378
0.000133776
0.000103671
0.000103042
9.9146e-05
0.000132402
0.000132396
0.000128433
0.00012842
0.000103058
9.91339e-05
0.000132433
0.000132392
0.000128462
0.000128417
0.000132399
0.000128463
0.000128426
0.000103035
9.91225e-05
0.000132425
0.000128459
0.00012845
9.9113e-05
9.84584e-05
9.49909e-05
0.000127134
0.00012712
0.000123328
0.000123315
9.84458e-05
9.49869e-05
0.000127162
0.000127116
0.000123354
0.000123314
0.000127128
0.000123358
0.000123325
9.84289e-05
9.49914e-05
0.000127152
0.000123356
0.000123346
9.49669e-05
9.42511e-05
9.14238e-05
0.000122093
0.000122081
0.00011846
0.000118446
9.42493e-05
9.14188e-05
0.000122119
0.000122077
0.000118484
0.000118445
0.000122089
0.000118489
0.000118458
9.42471e-05
9.14181e-05
0.00012211
0.000118486
0.000118477
9.14077e-05
9.0642e-05
8.83589e-05
0.000117316
0.000117303
0.000113904
0.000113887
9.06376e-05
8.83511e-05
0.00011734
0.0001173
0.000113927
0.000113889
0.000117312
0.00011393
0.000113906
9.06355e-05
8.83521e-05
0.00011733
0.000113931
0.000113922
8.83538e-05
8.77086e-05
8.58893e-05
0.000112835
0.00011282
0.000109676
0.000109656
8.76991e-05
8.58835e-05
0.000112858
0.00011282
0.000109697
0.00010966
0.000112832
0.0001097
0.000109678
8.77043e-05
8.58798e-05
0.000112848
0.000109701
0.000109693
8.5891e-05
8.53589e-05
8.40536e-05
0.000108707
0.000108687
0.000105836
0.000105819
8.53456e-05
8.40613e-05
0.000108728
0.000108691
0.000105856
0.00010582
0.000108703
0.000105861
0.000105838
8.53532e-05
8.40451e-05
0.000108717
0.00010586
0.000105851
8.40569e-05
8.36422e-05
8.28618e-05
0.000104975
0.000104958
0.000102443
0.00010243
8.36399e-05
8.28664e-05
0.000104996
0.00010496
0.000102464
0.000102428
0.000104977
0.000102471
0.000102447
8.36379e-05
8.28499e-05
0.00010499
0.000102468
0.000102459
8.28513e-05
8.25682e-05
8.22598e-05
0.000101662
0.000101649
9.95027e-05
9.94915e-05
8.25773e-05
8.22601e-05
0.000101682
0.000101647
9.95233e-05
9.9492e-05
0.000101667
9.95304e-05
9.9508e-05
8.25577e-05
8.22567e-05
0.000101678
9.95304e-05
9.95191e-05
8.22442e-05
8.20921e-05
8.2205e-05
9.88453e-05
9.88331e-05
9.70682e-05
9.70576e-05
8.20929e-05
8.22029e-05
9.88656e-05
9.88336e-05
9.70884e-05
9.70585e-05
9.88518e-05
9.70943e-05
9.70732e-05
8.209e-05
8.21979e-05
9.88621e-05
9.70954e-05
9.70831e-05
8.21902e-05
8.215e-05
8.26421e-05
9.65388e-05
9.65282e-05
9.51503e-05
9.5141e-05
8.21491e-05
8.26412e-05
9.65585e-05
9.65302e-05
9.51697e-05
9.51405e-05
9.65459e-05
9.51754e-05
9.51553e-05
8.21476e-05
8.26339e-05
9.6555e-05
9.51759e-05
9.51642e-05
8.26313e-05
8.26898e-05
8.35241e-05
9.47528e-05
9.47426e-05
9.37473e-05
9.37414e-05
8.26884e-05
8.35268e-05
9.47717e-05
9.47438e-05
9.37659e-05
9.37397e-05
9.4759e-05
9.37737e-05
9.37543e-05
8.26824e-05
8.35198e-05
9.4767e-05
9.37731e-05
9.37621e-05
8.35192e-05
8.36571e-05
8.48072e-05
9.34804e-05
9.34727e-05
9.28556e-05
9.28494e-05
8.36603e-05
8.48043e-05
9.34983e-05
9.34731e-05
9.28731e-05
9.28489e-05
9.34869e-05
9.28793e-05
9.28644e-05
8.36534e-05
8.48026e-05
9.34939e-05
9.28805e-05
9.2871e-05
8.48038e-05
8.50106e-05
8.64249e-05
9.27117e-05
9.27064e-05
9.24567e-05
9.24494e-05
8.50114e-05
8.64208e-05
9.27284e-05
9.27053e-05
9.24729e-05
9.24516e-05
9.27198e-05
9.24773e-05
9.24661e-05
8.50065e-05
8.64224e-05
9.27255e-05
9.24812e-05
9.24713e-05
8.64205e-05
8.66929e-05
8.83105e-05
9.243e-05
9.24226e-05
9.25199e-05
9.25167e-05
8.66884e-05
8.83132e-05
9.24454e-05
9.24249e-05
9.2535e-05
9.25151e-05
9.24398e-05
9.25427e-05
9.25285e-05
8.66898e-05
8.83082e-05
9.24443e-05
9.2543e-05
9.25324e-05
8.83055e-05
8.86352e-05
9.04215e-05
9.26051e-05
9.25995e-05
9.30197e-05
9.30155e-05
8.86375e-05
9.04179e-05
9.26192e-05
9.26014e-05
9.30333e-05
9.30149e-05
9.26155e-05
9.30395e-05
9.30277e-05
8.86329e-05
9.04206e-05
9.26185e-05
9.30409e-05
9.30303e-05
9.04206e-05
9.07905e-05
9.27028e-05
9.3207e-05
9.32042e-05
9.39144e-05
9.39083e-05
9.07906e-05
9.26986e-05
9.32198e-05
9.32007e-05
9.39267e-05
9.39161e-05
9.32144e-05
9.39305e-05
9.39281e-05
9.07869e-05
9.27087e-05
9.32161e-05
9.3941e-05
9.39291e-05
9.27094e-05
9.31088e-05
9.51243e-05
9.41997e-05
9.41938e-05
9.5173e-05
9.51706e-05
9.31028e-05
9.51274e-05
9.42111e-05
9.41988e-05
9.51837e-05
9.51689e-05
9.42092e-05
9.51914e-05
9.51863e-05
9.3116e-05
9.51163e-05
9.42096e-05
9.51921e-05
9.51858e-05
9.51219e-05
9.55499e-05
9.76588e-05
9.55397e-05
9.55353e-05
9.67664e-05
9.6762e-05
9.55518e-05
9.7655e-05
9.55499e-05
9.55415e-05
9.67757e-05
9.67601e-05
9.55543e-05
9.67817e-05
9.67752e-05
9.55469e-05
9.76579e-05
9.55529e-05
9.6783e-05
9.67734e-05
9.76528e-05
9.81072e-05
0.000100247
9.72045e-05
9.72001e-05
9.86407e-05
9.86387e-05
9.81054e-05
0.000100248
9.72137e-05
9.72026e-05
9.8648e-05
9.86385e-05
9.7217e-05
9.86576e-05
9.86547e-05
9.81006e-05
0.000100257
9.72143e-05
9.86616e-05
9.86514e-05
0.000100253
0.000100712
0.000102907
9.91467e-05
9.91455e-05
0.00010077
0.000100761
0.000100713
0.000102899
9.91546e-05
9.91519e-05
0.000100777
0.000100765
9.91559e-05
0.000100777
0.000100782
0.00010072
0.000102901
9.91524e-05
0.000100784
0.000100777
0.000102907
0.000103378
0.000105598
0.000101341
0.000101334
0.000103117
0.000103117
0.000103369
0.000105607
0.000101348
0.00010134
0.000103123
0.00010313
0.000101358
0.000103132
0.000103129
0.000103377
0.000105603
0.000101352
0.000103144
0.000103125
0.0001056
0.00010608
0.000108309
0.000103759
0.000103756
0.000105655
0.000105648
0.000106086
0.0001083
0.000103762
0.000103742
0.000105663
0.00010567
0.000103768
0.000105669
0.000105673
0.000106082
0.000108309
0.000103763
0.000105682
0.000105664
0.000108309
0.000108795
0.000111039
0.000106331
0.000106325
0.000108375
0.000108371
0.000108789
0.000111039
0.000106334
0.000106319
0.000108379
0.000108379
0.00010635
0.000108381
0.000108382
0.000108795
0.00011104
0.00010634
0.000108395
0.000108378
0.000111039
0.000111527
0.000113757
0.000109069
0.000109067
0.000111212
0.000111207
0.000111526
0.000113758
0.000109073
0.000109066
0.000111213
0.000111208
0.000109082
0.000111226
0.000111227
0.000111529
0.000113758
0.000109074
0.000111233
0.000111218
0.000113759
0.00011425
0.000116481
0.000111937
0.000111929
0.000114144
0.000114134
0.000114248
0.000116471
0.000111942
0.000111941
0.000114147
0.000114143
0.000111942
0.000114153
0.000114164
0.000114248
0.000116485
0.000111939
0.000114165
0.000114152
0.000116485
0.000116959
0.000119177
0.000114895
0.000114892
0.000117166
0.000117167
0.000116958
0.000119185
0.000114895
0.000114893
0.000117169
0.000117177
0.000114923
0.000117178
0.000117173
0.000116967
0.000119174
0.000114906
0.000117192
0.000117166
0.000119172
0.000119664
0.000121875
0.000117956
0.000117947
0.00012029
0.000120273
0.000119662
0.00012186
0.000117958
0.000117937
0.00012029
0.00012029
0.000117959
0.000120291
0.000120304
0.000119658
0.00012188
0.000117953
0.000120313
0.000120295
0.000121878
0.000122343
0.000124515
0.000121052
0.000121042
0.000123407
0.000123403
0.000122337
0.00012452
0.000121053
0.000121058
0.000123407
0.000123413
0.000121068
0.000123421
0.000123419
0.00012235
0.000124517
0.000121059
0.000123429
0.00012341
0.000124517
0.000124993
0.000127145
0.000124242
0.000124234
0.000126596
0.000126582
0.000124994
0.000127138
0.000124241
0.000124223
0.000126595
0.00012659
0.000124254
0.000126596
0.000126604
0.000124994
0.000127144
0.000124244
0.000126612
0.000126595
0.000127142
0.00012759
0.000129813
0.000127356
0.000127341
0.00012986
0.00012985
0.000127583
0.000129811
0.000127355
0.00012736
0.000129859
0.000129863
0.000127362
0.00012987
0.000129872
0.000127591
0.000129817
0.000127354
0.000129884
0.000129863
0.000129815
0.000130266
0.00013222
0.000130674
0.000130664
0.000132886
0.000132869
0.000130265
0.000132212
0.000130673
0.000130654
0.000132884
0.000132882
0.000130688
0.00013289
0.000132889
0.000130267
0.000132225
0.000130679
0.000132903
0.000132882
0.000132216
0.000132692
0.000135016
0.000133752
0.000133737
0.000136345
0.000136327
0.000132685
0.000135013
0.00013375
0.000133754
0.000136343
0.000136332
0.000133759
0.000136332
0.000136351
0.0001327
0.000135012
0.00013375
0.000136356
0.000136346
0.000135016
0.000135375
0.000137115
0.000137065
0.000137048
0.000139208
0.000139197
0.000135369
0.000137111
0.000137062
0.000137053
0.000139207
0.000139207
0.000137062
0.000139234
0.000139223
0.000135365
0.000137121
0.000137058
0.000139226
0.000139214
0.000137119
0.000137654
0.00014032
0.000140111
0.000140083
0.000142843
0.000142843
0.000137644
0.000140335
0.000140114
0.000140111
0.000142836
0.000142846
0.000140134
0.000142873
0.000142829
0.000137668
0.000140331
0.000140125
0.000142869
0.000142821
0.000140305
0.000140602
0.000141482
0.000143674
0.00014371
0.000145427
0.000145347
0.000140644
0.000141383
0.000143664
0.000143658
0.000145436
0.000145397
0.000143668
0.000145297
0.000145438
0.000140592
0.000141445
0.000143655
0.000145426
0.000145458
0.00014149
0.000142018
0.000146136
0.000146021
0.000145915
0.000149614
0.000149686
0.000141868
0.00014627
0.000146029
0.000146019
0.000149592
0.000149634
0.000146004
0.000149818
0.000149631
0.000142012
0.000146185
0.000146027
0.000149641
0.000149572
0.000146145
0.000146535
0.000145572
0.000151108
0.000151173
0.000151541
0.000151469
0.000146657
0.000145413
0.000151095
0.000151115
0.000151566
0.000151526
0.000151152
0.000151357
0.000151577
0.000146559
0.000145528
0.000151108
0.000151566
0.00015163
0.000145594
0.000145246
0.000154325
0.000151232
0.000151156
0.0001582
0.000158238
0.000145072
0.00015447
0.000151254
0.000151209
0.000158168
0.000158162
0.000151238
0.00015836
0.000158132
0.000145199
0.000154324
0.000151286
0.000158141
0.000158057
0.000154272
0.000155589
0.000147305
0.00016058
0.000160592
0.000158702
0.000158646
0.000155684
0.000147159
0.000160564
0.000160583
0.00015872
0.000158754
0.000160579
0.000158596
0.000158765
0.000155616
0.000147382
0.000160546
0.000158817
0.000158819
0.000147399
0.000145152
0.000152168
0.000156696
0.000156639
0.000157937
0.000157927
0.000145023
0.000152346
0.000156717
0.000156729
0.000157931
0.000157846
0.000156747
0.000158047
0.000157904
0.000145209
0.000151962
0.000156798
0.000157849
0.000157849
0.000151989
0.000161326
0.00019873
0.000170847
0.000170871
0.000199872
0.000199856
0.000161483
0.000198692
0.00017081
0.000170667
0.000199859
0.000199912
0.00017075
0.00019984
0.000199891
0.000161135
0.000198832
0.000170605
0.000199945
0.000199904
0.000198809
0.000199606
0.000164444
0.000202067
0.000202053
0.000183626
0.000183632
0.000199566
0.000164448
0.000202059
0.00020213
0.00018366
0.000183711
0.000202097
0.000183649
0.000183658
0.00019972
0.00016452
0.000202126
0.000183806
0.000183727
0.00016445
0.000156869
0.000126419
0.000169284
0.000169274
0.000142822
0.000142781
0.000156875
0.000126392
0.000169313
0.000169315
0.000142838
0.000142775
0.000169292
0.000142846
0.000142796
0.000156908
0.000126359
0.000169335
0.00014281
0.000142804
0.000126366
0.000124657
0.000130545
0.000139519
0.000139477
0.000139181
0.000139146
0.000124628
0.000130515
0.000139532
0.000139468
0.000139185
0.000139133
0.00013949
0.00013914
0.000139151
0.000124597
0.000130512
0.000139496
0.000139139
0.000139149
0.00013053
0.000135164
0.000161952
0.000148178
0.000148154
0.000178982
0.000178964
0.000135138
0.000161943
0.000148177
0.000148143
0.000178987
0.000178985
0.000148152
0.000178967
0.000178985
0.000135139
0.000161974
0.000148148
0.000179021
0.000178988
0.000161962
0.000166555
0.00018737
0.00018836
0.000188345
0.000211917
0.000211907
0.000166553
0.000187388
0.000188367
0.000188365
0.000211927
0.000211908
0.000188368
0.00021199
0.000211921
0.000166578
0.000187376
0.000188371
0.000211966
0.000211922
0.000187349
0.000190195
0.000199687
0.000217828
0.000217816
0.000229186
0.000229163
0.000190213
0.000199686
0.000217839
0.000217815
0.000229203
0.000229167
0.000217827
0.000229242
0.000229172
0.000190197
0.000199682
0.000217828
0.000229217
0.000229182
0.000199655
0.000200413
0.00020189
0.000231082
0.000231056
0.000233127
0.000233096
0.000200407
0.000201873
0.000231101
0.000231062
0.000233151
0.000233104
0.000231066
0.000233141
0.000233111
0.000200407
0.000201878
0.000231081
0.000233153
0.000233136
0.000201871
0.000201686
0.000200813
0.000233191
0.000233159
0.000232541
0.000232508
0.000201668
0.000200795
0.000233216
0.000233168
0.000232568
0.000232522
0.000233176
0.000232549
0.00023253
0.000201674
0.000200807
0.000233202
0.000232575
0.000232559
0.0002008
0.000200553
0.000200137
0.000232183
0.000232151
0.000231596
0.000231569
0.000200536
0.000200127
0.00023221
0.000232166
0.000231621
0.00023158
0.000232173
0.000231621
0.000231586
0.000200549
0.000200137
0.0002322
0.000231633
0.000231608
0.000200121
0.00019993
0.000200278
0.000231546
0.00023152
0.000231623
0.000231602
0.00019992
0.000200274
0.00023157
0.000231529
0.000231645
0.000231603
0.000231535
0.000231659
0.000231612
0.00019993
0.000200271
0.000231556
0.000231655
0.000231631
0.000200258
0.00020016
0.000200557
0.000231748
0.000231728
0.000232024
0.000232004
0.000200157
0.000200551
0.000231771
0.000231727
0.000232047
0.000232001
0.000231738
0.000232057
0.000232013
0.000200153
0.000200547
0.000231758
0.000232055
0.000232037
0.000200539
0.000200404
0.000200689
0.000232086
0.000232064
0.000232186
0.000232161
0.000200399
0.000200682
0.000232109
0.000232063
0.000232211
0.000232167
0.000232075
0.000232217
0.000232174
0.000200395
0.000200681
0.000232099
0.000232218
0.000232196
0.00020067
0.000200517
0.000200643
0.000232197
0.000232171
0.000232203
0.000232177
0.00020051
0.000200633
0.000232222
0.000232178
0.000232228
0.000232186
0.000232185
0.000232232
0.00023219
0.00020051
0.000200638
0.000232206
0.000232236
0.00023221
0.00020062
0.000200457
0.00020074
0.000232204
0.000232179
0.000232235
0.000232209
0.000200447
0.000200733
0.00023223
0.000232188
0.000232259
0.000232215
0.000232191
0.00023226
0.000232223
0.000200453
0.000200736
0.000232213
0.000232267
0.000232247
0.000200721
0.000200577
0.000200644
0.000232241
0.000232214
0.000232228
0.000232199
0.000200569
0.000200631
0.000232265
0.00023222
0.000232252
0.000232209
0.000232229
0.000232252
0.000232217
0.000200571
0.000200634
0.000232253
0.00023226
0.00023224
0.000200628
0.000200467
0.000200703
0.000232225
0.000232196
0.000232225
0.000232197
0.000200456
0.000200686
0.000232249
0.000232205
0.000232249
0.000232201
0.000232212
0.000232247
0.00023221
0.000200463
0.000200676
0.000232237
0.000232252
0.000232235
0.000200687
0.000200498
0.000200746
0.000232225
0.000232197
0.000232226
0.0002322
0.000200482
0.000200738
0.000232249
0.000232201
0.000232251
0.000232206
0.00023221
0.000232252
0.000232213
0.000200472
0.00020074
0.000232235
0.000232258
0.000232237
0.000200723
0.000200575
0.000200611
0.000232221
0.000232195
0.000232202
0.000232177
0.000200565
0.000200604
0.000232246
0.000232204
0.000232226
0.000232185
0.000232211
0.000232232
0.000232192
0.000200569
0.000200607
0.000232235
0.000232237
0.000232213
0.000200593
0.000200448
0.000200692
0.000232203
0.000232179
0.000232219
0.000232197
0.000200443
0.000200693
0.000232226
0.000232186
0.000232241
0.000232204
0.000232192
0.000232252
0.00023221
0.00020044
0.000200705
0.000232212
0.000232257
0.000232231
0.000200692
0.000200486
0.000200732
0.000232218
0.000232196
0.000232255
0.00023223
0.000200488
0.000200726
0.000232239
0.000232202
0.000232277
0.000232232
0.000232208
0.000232282
0.000232235
0.000200499
0.00020072
0.000232229
0.000232285
0.000232259
0.000200699
0.000200576
0.000200693
0.000232268
0.000232242
0.000232268
0.000232238
0.00020057
0.000200671
0.000232292
0.000232247
0.000232295
0.000232247
0.000232249
0.000232287
0.00023225
0.000200567
0.000200682
0.000232274
0.000232296
0.000232275
0.000200677
0.000200501
0.000200814
0.000232272
0.000232239
0.000232293
0.000232259
0.00020048
0.000200791
0.0002323
0.000232249
0.000232323
0.000232269
0.000232252
0.000232309
0.000232276
0.000200488
0.000200792
0.000232277
0.000232317
0.0002323
0.000200789
0.000200626
0.000200708
0.000232284
0.000232252
0.000232263
0.000232241
0.000200611
0.000200699
0.000232314
0.000232262
0.000232287
0.000232255
0.000232271
0.000232295
0.000232258
0.000200609
0.000200725
0.000232295
0.000232305
0.000232277
0.000200692
0.000200552
0.000200601
0.000232249
0.000232235
0.000232172
0.000232159
0.00020055
0.000200606
0.000232273
0.00023225
0.000232196
0.000232173
0.000232247
0.000232212
0.000232167
0.00020058
0.000200623
0.000232265
0.000232229
0.000232194
0.000200586
0.000200417
0.000200555
0.000232152
0.00023214
0.000232106
0.000232091
0.000200421
0.000200559
0.000232176
0.000232145
0.000232127
0.000232071
0.000232146
0.000232137
0.000232092
0.000200439
0.000200524
0.000232172
0.000232123
0.000232114
0.000200546
0.000200351
0.000200666
0.000232102
0.000232086
0.000232136
0.000232103
0.000200353
0.000200655
0.000232122
0.000232062
0.00023216
0.000232089
0.000232085
0.000232156
0.00023212
0.000200321
0.000200631
0.000232108
0.000232146
0.000232145
0.000200645
0.00020048
0.000200719
0.000232163
0.000232127
0.000232225
0.000232194
0.000200466
0.000200708
0.000232187
0.000232126
0.00023225
0.000232217
0.000232147
0.000232244
0.000232206
0.000200456
0.000200711
0.000232168
0.000232267
0.000232226
0.000200669
0.000200559
0.000200657
0.000232231
0.0002322
0.000232238
0.000232209
0.000200547
0.000200647
0.000232257
0.000232229
0.000232272
0.000232229
0.000232219
0.000232275
0.000232236
0.000200553
0.000200685
0.000232242
0.000232285
0.00023226
0.000200655
0.000200501
0.000200742
0.000232257
0.000232229
0.00023226
0.000232233
0.000200494
0.000200732
0.000232286
0.000232234
0.000232285
0.000232243
0.000232247
0.000232287
0.000232246
0.000200494
0.000200763
0.000232269
0.000232295
0.000232267
0.000200731
0.000200548
0.000200746
0.000232258
0.00023223
0.000232271
0.000232247
0.000200538
0.000200733
0.000232284
0.000232242
0.000232296
0.000232252
0.000232245
0.0002323
0.000232258
0.000200588
0.000200719
0.000232267
0.000232303
0.000232279
0.000200714
0.000200596
0.000200642
0.000232272
0.000232249
0.000232248
0.000232223
0.000200586
0.00020064
0.000232296
0.000232253
0.000232273
0.000232233
0.00023226
0.000232278
0.000232237
0.000200581
0.000200641
0.000232282
0.000232287
0.000232258
0.000200632
0.000200469
0.000200718
0.000232249
0.000232222
0.000232242
0.000232218
0.000200458
0.000200725
0.000232274
0.000232233
0.000232267
0.000232224
0.000232236
0.000232271
0.000232233
0.000200469
0.000200689
0.000232258
0.000232278
0.000232256
0.000200726
0.000200507
0.000200721
0.000232237
0.000232214
0.000232233
0.000232206
0.000200517
0.000200709
0.000232262
0.00023222
0.000232258
0.000232213
0.000232229
0.000232258
0.00023222
0.00020048
0.000200741
0.000232253
0.000232266
0.000232243
0.0002007
0.000200554
0.000200649
0.000232235
0.000232208
0.000232223
0.0002322
0.000200536
0.000200698
0.000232259
0.000232212
0.000232248
0.000232206
0.000232221
0.000232252
0.000232213
0.000200544
0.000200701
0.000232244
0.000232259
0.000232236
0.000200678
0.000200472
0.000200697
0.000232227
0.000232203
0.000232227
0.000232202
0.000200533
0.000200688
0.000232252
0.00023221
0.000232254
0.000232207
0.000232216
0.000232253
0.000232211
0.000200544
0.000200645
0.000232239
0.000232258
0.000232235
0.000200649
0.000200509
0.000200656
0.00023223
0.000232206
0.000232222
0.000232197
0.000200538
0.000200647
0.000232257
0.000232211
0.000232247
0.000232204
0.000232215
0.00023225
0.00023221
0.000200478
0.000200662
0.000232239
0.000232255
0.000232231
0.000200639
0.000200472
0.000200734
0.000232232
0.000232206
0.00023223
0.000232205
0.000200464
0.000200737
0.000232257
0.000232213
0.000232254
0.000232212
0.000232218
0.00023226
0.000232218
0.000200467
0.000200729
0.000232241
0.000232263
0.000232239
0.000200722
0.000200544
0.000200735
0.000232242
0.000232218
0.00023215
0.000232126
0.00020055
0.000200726
0.000232267
0.000232225
0.000232176
0.000232135
0.00023223
0.000232179
0.000232135
0.000200526
0.000200761
0.000232252
0.000232185
0.000232159
0.000200712
0.000200586
0.000204057
0.000232519
0.000232496
0.000233641
0.000233622
0.000200578
0.000204052
0.000232545
0.000232506
0.000233657
0.000233628
0.000232506
0.000233657
0.00023363
0.000200596
0.000204049
0.000232529
0.000233662
0.000233643
0.000204042
0.0002062
0.000234025
0.000234007
0.000206189
0.000234039
0.000234013
0.000273205
0.000273213
0.000273203
0.000234013
0.000206193
0.000234023
0.000234728
0.000234779
0.000234733
0.000234733
0.000235111
0.000234805
0.000234701
0.000234742
0.000235111
0.000234806
0.000234742
0.000234701
0.000234859
0.000233567
0.000233568
0.000104728
3.87616e-05
0.000129351
3.98356e-05
2.16916e-05
2.28358e-05
0.000104691
3.87577e-05
0.000129384
3.98323e-05
0.000233969
0.000233969
0.000233969
0.000232943
0.000232943
0.000232943
0.000232943
0.000206273
9.38644e-05
0.000233996
0.00023175
0.000222758
8.73169e-05
0.000233595
2.16909e-05
2.28351e-05
0.000206271
0.000233996
9.38633e-05
0.00023175
0.000222758
0.000233595
8.73207e-05
4.78467e-05
4.78373e-05
0.000231405
4.40452e-05
4.40306e-05
7.25481e-05
4.24351e-05
8.13597e-05
4.3763e-05
2.47743e-05
2.54623e-05
7.25339e-05
4.24302e-05
8.13687e-05
4.37594e-05
0.000232529