0 	6.59593e-12 	1.62382e-11 	9.30081e-09
0.010101 	7.62122e-12 	1.64105e-08 	8.21516e-06
0.020202 	3.89129e-12 	3.28063e-08 	1.6421e-05
0.030303 	1.41988e-12 	3.93196e-08 	2.53291e-05
0.040404 	-7.66307e-13 	4.35931e-08 	3.43964e-05
0.0505051 	-8.48749e-12 	4.2709e-08 	4.33286e-05
0.0606061 	-8.8661e-12 	3.20502e-08 	5.20149e-05
0.0707071 	-9.24471e-12 	2.13914e-08 	6.07011e-05
0.0808081 	-9.62332e-12 	1.07325e-08 	6.93874e-05
0.0909091 	-1.00019e-11 	7.36745e-11 	7.80736e-05
0.10101 	-1.08661e-11 	-5.35961e-09 	8.50781e-05
0.111111 	-1.0032e-11 	-4.68041e-09 	9.01125e-05
0.121212 	-9.19786e-12 	-4.0012e-09 	9.51468e-05
0.131313 	-8.36374e-12 	-3.322e-09 	0.000100181
0.141414 	-7.52962e-12 	-2.64279e-09 	0.000105216
0.151515 	-6.36415e-12 	-1.83023e-09 	0.000109564
0.161616 	-4.89081e-12 	-8.93783e-10 	0.000113274
0.171717 	-3.41748e-12 	4.26698e-11 	0.000116985
0.181818 	-1.94414e-12 	9.79122e-10 	0.000120695
0.191919 	-4.70804e-13 	1.91557e-09 	0.000124406
0.20202 	5.68876e-13 	2.42995e-09 	0.000127218
0.212121 	1.06725e-12 	2.58857e-09 	0.000129272
0.222222 	1.56561e-12 	2.74719e-09 	0.000131326
0.232323 	2.09326e-12 	2.9058e-09 	0.000133381
0.242424 	2.64531e-12 	3.06442e-09 	0.000135435
0.252525 	3.19736e-12 	3.22303e-09 	0.000137489
0.262626 	3.74941e-12 	3.38165e-09 	0.000139544
0.272727 	4.30146e-12 	3.54026e-09 	0.000141598
0.282828 	4.85351e-12 	3.69888e-09 	0.000143652
0.292929 	5.40556e-12 	3.85749e-09 	0.000145707
0.30303 	5.18095e-12 	3.70534e-09 	0.000146861
0.313131 	4.21426e-12 	3.28972e-09 	0.000147251
0.323232 	3.24756e-12 	2.87411e-09 	0.000147641
0.333333 	2.28087e-12 	2.45849e-09 	0.000148032
0.343434 	1.31417e-12 	2.04287e-09 	0.000148422
0.353535 	3.4748e-13 	1.62726e-09 	0.000148812
0.363636 	-6.19215e-13 	1.21164e-09 	0.000149203
0.373737 	-1.58591e-12 	7.96023e-10 	0.000149593
0.383838 	-2.5526e-12 	3.80406e-10 	0.000149984
0.393939 	-3.5193e-12 	-3.52113e-11 	0.000150374
0.40404 	-4.20489e-12 	-2.18975e-10 	0.000150597
0.414141 	-4.4315e-12 	-1.95276e-10 	0.000150671
0.424242 	-4.6581e-12 	-1.71578e-10 	0.000150746
0.434343 	-4.88471e-12 	-1.47879e-10 	0.00015082
0.444444 	-5.11132e-12 	-1.24181e-10 	0.000150894
0.454545 	-5.33793e-12 	-1.00483e-10 	0.000150968
0.464646 	-5.56453e-12 	-7.67841e-11 	0.000151042
0.474747 	-5.79114e-12 	-5.30856e-11 	0.000151116
0.484848 	-6.01775e-12 	-2.93872e-11 	0.00015119
0.494949 	-6.24436e-12 	-5.68873e-12 	0.000151264
0.505051 	-5.89798e-12 	1.79922e-11 	0.000151264
0.515152 	-5.28301e-12 	4.13507e-11 	0.00015119
0.525253 	-4.66804e-12 	6.47093e-11 	0.000151116
0.535354 	-4.05307e-12 	8.80678e-11 	0.000151042
0.545455 	-3.4381e-12 	1.11426e-10 	0.000150968
0.555556 	-2.82313e-12 	1.34785e-10 	0.000150894
0.565657 	-2.20816e-12 	1.58143e-10 	0.00015082
0.575758 	-1.59319e-12 	1.81502e-10 	0.000150745
0.585859 	-9.78216e-13 	2.0486e-10 	0.000150671
0.59596 	-3.63246e-13 	2.28219e-10 	0.000150597
0.606061 	2.50305e-13 	4.39444e-11 	0.000150373
0.616162 	1.1064e-12 	-3.71825e-10 	0.000149983
0.626263 	1.9625e-12 	-7.87594e-10 	0.000149592
0.636364 	2.8186e-12 	-1.20336e-09 	0.000149202
0.646465 	3.67469e-12 	-1.61913e-09 	0.000148811
0.656566 	4.53079e-12 	-2.0349e-09 	0.000148421
0.666667 	5.38689e-12 	-2.45067e-09 	0.000148031
0.676768 	6.24298e-12 	-2.86644e-09 	0.00014764
0.686869 	7.09908e-12 	-3.28221e-09 	0.00014725
0.69697 	7.95518e-12 	-3.69798e-09 	0.000146859
0.707071 	7.46702e-12 	-3.84992e-09 	0.000145703
0.717172 	6.5187e-12 	-3.6926e-09 	0.000143648
0.727273 	5.57039e-12 	-3.53528e-09 	0.000141594
0.737374 	4.62207e-12 	-3.37796e-09 	0.000139539
0.747475 	3.67375e-12 	-3.22064e-09 	0.000137485
0.757576 	2.72543e-12 	-3.06332e-09 	0.00013543
0.767677 	1.77711e-12 	-2.906e-09 	0.000133375
0.777778 	8.28794e-13 	-2.74868e-09 	0.000131321
0.787879 	-1.1983e-13 	-2.59136e-09 	0.000129266
0.79798 	-1.12894e-12 	-2.43394e-09 	0.000127211
0.808081 	-2.5226e-12 	-1.91965e-09 	0.000124397
0.818182 	-4.4581e-12 	-9.84393e-10 	0.000120686
0.828283 	-6.3936e-12 	-4.91403e-11 	0.000116975
0.838384 	-8.32911e-12 	8.86113e-10 	0.000113264
0.848485 	-1.02646e-11 	1.82137e-09 	0.000109553
0.858586 	-1.17524e-11 	2.63311e-09 	0.000105202
0.868687 	-1.27618e-11 	3.31291e-09 	0.000100168
0.878788 	-1.37712e-11 	3.99271e-09 	9.51333e-05
0.888889 	-1.47806e-11 	4.67252e-09 	9.00988e-05
0.89899 	-1.57901e-11 	5.35232e-09 	8.50642e-05
0.909091 	-1.46818e-11 	-1.04501e-10 	7.80518e-05
0.919192 	-1.36559e-11 	-1.07618e-08 	6.93655e-05
0.929293 	-1.26299e-11 	-2.14191e-08 	6.06792e-05
0.939394 	-1.16039e-11 	-3.20764e-08 	5.19929e-05
0.949495 	-1.0578e-11 	-4.27336e-08 	4.33066e-05
0.959596 	-2.02874e-12 	-4.35808e-08 	3.43736e-05
0.969697 	1.18567e-12 	-3.93058e-08 	2.53066e-05
0.979798 	4.43499e-12 	-3.27629e-08 	1.64008e-05
0.989899 	7.83593e-12 	-1.63685e-08 	8.19492e-06
