/*--------------------------------*- C++ -*----------------------------------*\
| =========                 |                                                 |
| \\      /  F ield         | OpenFOAM: The Open Source CFD Toolbox           |
|  \\    /   O peration     | Version:  2312                                  |
|   \\  /    A nd           | Website:  www.openfoam.com                      |
|    \\/     M anipulation  |                                                 |
\*---------------------------------------------------------------------------*/
FoamFile
{
    version     2.0;
    format      ascii;
    arch        "LSB;label=32;scalar=64";
    class       volScalarField;
    location    "100";
    object      p;
}
// * * * * * * * * * * * * * * * * * * * * * * * * * * * * * * * * * * * * * //

dimensions      [0 2 -2 0 0 0 0];

internalField   nonuniform List<scalar> 
43496
(
0.000736817
0.000736788
0.00073891
0.000736887
0.00073693
0.000738919
0.000736818
0.000736796
0.000736934
0.000738909
0.000738918
0.000736886
0.000737271
0.000736806
0.0007368
0.000736788
0.0007368
0.000741086
0.000741077
0.000736809
0.00073681
0.000741075
0.0007411
0.000736786
0.000741088
0.000736777
0.000741084
0.000736782
0.0007411
0.000741109
0.000741084
0.000736807
0.000736815
0.000741105
0.000741088
0.000736792
0.000741104
0.000736787
0.000741092
0.000741108
0.000736784
0.000741095
0.000736778
0.000736778
0.000741095
0.000741092
0.000736775
0.000741044
0.000736802
0.000741096
0.000736857
0.000741078
0.000741018
0.000736839
0.000741037
0.000736803
0.000741085
0.000736856
0.000741022
0.00074107
0.000736832
0.000741088
0.000741087
0.000738937
0.000738942
0.000738931
0.000740998
0.000736982
0.000740876
0.000740782
0.00074094
0.000736936
0.000737053
0.000740952
0.00074077
0.000737058
0.0007408
0.000736914
0.000740956
0.000737045
0.000740782
0.000740943
0.000737054
0.000736941
0.000740771
0.00074095
0.00073706
0.000740804
0.000736927
0.000741006
0.000736977
0.000740973
0.000737048
0.000740875
0.000740864
0.000740545
0.000737102
0.00073711
0.000740754
0.000740745
0.000737005
0.000783663
0.00078362
0.000783626
0.000785263
0.000747887
0.000747851
0.000747849
0.000749507
0.000785268
0.000755159
0.000783622
0.000783619
0.00075679
0.000756789
0.000785263
0.000755152
0.000783625
0.000783628
0.000756792
0.000756794
0.000783621
0.000756783
0.000756795
0.000785273
0.000755156
0.000783621
0.000756792
0.000756794
0.000755156
0.000749503
0.00074785
0.000747846
0.000749501
0.000747849
0.000747846
0.00074786
0.000749503
0.00074786
0.000772561
0.000785758
0.000772555
0.000785739
0.000785765
0.000772544
0.000772572
0.000785767
0.000772562
0.000785754
0.00078366
0.000783666
0.00078366
0.000756813
0.000756816
0.000756828
0.00075682
0.000772697
0.000785669
0.000783629
0.000774688
0.000772642
0.000774698
0.000785617
0.000785782
0.000772552
0.0007727
0.000783632
0.000785679
0.000774695
0.000774701
0.000772652
0.00078562
0.000785759
0.000785758
0.000773041
0.000772562
0.000772558
0.000750003
0.000749989
0.00075001
0.000750005
0.000749987
0.000747872
0.000747881
0.000747877
0.000736937
0.000749913
0.000747862
0.000749855
0.000738923
0.000750018
0.000736947
0.000747863
0.000749911
0.000749858
0.000738919
0.000749999
0.000749999
0.000737274
0.00073681
0.00073681
0.000785765
0.000772546
0.000785771
0.000772554
0.000785755
0.00078576
0.000773046
0.000772559
0.000772564
0.00075467
0.00076789
0.00075467
0.000767894
0.000767396
0.000754679
0.000754679
0.000767877
0.000767881
0.000772561
0.000785757
0.000772552
0.00078574
0.000772696
0.000785667
0.000783627
0.000774687
0.000772642
0.000774694
0.000785614
0.000772698
0.000785665
0.000783628
0.000774684
0.000772642
0.000774694
0.000785617
0.000767857
0.000754677
0.00076788
0.000754698
0.000767861
0.000754674
0.000767877
0.000754695
0.000767733
0.00076574
0.000754759
0.000756794
0.000767786
0.000765746
0.000754824
0.000767736
0.000765738
0.000754758
0.000756795
0.000767783
0.000765747
0.000754824
0.000785754
0.000785758
0.00077304
0.000772557
0.000772559
0.000785772
0.000772546
0.000754666
0.000767891
0.000767388
0.000754676
0.000754676
0.000767876
0.000767877
0.000754665
0.000767889
0.000772702
0.000785675
0.000783635
0.000774691
0.000772648
0.000774701
0.000785623
0.000772572
0.000785771
0.000772563
0.000785754
0.000772703
0.000783636
0.00078568
0.000774694
0.000774702
0.000772654
0.000785625
0.000767869
0.000754679
0.000767885
0.000754702
0.000767741
0.000765743
0.000754761
0.000756799
0.000767791
0.000765747
0.000754824
0.000767871
0.000754679
0.000767887
0.000754697
0.000767743
0.000765743
0.000756801
0.00075476
0.000765748
0.000767794
0.000754822
0.000772564
0.000785761
0.000772553
0.000785744
0.000772697
0.00078363
0.000785668
0.000774689
0.000774698
0.000772645
0.000785617
0.000772564
0.000785761
0.000772556
0.000785745
0.000767735
0.000765735
0.000754762
0.000756795
0.000767783
0.000765738
0.000754824
0.000767863
0.000754674
0.000767878
0.000754693
0.000767737
0.000765736
0.0007568
0.00075476
0.000765741
0.000767787
0.000754821
0.000767864
0.000754676
0.000767881
0.000754692
0.00078577
0.000785767
0.000773049
0.000772569
0.000772569
0.000785776
0.000772555
0.000754673
0.000767897
0.000767396
0.00075468
0.000754681
0.000767887
0.000767887
0.000754669
0.000767895
0.000772698
0.000783631
0.000785669
0.000774688
0.000774699
0.000772643
0.000785619
0.000772568
0.000785768
0.000772561
0.000785749
0.000772567
0.000785762
0.000772554
0.000785747
0.000767738
0.00076574
0.000756798
0.000754766
0.000765741
0.000767793
0.000754828
0.000767738
0.000765734
0.0007568
0.00075476
0.000765741
0.000767785
0.000754824
0.000767866
0.000754678
0.000767885
0.000754696
0.000767865
0.000754674
0.000767878
0.000754694
0.000785773
0.000772549
0.000785768
0.000772546
0.000767391
0.000754683
0.00075468
0.000767878
0.000767875
0.000754672
0.000767893
0.000754665
0.000767886
0.00075001
0.000750011
0.000750001
0.000750001
0.00075
0.000749984
0.000749911
0.000747852
0.000749856
0.000749907
0.000747853
0.000749855
0.000749998
0.000749998
0.000750009
0.000749912
0.000747853
0.000749852
0.000750005
0.000749983
0.000747853
0.000749907
0.000749852
0.000736804
0.000750001
0.000749978
0.000736933
0.000747864
0.000749904
0.000738916
0.000749851
0.000738919
0.000736895
0.000736808
0.00075
0.000749979
0.000736803
0.000750008
0.000749999
0.00075001
0.000736948
0.000747863
0.000749906
0.000738915
0.000749854
0.000738917
0.000736896
0.000736821
0.000750001
0.000749982
0.000736822
0.00075
0.000749981
0.000736806
0.000750012
0.000736794
0.000750009
0.0007368
0.000776836
0.000772538
0.000772557
0.000776813
0.000776833
0.000776819
0.000772543
0.000781474
0.000781482
0.00078577
0.000781471
0.000785773
0.000776843
0.000772543
0.000776828
0.00077684
0.000772545
0.000781477
0.0007815
0.000785768
0.000785744
0.000781479
0.000781496
0.00078577
0.000781473
0.000776832
0.000776855
0.000772569
0.000772552
0.000776826
0.00077683
0.000776848
0.000772552
0.00078149
0.000781491
0.000785783
0.000781486
0.000785789
0.000776852
0.000772552
0.000776836
0.000776853
0.000772557
0.000781503
0.000781514
0.000785759
0.000785785
0.00078151
0.000781497
0.000785793
0.000781489
0.000776844
0.000776852
0.00077254
0.000772535
0.00077685
0.000776846
0.000772533
0.000781524
0.000785694
0.000781489
0.000785759
0.000781539
0.000781503
0.00078573
0.000781526
0.000785698
0.000781487
0.000785756
0.000781544
0.000781495
0.000785731
0.000776781
0.000772568
0.00077683
0.000772614
0.000776759
0.000776831
0.000772587
0.000776784
0.00077256
0.000776828
0.00077262
0.000776765
0.000776822
0.000772588
0.000781476
0.000785787
0.000785784
0.000781479
0.000781474
0.000785791
0.000745715
0.000750016
0.00074573
0.000750017
0.00074572
0.000745718
0.000745751
0.000750014
0.000749993
0.000750017
0.000745725
0.000745749
0.000745727
0.000745725
0.000750015
0.000745735
0.000750021
0.000745722
0.000745726
0.000745752
0.000749992
0.000750019
0.000750023
0.000745745
0.000745735
0.000745744
0.000741089
0.000736785
0.000736781
0.000741087
0.000741085
0.000736782
0.000745767
0.000749935
0.000749999
0.000745731
0.000749973
0.000745783
0.000745738
0.000745766
0.00074994
0.000749997
0.000745733
0.000749972
0.000745786
0.000745738
0.000745712
0.000750027
0.000750026
0.000750033
0.000745715
0.000745716
0.000741034
0.000736816
0.000741079
0.000736868
0.000741014
0.00074107
0.000736843
0.000741036
0.000736809
0.000741082
0.000736869
0.000741021
0.000741066
0.000736845
0.000781475
0.000776834
0.000781481
0.000776841
0.000776841
0.000772536
0.000772537
0.000776841
0.000776841
0.00077253
0.000781526
0.000785698
0.000781484
0.000785751
0.00078149
0.000781546
0.000785728
0.000781526
0.000785701
0.00078149
0.000785757
0.000781495
0.000781548
0.000785729
0.000776783
0.000772562
0.000776825
0.000772621
0.000776819
0.000772589
0.000776768
0.000776786
0.000772565
0.000776832
0.000772623
0.00077682
0.000772591
0.000776773
0.000781468
0.00078578
0.000785784
0.000781467
0.000781471
0.000785787
0.000758973
0.000763614
0.000758972
0.000763613
0.000763602
0.000767909
0.000767912
0.000767917
0.000763604
0.000763607
0.000758914
0.000754729
0.000758962
0.000754683
0.00075895
0.000758898
0.000754701
0.000758915
0.000754735
0.000758964
0.000754677
0.000758951
0.000758901
0.000754705
0.00076367
0.00076788
0.00076782
0.000763628
0.000767863
0.000763629
0.00076369
0.000763669
0.000767885
0.000767821
0.00076363
0.000767863
0.000763634
0.000763691
0.000758968
0.000754656
0.000754652
0.000758969
0.000758969
0.00075465
0.000776833
0.000772535
0.000772556
0.000776814
0.000776831
0.000776818
0.000772536
0.000781471
0.00078148
0.000785769
0.000781468
0.000785773
0.000776835
0.000772538
0.000776825
0.000776837
0.000772534
0.000781473
0.000781501
0.000785764
0.000785745
0.000781479
0.000781495
0.000785771
0.00076362
0.000767893
0.000767864
0.000763621
0.000767912
0.000763611
0.00076362
0.000758979
0.000758965
0.000754668
0.000754669
0.000758981
0.000763612
0.000767894
0.000763622
0.000767901
0.000763613
0.00075898
0.000758959
0.000754672
0.000754691
0.000754672
0.000758971
0.000758959
0.000763608
0.000767891
0.000767868
0.000763626
0.000767897
0.000763604
0.000763623
0.000758977
0.000758963
0.000754666
0.000758979
0.000754671
0.000763607
0.000767889
0.000763621
0.000767891
0.00076361
0.000758972
0.00075896
0.000754669
0.000754687
0.000758963
0.000758959
0.000754672
0.000776836
0.000772531
0.000772534
0.000776833
0.000776838
0.000772526
0.000781523
0.000785696
0.000781483
0.000785748
0.000781484
0.000781544
0.000785727
0.000781522
0.000785693
0.000781487
0.000785754
0.00078154
0.000781493
0.000785726
0.000776783
0.000772556
0.000776823
0.000772618
0.000776809
0.000776768
0.000772587
0.000776781
0.00077256
0.000776827
0.000772617
0.000776764
0.000776818
0.000772587
0.000781464
0.000785778
0.000785782
0.000781464
0.000781469
0.000785784
0.000781479
0.000776835
0.000758967
0.000763614
0.000763611
0.000767909
0.000767912
0.000767919
0.000763608
0.000763609
0.00075891
0.000754724
0.000758961
0.000754681
0.000758893
0.000758951
0.000754697
0.00075891
0.000754728
0.000758961
0.000754678
0.000758953
0.000758893
0.000754699
0.000763666
0.000767881
0.000767813
0.000763628
0.00076368
0.00076786
0.000763635
0.000763665
0.000767886
0.00076781
0.000763627
0.000767859
0.000763638
0.000763679
0.000758973
0.000754656
0.000754655
0.000758973
0.000758973
0.000754652
0.000758964
0.000763611
0.000776851
0.000772552
0.000772568
0.000776827
0.000776849
0.000776832
0.000772549
0.000781486
0.000781494
0.000785784
0.000781484
0.000785786
0.000776852
0.00077255
0.000776839
0.000776852
0.00077255
0.000781492
0.000781516
0.000785783
0.00078576
0.000781496
0.00078151
0.000785787
0.000763621
0.000767874
0.000767902
0.00076363
0.000767912
0.000763628
0.000763616
0.000758981
0.000758968
0.000754668
0.000754672
0.000758982
0.000763619
0.000767901
0.000763626
0.000767914
0.000763617
0.000758978
0.000758963
0.000754695
0.000754678
0.000754673
0.000758965
0.000758978
0.000763615
0.000767901
0.000767877
0.000763634
0.000767904
0.000763617
0.000763631
0.000758981
0.000758969
0.00075467
0.000758984
0.000754675
0.000763615
0.000767898
0.00076363
0.000767905
0.000763617
0.00075898
0.000758962
0.000754678
0.000754691
0.000758978
0.000758964
0.000754678
0.000776841
0.00077256
0.000772543
0.000776818
0.000776821
0.000776839
0.000772541
0.000781479
0.000781485
0.000785774
0.000781475
0.00078578
0.000776842
0.000772542
0.000776829
0.000776842
0.000772542
0.000781482
0.000781507
0.000785749
0.000785773
0.000781501
0.000781485
0.000785778
0.000776841
0.000772543
0.00077256
0.000776818
0.000776839
0.000776823
0.000772541
0.000781475
0.000781484
0.000785773
0.000781474
0.000785774
0.000776841
0.000772543
0.000776831
0.000776843
0.000772543
0.00078148
0.000781507
0.000785773
0.00078575
0.000781485
0.000781501
0.000785774
0.000763607
0.000767867
0.000767893
0.000763627
0.000767896
0.000763624
0.000763608
0.000758976
0.000758962
0.000754663
0.000758976
0.000754665
0.000763609
0.00076789
0.00076362
0.000767898
0.000763609
0.00075897
0.000758956
0.000754688
0.000754671
0.000758957
0.00075897
0.000754667
0.000763608
0.000767893
0.00076787
0.000763628
0.000767897
0.000763608
0.000763626
0.000758976
0.000758963
0.000754667
0.000758978
0.000754671
0.000763606
0.000767891
0.000763625
0.000767895
0.000763612
0.000758975
0.000758956
0.000754672
0.000754688
0.000758972
0.000758959
0.000754673
0.000776854
0.000772545
0.000772547
0.000776852
0.00077685
0.000772541
0.000781537
0.000785705
0.000781499
0.00078577
0.000781509
0.000781551
0.000785741
0.000781539
0.000785707
0.000781497
0.000785766
0.000781557
0.0007815
0.000785741
0.000776796
0.00077257
0.000776839
0.000772632
0.000776832
0.000776778
0.000772601
0.000776797
0.000772574
0.000776837
0.000772626
0.000776777
0.000776828
0.000772599
0.000781481
0.000785797
0.000785795
0.000781483
0.00078148
0.000785802
0.000781486
0.000776847
0.000758974
0.000763621
0.000763617
0.000767919
0.00076792
0.000767928
0.000763616
0.000763617
0.000758916
0.00075473
0.000758966
0.000754685
0.0007589
0.000758956
0.000754703
0.000758916
0.000754729
0.000758967
0.000754685
0.000758958
0.000758896
0.000754703
0.000763676
0.000767889
0.000767826
0.000763636
0.00076369
0.000767871
0.000763642
0.000763674
0.000767893
0.000767822
0.000763636
0.000767869
0.000763644
0.000763687
0.000758977
0.000754662
0.000754662
0.000758979
0.000758979
0.000754658
0.000758976
0.000763622
0.000776846
0.000772564
0.000772547
0.000776822
0.000776828
0.000776843
0.000772545
0.000781483
0.000781492
0.00078578
0.00078148
0.000785783
0.000776849
0.000772548
0.000776838
0.000776849
0.000772547
0.000781487
0.000781511
0.000785755
0.000785778
0.000781506
0.00078149
0.000785782
0.000776844
0.000772561
0.000772546
0.000776821
0.000776824
0.000776843
0.000772543
0.000781485
0.000781486
0.000785778
0.000781477
0.000785788
0.000776848
0.000772543
0.000776831
0.000776845
0.000772545
0.000781486
0.00078151
0.000785752
0.000785778
0.000781503
0.00078149
0.000785782
0.000763611
0.000767874
0.000767896
0.00076363
0.000767901
0.000763628
0.000763611
0.000758982
0.000758968
0.00075467
0.000758982
0.000754674
0.000763614
0.000767896
0.000763629
0.000767901
0.000763616
0.000758976
0.000758959
0.000754692
0.000754674
0.000758963
0.000758974
0.000754672
0.000763608
0.00076787
0.000767895
0.00076363
0.000767897
0.000763626
0.000763611
0.000758975
0.000758961
0.000754663
0.000758975
0.000754667
0.000763608
0.00076789
0.000763623
0.000767897
0.00076361
0.000758972
0.000758958
0.000754688
0.000754673
0.000758958
0.000758973
0.000754668
0.000781477
0.000776836
0.00078148
0.000776839
0.000763598
0.000767907
0.000767903
0.000767912
0.000763603
0.000763599
0.000758911
0.000754737
0.000758961
0.000754685
0.000754712
0.000758893
0.00075895
0.000758912
0.000754745
0.000758958
0.000754676
0.000754713
0.000758899
0.000758943
0.000763662
0.000767882
0.000767812
0.000763628
0.00076786
0.000763679
0.000763631
0.000763662
0.000767872
0.00076782
0.000763624
0.000767863
0.000763684
0.000763625
0.000758962
0.000754657
0.000754653
0.000754649
0.000758969
0.000758965
0.000758974
0.00076362
0.000758969
0.000763614
0.000745721
0.000745725
0.000745779
0.000749938
0.000750003
0.000745739
0.000749977
0.000745745
0.000745801
0.000745784
0.000749948
0.000749993
0.000745743
0.000749981
0.000745741
0.000745806
0.000745716
0.000750029
0.000750024
0.000750035
0.000745721
0.000745718
0.000745728
0.000750017
0.000745737
0.000750025
0.000745729
0.00074573
0.000745754
0.000750015
0.000749991
0.000745731
0.00075003
0.00074575
0.000745779
0.000749932
0.000750001
0.000745743
0.000745745
0.000749974
0.000745799
0.000745777
0.000749937
0.000749996
0.000745736
0.000745796
0.000749976
0.000745741
0.000745718
0.000750027
0.000750025
0.000745719
0.000750036
0.000745717
0.000745741
0.000750017
0.000745749
0.000750026
0.000745739
0.000745748
0.000745757
0.000750019
0.000749991
0.000745742
0.000750028
0.000745756
0.000741088
0.000741077
0.000736784
0.00074107
0.000741092
0.000745721
0.000750013
0.00074573
0.000745724
0.000750017
0.000745731
0.000745754
0.000749985
0.000750014
0.00074575
0.000750018
0.000745734
0.000741067
0.000741104
0.000741083
0.000736797
0.000736808
0.000741099
0.000741088
0.000736804
0.000745734
0.000750015
0.000745735
0.000750023
0.000745729
0.000745741
0.000745756
0.000750016
0.000749988
0.000750025
0.000745736
0.000745752
0.000741105
0.000736795
0.000741087
0.000741105
0.000736796
0.000745791
0.000749931
0.000750006
0.00074576
0.000745757
0.000749984
0.000745798
0.000745784
0.000749934
0.000750002
0.000745747
0.000745801
0.00074998
0.00074575
0.000745727
0.000750033
0.000750031
0.00074573
0.000750043
0.000745727
0.000745732
0.000741103
0.000741086
0.000736816
0.000736799
0.000741089
0.000741101
0.000736811
0.000745732
0.000750017
0.000745741
0.000745729
0.000750024
0.000745735
0.000745759
0.00074999
0.000750018
0.000745754
0.000750023
0.000745739
0.000741105
0.000736797
0.000741105
0.000736799
0.000741101
0.000741087
0.000736817
0.000736797
0.000741089
0.000741099
0.000736796
0.000745727
0.000750012
0.000745737
0.000750017
0.000745726
0.000745735
0.00074576
0.000749987
0.000750016
0.00075002
0.000745754
0.000745738
0.000741103
0.000736795
0.00074109
0.000741106
0.000736793
0.000745725
0.000741087
0.000745728
0.000741091
0.000783647
0.00078365
0.000774732
0.000774719
0.00077472
0.000774709
0.000783625
0.000781689
0.000785451
0.000785453
0.000781984
0.000781802
0.000781803
0.000785563
0.000747867
0.000747869
0.000738934
0.000747852
0.000745935
0.000749693
0.000749697
0.000746226
0.000749807
0.000746045
0.000746047
0.000781698
0.000785456
0.000785458
0.00078199
0.000781809
0.00078181
0.000785566
0.000758744
0.000758434
0.000754986
0.000754988
0.000758636
0.000758639
0.00075487
0.000781695
0.000785452
0.000785451
0.000781984
0.000781804
0.000781805
0.000785563
0.000758732
0.000758427
0.00075498
0.000754981
0.00075863
0.000758629
0.000754862
0.000781706
0.000785462
0.000785463
0.000781994
0.000781816
0.000781815
0.000785572
0.00075874
0.000758432
0.000754984
0.000754983
0.000758637
0.000758635
0.000754867
0.000758745
0.000758435
0.00075499
0.000754993
0.000754887
0.000758636
0.000758638
0.000745953
0.000749696
0.000749698
0.000746212
0.000749814
0.000746051
0.000746048
0.000745946
0.000749688
0.000749691
0.000746209
0.000746047
0.000749806
0.000746046
0.000745948
0.000749684
0.000749692
0.000746211
0.000746048
0.00074981
0.000746038
0.000783646
0.000783645
0.000774726
0.000774713
0.000774715
0.000774706
0.000783626
0.000783651
0.000783649
0.000774733
0.000774719
0.00077472
0.000774708
0.000783627
0.000783647
0.000783648
0.000774726
0.000774715
0.000774718
0.000774707
0.000783626
0.000765772
0.0007568
0.00075681
0.000765761
0.000765762
0.000765768
0.000756806
0.000765772
0.000756806
0.000756812
0.000765762
0.000765757
0.000765765
0.000756812
0.000765775
0.000756815
0.000756815
0.000765764
0.00076576
0.000765767
0.000756814
0.000765765
0.000756814
0.000756814
0.000765757
0.000765758
0.000765766
0.000756815
0.000776547
0.000772693
0.000772829
0.000776689
0.000776694
0.000776544
0.00077283
0.000781748
0.000785556
0.000781568
0.000785634
0.000781673
0.00078161
0.000785491
0.000776563
0.000772681
0.000776743
0.000772743
0.000776631
0.00077671
0.000772812
0.000781766
0.000781638
0.000785618
0.00078548
0.000781634
0.000781768
0.000785475
0.000776552
0.000772832
0.000772698
0.000776693
0.000776548
0.0007767
0.000772835
0.000781755
0.000785566
0.000781578
0.000785641
0.000781683
0.000781616
0.000785498
0.00077657
0.000772687
0.000776752
0.000772751
0.00077664
0.000776717
0.000772818
0.000781771
0.000781642
0.000785483
0.000785624
0.000781772
0.000781639
0.00078548
0.000776606
0.000776323
0.000772871
0.000772872
0.000776512
0.000776514
0.000772756
0.000747864
0.000747874
0.000738932
0.000738929
0.000747855
0.000747866
0.000747874
0.000738931
0.000738926
0.000747854
0.000747874
0.000747872
0.000738927
0.000738927
0.000738927
0.000738925
0.000747855
0.000740781
0.000740937
0.000736927
0.00073706
0.000740931
0.000740777
0.000737061
0.00074599
0.000749798
0.000749879
0.00074582
0.000749731
0.000745922
0.000745863
0.000746004
0.000745877
0.000749858
0.000749718
0.000749712
0.000745872
0.000746007
0.000740784
0.000740943
0.00073706
0.000736935
0.000740779
0.000740948
0.000737061
0.000745989
0.000749797
0.000749879
0.000745825
0.000749731
0.000745922
0.000745857
0.000746007
0.000745883
0.000749721
0.000749861
0.000749715
0.000746009
0.000745879
0.000740803
0.000736931
0.000740963
0.000737051
0.000740865
0.000740556
0.000737114
0.000737116
0.000740755
0.00074076
0.000737012
0.00077662
0.000776327
0.000772876
0.000772877
0.000772764
0.000776518
0.000776521
0.00076384
0.000764104
0.000767582
0.000767584
0.000767701
0.000763937
0.000763938
0.000776546
0.000772688
0.000772827
0.000776689
0.000776695
0.000776543
0.000772828
0.000781747
0.000785558
0.000781566
0.000785631
0.000781607
0.000781674
0.000785491
0.000776562
0.000772677
0.000776742
0.000772745
0.000776707
0.000776633
0.000772811
0.000781763
0.000781635
0.000785617
0.000785479
0.00078163
0.000781766
0.000785476
0.000776545
0.000772691
0.000772828
0.000776689
0.000776695
0.000776542
0.000772829
0.000781747
0.000785555
0.000781565
0.00078563
0.000781606
0.000781673
0.000785489
0.000776561
0.00077268
0.000776741
0.000772743
0.000776708
0.000772811
0.000776631
0.000781764
0.000781635
0.000785616
0.000785479
0.000781633
0.000781765
0.000785473
0.000763888
0.000767727
0.000767601
0.000763754
0.000767598
0.000763748
0.000763889
0.000758686
0.000754856
0.000758879
0.000754799
0.000758759
0.000758847
0.000754926
0.000763879
0.000767749
0.000767679
0.000763712
0.000763812
0.000767615
0.00076375
0.00075867
0.000758828
0.000754817
0.000754942
0.000758828
0.000758658
0.000754946
0.000763887
0.000767737
0.000767601
0.000763761
0.000767598
0.000763755
0.00076389
0.000758684
0.000754853
0.000758878
0.000754795
0.000758846
0.000758756
0.000754924
0.000763877
0.000767751
0.000767675
0.000763711
0.000767613
0.00076375
0.000763809
0.000758667
0.000758833
0.000754813
0.000754942
0.00075883
0.000758659
0.000754943
0.000776618
0.000776322
0.00077287
0.00077287
0.000776514
0.000776514
0.00077276
0.000763823
0.000764095
0.000767572
0.000767571
0.000763928
0.000767689
0.000763927
0.000776553
0.000772698
0.000772835
0.000776697
0.0007767
0.00077655
0.000772835
0.000781755
0.000785563
0.000781574
0.000785641
0.000781617
0.00078168
0.000785497
0.00077657
0.000772685
0.00077675
0.000772749
0.000776718
0.000776638
0.000772818
0.00078177
0.000781644
0.000785621
0.000785486
0.000781634
0.000781775
0.00078548
0.000776555
0.000772836
0.000772701
0.000776697
0.00077655
0.000776704
0.000772837
0.000781757
0.000785567
0.000781579
0.000785645
0.00078162
0.000781682
0.0007855
0.000776572
0.00077269
0.000776755
0.000772753
0.00077672
0.00077282
0.000776643
0.000781773
0.000781646
0.000785488
0.000785627
0.000781775
0.000781642
0.000785483
0.000763891
0.00076774
0.000767607
0.000763762
0.000767603
0.000763756
0.000763894
0.000758688
0.000754859
0.000758882
0.000754799
0.000758762
0.000758848
0.000754928
0.000763883
0.000767754
0.000767683
0.000763717
0.000763816
0.000767619
0.000763754
0.00075867
0.000758828
0.000754819
0.000754945
0.000758834
0.000758661
0.000754947
0.000763892
0.000767608
0.000767747
0.000763764
0.000767606
0.000763894
0.000763763
0.000758688
0.000754856
0.000758883
0.000754797
0.00075885
0.000758762
0.000754926
0.000763883
0.000767759
0.000767685
0.00076372
0.000767621
0.000763757
0.000763816
0.00075867
0.000758827
0.000754945
0.000754815
0.00075866
0.000758831
0.000754946
0.000776548
0.000772829
0.000772694
0.00077669
0.000776544
0.000776696
0.00077283
0.000781749
0.000785557
0.000781569
0.000785636
0.000781672
0.000781611
0.000785492
0.000776564
0.000772681
0.000776746
0.000772742
0.000776632
0.000776712
0.000772811
0.000781766
0.000781639
0.000785481
0.00078562
0.000781768
0.000781635
0.000785476
0.000763885
0.000767737
0.0007676
0.000763756
0.000767596
0.000763754
0.000763889
0.000758683
0.000754856
0.00075888
0.0007548
0.000754925
0.000758756
0.000758845
0.000763875
0.000767748
0.000767673
0.00076371
0.000767612
0.000763807
0.000763747
0.000758668
0.000758824
0.000754821
0.000754941
0.000754942
0.00075883
0.000758657
0.000763886
0.000767601
0.00076774
0.000763758
0.000767598
0.000763888
0.000763758
0.000758683
0.000754858
0.000758875
0.000754798
0.000758842
0.000758756
0.000754927
0.000763876
0.000767753
0.000767675
0.000763714
0.000767613
0.000763754
0.000763808
0.000758667
0.000758822
0.000754943
0.000754814
0.000758657
0.000758826
0.000754946
0.000776627
0.000776331
0.000772882
0.00077288
0.000776525
0.000776526
0.00077277
0.000763836
0.000764102
0.000767584
0.000767582
0.000763937
0.000767701
0.000763935
0.000776549
0.000772831
0.000772694
0.000776692
0.000776546
0.000776696
0.000772832
0.000781749
0.000785558
0.000781569
0.000785633
0.000781675
0.000781609
0.000785492
0.000776565
0.000772681
0.000776744
0.000772745
0.000776634
0.00077671
0.000772813
0.000781767
0.000781641
0.000785482
0.000785619
0.000781771
0.000781635
0.000785476
0.00076389
0.000767603
0.000767742
0.000763759
0.000767601
0.000763892
0.000763759
0.000758688
0.00075486
0.000758883
0.000754807
0.00075493
0.000758761
0.000758849
0.000763881
0.000767757
0.000767682
0.000763717
0.000767618
0.000763813
0.000763754
0.000758672
0.000758827
0.000754944
0.000754825
0.000754946
0.000758661
0.000758835
0.000763888
0.000767603
0.000767741
0.00076376
0.0007676
0.000763891
0.000763758
0.000758686
0.000754862
0.000758874
0.000754799
0.000758842
0.000758758
0.00075493
0.000763879
0.000767751
0.000767677
0.000763712
0.000767615
0.000763752
0.000763812
0.000758669
0.000758825
0.000754946
0.000754817
0.00075866
0.000758829
0.000754948
0.000763831
0.000764099
0.000767577
0.000767579
0.0007677
0.000763931
0.000763932
0.00074599
0.000749798
0.000749876
0.000745827
0.000745868
0.000749731
0.000745927
0.000745991
0.000745879
0.00074986
0.000749715
0.00074588
0.00074971
0.000745993
0.000745991
0.000749792
0.000749872
0.000745829
0.000749728
0.000745869
0.000745926
0.000745999
0.00074588
0.000749851
0.000749715
0.000749708
0.000745881
0.000745995
0.000745993
0.000749801
0.000749869
0.000745829
0.000745863
0.000749731
0.000745928
0.000746003
0.000745881
0.000749852
0.000749721
0.00074588
0.000749712
0.000746004
0.000745992
0.000749788
0.00074987
0.000745834
0.000749729
0.00074587
0.00074592
0.000746001
0.000745882
0.000749721
0.000749853
0.000749712
0.000746003
0.000745877
0.000740785
0.000740943
0.000737059
0.000736929
0.000740773
0.000740953
0.000737061
0.000745992
0.000749796
0.00074987
0.000745817
0.000745917
0.000749733
0.000745858
0.000746004
0.000745882
0.000749722
0.000749851
0.000746007
0.000749714
0.000745876
0.000740805
0.000736929
0.000741004
0.00073699
0.000740881
0.00074097
0.000737052
0.000740786
0.000740949
0.000737061
0.000736945
0.000740777
0.000740958
0.000737065
0.000745994
0.000749798
0.000749873
0.000745818
0.000745919
0.000749735
0.000745862
0.000746007
0.000745886
0.000749724
0.000749856
0.000746009
0.000749717
0.000745883
0.000740808
0.000736935
0.000741006
0.000736991
0.000740883
0.000740974
0.000737055
0.0016861
0.00168447
0.0016861
0.00168393
0.00168402
0.00168393
0.00168393
0.00168394
0.00168393
0.00168402
0.00168394
0.00168823
0.00168821
0.00168392
0.00168822
0.00168393
0.00168822
0.00168816
0.001684
0.0016882
0.00168394
0.00168815
0.0016882
0.00168397
0.00168816
0.001684
0.0016882
0.00168395
0.0016882
0.00168814
0.00168397
0.00168822
0.00168392
0.00168392
0.00168823
0.00168823
0.00168392
0.00168822
0.00168823
0.00168821
0.00168393
0.00168823
0.00168393
0.001688
0.00168774
0.00168428
0.00168428
0.00168791
0.00168792
0.00168415
0.00168796
0.00168414
0.00168812
0.00168406
0.00168808
0.00168802
0.00168421
0.00168796
0.00168414
0.00168812
0.00168406
0.00168802
0.00168809
0.00168421
0.00167721
0.00167717
0.00167717
0.00167881
0.00164144
0.0016414
0.0016414
0.00164304
0.00160567
0.00160564
0.00160563
0.00160728
0.00156991
0.00156988
0.00156988
0.00157153
0.00153417
0.00153412
0.00153412
0.00153577
0.00149841
0.00149836
0.00149837
0.0015
0.00146263
0.00146259
0.0014626
0.00146423
0.00142686
0.00142682
0.00142683
0.00142847
0.0013911
0.00139106
0.00139107
0.00139271
0.00135535
0.00135531
0.00135531
0.00135695
0.0013196
0.00131957
0.00131956
0.0013212
0.00128387
0.00128384
0.00128383
0.00128548
0.00124816
0.00124813
0.00124812
0.00124977
0.00121246
0.00121242
0.00121242
0.00121406
0.00117674
0.0011767
0.00117671
0.00117835
0.00114102
0.00114097
0.00114098
0.00114262
0.00110529
0.00110524
0.00110525
0.00110689
0.00106955
0.00106951
0.00106951
0.00107115
0.00103381
0.00103377
0.00103377
0.00103541
0.000998072
0.000998037
0.000998036
0.000999685
0.000962348
0.000962309
0.000962308
0.000963955
0.000926624
0.000926585
0.000926582
0.000928228
0.000890894
0.000890855
0.000890853
0.000892496
0.000855158
0.000855118
0.000855116
0.00085676
0.000819417
0.000819375
0.000819377
0.000821021
0.0016788
0.00164869
0.00167716
0.00167717
0.00165032
0.00165033
0.00167881
0.00164869
0.00167716
0.00167717