/*--------------------------------*- C++ -*----------------------------------*\
| =========                 |                                                 |
| \\      /  F ield         | OpenFOAM: The Open Source CFD Toolbox           |
|  \\    /   O peration     | Version:  2312                                  |
|   \\  /    A nd           | Website:  www.openfoam.com                      |
|    \\/     M anipulation  |                                                 |
\*---------------------------------------------------------------------------*/
FoamFile
{
    version     2.0;
    format      ascii;
    arch        "LSB;label=32;scalar=64";
    class       volVectorField;
    location    "100";
    object      U;
}
// * * * * * * * * * * * * * * * * * * * * * * * * * * * * * * * * * * * * * //

dimensions      [0 1 -1 0 0 0 0];

internalField   nonuniform List<vector> 
43496
(
(-2.15802e-05 -3.10829e-07 0.0942758)
(-9.69632e-06 4.63116e-06 0.0721732)
(2.41952e-06 -1.57255e-06 0.107897)
(-1.23084e-05 1.96444e-05 0.0958212)
(-2.71414e-05 -3.48632e-07 0.102511)
(1.70437e-06 4.71745e-08 0.108583)
(-2.13879e-05 1.45583e-07 0.0942665)
(-1.74599e-05 1.8598e-06 0.0836341)
(-2.70193e-05 1.1823e-08 0.102498)
(1.92147e-06 -2.27215e-06 0.107897)
(1.85682e-06 1.22714e-07 0.108582)
(-1.93393e-05 1.22309e-05 0.0958166)
(-6.26576e-05 6.26319e-05 0.106638)
(-8.05474e-06 9.18547e-06 0.0894968)
(-9.0922e-06 8.24536e-06 0.0895033)
(-4.89933e-06 9.52207e-06 0.0721767)
(-2.08741e-06 1.76099e-05 0.0836372)
(9.30555e-06 -6.11213e-07 0.0776396)
(2.11853e-05 -1.19444e-07 0.0941771)
(-2.01865e-05 -1.20637e-06 0.0923676)
(-7.83376e-06 4.94173e-07 0.0796313)
(2.0321e-05 3.4368e-07 0.0922622)
(8.8256e-06 3.46401e-08 0.0795555)
(-8.43301e-06 6.92087e-07 0.0777256)
(9.14294e-06 -1.63167e-06 0.0688596)
(-1.59141e-05 -1.60831e-06 0.0875857)
(1.59498e-05 -6.80314e-07 0.0874785)
(-8.69302e-06 1.9468e-07 0.0689694)
(9.43528e-06 -4.84898e-06 0.0720722)
(9.22902e-06 9.49655e-07 0.077698)
(2.13462e-05 -1.36381e-07 0.0941679)
(-7.97512e-06 -3.55023e-08 0.0796462)
(-2.03327e-05 1.0886e-06 0.0923529)
(8.85447e-06 7.20748e-08 0.0795691)
(1.9617e-05 -3.89459e-07 0.0922482)
(-8.51316e-06 -4.3082e-07 0.0777848)
(9.02447e-06 1.60581e-06 0.0688899)
(-1.57971e-05 1.1637e-06 0.0875917)
(1.79295e-05 -5.18191e-07 0.0835397)
(1.60473e-05 3.12496e-07 0.0874855)
(-8.8542e-06 -1.53781e-07 0.069001)
(9.05966e-06 -8.91121e-06 0.0852888)
(-4.31797e-06 8.39292e-06 0.0692747)
(-8.55461e-06 4.18701e-06 0.069281)
(4.07024e-06 -8.72822e-06 0.0691731)
(8.5963e-06 -4.1724e-06 0.0691792)
(-8.37371e-06 8.55133e-06 0.0853762)
(2.50678e-05 -1.16405e-05 0.0941211)
(-7.93073e-06 5.89507e-06 0.0829845)
(9.94678e-06 -1.04504e-05 0.0893914)
(-3.05767e-05 1.21921e-05 0.0994785)
(8.51772e-06 -5.9484e-06 0.0828835)
(3.15056e-05 -1.41082e-05 0.0993702)
(-2.38526e-05 9.90941e-06 0.094229)
(1.14661e-05 -2.45646e-05 0.0941317)
(-5.70773e-06 7.75382e-06 0.0829897)
(1.07102e-05 -9.82106e-06 0.0893957)
(-1.19355e-05 3.01754e-05 0.0994835)
(1.44245e-05 -3.14864e-05 0.0993749)
(6.10629e-06 -8.55488e-06 0.0828879)
(-1.01449e-05 2.43397e-05 0.0942406)
(4.75491e-06 -9.4484e-06 0.0720745)
(5.12663e-07 -1.77997e-05 0.0835428)
(-4.29313e-07 8.44371e-07 0.109232)
(-9.39599e-07 1.09858e-06 0.108951)
(-3.63742e-07 -5.16188e-07 0.109232)
(1.2554e-05 -2.17862e-05 0.0956877)
(-9.33147e-06 7.32248e-05 0.102863)
(1.19644e-05 -7.70327e-05 0.102737)
(7.344e-05 1.35337e-06 0.105742)
(2.80178e-05 -5.60018e-08 0.102401)
(-2.75587e-05 -1.42825e-06 0.101318)
(-7.26117e-05 1.71291e-07 0.106386)
(2.74735e-05 8.14869e-07 0.101188)
(7.15059e-05 -8.09859e-09 0.106281)
(-7.58661e-05 -5.70701e-07 0.105883)
(7.85722e-05 5.24177e-06 0.104532)
(-2.58872e-05 -5.7628e-06 0.0989461)
(2.60769e-05 3.96187e-06 0.0988001)
(-7.96655e-05 -4.16811e-06 0.104698)
(7.35919e-05 -1.40956e-06 0.105731)
(2.81675e-05 -2.1273e-07 0.102389)
(-7.24948e-05 -1.98399e-07 0.106382)
(-2.73715e-05 1.12249e-06 0.101283)
(7.15684e-05 -1.00269e-07 0.106276)
(2.77184e-05 -1.19082e-06 0.101155)
(-7.57562e-05 6.22202e-07 0.105871)
(7.91418e-05 -5.24525e-06 0.104526)
(-2.5509e-05 5.21773e-06 0.0989341)
(2.21395e-05 -1.24832e-05 0.0956835)
(-7.31848e-05 9.38498e-06 0.10286)
(2.64389e-05 -4.35788e-06 0.0987898)
(-7.9055e-05 4.17182e-06 0.104691)
(7.74937e-05 -1.18997e-05 0.102734)
(2.81127e-05 -2.78947e-05 0.100666)
(5.86885e-05 -5.86202e-05 0.106507)
(-2.94903e-05 6.16259e-05 0.104518)
(-6.14755e-05 2.96836e-05 0.104519)
(6.1718e-05 -3.05041e-05 0.104395)
(3.09174e-05 -6.16817e-05 0.104393)
(-2.79325e-05 2.80883e-05 0.1008)
(-9.14302e-07 -9.9527e-07 0.108951)
(-1.5137e-06 2.32007e-06 0.107897)
(2.52982e-06 -1.45643e-06 0.107897)
(-5.85146e-05 -5.8413e-05 0.106512)
(-8.13599e-07 -1.03222e-06 0.108951)
(-1.6267e-06 2.04492e-06 0.107897)
(2.39319e-06 -1.63816e-06 0.107897)
(-5.82599e-05 -5.83846e-05 0.106511)
(5.8829e-05 5.85576e-05 0.106511)
(-6.20429e-05 -6.23559e-05 0.106639)
(2.55621e-06 1.53941e-06 0.107898)
(-2.34353e-06 1.78224e-06 0.107896)
(2.70101e-06 1.50979e-06 0.107898)
(-2.15746e-06 1.5637e-06 0.107895)
(-5.86063e-05 5.87135e-05 0.106507)
(6.26485e-05 -6.23982e-05 0.106637)
(1.77162e-06 2.26232e-06 0.107898)
(1.89856e-06 -2.21557e-06 0.107896)
(1.77266e-06 2.36176e-06 0.107898)
(1.84994e-06 -2.36502e-06 0.107897)
(-1.59487e-06 -2.03938e-06 0.107898)
(-1.38973e-06 2.23375e-06 0.107897)
(-1.39551e-06 -2.05502e-06 0.107899)
(5.88864e-05 -5.85581e-05 0.106509)
(-6.211e-05 6.25504e-05 0.106638)
(-2.10355e-06 -1.37805e-06 0.107899)
(2.66216e-06 -1.45025e-06 0.107897)
(-2.12885e-06 -1.38551e-06 0.1079)
(6.26548e-05 6.2602e-05 0.106641)
(5.8866e-05 5.85467e-05 0.106508)
(2.65993e-06 1.75704e-06 0.107898)
(-2.09941e-06 1.91311e-06 0.107896)
(-5.83045e-05 5.8426e-05 0.106506)
(1.97254e-06 2.33337e-06 0.107898)
(2.05974e-06 -2.21308e-06 0.107896)
(-1.55894e-06 -1.93061e-06 0.107898)
(5.89022e-05 -5.85536e-05 0.106507)
(-1.99541e-06 -1.61302e-06 0.107899)
(1.14314e-07 -2.14032e-05 0.0942857)
(-5.48863e-08 1.83858e-05 0.0835366)
(-2.28043e-06 -1.72564e-05 0.0836315)
(3.02069e-07 2.1137e-05 0.0941848)
(-4.47857e-06 9.69827e-06 0.0720737)
(4.83541e-06 -9.35979e-06 0.07218)
(-2.14401e-05 -2.8337e-07 0.0942756)
(1.83142e-05 -1.00511e-07 0.0835385)
(-1.70757e-05 -2.54267e-06 0.0836332)
(2.09187e-05 -8.17447e-08 0.0941771)
(1.05847e-06 -9.76669e-07 0.10895)
(-8.53602e-07 1.12478e-06 0.10895)
(1.18769e-06 1.28004e-06 0.10895)
(-8.3472e-07 -1.05111e-06 0.108951)
(1.20999e-06 -1.03911e-06 0.10895)
(-7.87325e-07 1.12205e-06 0.108951)
(1.23896e-06 1.27097e-06 0.108952)
(2.76849e-05 1.95107e-07 0.102494)
(-2.15926e-05 1.22103e-05 0.0956853)
(-1.49906e-06 7.97149e-08 0.108581)
(-1.20643e-06 2.24499e-06 0.107896)
(1.98655e-05 -1.25221e-05 0.0958201)
(-1.27864e-06 3.46655e-08 0.10858)
(-2.74066e-05 3.37916e-07 0.102384)
(9.64268e-06 -4.62671e-06 0.0720713)
(-9.6085e-06 4.71482e-06 0.0721724)
(2.91199e-07 2.77957e-05 0.102496)
(1.70911e-07 -1.30683e-06 0.108581)
(1.2253e-05 -2.13322e-05 0.0956891)
(2.5955e-06 -1.20639e-06 0.107897)
(2.10933e-07 -1.11441e-06 0.10858)
(-1.21285e-05 2.01336e-05 0.0958227)
(4.19167e-07 -2.73708e-05 0.102387)
(-9.24899e-06 -9.74338e-06 0.0893976)
(-9.97958e-06 -9.45697e-06 0.0893982)
(6.26492e-05 6.2696e-05 0.106642)
(8.54286e-06 9.49483e-06 0.0895069)
(9.90435e-06 8.737e-06 0.0895069)
(-5.04691e-08 1.8332e-05 0.0835376)
(4.95349e-08 2.12331e-05 0.0941875)
(-4.48935e-06 9.77852e-06 0.0720749)
(1.83573e-05 7.44513e-09 0.0835389)
(2.12668e-05 2.13035e-08 0.0941769)
(1.12298e-06 -1.12213e-06 0.108951)
(-9.28003e-07 1.10966e-06 0.10895)
(1.18666e-06 1.24389e-06 0.108951)
(2.74865e-05 -8.07078e-08 0.102493)
(-2.16707e-05 1.20676e-05 0.0956842)
(-1.45329e-06 -1.11251e-07 0.108581)
(-2.73958e-05 2.7365e-07 0.102384)
(-1.38793e-06 -7.72485e-09 0.108581)
(9.79552e-06 -4.92724e-06 0.0720721)
(1.6231e-07 2.73769e-05 0.102497)
(1.16043e-07 -1.3909e-06 0.108581)
(1.25777e-05 -2.16762e-05 0.0956879)
(6.1676e-07 -2.73446e-05 0.102387)
(1.04615e-07 -1.37545e-06 0.108582)
(-9.54536e-06 -1.03739e-05 0.089398)
(-9.77293e-06 -9.35816e-06 0.0893997)
(6.2786e-05 6.25885e-05 0.106642)
(8.45785e-06 9.43606e-06 0.0895071)
(1.02956e-05 8.87059e-06 0.0895082)
(4.12984e-06 9.82689e-06 0.072069)
(-5.27452e-06 -9.34492e-06 0.072172)
(9.95805e-06 3.92844e-06 0.0720698)
(-9.19274e-06 -5.47598e-06 0.0721723)
(9.51465e-06 9.50213e-06 0.0893976)
(9.46438e-06 8.85288e-06 0.0893967)
(-6.20955e-05 -6.24384e-05 0.10664)
(-1.00445e-05 -8.66183e-06 0.0895079)
(-8.5447e-06 -1.06296e-05 0.0895053)
(-5.24704e-06 -9.30668e-06 0.0721744)
(4.18407e-06 9.85623e-06 0.072071)
(-9.24142e-06 -5.28807e-06 0.0721744)
(9.96219e-06 4.05064e-06 0.0720716)
(5.88497e-05 5.84436e-05 0.106509)
(-9.93184e-06 -8.48759e-06 0.0895085)
(-8.2574e-06 -1.0178e-05 0.0895056)
(9.64011e-06 9.4057e-06 0.0893987)
(9.72002e-06 9.25594e-06 0.0893976)
(2.50317e-07 -2.13141e-05 0.0942766)
(-3.5284e-07 1.82929e-05 0.0835399)
(1.79559e-06 -1.71563e-05 0.0836366)
(-6.41532e-09 2.1264e-05 0.0941773)
(-1.38251e-07 -2.79693e-05 0.102534)
(1.17579e-05 2.16937e-05 0.0956879)
(9.11658e-08 1.42771e-06 0.108583)
(2.61183e-06 1.18343e-06 0.107898)
(-1.28686e-05 -1.99533e-05 0.095823)
(9.67771e-08 1.1956e-06 0.108582)
(1.54244e-07 2.75908e-05 0.102422)
(-3.64273e-07 -2.77807e-05 0.102511)
(-1.17614e-05 2.15147e-05 0.0956824)
(-2.66967e-08 1.61511e-06 0.108581)
(-2.29483e-06 1.42519e-06 0.107895)
(1.28361e-05 -1.99871e-05 0.0958188)
(4.64875e-08 1.40653e-06 0.108581)
(-6.14572e-07 2.75686e-05 0.1024)
(1.57912e-07 2.12053e-05 0.0941859)
(-2.44753e-06 -1.72137e-05 0.0836321)
(1.02351e-07 1.82485e-05 0.0835371)
(-2.30212e-07 -2.16802e-05 0.0942862)
(3.16726e-08 2.11922e-05 0.0941776)
(2.01991e-06 -1.717e-05 0.0836372)
(-4.83653e-07 1.82706e-05 0.0835405)
(2.7197e-07 -2.12053e-05 0.0942754)
(-1.32262e-07 2.74277e-05 0.102424)
(2.5836e-06 1.51639e-06 0.107898)
(-1.2791e-05 -1.99025e-05 0.0958229)
(8.61586e-08 1.47303e-06 0.108583)
(1.19401e-05 2.15264e-05 0.0956883)
(9.63817e-08 1.31943e-06 0.108583)
(-4.5864e-07 -2.76013e-05 0.102535)
(-4.23719e-07 2.74906e-05 0.102402)
(-2.13277e-06 1.72126e-06 0.107895)
(1.28649e-05 -1.97121e-05 0.0958185)
(1.20078e-07 1.5101e-06 0.108581)
(-1.1764e-05 2.14985e-05 0.0956827)
(1.02385e-07 1.5099e-06 0.108581)
(-1.51081e-07 -2.73482e-05 0.10251)
(-9.58298e-06 9.28789e-06 0.0893956)
(-9.60963e-06 1.03658e-05 0.0893956)
(6.25075e-05 -6.23589e-05 0.106637)
(9.98557e-06 -8.66835e-06 0.0895062)
(8.42228e-06 -9.33891e-06 0.0895037)
(-9.39535e-06 4.7565e-06 0.0720724)
(9.50918e-06 -4.68045e-06 0.072174)
(4.91826e-06 -9.30291e-06 0.0721809)
(-4.5613e-06 9.72162e-06 0.0720744)
(-5.8365e-05 5.85043e-05 0.106506)
(9.69346e-06 -8.33445e-06 0.0895062)
(8.32872e-06 -9.27026e-06 0.0895027)
(-9.75572e-06 9.35529e-06 0.0893961)
(-9.65573e-06 1.03492e-05 0.089395)
(9.59651e-06 -4.84846e-06 0.0721754)
(-9.6312e-06 4.81266e-06 0.0720725)
(-2.74982e-05 -3.67278e-07 0.10251)
(2.14269e-05 1.12892e-05 0.0956889)
(1.70652e-06 -5.88836e-08 0.108582)
(1.47751e-06 2.25523e-06 0.107898)
(-1.99698e-05 -1.33617e-05 0.0958226)
(1.60812e-06 -9.64752e-08 0.108582)
(2.77529e-05 1.94384e-08 0.102401)
(-2.13626e-05 6.22243e-08 0.0942669)
(1.80347e-05 -4.24505e-07 0.0835394)
(-1.76126e-05 1.79716e-06 0.0836336)
(2.08942e-05 -6.17784e-08 0.094169)
(-2.74299e-05 -2.11994e-09 0.102498)
(1.75212e-06 1.06323e-07 0.108581)
(2.16754e-05 -1.17789e-05 0.0956852)
(1.59677e-06 -2.28803e-06 0.107896)
(1.68012e-06 8.12426e-08 0.108581)
(-1.98023e-05 1.26184e-05 0.0958179)
(2.77351e-05 -1.07419e-07 0.102389)
(2.10757e-05 -8.83849e-08 0.0941767)
(-1.71365e-05 -2.44509e-06 0.0836334)
(1.84319e-05 -1.56244e-07 0.083539)
(-2.1345e-05 -2.86136e-07 0.0942753)
(2.77291e-05 -1.9557e-07 0.102401)
(1.82728e-06 2.24885e-06 0.107898)
(-1.97077e-05 -1.30537e-05 0.095822)
(1.81956e-06 -7.15752e-08 0.108583)
(2.16133e-05 1.14758e-05 0.095689)
(1.69972e-06 -6.49728e-08 0.108582)
(-2.71173e-05 -3.97907e-07 0.10251)
(2.11314e-05 -1.16836e-07 0.0941684)
(-1.75616e-05 1.76016e-06 0.083634)
(1.79315e-05 -6.65789e-07 0.0835398)
(-2.12637e-05 1.37056e-07 0.0942661)
(2.77914e-05 -2.30228e-07 0.102389)
(1.97297e-06 -2.22054e-06 0.107896)
(1.85748e-06 4.07965e-08 0.108582)
(-1.96145e-05 1.24493e-05 0.0958175)
(1.75869e-06 6.34758e-08 0.108581)
(2.17387e-05 -1.22088e-05 0.095685)
(-2.70259e-05 -4.53827e-09 0.102498)
(2.16953e-05 1.09113e-07 0.0942672)
(-1.76393e-05 6.45046e-07 0.0835404)
(1.76467e-05 -1.79125e-06 0.083636)
(-2.05118e-05 2.18722e-07 0.0941668)
(2.7727e-05 2.93992e-07 0.102493)
(-1.46136e-06 2.42654e-07 0.108581)
(-2.1611e-05 -1.16885e-05 0.0956911)
(-1.20344e-06 -1.9424e-06 0.107898)
(-1.27219e-06 2.6076e-07 0.108581)
(1.98684e-05 1.29455e-05 0.0958265)
(-2.74659e-05 6.62825e-08 0.102384)
(2.1754e-05 3.31674e-07 0.0942655)
(-1.81107e-05 -6.79067e-07 0.0835311)
(1.74878e-05 1.6213e-06 0.0836259)
(-2.0603e-05 1.03302e-07 0.094167)
(-2.73444e-05 3.06411e-07 0.102384)
(-1.41756e-06 2.16689e-06 0.107897)
(1.97496e-05 -1.25962e-05 0.0958193)
(-1.45362e-06 -2.48498e-08 0.108582)
(-2.1627e-05 1.22175e-05 0.095685)
(-1.39707e-06 4.27411e-08 0.108581)
(2.73703e-05 1.37746e-07 0.102493)
(-2.05372e-05 1.47413e-07 0.0941668)
(1.75573e-05 -1.95502e-06 0.0836363)
(-1.78391e-05 6.60049e-07 0.0835409)
(2.16957e-05 -5.62836e-08 0.0942668)
(-2.73914e-05 3.07129e-08 0.102384)
(-1.52225e-06 -1.95628e-06 0.107898)
(-1.43171e-06 1.61727e-07 0.108582)
(1.97065e-05 1.27792e-05 0.0958276)
(-1.36563e-06 2.11759e-07 0.108581)
(-2.16933e-05 -1.19128e-05 0.0956921)
(2.74162e-05 2.92975e-07 0.102493)
(-2.06089e-05 3.56611e-08 0.094167)
(1.74609e-05 1.49713e-06 0.0836265)
(-1.80402e-05 -8.67563e-07 0.0835316)
(2.17236e-05 2.93288e-07 0.0942652)
(9.58827e-06 -9.97093e-06 0.089395)
(1.04713e-05 -9.24916e-06 0.089399)
(-6.21813e-05 6.2593e-05 0.106639)
(-8.32167e-06 9.33783e-06 0.0895011)
(-8.86103e-06 8.70444e-06 0.0895065)
(4.92753e-06 -9.26836e-06 0.0720727)
(-4.30576e-06 9.81989e-06 0.0721752)
(-9.43828e-06 4.61987e-06 0.0721729)
(9.55117e-06 -4.88363e-06 0.0720723)
(5.88756e-05 -5.85016e-05 0.106508)
(-8.2701e-06 9.09321e-06 0.0895001)
(-8.61654e-06 8.36838e-06 0.0895051)
(9.6876e-06 -1.04944e-05 0.0893945)
(1.10205e-05 -9.52596e-06 0.0893985)
(-4.32665e-06 9.62419e-06 0.0721762)
(5.22098e-06 -9.33227e-06 0.0720744)
(4.27735e-07 2.77268e-05 0.102497)
(1.99454e-07 -1.25675e-06 0.108581)
(-1.18031e-05 -2.15442e-05 0.0956944)
(-2.01473e-06 -1.03103e-06 0.107899)
(2.711e-07 -1.10227e-06 0.108581)
(1.30287e-05 2.01283e-05 0.0958294)
(1.8078e-07 -2.73838e-05 0.102387)
(1.7489e-07 2.16724e-05 0.094268)
(7.88964e-07 -1.76836e-05 0.0835414)
(-1.37054e-06 1.78976e-05 0.0836359)
(4.28538e-07 -2.06106e-05 0.0941675)
(4.98907e-07 2.15627e-05 0.0942685)
(-4.51924e-07 -1.80234e-05 0.0835318)
(2.08504e-06 1.75282e-05 0.083627)
(2.70036e-07 -2.06164e-05 0.0941662)
(5.66566e-07 -2.72764e-05 0.102387)
(2.56523e-06 -1.48999e-06 0.107897)
(2.50099e-07 -1.34061e-06 0.108582)
(-1.20378e-05 1.98164e-05 0.0958221)
(2.46095e-07 -1.27363e-06 0.108581)
(1.26868e-05 -2.14247e-05 0.0956889)
(3.30593e-07 2.74645e-05 0.102496)
(2.68099e-07 -2.72806e-05 0.102387)
(-2.00437e-06 -1.43785e-06 0.107899)
(2.84707e-07 -1.33284e-06 0.108582)
(1.30539e-05 2.01206e-05 0.0958303)
(2.95501e-07 -1.21099e-06 0.108581)
(-1.18286e-05 -2.14284e-05 0.0956955)
(4.74462e-07 2.74258e-05 0.102497)
(5.00167e-07 -2.06087e-05 0.0941677)
(-1.51006e-06 1.77938e-05 0.0836368)
(1.01459e-06 -1.76153e-05 0.0835423)
(1.35147e-07 2.17026e-05 0.094268)
(3.40702e-07 -2.06349e-05 0.0941664)
(2.16992e-06 1.75147e-05 0.0836282)
(-3.38933e-07 -1.80194e-05 0.0835327)
(5.33068e-07 2.1572e-05 0.0942684)
(-9.81642e-06 -4.80985e-06 0.0720493)
(9.48743e-06 4.57867e-06 0.0721499)
(-4.62199e-06 -9.63097e-06 0.0720472)
(5.03318e-06 9.52848e-06 0.0721491)
(-5.82602e-05 -5.82687e-05 0.106511)
(8.56072e-06 9.41182e-06 0.0895075)
(1.00427e-05 8.71213e-06 0.0895082)
(-9.64737e-06 -1.043e-05 0.0893984)
(-9.94139e-06 -9.44979e-06 0.0893995)
(9.44448e-06 4.44241e-06 0.0721479)
(-9.72244e-06 -5.00607e-06 0.0720482)
(5.1274e-06 9.54068e-06 0.0721516)
(-4.52806e-06 -9.67343e-06 0.0720485)
(4.2079e-06 9.91265e-06 0.0720734)
(9.88471e-06 4.21123e-06 0.0720735)
(9.8121e-06 9.6106e-06 0.0893991)
(9.77227e-06 9.59441e-06 0.0893974)
(-2.87027e-07 1.82831e-05 0.083541)
(1.26105e-07 2.14304e-05 0.0941776)
(1.19826e-05 2.15937e-05 0.0956882)
(1.25302e-07 1.53261e-06 0.108583)
(-2.54371e-07 2.75497e-05 0.102427)
(-1.17757e-05 2.17248e-05 0.0956823)
(1.4077e-07 1.65713e-06 0.108581)
(-2.43876e-07 2.76132e-05 0.102402)
(-1.00152e-05 9.65857e-06 0.089396)
(-9.66843e-06 1.02144e-05 0.0893941)
(-9.60817e-06 4.64993e-06 0.0720734)
(2.18228e-05 1.17758e-05 0.0956883)
(1.80913e-06 -4.36064e-08 0.108582)
(2.78749e-05 -1.83255e-07 0.102401)
(1.80482e-05 -6.67282e-07 0.0835399)
(2.1427e-05 -3.21938e-08 0.0941684)
(1.82151e-06 9.19675e-08 0.108582)
(2.19567e-05 -1.24011e-05 0.0956842)
(2.79042e-05 -1.92775e-07 0.102389)
(2.15592e-05 -2.73863e-07 0.094267)
(-1.78447e-05 5.4515e-07 0.083541)
(-2.06062e-05 5.06116e-08 0.0941672)
(2.74529e-05 1.88077e-07 0.102493)
(-1.41139e-06 1.36763e-07 0.108581)
(-2.1806e-05 -1.20825e-05 0.0956921)
(-1.60771e-06 -2.04091e-06 0.107898)
(-2.74388e-05 3.59848e-08 0.102384)
(-1.45045e-06 1.39351e-07 0.108581)
(1.97256e-05 1.27574e-05 0.0958273)
(2.17551e-05 9.40509e-08 0.0942655)
(-1.80568e-05 -9.25483e-07 0.0835316)
(-2.07214e-05 -8.61953e-08 0.0941674)
(1.76043e-05 1.81061e-06 0.0836263)
(9.88385e-06 -1.06774e-05 0.0893931)
(1.10071e-05 -9.76483e-06 0.0893969)
(5.08535e-06 -9.54773e-06 0.0720746)
(2.21364e-07 2.73991e-05 0.102498)
(2.71801e-07 -1.34168e-06 0.108582)
(-1.18176e-05 -2.14368e-05 0.0956954)
(-2.16855e-06 -1.6851e-06 0.107899)
(3.13205e-07 -2.72841e-05 0.102388)
(2.28736e-07 -1.4679e-06 0.108582)
(1.31313e-05 2.00108e-05 0.0958297)
(-2.29932e-08 2.14967e-05 0.0942685)
(7.63369e-07 -1.76851e-05 0.0835429)
(4.73718e-07 -2.06407e-05 0.0941683)
(3.22535e-07 2.15475e-05 0.094269)
(-2.92086e-07 -1.79886e-05 0.0835333)
(2.80747e-07 -2.06953e-05 0.0941671)
(2.03828e-06 1.73004e-05 0.0836283)
(-9.71763e-06 -5.08591e-06 0.0720459)
(9.63945e-06 4.7383e-06 0.0721465)
(-4.41437e-06 -9.54566e-06 0.0720511)
(5.16044e-06 9.40301e-06 0.072153)
(-1.16747e-06 9.18298e-06 0.0776357)
(5.66222e-07 -8.04953e-06 0.0795935)
(-9.16876e-07 -2.05497e-05 0.0923513)
(2.67117e-07 2.10215e-05 0.0941855)
(2.35734e-07 8.79309e-06 0.0795178)
(5.44024e-07 2.02765e-05 0.0922454)
(4.86039e-07 -8.57559e-06 0.077722)
(-7.86002e-08 -8.43452e-06 0.068974)
(-2.3712e-06 -1.70661e-05 0.0836317)
(-8.53723e-07 1.62762e-05 0.0874747)
(-1.74624e-06 -1.56847e-05 0.0875826)
(-1.98098e-06 9.42508e-06 0.0688644)
(-1.80021e-06 9.29887e-06 0.0688623)
(-1.49479e-06 -1.59145e-05 0.0875821)
(4.58921e-08 1.82697e-05 0.0835369)
(-8.07091e-07 1.6088e-05 0.0874749)
(3.32593e-07 -8.46386e-06 0.0689719)
(1.16282e-07 -8.49515e-06 0.0777236)
(1.54201e-07 -2.16778e-05 0.0942852)
(3.4407e-08 9.24776e-06 0.0795205)
(6.02647e-07 2.04238e-05 0.0922461)
(3.81712e-07 -7.70542e-06 0.0795958)
(-1.00972e-06 -2.0364e-05 0.0923518)
(-1.42886e-06 9.41514e-06 0.0776381)
(4.81525e-06 -9.25505e-06 0.0721798)
(-4.48802e-06 9.62068e-06 0.0720738)
(9.54419e-06 -9.87754e-07 0.0776491)
(-2.0454e-05 -1.24497e-06 0.0923672)
(-7.93838e-06 4.32254e-07 0.0796348)
(2.1003e-05 -1.1691e-07 0.0941767)
(1.97004e-05 8.27218e-08 0.0922611)
(8.76275e-06 1.7098e-07 0.0795585)
(-8.19894e-06 5.3233e-07 0.0777345)
(-8.46953e-06 -2.1541e-07 0.0689788)
(-1.70238e-05 -2.53737e-06 0.0836333)
(1.60335e-05 -8.49069e-07 0.0874794)
(-1.56916e-05 -1.80306e-06 0.0875869)
(9.2117e-06 -1.82646e-06 0.0688693)
(9.09788e-06 -2.29384e-06 0.068868)
(-1.59782e-05 -1.65189e-06 0.0875862)
(1.83646e-05 -2.60729e-07 0.0835389)
(1.61891e-05 -9.33513e-07 0.0874794)
(-8.80133e-06 -2.83475e-07 0.068978)
(-8.3104e-06 3.90986e-07 0.0777369)
(-2.14235e-05 -2.8224e-07 0.0942758)
(1.97105e-05 1.88691e-07 0.0922612)
(8.59421e-06 -2.60905e-07 0.0795591)
(-2.08514e-05 -1.41466e-06 0.0923672)
(-7.98749e-06 1.92494e-07 0.0796352)
(9.19444e-06 -1.05781e-06 0.0776519)
(-9.46349e-06 4.75735e-06 0.0721721)
(9.53213e-06 -4.72614e-06 0.0720715)
(-8.9038e-06 -8.63856e-06 0.0852939)
(3.65206e-06 9.08079e-06 0.0692838)
(8.24636e-06 4.40524e-06 0.0692791)
(-4.67032e-06 -8.2602e-06 0.0691824)
(-8.87138e-06 -4.04889e-06 0.0691777)
(8.25571e-06 8.63756e-06 0.0853816)
(2.48593e-05 1.06087e-05 0.0942426)
(-3.10019e-05 -1.39323e-05 0.099384)
(8.58778e-06 9.66114e-06 0.0895072)
(-8.45165e-06 -5.83167e-06 0.0828896)
(3.08325e-05 1.22993e-05 0.0994944)
(7.8245e-06 5.76866e-06 0.0829927)
(-2.42819e-05 -1.10803e-05 0.0941327)
(1.02735e-05 2.43984e-05 0.0942335)
(-1.39472e-05 -3.08753e-05 0.0993809)
(9.68889e-06 8.63495e-06 0.0895069)
(-5.90841e-06 -8.42821e-06 0.082887)
(1.22802e-05 3.08532e-05 0.0994904)
(5.74978e-06 8.0673e-06 0.082989)
(-1.10943e-05 -2.42659e-05 0.0941251)
(-2.37282e-05 -1.05532e-05 0.0941329)
(7.41184e-06 5.84783e-06 0.0829909)
(-9.52598e-06 -1.01173e-05 0.0893984)
(3.06918e-05 1.25915e-05 0.0994944)
(-3.09723e-05 -1.38435e-05 0.099385)
(-8.65261e-06 -5.93452e-06 0.082889)
(2.47622e-05 1.08783e-05 0.0942439)
(-1.11939e-05 -2.43357e-05 0.0941247)
(5.90044e-06 8.06525e-06 0.0829891)
(-9.87953e-06 -9.3656e-06 0.0893991)
(1.24949e-05 3.06871e-05 0.0994896)
(-1.39179e-05 -3.0843e-05 0.0993815)
(-5.93323e-06 -8.21834e-06 0.0828875)
(1.03869e-05 2.41558e-05 0.0942338)
(8.51765e-06 8.70864e-06 0.0853822)
(-4.56139e-06 -8.50962e-06 0.0691832)
(-8.67778e-06 -4.25957e-06 0.0691781)
(3.81213e-06 8.67965e-06 0.0692847)
(8.30309e-06 4.28182e-06 0.0692794)
(-8.7098e-06 -8.66263e-06 0.0852943)
(-2.91718e-07 -8.7453e-06 0.0689682)
(-5.78412e-07 1.63362e-05 0.0874741)
(-2.38603e-06 -1.71818e-05 0.0836322)
(-2.20853e-06 9.22392e-06 0.0688586)
(-1.47695e-06 -1.57248e-05 0.0875815)
(3.9445e-07 -8.25505e-06 0.0777126)
(-7.71856e-08 -2.1539e-05 0.0942871)
(8.44797e-07 8.95455e-06 0.0795132)
(4.60904e-07 2.00524e-05 0.0922481)
(-9.56085e-07 9.77011e-06 0.0776274)
(9.5134e-07 -7.84885e-06 0.0795885)
(-1.0264e-06 -2.03613e-05 0.0923538)
(4.94109e-06 -9.35438e-06 0.0721808)
(-8.65982e-06 1.2049e-07 0.0689715)
(1.62325e-05 -7.36079e-07 0.0874786)
(-1.71861e-05 -2.25337e-06 0.0836332)
(9.26435e-06 -1.85941e-06 0.0688623)
(-1.58248e-05 -1.48279e-06 0.087586)
(-8.26435e-06 7.85212e-07 0.0777269)
(-2.12378e-05 -2.41955e-07 0.0942759)
(2.02425e-05 2.94709e-07 0.0922621)
(8.95846e-06 3.55954e-07 0.0795566)
(9.55069e-06 -5.98882e-07 0.0776418)
(-2.00314e-05 -1.12961e-06 0.0923679)
(-7.79566e-06 5.6434e-07 0.0796323)
(-9.56677e-06 4.54352e-06 0.0721725)
(-9.02727e-06 -8.5495e-06 0.0852935)
(3.86263e-06 9.13861e-06 0.069281)
(8.46112e-06 4.36732e-06 0.0692799)
(-4.58816e-06 -8.07583e-06 0.0691793)
(-8.80517e-06 -4.04455e-06 0.0691781)
(8.43694e-06 8.9222e-06 0.085381)
(2.46802e-05 1.04224e-05 0.0942442)
(-3.09693e-05 -1.39425e-05 0.0993864)
(-8.65941e-06 -5.90424e-06 0.0828845)
(8.37367e-06 9.24621e-06 0.0895075)
(-2.4171e-05 -1.09956e-05 0.0941348)
(3.08682e-05 1.2334e-05 0.0994975)
(7.72108e-06 5.73424e-06 0.0829868)
(1.03962e-05 2.45057e-05 0.0942319)
(-1.4036e-05 -3.10215e-05 0.099379)
(-5.78288e-06 -7.9105e-06 0.0828904)
(9.90827e-06 8.60097e-06 0.0895083)
(-1.1005e-05 -2.41446e-05 0.094124)
(1.22619e-05 3.06603e-05 0.0994885)
(5.91171e-06 8.40388e-06 0.0829926)
(8.31379e-06 8.84844e-06 0.0853811)
(-4.63796e-06 -8.0943e-06 0.0691801)
(-9.01629e-06 -3.93837e-06 0.0691778)
(-8.99283e-06 -8.44837e-06 0.0852935)
(3.85651e-06 8.93661e-06 0.0692814)
(8.12428e-06 4.44649e-06 0.0692794)
(-2.41412e-05 -1.09001e-05 0.0941354)
(7.70886e-06 6.03463e-06 0.0829855)
(-9.75856e-06 -1.02044e-05 0.0893987)
(3.07249e-05 1.24751e-05 0.0994977)
(-3.09291e-05 -1.37698e-05 0.0993885)
(-8.58959e-06 -5.76259e-06 0.0828836)
(2.4747e-05 1.0798e-05 0.0942451)
(-1.10393e-05 -2.43013e-05 0.094124)
(6.11628e-06 8.08016e-06 0.0829936)
(-9.46953e-06 -9.47415e-06 0.0894007)
(1.23836e-05 3.04699e-05 0.0994872)
(-1.38577e-05 -3.10791e-05 0.0993794)
(-5.61083e-06 -8.07231e-06 0.0828919)
(1.06022e-05 2.43938e-05 0.0942322)
(-5.24878e-06 -9.22496e-06 0.0721711)
(4.17958e-06 9.81238e-06 0.0720696)
(-9.08204e-06 -5.5392e-06 0.0721713)
(9.88178e-06 3.86983e-06 0.0720707)
(8.45225e-06 8.20748e-06 0.0852997)
(-8.72813e-06 -4.08588e-06 0.0692957)
(-3.77176e-06 -9.12846e-06 0.0692894)
(8.36005e-06 4.33148e-06 0.0691923)
(4.56074e-06 8.1252e-06 0.0691862)
(-8.71412e-06 -9.04914e-06 0.0853894)
(-1.06902e-05 -2.49433e-05 0.0942417)
(1.38874e-05 3.06481e-05 0.0993757)
(-9.93293e-06 -8.53864e-06 0.089508)
(5.27149e-06 8.19968e-06 0.0828976)
(-6.18993e-06 -8.10917e-06 0.0830028)
(-1.22092e-05 -3.10133e-05 0.0994852)
(1.0597e-05 2.3709e-05 0.0941317)
(-2.4704e-05 -1.10577e-05 0.0942341)
(3.08662e-05 1.36803e-05 0.0993722)
(-8.54393e-06 -1.06112e-05 0.0895056)
(8.15184e-06 4.91168e-06 0.0828931)
(-8.09589e-06 -6.60227e-06 0.0829972)
(-3.07968e-05 -1.24962e-05 0.0994819)
(2.4056e-05 1.04732e-05 0.0941241)
(1.0604e-05 2.36436e-05 0.0941312)
(-6.3614e-06 -8.07566e-06 0.0830038)
(9.49118e-06 9.38001e-06 0.0893984)
(-1.23353e-05 -3.09052e-05 0.0994836)
(5.26606e-06 8.05428e-06 0.0828992)
(-1.08057e-05 -2.47534e-05 0.094242)
(1.38925e-05 3.05234e-05 0.0993755)
(2.39946e-05 1.03177e-05 0.0941235)
(-7.73384e-06 -6.73153e-06 0.0829984)
(9.58066e-06 8.9232e-06 0.0893975)
(-3.05995e-05 -1.26768e-05 0.0994797)
(8.42819e-06 5.00655e-06 0.0828949)
(-2.4487e-05 -1.12566e-05 0.0942342)
(3.087e-05 1.36099e-05 0.0993716)
(-8.86601e-06 -9.11664e-06 0.0853878)
(8.28524e-06 4.45305e-06 0.0691908)
(4.5857e-06 8.27379e-06 0.0691846)
(-8.66628e-06 -4.08525e-06 0.0692943)
(-3.8942e-06 -8.81895e-06 0.0692879)
(8.4383e-06 8.28264e-06 0.0852983)
(4.14843e-06 9.72825e-06 0.0720721)
(-5.24542e-06 -9.29997e-06 0.0721731)
(9.81294e-06 4.08668e-06 0.0720726)
(-9.21451e-06 -5.38626e-06 0.0721734)
(-8.90798e-06 -9.27841e-06 0.0853908)
(8.55873e-06 4.21765e-06 0.0691937)
(4.54565e-06 8.15215e-06 0.0691877)
(8.45877e-06 8.14719e-06 0.0853016)
(-8.52156e-06 -4.33728e-06 0.069297)
(-3.97494e-06 -9.02274e-06 0.0692908)
(1.06542e-05 2.38173e-05 0.09413)
(-1.22143e-05 -3.06141e-05 0.0994815)
(9.50807e-06 9.32303e-06 0.0893986)
(-6.0679e-06 -7.75961e-06 0.0830064)
(5.41865e-06 8.15227e-06 0.0829018)
(1.40697e-05 3.08146e-05 0.0993728)
(-1.08675e-05 -2.47771e-05 0.0942406)
(2.40866e-05 1.03317e-05 0.0941223)
(-3.04357e-05 -1.25401e-05 0.0994772)
(9.67561e-06 9.28073e-06 0.0893972)
(-7.35978e-06 -6.24614e-06 0.0830004)
(8.71511e-06 5.25595e-06 0.082897)
(3.11561e-05 1.37624e-05 0.0993684)
(-2.4251e-05 -1.09765e-05 0.094233)
(-1.05653e-05 -2.48928e-05 0.0942406)
(5.51677e-06 8.01302e-06 0.0829006)
(1.40899e-05 3.05076e-05 0.0993742)
(-9.87124e-06 -8.67077e-06 0.0895089)
(1.07632e-05 2.36409e-05 0.0941315)
(-6.10226e-06 -8.31855e-06 0.0830056)
(-1.1988e-05 -3.09142e-05 0.0994836)
(-2.4686e-05 -1.10738e-05 0.094233)
(8.52865e-06 5.25722e-06 0.0828961)
(3.08863e-05 1.3768e-05 0.09937)
(-8.31735e-06 -1.01858e-05 0.0895062)
(2.38295e-05 1.03018e-05 0.0941237)
(-7.85262e-06 -6.41043e-06 0.0829999)
(-3.06284e-05 -1.2365e-05 0.0994794)
(8.48406e-06 8.18424e-06 0.0853027)
(-8.57108e-06 -4.03679e-06 0.0692983)
(-3.82148e-06 -8.94408e-06 0.0692919)
(8.47456e-06 4.34355e-06 0.0691952)
(4.62286e-06 8.06786e-06 0.0691892)
(-8.61509e-06 -8.93273e-06 0.0853924)
(1.56494e-06 9.02818e-06 0.0777035)
(8.18744e-07 -8.35345e-06 0.0796251)
(1.04249e-06 -2.02717e-05 0.0923526)
(2.16539e-08 2.11587e-05 0.0941775)
(1.12909e-06 8.43514e-06 0.0795488)
(-3.34276e-07 1.99637e-05 0.0922491)
(1.67925e-08 -8.74101e-06 0.07779)
(-3.67133e-08 -8.57275e-06 0.0690145)
(1.85318e-06 -1.7058e-05 0.0836368)
(5.6744e-07 1.61214e-05 0.0874876)
(1.37313e-06 -1.57807e-05 0.0875942)
(1.96121e-06 9.17445e-06 0.0689044)
(1.83439e-06 9.04249e-06 0.0689043)
(1.19568e-06 -1.58835e-05 0.0875939)
(-4.33886e-07 1.82788e-05 0.0835402)
(5.90312e-07 1.59878e-05 0.0874882)
(-2.33311e-07 -8.81466e-06 0.0690148)
(3.73259e-07 -8.61733e-06 0.0777899)
(2.6265e-07 -2.14581e-05 0.0942766)
(1.21578e-06 8.82843e-06 0.0795498)
(-3.99981e-07 2.01432e-05 0.0922496)
(9.31637e-07 -8.04243e-06 0.0796253)
(1.09193e-06 -1.99971e-05 0.0923529)
(1.83498e-06 9.25259e-06 0.0777035)
(4.83291e-07 -7.94511e-06 0.0777185)
(5.66e-07 8.63768e-06 0.0795166)
(3.72495e-07 1.952e-05 0.0922456)
(-9.07609e-08 -2.17248e-05 0.094287)
(-7.74702e-07 9.50292e-06 0.0776339)
(1.04679e-06 -7.80051e-06 0.079592)
(-1.02458e-06 -2.09743e-05 0.0923527)
(-2.16298e-06 9.08099e-06 0.0688591)
(-4.40694e-08 1.81487e-05 0.0835371)
(-1.46038e-06 -1.56969e-05 0.0875816)
(-4.38372e-07 -8.70153e-06 0.0689694)
(-5.0043e-07 1.61493e-05 0.0874741)
(-2.36573e-07 -8.59292e-06 0.0689701)
(-6.30427e-07 1.61915e-05 0.0874747)
(-2.31662e-06 -1.72464e-05 0.0836322)
(-1.80756e-06 9.47591e-06 0.0688606)
(-1.34144e-06 -1.57124e-05 0.0875825)
(-8.99467e-07 9.7566e-06 0.0776301)
(-2.80625e-08 2.1135e-05 0.0941873)
(1.18128e-06 -7.89144e-06 0.0795903)
(-1.18239e-06 -2.08925e-05 0.0923527)
(3.87767e-07 -8.01526e-06 0.0777155)
(9.32316e-07 8.75572e-06 0.0795146)
(3.82819e-07 1.94695e-05 0.0922473)
(-7.25269e-08 -8.60116e-06 0.0777895)
(9.98813e-07 8.32691e-06 0.0795492)
(-2.81022e-07 1.96979e-05 0.0922492)
(1.65436e-07 -2.12361e-05 0.0942771)
(1.35371e-06 9.02262e-06 0.0777041)
(8.24111e-07 -8.23159e-06 0.0796256)
(1.08971e-06 -2.04299e-05 0.0923532)
(1.85805e-06 8.94347e-06 0.0689056)
(-2.68466e-07 1.81247e-05 0.0835404)
(1.42002e-06 -1.59281e-05 0.0875939)
(5.50909e-07 1.58777e-05 0.0874877)
(-1.24362e-07 -8.65491e-06 0.0690159)
(-1.24755e-07 -8.76522e-06 0.0690152)
(5.48007e-07 1.60566e-05 0.0874882)
(1.86907e-06 -1.72233e-05 0.0836373)
(1.81187e-06 9.06194e-06 0.0689054)
(1.23248e-06 -1.59174e-05 0.0875945)
(1.19999e-06 9.11833e-06 0.0777036)
(1.7057e-09 2.14616e-05 0.0941778)
(8.44088e-07 -8.30222e-06 0.0796265)
(1.30222e-06 -2.05597e-05 0.0923525)
(1.00244e-06 8.29776e-06 0.0795497)
(-2.73897e-07 1.97425e-05 0.0922497)
(-9.83088e-08 -8.65772e-06 0.0777896)
(-8.78257e-06 8.4928e-06 0.0852952)
(8.48728e-06 -4.16567e-06 0.0692854)
(3.96177e-06 -8.75457e-06 0.0692862)
(-8.80284e-06 4.08476e-06 0.0691825)
(-4.43339e-06 8.2939e-06 0.0691833)