/*--------------------------------*- C++ -*----------------------------------*\
| =========                 |                                                 |
| \\      /  F ield         | OpenFOAM: The Open Source CFD Toolbox           |
|  \\    /   O peration     | Version:  2312                                  |
|   \\  /    A nd           | Website:  www.openfoam.com                      |
|    \\/     M anipulation  |                                                 |
\*---------------------------------------------------------------------------*/
FoamFile
{
    version     2.0;
    format      ascii;
    arch        "LSB;label=32;scalar=64";
    class       volScalarField;
    location    "700";
    object      nut;
}
// * * * * * * * * * * * * * * * * * * * * * * * * * * * * * * * * * * * * * //

dimensions      [0 2 -1 0 0 0 0];

internalField   nonuniform List<scalar> 
42840
(
0.000145955
9.86087e-05
9.86048e-05
8.1777e-05
0.000141926
9.62738e-05
9.62711e-05
8.18343e-05
0.000137984
9.44584e-05
9.44566e-05
8.23564e-05
0.000134146
9.31595e-05
9.316e-05
8.33457e-05
0.000130466
9.2368e-05
9.23681e-05
8.47239e-05
0.000126971
9.20614e-05
9.2062e-05
8.64297e-05
0.000123698
9.22131e-05
9.22146e-05
8.83795e-05
0.00012069
9.27896e-05
9.27931e-05
9.0584e-05
0.000117952
9.37596e-05
9.37648e-05
9.29275e-05
0.000115536
9.50879e-05
9.50932e-05
9.52947e-05
0.000113456
9.67339e-05
9.67397e-05
9.77122e-05
0.000111727
9.86602e-05
9.86656e-05
0.000100293
0.000110359
0.00010083
0.000100835
0.000102891
0.000109358
0.000103214
0.000103218
0.00010559
0.000108724
0.000105781
0.000105787
0.000108183
0.000108455
0.000108504
0.000108508
0.000110875
0.000108542
0.000111351
0.000111356
0.00011362
0.000108976
0.000114301
0.000114303
0.000116298
0.000109745
0.000117327
0.000117331
0.000118959
0.000110833
0.000120422
0.000120428
0.00012164
0.000112226
0.000123565
0.000123573
0.000124327
0.000113905
0.000126739
0.000126747
0.000126885
0.000115849
0.000129924
0.000129935
0.000129506
0.00011804
0.000133111
0.000133123
0.00013205
0.000120454
0.000136286
0.0001363
0.00013464
8.20173e-05
8.19207e-05
9.85834e-05
9.8572e-05
9.67851e-05
9.67721e-05
8.19773e-05
8.19002e-05
9.86055e-05
9.85712e-05
9.68063e-05
9.67716e-05
9.85839e-05
9.68051e-05
9.67865e-05
8.20057e-05
8.18804e-05
9.85954e-05
9.68045e-05
9.67965e-05
8.21664e-05
8.21382e-05
8.23472e-05
9.62509e-05
9.62397e-05
9.48407e-05
9.4829e-05
8.20773e-05
8.2334e-05
9.62718e-05
9.6238e-05
9.48612e-05
9.48288e-05
9.62537e-05
9.48602e-05
9.48442e-05
8.20759e-05
8.22808e-05
9.62633e-05
9.48611e-05
9.48531e-05
8.26356e-05
8.26838e-05
8.3229e-05
9.44362e-05
9.44265e-05
9.34156e-05
9.34056e-05
8.25959e-05
8.32179e-05
9.44565e-05
9.44254e-05
9.34354e-05
9.3406e-05
9.44412e-05
9.34344e-05
9.34205e-05
8.26195e-05
8.32072e-05
9.44493e-05
9.34368e-05
9.34287e-05
8.35159e-05
8.36693e-05
8.45328e-05
9.31407e-05
9.31304e-05
9.25013e-05
9.24912e-05
8.35815e-05
8.44994e-05
9.31593e-05
9.31305e-05
9.2519e-05
9.24914e-05
9.31465e-05
9.25182e-05
9.2507e-05
8.35965e-05
8.45344e-05
9.31544e-05
9.252e-05
9.25152e-05
8.48214e-05
8.49927e-05
8.61296e-05
9.23509e-05
9.23408e-05
9.20772e-05
9.20679e-05
8.4988e-05
8.61546e-05
9.23681e-05
9.23413e-05
9.20944e-05
9.20694e-05
9.23578e-05
9.20933e-05
9.20852e-05
8.50368e-05
8.61254e-05
9.23652e-05
9.20963e-05
9.20927e-05
8.64681e-05
8.67151e-05
8.80619e-05
9.20462e-05
9.20367e-05
9.2119e-05
9.21111e-05
8.67165e-05
8.80384e-05
9.20621e-05
9.20378e-05
9.21356e-05
9.21128e-05
9.20548e-05
9.21342e-05
9.21291e-05
8.66916e-05
8.80287e-05
9.20614e-05
9.21371e-05
9.21353e-05
8.8454e-05
8.86554e-05
9.01795e-05
9.22002e-05
9.21911e-05
9.25951e-05
9.25887e-05
8.86522e-05
9.02022e-05
9.22156e-05
9.21936e-05
9.26116e-05
9.25907e-05
9.221e-05
9.26081e-05
9.26068e-05
8.86454e-05
9.01817e-05
9.22156e-05
9.26131e-05
9.26126e-05
9.05268e-05
9.08372e-05
9.25042e-05
9.27797e-05
9.27718e-05
9.34745e-05
9.3466e-05
9.08225e-05
9.25196e-05
9.27948e-05
9.27751e-05
9.34859e-05
9.34691e-05
9.27916e-05
9.34835e-05
9.34859e-05
9.08331e-05
9.24975e-05
9.27962e-05
9.34898e-05
9.34904e-05
9.28693e-05
9.31851e-05
9.50571e-05
9.37526e-05
9.37467e-05
9.47174e-05
9.47111e-05
9.31983e-05
9.50482e-05
9.37643e-05
9.37472e-05
9.4729e-05
9.47127e-05
9.37659e-05
9.47272e-05
9.47275e-05
9.31765e-05
9.49345e-05
9.37688e-05
9.47326e-05
9.47305e-05
9.52455e-05
9.56011e-05
9.74025e-05
9.50823e-05
9.50759e-05
9.62891e-05
9.62829e-05
9.55881e-05
9.73483e-05
9.50931e-05
9.50786e-05
9.62988e-05
9.62851e-05
9.50933e-05
9.62963e-05
9.62962e-05
9.56849e-05
9.74155e-05
9.50956e-05
9.63025e-05
9.63e-05
9.78079e-05
9.81507e-05
9.9902e-05
9.673e-05
9.6725e-05
9.81527e-05
9.81455e-05
9.81697e-05
9.98264e-05
9.67388e-05
9.67272e-05
9.81596e-05
9.8146e-05
9.67382e-05
9.81564e-05
9.81554e-05
9.81067e-05
9.98512e-05
9.67401e-05
9.81616e-05
9.81581e-05
0.000100242
0.000100714
0.000102497
9.86602e-05
9.86536e-05
0.000100269
0.000100258
0.000100701
0.000102432
9.86663e-05
9.86545e-05
0.000100275
0.000100259
9.8664e-05
0.000100268
0.000100271
0.000100617
0.000102355
9.8665e-05
0.000100274
0.000100271
0.000102907
0.000103252
0.000105187
0.000100833
0.000100825
0.000102602
0.000102592
0.000103178
0.000105285
0.000100838
0.000100826
0.000102608
0.000102593
0.000100837
0.000102601
0.000102606
0.000103261
0.000105035
0.000100837
0.000102606
0.000102604
0.000105498
0.000105867
0.000107748
0.000103217
0.000103209
0.000105127
0.000105116
0.000105764
0.000107862
0.000103222
0.000103209
0.000105134
0.000105118
0.000103223
0.000105125
0.000105132
0.000105817
0.000107731
0.000103222
0.000105131
0.000105129
0.000108147
0.00010858
0.000110442
0.000105785
0.000105776
0.000107814
0.000107801
0.000108448
0.000110436
0.000105791
0.000105777
0.000107819
0.000107803
0.000105792
0.000107812
0.000107817
0.000108546
0.000110383
0.000105788
0.000107817
0.000107813
0.000110829
0.000111244
0.000113113
0.000108507
0.000108498
0.00011063
0.00011062
0.000111261
0.0001131
0.000108511
0.000108497
0.000110635
0.00011062
0.000108512
0.00011063
0.000110636
0.000111271
0.000113105
0.000108507
0.000110636
0.00011063
0.000113508
0.000113894
0.000115851
0.000111352
0.000111344
0.000113554
0.000113546
0.000113901
0.000115829
0.000111356
0.000111343
0.000113558
0.000113542
0.00011136
0.000113557
0.000113561
0.000113895
0.000115991
0.000111354
0.00011356
0.000113555
0.000116216
0.000116566
0.000118465
0.000114298
0.000114294
0.000116562
0.000116554
0.000116569
0.000118432
0.000114302
0.000114289
0.000116566
0.000116551
0.000114307
0.000116565
0.00011657
0.000116516
0.000118615
0.000114301
0.00011657
0.000116561
0.000118882
0.000119311
0.000121366
0.000117326
0.000117319
0.000119643
0.000119632
0.000119273
0.000121094
0.00011733
0.000117316
0.000119646
0.00011963
0.000117334
0.000119644
0.000119651
0.000119106
0.000121147
0.000117326
0.00011965
0.000119641
0.000121519
0.000121729
0.000124076
0.000120422
0.000120412
0.000122778
0.000122764
0.000121938
0.000123852
0.000120424
0.000120411
0.000122778
0.000122764
0.000120431
0.000122778
0.000122785
0.000121922
0.000123825
0.000120421
0.000122785
0.000122774
0.000124194
0.00012437
0.000126781
0.000123568
0.000123554
0.000125946
0.00012593
0.000124516
0.000126431
0.000123568
0.000123555
0.000125946
0.000125932
0.000123575
0.000125944
0.000125953
0.000124513
0.000126445
0.000123565
0.000125953
0.000125943
0.000126805
0.000126886
0.000129356
0.000126741
0.000126725
0.000129132
0.000129114
0.000127133
0.00012905
0.000126741
0.000126728
0.000129131
0.000129117
0.000126749
0.000129128
0.000129138
0.000127176
0.000129156
0.000126739
0.000129139
0.000129129
0.000129383
0.000129449
0.000131932
0.000129929
0.000129911
0.00013232
0.000132301
0.000129715
0.000131606
0.000129928
0.000129915
0.000132319
0.000132305
0.000129936
0.000132315
0.000132327
0.000129695
0.000131912
0.000129927
0.000132328
0.000132319
0.000131961
0.00013205
0.000134368
0.000133116
0.000133097
0.000135498
0.000135479
0.000132286
0.000134329
0.000133115
0.000133101
0.000135497
0.000135485
0.000133122
0.000135494
0.000135504
0.000132146
0.000134351
0.000133114
0.000135509
0.000135497
0.000134381
0.000134625
0.000136291
0.000136271
0.000134708
0.00013629
0.000136278
0.000136296
0.000134679
0.00013629
7.20367e-05
4.95763e-05
4.95892e-05
7.12084e-05
2.3616e-05
2.36129e-05
7.20329e-05
4.95709e-05
4.95837e-05
7.12072e-05
0.00014595
0.000145943
0.000145942
0.000142915
0.00014291
0.000142903
0.000142903
6.99273e-05
6.76008e-05
0.000122025
9.79714e-05
6.82749e-05
0.00012104
6.89133e-05
2.36151e-05
2.36121e-05
6.99307e-05
0.000122002
6.76353e-05
9.79715e-05
0.000121036
6.82365e-05
6.89245e-05
6.20556e-05
6.20422e-05
8.22419e-05
6.23551e-05
6.23695e-05
7.37849e-05
4.95947e-05
7.30524e-05
4.96064e-05
2.36046e-05
2.36019e-05
7.37843e-05
4.95893e-05
7.30501e-05
4.9601e-05
0.00014192
0.000141914
0.000141914
0.000138944
0.000138938
0.000138933
0.000138932
7.29156e-05
6.94052e-05
0.000118296
9.57667e-05
7.18951e-05
7.00336e-05
0.000117375
2.36037e-05
2.3601e-05
7.29253e-05
0.000118273
6.94361e-05
9.5768e-05
7.19019e-05
0.000117371
7.00044e-05
6.29249e-05
6.29177e-05
8.24327e-05
6.32076e-05
6.32095e-05
7.53054e-05
4.96106e-05
7.46759e-05
4.96214e-05
2.35942e-05
2.35918e-05
7.53191e-05
4.96053e-05
7.46609e-05
4.9616e-05
0.000137978
0.000137973
0.000137972
0.000135092
0.000135086
0.000135081
0.00013508
7.58538e-05
7.11027e-05
0.000114862
9.40826e-05
7.49008e-05
7.1693e-05
0.000114043
2.35933e-05
2.35909e-05
7.58963e-05
0.00011484
7.11332e-05
9.40844e-05
7.48848e-05
0.000114039
7.16712e-05
6.37286e-05
6.37227e-05
8.31169e-05
6.39883e-05
6.39889e-05
7.66665e-05
4.96248e-05
7.6099e-05
4.9634e-05
2.35848e-05
2.35827e-05
7.66786e-05
4.96196e-05
7.60836e-05
4.96286e-05
0.00013414
0.000134135
0.000134136
0.000131373
0.000131367
0.000131363
0.000131363
7.87878e-05
7.26984e-05
0.000111743
9.29134e-05
7.7837e-05
7.3262e-05
0.000111007
2.35839e-05
2.35818e-05
7.87926e-05
0.000111724
7.27347e-05
9.29149e-05
7.78463e-05
0.000111008
7.32385e-05
6.44679e-05
6.44609e-05
8.42135e-05
6.47101e-05
6.47094e-05
7.78859e-05
4.96372e-05
7.73692e-05
4.96452e-05
2.35763e-05
2.35745e-05
7.78965e-05
4.96322e-05
7.7354e-05
4.96395e-05
0.000130461
0.000130456
0.000130457
0.000127829
0.000127824
0.00012782
0.000127821
8.16075e-05
7.42087e-05
0.000109006
9.22453e-05
8.06959e-05
7.47353e-05
0.000108367
2.35754e-05
2.35736e-05
8.16046e-05
0.000108992
7.42379e-05
9.22471e-05
8.07041e-05
0.000108373
7.47158e-05
6.51529e-05
6.51503e-05
8.56903e-05
6.53798e-05
6.53823e-05
7.8989e-05
4.96484e-05
7.8517e-05
4.96554e-05
2.35687e-05
2.35672e-05
7.89987e-05
4.96436e-05
7.85029e-05
4.96495e-05
0.000126966
0.000126962
0.000126964
0.000124498
0.000124493
0.00012449
0.000124491
8.43536e-05
7.56235e-05
0.000106671
9.20571e-05
8.34252e-05
7.61266e-05
0.000106138
2.35678e-05
2.35664e-05
8.43409e-05
0.00010666
7.56587e-05
9.2059e-05
8.3438e-05
0.000106145
7.6104e-05
6.5792e-05
6.57861e-05
8.74749e-05
6.60025e-05
6.60019e-05
8.00021e-05
4.96588e-05
7.95667e-05
4.96651e-05
2.3562e-05
2.35609e-05
8.00089e-05
4.96542e-05
7.95539e-05
4.96591e-05
0.000123693
0.000123689
0.000123691
0.000121424
0.00012142
0.000121417
0.000121419
8.69511e-05
7.69639e-05
0.000104765
9.23188e-05
8.60575e-05
7.74397e-05
0.00010434
2.35612e-05
2.35601e-05
8.69459e-05
0.000104755
7.69994e-05
9.23222e-05
8.60732e-05
0.000104348
7.74192e-05
6.63869e-05
6.63821e-05
8.95282e-05
6.65858e-05
6.65841e-05
8.09363e-05
4.96687e-05
8.05383e-05
4.96749e-05
2.35563e-05
2.35556e-05
8.09373e-05
4.9664e-05
8.05263e-05
4.96691e-05
0.000120686
0.000120683
0.000120685
0.000118606
0.000118603
0.0001186
0.000118602
8.94291e-05
7.82316e-05
0.000103303
9.29978e-05
8.85844e-05
7.86854e-05
0.00010299
2.35555e-05
2.35548e-05
8.94445e-05
0.000103294
7.82656e-05
9.30032e-05
8.85855e-05
0.000102999
7.86667e-05
6.69461e-05
6.69425e-05
9.16909e-05
6.71342e-05
6.71319e-05
8.18105e-05
4.96786e-05
8.14372e-05
4.96853e-05
2.35516e-05
2.35512e-05
8.18146e-05
4.96736e-05
8.14268e-05
4.96798e-05
0.000117948
0.000117945
0.000117948
0.000116109
0.000116106
0.000116103
0.000116107
9.18209e-05
7.94326e-05
0.00010229
9.40612e-05
9.09982e-05
7.9869e-05
0.000102088
2.35508e-05
2.35504e-05
9.18443e-05
0.000102282
7.9469e-05
9.40668e-05
9.09823e-05
0.000102096
7.98506e-05
6.74738e-05
6.74707e-05
9.40224e-05
6.76524e-05
6.765e-05
8.26309e-05
4.96886e-05
8.22772e-05
4.96965e-05
2.35479e-05
2.35479e-05
8.26313e-05
4.96833e-05
8.22684e-05
4.96911e-05
0.000115532
0.000115529
0.000115533
0.000113943
0.000113941
0.000113938
0.000113941
9.41076e-05
8.05736e-05
0.000101719
9.54726e-05
9.32904e-05
8.0997e-05
0.000101628
2.35472e-05
2.35471e-05
9.41396e-05
0.000101711
8.06143e-05
9.54791e-05
9.3277e-05
0.000101634
8.09761e-05
6.79741e-05
6.79711e-05
9.65645e-05
6.81439e-05
6.81415e-05
8.34029e-05
4.96996e-05
8.30712e-05
4.97084e-05
2.35452e-05
2.35456e-05
8.3404e-05
4.96942e-05
8.30621e-05
4.97031e-05
0.000113452
0.00011345
0.000113453
0.000112125
0.000112123
0.00011212
0.000112123
9.63087e-05
8.16733e-05
0.000101579
9.71925e-05
9.54952e-05
8.20792e-05
0.000101594
2.35445e-05
2.35448e-05
9.63395e-05
0.000101574
8.17048e-05
9.71977e-05
9.54798e-05
0.000101602
8.20528e-05
6.84499e-05
6.84473e-05
9.89594e-05
6.86123e-05
6.86096e-05
8.4135e-05
4.9712e-05
8.38188e-05
4.97212e-05
2.35436e-05
2.35443e-05
8.41355e-05
4.97067e-05
8.38106e-05
4.97159e-05
0.000111723
0.000111721
0.000111724
0.000110667
0.000110663
0.000110661
0.000110664
9.84268e-05
8.27351e-05
0.00010185
9.91821e-05
9.76099e-05
8.31033e-05
0.000101966
2.35428e-05
2.35435e-05
9.8454e-05
0.000101849
8.27431e-05
9.91881e-05
9.75986e-05
0.000101975
8.30888e-05
6.89047e-05
6.89017e-05
0.000101547
6.90601e-05
6.90575e-05
8.48347e-05
4.97257e-05
8.4531e-05
4.9735e-05
2.3543e-05
2.3544e-05
8.48346e-05
4.97202e-05
8.45234e-05
4.97299e-05
0.000110355
0.000110354
0.000110357
0.000109574
0.00010957
0.000109568
0.000109572
0.000100469
8.37297e-05
0.000102513
0.000101408
9.96494e-05
8.40987e-05
0.000102722
2.35422e-05
2.35432e-05
0.000100493
0.000102511
8.3735e-05
0.000101414
9.96411e-05
0.000102731
8.40857e-05
6.93404e-05
6.93372e-05
0.000104212
6.94899e-05
6.9487e-05
8.55053e-05
4.9744e-05
8.52128e-05
4.97475e-05
2.35433e-05
2.35447e-05
8.55062e-05
4.97352e-05
8.52067e-05
4.97445e-05
0.000109354
0.000109353
0.000109357
0.000108848
0.000108844
0.000108843
0.000108846
0.000102444
8.46934e-05
0.000103539
0.000103841
0.000101621
8.50385e-05
0.000103838
2.35426e-05
2.35439e-05
0.000102466
0.000103539
8.46967e-05
0.000103846
0.000101613
0.000103845
8.50488e-05
6.97592e-05
6.97542e-05
0.000106772
6.9903e-05
6.99014e-05
8.61508e-05
4.97603e-05
8.58709e-05
4.97643e-05
2.35447e-05
2.35464e-05
8.61535e-05
4.97548e-05
8.58623e-05
4.9759e-05
0.00010872
0.000108719
0.000108723
0.000108488
0.000108483
0.000108483
0.000108487
0.000104356
8.56211e-05
0.000104903
0.00010645
0.000103528
8.59621e-05
0.000105284
2.35439e-05
2.35456e-05
0.000104371
0.000104903
8.56224e-05
0.000106456
0.000103523
0.000105291
8.59596e-05
7.01615e-05
7.01553e-05
0.000109487
7.03012e-05
7.03001e-05
8.67782e-05
4.97781e-05
8.65072e-05
4.97827e-05
2.3547e-05
2.3549e-05
8.67813e-05
4.97726e-05
8.64975e-05
4.97773e-05
0.00010845
0.00010845
0.000108454
0.000108488
0.000108483
0.000108483
0.000108486
0.000106209
8.65011e-05
0.000106579
0.000109206
0.000105382
8.68478e-05
0.000107035
2.35462e-05
2.35483e-05
0.000106217
0.00010658
8.65072e-05
0.000109212
0.000105379
0.000107041
8.68469e-05
7.05489e-05
7.0542e-05
0.000112157
7.06853e-05
7.0684e-05
8.73896e-05
4.97973e-05
8.71234e-05
4.98025e-05
2.35502e-05
2.35526e-05
8.73925e-05
4.97919e-05
8.71148e-05
4.97972e-05
0.000108538
0.000108538
0.000108542
0.000108836
0.000108832
0.000108832
0.000108836
0.000108004
8.73601e-05
0.00010854
0.000112081
0.000107186
8.7695e-05
0.000109062
2.35494e-05
2.35518e-05
0.000108013
0.000108543
8.7365e-05
0.000112086
0.000107184
0.000109071
8.7696e-05
7.09225e-05
7.09151e-05
0.000114848
7.10561e-05
7.10544e-05
8.79932e-05
4.98179e-05
8.77215e-05
4.98238e-05
2.35542e-05
2.3557e-05
8.79904e-05
4.98126e-05
8.77169e-05
4.98185e-05
0.000108973
0.000108973
0.000108977
0.000109523
0.000109519
0.000109519
0.000109523
0.000109746
8.81793e-05
0.000110756
0.000115052
0.000108942
8.85175e-05
0.000111338
2.35534e-05
2.35561e-05
0.000109756
0.000110759
8.81862e-05
0.000115056
0.000108941
0.000111347
8.85199e-05
7.1283e-05
7.12753e-05
0.000117533
7.14134e-05
7.14117e-05
8.85763e-05
4.98396e-05
8.83068e-05
4.98459e-05
2.35592e-05
2.35624e-05
8.85729e-05
4.98346e-05
8.83057e-05
4.98411e-05
0.000109741
0.000109742
0.000109747
0.000110532
0.000110528
0.000110529
0.000110534
0.000111442
8.89794e-05
0.000113198
0.000118097
0.000110655
8.93118e-05
0.000113834
2.35583e-05
2.35612e-05
0.000111449
0.000113202
8.89822e-05
0.000118102
0.000110658
0.000113844
8.93116e-05
7.16314e-05
7.16232e-05
0.000120237
7.17584e-05
7.17568e-05
8.91516e-05
4.98627e-05
8.8885e-05
4.98698e-05
2.3565e-05
2.35683e-05
8.91456e-05
4.98579e-05
8.88827e-05
4.98649e-05
0.000110829
0.000110831
0.000110836
0.00011185
0.000111846
0.000111848
0.000111853
0.000113094
8.97425e-05
0.000115842
0.000121206
0.000112324
9.00777e-05
0.000116524
2.35639e-05
2.35671e-05
0.000113098
0.000115847
8.9757e-05
0.000121212
0.000112331
0.000116535
9.00733e-05
7.19684e-05
7.19592e-05
0.000122846
7.20918e-05
7.20903e-05
8.97111e-05
4.98873e-05
8.94502e-05
4.98948e-05
2.35713e-05
2.35748e-05
8.97066e-05
4.98824e-05
8.94481e-05
4.98898e-05
0.000112221
0.000112224
0.000112229
0.000113459
0.000113454
0.000113457
0.000113463
0.000114698
9.04933e-05
0.000118662
0.000124358
0.000113945
9.08068e-05
0.000119387
2.35702e-05
2.35737e-05
0.000114704
0.00011867
9.04929e-05
0.000124366
0.000113957
0.000119401
9.08163e-05
7.2294e-05
7.22846e-05
0.000125493
7.24153e-05
7.24122e-05
9.02591e-05
4.99095e-05
9.00019e-05
4.99239e-05
2.35782e-05
2.3582e-05
9.02497e-05
4.99081e-05
9.00041e-05
4.99159e-05
0.000113899
0.000113903
0.000113908
0.000115339
0.000115333
0.000115338
0.000115344
0.000116259
9.12113e-05
0.000121653
0.000127535
0.000115529
9.15184e-05
0.000122418
2.35772e-05
2.35809e-05
0.000116264
0.000121661
9.12128e-05
0.000127545
0.000115538
0.000122431
9.1525e-05
7.26082e-05
7.26002e-05
0.000128146
7.27269e-05
7.27235e-05
9.0799e-05
4.99364e-05
9.05456e-05
4.9951e-05
2.35858e-05
2.35897e-05
9.07817e-05
4.99348e-05
9.05487e-05
4.99429e-05
0.000115843
0.000115849
0.000115854
0.00011747
0.000117463
0.00011747
0.000117476
0.000117772
9.19013e-05
0.000124796
0.000130722
0.000117062
9.22066e-05
0.000125595
2.35848e-05
2.35887e-05
0.00011778
0.000124805
9.19107e-05
0.000130734
0.000117071
0.00012561
9.22114e-05
7.29147e-05
7.29045e-05
0.000130677
7.3026e-05
7.30274e-05
9.13222e-05
4.99641e-05
9.10711e-05
4.99789e-05
2.35939e-05
2.35981e-05
9.13034e-05
4.99623e-05
9.10779e-05
4.99708e-05
0.000118033
0.00011804
0.000118046
0.000119831
0.000119823
0.000119832
0.000119837
0.000119234
9.25754e-05
0.000128067
0.000133906
0.000118548
9.28787e-05
0.000128893
2.35929e-05
2.3597e-05
0.000119242
0.000128078
9.25807e-05
0.00013392
0.00011856
0.000128911
9.28782e-05
7.32096e-05
7.3199e-05
0.000133219
7.3316e-05
7.33166e-05
9.18232e-05
4.99925e-05
9.15833e-05
5.00077e-05
2.36025e-05
2.36069e-05
9.18136e-05
4.99905e-05
9.15911e-05
4.99994e-05
0.000120446
0.000120456
0.000120461
0.000120645
9.32201e-05
0.000131437
0.000137076
0.000119982
9.35124e-05
0.000132286
2.36016e-05
2.36058e-05
0.000120653
0.000131452
9.32329e-05
0.000137092
0.000119998
0.000132307
9.35195e-05
7.34944e-05
7.34833e-05
0.000135653
7.35961e-05
7.35974e-05
2.36183e-05
2.36152e-05
2.36161e-05
2.36131e-05
6.2066e-05
6.20656e-05
8.18874e-05
6.23663e-05
6.23632e-05
2.36096e-05
2.36124e-05
2.36074e-05
2.36103e-05
8.20373e-05
6.27972e-05
6.27922e-05
6.25138e-05
6.25138e-05
7.20226e-05
4.95701e-05
4.95831e-05
7.12188e-05
6.99226e-05
6.7639e-05
0.000122009
9.79502e-05
6.824e-05
0.000121039
6.89348e-05
6.99399e-05
6.76328e-05
0.000122007
9.79373e-05
6.82379e-05
0.000121037
6.89272e-05
7.21621e-05
4.95982e-05
4.95859e-05
7.29421e-05
7.21705e-05
4.95918e-05
4.95796e-05
7.29247e-05
7.04167e-05
9.73532e-05
6.91353e-05
0.000119171
6.85524e-05
0.000120109
7.14223e-05
7.04079e-05
9.73407e-05
6.913e-05
0.000119168
6.85434e-05
0.000120108
7.14263e-05
6.20565e-05
6.20443e-05
8.18639e-05
6.23546e-05
6.23687e-05
2.36176e-05
2.36146e-05
2.36073e-05
2.36102e-05
8.20031e-05
6.27875e-05
6.27971e-05
6.25033e-05
6.24982e-05
2.36089e-05
2.36117e-05
6.99304e-05
6.76484e-05
0.000122016
9.7971e-05
6.82282e-05
0.000121046
6.89171e-05
7.20346e-05
4.9567e-05
4.95799e-05
7.1206e-05
6.99466e-05
0.000122
6.76155e-05
9.7936e-05
0.000121029
6.82504e-05
6.8904e-05
7.21604e-05
4.95926e-05
4.95806e-05
7.29399e-05
7.04106e-05
9.73754e-05
6.91249e-05
0.000119178
6.85593e-05
0.000120117
7.14253e-05
7.21565e-05
4.95887e-05
4.95765e-05
7.29385e-05
7.03944e-05
9.73399e-05
0.000119161
6.91478e-05
0.000120099
6.85274e-05
7.14404e-05
7.20102e-05
4.95717e-05
4.95851e-05
7.12167e-05
6.9952e-05
0.000122017
6.76324e-05
9.7951e-05
0.000121045
6.82334e-05
6.88993e-05
7.20119e-05
4.95677e-05
4.95808e-05
7.12184e-05
7.03974e-05
9.73761e-05
6.9168e-05
0.000119173
6.85151e-05
0.000120126
7.14138e-05
7.21657e-05
4.95938e-05
4.95812e-05
7.29157e-05
7.03855e-05
9.73546e-05
0.000119176
6.91212e-05
0.000120117
6.85442e-05
7.144e-05
7.21732e-05
4.95895e-05
4.95772e-05
7.29154e-05
6.20406e-05
6.20481e-05
8.18396e-05
6.23577e-05
6.23736e-05
2.36173e-05
2.36143e-05
2.36064e-05
2.36093e-05
8.20123e-05
6.27873e-05
6.28103e-05
6.24942e-05
6.24973e-05
2.36086e-05
2.36115e-05
6.9914e-05
0.000122007
6.76092e-05
9.79617e-05
0.000121042
6.8263e-05
6.89316e-05
7.20171e-05
4.95719e-05
4.95848e-05
7.12195e-05
7.20137e-05
4.95663e-05
4.95792e-05
7.12181e-05
7.04068e-05
9.73721e-05
0.000119168
6.91366e-05
0.000120103
6.85482e-05
7.14202e-05
7.04189e-05
9.73644e-05
0.000119173
6.91579e-05
0.000120107
6.85193e-05
7.14056e-05
7.2168e-05
4.95936e-05
4.95814e-05
7.29199e-05
7.21667e-05
4.9588e-05
4.95758e-05
7.2917e-05
2.36159e-05
2.36128e-05
2.36148e-05
2.36118e-05
8.17481e-05
6.27899e-05
6.27916e-05
6.25041e-05
6.2489e-05
2.36072e-05
2.36101e-05
2.36061e-05
2.3609e-05
2.36069e-05
2.36041e-05
2.36047e-05
2.3602e-05
6.29344e-05
6.29329e-05
8.20759e-05
6.32126e-05
6.32092e-05
2.35989e-05
2.36015e-05
2.35968e-05
2.35994e-05
8.23028e-05
6.3611e-05
6.36074e-05
6.33459e-05
6.33432e-05
7.37704e-05
4.95888e-05
7.30603e-05
4.96003e-05
7.29142e-05
6.94408e-05
0.000118278
9.57474e-05
7.19115e-05
7.00069e-05
0.000117373
7.29235e-05
6.94345e-05
0.000118276
9.57345e-05
7.19045e-05
6.99997e-05
0.000117371
7.38836e-05
4.96142e-05
4.96032e-05
7.45633e-05
7.38928e-05
4.9608e-05
4.9597e-05
7.45612e-05
7.34133e-05
9.52781e-05
7.085e-05
0.000115651
7.03015e-05
0.00011652
7.44047e-05
7.34016e-05
9.52678e-05
7.08463e-05
0.000115649
7.02968e-05
0.000116518
7.44183e-05
6.29202e-05
6.29264e-05
8.20079e-05
6.32073e-05
6.32187e-05
2.36061e-05
2.36034e-05
2.35967e-05
2.35993e-05
8.22943e-05
6.36028e-05
6.36089e-05
6.33405e-05
6.33337e-05
2.35982e-05
2.36008e-05
7.29325e-05
6.94444e-05
0.000118286
9.57677e-05
7.18999e-05
6.99958e-05
0.000117381
7.37834e-05
4.95855e-05
7.30456e-05
4.95971e-05
7.29263e-05
0.000118268
6.94156e-05
9.57339e-05
7.18892e-05
0.000117364
7.00182e-05
7.38808e-05
4.96086e-05
4.95978e-05
7.4579e-05
7.33888e-05
9.52993e-05
7.08403e-05
0.000115659
7.0306e-05
0.000116528
7.44258e-05
7.38786e-05
4.96048e-05
4.95937e-05
7.45747e-05
7.33961e-05
9.52677e-05
0.000115643
7.08642e-05
0.000116511
7.02755e-05
7.4414e-05
7.37617e-05
4.95903e-05
7.30537e-05
4.96023e-05
7.29244e-05
0.000118285
6.94354e-05
9.57495e-05
7.18861e-05
0.000117378
6.99879e-05
7.37607e-05
4.95865e-05
7.30632e-05
4.9598e-05
7.33876e-05
9.53009e-05
7.08774e-05
0.000115654
7.02669e-05
0.000116538
7.43848e-05
7.38849e-05
4.96097e-05
4.95984e-05
7.45378e-05
7.33945e-05
9.52819e-05
0.000115657
7.08325e-05
0.000116527
7.02998e-05
7.44063e-05
7.3896e-05
4.96057e-05
4.95947e-05
7.45518e-05
6.2921e-05
6.2923e-05
8.19919e-05
6.32043e-05
6.32242e-05
2.3606e-05
2.36032e-05
2.35958e-05
2.35984e-05
8.23083e-05
6.36094e-05
6.36114e-05
6.33315e-05
6.33349e-05
2.3598e-05
2.36006e-05
7.29077e-05
0.000118275
6.94066e-05
9.5759e-05
7.19093e-05
0.000117374
7.00225e-05
7.37645e-05
4.95905e-05
7.30559e-05
4.96021e-05
7.37619e-05
4.95848e-05
7.30543e-05
4.95964e-05
7.33958e-05
9.5299e-05
0.000115651
7.08522e-05
0.000116515
7.02971e-05
7.44169e-05
7.3403e-05
9.52906e-05
0.000115651
7.08691e-05
0.000116516
7.02704e-05
7.43974e-05
7.38872e-05
4.96097e-05
4.95986e-05
7.45559e-05
7.38854e-05
4.96041e-05
4.9593e-05
7.45535e-05
2.36045e-05
2.36018e-05
2.36034e-05
2.36007e-05
8.20416e-05
6.36025e-05
6.36065e-05
6.33417e-05
6.33281e-05
2.35966e-05
2.35992e-05
2.35955e-05
2.35981e-05
2.35964e-05
2.3594e-05
2.35943e-05
2.35919e-05
6.37369e-05
6.3736e-05
8.27412e-05
6.39977e-05
6.39926e-05
2.35894e-05
2.35916e-05
2.35872e-05
2.35895e-05
8.30754e-05
6.43629e-05
6.43624e-05
6.4119e-05
6.41137e-05
7.53049e-05
4.96049e-05
7.46727e-05
4.96154e-05
7.58935e-05
7.11367e-05
0.000114843
9.40635e-05
7.49005e-05
7.16681e-05
0.00011404
7.58904e-05
7.11291e-05
0.000114841
9.40526e-05
7.48952e-05
7.1664e-05
0.000114037
7.54075e-05
4.96277e-05
4.96181e-05
7.60064e-05
7.54051e-05
4.96211e-05
4.9612e-05
7.60045e-05
7.63788e-05
9.37241e-05
7.24642e-05
0.000112468
7.19514e-05
0.000113236
7.73653e-05
7.63748e-05
9.37144e-05
7.24593e-05
0.000112465
7.19441e-05
0.000113233
7.73655e-05
6.37233e-05
6.37288e-05
8.27288e-05
6.39858e-05
6.39986e-05
2.35957e-05
2.35933e-05
2.35871e-05
2.35894e-05
8.30796e-05
6.43538e-05
6.43578e-05
6.41076e-05
6.41042e-05
2.35886e-05
2.35909e-05
7.59071e-05
7.114e-05
0.00011485
9.40832e-05
7.48772e-05
7.16615e-05
0.000114047
7.53175e-05
4.96015e-05
7.46578e-05
4.96121e-05
7.58982e-05
0.000114833
7.11096e-05
9.40524e-05
7.48853e-05
0.000114032
7.16831e-05
7.53928e-05
4.96223e-05
4.96128e-05
7.60218e-05
7.63612e-05
9.37442e-05
7.24571e-05
0.000112475
7.19526e-05
0.000113243
7.7379e-05
7.53907e-05
4.96184e-05
4.96087e-05
7.60173e-05
7.63664e-05
9.37147e-05
0.00011246
7.248e-05
0.000113227
7.19213e-05
7.73645e-05
7.528e-05
4.96062e-05
7.46754e-05
4.96166e-05
7.58949e-05
0.00011485
7.11339e-05
9.40667e-05
7.48898e-05
0.000114046
7.16609e-05
7.52965e-05
4.96025e-05
7.46755e-05
4.9613e-05
7.63869e-05
9.37447e-05
7.24943e-05
0.000112472
7.19172e-05
0.000113253
7.73453e-05
7.54085e-05
4.96231e-05
4.96133e-05
7.59814e-05
7.63664e-05
9.37292e-05
0.000112474
7.24568e-05
0.000113242
7.19409e-05
7.7367e-05
7.54074e-05
4.96193e-05
4.96097e-05
7.59967e-05
6.3722e-05
6.37318e-05
8.27265e-05
6.39879e-05
6.39978e-05
2.35955e-05
2.35931e-05
2.35862e-05
2.35885e-05
8.31171e-05
6.43549e-05
6.43678e-05
6.41015e-05
6.41118e-05
2.35884e-05
2.35907e-05
7.5889e-05
0.000114838
7.11045e-05
9.40754e-05
7.48907e-05
0.00011404
7.16849e-05
7.52991e-05
4.96065e-05
7.46649e-05
4.9617e-05
7.5297e-05
4.96008e-05
7.46629e-05
4.96113e-05
7.63649e-05
9.37441e-05
0.000112471
7.24653e-05
0.000113234
7.19434e-05
7.73394e-05
7.63659e-05
9.37368e-05
0.000112472
7.2477e-05
0.000113233
7.192e-05
7.73568e-05
7.53964e-05
4.96232e-05
4.96136e-05
7.59994e-05
7.53941e-05
4.96176e-05
4.96081e-05
7.59977e-05
2.35941e-05
2.35917e-05
2.3593e-05
2.35906e-05
8.27989e-05
6.43563e-05
6.43616e-05
6.4111e-05
6.40994e-05
2.3587e-05
2.35893e-05
2.35859e-05
2.35882e-05
2.3587e-05
2.35849e-05
2.35849e-05
2.35828e-05
6.44787e-05
6.44781e-05
8.38325e-05
6.47183e-05
6.47142e-05
2.35807e-05
2.35827e-05
2.35786e-05
2.35805e-05
8.42674e-05
6.50589e-05
6.50538e-05
6.48269e-05
6.48254e-05
7.66652e-05
4.96187e-05
7.60952e-05
4.96281e-05
7.88073e-05
7.27363e-05
0.000111727
9.28951e-05
7.78392e-05
7.32394e-05
0.000111005
7.88111e-05
7.273e-05
0.000111724
9.28852e-05
7.78357e-05
7.32322e-05
0.000111002
7.67494e-05
4.96396e-05
4.96312e-05
7.72934e-05
7.67465e-05
4.96334e-05
4.96251e-05
7.72907e-05
7.92832e-05
9.26841e-05
7.39902e-05
0.000109635
7.35013e-05
0.00011031
8.02371e-05
7.92785e-05
9.26735e-05
7.39804e-05
0.000109632
7.34955e-05
0.000110307
8.02351e-05
6.44677e-05
6.44683e-05
8.38226e-05
6.47084e-05
6.47148e-05
2.35862e-05
2.35841e-05
2.35785e-05
2.35804e-05
8.42655e-05
6.50483e-05
6.50528e-05
6.48177e-05
6.48162e-05
2.35799e-05
2.35818e-05
7.88217e-05
7.27378e-05
0.000111733
9.29135e-05
7.78202e-05
7.32294e-05
0.000111012
7.66771e-05
4.96158e-05
7.60802e-05
4.96244e-05
7.88077e-05
0.000111719
7.27077e-05
9.28855e-05
7.78265e-05
0.000110998
7.32531e-05
7.67347e-05
4.9634e-05
4.96259e-05
7.73074e-05
7.92656e-05
9.27018e-05
7.39801e-05
0.000109642
7.35027e-05
0.000110316
8.02524e-05
7.67321e-05
4.96302e-05
4.96218e-05
7.73024e-05
7.92718e-05
9.26744e-05
0.000109628
7.40001e-05
0.000110302
7.34731e-05
8.0235e-05
7.6643e-05
4.96206e-05
7.60975e-05
4.96294e-05
7.8826e-05
0.000111734
7.27269e-05
9.29005e-05
7.78224e-05
0.00011101
7.32329e-05
7.66581e-05
4.96172e-05
7.60968e-05
4.9625e-05
7.92783e-05
9.27017e-05
7.40076e-05
0.000109638
7.34658e-05
0.000110326
8.02064e-05
7.67472e-05
4.96348e-05
4.96266e-05
7.72698e-05
7.92575e-05
9.26895e-05
0.000109641
7.39817e-05
0.000110317
7.34922e-05
8.02484e-05
7.67476e-05
4.9631e-05
4.96232e-05
7.72843e-05
6.44654e-05
6.44708e-05
8.38254e-05
6.47133e-05
6.47204e-05
2.35861e-05
2.3584e-05
2.35776e-05
2.35795e-05
8.42812e-05
6.50515e-05
6.50592e-05
6.48127e-05
6.48206e-05
2.35798e-05
2.35817e-05
7.8804e-05
0.000111725
7.27074e-05
9.29092e-05
7.78252e-05
0.00011101
7.32538e-05
7.666e-05
4.96211e-05
7.60848e-05
4.96293e-05
7.66583e-05
4.96151e-05
7.60822e-05
4.96239e-05
7.92809e-05
9.27019e-05
0.000109642
7.39897e-05
0.000110309
7.34962e-05
8.02066e-05
7.92658e-05
9.26972e-05
0.000109641
7.40018e-05
0.000110309
7.34718e-05
8.02329e-05
7.67351e-05
4.96352e-05
4.96267e-05
7.7287e-05
7.67326e-05
4.96294e-05
4.96215e-05
7.72854e-05
2.35847e-05
2.35826e-05
2.35836e-05
2.35814e-05
8.40546e-05
6.50499e-05
6.50491e-05
6.48203e-05
6.48125e-05
2.35784e-05
2.35804e-05
2.35772e-05
2.35792e-05
2.35785e-05
2.35767e-05
2.35764e-05
2.35746e-05
6.51643e-05
6.51607e-05
8.53021e-05
6.53874e-05
6.53826e-05
2.3573e-05
2.35746e-05
2.35708e-05
2.35725e-05
8.58205e-05
6.57044e-05
6.56991e-05
6.54878e-05
6.54847e-05
7.78837e-05