/*--------------------------------*- C++ -*----------------------------------*\
| =========                 |                                                 |
| \\      /  F ield         | OpenFOAM: The Open Source CFD Toolbox           |
|  \\    /   O peration     | Version:  2312                                  |
|   \\  /    A nd           | Website:  www.openfoam.com                      |
|    \\/     M anipulation  |                                                 |
\*---------------------------------------------------------------------------*/
FoamFile
{
    version     2.0;
    format      ascii;
    arch        "LSB;label=32;scalar=64";
    class       surfaceScalarField;
    location    "700";
    object      phi;
}
// * * * * * * * * * * * * * * * * * * * * * * * * * * * * * * * * * * * * * //

dimensions      [0 3 -1 0 0 0 0];

oriented        oriented;

internalField   nonuniform List<scalar> 
123680
(
-8.18344e-07
-8.19467e-07
4.33478e-07
4.33845e-07
0.00115006
-0.00114929
-1.50289e-06
8.19239e-07
3.99648e-07
0.00113925
-4.98943e-07
1.12935e-06
1.4708e-07
7.4723e-07
-5.44817e-07
8.45771e-08
-1.22943e-06
-0.0011388
-1.50006e-06
8.19586e-07
4.05046e-07
0.00113912
-4.96122e-07
1.12668e-06
1.44155e-07
7.47165e-07
-5.4501e-07
8.46653e-08
-1.22962e-06
-0.00113867
1.53174e-06
1.49472e-06
-4.76258e-07
-4.79284e-07
0.000274438
-0.000276509
-7.98817e-07
-7.99686e-07
-0.00115233
4.25735e-07
4.26302e-07
0.00115308
-0.0011405
-1.49429e-06
7.99478e-07
3.90372e-07
0.0011409
-4.87372e-07
1.13506e-06
1.53541e-07
7.54507e-07
-5.30088e-07
-1.2137e-06
9.27174e-08
-0.00114038
-1.49149e-06
7.99626e-07
3.95764e-07
0.00114077
-4.84558e-07
1.13233e-06
1.5067e-07
7.54537e-07
-5.30182e-07
-1.21382e-06
9.28852e-08
-0.000276524
1.52313e-06
1.4862e-06
-4.63629e-07
-4.66499e-07
0.000274445
-7.79156e-07
-7.79731e-07
-0.00115528
4.18216e-07
4.18881e-07
0.00115601
-0.00114201
-1.48485e-06
7.79738e-07
3.80604e-07
0.00114236
-4.75842e-07
1.14045e-06
1.59924e-07
7.6177e-07
-5.1546e-07
-1.19767e-06
1.00869e-07
-0.00114188
-1.48208e-06
7.79596e-07
3.85972e-07
0.00114222
-4.72994e-07
1.13767e-06
1.5711e-07
7.61852e-07
-5.15446e-07
-1.19769e-06
1.01083e-07
-0.000276478
1.5136e-06
1.4767e-06
-4.50581e-07
-4.53376e-07
0.000274392
-7.58454e-07
-7.5885e-07
-0.00115813
4.10036e-07
4.10822e-07
0.00115883
-0.00114331
-1.47465e-06
7.58786e-07
3.71432e-07
0.00114361
-4.64231e-07
1.14567e-06
1.66144e-07
7.69059e-07
-5.01128e-07
-1.18145e-06
1.08994e-07
-0.00114318
-1.47186e-06
7.5857e-07
3.76826e-07
0.00114348
-4.61448e-07
1.14294e-06
1.63281e-07
7.69179e-07
-5.01099e-07
-1.18145e-06
1.09174e-07
-0.000276379
1.5034e-06
1.46652e-06
-4.37476e-07
-4.40241e-07
0.000274286
-7.37134e-07
-7.375e-07
-0.00116088
4.01731e-07
4.02534e-07
0.00116155
-0.00114442
-1.46371e-06
7.37472e-07
3.61909e-07
0.00114468
-4.52849e-07
1.15083e-06
1.72038e-07
7.76286e-07
-4.86896e-07
-1.16518e-06
1.17025e-07
-0.00114429
-1.46094e-06
7.37068e-07
3.67453e-07
0.00114454
-4.50018e-07
1.1481e-06
1.69251e-07
7.76436e-07
-4.86865e-07
-1.16515e-06
1.17231e-07
-0.000276232
1.49252e-06
1.45556e-06
-4.24317e-07
-4.27129e-07
0.000274135
-7.15047e-07
-7.15298e-07
-0.00116352
3.93035e-07
3.93837e-07
0.00116417
-0.00114534
-1.45219e-06
7.1528e-07
3.52225e-07
0.00114555
-4.41636e-07
1.1561e-06
1.77882e-07
7.83416e-07
-4.72993e-07
-1.14907e-06
1.24895e-07
-0.00114521
-1.44937e-06
7.1496e-07
3.57703e-07
0.00114541
-4.38805e-07
1.1534e-06
1.75061e-07
7.8354e-07
-4.72968e-07
-1.14904e-06
1.25093e-07
-0.000276047
1.48103e-06
1.44402e-06
-4.11245e-07
-4.14097e-07
0.000273947
-6.92378e-07
-6.92655e-07
-0.00116605
3.84253e-07
3.84998e-07
0.00116667
-0.00114608
-1.44015e-06
6.92457e-07
3.41432e-07
0.00114624
-4.30662e-07
1.16148e-06
1.83746e-07
7.90526e-07
-4.59447e-07
-1.13307e-06
1.32606e-07
-0.00114595
-1.43737e-06
6.92345e-07
3.47216e-07
0.0011461
-4.27808e-07
1.15876e-06
1.80927e-07
7.9052e-07
-4.59445e-07
-1.13321e-06
1.32777e-07
-0.000275831
1.46903e-06
1.43195e-06
-3.98295e-07
-4.01244e-07
0.000273729
-6.69046e-07
-6.69278e-07
-0.00116848
3.75214e-07
3.75843e-07
0.00116906
-0.00114663
-1.4279e-06
6.69139e-07
3.30079e-07
0.00114675
-4.19828e-07
1.16681e-06
1.8952e-07
7.97383e-07
-4.46188e-07
-1.1177e-06
1.40256e-07
-0.0011465
-1.4251e-06
6.69077e-07
3.35701e-07
0.00114662
-4.16974e-07
1.16413e-06
1.86752e-07
7.97345e-07
-4.46263e-07
-1.11761e-06
1.40375e-07
-0.000275591
1.45683e-06
1.41969e-06
-3.85745e-07
-3.88715e-07
0.000273489
-6.44951e-07
-6.45407e-07
-0.00117078
3.65902e-07
3.66477e-07
0.00117134
-0.00114702
-1.41552e-06
6.45159e-07
3.18046e-07
0.0011471
-4.09239e-07
1.17215e-06
1.95186e-07
8.03879e-07
-4.33308e-07
-1.10261e-06
1.47751e-07
-0.00114689
-1.41269e-06
6.4522e-07
3.23645e-07
0.00114697
-4.06412e-07
1.16948e-06
1.92412e-07
8.04043e-07
-4.3344e-07
-1.10265e-06
1.47816e-07
-0.000275336
1.44455e-06
1.40737e-06
-3.73625e-07
-3.76604e-07
0.000273234
-6.20399e-07
-6.20899e-07
-0.00117297
3.50727e-07
3.56893e-07
0.0011735
-0.00114726
-1.40323e-06
6.20584e-07
3.05112e-07
0.0011473
-3.98984e-07
1.17742e-06
2.00703e-07
8.10513e-07
-4.20891e-07
-1.08788e-06
1.55004e-07
-0.00114713
-1.40043e-06
6.20724e-07
3.10773e-07
0.00114716
-3.96174e-07
1.17476e-06
1.97919e-07
8.10515e-07
-4.20945e-07
-1.08802e-06
1.55115e-07
-0.000275071
1.43221e-06
1.39505e-06
-3.61946e-07
-3.64875e-07
0.000272971
-5.95451e-07
-5.96012e-07
-0.00117503
3.41222e-07
3.47323e-07
0.00117554
-0.00114735
-1.39107e-06
5.95705e-07
2.91498e-07
0.00114736
-3.88989e-07
1.18257e-06
2.06108e-07
8.16662e-07
-4.08863e-07
-1.07382e-06
1.62057e-07
-0.00114722
-1.3883e-06
5.958e-07
2.971e-07
0.00114722
-3.86186e-07
1.17987e-06
2.03296e-07
8.16725e-07
-4.089e-07
-1.07391e-06
1.6221e-07
-0.000274801
1.42002e-06
1.38291e-06
-3.50731e-07
-3.53645e-07
0.000272702
-5.70265e-07
-5.70867e-07
-0.00117698
3.3176e-07
3.37884e-07
0.00117745
-0.00114731
-1.37919e-06
5.70547e-07
2.76983e-07
0.00114729
-3.79346e-07
1.18747e-06
2.11338e-07
8.22674e-07
-3.97279e-07
-1.06032e-06
1.68893e-07
-0.00114718
-1.37646e-06
5.70539e-07
2.82725e-07
0.00114715
-3.76553e-07
1.18483e-06
2.08522e-07
8.22751e-07
-3.9736e-07
-1.06042e-06
1.69026e-07
-0.00027453
1.4081e-06
1.37105e-06
-3.40041e-07
-3.42917e-07
0.000272434
-5.44917e-07
-5.45511e-07
-0.00117879
3.22359e-07
3.28456e-07
0.00117923
-0.00114716
-1.36769e-06
5.4519e-07
2.61912e-07
0.00114712
-3.70031e-07
1.19213e-06
2.16405e-07
8.28375e-07
-3.86187e-07
-1.0474e-06
1.75474e-07
-0.00114703
-1.36493e-06
5.45173e-07
2.67562e-07
0.00114698
-3.67211e-07
1.18947e-06
2.13617e-07
8.28442e-07
-3.86231e-07
-1.04746e-06
1.75583e-07
-0.000274262
1.39663e-06
1.35958e-06
-3.29914e-07
-3.328e-07
0.000272169
-5.19413e-07
-5.19927e-07
-0.00118048
3.12921e-07
3.1907e-07
0.00118088
-0.00114691
-1.35656e-06
5.19588e-07
2.46206e-07
0.00114684
-3.61065e-07
1.19665e-06
2.2126e-07
8.3381e-07
-3.75546e-07
-1.03508e-06
1.81761e-07
-0.00114678
-1.35382e-06
5.19645e-07
2.51802e-07
0.0011467
-3.58242e-07
1.19389e-06
2.18523e-07
8.3392e-07
-3.75626e-07
-1.03504e-06
1.81841e-07
-0.000273999
1.3855e-06
1.34844e-06
-3.20258e-07
-3.23174e-07
0.000271908
-4.93744e-07
-4.94238e-07
-0.00118203
3.03479e-07
3.09625e-07
0.00118241
-0.00114657
-1.3459e-06
4.93884e-07
2.30047e-07
0.00114648
-3.52445e-07
1.20079e-06
2.25934e-07
8.39094e-07
-3.65395e-07
-1.0233e-06
1.87772e-07
-0.00114644
-1.3431e-06
4.93945e-07
2.35647e-07
0.00114635
-3.49636e-07
1.19815e-06
2.2318e-07
8.39152e-07
-3.65478e-07
-1.02332e-06
1.87836e-07
-0.000273742
1.3748e-06
1.33776e-06
-3.11134e-07
-3.14064e-07
0.000271654
-4.67896e-07
-4.68403e-07
-0.00118346
2.93862e-07
3.00048e-07
0.0011838
-0.00114616
-1.3356e-06
4.68073e-07
2.13622e-07
0.00114606
-3.44207e-07
1.20477e-06
2.30367e-07
8.44172e-07
-3.55723e-07
-1.01206e-06
1.93416e-07
-0.00114603
-1.33285e-06
4.68132e-07
2.19285e-07
0.00114592
-3.41416e-07
1.20213e-06
2.27599e-07
8.44136e-07
-3.55754e-07
-1.01211e-06
1.93482e-07
-0.000273492
1.36458e-06
1.32754e-06
-3.02544e-07
-3.05462e-07
0.000271408
-4.42032e-07
-4.42394e-07
-0.00118476
2.84051e-07
2.90237e-07
0.00118507
-0.00114569
-1.32582e-06
4.42266e-07
1.97114e-07
0.00114557
-3.36341e-07
1.20837e-06
2.34588e-07
8.48879e-07
-3.465e-07
-1.00141e-06
1.988e-07
-0.00114556
-1.32306e-06
4.42149e-07
2.02859e-07
0.00114543
-3.33588e-07
1.20575e-06
2.31776e-07
8.48854e-07
-3.46545e-07
-1.0015e-06
1.98928e-07
-0.000273252
1.35476e-06
1.31775e-06
-2.94412e-07
-2.97308e-07
0.000271171
-4.16035e-07
-4.16368e-07
-0.00118593
2.79774e-07
2.80192e-07
0.0011862
-0.00114518
-1.31647e-06
4.1631e-07
1.80756e-07
0.00114505
-3.28908e-07
1.21186e-06
2.38538e-07
8.53268e-07
-3.37764e-07
-9.91434e-07
2.03935e-07
-0.00114504
-1.31377e-06
4.16185e-07
1.86585e-07
0.00114491
-3.26175e-07
1.20912e-06
2.35713e-07
8.53281e-07
-3.37744e-07
-9.91417e-07
2.0408e-07
-0.00027302
1.34539e-06
1.30844e-06
-2.86771e-07
-2.89616e-07
0.000270943
-3.90223e-07
-3.90281e-07
-0.00118697
2.69426e-07
2.69896e-07
0.00118721
-0.00114462
-1.30765e-06
3.90396e-07
1.64737e-07
0.00114448
-3.21875e-07
1.21503e-06
2.4216e-07
8.5746e-07
-3.29441e-07
-9.81871e-07
2.08745e-07
-0.00114449
-1.30498e-06
3.90171e-07
1.70551e-07
0.00114434
-3.19177e-07
1.21228e-06
2.39347e-07
8.57505e-07
-3.29366e-07
-9.81826e-07
2.08966e-07
-0.000272798
1.33656e-06
1.29968e-06
-2.79643e-07
-2.8244e-07
0.000270724
-3.64213e-07
-3.64337e-07
-0.00118789
2.58727e-07
2.59201e-07
0.0011881
-0.00114404
-1.29932e-06
3.64431e-07
1.49027e-07
0.0011439
-3.15196e-07
1.21786e-06
2.45594e-07
8.61458e-07
-3.21426e-07
-9.72766e-07
2.1339e-07
-0.0011439
-1.29667e-06
3.64169e-07
1.54827e-07
0.00114375
-3.12498e-07
1.2151e-06
2.42774e-07
8.61554e-07
-3.21375e-07
-9.72715e-07
2.13603e-07
-0.000272586
1.3282e-06
1.29133e-06
-2.7292e-07
-2.7571e-07
0.000270515
-3.38396e-07
-3.38533e-07
-0.00118869
2.47682e-07
2.48083e-07
0.00118887
-0.00114344
-1.29146e-06
3.38601e-07
1.33868e-07
0.00114329
-3.08895e-07
1.22045e-06
2.48776e-07
8.65236e-07
-3.13866e-07
-9.64187e-07
2.17762e-07
-0.0011433
-1.2888e-06
3.38298e-07
1.39736e-07
0.00114315
-3.06243e-07
1.21774e-06
2.45901e-07
8.65348e-07
-3.13803e-07
-9.6411e-07
2.17984e-07
-0.000272383
1.32025e-06
1.2834e-06
-2.66589e-07
-2.69379e-07
0.000270316
-3.12737e-07
-3.1296e-07
-0.00118937
2.36225e-07
2.36577e-07
0.00118952
-0.00114283
-1.28404e-06
3.12822e-07
1.1932e-07
0.00114268
-3.03022e-07
1.22285e-06
2.51673e-07
8.68847e-07
-3.06634e-07
-9.55987e-07
2.21912e-07
-0.00114269
-1.2814e-06
3.12618e-07
1.25279e-07
0.00114254
-3.00378e-07
1.22012e-06
2.48809e-07
8.68921e-07
-3.06616e-07
-9.55971e-07
2.22088e-07
-0.000272191
1.31284e-06
1.27598e-06
-2.60721e-07
-2.6353e-07
0.000270126
-2.87321e-07
-2.87559e-07
-0.00118994
2.24296e-07
2.24572e-07
0.00119007
-0.00114221
-1.27707e-06
2.87427e-07
1.05528e-07
0.00114207
-2.97515e-07
1.22508e-06
2.54332e-07
8.72183e-07
-2.99813e-07
-9.48319e-07
2.25813e-07
-0.00114208
-1.27441e-06
2.87213e-07
1.11546e-07
0.00114192
-2.94902e-07
1.22225e-06
2.51467e-07
8.72292e-07
-2.99798e-07
-9.48267e-07
2.25964e-07
-0.000272008
1.30587e-06
1.26899e-06
-2.55254e-07
-2.58107e-07
0.000269946
-2.62201e-07
-2.62407e-07
-0.00119041
2.11876e-07
2.12085e-07
0.00119051
-0.0011416
-1.2705e-06
2.62248e-07
9.26026e-08
0.00114146
-2.92403e-07
1.22699e-06
2.56733e-07
8.75385e-07
-2.93352e-07
-9.41051e-07
2.29463e-07
-0.00114147
-1.26789e-06
2.62092e-07
9.85747e-08
0.00114131
-2.89752e-07
1.22423e-06
2.53889e-07
8.75469e-07
-2.93344e-07
-9.40984e-07
2.2963e-07
-0.000271835
1.29933e-06
1.26242e-06
-2.50182e-07
-2.53059e-07
0.000269776
-2.37438e-07
-2.37617e-07
-0.00119077
1.98966e-07
1.99175e-07
0.00119085
-0.001141
-1.2644e-06
2.37397e-07
8.04308e-08
0.00114086
-2.876e-07
1.22877e-06
2.58954e-07
8.78407e-07
-2.87262e-07
-9.34158e-07
2.32946e-07
-0.00114086
-1.26177e-06
2.37278e-07
8.64524e-08
0.00114071
-2.84939e-07
1.226e-06
2.56076e-07
8.78456e-07
-2.87241e-07
-9.34101e-07
2.33079e-07
-0.000271672
1.29325e-06
1.25635e-06
-2.45539e-07
-2.48404e-07
0.000269616
1.54295e-06
1.50305e-06
-4.7638e-07
-4.82038e-07
0.000274497
-0.000276584
-1.1739e-06
-1.13384e-06
0.000276599
-0.000274507
1.05258e-07
1.10648e-07
4.06394e-07
0.0011387
-5.04556e-07
1.16955e-06
1.52805e-07
7.52756e-07
-5.45008e-07
8.4568e-08
-1.2351e-06
-0.00113826
-1.54044e-06
8.18739e-07
4.066e-07
0.00113878
-5.04695e-07
1.16688e-06
1.5265e-07
7.52764e-07
-5.42179e-07
8.14355e-08
-1.23487e-06
-0.00113833
0.00113996
8.03718e-07
-0.00113955
3.99308e-07
-1.53662e-06
1.57688e-07
-4.95876e-07
-1.22335e-06
9.0723e-08
-5.33975e-07
7.58213e-07
1.17117e-06
0.00114003
8.04102e-07
-0.00113962
3.99526e-07
-1.53416e-06
1.5747e-07
-4.96024e-07
-1.22313e-06
8.76352e-08
-5.3112e-07
7.58237e-07
-4.76756e-07
-4.7905e-07
0.000274478
-0.000276565
-1.13366e-06
0.00027658
-0.000274488
1.05369e-07
1.07768e-07
4.04912e-07
0.0011397
-4.99085e-07
1.12951e-06
1.47051e-07
7.52683e-07
-5.44988e-07
8.47599e-08
-1.23496e-06
-0.00113926
-1.5349e-06
8.18241e-07
4.0668e-07
0.00113866
-5.04661e-07
1.16149e-06
1.52821e-07
7.52735e-07
-5.42217e-07
8.15718e-08
-1.23485e-06
-0.00113822
0.00114096
8.04669e-07
-0.00114055
3.98001e-07
-1.49672e-06
1.51911e-07
-4.90441e-07
-1.22319e-06
9.09055e-08
-5.33924e-07
7.58191e-07
1.16576e-06
0.00113991
8.03755e-07
-0.00113951
3.99511e-07
-1.52863e-06
1.57713e-07
-4.95963e-07
-1.22311e-06
8.77327e-08
-5.31014e-07
7.58223e-07
8.18063e-07
4.06387e-07
0.00113828
-5.01548e-07
1.15861e-06
1.50034e-07
7.44621e-07
-5.39195e-07
7.83604e-08
-1.22632e-06
-0.00113783
8.04362e-07
-0.0011401
4.03685e-07
-1.49654e-06
1.51933e-07
-4.90199e-07
-1.21764e-06
9.07118e-08
7.52723e-07
-5.33785e-07
1.16293e-06
0.00113953
8.03175e-07
-0.00113913
3.99129e-07
-1.5254e-06
1.54882e-07
-4.92796e-07
-1.21462e-06
8.45776e-08
-5.28182e-07
7.50059e-07
-4.76799e-07
-4.81695e-07
0.000274463
-0.00027654
-1.13092e-06
0.000276555
-0.000274474
1.05414e-07
1.10646e-07
8.19297e-07
4.0513e-07
0.00113926
-4.99053e-07
1.12114e-06
1.47009e-07
7.49778e-07
-5.44897e-07
8.48916e-08
-1.2319e-06
-0.00113882
8.04637e-07
-0.00113997
3.97993e-07
-1.49375e-06
1.49065e-07
-4.87444e-07
-1.21781e-06
9.08797e-08
7.52711e-07
-5.33847e-07
1.12536e-06
0.00114052
8.04764e-07
-0.00114011
3.97985e-07
-1.48846e-06
1.51755e-07
-4.90419e-07
-1.22013e-06
9.10599e-08
-5.3375e-07
7.55277e-07
-0.000274449
1.05123e-07
1.08105e-07
1.53442e-06
1.49451e-06
-4.63709e-07
-4.69278e-07
0.000274503
-1.17939e-06
-1.13928e-06
0.000276554
-0.000274469
1.1423e-07
1.19684e-07
3.96992e-07
0.00114035
-4.92936e-07
1.1753e-06
1.59311e-07
7.60045e-07
-5.30241e-07
-1.21938e-06
9.27297e-08
-1.53191e-06
7.99124e-07
3.97279e-07
0.00114043
-4.93144e-07
1.17257e-06
1.59082e-07
7.60061e-07
-5.27421e-07
-1.21911e-06
8.96756e-08
0.00114146
7.84176e-07
-0.0011411
3.89508e-07
-1.52733e-06
1.64046e-07
-4.84389e-07
-1.20736e-06
9.88322e-08
-5.1928e-07
7.65462e-07
1.17666e-06
0.00114153
7.843e-07
-0.00114118
3.898e-07
-1.52486e-06
1.63894e-07
-4.84519e-07
-1.20709e-06
9.58301e-08
-5.1639e-07
7.65501e-07
-4.64015e-07
-4.6637e-07
0.000274484
-1.13911e-06
0.000276534
-0.00027445
1.14385e-07
1.16801e-07
3.95615e-07
0.00114135
-4.87448e-07
1.13522e-06
1.53569e-07
7.60022e-07
-5.3018e-07
-1.21918e-06
9.29906e-08
-1.52637e-06
7.98852e-07
3.97033e-07
0.00114031
-4.93126e-07
1.16719e-06
1.59322e-07
7.60049e-07
-5.27394e-07
-1.2191e-06
8.97522e-08
0.00114246
7.84831e-07
-0.0011421
3.88379e-07
-1.48745e-06
1.58291e-07
-4.78966e-07
-1.20713e-06
9.90542e-08
-5.19184e-07
7.65491e-07
1.17129e-06
0.00114141
7.83885e-07
-0.00114106
3.89654e-07
-1.51928e-06
1.64147e-07
-4.84407e-07
-1.20707e-06
9.58714e-08
-5.16363e-07
7.65506e-07
7.98208e-07
3.96881e-07
0.00113993
-4.89911e-07
1.16436e-06
1.56546e-07
7.5187e-07
-5.24492e-07
8.66318e-08
-1.21062e-06
7.84708e-07
-0.00114165
3.93996e-07
-1.48725e-06
1.58356e-07
-4.7873e-07
-1.20166e-06
9.88654e-08
7.59984e-07
-5.19076e-07
1.16843e-06
0.00114103
7.83535e-07
-0.00114068
3.89274e-07
-1.5161e-06
1.61327e-07
-4.81271e-07
-1.19867e-06
9.27446e-08
-5.13458e-07
7.57285e-07
-4.64104e-07
-4.68957e-07
0.00027447
-1.13637e-06
0.000276509
-0.000274436
1.14334e-07
1.19745e-07
7.9972e-07
3.95858e-07
0.00114091
-4.8755e-07
1.12676e-06
1.53408e-07
7.57119e-07
-5.30085e-07
9.30598e-08
-1.21614e-06
7.84684e-07
-0.00114152
3.8827e-07
-1.48449e-06
1.55517e-07
-4.75996e-07
-1.20173e-06
9.91061e-08
7.6004e-07
-5.19092e-07
1.13081e-06
0.00114202
7.84739e-07
-0.00114166
3.88437e-07
-1.4792e-06
1.58158e-07
-4.78941e-07
-1.20403e-06
9.91854e-08
-5.18999e-07
7.62596e-07
-0.00027441
1.14109e-07
1.17165e-07
1.52496e-06
1.48509e-06
-4.5071e-07
-4.56223e-07
0.000274451
-1.18463e-06
-1.14449e-06
0.000276454
-0.000274376
1.228e-07
1.28272e-07
3.87185e-07
0.0011418
-4.81462e-07
1.18071e-06
1.65632e-07
7.67278e-07
-5.15608e-07
-1.20335e-06
1.00808e-07
-1.52245e-06
7.79212e-07
3.87468e-07
0.00114188
-4.81586e-07
1.17799e-06
1.65459e-07
7.67302e-07
-5.1274e-07
-1.20302e-06
9.78238e-08
0.00114276
7.63735e-07
-0.00114246
3.80324e-07
-1.5173e-06
1.70299e-07
-4.72739e-07
-1.19121e-06
1.06805e-07
-5.04935e-07
7.72719e-07
1.18191e-06
0.00114284
7.63795e-07
-0.00114253
3.80525e-07
-1.51478e-06
1.70188e-07
-4.72874e-07
-1.19097e-06
1.03902e-07
-5.02019e-07
7.72726e-07
-4.50978e-07
-4.53301e-07
0.000274431
-1.14437e-06
0.000276435
-0.000274357
1.22977e-07
1.25391e-07
3.86053e-07
0.00114281
-4.76024e-07
1.14058e-06
1.59891e-07
7.67323e-07
-5.15513e-07
-1.20311e-06
1.01103e-07
-1.51685e-06
7.78835e-07
3.87299e-07
0.00114176
-4.81486e-07
1.17261e-06
1.65762e-07
7.67318e-07
-5.12748e-07
-1.20304e-06
9.7877e-08
0.00114377
7.64131e-07
-0.00114346
3.79304e-07
-1.47746e-06
1.64533e-07
-4.67357e-07
-1.19093e-06
1.07127e-07
-5.04771e-07
7.72789e-07
1.17653e-06
0.00114272
7.63378e-07
-0.00114241
3.80271e-07
-1.50927e-06
1.70416e-07
-4.72722e-07
-1.19089e-06
1.03933e-07
-5.01933e-07
7.72792e-07
7.78503e-07
3.8696e-07
0.00114138
-4.7838e-07
1.16982e-06
1.62948e-07
7.59119e-07
-5.09839e-07
9.48222e-08
-1.19464e-06
7.64011e-07
-0.00114301
3.84857e-07
-1.47718e-06
1.64609e-07
-4.67125e-07
-1.18551e-06
1.06982e-07
7.67282e-07
-5.0473e-07
1.17372e-06
0.00114234
7.62894e-07
-0.00114203
3.80013e-07
-1.50605e-06
1.67608e-07
-4.69603e-07
-1.18252e-06
1.00947e-07
-4.99121e-07
7.64568e-07
-4.51117e-07
-4.55844e-07
0.000274417
-1.14159e-06
0.00027641
-0.000274343
1.22927e-07
1.28315e-07
7.79606e-07
3.86161e-07
0.00114237
-4.76055e-07
1.13218e-06
1.59784e-07
7.64425e-07
-5.15351e-07
1.01194e-07
-1.2e-06
7.63896e-07
-0.00114288
3.7905e-07
-1.47451e-06
1.61746e-07
-4.64324e-07
-1.18552e-06
1.07242e-07
7.67352e-07
-5.04614e-07
1.13606e-06
0.00114333
7.64184e-07
-0.00114302
3.79198e-07
-1.46917e-06
1.6446e-07
-4.6731e-07
-1.18787e-06
1.07277e-07
-5.04518e-07
7.69852e-07
-0.000274317
1.22696e-07
1.25796e-07
1.51475e-06
1.47491e-06
-4.37608e-07
-4.43101e-07
0.000274345
-1.18981e-06
-1.14966e-06
0.000276308
-0.000274236
1.31072e-07
1.36551e-07
3.7805e-07
0.00114306
-4.69836e-07
1.18592e-06
1.71826e-07
7.74537e-07
-5.01319e-07
-1.18714e-06
1.08838e-07
-1.51223e-06
7.58473e-07
3.78268e-07
0.00114313
-4.69979e-07
1.18323e-06
1.71726e-07
7.74554e-07
-4.98456e-07
-1.18687e-06
1.05903e-07
0.00114387
7.42521e-07
-0.00114361
3.71007e-07
-1.50656e-06
1.76277e-07
-4.61266e-07
-1.17493e-06
1.14871e-07
-4.90695e-07
7.79941e-07
1.18711e-06
0.00114395
7.42443e-07
-0.00114369
3.71154e-07
-1.50403e-06
1.7619e-07
-4.61349e-07
-1.1747e-06
1.11958e-07
-4.87824e-07
7.79985e-07
-4.37883e-07
-4.4015e-07
0.000274326
-1.14952e-06
0.000276289
-0.000274217
1.31232e-07
1.33688e-07
3.77045e-07
0.00114406
-4.6445e-07
1.14578e-06
1.66072e-07
7.74628e-07
-5.01191e-07
-1.18687e-06
1.09171e-07
-1.50662e-06
7.58064e-07
3.77959e-07
0.00114301
-4.69816e-07
1.17787e-06
1.71961e-07
7.74606e-07
-4.98407e-07
-1.18682e-06
1.05944e-07
0.00114488
7.42833e-07
-0.00114462
3.70077e-07
-1.46672e-06
1.7053e-07
-4.55892e-07
-1.17464e-06
1.15154e-07
-4.90501e-07
7.80038e-07
1.18175e-06
0.00114383
7.41963e-07
-0.00114357
3.70926e-07
-1.49847e-06
1.76441e-07
-4.61227e-07
-1.17458e-06
1.11961e-07
-4.87763e-07
7.80052e-07
7.57629e-07
3.7776e-07
0.00114263
-4.66717e-07
1.17503e-06
1.6916e-07
7.66365e-07
-4.95532e-07
1.02945e-07
-1.17844e-06
7.42818e-07
-0.00114417
3.75471e-07
-1.46648e-06
1.70579e-07
-4.55668e-07
-1.16922e-06
1.15057e-07
7.74524e-07
-4.90427e-07
1.17888e-06
0.00114345
7.41744e-07
-0.00114319
3.70641e-07
-1.49531e-06
1.73581e-07
-4.58167e-07
-1.16625e-06
1.09035e-07
-4.84877e-07
7.71789e-07
-4.37971e-07
-4.42732e-07
0.000274312
-1.1468e-06
0.000276263
-0.000274203
1.31246e-07
1.36605e-07
7.58761e-07
3.76995e-07
0.00114362
-4.64435e-07
1.13739e-06
1.66017e-07
7.71694e-07
-5.00976e-07
1.09276e-07
-1.18378e-06
7.42444e-07
-0.00114404
3.69783e-07
-1.46373e-06
1.67758e-07
-4.52863e-07
-1.16921e-06
1.15277e-07
7.74646e-07
-4.90371e-07
1.14129e-06
0.00114444
7.42661e-07
-0.00114418
3.69903e-07
-1.45838e-06
1.7049e-07
-4.55825e-07
-1.17158e-06
1.15302e-07
-4.90356e-07
7.77219e-07
-0.000274177
1.31023e-07
1.34036e-07
1.50388e-06
1.46403e-06
-4.24511e-07
-4.29989e-07
0.000274194
-1.19503e-06
-1.15489e-06
0.000276123
-0.000274056
1.39055e-07
1.4459e-07
3.68635e-07
0.00114412
-4.58424e-07
1.19111e-06
1.77731e-07
7.81734e-07
-4.8714e-07
-1.17086e-06
1.16836e-07
-1.50126e-06
7.3701e-07
3.68777e-07
0.00114419
-4.58498e-07
1.18843e-06
1.77667e-07
7.81768e-07
-4.84269e-07
-1.1706e-06
1.13946e-07
0.00114479
7.20684e-07
-0.00114458
3.61357e-07
-1.49525e-06
1.82069e-07
-4.50034e-07
-1.15876e-06
1.22826e-07
-4.76676e-07
7.87094e-07
1.19236e-06
0.00114486
7.20546e-07
-0.00114465
3.6139e-07
-1.49266e-06
1.81974e-07
-4.50033e-07
-1.1585e-06
1.19951e-07
-4.73816e-07
7.87125e-07
-4.24733e-07
-4.27001e-07
0.000274175
-1.15474e-06
0.000276104
-0.000274037
1.39185e-07
1.41757e-07
3.67585e-07
0.00114513
-4.53037e-07
1.15096e-06
1.7198e-07
7.81856e-07
-4.86995e-07
-1.17057e-06
1.172e-07
-1.49568e-06
7.36531e-07
3.68518e-07
0.00114407
-4.58358e-07
1.18305e-06
1.77931e-07
7.81854e-07
-4.84266e-07
-1.17051e-06
1.13996e-07
0.0011458
7.20887e-07
-0.00114559
3.60556e-07
-1.45539e-06
1.76366e-07
-4.44582e-07
-1.15848e-06
1.23108e-07
-4.76533e-07
7.87173e-07
1.18697e-06
0.00114474
7.20154e-07
-0.00114453
3.61061e-07
-1.48715e-06
1.8217e-07
-4.49979e-07
-1.15837e-06
1.19985e-07
-4.73759e-07
7.87235e-07
7.3633e-07
3.68321e-07
0.00114369
-4.55337e-07
1.18018e-06
1.75056e-07
7.7359e-07
-4.81338e-07
1.1105e-07
-1.16216e-06
7.20848e-07
-0.00114513
3.65874e-07
-1.45514e-06
1.76392e-07
-4.44367e-07
-1.15305e-06
1.22965e-07
7.81681e-07
-4.7643e-07
1.18408e-06
0.00114436
7.19894e-07
-0.00114415
3.61025e-07
-1.48398e-06
1.79329e-07
-4.46956e-07
-1.15007e-06
1.17062e-07
-4.70869e-07
7.78974e-07
-4.24809e-07
-4.29582e-07
0.000274161
-1.15204e-06
0.000276078
-0.000274023
1.39225e-07
1.44607e-07
7.37228e-07
3.67505e-07
0.00114468
-4.52985e-07
1.14261e-06
1.71977e-07
7.79018e-07
-4.86807e-07
1.17298e-07
-1.16753e-06
7.20546e-07
-0.001145
3.60115e-07
-1.45237e-06
1.73574e-07
-4.41584e-07
-1.15303e-06
1.23168e-07
7.81801e-07
-4.7638e-07
1.14657e-06
0.00114535
7.20628e-07
-0.00114514
3.60281e-07
-1.44698e-06
1.76377e-07
-4.44502e-07
-1.15543e-06
1.23202e-07
-4.7638e-07
7.84349e-07
-0.000273997
1.39045e-07
1.42039e-07
1.4923e-06
1.45245e-06
-4.11416e-07
-4.16887e-07
0.000274006
-1.20033e-06
-1.16025e-06
0.000275906
-0.000273845
1.46878e-07
1.52362e-07
3.58926e-07
0.00114499
-4.47261e-07
1.19639e-06
1.83548e-07
7.88841e-07
-4.73252e-07
-1.15475e-06
1.24734e-07
-1.48969e-06
7.14871e-07
3.58988e-07
0.00114506
-4.47259e-07
1.19372e-06
1.83494e-07
7.88871e-07
-4.70376e-07
-1.15448e-06
1.21863e-07
0.00114552
6.98099e-07
-0.00114536
3.5101e-07
-1.48334e-06
1.87911e-07
-4.38977e-07
-1.14281e-06
1.30576e-07
-4.63048e-07
7.94149e-07
1.19772e-06
0.00114559
6.97912e-07
-0.00114543
3.50981e-07
-1.4807e-06
1.87906e-07
-4.39032e-07
-1.14256e-06
1.27731e-07
-4.60166e-07
7.94158e-07
-4.11676e-07
-4.13891e-07
0.000273987
-1.16012e-06
0.000275887
-0.000273826
1.47046e-07
1.49567e-07
3.58058e-07
0.001146
-4.41881e-07
1.15626e-06
1.77859e-07
7.8893e-07
-4.73085e-07
-1.15446e-06
1.25048e-07
-1.48414e-06
7.1447e-07
3.58645e-07
0.00114494
-4.47217e-07
1.18831e-06
1.83617e-07
7.89e-07
-4.70315e-07
-1.15437e-06
1.21962e-07
0.00114653
6.98384e-07
-0.00114637
3.50129e-07
-1.44347e-06
1.82289e-07
-4.33548e-07
-1.14255e-06
1.30858e-07
-4.62889e-07
7.94199e-07
1.19224e-06
0.00114548
6.97457e-07
-0.00114531
3.50885e-07
-1.47522e-06
1.88004e-07
-4.38984e-07
-1.14241e-06
1.27831e-07
-4.60067e-07
7.94279e-07
7.14217e-07
3.58653e-07
0.00114456
-4.44189e-07
1.18542e-06
1.80819e-07
7.80723e-07
-4.67416e-07
1.1901e-07
-1.14605e-06
6.98197e-07
-0.00114591
3.55453e-07
-1.4432e-06
1.82294e-07
-4.33418e-07
-1.1371e-06
1.30721e-07
7.8872e-07
-4.62776e-07
1.18941e-06
0.00114509
6.97187e-07
-0.00114493
3.50826e-07
-1.47206e-06
1.85141e-07
-4.36002e-07
-1.13415e-06
1.24892e-07
-4.57208e-07
7.86023e-07
-4.11725e-07
-4.16502e-07
0.000273973
-1.15738e-06
0.000275862
-0.000273812
1.47083e-07
1.52329e-07
7.15038e-07
3.57818e-07
0.00114555
-4.41737e-07
1.14793e-06
1.7787e-07
7.86107e-07
-4.72924e-07
1.25138e-07
-1.15144e-06
6.98068e-07
-0.00114578
3.49876e-07
-1.44044e-06
1.79483e-07
-4.30554e-07
-1.13715e-06
1.30855e-07
7.88795e-07
-4.62788e-07
1.15201e-06
0.00114609
6.98166e-07
-0.00114592
3.49793e-07
-1.43499e-06
1.823e-07
-4.33497e-07
-1.13953e-06
1.30906e-07
-4.62782e-07
7.91351e-07
-0.000273786
1.46935e-07
1.49787e-07
1.48033e-06
1.44046e-06
-3.98558e-07
-4.04016e-07
0.000273788
-1.20563e-06
-1.16559e-06
0.000275667
-0.00027361
1.54345e-07
1.5977e-07
3.48272e-07
0.00114568
-4.36278e-07
1.2017e-06
1.89349e-07
7.95883e-07
-4.59675e-07
-1.13889e-06
1.32477e-07
-1.47763e-06
6.92157e-07
3.4827e-07
0.00114575
-4.36243e-07
1.1991e-06
1.89363e-07
7.95875e-07
-4.5681e-07
-1.13863e-06
1.29623e-07
0.00114608
6.74941e-07
-0.00114596
3.39781e-07
-1.4711e-06
1.93667e-07
-4.28115e-07
-1.12714e-06
1.38252e-07
-4.49719e-07
8.01101e-07
1.20305e-06
0.00114615
6.74631e-07
-0.00114603
3.39716e-07
-1.46843e-06
1.93712e-07
-4.28091e-07
-1.12693e-06
1.35407e-07
-4.46858e-07
8.01049e-07
-3.98753e-07
-4.00983e-07
0.000273769
-1.16546e-06
0.000275648
-0.000273591
1.54495e-07
1.57003e-07
3.47366e-07
0.00114669
-4.30832e-07
1.16162e-06
1.83733e-07
7.95926e-07
-4.59521e-07
-1.13861e-06
1.32776e-07
-1.47216e-06
6.91696e-07
3.48173e-07
0.00114563
-4.36253e-07
1.19362e-06
1.89452e-07
7.95993e-07
-4.56733e-07
-1.1385e-06
1.29751e-07
0.00114709
6.75152e-07
-0.00114696
3.3889e-07
-1.43123e-06
1.88089e-07
-4.22668e-07
-1.12691e-06
1.38499e-07
-4.49602e-07
8.01152e-07
1.19758e-06
0.00114603
6.74264e-07
-0.00114591
3.39747e-07
-1.46295e-06
1.93747e-07
-4.28166e-07
-1.12681e-06
1.35504e-07
-4.46756e-07
8.01155e-07
6.91444e-07
3.48138e-07
0.00114525
-4.33243e-07
1.19072e-06
1.86661e-07
7.87734e-07
-4.5385e-07
1.26804e-07
-1.1302e-06
6.75025e-07
-0.00114651
3.44212e-07
-1.43096e-06
1.88086e-07
-4.22523e-07
-1.12153e-06
1.38385e-07
7.95681e-07
-4.49454e-07
1.19467e-06
0.00114565
6.74005e-07
-0.00114553
3.39666e-07
-1.45989e-06
1.90933e-07
-4.2513e-07
-1.11852e-06
1.32622e-07
-4.43887e-07
7.92975e-07
-3.98794e-07
-4.03677e-07
0.000273755
-1.16279e-06
0.000275623
-0.000273577
1.5458e-07
1.59782e-07
6.92435e-07
3.47117e-07
0.00114624
-4.30731e-07
1.15333e-06
1.838e-07
7.93096e-07
-4.59412e-07
1.32823e-07
-1.13562e-06
6.74957e-07
-0.00114638
3.38604e-07
-1.42814e-06
1.85308e-07
-4.19672e-07
-1.12157e-06
1.3847e-07
7.95702e-07
-4.49517e-07
1.15735e-06
0.00114664
6.75034e-07
-0.00114652
3.38526e-07
-1.42275e-06
1.88144e-07
-4.22551e-07
-1.1239e-06
1.38555e-07
-4.49441e-07
7.98269e-07
-0.000273551
1.54406e-07
1.57196e-07
1.46802e-06
1.42815e-06
-3.85951e-07
-3.91434e-07
0.000273548
-1.21091e-06
-1.17092e-06
0.000275412
-0.000273358
1.61457e-07
1.66853e-07
3.36961e-07
0.00114619
-4.25448e-07
1.207e-06
1.95106e-07
8.02758e-07
-4.46429e-07
-1.12345e-06
1.40116e-07
-1.46538e-06
6.68736e-07
3.36888e-07
0.00114626
-4.25426e-07
1.20438e-06
1.95122e-07
8.02763e-07
-4.43581e-07
-1.12304e-06
1.37282e-07
0.00114647
6.51039e-07
-0.00114638
3.2798e-07
-1.45872e-06
1.99276e-07
-4.17464e-07
-1.11199e-06
1.45777e-07
-4.36727e-07
8.0779e-07
1.20834e-06
0.00114654
6.50809e-07
-0.00114646
3.27836e-07
-1.45608e-06
1.9937e-07
-4.17458e-07
-1.11169e-06
1.42979e-07
-4.33885e-07
8.07749e-07
-3.86203e-07
-3.8843e-07
0.00027353
-1.17078e-06
0.000275393
-0.00027334
1.61604e-07
1.64105e-07
3.35875e-07
0.0011472
-4.19999e-07
1.16696e-06
1.89524e-07
8.02812e-07
-4.4633e-07
-1.12306e-06
1.40359e-07
-1.45992e-06
6.68298e-07
3.36788e-07
0.00114614
-4.25441e-07
1.19891e-06
1.95189e-07
8.02867e-07
-4.43507e-07
-1.12295e-06
1.37398e-07
0.00114748
6.51475e-07
-0.0011474
3.26958e-07
-1.41884e-06
1.93784e-07
-4.12014e-07
-1.11172e-06
1.46004e-07
-4.36657e-07
8.07775e-07
1.20283e-06
0.00114642
6.50381e-07
-0.00114634
3.27974e-07
-1.45064e-06
1.99399e-07
-4.17518e-07
-1.11161e-06
1.43016e-07
-4.33827e-07
8.07903e-07
6.68036e-07
3.36839e-07
0.00114576
-4.22459e-07
1.19601e-06
1.9238e-07
7.94632e-07
-4.40614e-07
1.34489e-07
-1.11466e-06
6.51206e-07
-0.00114695
3.32323e-07
-1.4186e-06
1.93762e-07
-4.11895e-07
-1.1063e-06
1.4592e-07
8.02366e-07
-4.36466e-07
1.20002e-06
0.00114604
6.50089e-07
-0.00114595
3.27948e-07
-1.44753e-06
1.96536e-07
-4.14566e-07
-1.10338e-06
1.40158e-07
-4.30935e-07
7.99694e-07
-3.86231e-07
-3.91131e-07
0.000273515
-1.16813e-06
0.000275368
-0.000273325
1.61737e-07
1.66796e-07
6.6906e-07
3.35571e-07
0.00114675
-4.19847e-07
1.1587e-06
1.89607e-07
7.99984e-07
-4.46178e-07
1.40441e-07
-1.12006e-06
6.51277e-07
-0.00114681
3.26669e-07
-1.41579e-06
1.91012e-07
-4.09013e-07
-1.10644e-06
1.45971e-07
8.02322e-07
-4.36598e-07
1.1628e-06
0.00114703
6.51318e-07
-0.00114695
3.26598e-07
-1.41035e-06
1.93811e-07
-4.11944e-07
-1.10885e-06
1.46001e-07
-4.36554e-07
8.04939e-07
-0.000273299
1.61575e-07
1.64337e-07
1.45566e-06
1.41577e-06
-3.73768e-07
-3.79271e-07
0.000273293
-1.21615e-06
-1.17624e-06
0.000275146
-0.000273096
1.68265e-07
1.73609e-07
3.24876e-07
0.00114654
-4.14903e-07
1.21223e-06
2.00685e-07
8.09479e-07
-4.33557e-07
-1.10812e-06
1.47618e-07
-1.45299e-06
6.44742e-07
3.24803e-07
0.00114661
-4.14855e-07
1.2097e-06
2.00756e-07
8.09431e-07
-4.30699e-07
-1.10808e-06
1.44805e-07
0.0011467
6.26536e-07
-0.00114666
3.20999e-07
-1.44639e-06