/*--------------------------------*- C++ -*----------------------------------*\
| =========                 |                                                 |
| \\      /  F ield         | OpenFOAM: The Open Source CFD Toolbox           |
|  \\    /   O peration     | Version:                                        |
|   \\  /    A nd           | Website:  www.openfoam.com                      |
|    \\/     M anipulation  |                                                 |
\*---------------------------------------------------------------------------*/
FoamFile
{
    version     2.0;
    format      ascii;
    class       volScalarField;
    location    "500";
    object      nut;
}
// * * * * * * * * * * * * * * * * * * * * * * * * * * * * * * * * * * * * * //

dimensions      [0 2 -1 0 0 0 0];


internalField   nonuniform List<scalar> 
172512
(
0.000233969
0.000233548
0.000233548
0.000233451
0.000232529
0.00022758
0.00022758
0.000223833
0.000230487
0.000220158
0.000220157
0.000209027
0.000227758
0.000211542
0.00021154
0.000193703
0.000224387
0.000202552
0.000202549
0.000179637
0.000220505
0.000193693
0.000193689
0.000167281
0.000216258
0.000185208
0.000185204
0.000156542
0.000211776
0.000177176
0.000177171
0.000147172
0.000207165
0.000169637
0.000169632
0.000138927
0.000202506
0.000162565
0.00016256
0.000131606
0.000197852
0.000155908
0.000155903
0.000124963
0.000193241
0.000149613
0.000149613
0.000118887
0.000188652
0.000143656
0.000143633
0.000113176
0.000184119
0.000137972
0.000137938
0.000108179
0.000179685
0.000132505
0.000132529
0.000103398
0.000175339
0.000127457
0.000127288
9.83627e-05
0.000171053
0.000122171
0.000122451
9.39951e-05
0.000166754
0.000117299
0.000117666
9.40554e-05
0.000162732
0.000114302
0.000113571
8.87718e-05
0.000158351
0.000109869
0.000108436
8.35849e-05
0.000154128
0.000104033
0.000104486
8.34774e-05
0.00015009
0.000101296
0.000101603
8.2511e-05
0.000146028
9.88367e-05
9.88886e-05
8.20976e-05
0.000142028
9.65264e-05
9.65173e-05
8.20519e-05
0.000138074
9.4804e-05
9.47358e-05
8.28395e-05
0.000134257
9.34861e-05
9.34843e-05
8.37439e-05
0.000130607
9.26751e-05
9.27037e-05
8.49395e-05
0.000127115
9.24008e-05
9.2446e-05
8.66185e-05
0.000123858
9.26104e-05
9.26272e-05
8.87143e-05
0.000120865
9.32278e-05
9.31907e-05
9.08216e-05
0.000118148
9.4182e-05
9.41808e-05
9.30494e-05
0.000115755
9.55358e-05
9.5551e-05
9.55537e-05
0.000113692
9.72081e-05
9.72092e-05
9.8128e-05
0.00011199
9.91364e-05
9.91503e-05
0.000100729
0.000110636
0.000101335
0.000101328
0.000103356
0.000109668
0.000103731
0.000103747
0.000106053
0.000109049
0.000106316
0.000106324
0.0001088
0.000108814
0.00010906
0.000109062
0.000111543
0.000108927
0.000111912
0.000111921
0.000114192
0.00010938
0.000114903
0.000114888
0.000116977
0.000110187
0.000117904
0.000117955
0.000119663
0.000111304
0.000121059
0.000121042
0.000122271
0.000112726
0.000124196
0.000124215
0.000125079
0.000114429
0.000127387
0.000127383
0.000127465
0.000116408
0.00013059
0.000130593
0.000130318
0.000118616
0.000133744
0.000133812
0.000132623
0.000121078
0.000136988
0.000136929
0.000135353
0.000123704
0.000140116
0.00014015
0.000137682
0.000126511
0.000143203
0.00014327
0.000140055
0.00012956
0.000146369
0.000146266
0.000142769
0.000132589
0.000149393
0.000149493
0.000144491
0.000135829
0.00015226
0.000152309
0.000147429
0.000139252
0.000155564
0.00015537
0.000149081
0.000142586
0.000157842
0.000158126
0.000151691
0.000145967
0.000161231
0.00016127
0.000153463
0.000149635
0.000163852
0.000163401
0.000155574
0.000153089
0.000166171
0.000166795
0.000157822
0.000156613
0.000169326
0.000168923
0.000159051
0.000160148
0.000171649
0.000171662
0.000161942
0.00016381
0.000173832
0.000174216
0.000162519
0.000167128
0.000176875
0.000176368
0.00016554
0.000170716
0.000178621
0.000179023
0.000166186
0.000174088
0.000181078
0.00018097
0.000168528
0.000177511
0.000183651
0.000183416
0.000169956
0.000180839
0.000185017
0.000185517
0.000171126
0.000183964
0.000187656
0.000187272
0.000172723
0.000187195
0.000189326
0.000189477
0.00017437
0.000190352
0.00019133
0.000191285
0.000175483
0.000193298
0.000193014
0.000193065
0.000176484
0.000196127
0.000194675
0.000194895
0.000178256
0.000199105
0.000196701
0.000196312
0.000179033
0.000201724
0.000197873
0.000197862
0.000179841
0.000204261
0.000199142
0.000199808
0.000181426
0.000206904
0.000201173
0.000200673
0.00018206
0.000209223
0.000202246
0.000201962
0.000183049
0.000211533
0.000203148
0.000203771
0.000183834
0.000213762
0.000204686
0.000204488
0.000184359
0.000215773
0.000205726
0.000205476
0.000185381
0.000217783
0.000206584
0.000206846
0.000186199
0.000219555
0.000207556
0.000207647
0.000186587
0.000221358
0.000208493
0.000208332
0.000186705
0.00022305
0.000209248
0.000209197
0.000187631
0.000224465
0.000209864
0.000209972
0.00018822
0.000225953
0.000210553
0.000210578
0.000188264
0.000227179
0.000210991
0.000210995
0.000188564
0.000228497
0.000211807
0.0002118
0.000189304
0.000229625
0.000212009
0.000211901
0.000188838
0.00023037
0.000212049
0.000212066
0.00018908
0.000231643
0.000213061
0.000213198
0.000190389
0.000231744
0.000212443
0.000212335
0.000188721
0.000231883
0.000212202
0.000212123
0.000188509
0.00023564
0.000215234
0.000215259
0.000191177
0.000237559
0.0002159
0.000216059
0.000191585
0.000233746
0.000212857
0.000212832
0.000189577
0.000226588
0.000208549
0.000208659
0.00019135
0.000234256
0.000234459
0.00023446
0.000234257
0.00023446
0.00023446
0.000234259
0.000234259
0.000234259
0.000234259
0.000234459
0.000234459
0.000234256
0.000234459
0.00023446
0.000234256
0.000233451
0.000226179
0.000233548
0.000233547
0.000229123
0.000229118
0.000233451
0.00022618
0.000233547
0.000233547
0.00022912
0.000229117
0.000233548
0.000229126
0.000229123
0.000233451
0.000226178
0.000233547
0.000229126
0.00022912
0.000226177
0.000223834
0.000212154
0.000227577
0.000227572
0.000222157
0.000222151
0.000223833
0.000212155
0.000227575
0.000227571
0.000222158
0.00022215
0.000227576
0.000222163
0.000222156
0.000223834
0.000212151
0.000227575
0.000222162
0.000222156
0.000212147
0.000209031
0.000196985
0.000220151
0.000220146
0.000213749
0.000213742
0.000209029
0.000196983
0.000220153
0.000220143
0.000213753
0.00021374
0.000220149
0.000213758
0.000213745
0.000209029
0.00019698
0.000220151
0.000213757
0.00021375
0.000196975
0.000193711
0.000182814
0.000211531
0.000211525
0.000204788
0.000204781
0.000193709
0.000182811
0.000211537
0.000211522
0.000204797
0.000204778
0.000211527
0.000204801
0.000204784
0.000193706
0.000182807
0.000211533
0.000204799
0.000204792
0.0001828
0.000179648
0.000170219
0.000202538
0.000202531
0.000195862
0.000195855
0.000179645
0.000170216
0.000202548
0.000202528
0.000195874
0.000195851
0.000202533
0.000195877
0.000195856
0.000179642
0.000170211
0.000202542
0.000195875
0.000195868
0.000170204
0.000167295
0.000159208
0.000193675
0.000193669
0.00018727
0.000187263
0.000167292
0.000159204
0.000193689
0.000193665
0.000187286
0.000187258
0.000193669
0.000187288
0.000187263
0.000167287
0.000159198
0.000193682
0.000187285
0.000187278
0.000159191
0.000156557
0.000149591
0.000185188
0.000185181
0.000179116
0.000179109
0.000156553
0.000149587
0.000185205
0.000185177
0.000179135
0.000179104
0.000185182
0.000179137
0.000179109
0.000156548
0.00014958
0.000185197
0.000179134
0.000179127
0.000149573
0.000147189
0.000141096
0.000177153
0.000177146
0.000171451
0.000171444
0.000147185
0.000141092
0.000177173
0.000177142
0.000171473
0.000171439
0.000177147
0.000171475
0.000171444
0.000147179
0.000141085
0.000177164
0.000171471
0.000171464
0.000141078
0.000138946
0.000133548
0.000169612
0.000169604
0.000164265
0.000164258
0.000138941
0.000133546
0.000169634
0.0001696
0.000164289
0.000164253
0.000169605
0.000164291
0.000164258
0.000138934
0.000133536
0.000169625
0.000164287
0.00016428
0.000133529
0.000131624
0.000126706
0.000162537
0.00016253
0.000157507
0.0001575
0.000131618
0.0001267
0.000162563
0.000162526
0.000157534
0.000157495
0.000162531
0.000157535
0.000157501
0.000131611
0.00012669
0.000162553
0.000157531
0.000157524
0.000126682
0.000124981
0.000120426
0.000155879
0.000155871
0.000151128
0.000151116
0.000124976
0.000120411
0.000155906
0.000155868
0.000151157
0.000151113
0.000155874
0.000151153
0.000151121
0.000124967
0.000120405
0.000155897
0.000151152
0.000151145
0.000120401
0.000118892
0.000114582
0.000149586
0.000149574
0.000145084
0.000145068
0.000118873
0.000114509
0.000149615
0.000149575
0.000145114
0.000145059
0.000149583
0.000145106
0.000145062
0.000118883
0.000114486
0.000149608
0.000145098
0.000145088
0.000114455
0.000113346
0.000108888
0.000143624
0.000143616
0.000139293
0.000139368
0.000113306
0.000109324
0.000143653
0.000143594
0.000139324
0.000139293
0.00014359
0.000139408
0.000139309
0.000113238
0.000108959
0.000143615
0.000139333
0.000139335
0.000109014
0.000108042
0.00010408
0.000137898
0.00013793
0.000133811
0.000133769
0.000108332
0.000103945
0.000137929
0.000137898
0.000133841
0.000133804
0.000137925
0.00013381
0.000133812
0.000108101
0.000104081
0.000137952
0.000133845
0.000133838
0.000104045
0.000103517
0.000100094
0.000132495
0.000132463
0.000128616
0.000128624
0.000103404
0.000100219
0.000132525
0.000132489
0.000128644
0.000128612
0.000132456
0.000128665
0.000128421
0.000103529
0.000100037
0.000132481
0.000128653
0.000128444
9.91272e-05
9.94243e-05
9.64004e-05
0.000127339
0.000127415
0.000123619
0.00012363
9.96664e-05
9.6091e-05
0.000127365
0.000127247
0.000123647
0.000123533
0.000127074
0.000123672
0.000123217
9.92626e-05
9.60716e-05
0.000127095
0.000123574
0.00012324
9.46752e-05
9.57234e-05
9.14836e-05
0.000122439
0.000122129
0.000118406
0.000118159
9.49445e-05
9.03653e-05
0.000122467
0.000122413
0.000118428
0.000118674
0.000121991
0.000118204
0.000118953
9.55871e-05
9.26278e-05
0.000122014
0.000118716
0.000118971
9.38671e-05
9.06654e-05
9.26634e-05
0.000117228
0.000117253
0.000114913
0.000114736
9.03993e-05
9.2468e-05
0.00011725
0.000117623
0.000114937
0.000114588
0.000118135
0.00011478
0.000114496
9.19855e-05
9.11425e-05
0.000118151
0.000114627
0.000114513
9.0165e-05
9.20199e-05
8.53661e-05
0.00011393
0.00011426
0.000109713
0.000111496
9.32759e-05
9.20796e-05
0.000113953
0.000113532
0.000109733
0.000109747
0.000112988
0.000111536
0.000109124
9.04214e-05
8.57343e-05
0.000113002
0.000109787
0.000109137
8.37934e-05
8.41452e-05
8.19218e-05
0.000108296
0.000109827
0.000105257
0.000105014
9.03478e-05
8.09764e-05
0.000108315
0.000108395
0.000105277
0.000105254
0.000108288
0.000105058
0.000105724
8.46072e-05
8.18865e-05
0.0001083
0.000105295
0.000105736
8.38936e-05
8.19546e-05
8.27012e-05
0.000104468
0.000103988
0.000102321
0.000101804
7.99928e-05
8.11206e-05
0.000104489
0.000104444
0.000102342
0.000102225
0.000104873
0.000101845
0.000102397
8.18154e-05
8.24525e-05
0.000104886
0.000102265
0.00010241
8.28108e-05
8.25456e-05
8.22464e-05
0.000101606
0.000101253
9.94566e-05
9.93988e-05
8.1449e-05
8.20885e-05
0.000101628
0.000101565
9.94769e-05
9.9515e-05
0.000101602
9.94378e-05
9.95005e-05
8.23964e-05
8.249e-05
0.000101614
9.95541e-05
9.95116e-05
8.22941e-05
8.21202e-05
8.25388e-05
9.88245e-05
9.8796e-05
9.71428e-05
9.69727e-05
8.20403e-05
8.20304e-05
9.88446e-05
9.88505e-05
9.71628e-05
9.70314e-05
9.88121e-05
9.70092e-05
9.69824e-05
8.22522e-05
8.21916e-05
9.88226e-05
9.70677e-05
9.69927e-05
8.20003e-05
8.24241e-05
8.24896e-05
9.65876e-05
9.6489e-05
9.50818e-05
9.51687e-05
8.20375e-05
8.28512e-05
9.66073e-05
9.64818e-05
9.51014e-05
9.50855e-05
9.64939e-05
9.52029e-05
9.51871e-05
8.20797e-05
8.25711e-05
9.65032e-05
9.51207e-05
9.51956e-05
8.28335e-05
8.25556e-05
8.35593e-05
9.4697e-05
9.47687e-05
9.37222e-05
9.37361e-05
8.28658e-05
8.35534e-05
9.47163e-05
9.47016e-05
9.37401e-05
9.37322e-05
9.47663e-05
9.37684e-05
9.37627e-05
8.26449e-05
8.35917e-05
9.47743e-05
9.37659e-05
9.37703e-05
8.35878e-05
8.36828e-05
8.4972e-05
9.34535e-05
9.34529e-05
9.28752e-05
9.27749e-05
8.36459e-05
8.46595e-05
9.34706e-05
9.34515e-05
9.28925e-05
9.28209e-05
9.34997e-05
9.28057e-05
9.28162e-05
8.36979e-05
8.47944e-05
9.35065e-05
9.28527e-05
9.28226e-05
8.47233e-05
8.52007e-05
8.64028e-05
9.27454e-05
9.26434e-05
9.24413e-05
9.24056e-05
8.4879e-05
8.63876e-05
9.2762e-05
9.2673e-05
9.24576e-05
9.24511e-05
9.26879e-05
9.2433e-05
9.24173e-05
8.50078e-05
8.64751e-05
9.26932e-05
9.248e-05
9.24225e-05
8.63699e-05
8.65987e-05
8.82725e-05
9.2376e-05
9.23725e-05
9.24782e-05
9.25063e-05
8.66406e-05
8.83555e-05
9.23912e-05
9.24176e-05
9.24929e-05
9.24969e-05
9.23885e-05
9.25325e-05
9.25247e-05
8.67484e-05
8.83109e-05
9.23928e-05
9.2525e-05
9.25282e-05
8.83842e-05
8.86633e-05
9.04473e-05
9.25896e-05
9.2583e-05
9.30112e-05
9.30057e-05
8.86852e-05
9.04477e-05
9.2604e-05
9.26001e-05
9.30249e-05
9.29765e-05
9.26098e-05
9.30293e-05
9.30272e-05
8.86627e-05
9.03846e-05
9.26127e-05
9.30021e-05
9.30298e-05
9.04621e-05
9.0777e-05
9.26858e-05
9.31841e-05
9.32037e-05
9.38762e-05
9.38736e-05
9.08348e-05
9.26661e-05
9.31969e-05
9.3166e-05
9.38885e-05
9.38891e-05
9.32099e-05
9.38965e-05
9.38868e-05
9.07351e-05
9.27045e-05
9.32116e-05
9.39141e-05
9.38877e-05
9.26471e-05
9.31307e-05
9.51618e-05
9.41841e-05
9.41585e-05
9.5173e-05
9.51568e-05
9.30647e-05
9.51433e-05
9.41954e-05
9.41565e-05
9.51835e-05
9.51528e-05
9.41697e-05
9.51772e-05
9.51546e-05
9.30876e-05
9.51326e-05
9.41697e-05
9.51756e-05
9.51537e-05
9.51159e-05
9.55416e-05
9.76227e-05
9.55152e-05
9.55149e-05
9.67244e-05
9.67365e-05
9.55589e-05
9.76529e-05
9.5525e-05
9.55293e-05
9.67339e-05
9.67448e-05
9.55277e-05
9.67565e-05
9.67615e-05
9.55852e-05
9.76628e-05
9.5526e-05
9.67673e-05
9.67599e-05
9.76808e-05
9.81119e-05
0.000100283
9.71862e-05
9.71877e-05
9.8636e-05
9.86109e-05
9.81168e-05
0.000100236
9.71951e-05
9.71874e-05
9.86441e-05
9.86183e-05
9.72041e-05
9.86289e-05
9.86408e-05
9.81056e-05
0.000100253
9.72016e-05
9.86393e-05
9.86375e-05
0.000100271
0.000100714
0.000102854
9.91316e-05
9.91183e-05
0.000100727
0.00010075
0.000100693
0.000102913
9.91394e-05
9.91304e-05
0.000100734
0.00010074
9.91482e-05
0.000100767
0.00010076
0.000100717
0.000102881
9.91444e-05
0.00010076
0.000100755
0.000102888
0.000103353
0.000105649
0.000101307
0.000101317
0.000103124
0.000103089
0.000103383
0.000105575
0.000101313
0.000101308
0.00010313
0.000103112
0.000101327
0.000103106
0.000103097
0.000103354
0.000105622
0.00010132
0.000103132
0.000103091
0.000105559
0.000106112
0.000108236
0.000103737
0.000103715
0.000105621
0.000105642
0.000106066
0.000108304
0.000103742
0.000103729
0.000105625
0.000105636
0.000103723
0.000105658
0.000105674
0.000106095
0.000108286
0.000103716
0.000105655
0.000105667
0.000108337
0.000108734
0.000111066
0.000106286
0.0001063
0.000108355
0.000108346
0.000108782
0.000111035
0.00010629
0.000106305
0.000108359
0.000108354
0.000106323
0.000108362
0.000108358
0.000108786
0.000111034
0.000106315
0.000108373
0.000108351
0.000111027
0.000111559
0.000113765
0.000109056
0.000109043
0.000111202
0.000111173
0.000111524
0.000113731
0.000109061
0.000109043
0.000111205
0.000111162
0.000109072
0.000111188
0.000111189
0.000111504
0.00011372
0.000109064
0.000111181
0.00011118
0.000113722
0.000114224
0.000116414
0.000111911
0.000111897
0.00011409
0.000114126
0.000114218
0.000116497
0.000111913
0.000111903
0.000114093
0.000114141
0.000111905
0.000114143
0.000114149
0.000114235
0.000116492
0.000111896
0.000114161
0.000114141
0.000116498
0.000116953
0.000119201
0.000114869
0.000114886
0.000117175
0.000117125
0.000116993
0.000119108
0.000114871
0.000114867
0.000117177
0.000117145
0.000114895
0.00011714
0.000117154
0.000116938
0.00011918
0.000114886
0.000117164
0.000117144
0.000119155
0.000119627
0.000121858
0.000117913
0.000117888
0.000120243
0.000120262
0.000119584
0.000121905
0.000117914
0.000117937
0.000120245
0.000120251
0.00011794
0.00012028
0.000120259
0.0001197
0.000121841
0.00011793
0.000120272
0.000120251
0.000121828
0.000122378
0.000124492
0.00012105
0.000121041
0.000123404
0.00012338
0.000122371
0.000124477
0.000121051
0.000121021
0.000123403
0.000123393
0.000121023
0.000123396
0.000123435
0.00012229
0.000124518
0.000121014
0.000123413
0.000123426
0.000124589
0.000124927
0.000127151
0.000124179
0.000124178
0.000126577
0.000126573
0.000124958
0.000127148
0.000124179
0.000124195
0.000126576
0.000126572
0.000124246
0.000126592
0.000126554
0.000125001
0.000127122
0.000124236
0.000126593
0.000126545
0.00012702
0.00012763
0.000129761
0.000127385
0.000127368
0.00012979
0.000129763
0.0001276
0.000129741
0.000127384
0.000127361
0.000129789
0.000129777
0.000127338
0.00012978
0.000129816
0.000127571
0.000129759
0.000127328
0.000129797
0.000129808
0.000129855
0.000130196
0.000132233
0.000130586
0.000130573
0.000132936
0.000132934
0.000130201
0.000132237
0.000130584
0.000130574
0.000132935
0.000132992
0.00013063
0.000132954
0.000132967
0.000130209
0.000132346
0.000130621
0.000133015
0.00013296
0.000132213
0.000132704
0.00013491
0.000133748
0.000133722
0.000136195
0.00013619
0.00013267
0.000134916
0.000133748
0.000133789
0.000136193
0.000136095
0.000133742
0.000136208
0.000136145
0.000132774
0.000134717
0.000133736
0.000136116
0.000136137
0.000134853
0.000135308
0.000137267
0.000136974
0.000136969
0.000139329
0.000139259
0.000135314
0.000137225
0.00013697
0.00013691
0.000139328
0.000139371
0.000136982
0.000139279
0.000139405
0.000135193
0.000137403
0.000136972
0.000139393
0.0001394
0.000137385
0.000137652
0.000139644
0.000140093
0.000140094
0.000142381
0.000142485
0.000137734
0.000139741
0.000140094
0.000140127
0.000142378
0.000142435
0.000140128
0.000142506
0.000142341
0.000137758
0.00013973
0.000140124
0.000142459
0.000142331
0.000139512
0.000140174
0.000142382
0.000143222
0.000143181
0.000145707
0.000145489
0.000140012
0.000142132
0.000143218
0.000143247
0.000145708
0.000145522
0.000143178
0.000145507
0.000145685
0.000140197
0.000142002
0.000143168
0.000145543
0.000145685
0.000142435
0.000142636
0.000144163
0.000146411
0.00014635
0.000148491
0.00014869
0.000142682
0.000144535
0.000146412
0.000146245
0.000148487
0.000148658
0.000146444
0.000148714
0.000148565
0.000142323
0.000144658
0.000146444
0.000148683
0.000148558
0.000144182
0.000144644
0.000146734
0.000149283
0.000149367
0.000151615
0.000151464
0.000144763
0.000146456
0.00014928
0.000149468
0.000151615
0.000151569
0.000149258
0.000151481
0.000151596
0.000145095
0.000146568
0.00014925
0.000151587
0.000151592
0.000146888
0.000147022
0.000149351
0.000152313
0.000152242
0.000154661
0.000154746
0.000146931
0.000149516
0.000152315
0.000152291
0.000154664
0.000154655
0.000152448
0.000154777
0.000154659
0.000146925
0.000149123
0.000152445
0.000154689
0.000154663
0.000148941
0.000149889
0.000150838
0.000155524
0.000155534
0.000157538
0.000157305
0.000149863
0.000150463
0.000155526
0.000155334
0.000157527
0.000157269
0.000155261
0.000157315
0.000157397
0.000149352
0.000150782
0.000155265
0.000157284
0.000157387
0.000151131
0.000150852
0.000153258
0.000157993
0.000157833
0.000160082
0.000160243
0.000150576
0.000153732
0.000157983
0.00015812
0.000160091
0.000160642
0.000158222
0.000160278
0.00016042
0.000151433
0.000153865
0.000158207
0.000160669
0.00016042
0.000153353
0.000154028
0.000155492
0.000161026
0.000161189
0.000163299
0.000163368
0.000154428
0.000155517
0.000161042
0.000161232
0.000163303
0.000162668
0.000161006
0.000163386
0.000162893
0.000153844
0.000154312
0.000161016
0.0001627
0.000162907
0.000154995
0.00015552
0.000157401
0.000163816
0.000163844
0.000165741
0.000165426
0.000155475
0.000156628
0.00016381
0.000163381
0.000165724
0.000166
0.000163688
0.000165447
0.000166039
0.000154814
0.000158184
0.000163689
0.000166021
0.000166017
0.000157778
0.000157934
0.000159006
0.000166517
0.000166138
0.000168412
0.000168537
0.00015713
0.00015981
0.00016651
0.000166764
0.000168439
0.00016841
0.000166626
0.000168567
0.000168123
0.000158442
0.000158852
0.000166612
0.000168437
0.000168147
0.000158553
0.00015906
0.000161269
0.000168906
0.000169305
0.000170895
0.000171151
0.000160193
0.000161192
0.000168932
0.000168906
0.000170886
0.000170879
0.00016883
0.000171166
0.000171251
0.000158946
0.000161241
0.000168856
0.000170894
0.00017124
0.000161855
0.000161861
0.000163209
0.000171706
0.000171622
0.000173735
0.000173121
0.000161203
0.000162233
0.000171688
0.000171633
0.000173733
0.000173636
0.000171902
0.000173161
0.000173309
0.000161716
0.000163148
0.000171882
0.000173687
0.000173307
0.000162291
0.000163201
0.000164258
0.000174209
0.000173798
0.000175682
0.000176159
0.000162696
0.000165607
0.000174221
0.000174177
0.000175706
0.000175761
0.000173846
0.000176166
0.000175977
0.000163233
0.000164369
0.000173858
0.00017576
0.000176
0.000165241
0.000164675
0.000166747
0.000176325
0.00017686
0.00017838
0.000178262
0.000165872
0.000165938
0.000176338
0.000176366
0.000178357
0.000178347
0.000176679
0.00017831
0.00017828
0.000164704
0.000166765
0.00017669
0.00017839
0.000178256
0.000166121
0.000166934
0.000167836
0.000178985
0.000178571
0.000180494
0.000180233
0.000165846
0.000167908
0.000178965
0.000178975
0.000180523
0.000180494
0.000178733
0.000180242
0.000180441
0.000167008
0.000167779
0.000178711
0.000180519
0.000180467
0.000168133
0.000168017
0.000169882
0.000180994
0.000181074
0.000182786
0.000183207
0.000168667
0.000170387
0.000181034
0.000180952
0.000182785
0.000182709
0.000181097
0.000183235
0.000182908
0.000167868
0.000169855
0.000181134
0.000182739
0.000182908
0.000169872
0.000170183
0.000171168
0.000183423
0.00018361
0.000184999
0.000184474
0.000170157
0.000170162
0.0001834
0.00018338
0.000184984
0.000185083
0.000183419
0.000184522
0.000184835
0.000170264
0.000171343
0.000183399
0.000185106
0.000184821
0.000170933
0.000171203
0.00017236
0.000185407
0.000184977
0.000186746
0.000187036
0.00017048
0.000173284
0.000185417
0.000185499
0.000186795
0.000186722
0.000185313
0.000187043
0.000186818
0.000171316
0.000172185
0.000185323
0.000186751
0.000186866
0.000172524
0.000172655
0.000174154
0.000187294
0.000187649
0.00018895
0.000188909
0.000173423
0.000173789
0.000187325
0.000187234
0.000188916
0.000188918
0.000187343
0.000188941
0.00018895
0.000172494
0.000174279
0.000187375
0.000188954
0.000188916
0.000174161
0.000174277
0.000175515
0.00018944
0.000189282
0.000190866
0.000190751
0.000173845
0.000175496
0.00018941
0.000189448
0.000190901
0.000190826
0.000189478
0.000190799
0.000190888
0.000174417
0.00017528
0.000189444
0.000190853
0.000190913
0.000175436
0.000175729
0.000176524
0.000191357
0.000191288
0.000192662
0.000192638
0.000175723
0.000176511
0.000191401
0.000191255
0.000192658
0.000192574
0.000191292
0.00019265
0.000192479
0.000175386
0.000176595
0.000191331
0.000192603
0.000192486
0.00017631
0.000176503
0.000177599
0.000193011
0.000193005
0.000194169
0.000194162
0.000176531
0.000177613
0.000192992
0.00019304
0.000194169
0.000194437
0.000192925
0.000194187
0.00019438
0.000176776
0.000178072
0.000192917
0.000194461
0.00019438
0.000178075
0.00017793
0.000179421
0.000194671
0.000194635
0.000196187
0.000196187
0.000177863
0.000179516
0.000194693
0.000194865
0.000196232
0.000195946
0.000194861
0.000196242
0.000196105
0.000178169
0.000178741
0.000194876
0.000195993
0.000196135
0.000179047
0.000179421
0.000179791
0.000196608
0.000196654
0.000197579
0.000197641
0.000179599
0.000179851
0.000196638
0.000196268
0.00019755
0.000197369
0.000196452
0.000197646
0.000197429
0.000178722
0.000179771
0.000196473
0.000197388
0.000197414
0.000179708
0.000179806
0.000180971
0.000197875
0.000197869
0.000198915
0.000198666
0.000179737
0.000180484
0.000197837
0.00019785
0.000198925
0.000199364
0.000197807
0.000198707
0.000199082
0.000180059
0.000181845
0.000197785
0.000199392
0.000199088
0.000181309
0.000181178
0.00018235
0.000199341
0.000199085
0.000200618
0.000200654
0.000180735
0.00018271
0.00019938
0.000199769
0.000200671
0.00020047
0.000199502
0.000200701
0.00020055
0.000181861
0.000181617
0.000199527
0.000200523
0.000200598
0.000182072
0.000182343
0.000182711
0.000200978
0.000201137
0.000201791
0.000202054
0.000182832
0.000183065
0.000201012
0.000200625
0.000201769
0.000201472
0.000200854
0.000202068
0.000201814
0.000181442
0.000182526
0.00020089
0.000201488
0.000201795
0.000182936
0.000182729
0.00018395
0.000202061
0.000202227
0.000203078
0.000202787
0.000182898
0.000183286
0.000202033
0.000201948
0.000203079
0.000203378
0.000202165
0.000202826
0.000203125
0.000182882
0.000184534
0.000202138
0.000203415
0.000203127
0.000183862
0.000184064
0.000184636
0.000203447
0.000203104
0.000204345
0.000204279
0.000183408
0.000184834
0.000203465
0.00020373
0.000204387
0.000204322
0.000203403
0.000204313
0.000204145
0.000184498
0.000184347
0.000203421
0.000204353
0.000204184
0.000184335
0.00018456
0.00018522
0.000204579
0.000204653
0.000205296
0.000205472
0.000184911
0.000185434
0.000204617
0.000204461
0.000205296
0.000205095
0.000204422
0.000205505
0.000205325
0.000184192
0.000184967
0.000204455
0.000205128
0.000205322
0.000185319
0.000185313
0.00018612
0.00020561
0.000205691
0.000206472
0.000206303
0.000185357
0.000185826
0.000205599
0.000205437
0.000206472
0.000206493
0.000205642
0.000206338
0.000206485
0.00018513
0.000186322
0.000205632
0.000206534
0.000206488
0.000186194
0.000186037
0.000186303
0.00020671
0.00020655
0.000207219
0.000207267
0.000185814
0.000186521
0.000206721
0.000206808
0.000207252
0.000207445
0.000206763
0.000207301
0.000207438
0.00018632
0.000186649
0.000206778
0.000207476
0.00020747
0.000186697
0.000186283
0.000187303
0.000207426
0.000207521
0.000208218
0.000208222
0.000186523
0.000187239
0.000207456
0.000207616
0.000208225
0.000208089
0.00020763
0.000208258
0.000208052
0.000186534
0.00018694
0.000207658
0.000208127
0.000208058
0.000186769
0.000187334
0.000187777
0.000208505
0.000208455
0.000209121
0.00020903
0.000187208
0.000187677
0.000208508
0.000208292
0.000209132
0.000208935
0.000208222
0.000209073
0.000208896
0.000186908
0.000187596
0.000208223
0.000208972
0.000208898
0.000187578
0.000187648
0.000187931
0.00020927
0.000209203
0.000209644
0.000209652
0.000187582
0.000187993
0.000209286
0.000209161
0.000209666
0.000209751
0.000209172
0.000209688
0.000209827
0.000187573
0.00018818
0.000209178
0.000209779
0.000209843
0.00018831
0.000187883
0.000188482
0.000209823
0.000209834
0.000210397
0.000210371
0.00018793
0.000188442
0.000209842
0.000209944
0.000210404
0.000210425
0.000210007
0.000210395
0.000210417
0.000188116
0.000188485
0.000210024
0.000210459
0.000210434
0.000188401
0.00018839
0.000188616
0.000210565
0.000210525
0.000210871
0.000210836
0.000188342
0.000188618
0.000210571
0.000210539
0.000210884
0.000210825
0.000210519
0.000210876
0.000210812
0.00018835
0.00018859
0.000210535
0.000210871
0.00021083
0.000188572
0.000188534
0.000189392
0.000210968
0.000210949
0.000211543
0.00021155
0.000188566
0.000189428
0.000210987
0.000210952
0.00021157
0.000211589
0.000210949
0.000211596
0.000211554
0.000188575
0.000189465
0.000210968
0.000211626
0.000211569
0.00018938
0.000189369
0.000189267
0.000211767
0.00021176
0.000212065
0.000212036
0.000189389
0.000189219
0.00021179
0.000211765
0.000212082
0.000211978
0.000211722
0.00021208
0.000211954
0.000189405
0.000189018
0.000211734
0.000212011
0.000211961
0.000189044
0.000189016
0.000188642
0.000212006
0.000211969
0.000211861
0.000211847
0.000188978
0.000188679
0.000212019
0.00021187
0.00021187
0.000211842
0.000211902
0.000211878
0.000211968
0.000188774
0.000188703
0.000211909
0.000211878
0.000211978
0.000188986
0.000188688
0.000190766
0.000212033
0.000212018
0.000212997
0.000212898
0.000188719
0.00019055
0.000212042
0.000212029
0.000213011
0.000213056
0.000212147
0.000212933
0.000212935
0.000188836
0.000190866
0.000212157
0.000213102
0.000212956
0.000190478
0.000190769
0.000189053
0.000213135
0.000213023
0.000212795
0.000212728
0.000190536
0.000189149
0.000213152
0.000213156
0.000212818
0.000212729
0.000212995
0.000212773
0.000212636
0.00019082
0.000188898
0.000213018
0.000212757
0.000212662
0.000189046
0.000188602
0.000187994
0.000212365
0.000212393
0.000211685
0.000211819
0.000188766
0.000188363
0.00021239
0.000212308
0.000211703
0.000211724
0.000212372
0.000211863
0.000211864
0.000188481
0.000188184
0.000212391
0.000211773
0.000211869
0.000188454
0.00018821
0.000191648
0.000212042
0.00021216
0.00021452
0.000214431
0.000188502
0.000191347
0.000212057
0.000212074
0.00021453
0.000214411
0.00021216
0.000214466
0.000214318
0.000188405
0.000191372
0.000212165
0.000214454
0.000214329
0.000191064
0.000191742
0.000191487
0.000215351
0.000215197
0.0002162
0.000215997
0.000191401
0.000191284
0.00021536
0.000215224
0.000216211
0.000216163
0.000215127
0.000216048
0.000216187
0.00019144
0.000191656
0.000215141
0.000216195
0.000216199
0.000191854
0.000191162
0.000189829
0.000215992
0.000215848
0.000213669
0.000213797
0.000191021
0.000190284
0.000216007
0.000216024
0.000213698
0.000213776
0.000216071
0.000213842
0.000213788
0.000191389
0.000190029
0.000216086
0.000213833
0.000213818
0.000189992
0.000189591
0.000190873
0.000212699
0.000212818
0.000209384
0.000209261
0.000190003
0.00019049
0.000212719
0.000212783
0.000209399
0.000209343
0.000212758
0.00020929
0.00020918
0.000189705
0.000190769
0.000212782
0.000209375
0.000209197
0.000190386
0.000191823
0.000208693
0.000208521
0.000191306
0.000208706
0.000208629
0.00022652
0.000226564
0.00022647
0.00020848
0.000191685
0.000208493
0.000234728
0.000234779
0.000234733
0.000234733
0.00023511
0.000234806
0.000234702
0.000234742
0.00023511
0.000234806
0.000234742
0.000234702
0.00023486
0.000233567
0.000233568
0.000104653
3.87587e-05
0.000129428
3.98342e-05
2.16907e-05
2.28368e-05
0.000104616
3.87547e-05
0.00012946
3.98309e-05
0.000233969
0.000233969
0.000233969
0.000232942
0.000232942
0.000232942
0.000232942
0.000206249
9.37609e-05
0.000233996
0.000231746
0.000222768
8.72445e-05
0.000233595
2.169e-05
2.28361e-05
0.000206248
0.000233996
9.37597e-05
0.000231747
0.000222768
0.000233595
8.72484e-05
4.78459e-05
4.78366e-05
0.000231405
4.39754e-05
4.39598e-05
7.25106e-05
4.24332e-05
8.13316e-05
4.37612e-05
2.47747e-05
2.54626e-05
7.24964e-05
4.24283e-05
8.13406e-05
4.37576e-05
0.000232529
0.000232529
0.000232529
0.000231061