/*--------------------------------*- C++ -*----------------------------------*\
| =========                 |                                                 |
| \\      /  F ield         | OpenFOAM: The Open Source CFD Toolbox           |
|  \\    /   O peration     | Version:                                        |
|   \\  /    A nd           | Website:  www.openfoam.com                      |
|    \\/     M anipulation  |                                                 |
\*---------------------------------------------------------------------------*/
FoamFile
{
    version     2.0;
    format      ascii;
    class       volScalarField;
    location    "500";
    object      p;
}
// * * * * * * * * * * * * * * * * * * * * * * * * * * * * * * * * * * * * * //

dimensions      [0 2 -2 0 0 0 0];


internalField   nonuniform List<scalar> 
172512
(
0.0036078
0.00360824
0.00360824
0.00360816
0.00354943
0.00354975
0.00354975
0.00355256
0.00349811
0.00349812
0.00349812
0.00350087
0.00344586
0.00344585
0.00344585
0.00344858
0.00339449
0.00339449
0.00339449
0.00339719
0.00334451
0.00334453
0.00334453
0.00334719
0.00329599
0.00329601
0.00329601
0.00329863
0.00324875
0.00324879
0.00324879
0.00325137
0.00320263
0.00320265
0.00320267
0.00320522
0.0031574
0.00315744
0.00315743
0.00315998
0.00311292
0.00311295
0.00311296
0.00311543
0.00306902
0.00306908
0.00306907
0.00307157
0.0030256
0.00302579
0.00302563
0.00302813
0.0029827
0.00298255
0.0029828
0.00298525
0.00294026
0.00294035
0.0029403
0.0029426
0.00289804
0.0028981
0.00289794
0.0029003
0.00285617
0.00285592
0.00285638
0.002859
0.00281523
0.00281531
0.00281519
0.00281765
0.00277345
0.00277396
0.00277344
0.00277563
0.00273257
0.00273206
0.00273256
0.0027353
0.00269242
0.00269241
0.00269248
0.00269477
0.00265233
0.00265235
0.00265235
0.00265471
0.00261246
0.00261243
0.00261242
0.00261476
0.00257278
0.00257281
0.00257277
0.00257518
0.00253337
0.00253334
0.00253335
0.0025357
0.00249417
0.00249413
0.00249412
0.00249647
0.00245516
0.00245514
0.00245513
0.00245748
0.00241637
0.00241634
0.00241633
0.00241867
0.00237775
0.00237772
0.00237773
0.00238002
0.00233934
0.0023393
0.00233931
0.00234158
0.0023011
0.00230107
0.00230107
0.00230333
0.00226303
0.00226301
0.00226301
0.00226525
0.00222513
0.00222511
0.00222511
0.00222733
0.00218739
0.00218738
0.00218738
0.00218957
0.00214982
0.0021498
0.00214981
0.00215198
0.00211239
0.00211238
0.00211238
0.00211455
0.00207512
0.0020751
0.0020751
0.00207724
0.00203798
0.00203796
0.00203796
0.00204009
0.00200097
0.00200096
0.00200096
0.00200308
0.0019641
0.00196407
0.00196407
0.00196617
0.00192735
0.00192733
0.00192731
0.00192941
0.00189071
0.00189067
0.00189068
0.00189277
0.0018542
0.00185415
0.00185414
0.0018562
0.00181778
0.00181772
0.00181772
0.00181981
0.00178145
0.00178139
0.00178139
0.00178343
0.00174524
0.00174518
0.00174515
0.00174722
0.00170909
0.00170901
0.00170903
0.00171107
0.00167303
0.00167296
0.00167295
0.00167496
0.00163707
0.00163697
0.00163696
0.00163904
0.00160113
0.00160105
0.00160107
0.00160304
0.0015653
0.00156518
0.00156517
0.00156724
0.00152954
0.00152947
0.00152945
0.00153141
0.00149376
0.00149359
0.00149363
0.00149568
0.00145812
0.00145806
0.00145807
0.00146001
0.00142248
0.00142235
0.00142226
0.00142431
0.00138689
0.00138672
0.00138688
0.00138884
0.00135133
0.00135127
0.00135113
0.0013531
0.00131583
0.00131569
0.00131572
0.00131781
0.00128034
0.00128015
0.00128022
0.00128206
0.00124484
0.00124484
0.00124471
0.00124683
0.00120945
0.00120924
0.00120935
0.00121121
0.00117398
0.00117387
0.00117384
0.00117588
0.00113862
0.00113857
0.00113851
0.00114048
0.00110318
0.00110297
0.00110309
0.00110502
0.00106776
0.00106776
0.00106763
0.00106965
0.00103241
0.00103225
0.00103233
0.00103428
0.000997008
0.000996925
0.000996897
0.00099888
0.000961589
0.000961486
0.000961491
0.000963434
0.000926176
0.000926081
0.000926119
0.000928107
0.000890815
0.000890748
0.000890676
0.000892666
0.000855321
0.000855221
0.000855234
0.000857189
0.000819892
0.000819777
0.000819888
0.000821833
0.000784479
0.000784446
0.000784314
0.000786335
0.000748936
0.000748869
0.000748858
0.000750852
0.000713463
0.000713332
0.000713461
0.000715373
0.000677929
0.000677895
0.000677802
0.000679807
0.000642347
0.000642294
0.000642272
0.00064429
0.000606795
0.000606701
0.000606763
0.000608713
0.000571137
0.000571098
0.000571086
0.00057309
0.00053551
0.000535447
0.000535416
0.000537386
0.000499823
0.000499762
0.000499769
0.000501769
0.00046409
0.000464046
0.000464065
0.000466072
0.00042835
0.000428297
0.000428288
0.00043027
0.000392538
0.000392485
0.000392482
0.000394479
0.000356762
0.000356731
0.000356738
0.000358749
0.000320865
0.00032082
0.000320801
0.000322797
0.000284876
0.000284825
0.000284834
0.000286856
0.000249147
0.000249124
0.000249148
0.000251137
0.000213041
0.00021301
0.000212979
0.000215006
0.000176894
0.000176876
0.000176873
0.000178902
0.00014117
0.000141123
0.00014113
0.000143123
0.000104963
0.000104859
0.000104882
0.000106911
6.87552e-05
6.87562e-05
6.87271e-05
7.07352e-05
3.34788e-05
3.29214e-05
3.29869e-05
3.50152e-05
8.60246e-06
5.85855e-06
5.83023e-06
4.56386e-06
0.00361797
0.00361703
0.00361702
0.00361796
0.00361703
0.00361702
0.00361592
0.00361592
0.00361592
0.00361592
0.00361702
0.00361702
0.00361797
0.00361703
0.00361702
0.00361797
0.00360816
0.003559
0.00360824
0.00360824
0.00356114
0.00356114
0.00360816
0.003559
0.00360824
0.00360824
0.00356114
0.00356114
0.00360824
0.00356114
0.00356114
0.00360816
0.003559
0.00360824
0.00356114
0.00356114
0.003559
0.00355256
0.00350795
0.00354975
0.00354975
0.00351132
0.00351132
0.00355256
0.00350795
0.00354975
0.00354975
0.00351132
0.00351132
0.00354975
0.00351132
0.00351132
0.00355256
0.00350795
0.00354975
0.00351132
0.00351132
0.00350795
0.00350087
0.00345557
0.00349812
0.00349812
0.00345885
0.00345885
0.00350087
0.00345557
0.00349812
0.00349812
0.00345885
0.00345885
0.00349812
0.00345885
0.00345885
0.00350087
0.00345557
0.00349812
0.00345885
0.00345885
0.00345557
0.00344858
0.00340401
0.00344585
0.00344585
0.00340722
0.00340722
0.00344858
0.00340401
0.00344585
0.00344585
0.00340722
0.00340722
0.00344585
0.00340722
0.00340722
0.00344858
0.00340401
0.00344585
0.00340722
0.00340722
0.00340401
0.00339719
0.00335378
0.00339449
0.00339449
0.00335688
0.00335688
0.00339719
0.00335378
0.00339449
0.00339449
0.00335688
0.00335688
0.00339449
0.00335688
0.00335688
0.00339719
0.00335378
0.00339449
0.00335688
0.00335688
0.00335378
0.00334719
0.00330502
0.00334453
0.00334453
0.00330802
0.00330801
0.00334719
0.00330502
0.00334453
0.00334453
0.00330801
0.00330802
0.00334453
0.00330801
0.00330801
0.00334719
0.00330502
0.00334453
0.00330801
0.00330801
0.00330502
0.00329863
0.00325759
0.00329601
0.00329601
0.00326049
0.00326048
0.00329863
0.00325759
0.00329601
0.00329601
0.00326049
0.00326049
0.00329601
0.00326049
0.00326049
0.00329863
0.00325759
0.00329601
0.00326049
0.00326049
0.00325759
0.00325138
0.00321129
0.00324878
0.00324878
0.00321411
0.00321411
0.00325138
0.00321128
0.00324879
0.00324878
0.00321411
0.00321411
0.00324878
0.00321412
0.00321411
0.00325137
0.00321129
0.00324878
0.00321411
0.00321411
0.0032113
0.00320522
0.00316591
0.00320266
0.00320265
0.00316869
0.00316867
0.00320521
0.00316592
0.00320266
0.00320266
0.00316869
0.00316868
0.00320267
0.00316867
0.00316867
0.00320522
0.00316591
0.00320267
0.00316868
0.00316867
0.00316593
0.00315995
0.00312132
0.00315743
0.00315744
0.003124
0.003124
0.00315996
0.00312129
0.00315743
0.00315743
0.003124
0.00312402
0.00315745
0.003124
0.00312404
0.00315996
0.00312131
0.00315745
0.00312403
0.00312404
0.00312132
0.00311548
0.00307731
0.00311298
0.00311295
0.00307997
0.00307995
0.00311546
0.00307734
0.00311298
0.00311296
0.00307997
0.00308
0.00311295
0.00307995
0.00308001
0.00311544
0.00307735
0.00311295
0.00308
0.00308001
0.00307737
0.00307157
0.0030338
0.00306907
0.00306908
0.00303646
0.00303651
0.00307158
0.00303398
0.00306907
0.00306907
0.00303645
0.00303643
0.00306906
0.00303651
0.00303639
0.00307155
0.00303376
0.00306906
0.00303642
0.00303639
0.00303375
0.00302806
0.00299083
0.00302564
0.00302578
0.00299339
0.00299327
0.00302833
0.00299058
0.00302563
0.00302563
0.0029934
0.00299337
0.00302569
0.00299327
0.00299349
0.00302811
0.00299084
0.00302568
0.00299338
0.0029935
0.00299092
0.00298522
0.00294838
0.00298275
0.00298255
0.00295087
0.00295086
0.00298497
0.0029484
0.00298277
0.00298279
0.00295087
0.00295088
0.00298279
0.00295085
0.00295079
0.00298525
0.00294836
0.0029828
0.00295087
0.00295079
0.00294819
0.00294282
0.00290604
0.00294035
0.00294036
0.00290859
0.00290869
0.00294285
0.00290621
0.00294034
0.00294032
0.00290856
0.00290846
0.00294016
0.00290868
0.00290842
0.00294279
0.0029058
0.00294016
0.00290844
0.0029084
0.00290582
0.00290052
0.00286409
0.00289809
0.00289812
0.0028666
0.00286623
0.00290063
0.00286348
0.00289807
0.00289795
0.00286665
0.00286684
0.00289789
0.00286625
0.0028667
0.0029003
0.00286432
0.00289788
0.00286685
0.00286675
0.00286434
0.00285853
0.00282314
0.00285612
0.00285588
0.00282536
0.00282567
0.00285811
0.00282328
0.00285617
0.00285634
0.00282535
0.00282541
0.00285649
0.0028257
0.00282562
0.00285878
0.0028231
0.00285653
0.00282543
0.00282562
0.00282331
0.00281788
0.00278134
0.00281535
0.00281532
0.00278406
0.00278448
0.00281786
0.00278232
0.00281533
0.0028152
0.002784
0.00278392
0.00281511
0.00278444
0.00278358
0.00281769
0.00278136
0.00281509
0.00278387
0.00278352
0.00278094
0.00277568
0.00274011
0.00277339
0.00277399
0.00274252
0.00274214
0.00277671
0.00273939
0.00277334
0.00277346
0.00274254
0.00274261
0.00277339
0.00274218
0.00274294
0.00277581
0.00274013
0.00277334
0.00274264
0.00274296
0.00274067
0.00273485
0.00270021
0.00273248
0.00273203
0.00270249
0.00270232
0.00273413
0.00270001
0.00273252
0.00273253
0.00270252
0.00270255
0.00273277
0.00270232
0.00270236
0.00273485
0.00270023
0.0027328
0.00270254
0.00270238
0.00270004
0.00269491
0.00265999
0.00269245
0.00269242
0.00266234
0.00266243
0.00269483
0.00266008
0.00269246
0.00269248
0.00266233
0.00266236
0.00269236
0.00266243
0.0026623
0.00269492
0.00266006
0.00269237
0.00266236
0.0026623
0.00265997
0.00265471
0.00262012
0.00265232
0.00265235
0.00262241
0.00262241
0.00265477
0.00262007
0.00265232
0.00265235
0.00262241
0.00262235
0.00265231
0.0026224
0.00262236
0.00265477
0.00262005
0.00265231
0.00262235
0.00262235
0.00262
0.00261486
0.00258032
0.00261246
0.00261243
0.00258264
0.0025827
0.0026148
0.00258043
0.00261246
0.00261243
0.00258263
0.00258264
0.00261239
0.0025827
0.0025827
0.00261481
0.00258036
0.00261239
0.00258265
0.0025827
0.00258041
0.0025751
0.00254093
0.00257274
0.0025728
0.00254319
0.00254318
0.0025752
0.00254091
0.00257274
0.00257277
0.00254319
0.00254318
0.00257279
0.00254317
0.00254317
0.00257515
0.00254092
0.00257279
0.00254318
0.00254317
0.00254089
0.00253573
0.00250167
0.00253335
0.00253334
0.00250391
0.0025039
0.00253571
0.00250165
0.00253335
0.00253335
0.00250391
0.00250391
0.00253334
0.0025039
0.00250392
0.00253572
0.00250165
0.00253334
0.00250391
0.00250392
0.00250165
0.0024965
0.00246262
0.00249414
0.00249413
0.00246486
0.00246487
0.00249648
0.00246264
0.00249414
0.00249412
0.00246486
0.00246486
0.00249412
0.00246487
0.00246487
0.00249647
0.00246262
0.00249412
0.00246486
0.00246487
0.00246264
0.00245745
0.00242377
0.00245512
0.00245514
0.002426
0.00242601
0.00245748
0.00242379
0.00245512
0.00245513
0.002426
0.00242601
0.00245514
0.00242601
0.00242601
0.00245747
0.00242378
0.00245514
0.00242601
0.00242601
0.0024238
0.00241865
0.00238515
0.00241633
0.00241634
0.00238737
0.00238736
0.00241866
0.00238514
0.00241633
0.00241633
0.00238737
0.00238737
0.00241634
0.00238736
0.00238736
0.00241864
0.00238515
0.00241634
0.00238736
0.00238736
0.00238514
0.00238003
0.00234667
0.00237773
0.00237772
0.00234889
0.00234889
0.00238002
0.00234668
0.00237773
0.00237773
0.00234889
0.00234889
0.00237772
0.00234889
0.00234889
0.00238003
0.00234669
0.00237772
0.00234889
0.00234889
0.00234667
0.00234158
0.00230842
0.0023393
0.0023393
0.00231062
0.00231062
0.00234158
0.00230842
0.0023393
0.00233931
0.00231062
0.00231061
0.0023393
0.00231062
0.00231061
0.00234159
0.00230841
0.0023393
0.00231061
0.00231061
0.00230841
0.00230333
0.0022703
0.00230107
0.00230107
0.0022725
0.0022725
0.00230334
0.00227031
0.00230107
0.00230107
0.0022725
0.00227251
0.00230107
0.0022725
0.00227251
0.00230333
0.00227031
0.00230107
0.00227251
0.00227251
0.00227032
0.00226524
0.00223239
0.002263
0.00226301
0.00223458
0.00223457
0.00226524
0.00223238
0.002263
0.002263
0.00223458
0.00223457
0.00226301
0.00223457
0.00223457
0.00226524
0.00223238
0.00226301
0.00223457
0.00223457
0.00223238
0.00222733
0.0021946
0.00222511
0.00222511
0.00219679
0.0021968
0.00222733
0.00219461
0.00222511
0.00222511
0.00219679
0.0021968
0.00222511
0.0021968
0.0021968
0.00222733
0.00219461
0.00222511
0.0021968
0.00219679
0.00219461
0.00218957
0.00215702
0.00218737
0.00218738
0.00215919
0.00215918
0.00218958
0.002157
0.00218737
0.00218738
0.00215919
0.00215919
0.00218738
0.00215918
0.00215918
0.00218957
0.00215701
0.00218738
0.00215919
0.00215918
0.002157
0.00215199
0.00211954
0.00214981
0.0021498
0.00212172
0.00212172
0.00215198
0.00211955
0.00214981
0.00214981
0.00212171
0.00212172
0.0021498
0.00212173
0.00212173
0.00215199
0.00211954
0.0021498
0.00212172
0.00212173
0.00211956
0.00211453
0.00208225
0.00211237
0.00211238
0.00208441
0.00208441
0.00211454
0.00208224
0.00211237
0.00211238
0.00208441
0.00208441
0.00211238
0.00208441
0.0020844
0.00211453
0.00208225
0.00211238
0.00208441
0.0020844
0.00208223
0.00207725
0.00204508
0.00207511
0.0020751
0.00204723
0.00204723
0.00207725
0.00204507
0.00207511
0.0020751
0.00204723
0.00204723
0.0020751
0.00204723
0.00204723
0.00207725
0.00204507
0.0020751
0.00204723
0.00204723
0.00204507
0.00204009
0.00200803
0.00203796
0.00203796
0.00201018
0.00201019
0.00204009
0.00200804
0.00203796
0.00203796
0.00201018
0.0020102
0.00203796
0.00201019
0.00201019
0.00204009
0.00200805
0.00203796
0.0020102
0.0020102
0.00200805
0.00200306
0.00197116
0.00200095
0.00200096
0.00197329
0.00197328
0.00200307
0.00197114
0.00200095
0.00200096
0.00197329
0.00197328
0.00200096
0.00197328
0.00197328
0.00200308
0.00197113
0.00200096
0.00197327
0.00197328
0.00197113
0.00196618
0.00193435
0.00196408
0.00196407
0.00193649
0.0019365
0.00196617
0.00193438
0.00196408
0.00196408
0.00193649
0.0019365
0.00196407
0.0019365
0.0019365
0.00196618
0.00193436
0.00196407
0.0019365
0.0019365
0.00193437
0.00192941
0.0018977
0.00192732
0.00192733
0.00189983
0.00189982
0.00192942
0.00189769
0.00192732
0.00192731
0.00189983
0.00189982
0.00192732
0.00189982
0.00189982
0.00192941
0.0018977
0.00192732
0.00189982
0.00189982
0.00189771
0.00189275
0.00186115
0.00189067
0.00189067
0.00186327
0.00186327
0.00189275
0.00186116
0.00189067
0.00189068
0.00186327
0.00186327
0.00189069
0.00186327
0.00186326
0.00189276
0.00186115
0.00189069
0.00186327
0.00186326
0.00186114
0.00185622
0.00182471
0.00185415
0.00185415
0.00182682
0.00182682
0.00185622
0.00182471
0.00185415
0.00185414
0.00182682
0.00182682
0.00185413
0.00182681
0.00182683
0.00185622
0.00182471
0.00185413
0.00182682
0.00182683
0.00182473
0.00181978
0.00178836
0.00181772
0.00181772
0.00179046
0.00179046
0.00181978
0.00178836
0.00181772
0.00181772
0.00179046
0.00179047
0.00181774
0.00179046
0.00179046
0.00181979
0.00178837
0.00181774
0.00179047
0.00179046
0.00178835
0.00178344
0.00175214
0.00178139
0.00178139
0.00175422
0.00175422
0.00178344
0.00175214
0.00178139
0.00178139
0.00175422
0.0017542
0.00178138
0.00175422
0.00175421
0.00178345
0.0017521
0.00178138
0.0017542
0.00175421
0.00175212
0.00174723
0.00171596
0.00174517
0.00174518
0.00171804
0.00171803
0.00174723
0.00171594
0.00174517
0.00174515
0.00171804
0.00171807
0.00174517
0.00171803
0.00171807
0.00174719
0.001716
0.00174517
0.00171807
0.00171807
0.00171599
0.00171106
0.00167986
0.00170902
0.00170901
0.00168195
0.00168198
0.00171104
0.00167992
0.00170902
0.00170903
0.00168195
0.00168195
0.00170903
0.00168198
0.00168193
0.00171108
0.00167987
0.00170903
0.00168195
0.00168193
0.00167984
0.00167497
0.00164394
0.00167295
0.00167296
0.001646
0.00164594
0.001675
0.00164387
0.00167294
0.00167295
0.001646
0.00164597
0.00167293
0.00164594
0.001646
0.00167498
0.00164389
0.00167293
0.00164597
0.001646
0.00164394
0.00163903
0.0016079
0.00163699
0.00163697
0.00160999
0.00161005
0.001639
0.00160798
0.00163699
0.00163696
0.00160998
0.00161002
0.001637
0.00161005
0.00161001
0.00163899
0.00160797
0.001637
0.00161002
0.00161001
0.00160793
0.00160303
0.00157213
0.00160102
0.00160105
0.00157418
0.00157412
0.00160307
0.00157205
0.00160102
0.00160107
0.00157418
0.00157415
0.00160103
0.00157412
0.00157414
0.0016031
0.00157207
0.00160102
0.00157414
0.00157414
0.0015721
0.00156723
0.0015363
0.00156521
0.00156518
0.00153835
0.0015384
0.00156718
0.00153638
0.00156521
0.00156517
0.00153835
0.00153838
0.00156521
0.0015384
0.00153839
0.00156718
0.00153636
0.00156521
0.00153838
0.00153839
0.00153633
0.00153145
0.00150056
0.00152944
0.00152947
0.00150263
0.00150258
0.0015315
0.00150048
0.00152944
0.00152945
0.00150263
0.00150255
0.00152941
0.00150257
0.00150257
0.00153148
0.00150047
0.00152941
0.00150255
0.00150257
0.00150052
0.00149563
0.00146483
0.00149363
0.00149359
0.00146685
0.00146689
0.00149557
0.0014649
0.00149363
0.00149364
0.00146686
0.001467
0.00149367
0.0014669
0.00146695
0.00149562
0.00146502
0.00149367
0.00146701
0.00146695
0.00146491
0.00146001
0.00142929
0.001458
0.00145805
0.00143135
0.00143134
0.00146008
0.00142927
0.00145801
0.00145806
0.00143134
0.00143116
0.001458
0.00143133
0.00143122
0.00146011
0.00142905
0.00145801
0.00143115
0.00143121
0.00142916
0.00142436
0.00139359
0.00142237
0.00142236
0.00139561
0.00139557
0.00142434
0.00139354
0.00142236
0.00142227
0.00139562
0.00139575
0.00142233
0.00139558
0.00139573
0.00142422
0.00139379
0.00142232
0.00139575
0.00139573
0.00139373
0.00138876
0.00135808
0.00138676
0.00138671
0.00136013
0.00136015
0.0013887
0.00135815
0.00138677
0.00138687
0.00136013
0.00136006
0.00138681
0.00136014
0.00136001
0.00138892
0.00135797
0.00138682
0.00136006
0.00136001
0.00135794
0.00135317
0.00132253
0.00135119
0.00135127
0.00132454
0.00132459
0.00135328
0.00132255
0.00135119
0.00135114
0.00132453
0.00132455
0.00135114
0.0013246
0.00132466
0.00135309
0.00132256
0.00135114
0.00132455
0.00132465
0.00132269
0.0013177
0.00128711
0.00131571
0.00131569
0.00128913
0.00128901
0.00131766
0.00128696
0.00131571
0.00131572
0.00128914
0.00128912
0.00131578
0.001289
0.00128899
0.00131772
0.00128709
0.00131578
0.00128912
0.00128901
0.00128692
0.0012822
0.00125151
0.00128021
0.00128016
0.00125355
0.00125368
0.00128211
0.00125171
0.00128022
0.00128022
0.00125354
0.00125356
0.00128012
0.00125368
0.00125365
0.0012822
0.00125153
0.00128013
0.00125356
0.00125364
0.00125168
0.00124667
0.00121622
0.00124471
0.00124483
0.00121821
0.00121816
0.00124685
0.00121609
0.0012447
0.0012447
0.00121821
0.0012182
0.00124482
0.00121816
0.00121816
0.00124667
0.0012162
0.00124481
0.0012182
0.00121816
0.0012161
0.00121134
0.00118068
0.00120934
0.00120924
0.00118271
0.00118267
0.00121118
0.00118066
0.00120935
0.00120935
0.00118272
0.00118273
0.00120926
0.00118266
0.0011827
0.00121134
0.00118069
0.00120926
0.00118272
0.00118271
0.00118072
0.00117581
0.00114535
0.00117385
0.00117387
0.00114735
0.00114746
0.00117585
0.00114549
0.00117385
0.00117384
0.00114734
0.00114731
0.00117389
0.00114747
0.00114738
0.0011758
0.00114532
0.00117389
0.00114732
0.00114737
0.00114536
0.0011405
0.00110993
0.00113852
0.00113857
0.00111194
0.00111181
0.00114057
0.00110973
0.00113851
0.00113851
0.00111195
0.00111198
0.00113851
0.00111181
0.0011119
0.00114049
0.00110996
0.0011385
0.00111198
0.00111191
0.00110988
0.00110504
0.00107447
0.00110306
0.00110297
0.00107648
0.00107658
0.00110489
0.00107465
0.00110307
0.00110309
0.00107648
0.00107646
0.00110304
0.00107658
0.00107652
0.00110506
0.00107444
0.00110306
0.00107647
0.00107652
0.00107451
0.00106962
0.00103917
0.00106765
0.00106776
0.00104117
0.00104112
0.00106978
0.00103906
0.00106765
0.00106763
0.00104116
0.00104117
0.00106768
0.00104112
0.00104115
0.00106959
0.00103919
0.00106767
0.00104117
0.00104115
0.00103915
0.00103429
0.00100374
0.00103231
0.00103225
0.00100574
0.00100575
0.00103418
0.00100377
0.00103231
0.00103233
0.00100575
0.00100575
0.00103231
0.00100575
0.00100576
0.00103431
0.00100373
0.00103231
0.00100575
0.00100577
0.00100376
0.000998873
0.00096836
0.000996903
0.000996925
0.000970366
0.000970366
0.000998912
0.000968342
0.00099691
0.000996898
0.000970361
0.000970342
0.000996905
0.00097036
0.000970323
0.000998856
0.00096834
0.000996912
0.000970339
0.00097032
0.000968305
0.000963464
0.000932897
0.000961497
0.000961491
0.000934905
0.000934912
0.000963449
0.00093291
0.00096149
0.000961493
0.000934909
0.00093496
0.000961475
0.000934917
0.000934963
0.000963466
0.000932967
0.00096147
0.000934963
0.000934965
0.00093298
0.00092804
0.000897624
0.000926074
0.000926075
0.000899602
0.000899593
0.000928044
0.000897612
0.00092608
0.000926115
0.000899601
0.000899547
0.000926123
0.000899595
0.000899568
0.000928091
0.000897532
0.000926128
0.000899548
0.000899567
0.000897558
0.00089273
0.000862066
0.000890744
0.00089075
0.000864099
0.000864123
0.000892732
0.000862093
0.000890739
0.000890678
0.000864089
0.000864085
0.000890702
0.000864116
0.000864087
0.000892639
0.000862076
0.000890696
0.000864081
0.00086408
0.00086207
0.000857177
0.000826666
0.000855223
0.000855225
0.000828647
0.00082861
0.000857183
0.000826606
0.000855218
0.000855237
0.000828661
0.000828734
0.000855226
0.000828615
0.000828687
0.000857203
0.000826766
0.000855223
0.000828737
0.000828699
0.000826714
0.000821791
0.000791287
0.000819806
0.00081977
0.000793276
0.000793295
0.000821737
0.000791327
0.000819821
0.000819883
0.000793276
0.000793226
0.000819841
0.000793295
0.000793253
0.00082188
0.000791184
0.000819855
0.000793227
0.000793252
0.000791238
0.00078639
0.000755712
0.000784413
0.000784449
0.000757743
0.000757786
0.000786442
0.000755761
0.000784403
0.000784315
0.000757726
0.000757698
0.000784374
0.000757783
0.000757749
0.000786264
0.000755704
0.000784364
0.000757695
0.000757733
0.000755742
0.000750809
0.000720274
0.000748851
0.000748869
0.000722247
0.00072219
0.000750835
0.000720181
0.000748842
0.000748859
0.000722262
0.000722334
0.000748879
0.000722194
0.000722264
0.000750836
0.000720369
0.00074887
0.000722338
0.000722278
0.000720278
0.000715388
0.000684756
0.000713392
0.00071333
0.000686762
0.000686772
0.000715297
0.000684795
0.000713409
0.000713458
0.000686764
0.000686724
0.000713383
0.000686768
0.000686723
0.00071546
0.000684686
0.0007134
0.00068672
0.000686724
0.000684711
0.000679834
0.000649154
0.000677861
0.000677899
0.000651164
0.000651201
0.000679893
0.000649191
0.000677856
0.000677807
0.000651153
0.000651137
0.000677838
0.000651203
0.000651191
0.000679764
0.000649145
0.000677832
0.000651138
0.00065118
0.000649195
0.000644254
0.00061365
0.00064228
0.000642292
0.000615635
0.000615594
0.000644269
0.00061359
0.000642272
0.000642269
0.00061564
0.000615656
0.000642306
0.000615594
0.000615623
0.000644253
0.000613673
0.000642298
0.000615657
0.000615629
0.000613626
0.000608731
0.000577961
0.000606735
0.000606701
0.000579979
0.000580003
0.00060868
0.000578005
0.000606743
0.000606763
0.000579984
0.000580011
0.000606725
0.000580005
0.000580015
0.000608757
0.000577996
0.000606733
0.000580013
0.00058002
0.000578015
0.000573039
0.000542378
0.000571064
0.000571095
0.000544365
0.000544363
0.000573084
0.000542365
0.000571066
0.000571084
0.000544359
0.000544329
0.000571101
0.000544361
0.00054433
0.000573065
0.000542324
0.000571103
0.000544327
0.000544324
0.000542312
0.000537463
0.000506696
0.000535466
0.000535452
0.000508705
0.000508692
0.00053744
0.000506685
0.000535461
0.00053542
0.000508704
0.000508689
0.000535409
0.000508688
0.000508679
0.000537404
0.000506689
0.000535403
0.000508685
0.000508677
0.000506686
0.000501754
0.000470948
0.000499766
0.000499763
0.000472957
0.000472969
0.000501751
0.000470965
0.000499767
0.00049977
0.00047296
0.000472991
0.000499773
0.000472975
0.00047301
0.000501762
0.000470992
0.000499774
0.000472996
0.000473013
0.000471012
0.00046602
0.000435252
0.000464032
0.000464041
0.000437249
0.000437245
0.000466034
0.000435243
0.000464034
0.000464061
0.000437248
0.000437242
0.000464072
0.000437243
0.000437232
0.000466058
0.000435234
0.000464075
0.000437241
0.000437232
0.000435218
0.000430308
0.000399422
0.000428307
0.0004283
0.000401437
0.000401435
0.000430298
0.00039942
0.000428305
0.00042829
0.000401436
0.000401426
0.000428279
0.000401434
0.000401425
0.000430286
0.000399411
0.000428278
0.000401424
0.000401424
0.000399414
0.000394475
0.000363673
0.000392484
0.000392484
0.000365662
0.000365668
0.000394476
0.00036368
0.000392483
0.000392482
0.000365664
0.000365681
0.000392485
0.00036567
0.000365681
0.000394473
0.000363695
0.000392485
0.000365682
0.000365683
0.000363694
0.000358737
0.000327815
0.000356727
0.00035673
0.000329832
0.000329826
0.000358741
0.000327807
0.000356729
0.000356738
0.000329829
0.000329814
0.000356734
0.000329824
0.000329806
0.000358753
0.000327787
0.000356735
0.000329812
0.000329804
0.000327776
0.000322833
0.000291741
0.000320827
0.000320822
0.000293781
0.000293788
0.000322825
0.000291755
0.000320824
0.000320803
0.00029378
0.000293785
0.0003208
0.000293789
0.000293812
0.000322802
0.000291758
0.000320798
0.000293787
0.000293812
0.000291796
0.000286796
0.000256111
0.000284814
0.000284822
0.000258062
0.000258054
0.000286809
0.000256094
0.000284814
0.00028483
0.000258066
0.000258082
0.000284855
0.000258055
0.000258056
0.000286821
0.00025613
0.000284856
0.000258083
0.00025806
0.000256084
0.000251182
0.000220052
0.000249141
0.000249125
0.000222103
0.000222096
0.000251159
0.000220049
0.000249144
0.000249149
0.000222103
0.000222082
0.000249107
0.000222093
0.00022207
0.000251192
0.000220019
0.00024911
0.000222077
0.000222069
0.000220022
0.000215013
0.00018376
0.000213004
0.000213011
0.000185802
0.000185835
0.000215021
0.000183808
0.000213002
0.000212982
0.000185798
0.000185817
0.000212999
0.000185842
0.000185867
0.000214983
0.000183796
0.000212997
0.000185823
0.000185863
0.000183847
0.000178834
0.000148176
0.000176846
0.000176871
0.000150117
0.000150092
0.000178872
0.000148131
0.000176844
0.000176866
0.000150118
0.000150105
0.000176895
0.000150087
0.000150057
0.000178872
0.000148148
0.000176893
0.000150101
0.000150059
0.00014808
0.000143224
0.00011188
0.000141164
0.00014113
0.000113978
0.000113963
0.000143171
0.000111869
0.000141164
0.000141137
0.00011398
0.000113977
0.000141091
0.000113964
0.000113993
0.000143183
0.000111888
0.000141092
0.000113975
0.000113994
0.000111929
0.000106839
7.56545e-05
0.000104859
0.000104856
7.76935e-05
7.77234e-05
0.000106836
7.56995e-05
0.000104861
0.00010488
7.76937e-05
7.77182e-05
0.000104909
7.77265e-05
7.77174e-05
0.000106865
7.56808e-05
0.00010491
7.77232e-05
7.77181e-05
7.56638e-05
7.07429e-05
3.98702e-05
6.87209e-05
6.87563e-05
4.18641e-05
4.18432e-05
7.07921e-05
3.98134e-05
6.87195e-05
6.87244e-05
4.18645e-05
4.18488e-05
6.87182e-05
4.18367e-05
4.18149e-05
7.07516e-05
3.98462e-05
6.87174e-05
4.18425e-05
4.18158e-05
3.97991e-05
3.50933e-05
6.17824e-06
3.29984e-05
3.29272e-05
7.68504e-06
7.64509e-06
3.49914e-05
6.14815e-06
3.30038e-05
3.29932e-05
7.68478e-06
7.66135e-06
3.29389e-05
7.64353e-06
7.68173e-06
3.50736e-05
6.15225e-06
3.29438e-05
7.66013e-06
7.68213e-06
6.19149e-06
4.53103e-06
5.85563e-06
5.86147e-06
4.55395e-06
5.85629e-06
5.83264e-06
8.60088e-06
8.58222e-06
8.60926e-06
5.87162e-06
4.50319e-06
5.87283e-06
0.00362584
0.00363602
0.00363055
0.00363055
0.00365309
0.00364002
0.00366826
0.00363396
0.00365309
0.00364002
0.00363397
0.00366826
0.00364454
0.00367198
0.00367198
0.00358001
0.00360398
0.00360887
0.00357042
0.00358071
0.00357257
0.00358
0.003604
0.00360885
0.0035704
0.0036078
0.0036078
0.0036078
0.00356082
0.00356082
0.00356082
0.00356082
0.0035778
0.00360494
0.00360759
0.00358537
0.00360757
0.00357529
0.00358627
0.00358078
0.00357255
0.0035778
0.00360759
0.00360495
0.00358537
0.00360758
0.00358627
0.00357528
0.00360964
0.00360964
0.0035805
0.00357566
0.00357566
0.00353504
0.00355459
0.00355557
0.00353353
0.00355327
0.00353306
0.00353504
0.0035546
0.00355557
0.00353352
0.00354943
0.00354943
0.00354943
0.00351138
0.00351138
0.00351138
0.00351138
0.00353364
0.00355432
0.00354958
0.00353745
0.00355308
0.00353399
0.00353735
0.00355329
0.00353306
0.00353364
0.00354958
0.00355432
0.00353745
0.00355308
0.00353735
0.003534
0.00355549
0.00355549
0.00353401
0.00353444
0.00353444
0.00348257
0.00350138
0.00350244
0.00348155
0.00350101
0.00348126
0.00348257
0.00350138
0.00350244
0.00348155
0.00349811
0.00349811
0.00349811
0.00345884
0.00345884
0.00345884
0.00345884
0.00348166
0.00350172
0.00349805
0.00348497
0.00350123
0.00348198
0.0034849
0.00350101
0.00348126
0.00348166
0.00349805
0.00350172
0.00348497
0.00350123
0.0034849
0.00348197
0.003502
0.003502
0.0034817
0.00348208
0.00348208
0.00343005
0.0034487
0.00344956
0.00342929
0.00344849
0.00342911
0.00343005
0.0034487
0.00344956
0.00342929
0.00344586
0.00344586
0.00344586
0.00340722
0.00340722
0.00340722
0.00340722
0.00342955
0.00344908
0.00344582
0.00343291
0.00344884
0.00342971
0.00343288
0.00344849
0.00342911
0.00342955
0.00344582
0.00344908
0.00343291
0.00344884
0.00343288
0.00342971
0.00344913
0.00344913
0.00342965
0.00342966
0.00342966
0.00337885
0.00339722
0.00339784
0.00337831
0.00339706
0.00337816
0.00337885
0.00339722
0.00339784
0.00337831
0.00339449
0.00339449
0.00339449
0.00335687
0.00335687
0.00335687
0.00335687
0.00337858
0.00339755
0.00339447
0.00338186
0.0033974
0.00337868
0.00338184
0.00339706
0.00337816
0.00337858
0.00339447
0.00339755
0.00338186
0.0033974
0.00338184
0.00337868
0.00339754
0.00339754
0.00337871
0.00337859
0.00337859
0.00332921
0.00334716
0.00334761
0.00332882
0.00334704
0.0033287
0.00332921
0.00334716
0.00334761
0.00332882
0.00334452
0.00334451
0.00334451
0.00330799
0.00330799
0.00330799
0.00330799
0.00332909
0.00334746
0.0033445
0.00333227
0.00334735
0.00332915