/*--------------------------------*- C++ -*----------------------------------*\
| =========                 |                                                 |
| \\      /  F ield         | OpenFOAM: The Open Source CFD Toolbox           |
|  \\    /   O peration     | Version:  2312                                  |
|   \\  /    A nd           | Website:  www.openfoam.com                      |
|    \\/     M anipulation  |                                                 |
\*---------------------------------------------------------------------------*/
FoamFile
{
    version     2.0;
    format      ascii;
    arch        "LSB;label=32;scalar=64";
    class       volScalarField;
    location    "650";
    object      nut;
}
// * * * * * * * * * * * * * * * * * * * * * * * * * * * * * * * * * * * * * //

dimensions      [0 2 -1 0 0 0 0];

internalField   nonuniform List<scalar> 
43496
(
9.98379e-05
2.3891e-05
0.000200499
0.000103599
0.000144111
0.00021002
9.98352e-05
5.07359e-05
0.000144107
0.000200464
0.000210018
0.000103579
0.000182019
7.78903e-05
7.7903e-05
2.38932e-05
5.07439e-05
3.67102e-05
9.98113e-05
9.44607e-05
4.10572e-05
9.44277e-05
4.10507e-05
3.6716e-05
2.03164e-05
7.90783e-05
7.90604e-05
2.03185e-05
2.38891e-05
3.67118e-05
9.98089e-05
4.10569e-05
9.44453e-05
4.10505e-05
9.44233e-05
3.67109e-05
2.03155e-05
7.90574e-05
5.07353e-05
7.90405e-05
2.03175e-05
8.14831e-05
2.17077e-05
2.17109e-05
2.17057e-05
2.17089e-05
8.14909e-05
0.000105199
4.8647e-05
7.78818e-05
0.000128755
4.86391e-05
0.000128696
0.000105223
0.000105196
4.86595e-05
7.78949e-05
0.000128784
0.000128726
4.86516e-05
0.00010522
2.38912e-05
5.07377e-05
0.000203204
0.000206575
0.000203211
0.000103557
0.000147561
0.000147501
0.000171139
0.000144037
0.000137579
0.000176442
0.000137486
0.000176445
0.00017135
0.000160588
0.000122738
0.000122671
0.000160794
0.000171212
0.000144034
0.000176433
0.000137556
0.000176444
0.000137491
0.000171257
0.000160673
0.000122719
0.00010354
0.000147517
0.000122667
0.00016069
0.000147479
0.000138282
0.0001818
0.000161757
0.000161779
0.000161695
0.000161673
0.00013833
0.000203448
0.000198751
0.000198761
0.000180593
0.000205958
0.000200153
0.000200162
0.000181623
0.000180672
0.00018149
0.000198738
0.000198717
0.000199794
0.000199769
0.000180675
0.000181467
0.000198748
0.000198726
0.000199806
0.000199784
0.000198724
0.000199805
0.000199786
0.000180614
0.000181555
0.000198737
0.000199818
0.000199795
0.000181463
0.000181608
0.000200139
0.000200118
0.000181638
0.000200149
0.000200127
0.000200126
0.000181566
0.000200138
9.97271e-05
5.07159e-05
5.0727e-05
9.96665e-05
2.38784e-05
2.38829e-05
9.97263e-05
5.07133e-05
5.07198e-05
9.96581e-05
0.000203442
0.000203457
0.000203447
0.000205339
0.000205329
0.000205347
0.000205342
0.000143713
0.000103359
0.000207741
0.000199104
0.000103445
0.000208205
0.000143498
2.38775e-05
2.38819e-05
0.000143704
0.000207748
0.00010336
0.000199118
0.000208216
0.000103446
0.00014351
7.7809e-05
7.78052e-05
0.000180998
7.78368e-05
7.78301e-05
5.07363e-05
9.97874e-05
2.38876e-05
5.07341e-05
9.97826e-05
0.000205952
0.000205966
0.000205955
0.000144121
0.000103519
0.000209579
0.000143923
0.00021002
2.38868e-05
0.000144119
0.000209586
0.00010352
0.000143919
0.000210031
7.78721e-05
7.7868e-05
0.000181912
7.78952e-05
7.78905e-05
2.38804e-05
2.38849e-05
2.38785e-05
2.38828e-05
7.78187e-05
7.78132e-05
0.000181004
7.7846e-05
7.78384e-05
2.38895e-05
2.38851e-05
2.38874e-05
2.38831e-05
0.00018116
7.78769e-05
7.78695e-05
7.78511e-05
7.78456e-05
9.97238e-05
5.07103e-05
5.07215e-05
9.96624e-05
0.00014371
0.00010336
0.000207739
0.000199094
0.000103446
0.000208206
0.000143516
0.000143705
0.000103336
0.000207731
0.000199069
0.000103422
0.000208197
0.000143512
9.97282e-05
5.0737e-05
5.07263e-05
9.9787e-05
9.97225e-05
5.07317e-05
5.07207e-05
9.97858e-05
0.000143733
0.000199448
0.000103524
0.000209125
0.000103442
0.00020867
0.000143917
0.000143728
0.000199428
0.000103501
0.000209116
0.000103418
0.000208662
0.000143912
7.77966e-05
7.782e-05
0.000180992
7.78262e-05
7.78456e-05
2.38798e-05
2.38842e-05
2.38875e-05
2.3883e-05
0.000181151
7.78571e-05
7.78766e-05
7.7829e-05
7.78523e-05
2.38888e-05
2.38844e-05
0.000143706
0.000103351
0.000207738
0.000199105
0.000103437
0.000208205
0.000143499
9.97197e-05
5.07095e-05
5.07159e-05
9.96586e-05
0.000143701
0.000207737
0.000103342
0.000199083
0.000208204
0.000103426
0.000143507
9.97202e-05
5.07303e-05
5.07237e-05
9.97825e-05
0.000143724
0.000199459
0.000103515
0.000209124
0.000103433
0.000208669
0.000143912
9.97207e-05
5.07262e-05
5.07198e-05
9.97793e-05
0.000143724
0.000199436
0.000209122
0.000103505
0.000208667
0.000103424
0.000143908
9.97192e-05
5.07122e-05
5.07233e-05
9.96506e-05
0.000143715
0.000207737
0.000103348
0.000199086
0.000208204
0.000103433
0.0001435
9.97253e-05
5.07106e-05
5.07171e-05
9.96567e-05
0.000143715
0.000199462
0.000103524
0.000209124
0.000103441
0.000208671
0.000143921
9.9713e-05
5.07335e-05
5.07226e-05
9.97787e-05
0.000143717
0.000199434
0.000209123
0.000103511
0.000208669
0.00010343
0.000143923
9.97183e-05
5.07274e-05
5.0721e-05
9.97813e-05
7.78035e-05
7.78169e-05
0.000181077
7.78317e-05
7.7844e-05
2.38797e-05
2.38841e-05
2.38865e-05
2.38822e-05
0.000181086
7.78624e-05
7.78751e-05
7.7836e-05
7.78491e-05
2.38887e-05
2.38843e-05
0.000143695
0.000207739
0.000103342
0.000199095
0.000208206
0.000103427
0.000143502
9.97156e-05
5.07123e-05
5.07235e-05
9.96527e-05
9.97056e-05
5.0709e-05
5.07155e-05
9.96415e-05
0.000143727
0.000199471
0.000209135
0.000103524
0.000208679
0.000103442
0.000143916
0.000143718
0.000199447
0.000209124
0.000103505
0.00020867
0.000103424
0.000143905
9.97126e-05
5.07336e-05
5.07227e-05
9.97767e-05
9.97039e-05
5.07258e-05
5.07194e-05
9.9766e-05
2.38784e-05
2.38828e-05
2.38773e-05
2.38817e-05
0.000181115
7.78677e-05
7.7861e-05
7.78415e-05
7.78376e-05
2.38874e-05
2.3883e-05
2.38863e-05
2.3882e-05
2.38897e-05
2.38877e-05
7.78814e-05
7.78758e-05
5.07307e-05
9.97791e-05
0.000103521
0.000209577
0.00014394
0.000103496
0.000209569
0.000143935
7.78592e-05
7.78826e-05
2.3889e-05
0.000103513
0.000209577
0.000143934
5.07298e-05
9.97803e-05
0.000209575
0.000103502
0.000143932
9.98352e-05
5.07326e-05
9.97723e-05
0.000144123
0.000209576
0.000103509
0.000200467
0.000143924
0.000210019
0.000103586
9.98368e-05
5.07311e-05
9.97816e-05
5.0737e-05
7.7867e-05
7.78799e-05
2.38889e-05
0.000144111
0.000209578
0.000103503
0.000200477
0.000143914
0.00021002
0.000103579
9.98332e-05
5.0733e-05
9.97704e-05
9.98229e-05
5.07295e-05
9.97602e-05
5.07354e-05
2.38876e-05
2.38919e-05
2.38866e-05
2.38908e-05
3.66992e-05
4.10402e-05
9.43689e-05
9.96978e-05
4.10343e-05
9.43445e-05
3.66983e-05
2.03086e-05
5.07218e-05
7.90069e-05
7.90254e-05
2.03066e-05
2.03085e-05
7.90374e-05
5.07212e-05
7.90192e-05
2.03105e-05
3.66946e-05
9.96967e-05
4.10322e-05
9.43199e-05
4.10347e-05
9.4345e-05
3.66956e-05
2.38805e-05
2.38807e-05
3.66952e-05
9.43687e-05
4.104e-05
9.96888e-05
9.43343e-05
4.10338e-05
3.67021e-05
2.0309e-05
5.07147e-05
7.90022e-05
7.90214e-05
2.03069e-05
2.03089e-05
7.90335e-05
5.07184e-05
7.90143e-05
2.03109e-05
3.66983e-05
9.96956e-05
9.43104e-05
4.10298e-05
9.43446e-05
4.10356e-05
3.66912e-05
2.38796e-05
2.38799e-05
8.14422e-05
2.17029e-05
2.16997e-05
2.17009e-05
2.16977e-05
8.145e-05
0.000105055
0.000128359
7.78208e-05
4.86251e-05
0.000128422
4.86326e-05
0.000105032
0.000105061
0.00012834
7.78138e-05
4.86185e-05
0.000128405
4.86185e-05
0.00010504
0.000105064
4.86373e-05
7.78255e-05
0.000128495
0.000128433
4.86301e-05
0.000105087
0.000105073
4.86232e-05
7.78217e-05
0.000128478
0.000128414
4.86233e-05
0.000105093
8.14396e-05
2.1699e-05
2.16958e-05
2.17011e-05
2.16978e-05
8.14317e-05
2.03162e-05
7.90537e-05
5.07428e-05
2.03142e-05
7.9072e-05
3.67089e-05
9.98168e-05
4.1047e-05
9.44158e-05
3.67105e-05
4.1054e-05
9.44383e-05
2.38898e-05
2.03166e-05
7.90494e-05
5.07345e-05
2.03145e-05
7.90675e-05
3.67127e-05
9.9811e-05
9.44064e-05
4.10469e-05
3.67062e-05
9.44384e-05
4.10526e-05
2.38888e-05
8.14812e-05
2.17103e-05
2.17071e-05
2.17084e-05
2.17051e-05
8.14884e-05
0.000105179
0.000128647
4.86443e-05
7.78821e-05
0.000105159
0.000128704
4.8651e-05
0.000105186
0.000128627
4.86377e-05
7.78761e-05
0.000105167
0.000128686
4.86373e-05
8.14791e-05
2.17065e-05
2.17033e-05
8.14721e-05
2.17085e-05
2.17053e-05
0.000105189
4.8654e-05
7.78874e-05
0.00012877
0.000128715
4.86515e-05
0.000105211
0.000105196
4.86414e-05
7.78825e-05
0.000128753
0.000128695
4.86423e-05
0.000105218
2.38826e-05
2.38828e-05
2.38805e-05
2.38808e-05
8.14476e-05
2.17033e-05
2.17e-05
2.17013e-05
2.1698e-05
8.14555e-05
0.000105064
0.000128373
7.78299e-05
4.8628e-05
4.86355e-05
0.00012843
0.00010504
0.000105063
0.000128349
7.7822e-05
4.86194e-05
4.86193e-05
0.000128412
0.000105043
0.000105072
4.86403e-05
7.7835e-05
0.000128503
4.8633e-05
0.000105096
0.000128446
0.000105076
4.8624e-05
7.78297e-05
0.000128485
4.86241e-05
0.000105096
0.000128423
8.14451e-05
2.16994e-05
2.16961e-05
2.17014e-05
2.16981e-05
8.1437e-05
2.38874e-05
2.38872e-05
2.38854e-05
2.38851e-05
8.14655e-05
2.17031e-05
2.16998e-05
8.14578e-05
2.17052e-05
2.17019e-05
0.000105135
0.000128644
7.78662e-05
4.86498e-05
4.86422e-05
0.00012859
0.000105159
0.000105139
0.000128626
7.78612e-05
4.86338e-05
4.8634e-05
0.000128566
0.000105158
0.000105128
4.86377e-05
0.000128519
7.78617e-05
0.000105104
4.86447e-05
0.000128574
0.000105127
4.8629e-05
0.000128495
7.78544e-05
0.000105108
4.86292e-05
0.000128556
8.14677e-05
2.1707e-05
2.17037e-05
2.1705e-05
2.17017e-05
8.14753e-05
3.66977e-05
4.10404e-05
9.43569e-05
9.96934e-05
4.10343e-05
9.43326e-05
3.66968e-05
2.03079e-05
5.07163e-05
7.89847e-05
7.90031e-05
2.03059e-05
2.03078e-05
7.90151e-05
5.07156e-05
7.89969e-05
2.03099e-05
3.66932e-05
9.96929e-05
4.10303e-05
9.4308e-05
4.10359e-05
9.43329e-05
3.66941e-05
3.6702e-05
4.10389e-05
9.43686e-05
9.97577e-05
3.67028e-05
4.10446e-05
9.43933e-05
2.03123e-05
5.07314e-05
7.90608e-05
2.03143e-05
7.90426e-05
2.03124e-05
7.90312e-05
5.07318e-05
2.03104e-05
7.90492e-05
3.67066e-05
9.97581e-05
4.1049e-05
9.44166e-05
3.6706e-05
4.10433e-05
9.43922e-05
3.67005e-05
4.10388e-05
9.43568e-05
9.97552e-05
3.67013e-05
4.10446e-05
9.43814e-05
2.03116e-05
5.07257e-05
7.90383e-05
7.90208e-05
2.03136e-05
2.03118e-05
7.90088e-05
5.07263e-05
2.03097e-05
7.9027e-05
3.67052e-05
9.97506e-05
4.10491e-05
9.44042e-05
4.10431e-05
9.43807e-05
3.67043e-05
8.14452e-05
2.17e-05
2.17031e-05
2.1698e-05
2.1701e-05
8.14524e-05
0.000105063
0.000128339
7.78099e-05
4.86151e-05
4.86225e-05
0.000128398
0.00010504
0.000105059
0.000128371
7.78293e-05
4.86307e-05
0.000128432
4.86305e-05
0.000105039
0.000105073
4.86273e-05
7.78132e-05
0.000128471
4.86201e-05
0.000128413
0.000105096
0.000105072
4.86353e-05
7.78364e-05
0.000128505
0.000128445
4.86354e-05
0.000105091
8.14421e-05
2.16961e-05
2.16991e-05
2.16981e-05
2.17012e-05
8.14347e-05
2.38818e-05
2.38821e-05
2.38853e-05
2.38852e-05
8.14625e-05
2.16999e-05
2.17029e-05
8.14554e-05
2.17019e-05
2.17049e-05
0.000105136
0.000128611
7.78442e-05
4.86368e-05
0.000128556
4.86293e-05
0.000105158
0.000105135
0.000128646
7.78677e-05
4.86448e-05
4.86452e-05
0.000128588
0.000105154
0.000105127
4.86248e-05
0.000128485
7.78414e-05
0.000128542
0.000105105
4.86317e-05
0.000105123
4.86403e-05
0.000128517
7.78612e-05
0.000105104
4.86405e-05
0.000128576
8.14653e-05
2.17038e-05
2.17068e-05
2.17017e-05
2.17048e-05
8.14722e-05
2.38867e-05
2.38865e-05
3.66973e-05
4.10397e-05
9.4354e-05
9.96901e-05
4.10337e-05
9.43296e-05
3.66964e-05
2.0308e-05
5.07108e-05
7.89817e-05
7.90005e-05
2.0306e-05
2.03079e-05
7.90126e-05
5.07146e-05
7.89941e-05
2.03099e-05
3.66928e-05
9.96891e-05
4.10296e-05
9.43048e-05
4.10353e-05
9.43297e-05
3.66938e-05
3.67057e-05
9.43591e-05
4.10384e-05
9.97552e-05
3.6699e-05
9.43928e-05
4.10442e-05
2.03127e-05
5.07288e-05
7.90566e-05
2.03147e-05
7.90382e-05
2.03128e-05
7.90263e-05
5.07253e-05
2.03108e-05
7.90451e-05
3.67029e-05
9.97524e-05
9.44167e-05
4.10487e-05
3.67089e-05
9.43828e-05
4.10426e-05
3.67001e-05
4.10381e-05
9.43539e-05
9.97504e-05
3.67009e-05
4.1044e-05
9.43785e-05
2.03117e-05
5.07252e-05
7.90358e-05
7.9018e-05
2.03137e-05
2.03118e-05
7.90062e-05
5.07214e-05
2.03098e-05
7.90244e-05
3.67047e-05
9.97509e-05
4.10483e-05
9.44014e-05
4.10424e-05
9.43778e-05
3.67041e-05
3.66948e-05
9.43572e-05
4.10396e-05
9.96818e-05
9.43233e-05
4.10331e-05
3.67023e-05
2.03092e-05
5.07181e-05
7.89988e-05
7.90112e-05
2.03071e-05
2.0309e-05
7.90232e-05
5.07175e-05
7.9011e-05
2.03111e-05
3.66984e-05
9.96882e-05
9.42987e-05
4.10292e-05
9.43328e-05
4.10352e-05
3.66911e-05
3.66941e-05
4.10403e-05
9.43615e-05
9.96877e-05
4.10341e-05
9.43272e-05
3.67002e-05
2.03083e-05
5.0712e-05
7.89825e-05
7.90017e-05
2.03062e-05
2.03081e-05
7.90136e-05
5.07157e-05
7.89948e-05
2.03102e-05
3.66969e-05
9.96941e-05
4.103e-05
9.43032e-05
4.10358e-05
9.43371e-05
3.669e-05
3.67059e-05
9.4348e-05
4.10377e-05
9.97495e-05
3.66987e-05
9.43812e-05
4.10438e-05
2.03128e-05
5.07276e-05
7.90461e-05
7.90344e-05
2.03149e-05
2.0313e-05
7.90229e-05
5.07281e-05
2.03109e-05
7.90349e-05
3.67024e-05
9.97431e-05
9.44044e-05
4.10481e-05
9.43717e-05
4.10418e-05
3.67092e-05
3.67027e-05
4.10386e-05
9.43522e-05
9.97549e-05
3.66997e-05
4.10441e-05
9.43845e-05
2.0312e-05
5.07263e-05
7.90365e-05
7.90186e-05
2.0314e-05
2.03121e-05
7.90069e-05
5.07225e-05
2.03101e-05
7.90252e-05
3.67044e-05
9.97517e-05
4.10469e-05
9.4405e-05
4.10448e-05
9.43792e-05
3.67053e-05
8.1444e-05
2.17002e-05
2.17035e-05
2.16982e-05
2.17014e-05
8.14519e-05
0.000105067
0.000128342
7.78153e-05
4.86157e-05
4.86231e-05
0.000128407
0.000105043
0.000105064
0.000128371
7.78279e-05
4.86279e-05
0.000128435
4.86352e-05
0.00010504
0.000105076
4.86278e-05
7.78202e-05
0.000128479
4.86207e-05
0.000128416
0.0001051
0.000105073
4.86401e-05
7.78331e-05
0.000128508
0.000128445
4.86329e-05
0.000105096
8.14416e-05
2.16963e-05
2.16996e-05
2.16984e-05
2.17016e-05
8.14335e-05
2.38818e-05
2.3882e-05
2.38845e-05
2.38842e-05
8.1462e-05
2.17001e-05
2.17033e-05
8.14542e-05
2.17021e-05
2.17053e-05
0.000105139
0.00012862
7.78516e-05
4.86372e-05
0.00012856
4.86298e-05
0.000105162
0.000105136
0.000128649
7.78641e-05
4.86494e-05
4.8642e-05
0.000128588
0.000105159
0.000105132
4.86254e-05
0.000128488
7.78468e-05
0.00012855
0.000105108
4.86323e-05
0.000105129
4.86376e-05
0.000128517
7.78599e-05
0.000105105
4.86445e-05
0.000128579
8.14641e-05
2.1704e-05
2.17072e-05
2.1702e-05
2.17052e-05
8.14718e-05
2.38867e-05
2.38864e-05
3.66997e-05
9.43655e-05
4.10365e-05
9.96838e-05
9.43411e-05
4.10366e-05
3.66987e-05
2.03097e-05
5.07183e-05
7.90034e-05
7.90221e-05
2.03076e-05
2.03095e-05
7.90342e-05
5.07177e-05
7.90154e-05
2.03116e-05
3.66951e-05
9.96847e-05
9.43167e-05
4.10321e-05
9.43416e-05
4.10324e-05
3.66961e-05
3.66967e-05
9.43462e-05
4.10359e-05
9.96734e-05
9.43203e-05
4.10361e-05
3.66956e-05
2.03078e-05
5.07104e-05
7.89805e-05
7.89994e-05
2.03057e-05
2.03076e-05
7.90114e-05
5.07141e-05
7.89927e-05
2.03097e-05
3.6692e-05
9.96749e-05
9.42954e-05
4.10317e-05
9.43221e-05
4.10318e-05
3.66931e-05
3.67024e-05
9.43652e-05
4.10407e-05
9.9747e-05
3.67033e-05
9.43899e-05
4.10409e-05
2.03133e-05
5.07276e-05
7.90572e-05
7.90389e-05
2.03154e-05
2.03135e-05
7.90273e-05
5.07284e-05
2.03115e-05
7.90458e-05
3.6707e-05
9.97412e-05
9.44141e-05
4.1045e-05
9.43862e-05
4.1045e-05
3.67064e-05
3.66993e-05
9.43445e-05
4.10402e-05
9.97364e-05
3.67003e-05
9.43706e-05
4.10403e-05
2.03115e-05
5.07247e-05
7.90347e-05
7.90164e-05
2.03135e-05
2.03116e-05
7.90047e-05
5.0721e-05
2.03096e-05
7.90232e-05
3.67041e-05
9.97326e-05
9.43936e-05
4.10444e-05
9.43684e-05
4.10445e-05
3.67033e-05
2.38804e-05
2.38807e-05
2.38793e-05
2.38797e-05
8.14599e-05
2.17028e-05
2.16996e-05
8.14524e-05
2.17048e-05
2.17016e-05
0.000105128
0.000128635
7.78569e-05
4.86467e-05
0.000105149
0.000128577
4.86394e-05
0.000105136
0.000128618
7.78532e-05
4.86328e-05
0.000105155
0.000128558
4.86331e-05
0.000105119
4.86349e-05
0.000128505
7.78519e-05
0.000105097
0.000128566
4.86416e-05
0.000105125
4.86281e-05
0.000128487
7.78461e-05
0.000105105
0.000128549
4.86285e-05
8.14623e-05
2.17067e-05
2.17034e-05
8.14696e-05
2.17047e-05
2.17014e-05
2.38854e-05
2.38851e-05
2.38843e-05
2.3884e-05
2.38918e-05
2.38897e-05
0.00010519
0.000128659
4.86469e-05
7.78921e-05
0.000105166
4.86551e-05
0.000128712
0.000105191
0.000128635
4.86376e-05
7.7886e-05
0.000105168
4.86397e-05
0.000128693
8.14852e-05
2.17069e-05
2.17036e-05
8.14773e-05
2.17089e-05
2.17056e-05
2.03155e-05
7.90312e-05
5.07373e-05
2.03135e-05
7.90498e-05
3.67075e-05
9.98156e-05
4.10468e-05
9.44033e-05
4.10539e-05
3.67089e-05
9.44283e-05
0.000105186
0.000128625
4.8634e-05
7.78727e-05
4.86421e-05
0.000105167
0.00012868
0.000105184
0.000128658
4.86499e-05
7.78912e-05
0.000128714
0.000105165
4.86487e-05
8.14815e-05
2.17036e-05
2.17066e-05
2.17056e-05
8.1475e-05
2.17086e-05
2.03156e-05
7.90291e-05
5.07314e-05
2.03136e-05
7.9047e-05
3.67076e-05
9.98084e-05
4.10466e-05
9.44009e-05
4.10523e-05
3.67081e-05
9.44244e-05
3.67116e-05
9.98005e-05
4.10567e-05
9.44169e-05
4.105e-05
2.03168e-05
7.90458e-05
5.07389e-05
7.90575e-05
2.03147e-05
3.67125e-05
9.98071e-05
9.43949e-05
4.10462e-05
9.44267e-05
3.67066e-05
4.1052e-05
2.03165e-05
3.67128e-05
9.98104e-05
4.10539e-05
9.4448e-05
4.10544e-05
9.44258e-05
3.67124e-05
2.03159e-05
7.90297e-05
5.07324e-05
2.03138e-05
7.90477e-05
3.67083e-05
9.98099e-05
4.10499e-05
9.4403e-05
3.67085e-05
4.10504e-05
9.4427e-05
2.03157e-05
7.90584e-05
5.07362e-05
7.90405e-05
2.03177e-05
0.000105193
0.000128629
4.86351e-05
7.78765e-05
4.86418e-05
0.00010517
0.000128688
0.00010519
0.000128658
4.86475e-05
7.78895e-05
0.000128717
0.000105167
4.86542e-05
8.14813e-05
2.17038e-05
2.1707e-05
2.17058e-05
8.14738e-05
2.17091e-05
2.3891e-05
3.6714e-05
9.97986e-05
9.44605e-05
4.10545e-05
9.44283e-05
4.10528e-05
3.67134e-05
2.03172e-05
7.905e-05
5.07385e-05
7.90682e-05
2.03152e-05
3.671e-05
9.98052e-05
9.44059e-05
4.10489e-05
9.44381e-05
3.67103e-05
4.10498e-05
2.03171e-05
7.9079e-05
7.90608e-05
2.03191e-05
3.67108e-05
9.97883e-05
9.44374e-05
4.10525e-05
9.44139e-05
4.10531e-05
3.67103e-05
2.03154e-05
7.90277e-05
5.07308e-05
2.03133e-05
7.90456e-05
3.6707e-05
9.97949e-05
9.43914e-05
4.10486e-05
3.67073e-05
9.44165e-05
4.10489e-05
2.03152e-05
7.90563e-05
5.07347e-05
7.90386e-05
2.03172e-05
2.38896e-05
2.38899e-05
2.38885e-05
2.38889e-05
0.000199213
0.000199214
0.000204085
0.000200023
0.000200023
0.00018932
0.000188297
0.000137895
0.000160892
0.000160879
0.000180804
0.000160964
0.00016095
0.000137854
0.000202419
0.00020242
0.000193386
0.000192375
0.000138234
0.000161539
0.000161525
0.000181697
0.000138197
0.000161588
0.000161574
0.000137904
0.000160923
0.000160904
0.00018076
0.000160973
0.000160959
0.000137865
0.000138124
0.000181405
0.000161445
0.00016144
0.000161392
0.000161386
0.000138159
0.0001379
0.000160901
0.000160915
0.000180752
0.000160971
0.000160955
0.000137861
0.00013812
0.000181399
0.000161422
0.000161451
0.000161367
0.000161395
0.000138156
0.000137908
0.000160893
0.000160914
0.000180839
0.000160997
0.000160977
0.00013786
0.000138119
0.000181332
0.000161447
0.000161469
0.000161363
0.000161388
0.000138165
0.000138114
0.00018138
0.000161442
0.000161424
0.00013815
0.000161387
0.000161369
0.000138247
0.000161547
0.00016153
0.000181752
0.000138205
0.000161619
0.000161588
0.000138237
0.000161526
0.000161548
0.000181677
0.000161589
0.000138202
0.000161562
0.000138247
0.000161513
0.000161535
0.000181782
0.000161622
0.000138202
0.0001616
0.00019921
0.000199213
0.000204075
0.000200019
0.00020002
0.00018932
0.000188297
0.000199223
0.000199226
0.000204093
0.000200032
0.000200036
0.00018933
0.000188307
0.000199221
0.000199222
0.000204088
0.000200029
0.000200034
0.000189329
0.000188307
0.000204716
0.000201626
0.000201626
0.000200828
0.000200829
0.000190341
0.000191359
0.00020471
0.000201622
0.000201623
0.000200825
0.000200828
0.000190341
0.000191358
0.000204724
0.000201635
0.000201639
0.000200838
0.000200841
0.000190351
0.000191369
0.000204714
0.000201631
0.000201638
0.000200837
0.000200836
0.000190351
0.000191368
0.000170427
0.000137226
0.000175659
0.000143607
0.00013713
0.000175522
0.000170542
0.000159994
0.000146887
0.000103405
0.000122352
0.000146964
0.000122422
0.000159866
0.000160024
0.000122488
0.0001034
0.000147088
0.000147014
0.000122419
0.000160155
0.000170333
0.000143605
0.000137038
0.000175294
0.000137134
0.00017543
0.000170226
0.00017045
0.000175603
0.000137224
0.00014362
0.000175587
0.00013715
0.000170527
0.000159983
0.000146891
0.000103405
0.000122361
0.000146966
0.000122427
0.000159898
0.000160053
0.000122495
0.000103401
0.000147091
0.000147017
0.000122426
0.000160157
0.00017033
0.000143596
0.000175352
0.000137059
0.000175373
0.000137133
0.000170248
0.000137942
0.000180859
0.000161127
0.000161114
0.000161068
0.000161054
0.000137982
0.000202416
0.000202419
0.0002032
0.000193385
0.000192374
0.000202428
0.000202431
0.000203217
0.000193395
0.000192384
0.000202428
0.000202425
0.000206572
0.000203207
0.000203219
0.000193395
0.000192384
0.000171174
0.000144024
0.000137577
0.000176515
0.000137486
0.000176378
0.000171328
0.000160634
0.000147384
0.000122614
0.000103561
0.000160475
0.000147445
0.000122679
0.000171135
0.000144021
0.000137402
0.000176161
0.000170978
0.000137492
0.0001763
0.00017117
0.000144021
0.000176525
0.000137585
0.000176398
0.000137491
0.00017138
0.000160655
0.000147377
0.00012262
0.000103562
0.000160492
0.000147449
0.000122686
0.000171157
0.000144019
0.00017619
0.000137406
0.000171028
0.0001763
0.000137498
0.000160616
0.000122747
0.000122681
0.000160815
0.000138277
0.000181853
0.000161732
0.000161719
0.000161697
0.00016168
0.000138314
0.000137953
0.000180924
0.000161142
0.000161117
0.000137991
0.000161085
0.000161065
0.000138076
0.000181248
0.000161237
0.000161226
0.00013804
0.000161296
0.000161279
0.000170446
0.000137224
0.000175602
0.000143627
0.00013715
0.000175587
0.000170515
0.000159947
0.000146886
0.000103405
0.000122361
0.000122422
0.00014696
0.000159908
0.000160066
0.000122488
0.000103402
0.000147084
0.000122428
0.000147012
0.000160105
0.00017032
0.000143602
0.000137057
0.000175353
0.000137133
0.000175374
0.000170243
0.000170431
0.00013721
0.000175595
0.000143622
0.000137136
0.000175581
0.000170497
0.000159922
0.000146852
0.000103381
0.000122342
0.000122403
0.000146927
0.000159883
0.000160041
0.000122469
0.000103377
0.000147051
0.000122409
0.000160079
0.000146979
0.000170302
0.000143598
0.000137044
0.000175348
0.000137118
0.000175369
0.000170227
0.00017071
0.000137242
0.000175799
0.000143815
0.000170648
0.000137316
0.000175815
0.000160384
0.000147325
0.000103482
0.000122618
0.000147253
0.000122559
0.00016041
0.000160255
0.000122494
0.000147131
0.000103486
0.000147203
0.000160226
0.000122554
0.000170847
0.000143838
0.000137404
0.00017602
0.000137332
0.000176015
0.000170904
0.000170692
0.000137229
0.000175794
0.000143811
0.000170632
0.000137302
0.000175809
0.000160357
0.000147289
0.000103457
0.0001226
0.000122541
0.000147221
0.000160389
0.000160228
0.000122475
0.000147098
0.000103462
0.0001602
0.000122536
0.000147169
0.00017083
0.000143833
0.00013739
0.000176014
0.000137319
0.000176009
0.000170889
0.000137949
0.000180914
0.000161109
0.000161133
0.000161077
0.000161052
0.000137986
0.000138071
0.000181237
0.00016121
0.00016123
0.00016127
0.000138036
0.000161287
0.000170413
0.000137228
0.000175605
0.000143616
0.00013713
0.000175545
0.000170543
0.000159985
0.00014687
0.000103396
0.00012235
0.00012242
0.000146946
0.000159851
0.000160006
0.000122486
0.000103393
0.00014707
0.000122416
0.000146996
0.000160148
0.00017033
0.000143603
0.000137039
0.00017529
0.000137136
0.000175393
0.000170213
0.000170432
0.000175589
0.000137207
0.000143617
0.000175574
0.000137134
0.000170482
0.000159925
0.000146876
0.000103386
0.000122343
0.000122404
0.000146914
0.000159889
0.000160046
0.00012247
0.000103383
0.000147039
0.000122411
0.00016008
0.000147001
0.000170282
0.000143594
0.000175338
0.000137041
0.000175364
0.000137116
0.000170231
0.000170754
0.000137223
0.000175776
0.00014381
0.000170601
0.000137319
0.000175816
0.0001603
0.000147309
0.000103473
0.000122616
0.000147237
0.000122547
0.000160472
0.000160316
0.000122482
0.000147117
0.000103476
0.000147188
0.000160159
0.000122551
0.000170774
0.00014383
0.000137407
0.000176027
0.000137313
0.000176006
0.000170948
0.000170688
0.00017579
0.000137226
0.000143806
0.000170634
0.000175804
0.000137299
0.000160362
0.000147281
0.000103465
0.000122599
0.000122542
0.000147245
0.000160392
0.000160231
0.000122477
0.000147122
0.000103466
0.000160206
0.000122536
0.00014716
0.000170832
0.000143829
0.000176019
0.000137387
0.000176008
0.000137316
0.000170884
0.00017042
0.000175659
0.000137225
0.000143609
0.000175521
0.000137128
0.000170543
0.000159981
0.000146889
0.000103393
0.000122345
0.000146927
0.000122415
0.000159853
0.000160013
0.000122481
0.00010339
0.000147052
0.000147013
0.000122413
0.00016014
0.000170332
0.000143606
0.000175293
0.000137036
0.00017543
0.000137133
0.000170218
0.000170753
0.000137223
0.000175735
0.000143818
0.000170619
0.000137317
0.000175872
0.000160325
0.000147329
0.00010348
0.000122617
0.000160482
0.000147255
0.00012255
0.000160322
0.000122486
0.000147134
0.000103485
0.000160181
0.000147206
0.000122553
0.000170796
0.000143821
0.000137407
0.000176089
0.000170951
0.000137313
0.000175953
0.00017075
0.000175735
0.000137221
0.00014382
0.000170613
0.000175872
0.000137316
0.000160341
0.000147293
0.000103471
0.000122607
0.000122545
0.000147258
0.000160429
0.000160284
0.000122479
0.000147135
0.000103473
0.00016017
0.000122545
0.000147174
0.000170793
0.000143822
0.00017609
0.000137405
0.000175953
0.000137312
0.000170952
0.000137949
0.000180856
0.000161133
0.000161155
0.000161072
0.000161049
0.000137995
0.000138081
0.000181309
0.000161204
0.00016122
0.000161289
0.000138034
0.000161313
0.000170432
0.000175595
0.000137204
0.000143612
0.00017558
0.00013713
0.000170499
0.000159928
0.000146878
0.000103386
0.000122341
0.000146915
0.000122404
0.000159892
0.000160049
0.00012247
0.000103384
0.00014704
0.000147003
0.000122409
0.000160085
0.000170304
0.000143588
0.000175347
0.000137037
0.000175368
0.000137113
0.000170229
0.000170728
0.000175795
0.000137241
0.00014381
0.000170649
0.000175821
0.000137317
0.000160352
0.000147332
0.000103481
0.000122624
0.000160485
0.000147259
0.000122556
0.000160322
0.000122492
0.000147138
0.000103485
0.000160205
0.000147209
0.000122559
0.000170846
0.000143823
0.000176052
0.00013741
0.000170935
0.000175996
0.000137322
0.000170694
0.000175789
0.000137222
0.000143802
0.000170633
0.000175814
0.000137296
0.000160366
0.000147282
0.000103465
0.000122599
0.00012254
0.000147246
0.000160393
0.000160235
0.000122473
0.000147124
0.000103467
0.000160209
0.000122536
0.000147162
0.00017083
0.000143818
0.000176039
0.000137384
0.000175988
0.000137312
0.000170891
0.000138068
0.000181236
0.000161221
0.000161209
0.000138029
0.000161279
0.000161272
0.000160556
0.000147379
0.000122622
0.000103562
0.000122678
0.000160544
0.000147438
0.000171091
0.000144022
0.000137422
0.000176244
0.00013749
0.000171041
0.000176222
0.000160578
0.00014734
0.000122598
0.000103539
0.0001605
0.000122664
0.000147409
0.000171084
0.000144019
0.000137407
0.000176238
0.00017102
0.00013748
0.000176216
0.000160633
0.000147358
0.00012261
0.000103551
0.000122676
0.000160449
0.000147406
0.000171147
0.000144014
0.000137402
0.000176221
0.000137493
0.000170965
0.000176244
0.000160543
0.000147358
0.000122604
0.000103543
0.000160513
0.000122661
0.000147398
0.000171077
0.000144011
0.00017622
0.000137405
0.000171022
0.000176238
0.000137474
0.000171149
0.000144025
0.00017652
0.000137564
0.000176383
0.000137495
0.000171376
0.000160565
0.000147377
0.00012261
0.000103549
0.000147421
0.000160524
0.000122668
0.000171147
0.000144024
0.000176168
0.000137403
0.000176302
0.000170974
0.000137484
0.000160691
0.000122727
0.000103547
0.000147525
0.000147487
0.000122672
0.0001607
0.000171209
0.000144015
0.00017651
0.000137553
0.000176392
0.000137486
0.000171271
0.00016054
0.000147362
0.000122602
0.000103543
0.000147396
0.000160522
0.000122661
0.000171086
0.00014401
0.000176194
0.0001374
0.000176294
0.000171021
0.000137471
0.000160685
0.000122719
0.000103541
0.000147508
0.000147479
0.000122664
0.000160684
0.000138641
0.000136659
0.000138654
5.00161e-05
9.38144e-05
2.36114e-05
7.37193e-05
7.37313e-05
2.36126e-05
9.38272e-05
5.00177e-05
2.01023e-05
5.00074e-05
7.60426e-05
7.60017e-05
2.01043e-05
2.36092e-05
9.72777e-05
0.000112661
7.36917e-05
4.79286e-05
0.000112491
4.79272e-05
9.733e-05
9.72633e-05
0.000112677
7.37009e-05
4.79425e-05
4.7932e-05
0.000112512
9.73175e-05
7.88233e-05
2.14898e-05
2.14927e-05
2.14877e-05
2.14907e-05
7.88411e-05
2.36104e-05
2.01032e-05
5.00096e-05
7.60522e-05
7.60085e-05
2.01054e-05
0.000119503
0.000136657
0.000129846
0.000129857
0.000129673
0.000129681
0.000119626
0.000128505
0.000122146
9.36913e-05
0.000107735
0.000107545
0.000122008
0.000128677
0.000128401
0.000122206
9.36932e-05
0.000107745
0.000122001
0.000107542
0.000128759
0.000123072
0.000139442
0.000139457
0.000137113
0.000125871
0.000142566
0.000142583
0.000139556
0.000128828
0.000145654
0.000145672
0.000142001
0.000131923
0.000148698
0.000148716
0.000144298
0.000135136
0.000151693
0.000151711
0.000146533
0.000138447
0.000154633
0.000154649
0.000148784
0.000141835
0.000157512
0.000157527
0.000150936
0.000145283
0.000160328
0.000160342
0.000153085
0.000148773
0.00016308
0.000163092
0.000155172
0.000152292
0.000165766
0.000165777
0.000157114
0.000155824
0.000168384
0.000168394
0.000159059
0.000159356
0.000170933
0.000170942
0.000160904
0.000162875
0.000173412
0.00017342
0.000162702
0.00016637
0.000175819
0.000175827
0.000164397
0.00016983
0.000178152
0.000178161
0.000166088
0.000173247
0.000180411
0.000180419
0.000167721
0.000176612
0.000182594
0.000182603
0.000169265
0.000179917
0.000184702
0.00018471
0.000170797
0.000183154
0.000186732
0.00018674
0.00017224
0.000186318
0.000188684
0.000188692
0.000173619
0.000189402
0.000190559
0.000190567
0.000174931
0.0001924
0.000192355
0.000192363
0.000176182
0.000195307
0.000194072
0.000194081
0.000177365
0.00019812
0.00019571
0.00019572