/*--------------------------------*- C++ -*----------------------------------*\
| =========                 |                                                 |
| \\      /  F ield         | OpenFOAM: The Open Source CFD Toolbox           |
|  \\    /   O peration     | Version:  2312                                  |
|   \\  /    A nd           | Website:  www.openfoam.com                      |
|    \\/     M anipulation  |                                                 |
\*---------------------------------------------------------------------------*/
FoamFile
{
    version     2.0;
    format      ascii;
    arch        "LSB;label=32;scalar=64";
    class       volScalarField;
    location    "450";
    object      epsilon;
}
// * * * * * * * * * * * * * * * * * * * * * * * * * * * * * * * * * * * * * //

dimensions      [0 2 -3 0 0 0 0];

internalField   nonuniform List<scalar> 
43496
(
4.23894e-06
1.90949e-05
1.18667e-06
3.64741e-06
2.2955e-06
9.34986e-07
4.23887e-06
9.56735e-06
2.29544e-06
1.18667e-06
9.35023e-07
3.64771e-06
1.41722e-06
5.65216e-06
5.65071e-06
1.90923e-05
9.56703e-06
1.26554e-05
4.23896e-06
4.88465e-06
1.12478e-05
4.88471e-06
1.12449e-05
1.26591e-05
2.27631e-05
7.24533e-06
7.24555e-06
2.27699e-05
1.90901e-05
1.26556e-05
4.2389e-06
1.12477e-05
4.88448e-06
1.12448e-05
4.88453e-06
1.26592e-05
2.2763e-05
7.2437e-06
9.56516e-06
7.24391e-06
2.27698e-05
9.96427e-06
2.23955e-05
2.2396e-05
2.23894e-05
2.23898e-05
9.96389e-06
4.71001e-06
9.9354e-06
5.65218e-06
2.97596e-06
9.93289e-06
2.97613e-06
4.70965e-06
4.70407e-06
9.93066e-06
5.65073e-06
2.97483e-06
2.97501e-06
9.92812e-06
4.70372e-06
1.90875e-05
9.5653e-06
4.50816e-07
6.59544e-07
4.50948e-07
3.6476e-06
2.2235e-06
2.22404e-06
1.66614e-06
2.29563e-06
2.54094e-06
1.54357e-06
2.54116e-06
1.54442e-06
1.66477e-06
1.84509e-06
3.02292e-06
3.02328e-06
1.84393e-06
1.66597e-06
2.29557e-06
1.54353e-06
2.54078e-06
1.54438e-06
2.54099e-06
1.6647e-06
1.84489e-06
3.02251e-06
3.6479e-06
2.22371e-06
3.02285e-06
1.84384e-06
2.22424e-06
2.82873e-06
1.41877e-06
1.96839e-06
1.96829e-06
1.96902e-06
1.96913e-06
2.8284e-06
6.51849e-07
1.18285e-06
1.18296e-06
1.4152e-06
6.57997e-07
1.18589e-06
1.18601e-06
1.4181e-06
1.41514e-06
1.41583e-06
1.18296e-06
1.18283e-06
1.1853e-06
1.18523e-06
1.41508e-06
1.41584e-06
1.18278e-06
1.18296e-06
1.18511e-06
1.18529e-06
1.18302e-06
1.18518e-06
1.18524e-06
1.41521e-06
1.4159e-06
1.18282e-06
1.18529e-06
1.18517e-06
1.4159e-06
1.41804e-06
1.18601e-06
1.18585e-06
1.418e-06
1.18583e-06
1.18601e-06
1.18611e-06
1.41811e-06
1.18587e-06
4.2363e-06
9.54996e-06
9.55474e-06
4.23572e-06
1.90611e-05
1.90716e-05
4.23643e-06
9.55113e-06
9.55631e-06
4.23574e-06
6.51832e-07
6.51983e-07
6.5197e-07
6.5651e-07
6.56521e-07
6.56634e-07
6.56601e-07
2.29403e-06
3.64448e-06
9.29846e-07
1.18366e-06
3.64495e-06
9.30981e-07
2.2937e-06
1.90625e-05
1.90729e-05
2.29403e-06
9.29967e-07
3.64449e-06
1.18377e-06
9.31071e-07
3.64497e-06
2.29376e-06
5.64524e-06
5.64699e-06
1.41446e-06
5.64634e-06
5.64807e-06
9.56159e-06
4.23831e-06
1.90833e-05
9.56274e-06
4.23835e-06
6.57979e-07
6.58127e-07
6.58123e-07
2.29551e-06
3.64702e-06
9.34066e-07
2.2953e-06
9.35042e-07
1.90846e-05
2.29551e-06
9.34194e-07
3.64702e-06
2.29536e-06
9.35125e-07
5.6496e-06
5.65135e-06
1.41716e-06
5.65061e-06
5.65237e-06
1.90588e-05
1.90693e-05
1.9062e-05
1.90725e-05
5.64522e-06
5.64696e-06
1.41439e-06
5.64627e-06
5.64804e-06
1.90803e-05
1.907e-05
1.90836e-05
1.90732e-05
1.41665e-06
5.64845e-06
5.65022e-06
5.64744e-06
5.64917e-06
4.23628e-06
9.55014e-06
9.55492e-06
4.23564e-06
2.29396e-06
3.64433e-06
9.29835e-07
1.18378e-06
3.6448e-06
9.30948e-07
2.29368e-06
2.2939e-06
3.64474e-06
9.29762e-07
1.18369e-06
3.64517e-06
9.30898e-07
2.29363e-06
4.23706e-06
9.56055e-06
9.55582e-06
4.23762e-06
4.23698e-06
9.5607e-06
9.556e-06
4.23758e-06
2.29453e-06
1.18455e-06
3.64607e-06
9.33062e-07
3.64564e-06
9.32029e-07
2.29475e-06
2.29447e-06
1.18441e-06
3.64643e-06
9.33014e-07
3.64605e-06
9.31955e-07
2.29469e-06
5.64677e-06
5.64537e-06
1.4144e-06
5.64773e-06
5.64647e-06
1.90601e-05
1.90706e-05
1.90827e-05
1.90722e-05
1.41659e-06
5.64991e-06
5.64865e-06
5.649e-06
5.6476e-06
1.90816e-05
1.90712e-05
2.29401e-06
3.64486e-06
9.29817e-07
1.18359e-06
3.64536e-06
9.30926e-07
2.29369e-06
4.23636e-06
9.5507e-06
9.55589e-06
4.23568e-06
2.29396e-06
9.29856e-07
3.64477e-06
1.18377e-06
9.30965e-07
3.64527e-06
2.29363e-06
4.23708e-06
9.56207e-06
9.557e-06
4.2377e-06
2.29453e-06
1.18437e-06
3.64662e-06
9.33038e-07
3.64617e-06
9.32014e-07
2.2948e-06
4.23701e-06
9.56167e-06
9.55659e-06
4.23763e-06
2.29447e-06
1.18456e-06
9.33076e-07
3.64653e-06
9.32053e-07
3.64608e-06
2.29474e-06
4.23648e-06
9.55069e-06
9.55548e-06
4.23591e-06
2.294e-06
9.29905e-07
3.64441e-06
1.18375e-06
9.30999e-07
3.64489e-06
2.29367e-06
4.2364e-06
9.55054e-06
9.55548e-06
4.23572e-06
2.29454e-06
1.18444e-06
3.64621e-06
9.33091e-07
3.64579e-06
9.32039e-07
2.29481e-06
4.23724e-06
9.56127e-06
9.55655e-06
4.23778e-06
2.29451e-06
1.18463e-06
9.33105e-07
3.64616e-06
9.32102e-07
3.64572e-06
2.29478e-06
4.23704e-06
9.56126e-06
9.55654e-06
4.23768e-06
5.64677e-06
5.64537e-06
1.41446e-06
5.64787e-06
5.64643e-06
1.90599e-05
1.90704e-05
1.9084e-05
1.90736e-05
1.41672e-06
5.65006e-06
5.64861e-06
5.64899e-06
5.64759e-06
1.90814e-05
1.90711e-05
2.29396e-06
9.299e-07
3.64491e-06
1.18365e-06
9.30997e-07
3.64539e-06
2.2937e-06
4.23649e-06
9.55083e-06
9.55562e-06
4.23593e-06
4.23645e-06
9.55137e-06
9.55616e-06
4.23595e-06
2.29461e-06
1.18455e-06
9.33179e-07
3.64623e-06
9.32161e-07
3.64579e-06
2.29482e-06
2.29454e-06
1.1844e-06
9.33107e-07
3.64665e-06
9.32095e-07
3.64622e-06
2.29475e-06
4.23726e-06
9.56141e-06
9.5567e-06
4.23779e-06
4.23729e-06
9.56196e-06
9.55724e-06
4.23775e-06
1.9061e-05
1.90715e-05
1.90633e-05
1.90738e-05
1.41671e-06
5.64852e-06
5.65026e-06
5.64747e-06
5.64921e-06
1.90826e-05
1.90722e-05
1.90848e-05
1.90745e-05
1.9081e-05
1.90842e-05
5.64959e-06
5.65133e-06
9.56179e-06
4.23825e-06
3.64687e-06
9.34062e-07
2.29529e-06
3.64728e-06
9.33987e-07
2.29523e-06
5.65115e-06
5.64975e-06
1.90822e-05
3.6474e-06
9.34045e-07
2.29528e-06
9.56235e-06
4.23828e-06
9.34085e-07
3.64731e-06
2.29523e-06
4.239e-06
9.56232e-06
4.23851e-06
2.29548e-06
9.34133e-07
3.64695e-06
1.18658e-06
2.29527e-06
9.3504e-07
3.64732e-06
4.2389e-06
9.56229e-06
4.23833e-06
9.56688e-06
5.65113e-06
5.64971e-06
1.90821e-05
2.29544e-06
9.34128e-07
3.64745e-06
1.18657e-06
2.29529e-06
9.35052e-07
3.64784e-06
4.23901e-06
9.56243e-06
4.23853e-06
4.23898e-06
9.56299e-06
4.23856e-06
9.56758e-06
1.90832e-05
1.90934e-05
1.90855e-05
1.90957e-05
1.26402e-05
1.12334e-05
4.88181e-06
4.2364e-06
1.12311e-05
4.88188e-06
1.26438e-05
2.27384e-05
9.55183e-06
7.23925e-06
7.23906e-06
2.27315e-05
2.2738e-05
7.24034e-06
9.55289e-06
7.24053e-06
2.27449e-05
1.26399e-05
4.23563e-06
1.12276e-05
4.88113e-06
1.12299e-05
4.88107e-06
1.26362e-05
1.9066e-05
1.90667e-05
1.26402e-05
4.88184e-06
1.12339e-05
4.23642e-06
4.88187e-06
1.1231e-05
1.26439e-05
2.27381e-05
9.5534e-06
7.23926e-06
7.23907e-06
2.27312e-05
2.27376e-05
7.24035e-06
9.55408e-06
7.24054e-06
2.27446e-05
1.264e-05
4.23576e-06
4.88112e-06
1.12275e-05
4.88109e-06
1.12304e-05
1.26363e-05
1.90674e-05
1.90681e-05
9.95762e-06
2.23741e-05
2.23734e-05
2.23678e-05
2.23671e-05
9.9573e-06
4.7006e-06
2.97315e-06
5.64523e-06
9.91403e-06
2.97297e-06
9.91661e-06
4.70092e-06
4.70639e-06
2.97432e-06
5.64695e-06
9.91919e-06
2.97416e-06
9.92108e-06
4.70669e-06
4.70164e-06
9.91955e-06
5.64636e-06
2.97339e-06
2.97357e-06
9.91702e-06
4.7013e-06
4.7074e-06
9.92402e-06
5.6481e-06
2.97457e-06
2.97474e-06
9.92213e-06
4.70709e-06
9.9555e-06
2.2362e-05
2.23613e-05
2.23682e-05
2.23675e-05
9.9558e-06
2.27639e-05
7.24431e-06
9.56332e-06
2.27571e-05
7.24409e-06
1.2655e-05
4.23824e-06
1.12417e-05
4.88404e-06
1.26518e-05
1.12438e-05
4.88394e-06
1.90881e-05
2.27636e-05
7.24432e-06
9.56496e-06
2.27568e-05
7.2441e-06
1.26552e-05
4.23833e-06
4.88403e-06
1.12415e-05
1.26516e-05
4.88397e-06
1.12444e-05
1.90894e-05
9.9647e-06
2.2397e-05
2.23963e-05
2.23909e-05
2.23901e-05
9.96432e-06
4.70329e-06
2.97469e-06
9.92576e-06
5.64958e-06
4.70367e-06
2.9745e-06
9.92825e-06
4.70907e-06
2.97586e-06
9.93049e-06
5.65133e-06
4.70943e-06
2.97569e-06
9.93298e-06
9.9626e-06
2.23852e-05
2.23844e-05
9.96296e-06
2.23913e-05
2.23906e-05
4.70429e-06
9.93109e-06
5.65064e-06
2.97483e-06
2.97503e-06
9.92854e-06
4.70393e-06
4.71007e-06
9.93587e-06
5.6524e-06
2.97601e-06
2.9762e-06
9.93333e-06
4.70971e-06
1.90637e-05
1.90644e-05
1.90669e-05
1.90676e-05
9.95766e-06
2.23736e-05
2.23728e-05
2.23673e-05
2.23666e-05
9.95733e-06
4.70047e-06
2.9731e-06
5.64516e-06
9.91409e-06
9.91598e-06
2.97292e-06
4.70084e-06
4.70626e-06
2.97424e-06
5.64693e-06
9.91917e-06
9.92106e-06
2.97406e-06
4.70661e-06
4.70156e-06
9.91891e-06
5.64634e-06
2.97333e-06
9.91703e-06
4.70118e-06
2.97352e-06
4.70733e-06
9.92399e-06
5.64808e-06
2.97447e-06
9.92211e-06
4.70697e-06
2.97466e-06
9.95552e-06
2.23615e-05
2.23607e-05
2.23677e-05
2.2367e-05
9.95585e-06
1.90755e-05
1.90748e-05
1.90787e-05
1.90781e-05
9.95912e-06
2.23731e-05
2.23724e-05
9.95946e-06
2.23794e-05
2.23786e-05
4.70294e-06
2.9741e-06
5.64852e-06
9.92474e-06
9.9229e-06
2.9743e-06
4.70254e-06
4.7087e-06
2.97524e-06
5.65026e-06
9.92982e-06
9.92797e-06
2.97544e-06
4.70833e-06
4.70187e-06
9.92e-06
2.97392e-06
5.64737e-06
4.70226e-06
9.92189e-06
2.97373e-06
4.70766e-06
9.92508e-06
2.97506e-06
5.64914e-06
4.70803e-06
9.92697e-06
2.97487e-06
9.96124e-06
2.23851e-05
2.23844e-05
2.23789e-05
2.23781e-05
9.96089e-06
1.26403e-05
1.12336e-05
4.8817e-06
4.23632e-06
1.12307e-05
4.88175e-06
1.2644e-05
2.27388e-05
9.552e-06
7.23791e-06
7.23775e-06
2.27318e-05
2.27383e-05
7.23903e-06
9.55307e-06
7.2392e-06
2.27452e-05
1.26401e-05
4.23561e-06
1.12272e-05
4.881e-06
1.12301e-05
4.88095e-06
1.26364e-05
1.26476e-05
1.12346e-05
4.88262e-06
4.23696e-06
1.2644e-05
1.12369e-05
4.88254e-06
2.27508e-05
9.55871e-06
7.24286e-06
2.27576e-05
7.24306e-06
2.27513e-05
7.2418e-06
9.55769e-06
2.27444e-05
7.2416e-06
1.26479e-05
4.23768e-06
1.12404e-05
4.88325e-06
1.26513e-05
1.12381e-05
4.88333e-06
1.26478e-05
1.12342e-05
4.88248e-06
4.23694e-06
1.26442e-05
1.12371e-05
4.88242e-06
2.27511e-05
9.55892e-06
7.24155e-06
7.24173e-06
2.2758e-05
2.27516e-05
7.24047e-06
9.55787e-06
2.27447e-05
7.2403e-06
1.2648e-05
4.23762e-06
1.12406e-05
4.88313e-06
1.12377e-05
4.88319e-06
1.26516e-05
9.95771e-06
2.23733e-05
2.23738e-05
2.2367e-05
2.23676e-05
9.95736e-06
4.70636e-06
2.97419e-06
5.64662e-06
9.9188e-06
9.9207e-06
2.97402e-06
4.70668e-06
4.70055e-06
2.97317e-06
5.64536e-06
9.91421e-06
2.97298e-06
9.91678e-06
4.70089e-06
4.70739e-06
9.92363e-06
5.64789e-06
2.97444e-06
9.92174e-06
2.97461e-06
4.70706e-06
4.70161e-06
9.91971e-06
5.64649e-06
2.9734e-06
2.97359e-06
9.91718e-06
4.70125e-06
9.95556e-06
2.23612e-05
2.23617e-05
2.23675e-05
2.2368e-05
9.95589e-06
1.9065e-05
1.90657e-05
1.90778e-05
1.90772e-05
9.95915e-06
2.23728e-05
2.23734e-05
9.95951e-06
2.23791e-05
2.23796e-05
4.70877e-06
2.97521e-06
5.65008e-06
9.92946e-06
2.9754e-06
9.92761e-06
4.70842e-06
4.70299e-06
2.97416e-06
5.64868e-06
9.92554e-06
9.92301e-06
2.97436e-06
4.70261e-06
4.70775e-06
9.92471e-06
2.97501e-06
5.64883e-06
2.97483e-06
4.70809e-06
9.9266e-06
4.70194e-06
9.92014e-06
2.97399e-06
5.64757e-06
4.70231e-06
9.92262e-06
2.97379e-06
9.96129e-06
2.23848e-05
2.23854e-05
2.23786e-05
2.23791e-05
9.96092e-06
1.90767e-05
1.90761e-05
1.26403e-05
1.12338e-05
4.88166e-06
4.23635e-06
1.12309e-05
4.88169e-06
1.2644e-05
2.2738e-05
9.55296e-06
7.23762e-06
7.23742e-06
2.27311e-05
2.27375e-05
7.2387e-06
9.55366e-06
7.23888e-06
2.27444e-05
1.26401e-05
4.23569e-06
1.12274e-05
4.88095e-06
1.12303e-05
4.88092e-06
1.26364e-05
1.26477e-05
4.88261e-06
1.12345e-05
4.23708e-06
1.26441e-05
4.88256e-06
1.12374e-05
2.27504e-05
9.55989e-06
7.24287e-06
2.27573e-05
7.24307e-06
2.2751e-05
7.24181e-06
9.5592e-06
2.27441e-05
7.24162e-06
1.2648e-05
4.23771e-06
4.88328e-06
1.1241e-05
1.26514e-05
4.88333e-06
1.1238e-05
1.26478e-05
1.12344e-05
4.88242e-06
4.23701e-06
1.26442e-05
1.12373e-05
4.88239e-06
2.27503e-05
9.55947e-06
7.24123e-06
7.24142e-06
2.27572e-05
2.27508e-05
7.24016e-06
9.55879e-06
2.27439e-05
7.23997e-06
1.2648e-05
4.23765e-06
1.12408e-05
4.8831e-06
1.12379e-05
4.88314e-06
1.26516e-05
1.26402e-05
4.88176e-06
1.12335e-05
4.23659e-06
4.88201e-06
1.12313e-05
1.26427e-05
2.27371e-05
9.55256e-06
7.23904e-06
7.23864e-06
2.27299e-05
2.27364e-05
7.23992e-06
9.55362e-06
7.24032e-06
2.27435e-05
1.26389e-05
4.23581e-06
4.88126e-06
1.12277e-05
4.88102e-06
1.123e-05
1.26363e-05
1.26408e-05
1.12337e-05
4.88163e-06
4.23639e-06
1.12308e-05
4.88171e-06
1.26433e-05
2.27381e-05
9.55265e-06
7.23746e-06
7.23728e-06
2.27312e-05
2.27377e-05
7.23856e-06
9.5536e-06
7.23875e-06
2.27446e-05
1.26395e-05
4.23572e-06
1.12273e-05
4.88097e-06
1.12302e-05
4.88088e-06
1.2637e-05
1.26466e-05
4.88274e-06
1.12348e-05
4.23714e-06
1.2644e-05
4.88248e-06
1.1237e-05
2.27492e-05
9.55945e-06
7.24244e-06
7.24285e-06
2.27563e-05
2.27499e-05
7.24159e-06
9.55842e-06
2.27428e-05
7.24119e-06
1.26479e-05
4.23789e-06
4.88319e-06
1.12405e-05
4.88345e-06
1.12383e-05
1.26504e-05
1.26472e-05
1.12343e-05
4.88243e-06
4.23703e-06
1.26446e-05
1.12372e-05
4.88236e-06
2.27505e-05
9.55945e-06
7.24108e-06
7.24128e-06
2.27573e-05
2.2751e-05
7.24002e-06
9.55841e-06
2.27441e-05
7.23982e-06
1.26485e-05
4.2377e-06
1.12407e-05
4.88307e-06
1.12378e-05
4.88314e-06
1.2651e-05
9.95718e-06
2.23726e-05
2.2373e-05
2.23664e-05
2.23668e-05
9.95684e-06
4.7063e-06
2.97422e-06
5.64676e-06
9.91877e-06
9.92066e-06
2.97409e-06
4.70662e-06
4.70036e-06
2.97313e-06
5.64532e-06
9.91407e-06
2.97296e-06
9.91596e-06
4.70068e-06
4.70733e-06
9.92361e-06
5.64789e-06
2.97451e-06
9.92171e-06
2.97465e-06
4.707e-06
4.7014e-06
9.91889e-06
5.64649e-06
2.97337e-06
2.97354e-06
9.91701e-06
4.70107e-06
9.95503e-06
2.23606e-05
2.2361e-05
2.23668e-05
2.23672e-05
9.95536e-06
1.90648e-05
1.90655e-05
1.90791e-05
1.90785e-05
9.95862e-06
2.23722e-05
2.23726e-05
9.95897e-06
2.23784e-05
2.23788e-05
4.70871e-06
2.97528e-06
5.65006e-06
9.92963e-06
2.97543e-06
9.92725e-06
4.70836e-06
4.70278e-06
2.97414e-06
5.64867e-06
9.92477e-06
9.92281e-06
2.97432e-06
4.70243e-06
4.70769e-06
9.92468e-06
2.97505e-06
5.64898e-06
2.9749e-06
4.70803e-06
9.92663e-06
4.70176e-06
9.91997e-06
2.97394e-06
5.64753e-06
4.7021e-06
9.92186e-06
2.97376e-06
9.96076e-06
2.23842e-05
2.23846e-05
2.2378e-05
2.23784e-05
9.9604e-06
1.90766e-05
1.90759e-05
1.26405e-05
4.8818e-06
1.12334e-05
4.23661e-06
4.88188e-06
1.12312e-05
1.2643e-05
2.27372e-05
9.55271e-06
7.23881e-06
7.23863e-06
2.27303e-05
2.27368e-05
7.23991e-06
9.55376e-06
7.24009e-06
2.27437e-05
1.26391e-05
4.23582e-06
4.88114e-06
1.12277e-05
4.88106e-06
1.12299e-05
1.26366e-05
1.26403e-05
4.8817e-06
1.12332e-05
4.23663e-06
4.88185e-06
1.1231e-05
1.2644e-05
2.2739e-05
9.55324e-06
7.23791e-06
7.23771e-06
2.2732e-05
2.27385e-05
7.23899e-06
9.5543e-06
7.2392e-06
2.27454e-05
1.26401e-05
4.23578e-06
4.8811e-06
1.12275e-05
4.88096e-06
1.12297e-05
1.26364e-05
1.26468e-05
4.88261e-06
1.12347e-05
4.23715e-06
1.26443e-05
4.88253e-06
1.12369e-05
2.27496e-05
9.5596e-06
7.24243e-06
7.24262e-06
2.27564e-05
2.27501e-05
7.24136e-06
9.55856e-06
2.27432e-05
7.24118e-06
1.26481e-05
4.23791e-06
4.88324e-06
1.12404e-05
4.88333e-06
1.12382e-05
1.26506e-05
1.26478e-05
4.88258e-06
1.12345e-05
4.23711e-06
1.26441e-05
4.88243e-06
1.12368e-05
2.27513e-05
9.56015e-06
7.24152e-06
7.24174e-06
2.27582e-05
2.27518e-05
7.24048e-06
9.5591e-06
2.27449e-05
7.24026e-06
1.2648e-05
4.23793e-06
4.88315e-06
1.12402e-05
4.8833e-06
1.1238e-05
1.26516e-05
1.90659e-05
1.90666e-05
1.90682e-05
1.90689e-05
9.9591e-06
2.23736e-05
2.23729e-05
9.95941e-06
2.23799e-05
2.23791e-05
4.70301e-06
2.97416e-06
5.64854e-06
9.92538e-06
4.70266e-06
2.97433e-06
9.92285e-06
4.70878e-06
2.97534e-06
5.65029e-06
9.93006e-06
4.70845e-06
2.97552e-06
9.92778e-06
4.70199e-06
9.92e-06
2.97397e-06
5.64746e-06
4.70234e-06
2.97379e-06
9.92245e-06
4.70778e-06
9.92511e-06
2.97514e-06
5.64918e-06
4.7081e-06
2.97496e-06
9.92702e-06
9.9612e-06
2.23856e-05
2.23849e-05
9.96087e-06
2.23794e-05
2.23787e-05
1.90777e-05
1.90771e-05
1.908e-05
1.90793e-05
1.90858e-05
1.9089e-05
4.70319e-06
2.97467e-06
9.92578e-06
5.64951e-06
4.7036e-06
9.92755e-06
2.97446e-06
4.70898e-06
2.9758e-06
9.93086e-06
5.65129e-06
4.70937e-06
9.93263e-06
2.9756e-06
9.96264e-06
2.23846e-05
2.23839e-05
9.96301e-06
2.23908e-05
2.23901e-05
2.27643e-05
7.24298e-06
9.56348e-06
2.27575e-05
7.24279e-06
1.26555e-05
4.2382e-06
1.12413e-05
4.8839e-06
1.12439e-05
1.26518e-05
4.88383e-06
4.70907e-06
2.97576e-06
9.9305e-06
5.65097e-06
9.93227e-06
4.70943e-06
2.97557e-06
4.70328e-06
2.97473e-06
9.92589e-06
5.64973e-06
2.97454e-06
4.70366e-06
9.9285e-06
9.96268e-06
2.23843e-05
2.23849e-05
2.23906e-05
9.96306e-06
2.23911e-05
2.27635e-05
7.24267e-06
9.56451e-06
2.27567e-05
7.24247e-06
1.26554e-05
4.23826e-06
1.12414e-05
4.88384e-06
1.12442e-05
1.26519e-05
4.8838e-06
1.26554e-05
4.23912e-06
1.12473e-05
4.88483e-06
1.12452e-05
2.27626e-05
7.24409e-06
9.56407e-06
7.24367e-06
2.27555e-05
1.26542e-05
4.2384e-06
4.88414e-06
1.12417e-05
4.88389e-06
1.26516e-05
1.1244e-05
2.27618e-05
1.2656e-05
4.23894e-06
1.12476e-05
4.88444e-06
1.12447e-05
4.88452e-06
1.26585e-05
2.27637e-05
7.24253e-06
9.5641e-06
2.27568e-05
7.24231e-06
1.26548e-05
4.2383e-06
1.12413e-05
4.88384e-06
1.26522e-05
1.12441e-05
4.88376e-06
2.27631e-05
7.24354e-06
9.56514e-06
7.24376e-06
2.27699e-05
4.70901e-06
2.97579e-06
9.93008e-06
5.65112e-06
9.93253e-06
4.70937e-06
2.97563e-06
4.70309e-06
2.97467e-06
9.92546e-06
5.64969e-06
2.9745e-06
4.70342e-06
9.92773e-06
9.96215e-06
2.23837e-05
2.23841e-05
2.23899e-05
9.96252e-06
2.23903e-05
1.90869e-05
1.26557e-05
4.23914e-06
4.88461e-06
1.12474e-05
4.88471e-06
1.12449e-05
1.26581e-05
2.27627e-05
7.24387e-06
9.56426e-06
7.24367e-06
2.27559e-05
1.26544e-05
4.23841e-06
4.88402e-06
1.12416e-05
4.88394e-06
1.26519e-05
1.12439e-05
2.27622e-05
7.24489e-06
7.2451e-06
2.2769e-05
1.26554e-05
4.23917e-06
4.88453e-06
1.12473e-05
4.88469e-06
1.12448e-05
1.26593e-05
2.27645e-05
7.24299e-06
9.5648e-06
2.27577e-05
7.24276e-06
1.26554e-05
4.23837e-06
4.884e-06
1.12415e-05
1.26518e-05
4.88385e-06
1.12437e-05
2.2764e-05
7.24399e-06
9.56584e-06
7.24422e-06
2.27708e-05
1.9088e-05
1.90887e-05
1.90903e-05
1.90909e-05
4.41764e-07
4.41705e-07
6.53439e-07
4.43657e-07
4.43588e-07
2.35633e-07
2.33701e-07
2.82689e-06
1.96716e-06
1.96738e-06
1.41369e-06
1.96646e-06
1.96668e-06
2.8272e-06
4.4914e-07
4.49075e-07
2.43235e-07
2.4136e-07
2.82815e-06
1.96864e-06
1.96887e-06
1.41658e-06
2.82849e-06
1.96791e-06
1.96814e-06
2.82684e-06
1.96714e-06
1.96735e-06
1.41362e-06
1.96645e-06
1.96665e-06
2.82715e-06
2.82817e-06
1.41736e-06
1.9676e-06
1.96779e-06
1.9683e-06
1.96851e-06
2.82784e-06
2.82687e-06
1.96726e-06
1.96718e-06
1.41363e-06
1.96649e-06
1.96656e-06
2.82719e-06
2.82821e-06
1.41731e-06
1.96771e-06
1.96764e-06
1.96842e-06
1.96835e-06
2.82788e-06
2.82684e-06
1.96731e-06
1.96721e-06
1.4137e-06
1.96651e-06
1.96661e-06
2.82714e-06
2.82816e-06
1.41743e-06
1.96776e-06
1.96765e-06
1.96847e-06
1.96837e-06
2.82784e-06
2.82821e-06
1.41742e-06
1.96759e-06
1.96783e-06
2.8279e-06
1.96831e-06
1.96854e-06
2.82814e-06
1.96865e-06
1.96885e-06
1.4165e-06
2.82847e-06
1.96793e-06
1.96812e-06
2.82817e-06
1.96877e-06
1.96869e-06
1.41653e-06
1.96798e-06
2.82851e-06
1.96806e-06
2.82813e-06
1.96881e-06
1.96871e-06
1.41658e-06
1.96799e-06
2.82846e-06
1.96809e-06
4.41747e-07
4.41738e-07
6.53447e-07
4.4365e-07
4.43615e-07
2.35642e-07
2.33711e-07
4.41847e-07
4.41834e-07
6.53565e-07
4.43727e-07
4.43724e-07
2.35708e-07
2.33778e-07
4.41885e-07
4.41803e-07
6.53533e-07
4.43743e-07
4.43723e-07
2.35723e-07
2.33782e-07
6.54999e-07
4.47344e-07
4.47273e-07
4.4552e-07
4.45463e-07
2.37558e-07
2.39462e-07
6.5498e-07
4.47337e-07
4.473e-07
4.45503e-07
4.45496e-07
2.37568e-07
2.39471e-07
6.55133e-07
4.4741e-07
4.47409e-07
4.45604e-07
4.45589e-07
2.37634e-07
2.39538e-07
6.55122e-07
4.47424e-07
4.47414e-07
4.45646e-07
4.45553e-07
2.37637e-07
2.39554e-07
1.66435e-06
2.53949e-06
1.54155e-06
2.29413e-06
2.5397e-06
1.5424e-06
1.66297e-06
1.84148e-06
2.22242e-06
3.6443e-06
3.02093e-06
2.22192e-06
3.02055e-06
1.84271e-06
1.84321e-06
3.02102e-06
3.64515e-06
2.22227e-06
2.22278e-06
3.02141e-06
1.842e-06
1.66246e-06
2.2936e-06
2.5393e-06
1.54182e-06
2.53909e-06
1.54097e-06
1.66386e-06
1.66487e-06
1.54153e-06
2.53958e-06
2.2942e-06
1.54251e-06
2.53978e-06
1.66279e-06
1.84148e-06
2.22243e-06
3.64431e-06
3.02095e-06
2.22194e-06
3.02059e-06
1.8428e-06
1.84338e-06
3.02106e-06
3.64515e-06
2.2223e-06
2.2228e-06
3.02143e-06
1.84194e-06
1.66232e-06
2.2936e-06
1.54192e-06
2.53938e-06
1.54094e-06
2.53918e-06
1.66419e-06
2.82756e-06
1.41597e-06
1.96686e-06
1.96708e-06
1.96757e-06
1.9678e-06
2.82724e-06
4.49122e-07
4.49116e-07
4.50842e-07
2.43244e-07
2.4137e-07
4.49219e-07
4.49205e-07
4.50959e-07
2.43311e-07
2.41437e-07
4.49266e-07
4.49163e-07
6.59537e-07
4.50958e-07
4.50981e-07
2.43328e-07
2.41438e-07
1.66601e-06
2.29564e-06
2.54088e-06
1.54358e-06
2.5411e-06
1.54442e-06
1.66477e-06
1.84354e-06
2.22374e-06
3.02272e-06
3.64681e-06
1.84456e-06
2.22321e-06
3.02233e-06
1.66447e-06
2.29517e-06
2.54078e-06
1.54396e-06
1.66565e-06
2.54055e-06
1.5431e-06
1.66681e-06
2.2957e-06
1.5435e-06
2.54094e-06
1.54455e-06
2.54118e-06
1.66428e-06
1.84315e-06
2.22376e-06
3.02276e-06
3.64683e-06
1.84519e-06
2.22323e-06
3.02237e-06
1.66415e-06
2.29518e-06
1.54408e-06
2.54087e-06
1.66635e-06
1.54307e-06
2.54064e-06
1.84569e-06
3.02275e-06
3.02316e-06
1.84354e-06
2.82878e-06
1.41873e-06
1.96821e-06
1.96843e-06
1.96895e-06
1.96917e-06
2.82844e-06
2.82751e-06
1.41591e-06
1.96686e-06
1.96705e-06
2.8272e-06
1.96755e-06
1.96776e-06
2.82753e-06
1.41513e-06
1.96794e-06
1.96815e-06
2.82785e-06
1.96724e-06
1.96743e-06
1.66446e-06
2.53953e-06
1.54146e-06
2.29412e-06
2.53976e-06
1.54242e-06
1.66282e-06
1.8415e-06
2.22237e-06
3.64415e-06
3.02099e-06
3.02061e-06
2.22188e-06
1.84274e-06
1.84328e-06
3.02108e-06
3.64499e-06
2.22224e-06
3.02147e-06
2.22274e-06
1.84197e-06
1.66243e-06
2.29353e-06
2.53935e-06
1.54183e-06
2.53913e-06
1.54088e-06
1.66388e-06
1.66472e-06
2.5394e-06
1.5414e-06
2.29406e-06
2.5396e-06
1.54238e-06
1.66262e-06
1.8413e-06
2.22259e-06
3.64451e-06
3.02068e-06
3.02031e-06
2.22208e-06
1.84265e-06
1.84324e-06
3.02079e-06
3.6454e-06
2.22244e-06
3.02116e-06
1.84175e-06
2.22295e-06
1.66214e-06
2.29347e-06
2.53919e-06
1.54179e-06
2.53899e-06
1.54082e-06
1.66404e-06
1.66319e-06
2.54014e-06
1.54299e-06
2.29437e-06
1.66512e-06
2.53991e-06
1.54201e-06
1.84447e-06
2.22289e-06
3.64626e-06
3.02197e-06
2.22341e-06
3.02238e-06
1.84276e-06
1.84238e-06
3.02193e-06
2.22308e-06
3.64544e-06
2.22258e-06
1.84384e-06
3.02154e-06
1.66577e-06
2.29492e-06
2.54027e-06
1.54253e-06
2.54051e-06
1.54352e-06
1.66366e-06
1.66303e-06
2.53998e-06
1.54294e-06
2.29431e-06
1.66516e-06
2.53977e-06
1.54196e-06
1.84447e-06
2.22309e-06
3.64667e-06
3.02168e-06
3.02207e-06
2.22362e-06
1.84265e-06
1.84217e-06
3.02162e-06
2.2233e-06
3.64581e-06
1.84385e-06
3.02125e-06
2.22278e-06
1.66572e-06
2.29486e-06
2.54013e-06
1.54247e-06
2.54034e-06
1.54347e-06
1.66355e-06
2.82755e-06
1.41585e-06
1.96697e-06
1.9669e-06
1.9676e-06
1.96767e-06
2.82722e-06
2.82756e-06
1.41513e-06
1.96806e-06
1.96799e-06
1.96735e-06
2.82789e-06
1.96728e-06
1.66432e-06
2.53955e-06
1.54153e-06
2.29412e-06
2.53976e-06
1.54237e-06
1.66315e-06
1.84161e-06
2.22268e-06
3.64471e-06
3.02107e-06
3.02072e-06
2.22221e-06
1.84268e-06
1.8432e-06
3.0212e-06
3.64553e-06
2.22257e-06
3.02155e-06
2.22305e-06
1.84217e-06
1.66264e-06
2.29358e-06
2.53936e-06
1.54179e-06
2.53915e-06
1.54095e-06
1.66381e-06
1.66423e-06
1.5415e-06
2.53942e-06
2.29406e-06
1.54234e-06
2.5396e-06
1.66307e-06
1.8415e-06
2.22263e-06
3.64462e-06
3.02068e-06
3.02034e-06
2.22217e-06
1.84257e-06
1.84308e-06
3.02082e-06
3.64544e-06
2.22252e-06
3.02114e-06
1.84205e-06
2.22299e-06
1.66256e-06
2.29353e-06
1.54176e-06
2.53921e-06
1.54092e-06
2.53902e-06
1.66372e-06
1.66358e-06
2.54014e-06
1.54292e-06
2.29441e-06
1.66478e-06
2.53993e-06
1.54208e-06
1.84417e-06
2.22321e-06
3.6468e-06
3.0221e-06
2.22372e-06
3.02245e-06
1.84317e-06
1.8427e-06
3.02201e-06
2.22339e-06
3.646e-06
2.2229e-06
1.84369e-06
3.02165e-06
1.66526e-06
2.29492e-06
2.54029e-06
1.5426e-06
2.5405e-06
1.54345e-06
1.66406e-06
1.66352e-06
1.54288e-06
2.53998e-06
2.29436e-06
1.66469e-06
1.54204e-06
2.53979e-06
1.84404e-06
2.22317e-06
3.64671e-06
3.02171e-06
3.02203e-06
2.22366e-06
1.84308e-06
1.84258e-06
3.02159e-06
2.22334e-06
3.64591e-06
1.84357e-06
3.02127e-06
2.22286e-06
1.66516e-06
2.29486e-06
1.54256e-06
2.54015e-06
1.54341e-06
2.54034e-06
1.664e-06
1.66427e-06
1.54155e-06
2.53942e-06
2.2941e-06
1.54238e-06
2.53963e-06
1.66311e-06
1.84148e-06
2.22236e-06
3.64423e-06
3.02057e-06
2.22188e-06
3.0202e-06
1.84256e-06
1.84308e-06
3.02068e-06
3.64508e-06
2.22224e-06
2.22273e-06
3.02105e-06
1.84203e-06
1.66259e-06
2.29357e-06
1.5418e-06
2.53923e-06
1.54097e-06
2.53902e-06
1.66377e-06
1.66349e-06
2.54008e-06
1.54295e-06
2.29443e-06
1.66481e-06
2.53986e-06
1.54209e-06
1.84413e-06
2.22291e-06
3.64641e-06
3.02191e-06
1.84302e-06
2.22343e-06
3.0223e-06
1.84251e-06
3.02186e-06
2.22311e-06
3.64559e-06
1.84368e-06
2.2226e-06
3.02147e-06
1.66524e-06
2.29493e-06
2.54022e-06
1.54261e-06
1.664e-06
2.54044e-06
1.54347e-06
1.66355e-06
1.54293e-06
2.54001e-06
2.2944e-06
1.66473e-06
1.54209e-06
2.5398e-06
1.84404e-06
2.22289e-06
3.64634e-06
3.02159e-06
3.02195e-06
2.22339e-06
1.84307e-06
1.84256e-06
3.02151e-06
2.22307e-06
3.64554e-06
1.84357e-06
3.02114e-06
2.22257e-06
1.66519e-06
2.2949e-06
1.54261e-06
2.54015e-06
1.54345e-06
2.54037e-06
1.66403e-06
2.8275e-06
1.41598e-06
1.96701e-06
1.96692e-06
1.96763e-06
1.96772e-06
2.82719e-06
2.82753e-06
1.4152e-06
1.96811e-06
1.96801e-06
1.9674e-06
2.82784e-06
1.9673e-06
1.66472e-06
1.54146e-06
2.53941e-06
2.29413e-06
1.54244e-06
2.53964e-06
1.66267e-06
1.84138e-06
2.2227e-06
3.64473e-06
3.02075e-06
2.22221e-06
3.02037e-06
1.84268e-06
1.84325e-06
3.02084e-06
3.64557e-06
2.22257e-06
2.22307e-06
3.02123e-06
1.84184e-06
1.66221e-06
2.29353e-06
1.54185e-06
2.53924e-06
1.54088e-06
2.53901e-06
1.66403e-06
1.66319e-06
1.54307e-06
2.54016e-06
2.29444e-06
1.66533e-06
1.54208e-06
2.53995e-06
1.84462e-06
2.22294e-06
3.64642e-06
3.02195e-06
1.84277e-06
2.22346e-06
3.02234e-06
1.84234e-06
3.02189e-06
2.22314e-06
3.64561e-06
1.84397e-06
2.22263e-06
3.02152e-06
1.66588e-06
2.29499e-06
1.5426e-06
2.54031e-06
1.66373e-06
1.54359e-06
2.54053e-06
1.66308e-06
1.543e-06
2.54002e-06
2.29436e-06
1.6652e-06
1.54202e-06
2.53979e-06
1.84446e-06
2.22322e-06
3.64684e-06
3.02174e-06
3.02214e-06
2.22373e-06
1.8427e-06
1.84225e-06
3.02169e-06
2.22341e-06
3.64603e-06
1.84383e-06
3.0213e-06
2.2229e-06
1.66574e-06
2.29493e-06
1.54253e-06
2.54015e-06
1.54353e-06
2.54039e-06
1.6636e-06
2.82758e-06
1.4152e-06
1.96795e-06
1.96818e-06
2.8279e-06
1.96725e-06
1.96747e-06
1.8431e-06
2.22371e-06
3.02281e-06
3.64666e-06
3.02238e-06
1.84509e-06
2.22319e-06
1.66405e-06
2.29511e-06
2.54085e-06
1.54402e-06
2.54061e-06
1.66619e-06
1.543e-06
1.84302e-06
2.22392e-06
3.02249e-06
3.64702e-06
1.84491e-06
3.02209e-06
2.22338e-06
1.66397e-06
2.29506e-06
2.54068e-06
1.54396e-06
1.66608e-06
2.54046e-06
1.54294e-06
1.84357e-06
2.22402e-06
3.02288e-06
3.64722e-06
3.0225e-06
1.84461e-06
2.2235e-06
1.66444e-06
2.29515e-06
2.54084e-06
1.54395e-06
2.54062e-06
1.66569e-06
1.54308e-06
1.8435e-06
2.22396e-06
3.02245e-06
3.64713e-06
1.84447e-06
3.02212e-06
2.22345e-06
1.66441e-06
2.29509e-06
1.54391e-06
2.54068e-06
1.66558e-06
1.54305e-06
2.54049e-06
1.66597e-06
2.29561e-06
1.54357e-06
2.54079e-06
1.54442e-06
2.54102e-06
1.66475e-06
1.84348e-06
2.22368e-06
3.02237e-06
3.64675e-06
2.22316e-06
1.84445e-06
3.022e-06
1.66444e-06
2.29513e-06
1.54395e-06
2.54071e-06
1.54309e-06
1.6656e-06
2.54049e-06
1.84487e-06
3.0224e-06
3.64754e-06
2.22341e-06
2.22395e-06
3.02277e-06
1.84387e-06
1.66662e-06
2.29563e-06
1.54345e-06
2.54078e-06
1.54448e-06
2.54105e-06
1.66409e-06
1.84306e-06
2.22403e-06
3.02256e-06
3.64726e-06
2.22351e-06
1.84495e-06
3.02216e-06
1.66399e-06
2.29511e-06
1.54402e-06
2.54072e-06
1.54303e-06
1.66612e-06
2.54047e-06
1.84548e-06
3.02254e-06
3.64804e-06
2.22378e-06
2.22431e-06
3.02297e-06
1.84353e-06
8.63159e-07
1.14876e-06
8.6302e-07
9.16199e-06
3.47534e-06
1.8429e-05
5.46353e-06
5.46194e-06
1.84268e-05
3.47482e-06
9.16201e-06
2.20556e-05
9.15957e-06
7.08878e-06
7.08914e-06
2.20621e-05
1.8424e-05
4.54467e-06
2.8123e-06
5.46322e-06
9.50452e-06
2.81174e-06
9.5009e-06
4.54514e-06
4.53877e-06
2.81114e-06
5.46194e-06
9.49961e-06
9.49667e-06
2.81062e-06
4.53882e-06
9.73622e-06
2.17294e-05
2.17297e-05
2.17231e-05
2.17234e-05
9.73586e-06
1.84218e-05
2.20527e-05
9.15954e-06
7.08952e-06
7.09005e-06
2.20596e-05
2.66809e-06
1.14916e-06
1.76819e-06
1.76808e-06
1.76778e-06
1.7677e-06
2.66818e-06
1.61845e-06
2.03204e-06
3.4747e-06
2.8605e-06
2.85983e-06
2.03222e-06
1.61655e-06
1.61849e-06
2.0319e-06
3.47464e-06
2.86043e-06
2.03189e-06
2.86027e-06
1.61658e-06
3.23778e-07
8.69025e-07
8.69151e-07
1.15444e-06
3.3981e-07
8.92445e-07
8.92575e-07
1.17363e-06
3.56087e-07
9.14878e-07
9.15003e-07
1.19215e-06
3.72529e-07
9.36303e-07
9.36424e-07
1.20973e-06
3.89054e-07
9.56718e-07
9.56843e-07
1.22639e-06
4.0558e-07
9.76137e-07
9.76256e-07
1.24218e-06
4.22028e-07
9.94566e-07
9.94683e-07
1.25712e-06
4.38323e-07
1.01201e-06
1.01213e-06
1.27121e-06
4.54394e-07
1.02848e-06
1.02861e-06
1.2845e-06
4.70173e-07
1.044e-06
1.04413e-06
1.29714e-06
4.856e-07
1.0586e-06
1.05873e-06
1.3091e-06
5.00625e-07
1.07229e-06
1.07241e-06
1.32037e-06
5.15201e-07
1.0851e-06
1.08522e-06
1.33101e-06
5.29285e-07
1.09706e-06
1.09717e-06
1.34093e-06
5.42842e-07
1.10818e-06
1.10829e-06
1.3502e-06
5.55842e-07
1.1185e-06
1.11861e-06
1.35886e-06
5.68257e-07
1.12805e-06
1.12815e-06
1.36692e-06
5.80068e-07
1.13684e-06
1.13695e-06
1.37439e-06
5.9126e-07
1.1449e-06
1.14501e-06
1.38131e-06
6.01825e-07
1.15226e-06
1.15237e-06
1.38769e-06
6.11753e-07
1.15893e-06
1.15904e-06
1.39352e-06
6.21042e-07
1.16495e-06
1.16506e-06
1.39882e-06
6.29693e-07
1.17032e-06
1.17044e-06
1.40365e-06
6.37707e-07
1.17509e-06
1.1752e-06
1.40799e-06
6.45089e-07