/*--------------------------------*- C++ -*----------------------------------*\
| =========                 |                                                 |
| \\      /  F ield         | OpenFOAM: The Open Source CFD Toolbox           |
|  \\    /   O peration     | Version:  2312                                  |
|   \\  /    A nd           | Website:  www.openfoam.com                      |
|    \\/     M anipulation  |                                                 |
\*---------------------------------------------------------------------------*/
FoamFile
{
    version     2.0;
    format      ascii;
    arch        "LSB;label=32;scalar=64";
    class       volScalarField;
    location    "450";
    object      k;
}
// * * * * * * * * * * * * * * * * * * * * * * * * * * * * * * * * * * * * * //

dimensions      [0 2 -2 0 0 0 0];

internalField   nonuniform List<scalar> 
43496
(
6.85736e-05
7.11958e-05
5.14159e-05
6.47958e-05
6.06271e-05
4.67102e-05
6.85722e-05
7.344e-05
6.06257e-05
5.14116e-05
4.67108e-05
6.47926e-05
5.35365e-05
6.99402e-05
6.9937e-05
7.11943e-05
7.34445e-05
7.18508e-05
6.8565e-05
7.15995e-05
7.1629e-05
7.15916e-05
7.16201e-05
7.18599e-05
7.16834e-05
7.97877e-05
7.97804e-05
7.16977e-05
7.1184e-05
7.18496e-05
6.85635e-05
7.16285e-05
7.15946e-05
7.16195e-05
7.15866e-05
7.18587e-05
7.16815e-05
7.97686e-05
7.34311e-05
7.97609e-05
7.16957e-05
9.49806e-05
7.34964e-05
7.35026e-05
7.34829e-05
7.34891e-05
9.4983e-05
7.41985e-05
7.32791e-05
6.99369e-05
6.52489e-05
7.32705e-05
6.5236e-05
7.42036e-05
7.41508e-05
7.32711e-05
6.99338e-05
6.52437e-05
6.52311e-05
7.32623e-05
7.41559e-05
7.11825e-05
7.34333e-05
3.19041e-05
3.8908e-05
3.19093e-05
6.4785e-05
6.03782e-05
6.03733e-05
5.62987e-05
6.06134e-05
6.23207e-05
5.50092e-05
6.23085e-05
5.50263e-05
5.62862e-05
5.73944e-05
6.42052e-05
6.41952e-05
5.73797e-05
5.62964e-05
6.0612e-05
5.50083e-05
6.2317e-05
5.50252e-05
6.23047e-05
5.62841e-05
5.73911e-05
6.4198e-05
6.47822e-05
6.0372e-05
6.41878e-05
5.73765e-05
6.03721e-05
6.59263e-05
5.35335e-05
5.94788e-05
5.94811e-05
5.94768e-05
5.94745e-05
6.59325e-05
3.83865e-05
5.11094e-05
5.11126e-05
5.32893e-05
3.88043e-05
5.13551e-05
5.13582e-05
5.34843e-05
5.3291e-05
5.34424e-05
5.11098e-05
5.11046e-05
5.12961e-05
5.12915e-05
5.32991e-05
5.34299e-05
5.11071e-05
5.11081e-05
5.12935e-05
5.12944e-05
5.11095e-05
5.12949e-05
5.12941e-05
5.3292e-05
5.34435e-05
5.11066e-05
5.12988e-05
5.12936e-05
5.34413e-05
5.34863e-05
5.13557e-05
5.13497e-05
5.34959e-05
5.13531e-05
5.1354e-05
5.13565e-05
5.34867e-05
5.13526e-05
6.85152e-05
7.33588e-05
7.33853e-05
6.84866e-05
7.1114e-05
7.11404e-05
6.85135e-05
7.33615e-05
7.3386e-05
6.84872e-05
3.83856e-05
3.83912e-05
3.83903e-05
3.87023e-05
3.87018e-05
3.87066e-05
3.87055e-05
6.05219e-05
6.46951e-05
4.63284e-05
5.1172e-05
6.4726e-05
4.64085e-05
6.04766e-05
7.11153e-05
7.11413e-05
6.05237e-05
4.63318e-05
6.46952e-05
5.11759e-05
4.64115e-05
6.47265e-05
6.0475e-05
6.98615e-05
6.98695e-05
5.33438e-05
6.98796e-05
6.98886e-05
7.34182e-05
6.85496e-05
7.11691e-05
7.3421e-05
6.85503e-05
3.88034e-05
3.88088e-05
3.8808e-05
6.06269e-05
6.47678e-05
4.66383e-05
6.05873e-05
4.67118e-05
7.11705e-05
6.06291e-05
4.66418e-05
6.47679e-05
6.05852e-05
4.67146e-05
6.99169e-05
6.99251e-05
5.35251e-05
6.99332e-05
6.99416e-05
7.11129e-05
7.11391e-05
7.11159e-05
7.1142e-05
6.98653e-05
6.9873e-05
5.3345e-05
6.98841e-05
6.98922e-05
7.11665e-05
7.11407e-05
7.11694e-05
7.11437e-05
5.3389e-05
6.99114e-05
6.99196e-05
6.98936e-05
6.99014e-05
6.85136e-05
7.33554e-05
7.33819e-05
6.84849e-05
6.05244e-05
6.46943e-05
4.63277e-05
5.11733e-05
6.47254e-05
4.64076e-05
6.04754e-05
6.05227e-05
6.46904e-05
4.63251e-05
5.11683e-05
6.47213e-05
4.64053e-05
6.04738e-05
6.85189e-05
7.34147e-05
7.33889e-05
6.85464e-05
6.85172e-05
7.34115e-05
7.33854e-05
6.85448e-05
6.05323e-05
5.12355e-05
6.47613e-05
4.65626e-05
6.47316e-05
4.64862e-05
6.05787e-05
6.05306e-05
5.123e-05
6.4757e-05
4.65604e-05
6.47277e-05
4.64834e-05
6.05769e-05
6.9865e-05
6.98669e-05
5.33328e-05
6.98843e-05
6.98849e-05
7.11141e-05
7.11403e-05
7.11678e-05
7.11418e-05
5.33976e-05
6.99116e-05
6.99122e-05
6.98933e-05
6.98952e-05
7.11677e-05
7.11419e-05
6.05219e-05
6.46964e-05
4.6327e-05
5.11705e-05
6.4727e-05
4.64068e-05
6.04768e-05
6.8512e-05
7.33569e-05
7.33816e-05
6.84856e-05
6.05205e-05
4.63278e-05
6.46924e-05
5.11715e-05
4.64075e-05
6.47231e-05
6.04755e-05
6.85194e-05
7.34157e-05
7.33915e-05
6.85446e-05
6.05336e-05
5.12329e-05
6.4763e-05
4.65618e-05
6.47337e-05
4.64856e-05
6.05759e-05
6.85179e-05
7.34112e-05
7.3387e-05
6.8543e-05
6.05323e-05
5.12338e-05
4.65625e-05
6.47591e-05
4.64863e-05
6.47297e-05
6.05746e-05
6.85117e-05
7.33588e-05
7.33852e-05
6.8485e-05
6.0522e-05
4.63296e-05
6.46911e-05
5.11719e-05
4.64089e-05
6.47222e-05
6.04769e-05
6.85126e-05
7.33565e-05
7.33824e-05
6.84862e-05
6.05335e-05
5.1235e-05
6.47616e-05
4.65634e-05
6.47323e-05
4.64868e-05
6.05759e-05
6.85176e-05
7.34149e-05
7.33888e-05
6.85427e-05
6.05337e-05
5.12357e-05
4.65637e-05
6.47581e-05
4.64881e-05
6.47286e-05
6.0576e-05
6.85186e-05
7.3412e-05
7.3386e-05
6.85437e-05
6.98681e-05
6.98653e-05
5.33461e-05
6.98873e-05
6.98842e-05
7.11138e-05
7.11399e-05
7.11687e-05
7.11431e-05
5.33901e-05
6.99139e-05
6.99111e-05
6.98964e-05
6.98935e-05
7.11673e-05
7.11415e-05
6.05212e-05
4.63294e-05
6.46935e-05
5.11707e-05
4.64088e-05
6.47247e-05
6.04728e-05
6.85122e-05
7.33594e-05
7.33859e-05
6.84841e-05
6.85085e-05
7.33574e-05
7.33839e-05
6.84807e-05
6.05318e-05
5.12382e-05
4.65664e-05
6.47622e-05
4.64902e-05
6.47325e-05
6.05778e-05
6.05295e-05
5.12323e-05
4.65637e-05
6.47606e-05
4.64878e-05
6.47308e-05
6.05753e-05
6.85163e-05
7.34155e-05
7.33895e-05
6.85432e-05
6.8513e-05
7.34136e-05
7.33875e-05
6.85396e-05
7.11139e-05
7.114e-05
7.11165e-05
7.11427e-05
5.33877e-05
6.99071e-05
6.99154e-05
6.98899e-05
6.98978e-05
7.11675e-05
7.11417e-05
7.11701e-05
7.11443e-05
7.11681e-05
7.11711e-05
6.99206e-05
6.99283e-05
7.34149e-05
6.85479e-05
6.47671e-05
4.6638e-05
6.0586e-05
6.47631e-05
4.66352e-05
6.05842e-05
6.99202e-05
6.99222e-05
7.11693e-05
6.47688e-05
4.66373e-05
6.05873e-05
7.34164e-05
6.85487e-05
4.6638e-05
6.47651e-05
6.0586e-05
6.85718e-05
7.34183e-05
6.85483e-05
6.06271e-05
4.66398e-05
6.4764e-05
5.14103e-05
6.05874e-05
4.67117e-05
6.47919e-05
6.85729e-05
7.34155e-05
6.85494e-05
7.34411e-05
6.99238e-05
6.99207e-05
7.11689e-05
6.06267e-05
4.66395e-05
6.47662e-05
5.14113e-05
6.0583e-05
4.6712e-05
6.47942e-05
6.85725e-05
7.3419e-05
6.85469e-05
6.85689e-05
7.3417e-05
6.85437e-05
7.34426e-05
7.11691e-05
7.11945e-05
7.11717e-05
7.11972e-05
7.17932e-05
7.15715e-05
7.15472e-05
6.85027e-05
7.1559e-05
7.15349e-05
7.18028e-05
7.16308e-05
7.33703e-05
7.97182e-05
7.97269e-05
7.16162e-05
7.16298e-05
7.97401e-05
7.33739e-05
7.97314e-05
7.16443e-05
7.17882e-05
6.84991e-05
7.15443e-05
7.15202e-05
7.15565e-05
7.15326e-05
7.17785e-05
7.11265e-05
7.11279e-05
7.17935e-05
7.15444e-05
7.15703e-05
6.85036e-05
7.15354e-05
7.15609e-05
7.18029e-05
7.1631e-05
7.33711e-05
7.97164e-05
7.97246e-05
7.16164e-05
7.163e-05
7.97377e-05
7.33765e-05
7.97296e-05
7.16445e-05
7.17883e-05
6.84975e-05
7.15206e-05
7.1546e-05
7.15298e-05
7.15555e-05
7.17787e-05
7.11275e-05
7.11292e-05
9.49248e-05
7.34532e-05
7.34465e-05
7.34395e-05
7.34329e-05
9.4928e-05
7.40736e-05
6.51181e-05
6.98654e-05
7.31901e-05
6.51322e-05
7.31997e-05
7.40679e-05
7.41217e-05
6.51259e-05
6.98744e-05
7.31983e-05
6.51407e-05
7.32107e-05
7.41157e-05
7.40851e-05
7.32139e-05
6.98759e-05
6.51553e-05
6.51415e-05
7.32047e-05
7.40906e-05
7.4133e-05
7.32252e-05
6.98838e-05
6.51637e-05
6.51493e-05
7.32129e-05
7.41386e-05
9.49134e-05
7.34267e-05
7.34201e-05
7.34404e-05
7.34338e-05
9.491e-05
7.16844e-05
7.97703e-05
7.34296e-05
7.167e-05
7.97779e-05
7.18464e-05
6.85616e-05
7.16036e-05
7.15778e-05
7.18363e-05
7.16164e-05
7.15901e-05
7.11814e-05
7.16845e-05
7.97681e-05
7.34298e-05
7.16702e-05
7.97757e-05
7.18459e-05
6.85595e-05
7.15783e-05
7.16056e-05
7.18366e-05
7.15866e-05
7.16148e-05
7.11823e-05
9.49813e-05
7.35034e-05
7.34967e-05
7.34899e-05
7.34833e-05
9.4984e-05
7.41393e-05
6.52079e-05
7.32477e-05
6.99203e-05
7.41341e-05
6.52203e-05
7.32566e-05
7.41871e-05
6.52156e-05
7.32573e-05
6.99287e-05
7.41819e-05
6.52287e-05
7.32664e-05
9.49703e-05
7.34774e-05
7.34708e-05
9.49677e-05
7.34909e-05
7.34843e-05
7.41495e-05
7.32703e-05
6.99299e-05
6.52406e-05
6.52288e-05
7.32616e-05
7.41548e-05
7.41972e-05
7.32799e-05
6.99382e-05
6.52492e-05
6.52364e-05
7.32713e-05
7.42027e-05
7.11252e-05
7.11269e-05
7.11281e-05
7.11299e-05
9.49284e-05
7.3453e-05
7.34462e-05
7.34393e-05
7.34325e-05
9.49318e-05
7.4076e-05
6.5121e-05
6.987e-05
7.31895e-05
7.32022e-05
6.51335e-05
7.40701e-05
7.41219e-05
6.51274e-05
6.98781e-05
7.31988e-05
7.32114e-05
6.51413e-05
7.41162e-05
7.40874e-05
7.32166e-05
6.98796e-05
6.51566e-05
7.32041e-05
7.40929e-05
6.51443e-05
7.41334e-05
7.32259e-05
6.98874e-05
6.51644e-05
7.32134e-05
7.41389e-05
6.51508e-05
9.49171e-05
7.34265e-05
7.34197e-05
7.34403e-05
7.34335e-05
9.49136e-05
7.11544e-05
7.11529e-05
7.11574e-05
7.11558e-05
9.49461e-05
7.3452e-05
7.34452e-05
9.49429e-05
7.34657e-05
7.34589e-05
7.41205e-05
6.52007e-05
6.99072e-05
7.32453e-05
7.32327e-05
6.51893e-05
7.41257e-05
7.41665e-05
6.52085e-05
6.9915e-05
7.32545e-05
7.3242e-05
6.51956e-05
7.41717e-05
7.41096e-05
7.32187e-05
6.51671e-05
6.98979e-05
7.41041e-05
7.32309e-05
6.51788e-05
7.41555e-05
7.32279e-05
6.51734e-05
6.9906e-05
7.41502e-05
7.32401e-05
6.51867e-05
9.49571e-05
7.34783e-05
7.34715e-05
7.34646e-05
7.34578e-05
9.49602e-05
7.17923e-05
7.15698e-05
7.1542e-05
6.85011e-05
7.15603e-05
7.15295e-05
7.18017e-05
7.16301e-05
7.33669e-05
7.96997e-05
7.97086e-05
7.16156e-05
7.16291e-05
7.97217e-05
7.33705e-05
7.97129e-05
7.16436e-05
7.17872e-05
6.84975e-05
7.15453e-05
7.15149e-05
7.15549e-05
7.15273e-05
7.17776e-05
7.18172e-05
7.15742e-05
7.15497e-05
6.8531e-05
7.18077e-05
7.15864e-05
7.15617e-05
7.16567e-05
7.34036e-05
7.97655e-05
7.16711e-05
7.97575e-05
7.16578e-05
7.97445e-05
7.34001e-05
7.16433e-05
7.97529e-05
7.18224e-05
6.85346e-05
7.16013e-05
7.15759e-05
7.18318e-05
7.15892e-05
7.15642e-05
7.18163e-05
7.15752e-05
7.15444e-05
6.85294e-05
7.18067e-05
7.15849e-05
7.15565e-05
7.1656e-05
7.34003e-05
7.97472e-05
7.97388e-05
7.16704e-05
7.16571e-05
7.9726e-05
7.33967e-05
7.16426e-05
7.97346e-05
7.18214e-05
6.85329e-05
7.15996e-05
7.15709e-05
7.15901e-05
7.15587e-05
7.18308e-05
9.49275e-05
7.3447e-05
7.3453e-05
7.34332e-05
7.34393e-05
9.49298e-05
7.4122e-05
6.51245e-05
6.98701e-05
7.31971e-05
7.32097e-05
6.51376e-05
7.41164e-05
7.40748e-05
6.51212e-05
6.98708e-05
7.31919e-05
6.51346e-05
7.32013e-05
7.40703e-05
7.41336e-05
7.32241e-05
6.98794e-05
6.51607e-05
7.32118e-05
6.51479e-05
7.41389e-05
7.40875e-05
7.32157e-05
6.98812e-05
6.51576e-05
6.51445e-05
7.32064e-05
7.40917e-05
9.49151e-05
7.34204e-05
7.34265e-05
7.34342e-05
7.34403e-05
9.49128e-05
7.11264e-05
7.11281e-05
7.11555e-05
7.11541e-05
9.49441e-05
7.34459e-05
7.3452e-05
9.49419e-05
7.34596e-05
7.34657e-05
7.41671e-05
6.52048e-05
6.99069e-05
7.32528e-05
6.51929e-05
7.32404e-05
7.41712e-05
7.41207e-05
6.52017e-05
6.99089e-05
7.32444e-05
7.32353e-05
6.51894e-05
7.41246e-05
7.41548e-05
7.32263e-05
6.51707e-05
6.98979e-05
6.5183e-05
7.41504e-05
7.32384e-05
7.41084e-05
7.3221e-05
6.51671e-05
6.98988e-05
7.41043e-05
7.32304e-05
6.51799e-05
9.49562e-05
7.34722e-05
7.34783e-05
7.34585e-05
7.34646e-05
9.49583e-05
7.11557e-05
7.1154e-05
7.17919e-05
7.15698e-05
7.15393e-05
6.8502e-05
7.15604e-05
7.15302e-05
7.18014e-05
7.1629e-05
7.33667e-05
7.96966e-05
7.97052e-05
7.16144e-05
7.1628e-05
7.97184e-05
7.3372e-05
7.97099e-05
7.16425e-05
7.17868e-05
6.8496e-05
7.15454e-05
7.15154e-05
7.1555e-05
7.15247e-05
7.17773e-05
7.18173e-05
7.15499e-05
7.15757e-05
6.85293e-05
7.1808e-05
7.1559e-05
7.15854e-05
7.16569e-05
7.34063e-05
7.97634e-05
7.16713e-05
7.97554e-05
7.16579e-05
7.97427e-05
7.34011e-05
7.16435e-05
7.97507e-05
7.18225e-05
6.8535e-05
7.1573e-05
7.16002e-05
7.1832e-05
7.15642e-05
7.15906e-05
7.18158e-05
7.15753e-05
7.15448e-05
6.85278e-05
7.18064e-05
7.15849e-05
7.15539e-05
7.16549e-05
7.34019e-05
7.9744e-05
7.97359e-05
7.16693e-05
7.16559e-05
7.9723e-05
7.33966e-05
7.16415e-05
7.97313e-05
7.1821e-05
6.85335e-05
7.15995e-05
7.15679e-05
7.15902e-05
7.15592e-05
7.18304e-05
7.1789e-05
7.15408e-05
7.1571e-05
6.85017e-05
7.15299e-05
7.15584e-05
7.18035e-05
7.16297e-05
7.33703e-05
7.97129e-05
7.97173e-05
7.16145e-05
7.16281e-05
7.97305e-05
7.33739e-05
7.97262e-05
7.16432e-05
7.17888e-05
6.84959e-05
7.15151e-05
7.15437e-05
7.15262e-05
7.15561e-05
7.17744e-05
7.17901e-05
7.15699e-05
7.15405e-05
6.85026e-05
7.15604e-05
7.15307e-05
7.18038e-05
7.16297e-05
7.33669e-05
7.96964e-05
7.97047e-05
7.16151e-05
7.16287e-05
7.97178e-05
7.33708e-05
7.97097e-05
7.16433e-05
7.17893e-05
6.84966e-05
7.15455e-05
7.15147e-05
7.15551e-05
7.15267e-05
7.17752e-05
7.1818e-05
7.15445e-05
7.15735e-05
6.85275e-05
7.18037e-05
7.15552e-05
7.15861e-05
7.1655e-05
7.34036e-05
7.97561e-05
7.97519e-05
7.167e-05
7.16566e-05
7.97391e-05
7.34001e-05
7.16416e-05
7.97432e-05
7.18182e-05
6.85331e-05
7.15692e-05
7.16008e-05
7.15589e-05
7.15883e-05
7.18322e-05
7.18183e-05
7.15753e-05
7.15455e-05
6.85285e-05
7.18047e-05
7.1585e-05
7.15546e-05
7.16556e-05
7.34007e-05
7.97435e-05
7.97355e-05
7.167e-05
7.16567e-05
7.97228e-05
7.33973e-05
7.16422e-05
7.97308e-05
7.18192e-05
6.85342e-05
7.15996e-05
7.15685e-05
7.15902e-05
7.15598e-05
7.18325e-05
9.49242e-05
7.34462e-05
7.34524e-05
7.34326e-05
7.34388e-05
9.49268e-05
7.41227e-05
6.51252e-05
6.98731e-05
7.31975e-05
7.32099e-05
6.51402e-05
7.41168e-05
7.4075e-05
6.51206e-05
6.987e-05
7.31893e-05
6.5135e-05
7.32018e-05
7.4069e-05
7.41341e-05
7.32244e-05
6.98824e-05
6.51632e-05
7.32121e-05
6.51487e-05
7.41396e-05
7.40863e-05
7.32162e-05
6.98795e-05
6.51581e-05
6.5144e-05
7.32039e-05
7.40919e-05
9.49121e-05
7.34198e-05
7.3426e-05
7.34335e-05
7.34397e-05
9.49095e-05
7.1126e-05
7.11277e-05
7.11568e-05
7.11551e-05
9.49412e-05
7.34453e-05
7.34515e-05
9.49387e-05
7.34589e-05
7.34651e-05
7.41672e-05
6.52074e-05
6.99103e-05
7.32517e-05
6.51935e-05
7.32421e-05
7.41723e-05
7.41194e-05
6.52022e-05
6.99072e-05
7.32445e-05
7.32327e-05
6.51886e-05
7.41246e-05
7.41563e-05
7.32266e-05
6.51714e-05
6.99006e-05
6.51856e-05
7.41509e-05
7.32385e-05
7.41085e-05
7.32185e-05
6.51667e-05
6.98979e-05
7.41031e-05
7.32304e-05
6.51804e-05
9.49529e-05
7.34715e-05
7.34777e-05
7.34579e-05
7.34641e-05
9.49554e-05
7.11553e-05
7.11537e-05
7.17906e-05
7.15459e-05
7.15706e-05
6.85003e-05
7.15335e-05
7.1558e-05
7.18045e-05
7.16307e-05
7.33709e-05
7.9714e-05
7.97225e-05
7.16162e-05
7.16297e-05
7.97357e-05
7.33745e-05
7.97272e-05
7.16442e-05
7.17899e-05
6.84961e-05
7.15189e-05
7.15434e-05
7.15312e-05
7.15557e-05
7.17757e-05
7.1791e-05
7.15378e-05
7.15697e-05
6.8497e-05
7.1526e-05
7.1557e-05
7.18006e-05
7.16302e-05
7.3369e-05
7.96976e-05
7.97061e-05
7.16155e-05
7.16291e-05
7.97193e-05
7.33725e-05
7.97109e-05
7.16437e-05
7.17862e-05
6.84923e-05
7.15112e-05
7.15423e-05
7.1523e-05
7.15548e-05
7.17764e-05
7.18189e-05
7.15483e-05
7.15731e-05
6.8528e-05
7.18052e-05
7.15604e-05
7.15857e-05
7.16566e-05
7.34042e-05
7.97612e-05
7.9753e-05
7.1671e-05
7.16576e-05
7.97402e-05
7.34007e-05
7.16432e-05
7.97486e-05
7.18197e-05
6.85318e-05
7.15744e-05
7.16003e-05
7.15625e-05
7.15879e-05
7.18331e-05
7.18151e-05
7.15408e-05
7.15721e-05
6.85243e-05
7.18055e-05
7.15523e-05
7.15848e-05
7.1656e-05
7.34022e-05
7.9745e-05
7.97368e-05
7.16705e-05
7.16571e-05
7.9724e-05
7.33988e-05
7.16426e-05
7.97323e-05
7.18202e-05
6.85285e-05
7.15664e-05
7.15995e-05
7.15551e-05
7.15869e-05
7.18296e-05
7.11261e-05
7.11279e-05
7.11288e-05
7.11305e-05
9.49424e-05
7.34522e-05
7.34456e-05
9.49393e-05
7.34658e-05
7.34592e-05
7.41182e-05
6.51992e-05
6.99036e-05
7.32426e-05
7.41235e-05
6.51864e-05
7.32335e-05
7.4166e-05
6.52077e-05
6.99115e-05
7.32529e-05
7.41714e-05
6.51942e-05
7.32426e-05
7.41073e-05
7.32192e-05
6.51642e-05
6.98936e-05
7.41019e-05
6.51776e-05
7.32286e-05
7.41553e-05
7.32275e-05
6.5172e-05
6.99023e-05
7.41497e-05
6.51859e-05
7.32393e-05
9.49535e-05
7.34784e-05
7.34718e-05
9.49565e-05
7.34649e-05
7.34582e-05
7.11555e-05
7.11538e-05
7.11581e-05
7.11565e-05
7.11801e-05
7.1183e-05
7.41418e-05
6.52109e-05
7.32469e-05
6.99248e-05
7.41364e-05
7.32596e-05
6.5222e-05
7.41876e-05
6.52171e-05
7.32562e-05
6.99331e-05
7.41823e-05
7.32689e-05
6.52297e-05
9.49743e-05
7.34772e-05
7.34704e-05
9.49711e-05
7.34908e-05
7.3484e-05
7.16837e-05
7.97515e-05
7.34263e-05
7.16694e-05
7.97597e-05
7.18448e-05
6.856e-05
7.16046e-05
7.15724e-05
7.16149e-05
7.18357e-05
7.15848e-05
7.4187e-05
6.52144e-05
7.32545e-05
6.99252e-05
7.32672e-05
7.41831e-05
6.5226e-05
7.41403e-05
6.52108e-05
7.32495e-05
6.99254e-05
6.52229e-05
7.41367e-05
7.32582e-05
9.49722e-05
7.34711e-05
7.34772e-05
7.34847e-05
9.49702e-05
7.34908e-05
7.16826e-05
7.97486e-05
7.34258e-05
7.16682e-05
7.97564e-05
7.18447e-05
6.8558e-05
7.16049e-05
7.15731e-05
7.16143e-05
7.18352e-05
7.15817e-05
7.18462e-05
6.85631e-05
7.16301e-05
7.15872e-05
7.16175e-05
7.16832e-05
7.97643e-05
7.34296e-05
7.97685e-05
7.16683e-05
7.1847e-05
6.85576e-05
7.15733e-05
7.16031e-05
7.15821e-05
7.18326e-05
7.16154e-05
7.16814e-05
7.18472e-05
6.85642e-05
7.16286e-05
7.15954e-05
7.16196e-05
7.15873e-05
7.18621e-05
7.16833e-05
7.9748e-05
7.34266e-05
7.16689e-05
7.97559e-05
7.1847e-05
6.85587e-05
7.1605e-05
7.15738e-05
7.18338e-05
7.16144e-05
7.15824e-05
7.16822e-05
7.97681e-05
7.343e-05
7.97603e-05
7.16965e-05
7.4188e-05
6.5215e-05
7.32564e-05
6.99273e-05
7.32656e-05
7.41832e-05
6.52283e-05
7.41401e-05
6.52101e-05
7.32478e-05
6.99242e-05
6.52232e-05
7.41354e-05
7.32578e-05
9.49693e-05
7.34705e-05
7.34766e-05
7.3484e-05
9.49669e-05
7.34902e-05
7.11809e-05
7.18479e-05
6.85615e-05
7.16013e-05
7.16289e-05
7.15896e-05
7.16177e-05
7.18625e-05
7.16842e-05
7.97655e-05
7.343e-05
7.97736e-05
7.16699e-05
7.18476e-05
6.8558e-05
7.15764e-05
7.16028e-05
7.15879e-05
7.18341e-05
7.16147e-05
7.16831e-05
7.97857e-05
7.97778e-05
7.16974e-05
7.18487e-05
6.85584e-05
7.15934e-05
7.1628e-05
7.15824e-05
7.16168e-05
7.18593e-05
7.16838e-05
7.97495e-05
7.34281e-05
7.16694e-05
7.97573e-05
7.18441e-05
6.85543e-05
7.1569e-05
7.16018e-05
7.18343e-05
7.158e-05
7.16138e-05
7.16826e-05
7.97695e-05
7.34315e-05
7.97618e-05
7.1697e-05
7.11811e-05
7.11826e-05
7.11837e-05
7.11853e-05
3.12704e-05
3.12683e-05
3.84935e-05
3.14011e-05
3.13987e-05
2.22639e-05
2.21124e-05
6.58131e-05
5.93017e-05
5.93035e-05
5.32942e-05
5.93075e-05
5.93085e-05
6.58059e-05
3.17831e-05
3.17808e-05
2.28618e-05
2.27138e-05
6.59082e-05
5.94399e-05
5.94404e-05
5.34878e-05
6.59022e-05
5.94445e-05
5.9445e-05
6.58152e-05
5.9304e-05
5.93032e-05
5.32957e-05
5.93093e-05
5.93107e-05
6.58073e-05
6.58809e-05
5.34385e-05
5.94133e-05
5.94137e-05
5.94087e-05
5.94097e-05
6.58877e-05
6.58135e-05
5.93033e-05
5.93056e-05
5.32832e-05
5.93052e-05
5.93032e-05
6.58077e-05
6.58812e-05
5.34476e-05
5.94073e-05
5.94116e-05
5.9408e-05
5.94122e-05
6.58865e-05
6.58145e-05
5.93036e-05
5.93045e-05
5.32967e-05
5.93121e-05
5.93085e-05
6.58069e-05
6.58806e-05
5.34396e-05
5.94122e-05
5.94146e-05
5.94078e-05
5.94108e-05
6.58869e-05
6.5879e-05
5.34374e-05
5.94114e-05
5.94122e-05
6.58858e-05
5.94072e-05
5.94074e-05
6.59111e-05
5.94428e-05
5.94431e-05
5.34894e-05
6.5904e-05
5.94476e-05
5.94478e-05
6.59094e-05
5.94427e-05
5.94457e-05
5.34738e-05
5.9442e-05
6.59044e-05
5.94386e-05
6.59094e-05
5.94404e-05
5.94426e-05
5.34897e-05
5.94478e-05
6.59038e-05
5.94453e-05
3.12697e-05
3.12697e-05
3.84929e-05
3.14007e-05
3.13996e-05
2.22644e-05
2.21129e-05
3.1274e-05
3.12739e-05
3.84979e-05
3.14042e-05
3.14045e-05
2.22681e-05
2.21166e-05
3.12757e-05
3.12726e-05
3.84968e-05
3.14049e-05
3.14045e-05
2.22689e-05
2.21169e-05
3.85989e-05
3.16574e-05
3.16549e-05
3.15301e-05
3.15281e-05
2.24148e-05
2.25646e-05
3.85979e-05
3.16569e-05
3.16558e-05
3.15293e-05
3.15295e-05
2.24153e-05
2.25651e-05
3.86035e-05
3.16603e-05
3.16607e-05
3.15338e-05
3.15335e-05
2.24189e-05
2.25688e-05
3.86026e-05
3.16609e-05
3.1661e-05
3.15355e-05
3.15321e-05
2.24192e-05
2.25696e-05
5.61409e-05
6.22237e-05
5.48431e-05
6.05058e-05
6.22092e-05
5.48557e-05
5.61329e-05
5.72147e-05
6.02266e-05
6.47076e-05
6.40851e-05
6.02329e-05
6.40991e-05
5.72116e-05
5.72474e-05
6.41207e-05
6.47141e-05
6.02597e-05
6.02583e-05
6.41078e-05
5.72475e-05
5.60914e-05
6.04936e-05
6.2183e-05
5.48087e-05
6.21981e-05
5.47974e-05
5.60986e-05
5.61396e-05
5.4852e-05
6.22282e-05
6.05037e-05
5.48473e-05
6.22086e-05
5.61361e-05
5.72171e-05
6.0227e-05
6.4708e-05
6.40868e-05
6.0236e-05
6.41013e-05
5.72134e-05
5.72499e-05
6.41236e-05
6.4714e-05
6.02661e-05
6.02577e-05
6.41092e-05
5.72532e-05
5.60936e-05
6.04953e-05
5.48008e-05
6.2183e-05
5.48059e-05
6.22026e-05
5.60967e-05
6.58311e-05
5.33397e-05
5.93438e-05
5.93435e-05
5.93367e-05
5.93386e-05
6.58381e-05
3.17823e-05
3.17825e-05
3.1905e-05
2.28622e-05
2.27142e-05
3.17865e-05
3.17863e-05
3.19102e-05
2.28659e-05
2.27179e-05
3.17885e-05
3.17845e-05
3.89079e-05
3.19097e-05
3.19113e-05
2.28668e-05
2.27181e-05
5.62991e-05
6.06132e-05
6.23196e-05
5.50096e-05
6.23073e-05
5.50266e-05
5.62877e-05
5.73496e-05
6.03483e-05
6.41731e-05
6.47787e-05
5.73625e-05
6.03474e-05
6.41842e-05
5.62512e-05
6.06021e-05
6.22841e-05
5.49833e-05
5.62612e-05
6.2297e-05
5.49703e-05
5.62981e-05
6.06109e-05
5.50203e-05
6.23246e-05
5.50172e-05
6.23064e-05
5.62931e-05
5.7359e-05
6.03442e-05
6.41741e-05
6.47792e-05
5.73563e-05
6.03519e-05
6.41873e-05
5.62546e-05
6.06036e-05
5.49751e-05
6.22836e-05
5.62603e-05
5.4979e-05
6.23014e-05
5.73894e-05
6.42071e-05
6.41942e-05
5.73916e-05
6.59249e-05
5.35288e-05
5.94739e-05
5.94746e-05
5.94728e-05
5.94735e-05
6.59294e-05
6.58326e-05
5.33411e-05
5.93443e-05
5.9345e-05
6.58399e-05
5.93396e-05
5.93408e-05
6.58641e-05
5.33929e-05
5.93738e-05
5.93736e-05
6.5857e-05
5.93785e-05
5.93795e-05
5.6141e-05
6.22284e-05
5.48512e-05
6.05041e-05
6.2209e-05
5.48466e-05
5.61356e-05
5.72163e-05
6.02252e-05
6.47067e-05
6.40871e-05
6.41012e-05
6.02343e-05
5.72131e-05
5.72495e-05
6.41236e-05
6.47131e-05
6.02646e-05
6.41096e-05
6.02561e-05
5.72527e-05
5.60934e-05
6.04959e-05
6.21833e-05
5.48004e-05
6.22026e-05
5.48051e-05
5.60991e-05
5.61333e-05
6.22234e-05
5.48492e-05
6.05024e-05
6.22037e-05
5.48446e-05
5.61303e-05
5.72092e-05
6.02216e-05
6.47026e-05
6.40789e-05
6.40933e-05
6.02306e-05
5.72055e-05
5.72422e-05
6.41156e-05
6.47093e-05
6.02608e-05
6.41013e-05
5.72454e-05
6.02524e-05
5.60873e-05
6.04943e-05
6.21781e-05
5.47984e-05
6.21977e-05
5.48034e-05
5.60896e-05
5.61764e-05
6.22349e-05
5.48899e-05
6.05519e-05
5.61819e-05
6.22538e-05
5.48942e-05
5.7321e-05
6.03218e-05
6.47494e-05
6.4167e-05
6.03166e-05
6.41534e-05
5.7324e-05
5.72888e-05
6.41319e-05
6.02856e-05
6.47435e-05
6.02934e-05
5.72859e-05
6.41455e-05
5.62217e-05
6.05596e-05
6.22787e-05
5.49372e-05
6.226e-05
5.49333e-05
5.62162e-05
5.61709e-05
6.22295e-05
5.48878e-05
6.05502e-05
5.61751e-05
6.22487e-05
5.4892e-05
5.73136e-05
6.03177e-05
6.47456e-05
6.41589e-05
6.41452e-05
6.03126e-05
5.73167e-05
5.72815e-05
6.41236e-05
6.02818e-05
6.47393e-05
5.72786e-05
6.41375e-05
6.02895e-05
5.62154e-05
6.05579e-05
6.22735e-05
5.49349e-05
6.22545e-05
5.4931e-05
5.62108e-05
6.58328e-05
5.33488e-05
5.93393e-05
5.93413e-05
5.93418e-05
5.93391e-05
6.58384e-05
6.58629e-05
5.33828e-05
5.93735e-05
5.93779e-05
5.93741e-05
6.58574e-05
5.93774e-05
5.61414e-05
6.22246e-05
5.48421e-05
6.05059e-05
6.22103e-05
5.48551e-05
5.61299e-05
5.7207e-05
6.02299e-05
6.47085e-05
6.40872e-05
6.40994e-05
6.0231e-05
5.72176e-05
5.72537e-05
6.41218e-05
6.47154e-05
6.02615e-05
6.41098e-05
6.02605e-05
5.72435e-05
5.60882e-05
6.04937e-05
6.21843e-05
5.48081e-05
6.2199e-05
5.47963e-05
5.60997e-05
5.61391e-05
5.48409e-05
6.2221e-05
6.05045e-05
5.48539e-05
6.22066e-05
5.61277e-05
5.72037e-05
6.02266e-05
6.47045e-05
6.408e-05
6.40925e-05
6.0228e-05
5.7214e-05
5.72501e-05
6.41147e-05
6.47113e-05
6.02585e-05
6.41026e-05
5.72402e-05
6.02572e-05
5.6086e-05
6.04923e-05
5.48071e-05
6.21806e-05
5.47953e-05
6.21954e-05
5.60973e-05
5.61714e-05
6.22359e-05
5.48978e-05
6.05495e-05
5.61824e-05
6.225e-05
5.48848e-05
5.73249e-05
6.03195e-05
6.47515e-05
6.41652e-05
6.03197e-05
6.41538e-05
5.73148e-05
5.72786e-05
6.4132e-05
6.02899e-05
6.47453e-05
6.02909e-05
5.72899e-05
6.41438e-05
5.62225e-05
6.05608e-05
6.22743e-05
5.49275e-05
6.22608e-05
5.49412e-05
5.62113e-05
5.61692e-05
5.48968e-05
6.22321e-05
6.05481e-05
5.61801e-05
5.48838e-05
6.22464e-05
5.73214e-05
6.03169e-05
6.47477e-05
6.41581e-05
6.41465e-05
6.03162e-05
5.73115e-05
5.72754e-05
6.41246e-05
6.02866e-05
6.47413e-05
5.72864e-05
6.41368e-05
6.02879e-05
5.62202e-05
6.05595e-05
5.49264e-05
6.22707e-05
5.49401e-05
6.22571e-05
5.6209e-05
5.61422e-05
5.4843e-05
6.22227e-05
6.05059e-05
5.48559e-05
6.22085e-05
5.61294e-05
5.72061e-05
6.02265e-05
6.47037e-05
6.40804e-05
6.02276e-05
6.40933e-05
5.72166e-05
5.72525e-05
6.41156e-05
6.47102e-05
6.02582e-05
6.0257e-05
6.41033e-05
5.72424e-05
5.6088e-05
6.04938e-05
5.48093e-05
6.21825e-05
5.47976e-05
6.21971e-05
5.61008e-05
5.61732e-05
6.22347e-05
5.48986e-05
6.05495e-05
5.61821e-05
6.2249e-05
5.48863e-05
5.73257e-05
6.03186e-05
6.47503e-05
6.41638e-05
5.73161e-05
6.03184e-05
6.4152e-05
5.72811e-05
6.41301e-05
6.02884e-05
6.4744e-05
5.72878e-05
6.02898e-05
6.41426e-05
5.62222e-05
6.05607e-05
6.22734e-05
5.49276e-05
5.62129e-05
6.22596e-05
5.49416e-05
5.61712e-05
5.48988e-05
6.22339e-05
6.05496e-05
5.6183e-05
5.4886e-05
6.22481e-05
5.73238e-05
6.03161e-05
6.47466e-05
6.41589e-05
6.41474e-05
6.0316e-05
5.73134e-05
5.72774e-05
6.41252e-05
6.02863e-05
6.47404e-05
5.72886e-05
6.41377e-05
6.02876e-05
5.62229e-05
6.05609e-05
5.49284e-05
6.22723e-05
5.4942e-05
6.22589e-05
5.62112e-05
6.58323e-05
5.33421e-05
5.93435e-05
5.93475e-05
5.93409e-05
5.93387e-05
6.58394e-05
6.58635e-05
5.33941e-05
5.93731e-05
5.93754e-05
5.93779e-05
6.58567e-05
5.93807e-05
5.61347e-05
5.48503e-05
6.22223e-05
6.05014e-05
5.48457e-05
6.22031e-05
5.61318e-05
5.72113e-05
6.02245e-05
6.47061e-05
6.40796e-05
6.02335e-05
6.40937e-05
5.72076e-05
5.72442e-05
6.41161e-05
6.47123e-05
6.02637e-05
6.02552e-05
6.4102e-05
5.72475e-05
5.60888e-05
6.04928e-05
5.47996e-05
6.21774e-05
5.48046e-05
6.21965e-05
5.6091e-05
5.61767e-05
5.48905e-05
6.22344e-05
6.05511e-05
5.61812e-05
5.48947e-05
6.22534e-05
5.7321e-05
6.03242e-05
6.47503e-05
6.41668e-05
5.73241e-05
6.03161e-05
6.41529e-05
5.72892e-05
6.41314e-05
6.02871e-05
6.47445e-05
5.72863e-05
6.02948e-05
6.41454e-05
5.62211e-05
6.0559e-05
5.49376e-05
6.22782e-05
5.62161e-05
5.49338e-05
6.22592e-05
5.61723e-05
5.48888e-05
6.22288e-05
6.05487e-05
5.61764e-05
5.48931e-05
6.22476e-05
5.73156e-05
6.03218e-05
6.47487e-05
6.41594e-05
6.41459e-05
6.03138e-05
5.73186e-05
5.72836e-05
6.41244e-05
6.02847e-05
6.47428e-05
5.72806e-05
6.4138e-05
6.02925e-05
5.62166e-05
6.05566e-05
5.49359e-05
6.2272e-05
5.4932e-05
6.22537e-05
5.6212e-05
6.58624e-05
5.33917e-05
5.93715e-05
5.93728e-05
6.58553e-05
5.93773e-05
5.93776e-05
5.73586e-05
6.03428e-05
6.41747e-05
6.47785e-05
6.41876e-05
5.73559e-05
6.03505e-05
5.62556e-05
6.06053e-05
6.2284e-05
5.49761e-05
6.2303e-05
5.62608e-05
5.49792e-05
5.73513e-05
6.03402e-05
6.41663e-05
6.47742e-05
5.73486e-05
6.41796e-05
6.03455e-05
5.62501e-05
6.06035e-05
6.22783e-05
5.49739e-05
5.62548e-05
6.22978e-05
5.49769e-05
5.73481e-05
6.03476e-05
6.41745e-05
6.47802e-05
6.41857e-05
5.73589e-05
6.03467e-05
5.62504e-05
6.06023e-05
6.22851e-05
5.49828e-05
6.22983e-05
5.62611e-05
5.49702e-05
5.73449e-05
6.03436e-05
6.41671e-05
6.4776e-05
5.73555e-05
6.41785e-05
6.03447e-05
5.62482e-05
6.0601e-05
5.49818e-05
6.22813e-05
5.62588e-05
5.49694e-05
6.22946e-05
5.62988e-05
6.06135e-05
5.50099e-05
6.23186e-05
5.50273e-05
6.23064e-05
5.62861e-05
5.73463e-05
6.03441e-05
6.4168e-05
6.47752e-05
6.03458e-05
5.73582e-05
6.41793e-05
5.62503e-05
6.06024e-05
5.49839e-05
6.2283e-05
5.49712e-05
5.62614e-05
6.22962e-05
5.73934e-05
6.41988e-05
6.47809e-05
6.03705e-05
6.03701e-05
6.41886e-05
5.73778e-05
5.62939e-05
6.06087e-05
5.50191e-05
6.23187e-05
5.50161e-05
6.2301e-05
5.62892e-05
5.73528e-05
6.03436e-05
6.41671e-05
6.47776e-05
6.03483e-05
5.73504e-05
6.41798e-05
5.62504e-05
6.06013e-05
5.49743e-05
6.22779e-05
5.49777e-05
5.62559e-05
6.22955e-05
5.73835e-05
6.41998e-05
6.47833e-05
6.03752e-05
6.037e-05
6.41872e-05
5.73858e-05
3.64657e-05
4.17694e-05
3.64642e-05
7.13562e-05
6.01883e-05
6.95331e-05
6.68972e-05
6.68932e-05
6.95307e-05
6.01878e-05
7.13571e-05
7.0188e-05
7.13408e-05
7.73927e-05
7.73719e-05
7.0202e-05
6.95205e-05
7.00867e-05
5.93333e-05
6.68826e-05
7.11446e-05
5.92828e-05
7.11299e-05
7.01093e-05
7.00353e-05
5.93248e-05
6.68788e-05
7.11369e-05
7.11187e-05
5.92765e-05
7.00565e-05
9.23423e-05
7.2031e-05
7.20364e-05
7.20171e-05
7.20225e-05
9.23511e-05
6.9518e-05
7.0185e-05
7.13417e-05
7.74003e-05
7.73812e-05
7.01997e-05
5.95213e-05
4.17721e-05
5.05047e-05
5.05036e-05
5.04758e-05
5.04751e-05
5.95531e-05
4.80517e-05
5.25261e-05
6.01444e-05
5.85178e-05
5.84594e-05
5.24841e-05
4.80921e-05
4.80517e-05
5.25246e-05
6.0145e-05
5.85188e-05
5.2485e-05
5.84622e-05
4.80923e-05
2.10418e-05
3.66948e-05
3.66982e-05
4.19558e-05
2.18002e-05
3.75998e-05
3.76036e-05
4.26754e-05
2.2577e-05
3.84793e-05
3.8483e-05
4.33742e-05
2.33682e-05
3.93319e-05
3.93356e-05
4.40386e-05
2.41699e-05
4.01568e-05
4.01605e-05
4.4687e-05
2.49784e-05
4.09533e-05
4.09568e-05
4.53097e-05
2.57897e-05
4.17211e-05
4.17245e-05
4.59114e-05
2.66004e-05
4.24599e-05
4.24635e-05
4.65039e-05
2.74071e-05
4.31696e-05
4.31735e-05
4.70546e-05
2.82066e-05
4.38508e-05
4.38549e-05
4.75885e-05
2.89961e-05
4.45035e-05
4.45075e-05
4.80977e-05
2.9773e-05
4.51281e-05
4.51319e-05
4.85823e-05
3.05349e-05
4.5725e-05
4.57285e-05
4.90465e-05
3.12797e-05
4.62942e-05
4.62975e-05
4.94909e-05
3.20055e-05
4.68359e-05
4.68393e-05
4.9916e-05
3.27106e-05
4.73509e-05
4.73543e-05
5.03195e-05
3.33935e-05
4.78394e-05
4.78428e-05
5.07036e-05
3.4053e-05
4.83016e-05
4.8305e-05
5.10719e-05
3.46879e-05
4.87382e-05
4.87416e-05
5.14129e-05
3.52973e-05
4.91495e-05
4.91529e-05
5.17364e-05
3.58805e-05
4.95359e-05
4.95393e-05
5.20451e-05
3.64369e-05
4.98977e-05
4.99012e-05
5.23329e-05
3.6966e-05
5.02356e-05
5.0239e-05
5.25963e-05
3.74674e-05