/*--------------------------------*- C++ -*----------------------------------*\
| =========                 |                                                 |
| \\      /  F ield         | OpenFOAM: The Open Source CFD Toolbox           |
|  \\    /   O peration     | Version:  2312                                  |
|   \\  /    A nd           | Website:  www.openfoam.com                      |
|    \\/     M anipulation  |                                                 |
\*---------------------------------------------------------------------------*/
FoamFile
{
    version     2.0;
    format      ascii;
    arch        "LSB;label=32;scalar=64";
    class       surfaceScalarField;
    location    "450";
    object      phi;
}
// * * * * * * * * * * * * * * * * * * * * * * * * * * * * * * * * * * * * * //

dimensions      [0 3 -1 0 0 0 0];

oriented        oriented;

internalField   nonuniform List<scalar> 
125567
(
-7.02192e-08
-1.37005e-10
-0.000229369
2.13515e-09
2.99879e-08
-6.91516e-09
-1.97316e-08
-9.80154e-05
1.24099e-06
-1.23e-07
2.69122e-07
-2.15084e-07
-1.19372e-06
2.77471e-07
-2.36813e-07
-0.00113202
-5.53255e-08
-8.52585e-07
9.11353e-07
2.07767e-08
4.36263e-08
-0.000245491
-1.02579e-07
-1.66981e-08
-1.6469e-09
-0.00025013
4.03593e-09
-1.9321e-07
-3.15463e-09
-1.53002e-07
-9.38578e-07
8.31122e-07
-7.56619e-07
1.01142e-06
-0.00115229
-7.01969e-08
-0.000229329
2.99707e-08
2.21211e-09
-4.35404e-08
3.24287e-09
-0.000193597
-0.000250103
-1.93192e-07
4.35856e-09
-4.99818e-08
1.27249e-06
-1.28118e-07
-8.57975e-07
2.69007e-07
9.16513e-07
-2.15195e-07
-1.22787e-06
2.80253e-07
-2.42341e-07
-0.00113153
-1.58739e-07
-9.38622e-07
8.31121e-07
-7.56663e-07
1.01145e-06
-0.00115224
2.32455e-08
-1.67582e-08
-0.000245388
-1.02484e-07
-0.000268079
2.41847e-07
2.46832e-07
1.05205e-08
-0.00027816
-4.61712e-08
1.98156e-08
1.05145e-08
-0.000278296
-4.84713e-08
-6.8549e-09
-9.80381e-05
-0.000193654
3.35964e-09
1.24035e-08
-7.85908e-10
0.000143419
-5.54539e-11
-0.00014343
7.26212e-10
-1.11194e-08
3.44308e-11
2.86496e-08
-0.000229387
-0.000223421
2.88744e-08
4.37147e-09
-7.17231e-08
-0.000171124
-3.4167e-10
1.67367e-11
8.84808e-10
3.30175e-08
-0.000223442
6.11256e-12
-0.000171136
1.45844e-09
1.70175e-08
7.92982e-05
-7.93153e-05
-0.000263317
2.42693e-08
-6.16067e-08
3.32108e-08
-0.000263336
5.00219e-09
1.12832e-08
-9.80317e-05
-7.90351e-10
1.23575e-08
0.000143346
-3.47077e-11
-0.000143358
-1.11195e-08
9.51436e-10
2.86506e-08
-0.000229348
-0.000171089
-1.30708e-10
-0.000223323
2.8822e-08
4.40517e-09
-6.92417e-08
-0.000171101
9.37942e-10
3.0561e-08
-0.000223341
1.51048e-09
1.69855e-08
7.92538e-05
-7.92708e-05
-0.00026319
2.41582e-08
-5.91329e-08
-3.88905e-09
2.25674e-08
-0.000193611
3.08281e-08
-0.000263206
-7.02834e-09
-7.00412e-09
0.000213784
1.22121e-08
1.0164e-08
-0.000213792
-8.05424e-05
-1.227e-08
-1.20109e-08
-8.05661e-05
-1.22437e-08
-1.20348e-08
9.38887e-09
-8.05589e-05
9.40799e-09
-8.05825e-05
-2.70546e-08
-2.49691e-08
-1.43131e-08
1.57636e-08
0.000221868
2.90806e-08
-0.000221886
-0.000183016
-3.11611e-08
-7.3359e-09
2.03768e-08
1.21759e-08
-0.000278174
-0.000250575
3.60434e-08
-5.49833e-08
-9.97289e-08
-0.000183028
3.19639e-08
6.1256e-08
-0.000250632
-5.75033e-08
1.58111e-08
-1.42672e-08
0.000221956
3.11663e-08
-0.000221979
-0.000183097
-3.11595e-08
2.25633e-08
-7.3451e-09
-1.12959e-08
9.75478e-09
-0.00027831
-0.000250748
3.60891e-08
-5.23866e-08
-9.979e-08
2.94217e-08
6.11395e-08
-0.0002508
-0.00018311
-5.96e-08
5.00238e-09
-9.80544e-05
2.25342e-08
-0.000193668
-3.84987e-09
2.2963e-09
-0.00121558
-1.00023e-07
-7.52515e-08
-0.00118363
-1.03882e-07
-0.0012147
-1.17894e-07
6.40113e-08
-0.000245527
4.05582e-09
-0.000260376
-2.73722e-08
-0.000260505
8.04368e-09
-1.5306e-07
1.55032e-09
0.000265679
-1.05701e-08
-0.000266455
4.81181e-10
1.32111e-07
3.31439e-10
-0.000250234
-0.000249561
-2.11798e-07
1.03476e-08
-0.000265854
7.04911e-09
-6.58711e-09
7.7793e-10
-0.000249682
3.89329e-09
-0.000266481
2.70673e-08
-1.39137e-07
0.000264002
-0.000264718
-0.000250757
-1.86138e-07
-0.000250855
-2.26874e-09
-1.50443e-07
0.000265609
2.24051e-09
-0.000266397
1.32122e-07
1.42722e-09
-0.000250208
-0.000265836
5.59626e-09
-0.000249476
-2.11745e-07
1.04171e-08
-0.000266459
8.04004e-10
-0.000249595
1.42934e-08
-1.36694e-07
0.000263902
-8.06701e-09
-0.000264613
-0.000250651
-1.88626e-07
4.0262e-09
6.168e-08
-0.000245419
-2.74535e-08
-0.000260269
-0.000250752
-0.000260398
7.49279e-08
7.74923e-08
0.00024288
-0.000242972
-2.03164e-07
-1.98259e-07
-0.000270099
-0.000261131
1.12549e-07
-0.000260783
1.09909e-07
-0.000261087
-0.000261433
1.19283e-07
1.19621e-07
-7.10166e-08
-7.10674e-08
0.00118445
-0.00118455
-1.19688e-06
-1.19632e-07
-5.43331e-08
0.00113224
-2.37049e-07
1.24123e-06
2.74924e-07
9.11294e-07
-2.15434e-07
2.69194e-07
-8.53075e-07
-0.00113226
-1.19424e-06
-1.19712e-07
-4.84728e-08
0.0011321
-2.34354e-07
1.23846e-06
2.74883e-07
9.11284e-07
-2.15427e-07
2.69247e-07
-8.53035e-07
-0.00113213
1.22549e-06
1.18889e-06
-1.98219e-07
-2.00938e-07
0.000268045
-0.00027006
1.22026e-07
1.28062e-07
-0.00118417
-7.42918e-08
-7.43966e-08
-0.00113216
-1.19648e-06
-1.22424e-07
-3.87649e-08
-2.36815e-07
1.24109e-06
2.74777e-07
9.11208e-07
-2.1519e-07
-8.52618e-07
2.69103e-07
-0.00113203
-1.19379e-06
-1.22415e-07
-6.63154e-08
-2.36864e-07
1.23831e-06
2.74769e-07
9.1129e-07
-2.15139e-07
-8.5265e-07
2.6916e-07
-0.000270066
1.22772e-06
1.18313e-06
-1.92856e-07
-2.03329e-07
0.000268051
1.23635e-06
1.19441e-06
-1.95716e-07
-2.03515e-07
0.000268099
-0.000270131
-1.28051e-06
-1.23861e-06
0.000270136
-0.000268103
2.39215e-07
2.47076e-07
-4.85044e-08
0.00113168
-2.39801e-07
1.2806e-06
2.77519e-07
9.13973e-07
-2.1274e-07
2.66383e-07
-8.55871e-07
-0.00113171
-1.23379e-06
-1.1928e-07
-4.84604e-08
0.00113175
-2.42687e-07
1.27802e-06
2.80348e-07
9.19138e-07
-2.15461e-07
2.69086e-07
-8.60992e-07
-0.00113178
0.00113161
-1.21354e-07
-0.00113164
-4.93514e-08
-1.23603e-06
2.77425e-07
-2.39611e-07
-8.55541e-07
2.66344e-07
-2.12506e-07
9.13984e-07
1.27522e-06
0.00113168
-1.21495e-07
-0.0011317
-4.94198e-08
-1.23346e-06
2.77527e-07
-2.42469e-07
-8.60634e-07
2.6906e-07
-2.152e-07
9.16502e-07
-1.98392e-07
-2.00836e-07
0.000268084
-0.000270116
-1.24114e-06
0.000270118
-0.000268088
2.41976e-07
2.44344e-07
-4.8563e-08
0.00113269
-2.37198e-07
1.23871e-06
2.75035e-07
9.16642e-07
-2.15491e-07
2.69272e-07
-8.58394e-07
-0.00113271
-1.22834e-06
-1.19183e-07
-4.85794e-08
0.00113162
-2.42633e-07
1.27262e-06
2.80386e-07
9.16527e-07
-2.12806e-07
2.66398e-07
-8.5846e-07
-0.00113165
0.00113261
-1.21695e-07
-0.00113264
-4.94052e-08
-1.1941e-06
2.74946e-07
-2.37005e-07
-8.58056e-07
2.6922e-07
-2.15272e-07
9.16644e-07
1.27255e-06
0.00113155
-1.2693e-07
-0.00113157
-4.94509e-08
-1.22804e-06
2.80296e-07
-2.4244e-07
-8.58118e-07
2.66341e-07
-2.1258e-07
9.16518e-07
-1.1953e-07
-4.84562e-08
0.00113125
-2.39794e-07
1.2697e-06
2.77498e-07
9.08473e-07
-2.09947e-07
2.63695e-07
-8.50319e-07
-0.00113128
-1.21813e-07
-0.00113219
-4.39972e-08
-1.19657e-06
2.74844e-07
-2.3684e-07
-8.5272e-07
2.69136e-07
9.11332e-07
-2.15179e-07
1.2696e-06
0.00113118
-1.21414e-07
-0.0011312
-4.93464e-08
-1.22519e-06
2.7742e-07
-2.39603e-07
-8.50021e-07
2.663e-07
-2.09776e-07
9.08435e-07
-1.98486e-07
-2.03411e-07
0.000268068
-0.000270089
-1.23833e-06
0.000270097
-0.000268075
2.41962e-07
2.46939e-07
-1.1954e-07
-4.8733e-08
0.00113224
-2.37125e-07
1.23322e-06
2.75015e-07
9.13704e-07
-2.15459e-07
2.69201e-07
-8.55465e-07
-0.00113227
-1.21753e-07
-0.00113205
-5.48442e-08
-1.19122e-06
2.74791e-07
-2.3692e-07
-8.52731e-07
2.69177e-07
9.11319e-07
-2.15206e-07
1.23309e-06
0.00113215
-1.21736e-07
-0.00113219
-3.27922e-08
-1.18856e-06
2.7488e-07
-2.36931e-07
-8.55203e-07
2.6911e-07
-2.15237e-07
9.13789e-07
-0.00026805
2.4175e-07
2.44451e-07
1.23594e-06
1.19401e-06
-1.95518e-07
-2.03329e-07
0.000268105
-5.52193e-08
-2.39578e-07
1.28048e-06
2.77416e-07
9.13947e-07
-2.15183e-07
-8.55448e-07
2.69022e-07
-1.23068e-06
-1.21892e-07
-4.40428e-08
-2.3969e-07
1.2752e-06
2.77491e-07
9.16457e-07
-2.15185e-07
-8.57928e-07
2.69009e-07
-1.98213e-07
-2.00667e-07
0.00026809
-4.97052e-08
-2.36951e-07
1.2386e-06
2.74918e-07
9.16657e-07
-2.15197e-07
-8.57979e-07
2.69209e-07
-1.22795e-06
-1.27588e-07
-4.9751e-08
-2.42376e-07
1.27252e-06
2.80289e-07
9.16528e-07
-2.12512e-07
-8.58035e-07
2.69031e-07
-1.45052e-07
-4.39365e-08
0.00113117
-2.42275e-07
1.26956e-06
2.80214e-07
9.11209e-07
-2.12378e-07
2.69026e-07
-8.49889e-07
-1.98292e-07
-2.032e-07
0.000268077
-1.22206e-07
-1.58095e-08
0.00113208
-2.3141e-07
1.23846e-06
2.74897e-07
9.13822e-07
-2.1514e-07
2.69088e-07
-8.55141e-07
-1.21654e-10
-7.02743e-08
0.000229341
3.00672e-08
1.95384e-09
-0.000229303
-5.10612e-09
2.25432e-08
0.000193573
-3.76206e-09
-0.000193587
6.77114e-09
-4.37626e-08
0.000193627
3.44151e-09
-0.000193593
5.49667e-11
2.8822e-08
0.000229283
-1.1145e-08
1.17653e-09
-0.000229302
5.14992e-09
1.34499e-08
9.79677e-05
-9.79863e-05
-6.7683e-09
-2.23227e-08
9.80073e-05
-9.79782e-05
-7.02847e-08
-1.23941e-10
0.000229329
1.893e-09
3.00719e-08
-0.00022929
-5.14133e-09
2.25226e-08
0.000193556
-3.70421e-09
-0.00019357
6.79923e-09
-4.37853e-08
0.00019361
3.44612e-09
-0.000193576
2.88259e-08
1.82899e-10
0.000229271
1.13697e-09
-1.11419e-08
-0.00022929
-7.10626e-08
-7.10765e-08
0.00118423
-0.00118433
-7.11503e-08
-7.09765e-08
0.00118399
-0.00118409
-7.10412e-08
-7.1304e-08
0.00118396
-0.00118406
-0.00118427
-7.93195e-08
-6.77236e-08
0.00118393
-0.00118404
-7.36526e-08
-6.7864e-08
0.00118371
-0.0011838
-7.36975e-08
-7.9252e-08
0.00118366
-0.00118377
-7.35902e-08
-6.22215e-08
7.01617e-08
-1.54458e-09
0.00025019
3.78063e-09
-1.93094e-07
-0.000250069
-1.22445e-08
-2.24879e-08
6.64987e-08
0.000245406
6.56754e-09
-0.000245445
0.00115237
3.64839e-09
-1.40179e-07
1.00564e-06
-7.52194e-07
8.27974e-07
-9.31427e-07
-0.00115243
-4.33791e-08
1.24121e-06
0.00113221
-1.20403e-07
-8.52908e-07
2.69184e-07
-2.1532e-07
9.11329e-07
-1.19676e-06
2.74888e-07
-2.36973e-07
2.32382e-08
4.37388e-08
0.000245483
-1.91705e-08
-0.000245425
-1.05119e-07
-3.36551e-09
0.00115233
-1.41757e-07
-9.33864e-07
8.2534e-07
-7.54677e-07
1.00306e-06
-2.86937e-08
1.53897e-09
0.000250056
2.17526e-09
1.3259e-07
-0.000250164
5.1243e-09
1.11534e-08
9.79631e-05
-9.79794e-05
-6.82933e-09
-1.99386e-08
9.80004e-05
-9.79736e-05
-8.18792e-10
7.01544e-08
0.00025018
-1.93088e-07
3.8188e-09
-0.00025006
0.00115219
3.28099e-09
-1.40194e-07
1.00571e-06
-7.54972e-07
8.27967e-07
-9.34163e-07
-0.00115225
-1.22607e-08
-2.24843e-08
6.41051e-08
0.000245398
4.1889e-09
-0.000245432
-4.87058e-08
1.23573e-06
0.00113207
-1.20435e-07
-8.52939e-07
2.69216e-07
-2.15347e-07
9.11334e-07
-1.19141e-06
2.74855e-07
-2.3705e-07
-4.68522e-09
0.00115215
-1.4168e-07
-9.33915e-07
8.28059e-07
-7.5473e-07
1.00579e-06
2.31211e-08
4.37829e-08
0.00024547
-1.66852e-08
-0.000245417
-1.02752e-07
8.14257e-10
-2.87325e-08
0.000250046
1.32641e-07
2.26075e-09
-0.000250153
1.22682e-08
-1.11739e-08
2.48484e-08
0.000278112
-7.02005e-09
-0.000278131
1.22637e-08
-1.1151e-08
2.25421e-08
0.000278037
-7.51286e-09
-0.000278053
-1.26967e-06
-1.23319e-06
0.000270063
-0.000268046
2.41879e-07
2.44582e-07
-2.31685e-08
2.00025e-08
0.000278182
9.94595e-09
-0.000278137
-5.10357e-08
-2.32406e-08
1.99623e-08
0.000278104
1.05216e-08
-0.000278062
-4.87188e-08
-0.000193667
-4.99423e-09
2.25738e-08
-3.89002e-09
0.000193653
-0.00022938
3.84782e-11
2.86556e-08
0.000229362
-1.11046e-08
1.20274e-09
-9.80282e-05
5.03706e-09
1.35689e-08
9.80096e-05
-0.000193649
-5.02066e-09
2.25615e-08
-3.84719e-09
0.000193636
-0.000229368
2.8668e-08
1.83175e-10
0.000229349
9.46033e-10
-1.11173e-08
-6.28098e-08
-5.11877e-08
-7.45323e-08
-9.74657e-08
-3.9208e-08
-4.54046e-08
0.00118348
7.00809e-08
-8.50794e-10
-0.000250126
3.04835e-09
-1.93142e-07
-0.000245518
-1.21317e-08
-2.25167e-08
6.64274e-08
4.01365e-09
0.000245483
0.00115217
-0.00115222
1.36745e-08
-1.51779e-07
1.00593e-06
-7.53994e-07
-9.33261e-07
8.28286e-07
-0.000250217
-2.85271e-08
1.73301e-09
0.000250109
1.9717e-09
1.32099e-07
2.5652e-08
-1.70446e-07
-9.33072e-07
8.31127e-07
-7.53782e-07
1.0088e-06
-9.80213e-05
5.02395e-09
1.12572e-08
9.8005e-05
-1.65398e-09
7.00853e-08
-0.000250114
-1.93111e-07
4.07683e-09
0.00115201
-0.00115205
-2.2445e-08
-1.46006e-07
1.00593e-06
-7.54056e-07
-9.33337e-07
8.28256e-07
-0.000245508
-1.21661e-08
-2.25129e-08
6.40078e-08
4.08177e-09
0.000245474
-0.000250206
3.27721e-10
-2.85658e-08
0.0002501
1.32152e-07
2.30944e-09
-5.78027e-08
-1.53125e-07
-9.33139e-07
8.28314e-07
-7.5114e-07
1.00598e-06
-0.000278232
1.22055e-08
-1.12907e-08
2.26173e-08
-6.90765e-09
0.000278216
-0.000278154
1.2155e-08
-1.12674e-08
2.25904e-08
-7.36974e-09
0.000278138
-1.2647e-06
-1.30804e-06
-0.000268073
2.54542e-07
2.41855e-07
-2.31935e-08
1.9802e-08
1.05329e-08
-0.000278244
-4.84848e-08
-2.32666e-08
1.97587e-08
1.06334e-08
-0.000278163
-4.85184e-08
1.12292e-08
9.79904e-05
-9.80068e-05
-2.00571e-08
9.80278e-05
-9.80009e-05
1.11782e-08
9.79794e-05
-9.79957e-05
-2.0008e-08
9.80167e-05
-9.79899e-05
1.22234e-08
2.48575e-08
0.000278161
-9.57776e-09
-0.000278177
9.87557e-09
2.48049e-08
0.000278093
-6.94659e-09
-0.00027811
0.000270133
-1.28057e-06
-1.23868e-06
-0.0002681
2.39339e-07
2.47202e-07
0.000278228
-2.31141e-08
1.2473e-08
-0.000278187
-5.10191e-08
0.00027816
-2.08303e-08
9.9722e-09
-0.000278118
-5.10167e-08
-1.99533e-08
-6.81189e-09
9.80487e-05
-9.80219e-05
1.12834e-08
5.0488e-09
9.80114e-05
-1.9898e-08
-6.84847e-09
9.80376e-05
-9.80108e-05
1.12401e-08
5.0758e-09
9.80004e-05
1.23612e-06
1.19419e-06
0.000268102
-1.95601e-07
-2.03404e-07
-2.31223e-08
0.000278279
-5.09104e-08
-0.000278237
1.25132e-08
-2.08483e-08
0.000278211
-5.09025e-08
-0.000278169
1.00244e-08
1.21673e-08
-9.51524e-09
2.48856e-08
0.000278212
9.81656e-09
-6.87369e-09
2.48337e-08
0.000278144
-7.02793e-08
0.000229301
3.00649e-08
2.1103e-09
-0.000229263
2.47101e-08
0.00019351
-3.82318e-09
-0.000193526
-4.59657e-08
0.000193565
3.59207e-09
-0.00019353
2.88183e-08
0.000229244
-1.11378e-08
9.06328e-10
-0.000229262
-9.03088e-10
0.000250204
3.10016e-09
-1.93165e-07
-0.000250083
6.65262e-08
0.000245408
4.12894e-09
-0.000245444
0.00115266
3.53516e-09
-1.39991e-07
1.00859e-06
-7.57772e-07
8.30778e-07
-9.3707e-07
-0.00115271
-4.88073e-08
0.00113166
-1.2e-07
-1.23623e-06
2.77487e-07
-2.39728e-07
-8.55748e-07
2.66371e-07
-2.12655e-07
9.13982e-07
0.000245482
-1.66911e-08
-0.000245427
-1.05072e-07
-3.97921e-09
0.00115261
-1.41523e-07
-9.36824e-07
8.30873e-07
-7.57521e-07
1.00868e-06
8.25531e-10
0.00025007
2.87883e-09
1.32686e-07
-0.000250178
0.000250176
4.7211e-09
-1.93177e-07
-0.000250059
-1.2214e-08
6.65203e-08
0.000245306
4.06634e-09
-0.00024534
0.0011526
-1.4e-07
1.01382e-06
-7.57738e-07
8.30759e-07
-9.42242e-07
-0.00115265
-4.88401e-08
0.00113172
1.27799e-06
-1.20135e-07
-8.60839e-07
2.69087e-07
9.19162e-07
-2.15353e-07
-1.23366e-06
2.80333e-07
-2.42594e-07
0.000245378
2.30576e-08
-1.65886e-08
-0.000245325
-1.05074e-07
0.00115254
-1.41563e-07
-9.42005e-07
8.3085e-07
-7.57487e-07
1.01389e-06
0.000250046
1.15605e-09
1.32686e-07
-0.00025015
5.24177e-11
2.87256e-08
-1.11222e-08
1.18752e-09
0.000229322
-4.36871e-08
-0.000193633
3.38095e-09
2.25544e-08
-3.82863e-09
0.000193613
-1.32344e-10
-7.02489e-08
-0.000229342
3.0021e-08
1.96567e-09
2.87278e-08
-1.11195e-08
9.21078e-10
0.000229282
-4.58881e-08
6.81175e-09
0.000193605
-0.000193569
3.52949e-09
2.47188e-08
-5.09156e-09
-3.88827e-09
0.00019355
-7.02576e-08
0.00022934
-0.000229302
3.00242e-08
2.11978e-09
8.17215e-10
2.89689e-09
1.32422e-07
0.000250097
-5.46881e-08
-1.20741e-07
1.28054e-06
-2.39665e-07
2.77454e-07
9.1399e-07
-2.12573e-07
2.66359e-07
-8.5564e-07
0.00024552
-1.04987e-07
-0.000245465
-1.67055e-08
-0.00115255
-4.93397e-09
0.0011525
-1.44448e-07
-9.36404e-07
8.31031e-07
-7.57042e-07
1.00881e-06
4.07231e-09
6.64681e-08
0.000245446
3.03897e-09
-1.43052e-07
1.00874e-06
-7.5728e-07
-9.36622e-07
8.30944e-07
-9.37127e-10
0.000250231
-0.00025011
3.35271e-09
-1.93192e-07
1.18261e-09
1.32426e-07
0.000250072
-4.90747e-08
-1.23356e-06
-1.20727e-07
9.19148e-07
-2.15303e-07
-8.60756e-07
2.69053e-07
1.27796e-06
-2.42541e-07
2.80299e-07
2.30711e-08
0.000245416
-1.04988e-07
-0.000245363
-1.65997e-08
-0.00115249
0.00115244
-1.44474e-07
-9.41605e-07
8.3101e-07
-7.57009e-07
1.01129e-06
-1.21591e-08
4.00902e-09
6.64625e-08
0.000245344
-1.43062e-07
1.01394e-06
-7.5725e-07
-9.41812e-07
8.30925e-07
0.000250203
-0.000250085
4.49041e-09
-1.93209e-07
2.24995e-08
0.000278036
-7.62905e-09
-0.000278049
-1.11862e-08
2.48566e-08
0.000278176
-6.95198e-09
-0.000278195
0.000270118
-0.000268085
2.42123e-07
2.44456e-07
0.0002781
1.04705e-08
-0.000278061
-4.86888e-08
1.99752e-08
0.000278245
1.00252e-08
-0.000278201
-5.10476e-08
5.16006e-09
9.7986e-05
-9.80023e-05
9.80233e-05
-6.85943e-09
-9.79965e-05
-2.22153e-08
-9.79992e-05
1.35045e-08
9.79887e-05
1.19665e-06
0.000268087
-1.98286e-07
-2.00729e-07
0.000278151
-4.85763e-08
-0.000278112
1.05171e-08
1.98615e-08
-2.32417e-08
0.000278296
-5.09338e-08
-0.000278252
1.0081e-08
-7.55867e-09
2.2518e-08
0.000278086
-1.12397e-08
1.21809e-08
-6.87744e-09
2.48773e-08
0.000278226
-6.90337e-09
9.80442e-05
-9.80175e-05
5.09806e-09
9.8007e-05
-1.64982e-09
0.000250197
3.76914e-09
-1.95771e-07
-0.000250074
6.41459e-08
0.000245372
6.621e-09
-0.00024541
0.00115249
3.71554e-09
-1.40065e-07
1.01113e-06
-7.57729e-07
8.30753e-07
-9.39608e-07
-0.00115255
-4.88518e-08
0.00113266
-1.20349e-07
-1.1943e-06
2.75008e-07
-2.37131e-07
-8.58268e-07
2.69259e-07
-2.15406e-07
9.16655e-07
0.000245448
-1.9189e-08
-0.000245391
-1.02774e-07
-3.56248e-09
0.00115244
-1.41567e-07
-9.39354e-07
8.30841e-07
-7.57484e-07
1.01121e-06
1.69273e-09
0.000250061
2.1348e-09
1.35275e-07
-0.000250171
-7.02621e-08
0.000229289
3.00564e-08
2.21562e-09
-0.000229251
2.25239e-08
0.000193498
-3.7619e-09
-0.000193512
-4.37007e-08
0.000193552
3.37592e-09
-0.000193518
2.88274e-08
0.000229232
-1.11409e-08
9.2751e-10
-0.00022925
0.000250167
-1.95757e-07
4.34865e-09
-0.000250047
0.00115243
-1.39993e-07
1.01115e-06
-7.57772e-07
8.30755e-07
-9.3964e-07
-0.00115248
-1.22779e-08
6.17692e-08
0.000245293
4.13167e-09
-0.000245324
-4.88903e-08
0.00113159
1.27261e-06
-1.19879e-07
-8.58331e-07
2.66386e-07
9.16536e-07
-2.12723e-07
-1.22823e-06
2.80358e-07
-2.42557e-07
0.00115237
-1.41469e-07
-9.39394e-07
8.3084e-07
-7.57526e-07
1.01121e-06
0.000245362
2.32356e-08
-1.67688e-08
-0.000245312
-1.00234e-07
0.000250034
1.35295e-07
1.63797e-09
-0.000250141
2.87342e-08
1.83972e-10
1.15111e-09
-1.11258e-08
0.00022931
-4.37066e-08
-0.000193616
3.3732e-09
2.25307e-08
-3.77684e-09
0.000193596
-7.02609e-08
-1.27548e-10
-0.00022933
2.13037e-09
3.00331e-08
1.69616e-09
2.15488e-09
1.32425e-07
0.00025009
-4.91698e-08
-1.2107e-07
1.23864e-06
-2.37063e-07
2.7498e-07
9.16656e-07
-2.15325e-07
2.69248e-07
-8.58167e-07
0.000245486
-1.02683e-07
-0.000245429
-1.92085e-08
-0.00115238
-3.37312e-09
0.00115234
-1.50322e-07
-9.38926e-07
8.30998e-07
-7.57017e-07
1.01133e-06
6.5643e-09
6.40847e-08
0.00024541
3.82544e-09
-1.43122e-07
1.01128e-06
-7.57247e-07
-9.39157e-07
8.30923e-07
-1.64669e-09
0.000250224
-0.000250103
4.02611e-09
-1.93203e-07
2.87349e-08
-1.11238e-08
9.38533e-10
0.000229271
-4.36279e-08
6.87187e-09
0.000193591
-0.000193558
3.31222e-09
2.25322e-08
-5.07187e-09
-3.81912e-09
0.000193538
-7.02401e-08
0.000229328
-0.00022929
3.00199e-08
2.22054e-09
1.32446e-07
1.65465e-09
0.000250063
-4.9189e-08
-1.22812e-06
-1.20618e-07
9.16536e-07
-2.12638e-07
-8.58229e-07
2.66372e-07
1.27257e-06
-2.42491e-07
2.80332e-07
-0.00115233
0.00115228
-1.50201e-07
-9.38959e-07
8.30995e-07
-7.57058e-07
1.01133e-06
2.32479e-08
0.0002454
-1.00149e-07
-0.00024535
-1.67805e-08
-1.43048e-07
1.01129e-06
-7.57289e-07
-9.3918e-07
8.30922e-07
-1.22318e-08
4.0791e-09
6.17099e-08
0.000245331
0.000250193
-0.000250077
-1.93188e-07
4.35711e-09
-4.87317e-11
0.000229324
2.06936e-09
3.21272e-08
-0.000229288
0.00019356
-3.6172e-09
-0.000193574
0.000193613
3.30425e-09
-0.00019358
4.69082e-11
0.000229269
1.0165e-09
-1.31972e-08
-0.000229285
7.02196e-08
0.000250158
-1.9052e-07
4.54186e-09
-0.000250043
0.00115229
-1.4023e-07
1.00567e-06
-7.54953e-07
8.27997e-07
-9.34076e-07
-0.00115233
-2.24802e-08
6.64432e-08
0.000245328
4.16435e-09
-0.000245364
-4.87415e-08
0.00113122
-1.14401e-07
-1.22539e-06
2.77467e-07
-2.39727e-07
-8.5022e-07
2.63659e-07
-2.09898e-07
9.08468e-07
0.00115222
-1.35845e-07
-9.33845e-07
8.28084e-07
-7.54706e-07
1.00573e-06
4.3731e-08
0.000245402
-1.67221e-08
-0.000245347
-1.05035e-07
-2.87662e-08
0.00025003
1.30034e-07
1.38261e-09
-0.000250131
0.000229287
3.00392e-08
2.2015e-09
-0.000229249
-5.13012e-09
0.000193504
-3.70596e-09
-0.000193517
0.000193557
6.79318e-09
3.42073e-09
-0.000193524
0.00022923
-1.11256e-08
8.66873e-10
-0.000229248
-2.8604e-08
1.56715e-09
2.19288e-09
1.32331e-07
0.000250082
-5.4927e-08
-1.21086e-07
1.24118e-06
-2.36904e-07
2.74865e-07
9.11291e-07
-2.15259e-07
-8.52867e-07
2.69158e-07
4.36503e-08
-1.05033e-07
-0.000245464
-1.67496e-08
-0.00115226
-5.31239e-10
-1.44685e-07
-9.33447e-07
8.28235e-07
1.00592e-06
-7.542e-07
-2.24931e-08
6.51731e-09
6.64296e-08
0.000245445
4.45601e-09
-1.43241e-07
1.0058e-06
-7.51705e-07
-9.30991e-07
8.28141e-07
7.01351e-08
-1.42637e-09
-0.000250096
3.55017e-09
-1.93128e-07
5.10545e-11
1.03252e-09
-1.3175e-08
0.000229308
0.000193653
-0.00019362
3.23581e-09
-3.68395e-09
0.0001936
-1.40178e-11
0.000229363
-0.000229327
1.86082e-09
3.20826e-08
-2.86827e-08
1.29774e-07
1.40599e-09
0.000250057
-4.90879e-08
-1.22525e-06
-1.26703e-07
9.08493e-07
-2.0977e-07
-8.50082e-07
2.63666e-07
1.26964e-06
-2.39637e-07
2.77445e-07
-0.00115218
0.00115213
-1.44579e-07
-9.33419e-07
8.28233e-07
-7.54235e-07
1.00584e-06
4.36615e-08
2.32107e-08
0.00024544
-1.02553e-07
-0.000245388
-1.67204e-08
-1.49124e-07
1.00581e-06
-7.5446e-07
-9.33636e-07
8.28164e-07
-2.24927e-08
-1.22053e-08
4.10431e-09
6.63765e-08
0.000245366
7.0199e-08
0.000250187
-0.00025007
-1.93146e-07
4.31939e-09
-1.11078e-08
8.79417e-10
0.000229269
6.83217e-09
0.000193597
-0.000193563
3.36139e-09
-5.07182e-09
-3.77637e-09
0.000193544
0.000229326
-0.000229288
2.99975e-08
2.20826e-09
2.02944e-08
0.000278034
-7.48584e-09
-0.000278048
-1.11518e-08
2.25417e-08
0.00027817
-1.01194e-08
-0.000278184
0.000270091
-0.000268072
2.42092e-07
2.47067e-07
0.000278098
1.04488e-08
-0.000278059
-4.63968e-08
2.00258e-08
0.000278234
1.30101e-08
-0.000278195
-4.87742e-08
5.15711e-09
9.79858e-05
-9.80021e-05
9.80231e-05
-6.76358e-09
-9.79963e-05
-1.98357e-08
-9.79946e-05
1.12062e-08
9.79841e-05
1.1913e-06
0.000268074
-1.98377e-07
-2.03283e-07
0.000278149
-4.6287e-08
-0.00027811
1.04898e-08
1.99152e-08
-2.31387e-08
0.000278285
-4.86666e-08
-0.000278246
1.30849e-08
-7.42835e-09
2.03234e-08
0.000278084
-1.12039e-08
1.22065e-08
-1.00523e-08
2.25694e-08
0.000278221
-6.8071e-09
9.8044e-05
-9.80172e-05
5.09309e-09
9.80068e-05
7.0087e-08
0.000250153
-1.93062e-07
5.04179e-09
-0.000250035
0.00115212
-1.40118e-07
1.00812e-06
-7.54931e-07
8.27915e-07
-9.36606e-07
-0.00115217
-2.2498e-08
6.4116e-08
0.000245296
4.1696e-09
-0.000245329
-4.90295e-08
0.00113222
-1.2034e-07
-1.18876e-06
2.7498e-07
-2.3705e-07
-8.55342e-07
2.69164e-07
-2.15384e-07
9.13776e-07
0.00115207
-1.41629e-07
-9.36364e-07
8.28013e-07
-7.54676e-07
1.0082e-06
4.37452e-08
0.000245367
-1.68004e-08
-0.000245315
-1.02713e-07
-2.8675e-08
0.000250022
1.32622e-07
9.53801e-10
-0.000250126
-1.37286e-10
0.000229316
2.22356e-09
3.21191e-08
-0.00022928
0.000193555
-3.66614e-09
-0.000193569
0.000193609
3.49459e-09
-0.000193575
1.92784e-10
0.000229261
7.53238e-10
-1.32178e-08
-0.000229277
0.000229276
2.22827e-09
3.41982e-08
-0.000229243
-5.16135e-09
0.000193496
-3.66809e-09
-0.00019351
0.000193549
6.84513e-09
3.35025e-09
-0.000193516
0.000229223
9.03866e-10
-1.53019e-08
-0.000229237
7.3266e-10
-2.86396e-08
1.32375e-07
2.04732e-09
0.000250073
-4.90576e-08
-1.21164e-07
1.23569e-06
-2.36973e-07
2.74836e-07
9.11336e-07
-2.15264e-07
-8.52826e-07
2.69202e-07
-0.00115209
-1.31074e-08
-1.44564e-07
-9.33514e-07
8.28214e-07
1.00591e-06
-7.54252e-07
4.37048e-08
-1.02663e-07
-0.000245455
-1.66941e-08
3.57828e-10
-1.43239e-07
1.00584e-06
-7.54478e-07
-9.33723e-07
8.2814e-07
-2.24922e-08
4.13348e-09
6.40415e-08
0.000245436
-1.17458e-09
7.01314e-08
-0.000250086
-1.93112e-07
4.07132e-09
-2.85816e-08
1.32359e-07
7.36354e-10
0.000250049
-4.94063e-08
-1.18866e-06
-1.21023e-07
9.13774e-07
-2.15276e-07
-8.55274e-07
2.69148e-07
1.23314e-06
-2.36991e-07
2.74949e-07
-0.00115201
0.00115197
-1.44507e-07
-9.35949e-07
8.28186e-07
-7.54196e-07
1.00836e-06
4.36706e-08
2.32545e-08
0.000245405
-1.02624e-07
-0.000245353
-1.68135e-08
-1.43152e-07
1.00825e-06
-7.54439e-07
-9.36166e-07
8.28092e-07
-2.25075e-08
-1.22057e-08
4.11376e-09
6.40506e-08
0.000245334
7.00614e-08
0.000250179
-0.000250062
-1.93094e-07
4.80697e-09
1.61465e-10
7.68746e-10
-1.31946e-08
0.0002293
0.000193648
-0.000193615
3.42936e-09
-3.73929e-09
0.000193595
-2.46452e-10
0.000229355
-0.000229319
2.23768e-09
3.20807e-08
6.92638e-10
-1.52786e-08
0.000229262
6.89044e-09
0.000193589
-0.000193555
3.28286e-09
-5.1017e-09
-3.73592e-09
0.000193536
0.000229315
-0.000229282
2.23177e-09
3.41583e-08
9.7966e-05
-9.79823e-05
9.80033e-05
-9.79765e-05
9.7962e-05
-9.79784e-05
9.79994e-05
-9.79726e-05
0.000268048
-1.98109e-07
-2.0083e-07
1.99073e-08
-4.86337e-08
-0.00027819
9.99821e-09
1.98532e-08
-4.86091e-08
-0.000278113
1.05833e-08
-1.12242e-08
-6.95294e-09
2.48714e-08
0.000278163
-1.12058e-08
-7.44643e-09
2.25662e-08
0.000278087
9.80242e-05
-9.79974e-05
9.7987e-05
9.80203e-05
-9.79935e-05
9.79831e-05
1.1342e-08
9.80323e-05
1.13026e-08
9.80213e-05
1.21274e-08
2.49258e-08
-9.4561e-09
0.000278263
9.76159e-09
2.48752e-08
-6.80178e-09
0.000278194
2.47395e-08
-3.94763e-09
0.000193589
2.86554e-08
0.000229322
-1.10919e-08
9.30643e-10
6.64592e-08
4.015e-09
0.000245484
1.38726e-09
-1.45863e-07
1.0088e-06
-7.56862e-07
-9.36223e-07
8.3109e-07
7.86235e-10
0.000250124
2.67011e-09
1.32205e-07
-1.2113e-08
6.64327e-08
3.96295e-09
0.000245382
-1.45832e-07
1.01133e-06
-7.56833e-07
-9.38696e-07
8.31072e-07
0.000250099
1.43632e-09
1.32212e-07
2.25689e-08
-7.49309e-09
0.000278137
-1.13028e-08
2.49256e-08
-6.82723e-09
0.000278277
5.03369e-09
6.40535e-08
6.51676e-09
0.000245448
4.09447e-09
-1.51733e-07
1.0114e-06
-7.56811e-07
-9.38772e-07
8.31056e-07
1.69569e-09
0.000250116
1.93307e-09
1.32198e-07
2.25543e-08
-3.87093e-09
0.000193578
2.86682e-08
0.00022931
-1.11137e-08
9.48709e-10
-1.51657e-07
1.0114e-06
-7.56853e-07
-9.38785e-07
8.31053e-07
-1.21883e-08
6.1673e-08
4.0394e-09
0.000245369
0.00025009
1.3222e-07
1.66782e-09
1.23403e-10
-0.000229367
3.20317e-08
-3.76389e-09
0.000193639
1.04583e-10
0.000229347
1.05258e-09
-1.31608e-08
7.01394e-08
-0.000250097
-1.95738e-07
4.55337e-09
0.00115211
-1.63434e-07
1.00591e-06
-7.51286e-07
8.28284e-07
-9.30529e-07
-2.25419e-08
6.15604e-08
6.49387e-09
0.000245407
-4.38393e-08
-3.60992e-07
-1.23309e-06
2.74808e-07
-2.44923e-07
-8.47223e-07
2.71664e-07
-2.0965e-07
9.13786e-07
-2.86073e-08
0.000250084
1.32128e-07
1.66096e-09
-1.9919e-07
-9.30358e-07
8.31083e-07
-7.53831e-07
1.00868e-06
4.35912e-08
-1.91516e-08
-0.000245426
-1.04894e-07
-0.000229327
2.99424e-08
2.20656e-09
-5.02015e-09
-3.84432e-09
0.000193583
0.000229308
-1.10848e-08
8.94837e-10
6.87711e-09
3.30969e-09
-0.000193603
2.03561e-08
-7.36467e-09
0.000278135
-1.12591e-08
2.25801e-08
-7.37888e-09
0.000278269
5.03258e-09
9.80277e-05
7.00243e-08
-0.000250089
-1.93114e-07
3.84634e-09
0.00115193
-1.51757e-07
1.00844e-06
-7.53999e-07
8.28242e-07
-9.3579e-07
-2.25304e-08
6.40151e-08
4.05841e-09
0.000245372
1.48574e-07
-1.44764e-07
-1.15594e-06
2.83217e-07
-2.28558e-07
-8.52306e-07
2.69106e-07
-2.15102e-07
9.13955e-07
-2.85114e-08
0.000250075
1.32131e-07
5.06885e-10
-1.94652e-07
-9.32843e-07
8.28336e-07
-7.51053e-07
1.00862e-06
4.35956e-08
-1.68162e-08
-0.000245391
-1.02546e-07
-2.9255e-10
-0.000229359
2.24269e-09
3.20436e-08
-3.81045e-09
0.000193635
1.86119e-11
0.000229339
1.0138e-09
-1.31841e-08
-0.000229321
2.00703e-09
3.41261e-08
-5.04139e-09
-3.80789e-09
0.000193575
0.000229301
6.99902e-10
-1.52757e-08
6.93175e-09
3.2251e-09
-0.000193595
9.80079e-05
-9.80183e-05
9.8004e-05
-9.80144e-05
-7.76872e-10
1.24189e-08
0.000143358
-1.04913e-10
-0.000143369
-0.000171053
-3.29265e-10
-3.14675e-11
0.000171084
-0.000223351
2.89572e-08
4.35426e-09
0.000223391
-7.17941e-08
-1.11298e-08
9.57072e-10
-0.000229321
-9.33847e-11
2.87729e-08
-0.000171065
-2.29845e-11
8.63415e-10
-0.000223371
3.31051e-08
1.42613e-09
0.000143385
-2.44634e-08
-7.92529e-05
7.92787e-05
-1.41077e-09
3.47567e-09
0.000193607
6.74665e-09
-4.37965e-08
0.000263192
-1.69538e-08
-8.46111e-10
3.31837e-08
-0.000263211
0.000263237
-4.34185e-09
-6.17961e-08
1.27663e-10
-7.92699e-05
1.69694e-08
7.92617e-05
-0.000263218
2.4422e-08
0.000263263
-6.17559e-08
-3.7968e-09
-5.07617e-09
2.25462e-08
3.31798e-08
7.92875e-05
3.38169e-10
-2.89738e-08
-0.000143342
3.00823e-08
2.17224e-09
3.01524e-11
-7.02837e-08
0.000171035
7.68393e-10
-1.41182e-11
-0.000171047
0.000223331
-1.24338e-08
3.31603e-08
-0.000223351
-2.33806e-11
-7.17979e-08
-0.000143354
9.79968e-05
-6.74437e-09
-2.23698e-08
5.1175e-09
1.34764e-08
1.24309e-08
-7.4599e-10
0.000143356
-1.43043e-10
-0.000143368
-0.000223341
2.89745e-08
4.31408e-09
0.000223382
-7.18191e-08
-0.00017105
-3.77292e-10
3.19936e-11
0.000171081
9.18593e-10
-1.11305e-08
-0.000229309
3.77416e-11
2.87804e-08
8.19645e-10
-0.000223362
3.31327e-08
-0.000171062
1.19295e-11
1.3983e-09
0.000143383
-2.44898e-08
-7.92545e-05
7.92804e-05
-1.38268e-09
3.48245e-09
0.00019359
6.77193e-09
-4.38199e-08
0.000263187
-1.69162e-08
-8.02632e-10
3.31675e-08
-0.000263207
0.000263233
-4.3018e-09
-6.18429e-08
1.67393e-10
-7.92716e-05
1.69347e-08
7.92633e-05
-0.000263213
2.44466e-08
0.000263259
-6.18019e-08
-3.74161e-09
-5.10835e-09
2.25258e-08
3.31656e-08
7.92891e-05
-2.89911e-08
3.85458e-10
-0.000143341
2.10779e-09
3.00956e-08
2.70466e-11
-7.03044e-08
0.000223321
-1.24438e-08
3.31859e-08
-0.000223342
0.000171032
7.36958e-10
2.24486e-11
-0.000171044
-7.18279e-08
4.4611e-11
-0.000143352
9.79899e-05
-6.8047e-09
-1.99876e-08
5.09811e-09
1.11796e-08
-6.97045e-09
-7.00851e-09