/*--------------------------------*- C++ -*----------------------------------*\
| =========                 |                                                 |
| \\      /  F ield         | OpenFOAM: The Open Source CFD Toolbox           |
|  \\    /   O peration     | Version:  2312                                  |
|   \\  /    A nd           | Website:  www.openfoam.com                      |
|    \\/     M anipulation  |                                                 |
\*---------------------------------------------------------------------------*/
FoamFile
{
    version     2.0;
    format      ascii;
    arch        "LSB;label=32;scalar=64";
    class       surfaceScalarField;
    location    "650";
    object      phi;
}
// * * * * * * * * * * * * * * * * * * * * * * * * * * * * * * * * * * * * * //

dimensions      [0 3 -1 0 0 0 0];

oriented        oriented;

internalField   nonuniform List<scalar> 
123680
(
-8.18444e-07
-8.19634e-07
4.33615e-07
4.34031e-07
0.00115006
-0.00114929
-1.50285e-06
8.19034e-07
3.99419e-07
0.00113925
-4.98907e-07
1.12936e-06
1.47111e-07
7.4728e-07
-5.44758e-07
8.46464e-08
-1.22936e-06
-0.0011388
-1.50005e-06
8.19257e-07
4.05032e-07
0.00113912
-4.9614e-07
1.12665e-06
1.44134e-07
7.47267e-07
-5.4487e-07
8.48055e-08
-1.22952e-06
-0.00113868
1.53175e-06
1.49478e-06
-4.76334e-07
-4.79289e-07
0.000274438
-0.000276509
-7.98835e-07
-7.99893e-07
-0.00115233
4.25889e-07
4.26408e-07
0.00115308
-0.0011405
-1.49425e-06
7.99228e-07
3.90125e-07
0.0011409
-4.87335e-07
1.13505e-06
1.5357e-07
7.54574e-07
-5.30024e-07
-1.21363e-06
9.28067e-08
-0.00114038
-1.49146e-06
7.99329e-07
3.95729e-07
0.00114077
-4.84558e-07
1.13233e-06
1.50691e-07
7.54606e-07
-5.30079e-07
-1.21375e-06
9.3006e-08
-0.000276524
1.52321e-06
1.48628e-06
-4.63692e-07
-4.66546e-07
0.000274444
-7.79109e-07
-7.79943e-07
-0.00115528
4.18371e-07
4.18893e-07
0.001156
-0.00114201
-1.4848e-06
7.7944e-07
3.80381e-07
0.00114236
-4.75859e-07
1.14043e-06
1.59911e-07
7.61861e-07
-5.15373e-07
-1.19759e-06
1.00992e-07
-0.00114188
-1.48204e-06
7.79468e-07
3.85943e-07
0.00114222
-4.72993e-07
1.13773e-06
1.57107e-07
7.61873e-07
-5.15381e-07
-1.19766e-06
1.01073e-07
-0.000276478
1.51373e-06
1.4767e-06
-4.50567e-07
-4.535e-07
0.000274391
-7.58351e-07
-7.59046e-07
-0.00115813
4.10213e-07
4.10714e-07
0.00115883
-0.00114331
-1.47461e-06
7.58444e-07
3.71183e-07
0.00114361
-4.64261e-07
1.14567e-06
1.66091e-07
7.69173e-07
-5.01014e-07
-1.18134e-06
1.09141e-07
-0.00114318
-1.47183e-06
7.58661e-07
3.76779e-07
0.00114348
-4.61373e-07
1.14299e-06
1.63332e-07
7.69136e-07
-5.01096e-07
-1.1815e-06
1.09147e-07
-0.000276378
1.50364e-06
1.46654e-06
-4.37454e-07
-4.40459e-07
0.000274286
-7.36956e-07
-7.37642e-07
-0.00116088
4.01876e-07
4.02328e-07
0.00116155
-0.00114442
-1.4637e-06
7.37132e-07
3.61653e-07
0.00114468
-4.5286e-07
1.15082e-06
1.72015e-07
7.76389e-07
-4.86758e-07
-1.16507e-06
1.17157e-07
-0.0011443
-1.46088e-06
7.37306e-07
3.67387e-07
0.00114454
-4.49974e-07
1.14816e-06
1.69284e-07
7.76364e-07
-4.86926e-07
-1.16522e-06
1.17162e-07
-0.000276232
1.49271e-06
1.45549e-06
-4.24259e-07
-4.27348e-07
0.000274135
-7.14871e-07
-7.15373e-07
-0.00116352
3.9312e-07
3.936e-07
0.00116416
-0.00114534
-1.45218e-06
7.15047e-07
3.51994e-07
0.00114555
-4.4163e-07
1.15614e-06
1.77886e-07
7.83476e-07
-4.72906e-07
-1.14899e-06
1.24962e-07
-0.00114521
-1.44938e-06
7.15224e-07
3.57676e-07
0.00114541
-4.38772e-07
1.15339e-06
1.75087e-07
7.83504e-07
-4.73018e-07
-1.1491e-06
1.25048e-07
-0.000276047
1.48124e-06
1.44401e-06
-4.11228e-07
-4.14322e-07
0.000273947
-6.92177e-07
-6.92652e-07
-0.00116605
3.84256e-07
3.84741e-07
0.00116667
-0.00114608
-1.44013e-06
6.92461e-07
3.41309e-07
0.00114624
-4.30645e-07
1.16151e-06
1.83797e-07
7.90448e-07
-4.59412e-07
-1.13317e-06
1.32648e-07
-0.00114595
-1.43737e-06
6.92479e-07
3.47099e-07
0.0011461
-4.27842e-07
1.15879e-06
1.809e-07
7.90534e-07
-4.59451e-07
-1.13323e-06
1.32787e-07
-0.000275831
1.46922e-06
1.43203e-06
-3.98373e-07
-4.0139e-07
0.000273729
-6.68813e-07
-6.69237e-07
-0.00116847
3.75125e-07
3.75638e-07
0.00116906
-0.00114663
-1.42783e-06
6.69245e-07
3.2988e-07
0.00114675
-4.19777e-07
1.16689e-06
1.89573e-07
7.97282e-07
-4.46225e-07
-1.11769e-06
1.40199e-07
-0.0011465
-1.42511e-06
6.69029e-07
3.35674e-07
0.00114662
-4.1704e-07
1.16414e-06
1.86658e-07
7.9746e-07
-4.46197e-07
-1.11765e-06
1.40442e-07
-0.000275592
1.4569e-06
1.4198e-06
-3.85847e-07
-3.88785e-07
0.00027349
-6.44877e-07
-6.45293e-07
-0.00117078
3.65779e-07
3.66387e-07
0.00117134
-0.00114703
-1.41546e-06
6.45387e-07
3.17925e-07
0.0011471
-4.09182e-07
1.17216e-06
1.95258e-07
8.03869e-07
-4.33386e-07
-1.10257e-06
1.47671e-07
-0.00114689
-1.41273e-06
6.45061e-07
3.23697e-07
0.00114697
-4.06472e-07
1.16943e-06
1.92331e-07
8.04091e-07
-4.33345e-07
-1.10259e-06
1.47926e-07
-0.000275336
1.4446e-06
1.40755e-06
-3.73781e-07
-3.76614e-07
0.000273235
-6.20369e-07
-6.20772e-07
-0.00117297
3.50586e-07
3.56832e-07
0.0011735
-0.00114726
-1.40314e-06
6.20842e-07
3.05135e-07
0.0011473
-3.98897e-07
1.17747e-06
2.00772e-07
8.10415e-07
-4.20954e-07
-1.08799e-06
1.54914e-07
-0.00114713
-1.40047e-06
6.20523e-07
3.10917e-07
0.00114716
-3.96212e-07
1.17468e-06
1.97842e-07
8.10567e-07
-4.20859e-07
-1.08795e-06
1.55211e-07
-0.000275071
1.43225e-06
1.39521e-06
-3.62061e-07
-3.64898e-07
0.000272971
-5.95458e-07
-5.95863e-07
-0.00117503
3.41091e-07
3.47275e-07
0.00117554
-0.00114735
-1.39097e-06
5.95925e-07
2.91472e-07
0.00114736
-3.88919e-07
1.18265e-06
2.06167e-07
8.16591e-07
-4.08896e-07
-1.07392e-06
1.62e-07
-0.00114722
-1.38835e-06
5.95644e-07
2.974e-07
0.00114722
-3.86279e-07
1.17979e-06
2.03201e-07
8.16788e-07
-4.08855e-07
-1.07386e-06
1.62254e-07
-0.000274801
1.42e-06
1.38297e-06
-3.50766e-07
-3.53631e-07
0.000272703
-5.7027e-07
-5.70798e-07
-0.00117698
3.31706e-07
3.37837e-07
0.00117745
-0.00114731
-1.37915e-06
5.70686e-07
2.76954e-07
0.00114729
-3.79274e-07
1.18756e-06
2.11384e-07
8.22589e-07
-3.97348e-07
-1.06031e-06
1.68834e-07
-0.00114718
-1.37652e-06
5.70456e-07
2.83049e-07
0.00114715
-3.76644e-07
1.18472e-06
2.08426e-07
8.22777e-07
-3.97295e-07
-1.06033e-06
1.69054e-07
-0.000274531
1.4082e-06
1.3711e-06
-3.4006e-07
-3.43001e-07
0.000272434
-5.44862e-07
-5.45468e-07
-0.00117879
3.22346e-07
3.2838e-07
0.00117923
-0.00114716
-1.36761e-06
5.45255e-07
2.61846e-07
0.00114711
-3.69949e-07
1.19221e-06
2.16482e-07
8.28305e-07
-3.86207e-07
-1.04747e-06
1.7546e-07
-0.00114703
-1.36503e-06
5.4514e-07
2.6797e-07
0.00114698
-3.6731e-07
1.1894e-06
2.13511e-07
8.28447e-07
-3.86186e-07
-1.04742e-06
1.7563e-07
-0.000274262
1.39667e-06
1.35951e-06
-3.29828e-07
-3.32845e-07
0.000272169
-5.19293e-07
-5.19979e-07
-0.00118048
3.12999e-07
3.18988e-07
0.00118088
-0.00114691
-1.35646e-06
5.19567e-07
2.4608e-07
0.00114684
-3.6099e-07
1.19673e-06
2.2135e-07
8.33776e-07
-3.75587e-07
-1.0351e-06
1.81731e-07
-0.00114678
-1.35387e-06
5.19607e-07
2.52296e-07
0.0011467
-3.58321e-07
1.19387e-06
2.18421e-07
8.3394e-07
-3.75601e-07
-1.03508e-06
1.81856e-07
-0.000273999
1.3855e-06
1.34832e-06
-3.20146e-07
-3.2319e-07
0.000271908
-4.93754e-07
-4.94203e-07
-0.00118203
3.03549e-07
3.09608e-07
0.00118241
-0.00114657
-1.34576e-06
4.93879e-07
2.29926e-07
0.00114648
-3.52383e-07
1.20093e-06
2.26005e-07
8.39039e-07
-3.65452e-07
-1.02332e-06
1.87679e-07
-0.00114644
-1.34324e-06
4.93879e-07
2.36062e-07
0.00114634
-3.49683e-07
1.19806e-06
2.23109e-07
8.39187e-07
-3.65459e-07
-1.02329e-06
1.87848e-07
-0.000273742
1.37484e-06
1.33766e-06
-3.1105e-07
-3.14093e-07
0.000271655
-4.67986e-07
-4.68368e-07
-0.00118346
2.93868e-07
3.00089e-07
0.0011838
-0.00114616
-1.33552e-06
4.68118e-07
2.13464e-07
0.00114606
-3.4417e-07
1.20486e-06
2.30419e-07
8.4412e-07
-3.55804e-07
-1.01211e-06
1.93326e-07
-0.00114603
-1.3329e-06
4.68018e-07
2.19563e-07
0.00114592
-3.41465e-07
1.20201e-06
2.2755e-07
8.44176e-07
-3.55783e-07
-1.01211e-06
1.93522e-07
-0.000273493
1.36457e-06
1.32746e-06
-3.02474e-07
-3.05444e-07
0.000271409
-4.42174e-07
-4.42298e-07
-0.00118476
2.8398e-07
2.90392e-07
0.00118507
-0.00114569
-1.32577e-06
4.42316e-07
1.96949e-07
0.00114557
-3.36312e-07
1.20849e-06
2.3462e-07
8.48839e-07
-3.46576e-07
-1.00152e-06
1.98725e-07
-0.00114556
-1.32308e-06
4.42071e-07
2.03071e-07
0.00114543
-3.33622e-07
1.20569e-06
2.31776e-07
8.48859e-07
-3.46559e-07
-1.00151e-06
1.9893e-07
-0.000273252
1.35473e-06
1.31772e-06
-2.94384e-07
-2.97278e-07
0.000271171
-4.16333e-07
-4.16173e-07
-0.00118593
2.79689e-07
2.80415e-07
0.0011862
-0.00114518
-1.31642e-06
4.16372e-07
1.80621e-07
0.00114505
-3.28924e-07
1.21189e-06
2.38545e-07
8.53267e-07
-3.378e-07
-9.91424e-07
2.03872e-07
-0.00114504
-1.31381e-06
4.1607e-07
1.86677e-07
0.0011449
-3.26139e-07
1.2091e-06
2.35672e-07
8.53307e-07
-3.37732e-07
-9.91392e-07
2.04095e-07
-0.000273021
1.34539e-06
1.30846e-06
-2.86778e-07
-2.89597e-07
0.000270943
-3.90562e-07
-3.90036e-07
-0.00118697
2.69284e-07
2.7017e-07
0.00118721
-0.00114462
-1.30767e-06
3.90455e-07
1.64661e-07
0.00114448
-3.21861e-07
1.21501e-06
2.42194e-07
8.57461e-07
-3.29427e-07
-9.81879e-07
2.08744e-07
-0.00114448
-1.30499e-06
3.90106e-07
1.70534e-07
0.00114434
-3.19111e-07
1.21225e-06
2.39376e-07
8.57532e-07
-3.29364e-07
-9.81815e-07
2.08956e-07
-0.000272799
1.33658e-06
1.29967e-06
-2.79615e-07
-2.82416e-07
0.000270724
-3.64562e-07
-3.64133e-07
-0.00118789
2.58543e-07
2.59499e-07
0.0011881
-0.00114404
-1.2993e-06
3.64518e-07
1.48941e-07
0.0011439
-3.15186e-07
1.21789e-06
2.45609e-07
8.6149e-07
-3.2146e-07
-9.72824e-07
2.1341e-07
-0.0011439
-1.29662e-06
3.64088e-07
1.54799e-07
0.00114375
-3.1249e-07
1.21514e-06
2.42779e-07
8.6156e-07
-3.21398e-07
-9.72726e-07
2.13578e-07
-0.000272586
1.32815e-06
1.2913e-06
-2.72883e-07
-2.75649e-07
0.000270515
-3.38721e-07
-3.38337e-07
-0.00118869
2.47452e-07
2.4841e-07
0.00118887
-0.00114344
-1.29146e-06
3.3874e-07
1.33828e-07
0.00114329
-3.08923e-07
1.2205e-06
2.48746e-07
8.65214e-07
-3.13876e-07
-9.64226e-07
2.17733e-07
-0.0011433
-1.28878e-06
3.38257e-07
1.39679e-07
0.00114315
-3.06213e-07
1.21774e-06
2.45934e-07
8.65338e-07
-3.13823e-07
-9.64136e-07
2.17951e-07
-0.000272384
1.32024e-06
1.2834e-06
-2.66578e-07
-2.69364e-07
0.000270316
-3.13051e-07
-3.12695e-07
-0.00118937
2.35978e-07
2.36849e-07
0.00118952
-0.00114283
-1.28406e-06
3.13042e-07
1.19428e-07
0.00114268
-3.03046e-07
1.22291e-06
2.5169e-07
8.6876e-07
-3.06679e-07
-9.56091e-07
2.21825e-07
-0.00114269
-1.28137e-06
3.12579e-07
1.25143e-07
0.00114254
-3.0033e-07
1.22014e-06
2.48853e-07
8.68914e-07
-3.06615e-07
-9.55988e-07
2.22068e-07
-0.000272191
1.31284e-06
1.27599e-06
-2.60744e-07
-2.63522e-07
0.000270126
-2.87602e-07
-2.8736e-07
-0.00118994
2.24053e-07
2.24874e-07
0.00119007
-0.00114221
-1.27704e-06
2.87645e-07
1.05488e-07
0.00114207
-2.97498e-07
1.22507e-06
2.54359e-07
8.72157e-07
-2.99858e-07
-9.48363e-07
2.25751e-07
-0.00114208
-1.27438e-06
2.87183e-07
1.11338e-07
0.00114192
-2.94818e-07
1.22229e-06
2.51515e-07
8.72282e-07
-2.99825e-07
-9.48281e-07
2.25944e-07
-0.000272008
1.30582e-06
1.26898e-06
-2.55256e-07
-2.58055e-07
0.000269947
-2.62472e-07
-2.6222e-07
-0.00119041
2.11608e-07
2.12409e-07
0.00119051
-0.0011416
-1.27053e-06
2.62521e-07
9.24986e-08
0.00114146
-2.92365e-07
1.22706e-06
2.56757e-07
8.75343e-07
-2.9339e-07
-9.41069e-07
2.2943e-07
-0.00114147
-1.26784e-06
2.62002e-07
9.8297e-08
0.00114131
-2.89681e-07
1.22425e-06
2.53914e-07
8.75504e-07
-2.93353e-07
-9.41037e-07
2.29571e-07
-0.000271835
1.29933e-06
1.2625e-06
-2.50242e-07
-2.53021e-07
0.000269776
-2.37651e-07
-2.37425e-07
-0.00119077
1.98712e-07
1.99436e-07
0.00119085
-0.001141
-1.2644e-06
2.37683e-07
8.04209e-08
0.00114085
-2.87584e-07
1.22881e-06
2.58936e-07
8.78314e-07
-2.87284e-07
-9.34191e-07
2.32885e-07
-0.00114086
-1.26173e-06
2.37262e-07
8.61933e-08
0.00114071
-2.84895e-07
1.22603e-06
2.56121e-07
8.78459e-07
-2.87217e-07
-9.34132e-07
2.33046e-07
-0.000271671
1.2932e-06
1.25638e-06
-2.45558e-07
-2.48345e-07
0.000269616
1.54302e-06
1.50309e-06
-4.76407e-07
-4.82109e-07
0.000274496
-0.000276584
-1.17385e-06
-1.13384e-06
0.000276599
-0.000274507
1.05282e-07
1.10604e-07
4.06524e-07
0.0011387
-5.04649e-07
1.16956e-06
1.52742e-07
7.52747e-07
-5.45016e-07
8.45776e-08
-1.2351e-06
-0.00113826
-1.54034e-06
8.18764e-07
4.064e-07
0.00113877
-5.04614e-07
1.16695e-06
1.5274e-07
7.52708e-07
-5.42198e-07
8.14008e-08
-1.23489e-06
-0.00113833
0.00113996
8.03783e-07
-0.00113955
3.99479e-07
-1.5367e-06
1.57624e-07
-4.95917e-07
-1.22335e-06
9.07038e-08
-5.3397e-07
7.58218e-07
1.17125e-06
0.00114003
8.04113e-07
-0.00113962
3.99331e-07
-1.53405e-06
1.57565e-07
-4.95961e-07
-1.22314e-06
8.75562e-08
-5.31175e-07
7.58193e-07
-4.76757e-07
-4.78933e-07
0.000274477
-0.000276565
-1.13366e-06
0.00027658
-0.000274488
1.05349e-07
1.07856e-07
4.05057e-07
0.0011397
-4.99098e-07
1.12956e-06
1.47071e-07
7.52615e-07
-5.45098e-07
8.47449e-08
-1.23503e-06
-0.00113926
-1.53479e-06
8.18203e-07
4.06352e-07
0.00113866
-5.04557e-07
1.16157e-06
1.52923e-07
7.52778e-07
-5.42203e-07
8.15515e-08
-1.23485e-06
-0.00113822
0.00114096
8.04854e-07
-0.00114055
3.98081e-07
-1.49675e-06
1.51943e-07
-4.90366e-07
-1.22326e-06
9.08476e-08
-5.33937e-07
7.58114e-07
1.16589e-06
0.00113991
8.03728e-07
-0.00113951
3.99194e-07
-1.52849e-06
1.57778e-07
-4.95897e-07
-1.22312e-06
8.77235e-08
-5.3103e-07
7.58229e-07
8.18263e-07
4.06447e-07
0.00113828
-5.01557e-07
1.15863e-06
1.50028e-07
7.44553e-07
-5.39234e-07
7.82683e-08
-1.22639e-06
-0.00113783
8.0415e-07
-0.0011401
4.03493e-07
-1.49652e-06
1.51911e-07
-4.90209e-07
-1.2176e-06
9.07615e-08
7.52788e-07
-5.33752e-07
1.16295e-06
0.00113953
8.03319e-07
-0.00113913
3.99312e-07
-1.52539e-06
1.5488e-07
-4.92817e-07
-1.21465e-06
8.45156e-08
-5.28208e-07
7.50002e-07
-4.76791e-07
-4.81582e-07
0.000274463
-0.00027654
-1.13099e-06
0.000276555
-0.000274474
1.05456e-07
1.10732e-07
8.19235e-07
4.05257e-07
0.00113926
-4.99109e-07
1.12111e-06
1.46967e-07
7.498e-07
-5.44896e-07
8.48715e-08
-1.23187e-06
-0.00113882
8.04361e-07
-0.00113997
3.98009e-07
-1.49371e-06
1.49008e-07
-4.87493e-07
-1.21781e-06
9.09102e-08
7.52763e-07
-5.33864e-07
1.12537e-06
0.00114052
8.04763e-07
-0.00114011
3.98077e-07
-1.48847e-06
1.51779e-07
-4.90442e-07
-1.22014e-06
9.09734e-08
-5.33767e-07
7.55254e-07
-0.000274448
1.05134e-07
1.08103e-07
1.53445e-06
1.49449e-06
-4.63664e-07
-4.69339e-07
0.000274503
-1.17939e-06
-1.13935e-06
0.000276553
-0.000274468
1.14285e-07
1.19663e-07
3.97135e-07
0.00114035
-4.92991e-07
1.17523e-06
1.59247e-07
7.60033e-07
-5.30233e-07
-1.21936e-06
9.28102e-08
-1.53179e-06
7.9911e-07
3.97048e-07
0.00114042
-4.93039e-07
1.17264e-06
1.59181e-07
7.6002e-07
-5.27434e-07
-1.21915e-06
8.96288e-08
0.00114146
7.84157e-07
-0.0011411
3.89681e-07
-1.52739e-06
1.63998e-07
-4.84426e-07
-1.20737e-06
9.8782e-08
-5.19291e-07
7.65465e-07
1.17677e-06
0.00114153
7.84287e-07
-0.00114117
3.89558e-07
-1.52474e-06
1.63998e-07
-4.84433e-07
-1.20711e-06
9.57644e-08
-5.16436e-07
7.65449e-07
-4.64021e-07
-4.66234e-07
0.000274484
-1.13912e-06
0.000276534
-0.00027445
1.14344e-07
1.16941e-07
3.95685e-07
0.00114135
-4.87447e-07
1.13521e-06
1.53595e-07
7.59946e-07
-5.30278e-07
-1.21925e-06
9.29066e-08
-1.52626e-06
7.9885e-07
3.96776e-07
0.00114031
-4.93047e-07
1.16727e-06
1.59381e-07
7.60029e-07
-5.27398e-07
-1.21912e-06
8.97438e-08
0.00114246
7.85017e-07
-0.0011421
3.88354e-07
-1.48744e-06
1.58334e-07
-4.78913e-07
-1.20721e-06
9.89997e-08
-5.19237e-07
7.65411e-07
1.17135e-06
0.00114142
7.83871e-07
-0.00114106
3.89453e-07
-1.51923e-06
1.64148e-07
-4.84364e-07
-1.20706e-06
9.58815e-08
-5.1635e-07
7.65489e-07
7.9838e-07
3.97082e-07
0.00113993
-4.89982e-07
1.16433e-06
1.56489e-07
7.51847e-07
-5.24527e-07
8.66118e-08
-1.21069e-06
7.8444e-07
-0.00114165
3.93793e-07
-1.48725e-06
1.58346e-07
-4.78764e-07
-1.2016e-06
9.89375e-08
7.6007e-07
-5.19025e-07
1.16838e-06
0.00114103
7.83591e-07
-0.00114068
3.89575e-07
-1.51618e-06
1.61261e-07
-4.81337e-07
-1.19865e-06
9.27672e-08
-5.13503e-07
7.57284e-07
-4.64094e-07
-4.68855e-07
0.00027447
-1.13641e-06
0.000276509
-0.000274436
1.14372e-07
1.19748e-07
7.99784e-07
3.95933e-07
0.00114091
-4.87547e-07
1.12675e-06
1.53394e-07
7.57072e-07
-5.30086e-07
9.30292e-08
-1.21615e-06
7.84541e-07
-0.00114152
3.88253e-07
-1.48447e-06
1.55489e-07
-4.75897e-07
-1.20176e-06
9.90474e-08
7.60046e-07
-5.19121e-07
1.13086e-06
0.00114202
7.84921e-07
-0.00114166
3.88424e-07
-1.47918e-06
1.58229e-07
-4.78913e-07
-1.2041e-06
9.90895e-08
-5.19072e-07
7.62524e-07
-0.00027441
1.1418e-07
1.17085e-07
1.52498e-06
1.48503e-06
-4.5066e-07
-4.56275e-07
0.00027445
-1.1846e-06
-1.14453e-06
0.000276454
-0.000274376
1.22843e-07
1.28237e-07
3.8734e-07
0.0011418
-4.81504e-07
1.18066e-06
1.65593e-07
7.67258e-07
-5.15594e-07
-1.20335e-06
1.0082e-07
-1.52229e-06
7.79182e-07
3.87209e-07
0.00114188
-4.81469e-07
1.17809e-06
1.65587e-07
7.67256e-07
-5.12805e-07
-1.20308e-06
9.78028e-08
0.00114276
7.63635e-07
-0.00114246
3.80441e-07
-1.51738e-06
1.7026e-07
-4.72772e-07
-1.19121e-06
1.06867e-07
-5.04896e-07
7.7272e-07
1.18205e-06
0.00114284
7.63721e-07
-0.00114253
3.80229e-07
-1.51465e-06
1.703e-07
-4.72737e-07
-1.19099e-06
1.03818e-07
-5.0206e-07
7.7267e-07
-4.50976e-07
-4.53145e-07
0.000274431
-1.14438e-06
0.000276435
-0.000274357
1.22924e-07
1.25543e-07
3.86036e-07
0.00114281
-4.76003e-07
1.14062e-06
1.59934e-07
7.67231e-07
-5.15595e-07
-1.20318e-06
1.01004e-07
-1.51681e-06
7.78803e-07
3.87179e-07
0.00114176
-4.81442e-07
1.17266e-06
1.65754e-07
7.6731e-07
-5.12722e-07
-1.20302e-06
9.78953e-08
0.00114377
7.64346e-07
-0.00114346
3.79147e-07
-1.47746e-06
1.6458e-07
-4.67287e-07
-1.19101e-06
1.07101e-07
-5.04815e-07
7.72717e-07
1.17652e-06
0.00114272
7.6332e-07
-0.00114241
3.80279e-07
-1.50924e-06
1.70416e-07
-4.72737e-07
-1.19088e-06
1.04001e-07
-5.01909e-07
7.72811e-07
7.78577e-07
3.87292e-07
0.00114138
-4.7848e-07
1.16972e-06
1.62837e-07
7.59124e-07
-5.09865e-07
9.48391e-08
-1.19464e-06
7.63672e-07
-0.00114301
3.84643e-07
-1.47718e-06
1.64602e-07
-4.67158e-07
-1.18542e-06
1.0709e-07
7.67369e-07
-5.04636e-07
1.17359e-06
0.00114234
7.62856e-07
-0.00114203
3.80483e-07
-1.50617e-06
1.67505e-07
-4.69725e-07
-1.18246e-06
1.00958e-07
-4.99095e-07
7.64588e-07
-4.5106e-07
-4.55845e-07
0.000274417
-1.14166e-06
0.00027641
-0.000274343
1.23002e-07
1.2829e-07
7.79829e-07
3.86141e-07
0.00114236
-4.7599e-07
1.13222e-06
1.59862e-07
7.64303e-07
-5.15442e-07
1.01078e-07
-1.20009e-06
7.63922e-07
-0.00114288
3.79047e-07
-1.47442e-06
1.61851e-07
-4.64266e-07
-1.1856e-06
1.07153e-07
7.67314e-07
-5.04715e-07
1.13614e-06
0.00114332
7.6459e-07
-0.00114302
3.79069e-07
-1.46909e-06
1.64601e-07
-4.67196e-07
-1.18799e-06
1.07096e-07
-5.04668e-07
7.69702e-07
-0.000274317
1.22815e-07
1.25658e-07
1.51476e-06
1.47483e-06
-4.37559e-07
-4.43127e-07
0.000274345
-1.18977e-06
-1.14972e-06
0.000276308
-0.000274236
1.31131e-07
1.36512e-07
3.7818e-07
0.00114306
-4.69867e-07
1.18588e-06
1.71792e-07
7.74527e-07
-5.01318e-07
-1.18714e-06
1.08865e-07
-1.51207e-06
7.58394e-07
3.77953e-07
0.00114313
-4.69808e-07
1.18336e-06
1.71827e-07
7.74514e-07
-4.98507e-07
-1.18692e-06
1.05864e-07
0.00114387
7.42357e-07
-0.00114361
3.71148e-07
-1.50661e-06
1.76262e-07
-4.61298e-07
-1.17492e-06
1.14901e-07
-4.90684e-07
7.79952e-07
1.18726e-06
0.00114394
7.42334e-07
-0.00114369
3.70856e-07
-1.50391e-06
1.76341e-07
-4.61223e-07
-1.17468e-06
1.11907e-07
-4.87844e-07
7.79943e-07
-4.37878e-07
-4.4002e-07
0.000274326
-1.14955e-06
0.000276289
-0.000274217
1.31228e-07
1.33841e-07
3.76883e-07
0.00114406
-4.6439e-07
1.14582e-06
1.66133e-07
7.74539e-07
-5.01262e-07
-1.18692e-06
1.09094e-07
-1.50666e-06
7.5802e-07
3.78059e-07
0.00114301
-4.69866e-07
1.17785e-06
1.71897e-07
7.74636e-07
-4.98357e-07
-1.18678e-06
1.05997e-07
0.00114488
7.43031e-07
-0.00114462
3.6983e-07
-1.46667e-06
1.70622e-07
-4.55815e-07
-1.1747e-06
1.15122e-07
-4.9062e-07
7.79974e-07
1.18173e-06
0.00114383
7.41889e-07
-0.00114357
3.7108e-07
-1.4985e-06
1.76398e-07
-4.61274e-07
-1.17458e-06
1.12028e-07
-4.87754e-07
7.80074e-07
7.5759e-07
3.78219e-07
0.00114263
-4.66896e-07
1.17489e-06
1.69002e-07
7.66441e-07
-4.95487e-07
1.03032e-07
-1.1784e-06
7.42473e-07
-0.00114417
3.75249e-07
-1.46648e-06
1.70598e-07
-4.55689e-07
-1.16912e-06
1.15146e-07
7.74624e-07
-4.90338e-07
1.17875e-06
0.00114344
7.41627e-07
-0.00114319
3.71187e-07
-1.49547e-06
1.73393e-07
-4.58345e-07
-1.16619e-06
1.09071e-07
-4.84835e-07
7.71822e-07
-4.37924e-07
-4.42765e-07
0.000274312
-1.14689e-06
0.000276264
-0.000274203
1.3133e-07
1.3657e-07
7.59276e-07
3.76836e-07
0.00114362
-4.64332e-07
1.13747e-06
1.66144e-07
7.71542e-07
-5.01128e-07
1.09084e-07
-1.18392e-06
7.42666e-07
-0.00114404
3.6972e-07
-1.46366e-06
1.67854e-07
-4.52797e-07
-1.16931e-06
1.15175e-07
7.74552e-07
-4.90489e-07
1.14143e-06
0.00114443
7.4323e-07
-0.00114417
3.69664e-07
-1.45828e-06
1.70627e-07
-4.55713e-07
-1.17178e-06
1.15061e-07
-4.90565e-07
7.77032e-07
-0.000274177
1.31162e-07
1.3389e-07
1.50385e-06
1.4639e-06
-4.24417e-07
-4.30002e-07
0.000274194
-1.19502e-06
-1.15501e-06
0.000276122
-0.000274056
1.39151e-07
1.44575e-07
3.688e-07
0.00114412
-4.58458e-07
1.19108e-06
1.7769e-07
7.81749e-07
-4.87148e-07
-1.17085e-06
1.16911e-07
-1.50114e-06
7.36892e-07
3.68465e-07
0.00114419
-4.58393e-07
1.18853e-06
1.77764e-07
7.81766e-07
-4.8431e-07
-1.1706e-06
1.13942e-07
0.00114479
7.20481e-07
-0.00114458
3.61478e-07
-1.4953e-06
1.82052e-07
-4.50066e-07
-1.15871e-06
1.2281e-07
-4.76665e-07
7.87144e-07
1.19248e-06
0.00114486
7.20402e-07
-0.00114465
3.61154e-07
-1.49257e-06
1.82085e-07
-4.50003e-07
-1.15848e-06
1.1992e-07
-4.73814e-07
7.87121e-07
-4.24748e-07
-4.26867e-07
0.000274176
-1.15481e-06
0.000276104
-0.000274038
1.3923e-07
1.41878e-07
3.67353e-07
0.00114513
-4.52978e-07
1.15103e-06
1.72069e-07
7.81772e-07
-4.87042e-07
-1.17063e-06
1.17139e-07
-1.49573e-06
7.36462e-07
3.68726e-07
0.00114407
-4.58455e-07
1.18301e-06
1.77843e-07
7.81864e-07
-4.84238e-07
-1.1705e-06
1.14028e-07
0.0011458
7.21035e-07
-0.00114558
3.60218e-07
-1.45533e-06
1.76488e-07
-4.44557e-07
-1.15851e-06
1.23035e-07
-4.76571e-07
7.87118e-07
1.18695e-06
0.00114474
7.20059e-07
-0.00114453
3.61276e-07
-1.48715e-06
1.82147e-07
-4.50049e-07
-1.15839e-06
1.19992e-07
-4.73726e-07
7.8723e-07
7.36219e-07
3.68887e-07
0.00114369
-4.55589e-07
1.1801e-06
1.74834e-07
7.73631e-07
-4.813e-07
1.11108e-07
-1.16215e-06
7.20594e-07
-0.00114514
3.65656e-07
-1.45512e-06
1.76435e-07
-4.44423e-07
-1.15298e-06
1.23014e-07
7.81751e-07
-4.7638e-07
1.18391e-06
0.00114436
7.19833e-07
-0.00114415
3.61632e-07
-1.4842e-06
1.79168e-07
-4.47109e-07
-1.15005e-06
1.17051e-07
-4.70859e-07
7.78965e-07
-4.24769e-07
-4.2964e-07
0.000274161
-1.15212e-06
0.000276078
-0.000274023
1.39276e-07
1.44584e-07
7.37833e-07
3.67282e-07
0.00114468
-4.52915e-07
1.1428e-06
1.72071e-07
7.78817e-07
-4.87039e-07
1.17053e-07
-1.16771e-06
7.20811e-07
-0.001145
3.60034e-07
-1.45227e-06
1.73647e-07
-4.41554e-07
-1.15313e-06
1.23099e-07
7.81706e-07
-4.76465e-07
1.14664e-06
0.00114535
7.21263e-07
-0.00114514
3.60115e-07
-1.44696e-06
1.76474e-07
-4.44411e-07
-1.15564e-06
1.22987e-07
-4.76579e-07
7.84166e-07
-0.000273997
1.39122e-07
1.41863e-07
1.49235e-06
1.45238e-06
-4.11359e-07
-4.16925e-07
0.000274006
-1.20038e-06
-1.16037e-06
0.000275906
-0.000273845
1.46971e-07
1.52351e-07
3.59016e-07
0.00114499
-4.47294e-07
1.19635e-06
1.83497e-07
7.88885e-07
-4.73231e-07
-1.15473e-06
1.24772e-07
-1.48963e-06
7.14716e-07
3.58755e-07
0.00114506
-4.4721e-07
1.1938e-06
1.83536e-07
7.88889e-07
-4.70374e-07
-1.15447e-06
1.21894e-07
0.00114552
6.97919e-07
-0.00114536
3.51049e-07
-1.48331e-06
1.87908e-07
-4.39019e-07
-1.14281e-06
1.30584e-07
-4.63013e-07
7.94131e-07
1.19779e-06
0.00114559
6.97709e-07
-0.00114543
3.50886e-07
-1.48064e-06
1.87938e-07
-4.39017e-07
-1.14253e-06
1.2773e-07
-4.60152e-07
7.94155e-07
-4.11684e-07
-4.13831e-07
0.000273987
-1.1602e-06
0.000275888
-0.000273826
1.47119e-07
1.49615e-07
3.57713e-07
0.001146
-4.41764e-07
1.15635e-06
1.77955e-07
7.88885e-07
-4.73139e-07
-1.1545e-06
1.25005e-07
-1.48423e-06
7.14438e-07
3.58925e-07
0.00114494
-4.47263e-07
1.18823e-06
1.8357e-07
7.88984e-07
-4.703e-07
-1.15436e-06
1.21967e-07
0.00114653
6.98386e-07
-0.00114636
3.49838e-07
-1.44336e-06
1.82351e-07
-4.33503e-07
-1.14266e-06
1.30812e-07
-4.6297e-07
7.94249e-07
1.19226e-06
0.00114548
6.97358e-07
-0.00114531
3.51084e-07
-1.4752e-06
1.88002e-07
-4.39e-07
-1.14246e-06
1.27821e-07
-4.60106e-07
7.94249e-07
7.14169e-07
3.59205e-07
0.00114456
-4.44392e-07
1.18532e-06
1.80637e-07
7.80713e-07
-4.67403e-07
1.19022e-07
-1.14605e-06
6.9812e-07
-0.00114592
3.55212e-07
-1.44315e-06
1.82344e-07
-4.33386e-07
-1.13708e-06
1.3071e-07
7.88803e-07
-4.62781e-07
1.18929e-06
0.00114509
6.9727e-07
-0.00114493
3.51296e-07
-1.47226e-06
1.85076e-07
-4.3609e-07
-1.13416e-06
1.24835e-07
-4.57254e-07
7.85975e-07
-4.1173e-07
-4.16564e-07
0.000273973
-1.15743e-06
0.000275862
-0.000273812
1.47084e-07
1.52359e-07
7.15668e-07
3.57685e-07
0.00114555
-4.41721e-07
1.14805e-06
1.77927e-07
7.85921e-07
-4.73146e-07
1.24924e-07
-1.15161e-06
6.98234e-07
-0.00114578
3.49791e-07
-1.44037e-06
1.79493e-07
-4.30565e-07
-1.1372e-06
1.30863e-07
7.88752e-07
-4.628e-07
1.152e-06
0.00114609
6.98727e-07
-0.00114592
3.49747e-07
-1.43507e-06
1.82333e-07
-4.3347e-07
-1.13968e-06
1.30739e-07
-4.62884e-07
7.91235e-07
-0.000273786
1.46946e-07
1.49685e-07
1.4803e-06
1.44036e-06
-3.98472e-07
-4.04022e-07
0.000273788
-1.20571e-06
-1.16571e-06
0.000275667
-0.00027361
1.54442e-07
1.59821e-07
3.48376e-07
0.00114568
-4.36278e-07
1.20167e-06
1.89346e-07
7.95894e-07
-4.59647e-07
-1.13887e-06
1.32527e-07
-1.47764e-06
6.91987e-07
3.48201e-07
0.00114575
-4.36301e-07
1.19908e-06
1.89344e-07
7.9593e-07
-4.56793e-07
-1.1386e-06
1.29689e-07
0.00114608
6.74698e-07
-0.00114596
3.39777e-07
-1.47104e-06
1.93706e-07
-4.28114e-07
-1.12715e-06
1.38245e-07
-4.49671e-07
8.01044e-07
1.20303e-06
0.00114615
6.74483e-07
-0.00114603
3.3975e-07
-1.46846e-06
1.93644e-07
-4.28151e-07
-1.1269e-06
1.35442e-07
-4.46812e-07
8.01116e-07
-3.98743e-07
-4.00992e-07
0.00027377
-1.16553e-06
0.000275649
-0.000273592
1.54574e-07
1.56974e-07
3.46994e-07
0.00114669
-4.3078e-07
1.16166e-06
1.83802e-07
7.95991e-07
-4.59593e-07
-1.13862e-06
1.32744e-07
-1.47217e-06
6.91609e-07
3.48417e-07
0.00114563
-4.36271e-07
1.19363e-06
1.89445e-07
7.95973e-07
-4.56748e-07
-1.13851e-06
1.29716e-07
0.00114709
6.75203e-07
-0.00114696
3.38508e-07
-1.43114e-06
1.88137e-07
-4.22621e-07
-1.12695e-06
1.38488e-07
-4.49603e-07
8.01112e-07
1.19761e-06
0.00114603
6.7416e-07
-0.00114591
3.39805e-07
-1.46294e-06
1.93815e-07
-4.28094e-07
-1.12685e-06
1.35486e-07
-4.46792e-07
8.01178e-07
6.91581e-07
3.48619e-07
0.00114525
-4.33369e-07
1.19065e-06
1.86548e-07
7.87699e-07
-4.53897e-07
1.2676e-07
-1.13025e-06
6.75074e-07
-0.00114652
3.44017e-07
-1.4309e-06
1.88148e-07
-4.22451e-07
-1.12152e-06
1.38325e-07
7.95647e-07
-4.49514e-07
1.19468e-06
0.00114565
6.74187e-07
-0.00114553
3.39881e-07
-1.45997e-06
1.90896e-07
-4.25172e-07
-1.11859e-06
1.32485e-07
-4.43985e-07
7.92857e-07
-3.9882e-07
-4.03669e-07
0.000273755
-1.16277e-06
0.000275623
-0.000273577
1.5454e-07
1.59845e-07
6.92962e-07
3.47077e-07
0.00114624
-4.30739e-07
1.15336e-06
1.83792e-07
7.92992e-07
-4.5954e-07
1.32694e-07
-1.13572e-06
6.74977e-07
-0.00114638
3.38537e-07
-1.42817e-06
1.85275e-07
-4.19695e-07
-1.12153e-06
1.38543e-07
7.95732e-07
-4.49429e-07
1.15734e-06
0.00114664
6.75407e-07
-0.00114652
3.38656e-07
-1.42284e-06
1.88065e-07
-4.22631e-07
-1.12402e-06
1.3848e-07
-4.49533e-07
7.98177e-07
-0.000273551
1.54355e-07
1.57189e-07
1.46798e-06
1.42808e-06
-3.8591e-07
-3.91387e-07
0.000273548
-1.21099e-06
-1.17099e-06
0.000275412
-0.000273358
1.61503e-07
1.66919e-07
3.36934e-07
0.00114619
-4.25447e-07
1.20702e-06
1.95104e-07
8.02799e-07
-4.46425e-07
-1.12332e-06
1.4014e-07
-1.4654e-06
6.6856e-07
3.36861e-07
0.00114626
-4.25497e-07
1.20437e-06
1.95051e-07
8.028e-07
-4.4353e-07
-1.12306e-06
1.37359e-07
0.00114647
6.50939e-07
-0.00114638
3.27913e-07
-1.45868e-06
1.99377e-07
-4.17442e-07
-1.11199e-06
1.45769e-07
-4.36723e-07
8.07745e-07
1.20828e-06
0.00114654
6.50669e-07
-0.00114646
3.27989e-07
-1.45614e-06
1.99245e-07
-4.17567e-07
-1.11161e-06
1.43008e-07
-4.33853e-07
8.07846e-07
-3.8612e-07
-3.88471e-07
0.00027353
-1.17085e-06
0.000275393
-0.00027334
1.61673e-07
1.64031e-07
3.35631e-07
0.0011472
-4.19945e-07
1.16702e-06
1.89564e-07
8.02791e-07
-4.4631e-07
-1.12312e-06
1.40385e-07
-1.45987e-06
6.68233e-07
3.36939e-07
0.00114614
-4.2542e-07
1.19898e-06
1.95219e-07
8.02884e-07
-4.43528e-07
-1.12302e-06
1.37345e-07
0.00114748
6.51388e-07
-0.0011474
3.26757e-07
-1.41881e-06
1.93815e-07
-4.11998e-07
-1.11175e-06
1.46033e-07
-4.36606e-07
8.07759e-07
1.20291e-06
0.00114642
6.50353e-07
-0.00114634
3.27961e-07
-1.45058e-06
1.9945e-07
-4.17474e-07
-1.11161e-06
1.43018e-07
-4.33852e-07
8.07838e-07
6.6829e-07
3.37085e-07
0.00114576
-4.22489e-07
1.19598e-06
1.9235e-07
7.94526e-07
-4.4073e-07
1.34375e-07
-1.11481e-06
6.51388e-07
-0.00114695
3.3222e-07
-1.41854e-06
1.93815e-07
-4.11777e-07
-1.10633e-06
1.45793e-07
8.02314e-07
-4.36606e-07
1.2e-06
0.00114604
6.50506e-07
-0.00114595
3.28018e-07
-1.44766e-06
1.96596e-07
-4.14494e-07
-1.10337e-06
1.40013e-07
-4.31079e-07
7.99559e-07
-3.86282e-07
-3.91053e-07
0.000273515
-1.16811e-06
0.000275368
-0.000273325
1.61694e-07
1.66899e-07
6.69374e-07
3.3583e-07
0.00114675
-4.19959e-07
1.15863e-06
1.89505e-07
7.99904e-07
-4.46251e-07
1.40365e-07
-1.12014e-06
6.5115e-07
-0.00114681
3.26752e-07
-1.41582e-06
1.90908e-07
-4.09104e-07
-1.10638e-06
1.46059e-07
8.02436e-07
-4.36471e-07
1.16265e-06
0.00114703
6.51487e-07
-0.00114695
3.26868e-07
-1.41059e-06
1.93744e-07
-4.11997e-07
-1.10877e-06
1.46007e-07
-4.36574e-07
8.04953e-07
-0.000273299
1.6144e-07
1.64352e-07
1.4556e-06
1.41572e-06
-3.73751e-07
-3.79202e-07
0.000273294
-1.21623e-06
-1.17628e-06
0.000275147
-0.000273096
1.68272e-07
1.73684e-07
3.24822e-07
0.00114654
-4.14842e-07
1.21229e-06
2.0075e-07
8.09441e-07
-4.33541e-07
-1.10824e-06
1.47617e-07
-1.45305e-06
6.44618e-07
3.24958e-07
0.00114661
-4.14932e-07
1.20959e-06
2.00674e-07
8.09434e-07
-4.30639e-07
-1.108e-06
1.4489e-07
0.0011467
6.26521e-07
-0.00114666
3.20922e-07
-1.44638e-06
2.04899e-07
-4.07071e-07