/*--------------------------------*- C++ -*----------------------------------*\
| =========                 |                                                 |
| \\      /  F ield         | OpenFOAM: The Open Source CFD Toolbox           |
|  \\    /   O peration     | Version:                                        |
|   \\  /    A nd           | Website:  www.openfoam.com                      |
|    \\/     M anipulation  |                                                 |
\*---------------------------------------------------------------------------*/
FoamFile
{
    version     2.0;
    format      ascii;
    class       volScalarField;
    location    "36350.5";
    object      p;
}
// * * * * * * * * * * * * * * * * * * * * * * * * * * * * * * * * * * * * * //

dimensions      [0 2 -2 0 0 0 0];


internalField   nonuniform List<scalar> 
247096
(
1.08437e-07
1.0844e-07
1.08584e-07
1.0867e-07
1.08703e-07
1.08661e-07
1.0857e-07
1.08416e-07
1.0844e-07
1.08638e-07
1.08816e-07
1.08908e-07
1.08931e-07
1.08901e-07
1.08797e-07
1.08614e-07
1.08584e-07
1.08816e-07
1.08956e-07
1.08998e-07
1.09004e-07
1.08995e-07
1.08945e-07
1.08788e-07
1.08556e-07
1.0867e-07
1.08908e-07
1.08998e-07
1.09009e-07
1.09008e-07
1.09009e-07
1.08993e-07
1.08886e-07
1.08637e-07
1.08437e-07
1.08703e-07
1.08931e-07
1.09004e-07
1.09008e-07
1.09005e-07
1.09009e-07
1.09001e-07
1.08912e-07
1.08668e-07
1.08661e-07
1.08901e-07
1.08995e-07
1.09009e-07
1.09009e-07
1.09009e-07
1.0899e-07
1.08878e-07
1.08628e-07
1.0857e-07
1.08797e-07
1.08945e-07
1.08993e-07
1.09001e-07
1.0899e-07
1.08934e-07
1.08769e-07
1.08544e-07
1.08416e-07
1.08614e-07
1.08788e-07
1.08886e-07
1.08912e-07
1.08878e-07
1.08769e-07
1.08592e-07
1.08556e-07
1.08637e-07
1.08668e-07
1.08628e-07
1.08544e-07
1.05624e-07
1.05599e-07
1.05609e-07
1.05459e-07
1.05472e-07
1.05491e-07
1.05471e-07
1.05657e-07
1.05595e-07
1.05609e-07
1.0548e-07
1.05276e-07
1.05294e-07
1.05294e-07
1.05276e-07
1.05537e-07
1.05483e-07
1.05459e-07
1.05276e-07
1.05314e-07
1.05335e-07
1.05335e-07
1.05314e-07
1.05276e-07
1.056e-07
1.05646e-07
1.05624e-07
1.05472e-07
1.05294e-07
1.05335e-07
1.05358e-07
1.05358e-07
1.05335e-07
1.05294e-07
1.05628e-07
1.05664e-07
1.05599e-07
1.05491e-07
1.05294e-07
1.05335e-07
1.05358e-07
1.05358e-07
1.05335e-07
1.05294e-07
1.05631e-07
1.05488e-07
1.05471e-07
1.05276e-07
1.05314e-07
1.05335e-07
1.05335e-07
1.05314e-07
1.05276e-07
1.05624e-07
1.05673e-07
1.05657e-07
1.05537e-07
1.05276e-07
1.05294e-07
1.05294e-07
1.05276e-07
1.05618e-07
1.05542e-07
1.05656e-07
1.05595e-07
1.05483e-07
1.056e-07
1.05628e-07
1.05631e-07
1.05624e-07
1.05542e-07
1.05667e-07
1.05646e-07
1.05664e-07
1.05488e-07
1.05673e-07
1.05656e-07
1.03847e-07
1.03838e-07
1.03846e-07
1.03716e-07
1.03715e-07
1.03725e-07
1.03717e-07
1.03881e-07
1.03837e-07
1.03846e-07
1.0371e-07
1.03477e-07
1.03485e-07
1.03485e-07
1.03477e-07
1.03734e-07
1.03728e-07
1.03716e-07
1.03477e-07
1.03497e-07
1.03508e-07
1.03508e-07
1.03497e-07
1.03477e-07
1.03778e-07
1.03871e-07
1.03847e-07
1.03715e-07
1.03485e-07
1.03508e-07
1.03521e-07
1.03521e-07
1.03508e-07
1.03485e-07
1.03783e-07
1.03868e-07
1.03838e-07
1.03725e-07
1.03485e-07
1.03508e-07
1.03521e-07
1.03521e-07
1.03508e-07
1.03485e-07
1.03781e-07
1.03735e-07
1.03717e-07
1.03477e-07
1.03497e-07
1.03508e-07
1.03508e-07
1.03497e-07
1.03477e-07
1.03785e-07
1.03876e-07
1.03881e-07
1.03734e-07
1.03477e-07
1.03485e-07
1.03485e-07
1.03477e-07
1.03766e-07
1.03757e-07
1.03881e-07
1.03837e-07
1.03728e-07
1.03778e-07
1.03783e-07
1.03781e-07
1.03785e-07
1.03757e-07
1.03884e-07
1.03871e-07
1.03868e-07
1.03735e-07
1.03876e-07
1.03881e-07
1.02246e-07
1.02237e-07
1.02246e-07
1.02122e-07
1.02121e-07
1.02129e-07
1.02123e-07
1.02277e-07
1.02239e-07
1.02246e-07
1.02117e-07
1.01909e-07
1.01915e-07
1.01915e-07
1.01909e-07
1.02141e-07
1.02135e-07
1.02122e-07
1.01909e-07
1.01921e-07
1.01927e-07
1.01927e-07
1.01921e-07
1.01909e-07
1.02182e-07
1.02269e-07
1.02246e-07
1.02121e-07
1.01915e-07
1.01927e-07
1.01934e-07
1.01934e-07
1.01927e-07
1.01915e-07
1.02186e-07
1.02267e-07
1.02237e-07
1.02129e-07
1.01915e-07
1.01927e-07
1.01934e-07
1.01934e-07
1.01927e-07
1.01915e-07
1.02185e-07
1.02141e-07
1.02123e-07
1.01909e-07
1.01921e-07
1.01927e-07
1.01927e-07
1.01921e-07
1.01909e-07
1.02188e-07
1.02274e-07
1.02277e-07
1.02141e-07
1.01909e-07
1.01915e-07
1.01915e-07
1.01909e-07
1.0217e-07
1.02162e-07
1.02277e-07
1.02239e-07
1.02135e-07
1.02182e-07
1.02186e-07
1.02185e-07
1.02188e-07
1.02162e-07
1.02282e-07
1.02269e-07
1.02267e-07
1.02141e-07
1.02274e-07
1.02277e-07
1.00784e-07
1.00775e-07
1.00784e-07
1.00666e-07
1.00664e-07
1.00671e-07
1.00666e-07
1.00811e-07
1.00778e-07
1.00784e-07
1.00661e-07
1.0047e-07
1.00473e-07
1.00473e-07
1.0047e-07
1.00684e-07
1.0068e-07
1.00666e-07
1.0047e-07
1.00478e-07
1.00481e-07
1.00481e-07
1.00478e-07
1.0047e-07
1.00723e-07
1.00807e-07
1.00784e-07
1.00664e-07
1.00473e-07
1.00481e-07
1.00485e-07
1.00485e-07
1.00481e-07
1.00473e-07
1.00725e-07
1.00805e-07
1.00775e-07
1.00671e-07
1.00473e-07
1.00481e-07
1.00485e-07
1.00485e-07
1.00481e-07
1.00473e-07
1.00724e-07
1.00685e-07
1.00666e-07
1.0047e-07
1.00478e-07
1.00481e-07
1.00481e-07
1.00478e-07
1.0047e-07
1.00727e-07
1.00811e-07
1.00811e-07
1.00684e-07
1.0047e-07
1.00473e-07
1.00473e-07
1.0047e-07
1.00711e-07
1.00704e-07
1.00813e-07
1.00778e-07
1.0068e-07
1.00723e-07
1.00725e-07
1.00724e-07
1.00727e-07
1.00704e-07
1.00818e-07
1.00807e-07
1.00805e-07
1.00685e-07
1.00811e-07
1.00813e-07
9.94195e-08
9.94108e-08
9.94189e-08
9.93058e-08
9.93032e-08
9.93093e-08
9.93053e-08
9.94445e-08
9.94142e-08
9.94189e-08
9.9301e-08
9.91212e-08
9.91234e-08
9.91234e-08
9.91212e-08
9.93238e-08
9.93201e-08
9.93058e-08
9.91212e-08
9.91264e-08
9.91281e-08
9.91281e-08
9.91264e-08
9.91212e-08
9.93613e-08
9.94419e-08
9.94195e-08
9.93032e-08
9.91234e-08
9.91281e-08
9.91307e-08
9.91307e-08
9.91281e-08
9.91234e-08
9.93626e-08
9.94398e-08
9.94109e-08
9.93093e-08
9.91234e-08
9.91281e-08
9.91307e-08
9.91307e-08
9.91281e-08
9.91234e-08
9.9361e-08
9.93244e-08
9.93053e-08
9.91212e-08
9.91264e-08
9.91281e-08
9.91281e-08
9.91264e-08
9.91212e-08
9.93641e-08
9.94452e-08
9.94445e-08
9.93238e-08
9.91212e-08
9.91234e-08
9.91234e-08
9.91212e-08
9.93488e-08
9.93426e-08
9.94468e-08
9.94142e-08
9.93201e-08
9.93613e-08
9.93626e-08
9.9361e-08
9.93641e-08
9.93426e-08
9.94522e-08
9.94418e-08
9.94398e-08
9.93244e-08
9.94452e-08
9.94468e-08
9.81227e-08
9.81143e-08
9.81219e-08
9.80126e-08
9.80097e-08
9.80151e-08
9.80116e-08
9.81462e-08
9.81178e-08
9.81219e-08
9.80074e-08
9.78358e-08
9.78374e-08
9.78374e-08
9.78358e-08
9.80298e-08
9.80268e-08
9.80126e-08
9.78358e-08
9.78397e-08
9.78406e-08
9.78406e-08
9.78397e-08
9.78358e-08
9.80666e-08
9.81446e-08
9.81227e-08
9.80097e-08
9.78374e-08
9.78406e-08
9.78423e-08
9.78423e-08
9.78406e-08
9.78374e-08
9.80674e-08
9.81427e-08
9.81142e-08
9.80151e-08
9.78374e-08
9.78406e-08
9.78423e-08
9.78423e-08
9.78406e-08
9.78374e-08
9.80658e-08
9.80308e-08
9.80116e-08
9.78358e-08
9.78397e-08
9.78406e-08
9.78406e-08
9.78397e-08
9.78358e-08
9.80687e-08
9.81476e-08
9.81462e-08
9.80298e-08
9.78358e-08
9.78374e-08
9.78374e-08
9.78358e-08
9.80539e-08
9.80483e-08
9.81487e-08
9.81178e-08
9.80268e-08
9.80666e-08
9.80674e-08
9.80658e-08
9.80687e-08
9.80483e-08
9.81543e-08
9.81446e-08
9.81427e-08
9.80308e-08
9.81476e-08
9.81487e-08
9.68761e-08
9.68677e-08
9.68751e-08
9.67686e-08
9.67654e-08
9.67703e-08
9.67672e-08
9.68983e-08
9.68713e-08
9.68751e-08
9.67631e-08
9.65977e-08
9.65989e-08
9.65989e-08
9.65977e-08
9.67851e-08
9.67827e-08
9.67686e-08
9.65977e-08
9.66008e-08
9.66013e-08
9.66013e-08
9.66008e-08
9.65977e-08
9.68214e-08
9.68975e-08
9.68761e-08
9.67654e-08
9.65989e-08
9.66013e-08
9.66025e-08
9.66025e-08
9.66013e-08
9.65989e-08
9.68219e-08
9.68956e-08
9.68677e-08
9.67703e-08
9.65989e-08
9.66013e-08
9.66025e-08
9.66025e-08
9.66013e-08
9.65989e-08
9.68201e-08
9.67866e-08
9.67672e-08
9.65977e-08
9.66008e-08
9.66013e-08
9.66013e-08
9.66008e-08
9.65977e-08
9.68229e-08
9.69002e-08
9.68983e-08
9.67851e-08
9.65977e-08
9.65989e-08
9.65989e-08
9.65977e-08
9.68085e-08
9.68033e-08
9.69011e-08
9.68713e-08
9.67827e-08
9.68214e-08
9.68219e-08
9.68201e-08
9.68229e-08
9.68033e-08
9.69068e-08
9.68975e-08
9.68956e-08
9.67866e-08
9.69002e-08
9.69011e-08
9.56705e-08
9.56623e-08
9.56694e-08
9.55652e-08
9.55617e-08
9.55662e-08
9.55634e-08
9.56919e-08
9.5666e-08
9.56694e-08
9.55593e-08
9.53993e-08
9.54002e-08
9.54002e-08
9.53993e-08
9.5581e-08
9.55792e-08
9.55652e-08
9.53993e-08
9.5402e-08
9.54022e-08
9.54022e-08
9.5402e-08
9.53993e-08
9.56171e-08
9.56917e-08
9.56705e-08
9.55617e-08
9.54002e-08
9.54022e-08
9.54029e-08
9.54029e-08
9.54022e-08
9.54002e-08
9.56172e-08
9.56898e-08
9.56622e-08
9.55662e-08
9.54002e-08
9.54022e-08
9.54029e-08
9.54029e-08
9.54022e-08
9.54002e-08
9.56154e-08
9.5583e-08
9.55634e-08
9.53993e-08
9.5402e-08
9.54022e-08
9.54022e-08
9.5402e-08
9.53993e-08
9.56179e-08
9.56941e-08
9.56919e-08
9.5581e-08
9.53993e-08
9.54002e-08
9.54002e-08
9.53993e-08
9.56039e-08
9.55989e-08
9.56947e-08
9.5666e-08
9.55792e-08
9.56171e-08
9.56172e-08
9.56154e-08
9.56179e-08
9.55989e-08
9.57007e-08
9.56917e-08
9.56898e-08
9.55829e-08
9.56941e-08
9.56947e-08
9.44996e-08
9.44914e-08
9.44985e-08
9.43959e-08
9.43922e-08
9.43963e-08
9.43938e-08
9.45202e-08
9.44953e-08
9.44985e-08
9.43898e-08
9.42344e-08
9.42351e-08
9.42351e-08
9.42344e-08
9.44114e-08
9.441e-08
9.43959e-08
9.42344e-08
9.42369e-08
9.42368e-08
9.42368e-08
9.42369e-08
9.42344e-08
9.44474e-08
9.45206e-08
9.44996e-08
9.43922e-08
9.42351e-08
9.42368e-08
9.42371e-08
9.42371e-08
9.42368e-08
9.42351e-08
9.44472e-08
9.45187e-08
9.44914e-08
9.43963e-08
9.42351e-08
9.42368e-08
9.42371e-08
9.42371e-08
9.42368e-08
9.42351e-08
9.44454e-08
9.44135e-08
9.43938e-08
9.42344e-08
9.42369e-08
9.42368e-08
9.42368e-08
9.42369e-08
9.42344e-08
9.44477e-08
9.45228e-08
9.45202e-08
9.44114e-08
9.42344e-08
9.42351e-08
9.42351e-08
9.42344e-08
9.4434e-08
9.4429e-08
9.45232e-08
9.44953e-08
9.44099e-08
9.44474e-08
9.44472e-08
9.44454e-08
9.44477e-08
9.4429e-08
9.45294e-08
9.45206e-08
9.45187e-08
9.44135e-08
9.45228e-08
9.45232e-08
9.33555e-08
9.33472e-08
9.33543e-08
9.3253e-08
9.32491e-08
9.3253e-08
9.32506e-08
9.33756e-08
9.33514e-08
9.33543e-08
9.32467e-08
9.30947e-08
9.30953e-08
9.30953e-08
9.30947e-08
9.32683e-08
9.3267e-08
9.3253e-08
9.30947e-08
9.30972e-08
9.30968e-08
9.30968e-08
9.30972e-08
9.30947e-08
9.33043e-08
9.33764e-08
9.33554e-08
9.32491e-08
9.30953e-08
9.30967e-08
9.30968e-08
9.30968e-08
9.30967e-08
9.30953e-08
9.3304e-08
9.33744e-08
9.33472e-08
9.32529e-08
9.30953e-08
9.30967e-08
9.30968e-08
9.30968e-08
9.30967e-08
9.30953e-08
9.33021e-08
9.32705e-08
9.32506e-08
9.30947e-08
9.30972e-08
9.30967e-08
9.30967e-08
9.30972e-08
9.30947e-08
9.33041e-08
9.33784e-08
9.33756e-08
9.32683e-08
9.30947e-08
9.30953e-08
9.30953e-08
9.30947e-08
9.32907e-08
9.32857e-08
9.33786e-08
9.33514e-08
9.3267e-08
9.33043e-08
9.33039e-08
9.33021e-08
9.33041e-08
9.32857e-08
9.33851e-08
9.33763e-08
9.33744e-08
9.32705e-08
9.33784e-08
9.33786e-08
9.22292e-08
9.2221e-08
9.22281e-08
9.21276e-08
9.21235e-08
9.21272e-08
9.2125e-08
9.22492e-08
9.22254e-08
9.22279e-08
9.21212e-08
9.19714e-08
9.19719e-08
9.19719e-08
9.19714e-08
9.21429e-08
9.2141e-08
9.21274e-08
9.19713e-08
9.19738e-08
9.19731e-08
9.19731e-08
9.19738e-08
9.19713e-08
9.21788e-08
9.225e-08
9.22291e-08
9.21234e-08
9.19718e-08
9.19731e-08
9.19729e-08
9.19729e-08
9.19731e-08
9.19718e-08
9.21784e-08
9.22481e-08
9.22209e-08
9.21272e-08
9.19718e-08
9.19731e-08
9.19729e-08
9.19729e-08
9.19731e-08
9.19718e-08
9.21765e-08
9.21449e-08
9.2125e-08
9.19713e-08
9.19738e-08
9.19731e-08
9.19731e-08
9.19738e-08
9.19713e-08
9.21784e-08
9.2252e-08
9.22491e-08
9.21428e-08
9.19713e-08
9.19718e-08
9.19718e-08
9.19713e-08
9.21651e-08
9.21601e-08
9.22522e-08
9.22253e-08
9.21409e-08
9.21787e-08
9.21784e-08
9.21764e-08
9.21782e-08
9.21597e-08
9.22587e-08
9.22499e-08
9.2248e-08
9.21448e-08
9.22519e-08
9.2252e-08
9.11132e-08
9.11049e-08
9.11121e-08
9.10119e-08
9.10078e-08
9.10115e-08
9.10093e-08
9.1133e-08
9.11094e-08
9.11118e-08
9.10054e-08
9.08569e-08
9.08573e-08
9.08573e-08
9.08569e-08
9.10272e-08
9.10253e-08
9.10117e-08
9.08568e-08
9.08595e-08
9.08585e-08
9.08585e-08
9.08595e-08
9.08568e-08
9.10633e-08
9.11339e-08
9.11131e-08
9.10077e-08
9.08573e-08
9.08585e-08
9.08581e-08
9.08582e-08
9.08585e-08
9.08573e-08
9.10629e-08
9.11321e-08
9.11048e-08
9.10114e-08
9.08573e-08
9.08585e-08
9.08581e-08
9.08581e-08
9.08585e-08
9.08573e-08
9.10609e-08
9.10293e-08
9.10092e-08
9.08568e-08
9.08594e-08
9.08585e-08
9.08585e-08
9.08594e-08
9.08568e-08
9.10627e-08
9.11359e-08
9.11329e-08
9.10272e-08
9.08567e-08
9.08572e-08
9.08572e-08
9.08567e-08
9.10495e-08
9.10444e-08
9.1136e-08
9.11093e-08
9.10253e-08
9.10632e-08
9.10628e-08
9.10608e-08
9.10625e-08
9.10439e-08
9.11426e-08
9.11338e-08
9.1132e-08
9.10291e-08
9.11358e-08
9.11358e-08
9.00022e-08
8.99939e-08
9.0001e-08
8.99011e-08
8.9897e-08
8.99005e-08
8.98983e-08
9.00217e-08
8.99982e-08
9.00008e-08
8.98946e-08
8.97465e-08
8.9747e-08
8.9747e-08
8.97465e-08
8.99163e-08
8.99157e-08
8.99009e-08
8.97465e-08
8.97493e-08
8.97482e-08
8.97482e-08
8.97493e-08
8.97465e-08
8.99528e-08
9.00231e-08
9.00021e-08
8.98968e-08
8.9747e-08
8.97482e-08
8.97477e-08
8.97477e-08
8.97482e-08
8.9747e-08
8.99522e-08
9.00211e-08
8.99938e-08
8.99005e-08
8.9747e-08
8.97482e-08
8.97477e-08
8.97477e-08
8.97482e-08
8.9747e-08
8.99502e-08
8.99185e-08
8.98984e-08
8.97465e-08
8.97493e-08
8.97481e-08
8.97481e-08
8.97493e-08
8.97465e-08
8.99519e-08
9.00249e-08
9.00219e-08
8.99163e-08
8.97464e-08
8.97469e-08
8.97469e-08
8.97464e-08
8.99387e-08
8.99336e-08
9.0025e-08
8.99983e-08
8.99145e-08
8.99525e-08
8.9952e-08
8.995e-08
8.99517e-08
8.99331e-08
9.00316e-08
9.00228e-08
9.0021e-08
8.99183e-08
9.00247e-08
9.00247e-08
8.88934e-08
8.88851e-08
8.88922e-08
8.87924e-08
8.87882e-08
8.87918e-08
8.87897e-08
8.89131e-08
8.88896e-08
8.88919e-08
8.87858e-08
8.8638e-08
8.86384e-08
8.86384e-08
8.8638e-08
8.88076e-08
8.88058e-08
8.87922e-08
8.86379e-08
8.86409e-08
8.86396e-08
8.86396e-08
8.86409e-08
8.86379e-08
8.88439e-08
8.89141e-08
8.88932e-08
8.87881e-08
8.86384e-08
8.86396e-08
8.86391e-08
8.86391e-08
8.86396e-08
8.86384e-08
8.88434e-08
8.89122e-08
8.8885e-08
8.87917e-08
8.86384e-08
8.86396e-08
8.86391e-08
8.86391e-08
8.86396e-08
8.86384e-08
8.88414e-08
8.88097e-08
8.87896e-08
8.86379e-08
8.86409e-08
8.86396e-08
8.86396e-08
8.86409e-08
8.86379e-08
8.88431e-08
8.89161e-08
8.8913e-08
8.88076e-08
8.86379e-08
8.86383e-08
8.86383e-08
8.86379e-08
8.88299e-08
8.88248e-08
8.89161e-08
8.88895e-08
8.88057e-08
8.88438e-08
8.88433e-08
8.88413e-08
8.8843e-08
8.88243e-08
8.89228e-08
8.8914e-08
8.89121e-08
8.88096e-08
8.89159e-08
8.89159e-08
8.77854e-08
8.77771e-08
8.77842e-08
8.76844e-08
8.76802e-08
8.76838e-08
8.76817e-08
8.78051e-08
8.77816e-08
8.77839e-08
8.76779e-08
8.75301e-08
8.75305e-08
8.75305e-08
8.75301e-08
8.76997e-08
8.76979e-08
8.76842e-08
8.75301e-08
8.75329e-08
8.75318e-08
8.75318e-08
8.75329e-08
8.75301e-08
8.77359e-08
8.78061e-08
8.77852e-08
8.76801e-08
8.75305e-08
8.75318e-08
8.75312e-08
8.75312e-08
8.75318e-08
8.75305e-08
8.77355e-08
8.78042e-08
8.7777e-08
8.76837e-08
8.75305e-08
8.75317e-08
8.75312e-08
8.75312e-08
8.75318e-08
8.75305e-08
8.77335e-08
8.77017e-08
8.76816e-08
8.75301e-08
8.75329e-08
8.75317e-08
8.75317e-08
8.75329e-08
8.75301e-08
8.77351e-08
8.7808e-08
8.7805e-08
8.76996e-08
8.753e-08
8.75305e-08
8.75305e-08
8.75301e-08
8.7722e-08
8.77168e-08
8.78081e-08
8.77815e-08
8.76978e-08
8.77359e-08
8.77354e-08
8.77334e-08
8.7735e-08
8.77164e-08
8.78148e-08
8.7806e-08
8.78042e-08
8.77016e-08
8.78079e-08
8.78079e-08
8.66776e-08
8.66694e-08
8.66765e-08
8.65767e-08
8.65725e-08
8.65761e-08
8.65739e-08
8.66971e-08
8.66737e-08
8.66762e-08
8.65702e-08
8.64225e-08
8.64229e-08
8.64229e-08
8.64224e-08
8.65919e-08
8.65912e-08
8.65765e-08
8.64224e-08
8.64252e-08
8.64241e-08
8.64241e-08
8.64252e-08
8.64225e-08
8.66285e-08
8.66986e-08
8.66775e-08
8.65724e-08
8.64228e-08
8.64241e-08
8.64235e-08
8.64235e-08
8.64241e-08
8.64229e-08
8.66279e-08
8.66966e-08
8.66692e-08
8.6576e-08
8.64228e-08
8.64241e-08
8.64235e-08
8.64235e-08
8.64241e-08
8.64229e-08
8.66258e-08
8.65941e-08
8.65738e-08
8.64224e-08
8.64252e-08
8.64241e-08
8.64241e-08
8.64252e-08
8.64225e-08
8.66274e-08
8.67003e-08
8.66971e-08
8.65918e-08
8.64225e-08
8.64229e-08
8.64229e-08
8.64225e-08
8.66143e-08
8.66087e-08
8.67003e-08
8.66736e-08
8.65912e-08
8.66284e-08
8.66278e-08
8.66258e-08
8.66275e-08
8.66092e-08
8.67071e-08
8.66985e-08
8.66966e-08
8.65941e-08
8.67004e-08
8.67004e-08
8.557e-08
8.55617e-08
8.55689e-08
8.54691e-08
8.54649e-08
8.54685e-08
8.54663e-08
8.55895e-08
8.55661e-08
8.55686e-08
8.54626e-08
8.53149e-08
8.53153e-08
8.53153e-08
8.53149e-08
8.54843e-08
8.54837e-08
8.54689e-08
8.53148e-08
8.53176e-08
8.53166e-08
8.53166e-08
8.53177e-08
8.53149e-08
8.55209e-08
8.5591e-08
8.55699e-08
8.54648e-08
8.53152e-08
8.53165e-08
8.53159e-08
8.53159e-08
8.53166e-08
8.53153e-08
8.55203e-08
8.55891e-08
8.55616e-08
8.54684e-08
8.53152e-08
8.53165e-08
8.53159e-08
8.53159e-08
8.53166e-08
8.53153e-08
8.55183e-08
8.54865e-08
8.54662e-08
8.53148e-08
8.53176e-08
8.53165e-08
8.53165e-08
8.53177e-08
8.53149e-08
8.55199e-08
8.55928e-08
8.55895e-08
8.54842e-08
8.53149e-08
8.53153e-08
8.53153e-08
8.53149e-08
8.55067e-08
8.55016e-08
8.55929e-08
8.5566e-08
8.54836e-08
8.55208e-08
8.55202e-08
8.55182e-08
8.55198e-08
8.55012e-08
8.55995e-08
8.55909e-08
8.5589e-08
8.54864e-08
8.55927e-08
8.55927e-08
8.44625e-08
8.44542e-08
8.44614e-08
8.43616e-08
8.43574e-08
8.43609e-08
8.43588e-08
8.4482e-08
8.44586e-08
8.44611e-08
8.4355e-08
8.42074e-08
8.42077e-08
8.42077e-08
8.42073e-08
8.43767e-08
8.43761e-08
8.43614e-08
8.42073e-08
8.42101e-08
8.4209e-08
8.4209e-08
8.42101e-08
8.42074e-08
8.44133e-08
8.44835e-08
8.44624e-08
8.43573e-08
8.42077e-08
8.4209e-08
8.42084e-08
8.42084e-08
8.4209e-08
8.42078e-08
8.44128e-08
8.44815e-08
8.44541e-08
8.43609e-08
8.42077e-08
8.4209e-08
8.42084e-08
8.42084e-08
8.4209e-08
8.42078e-08
8.44107e-08
8.4379e-08
8.43588e-08
8.42073e-08
8.42101e-08
8.4209e-08
8.4209e-08
8.42101e-08
8.42074e-08
8.44124e-08
8.44853e-08
8.44821e-08
8.43768e-08
8.42073e-08
8.42077e-08
8.42077e-08
8.42073e-08
8.43992e-08
8.4394e-08
8.44853e-08
8.44587e-08
8.4375e-08
8.44131e-08
8.44126e-08
8.44106e-08
8.44122e-08
8.43936e-08
8.4492e-08
8.44832e-08
8.44813e-08
8.43788e-08
8.44851e-08
8.44851e-08
8.3355e-08
8.33467e-08
8.33538e-08
8.3254e-08
8.32499e-08
8.32534e-08
8.32513e-08
8.33747e-08
8.33512e-08
8.33536e-08
8.32475e-08
8.30998e-08
8.31002e-08
8.31002e-08
8.30998e-08
8.32693e-08
8.32675e-08
8.32538e-08
8.30998e-08
8.31026e-08
8.31015e-08
8.31015e-08
8.31026e-08
8.30998e-08
8.33056e-08
8.33758e-08
8.33549e-08
8.32497e-08
8.31002e-08
8.31014e-08
8.31008e-08
8.31008e-08
8.31015e-08
8.31002e-08
8.33051e-08
8.33739e-08
8.33466e-08
8.32534e-08
8.31002e-08
8.31014e-08
8.31008e-08
8.31008e-08
8.31015e-08
8.31002e-08
8.33031e-08
8.32714e-08
8.32513e-08
8.30998e-08
8.31025e-08
8.31014e-08
8.31014e-08
8.31025e-08
8.30998e-08
8.33048e-08
8.33777e-08
8.33746e-08
8.32692e-08
8.30997e-08
8.31001e-08
8.31001e-08
8.30997e-08
8.32916e-08
8.32865e-08
8.33778e-08
8.33511e-08
8.32674e-08
8.33055e-08
8.3305e-08
8.3303e-08
8.33046e-08
8.3286e-08
8.33844e-08
8.33756e-08
8.33738e-08
8.32712e-08
8.33775e-08
8.33775e-08
8.22474e-08
8.22391e-08
8.22463e-08
8.21464e-08
8.21423e-08
8.21458e-08
8.21436e-08
8.22669e-08
8.22435e-08
8.2246e-08
8.21399e-08
8.19922e-08
8.19926e-08
8.19926e-08
8.19922e-08
8.21616e-08
8.2161e-08
8.21463e-08
8.19922e-08
8.1995e-08
8.19939e-08
8.19939e-08
8.1995e-08
8.19923e-08
8.21982e-08
8.22683e-08
8.22473e-08
8.21422e-08
8.19926e-08
8.19939e-08
8.19933e-08
8.19933e-08
8.19939e-08
8.19927e-08
8.21976e-08
8.22664e-08
8.22391e-08
8.21458e-08
8.19926e-08
8.19939e-08
8.19932e-08
8.19933e-08
8.19939e-08
8.19926e-08
8.21956e-08
8.21639e-08
8.21437e-08
8.19922e-08
8.1995e-08
8.19939e-08
8.19939e-08
8.1995e-08
8.19923e-08
8.21973e-08
8.22702e-08
8.22671e-08
8.21617e-08
8.19922e-08
8.19926e-08
8.19926e-08
8.19922e-08
8.21841e-08
8.21789e-08
8.22702e-08
8.22436e-08
8.21599e-08
8.21979e-08
8.21975e-08
8.21954e-08
8.21971e-08
8.21785e-08
8.22769e-08
8.22681e-08
8.22662e-08
8.21637e-08
8.227e-08
8.227e-08
8.11398e-08
8.11315e-08
8.11387e-08
8.10389e-08
8.10347e-08
8.10383e-08
8.10361e-08
8.11593e-08
8.11359e-08
8.11384e-08
8.10324e-08
8.08847e-08
8.08851e-08
8.08851e-08
8.08847e-08
8.1054e-08
8.10534e-08
8.10387e-08
8.08846e-08
8.08874e-08
8.08863e-08
8.08863e-08
8.08874e-08
8.08847e-08
8.10907e-08
8.11608e-08
8.11397e-08
8.10346e-08
8.0885e-08
8.08863e-08
8.08857e-08
8.08857e-08
8.08863e-08
8.08851e-08
8.10901e-08
8.11589e-08
8.11315e-08
8.10382e-08
8.0885e-08
8.08863e-08
8.08857e-08
8.08857e-08
8.08863e-08
8.08851e-08
8.1088e-08
8.10563e-08
8.10361e-08
8.08846e-08
8.08874e-08
8.08863e-08
8.08863e-08
8.08874e-08
8.08847e-08
8.10897e-08
8.11626e-08
8.11595e-08
8.10541e-08
8.08846e-08
8.0885e-08
8.0885e-08
8.08846e-08
8.10765e-08
8.10714e-08
8.11627e-08
8.1136e-08
8.10523e-08
8.10904e-08
8.10899e-08
8.10879e-08
8.10895e-08
8.10709e-08
8.11693e-08
8.11605e-08
8.11586e-08
8.10561e-08
8.11624e-08
8.11624e-08
8.00322e-08
8.00239e-08
8.00311e-08
7.99313e-08
7.99271e-08
7.99307e-08
7.99285e-08
8.00517e-08
8.00283e-08
8.00309e-08
7.99248e-08
7.97771e-08
7.97775e-08
7.97775e-08
7.97771e-08
7.99465e-08
7.99459e-08
7.99312e-08
7.97771e-08
7.97799e-08
7.97788e-08
7.97788e-08
7.97799e-08
7.97771e-08
7.99831e-08
8.00532e-08
8.00322e-08
7.99271e-08
7.97775e-08
7.97788e-08
7.97781e-08
7.97781e-08
7.97788e-08
7.97775e-08
7.99825e-08
8.00513e-08
8.00239e-08
7.99307e-08
7.97775e-08
7.97788e-08
7.97781e-08
7.97781e-08
7.97788e-08
7.97775e-08
7.99805e-08
7.99488e-08
7.99286e-08
7.97771e-08
7.97798e-08
7.97787e-08
7.97787e-08
7.97799e-08
7.97771e-08
7.99821e-08
8.0055e-08
8.00519e-08
7.99466e-08
7.9777e-08
7.97774e-08
7.97774e-08
7.9777e-08
7.99689e-08
7.99638e-08
8.00551e-08
8.00284e-08
7.99447e-08
7.99828e-08
7.99824e-08
7.99803e-08
7.99819e-08
7.99633e-08
8.00617e-08
8.0053e-08
8.00511e-08
7.99486e-08
8.00548e-08
8.00548e-08
7.89246e-08
7.89163e-08
7.89233e-08
7.88236e-08
7.88195e-08
7.88231e-08
7.88209e-08
7.89442e-08
7.89207e-08
7.89235e-08
7.88172e-08
7.86695e-08
7.86699e-08
7.86699e-08
7.86695e-08
7.88389e-08
7.88383e-08
7.88237e-08
7.86695e-08
7.86723e-08
7.86712e-08
7.86712e-08
7.86723e-08
7.86696e-08
7.88755e-08
7.89457e-08
7.89247e-08
7.88196e-08
7.86699e-08
7.86712e-08
7.86706e-08
7.86706e-08
7.86712e-08
7.867e-08
7.8875e-08
7.89437e-08
7.89164e-08
7.88231e-08
7.86699e-08
7.86712e-08
7.86706e-08
7.86706e-08
7.86712e-08
7.867e-08
7.88729e-08
7.88412e-08
7.8821e-08
7.86695e-08
7.86723e-08
7.86712e-08
7.86712e-08
7.86723e-08
7.86696e-08
7.88746e-08
7.89475e-08
7.89444e-08
7.8839e-08
7.86695e-08
7.86699e-08
7.86699e-08
7.86695e-08
7.88614e-08
7.88563e-08
7.89475e-08
7.89209e-08
7.88372e-08
7.88753e-08
7.88748e-08
7.88728e-08
7.88744e-08
7.88558e-08
7.89542e-08
7.89454e-08
7.89435e-08
7.8841e-08
7.89473e-08
7.89473e-08
7.78171e-08
7.78088e-08
7.7816e-08
7.77162e-08
7.7712e-08
7.77156e-08
7.77134e-08
7.78366e-08
7.78132e-08
7.78157e-08
7.77097e-08
7.7562e-08
7.75624e-08
7.75624e-08
7.7562e-08
7.77314e-08
7.77308e-08
7.7716e-08
7.75619e-08
7.75647e-08
7.75637e-08
7.75637e-08
7.75648e-08
7.7562e-08
7.7768e-08
7.78381e-08
7.7817e-08
7.77119e-08
7.75623e-08
7.75636e-08
7.7563e-08
7.7563e-08
7.75637e-08
7.75624e-08
7.77674e-08
7.78362e-08
7.78088e-08
7.77155e-08
7.75623e-08
7.75636e-08
7.7563e-08
7.7563e-08
7.75637e-08
7.75624e-08
7.77654e-08
7.77336e-08
7.77133e-08
7.75619e-08
7.75647e-08
7.75637e-08
7.75637e-08
7.75648e-08
7.7562e-08
7.7767e-08
7.78399e-08
7.78366e-08
7.77313e-08
7.7562e-08
7.75624e-08
7.75624e-08
7.7562e-08
7.77539e-08
7.77487e-08
7.784e-08
7.78132e-08
7.77307e-08
7.77679e-08
7.77674e-08
7.77653e-08
7.77669e-08
7.77483e-08
7.78466e-08
7.7838e-08
7.78361e-08
7.77335e-08
7.78398e-08
7.78398e-08
7.67096e-08
7.67013e-08
7.67085e-08
7.66087e-08
7.66045e-08
7.6608e-08
7.66059e-08
7.67291e-08
7.67057e-08
7.67082e-08
7.66021e-08
7.64545e-08
7.64549e-08
7.64549e-08
7.64544e-08
7.66238e-08
7.66232e-08
7.66085e-08
7.64544e-08
7.64572e-08
7.64561e-08
7.64561e-08
7.64572e-08
7.64545e-08
7.66604e-08
7.67305e-08
7.67095e-08
7.66044e-08
7.64548e-08
7.64561e-08
7.64555e-08
7.64555e-08
7.64561e-08
7.64549e-08
7.66598e-08
7.67286e-08
7.67012e-08
7.6608e-08
7.64548e-08
7.64561e-08
7.64555e-08
7.64555e-08
7.64561e-08
7.64548e-08
7.66578e-08
7.6626e-08
7.66058e-08
7.64544e-08
7.64572e-08
7.64561e-08
7.64561e-08
7.64572e-08
7.64544e-08
7.66594e-08
7.67323e-08
7.67291e-08
7.66238e-08
7.64545e-08
7.64549e-08
7.64549e-08
7.64545e-08
7.66463e-08
7.66407e-08
7.67322e-08
7.67056e-08
7.66232e-08
7.66604e-08
7.66599e-08
7.66578e-08
7.66595e-08
7.66412e-08
7.67391e-08
7.67305e-08
7.67286e-08
7.66261e-08
7.67324e-08
7.67324e-08
7.56021e-08
7.55938e-08
7.5601e-08
7.55012e-08
7.5497e-08
7.55006e-08
7.54985e-08
7.56218e-08
7.55983e-08
7.56007e-08
7.54946e-08
7.5347e-08
7.53474e-08
7.53474e-08
7.5347e-08
7.55164e-08
7.55146e-08
7.5501e-08
7.53469e-08
7.53497e-08
7.53486e-08
7.53486e-08
7.53497e-08
7.53469e-08
7.55527e-08
7.56228e-08
7.5602e-08
7.54969e-08
7.53473e-08
7.53486e-08
7.5348e-08
7.5348e-08
7.53486e-08
7.53473e-08
7.55522e-08
7.5621e-08
7.55937e-08
7.55005e-08
7.53473e-08
7.53486e-08
7.5348e-08
7.5348e-08
7.53486e-08
7.53473e-08
7.55502e-08
7.55184e-08
7.54984e-08
7.53469e-08
7.53497e-08
7.53486e-08
7.53486e-08
7.53497e-08
7.53469e-08
7.55518e-08
7.56247e-08
7.56218e-08
7.55164e-08
7.53469e-08
7.53473e-08
7.53473e-08
7.53469e-08
7.55388e-08
7.55332e-08
7.56247e-08
7.55983e-08
7.55146e-08
7.55527e-08
7.55522e-08
7.55502e-08
7.55519e-08
7.55336e-08
7.56316e-08
7.56229e-08
7.5621e-08
7.55185e-08
7.56248e-08
7.56249e-08
7.44946e-08
7.44863e-08
7.44934e-08
7.43936e-08
7.43895e-08
7.43931e-08
7.43909e-08
7.45143e-08
7.44908e-08
7.44932e-08
7.43871e-08
7.42394e-08
7.42398e-08
7.42398e-08
7.42394e-08
7.44089e-08
7.44071e-08
7.43935e-08
7.42394e-08
7.42422e-08
7.42411e-08
7.42411e-08
7.42422e-08
7.42394e-08
7.44452e-08
7.45153e-08
7.44945e-08
7.43894e-08
7.42398e-08
7.42411e-08
7.42404e-08
7.42404e-08
7.42411e-08
7.42398e-08
7.44447e-08
7.45135e-08
7.44862e-08
7.4393e-08
7.42398e-08
7.42411e-08
7.42404e-08
7.42404e-08
7.42411e-08
7.42398e-08
7.44427e-08
7.4411e-08
7.43909e-08
7.42394e-08
7.42421e-08
7.4241e-08
7.42411e-08
7.42422e-08
7.42394e-08
7.44444e-08
7.45173e-08
7.45142e-08
7.44089e-08
7.42394e-08
7.42398e-08
7.42398e-08
7.42394e-08
7.44312e-08
7.44261e-08
7.45173e-08
7.44908e-08
7.44071e-08
7.44451e-08
7.44447e-08
7.44426e-08
7.44443e-08
7.44256e-08
7.4524e-08
7.45153e-08
7.45134e-08
7.44109e-08
7.45172e-08
7.45172e-08
7.3387e-08
7.33787e-08
7.33859e-08
7.32861e-08
7.32819e-08
7.32855e-08
7.32833e-08
7.34065e-08
7.33831e-08
7.33856e-08
7.32796e-08
7.31319e-08
7.31323e-08
7.31323e-08
7.31319e-08
7.33012e-08
7.33006e-08
7.32859e-08
7.31318e-08
7.31346e-08
7.31335e-08
7.31335e-08
7.31346e-08
7.31319e-08
7.33379e-08
7.3408e-08
7.33869e-08
7.32818e-08
7.31323e-08
7.31335e-08
7.31329e-08
7.31329e-08
7.31336e-08
7.31323e-08
7.33373e-08
7.3406e-08
7.33787e-08
7.32855e-08
7.31323e-08
7.31335e-08
7.31329e-08
7.31329e-08
7.31335e-08
7.31323e-08
7.33352e-08
7.33035e-08
7.32833e-08
7.31319e-08
7.31346e-08
7.31335e-08
7.31335e-08
7.31346e-08
7.31319e-08
7.33369e-08
7.34098e-08
7.34067e-08
7.33013e-08
7.31318e-08
7.31322e-08
7.31322e-08
7.31318e-08
7.33237e-08
7.33186e-08
7.34098e-08
7.33832e-08
7.32995e-08
7.33376e-08
7.33372e-08
7.33351e-08
7.33367e-08
7.33181e-08
7.34165e-08
7.34078e-08
7.34059e-08
7.33034e-08
7.34096e-08
7.34096e-08
7.22794e-08
7.22711e-08
7.22781e-08
7.21784e-08
7.21743e-08
7.21779e-08
7.21757e-08
7.22989e-08
7.22755e-08
7.22783e-08
7.2172e-08
7.20243e-08
7.20247e-08
7.20247e-08
7.20243e-08
7.21937e-08
7.21931e-08
7.21785e-08
7.20243e-08
7.20271e-08
7.2026e-08
7.2026e-08
7.20271e-08
7.20243e-08
7.22303e-08
7.23004e-08
7.22795e-08
7.21744e-08
7.20247e-08
7.2026e-08
7.20254e-08
7.20254e-08
7.2026e-08
7.20247e-08
7.22297e-08
7.22985e-08
7.22712e-08
7.21779e-08
7.20247e-08
7.2026e-08
7.20254e-08
7.20254e-08
7.2026e-08
7.20247e-08
7.22276e-08
7.21959e-08
7.21757e-08
7.20243e-08
7.20271e-08
7.2026e-08
7.2026e-08
7.20271e-08
7.20243e-08
7.22292e-08
7.23022e-08
7.2299e-08
7.21937e-08
7.20244e-08
7.20248e-08
7.20248e-08
7.20244e-08
7.22162e-08
7.22106e-08
7.23021e-08
7.22755e-08
7.21931e-08
7.22303e-08
7.22297e-08
7.22277e-08
7.22294e-08
7.22111e-08
7.2309e-08
7.23004e-08
7.22985e-08
7.21959e-08
7.23022e-08
7.23023e-08
7.11718e-08
7.11636e-08
7.11705e-08
7.10708e-08
7.10667e-08
7.10703e-08
7.10682e-08
7.11914e-08
7.1168e-08
7.11708e-08
7.10645e-08
7.09168e-08
7.09172e-08
7.09172e-08
7.09168e-08
7.10861e-08
7.10855e-08
7.1071e-08
7.09168e-08
7.09196e-08
7.09185e-08
7.09185e-08
7.09196e-08
7.09168e-08
7.11228e-08
7.11929e-08
7.11719e-08
7.10668e-08
7.09172e-08
7.09185e-08
7.09178e-08
7.09178e-08
7.09185e-08
7.09172e-08
7.11222e-08
7.11909e-08
7.11636e-08
7.10704e-08
7.09172e-08
7.09185e-08
7.09178e-08
7.09178e-08
7.09185e-08
7.09172e-08
7.11201e-08
7.10884e-08
7.10682e-08
7.09168e-08
7.09196e-08
7.09185e-08
7.09185e-08
7.09196e-08
7.09168e-08
7.11217e-08
7.11946e-08
7.11914e-08
7.10862e-08
7.09168e-08
7.09172e-08
7.09172e-08
7.09168e-08
7.11087e-08
7.11031e-08
7.11946e-08
7.1168e-08
7.10855e-08
7.11228e-08
7.11222e-08
7.11201e-08
7.11218e-08
7.11035e-08
7.12014e-08
7.11929e-08
7.11909e-08
7.10884e-08
7.11947e-08
7.11948e-08
7.00644e-08
7.00561e-08
7.00633e-08
6.99635e-08
6.99593e-08
6.99629e-08
6.99608e-08
7.00841e-08
7.00606e-08
7.0063e-08
6.9957e-08
6.98093e-08
6.98097e-08
6.98097e-08
6.98093e-08
6.99788e-08
6.9977e-08
6.99633e-08
6.98092e-08
6.9812e-08
6.98109e-08
6.98109e-08
6.9812e-08
6.98093e-08
7.0015e-08
7.00852e-08
7.00643e-08
6.99592e-08
6.98096e-08
6.98109e-08
6.98103e-08
6.98103e-08
6.98109e-08
6.98097e-08
7.00146e-08
7.00833e-08
7.00561e-08
6.99628e-08
6.98096e-08
6.98109e-08
6.98103e-08
6.98103e-08
6.98109e-08
6.98097e-08
7.00126e-08
6.99808e-08
6.99607e-08
6.98093e-08
6.9812e-08
6.98109e-08
6.98109e-08
6.9812e-08
6.98093e-08
7.00143e-08
7.00871e-08
7.00841e-08
6.99787e-08
6.98092e-08
6.98096e-08
6.98096e-08