/*--------------------------------*- C++ -*----------------------------------*\
| =========                 |                                                 |
| \\      /  F ield         | OpenFOAM: The Open Source CFD Toolbox           |
|  \\    /   O peration     | Version:                                        |
|   \\  /    A nd           | Website:  www.openfoam.com                      |
|    \\/     M anipulation  |                                                 |
\*---------------------------------------------------------------------------*/
FoamFile
{
    version     2.0;
    format      ascii;
    class       volScalarField;
    location    "36100.5";
    object      p;
}
// * * * * * * * * * * * * * * * * * * * * * * * * * * * * * * * * * * * * * //

dimensions      [0 2 -2 0 0 0 0];


internalField   nonuniform List<scalar> 
247096
(
1.08471e-07
1.08474e-07
1.08618e-07
1.08704e-07
1.08737e-07
1.08695e-07
1.08604e-07
1.0845e-07
1.08474e-07
1.08672e-07
1.0885e-07
1.08942e-07
1.08965e-07
1.08935e-07
1.08831e-07
1.08648e-07
1.08618e-07
1.0885e-07
1.0899e-07
1.09032e-07
1.09038e-07
1.09029e-07
1.08979e-07
1.08822e-07
1.0859e-07
1.08704e-07
1.08942e-07
1.09032e-07
1.09043e-07
1.09042e-07
1.09043e-07
1.09027e-07
1.0892e-07
1.08671e-07
1.08471e-07
1.08737e-07
1.08965e-07
1.09038e-07
1.09042e-07
1.09039e-07
1.09043e-07
1.09035e-07
1.08946e-07
1.08702e-07
1.08695e-07
1.08935e-07
1.09029e-07
1.09043e-07
1.09043e-07
1.09043e-07
1.09024e-07
1.08912e-07
1.08662e-07
1.08604e-07
1.08831e-07
1.08979e-07
1.09027e-07
1.09035e-07
1.09024e-07
1.08968e-07
1.08803e-07
1.08578e-07
1.0845e-07
1.08648e-07
1.08822e-07
1.0892e-07
1.08946e-07
1.08912e-07
1.08803e-07
1.08626e-07
1.0859e-07
1.08671e-07
1.08702e-07
1.08662e-07
1.08578e-07
1.05658e-07
1.05634e-07
1.05643e-07
1.05493e-07
1.05506e-07
1.05525e-07
1.05505e-07
1.05692e-07
1.05629e-07
1.05643e-07
1.05514e-07
1.0531e-07
1.05328e-07
1.05328e-07
1.0531e-07
1.05571e-07
1.05517e-07
1.05493e-07
1.0531e-07
1.05348e-07
1.05369e-07
1.05369e-07
1.05348e-07
1.0531e-07
1.05634e-07
1.0568e-07
1.05658e-07
1.05506e-07
1.05328e-07
1.05369e-07
1.05392e-07
1.05392e-07
1.05369e-07
1.05328e-07
1.05662e-07
1.05698e-07
1.05634e-07
1.05525e-07
1.05328e-07
1.05369e-07
1.05392e-07
1.05392e-07
1.05369e-07
1.05328e-07
1.05665e-07
1.05522e-07
1.05505e-07
1.0531e-07
1.05348e-07
1.05369e-07
1.05369e-07
1.05348e-07
1.0531e-07
1.05658e-07
1.05707e-07
1.05692e-07
1.05571e-07
1.0531e-07
1.05328e-07
1.05328e-07
1.0531e-07
1.05653e-07
1.05576e-07
1.0569e-07
1.05629e-07
1.05517e-07
1.05634e-07
1.05662e-07
1.05665e-07
1.05658e-07
1.05576e-07
1.05701e-07
1.0568e-07
1.05698e-07
1.05522e-07
1.05707e-07
1.0569e-07
1.03881e-07
1.03872e-07
1.03881e-07
1.0375e-07
1.03749e-07
1.0376e-07
1.03752e-07
1.03915e-07
1.03872e-07
1.03881e-07
1.03745e-07
1.03511e-07
1.03519e-07
1.03519e-07
1.03511e-07
1.03768e-07
1.03762e-07
1.0375e-07
1.03511e-07
1.03531e-07
1.03542e-07
1.03542e-07
1.03531e-07
1.03511e-07
1.03812e-07
1.03905e-07
1.03881e-07
1.03749e-07
1.03519e-07
1.03542e-07
1.03556e-07
1.03556e-07
1.03542e-07
1.03519e-07
1.03817e-07
1.03902e-07
1.03872e-07
1.0376e-07
1.03519e-07
1.03542e-07
1.03556e-07
1.03556e-07
1.03542e-07
1.03519e-07
1.03816e-07
1.03769e-07
1.03752e-07
1.03511e-07
1.03531e-07
1.03542e-07
1.03542e-07
1.03531e-07
1.03511e-07
1.0382e-07
1.0391e-07
1.03915e-07
1.03768e-07
1.03511e-07
1.03519e-07
1.03519e-07
1.03511e-07
1.03801e-07
1.03791e-07
1.03915e-07
1.03872e-07
1.03762e-07
1.03812e-07
1.03817e-07
1.03816e-07
1.0382e-07
1.03791e-07
1.03918e-07
1.03905e-07
1.03902e-07
1.03769e-07
1.0391e-07
1.03915e-07
1.0228e-07
1.02271e-07
1.0228e-07
1.02156e-07
1.02155e-07
1.02163e-07
1.02157e-07
1.02311e-07
1.02273e-07
1.0228e-07
1.02152e-07
1.01944e-07
1.01949e-07
1.01949e-07
1.01944e-07
1.02176e-07
1.0217e-07
1.02156e-07
1.01944e-07
1.01955e-07
1.01961e-07
1.01961e-07
1.01955e-07
1.01944e-07
1.02217e-07
1.02304e-07
1.0228e-07
1.02155e-07
1.01949e-07
1.01961e-07
1.01969e-07
1.01969e-07
1.01961e-07
1.01949e-07
1.02221e-07
1.02302e-07
1.02271e-07
1.02163e-07
1.01949e-07
1.01961e-07
1.01969e-07
1.01969e-07
1.01961e-07
1.01949e-07
1.0222e-07
1.02175e-07
1.02157e-07
1.01944e-07
1.01955e-07
1.01961e-07
1.01961e-07
1.01955e-07
1.01944e-07
1.02223e-07
1.02308e-07
1.02311e-07
1.02176e-07
1.01944e-07
1.01949e-07
1.01949e-07
1.01944e-07
1.02204e-07
1.02196e-07
1.02312e-07
1.02273e-07
1.0217e-07
1.02217e-07
1.02221e-07
1.0222e-07
1.02223e-07
1.02196e-07
1.02316e-07
1.02304e-07
1.02302e-07
1.02175e-07
1.02308e-07
1.02312e-07
1.00819e-07
1.0081e-07
1.00818e-07
1.007e-07
1.00698e-07
1.00705e-07
1.007e-07
1.00846e-07
1.00813e-07
1.00818e-07
1.00696e-07
1.00504e-07
1.00508e-07
1.00508e-07
1.00504e-07
1.00719e-07
1.00714e-07
1.007e-07
1.00504e-07
1.00512e-07
1.00515e-07
1.00515e-07
1.00512e-07
1.00504e-07
1.00758e-07
1.00841e-07
1.00819e-07
1.00698e-07
1.00508e-07
1.00515e-07
1.0052e-07
1.0052e-07
1.00515e-07
1.00508e-07
1.0076e-07
1.00839e-07
1.0081e-07
1.00705e-07
1.00508e-07
1.00515e-07
1.0052e-07
1.0052e-07
1.00515e-07
1.00508e-07
1.00758e-07
1.00719e-07
1.007e-07
1.00504e-07
1.00512e-07
1.00515e-07
1.00515e-07
1.00512e-07
1.00504e-07
1.00762e-07
1.00845e-07
1.00846e-07
1.00719e-07
1.00504e-07
1.00508e-07
1.00508e-07
1.00504e-07
1.00745e-07
1.00738e-07
1.00848e-07
1.00813e-07
1.00714e-07
1.00758e-07
1.0076e-07
1.00758e-07
1.00762e-07
1.00738e-07
1.00853e-07
1.00841e-07
1.00839e-07
1.00719e-07
1.00845e-07
1.00848e-07
9.94539e-08
9.94452e-08
9.94532e-08
9.93402e-08
9.93376e-08
9.93437e-08
9.93397e-08
9.94789e-08
9.94486e-08
9.94532e-08
9.93353e-08
9.91556e-08
9.91578e-08
9.91578e-08
9.91556e-08
9.93581e-08
9.93545e-08
9.93402e-08
9.91556e-08
9.91608e-08
9.91625e-08
9.91625e-08
9.91608e-08
9.91556e-08
9.93957e-08
9.94762e-08
9.94539e-08
9.93376e-08
9.91578e-08
9.91625e-08
9.9165e-08
9.9165e-08
9.91625e-08
9.91578e-08
9.9397e-08
9.94742e-08
9.94452e-08
9.93437e-08
9.91578e-08
9.91625e-08
9.9165e-08
9.9165e-08
9.91625e-08
9.91578e-08
9.93954e-08
9.93587e-08
9.93397e-08
9.91556e-08
9.91608e-08
9.91625e-08
9.91625e-08
9.91608e-08
9.91556e-08
9.93985e-08
9.94795e-08
9.94789e-08
9.93581e-08
9.91556e-08
9.91578e-08
9.91578e-08
9.91556e-08
9.93832e-08
9.9377e-08
9.94811e-08
9.94486e-08
9.93545e-08
9.93957e-08
9.9397e-08
9.93954e-08
9.93985e-08
9.9377e-08
9.94866e-08
9.94762e-08
9.94742e-08
9.93587e-08
9.94795e-08
9.94812e-08
9.81569e-08
9.81484e-08
9.81561e-08
9.80468e-08
9.80438e-08
9.80493e-08
9.80458e-08
9.81803e-08
9.81519e-08
9.81561e-08
9.80416e-08
9.78699e-08
9.78715e-08
9.78715e-08
9.78699e-08
9.8064e-08
9.8061e-08
9.80468e-08
9.78699e-08
9.78738e-08
9.78748e-08
9.78748e-08
9.78738e-08
9.78699e-08
9.81008e-08
9.81788e-08
9.81569e-08
9.80438e-08
9.78715e-08
9.78748e-08
9.78764e-08
9.78764e-08
9.78748e-08
9.78715e-08
9.81016e-08
9.81768e-08
9.81484e-08
9.80493e-08
9.78715e-08
9.78748e-08
9.78764e-08
9.78764e-08
9.78748e-08
9.78715e-08
9.80999e-08
9.8065e-08
9.80458e-08
9.78699e-08
9.78738e-08
9.78748e-08
9.78748e-08
9.78738e-08
9.78699e-08
9.81029e-08
9.81817e-08
9.81803e-08
9.8064e-08
9.78699e-08
9.78715e-08
9.78715e-08
9.78699e-08
9.80881e-08
9.80824e-08
9.81829e-08
9.81519e-08
9.8061e-08
9.81008e-08
9.81016e-08
9.80999e-08
9.81029e-08
9.80825e-08
9.81885e-08
9.81788e-08
9.81768e-08
9.8065e-08
9.81817e-08
9.81829e-08
9.69103e-08
9.6902e-08
9.69093e-08
9.68028e-08
9.67997e-08
9.68046e-08
9.68015e-08
9.69326e-08
9.69055e-08
9.69093e-08
9.67973e-08
9.66319e-08
9.66331e-08
9.66331e-08
9.66319e-08
9.68193e-08
9.6817e-08
9.68028e-08
9.66319e-08
9.6635e-08
9.66356e-08
9.66356e-08
9.6635e-08
9.66319e-08
9.68556e-08
9.69318e-08
9.69103e-08
9.67997e-08
9.66331e-08
9.66356e-08
9.66368e-08
9.66368e-08
9.66356e-08
9.66331e-08
9.68561e-08
9.69299e-08
9.6902e-08
9.68046e-08
9.66331e-08
9.66356e-08
9.66368e-08
9.66368e-08
9.66356e-08
9.66331e-08
9.68543e-08
9.68209e-08
9.68015e-08
9.66319e-08
9.6635e-08
9.66356e-08
9.66356e-08
9.6635e-08
9.66319e-08
9.68571e-08
9.69345e-08
9.69326e-08
9.68193e-08
9.66319e-08
9.66331e-08
9.66331e-08
9.66319e-08
9.68427e-08
9.68375e-08
9.69353e-08
9.69055e-08
9.6817e-08
9.68556e-08
9.68561e-08
9.68543e-08
9.68571e-08
9.68375e-08
9.6941e-08
9.69318e-08
9.69299e-08
9.68209e-08
9.69345e-08
9.69353e-08
9.57053e-08
9.5697e-08
9.57042e-08
9.56e-08
9.55965e-08
9.5601e-08
9.55982e-08
9.57266e-08
9.57008e-08
9.57042e-08
9.55941e-08
9.54342e-08
9.54351e-08
9.54351e-08
9.54342e-08
9.56158e-08
9.5614e-08
9.56e-08
9.54342e-08
9.54369e-08
9.54371e-08
9.54371e-08
9.54369e-08
9.54342e-08
9.56519e-08
9.57265e-08
9.57053e-08
9.55965e-08
9.54351e-08
9.54371e-08
9.54379e-08
9.54379e-08
9.54371e-08
9.54351e-08
9.5652e-08
9.57246e-08
9.5697e-08
9.5601e-08
9.54351e-08
9.54371e-08
9.54379e-08
9.54379e-08
9.54371e-08
9.54351e-08
9.56502e-08
9.56178e-08
9.55982e-08
9.54342e-08
9.54369e-08
9.54371e-08
9.54371e-08
9.54369e-08
9.54342e-08
9.56527e-08
9.57289e-08
9.57266e-08
9.56158e-08
9.54342e-08
9.54351e-08
9.54351e-08
9.54342e-08
9.56387e-08
9.56337e-08
9.57295e-08
9.57008e-08
9.5614e-08
9.56519e-08
9.5652e-08
9.56502e-08
9.56527e-08
9.56338e-08
9.57355e-08
9.57265e-08
9.57246e-08
9.56178e-08
9.57289e-08
9.57295e-08
9.45352e-08
9.4527e-08
9.45341e-08
9.44316e-08
9.44278e-08
9.4432e-08
9.44295e-08
9.45558e-08
9.4531e-08
9.45341e-08
9.44255e-08
9.42701e-08
9.42709e-08
9.42709e-08
9.42701e-08
9.44471e-08
9.44456e-08
9.44316e-08
9.42701e-08
9.42727e-08
9.42726e-08
9.42726e-08
9.42727e-08
9.42701e-08
9.4483e-08
9.45562e-08
9.45352e-08
9.44278e-08
9.42709e-08
9.42725e-08
9.42729e-08
9.42729e-08
9.42725e-08
9.42709e-08
9.44828e-08
9.45543e-08
9.4527e-08
9.4432e-08
9.42709e-08
9.42725e-08
9.42729e-08
9.42729e-08
9.42725e-08
9.42709e-08
9.4481e-08
9.44492e-08
9.44295e-08
9.42701e-08
9.42726e-08
9.42725e-08
9.42725e-08
9.42726e-08
9.42701e-08
9.44833e-08
9.45585e-08
9.45558e-08
9.44471e-08
9.42701e-08
9.42708e-08
9.42708e-08
9.42701e-08
9.44696e-08
9.44647e-08
9.45588e-08
9.4531e-08
9.44456e-08
9.4483e-08
9.44828e-08
9.4481e-08
9.44833e-08
9.44647e-08
9.4565e-08
9.45562e-08
9.45543e-08
9.44492e-08
9.45585e-08
9.45588e-08
9.33918e-08
9.33836e-08
9.33906e-08
9.32894e-08
9.32854e-08
9.32893e-08
9.3287e-08
9.3412e-08
9.33878e-08
9.33906e-08
9.32831e-08
9.31312e-08
9.31318e-08
9.31318e-08
9.31312e-08
9.33047e-08
9.33034e-08
9.32893e-08
9.31312e-08
9.31336e-08
9.31332e-08
9.31332e-08
9.31336e-08
9.31312e-08
9.33407e-08
9.34127e-08
9.33918e-08
9.32854e-08
9.31318e-08
9.31332e-08
9.31332e-08
9.31332e-08
9.31332e-08
9.31318e-08
9.33403e-08
9.34108e-08
9.33835e-08
9.32893e-08
9.31318e-08
9.31332e-08
9.31332e-08
9.31332e-08
9.31332e-08
9.31318e-08
9.33385e-08
9.33069e-08
9.3287e-08
9.31312e-08
9.31336e-08
9.31332e-08
9.31332e-08
9.31336e-08
9.31312e-08
9.33405e-08
9.34148e-08
9.34119e-08
9.33047e-08
9.31311e-08
9.31318e-08
9.31318e-08
9.31311e-08
9.33271e-08
9.3322e-08
9.3415e-08
9.33877e-08
9.33034e-08
9.33407e-08
9.33403e-08
9.33384e-08
9.33405e-08
9.3322e-08
9.34214e-08
9.34127e-08
9.34108e-08
9.33068e-08
9.34147e-08
9.3415e-08
9.2266e-08
9.22577e-08
9.22649e-08
9.21643e-08
9.21603e-08
9.2164e-08
9.21618e-08
9.2286e-08
9.22621e-08
9.22646e-08
9.21579e-08
9.20081e-08
9.20087e-08
9.20087e-08
9.20081e-08
9.21796e-08
9.21777e-08
9.21641e-08
9.20081e-08
9.20106e-08
9.20099e-08
9.20099e-08
9.20106e-08
9.20081e-08
9.22156e-08
9.22867e-08
9.22659e-08
9.21601e-08
9.20086e-08
9.20099e-08
9.20097e-08
9.20097e-08
9.20099e-08
9.20086e-08
9.22152e-08
9.22849e-08
9.22576e-08
9.21639e-08
9.20086e-08
9.20099e-08
9.20097e-08
9.20097e-08
9.20099e-08
9.20086e-08
9.22133e-08
9.21817e-08
9.21617e-08
9.20081e-08
9.20106e-08
9.20099e-08
9.20099e-08
9.20106e-08
9.20081e-08
9.22151e-08
9.22888e-08
9.22859e-08
9.21796e-08
9.2008e-08
9.20086e-08
9.20086e-08
9.2008e-08
9.22019e-08
9.21969e-08
9.22889e-08
9.22621e-08
9.21776e-08
9.22155e-08
9.22151e-08
9.22132e-08
9.2215e-08
9.21964e-08
9.22955e-08
9.22867e-08
9.22848e-08
9.21816e-08
9.22886e-08
9.22887e-08
9.115e-08
9.11417e-08
9.11489e-08
9.10487e-08
9.10446e-08
9.10482e-08
9.10461e-08
9.11698e-08
9.11462e-08
9.11486e-08
9.10422e-08
9.08936e-08
9.08941e-08
9.08941e-08
9.08936e-08
9.1064e-08
9.10621e-08
9.10485e-08
9.08936e-08
9.08962e-08
9.08953e-08
9.08953e-08
9.08962e-08
9.08936e-08
9.11001e-08
9.11707e-08
9.11499e-08
9.10445e-08
9.0894e-08
9.08953e-08
9.08949e-08
9.08949e-08
9.08953e-08
9.08941e-08
9.10997e-08
9.11689e-08
9.11416e-08
9.10481e-08
9.0894e-08
9.08953e-08
9.08949e-08
9.08949e-08
9.08953e-08
9.08941e-08
9.10977e-08
9.1066e-08
9.1046e-08
9.08936e-08
9.08962e-08
9.08952e-08
9.08952e-08
9.08962e-08
9.08936e-08
9.10995e-08
9.11727e-08
9.11697e-08
9.10639e-08
9.08935e-08
9.0894e-08
9.0894e-08
9.08935e-08
9.10863e-08
9.10812e-08
9.11728e-08
9.11461e-08
9.1062e-08
9.11e-08
9.10996e-08
9.10976e-08
9.10993e-08
9.10807e-08
9.11794e-08
9.11706e-08
9.11688e-08
9.10659e-08
9.11725e-08
9.11726e-08
9.00388e-08
9.00305e-08
9.00376e-08
8.99377e-08
8.99335e-08
8.99371e-08
8.99349e-08
9.00583e-08
9.00348e-08
9.00374e-08
8.99312e-08
8.97831e-08
8.97835e-08
8.97835e-08
8.9783e-08
8.99528e-08
8.99522e-08
8.99375e-08
8.9783e-08
8.97858e-08
8.97847e-08
8.97847e-08
8.97858e-08
8.97831e-08
8.99894e-08
9.00597e-08
9.00386e-08
8.99334e-08
8.97835e-08
8.97847e-08
8.97842e-08
8.97842e-08
8.97847e-08
8.97835e-08
8.99888e-08
9.00577e-08
9.00304e-08
8.9937e-08
8.97835e-08
8.97847e-08
8.97842e-08
8.97842e-08
8.97847e-08
8.97835e-08
8.99868e-08
8.9955e-08
8.99349e-08
8.9783e-08
8.97858e-08
8.97847e-08
8.97847e-08
8.97858e-08
8.9783e-08
8.99885e-08
9.00615e-08
9.00585e-08
8.99529e-08
8.9783e-08
8.97834e-08
8.97834e-08
8.9783e-08
8.99753e-08
8.99701e-08
9.00616e-08
9.00349e-08
8.9951e-08
8.99891e-08
8.99886e-08
8.99866e-08
8.99883e-08
8.99697e-08
9.00682e-08
9.00594e-08
9.00575e-08
8.99549e-08
9.00613e-08
9.00613e-08
8.89296e-08
8.89213e-08
8.89285e-08
8.88286e-08
8.88244e-08
8.8828e-08
8.88259e-08
8.89493e-08
8.89258e-08
8.89282e-08
8.8822e-08
8.86741e-08
8.86746e-08
8.86746e-08
8.86741e-08
8.88439e-08
8.8842e-08
8.88284e-08
8.86741e-08
8.86772e-08
8.86758e-08
8.86758e-08
8.86772e-08
8.86741e-08
8.88802e-08
8.89504e-08
8.89295e-08
8.88243e-08
8.86745e-08
8.86758e-08
8.86753e-08
8.86753e-08
8.86758e-08
8.86746e-08
8.88797e-08
8.89485e-08
8.89212e-08
8.88279e-08
8.86746e-08
8.86758e-08
8.86752e-08
8.86752e-08
8.86758e-08
8.86746e-08
8.88777e-08
8.88459e-08
8.88258e-08
8.86741e-08
8.86771e-08
8.86758e-08
8.86758e-08
8.86771e-08
8.86741e-08
8.88794e-08
8.89523e-08
8.89493e-08
8.88438e-08
8.8674e-08
8.86745e-08
8.86745e-08
8.8674e-08
8.88662e-08
8.8861e-08
8.89524e-08
8.89257e-08
8.8842e-08
8.88801e-08
8.88796e-08
8.88776e-08
8.88792e-08
8.88606e-08
8.89591e-08
8.89503e-08
8.89484e-08
8.88458e-08
8.89522e-08
8.89522e-08
8.78212e-08
8.7813e-08
8.78201e-08
8.77202e-08
8.77161e-08
8.77197e-08
8.77175e-08
8.7841e-08
8.78174e-08
8.78198e-08
8.77137e-08
8.75659e-08
8.75663e-08
8.75663e-08
8.75659e-08
8.77355e-08
8.77337e-08
8.772e-08
8.75658e-08
8.75687e-08
8.75676e-08
8.75676e-08
8.75687e-08
8.75659e-08
8.77718e-08
8.7842e-08
8.78211e-08
8.77159e-08
8.75663e-08
8.75675e-08
8.7567e-08
8.7567e-08
8.75676e-08
8.75663e-08
8.77713e-08
8.78401e-08
8.78128e-08
8.77196e-08
8.75663e-08
8.75675e-08
8.75669e-08
8.75669e-08
8.75676e-08
8.75663e-08
8.77693e-08
8.77376e-08
8.77174e-08
8.75659e-08
8.75687e-08
8.75675e-08
8.75675e-08
8.75687e-08
8.75659e-08
8.7771e-08
8.78439e-08
8.78409e-08
8.77355e-08
8.75658e-08
8.75663e-08
8.75663e-08
8.75658e-08
8.77579e-08
8.77527e-08
8.7844e-08
8.78174e-08
8.77336e-08
8.77717e-08
8.77713e-08
8.77693e-08
8.77709e-08
8.77523e-08
8.78507e-08
8.78419e-08
8.78401e-08
8.77375e-08
8.78438e-08
8.78438e-08
8.67131e-08
8.67048e-08
8.6712e-08
8.66121e-08
8.66079e-08
8.66115e-08
8.66093e-08
8.67326e-08
8.67092e-08
8.67117e-08
8.66056e-08
8.64578e-08
8.64582e-08
8.64582e-08
8.64578e-08
8.66273e-08
8.66267e-08
8.66119e-08
8.64578e-08
8.64606e-08
8.64595e-08
8.64595e-08
8.64606e-08
8.64579e-08
8.66639e-08
8.67341e-08
8.6713e-08
8.66078e-08
8.64582e-08
8.64595e-08
8.64589e-08
8.64589e-08
8.64595e-08
8.64583e-08
8.66633e-08
8.67321e-08
8.67047e-08
8.66114e-08
8.64582e-08
8.64595e-08
8.64589e-08
8.64589e-08
8.64595e-08
8.64583e-08
8.66613e-08
8.66295e-08
8.66092e-08
8.64578e-08
8.64606e-08
8.64595e-08
8.64595e-08
8.64606e-08
8.64578e-08
8.66629e-08
8.67358e-08
8.67326e-08
8.66273e-08
8.64578e-08
8.64582e-08
8.64583e-08
8.64579e-08
8.66498e-08
8.66442e-08
8.67358e-08
8.67091e-08
8.66266e-08
8.66639e-08
8.66633e-08
8.66613e-08
8.66629e-08
8.66447e-08
8.67426e-08
8.6734e-08
8.67321e-08
8.66295e-08
8.67359e-08
8.67359e-08
8.56051e-08
8.55968e-08
8.56039e-08
8.55041e-08
8.54999e-08
8.55035e-08
8.55013e-08
8.56246e-08
8.56012e-08
8.56037e-08
8.54976e-08
8.53499e-08
8.53503e-08
8.53502e-08
8.53498e-08
8.55193e-08
8.55187e-08
8.55039e-08
8.53498e-08
8.53526e-08
8.53515e-08
8.53515e-08
8.53526e-08
8.53499e-08
8.55559e-08
8.56261e-08
8.5605e-08
8.54998e-08
8.53502e-08
8.53515e-08
8.53509e-08
8.53509e-08
8.53515e-08
8.53503e-08
8.55554e-08
8.56242e-08
8.55967e-08
8.55034e-08
8.53502e-08
8.53515e-08
8.53509e-08
8.53509e-08
8.53515e-08
8.53503e-08
8.55533e-08
8.55216e-08
8.55012e-08
8.53498e-08
8.53526e-08
8.53515e-08
8.53515e-08
8.53526e-08
8.53499e-08
8.5555e-08
8.56279e-08
8.56246e-08
8.55193e-08
8.53498e-08
8.53502e-08
8.53502e-08
8.53498e-08
8.55418e-08
8.55366e-08
8.5628e-08
8.56011e-08
8.55186e-08
8.55559e-08
8.55553e-08
8.55532e-08
8.55548e-08
8.55362e-08
8.56346e-08
8.5626e-08
8.56241e-08
8.55215e-08
8.56278e-08
8.56278e-08
8.44971e-08
8.44888e-08
8.4496e-08
8.43962e-08
8.4392e-08
8.43955e-08
8.43934e-08
8.45167e-08
8.44932e-08
8.44957e-08
8.43896e-08
8.42419e-08
8.42423e-08
8.42423e-08
8.42419e-08
8.44113e-08
8.44107e-08
8.4396e-08
8.42419e-08
8.42447e-08
8.42436e-08
8.42436e-08
8.42447e-08
8.42419e-08
8.4448e-08
8.45181e-08
8.4497e-08
8.43919e-08
8.42423e-08
8.42435e-08
8.42429e-08
8.42429e-08
8.42436e-08
8.42423e-08
8.44474e-08
8.45162e-08
8.44888e-08
8.43955e-08
8.42423e-08
8.42435e-08
8.42429e-08
8.42429e-08
8.42436e-08
8.42423e-08
8.44453e-08
8.44136e-08
8.43934e-08
8.42419e-08
8.42446e-08
8.42435e-08
8.42435e-08
8.42446e-08
8.42419e-08
8.4447e-08
8.45199e-08
8.45168e-08
8.44114e-08
8.42418e-08
8.42422e-08
8.42422e-08
8.42418e-08
8.44338e-08
8.44287e-08
8.452e-08
8.44933e-08
8.44096e-08
8.44477e-08
8.44472e-08
8.44452e-08
8.44468e-08
8.44282e-08
8.45266e-08
8.45179e-08
8.4516e-08
8.44134e-08
8.45198e-08
8.45197e-08
8.33892e-08
8.33809e-08
8.3388e-08
8.32882e-08
8.3284e-08
8.32876e-08
8.32855e-08
8.34089e-08
8.33854e-08
8.33878e-08
8.32817e-08
8.3134e-08
8.31343e-08
8.31343e-08
8.3134e-08
8.33035e-08
8.33017e-08
8.3288e-08
8.31339e-08
8.31367e-08
8.31356e-08
8.31356e-08
8.31367e-08
8.31339e-08
8.33398e-08
8.341e-08
8.33891e-08
8.32839e-08
8.31343e-08
8.31356e-08
8.3135e-08
8.3135e-08
8.31356e-08
8.31343e-08
8.33394e-08
8.34081e-08
8.33808e-08
8.32875e-08
8.31343e-08
8.31356e-08
8.31349e-08
8.31349e-08
8.31356e-08
8.31343e-08
8.33373e-08
8.33056e-08
8.32854e-08
8.31339e-08
8.31367e-08
8.31356e-08
8.31356e-08
8.31367e-08
8.31339e-08
8.3339e-08
8.34119e-08
8.34089e-08
8.33034e-08
8.31339e-08
8.31343e-08
8.31343e-08
8.31339e-08
8.33258e-08
8.33207e-08
8.3412e-08
8.33853e-08
8.33016e-08
8.33397e-08
8.33393e-08
8.33372e-08
8.33388e-08
8.33202e-08
8.34187e-08
8.34099e-08
8.3408e-08
8.33054e-08
8.34118e-08
8.34118e-08
8.22812e-08
8.22729e-08
8.22801e-08
8.21802e-08
8.21761e-08
8.21796e-08
8.21774e-08
8.23007e-08
8.22773e-08
8.22798e-08
8.21737e-08
8.2026e-08
8.20264e-08
8.20264e-08
8.2026e-08
8.21954e-08
8.21948e-08
8.21801e-08
8.20259e-08
8.20287e-08
8.20276e-08
8.20276e-08
8.20288e-08
8.2026e-08
8.22321e-08
8.23022e-08
8.22811e-08
8.2176e-08
8.20263e-08
8.20276e-08
8.2027e-08
8.2027e-08
8.20277e-08
8.20264e-08
8.22315e-08
8.23003e-08
8.22729e-08
8.21796e-08
8.20263e-08
8.20276e-08
8.2027e-08
8.2027e-08
8.20276e-08
8.20264e-08
8.22294e-08
8.21977e-08
8.21775e-08
8.2026e-08
8.20287e-08
8.20276e-08
8.20276e-08
8.20287e-08
8.2026e-08
8.22311e-08
8.2304e-08
8.23009e-08
8.21955e-08
8.20259e-08
8.20263e-08
8.20263e-08
8.20259e-08
8.22179e-08
8.22127e-08
8.23041e-08
8.22774e-08
8.21936e-08
8.22317e-08
8.22313e-08
8.22293e-08
8.22309e-08
8.22123e-08
8.23107e-08
8.23019e-08
8.23e-08
8.21975e-08
8.23038e-08
8.23038e-08
8.11732e-08
8.11649e-08
8.11721e-08
8.10723e-08
8.10681e-08
8.10716e-08
8.10695e-08
8.11928e-08
8.11693e-08
8.11719e-08
8.10658e-08
8.0918e-08
8.09184e-08
8.09184e-08
8.0918e-08
8.10875e-08
8.10868e-08
8.10721e-08
8.0918e-08
8.09208e-08
8.09197e-08
8.09197e-08
8.09208e-08
8.09181e-08
8.11241e-08
8.11942e-08
8.11732e-08
8.1068e-08
8.09184e-08
8.09197e-08
8.0919e-08
8.0919e-08
8.09197e-08
8.09184e-08
8.11235e-08
8.11923e-08
8.11649e-08
8.10716e-08
8.09184e-08
8.09197e-08
8.0919e-08
8.0919e-08
8.09197e-08
8.09184e-08
8.11215e-08
8.10897e-08
8.10695e-08
8.0918e-08
8.09207e-08
8.09197e-08
8.09197e-08
8.09208e-08
8.0918e-08
8.11231e-08
8.11961e-08
8.11929e-08
8.10875e-08
8.09179e-08
8.09183e-08
8.09184e-08
8.0918e-08
8.11099e-08
8.11048e-08
8.11961e-08
8.11694e-08
8.10857e-08
8.11238e-08
8.11233e-08
8.11213e-08
8.11229e-08
8.11043e-08
8.12028e-08
8.1194e-08
8.11921e-08
8.10895e-08
8.11959e-08
8.11959e-08
8.00653e-08
8.0057e-08
8.00642e-08
7.99643e-08
7.99601e-08
7.99637e-08
7.99615e-08
8.00848e-08
8.00614e-08
8.00639e-08
7.99578e-08
7.98101e-08
7.98104e-08
7.98104e-08
7.981e-08
7.99795e-08
7.99789e-08
7.99642e-08
7.981e-08
7.98128e-08
7.98117e-08
7.98117e-08
7.98128e-08
7.98101e-08
8.00161e-08
8.00863e-08
8.00652e-08
7.99601e-08
7.98104e-08
7.98117e-08
7.98111e-08
7.98111e-08
7.98117e-08
7.98105e-08
8.00156e-08
8.00844e-08
8.0057e-08
7.99637e-08
7.98104e-08
7.98117e-08
7.98111e-08
7.98111e-08
7.98117e-08
7.98105e-08
8.00135e-08
7.99818e-08
7.99616e-08
7.98101e-08
7.98128e-08
7.98117e-08
7.98117e-08
7.98128e-08
7.98101e-08
8.00152e-08
8.00881e-08
8.0085e-08
7.99796e-08
7.981e-08
7.98104e-08
7.98104e-08
7.981e-08
8.0002e-08
7.99968e-08
8.00882e-08
8.00615e-08
7.99778e-08
8.00158e-08
8.00154e-08
8.00134e-08
8.0015e-08
7.99964e-08
8.00948e-08
8.0086e-08
8.00841e-08
7.99816e-08
8.00879e-08
8.00879e-08
7.89572e-08
7.8949e-08
7.89559e-08
7.88562e-08
7.88521e-08
7.88557e-08
7.88535e-08
7.89768e-08
7.89534e-08
7.89562e-08
7.88498e-08
7.87021e-08
7.87025e-08
7.87025e-08
7.87021e-08
7.88715e-08
7.88709e-08
7.88563e-08
7.87021e-08
7.87049e-08
7.87038e-08
7.87038e-08
7.87049e-08
7.87021e-08
7.89082e-08
7.89783e-08
7.89573e-08
7.88522e-08
7.87025e-08
7.87038e-08
7.87031e-08
7.87031e-08
7.87038e-08
7.87025e-08
7.89076e-08
7.89764e-08
7.8949e-08
7.88558e-08
7.87025e-08
7.87038e-08
7.87031e-08
7.87031e-08
7.87038e-08
7.87025e-08
7.89056e-08
7.88738e-08
7.88536e-08
7.87021e-08
7.87049e-08
7.87038e-08
7.87038e-08
7.87049e-08
7.87021e-08
7.89072e-08
7.89801e-08
7.8977e-08
7.88716e-08
7.87021e-08
7.87025e-08
7.87025e-08
7.87021e-08
7.8894e-08
7.88889e-08
7.89802e-08
7.89535e-08
7.88698e-08
7.89079e-08
7.89075e-08
7.89054e-08
7.8907e-08
7.88884e-08
7.89869e-08
7.89781e-08
7.89762e-08
7.88736e-08
7.898e-08
7.898e-08
7.78493e-08
7.78411e-08
7.78482e-08
7.77484e-08
7.77442e-08
7.77478e-08
7.77456e-08
7.78689e-08
7.78454e-08
7.7848e-08
7.77419e-08
7.75941e-08
7.75945e-08
7.75945e-08
7.75941e-08
7.77636e-08
7.7763e-08
7.77482e-08
7.75941e-08
7.75969e-08
7.75958e-08
7.75958e-08
7.75969e-08
7.75942e-08
7.78002e-08
7.78704e-08
7.78493e-08
7.77441e-08
7.75945e-08
7.75958e-08
7.75952e-08
7.75952e-08
7.75958e-08
7.75946e-08
7.77996e-08
7.78684e-08
7.7841e-08
7.77477e-08
7.75945e-08
7.75958e-08
7.75952e-08
7.75952e-08
7.75958e-08
7.75946e-08
7.77976e-08
7.77658e-08
7.77455e-08
7.75941e-08
7.75969e-08
7.75958e-08
7.75958e-08
7.75969e-08
7.75942e-08
7.77993e-08
7.78722e-08
7.78689e-08
7.77635e-08
7.75941e-08
7.75945e-08
7.75945e-08
7.75941e-08
7.77861e-08
7.77809e-08
7.78722e-08
7.78454e-08
7.77629e-08
7.78002e-08
7.77996e-08
7.77975e-08
7.77991e-08
7.77805e-08
7.78789e-08
7.78703e-08
7.78684e-08
7.77657e-08
7.78721e-08
7.7872e-08
7.67414e-08
7.67331e-08
7.67403e-08
7.66404e-08
7.66363e-08
7.66398e-08
7.66376e-08
7.67609e-08
7.67375e-08
7.674e-08
7.66339e-08
7.64862e-08
7.64866e-08
7.64866e-08
7.64862e-08
7.66556e-08
7.6655e-08
7.66402e-08
7.64861e-08
7.64889e-08
7.64879e-08
7.64879e-08
7.6489e-08
7.64862e-08
7.66922e-08
7.67624e-08
7.67413e-08
7.66361e-08
7.64865e-08
7.64878e-08
7.64872e-08
7.64872e-08
7.64879e-08
7.64866e-08
7.66916e-08
7.67604e-08
7.6733e-08
7.66397e-08
7.64865e-08
7.64878e-08
7.64872e-08
7.64872e-08
7.64879e-08
7.64866e-08
7.66896e-08
7.66578e-08
7.66376e-08
7.64861e-08
7.64889e-08
7.64879e-08
7.64879e-08
7.6489e-08
7.64862e-08
7.66912e-08
7.67641e-08
7.67609e-08
7.66556e-08
7.64862e-08
7.64866e-08
7.64866e-08
7.64862e-08
7.66781e-08
7.66725e-08
7.67641e-08
7.67374e-08
7.6655e-08
7.66922e-08
7.66917e-08
7.66896e-08
7.66913e-08
7.6673e-08
7.6771e-08
7.67624e-08
7.67604e-08
7.66578e-08
7.67642e-08
7.67643e-08
7.56335e-08
7.56252e-08
7.56323e-08
7.55325e-08
7.55283e-08
7.55319e-08
7.55298e-08
7.56532e-08
7.56297e-08
7.56321e-08
7.5526e-08
7.53783e-08
7.53787e-08
7.53786e-08
7.53783e-08
7.55478e-08
7.5546e-08
7.55323e-08
7.53782e-08
7.5381e-08
7.53799e-08
7.53799e-08
7.5381e-08
7.53782e-08
7.55841e-08
7.56542e-08
7.56334e-08
7.55282e-08
7.53786e-08
7.53799e-08
7.53793e-08
7.53793e-08
7.53799e-08
7.53786e-08
7.55836e-08
7.56524e-08
7.56251e-08
7.55319e-08
7.53786e-08
7.53799e-08
7.53793e-08
7.53793e-08
7.53799e-08
7.53786e-08
7.55816e-08
7.55498e-08
7.55297e-08
7.53782e-08
7.5381e-08
7.53799e-08
7.53799e-08
7.5381e-08
7.53782e-08
7.55832e-08
7.56561e-08
7.56532e-08
7.55478e-08
7.53782e-08
7.53786e-08
7.53786e-08
7.53782e-08
7.55701e-08
7.55645e-08
7.56561e-08
7.56297e-08
7.55459e-08
7.55841e-08
7.55836e-08
7.55816e-08
7.55833e-08
7.5565e-08
7.5663e-08
7.56542e-08
7.56524e-08
7.55498e-08
7.56562e-08
7.56563e-08
7.45255e-08
7.45173e-08
7.45244e-08
7.44246e-08
7.44204e-08
7.4424e-08
7.44218e-08
7.45453e-08
7.45218e-08
7.45241e-08
7.4418e-08
7.42703e-08
7.42707e-08
7.42707e-08
7.42703e-08
7.44398e-08
7.4438e-08
7.44244e-08
7.42702e-08
7.4273e-08
7.42719e-08
7.42719e-08
7.4273e-08
7.42703e-08
7.44761e-08
7.45463e-08
7.45254e-08
7.44203e-08
7.42706e-08
7.42719e-08
7.42713e-08
7.42713e-08
7.42719e-08
7.42707e-08
7.44757e-08
7.45444e-08
7.45172e-08
7.44239e-08
7.42707e-08
7.42719e-08
7.42713e-08
7.42713e-08
7.42719e-08
7.42707e-08
7.44737e-08
7.44419e-08
7.44218e-08
7.42703e-08
7.4273e-08
7.42719e-08
7.42719e-08
7.4273e-08
7.42703e-08
7.44753e-08
7.45482e-08
7.45452e-08
7.44398e-08
7.42702e-08
7.42706e-08
7.42706e-08
7.42702e-08
7.44622e-08
7.4457e-08
7.45483e-08
7.45217e-08
7.4438e-08
7.44761e-08
7.44756e-08
7.44736e-08
7.44752e-08
7.44566e-08
7.4555e-08
7.45463e-08
7.45444e-08
7.44418e-08
7.45481e-08
7.45481e-08
7.34175e-08
7.34092e-08
7.34164e-08
7.33166e-08
7.33124e-08
7.33159e-08
7.33137e-08
7.34371e-08
7.34136e-08
7.34162e-08
7.33101e-08
7.31623e-08
7.31627e-08
7.31627e-08
7.31623e-08
7.33317e-08
7.33311e-08
7.33164e-08
7.31623e-08
7.31651e-08
7.3164e-08
7.3164e-08
7.31651e-08
7.31623e-08
7.33684e-08
7.34385e-08
7.34175e-08
7.33123e-08
7.31627e-08
7.3164e-08
7.31633e-08
7.31633e-08
7.3164e-08
7.31627e-08
7.33678e-08
7.34366e-08
7.34092e-08
7.33159e-08
7.31627e-08
7.3164e-08
7.31633e-08
7.31633e-08
7.3164e-08
7.31627e-08
7.33657e-08
7.3334e-08
7.33138e-08
7.31623e-08
7.31651e-08
7.3164e-08
7.3164e-08
7.31651e-08
7.31623e-08
7.33674e-08
7.34403e-08
7.34372e-08
7.33318e-08
7.31623e-08
7.31627e-08
7.31627e-08
7.31623e-08
7.33542e-08
7.33491e-08
7.34404e-08
7.34138e-08
7.333e-08
7.33681e-08
7.33677e-08
7.33657e-08
7.33673e-08
7.33486e-08
7.34471e-08
7.34383e-08
7.34364e-08
7.33339e-08
7.34402e-08
7.34402e-08
7.23095e-08
7.23012e-08
7.23082e-08
7.22084e-08
7.22043e-08
7.22079e-08
7.22057e-08
7.23291e-08
7.23056e-08
7.23084e-08
7.22021e-08
7.20543e-08
7.20547e-08
7.20547e-08
7.20543e-08
7.22238e-08
7.22231e-08
7.22086e-08
7.20543e-08
7.20571e-08
7.2056e-08
7.2056e-08
7.20571e-08
7.20544e-08
7.22604e-08
7.23305e-08
7.23096e-08
7.22044e-08
7.20547e-08
7.2056e-08
7.20554e-08
7.20554e-08
7.2056e-08
7.20547e-08
7.22598e-08
7.23286e-08
7.23013e-08
7.2208e-08
7.20547e-08
7.2056e-08
7.20554e-08
7.20554e-08
7.2056e-08
7.20547e-08
7.22577e-08
7.2226e-08
7.22058e-08
7.20543e-08
7.20571e-08
7.2056e-08
7.2056e-08
7.20571e-08
7.20543e-08
7.22593e-08
7.23323e-08
7.23291e-08
7.22238e-08
7.20544e-08
7.20548e-08
7.20548e-08
7.20544e-08
7.22463e-08
7.22407e-08
7.23322e-08
7.23056e-08
7.22231e-08
7.22604e-08
7.22598e-08
7.22578e-08
7.22594e-08
7.22411e-08
7.23391e-08
7.23305e-08
7.23286e-08
7.2226e-08
7.23324e-08
7.23324e-08
7.12015e-08
7.11933e-08
7.12002e-08
7.11005e-08
7.10964e-08
7.11e-08
7.10978e-08
7.12211e-08
7.11976e-08
7.12005e-08
7.10941e-08
7.09464e-08
7.09468e-08
7.09468e-08
7.09464e-08
7.11158e-08
7.11152e-08
7.11006e-08
7.09464e-08
7.09491e-08
7.0948e-08
7.0948e-08
7.09491e-08
7.09464e-08
7.11524e-08
7.12226e-08
7.12016e-08
7.10964e-08
7.09468e-08
7.0948e-08
7.09474e-08
7.09474e-08
7.09481e-08
7.09468e-08
7.11518e-08
7.12206e-08
7.11933e-08
7.11e-08
7.09468e-08
7.09481e-08
7.09474e-08
7.09474e-08
7.09481e-08
7.09468e-08
7.11498e-08
7.1118e-08
7.10978e-08
7.09464e-08
7.09492e-08
7.09481e-08
7.09481e-08
7.09492e-08
7.09464e-08
7.11514e-08
7.12243e-08
7.12211e-08
7.11158e-08
7.09464e-08
7.09468e-08
7.09468e-08
7.09464e-08
7.11383e-08
7.11327e-08
7.12243e-08
7.11977e-08
7.11152e-08
7.11524e-08
7.11519e-08
7.11498e-08
7.11515e-08
7.11332e-08
7.12312e-08
7.12226e-08
7.12206e-08
7.1118e-08
7.12244e-08
7.12245e-08
7.00937e-08
7.00854e-08
7.00925e-08
6.99927e-08
6.99885e-08
6.99921e-08
6.999e-08
7.01134e-08
7.00899e-08
7.00923e-08
6.99862e-08
6.98384e-08
6.98388e-08
6.98388e-08
6.98384e-08
7.0008e-08
7.00062e-08
6.99925e-08
6.98384e-08
6.98412e-08
6.98401e-08
6.98401e-08
6.98412e-08
6.98384e-08
7.00443e-08
7.01145e-08
7.00936e-08
6.99884e-08
6.98388e-08
6.98401e-08
6.98395e-08
6.98395e-08
6.98401e-08
6.98388e-08
7.00438e-08
7.01126e-08
7.00853e-08
6.99921e-08
6.98388e-08
6.98401e-08
6.98394e-08
6.98395e-08
6.98401e-08
6.98388e-08
7.00418e-08
7.00101e-08
6.99899e-08
6.98384e-08
6.98412e-08
6.98401e-08
6.98401e-08
6.98412e-08
6.98384e-08
7.00435e-08
7.01164e-08
7.01134e-08
7.0008e-08
6.98384e-08
6.98388e-08
6.98388e-08
6.98384e-08
7.00303e-08
7.00252e-08
7.01165e-08
7.00899e-08
7.00061e-08
7.00442e-08