/*--------------------------------*- C++ -*----------------------------------*\
| =========                 |                                                 |
| \\      /  F ield         | OpenFOAM: The Open Source CFD Toolbox           |
|  \\    /   O peration     | Version:  2312                                  |
|   \\  /    A nd           | Website:  www.openfoam.com                      |
|    \\/     M anipulation  |                                                 |
\*---------------------------------------------------------------------------*/
FoamFile
{
    version     2.0;
    format      ascii;
    arch        "LSB;label=32;scalar=64";
    class       volScalarField;
    location    "1000";
    object      epsilon;
}
// * * * * * * * * * * * * * * * * * * * * * * * * * * * * * * * * * * * * * //

dimensions      [0 2 -3 0 0 0 0];

internalField   nonuniform List<scalar> 
172512
(
6.63558e-07
1.18844e-06
1.18854e-06
1.42059e-06
1.41842e-06
1.18795e-06
1.18785e-06
1.41835e-06
1.18777e-06
1.18794e-06
1.18785e-06
1.18798e-06
1.41846e-06
1.18794e-06
1.18783e-06
1.41847e-06
1.4205e-06
1.18854e-06
1.18844e-06
1.42048e-06
1.18836e-06
1.18853e-06
1.18857e-06
1.42059e-06
1.18841e-06
9.56632e-06
4.23894e-06
9.56756e-06
6.62215e-07
6.62224e-07
6.62338e-07
6.6232e-07
1.90948e-05
1.18668e-06
3.64745e-06
4.24111e-06
9.57247e-06
4.24063e-06
9.57722e-06
1.91047e-05
1.91147e-05
4.24118e-06
9.57404e-06
4.2407e-06
9.57841e-06
6.6356e-07
6.63682e-07
6.63652e-07
2.29664e-06
3.6493e-06
9.37691e-07
1.18897e-06
2.29655e-06
3.64956e-06
9.38497e-07
1.91061e-05
1.9116e-05
2.29666e-06
9.37791e-07
3.64929e-06
1.18907e-06
2.29658e-06
9.38578e-07
3.64956e-06
5.65372e-06
5.65548e-06
1.41958e-06
5.65464e-06
5.6564e-06
1.90912e-05
1.90944e-05
1.41722e-06
5.65057e-06
5.65236e-06
1.91019e-05
1.90918e-05
1.91051e-05
1.9095e-05
1.41932e-06
5.65261e-06
5.6544e-06
5.65167e-06
5.65342e-06
1.1867e-06
3.64725e-06
4.2395e-06
9.57185e-06
9.56698e-06
4.24002e-06
4.23944e-06
9.57203e-06
9.56719e-06
4.23997e-06
2.29595e-06
1.18735e-06
3.64835e-06
9.36821e-07
3.64802e-06
9.35956e-07
2.29608e-06
2.29589e-06
1.18716e-06
3.64874e-06
9.36761e-07
3.64845e-06
9.3588e-07
2.29602e-06
1.91042e-05
1.9094e-05
1.41932e-06
5.65408e-06
5.6529e-06
5.65323e-06
1.91031e-05
2.2955e-06
1.18651e-06
3.64781e-06
9.35003e-07
4.23887e-06
9.5671e-06
2.29544e-06
1.18668e-06
9.35042e-07
3.6477e-06
4.23956e-06
9.57305e-06
9.56852e-06
4.2401e-06
2.29595e-06
1.18717e-06
3.64891e-06
9.36798e-07
3.64856e-06
9.35932e-07
2.2961e-06
4.2395e-06
9.57263e-06
9.56818e-06
4.24003e-06
2.29589e-06
1.18734e-06
9.36838e-07
3.6488e-06
9.35969e-07
3.64847e-06
2.29604e-06
3.64855e-06
9.36849e-07
2.29612e-06
9.57259e-06
4.24017e-06
9.3687e-07
3.64844e-06
2.29609e-06
9.57234e-06
4.24006e-06
1.41723e-06
5.65216e-06
5.65073e-06
1.90923e-05
1.91055e-05
1.90955e-05
1.41941e-06
5.6542e-06
5.65276e-06
5.65323e-06
5.65179e-06
1.9103e-05
1.9093e-05
9.56707e-06
2.296e-06
1.18734e-06
9.3694e-07
3.64854e-06
9.36079e-07
3.6482e-06
2.29615e-06
2.29593e-06
1.18723e-06
9.36884e-07
3.64895e-06
9.36021e-07
3.64861e-06
2.29607e-06
4.23973e-06
9.57261e-06
9.56816e-06
4.24019e-06
4.23975e-06
9.57306e-06
9.56862e-06
4.24015e-06
1.4194e-06
5.65267e-06
5.65443e-06
5.65345e-06
1.9104e-05
1.91063e-05
1.90963e-05
1.91024e-05
1.91124e-05
1.91057e-05
1.91156e-05
5.65369e-06
5.65543e-06
1.41952e-06
5.65458e-06
5.65637e-06
1.91129e-05
1.91162e-05
1.42157e-06
5.65563e-06
5.65738e-06
4.24105e-06
9.57267e-06
4.24057e-06
9.57743e-06
2.29659e-06
3.6491e-06
9.37669e-07
1.18908e-06
2.2965e-06
3.64937e-06
9.38457e-07
2.29653e-06
3.64953e-06
9.37611e-07
1.18897e-06
2.29645e-06
3.64976e-06
9.38399e-07
4.24168e-06
9.57783e-06
4.24163e-06
9.57803e-06
2.29699e-06
1.1896e-06
3.65011e-06
9.3923e-07
2.29693e-06
1.1895e-06
3.65053e-06
9.39173e-07
5.65524e-06
5.65393e-06
1.41948e-06
5.65605e-06
5.6548e-06
1.91037e-05
1.91136e-05
1.91152e-05
1.42154e-06
5.65718e-06
5.65582e-06
1.91142e-05
2.29662e-06
3.64965e-06
9.37648e-07
1.18889e-06
2.29653e-06
3.64993e-06
9.38439e-07
4.24111e-06
9.57362e-06
4.24062e-06
9.57802e-06
2.29655e-06
9.37686e-07
3.64954e-06
1.18907e-06
2.29647e-06
9.38476e-07
3.64983e-06
4.24175e-06
9.5794e-06
2.29702e-06
1.18942e-06
3.65065e-06
9.39215e-07
4.24168e-06
9.579e-06
2.29696e-06
1.18959e-06
9.39252e-07
3.65055e-06
4.24125e-06
9.57323e-06
4.24084e-06
9.57798e-06
2.29661e-06
9.37717e-07
3.64919e-06
1.18911e-06
2.29652e-06
9.38509e-07
3.64947e-06
4.24114e-06
9.57332e-06
4.24066e-06
9.57772e-06
2.29704e-06
1.18949e-06
3.65029e-06
9.39252e-07
4.24189e-06
9.57858e-06
2.29701e-06
1.18963e-06
9.39283e-07
3.6502e-06
4.24172e-06
9.5787e-06
5.65524e-06
5.65383e-06
1.41958e-06
5.65616e-06
5.65473e-06
1.91036e-05
1.91136e-05
1.91166e-05
1.42165e-06
5.65718e-06
5.6558e-06
1.91141e-05
2.29659e-06
9.37733e-07
3.64969e-06
1.18894e-06
2.2965e-06
9.38519e-07
3.64997e-06
4.24127e-06
9.57356e-06
4.24085e-06
9.57814e-06
4.24123e-06
9.57405e-06
4.24088e-06
9.57845e-06
2.29706e-06
1.1896e-06
9.39353e-07
3.65029e-06
2.29699e-06
1.18947e-06
9.39292e-07
3.6507e-06
4.24191e-06
9.57876e-06
4.24194e-06
9.57943e-06
1.91046e-05
1.91145e-05
1.91069e-05
1.91168e-05
1.42165e-06
5.65568e-06
5.65742e-06
1.91151e-05
1.91174e-05
2.27633e-05
7.24529e-06
9.5641e-06
7.24551e-06
2.27701e-05
1.26554e-05
4.23897e-06
4.88464e-06
1.12478e-05
4.8847e-06
1.12449e-05
1.2659e-05
2.2763e-05
7.24531e-06
9.56578e-06
7.24553e-06
2.27698e-05
1.90901e-05
1.26699e-05
4.24116e-06
1.12609e-05
4.88717e-06
1.12581e-05
4.88728e-06
1.26734e-05
2.27886e-05
7.24913e-06
9.57456e-06
2.27819e-05
7.24889e-06
1.26698e-05
4.24058e-06
1.12549e-05
4.88666e-06
1.26663e-05
1.12576e-05
4.88656e-06
2.2788e-05
7.25006e-06
9.57517e-06
7.25031e-06
2.27947e-05
1.91095e-05
1.911e-05
1.267e-05
4.24123e-06
4.8872e-06
1.12611e-05
4.88728e-06
1.12583e-05
1.26735e-05
2.27883e-05
7.24915e-06
9.57575e-06
2.27816e-05
7.2489e-06
1.26698e-05
4.24065e-06
4.88666e-06
1.12551e-05
1.26664e-05
4.88658e-06
1.12578e-05
2.27877e-05
7.25007e-06
9.57671e-06
7.25032e-06
2.27944e-05
1.91108e-05
1.91114e-05
9.97155e-06
2.24192e-05
2.24185e-05
2.24132e-05
2.24125e-05
9.97117e-06
4.7058e-06
2.97599e-06
9.93695e-06
5.65365e-06
4.70619e-06
2.97579e-06
9.93933e-06
4.7116e-06
2.97717e-06
9.94174e-06
5.65542e-06
4.71197e-06
2.97697e-06
9.9441e-06
9.9695e-06
2.24076e-05
2.24069e-05
9.96986e-06
2.24137e-05
2.2413e-05
4.70678e-06
9.942e-06
5.65471e-06
2.97605e-06
2.97627e-06
9.93963e-06
4.70638e-06
4.71254e-06
9.94677e-06
5.65646e-06
2.97723e-06
2.97744e-06
9.94443e-06
4.71217e-06
1.90864e-05
1.90896e-05
9.96479e-06
2.23965e-05
2.23957e-05
2.23903e-05
2.23895e-05
9.96443e-06
4.70426e-06
9.93072e-06
5.65064e-06
2.97482e-06
9.92825e-06
4.70385e-06
2.97503e-06
4.71003e-06
9.93576e-06
5.65239e-06
2.97596e-06
9.93316e-06
4.70964e-06
2.97616e-06
1.90971e-05
1.90965e-05
1.91004e-05
1.90998e-05
9.96616e-06
2.23959e-05
2.23952e-05
9.96653e-06
2.24021e-05
2.24014e-05
4.70551e-06
2.97543e-06
5.65269e-06
9.93624e-06
9.93379e-06
2.97565e-06
4.70508e-06
4.71127e-06
2.97658e-06
5.65443e-06
9.9413e-06
9.93885e-06
2.97679e-06
4.71087e-06
4.70448e-06
9.93108e-06
2.97535e-06
5.6516e-06
4.70489e-06
9.93349e-06
2.97513e-06
4.71027e-06
9.93615e-06
2.97649e-06
5.65339e-06
4.71066e-06
9.93855e-06
2.97628e-06
9.96825e-06
2.24077e-05
2.2407e-05
2.24016e-05
2.24008e-05
9.96787e-06
1.26624e-05
1.12482e-05
4.88536e-06
4.23945e-06
1.26589e-05
1.1251e-05
4.88527e-06
2.27757e-05
9.56972e-06
7.2477e-06
2.27825e-05
7.24794e-06
2.27763e-05
7.24673e-06
9.56908e-06
2.27695e-05
7.2465e-06
1.26627e-05
4.24007e-06
1.12544e-05
4.88592e-06
1.26661e-05
1.12515e-05
4.88602e-06
1.26621e-05
1.12481e-05
4.88528e-06
4.2394e-06
1.26598e-05
1.12509e-05
4.88518e-06
2.27761e-05
9.56992e-06
7.24642e-06
7.24664e-06
2.27829e-05
2.27767e-05
7.24543e-06
9.56929e-06
2.27699e-05
7.24522e-06
1.26634e-05
4.24002e-06
1.12542e-05
4.88582e-06
1.12515e-05
4.88593e-06
1.26659e-05
1.90994e-05
1.90989e-05
4.7114e-06
2.97654e-06
5.65424e-06
9.94096e-06
2.97674e-06
9.93853e-06
4.71098e-06
4.7056e-06
2.97551e-06
5.65297e-06
9.93649e-06
9.93474e-06
2.97572e-06
4.70517e-06
2.97644e-06
5.65307e-06
2.97624e-06
9.96845e-06
2.24076e-05
2.24084e-05
2.24014e-05
2.24021e-05
9.96797e-06
1.90982e-05
1.26561e-05
4.23891e-06
1.12477e-05
4.88447e-06
1.12448e-05
4.88453e-06
1.26585e-05
2.27629e-05
7.24369e-06
9.56537e-06
7.2439e-06
2.27697e-05
1.26623e-05
4.88537e-06
1.12483e-05
4.23952e-06
1.26593e-05
4.88531e-06
1.12511e-05
2.27754e-05
9.5713e-06
7.24772e-06
2.27822e-05
7.24796e-06
2.2776e-05
7.24675e-06
9.57033e-06
2.27692e-05
7.24652e-06
1.26627e-05
4.24014e-06
4.88595e-06
1.12546e-05
1.26662e-05
4.88602e-06
1.12517e-05
1.26623e-05
1.12482e-05
4.8852e-06
4.23946e-06
1.266e-05
1.1251e-05
4.88513e-06
2.27754e-05
9.5709e-06
7.2461e-06
7.24633e-06
2.27821e-05
2.27759e-05
7.24512e-06
9.56991e-06
2.27692e-05
7.2449e-06
1.26636e-05
4.24007e-06
1.12544e-05
4.88578e-06
1.12516e-05
4.88586e-06
1.26659e-05
2.27742e-05
9.57043e-06
7.24735e-06
7.24778e-06
2.27812e-05
1.26624e-05
4.24029e-06
4.88592e-06
1.12543e-05
4.88616e-06
1.12515e-05
1.26657e-05
2.27753e-05
9.57061e-06
7.24591e-06
7.24615e-06
2.27821e-05
1.2663e-05
4.24011e-06
1.12542e-05
4.88576e-06
1.12514e-05
4.88583e-06
1.26661e-05
9.96431e-06
2.23955e-05
2.2396e-05
2.23894e-05
2.23898e-05
9.96393e-06
4.71003e-06
9.93502e-06
5.65219e-06
2.97597e-06
9.93325e-06
2.97613e-06
4.70967e-06
4.70409e-06
9.93029e-06
5.65077e-06
2.97485e-06
2.97503e-06
9.92854e-06
4.70375e-06
1.90876e-05
1.91008e-05
1.91002e-05
9.96566e-06
2.2395e-05
2.23955e-05
9.96604e-06
2.24012e-05
2.24016e-05
4.71127e-06
2.97659e-06
5.65424e-06
9.94056e-06
2.97676e-06
9.93881e-06
4.71089e-06
4.70534e-06
2.97546e-06
5.65281e-06
9.93584e-06
9.93409e-06
2.97566e-06
4.70497e-06
4.71029e-06
9.93613e-06
2.97646e-06
5.65319e-06
2.97629e-06
4.71066e-06
9.93784e-06
4.70437e-06
9.93139e-06
2.97535e-06
5.65174e-06
4.70473e-06
9.93312e-06
2.97517e-06
9.96776e-06
2.24068e-05
2.24072e-05
2.24007e-05
2.24011e-05
9.96737e-06
1.90983e-05
1.90977e-05
9.56534e-06
1.26624e-05
4.88538e-06
1.12481e-05
4.23962e-06
1.26588e-05
4.88533e-06
1.1251e-05
2.27747e-05
9.57087e-06
7.24735e-06
7.24757e-06
2.27815e-05
2.27753e-05
7.24637e-06
9.56988e-06
2.27685e-05
7.24615e-06
1.26626e-05
4.2403e-06
4.88597e-06
1.12543e-05
4.88603e-06
1.12515e-05
1.26659e-05
1.26626e-05
4.88536e-06
1.12479e-05
4.23958e-06
1.26593e-05
4.88521e-06
1.12508e-05
2.27763e-05
9.57133e-06
7.24637e-06
7.24663e-06
2.2783e-05
2.27769e-05
7.24542e-06
9.57034e-06
2.27701e-05
7.24518e-06
1.2663e-05
4.24033e-06
4.88585e-06
1.12541e-05
4.88601e-06
1.12513e-05
1.26662e-05
9.96608e-06
2.24026e-05
2.24019e-05
4.70559e-06
2.97551e-06
5.65272e-06
9.93664e-06
4.70521e-06
2.97571e-06
9.93418e-06
4.71138e-06
2.97669e-06
5.65447e-06
9.94141e-06
4.71102e-06
2.97688e-06
9.93898e-06
4.70459e-06
5.65163e-06
2.97519e-06
9.9338e-06
4.71041e-06
2.97658e-06
5.65342e-06
2.9764e-06
9.93862e-06
9.96816e-06
2.24082e-05
2.24075e-05
9.9678e-06
2.2402e-05
2.24014e-05
1.90993e-05
1.90987e-05
1.91016e-05
1.9101e-05
1.91072e-05
1.91077e-05
1.91104e-05
1.9111e-05
9.97163e-06
2.24188e-05
2.24181e-05
2.24127e-05
2.2412e-05
9.97124e-06
4.70567e-06
2.97593e-06
9.93658e-06
5.6536e-06
4.7061e-06
9.93899e-06
2.97571e-06
4.71145e-06
2.97708e-06
9.94165e-06
5.65539e-06
4.71187e-06
9.94405e-06
2.97686e-06
9.96956e-06
2.24072e-05
2.24064e-05
9.96995e-06
2.24133e-05
2.24125e-05
4.70668e-06
9.94167e-06
5.65467e-06
2.97597e-06
9.93928e-06
4.70623e-06
2.9762e-06
4.71244e-06
9.94674e-06
5.65641e-06
2.97712e-06
9.94435e-06
4.71202e-06
2.97734e-06
1.91176e-05
1.91208e-05
9.97289e-06
2.24182e-05
2.24175e-05
9.9733e-06
2.24243e-05
2.24235e-05
4.70678e-06
9.94196e-06
2.97644e-06
5.65554e-06
4.70724e-06
9.94433e-06
2.97621e-06
4.71257e-06
9.94703e-06
2.97759e-06
5.65732e-06
4.713e-06
9.9494e-06
2.97736e-06
1.26708e-05
4.24111e-06
1.12608e-05
4.88707e-06
1.12581e-05
4.88718e-06
1.26731e-05
2.2789e-05
7.24782e-06
9.57475e-06
2.27823e-05
7.24761e-06
1.26696e-05
4.24052e-06
1.12548e-05
4.88656e-06
1.12575e-05
1.26671e-05
4.88646e-06
2.27884e-05
7.24877e-06
9.57536e-06
7.249e-06
2.2795e-05
1.2677e-05
1.12615e-05
4.88788e-06
4.24162e-06
1.26735e-05
1.12642e-05
4.88777e-06
2.28007e-05
7.25147e-06
9.57987e-06
2.2794e-05
7.25121e-06
1.26767e-05
1.12614e-05
4.88778e-06
4.24157e-06
1.26743e-05
1.12641e-05
4.88767e-06
2.28011e-05
7.25016e-06
9.58007e-06
2.27944e-05
7.24993e-06
9.97165e-06
2.24184e-05
2.2419e-05
2.24123e-05
2.2413e-05
9.97124e-06
4.71156e-06
2.97703e-06
9.94131e-06
5.65508e-06
9.94369e-06
4.71193e-06
2.97682e-06
4.70572e-06
2.976e-06
9.93741e-06
5.65385e-06
2.97578e-06
4.70614e-06
9.93915e-06
9.9696e-06
2.24068e-05
2.24076e-05
2.24129e-05
9.97002e-06
2.24136e-05
4.71251e-06
9.94638e-06
5.65622e-06
2.97708e-06
9.94401e-06
2.9773e-06
4.71212e-06
4.70672e-06
9.94181e-06
5.65488e-06
2.97604e-06
2.97627e-06
9.94009e-06
4.70629e-06
1.91084e-05
1.9109e-05
1.91199e-05
9.97287e-06
2.24178e-05
2.24184e-05
9.97329e-06
2.24238e-05
2.24245e-05
4.71266e-06
9.94668e-06
2.97754e-06
5.65701e-06
2.97732e-06
4.71306e-06
9.94903e-06
4.70684e-06
9.94278e-06
2.97651e-06
5.65574e-06
4.70728e-06
9.94448e-06
2.97628e-06
1.91188e-05
1.26708e-05
4.24116e-06
1.1261e-05
4.88703e-06
1.12582e-05
4.88711e-06
1.26732e-05
2.27882e-05
7.24752e-06
9.57536e-06
2.27815e-05
7.24728e-06
1.26696e-05
4.24057e-06
1.12549e-05
4.88649e-06
1.12577e-05
1.26671e-05
4.88641e-06
2.27876e-05
7.24845e-06
9.57633e-06
7.2487e-06
2.27943e-05
1.2677e-05
4.88788e-06
1.12616e-05
4.24169e-06
1.26736e-05
4.88779e-06
1.12644e-05
2.28004e-05
7.25148e-06
9.58109e-06
2.27937e-05
7.25122e-06
1.26767e-05
1.12615e-05
4.88772e-06
4.24162e-06
1.26743e-05
1.12643e-05
4.88762e-06
2.28003e-05
7.24986e-06
9.58069e-06
2.27937e-05
7.24961e-06
1.26695e-05
4.24137e-06
4.88715e-06
1.12609e-05
4.88739e-06
1.12581e-05
1.2673e-05
2.27873e-05
7.24897e-06
9.57531e-06
7.24853e-06
2.27803e-05
1.26695e-05
4.24072e-06
4.88678e-06
1.12549e-05
4.88653e-06
1.26659e-05
1.12577e-05
2.27864e-05
7.24969e-06
9.57592e-06
7.25014e-06
2.27934e-05
1.26701e-05
4.2412e-06
1.12608e-05
4.887e-06
1.1258e-05
4.88708e-06
1.26735e-05
2.27882e-05
7.24734e-06
9.57506e-06
2.27815e-05
7.24709e-06
1.267e-05
4.24061e-06
1.12547e-05
4.88646e-06
1.26664e-05
1.12575e-05
4.88638e-06
2.27875e-05
7.24826e-06
9.57603e-06
7.24851e-06
2.27943e-05
1.26765e-05
4.888e-06
1.12614e-05
4.24176e-06
1.2673e-05
4.88775e-06
1.12642e-05
2.27994e-05
7.25129e-06
9.58063e-06
2.27924e-05
7.25084e-06
1.2677e-05
1.12613e-05
4.88768e-06
4.24166e-06
1.26736e-05
1.12641e-05
4.88759e-06
2.28003e-05
7.24967e-06
9.58038e-06
2.27936e-05
7.24941e-06
9.97114e-06
2.24178e-05
2.24183e-05
2.24118e-05
2.24122e-05
9.97073e-06
4.71148e-06
2.97705e-06
9.94154e-06
5.65519e-06
9.94332e-06
4.71187e-06
2.97687e-06
4.70556e-06
2.97596e-06
9.93687e-06
5.65374e-06
2.97574e-06
4.70595e-06
9.93865e-06
9.96906e-06
2.24062e-05
2.24067e-05
2.24123e-05
9.96946e-06
2.24127e-05
4.71244e-06
9.94599e-06
5.65622e-06
2.97713e-06
9.94426e-06
2.97731e-06
4.71204e-06
4.70653e-06
9.94132e-06
5.65483e-06
2.97601e-06
2.97622e-06
9.9396e-06
4.70613e-06
1.91083e-05
1.91089e-05
1.91212e-05
9.97239e-06
2.24173e-05
2.24177e-05
9.97281e-06
2.24233e-05
2.24237e-05
4.71259e-06
9.94696e-06
2.97756e-06
5.65712e-06
2.97738e-06
4.713e-06
9.94867e-06
4.70668e-06
9.94229e-06
2.97647e-06
5.6557e-06
4.70708e-06
9.944e-06
2.97625e-06
1.91188e-05
1.26698e-05
4.24139e-06
4.88721e-06
1.12609e-05
4.88728e-06
1.12581e-05
1.26733e-05
2.27876e-05
7.24876e-06
9.57539e-06
7.24853e-06
2.27809e-05
1.26697e-05
4.24074e-06
4.88666e-06
1.12548e-05
4.8866e-06
1.26662e-05
1.12576e-05
2.2787e-05
7.24969e-06
9.57609e-06
7.24993e-06
2.27937e-05
1.26701e-05
4.24142e-06
4.88709e-06
1.12607e-05
4.88726e-06
1.12579e-05
1.26736e-05
2.27892e-05
7.24782e-06
9.57579e-06
2.27824e-05
7.24756e-06
1.26701e-05
4.2407e-06
4.88664e-06
1.12546e-05
1.26665e-05
4.88648e-06
1.12575e-05
2.27885e-05
7.24873e-06
9.57676e-06
7.249e-06
2.27952e-05
1.26768e-05
4.88788e-06
1.12614e-05
4.24178e-06
1.26734e-05
4.88781e-06
1.12642e-05
2.27997e-05
7.25109e-06
9.58082e-06
2.2793e-05
7.25084e-06
1.26772e-05
4.88786e-06
1.12612e-05
4.24175e-06
1.26737e-05
4.88769e-06
1.1264e-05
2.28012e-05
7.25016e-06
9.58112e-06
2.27945e-05
7.24988e-06
1.91093e-05
1.91099e-05
1.91116e-05
1.91122e-05
9.97283e-06
2.24187e-05
2.2418e-05
9.97322e-06
2.24247e-05
2.2424e-05
4.70693e-06
9.94231e-06
2.97652e-06
5.6556e-06
4.70734e-06
2.97629e-06
9.94465e-06
4.71271e-06
9.9471e-06
2.97769e-06
5.65736e-06
4.7131e-06
2.97747e-06
9.94942e-06
1.91197e-05
1.9122e-05
6.59443e-07
4.50826e-07
4.5597e-07
4.55902e-07
6.64842e-07
4.57574e-07
4.57511e-07
2.50595e-07
2.48787e-07
2.82924e-06
1.96983e-06
1.97006e-06
1.41904e-06
2.82958e-06
1.96909e-06
1.96931e-06
2.82928e-06
1.41992e-06
1.96883e-06
1.96903e-06
1.96954e-06
1.96975e-06
2.82894e-06
2.82933e-06
1.41988e-06
1.96891e-06
1.96884e-06
1.96965e-06
1.96959e-06
2.82896e-06
2.82926e-06
1.42002e-06
1.96897e-06
1.96887e-06
1.96971e-06
1.96961e-06
2.82892e-06
2.82935e-06
1.42002e-06
1.96884e-06
1.96906e-06
2.82902e-06
1.96958e-06
1.96981e-06
2.82915e-06
1.96979e-06
1.97e-06
1.41898e-06
2.8295e-06
1.96907e-06
1.96927e-06
2.82919e-06
1.96991e-06
1.96985e-06
1.41893e-06
1.9691e-06
2.82954e-06
1.96917e-06
2.82914e-06
1.96996e-06
1.96986e-06
1.41903e-06
1.96911e-06
2.82948e-06
1.96921e-06
6.59556e-07
4.50958e-07
6.60857e-07
4.54308e-07
4.54238e-07
4.52633e-07
4.52558e-07
2.45106e-07
2.46948e-07
6.60861e-07
4.54299e-07
4.54281e-07
4.52624e-07
4.52601e-07
2.45115e-07
2.46957e-07
6.60977e-07
4.54378e-07
4.54368e-07
4.52695e-07
4.52695e-07
2.45181e-07
2.47023e-07
6.60961e-07
4.5441e-07
4.54349e-07
4.52719e-07
4.52679e-07
2.45195e-07
2.47036e-07
3.64764e-06
2.22353e-06
2.22405e-06
4.55959e-07
4.55938e-07
6.64836e-07
4.57564e-07
4.57549e-07
2.50605e-07
2.48796e-07
4.56042e-07
4.56029e-07
6.64968e-07
4.57651e-07
4.57637e-07
2.5067e-07
2.48862e-07
4.56064e-07
4.56011e-07
6.64938e-07
4.57676e-07
4.57615e-07
2.50682e-07
2.48874e-07
6.66113e-07
4.59169e-07
4.59108e-07
2.52401e-07
6.66106e-07
4.59158e-07
4.59136e-07
2.5241e-07
6.66236e-07
4.59247e-07
4.59229e-07
2.52475e-07
6.66209e-07
4.59266e-07
4.59212e-07
2.52487e-07
1.66731e-06
2.29681e-06
2.54199e-06
1.54518e-06
2.54218e-06
1.54602e-06
1.66604e-06
1.84503e-06
2.22474e-06
3.02424e-06
3.64907e-06
1.84609e-06
2.22416e-06
3.02384e-06
1.66577e-06
2.2964e-06
2.54196e-06
1.54567e-06
1.66701e-06
2.54175e-06
1.5448e-06
1.8464e-06
3.02415e-06
3.64981e-06
2.22433e-06
2.22492e-06
3.02456e-06
1.84533e-06
1.66748e-06
2.29683e-06
1.54521e-06
2.5421e-06
1.54605e-06
2.54226e-06
1.6662e-06
1.84508e-06
2.22475e-06
3.02425e-06
3.64906e-06
1.84611e-06
2.22418e-06
3.0239e-06
1.66593e-06
2.29642e-06
1.5457e-06
2.54202e-06
1.6672e-06
1.54485e-06
2.54183e-06
1.84644e-06
3.02422e-06
3.6498e-06
2.22435e-06
2.22493e-06
3.02457e-06
1.84539e-06
2.82979e-06
1.42113e-06
1.9693e-06
1.96953e-06
1.97006e-06
1.97028e-06
2.82943e-06
2.82877e-06
1.4187e-06
1.96827e-06
1.96847e-06
2.82844e-06
1.96898e-06
1.96919e-06
2.8287e-06
1.41783e-06
1.96927e-06
1.96948e-06
2.82903e-06
1.96856e-06
1.96876e-06
1.84571e-06
3.02277e-06
3.64745e-06
2.22345e-06
3.0232e-06
2.224e-06
1.84368e-06
1.66487e-06
2.54146e-06
1.54493e-06
2.29579e-06
1.66694e-06
2.54121e-06
1.54396e-06
1.84631e-06
2.22391e-06
3.64857e-06
3.02352e-06
2.22448e-06
3.02396e-06
1.84433e-06
1.84396e-06
3.02359e-06
2.22424e-06
3.64781e-06
2.22369e-06
1.84592e-06
3.02316e-06
1.66727e-06
2.29623e-06
2.54147e-06
1.54433e-06
2.54174e-06
1.54531e-06
1.66515e-06
1.66463e-06
2.54132e-06
1.54488e-06
2.29574e-06
1.667e-06
2.54108e-06
1.5439e-06
1.84609e-06
2.22412e-06
3.649e-06
3.02323e-06
3.02365e-06
2.22469e-06
1.84436e-06
1.84395e-06
3.02329e-06
2.22446e-06
3.64819e-06
1.84586e-06
3.02289e-06
2.2239e-06
1.66735e-06
2.29618e-06
2.54134e-06
1.54427e-06
2.5416e-06
1.54526e-06
1.66501e-06
1.41774e-06
1.96941e-06
1.96865e-06
1.66609e-06
2.29564e-06
2.54093e-06
1.54358e-06
2.54116e-06
1.54443e-06
1.66476e-06
1.84507e-06
3.02292e-06
3.64799e-06
2.22377e-06
3.02328e-06
2.22431e-06
1.84393e-06
1.66604e-06
2.29558e-06
1.54355e-06
2.54078e-06
1.5444e-06
2.541e-06
1.66469e-06
1.84487e-06
3.0225e-06
3.6479e-06
2.22371e-06
3.02285e-06
1.84386e-06
2.22423e-06
1.66513e-06
2.54145e-06
1.54485e-06
2.29581e-06
1.66645e-06
2.54122e-06
1.54399e-06
1.84577e-06
2.22423e-06
3.64911e-06
3.02365e-06
2.22478e-06
3.02402e-06
1.84468e-06
1.84434e-06
3.02365e-06
2.22456e-06
3.64837e-06
2.22401e-06
1.84538e-06
3.02328e-06
1.66674e-06
2.29625e-06
2.5415e-06
1.5444e-06
2.54173e-06
1.54527e-06
1.66549e-06
1.6651e-06
1.54482e-06
2.54129e-06
2.29575e-06
1.66632e-06
1.54395e-06
2.54108e-06
1.84561e-06
2.22418e-06
3.64901e-06
3.02324e-06
3.02358e-06
2.22472e-06
1.8446e-06
1.84424e-06
3.02322e-06
2.22449e-06
3.64826e-06
1.84523e-06
3.02287e-06
2.22395e-06
1.66659e-06
2.29619e-06
1.54436e-06
2.54134e-06
1.54523e-06
2.54156e-06
1.66542e-06
1.84574e-06
2.22397e-06
3.64877e-06
3.0235e-06
1.84472e-06
2.22452e-06
3.02389e-06
1.66673e-06
2.29628e-06
2.54147e-06
1.54442e-06
1.66549e-06
2.54169e-06
1.54528e-06
1.84567e-06
2.22392e-06
3.64866e-06
3.02313e-06
3.02352e-06
2.22446e-06
1.84458e-06
1.66667e-06
2.29624e-06
1.5444e-06
2.54136e-06
1.54527e-06
2.5416e-06
1.66543e-06
2.82875e-06
1.41878e-06
1.9684e-06
1.9683e-06
1.96904e-06
1.96914e-06
2.82842e-06
2.82868e-06
1.41786e-06
1.96943e-06
1.96933e-06
1.96869e-06
2.82901e-06
1.9686e-06
1.66523e-06
1.5449e-06
2.54149e-06
2.29586e-06
1.66654e-06
1.54405e-06
2.54126e-06
1.84585e-06
2.22399e-06
3.64876e-06
3.02357e-06
1.84479e-06
2.22454e-06
3.02391e-06
1.84443e-06
3.02354e-06
2.22431e-06
3.64801e-06
1.84546e-06
2.22377e-06
3.0232e-06
1.66684e-06
2.2963e-06
1.54446e-06
2.54154e-06
1.6656e-06
1.54532e-06
2.54176e-06
1.66507e-06
1.54485e-06
2.54133e-06
2.29578e-06
1.66638e-06
1.54399e-06
2.54108e-06
1.84572e-06
2.22427e-06
3.64916e-06
3.02333e-06
3.02369e-06
2.22482e-06
1.84467e-06
1.84431e-06
3.02333e-06
2.22459e-06
3.64841e-06
1.84534e-06
3.02295e-06
2.22405e-06
1.66667e-06
2.29623e-06
1.54439e-06
2.54136e-06
1.54526e-06
2.5416e-06
1.66544e-06
2.82879e-06
1.41786e-06
1.96953e-06
1.96856e-06
1.9688e-06
2.8297e-06
1.42104e-06
1.96929e-06
1.96949e-06
2.82935e-06
1.97002e-06
1.97023e-06
2.82953e-06
1.42003e-06
1.97022e-06
1.97044e-06
2.82989e-06
1.96949e-06
1.96969e-06
1.66788e-06
2.29676e-06
2.54196e-06
1.54504e-06
2.54234e-06
1.54603e-06
1.66564e-06
1.84453e-06
2.22468e-06
3.0243e-06
3.64887e-06
3.02386e-06
1.84669e-06
2.22411e-06
1.66536e-06
2.29634e-06
2.54202e-06
1.54569e-06
2.54171e-06
1.6676e-06
1.5447e-06
1.84709e-06
3.02418e-06
3.64962e-06
2.22428e-06
3.02463e-06
2.22487e-06
1.84497e-06
1.66771e-06
2.2967e-06
2.54181e-06
1.54498e-06
2.54217e-06
1.54598e-06
1.66555e-06
1.84465e-06
2.2249e-06
3.02399e-06
3.64926e-06
1.84632e-06
3.02358e-06
2.22432e-06
1.66531e-06
2.29629e-06
2.54185e-06
1.54563e-06
1.66747e-06
2.54159e-06
1.54465e-06
1.84666e-06
3.0239e-06
3.65004e-06
2.22449e-06
3.02432e-06
1.84494e-06
2.22509e-06
1.66581e-06
2.54255e-06
1.54636e-06
2.29681e-06
1.66807e-06
2.54212e-06
1.54533e-06
1.84522e-06
3.02493e-06
2.22503e-06
3.64985e-06
2.22443e-06
1.84725e-06
3.02447e-06
1.66573e-06
2.54238e-06
1.54631e-06
2.29676e-06
1.66796e-06
2.54199e-06
1.54527e-06
1.84519e-06
3.02463e-06
2.22525e-06
3.65024e-06
1.84703e-06
3.0242e-06
2.22464e-06
2.82975e-06
1.42102e-06
1.96939e-06
1.96932e-06
1.97007e-06
1.97014e-06
2.82938e-06
2.82956e-06
1.41999e-06
1.97035e-06
1.97027e-06
1.96958e-06
2.82994e-06
1.96951e-06
1.66736e-06
2.29679e-06
2.54206e-06
1.54515e-06
2.54223e-06
1.546e-06
1.66609e-06
1.845e-06
2.22499e-06
3.02436e-06
3.64943e-06
3.02398e-06
1.84612e-06
2.22443e-06
1.6658e-06
2.29637e-06
2.542e-06
1.54565e-06
2.5418e-06
1.66709e-06
1.54478e-06
1.84645e-06
3.02431e-06
3.65016e-06
2.2246e-06
3.02469e-06
2.22518e-06
1.84536e-06
1.66725e-06
2.29672e-06
1.54511e-06
2.54187e-06
1.54597e-06
2.54205e-06
1.666e-06
1.84492e-06
2.22492e-06
3.02392e-06
3.64932e-06
1.84593e-06
3.02358e-06
2.22437e-06
1.66572e-06
2.29631e-06
1.54561e-06
2.54182e-06
1.66698e-06
1.54475e-06
2.54161e-06
1.84625e-06
3.0239e-06
3.65006e-06
2.22454e-06
3.02425e-06
1.84522e-06
2.22511e-06
1.66628e-06
2.54243e-06
1.54633e-06
2.29685e-06
1.66761e-06
2.54225e-06
1.54549e-06
1.84564e-06
3.025e-06
2.22534e-06
3.65041e-06
2.22475e-06
1.84674e-06
3.02461e-06
1.6662e-06
1.54629e-06
2.54227e-06
2.29679e-06
1.66751e-06
1.54546e-06
2.54211e-06
1.84552e-06
3.02456e-06
2.22527e-06
3.65031e-06
1.84658e-06
3.02419e-06
2.2247e-06
1.66724e-06
2.29677e-06
1.54515e-06
2.5419e-06
1.546e-06
2.54209e-06
1.66596e-06
1.84489e-06
2.22468e-06
3.02386e-06
3.64897e-06
2.22412e-06
1.84598e-06
3.02347e-06
1.66569e-06
2.29636e-06
1.54565e-06
2.54185e-06
1.54478e-06
1.66695e-06
2.54164e-06
1.8463e-06
3.02379e-06
3.64971e-06
2.22429e-06
2.22487e-06
3.02419e-06
1.84523e-06
1.66625e-06
2.5424e-06
1.54634e-06
2.29687e-06
1.66756e-06
2.54221e-06
1.54552e-06
1.8456e-06
3.02486e-06
2.22508e-06
3.65003e-06
1.84669e-06
2.22448e-06
3.02445e-06
1.66619e-06
1.54633e-06
2.5423e-06
2.29684e-06
1.66749e-06
1.54549e-06
2.54212e-06
1.84551e-06
3.02449e-06
2.22503e-06
3.64995e-06
1.8466e-06
3.02409e-06
2.22444e-06
2.82969e-06
1.42113e-06
1.96944e-06
1.96933e-06
1.97009e-06
1.97019e-06
2.82934e-06
2.82952e-06
1.42009e-06
1.97039e-06
1.97029e-06
1.96964e-06
2.82988e-06
1.96954e-06
1.66728e-06
2.29676e-06
1.54514e-06
2.5419e-06
1.54599e-06
2.5421e-06
1.66602e-06
1.84496e-06
2.22503e-06
3.02403e-06
3.64947e-06
2.22446e-06
1.84598e-06
3.02366e-06
1.66574e-06
2.29634e-06
1.54564e-06
2.54186e-06
1.54477e-06
1.66701e-06
2.54164e-06
1.84629e-06
3.02398e-06
3.65021e-06
2.22463e-06
2.22521e-06
3.02436e-06
1.84526e-06
1.66637e-06
1.54637e-06
2.54245e-06
2.29689e-06
1.6677e-06
1.54555e-06
2.54228e-06
1.84567e-06
3.02487e-06
2.22509e-06
3.65005e-06
1.84674e-06
2.22451e-06
3.02452e-06
1.66622e-06
1.54631e-06
2.54232e-06
2.29682e-06
1.66754e-06
1.54548e-06
2.54213e-06
1.84555e-06
3.02466e-06
2.22537e-06
3.65046e-06
1.84662e-06
3.02428e-06
2.22478e-06
2.82961e-06
1.4201e-06
1.97026e-06
1.97049e-06
2.82997e-06
1.9695e-06
1.96973e-06
6.68522e-07
1.19043e-06
1.19054e-06
1.42261e-06
6.72915e-07
1.19193e-06
1.19204e-06
1.42422e-06
6.76758e-07
1.19295e-06
1.19307e-06
1.42555e-06
6.80073e-07
1.19353e-06
1.19365e-06
1.42624e-06
6.82881e-07
1.19367e-06
1.19379e-06
1.4267e-06
6.85205e-07
1.19343e-06
1.19355e-06
1.42681e-06
6.87068e-07
1.19281e-06
1.19293e-06
1.42657e-06
6.88493e-07
1.19182e-06
1.19194e-06
1.42601e-06
6.89501e-07
1.19049e-06
1.19062e-06
1.42513e-06
6.90113e-07
1.18885e-06
1.18897e-06
1.42397e-06
6.90358e-07
1.18692e-06
1.18704e-06
1.42253e-06
6.90276e-07
1.18473e-06
1.18485e-06
1.42085e-06
6.89898e-07
1.18229e-06
1.1824e-06
1.41905e-06
6.8923e-07
1.17962e-06
1.17973e-06
1.41685e-06
6.88299e-07
1.17676e-06
1.17685e-06
1.41447e-06
6.87124e-07
1.17372e-06
1.1738e-06
1.41193e-06
6.85734e-07
1.17053e-06
1.17059e-06
1.40923e-06
6.84155e-07
1.16719e-06
1.16728e-06
1.40637e-06
6.81243e-07
1.16248e-06
1.16258e-06
1.40282e-06
7.37739e-07
1.07607e-06
1.07614e-06
1.35246e-06
1.42052e-06
1.19007e-06
1.18997e-06
1.42048e-06
1.18989e-06
1.19007e-06
1.18996e-06
1.1901e-06
1.42058e-06
1.19007e-06
1.18994e-06
1.42059e-06
1.42253e-06
1.42221e-06
1.19054e-06
1.19043e-06
1.19169e-06
1.19159e-06
1.4225e-06
1.42217e-06
1.19036e-06
1.19053e-06
1.19151e-06
1.19169e-06
1.19057e-06
1.19158e-06
1.19172e-06
1.42261e-06
1.42227e-06
1.19041e-06
1.19169e-06
1.19156e-06
1.42228e-06
1.42414e-06
1.42358e-06
1.19204e-06
1.19194e-06
1.19284e-06
1.19273e-06
1.42411e-06
1.42355e-06
1.19186e-06
1.19204e-06
1.19266e-06
1.19284e-06
1.19207e-06
1.19272e-06
1.19286e-06
1.42422e-06
1.4235e-06
1.19191e-06
1.19283e-06
1.19271e-06
1.42351e-06
1.42536e-06
1.42452e-06
1.19307e-06
1.19297e-06
1.19353e-06
1.19342e-06
1.42532e-06
1.42448e-06
1.1929e-06
1.19307e-06
1.19335e-06
1.19353e-06
1.1931e-06
1.19341e-06
1.19355e-06
1.42555e-06
1.42459e-06
1.19294e-06
1.19353e-06
1.1934e-06
1.42459e-06
1.42618e-06
1.42503e-06
1.19365e-06
1.19354e-06
1.19379e-06
1.19368e-06
1.42615e-06
1.4247e-06
1.19348e-06
1.19365e-06
1.19362e-06
1.1938e-06
1.19367e-06
1.19367e-06
1.19381e-06
1.42625e-06
1.4251e-06
1.19352e-06
1.19379e-06
1.19366e-06
1.42509e-06
1.42665e-06
1.42517e-06
1.19379e-06
1.19368e-06
1.19363e-06
1.19352e-06
1.4269e-06
1.42485e-06
1.19362e-06
1.1938e-06
1.19345e-06
1.19363e-06
1.19381e-06
1.1935e-06
1.19365e-06
1.42672e-06
1.42524e-06
1.19366e-06
1.19362e-06
1.19349e-06
1.42524e-06
1.42675e-06
1.42497e-06
1.19355e-06
1.19344e-06
1.19307e-06
1.19296e-06
1.42698e-06
1.42466e-06
1.19338e-06
1.19356e-06
1.19289e-06
1.19307e-06
1.19358e-06
1.19294e-06
1.19309e-06
1.42682e-06
1.42504e-06
1.19342e-06
1.19306e-06
1.19294e-06
1.42504e-06
1.4265e-06
1.42444e-06
1.19293e-06
1.19282e-06
1.19214e-06
1.19203e-06
1.42675e-06
1.42413e-06
1.19276e-06
1.19294e-06
1.19197e-06
1.19215e-06
1.19295e-06
1.19202e-06
1.19216e-06
1.42658e-06
1.42452e-06
1.1928e-06
1.19214e-06
1.19201e-06
1.42452e-06
1.42594e-06
1.4236e-06
1.19194e-06
1.19184e-06
1.19087e-06
1.19076e-06
1.42618e-06
1.42329e-06
1.19177e-06
1.19196e-06
1.1907e-06
1.19089e-06
1.19197e-06
1.19075e-06
1.1909e-06
1.42601e-06
1.42349e-06
1.19182e-06
1.19087e-06
1.19075e-06
1.42368e-06
1.42506e-06
1.42247e-06
1.19062e-06
1.19051e-06
1.18928e-06
1.18918e-06
1.4253e-06
1.42215e-06
1.19045e-06
1.19063e-06
1.18912e-06
1.1893e-06
1.19064e-06
1.18917e-06
1.18931e-06
1.42544e-06
1.42226e-06
1.1905e-06
1.18928e-06
1.18916e-06
1.42255e-06
1.42389e-06
1.42107e-06
1.18897e-06
1.18887e-06
1.1874e-06
1.18729e-06
1.42413e-06
1.42076e-06
1.18881e-06
1.18899e-06
1.18723e-06
1.18742e-06
1.189e-06
1.18728e-06
1.18743e-06
1.42424e-06
1.42085e-06
1.18886e-06
1.1874e-06
1.18728e-06
1.42114e-06
1.42246e-06
1.41941e-06
1.18704e-06
1.18694e-06
1.18524e-06
1.18514e-06
1.4227e-06
1.41911e-06
1.18688e-06
1.18706e-06
1.18507e-06
1.18526e-06
1.18707e-06
1.18512e-06
1.18527e-06
1.42281e-06
1.4192e-06
1.18693e-06
1.18524e-06
1.18512e-06
1.41948e-06
1.42079e-06
1.41748e-06
1.18485e-06
1.18474e-06
1.18283e-06
1.18273e-06
1.421e-06
1.41729e-06
1.18468e-06
1.18486e-06
1.18266e-06
1.18285e-06
1.18488e-06
1.18271e-06
1.18286e-06
1.4211e-06
1.41743e-06
1.18473e-06
1.18282e-06
1.18271e-06
1.41748e-06
1.41893e-06
1.41524e-06
1.1824e-06
1.1823e-06
1.18019e-06