/*--------------------------------*- C++ -*----------------------------------*\
| =========                 |                                                 |
| \\      /  F ield         | OpenFOAM: The Open Source CFD Toolbox           |
|  \\    /   O peration     | Version:  2312                                  |
|   \\  /    A nd           | Website:  www.openfoam.com                      |
|    \\/     M anipulation  |                                                 |
\*---------------------------------------------------------------------------*/
FoamFile
{
    version     2.0;
    format      ascii;
    arch        "LSB;label=32;scalar=64";
    class       volScalarField;
    location    "450";
    object      epsilon;
}
// * * * * * * * * * * * * * * * * * * * * * * * * * * * * * * * * * * * * * //

dimensions      [0 2 -3 0 0 0 0];

internalField   nonuniform List<scalar> 
43008
(
1.40296e-07
2.15351e-07
1.36484e-07
2.21712e-07
2.21719e-07
3.34152e-07
3.14862e-07
3.29493e-07
2.15381e-07
2.15421e-07
2.19971e-07
2.20009e-07
3.29261e-07
2.15348e-07
2.15411e-07
2.19937e-07
2.19996e-07
2.19928e-07
2.19972e-07
3.14808e-07
3.29238e-07
2.15372e-07
2.19937e-07
2.1996e-07
3.2985e-07
3.34474e-07
2.21761e-07
2.21799e-07
3.34608e-07
2.2172e-07
2.21783e-07
2.21764e-07
3.34629e-07
2.21747e-07
3.46817e-06
8.88357e-06
3.42464e-06
8.88991e-06
1.85244e-05
3.46793e-06
8.88476e-06
3.42495e-06
8.89113e-06
1.403e-07
1.40302e-07
1.40302e-07
1.37361e-07
1.37365e-07
1.37367e-07
1.37367e-07
9.88468e-07
2.16739e-07
2.66257e-06
1.59066e-07
1.85352e-05
1.85258e-05
9.88461e-07
1.59535e-07
2.63167e-06
2.1675e-07
9.61018e-07
1.59077e-07
2.6627e-06
3.19808e-07
5.06086e-06
5.06267e-06
3.5849e-06
8.89704e-06
3.54901e-06
8.90299e-06
1.85004e-05
1.84918e-05
3.58551e-06
8.89831e-06
3.54953e-06
8.90428e-06
1.36488e-07
1.3649e-07
1.36491e-07
1.07304e-06
2.71931e-06
1.58252e-07
2.23643e-07
1.0445e-06
2.74788e-06
1.5811e-07
1.85016e-05
1.8493e-05
1.07228e-06
1.58272e-07
2.71945e-06
2.23656e-07
1.04473e-06
1.58125e-07
2.74555e-06
5.0935e-06
5.09522e-06
3.40095e-07
5.1067e-06
5.11084e-06
1.85318e-05
1.8522e-05
1.85347e-05
1.85252e-05
5.04353e-06
5.04404e-06
3.19403e-07
5.05936e-06
5.06294e-06
1.85053e-05
1.85143e-05
1.85084e-05
1.85174e-05
3.24085e-07
5.08463e-06
5.08807e-06
5.0703e-06
5.07107e-06
3.46864e-06
8.88354e-06
3.42422e-06
8.88991e-06
9.87899e-07
2.6318e-06
1.59521e-07
2.1678e-07
9.6143e-07
2.66253e-06
1.5907e-07
9.88325e-07
2.63217e-06
1.59527e-07
2.16818e-07
9.60935e-07
2.66307e-06
1.59073e-07
3.4894e-06
8.89653e-06
8.8905e-06
3.5296e-06
3.48907e-06
8.89666e-06
8.89051e-06
3.52979e-06
1.00289e-06
2.18306e-07
2.70599e-06
1.58434e-07
2.67696e-06
1.58732e-07
1.02976e-06
1.00247e-06
2.18346e-07
2.70666e-06
1.58434e-07
2.67751e-06
1.58735e-07
1.03038e-06
3.1954e-07
5.06244e-06
5.05943e-06
1.85231e-05
1.85079e-05
1.85168e-05
3.24184e-07
5.08783e-06
5.08469e-06
5.07081e-06
5.07056e-06
1.85062e-05
1.85154e-05
9.88692e-07
2.63227e-06
1.59525e-07
2.16747e-07
9.60929e-07
2.66315e-06
1.59066e-07
3.4683e-06
8.88426e-06
3.42447e-06
8.89063e-06
9.8878e-07
1.59528e-07
2.63223e-06
2.16807e-07
9.60894e-07
1.5907e-07
2.66329e-06
3.48987e-06
8.89782e-06
8.89168e-06
3.52919e-06
1.00231e-06
2.1827e-07
2.70672e-06
1.58433e-07
2.6775e-06
1.58732e-07
1.03067e-06
3.48942e-06
8.89734e-06
8.8912e-06
3.52983e-06
1.00218e-06
2.18333e-07
1.58432e-07
2.70675e-06
1.58734e-07
2.67743e-06
1.03062e-06
3.46766e-06
8.89036e-06
9.88015e-07
2.16783e-07
1.5907e-07
2.663e-06
3.46778e-06
8.89024e-06
1.00242e-06
2.18265e-07
2.70626e-06
1.58425e-07
2.67696e-06
1.58724e-07
1.03054e-06
3.48988e-06
8.89696e-06
8.8909e-06
3.52888e-06
1.00288e-06
2.18313e-07
1.58432e-07
2.70458e-06
1.58734e-07
2.67722e-06
1.02992e-06
3.48987e-06
8.89689e-06
8.89079e-06
3.52914e-06
5.04376e-06
5.04372e-06
3.19419e-07
5.06267e-06
5.05964e-06
1.85326e-05
1.85231e-05
1.85091e-05
1.85181e-05
3.242e-07
5.08785e-06
5.08492e-06
5.07075e-06
5.07057e-06
1.85064e-05
1.85155e-05
9.88615e-07
1.59538e-07
2.63227e-06
2.16771e-07
9.61082e-07
1.59079e-07
2.66342e-06
3.46881e-06
8.88416e-06
3.42437e-06
8.89053e-06
3.46874e-06
8.88448e-06
3.42429e-06
8.89087e-06
1.00264e-06
2.18273e-07
1.58441e-07
2.70629e-06
1.58742e-07
2.67702e-06
1.03066e-06
1.00254e-06
2.18294e-07
1.58444e-07
2.70694e-06
1.58744e-07
2.67749e-06
1.03065e-06
3.48922e-06
8.89721e-06
8.89107e-06
3.52991e-06
3.48922e-06
8.89756e-06
8.8914e-06
3.52986e-06
1.85241e-05
1.85261e-05
3.23834e-07
5.08623e-06
5.08807e-06
5.06923e-06
5.07103e-06
1.85073e-05
1.85164e-05
1.85094e-05
1.85184e-05
1.84979e-05
1.84893e-05
1.85009e-05
1.84922e-05
5.09469e-06
5.09547e-06
3.39723e-07
5.10694e-06
5.10855e-06
3.58513e-06
8.8972e-06
3.54891e-06
8.90308e-06
1.07219e-06
2.71989e-06
1.58262e-07
2.23692e-07
1.04506e-06
2.74563e-06
1.5812e-07
1.07275e-06
2.72042e-06
1.58266e-07
2.23731e-07
1.04452e-06
2.74623e-06
1.58119e-07
5.09517e-06
5.09502e-06
3.39607e-07
5.10828e-06
5.10895e-06
1.84987e-05
1.849e-05
1.07323e-06
2.72042e-06
1.58262e-07
2.23653e-07
1.04446e-06
2.74631e-06
1.58116e-07
3.58501e-06
8.89787e-06
3.54896e-06
8.90389e-06
1.07227e-06
1.58262e-07
2.71999e-06
2.23713e-07
1.0444e-06
1.58115e-07
2.74848e-06
3.58464e-06
8.89747e-06
3.54944e-06
8.90347e-06
1.07227e-06
1.58264e-07
2.72073e-06
2.23689e-07
1.04499e-06
1.58115e-07
2.74585e-06
3.5852e-06
8.89739e-06
3.54933e-06
8.90337e-06
5.09511e-06
5.09497e-06
3.39813e-07
5.11065e-06
5.10914e-06
1.8499e-05
1.84903e-05
1.07238e-06
1.58274e-07
2.72005e-06
2.23679e-07
1.04472e-06
1.58131e-07
2.7486e-06
3.58511e-06
8.89773e-06
3.54909e-06
8.90367e-06
3.58514e-06
8.89806e-06
3.54908e-06
8.90406e-06
1.84999e-05
1.84911e-05
1.85019e-05
1.84932e-05
1.21039e-05
3.45769e-06
1.06416e-05
4.33955e-06
1.06398e-05
4.33132e-06
1.21068e-05
2.25125e-05
7.18505e-06
8.88651e-06
2.25106e-05
7.18659e-06
1.21037e-05
3.43541e-06
1.06382e-05
4.30628e-06
1.21009e-05
1.06397e-05
4.31492e-06
2.25013e-05
7.19289e-06
8.88706e-06
7.19102e-06
2.25031e-05
1.8533e-05
1.85253e-05
1.21038e-05
3.45805e-06
4.33933e-06
1.06417e-05
4.33172e-06
1.06399e-05
1.21067e-05
2.2512e-05
7.18591e-06
8.88772e-06
2.25101e-05
7.18584e-06
1.21036e-05
3.43546e-06
4.30669e-06
1.06383e-05
1.21009e-05
4.31472e-06
1.06398e-05
2.25008e-05
7.19268e-06
8.88823e-06
7.19206e-06
2.25026e-05
1.85344e-05
1.85266e-05
9.71727e-06
2.19932e-05
2.19927e-05
2.19928e-05
2.19923e-05
9.71699e-06
3.8074e-06
5.04738e-06
1.74826e-06
8.97476e-06
3.81416e-06
5.04924e-06
1.74965e-06
8.97963e-06
9.71384e-06
2.20035e-05
2.2003e-05
3.82183e-06
8.9843e-06
5.05599e-06
1.77296e-06
1.76452e-06
8.97761e-06
3.82952e-06
3.82882e-06
8.98914e-06
5.0578e-06
1.77449e-06
1.76625e-06
8.98239e-06
3.83633e-06
1.21174e-05
3.57702e-06
1.06562e-05
4.42522e-06
1.06521e-05
4.41831e-06
1.21206e-05
2.24745e-05
7.20603e-06
8.89979e-06
2.24729e-05
7.20664e-06
1.21171e-05
3.55803e-06
1.06482e-05
4.39844e-06
1.21139e-05
1.06516e-05
4.40551e-06
2.24634e-05
7.20986e-06
8.90024e-06
7.2099e-06
2.24649e-05
1.84998e-05
1.84925e-05
1.21173e-05
3.57728e-06
4.4254e-06
1.06563e-05
4.41846e-06
1.06522e-05
1.21206e-05
2.24742e-05
7.20646e-06
8.90107e-06
2.24725e-05
7.20663e-06
1.2117e-05
3.55786e-06
4.39878e-06
1.06484e-05
1.21138e-05
4.40544e-06
1.06517e-05
2.24631e-05
7.21016e-06
8.90155e-06
7.21e-06
2.24646e-05
1.8501e-05
1.84936e-05
9.72662e-06
2.1952e-05
2.19515e-05
2.19517e-05
2.19513e-05
9.72549e-06
3.89201e-06
1.83699e-06
9.0048e-06
5.09758e-06
3.88579e-06
1.84446e-06
9.01097e-06
3.89773e-06
1.83853e-06
9.00967e-06
5.09958e-06
3.89295e-06
1.84638e-06
9.01587e-06
9.72393e-06
2.1962e-05
2.19615e-05
9.72482e-06
2.19623e-05
2.19618e-05
3.90423e-06
9.01927e-06
5.10556e-06
1.86733e-06
1.86054e-06
9.01326e-06
3.91199e-06
3.91228e-06
9.0242e-06
5.10661e-06
1.8688e-06
1.8619e-06
9.01812e-06
3.91661e-06
1.85308e-05
1.85229e-05
1.85339e-05
1.8526e-05
9.71752e-06
2.19932e-05
2.19927e-05
2.19928e-05
2.19923e-05
9.71723e-06
3.80701e-06
1.73972e-06
8.96741e-06
5.04582e-06
3.7989e-06
8.97447e-06
1.74777e-06
3.814e-06
1.74118e-06
8.97269e-06
5.04928e-06
3.80588e-06
8.97983e-06
1.74945e-06
9.71416e-06
2.20032e-05
2.20027e-05
9.71431e-06
2.20035e-05
2.2003e-05
3.8218e-06
8.98394e-06
5.05727e-06
1.77267e-06
8.97714e-06
3.82911e-06
1.76466e-06
3.82864e-06
8.98936e-06
5.05816e-06
1.77427e-06
8.9824e-06
3.83605e-06
1.76619e-06
1.8506e-05
1.85135e-05
1.85091e-05
1.85167e-05
9.7199e-06
2.19825e-05
2.1982e-05
9.72044e-06
2.19826e-05
2.19824e-05
3.86457e-06
1.82126e-06
5.08303e-06
9.00199e-06
8.99548e-06
1.81289e-06
3.87166e-06
3.87159e-06
1.82263e-06
5.0836e-06
9.00741e-06
9.00091e-06
1.81481e-06
3.87875e-06
3.85116e-06
8.98648e-06
1.78923e-06
5.07225e-06
3.84378e-06
8.99311e-06
1.79725e-06
3.85817e-06
8.99179e-06
1.79074e-06
5.07543e-06
3.85067e-06
8.99849e-06
1.79848e-06
9.7229e-06
2.19721e-05
2.1972e-05
2.19718e-05
2.19717e-05
9.7222e-06
1.21039e-05
3.45729e-06
1.06414e-05
4.33913e-06
1.06396e-05
4.33173e-06
1.21068e-05
2.25122e-05
7.18426e-06
8.88647e-06
2.25104e-05
7.18483e-06
1.21037e-05
3.43579e-06
1.06381e-05
4.30662e-06
1.06396e-05
1.2101e-05
4.31437e-06
2.25011e-05
7.19004e-06
8.8871e-06
7.18999e-06
2.25028e-05
1.21101e-05
1.06419e-05
4.355e-06
3.4994e-06
1.2107e-05
1.06442e-05
4.36272e-06
2.24825e-05
8.89373e-06
7.20263e-06
2.24841e-05
7.20207e-06
2.24937e-05
7.1969e-06
8.89324e-06
2.2492e-05
7.19811e-06
1.21104e-05
3.51987e-06
1.06476e-05
4.38493e-06
1.21135e-05
1.06448e-05
4.37736e-06
1.21101e-05
1.06418e-05
4.35533e-06
3.49958e-06
1.21071e-05
1.06441e-05
4.36236e-06
2.24821e-05
8.89386e-06
7.20071e-06
7.2007e-06
2.24836e-05
2.24934e-05
7.19581e-06
8.89334e-06
2.24917e-05
7.19603e-06
1.21104e-05
3.5197e-06
1.06474e-05
4.38425e-06
1.06447e-05
4.37769e-06
1.21135e-05
9.71759e-06
2.19929e-05
2.19932e-05
2.19925e-05
2.19928e-05
9.71725e-06
3.81277e-06
5.04894e-06
8.979e-06
1.75004e-06
3.8056e-06
5.04566e-06
1.74721e-06
8.97453e-06
9.71411e-06
2.20034e-05
2.20037e-05
3.82997e-06
8.98848e-06
5.05772e-06
1.77469e-06
8.98248e-06
1.76594e-06
3.83509e-06
3.82281e-06
8.98398e-06
5.05742e-06
1.77222e-06
1.76494e-06
8.97797e-06
3.82804e-06
1.85317e-05
1.85238e-05
1.85085e-05
1.85161e-05
9.71996e-06
2.19823e-05
2.19825e-05
9.72051e-06
2.19826e-05
2.19829e-05
3.87289e-06
1.82308e-06
5.08335e-06
9.00662e-06
1.81487e-06
9.00104e-06
3.87765e-06
3.86569e-06
1.82048e-06
5.08341e-06
9.00207e-06
8.99642e-06
1.81371e-06
3.87053e-06
3.85683e-06
8.9919e-06
1.79062e-06
5.07511e-06
1.79866e-06
3.85177e-06
8.9978e-06
3.84969e-06
8.98726e-06
1.78953e-06
5.07227e-06
3.84457e-06
8.99321e-06
1.79654e-06
9.72302e-06
2.19722e-05
2.19725e-05
2.1972e-05
2.19722e-05
9.72224e-06
1.85068e-05
1.85144e-05
1.21038e-05
3.45771e-06
1.06415e-05
4.33893e-06
1.06396e-05
4.33162e-06
1.21067e-05
2.25117e-05
7.183e-06
8.88721e-06
2.25098e-05
7.18454e-06
1.21036e-05
3.43559e-06
1.06381e-05
4.30659e-06
1.06396e-05
1.21008e-05
4.31444e-06
2.25005e-05
7.19084e-06
8.88775e-06
7.18891e-06
2.25023e-05
1.211e-05
4.35532e-06
1.0642e-05
3.49919e-06
1.2107e-05
4.36245e-06
1.06443e-05
2.2482e-05
8.89497e-06
7.20256e-06
2.24837e-05
7.20244e-06
2.24931e-05
7.1972e-06
8.89448e-06
2.24914e-05
7.19725e-06
1.21103e-05
3.52031e-06
4.38464e-06
1.06477e-05
1.21135e-05
4.37772e-06
1.06449e-05
1.21101e-05
1.06418e-05
4.35532e-06
3.49973e-06
1.2107e-05
1.06442e-05
4.36208e-06
2.24818e-05
8.89447e-06
7.20076e-06
7.19962e-06
2.24836e-05
2.24929e-05
7.19504e-06
8.89403e-06
2.24912e-05
7.19592e-06
1.21104e-05
3.51978e-06
1.06476e-05
4.38407e-06
1.06447e-05
4.37773e-06
1.21136e-05
1.21032e-05
3.45813e-06
4.33847e-06
1.06414e-05
4.33175e-06
1.06396e-05
1.2106e-05
2.2499e-05
7.1916e-06
8.88741e-06
7.19144e-06
2.25012e-05
1.21036e-05
3.45821e-06
1.06412e-05
4.33884e-06
1.06394e-05
4.33161e-06
1.21065e-05
2.25002e-05
7.19042e-06
8.88729e-06
7.18937e-06
2.2502e-05
1.21093e-05
4.35547e-06
1.06418e-05
3.49892e-06
1.21063e-05
4.36153e-06
1.0644e-05
2.24802e-05
8.89411e-06
7.20161e-06
7.2015e-06
2.24822e-05
2.24917e-05
7.1965e-06
8.89367e-06
2.24896e-05
7.19652e-06
1.21097e-05
3.52036e-06
4.38363e-06
1.06474e-05
4.3779e-06
1.06447e-05
1.21127e-05
1.21098e-05
1.06416e-05
4.3553e-06
3.49913e-06
1.21068e-05
1.06439e-05
4.36199e-06
2.24813e-05
8.89406e-06
7.20051e-06
7.19959e-06
2.2483e-05
2.24925e-05
7.19438e-06
8.8936e-06
2.24908e-05
7.19583e-06
1.21101e-05
3.52023e-06
1.06472e-05
4.38391e-06
1.06445e-05
4.37771e-06
1.21132e-05
9.71724e-06
2.19926e-05
2.19928e-05
2.19923e-05
2.19924e-05
9.71691e-06
3.81424e-06
1.74111e-06
8.97244e-06
5.04906e-06
8.9793e-06
3.80589e-06
1.7498e-06
3.80717e-06
1.7393e-06
8.96748e-06
5.04607e-06
1.74809e-06
3.79864e-06
8.97455e-06
9.71382e-06
2.20025e-05
2.20026e-05
2.20029e-05
9.71395e-06
2.20031e-05
3.82871e-06
8.98878e-06
5.05782e-06
1.77469e-06
8.98212e-06
1.76621e-06
3.83615e-06
3.82143e-06
8.98403e-06
5.05753e-06
1.77307e-06
1.76441e-06
8.97716e-06
3.82907e-06
1.85317e-05
1.8524e-05
1.85098e-05
1.85174e-05
9.71961e-06
2.1982e-05
2.19821e-05
9.72015e-06
2.19823e-05
2.19824e-05
3.87178e-06
1.82301e-06
5.08329e-06
9.00694e-06
1.81489e-06
9.00058e-06
3.87883e-06
3.86463e-06
1.82138e-06
5.08332e-06
9.00194e-06
8.99587e-06
1.81298e-06
3.87142e-06
3.85835e-06
8.99154e-06
1.79069e-06
5.07516e-06
1.79867e-06
3.85085e-06
8.998e-06
3.85117e-06
8.98661e-06
1.78891e-06
5.07253e-06
3.84361e-06
8.99318e-06
1.79708e-06
9.72264e-06
2.1972e-05
2.19721e-05
2.19717e-05
2.19718e-05
9.7219e-06
1.85072e-05
1.85147e-05
1.21034e-05
3.45745e-06
4.33951e-06
1.06416e-05
4.33128e-06
1.06398e-05
1.21063e-05
2.25108e-05
7.18412e-06
8.88711e-06
7.18607e-06
2.2509e-05
1.21032e-05
3.43589e-06
4.30619e-06
1.06383e-05
4.31486e-06
1.21005e-05
1.06397e-05
2.24997e-05
7.19183e-06
8.88764e-06
7.19077e-06
2.25014e-05
1.21041e-05
3.45749e-06
4.33902e-06
1.06417e-05
4.3317e-06
1.06399e-05
1.2107e-05
2.25122e-05
7.18279e-06
8.88745e-06
2.25105e-05
7.18499e-06
1.21039e-05
3.43593e-06
4.30663e-06
1.06384e-05
1.21012e-05
4.31434e-06
1.06398e-05
2.25011e-05
7.19072e-06
8.88799e-06
7.18936e-06
2.25028e-05
1.21096e-05
4.3549e-06
1.06419e-05
3.49962e-06
1.21066e-05
4.36252e-06
1.06442e-05
2.24809e-05
8.89436e-06
7.20205e-06
7.20111e-06
2.24825e-05
2.2492e-05
7.1958e-06
8.89391e-06
2.24903e-05
7.19732e-06
1.21099e-05
3.51989e-06
4.38464e-06
1.06476e-05
4.37734e-06
1.06448e-05
1.21131e-05
1.21103e-05
4.35528e-06
1.0642e-05
3.49959e-06
1.21073e-05
4.36229e-06
1.06443e-05
2.24823e-05
8.89471e-06
7.20074e-06
7.19991e-06
2.24839e-05
2.24934e-05
7.19509e-06
8.89423e-06
2.24917e-05
7.19606e-06
1.21106e-05
3.51989e-06
4.38414e-06
1.06476e-05
4.37767e-06
1.06449e-05
1.21137e-05
1.85327e-05
1.85249e-05
1.85347e-05
1.85269e-05
9.71968e-06
2.19825e-05
2.19821e-05
9.7202e-06
2.19829e-05
2.19824e-05
3.8658e-06
1.82145e-06
5.08182e-06
9.00237e-06
3.87082e-06
1.81353e-06
8.99602e-06
3.87266e-06
1.8231e-06
5.08358e-06
9.00725e-06
3.87782e-06
1.81507e-06
9.00087e-06
3.84962e-06
8.98699e-06
1.78921e-06
5.07336e-06
3.84416e-06
1.79696e-06
8.99344e-06
3.85659e-06
8.9918e-06
1.79085e-06
5.07523e-06
3.85112e-06
1.79859e-06
8.9983e-06
9.72269e-06
2.19726e-05
2.19721e-05
9.72199e-06
2.19722e-05
2.19718e-05
1.8508e-05
1.85156e-05
1.85101e-05
1.85177e-05
1.84973e-05
1.849e-05
1.85002e-05
1.84928e-05
9.72681e-06
2.19517e-05
2.19517e-05
2.19513e-05
2.19513e-05
9.72571e-06
3.89219e-06
1.83662e-06
9.00433e-06
5.09608e-06
3.88482e-06
9.01057e-06
1.84461e-06
3.89923e-06
1.83843e-06
9.00974e-06
5.09928e-06
3.89185e-06
9.016e-06
1.84604e-06
9.72413e-06
2.19615e-05
2.19614e-05
9.72505e-06
2.19618e-05
2.19617e-05
3.9036e-06
9.0189e-06
5.10607e-06
1.86792e-06
9.01281e-06
3.91171e-06
1.85971e-06
3.91067e-06
9.02432e-06
5.10738e-06
1.86958e-06
9.01822e-06
3.91875e-06
1.86155e-06
1.21174e-05
3.57687e-06
1.06556e-05
4.42438e-06
1.06524e-05
4.41889e-06
1.21206e-05
2.24741e-05
7.20481e-06
8.89991e-06
2.24725e-05
7.20501e-06
1.21171e-05
3.55782e-06
1.06482e-05
4.39885e-06
1.06513e-05
1.21139e-05
4.40487e-06
2.2463e-05
7.20854e-06
8.90038e-06
7.20839e-06
2.24645e-05
9.72685e-06
2.19515e-05
2.1952e-05
2.19512e-05
2.19517e-05
9.72572e-06
3.89752e-06
1.83859e-06
9.00961e-06
5.09898e-06
9.01504e-06
3.89279e-06
1.84554e-06
3.89166e-06
1.83735e-06
9.00512e-06
5.09623e-06
1.84388e-06
3.88534e-06
9.01064e-06
9.72416e-06
2.19615e-05
2.19619e-05
2.19617e-05
9.72507e-06
2.19623e-05
3.91246e-06
9.02326e-06
5.10712e-06
1.86897e-06
9.01815e-06
1.86212e-06
3.91619e-06
3.90398e-06
9.01886e-06
5.10592e-06
1.86694e-06
1.86051e-06
9.01364e-06
3.91172e-06
1.8498e-05
1.84906e-05
1.21175e-05
3.57685e-06
1.06562e-05
4.42428e-06
1.06521e-05
4.41883e-06
1.21207e-05
2.24741e-05
7.2042e-06
8.90065e-06
2.24724e-05
7.20476e-06
1.21171e-05
3.55814e-06
1.06482e-05
4.39888e-06
1.06516e-05
1.21139e-05
4.40485e-06
2.2463e-05
7.20814e-06
8.90107e-06
7.20789e-06
2.24646e-05
1.21167e-05
3.57741e-06
4.42404e-06
1.06554e-05
4.41889e-06
1.06524e-05
1.21198e-05
2.24727e-05
7.20563e-06
8.90024e-06
7.20576e-06
2.24707e-05
1.21162e-05
3.55754e-06
4.39898e-06
1.06483e-05
4.40453e-06
1.21131e-05
1.06512e-05
2.24613e-05
7.20917e-06
8.90067e-06
7.20924e-06
2.24631e-05
1.21171e-05
3.57703e-06
1.06553e-05
4.42458e-06
1.06523e-05
4.41859e-06
1.21203e-05
2.24734e-05
7.20397e-06
8.90016e-06
2.24718e-05
7.20438e-06
1.21167e-05
3.5579e-06
1.06481e-05
4.39883e-06
1.21136e-05
1.06511e-05
4.40479e-06
2.24623e-05
7.20781e-06
8.90059e-06
7.20753e-06
2.24639e-05
9.72652e-06
2.19514e-05
2.19515e-05
2.19512e-05
2.19513e-05
9.7254e-06
3.89931e-06
1.83858e-06
9.0094e-06
5.09927e-06
9.01554e-06
3.89207e-06
1.84597e-06
3.89021e-06
1.83671e-06
9.00479e-06
5.09649e-06
1.84458e-06
3.88532e-06
9.0104e-06
9.72381e-06
2.19614e-05
2.19615e-05
2.19617e-05
9.72476e-06
2.19618e-05
3.91089e-06
9.02387e-06
5.10638e-06
1.86893e-06
9.01788e-06
1.8621e-06
3.91888e-06
3.90507e-06
9.0186e-06
5.10586e-06
1.8678e-06
1.85991e-06
9.01331e-06
3.90925e-06
1.84983e-05
1.84909e-05
1.21169e-05
3.57697e-06
4.42497e-06
1.06557e-05
4.41824e-06
1.06526e-05
1.21201e-05
2.2473e-05
7.2054e-06
8.90049e-06
7.20604e-06
2.24714e-05
1.21166e-05
3.55794e-06
4.39848e-06
1.06484e-05
4.40528e-06
1.21134e-05
1.06514e-05
2.24619e-05
7.20947e-06
8.90095e-06
7.20918e-06
2.24635e-05
1.21176e-05
3.57695e-06
4.42448e-06
1.06557e-05
4.41861e-06
1.06527e-05
1.21208e-05
2.24744e-05
7.2042e-06
8.90084e-06
2.24729e-05
7.20472e-06
1.21173e-05
3.55787e-06
4.39877e-06
1.06485e-05
1.21141e-05
4.40495e-06
1.06515e-05
2.24634e-05
7.20812e-06
8.90127e-06
7.20799e-06
2.24649e-05
1.84992e-05
1.84918e-05
1.85012e-05
1.84939e-05
1.27761e-07
1.27759e-07
1.39265e-07
1.26355e-07
1.26352e-07
1.21063e-07
1.22601e-07
1.55028e-06
3.15001e-07
6.55455e-07
6.55764e-07
1.22375e-07
1.22372e-07
1.35665e-07
1.21124e-07
1.21121e-07
1.15232e-07
1.16643e-07
1.64829e-06
7.07262e-07
7.0766e-07
3.34969e-07
1.64148e-06
7.12057e-07
7.11846e-07
1.54985e-06
6.51051e-07
6.5109e-07
3.14928e-07
1.5411e-06
6.55474e-07
6.55638e-07
1.61668e-06
3.29365e-07
6.97707e-07
6.9792e-07
6.92827e-07
6.93197e-07
1.62453e-06
1.54875e-06
3.14867e-07
6.54609e-07
6.54632e-07
1.61725e-06
3.29362e-07
6.97175e-07
6.96946e-07
6.93986e-07
6.93577e-07
1.62361e-06
1.54982e-06
6.5214e-07
6.50852e-07
3.14805e-07
6.55317e-07
1.54134e-06
6.54755e-07
1.6167e-06
3.29393e-07
6.98173e-07
6.97872e-07
6.93356e-07
6.92731e-07
1.62463e-06
1.61725e-06
3.29099e-07
6.9771e-07
6.98095e-07
1.62395e-06
6.93116e-07
6.93405e-07
1.64926e-06
7.07183e-07
7.07736e-07
3.34475e-07
1.64089e-06
7.11972e-07
7.10981e-07
1.64806e-06
7.0827e-07
7.07948e-07
3.34457e-07
7.11336e-07
1.64116e-06
7.11714e-07
1.64947e-06
7.07572e-07
7.07144e-07
3.34486e-07
7.1231e-07
1.64084e-06
7.12431e-07
1.27762e-07
1.27759e-07
1.3927e-07
1.26356e-07
1.26354e-07
1.21063e-07
1.22601e-07
1.27763e-07
1.27762e-07
1.39272e-07
1.26357e-07
1.26356e-07
1.21064e-07
1.22602e-07
1.27763e-07
1.27763e-07
1.39272e-07
1.26357e-07
1.26356e-07
1.21064e-07
1.22602e-07
1.38284e-07
1.23663e-07
1.2366e-07
1.2499e-07
1.24987e-07
1.19558e-07
1.18085e-07
1.38289e-07
1.23664e-07
1.23661e-07
1.24991e-07
1.24988e-07
1.19558e-07
1.18085e-07
1.38291e-07
1.23665e-07
1.23664e-07
1.24992e-07
1.24991e-07
1.19559e-07
1.18086e-07
1.38291e-07
1.23665e-07
1.23664e-07
1.24993e-07
1.24992e-07
1.19559e-07
1.18086e-07
4.12283e-07
9.81679e-07
1.29417e-06
3.38915e-07
1.28789e-06
3.37259e-07
4.13944e-07
5.76349e-07
1.92452e-06
2.6548e-06
8.89039e-07
8.82929e-07
1.91887e-06
5.7941e-07
4.11935e-07
9.81895e-07
3.38971e-07
1.29497e-06
3.37323e-07
1.28729e-06
4.14158e-07
5.69626e-07
8.66347e-07
1.89354e-06
2.6401e-06
5.66489e-07
8.72663e-07
1.90218e-06
4.0704e-07
9.67824e-07
3.32114e-07
1.26398e-06
4.05048e-07
3.33642e-07
1.27171e-06
5.76441e-07
1.92591e-06
2.65494e-06
8.8902e-07
8.83027e-07
1.91784e-06
5.79305e-07
1.56678e-06
3.1892e-07
6.69018e-07
6.69408e-07
6.64724e-07
6.64946e-07
1.57521e-06
1.22376e-07
1.22372e-07
1.3567e-07
1.21125e-07
1.21123e-07
1.15233e-07
1.16643e-07
1.22377e-07
1.22376e-07
1.35671e-07
1.21126e-07
1.21125e-07
1.15234e-07
1.16644e-07
1.22378e-07
1.22377e-07
1.35672e-07
1.21127e-07
1.21125e-07
1.15234e-07
1.16645e-07
4.42769e-07
1.06553e-06
1.38611e-06
3.62219e-07
1.3796e-06
3.59973e-07
4.44409e-07
6.11822e-07
9.32376e-07
1.98834e-06
2.72705e-06
6.08422e-07
9.37993e-07
1.99367e-06
4.36723e-07
1.05162e-06
1.3569e-06
3.53872e-07
4.34504e-07
1.36308e-06
3.5574e-07
6.19966e-07
2.01617e-06
2.73988e-06
9.54804e-07
9.49326e-07
2.01057e-06
6.22465e-07
4.42903e-07
1.06613e-06
3.61226e-07
1.38758e-06
3.60587e-07
1.37898e-06
4.44459e-07
6.10303e-07
9.32089e-07
1.98691e-06
2.72648e-06
6.09237e-07
9.38675e-07
1.99534e-06
4.36736e-07
1.0515e-06
3.54294e-07
1.35648e-06
4.34637e-07
3.55109e-07
1.36414e-06
6.199e-07
2.01809e-06
2.74092e-06
9.55764e-07
9.49154e-07
2.00975e-06
6.22986e-07
1.66536e-06
3.39611e-07
7.27242e-07
7.25837e-07
7.21825e-07
7.22741e-07
1.67185e-06
1.5666e-06
3.1932e-07
6.69325e-07
6.69404e-07
1.57439e-06
6.64895e-07
6.65131e-07
1.59982e-06
3.24124e-07
6.78783e-07
6.79026e-07
1.592e-06
6.83012e-07
6.83084e-07
4.12731e-07
9.82112e-07
1.29423e-06
3.38288e-07
1.28774e-06
3.37769e-07
4.13176e-07
5.68263e-07
8.66453e-07
1.89397e-06
2.63989e-06
1.90163e-06
5.6744e-07
8.72678e-07
4.06324e-07
9.6717e-07
1.26444e-06
3.32529e-07
1.27089e-06
4.0616e-07
3.33055e-07
5.77438e-07
1.9257e-06
2.65492e-06
8.8902e-07
1.91823e-06
8.83139e-07
5.78294e-07
4.12087e-07
9.81704e-07
1.29476e-06
3.3826e-07
1.2871e-06
3.37727e-07
4.13894e-07
5.69649e-07
8.66917e-07
1.89362e-06
2.64056e-06
5.66541e-07
1.90149e-06
8.73015e-07
4.06662e-07
9.67672e-07
1.26388e-06
3.32492e-07
4.0541e-07
1.27158e-06
3.33067e-07
5.76488e-07
1.92523e-06
2.65549e-06
8.89423e-07
1.91796e-06
5.79371e-07
8.83482e-07
4.20364e-07
1.31094e-06
3.43033e-07
1.00878e-06
4.2036e-07
1.31718e-06
3.4357e-07
5.98375e-07
9.21999e-07
2.69852e-06
1.97087e-06
9.15761e-07
1.96499e-06
5.99456e-07
5.88585e-07
1.94182e-06
8.99312e-07
2.68393e-06
9.04755e-07
5.87732e-07
1.94872e-06
4.27641e-07
1.02394e-06
1.34018e-06
3.49264e-07
1.33414e-06
3.48674e-07
4.27884e-07
4.21427e-07
1.31031e-06
3.42985e-07
1.00926e-06
4.19186e-07
1.31759e-06
3.43556e-07
5.97428e-07
9.22488e-07
2.69909e-06
1.97205e-06
1.96476e-06
9.16235e-07
6.00656e-07
5.90132e-07
1.94148e-06
8.99729e-07
2.68444e-06
5.86911e-07
1.94848e-06
9.05116e-07
4.26673e-07
1.02341e-06
1.34092e-06
3.49239e-07
1.33353e-06
3.48597e-07
4.28876e-07
1.56761e-06
3.19314e-07
6.68444e-07
6.6848e-07
6.65513e-07
6.65578e-07
1.57384e-06
1.59885e-06
3.24312e-07
6.7972e-07
6.79437e-07
6.82627e-07
1.59253e-06
6.8252e-07
4.11601e-07
9.81502e-07
1.29464e-06
3.3893e-07
1.2876e-06
3.37267e-07
4.13797e-07
5.68266e-07
8.66758e-07
1.89443e-06
2.64056e-06
1.90153e-06
5.67501e-07
8.72817e-07
4.06536e-07
9.67887e-07
1.26444e-06
3.3209e-07
1.27134e-06
4.05329e-07
3.33646e-07
5.77523e-07
1.92539e-06
2.65543e-06
8.89168e-07
1.91848e-06
8.83464e-07
5.78285e-07
4.12806e-07
9.813e-07
3.38868e-07
1.29456e-06
3.37208e-07
1.28719e-06
4.12957e-07
5.68149e-07
8.67238e-07
1.89319e-06
2.64062e-06
5.67293e-07
1.90161e-06
8.72537e-07
4.0586e-07
9.67868e-07
3.32093e-07
1.26387e-06
4.05598e-07
3.33527e-07
1.27128e-06
5.77316e-07
1.92536e-06
2.65542e-06
8.88919e-07
1.91777e-06
5.78184e-07
8.83751e-07
4.20818e-07
1.31064e-06
3.42512e-07
1.00946e-06
4.19455e-07
1.31764e-06
3.44129e-07
5.98447e-07
9.22348e-07
2.69903e-06
1.97229e-06
9.16273e-07
1.96504e-06
5.99369e-07
5.88595e-07
1.9421e-06
8.99643e-07
2.68457e-06
9.04872e-07
5.87816e-07
1.949e-06
4.26961e-07
1.02329e-06
1.34105e-06
3.4992e-07
1.33372e-06
3.4812e-07
4.27627e-07
4.20302e-07
3.42448e-07
1.31024e-06
1.00945e-06
4.20112e-07
3.44084e-07
1.31759e-06
5.98261e-07
9.22105e-07
2.69886e-06
1.97201e-06
1.96454e-06
9.16451e-07
5.9921e-07
5.88486e-07
1.94113e-06
9.00035e-07
2.68473e-06
5.87605e-07
1.94828e-06
9.05112e-07
4.27549e-07
1.02321e-06
3.49859e-07
1.34063e-06
3.48067e-07
1.33336e-06
4.27808e-07
4.11922e-07
9.82116e-07
3.38883e-07
1.2951e-06
3.37191e-07
1.28689e-06
4.14176e-07
5.76491e-07
1.9256e-06
2.6549e-06
8.88671e-07
8.83449e-07
1.91762e-06
5.79348e-07
4.21481e-07
1.31085e-06
3.42494e-07
1.00911e-06
4.19229e-07
1.31735e-06
3.44067e-07
5.97467e-07
9.2181e-07
2.69853e-06
1.97122e-06
6.00507e-07
9.1587e-07
1.96541e-06
5.90148e-07
1.94221e-06
8.99354e-07
2.68382e-06
5.86972e-07
9.04597e-07
1.9481e-06
4.26732e-07
1.02349e-06
1.34016e-06
3.4992e-07
4.28817e-07
1.33378e-06
3.481e-07
4.21389e-07
3.42521e-07
1.31013e-06
1.00886e-06
4.19281e-07
3.44141e-07
1.31791e-06
5.97496e-07
9.21564e-07
2.69926e-06
1.97234e-06
1.96428e-06
9.16413e-07
6.00397e-07
5.90208e-07
1.94115e-06
8.99692e-07
2.68393e-06
5.87059e-07
1.94842e-06
9.04515e-07
4.26594e-07
1.02387e-06
3.49915e-07
1.34118e-06
3.48106e-07
1.33325e-06
4.2887e-07
1.56665e-06
3.1941e-07
6.69624e-07
6.69233e-07
6.64903e-07
6.65395e-07
1.57424e-06
1.59998e-06
3.24213e-07
6.79098e-07
6.78807e-07
6.83249e-07
1.5922e-06
6.83124e-07
4.12511e-07
9.81828e-07
3.38265e-07
1.29433e-06
3.37765e-07
1.28789e-06
4.1267e-07
5.68227e-07
8.66874e-07
1.89357e-06
2.64074e-06
8.73063e-07
5.67385e-07
1.90155e-06
4.05901e-07
9.67889e-07
3.32412e-07
1.2646e-06
3.33016e-07
4.05179e-07
1.27093e-06
5.77409e-07
1.92534e-06
2.65549e-06
8.89582e-07
8.83465e-07
1.91791e-06
5.78281e-07
4.21601e-07
3.42555e-07
1.31042e-06
1.00915e-06
4.19409e-07
3.44118e-07
1.31765e-06
5.97938e-07
9.22283e-07
2.69852e-06
1.97308e-06
5.99242e-07
9.15735e-07
1.96436e-06
5.88755e-07
1.94136e-06
8.99259e-07
2.68409e-06
5.87116e-07
9.04637e-07
1.94888e-06
4.26883e-07
1.02373e-06
3.49228e-07
1.34124e-06
4.28923e-07
3.48296e-07
1.33366e-06
4.20319e-07
3.43027e-07
1.31094e-06
1.00936e-06
4.20095e-07
3.43603e-07
1.3175e-06
5.98344e-07
9.22296e-07
2.69894e-06
1.97228e-06
1.96453e-06
9.16153e-07
5.99442e-07
5.88573e-07
1.94141e-06
8.9968e-07
2.6848e-06
5.877e-07
1.94853e-06
9.05236e-07
4.27568e-07
1.02358e-06
3.49289e-07
1.34031e-06
3.48663e-07
1.33414e-06
4.27841e-07
1.59901e-06
3.24609e-07
6.78873e-07
6.79109e-07
1.59207e-06
6.82819e-07
6.83062e-07
1.66444e-06
3.40065e-07
7.27091e-07
7.2606e-07
1.67222e-06
7.21594e-07
7.22668e-07
4.44005e-07
1.06632e-06
1.38682e-06
3.61294e-07
1.37965e-06
3.60588e-07
4.43542e-07
6.11412e-07
9.32544e-07
1.98825e-06
2.72492e-06
1.99378e-06
6.08912e-07
9.37787e-07
4.3554e-07
1.05096e-06
1.35704e-06
3.54488e-07
1.36351e-06
4.35306e-07
3.55152e-07
6.19444e-07
2.01603e-06
2.74119e-06
9.54167e-07
2.01089e-06
9.49535e-07
6.23193e-07
4.42118e-07
1.06574e-06
1.38592e-06
3.61241e-07
1.37939e-06
3.60546e-07
4.44796e-07
6.11825e-07
9.32961e-07
1.98765e-06
2.72551e-06
6.0857e-07
1.9938e-06
9.38413e-07
4.36659e-07
1.05134e-06
1.35656e-06
3.54444e-07
4.34464e-07
1.36335e-06
3.55126e-07
6.20042e-07
2.01622e-06
2.74178e-06
9.54995e-07
2.01036e-06
6.22571e-07
9.4986e-07
1.66522e-06
3.40216e-07
7.26103e-07
7.25865e-07
7.22469e-07
7.22794e-07
1.67161e-06
4.43783e-07
1.06544e-06
1.38701e-06
3.61009e-07
1.37924e-06
3.60141e-07
4.43362e-07
6.10282e-07
9.3306e-07
1.9879e-06
2.72561e-06
1.99469e-06
6.0921e-07
9.37411e-07
4.3521e-07
1.05168e-06
1.35652e-06
3.54014e-07
1.36377e-06
4.34997e-07
3.55497e-07
6.20067e-07
2.01644e-06
2.74176e-06
9.54603e-07
2.01037e-06
9.5028e-07
6.22937e-07
4.43781e-07
1.0658e-06
3.60955e-07
1.38673e-06
3.60103e-07
1.37906e-06
4.43524e-07
6.10125e-07
9.33233e-07
1.98717e-06
2.72744e-06
6.09038e-07
1.9945e-06
9.38055e-07
4.35373e-07
1.05124e-06
3.5397e-07
1.35637e-06
4.35168e-07
3.55442e-07
1.36356e-06
6.20338e-07
2.01765e-06
2.74034e-06
9.54521e-07
2.00941e-06
6.20852e-07
9.50145e-07
4.42091e-07
1.0662e-06
3.61026e-07
1.38561e-06
3.60135e-07
1.3794e-06
4.44757e-07
6.11526e-07
9.32905e-07
1.98727e-06
2.7255e-06
9.37958e-07
6.08569e-07
1.99322e-06
4.3665e-07
1.05111e-06
3.54016e-07
1.35631e-06
3.55525e-07
4.34409e-07
1.36339e-06
6.19741e-07
2.01544e-06
2.74142e-06
9.5507e-07
9.49664e-07
2.0105e-06
6.20583e-07
1.66413e-06
3.4015e-07
7.27514e-07
7.27384e-07
7.21488e-07
7.21922e-07
1.67398e-06
4.43945e-07
1.06606e-06
3.62106e-07
1.386e-06
3.60305e-07
1.37997e-06
4.43504e-07
6.11371e-07
9.3301e-07
1.98743e-06
2.7276e-06
9.38346e-07
6.08887e-07
1.99347e-06
4.35439e-07
1.05125e-06
3.5446e-07
1.35711e-06
3.55355e-07
4.35233e-07
1.36314e-06
6.19442e-07
2.0158e-06
2.74042e-06
9.55033e-07
9.49873e-07
2.01054e-06
6.23183e-07
4.99173e-07
4.99988e-07
4.99984e-07
4.99927e-07
4.4559e-07
4.54253e-07
4.54261e-07
4.6398e-07
4.03812e-07
4.18901e-07
4.18912e-07
4.39701e-07
3.68435e-07
3.88833e-07
3.88841e-07
4.17785e-07
3.38081e-07
3.62287e-07
3.6229e-07
3.96101e-07
3.11698e-07
3.38374e-07
3.38373e-07
3.74471e-07
2.88505e-07
3.16666e-07
3.16665e-07
3.53552e-07
2.67935e-07
2.96985e-07
2.96982e-07
3.33905e-07
2.49572e-07
2.79278e-07
2.79274e-07
3.16158e-07
2.33112e-07
2.63543e-07
2.63539e-07
3.00798e-07
2.18324e-07
2.49781e-07
2.49781e-07
2.88012e-07
2.05032e-07
2.3799e-07
2.37994e-07
2.7816e-07
1.93097e-07
2.28172e-07
2.2818e-07
2.71389e-07
1.82408e-07
2.20331e-07
2.20343e-07
2.67559e-07
1.72875e-07
2.1447e-07
2.14482e-07
2.6702e-07
1.64422e-07
2.10601e-07
2.10612e-07
2.69812e-07
1.56985e-07
2.08731e-07
2.08737e-07
2.75957e-07
1.50514e-07
2.08869e-07
2.08875e-07
2.85318e-07
1.44963e-07
2.11072e-07
2.11075e-07
2.98161e-07
2.15345e-07
3.14445e-07
5.06138e-07
5.05561e-07
5.05553e-07
5.06142e-07
5.05561e-07
5.05554e-07
5.05986e-07
5.05985e-07
5.05984e-07
5.05983e-07
5.05569e-07
5.05565e-07
5.06141e-07
5.05566e-07
5.0556e-07
5.0619e-07
4.99913e-07
4.67406e-07