/*--------------------------------*- C++ -*----------------------------------*\
| =========                 |                                                 |
| \\      /  F ield         | OpenFOAM: The Open Source CFD Toolbox           |
|  \\    /   O peration     | Version:  2312                                  |
|   \\  /    A nd           | Website:  www.openfoam.com                      |
|    \\/     M anipulation  |                                                 |
\*---------------------------------------------------------------------------*/
FoamFile
{
    version     2.0;
    format      ascii;
    arch        "LSB;label=32;scalar=64";
    class       surfaceScalarField;
    location    "450";
    object      phi;
}
// * * * * * * * * * * * * * * * * * * * * * * * * * * * * * * * * * * * * * //

dimensions      [0 3 -1 0 0 0 0];

oriented        oriented;

internalField   nonuniform List<scalar> 
124832
(
-8.75909e-07
-8.82571e-07
4.55908e-07
4.57083e-07
0.00114043
-0.00113959
-1.51883e-06
8.76913e-07
4.44992e-07
0.00113302
-5.32455e-07
1.10768e-06
1.27747e-07
7.24716e-07
-5.90755e-07
-1.27336e-06
5.84258e-08
-0.00113244
-8.56808e-07
-8.577e-07
-0.00114291
4.42663e-07
4.43591e-07
0.00114374
-0.00113482
-1.51667e-06
8.57734e-07
4.18927e-07
0.00113536
-5.21496e-07
1.11694e-06
1.34251e-07
7.32249e-07
-5.75252e-07
-1.25944e-06
6.75516e-08
-0.00113469
-1.51382e-06
8.57416e-07
4.24219e-07
0.00113523
-5.21428e-07
1.1144e-06
1.34355e-07
7.32413e-07
-5.75311e-07
-1.25945e-06
6.78411e-08
-0.000276279
1.54558e-06
1.50858e-06
-4.99803e-07
-5.02935e-07
0.000274227
1.56153e-06
1.52206e-06
-5.07816e-07
-5.15959e-07
0.00027407
-0.00027613
-1.15827e-06
-1.11536e-06
0.000276353
-0.000274237
7.57921e-08
8.12385e-08
4.35896e-07
0.0011326
-5.35171e-07
1.15051e-06
1.3068e-07
7.30188e-07
-5.90785e-07
-1.27881e-06
5.8317e-08
-0.00113201
8.70871e-07
4.36379e-07
0.00113266
1.14764e-06
1.3318e-07
7.29961e-07
-5.90743e-07
-1.27867e-06
5.83046e-08
-0.00113208
-1.55651e-06
-5.35675e-07
0.00113427
8.61574e-07
-0.00113374
4.38972e-07
-1.55803e-06
1.41518e-07
-5.29969e-07
-1.2686e-06
6.52878e-08
-5.7937e-07
7.3609e-07
1.15277e-06
0.00113435
8.61799e-07
-0.0011338
4.28547e-07
-1.55555e-06
1.38256e-07
-5.27387e-07
-1.26846e-06
6.52034e-08
-5.79235e-07
7.35832e-07
-1.11531e-06
0.000276334
-0.00027422
7.5875e-08
7.84191e-08
4.3502e-07
0.00113358
-5.32797e-07
1.11033e-06
1.27546e-07
7.30189e-07
-5.90711e-07
-1.27863e-06
5.86036e-08
-0.001133
-1.55366e-06
8.75725e-07
4.35884e-07
0.00113255
-5.38288e-07
1.14233e-06
1.33411e-07
7.30383e-07
-5.90588e-07
-1.27845e-06
5.51893e-08
-0.00113197
0.00113527
8.62501e-07
-0.00113472
4.27614e-07
-1.51844e-06
1.3242e-07
-5.24672e-07
-1.26846e-06
6.55229e-08
-5.79313e-07
7.35974e-07
1.14745e-06
0.00113424
8.60865e-07
-0.00113369
4.28358e-07
-1.54999e-06
1.38415e-07
-5.30056e-07
-1.26821e-06
6.23444e-08
-5.76294e-07
7.36148e-07
8.62562e-07
-0.00113427
4.32491e-07
-1.51799e-06
1.32657e-07
-5.2428e-07
-1.26294e-06
6.5205e-08
7.30409e-07
-5.79138e-07
1.14451e-06
0.00113386
8.61592e-07
-0.00113331
4.28433e-07
-1.54697e-06
1.35535e-07
-5.27024e-07
-1.25989e-06
5.88005e-08
-5.73335e-07
7.27774e-07
-5.1077e-07
-5.15708e-07
0.000274045
-0.000276091
-1.11001e-06
0.000276309
-0.000274209
7.6247e-08
8.11566e-08
7.76012e-07
2.55307e-07
0.00113308
1.06642e-06
1.15433e-07
7.27231e-07
-5.87885e-07
5.86137e-08
-1.27573e-06
-1.58656e-06
-0.00113209
-5.43509e-07
8.62162e-07
-0.00113414
4.26753e-07
-1.51244e-06
1.32691e-07
-5.24265e-07
-1.2631e-06
6.55072e-08
7.30495e-07
-5.79203e-07
1.10714e-06
0.00113484
8.61996e-07
-0.00113428
4.27249e-07
-1.51001e-06
1.32582e-07
-5.24479e-07
-1.2654e-06
6.5626e-08
-5.79146e-07
7.33152e-07
-0.000274182
7.58898e-08
7.86095e-08
1.55942e-06
1.51703e-06
-5.00109e-07
-5.05541e-07
0.000274283
4.14559e-07
0.00113482
-5.30005e-07
1.15989e-06
1.43046e-07
7.3781e-07
-5.75501e-07
-1.26514e-06
6.75245e-08
-1.55417e-06
8.57294e-07
4.26039e-07
0.00113489
-5.27311e-07
1.15443e-06
1.39862e-07
7.37863e-07
-5.75249e-07
-1.26485e-06
6.4298e-08
-5.00306e-07
-5.02527e-07
0.000274266
4.25131e-07
0.00113581
-5.21827e-07
1.11697e-06
1.34025e-07
7.37827e-07
-5.75341e-07
-1.26485e-06
6.78308e-08
-1.54862e-06
8.56118e-07
4.25871e-07
0.00113478
-5.27229e-07
1.1491e-06
1.40034e-07
7.37986e-07
-5.72384e-07
-1.26462e-06
6.46216e-08
8.56708e-07
4.25893e-07
0.00113439
-5.24226e-07
1.14619e-06
1.37181e-07
7.29644e-07
-5.69477e-07
6.11251e-08
-1.25629e-06
-5.00266e-07
-5.0522e-07
0.000274252
8.57272e-07
4.2467e-07
0.00113538
-5.21611e-07
1.10882e-06
1.34241e-07
7.34935e-07
-5.75228e-07
6.79803e-08
-1.26185e-06
-2.81058e-10
9.35922e-08
0.000237628
-0.000237703
-1.05544e-08
-8.27752e-09
-3.75723e-09
1.51373e-07
-2.08026e-08
0.00019805
-0.000198177
-1.7464e-10
2.76809e-07
0.000237945
-9.49219e-08
-1.29314e-08
-0.000238114
1.50573e-08
3.10972e-08
0.000197841
-5.60697e-09
-0.000197881
-1.49193e-08
5.44576e-09
9.92814e-05
-9.92719e-05
9.35266e-08
-1.08372e-10
0.000237614
-0.000237689
-8.48003e-09
-1.05271e-08
-3.93014e-09
1.51316e-07
-2.0811e-08
0.000198031
-0.000198158
2.76763e-07
2.46878e-10
0.000237932
-1.34398e-08
-9.49024e-08
-0.0002381
1.53791e-08
3.08966e-08
0.000197824
-5.82299e-09
-0.000197864
4.62288e-07
4.35222e-07
0.00114019
-8.77416e-07
-0.00113934
4.5635e-07
4.83919e-07
0.00114001
-0.0011392
4.06299e-07
4.2932e-07
0.00113994
-1.04323e-06
-0.00113896
-0.00114209
4.55609e-07
4.51085e-07
0.0011427
-0.00114187
4.50731e-07
4.50955e-07
0.00114249
-0.00114167
4.50098e-07
4.50336e-07
0.00114245
-0.00114163
4.50125e-07
4.50975e-07
-9.39231e-08
-2.03943e-09
0.000261357
-0.000261286
-2.72686e-08
5.23108e-08
4.26719e-07
1.11199e-06
0.0011337
8.72441e-07
-1.26986e-06
6.05414e-08
-5.86872e-07
7.26411e-07
-1.52054e-06
1.29328e-07
-5.29826e-07
-0.00113312
4.76312e-09
-3.12646e-08
0.000254114
2.00963e-08
-0.000254148
4.0639e-08
-1.77588e-08
0.00113384
9.24704e-07
-1.38054e-06
5.74281e-07
-1.20872e-06
7.71222e-07
-0.00113308
4.36473e-09
6.74253e-08
9.93324e-05
-9.94042e-05
-1.47863e-08
7.70794e-09
9.9275e-05
-9.92679e-05
-4.82203e-10
-9.38024e-08
0.000261344
-0.000261276
5.49399e-08
-2.79599e-08
0.00113295
5.27682e-08
9.28134e-07
7.71585e-07
-1.21086e-06
-1.38337e-06
5.72109e-07
-0.00113223
-7.04451e-08
-1.51311e-07
3.37749e-07
7.61352e-08
0.000254363
-0.000254555
4.42539e-07
1.10665e-06
0.00113358
8.7188e-07
-1.26991e-06
6.08753e-08
-5.86848e-07
7.26686e-07
-1.51769e-06
1.29455e-07
-5.29688e-07
1.66005e-09
-2.76825e-07
0.000261427
5.30973e-07
-3.51936e-08
-0.000261648
1.85637e-08
0.00113368
9.23904e-07
-1.38058e-06
5.77192e-07
-1.206e-06
7.74178e-07
4.6067e-09
-3.10438e-08
0.000254103
2.01263e-08
-0.00025414
4.30196e-08
-1.14666e-06
-1.0983e-06
0.000276178
-0.000274074
6.55063e-08
7.60955e-08
-4.50133e-09
-7.65874e-09
0.000285614
2.24411e-08
-0.000285685
6.06248e-08
-4.76887e-09
-7.9008e-09
0.000285532
2.32688e-08
-0.000285604
6.06757e-08
-1.23395e-10
7.70595e-08
-0.000236783
-5.7475e-09
-6.59281e-09
-0.000197528
-3.36286e-09
1.40525e-07
-1.7735e-08
0.000197409
-0.000237163
-5.23799e-11
2.57376e-07
0.000237005
-8.82362e-08
-1.12672e-08
1.39974e-08
2.26718e-08
-3.74717e-09
-0.000197259
-9.9157e-05
4.83046e-09
6.37273e-08
9.90884e-05
-1.40525e-08
4.67748e-09
-9.90284e-05
7.70206e-08
-8.84991e-11
-0.00023677
-6.7713e-09
-5.73264e-09
-0.000197507
-4.923e-09
1.40286e-07
-1.79738e-08
0.000197389
-0.000237149
2.57345e-07
2.54423e-10
0.000236992
-1.16537e-08
-8.82699e-08
1.39591e-08
2.26202e-08
-3.60989e-09
-0.000197239
4.48826e-07
4.49124e-07
0.00114351
4.48175e-07
4.48458e-07
0.00114331
4.48206e-07
4.48993e-07
0.00114327
-7.73574e-08
-1.65361e-09
-0.000260653
-2.27129e-08
3.61771e-08
-0.000253674
-6.78035e-08
-1.42514e-07
3.23075e-07
6.88733e-08
0.000253492
0.00113603
-0.00113532
2.70123e-09
9.11242e-07
7.80845e-07
-1.19901e-06
-1.36965e-06
5.84085e-07
4.27658e-07
1.11855e-06
8.52798e-07
-1.25582e-06
6.97915e-08
-5.7138e-07
7.34083e-07
-1.51521e-06
1.35864e-07
-5.18693e-07
-0.000261043
-2.57331e-07
1.39424e-09
0.000260815
-3.01228e-08
5.14095e-07
7.66897e-09
-2.05649e-08
1.47519e-08
-0.000253281
2.85632e-08
-4.20455e-09
9.06902e-07
-1.36948e-06
5.83524e-07
-1.19927e-06
7.80513e-07
-9.91517e-05
5.06085e-09
6.33011e-08
9.90834e-05
-1.39437e-08
4.52603e-09
-9.90247e-05
-8.34001e-10
-7.72811e-08
-0.000260642
3.61555e-08
-2.27058e-08
0.00113587
-0.00113515
4.39756e-09
9.10938e-07
7.81033e-07
-1.20192e-06
-1.37249e-06
5.81218e-07
-0.000253665
-6.79222e-08
-1.40292e-07
3.20585e-07
6.90398e-08
0.000253484
4.21995e-07
1.11603e-06
8.52569e-07
-1.25591e-06
7.00424e-08
-5.71433e-07
7.34218e-07
-1.51234e-06
1.32909e-07
-5.18599e-07
-0.000261032
9.06924e-10
-2.57416e-07
0.000260805
5.14224e-07
-3.05035e-08
-3.34459e-09
9.06606e-07
-1.36965e-06
5.86403e-07
-1.19659e-06
7.83474e-07
7.54853e-09
-2.26545e-08
1.46799e-08
-0.000253272
3.10794e-08
-0.000285134
6.81346e-08
-6.34152e-08
1.79648e-07
-1.36855e-08
0.000284963
-0.000285053
6.79485e-08
-6.35409e-08
1.74954e-07
-1.38321e-08
0.000284887
-1.14783e-06
-1.11046e-06
-0.000274269
8.09658e-08
8.36899e-08
-7.55126e-09
-4.4885e-09
2.11146e-08
-0.000284735
4.88794e-08
-7.74766e-09
-4.68961e-09
2.18794e-08
-0.000284659
5.35978e-08
6.93452e-08
9.93596e-05
-9.94327e-05
7.82032e-09
9.93044e-05
-9.92971e-05
6.74813e-08
9.93486e-05
-9.94201e-05
7.41685e-09
9.92909e-05
-9.9283e-05
7.29797e-08
1.88768e-07
-1.32757e-08
0.000285991
-0.00028617
7.03127e-08
1.90837e-07
-1.29753e-08
0.000285914
-0.000286095
0.000276249
-1.15223e-06
-1.11205e-06
-0.000274129
6.80858e-08
7.61915e-08
0.000285668
-1.94252e-09
2.51917e-08
-0.000285742
5.82614e-08
0.000285593
-2.08693e-09
2.25142e-08
-0.000285664
5.79282e-08
6.10153e-09
-1.39991e-08
9.91788e-05
-9.9171e-05
6.56825e-08
4.73252e-09
9.9234e-05
6.07747e-09
-1.44468e-08
9.91675e-05
-9.91591e-05
6.55831e-08
4.58833e-09
9.92208e-05
1.55925e-06
1.51971e-06
0.000274184
-5.02769e-07
-5.10809e-07
-6.06306e-09
0.000285189
5.34982e-08
-0.000285252
2.17871e-08
-3.52117e-09
0.000285113
5.34057e-08
-0.000285179
2.18473e-08
6.79782e-08
-1.59523e-08
1.85571e-07
0.000285496
6.79519e-08
-1.33028e-08
1.85138e-07
0.000285419
9.35553e-08
0.000237585
-0.00023766
-1.05444e-08
-8.39554e-09
1.53552e-07
-2.04841e-08
0.000197982
-4.14947e-09
-0.000198111
2.76732e-07
0.000237903
-9.48526e-08
-1.36428e-08
-0.000238072
2.88064e-08
0.000197779
-5.26885e-09
-0.000197817
-9.8049e-10
0.000261373
-0.000261303
-2.7718e-08
5.19398e-08
3.40362e-07
7.59923e-08
0.000254377
-0.000254569
0.00113336
3.65507e-09
9.29019e-07
7.77575e-07
-1.21633e-06
-1.38864e-06
5.80682e-07
-0.00113261
4.32719e-07
0.00113317
8.70937e-07
-1.56041e-06
1.35301e-07
-5.32581e-07
-1.27546e-06
6.06484e-08
-5.86903e-07
7.32103e-07
7.51259e-10
0.000261453
-3.4003e-08
5.31017e-07
-0.000261674
0.000254115
2.01077e-08
-0.000254146
4.05491e-08
-3.61675e-09
0.00113412
9.18814e-07
-1.38611e-06
5.82998e-07
-1.2142e-06
7.79997e-07
0.000261344
-0.000261276
-2.6651e-08
5.19106e-08
3.40162e-07
7.6248e-08
0.000254267
-0.000254457
-7.30487e-08
0.00113331
9.23418e-07
7.77418e-07
-1.21629e-06
-1.3884e-06
5.80658e-07
-0.00113255
4.33868e-07
0.00113324
1.14935e-06
8.71536e-07
-1.27533e-06
6.07225e-08
7.31965e-07
-5.86919e-07
-1.55811e-06
1.34858e-07
-5.35741e-07
0.000261427
-3.58597e-08
5.30925e-07
-0.000261644
0.000254005
4.40677e-09
2.03872e-08
-0.000254041
4.03851e-08
0.00113406
9.18975e-07
-1.3859e-06
5.82977e-07
-1.21417e-06
7.79748e-07
-1.29015e-10
2.66917e-07
-9.13754e-08
-1.20129e-08
0.000237465
2.65773e-08
-0.000197565
-4.11647e-09
1.4569e-07
-2.16493e-08
0.000197721
-2.91439e-10
8.50306e-08
-0.000237232
-7.88189e-09
-7.3018e-09
2.66881e-07
-9.1363e-08
-1.2674e-08
0.000237422
2.68437e-08
1.41665e-08
0.000197456
-0.000197493
-4.06085e-09
1.47966e-07
-4.74971e-09
-1.90246e-08
0.000197655
8.5064e-08
0.00023712
-0.00023719
-7.96344e-09
-7.67026e-09
7.51944e-10
-3.18137e-08
5.22704e-07
0.000261149
4.24845e-07
8.66446e-07
1.15392e-06
-5.327e-07
1.36873e-07
7.34022e-07
-5.83146e-07
6.30108e-08
-1.27209e-06
0.000253677
3.42161e-08
-0.000253708
1.73576e-08
-0.00113485
-3.60843e-09
0.00113559
9.15576e-07
-1.38088e-06
5.84855e-07
-1.20694e-06
7.84685e-07
6.99658e-08
3.31753e-07
0.000253927
3.59214e-09
9.20099e-07
7.82186e-07
-1.20928e-06
-1.38371e-06
5.82528e-07
-9.66606e-10
0.000261059
-0.000260991
-2.55942e-08
4.38741e-08
-3.38887e-08
5.22672e-07
0.000261123
4.31439e-07
-1.55689e-06
8.66591e-07
7.33884e-07
-5.82998e-07
-1.27192e-06
6.30846e-08
1.15107e-06
-5.30208e-07
1.33586e-07
3.49278e-09
0.000253567
3.44453e-08
-0.000253596
1.74821e-08
-0.0011348
0.00113553
9.15647e-07
-1.38044e-06
5.84811e-07
-1.20689e-06
7.84423e-07
-7.04641e-08
7.25929e-08
3.31627e-07
0.000253819
9.20165e-07
7.82093e-07
-1.20921e-06
-1.38331e-06
5.82506e-07
0.000261029
-0.000260965
-2.42256e-08
4.38736e-08
0.000276232
-0.000274115
7.08194e-08
7.32681e-08
0.000285528
2.30228e-08
-0.000285602
6.07166e-08
-7.91908e-09
0.000285681
2.28517e-08
-0.00028575
5.85358e-08
9.92978e-05
-1.49388e-08
-9.92908e-05
6.65729e-09
-9.91495e-05
6.79729e-08
9.92086e-05
1.51935e-06
0.00027417
-5.05677e-07
-5.07984e-07
0.000285054
5.37137e-08
-0.00028512
2.23648e-08
-3.97036e-09
-6.30442e-09
0.000285199
5.36807e-08
-0.000285264
2.22048e-08
-1.33078e-08
1.85317e-07
0.000285354
-6.54665e-08
7.02828e-08
-1.33576e-08
1.85373e-07
0.000285504
-1.45664e-08
9.91769e-05
-9.91663e-05
4.50756e-09
9.92278e-05
-1.64474e-09
0.000261366
-0.000261295
-2.74324e-08
5.19483e-08
3.3766e-07
7.61302e-08
0.000254337
-0.000254529
0.00113322
3.28449e-09
9.33724e-07
7.77271e-07
-1.21344e-06
-1.38854e-06
5.77868e-07
-0.00113247
4.32172e-07
0.00113416
8.71971e-07
-1.52085e-06
1.29192e-07
-5.30034e-07
-1.27531e-06
6.10362e-08
-5.86798e-07
7.32109e-07
1.84215e-09
0.000261445
-3.5229e-08
5.30908e-07
-0.000261666
0.000254077
2.00025e-08
-0.000254111
4.29078e-08
-4.03025e-09
0.00113397
9.23588e-07
-1.38591e-06
5.80154e-07
-1.21132e-06
7.79708e-07
9.34859e-08
0.000237573
-0.000237648
-1.05224e-08
-8.62189e-09
1.51225e-07
-2.04298e-08
0.000197971
-0.000198098
2.76687e-07
0.00023789
-9.48561e-08
-1.31458e-08
-0.000238059
3.11164e-08
0.000197764
-5.38868e-09
-0.000197805
0.000261335
-0.000261268
5.19033e-08
-2.69867e-08
0.00113317
9.2791e-07
7.77573e-07
-1.2134e-06
-1.38823e-06
5.77945e-07
-0.00113242
-7.32507e-08
3.35045e-07
7.62324e-08
0.000254255
-0.000254442
4.3347e-07
0.00113312
1.14405e-06
8.81693e-07
-1.27507e-06
5.76798e-08
7.32343e-07
-5.83913e-07
-1.55255e-06
1.35022e-07
-5.3561e-07
0.000261418
5.30834e-07
-3.54065e-08
-0.000261635
0.00113391
9.29283e-07
-1.38562e-06
5.80247e-07
-1.21127e-06
7.80129e-07
0.000253991
4.59626e-09
1.99183e-08
-0.00025403
4.57561e-08
2.66866e-07
2.28683e-10
-1.24962e-08
-9.13739e-08
0.000237451
2.66173e-08
-0.000197543
-4.45434e-09
1.45654e-07
-1.92336e-08
0.000197702
8.50172e-08
-6.24057e-11
-0.000237219
-7.58532e-09
-7.94981e-09
1.86397e-09
-3.31245e-08
5.22647e-07
0.000261141
4.29748e-07
8.67163e-07
1.11372e-06
-5.27401e-07
1.30795e-07
7.34003e-07
-5.83045e-07
6.33182e-08
-1.27187e-06
0.000253639
3.69376e-08
-0.00025367
1.72827e-08
-0.0011347
-3.69607e-09
0.00113543
9.15066e-07
-1.38063e-06
5.84801e-07
-1.20679e-06
7.84322e-07
7.2542e-08
3.29066e-07
0.000253889
3.26382e-09
9.24774e-07
7.81985e-07
-1.20913e-06
-1.38328e-06
5.82471e-07
-1.62776e-09
0.000261052
-0.000260981
-2.47515e-08
4.10742e-08
2.66795e-07
-9.134e-08
-1.22087e-08
0.00023741
2.67385e-08
1.43237e-08
0.000197448
-0.000197485
-4.51275e-09
1.45541e-07
-4.76193e-09
-1.90524e-08
0.000197643
8.49904e-08
0.000237108
-0.000237178
-7.94243e-09
-7.64476e-09
5.22581e-07
-3.3233e-08
0.000261114
4.25448e-07
-1.55127e-06
8.65671e-07
7.34216e-07
-5.80095e-07
-1.27163e-06
6.00819e-08
1.14577e-06
-5.32807e-07
1.36753e-07
-0.00113464
0.00113537
9.1503e-07
-1.38035e-06
5.84877e-07
-1.20675e-06
7.84739e-07
6.16908e-09
0.000253553
3.96905e-08
-0.000253589
1.7017e-08
9.24834e-07
7.82366e-07
-1.20907e-06
-1.38306e-06
5.82558e-07
-7.06325e-08
7.25603e-08
3.26365e-07
0.000253808
0.000261021
-0.000260955
4.10582e-08
-2.42657e-08
-3.24778e-10
0.000237608
-0.000237685
-8.4118e-09
-8.60354e-09
0.000197828
-5.59253e-09
-0.000197868
-9.37265e-08
0.000261326
-0.000261259
5.20993e-08
-2.75629e-08
4.49489e-07
0.00113275
8.76735e-07
-1.54938e-06
1.35223e-07
-5.32597e-07
-1.26959e-06
5.74133e-08
-5.86614e-07
7.23896e-07
-0.0011322
0.00113376
9.24218e-07
-1.38021e-06
5.7722e-07
-1.20867e-06
7.74146e-07
-0.00113302
-3.1139e-08
0.000254031
2.01518e-08
-0.000254071
4.59366e-08
0.000237569
-0.000237643
-1.06623e-08
-9.06847e-09
0.000197768
1.47316e-08
-5.21429e-09
-0.000197809
-2.66887e-07
1.15967e-09
-3.24516e-08
5.22737e-07
0.000261133
4.24078e-07
8.67474e-07
1.11366e-06
-5.27131e-07
1.30962e-07
7.28356e-07
-5.82924e-07
-1.26649e-06
6.30015e-08
-2.46058e-08
3.45049e-08
-0.000253707
1.72365e-08
-0.00113457
-5.48459e-09
9.1568e-07
-1.37507e-06
5.78932e-07
7.75865e-07
-1.20417e-06
-1.45549e-07
7.22845e-08
3.31468e-07
0.000253926
-1.22141e-09
9.20177e-07
7.76223e-07
-1.20375e-06
-1.37525e-06
5.79456e-07
-8.54114e-08
-1.73265e-09
-0.000260975
-2.49256e-08
4.4248e-08
-2.7066e-10
-1.21647e-08
-9.35494e-08
0.000237447
0.000197513
-0.000197548
-4.65072e-09
-1.92037e-08
0.000197706
-1.78733e-10
0.000237143
-0.000237215
-7.73611e-09
-6.01965e-09
-2.66905e-07
5.22665e-07
-3.37372e-08
0.000261105
4.36107e-07
-1.55091e-06
8.66516e-07
7.25738e-07
-5.79858e-07
-1.26343e-06
5.6452e-08
1.14562e-06
-5.32526e-07
1.3693e-07
-0.0011345
0.00113523
9.15586e-07
-1.37483e-06
5.81873e-07
-1.2041e-06
7.7883e-07
-2.67254e-08
6.10476e-09
0.000253594
3.44634e-08
-0.000253625
1.74176e-08
9.1995e-07
7.76473e-07
-1.20645e-06
-1.37779e-06
5.7958e-07
-1.45513e-07
-7.06604e-08
7.26624e-08
3.28824e-07
0.000253846
-8.5257e-08
0.000261009
-0.000260948
4.68992e-08
-2.46023e-08
-9.14154e-08
-1.27907e-08
0.000237406
1.42997e-08
0.000197452
-0.000197488
-4.3236e-09
-4.7331e-09
-1.88867e-08
0.000197647
0.000237104
-0.000237174
-8.08529e-09
-7.61081e-09
1.86211e-07
-1.38449e-08
0.000285854
-0.000286032
-6.76692e-08
1.88721e-07
-1.35764e-08
0.000285996
-0.000286174
0.000276208
-0.000274104
7.10962e-08
7.60942e-08
0.000285529
2.28654e-08
-0.000285603
6.29785e-08
-7.76117e-09
0.000285671
2.30608e-08
-0.000285742
6.07738e-08
4.16605e-09
9.93553e-05
-9.94271e-05
9.92979e-05
-1.48709e-08
-9.92908e-05
6.01977e-09
-9.91434e-05
6.53093e-08
9.92049e-05
1.51372e-06
0.000274159
-5.05594e-07
-5.1058e-07
0.00028505
5.8128e-08
-0.000285118
2.21492e-08
-6.07141e-09
-6.16643e-09
0.000285191
5.58699e-08
-0.00028526
2.49706e-08
-1.40178e-08
1.80391e-07
0.000285358
-6.55365e-08
7.03323e-08
-1.63466e-08
1.82961e-07
0.000285499
-1.43454e-08
9.91745e-05
-9.91662e-05
4.58266e-09
9.92278e-05
-9.11801e-08
0.000261312
-0.000261247
5.20957e-08
-2.56001e-08
0.00113287
9.57164e-07
7.74238e-07
-1.21075e-06
5.72025e-07
-1.38557e-06
-0.00113227
-1.51363e-07
3.40179e-07
7.6194e-08
0.000254254
-7.29797e-08
-0.000254446
3.93967e-07
0.00113372
8.66334e-07
-1.51525e-06
1.23139e-07
-5.32709e-07
-1.27232e-06
6.10077e-08
-5.84051e-07
7.29307e-07
-2.79243e-07
0.000261398
5.33588e-07
-3.55075e-08
-0.000261615
0.00113359
9.24028e-07
-1.38297e-06
5.77202e-07
-1.20586e-06
7.76665e-07
-3.10972e-08
0.000253994
2.00444e-08
-0.000254031
4.29226e-08
1.43249e-11
0.000237602
-0.000237677
-8.41164e-09
-1.06935e-08
-2.05442e-08
0.00019803
-0.000198157
2.46553e-10
0.00023792
-1.34447e-08
-9.48993e-08
-0.000238089
0.000197823
-5.30745e-09
-0.000197863
0.000237563
-0.000237635
-8.21796e-09
-1.06296e-08
-2.05661e-08
0.000197968
-0.000198094
-4.18473e-09
0.000237878
-1.34448e-08
-9.48592e-08
-0.000238049
0.00019776
1.49819e-08
-5.47829e-09
-0.000197801
1.19079e-09
-2.66939e-07
5.20117e-07
-3.2855e-08
0.000261122
4.34704e-07
8.67006e-07
1.10835e-06
-5.26999e-07
1.311e-07
7.28574e-07
-5.82958e-07
-1.26642e-06
6.3309e-08
-0.00113442
-1.16088e-09
9.15203e-07
-1.3752e-06
5.81791e-07
7.78844e-07
-1.20145e-06
-2.66654e-08
3.69401e-08
-0.000253699
1.72218e-08
1.11585e-08
9.19789e-07
7.76573e-07
-1.20655e-06
-1.37794e-06
5.76683e-07
-1.4561e-07
7.24909e-08
3.28984e-07
0.000253918
-8.12037e-10
-8.53058e-08
-0.000260965
4.41853e-08
-2.51853e-08
-2.69374e-07
5.22626e-07
-3.38151e-08
0.000261093
4.24099e-07
-1.51126e-06
8.6688e-07
7.31183e-07
-5.8288e-07
-1.26881e-06
6.34203e-08
1.1055e-06
-5.2715e-07
1.30955e-07
-0.00113434
0.00113507
9.14945e-07
-1.37758e-06
5.81843e-07
-1.20131e-06
7.81354e-07
-2.67473e-08
6.35253e-09
0.000253556
3.95616e-08
-0.000253592
1.70743e-08
9.194e-07
7.78972e-07
-1.2064e-06
-1.38027e-06
5.76668e-07
-1.45628e-07
-7.03609e-08
7.25592e-08
3.28954e-07
0.000253808
-8.26746e-08
0.000261
-0.000260936
4.12627e-08
-2.34142e-08
2.3705e-10
-1.2609e-08
-9.1378e-08
0.000237439
0.000197506
-0.000197543
-4.366e-09
-1.91515e-08
0.000197701
-6.5087e-11
0.000237138
-0.000237207
-7.49459e-09
-8.14077e-09
-1.25342e-08
-9.13521e-08
0.000237398
1.45024e-08
0.000197443
-0.00019748
-4.61234e-09
-4.5569e-09
-1.92107e-08
0.000197638
0.000237098
-0.000237165
-7.21287e-09
-8.07204e-09
9.92771e-05
-9.92701e-05
9.92728e-05
-9.92657e-05
0.000274129
-5.05206e-07
-5.08251e-07
-5.99168e-09
5.34568e-08
-0.000285197
2.17151e-08
-6.20422e-09
5.81717e-08
-0.000285121
2.25425e-08
-6.54069e-08
-1.35399e-08
1.82871e-07
0.000285439
-6.55471e-08
-1.36445e-08
1.82932e-07
0.000285358
9.91537e-05
-9.91454e-05
9.9207e-05
9.91495e-05
-9.91412e-05
9.92027e-05
6.38685e-08
9.91116e-05
4.45705e-09
-9.90525e-05
6.34585e-08
9.90991e-05
4.45285e-09
-9.90404e-05
6.8077e-08
1.7995e-07
-1.35853e-08
0.000285018
6.80222e-08
1.79637e-07
-1.36758e-08
0.000284943
-1.15879e-06
-1.11859e-06
-0.000274327
8.0721e-08
8.62534e-08
-7.49467e-09
2.07695e-08
-0.00028479
5.12826e-08
-7.42949e-09
2.08561e-08
-0.000284715
4.88688e-08
7.70516e-08
-0.000236741
-5.79189e-09
-6.66434e-09
1.40379e-07
-1.8133e-08
0.000197338
2.57371e-07
0.000236963
-8.82507e-08
-1.17264e-08
2.27495e-08
-3.74521e-09
-0.000197191
-8.65887e-10
-0.000260669
-2.26034e-08
3.58407e-08
3.23304e-07
6.91327e-08
0.000253493
0.0011363
3.60032e-09
9.11209e-07
7.86895e-07
-1.20738e-06
-1.37811e-06
5.89882e-07
4.28921e-07
8.5213e-07
-1.55523e-06
1.41591e-07
-5.24378e-07
-1.26147e-06
6.97952e-08
-5.7168e-07
7.39717e-07
8.16456e-10
0.000260831
-2.98184e-08
5.14131e-07
1.46354e-08
-0.000253282
3.12009e-08
-3.60755e-09
9.07143e-07
-1.37506e-06
5.92193e-07
-1.20482e-06
7.89136e-07
-0.000260642
-2.1604e-08
3.58606e-08
-6.51884e-08
3.23189e-07
6.89332e-08
0.00025338
0.00113626
9.11291e-07
7.86712e-07
-1.20732e-06
-1.37771e-06
5.89851e-07
4.23683e-07
1.15608e-06
8.52499e-07
-1.2613e-06
6.65526e-08
7.39569e-07
-5.68757e-07
-1.55269e-06
1.41498e-07
-5.24482e-07
0.000260805
-3.14269e-08
5.14091e-07
4.869e-09
1.46833e-08
-0.000253171
3.13169e-08
9.07177e-07
-1.37489e-06
5.9217e-07
-1.20478e-06
7.89113e-07
1.79688e-07
-1.29403e-08
0.000284886
-6.57959e-08
1.79721e-07
-1.35005e-08
0.000285031
-0.000274307
8.09279e-08
8.34766e-08
2.37266e-08
-0.000284656
4.89963e-08
-2.47843e-09
2.15107e-08
-0.000284802
4.91123e-08
4.94076e-09
9.91062e-05
-1.4201e-08
-9.90475e-05
-1.62464e-09
-0.000260659
-2.2229e-08
3.30843e-08
3.20577e-07
6.91552e-08
0.000253458
0.00113615
3.61329e-09
9.10724e-07
7.86661e-07
-1.20441e-06
-1.37785e-06
5.87042e-07
4.22777e-07
8.52879e-07
-1.51559e-06
1.35608e-07
-5.19041e-07
-1.26132e-06
7.00172e-08
-5.71508e-07
7.39684e-07
1.86348e-09
0.000260821
-3.09547e-08
5.16767e-07
1.46968e-08
-0.000253246
3.10468e-08
-3.55208e-09
9.06454e-07
-1.37479e-06
5.8926e-07
-1.2019e-06
7.88932e-07
7.69473e-08
-0.000236729
-5.70334e-09
-6.80415e-09
1.40219e-07
-1.795e-08
0.000197331
2.57259e-07
0.000236951
-8.82165e-08
-1.12985e-08
2.27349e-08
-3.762e-09
-0.000197181
-0.000260632
3.30015e-08
-2.17614e-08
0.0011361
9.10628e-07
7.87025e-07
-1.20437e-06
-1.37752e-06
5.87106e-07
-6.81536e-08
3.17959e-07
6.91093e-08
0.000253375
4.23323e-07
1.15073e-06
8.51251e-07
-1.26097e-06
6.68647e-08
7.39953e-07
-5.6856e-07
-1.54716e-06
1.41628e-07
-5.24427e-07
0.000260795
5.16708e-07
-3.10928e-08
9.06367e-07
-1.37452e-06
5.89349e-07
-1.20188e-06
7.89249e-07
7.60985e-09
1.43623e-08
-0.000253163
3.38601e-08
-9.58907e-11
-0.000236766
-6.97566e-09
-3.79146e-09
-1.80674e-08
0.000197394
-1.65585e-10
0.000236988
-1.11006e-08
-9.04206e-08
-3.87047e-09
-0.000197244
-7.72085e-08
-0.000260625
3.88815e-08
-2.1857e-08
0.00113596
9.11111e-07
7.81114e-07
-1.20169e-06
5.84154e-07
-1.37206e-06
-1.40233e-07
3.23026e-07
6.92178e-08
0.00025341
4.23412e-07
8.51801e-07
-1.5441e-06
1.38748e-07
-5.21381e-07
-1.25259e-06
6.33848e-08
-5.65655e-07
7.31489e-07
-2.57358e-07
0.000260788
5.11338e-07
-3.15441e-08
9.06797e-07
-1.36922e-06
5.86434e-07
-1.19917e-06
7.83502e-07
-2.2734e-08
1.48092e-08
-0.000253198
2.85632e-08
-0.000236725
-5.86457e-09
-6.70358e-09
-5.02634e-09
-1.78742e-08
0.000197334
0.000236947
-8.82926e-08
-1.18676e-08
1.39163e-08
-3.63309e-09
-0.000197184
1.74816e-07
-1.41728e-08
0.000284885
-6.34991e-08
1.77349e-07
-1.65842e-08
0.000285026
-0.000274294
8.1279e-08
8.62702e-08
2.15667e-08
-0.000284657
5.35697e-08
-4.55289e-09
2.43256e-08
-0.000284798
5.13101e-08
4.92817e-09
9.9106e-05
-1.39822e-08
-9.90473e-05
-7.46884e-08
-0.000260614
3.32266e-08
-2.11002e-08
0.0011358
9.10661e-07
7.83647e-07
-1.20176e-06
5.81217e-07
-1.37477e-06
-1.40328e-07
3.18004e-07
6.90939e-08
0.000253377
4.22096e-07
8.52456e-07
-1.50708e-06
1.3585e-07
-5.18717e-07
-1.25815e-06
7.01826e-08
-5.71444e-07
7.36813e-07
-2.5983e-07
0.000260776
5.16749e-07
-3.19333e-08
9.06384e-07
-1.37173e-06
5.86355e-07
-1.19646e-06
7.85886e-07
-2.2739e-08
1.44714e-08
-0.000253166
3.37322e-08
-4.72059e-11
-0.000236758
-6.66669e-09
-5.94918e-09
-1.79787e-08
0.000197389
1.74606e-10
0.00023698
-1.17354e-08
-8.82435e-08
-3.60646e-09
-0.000197239
-0.000236716
-6.55387e-09
-5.89161e-09
-4.86223e-09
-1.81228e-08
0.000197326
0.000236938
-1.16046e-08
-8.82143e-08
1.41102e-08
-3.88031e-09
-0.000197176
9.90853e-05
-9.90265e-05
9.90811e-05
-9.90223e-05
-5.08355e-10
8.64006e-08
0.000145585
-0.000145667
-3.69546e-09
-9.30941e-08
-1.26669e-08
-0.000237868
-3.39126e-10
2.7182e-07
-0.000173728
-9.85291e-11
-2.20316e-10
0.000173718
-0.00023053
-7.27802e-09
-8.55284e-09
0.000230467
6.98663e-08
-0.000173821
-2.94467e-10
-0.000230688
-1.71269e-08
2.48811e-07
-1.44245e-10
0.000145577
-8.03661e-05
-1.38242e-08
-2.03331e-10
8.03801e-05
-6.16294e-08
0.000270221
1.75602e-08
1.98991e-07
-0.000270397
-6.63683e-09
0.000198005
1.74154e-08
3.35773e-08
3.39792e-09
-8.04311e-05
8.84572e-09
0.000270149
4.25332e-08
-0.000145675
-2.82101e-10
8.57646e-09
-1.20171e-08
-8.69626e-09
-1.57023e-10
9.79702e-08
8.64563e-10
0.000173833
-2.54496e-10
-0.000173929
-8.79953e-08
0.000230753
2.53335e-07
-0.000230913
-0.000145759
-2.20947e-10
7.38452e-08
6.04863e-08
8.03159e-05
-0.000269977
1.46991e-08
0.000269909
3.95459e-08
-1.99806e-08
-4.42641e-09
1.48583e-07
1.95381e-07
8.03305e-05
9.93454e-05
-1.52952e-08
6.33213e-09
-9.93364e-05
4.51888e-09
6.89735e-08
8.64544e-08
-2.61515e-10
0.000145582
-0.000145665
-3.88529e-09
-1.31878e-08
-9.30815e-08
-0.000237854
8.64241e-11
2.71775e-07
-0.000230519
-7.2675e-09
-8.60678e-09
0.000230456
6.98424e-08
-0.000173724
-2.61378e-10
1.19404e-11
0.000173714
-0.000230677
-1.73264e-08
2.48848e-07
-0.000173817
1.51624e-11
-1.52243e-10
0.000145575
-8.03674e-05
-1.41615e-08
-3.48901e-11
8.03816e-05
-6.16122e-08
0.000270216
1.77908e-08
1.98946e-07
-0.000270391
-5.97907e-09
0.000197988
1.54124e-08
3.32627e-08
3.5851e-09
-8.04326e-05
9.17446e-09
0.000270144
4.23596e-08
-0.000145673
8.55067e-09
-8.44619e-11
-8.76821e-09
-1.19762e-08
6.13929e-11
9.79377e-08
-8.80146e-08
0.000230742
2.53412e-07
-0.000230903
6.014e-10
0.000173829
4.16937e-11
-0.000173925
-0.000145757
7.38588e-08
3.43448e-11
6.05122e-08
8.03172e-05
-0.000269972
1.48269e-08
0.000269903
3.94192e-08
-2.00277e-08
-3.78663e-09
1.48326e-07
1.95428e-07
8.03318e-05
9.93389e-05
-1.50438e-08
8.59427e-09
4.56978e-09
6.63562e-08
-4.08383e-08
-4.10563e-08
0.000218974
-0.000219099
1.02472e-07
1.04619e-07
-8.19488e-05
8.30381e-09
-1.70859e-08
8.19575e-05
-8.19369e-05
8.46082e-09
-1.72658e-08
8.19457e-05
-8.20139e-05
2.43509e-08
-8.20021e-05
2.41458e-08
3.86232e-08
3.84611e-08
0.000218914
7.04034e-08
-3.84489e-08
-4.0371e-08
0.00022902
5.73435e-08
-0.000229069
6.31848e-08
2.33576e-08
0.000285865
-8.58773e-09
-0.000285939
-3.6423e-09
0.000260211
7.77713e-08
-0.000260235
7.93018e-08
1.7252e-08
0.000187189
-0.000187221
7.26988e-08
-3.84956e-08
-3.81713e-08
0.000228944
5.75111e-08
-0.000228998
6.31756e-08
2.36231e-08
0.000285781
-8.78817e-09
-3.90322e-09
-0.000285855
0.000260089
7.31953e-08
8.39953e-08
-0.000260111
1.73966e-08
0.000187135
-0.000187167
-9.02394e-09
-9.1489e-09
-0.00021916
-8.20057e-05
-8.19939e-05
1.46397e-07
-1.28079e-07
0.000228869
2.35137e-07
-0.000187072
3.4688e-08
0.000187043
1.88122e-07
-1.34032e-08
-6.64625e-08
7.19043e-08
-0.000260028
-7.00397e-08
0.000260008
7.23042e-08
7.8658e-08
3.28071e-07
1.89681e-07
0.000228815
5.71917e-08
1.46227e-07
-1.26225e-07
0.000228798
2.30988e-07
-0.000187019
3.67894e-08
0.000186989
1.85827e-07
-1.35588e-08
-6.65996e-08
7.16488e-08
-0.000259909
-7.21713e-08
0.000259891
6.99643e-08
8.08775e-08
3.22972e-07
1.89512e-07
0.000228746
5.51126e-08
9.2331e-10
8.06679e-08
0.000145247
-0.000145324
-4.79308e-09
-8.68443e-08
-1.11304e-08
-0.000236938
-1.10917e-10
2.5277e-07
-0.000173342
-1.21307e-09
-1.06462e-11
-0.000229694
-2.80799e-09
-6.88294e-09
5.52428e-08
-0.000173427
-2.19003e-11
-0.00022984
-1.56783e-08
2.31666e-07
-7.49362e-10
-8.01732e-05
-1.67077e-08
7.03027e-10
8.01892e-05
-5.75422e-08
0.000269285
1.61644e-08
-0.000269447
1.85239e-07
-3.89863e-09
0.000197374
1.40717e-08
2.47429e-08
4.59737e-09
-8.02353e-05
7.429e-09
0.000269226
3.12172e-08
-0.000145328
1.04781e-09
3.86877e-09
-6.81071e-09
-7.06045e-09
2.13874e-11
8.10205e-08
-5.56145e-10
0.000173433
-0.000173521
-1.18965e-10
-8.19973e-08
0.000229895
-0.000230044
2.35869e-07
-0.000145406
1.14296e-11
5.87733e-08
5.67125e-08
8.01277e-05
-0.000269067
1.7344e-08
2.85611e-08
-1.75664e-08
-5.06392e-09
1.37814e-07
1.82002e-07
9.90964e-05
-1.39721e-08
5.96451e-09
5.20285e-09
6.28566e-08
8.06648e-08
9.72627e-10
0.000145244
-0.000145321
-4.84036e-09
-1.14787e-08
-8.6839e-08
-0.000236924
1.11103e-10
2.52713e-07
-0.000229682
-2.79285e-09
-7.04546e-09
5.52089e-08