/*--------------------------------*- C++ -*----------------------------------*\
| =========                 |                                                 |
| \\      /  F ield         | OpenFOAM: The Open Source CFD Toolbox           |
|  \\    /   O peration     | Version:                                        |
|   \\  /    A nd           | Website:  www.openfoam.com                      |
|    \\/     M anipulation  |                                                 |
\*---------------------------------------------------------------------------*/
FoamFile
{
    version     2.0;
    format      ascii;
    class       volScalarField;
    location    "33850.5";
    object      p;
}
// * * * * * * * * * * * * * * * * * * * * * * * * * * * * * * * * * * * * * //

dimensions      [0 2 -2 0 0 0 0];


internalField   nonuniform List<scalar> 
247096
(
1.08933e-07
1.08936e-07
1.09079e-07
1.09166e-07
1.09199e-07
1.09157e-07
1.09066e-07
1.08912e-07
1.08936e-07
1.09134e-07
1.09311e-07
1.09404e-07
1.09427e-07
1.09397e-07
1.09293e-07
1.0911e-07
1.09079e-07
1.09311e-07
1.09452e-07
1.09493e-07
1.095e-07
1.09491e-07
1.09441e-07
1.09284e-07
1.09052e-07
1.09166e-07
1.09404e-07
1.09493e-07
1.09505e-07
1.09504e-07
1.09505e-07
1.09489e-07
1.09382e-07
1.09133e-07
1.08933e-07
1.09199e-07
1.09427e-07
1.095e-07
1.09504e-07
1.095e-07
1.09505e-07
1.09497e-07
1.09408e-07
1.09164e-07
1.09157e-07
1.09397e-07
1.09491e-07
1.09505e-07
1.09505e-07
1.09505e-07
1.09486e-07
1.09374e-07
1.09124e-07
1.09066e-07
1.09293e-07
1.09441e-07
1.09489e-07
1.09497e-07
1.09486e-07
1.0943e-07
1.09265e-07
1.0904e-07
1.08912e-07
1.0911e-07
1.09284e-07
1.09382e-07
1.09408e-07
1.09374e-07
1.09265e-07
1.09088e-07
1.09052e-07
1.09133e-07
1.09164e-07
1.09124e-07
1.0904e-07
1.0612e-07
1.06095e-07
1.06104e-07
1.05955e-07
1.05968e-07
1.05987e-07
1.05967e-07
1.06153e-07
1.06091e-07
1.06104e-07
1.05976e-07
1.05772e-07
1.05789e-07
1.05789e-07
1.05772e-07
1.06033e-07
1.05979e-07
1.05955e-07
1.05772e-07
1.0581e-07
1.0583e-07
1.0583e-07
1.0581e-07
1.05772e-07
1.06096e-07
1.06142e-07
1.0612e-07
1.05968e-07
1.05789e-07
1.0583e-07
1.05854e-07
1.05854e-07
1.0583e-07
1.05789e-07
1.06124e-07
1.0616e-07
1.06095e-07
1.05987e-07
1.05789e-07
1.0583e-07
1.05854e-07
1.05854e-07
1.0583e-07
1.05789e-07
1.06127e-07
1.05984e-07
1.05967e-07
1.05772e-07
1.0581e-07
1.0583e-07
1.0583e-07
1.05809e-07
1.05772e-07
1.0612e-07
1.06169e-07
1.06153e-07
1.06033e-07
1.05772e-07
1.05789e-07
1.05789e-07
1.05772e-07
1.06114e-07
1.06038e-07
1.06152e-07
1.06091e-07
1.05979e-07
1.06096e-07
1.06124e-07
1.06126e-07
1.0612e-07
1.06038e-07
1.06162e-07
1.06142e-07
1.0616e-07
1.05983e-07
1.06169e-07
1.06152e-07
1.04343e-07
1.04334e-07
1.04342e-07
1.04212e-07
1.04211e-07
1.04221e-07
1.04213e-07
1.04377e-07
1.04333e-07
1.04342e-07
1.04206e-07
1.03973e-07
1.03981e-07
1.03981e-07
1.03973e-07
1.0423e-07
1.04224e-07
1.04212e-07
1.03973e-07
1.03993e-07
1.04004e-07
1.04004e-07
1.03993e-07
1.03973e-07
1.04274e-07
1.04367e-07
1.04343e-07
1.04211e-07
1.03981e-07
1.04004e-07
1.04017e-07
1.04017e-07
1.04004e-07
1.03981e-07
1.04279e-07
1.04364e-07
1.04334e-07
1.04221e-07
1.03981e-07
1.04004e-07
1.04017e-07
1.04017e-07
1.04004e-07
1.03981e-07
1.04277e-07
1.04231e-07
1.04213e-07
1.03973e-07
1.03993e-07
1.04004e-07
1.04004e-07
1.03993e-07
1.03973e-07
1.04281e-07
1.04372e-07
1.04377e-07
1.0423e-07
1.03973e-07
1.03981e-07
1.03981e-07
1.03973e-07
1.04263e-07
1.04253e-07
1.04377e-07
1.04333e-07
1.04224e-07
1.04274e-07
1.04279e-07
1.04277e-07
1.04281e-07
1.04253e-07
1.0438e-07
1.04367e-07
1.04364e-07
1.04231e-07
1.04372e-07
1.04377e-07
1.02743e-07
1.02734e-07
1.02743e-07
1.02619e-07
1.02618e-07
1.02626e-07
1.0262e-07
1.02773e-07
1.02736e-07
1.02743e-07
1.02614e-07
1.02407e-07
1.02412e-07
1.02412e-07
1.02407e-07
1.02638e-07
1.02632e-07
1.02619e-07
1.02407e-07
1.02418e-07
1.02424e-07
1.02424e-07
1.02418e-07
1.02407e-07
1.02679e-07
1.02766e-07
1.02743e-07
1.02618e-07
1.02412e-07
1.02424e-07
1.02431e-07
1.02431e-07
1.02424e-07
1.02412e-07
1.02683e-07
1.02764e-07
1.02734e-07
1.02626e-07
1.02412e-07
1.02424e-07
1.02431e-07
1.02431e-07
1.02424e-07
1.02412e-07
1.02682e-07
1.02638e-07
1.0262e-07
1.02407e-07
1.02418e-07
1.02424e-07
1.02424e-07
1.02418e-07
1.02407e-07
1.02685e-07
1.02771e-07
1.02773e-07
1.02638e-07
1.02407e-07
1.02412e-07
1.02412e-07
1.02407e-07
1.02667e-07
1.02659e-07
1.02774e-07
1.02736e-07
1.02632e-07
1.02679e-07
1.02683e-07
1.02682e-07
1.02685e-07
1.02659e-07
1.02779e-07
1.02766e-07
1.02764e-07
1.02638e-07
1.02771e-07
1.02774e-07
1.01281e-07
1.01272e-07
1.01281e-07
1.01163e-07
1.01161e-07
1.01168e-07
1.01163e-07
1.01308e-07
1.01275e-07
1.01281e-07
1.01158e-07
1.00967e-07
1.0097e-07
1.0097e-07
1.00967e-07
1.01181e-07
1.01177e-07
1.01163e-07
1.00967e-07
1.00975e-07
1.00978e-07
1.00978e-07
1.00975e-07
1.00967e-07
1.0122e-07
1.01304e-07
1.01281e-07
1.01161e-07
1.0097e-07
1.00978e-07
1.00982e-07
1.00982e-07
1.00978e-07
1.0097e-07
1.01222e-07
1.01302e-07
1.01272e-07
1.01168e-07
1.0097e-07
1.00978e-07
1.00982e-07
1.00982e-07
1.00978e-07
1.0097e-07
1.01221e-07
1.01182e-07
1.01163e-07
1.00967e-07
1.00975e-07
1.00978e-07
1.00978e-07
1.00975e-07
1.00967e-07
1.01224e-07
1.01308e-07
1.01308e-07
1.01181e-07
1.00967e-07
1.0097e-07
1.0097e-07
1.00967e-07
1.01208e-07
1.01201e-07
1.0131e-07
1.01275e-07
1.01177e-07
1.0122e-07
1.01222e-07
1.01221e-07
1.01224e-07
1.01201e-07
1.01315e-07
1.01304e-07
1.01302e-07
1.01182e-07
1.01308e-07
1.0131e-07
9.9914e-08
9.99054e-08
9.99133e-08
9.98003e-08
9.97978e-08
9.98039e-08
9.97998e-08
9.9939e-08
9.99086e-08
9.99133e-08
9.97955e-08
9.96152e-08
9.96174e-08
9.96174e-08
9.96152e-08
9.98182e-08
9.98146e-08
9.98003e-08
9.96152e-08
9.96204e-08
9.96221e-08
9.96221e-08
9.96204e-08
9.96152e-08
9.98558e-08
9.99363e-08
9.9914e-08
9.97978e-08
9.96174e-08
9.96221e-08
9.96247e-08
9.96247e-08
9.96221e-08
9.96174e-08
9.9857e-08
9.99343e-08
9.99054e-08
9.98039e-08
9.96174e-08
9.96221e-08
9.96247e-08
9.96247e-08
9.96221e-08
9.96174e-08
9.98554e-08
9.98189e-08
9.97998e-08
9.96152e-08
9.96204e-08
9.96221e-08
9.96221e-08
9.96204e-08
9.96152e-08
9.98586e-08
9.99396e-08
9.9939e-08
9.98182e-08
9.96152e-08
9.96174e-08
9.96174e-08
9.96152e-08
9.98432e-08
9.98371e-08
9.99412e-08
9.99086e-08
9.98146e-08
9.98558e-08
9.9857e-08
9.98554e-08
9.98586e-08
9.98372e-08
9.99465e-08
9.99363e-08
9.99343e-08
9.98189e-08
9.99396e-08
9.99412e-08
9.8615e-08
9.86065e-08
9.86142e-08
9.85049e-08
9.85019e-08
9.85073e-08
9.85038e-08
9.86384e-08
9.86099e-08
9.86142e-08
9.84996e-08
9.83275e-08
9.83291e-08
9.83291e-08
9.83275e-08
9.85219e-08
9.85191e-08
9.85049e-08
9.83275e-08
9.83314e-08
9.83325e-08
9.83325e-08
9.83314e-08
9.83275e-08
9.85586e-08
9.86368e-08
9.8615e-08
9.85019e-08
9.83291e-08
9.83325e-08
9.83342e-08
9.83342e-08
9.83325e-08
9.83291e-08
9.85594e-08
9.86348e-08
9.86065e-08
9.85073e-08
9.83291e-08
9.83325e-08
9.83342e-08
9.83342e-08
9.83325e-08
9.83291e-08
9.85576e-08
9.85231e-08
9.85038e-08
9.83275e-08
9.83314e-08
9.83325e-08
9.83325e-08
9.83314e-08
9.83275e-08
9.85607e-08
9.86398e-08
9.86384e-08
9.85219e-08
9.83275e-08
9.83291e-08
9.83291e-08
9.83275e-08
9.85458e-08
9.85404e-08
9.86409e-08
9.86099e-08
9.85191e-08
9.85586e-08
9.85594e-08
9.85576e-08
9.85607e-08
9.85404e-08
9.86464e-08
9.86368e-08
9.86348e-08
9.85231e-08
9.86398e-08
9.86409e-08
9.73702e-08
9.73618e-08
9.73691e-08
9.72628e-08
9.72595e-08
9.72643e-08
9.72613e-08
9.73923e-08
9.73654e-08
9.73691e-08
9.72571e-08
9.7092e-08
9.70932e-08
9.70932e-08
9.7092e-08
9.7279e-08
9.72769e-08
9.72628e-08
9.7092e-08
9.70951e-08
9.70958e-08
9.70958e-08
9.70951e-08
9.7092e-08
9.73152e-08
9.73916e-08
9.73702e-08
9.72595e-08
9.70932e-08
9.70958e-08
9.70969e-08
9.7097e-08
9.70958e-08
9.70932e-08
9.73156e-08
9.73897e-08
9.73618e-08
9.72643e-08
9.70932e-08
9.70958e-08
9.70969e-08
9.70969e-08
9.70958e-08
9.70932e-08
9.73139e-08
9.72808e-08
9.72613e-08
9.7092e-08
9.70951e-08
9.70958e-08
9.70958e-08
9.70951e-08
9.7092e-08
9.73166e-08
9.73942e-08
9.73923e-08
9.7279e-08
9.7092e-08
9.70932e-08
9.70932e-08
9.7092e-08
9.73021e-08
9.72972e-08
9.7395e-08
9.73654e-08
9.72769e-08
9.73152e-08
9.73156e-08
9.73139e-08
9.73166e-08
9.72972e-08
9.74008e-08
9.73916e-08
9.73897e-08
9.72808e-08
9.73942e-08
9.7395e-08
9.6171e-08
9.61627e-08
9.61699e-08
9.60657e-08
9.60621e-08
9.60665e-08
9.60639e-08
9.61921e-08
9.61666e-08
9.61699e-08
9.60598e-08
9.59007e-08
9.59016e-08
9.59016e-08
9.59007e-08
9.60814e-08
9.60798e-08
9.60657e-08
9.59007e-08
9.59035e-08
9.59037e-08
9.59037e-08
9.59035e-08
9.59007e-08
9.61175e-08
9.61922e-08
9.6171e-08
9.60621e-08
9.59016e-08
9.59037e-08
9.59044e-08
9.59044e-08
9.59037e-08
9.59016e-08
9.61175e-08
9.61902e-08
9.61627e-08
9.60665e-08
9.59016e-08
9.59037e-08
9.59044e-08
9.59044e-08
9.59037e-08
9.59016e-08
9.61157e-08
9.60835e-08
9.60639e-08
9.59007e-08
9.59035e-08
9.59037e-08
9.59037e-08
9.59035e-08
9.59007e-08
9.61182e-08
9.61945e-08
9.61921e-08
9.60814e-08
9.59007e-08
9.59016e-08
9.59016e-08
9.59007e-08
9.61042e-08
9.60993e-08
9.6195e-08
9.61665e-08
9.60798e-08
9.61175e-08
9.61175e-08
9.61157e-08
9.61182e-08
9.60993e-08
9.62011e-08
9.61922e-08
9.61902e-08
9.60835e-08
9.61945e-08
9.6195e-08
9.50078e-08
9.49995e-08
9.50066e-08
9.49041e-08
9.49003e-08
9.49043e-08
9.49019e-08
9.50282e-08
9.50036e-08
9.50066e-08
9.48979e-08
9.47436e-08
9.47443e-08
9.47443e-08
9.47436e-08
9.49196e-08
9.49182e-08
9.49041e-08
9.47436e-08
9.47462e-08
9.47459e-08
9.47459e-08
9.47462e-08
9.47436e-08
9.49557e-08
9.50288e-08
9.50078e-08
9.49003e-08
9.47443e-08
9.47459e-08
9.47462e-08
9.47462e-08
9.47459e-08
9.47443e-08
9.49554e-08
9.50269e-08
9.49995e-08
9.49043e-08
9.47443e-08
9.47459e-08
9.47462e-08
9.47462e-08
9.47459e-08
9.47443e-08
9.49536e-08
9.49218e-08
9.49019e-08
9.47436e-08
9.47461e-08
9.47459e-08
9.47459e-08
9.47462e-08
9.47436e-08
9.49558e-08
9.5031e-08
9.50282e-08
9.49196e-08
9.47436e-08
9.47443e-08
9.47443e-08
9.47436e-08
9.49422e-08
9.49371e-08
9.50313e-08
9.50036e-08
9.49182e-08
9.49557e-08
9.49554e-08
9.49536e-08
9.49558e-08
9.49372e-08
9.50377e-08
9.50288e-08
9.50269e-08
9.49218e-08
9.5031e-08
9.50313e-08
9.3869e-08
9.38606e-08
9.38678e-08
9.37664e-08
9.37624e-08
9.37661e-08
9.37638e-08
9.3889e-08
9.38649e-08
9.38677e-08
9.376e-08
9.36087e-08
9.36093e-08
9.36093e-08
9.36087e-08
9.37817e-08
9.37807e-08
9.37663e-08
9.36087e-08
9.36112e-08
9.36107e-08
9.36107e-08
9.36113e-08
9.36087e-08
9.38181e-08
9.389e-08
9.38689e-08
9.37623e-08
9.36093e-08
9.36106e-08
9.36106e-08
9.36106e-08
9.36106e-08
9.36093e-08
9.38176e-08
9.3888e-08
9.38606e-08
9.37661e-08
9.36093e-08
9.36106e-08
9.36106e-08
9.36106e-08
9.36106e-08
9.36093e-08
9.38157e-08
9.37839e-08
9.37639e-08
9.36087e-08
9.36112e-08
9.36106e-08
9.36106e-08
9.36112e-08
9.36087e-08
9.38176e-08
9.3892e-08
9.38891e-08
9.37818e-08
9.36086e-08
9.36092e-08
9.36092e-08
9.36086e-08
9.38043e-08
9.37992e-08
9.38921e-08
9.3865e-08
9.37802e-08
9.38179e-08
9.38176e-08
9.38156e-08
9.38175e-08
9.3799e-08
9.38987e-08
9.38899e-08
9.38879e-08
9.37838e-08
9.38919e-08
9.3892e-08
9.27442e-08
9.27358e-08
9.2743e-08
9.26421e-08
9.2638e-08
9.26417e-08
9.26395e-08
9.27641e-08
9.27403e-08
9.27427e-08
9.26356e-08
9.2486e-08
9.24865e-08
9.24865e-08
9.2486e-08
9.26575e-08
9.26556e-08
9.26419e-08
9.24859e-08
9.24886e-08
9.24877e-08
9.24877e-08
9.24886e-08
9.24859e-08
9.26938e-08
9.2765e-08
9.2744e-08
9.26379e-08
9.24864e-08
9.24877e-08
9.24874e-08
9.24874e-08
9.24877e-08
9.24864e-08
9.26934e-08
9.27631e-08
9.27357e-08
9.26416e-08
9.24864e-08
9.24877e-08
9.24874e-08
9.24874e-08
9.24877e-08
9.24864e-08
9.26914e-08
9.26596e-08
9.26394e-08
9.24859e-08
9.24885e-08
9.24877e-08
9.24877e-08
9.24885e-08
9.24859e-08
9.26932e-08
9.2767e-08
9.2764e-08
9.26575e-08
9.24859e-08
9.24864e-08
9.24864e-08
9.24859e-08
9.26799e-08
9.26748e-08
9.27671e-08
9.27402e-08
9.26555e-08
9.26937e-08
9.26933e-08
9.26913e-08
9.2693e-08
9.26743e-08
9.27738e-08
9.27649e-08
9.2763e-08
9.26594e-08
9.27668e-08
9.27669e-08
9.1626e-08
9.16177e-08
9.16249e-08
9.15243e-08
9.15201e-08
9.15238e-08
9.15216e-08
9.16459e-08
9.16222e-08
9.16246e-08
9.15177e-08
9.13688e-08
9.13693e-08
9.13693e-08
9.13688e-08
9.15397e-08
9.15378e-08
9.15241e-08
9.13687e-08
9.13716e-08
9.13705e-08
9.13705e-08
9.13716e-08
9.13688e-08
9.1576e-08
9.16469e-08
9.16259e-08
9.152e-08
9.13692e-08
9.13704e-08
9.137e-08
9.137e-08
9.13705e-08
9.13692e-08
9.15756e-08
9.1645e-08
9.16176e-08
9.15236e-08
9.13692e-08
9.13704e-08
9.137e-08
9.137e-08
9.13704e-08
9.13692e-08
9.15736e-08
9.15417e-08
9.15215e-08
9.13687e-08
9.13715e-08
9.13704e-08
9.13704e-08
9.13715e-08
9.13687e-08
9.15753e-08
9.16488e-08
9.16458e-08
9.15396e-08
9.13687e-08
9.13691e-08
9.13691e-08
9.13687e-08
9.15621e-08
9.15569e-08
9.1649e-08
9.16221e-08
9.15377e-08
9.15759e-08
9.15755e-08
9.15735e-08
9.15751e-08
9.15564e-08
9.16557e-08
9.16468e-08
9.16449e-08
9.15416e-08
9.16487e-08
9.16487e-08
9.05107e-08
9.05023e-08
9.05095e-08
9.0409e-08
9.04049e-08
9.04085e-08
9.04062e-08
9.05303e-08
9.05067e-08
9.05093e-08
9.04025e-08
9.02538e-08
9.02543e-08
9.02543e-08
9.02538e-08
9.04243e-08
9.04237e-08
9.04088e-08
9.02537e-08
9.02568e-08
9.02555e-08
9.02555e-08
9.02568e-08
9.02538e-08
9.04611e-08
9.05317e-08
9.05106e-08
9.04047e-08
9.02542e-08
9.02555e-08
9.02549e-08
9.0255e-08
9.02555e-08
9.02543e-08
9.04605e-08
9.05298e-08
9.05023e-08
9.04084e-08
9.02542e-08
9.02555e-08
9.02549e-08
9.02549e-08
9.02555e-08
9.02543e-08
9.04585e-08
9.04265e-08
9.04063e-08
9.02537e-08
9.02567e-08
9.02554e-08
9.02554e-08
9.02568e-08
9.02538e-08
9.04602e-08
9.05335e-08
9.05305e-08
9.04244e-08
9.02537e-08
9.02542e-08
9.02542e-08
9.02537e-08
9.04469e-08
9.04417e-08
9.05336e-08
9.05068e-08
9.04225e-08
9.04608e-08
9.04604e-08
9.04583e-08
9.046e-08
9.04412e-08
9.05404e-08
9.05315e-08
9.05296e-08
9.04264e-08
9.05334e-08
9.05334e-08
8.93964e-08
8.93881e-08
8.93953e-08
8.92948e-08
8.92906e-08
8.92942e-08
8.92921e-08
8.94163e-08
8.93926e-08
8.9395e-08
8.92883e-08
8.91397e-08
8.91401e-08
8.91401e-08
8.91397e-08
8.93102e-08
8.93083e-08
8.92946e-08
8.91397e-08
8.91425e-08
8.91414e-08
8.91414e-08
8.91425e-08
8.91397e-08
8.93467e-08
8.94173e-08
8.93963e-08
8.92905e-08
8.91401e-08
8.91414e-08
8.91408e-08
8.91408e-08
8.91414e-08
8.91401e-08
8.93462e-08
8.94154e-08
8.9388e-08
8.92942e-08
8.91401e-08
8.91414e-08
8.91408e-08
8.91408e-08
8.91414e-08
8.91401e-08
8.93442e-08
8.93123e-08
8.9292e-08
8.91397e-08
8.91425e-08
8.91413e-08
8.91413e-08
8.91425e-08
8.91397e-08
8.93459e-08
8.94193e-08
8.94162e-08
8.93101e-08
8.91396e-08
8.914e-08
8.914e-08
8.91396e-08
8.93326e-08
8.93274e-08
8.94193e-08
8.93926e-08
8.93083e-08
8.93466e-08
8.93461e-08
8.93441e-08
8.93457e-08
8.9327e-08
8.94261e-08
8.94172e-08
8.94153e-08
8.93121e-08
8.94191e-08
8.94191e-08
8.82825e-08
8.82742e-08
8.82814e-08
8.81809e-08
8.81767e-08
8.81803e-08
8.81782e-08
8.83024e-08
8.82787e-08
8.82811e-08
8.81744e-08
8.80259e-08
8.80263e-08
8.80263e-08
8.80259e-08
8.81963e-08
8.81945e-08
8.81807e-08
8.80258e-08
8.80286e-08
8.80275e-08
8.80275e-08
8.80287e-08
8.80258e-08
8.82328e-08
8.83034e-08
8.82824e-08
8.81766e-08
8.80262e-08
8.80275e-08
8.80269e-08
8.80269e-08
8.80275e-08
8.80262e-08
8.82323e-08
8.83015e-08
8.82741e-08
8.81802e-08
8.80262e-08
8.80275e-08
8.80269e-08
8.80269e-08
8.80275e-08
8.80262e-08
8.82303e-08
8.81984e-08
8.81781e-08
8.80258e-08
8.80286e-08
8.80275e-08
8.80275e-08
8.80286e-08
8.80258e-08
8.8232e-08
8.83053e-08
8.83023e-08
8.81962e-08
8.80258e-08
8.80262e-08
8.80262e-08
8.80258e-08
8.82188e-08
8.82136e-08
8.83054e-08
8.82787e-08
8.81944e-08
8.82327e-08
8.82323e-08
8.82302e-08
8.82319e-08
8.82131e-08
8.83122e-08
8.83033e-08
8.83014e-08
8.81983e-08
8.83052e-08
8.83052e-08
8.71687e-08
8.71603e-08
8.71676e-08
8.70671e-08
8.70629e-08
8.70665e-08
8.70643e-08
8.71883e-08
8.71648e-08
8.71673e-08
8.70606e-08
8.69121e-08
8.69125e-08
8.69125e-08
8.69121e-08
8.70824e-08
8.70818e-08
8.70669e-08
8.6912e-08
8.69149e-08
8.69138e-08
8.69138e-08
8.69149e-08
8.69121e-08
8.71192e-08
8.71898e-08
8.71686e-08
8.70628e-08
8.69124e-08
8.69137e-08
8.69131e-08
8.69131e-08
8.69138e-08
8.69125e-08
8.71186e-08
8.71878e-08
8.71602e-08
8.70664e-08
8.69124e-08
8.69137e-08
8.69131e-08
8.69131e-08
8.69138e-08
8.69125e-08
8.71166e-08
8.70846e-08
8.70642e-08
8.6912e-08
8.69149e-08
8.69138e-08
8.69138e-08
8.69149e-08
8.69121e-08
8.71182e-08
8.71915e-08
8.71883e-08
8.70823e-08
8.69121e-08
8.69125e-08
8.69125e-08
8.69121e-08
8.7105e-08
8.70994e-08
8.71915e-08
8.71647e-08
8.70817e-08
8.71192e-08
8.71186e-08
8.71166e-08
8.71182e-08
8.70998e-08
8.71984e-08
8.71897e-08
8.71878e-08
8.70846e-08
8.71916e-08
8.71917e-08
8.6055e-08
8.60466e-08
8.60538e-08
8.59534e-08
8.59492e-08
8.59528e-08
8.59506e-08
8.60746e-08
8.6051e-08
8.60535e-08
8.59468e-08
8.57984e-08
8.57988e-08
8.57988e-08
8.57984e-08
8.59687e-08
8.5968e-08
8.59532e-08
8.57983e-08
8.58011e-08
8.58e-08
8.58e-08
8.58012e-08
8.57984e-08
8.60055e-08
8.60761e-08
8.60548e-08
8.5949e-08
8.57987e-08
8.58e-08
8.57994e-08
8.57994e-08
8.58001e-08
8.57988e-08
8.60049e-08
8.60741e-08
8.60465e-08
8.59527e-08
8.57987e-08
8.58e-08
8.57994e-08
8.57994e-08
8.58001e-08
8.57988e-08
8.60029e-08
8.59709e-08
8.59505e-08
8.57983e-08
8.58011e-08
8.58e-08
8.58e-08
8.58012e-08
8.57984e-08
8.60045e-08
8.60779e-08
8.60745e-08
8.59686e-08
8.57983e-08
8.57987e-08
8.57987e-08
8.57983e-08
8.59913e-08
8.59861e-08
8.6078e-08
8.60509e-08
8.5968e-08
8.60054e-08
8.60049e-08
8.60028e-08
8.60044e-08
8.59856e-08
8.60847e-08
8.6076e-08
8.6074e-08
8.59708e-08
8.60777e-08
8.60778e-08
8.49413e-08
8.49329e-08
8.49401e-08
8.48397e-08
8.48355e-08
8.48391e-08
8.48369e-08
8.49609e-08
8.49373e-08
8.49399e-08
8.48331e-08
8.46847e-08
8.46851e-08
8.46851e-08
8.46847e-08
8.4855e-08
8.48543e-08
8.48395e-08
8.46846e-08
8.46874e-08
8.46863e-08
8.46863e-08
8.46875e-08
8.46847e-08
8.48918e-08
8.49624e-08
8.49412e-08
8.48354e-08
8.4685e-08
8.46863e-08
8.46857e-08
8.46857e-08
8.46863e-08
8.46851e-08
8.48912e-08
8.49604e-08
8.49328e-08
8.4839e-08
8.4685e-08
8.46863e-08
8.46857e-08
8.46857e-08
8.46863e-08
8.46851e-08
8.48892e-08
8.48572e-08
8.48369e-08
8.46846e-08
8.46874e-08
8.46863e-08
8.46863e-08
8.46874e-08
8.46847e-08
8.48908e-08
8.49642e-08
8.4961e-08
8.4855e-08
8.46846e-08
8.4685e-08
8.4685e-08
8.46846e-08
8.48776e-08
8.48724e-08
8.49643e-08
8.49374e-08
8.48532e-08
8.48915e-08
8.48911e-08
8.4889e-08
8.48906e-08
8.48719e-08
8.4971e-08
8.49621e-08
8.49602e-08
8.4857e-08
8.4964e-08
8.4964e-08
8.38276e-08
8.38192e-08
8.38264e-08
8.3726e-08
8.37218e-08
8.37254e-08
8.37233e-08
8.38474e-08
8.38238e-08
8.38261e-08
8.37194e-08
8.3571e-08
8.35714e-08
8.35714e-08
8.3571e-08
8.37414e-08
8.37395e-08
8.37258e-08
8.35709e-08
8.35737e-08
8.35726e-08
8.35726e-08
8.35737e-08
8.35709e-08
8.37779e-08
8.38485e-08
8.38275e-08
8.37217e-08
8.35713e-08
8.35726e-08
8.3572e-08
8.3572e-08
8.35726e-08
8.35713e-08
8.37774e-08
8.38466e-08
8.38191e-08
8.37253e-08
8.35713e-08
8.35726e-08
8.3572e-08
8.3572e-08
8.35726e-08
8.35713e-08
8.37754e-08
8.37435e-08
8.37232e-08
8.35709e-08
8.35737e-08
8.35726e-08
8.35726e-08
8.35737e-08
8.35709e-08
8.37771e-08
8.38504e-08
8.38473e-08
8.37413e-08
8.35709e-08
8.35713e-08
8.35713e-08
8.35709e-08
8.37638e-08
8.37586e-08
8.38505e-08
8.38237e-08
8.37395e-08
8.37778e-08
8.37773e-08
8.37753e-08
8.37769e-08
8.37582e-08
8.38573e-08
8.38484e-08
8.38465e-08
8.37433e-08
8.38503e-08
8.38503e-08
8.27138e-08
8.27055e-08
8.27127e-08
8.26122e-08
8.2608e-08
8.26116e-08
8.26094e-08
8.27335e-08
8.27099e-08
8.27124e-08
8.26057e-08
8.24572e-08
8.24576e-08
8.24576e-08
8.24572e-08
8.26275e-08
8.26269e-08
8.26121e-08
8.24572e-08
8.246e-08
8.24589e-08
8.24589e-08
8.246e-08
8.24573e-08
8.26644e-08
8.27349e-08
8.27137e-08
8.26079e-08
8.24576e-08
8.24589e-08
8.24583e-08
8.24583e-08
8.24589e-08
8.24576e-08
8.26638e-08
8.2733e-08
8.27054e-08
8.26116e-08
8.24576e-08
8.24589e-08
8.24582e-08
8.24582e-08
8.24589e-08
8.24576e-08
8.26617e-08
8.26298e-08
8.26095e-08
8.24572e-08
8.246e-08
8.24589e-08
8.24589e-08
8.246e-08
8.24572e-08
8.26634e-08
8.27367e-08
8.27336e-08
8.26276e-08
8.24571e-08
8.24575e-08
8.24575e-08
8.24572e-08
8.26501e-08
8.26449e-08
8.27368e-08
8.271e-08
8.26257e-08
8.26641e-08
8.26636e-08
8.26616e-08
8.26632e-08
8.26445e-08
8.27435e-08
8.27347e-08
8.27328e-08
8.26296e-08
8.27365e-08
8.27366e-08
8.16001e-08
8.15917e-08
8.1599e-08
8.14985e-08
8.14943e-08
8.14979e-08
8.14957e-08
8.16197e-08
8.15962e-08
8.15987e-08
8.1492e-08
8.13435e-08
8.13439e-08
8.13439e-08
8.13435e-08
8.15138e-08
8.15132e-08
8.14983e-08
8.13435e-08
8.13463e-08
8.13452e-08
8.13452e-08
8.13463e-08
8.13435e-08
8.15507e-08
8.16212e-08
8.16e-08
8.14942e-08
8.13439e-08
8.13452e-08
8.13445e-08
8.13445e-08
8.13452e-08
8.13439e-08
8.15501e-08
8.16193e-08
8.15917e-08
8.14979e-08
8.13439e-08
8.13452e-08
8.13445e-08
8.13445e-08
8.13452e-08
8.13439e-08
8.1548e-08
8.15161e-08
8.14958e-08
8.13435e-08
8.13463e-08
8.13451e-08
8.13452e-08
8.13463e-08
8.13435e-08
8.15497e-08
8.1623e-08
8.16199e-08
8.15139e-08
8.13434e-08
8.13438e-08
8.13438e-08
8.13434e-08
8.15364e-08
8.15312e-08
8.16231e-08
8.15963e-08
8.1512e-08
8.15503e-08
8.15499e-08
8.15479e-08
8.15495e-08
8.15307e-08
8.16298e-08
8.16209e-08
8.1619e-08
8.15159e-08
8.16228e-08
8.16228e-08
8.04864e-08
8.0478e-08
8.04852e-08
8.03848e-08
8.03806e-08
8.03842e-08
8.0382e-08
8.0506e-08
8.04824e-08
8.0485e-08
8.03783e-08
8.02298e-08
8.02302e-08
8.02302e-08
8.02298e-08
8.04001e-08
8.03995e-08
8.03846e-08
8.02298e-08
8.02326e-08
8.02315e-08
8.02315e-08
8.02326e-08
8.02298e-08
8.04369e-08
8.05075e-08
8.04863e-08
8.03805e-08
8.02302e-08
8.02315e-08
8.02308e-08
8.02308e-08
8.02315e-08
8.02302e-08
8.04364e-08
8.05055e-08
8.0478e-08
8.03842e-08
8.02302e-08
8.02315e-08
8.02308e-08
8.02308e-08
8.02315e-08
8.02302e-08
8.04343e-08
8.04024e-08
8.03821e-08
8.02298e-08
8.02326e-08
8.02314e-08
8.02314e-08
8.02326e-08
8.02298e-08
8.0436e-08
8.05093e-08
8.05062e-08
8.04002e-08
8.02297e-08
8.02301e-08
8.02301e-08
8.02297e-08
8.04227e-08
8.04175e-08
8.05094e-08
8.04826e-08
8.03983e-08
8.04366e-08
8.04362e-08
8.04342e-08
8.04358e-08
8.0417e-08
8.05161e-08
8.05072e-08
8.05053e-08
8.04022e-08
8.05091e-08
8.05091e-08
7.93726e-08
7.93643e-08
7.93713e-08
7.92709e-08
7.92668e-08
7.92704e-08
7.92682e-08
7.93923e-08
7.93687e-08
7.93715e-08
7.92646e-08
7.9116e-08
7.91164e-08
7.91164e-08
7.9116e-08
7.92864e-08
7.92857e-08
7.92711e-08
7.91161e-08
7.91189e-08
7.91177e-08
7.91178e-08
7.91189e-08
7.91161e-08
7.93232e-08
7.93938e-08
7.93727e-08
7.92669e-08
7.91165e-08
7.91178e-08
7.91171e-08
7.91171e-08
7.91178e-08
7.91165e-08
7.93227e-08
7.93918e-08
7.93643e-08
7.92705e-08
7.91165e-08
7.91178e-08
7.91171e-08
7.91171e-08
7.91178e-08
7.91165e-08
7.93206e-08
7.92886e-08
7.92683e-08
7.91161e-08
7.91189e-08
7.91177e-08
7.91177e-08
7.91189e-08
7.91161e-08
7.93223e-08
7.93956e-08
7.93925e-08
7.92865e-08
7.9116e-08
7.91164e-08
7.91164e-08
7.9116e-08
7.9309e-08
7.93038e-08
7.93957e-08
7.93689e-08
7.92846e-08
7.9323e-08
7.93225e-08
7.93205e-08
7.93221e-08
7.93033e-08
7.94024e-08
7.93936e-08
7.93917e-08
7.92885e-08
7.93954e-08
7.93954e-08
7.82589e-08
7.82506e-08
7.82578e-08
7.81574e-08
7.81532e-08
7.81568e-08
7.81545e-08
7.82786e-08
7.8255e-08
7.82576e-08
7.81508e-08
7.80024e-08
7.80028e-08
7.80028e-08
7.80024e-08
7.81727e-08
7.8172e-08
7.81572e-08
7.80023e-08
7.80051e-08
7.80041e-08
7.80041e-08
7.80052e-08
7.80024e-08
7.82095e-08
7.82801e-08
7.82589e-08
7.81531e-08
7.80027e-08
7.8004e-08
7.80034e-08
7.80034e-08
7.80041e-08
7.80028e-08
7.82089e-08
7.82781e-08
7.82505e-08
7.81567e-08
7.80027e-08
7.8004e-08
7.80034e-08
7.80034e-08
7.80041e-08
7.80028e-08
7.82069e-08
7.81749e-08
7.81545e-08
7.80023e-08
7.80052e-08
7.80041e-08
7.80041e-08
7.80052e-08
7.80024e-08
7.82086e-08
7.82819e-08
7.82786e-08
7.81726e-08
7.80024e-08
7.80028e-08
7.80028e-08
7.80024e-08
7.81953e-08
7.81901e-08
7.8282e-08
7.8255e-08
7.8172e-08
7.82095e-08
7.82089e-08
7.82068e-08
7.82084e-08
7.81897e-08
7.82887e-08
7.828e-08
7.82781e-08
7.81748e-08
7.82818e-08
7.82818e-08
7.71453e-08
7.71369e-08
7.71441e-08
7.70437e-08
7.70395e-08
7.70431e-08
7.70409e-08
7.71649e-08
7.71413e-08
7.71439e-08
7.70372e-08
7.68887e-08
7.68891e-08
7.68891e-08
7.68887e-08
7.7059e-08
7.70583e-08
7.70435e-08
7.68886e-08
7.68915e-08
7.68904e-08
7.68904e-08
7.68915e-08
7.68887e-08
7.70958e-08
7.71663e-08
7.71452e-08
7.70394e-08
7.6889e-08
7.68903e-08
7.68897e-08
7.68897e-08
7.68904e-08
7.68891e-08
7.70952e-08
7.71644e-08
7.71368e-08
7.7043e-08
7.6889e-08
7.68903e-08
7.68897e-08
7.68897e-08
7.68904e-08
7.68891e-08
7.70931e-08
7.70612e-08
7.70408e-08
7.68886e-08
7.68915e-08
7.68904e-08
7.68904e-08
7.68915e-08
7.68887e-08
7.70947e-08
7.71681e-08
7.71649e-08
7.7059e-08
7.68887e-08
7.68891e-08
7.68891e-08
7.68887e-08
7.70816e-08
7.7076e-08
7.71681e-08
7.71413e-08
7.70583e-08
7.70958e-08
7.70952e-08
7.70932e-08
7.70948e-08
7.70764e-08
7.7175e-08
7.71663e-08
7.71644e-08
7.70612e-08
7.71682e-08
7.71683e-08
7.60316e-08
7.60233e-08
7.60305e-08
7.593e-08
7.59258e-08
7.59295e-08
7.59273e-08
7.60515e-08
7.60278e-08
7.60302e-08
7.59235e-08
7.5775e-08
7.57754e-08
7.57754e-08
7.5775e-08
7.59454e-08
7.59436e-08
7.59298e-08
7.5775e-08
7.57778e-08
7.57767e-08
7.57767e-08
7.57778e-08
7.5775e-08
7.59819e-08
7.60525e-08
7.60315e-08
7.59257e-08
7.57754e-08
7.57767e-08
7.5776e-08
7.5776e-08
7.57767e-08
7.57754e-08
7.59814e-08
7.60506e-08
7.60232e-08
7.59294e-08
7.57754e-08
7.57767e-08
7.5776e-08
7.5776e-08
7.57767e-08
7.57754e-08
7.59794e-08
7.59474e-08
7.59273e-08
7.5775e-08
7.57778e-08
7.57767e-08
7.57767e-08
7.57778e-08
7.5775e-08
7.5981e-08
7.60544e-08
7.60514e-08
7.59454e-08
7.57749e-08
7.57754e-08
7.57754e-08
7.5775e-08
7.59679e-08
7.59622e-08
7.60544e-08
7.60278e-08
7.59435e-08
7.59819e-08
7.59815e-08
7.59794e-08
7.59811e-08
7.59627e-08
7.60613e-08
7.60525e-08
7.60506e-08
7.59475e-08
7.60545e-08
7.60546e-08
7.4918e-08
7.49096e-08
7.49168e-08
7.48163e-08
7.48122e-08
7.48158e-08
7.48136e-08
7.49378e-08
7.49141e-08
7.49165e-08
7.48098e-08
7.46613e-08
7.46617e-08
7.46617e-08
7.46613e-08
7.48317e-08
7.48299e-08
7.48162e-08
7.46613e-08
7.46641e-08
7.4663e-08
7.4663e-08
7.46641e-08
7.46613e-08
7.48682e-08
7.49388e-08
7.49178e-08
7.4812e-08
7.46617e-08
7.4663e-08
7.46623e-08
7.46623e-08
7.4663e-08
7.46617e-08
7.48678e-08
7.49369e-08
7.49095e-08
7.48157e-08
7.46617e-08
7.4663e-08
7.46623e-08
7.46623e-08
7.4663e-08
7.46617e-08
7.48658e-08
7.48338e-08
7.48136e-08
7.46613e-08
7.46641e-08
7.4663e-08
7.4663e-08
7.46641e-08
7.46613e-08
7.48674e-08
7.49408e-08
7.49377e-08
7.48317e-08
7.46612e-08
7.46616e-08
7.46616e-08
7.46613e-08
7.48542e-08
7.4849e-08
7.49409e-08
7.49141e-08
7.48298e-08
7.48682e-08
7.48677e-08
7.48657e-08
7.48673e-08
7.48485e-08
7.49476e-08
7.49388e-08
7.49369e-08
7.48337e-08
7.49407e-08
7.49407e-08
7.38042e-08
7.37959e-08
7.38031e-08
7.37026e-08
7.36984e-08
7.3702e-08
7.36998e-08
7.38239e-08
7.38003e-08
7.38028e-08
7.36961e-08
7.35476e-08
7.3548e-08
7.3548e-08
7.35476e-08
7.37179e-08
7.37173e-08
7.37025e-08
7.35476e-08
7.35504e-08
7.35493e-08
7.35493e-08
7.35504e-08
7.35476e-08
7.37547e-08
7.38253e-08
7.38042e-08
7.36984e-08
7.3548e-08
7.35493e-08
7.35487e-08
7.35487e-08
7.35493e-08
7.3548e-08
7.37542e-08
7.38233e-08
7.37958e-08
7.3702e-08
7.3548e-08
7.35493e-08
7.35487e-08
7.35487e-08
7.35493e-08
7.3548e-08
7.37521e-08
7.37201e-08
7.36999e-08
7.35476e-08
7.35504e-08
7.35493e-08
7.35493e-08
7.35504e-08
7.35476e-08
7.37538e-08
7.38271e-08
7.3824e-08
7.3718e-08
7.35476e-08
7.3548e-08
7.3548e-08
7.35476e-08
7.37405e-08
7.37353e-08
7.38272e-08
7.38004e-08
7.37162e-08
7.37545e-08
7.37541e-08
7.3752e-08
7.37536e-08
7.37349e-08
7.38339e-08
7.38251e-08
7.38232e-08
7.372e-08
7.3827e-08
7.3827e-08
7.26904e-08
7.26821e-08
7.26891e-08
7.25887e-08
7.25846e-08
7.25883e-08
7.25861e-08
7.27101e-08
7.26865e-08
7.26894e-08
7.25824e-08
7.24339e-08
7.24343e-08
7.24343e-08
7.24339e-08
7.26042e-08
7.26036e-08
7.25889e-08
7.24339e-08
7.24367e-08
7.24356e-08
7.24356e-08
7.24367e-08
7.24339e-08
7.2641e-08
7.27116e-08
7.26905e-08
7.25847e-08
7.24343e-08
7.24356e-08
7.2435e-08
7.2435e-08
7.24356e-08
7.24343e-08
7.26405e-08
7.27096e-08
7.26821e-08
7.25883e-08
7.24343e-08
7.24356e-08
7.2435e-08
7.2435e-08
7.24356e-08
7.24343e-08
7.26384e-08
7.26064e-08
7.25861e-08
7.24339e-08
7.24367e-08
7.24356e-08
7.24356e-08
7.24367e-08
7.24339e-08
7.264e-08
7.27133e-08
7.27102e-08
7.26042e-08
7.2434e-08
7.24344e-08
7.24344e-08
7.2434e-08
7.26269e-08
7.26212e-08
7.27133e-08
7.26866e-08
7.26036e-08
7.26411e-08
7.26405e-08
7.26384e-08
7.26401e-08
7.26217e-08
7.27203e-08
7.27116e-08
7.27096e-08
7.26065e-08
7.27134e-08
7.27135e-08
7.15767e-08
7.15684e-08
7.15754e-08
7.14751e-08
7.1471e-08
7.14746e-08
7.14724e-08
7.15964e-08
7.15729e-08
7.15757e-08
7.14687e-08
7.13202e-08
7.13206e-08
7.13206e-08
7.13202e-08
7.14905e-08
7.14899e-08
7.14752e-08
7.13202e-08
7.1323e-08
7.13219e-08
7.13219e-08
7.1323e-08
7.13202e-08
7.15273e-08
7.15979e-08
7.15768e-08
7.1471e-08
7.13206e-08
7.13219e-08
7.13213e-08
7.13213e-08
7.13219e-08
7.13206e-08
7.15268e-08
7.15959e-08
7.15685e-08
7.14746e-08
7.13206e-08
7.13219e-08
7.13213e-08
7.13213e-08
7.13219e-08
7.13206e-08
7.15247e-08
7.14927e-08
7.14724e-08
7.13202e-08
7.1323e-08
7.13219e-08
7.13219e-08
7.1323e-08
7.13202e-08
7.15263e-08
7.15996e-08
7.15965e-08
7.14905e-08
7.13203e-08
7.13207e-08
7.13207e-08
7.13203e-08
7.15132e-08
7.15075e-08
7.15996e-08
7.15729e-08
7.14899e-08
7.15274e-08
7.15268e-08
7.15248e-08
7.15264e-08
7.1508e-08
7.16066e-08
7.15979e-08
7.1596e-08
7.14928e-08
7.15998e-08
7.15998e-08
7.04632e-08
7.04548e-08
7.0462e-08
7.03616e-08
7.03574e-08
7.0361e-08
7.03589e-08
7.0483e-08
7.04594e-08
7.04618e-08
7.03551e-08
7.02066e-08
7.0207e-08
7.0207e-08
7.02066e-08
7.0377e-08
7.03752e-08
7.03614e-08
7.02065e-08
7.02094e-08
7.02083e-08
7.02083e-08
7.02094e-08
7.02066e-08
7.04135e-08
7.04841e-08
7.04631e-08
7.03573e-08
7.0207e-08
7.02083e-08
7.02076e-08
7.02076e-08
7.02083e-08
7.0207e-08
7.04131e-08
7.04822e-08
7.04548e-08
7.0361e-08
7.0207e-08
7.02082e-08
7.02076e-08
7.02076e-08
7.02083e-08
7.0207e-08
7.0411e-08
7.03791e-08
7.03588e-08
7.02066e-08
7.02093e-08
7.02082e-08
7.02082e-08
7.02094e-08
7.02066e-08
7.04127e-08
7.0486e-08
7.0483e-08
7.0377e-08
7.02065e-08
7.02069e-08
7.02069e-08
7.02065e-08
7.03995e-08
7.03943e-08
7.04861e-08
7.04594e-08
7.03751e-08
7.04135e-08