/*--------------------------------*- C++ -*----------------------------------*\
| =========                 |                                                 |
| \\      /  F ield         | OpenFOAM: The Open Source CFD Toolbox           |
|  \\    /   O peration     | Version:  2312                                  |
|   \\  /    A nd           | Website:  www.openfoam.com                      |
|    \\/     M anipulation  |                                                 |
\*---------------------------------------------------------------------------*/
FoamFile
{
    version     2.0;
    format      ascii;
    arch        "LSB;label=32;scalar=64";
    class       volScalarField;
    location    "750";
    object      epsilon;
}
// * * * * * * * * * * * * * * * * * * * * * * * * * * * * * * * * * * * * * //

dimensions      [0 2 -3 0 0 0 0];

internalField   nonuniform List<scalar> 
43496
(
4.23893e-06
1.90948e-05
1.18669e-06
3.64746e-06
2.29549e-06
9.35007e-07
4.23887e-06
9.56733e-06
2.29545e-06
1.18669e-06
9.35042e-07
3.64772e-06
1.41724e-06
5.65218e-06
5.65076e-06
1.90924e-05
9.56709e-06
1.26559e-05
4.239e-06
4.88463e-06
1.12474e-05
4.88474e-06
1.12453e-05
1.26583e-05
2.2763e-05
7.24532e-06
7.24554e-06
2.27698e-05
1.90901e-05
1.26561e-05
4.23892e-06
1.12473e-05
4.88448e-06
1.12452e-05
4.88454e-06
1.26586e-05
2.27629e-05
7.2437e-06
9.56515e-06
7.24391e-06
2.27697e-05
9.96433e-06
2.23956e-05
2.2396e-05
2.23894e-05
2.23898e-05
9.96396e-06
4.71004e-06
9.93534e-06
5.6522e-06
2.97598e-06
9.9329e-06
2.97615e-06
4.70968e-06
4.70411e-06
9.9307e-06
5.65078e-06
2.97486e-06
2.97504e-06
9.92817e-06
4.70376e-06
1.90876e-05
9.56536e-06
4.50825e-07
6.59555e-07
4.50957e-07
3.64765e-06
2.22354e-06
2.22406e-06
1.66641e-06
2.29567e-06
2.54093e-06
1.54348e-06
2.54118e-06
1.54449e-06
1.66452e-06
1.84534e-06
3.02288e-06
3.02331e-06
1.84371e-06
1.66607e-06
2.29558e-06
1.54354e-06
2.54079e-06
1.5444e-06
2.541e-06
1.6647e-06
1.84488e-06
3.02251e-06
3.64791e-06
2.22373e-06
3.02286e-06
1.84389e-06
2.22425e-06
2.82875e-06
1.41878e-06
1.96841e-06
1.96831e-06
1.96904e-06
1.96914e-06
2.82843e-06
6.51864e-07
1.18288e-06
1.18298e-06
1.4152e-06
6.58012e-07
1.18592e-06
1.18602e-06
1.41813e-06
1.41516e-06
1.41586e-06
1.18299e-06
1.18286e-06
1.18532e-06
1.18525e-06
1.41512e-06
1.41587e-06
1.18281e-06
1.18298e-06
1.18514e-06
1.1853e-06
1.18305e-06
1.18521e-06
1.18527e-06
1.41521e-06
1.41591e-06
1.18285e-06
1.18531e-06
1.1852e-06
1.41593e-06
1.41808e-06
1.18603e-06
1.18587e-06
1.41803e-06
1.18585e-06
1.18602e-06
1.18614e-06
1.41812e-06
1.18589e-06
4.23634e-06
9.54991e-06
9.55469e-06
4.23568e-06
1.9061e-05
1.90716e-05
4.23642e-06
9.55111e-06
9.55628e-06
4.23579e-06
6.51853e-07
6.51993e-07
6.51985e-07
6.56525e-07
6.56541e-07
6.56644e-07
6.56616e-07
2.29402e-06
3.64449e-06
9.2988e-07
1.18369e-06
3.64496e-06
9.31013e-07
2.29376e-06
1.90625e-05
1.9073e-05
2.29408e-06
9.29993e-07
3.64453e-06
1.18378e-06
9.31095e-07
3.64502e-06
2.29376e-06
5.64526e-06
5.64699e-06
1.4145e-06
5.64634e-06
5.6481e-06
9.56152e-06
4.23829e-06
1.90832e-05
9.56271e-06
4.23839e-06
6.57999e-07
6.58138e-07
6.58137e-07
2.2955e-06
3.64703e-06
9.34097e-07
2.29534e-06
9.35071e-07
1.90846e-05
2.29556e-06
9.34217e-07
3.64707e-06
2.29535e-06
9.3515e-07
5.64962e-06
5.65137e-06
1.41717e-06
5.65061e-06
5.65239e-06
1.90587e-05
1.90692e-05
1.9062e-05
1.90725e-05
5.64522e-06
5.64697e-06
1.41442e-06
5.64628e-06
5.64808e-06
1.90803e-05
1.90699e-05
1.90835e-05
1.90732e-05
1.41668e-06
5.64846e-06
5.65026e-06
5.64744e-06
5.64919e-06
4.23628e-06
9.55008e-06
9.55486e-06
4.23562e-06
2.294e-06
3.64433e-06
9.29857e-07
1.1838e-06
3.6448e-06
9.3097e-07
2.29367e-06
2.29394e-06
3.64474e-06
9.29787e-07
1.18371e-06
3.64516e-06
9.30921e-07
2.29361e-06
4.23701e-06
9.56048e-06
9.55576e-06
4.23764e-06
4.23695e-06
9.56065e-06
9.55595e-06
4.23758e-06
2.29452e-06
1.18457e-06
3.64606e-06
9.33083e-07
3.64564e-06
9.32051e-07
2.29478e-06
2.29446e-06
1.18443e-06
3.64642e-06
9.33035e-07
3.64604e-06
9.31978e-07
2.29472e-06
5.64678e-06
5.6454e-06
1.41443e-06
5.64774e-06
5.64648e-06
1.90601e-05
1.90705e-05
1.90826e-05
1.90722e-05
1.41663e-06
5.64992e-06
5.64866e-06
5.649e-06
5.64761e-06
1.90816e-05
1.90712e-05
2.29401e-06
3.64488e-06
9.29841e-07
1.18361e-06
3.64538e-06
9.30949e-07
2.29374e-06
4.23636e-06
9.55073e-06
9.5559e-06
4.23572e-06
2.29398e-06
9.2988e-07
3.64479e-06
1.18378e-06
9.30987e-07
3.64529e-06
2.29366e-06
4.23712e-06
9.56203e-06
9.55698e-06
4.23771e-06
2.29458e-06
1.1844e-06
3.64663e-06
9.3306e-07
3.64618e-06
9.32036e-07
2.29479e-06
4.23705e-06
9.56167e-06
9.55659e-06
4.23765e-06
2.2945e-06
1.18457e-06
9.33097e-07
3.64655e-06
9.32075e-07
3.6461e-06
2.29476e-06
4.23648e-06
9.55069e-06
9.55548e-06
4.23593e-06
2.294e-06
9.29934e-07
3.64442e-06
1.18378e-06
9.31027e-07
3.6449e-06
2.29372e-06
4.23639e-06
9.55042e-06
9.55559e-06
4.23574e-06
2.2946e-06
1.18447e-06
3.64622e-06
9.33122e-07
3.6458e-06
9.32072e-07
2.29481e-06
4.23726e-06
9.56126e-06
9.55655e-06
4.23777e-06
2.29456e-06
1.18466e-06
9.33132e-07
3.64616e-06
9.3213e-07
3.64573e-06
2.29477e-06
4.23707e-06
9.56136e-06
9.55629e-06
4.23768e-06
5.64678e-06
5.6454e-06
1.41447e-06
5.6479e-06
5.64648e-06
1.906e-05
1.90705e-05
1.9084e-05
1.90736e-05
1.41672e-06
5.65007e-06
5.64866e-06
5.649e-06
5.64762e-06
1.90815e-05
1.90712e-05
2.29401e-06
9.29923e-07
3.64492e-06
1.18368e-06
9.31019e-07
3.64542e-06
2.29369e-06
4.23654e-06
9.5509e-06
9.55569e-06
4.23594e-06
4.23649e-06
9.55115e-06
9.55632e-06
4.23596e-06
2.2946e-06
1.18457e-06
9.33204e-07
3.64627e-06
9.32186e-07
3.64584e-06
2.29486e-06
2.29453e-06
1.18443e-06
9.33128e-07
3.64667e-06
9.32117e-07
3.64623e-06
2.29479e-06
4.23728e-06
9.56148e-06
9.55676e-06
4.23783e-06
4.2373e-06
9.5621e-06
9.55701e-06
4.23778e-06
1.90609e-05
1.90714e-05
1.90632e-05
1.90737e-05
1.41672e-06
5.64852e-06
5.65028e-06
5.64748e-06
5.64921e-06
1.90825e-05
1.90721e-05
1.90848e-05
1.90744e-05
1.90809e-05
1.90842e-05
5.64959e-06
5.65134e-06
9.56172e-06
4.23823e-06
3.64687e-06
9.34081e-07
2.29527e-06
3.64728e-06
9.34008e-07
2.29521e-06
5.65116e-06
5.64976e-06
1.90822e-05
3.64741e-06
9.34067e-07
2.29533e-06
9.56235e-06
4.23831e-06
9.34104e-07
3.64733e-06
2.29524e-06
4.23899e-06
9.56231e-06
4.23852e-06
2.29547e-06
9.34159e-07
3.64695e-06
1.1866e-06
2.29531e-06
9.35065e-07
3.64733e-06
4.2389e-06
9.56204e-06
4.23833e-06
9.56703e-06
5.65115e-06
5.64976e-06
1.90822e-05
2.29548e-06
9.34148e-07
3.64746e-06
1.18659e-06
2.29528e-06
9.35073e-07
3.64786e-06
4.23905e-06
9.56249e-06
4.23854e-06
4.239e-06
9.56277e-06
4.23856e-06
9.56776e-06
1.90831e-05
1.90933e-05
1.90854e-05
1.90956e-05
1.26401e-05
1.12337e-05
4.88182e-06
4.23634e-06
1.12307e-05
4.88186e-06
1.26437e-05
2.27383e-05
9.55179e-06
7.23921e-06
7.23903e-06
2.27314e-05
2.27378e-05
7.24031e-06
9.55283e-06
7.2405e-06
2.27447e-05
1.26399e-05
4.23569e-06
1.12273e-05
4.88111e-06
1.12302e-05
4.88107e-06
1.26361e-05
1.9066e-05
1.90666e-05
1.26408e-05
4.88182e-06
1.12336e-05
4.23647e-06
4.88191e-06
1.12314e-05
1.26433e-05
2.27381e-05
9.55337e-06
7.23925e-06
7.23906e-06
2.27311e-05
2.27376e-05
7.24034e-06
9.55406e-06
7.24053e-06
2.27445e-05
1.26394e-05
4.23574e-06
4.88117e-06
1.12278e-05
4.88108e-06
1.12301e-05
1.26369e-05
1.90674e-05
1.90681e-05
9.95765e-06
2.2374e-05
2.23733e-05
2.23678e-05
2.23671e-05
9.95734e-06
4.70063e-06
2.97318e-06
5.64523e-06
9.91439e-06
2.973e-06
9.91629e-06
4.70096e-06
4.70642e-06
2.97435e-06
5.647e-06
9.91883e-06
2.97419e-06
9.92137e-06
4.70671e-06
4.70168e-06
9.91922e-06
5.64638e-06
2.97342e-06
2.9736e-06
9.91734e-06
4.70134e-06
4.70743e-06
9.9243e-06
5.64811e-06
2.9746e-06
2.97477e-06
9.9218e-06
4.70712e-06
9.95554e-06
2.23619e-05
2.23612e-05
2.23682e-05
2.23675e-05
9.95583e-06
2.27638e-05
7.24428e-06
9.56325e-06
2.27569e-05
7.24406e-06
1.26552e-05
4.23826e-06
1.12412e-05
4.884e-06
1.26514e-05
1.12442e-05
4.88395e-06
1.9088e-05
2.27635e-05
7.24431e-06
9.56492e-06
2.27567e-05
7.24409e-06
1.26546e-05
4.23833e-06
4.88406e-06
1.12419e-05
1.26522e-05
4.88395e-06
1.1244e-05
1.90894e-05
9.96473e-06
2.2397e-05
2.23962e-05
2.23908e-05
2.23901e-05
9.96436e-06
4.70333e-06
2.97472e-06
9.92607e-06
5.64958e-06
4.70371e-06
2.97453e-06
9.92789e-06
4.70911e-06
2.9759e-06
9.93051e-06
5.65135e-06
4.70946e-06
2.97572e-06
9.93299e-06
9.96264e-06
2.23851e-05
2.23844e-05
9.963e-06
2.23913e-05
2.23906e-05
4.70433e-06
9.93062e-06
5.65065e-06
2.97486e-06
2.97506e-06
9.92886e-06
4.70397e-06
4.71011e-06
9.93586e-06
5.65242e-06
2.97605e-06
2.97624e-06
9.93333e-06
4.70976e-06
1.90637e-05
1.90643e-05
1.90669e-05
1.90676e-05
9.95768e-06
2.23735e-05
2.23728e-05
2.23672e-05
2.23665e-05
9.95736e-06
4.70048e-06
2.97311e-06
5.64517e-06
9.91405e-06
9.91597e-06
2.97293e-06
4.70085e-06
4.70629e-06
2.97426e-06
5.64697e-06
9.91882e-06
9.92138e-06
2.97409e-06
4.70663e-06
4.70157e-06
9.91901e-06
5.64634e-06
2.97335e-06
9.91688e-06
4.70119e-06
2.97353e-06
4.70735e-06
9.92431e-06
5.64808e-06
2.9745e-06
9.92179e-06
4.70699e-06
2.97468e-06
9.95555e-06
2.23614e-05
2.23607e-05
2.23677e-05
2.2367e-05
9.95586e-06
1.90754e-05
1.90748e-05
1.90787e-05
1.9078e-05
9.95915e-06
2.2373e-05
2.23723e-05
9.95948e-06
2.23793e-05
2.23786e-05
4.70295e-06
2.97412e-06
5.64852e-06
9.92496e-06
9.92244e-06
2.97432e-06
4.70256e-06
4.70873e-06
2.97527e-06
5.65027e-06
9.93008e-06
9.92758e-06
2.97546e-06
4.70836e-06
4.70188e-06
9.91967e-06
2.97394e-06
5.64738e-06
4.70227e-06
9.92204e-06
2.97375e-06
4.70768e-06
9.92473e-06
2.97508e-06
5.64917e-06
4.70805e-06
9.92722e-06
2.9749e-06
9.96127e-06
2.2385e-05
2.23843e-05
2.23788e-05
2.23781e-05
9.96093e-06
1.26402e-05
1.12336e-05
4.8817e-06
4.23628e-06
1.12307e-05
4.88172e-06
1.26439e-05
2.27386e-05
9.55195e-06
7.23788e-06
7.23772e-06
2.27317e-05
2.27381e-05
7.239e-06
9.55301e-06
7.23916e-06
2.27451e-05
1.264e-05
4.23563e-06
1.12272e-05
4.88098e-06
1.12301e-05
4.88096e-06
1.26364e-05
1.26475e-05
1.12343e-05
4.88259e-06
4.237e-06
1.26439e-05
1.12372e-05
4.88254e-06
2.27506e-05
9.55865e-06
7.24283e-06
2.27575e-05
7.24303e-06
2.27511e-05
7.24177e-06
9.55764e-06
2.27442e-05
7.24157e-06
1.26478e-05
4.23766e-06
1.12407e-05
4.88325e-06
1.26513e-05
1.12378e-05
4.88331e-06
1.26477e-05
1.12342e-05
4.88245e-06
4.23694e-06
1.26441e-05
1.12371e-05
4.88242e-06
2.2751e-05
9.55884e-06
7.24152e-06
7.2417e-06
2.27578e-05
2.27515e-05
7.24044e-06
9.5578e-06
2.27446e-05
7.24027e-06
1.26479e-05
4.2376e-06
1.12406e-05
4.88314e-06
1.12377e-05
4.88317e-06
1.26515e-05
9.95771e-06
2.23732e-05
2.23738e-05
2.2367e-05
2.23675e-05
9.95737e-06
4.70637e-06
2.97421e-06
5.64662e-06
9.91878e-06
9.92068e-06
2.97403e-06
4.70668e-06
4.70055e-06
2.97318e-06
5.64537e-06
9.91453e-06
2.973e-06
9.91647e-06
4.7009e-06
4.7074e-06
9.92361e-06
5.6479e-06
2.97445e-06
9.92173e-06
2.97463e-06
4.70707e-06
4.70162e-06
9.91949e-06
5.64651e-06
2.97341e-06
2.9736e-06
9.91737e-06
4.70126e-06
9.95556e-06
2.23611e-05
2.23617e-05
2.23674e-05
2.2368e-05
9.95589e-06
1.9065e-05
1.90656e-05
1.90777e-05
1.90771e-05
9.95917e-06
2.23728e-05
2.23733e-05
9.95952e-06
2.2379e-05
2.23796e-05
4.70879e-06
2.97522e-06
5.65009e-06
9.92944e-06
2.97541e-06
9.92759e-06
4.70844e-06
4.70301e-06
2.97418e-06
5.64869e-06
9.92551e-06
9.92295e-06
2.97438e-06
4.70263e-06
4.70776e-06
9.9247e-06
2.97503e-06
5.64884e-06
2.97485e-06
4.7081e-06
9.92659e-06
4.70195e-06
9.9202e-06
2.974e-06
5.64758e-06
4.70232e-06
9.92251e-06
2.97381e-06
9.96131e-06
2.23848e-05
2.23854e-05
2.23785e-05
2.23791e-05
9.96095e-06
1.90767e-05
1.90761e-05
1.26409e-05
1.12335e-05
4.88166e-06
4.23639e-06
1.12312e-05
4.88171e-06
1.26434e-05
2.2738e-05
9.55298e-06
7.23763e-06
7.23743e-06
2.27311e-05
2.27375e-05
7.23871e-06
9.55368e-06
7.2389e-06
2.27444e-05
1.26396e-05
4.23569e-06
1.12277e-05
4.88098e-06
1.123e-05
4.88093e-06
1.2637e-05
1.26471e-05
4.88264e-06
1.12348e-05
4.23707e-06
1.26446e-05
4.88254e-06
1.12371e-05
2.27504e-05
9.55986e-06
7.24285e-06
2.27572e-05
7.24306e-06
2.27509e-05
7.2418e-06
9.55917e-06
2.2744e-05
7.2416e-06
1.26484e-05
4.23776e-06
4.88326e-06
1.12406e-05
1.26509e-05
4.88336e-06
1.12383e-05
1.26472e-05
1.12347e-05
4.88244e-06
4.23702e-06
1.26447e-05
1.1237e-05
4.88239e-06
2.27503e-05
9.55946e-06
7.24123e-06
7.24143e-06
2.27571e-05
2.27508e-05
7.24017e-06
9.55879e-06
2.27439e-05
7.23998e-06
1.26486e-05
4.23769e-06
1.12405e-05
4.8831e-06
1.12382e-05
4.88316e-06
1.2651e-05
1.26402e-05
4.88176e-06
1.12334e-05
4.2366e-06
4.88201e-06
1.12312e-05
1.26427e-05
2.27371e-05
9.55257e-06
7.23904e-06
7.23864e-06
2.27299e-05
2.27363e-05
7.23992e-06
9.55362e-06
7.24032e-06
2.27435e-05
1.26389e-05
4.23581e-06
4.88127e-06
1.12277e-05
4.88103e-06
1.123e-05
1.26363e-05
1.26408e-05
1.12334e-05
4.88163e-06
4.23641e-06
1.1231e-05
4.8817e-06
1.26433e-05
2.2738e-05
9.55267e-06
7.23743e-06
7.23725e-06
2.2731e-05
2.27375e-05
7.23853e-06
9.55337e-06
7.23872e-06
2.27444e-05
1.26394e-05
4.23571e-06
1.12276e-05
4.88095e-06
1.12298e-05
4.88089e-06
1.26369e-05
1.26465e-05
4.88274e-06
1.12347e-05
4.23714e-06
1.2644e-05
4.88248e-06
1.1237e-05
2.27491e-05
9.55944e-06
7.24244e-06
7.24285e-06
2.27562e-05
2.27499e-05
7.24159e-06
9.55842e-06
2.27427e-05
7.24119e-06
1.26479e-05
4.2379e-06
4.88319e-06
1.12404e-05
4.88345e-06
1.12382e-05
1.26504e-05
1.26471e-05
1.12343e-05
4.88243e-06
4.23704e-06
1.26446e-05
1.12371e-05
4.88236e-06
2.27503e-05
9.55916e-06
7.24105e-06
7.24125e-06
2.27572e-05
2.27508e-05
7.23999e-06
9.55848e-06
2.27439e-05
7.23979e-06
1.26484e-05
4.23771e-06
1.12406e-05
4.88307e-06
1.12377e-05
4.88315e-06
1.26509e-05
9.95722e-06
2.23726e-05
2.23731e-05
2.23664e-05
2.23668e-05
9.95688e-06
4.70631e-06
2.97423e-06
5.64679e-06
9.91843e-06
9.92096e-06
2.9741e-06
4.70663e-06
4.70039e-06
2.97315e-06
5.64537e-06
9.91375e-06
2.97298e-06
9.91629e-06
4.7007e-06
4.70734e-06
9.92389e-06
5.6479e-06
2.97452e-06
9.9214e-06
2.97465e-06
4.70702e-06
4.70142e-06
9.91922e-06
5.64652e-06
2.97339e-06
2.97357e-06
9.91672e-06
4.7011e-06
9.95507e-06
2.23605e-05
2.2361e-05
2.23668e-05
2.23672e-05
9.9554e-06
1.90649e-05
1.90656e-05
1.90791e-05
1.90785e-05
9.95868e-06
2.23722e-05
2.23726e-05
9.95902e-06
2.23784e-05
2.23788e-05
4.70873e-06
2.97529e-06
5.65008e-06
9.92967e-06
2.97544e-06
9.92719e-06
4.70839e-06
4.7028e-06
2.97417e-06
5.6487e-06
9.92501e-06
9.92252e-06
2.97435e-06
4.70246e-06
4.70771e-06
9.92434e-06
2.97506e-06
5.649e-06
2.97492e-06
4.70804e-06
9.92681e-06
4.70179e-06
9.91966e-06
2.97397e-06
5.64758e-06
4.70212e-06
9.92213e-06
2.97379e-06
9.96081e-06
2.23842e-05
2.23846e-05
2.2378e-05
2.23784e-05
9.96045e-06
1.90767e-05
1.9076e-05
1.26399e-05
4.88188e-06
1.12338e-05
4.23662e-06
4.8819e-06
1.12308e-05
1.26436e-05
2.27374e-05
9.55278e-06
7.23887e-06
7.2387e-06
2.27305e-05
2.27369e-05
7.23998e-06
9.55383e-06
7.24015e-06
2.27438e-05
1.26397e-05
4.23587e-06
4.88116e-06
1.12273e-05
4.88114e-06
1.12302e-05
1.2636e-05
1.26409e-05
4.88172e-06
1.12336e-05
4.23664e-06
4.88187e-06
1.12306e-05
1.26434e-05
2.27389e-05
9.55341e-06
7.23792e-06
7.23772e-06
2.2732e-05
2.27384e-05
7.239e-06
9.5541e-06
7.2392e-06
2.27453e-05
1.26396e-05
4.23582e-06
4.88112e-06
1.12271e-05
4.88098e-06
1.12301e-05
1.2637e-05
1.26474e-05
4.88264e-06
1.12343e-05
4.23719e-06
1.26438e-05
4.8826e-06
1.12373e-05
2.27497e-05
9.55967e-06
7.24249e-06
7.24269e-06
2.27566e-05
2.27502e-05
7.24143e-06
9.55863e-06
2.27433e-05
7.24124e-06
1.26476e-05
4.23792e-06
4.88331e-06
1.12407e-05
4.88335e-06
1.12378e-05
1.26512e-05
1.26472e-05
4.8826e-06
1.12341e-05
4.23714e-06
1.26447e-05
4.88245e-06
1.12371e-05
2.27512e-05
9.55989e-06
7.24152e-06
7.24174e-06
2.27581e-05
2.27517e-05
7.24048e-06
9.55922e-06
2.27448e-05
7.24026e-06
1.26486e-05
4.23794e-06
4.88316e-06
1.12406e-05
4.88332e-06
1.12376e-05
1.2651e-05
1.90659e-05
1.90665e-05
1.90682e-05
1.90688e-05
9.95913e-06
2.23736e-05
2.23729e-05
9.95945e-06
2.23798e-05
2.23791e-05
4.70305e-06
2.97419e-06
5.64855e-06
9.92505e-06
4.7027e-06
2.97436e-06
9.92319e-06
4.70881e-06
2.97538e-06
5.6503e-06
9.93012e-06
4.70848e-06
2.97555e-06
9.9276e-06
4.70203e-06
9.9203e-06
2.974e-06
5.64746e-06
4.70238e-06
2.97382e-06
9.92219e-06
4.70781e-06
9.92476e-06
2.97517e-06
5.6492e-06
4.70813e-06
2.975e-06
9.92719e-06
9.96123e-06
2.23856e-05
2.23849e-05
9.96091e-06
2.23794e-05
2.23787e-05
1.90776e-05
1.9077e-05
1.90799e-05
1.90793e-05
1.90857e-05
1.9089e-05
4.70321e-06
2.97469e-06
9.92541e-06
5.64951e-06
4.70362e-06
9.92775e-06
2.97448e-06
4.70901e-06
2.97583e-06
9.93057e-06
5.65131e-06
4.70939e-06
9.93285e-06
2.97563e-06
9.96269e-06
2.23845e-05
2.23838e-05
9.96304e-06
2.23908e-05
2.239e-05
2.27641e-05
7.24295e-06
9.56344e-06
2.27573e-05
7.24277e-06
1.26554e-05
4.2382e-06
1.12412e-05
4.88387e-06
1.12439e-05
1.26517e-05
4.88384e-06
4.7091e-06
2.97578e-06
9.93048e-06
5.65098e-06
9.93225e-06
4.70945e-06
2.97559e-06
4.70331e-06
2.97475e-06
9.92585e-06
5.64974e-06
2.97456e-06
4.70367e-06
9.92847e-06
9.96271e-06
2.23843e-05
2.23848e-05
2.23905e-05
9.96309e-06
2.23911e-05
2.27634e-05
7.24268e-06
9.5645e-06
2.27566e-05
7.24247e-06
1.26548e-05
4.23827e-06
1.12417e-05
4.88385e-06
1.12439e-05
1.26523e-05
4.88379e-06
1.26554e-05
4.23913e-06
1.12472e-05
4.88484e-06
1.12451e-05
2.27625e-05
7.24409e-06
9.56406e-06
7.24367e-06
2.27554e-05
1.26542e-05
4.23839e-06
4.88415e-06
1.12417e-05
4.88389e-06
1.26516e-05
1.12439e-05
2.27617e-05
1.26559e-05
4.23894e-06
1.12474e-05
4.88445e-06
1.12446e-05
4.88453e-06
1.26588e-05
2.27635e-05
7.2425e-06
9.56421e-06
2.27566e-05
7.24228e-06
1.26547e-05
4.2383e-06
1.12412e-05
4.88384e-06
1.26521e-05
1.1244e-05
4.88377e-06
2.27629e-05
7.24351e-06
9.56486e-06
7.24373e-06
2.27697e-05
4.70904e-06
2.9758e-06
9.93013e-06
5.65114e-06
9.93251e-06
4.70939e-06
2.97564e-06
4.70312e-06
2.9747e-06
9.92539e-06
5.64974e-06
2.97453e-06
4.70346e-06
9.92783e-06
9.96221e-06
2.23837e-05
2.23841e-05
2.23899e-05
9.96258e-06
2.23903e-05
1.9087e-05
1.2655e-05
4.23915e-06
4.88468e-06
1.12476e-05
4.88473e-06
1.12447e-05
1.26589e-05
2.27629e-05
7.24393e-06
9.56433e-06
7.24373e-06
2.2756e-05
1.2655e-05
4.23844e-06
4.88405e-06
1.12413e-05
4.884e-06
1.26514e-05
1.12442e-05
2.27623e-05
7.24495e-06
7.24516e-06
2.27691e-05
1.2656e-05
4.23917e-06
4.88454e-06
1.12475e-05
4.8847e-06
1.12445e-05
1.26589e-05
2.27644e-05
7.24299e-06
9.56494e-06
2.27575e-05
7.24276e-06
1.26548e-05
4.2384e-06
4.88402e-06
1.12411e-05
1.26522e-05
4.88386e-06
1.1244e-05
2.27638e-05
7.24398e-06
9.56559e-06
7.24422e-06
2.27707e-05
1.90879e-05
1.90885e-05
1.90902e-05
1.90908e-05
4.41777e-07
4.41713e-07
6.53454e-07
4.4367e-07
4.43596e-07
2.35632e-07
2.33702e-07
2.82692e-06
1.96718e-06
1.96741e-06
1.41375e-06
1.96649e-06
1.96671e-06
2.82723e-06
4.49152e-07
4.49084e-07
2.43236e-07
2.41362e-07
2.82819e-06
1.96868e-06
1.96891e-06
1.41661e-06
2.82853e-06
1.96795e-06
1.96818e-06
2.82686e-06
1.96716e-06
1.96738e-06
1.41365e-06
1.96648e-06
1.96668e-06
2.82717e-06
2.82819e-06
1.41739e-06
1.96762e-06
1.96783e-06
1.96833e-06
1.96855e-06
2.82787e-06
2.82689e-06
1.96728e-06
1.96722e-06
1.41367e-06
1.96652e-06
1.96659e-06
2.82721e-06
2.82823e-06
1.41734e-06
1.96774e-06
1.96767e-06
1.96845e-06
1.96838e-06
2.8279e-06
2.82684e-06
1.96731e-06
1.96722e-06
1.4137e-06
1.96651e-06
1.96661e-06
2.82714e-06
2.82817e-06
1.41744e-06
1.96776e-06
1.96767e-06
1.96848e-06
1.96839e-06
2.82785e-06
2.82824e-06
1.41744e-06
1.96763e-06
1.96786e-06
2.82794e-06
1.96834e-06
1.96858e-06
2.82817e-06
1.96868e-06
1.96889e-06
1.41654e-06
2.82849e-06
1.96796e-06
1.96816e-06
2.82819e-06
1.96879e-06
1.96872e-06
1.41656e-06
1.968e-06
2.82853e-06
1.96808e-06
2.82815e-06
1.96882e-06
1.96873e-06
1.41659e-06
1.968e-06
2.82847e-06
1.96809e-06
4.41761e-07
4.41751e-07
6.53468e-07
4.43664e-07
4.43628e-07
2.35642e-07
2.33712e-07
4.41855e-07
4.41842e-07
6.53575e-07
4.43736e-07
4.43732e-07
2.35706e-07
2.33776e-07
4.41892e-07
4.41809e-07
6.53547e-07
4.4375e-07
4.43729e-07
2.35719e-07
2.33778e-07
6.55014e-07
4.47356e-07
4.47282e-07
4.45533e-07
4.45472e-07
2.37559e-07
2.39462e-07
6.55001e-07
4.47351e-07
4.47313e-07
4.45517e-07
4.45509e-07
2.37569e-07
2.39471e-07
6.55143e-07
4.47419e-07
4.47418e-07
4.45613e-07
4.45598e-07
2.37634e-07
2.39537e-07
6.55136e-07
4.47432e-07
4.4742e-07
4.45653e-07
4.4556e-07
2.37634e-07
2.3955e-07
1.66437e-06
2.53951e-06
1.54157e-06
2.29419e-06
2.53973e-06
1.54244e-06
1.66302e-06
1.84155e-06
2.22243e-06
3.6443e-06
3.02095e-06
2.22194e-06
3.02056e-06
1.84268e-06
1.84319e-06
3.02103e-06
3.64515e-06
2.22229e-06
2.22279e-06
3.02142e-06
1.84207e-06
1.6625e-06
2.2936e-06
2.53933e-06
1.54186e-06
2.53912e-06
1.54099e-06
1.66388e-06
1.66443e-06
1.54162e-06
2.53961e-06
2.29419e-06
1.54246e-06
2.5398e-06
1.66319e-06
1.84165e-06
2.22245e-06
3.64436e-06
3.02098e-06
2.22198e-06
3.02066e-06
1.84274e-06
1.84325e-06
3.02113e-06
3.64519e-06
2.22234e-06
2.22282e-06
3.02146e-06
1.8422e-06
1.66263e-06
2.29366e-06
1.54189e-06
2.53941e-06
1.54104e-06
2.53922e-06
1.66394e-06
2.82759e-06
1.41597e-06
1.96689e-06
1.96711e-06
1.96759e-06
1.96782e-06
2.82728e-06
4.49136e-07
4.49129e-07
4.50855e-07
2.43245e-07
2.41372e-07
4.49228e-07
4.49215e-07
4.50969e-07
2.4331e-07
2.41437e-07
4.49274e-07
4.4917e-07
6.59552e-07
4.50966e-07
4.50988e-07
2.43325e-07
2.41436e-07
1.66603e-06
2.29568e-06
2.54089e-06
1.54359e-06
2.54112e-06
1.54445e-06
1.66486e-06
1.84359e-06
2.22376e-06
3.02274e-06
3.64683e-06
1.84456e-06
2.22324e-06
3.02234e-06
1.66451e-06
2.29516e-06
2.5408e-06
1.54399e-06
1.66567e-06
2.54057e-06
1.54312e-06
1.66615e-06
2.29569e-06
1.54364e-06
2.54098e-06
1.54449e-06
2.5412e-06
1.66494e-06
1.84366e-06
2.22378e-06
3.02278e-06
3.64687e-06
1.84463e-06
2.22327e-06
3.02244e-06
1.66459e-06
2.29522e-06
1.54403e-06
2.54088e-06
1.66576e-06
1.54318e-06
2.54068e-06
1.84505e-06
3.02284e-06
3.02318e-06
1.84407e-06
2.82882e-06
1.41877e-06
1.96824e-06
1.96846e-06
1.96899e-06
1.96922e-06
2.82848e-06
2.82753e-06
1.41594e-06
1.96689e-06
1.96708e-06
2.82722e-06
1.96758e-06
1.96779e-06
2.82755e-06
1.41515e-06
1.96796e-06
1.96818e-06
2.82787e-06
1.96727e-06
1.96747e-06
1.66436e-06
2.53954e-06
1.54154e-06
2.2941e-06
2.53975e-06
1.54239e-06
1.66309e-06
1.84159e-06
2.22238e-06
3.64415e-06
3.02098e-06
3.02062e-06
2.2219e-06
1.84269e-06
1.84321e-06
3.02109e-06
3.64499e-06
2.22226e-06
3.02146e-06
2.22275e-06
1.84215e-06
1.66254e-06
2.29357e-06
2.53935e-06
1.54181e-06
2.53914e-06
1.54096e-06
1.66386e-06
1.66424e-06
2.53939e-06
1.54148e-06
2.29405e-06
2.53958e-06
1.54233e-06
1.663e-06
1.84146e-06
2.22259e-06
3.6445e-06
3.02066e-06
3.02033e-06
2.2221e-06
1.84255e-06
1.84306e-06
3.0208e-06
3.6454e-06
2.22246e-06
3.02114e-06
1.84201e-06
2.22295e-06
1.66244e-06
2.29351e-06
2.53918e-06
1.54175e-06
2.539e-06
1.5409e-06
1.66374e-06
1.66362e-06
2.54014e-06
1.54295e-06
2.2944e-06
1.66482e-06
2.53991e-06
1.54209e-06
1.84416e-06
2.2229e-06
3.64626e-06
3.02199e-06
2.22341e-06
3.02236e-06
1.84315e-06
1.84268e-06
3.02192e-06
2.22309e-06
3.64544e-06
2.22259e-06
1.84369e-06
3.02155e-06
1.66527e-06
2.2949e-06
2.54028e-06
1.54261e-06
2.5405e-06
1.54347e-06
1.66406e-06
1.66351e-06
2.53996e-06
1.54289e-06
2.29434e-06
1.6647e-06
2.53977e-06
1.54203e-06
1.84402e-06
2.2231e-06
3.64667e-06
3.0217e-06
3.02204e-06
2.22362e-06
1.84304e-06
1.84255e-06
3.02159e-06
2.2233e-06
3.6458e-06
1.84355e-06
3.02126e-06
2.22279e-06
1.66514e-06
2.29484e-06
2.54013e-06
1.54255e-06
2.54032e-06
1.54341e-06
1.66397e-06
2.82757e-06
1.41589e-06
1.96699e-06
1.96693e-06
1.96763e-06
1.9677e-06
2.82724e-06
2.82758e-06
1.41517e-06
1.96808e-06
1.96802e-06
1.96737e-06
2.82791e-06
1.96731e-06
1.66448e-06
2.53956e-06
1.54149e-06
2.29418e-06
2.53978e-06
1.54244e-06
1.66282e-06
1.84148e-06
2.22271e-06
3.64472e-06
3.0211e-06
3.02072e-06
2.22222e-06
1.84279e-06
1.84335e-06
3.02119e-06
3.64554e-06
2.22258e-06
3.02158e-06
2.22308e-06
1.84192e-06
1.66242e-06
2.29359e-06
2.53938e-06
1.54185e-06
2.53916e-06
1.54092e-06
1.66392e-06
1.66425e-06
1.54151e-06
2.53943e-06
2.29409e-06
1.54237e-06
2.53962e-06
1.66309e-06
1.84151e-06
2.22264e-06
3.64464e-06
3.02069e-06
3.02036e-06
2.22218e-06
1.84258e-06
1.8431e-06
3.02083e-06
3.64546e-06
2.22254e-06
3.02115e-06
1.84207e-06
2.22301e-06
1.66257e-06
2.29355e-06
1.54179e-06
2.53923e-06
1.54093e-06
2.53904e-06
1.66375e-06
1.66321e-06
2.54016e-06
1.54299e-06
2.29441e-06
1.66512e-06
2.53993e-06
1.54203e-06
1.84457e-06
2.22323e-06
3.64681e-06
3.02208e-06
2.22374e-06
3.02248e-06
1.8428e-06
1.84234e-06
3.02204e-06
2.22342e-06
3.64601e-06
2.22291e-06
1.84395e-06
3.02164e-06
1.66572e-06
2.29496e-06
2.54029e-06
1.54255e-06
2.54052e-06
1.54352e-06
1.66365e-06
1.66353e-06
1.54291e-06
2.54e-06
2.29438e-06
1.66472e-06
1.54206e-06
2.53981e-06
1.84405e-06
2.22318e-06
3.64672e-06
3.02172e-06
3.02204e-06
2.22367e-06
1.84308e-06
1.8426e-06
3.0216e-06
2.22335e-06
3.64593e-06
1.84358e-06
3.02128e-06
2.22287e-06
1.66518e-06
2.29488e-06
1.54258e-06
2.54016e-06
1.54344e-06
2.54035e-06
1.664e-06
1.66432e-06
1.54156e-06
2.53943e-06
2.29415e-06
1.54241e-06
2.53964e-06
1.66303e-06
1.84147e-06
2.22238e-06
3.64424e-06
3.02058e-06
2.22189e-06
3.02021e-06
1.84258e-06
1.8431e-06
3.02069e-06
3.64508e-06
2.22225e-06
2.22275e-06
3.02106e-06
1.84201e-06
1.66248e-06
2.29357e-06
1.54183e-06
2.53924e-06
1.54098e-06
2.53903e-06
1.66382e-06
1.66355e-06
2.5401e-06
1.54299e-06
2.29443e-06
1.66483e-06
2.53988e-06
1.54212e-06
1.84412e-06
2.22294e-06
3.64642e-06
3.02193e-06
1.84312e-06
2.22346e-06
3.02232e-06
1.8426e-06
3.02188e-06
2.22313e-06
3.6456e-06
1.84367e-06
2.22263e-06
3.02148e-06
1.66526e-06
2.29498e-06
2.54023e-06
1.54264e-06
1.66406e-06
2.54046e-06
1.5435e-06
1.66356e-06
1.54296e-06
2.54002e-06
2.2944e-06
1.66478e-06
1.54211e-06
2.5398e-06
1.84404e-06
2.22289e-06
3.64634e-06
3.02159e-06
3.02196e-06
2.2234e-06
1.84305e-06
1.84254e-06
3.02152e-06
2.22309e-06
3.64554e-06
1.84358e-06
3.02114e-06
2.22258e-06
1.66522e-06
2.29494e-06
1.54263e-06
2.54015e-06
1.54348e-06
2.54038e-06
1.66402e-06
2.8275e-06
1.41598e-06
1.96702e-06
1.96693e-06
1.96763e-06
1.96773e-06
2.8272e-06
2.82754e-06
1.4152e-06
1.96811e-06
1.96802e-06
1.9674e-06
2.82785e-06
1.96731e-06
1.6643e-06
1.54155e-06
2.53943e-06
2.29412e-06
1.5424e-06
2.53964e-06
1.66304e-06
1.84152e-06
2.22272e-06
3.64476e-06
3.02075e-06
2.22224e-06
3.02041e-06
1.84261e-06
1.84313e-06
3.02088e-06
3.64559e-06
2.2226e-06
2.22309e-06
3.02123e-06
1.84207e-06
1.66248e-06
2.29358e-06
1.54182e-06
2.53924e-06
1.54097e-06
2.53903e-06
1.6638e-06
1.6637e-06
1.54302e-06
2.54018e-06
2.29449e-06
1.66489e-06
1.54217e-06
2.53998e-06
1.8442e-06
2.22298e-06
3.64646e-06
3.02202e-06
1.84323e-06
2.22348e-06
3.02236e-06
1.84273e-06
3.02191e-06
2.22316e-06
3.64565e-06
1.84374e-06
2.22267e-06
3.02159e-06
1.66533e-06
2.29499e-06
1.54269e-06
2.54035e-06
1.66416e-06
1.54354e-06
2.54054e-06
1.66356e-06
1.54295e-06
2.54002e-06
2.29441e-06
1.66475e-06
1.5421e-06
2.5398e-06
1.84407e-06
2.22325e-06
3.64686e-06
3.02178e-06
3.02213e-06
2.22375e-06
1.84308e-06
1.8426e-06
3.02169e-06
2.22343e-06
3.64605e-06
1.84361e-06
3.02133e-06
2.22293e-06
1.6652e-06
2.29491e-06
1.54262e-06
2.54016e-06
1.54347e-06
2.54038e-06
1.66401e-06
2.82761e-06
1.41523e-06
1.96798e-06
1.96821e-06
2.82793e-06
1.96728e-06
1.9675e-06
1.84355e-06
2.22371e-06
3.02278e-06
3.64666e-06
3.02241e-06
1.84463e-06
2.22319e-06
1.66444e-06
2.29513e-06
2.54084e-06
1.54396e-06
2.54061e-06
1.66572e-06
1.54311e-06
1.84346e-06
2.22392e-06
3.02246e-06
3.64702e-06
1.84444e-06
3.02212e-06
2.2234e-06
1.66439e-06
2.29508e-06
2.54066e-06
1.5439e-06
1.66555e-06
2.54047e-06
1.54305e-06
1.84333e-06
2.22404e-06
3.02291e-06
3.64724e-06
3.0225e-06
1.84504e-06
2.22352e-06
1.66415e-06
2.29515e-06
2.54086e-06
1.54402e-06
2.54063e-06
1.66613e-06
1.54304e-06
1.84351e-06
2.22397e-06
3.02246e-06
3.64715e-06
1.84448e-06
3.02212e-06
2.22347e-06
1.66439e-06
2.29511e-06
1.54393e-06
2.54069e-06
1.66562e-06
1.54306e-06
2.54049e-06
1.66607e-06
2.29565e-06
1.54358e-06
2.5408e-06
1.54444e-06
2.54103e-06
1.66472e-06
1.84346e-06
2.2237e-06
3.02237e-06
3.64675e-06
2.22317e-06
1.84448e-06
3.022e-06
1.6644e-06
2.29513e-06
1.54397e-06
2.54072e-06
1.5431e-06
1.66563e-06
2.54049e-06
1.84491e-06
3.0224e-06
3.64753e-06
2.22342e-06
2.22397e-06
3.02277e-06
1.84386e-06
1.66601e-06
2.29562e-06
1.54358e-06
2.54081e-06
1.54443e-06
2.54104e-06
1.66476e-06
1.84348e-06
2.22405e-06
3.02255e-06
3.64727e-06
2.22354e-06
1.84453e-06
3.02218e-06
1.66442e-06
2.29515e-06
1.54396e-06
2.54072e-06
1.5431e-06
1.66562e-06
2.54048e-06
1.845e-06
3.0226e-06
3.64805e-06
2.22381e-06
2.22434e-06
3.02296e-06
1.84392e-06
8.6313e-07
1.14859e-06
8.63005e-07
9.16181e-06
3.47538e-06
1.84287e-05
5.46357e-06
5.46202e-06
1.84269e-05
3.47512e-06
9.16205e-06
2.20549e-05
9.15935e-06
7.08872e-06
7.08905e-06
2.20615e-05
1.84237e-05
4.54476e-06
2.81233e-06
5.46327e-06
9.50453e-06
2.81175e-06
9.5009e-06
4.54522e-06
4.53881e-06
2.81118e-06
5.46199e-06
9.49973e-06
9.49678e-06
2.81066e-06
4.53876e-06
9.73632e-06
2.17295e-05
2.17299e-05
2.17232e-05
2.17236e-05
9.73595e-06
1.84219e-05
2.20528e-05
9.1596e-06
7.08956e-06
7.0901e-06
2.20597e-05
2.66811e-06
1.14943e-06
1.76795e-06
1.76815e-06
1.76813e-06
1.76788e-06
2.66822e-06
1.61743e-06
2.03255e-06
3.47477e-06
2.86046e-06
2.85977e-06
2.03195e-06
1.61707e-06
1.6177e-06
2.03213e-06
3.47469e-06
2.8604e-06
2.03198e-06
2.86024e-06
1.61719e-06
3.23775e-07
8.69014e-07
8.69152e-07
1.15423e-06
3.39809e-07
8.9244e-07
8.92578e-07
1.17365e-06
3.56087e-07
9.14873e-07
9.15014e-07
1.19206e-06
3.72528e-07
9.36301e-07
9.36443e-07
1.20963e-06
3.89051e-07
9.56721e-07
9.5686e-07
1.22632e-06
4.05576e-07
9.76141e-07
9.76279e-07
1.24211e-06
4.22023e-07
9.94572e-07
9.94709e-07
1.25708e-06
4.38318e-07
1.01202e-06
1.01216e-06
1.27122e-06
4.54389e-07
1.02849e-06
1.02863e-06
1.28458e-06
4.7017e-07
1.04401e-06
1.04416e-06
1.29725e-06
4.856e-07
1.05861e-06
1.05875e-06
1.30919e-06
5.00627e-07
1.0723e-06
1.07244e-06
1.32046e-06
5.15205e-07
1.08512e-06
1.08524e-06
1.33104e-06
5.29291e-07
1.09707e-06
1.09719e-06
1.34093e-06
5.42848e-07
1.1082e-06
1.10831e-06
1.35021e-06
5.55849e-07
1.11853e-06
1.11863e-06
1.35887e-06
5.68264e-07
1.12808e-06
1.12817e-06
1.36693e-06
5.80075e-07
1.13687e-06
1.13696e-06
1.37442e-06
5.91269e-07
1.14494e-06
1.14502e-06
1.38134e-06
6.01833e-07
1.15229e-06
1.15238e-06
1.38773e-06
6.11763e-07
1.15897e-06
1.15905e-06
1.39356e-06
6.21054e-07
1.16498e-06
1.16507e-06
1.39887e-06
6.29705e-07
1.17036e-06
1.17045e-06
1.40367e-06
6.3772e-07
1.17512e-06
1.17521e-06
1.40798e-06