/*--------------------------------*- C++ -*----------------------------------*\
| =========                 |                                                 |
| \\      /  F ield         | OpenFOAM: The Open Source CFD Toolbox           |
|  \\    /   O peration     | Version:  2312                                  |
|   \\  /    A nd           | Website:  www.openfoam.com                      |
|    \\/     M anipulation  |                                                 |
\*---------------------------------------------------------------------------*/
FoamFile
{
    version     2.0;
    format      ascii;
    arch        "LSB;label=32;scalar=64";
    class       volVectorField;
    location    "750";
    object      U;
}
// * * * * * * * * * * * * * * * * * * * * * * * * * * * * * * * * * * * * * //

dimensions      [0 1 -1 0 0 0 0];

internalField   nonuniform List<vector> 
43496
(
(-1.66065e-05 -2.82177e-07 0.0914271)
(-5.85075e-06 3.36387e-06 0.0716036)
(-6.10768e-06 1.13225e-05 0.107488)
(-7.76503e-06 2.04215e-05 0.0930678)
(-2.72994e-05 -6.81402e-07 0.0985809)
(-1.44067e-05 -2.59619e-06 0.109908)
(-1.66009e-05 3.13766e-07 0.0914271)
(-1.20235e-05 1.2304e-06 0.0822862)
(-2.72937e-05 7.19889e-07 0.0985808)
(-1.12736e-05 6.11764e-06 0.107486)
(-1.4395e-05 2.60852e-06 0.109907)
(-2.03938e-05 7.79301e-06 0.0930664)
(-4.16064e-05 4.1629e-05 0.104317)
(-9.86518e-06 6.93318e-06 0.0876051)
(-6.91862e-06 9.87925e-06 0.0876079)
(-3.34077e-06 5.8797e-06 0.0716041)
(-1.19739e-06 1.20535e-05 0.0822866)
(4.26017e-06 -7.11527e-07 0.0768854)
(5.01686e-06 -2.51568e-07 0.0913834)
(-1.5997e-05 -1.13453e-06 0.0899498)
(-7.44099e-06 1.47276e-07 0.0787027)
(5.53255e-06 -5.49694e-07 0.0899001)
(3.86905e-06 -1.84746e-07 0.0786623)
(-7.45116e-06 5.34516e-07 0.0769322)
(4.92327e-06 -8.93872e-07 0.0684138)
(-1.22983e-05 -1.38375e-06 0.0858856)
(5.87085e-06 -7.62254e-07 0.0858295)
(-6.08003e-06 1.66947e-07 0.0684746)
(4.33657e-06 -2.56771e-06 0.0715506)
(4.26294e-06 7.12525e-07 0.0768848)
(5.01805e-06 2.48912e-07 0.0913834)
(-7.4389e-06 -1.17792e-07 0.0787026)
(-1.59819e-05 1.16795e-06 0.0899493)
(3.86899e-06 1.89116e-07 0.0786622)
(5.5185e-06 5.50271e-07 0.0899003)
(-7.45636e-06 -4.96556e-07 0.0769315)
(4.91325e-06 9.08236e-07 0.0684157)
(-1.22698e-05 1.41239e-06 0.0858856)
(7.17677e-06 -6.23631e-07 0.0822355)
(5.86295e-06 7.76569e-07 0.0858303)
(-6.05859e-06 -1.28956e-07 0.0684762)
(3.13895e-06 -3.12253e-06 0.0836177)
(-3.59323e-06 5.12324e-06 0.068375)
(-5.13794e-06 3.58179e-06 0.0683808)
(2.64828e-06 -4.06094e-06 0.0683195)
(4.07155e-06 -2.64148e-06 0.068325)
(-7.2387e-06 7.22499e-06 0.0836639)
(7.83308e-06 -3.80099e-06 0.091673)
(-8.05585e-06 4.01441e-06 0.0816084)
(3.58774e-06 -3.4674e-06 0.0875569)
(-2.39836e-05 1.42154e-05 0.0963246)
(3.87369e-06 -3.00675e-06 0.0815579)
(1.10558e-05 -5.53098e-06 0.0962766)
(-1.67669e-05 1.02691e-05 0.0917201)
(3.80948e-06 -7.8145e-06 0.0916798)
(-4.02578e-06 8.05412e-06 0.0816146)
(3.46443e-06 -3.58422e-06 0.0875586)
(-1.42214e-05 2.39861e-05 0.0963282)
(5.5403e-06 -1.10112e-05 0.0962795)
(3.01043e-06 -3.86171e-06 0.0815632)
(-1.02847e-05 1.67743e-05 0.0917272)
(2.56668e-06 -4.34461e-06 0.0715505)
(6.25704e-07 -7.16988e-06 0.0822358)
(-1.16382e-05 -3.47277e-06 0.115012)
(-1.00242e-05 1.0061e-05 0.112469)
(-1.16301e-05 3.50506e-06 0.11501)
(3.11312e-06 -8.77475e-06 0.0930118)
(-1.16557e-05 4.96183e-05 0.0995932)
(3.81463e-06 -3.18388e-05 0.0995327)
(2.74028e-05 -1.1959e-06 0.102871)
(8.05844e-06 -4.22862e-07 0.0985247)
(-2.72094e-05 -2.52779e-06 0.0976283)
(-5.22857e-05 -1.00626e-06 0.10362)
(8.98936e-06 -8.62655e-07 0.0975629)
(2.58967e-05 -8.72832e-07 0.103526)
(-5.29757e-05 -3.57026e-06 0.102988)
(3.12558e-05 3.80192e-07 0.101328)
(-2.46875e-05 -5.06664e-06 0.0956754)
(1.0378e-05 4.84008e-08 0.095608)
(-5.2405e-05 -7.70204e-06 0.101433)
(2.74184e-05 1.18244e-06 0.102871)
(8.06062e-06 4.14601e-07 0.0985246)
(-5.22788e-05 1.0473e-06 0.10362)
(-2.71986e-05 2.56513e-06 0.0976278)
(2.59082e-05 8.57051e-07 0.103526)
(8.97943e-06 8.5513e-07 0.0975631)
(-5.29937e-05 3.61131e-06 0.102987)
(3.12857e-05 -3.86928e-07 0.101328)
(-2.46576e-05 5.08718e-06 0.0956748)
(8.78195e-06 -3.11173e-06 0.0930108)
(-4.9601e-05 1.16719e-05 0.099591)
(1.03783e-05 -3.52575e-08 0.0956083)
(-5.23969e-05 7.72069e-06 0.101431)
(3.18752e-05 -3.81877e-06 0.0995309)
(1.01478e-05 -1.01599e-05 0.0975424)
(2.38268e-05 -2.38312e-05 0.104202)
(-2.63313e-05 4.13743e-05 0.101507)
(-4.13754e-05 2.63474e-05 0.10151)
(2.7447e-05 -1.10258e-05 0.101443)
(1.1053e-05 -2.74584e-05 0.10144)
(-2.21759e-05 2.21867e-05 0.0975979)
(-9.5994e-06 -9.58214e-06 0.112516)
(1.1134e-05 -5.99048e-06 0.107501)
(-5.96455e-06 1.11417e-05 0.1075)
(-2.39654e-05 -2.39893e-05 0.104199)
(-9.96308e-06 -9.95418e-06 0.112479)
(1.12803e-05 -6.11602e-06 0.107492)
(-6.09234e-06 1.12961e-05 0.107491)
(-2.38356e-05 -2.38622e-05 0.104201)
(2.39727e-05 2.3984e-05 0.104199)
(-4.16775e-05 -4.16737e-05 0.104316)
(-5.95261e-06 -1.11003e-05 0.107499)
(5.9494e-06 -1.11114e-05 0.107499)
(-6.0487e-06 -1.12177e-05 0.107492)
(6.04433e-06 -1.12369e-05 0.107491)
(-2.3997e-05 2.3952e-05 0.104199)
(4.16759e-05 -4.16855e-05 0.104317)
(-1.11349e-05 -5.96595e-06 0.107501)
(-1.10948e-05 5.96276e-06 0.107498)
(-1.12499e-05 -6.06148e-06 0.107493)
(-1.12097e-05 6.05936e-06 0.10749)
(1.11273e-05 5.93821e-06 0.107498)
(1.12543e-05 -6.08632e-06 0.107494)
(1.12271e-05 6.04381e-06 0.107492)
(2.39782e-05 -2.39874e-05 0.104198)
(-4.16582e-05 4.16842e-05 0.104316)
(5.99376e-06 1.1123e-05 0.1075)
(-6.05622e-06 1.12571e-05 0.107493)
(6.09358e-06 1.12407e-05 0.107493)
(4.16815e-05 4.16529e-05 0.104316)
(2.38502e-05 2.38578e-05 0.104202)
(-6.07564e-06 -1.12585e-05 0.10749)
(6.07906e-06 -1.12511e-05 0.10749)
(-2.38798e-05 2.38405e-05 0.104202)
(-1.12881e-05 -6.09586e-06 0.107491)
(-1.12465e-05 6.09205e-06 0.107488)
(1.12908e-05 6.06888e-06 0.107488)
(2.38491e-05 -2.3855e-05 0.104201)
(6.12e-06 1.12748e-05 0.10749)
(-3.0317e-07 -1.66455e-05 0.0913959)
(6.61854e-07 7.15994e-06 0.0821925)
(-1.17423e-06 -1.21141e-05 0.0822523)
(-2.61199e-07 5.03571e-06 0.0913443)
(-2.60294e-06 4.26853e-06 0.0715101)
(3.23725e-06 -5.89355e-06 0.0715754)
(-1.66497e-05 -2.83031e-07 0.0913961)
(7.14647e-06 6.7675e-07 0.0821934)
(-1.21128e-05 -1.17858e-06 0.082253)
(5.03556e-06 -2.56997e-07 0.0913445)
(9.59358e-06 -9.58887e-06 0.112516)
(-9.58698e-06 9.61223e-06 0.112515)
(9.61303e-06 9.59457e-06 0.112514)
(-9.87583e-06 -9.86155e-06 0.112488)
(9.87928e-06 -9.87429e-06 0.112488)
(-9.85815e-06 9.89116e-06 0.112487)
(9.89943e-06 9.88009e-06 0.112488)
(2.7261e-05 -6.97613e-07 0.0985603)
(-8.78066e-06 3.14082e-06 0.0929753)
(1.39478e-05 -2.51901e-06 0.109933)
(1.11739e-05 -6.01991e-06 0.107498)
(2.04555e-05 -7.81208e-06 0.0930396)
(1.4055e-05 -2.53959e-06 0.109927)
(-8.12726e-06 -4.61199e-07 0.0984986)
(4.30802e-06 -2.64254e-06 0.0715123)
(-5.90753e-06 3.31312e-06 0.0715732)
(-6.98458e-07 2.72612e-05 0.0985599)
(-2.48983e-06 1.39542e-05 0.109931)
(3.15767e-06 -8.76701e-06 0.0929755)
(-5.9929e-06 1.11822e-05 0.107497)
(-2.50607e-06 1.40508e-05 0.109926)
(-7.76795e-06 2.04714e-05 0.0930389)
(-3.85064e-07 -8.14163e-06 0.0984983)
(-3.53255e-06 -3.54234e-06 0.0875182)
(-3.50192e-06 -3.55336e-06 0.0875172)
(4.17398e-05 4.17069e-05 0.104315)
(9.97234e-06 6.89513e-06 0.087576)
(6.95393e-06 9.94105e-06 0.0875745)
(6.20149e-07 7.18092e-06 0.0822263)
(-2.59724e-07 5.01514e-06 0.0913755)
(-2.54413e-06 4.29048e-06 0.0715408)
(7.17421e-06 6.37199e-07 0.0822272)
(5.01741e-06 -2.53519e-07 0.0913756)
(9.97091e-06 -9.96352e-06 0.11248)
(-9.95177e-06 9.98065e-06 0.112478)
(9.96256e-06 9.96843e-06 0.112478)
(2.72585e-05 -6.88761e-07 0.0985813)
(-8.78165e-06 3.10153e-06 0.0930044)
(1.4329e-05 -2.61536e-06 0.109913)
(-8.02899e-06 -4.59477e-07 0.0985197)
(1.44187e-05 -2.6271e-06 0.109908)
(4.32975e-06 -2.58251e-06 0.071543)
(-6.97617e-07 2.72554e-05 0.0985809)
(-2.5723e-06 1.43356e-05 0.109912)
(3.1209e-06 -8.76881e-06 0.0930045)
(-3.85121e-07 -8.04638e-06 0.0985194)
(-2.59099e-06 1.4411e-05 0.109907)
(-3.57377e-06 -3.50183e-06 0.0875502)
(-3.4618e-06 -3.58807e-06 0.0875492)
(4.16653e-05 4.15892e-05 0.104318)
(9.89351e-06 6.91596e-06 0.0876078)
(6.97378e-06 9.87291e-06 0.0876062)
(2.62606e-06 4.33833e-06 0.0715115)
(-3.28591e-06 -5.94403e-06 0.0715734)
(4.31601e-06 2.6411e-06 0.0715117)
(-5.92575e-06 -3.30367e-06 0.0715731)
(3.50177e-06 3.53918e-06 0.0875178)
(3.55684e-06 3.51397e-06 0.0875168)
(-4.17363e-05 -4.17306e-05 0.104315)
(-6.8904e-06 -9.94325e-06 0.0875764)
(-9.96986e-06 -6.92336e-06 0.0875743)
(-3.31201e-06 -5.91678e-06 0.0715887)
(2.59463e-06 4.34951e-06 0.0715269)
(-5.89825e-06 -3.32881e-06 0.0715884)
(4.32715e-06 2.60964e-06 0.071527)
(2.39018e-05 2.39109e-05 0.1042)
(-6.90195e-06 -9.90511e-06 0.0875923)
(-9.93331e-06 -6.93382e-06 0.0875902)
(3.47932e-06 3.55696e-06 0.0875338)
(3.57583e-06 3.49292e-06 0.0875328)
(2.89048e-07 -1.66491e-05 0.091396)
(-6.39748e-07 7.1298e-06 0.0821922)
(1.13026e-06 -1.21031e-05 0.0822535)
(2.48435e-07 5.03584e-06 0.0913445)
(-7.02611e-07 -2.7292e-05 0.0985597)
(3.15324e-06 8.78486e-06 0.0929742)
(-2.504e-06 -1.39306e-05 0.109932)
(-5.98628e-06 -1.11409e-05 0.107496)
(-7.7709e-06 -2.04515e-05 0.0930384)
(-2.52344e-06 -1.40311e-05 0.109927)
(-4.30048e-07 8.16768e-06 0.0984982)
(6.85405e-07 -2.72997e-05 0.0985599)
(-3.13939e-06 8.77708e-06 0.092974)
(2.49458e-06 -1.39338e-05 0.109932)
(5.97505e-06 -1.11552e-05 0.107496)
(7.73818e-06 -2.04536e-05 0.093039)
(2.51642e-06 -1.40331e-05 0.109927)
(4.1905e-07 8.17031e-06 0.0984984)
(-2.59603e-07 5.02471e-06 0.0913599)
(-1.19067e-06 -1.20819e-05 0.0822691)
(6.41844e-07 7.17182e-06 0.0822094)
(-3.0268e-07 -1.66267e-05 0.0914114)
(2.46834e-07 5.02467e-06 0.0913601)
(1.14618e-06 -1.20724e-05 0.0822703)
(-6.19893e-07 7.14113e-06 0.0822091)
(2.87145e-07 -1.66321e-05 0.0914115)
(-4.29379e-07 8.11615e-06 0.0985086)
(-6.01766e-06 -1.11849e-05 0.107494)
(-7.77409e-06 -2.04289e-05 0.0930528)
(-2.56369e-06 -1.42208e-05 0.109917)
(3.13476e-06 8.7849e-06 0.0929887)
(-2.54434e-06 -1.41314e-05 0.109922)
(-7.03495e-07 -2.72955e-05 0.0985701)
(4.17775e-07 8.11895e-06 0.0985088)
(6.01652e-06 -1.11909e-05 0.107494)
(7.74127e-06 -2.043e-05 0.0930534)
(2.55679e-06 -1.42234e-05 0.109917)
(-3.12085e-06 8.77535e-06 0.0929884)
(2.54214e-06 -1.41342e-05 0.109922)
(6.86837e-07 -2.73029e-05 0.0985703)
(-3.52975e-06 3.51861e-06 0.0875162)
(-3.56522e-06 3.49684e-06 0.0875185)
(4.17313e-05 -4.17407e-05 0.104316)
(6.8909e-06 -9.94211e-06 0.0875755)
(9.95248e-06 -6.9502e-06 0.0875766)
(-4.3228e-06 2.62834e-06 0.071512)
(5.91109e-06 -3.33387e-06 0.071574)
(3.26283e-06 -5.86577e-06 0.0715907)
(-2.57218e-06 4.27901e-06 0.0715255)
(-2.39263e-05 2.38828e-05 0.1042)
(6.90181e-06 -9.90532e-06 0.0875914)
(9.91459e-06 -6.95838e-06 0.0875925)
(-3.50773e-06 3.53538e-06 0.0875322)
(-3.5794e-06 3.47376e-06 0.0875345)
(5.88225e-06 -3.35704e-06 0.0715893)
(-4.33188e-06 2.59689e-06 0.0715273)
(-2.73018e-05 -6.8037e-07 0.0985599)
(8.78461e-06 3.16168e-06 0.0929749)
(-1.39441e-05 -2.49537e-06 0.109932)
(-1.11754e-05 -5.99662e-06 0.107498)
(-2.04816e-05 -7.79116e-06 0.0930385)
(-1.40436e-05 -2.51412e-06 0.109927)
(8.17089e-06 -4.30219e-07 0.0984982)
(-1.66447e-05 3.15882e-07 0.091396)
(7.1475e-06 -6.67301e-07 0.0821933)
(-1.20938e-05 1.19179e-06 0.0822526)
(5.03395e-06 2.46866e-07 0.0913444)
(-2.72957e-05 7.15638e-07 0.0985598)
(-1.39346e-05 2.50738e-06 0.109931)
(8.76944e-06 -3.15172e-06 0.0929746)
(-1.11349e-05 5.99487e-06 0.107495)
(-1.40331e-05 2.52855e-06 0.109926)
(-2.04436e-05 7.79053e-06 0.0930375)
(8.17251e-06 4.1184e-07 0.0984982)
(5.0249e-06 -2.5473e-07 0.09136)
(-1.20841e-05 -1.1963e-06 0.0822698)
(7.15541e-06 6.54884e-07 0.0822103)
(-1.66303e-05 -2.8208e-07 0.0914116)
(8.11759e-06 -4.28641e-07 0.0985087)
(-1.12178e-05 -6.0347e-06 0.107496)
(-2.04576e-05 -7.79467e-06 0.0930529)
(-1.42329e-05 -2.55689e-06 0.109917)
(8.78396e-06 3.14244e-06 0.0929894)
(-1.41454e-05 -2.53908e-06 0.109922)
(-2.73035e-05 -6.80331e-07 0.0985703)
(5.0243e-06 2.47097e-07 0.09136)
(-1.20607e-05 1.20999e-06 0.0822695)
(7.15661e-06 -6.49148e-07 0.0822102)
(-1.66265e-05 3.14837e-07 0.0914115)
(8.11942e-06 4.13071e-07 0.0985087)
(-1.11788e-05 6.03129e-06 0.107493)
(-1.42219e-05 2.57123e-06 0.109917)
(-2.04223e-05 7.79512e-06 0.093052)
(-1.41368e-05 2.55105e-06 0.109921)
(8.77087e-06 -3.13575e-06 0.0929891)
(-2.72981e-05 7.1714e-07 0.0985702)
(1.66038e-05 -2.63495e-07 0.0913969)
(-7.138e-06 6.91577e-07 0.0821931)
(1.20867e-05 -1.23504e-06 0.0822536)
(-4.99561e-06 -3.23859e-07 0.091344)
(2.72769e-05 6.91768e-07 0.09856)
(1.39514e-05 2.48298e-06 0.109932)
(-8.74863e-06 -3.18878e-06 0.092975)
(1.11621e-05 5.98143e-06 0.107496)
(1.4051e-05 2.51291e-06 0.109927)
(2.0454e-05 7.7575e-06 0.0930388)
(-8.14298e-06 3.86828e-07 0.0984986)
(1.66338e-05 3.12911e-07 0.0913962)
(-7.13262e-06 -6.96347e-07 0.0821934)
(1.21147e-05 1.15885e-06 0.0822531)
(-5.02177e-06 1.99632e-07 0.0913445)
(-8.07488e-06 -4.59253e-07 0.0985091)
(1.12162e-05 -6.05692e-06 0.107496)
(2.04289e-05 -7.81272e-06 0.093054)
(1.42456e-05 -2.58137e-06 0.109918)
(-8.77698e-06 3.1214e-06 0.0929898)
(1.41497e-05 -2.56529e-06 0.109923)
(2.72635e-05 -6.98872e-07 0.0985707)
(-4.983e-06 -3.23155e-07 0.0913596)
(1.2056e-05 -1.25046e-06 0.0822704)
(-7.14897e-06 6.71193e-07 0.08221)
(1.65845e-05 -2.6324e-07 0.0914124)
(-8.09274e-06 3.87636e-07 0.098509)
(1.12191e-05 6.00818e-06 0.107493)
(1.42401e-05 2.55941e-06 0.109917)
(2.04391e-05 7.76017e-06 0.0930532)
(1.41545e-05 2.52078e-06 0.109922)
(-8.74936e-06 -3.16703e-06 0.0929895)
(2.72807e-05 6.92621e-07 0.0985705)
(-5.0119e-06 1.98689e-07 0.0913601)
(1.20853e-05 1.17683e-06 0.0822699)
(-7.14422e-06 -6.72731e-07 0.0822103)
(1.66147e-05 3.12906e-07 0.0914117)
(3.53815e-06 -3.51637e-06 0.087517)
(3.50912e-06 -3.52356e-06 0.0875185)
(-4.17191e-05 4.17427e-05 0.104315)
(-9.94403e-06 6.91714e-06 0.0875733)
(-6.89955e-06 9.94827e-06 0.0875761)
(2.64339e-06 -4.31478e-06 0.0715123)
(-3.29163e-06 5.93029e-06 0.0715736)
(-5.87949e-06 3.33925e-06 0.0715884)
(4.31907e-06 -2.61184e-06 0.0715277)
(2.39056e-05 -2.39135e-05 0.1042)
(-9.90685e-06 6.9279e-06 0.0875892)
(-6.91306e-06 9.91555e-06 0.0875919)
(3.55642e-06 -3.49586e-06 0.0875329)
(3.48917e-06 -3.54468e-06 0.0875346)
(-3.31703e-06 5.90043e-06 0.0715889)
(2.61121e-06 -4.32349e-06 0.0715276)
(7.0977e-07 2.72483e-05 0.0985603)
(2.51698e-06 1.39475e-05 0.109932)
(-3.14306e-06 -8.78236e-06 0.0929753)
(6.03032e-06 1.11698e-05 0.107497)
(2.54599e-06 1.40463e-05 0.109926)
(7.82022e-06 2.0458e-05 0.0930389)
(4.49393e-07 -8.13251e-06 0.0984985)
(-3.25126e-07 1.66029e-05 0.0913966)
(6.80324e-07 -7.13559e-06 0.0821936)
(-1.16369e-06 1.21154e-05 0.082253)
(-1.89098e-07 -5.00423e-06 0.0913439)
(3.06961e-07 1.65786e-05 0.0913972)
(-6.69921e-07 -7.14885e-06 0.0821939)
(1.21507e-06 1.20971e-05 0.0822536)
(2.83506e-07 -4.9841e-06 0.0913435)
(-3.84911e-07 -8.08924e-06 0.0985088)
(-6.03379e-06 1.1226e-05 0.107495)
(-2.54844e-06 1.42388e-05 0.109917)
(-7.77042e-06 2.04485e-05 0.0930533)
(-2.53113e-06 1.41555e-05 0.109921)
(3.1405e-06 -8.76444e-06 0.09299)
(-6.98552e-07 2.72618e-05 0.0985704)
(4.4946e-07 -8.08021e-06 0.098509)
(6.06371e-06 1.12091e-05 0.107495)
(2.59281e-06 1.42363e-05 0.109916)
(7.82315e-06 2.04368e-05 0.0930533)
(2.56072e-06 1.41461e-05 0.109922)
(-3.12495e-06 -8.7804e-06 0.0929898)
(7.08318e-07 2.72494e-05 0.0985707)
(-1.87441e-07 -4.9925e-06 0.0913594)
(-1.18015e-06 1.20861e-05 0.0822698)
(6.58464e-07 -7.14685e-06 0.0822106)
(-3.25124e-07 1.65837e-05 0.0914121)
(2.82188e-07 -4.97235e-06 0.091359)
(1.23192e-06 1.2066e-05 0.0822704)
(-6.48879e-07 -7.15758e-06 0.0822108)
(3.04549e-07 1.65586e-05 0.0914127)
(-4.30804e-06 -2.65877e-06 0.0715124)
(5.93451e-06 3.28088e-06 0.071574)
(-2.63383e-06 -4.31889e-06 0.0715125)
(3.33789e-06 5.90808e-06 0.0715739)
(-2.38896e-05 -2.39127e-05 0.1042)
(9.93863e-06 6.9092e-06 0.0875919)
(6.96568e-06 9.90452e-06 0.0875904)
(-3.55112e-06 -3.51955e-06 0.0875343)
(-3.48088e-06 -3.5722e-06 0.0875332)
(5.90913e-06 3.30707e-06 0.0715892)
(-4.32066e-06 -2.626e-06 0.0715278)
(3.36463e-06 5.88122e-06 0.0715891)
(-2.60346e-06 -4.3302e-06 0.0715279)
(2.56424e-06 4.36303e-06 0.0715422)
(4.33948e-06 2.58155e-06 0.0715423)
(3.46147e-06 3.57866e-06 0.0875497)
(3.59651e-06 3.47589e-06 0.0875487)
(-6.00105e-07 7.14922e-06 0.082226)
(2.4699e-07 5.01499e-06 0.0913757)
(3.11591e-06 8.7962e-06 0.0930032)
(-2.58196e-06 -1.43125e-05 0.109913)
(-4.28777e-07 8.07249e-06 0.0985192)
(-3.10253e-06 8.7801e-06 0.0930029)
(2.58933e-06 -1.43143e-05 0.109913)
(4.17101e-07 8.07505e-06 0.0985194)
(-3.48971e-06 3.55794e-06 0.0875482)
(-3.6015e-06 3.45353e-06 0.0875505)
(-4.3444e-06 2.56591e-06 0.0715425)
(8.79e-06 3.12448e-06 0.0930039)
(-1.43267e-05 -2.57863e-06 0.109913)
(8.07616e-06 -4.26968e-07 0.0985193)
(7.16993e-06 -6.31532e-07 0.0822271)
(5.01644e-06 2.49101e-07 0.0913756)
(-1.43176e-05 2.59179e-06 0.109912)
(8.77747e-06 -3.11881e-06 0.0930035)
(8.07708e-06 4.1546e-07 0.0985193)
(1.65598e-05 -2.57792e-07 0.0914279)
(-7.15935e-06 6.49825e-07 0.0822269)
(-4.97057e-06 -3.23034e-07 0.0913752)
(2.72717e-05 6.94355e-07 0.0985811)
(1.43372e-05 2.54904e-06 0.109912)
(-8.75437e-06 -3.14528e-06 0.093004)
(1.12694e-05 6.09341e-06 0.107488)
(-8.04725e-06 3.88257e-07 0.0985196)
(1.44142e-05 2.60449e-06 0.109907)
(2.0421e-05 7.76297e-06 0.0930677)
(1.65869e-05 3.10725e-07 0.0914273)
(-7.1651e-06 -6.50916e-07 0.0822272)
(-4.99929e-06 1.9898e-07 0.0913757)
(1.20511e-05 1.19503e-06 0.0822867)
(3.57689e-06 -3.47653e-06 0.0875489)
(3.47132e-06 -3.5722e-06 0.0875506)
(2.5809e-06 -4.33558e-06 0.0715429)
(7.07263e-07 2.72446e-05 0.0985813)
(2.6027e-06 1.43197e-05 0.109912)
(-3.10619e-06 -8.78648e-06 0.0930043)
(6.13645e-06 1.12915e-05 0.107488)
(4.48587e-07 -8.03726e-06 0.0985196)
(2.63385e-06 1.44083e-05 0.109907)
(7.81847e-06 2.04123e-05 0.0930677)
(-3.24438e-07 1.6558e-05 0.0914276)
(6.36632e-07 -7.1574e-06 0.0822274)
(-1.88467e-07 -4.98251e-06 0.091375)
(3.00095e-07 1.65346e-05 0.0914283)
(-6.28586e-07 -7.17125e-06 0.0822277)
(2.79764e-07 -4.96386e-06 0.0913746)
(1.24383e-06 1.20355e-05 0.0822872)
(-4.336e-06 -2.5947e-06 0.0715431)
(5.87999e-06 3.3328e-06 0.0716044)
(-2.57469e-06 -4.33983e-06 0.0715432)
(3.38549e-06 5.85294e-06 0.0716043)
(-6.90561e-07 4.27287e-06 0.0768514)
(1.27441e-07 -7.46262e-06 0.0786686)
(-1.13496e-06 -1.60384e-05 0.0899172)
(-2.60272e-07 5.02915e-06 0.0913521)
(-1.92833e-07 3.87076e-06 0.078628)
(-5.41817e-07 5.54248e-06 0.0898674)
(5.47863e-07 -7.46826e-06 0.0768983)
(2.1989e-07 -6.1228e-06 0.0684363)
(-1.16527e-06 -1.21288e-05 0.0822439)
(-7.33388e-07 5.84563e-06 0.0857866)
(-1.35659e-06 -1.23774e-05 0.0858429)
(-8.4014e-07 4.92355e-06 0.0683752)
(-8.56138e-07 4.92406e-06 0.0683828)
(-1.36358e-06 -1.23615e-05 0.0858514)
(6.51235e-07 7.16448e-06 0.082201)
(-7.43086e-07 5.85214e-06 0.0857951)
(2.07542e-07 -6.11443e-06 0.0684438)
(5.54197e-07 -7.47347e-06 0.0768899)
(-3.04216e-07 -1.66565e-05 0.0913881)
(-1.92516e-07 3.87305e-06 0.0786195)
(-5.36055e-07 5.55004e-06 0.0898593)
(1.26678e-07 -7.47273e-06 0.0786601)
(-1.13203e-06 -1.60483e-05 0.0899092)
(-6.81526e-07 4.27565e-06 0.0768429)
(3.22317e-06 -5.906e-06 0.0715678)
(-2.58658e-06 4.27356e-06 0.0715178)
(4.27547e-06 -6.7878e-07 0.0768519)
(-1.60438e-05 -1.12079e-06 0.0899176)
(-7.46957e-06 1.45423e-07 0.0786689)
(5.02835e-06 -2.56261e-07 0.0913522)
(5.54809e-06 -5.31029e-07 0.0898677)
(3.87226e-06 -1.88244e-07 0.0786283)
(-7.47333e-06 5.61169e-07 0.0768988)
(-6.12597e-06 2.30479e-07 0.068437)
(-1.21273e-05 -1.16887e-06 0.0822446)
(5.83633e-06 -7.15076e-07 0.0857871)
(-1.23849e-05 -1.34903e-06 0.0858434)
(4.92041e-06 -8.17643e-07 0.068376)
(4.92095e-06 -8.33693e-07 0.0683836)
(-1.23683e-05 -1.35646e-06 0.0858519)
(7.15141e-06 6.65774e-07 0.0822018)
(5.84302e-06 -7.24975e-07 0.0857956)
(-6.11728e-06 2.17308e-07 0.0684446)
(-7.48011e-06 5.68642e-07 0.0768905)
(-1.6661e-05 -2.84526e-07 0.0913883)
(5.5555e-06 -5.25318e-07 0.0898597)
(3.87587e-06 -1.88497e-07 0.0786197)
(-1.60537e-05 -1.11765e-06 0.0899095)
(-7.4723e-06 1.45494e-07 0.0786604)
(4.27627e-06 -6.70597e-07 0.0768434)
(-5.92098e-06 3.29876e-06 0.0715656)
(4.31321e-06 -2.62695e-06 0.07152)
(-3.09348e-06 -3.14774e-06 0.0835876)
(3.62538e-06 5.13499e-06 0.0683541)
(5.16875e-06 3.60032e-06 0.0683478)
(-2.6162e-06 -4.10923e-06 0.0682982)
(-4.06251e-06 -2.65469e-06 0.0682922)
(7.29634e-06 7.25227e-06 0.0836336)
(1.69062e-05 1.0298e-05 0.0916922)
(-1.10021e-05 -5.58668e-06 0.0962497)
(9.99226e-06 6.89237e-06 0.087568)
(-3.80099e-06 -3.0673e-06 0.0815235)
(2.41257e-05 1.41985e-05 0.0962989)
(8.1504e-06 3.98864e-06 0.0815755)
(-7.75614e-06 -3.82314e-06 0.0916443)
(1.03686e-05 1.68743e-05 0.0916855)
(-5.55277e-06 -1.10116e-05 0.0962472)
(6.94936e-06 9.9594e-06 0.0875665)
(-3.03816e-06 -3.85222e-06 0.0815191)
(1.42646e-05 2.40879e-05 0.0962963)
(4.04911e-06 8.13405e-06 0.08157)
(-3.78805e-06 -7.80731e-06 0.091638)
(-7.76246e-06 -3.82197e-06 0.0916514)
(8.13246e-06 3.99264e-06 0.0815832)
(-3.54108e-06 -3.53173e-06 0.0875263)
(2.41003e-05 1.41941e-05 0.0963047)
(-1.10035e-05 -5.57846e-06 0.0962556)
(-3.81127e-06 -3.05983e-06 0.0815313)
(1.68799e-05 1.02872e-05 0.0916992)
(-3.78648e-06 -7.81216e-06 0.0916451)
(4.05311e-06 8.1174e-06 0.0815778)
(-3.49196e-06 -3.56148e-06 0.0875252)
(1.42641e-05 2.40617e-05 0.0963021)
(-5.54354e-06 -1.10109e-05 0.0962531)
(-3.02998e-06 -3.86111e-06 0.0815269)
(1.03581e-05 1.68482e-05 0.0916925)
(7.30788e-06 7.26351e-06 0.0836261)
(-2.61274e-06 -4.11362e-06 0.0682915)
(-4.06606e-06 -2.65166e-06 0.0682854)
(3.6341e-06 5.13566e-06 0.0683473)
(5.17057e-06 3.60855e-06 0.0683411)
(-3.08911e-06 -3.14458e-06 0.0835801)
(1.6828e-07 -6.08582e-06 0.0684664)
(-7.73044e-07 5.87193e-06 0.0858205)
(-1.19841e-06 -1.20684e-05 0.0822775)
(-9.05126e-07 4.92452e-06 0.0684055)
(-1.38556e-06 -1.23099e-05 0.0858767)
(5.28061e-07 -7.44988e-06 0.0769233)
(-3.02074e-07 -1.66115e-05 0.0914192)
(-1.94951e-07 3.87288e-06 0.0786536)
(-5.60394e-07 5.53051e-06 0.0898917)
(-7.18779e-07 4.26814e-06 0.0768765)
(1.28663e-07 -7.44238e-06 0.078694)
(-1.1458e-06 -1.60062e-05 0.0899414)
(3.27416e-06 -5.84909e-06 0.0715983)
(-6.08995e-06 1.81197e-07 0.0684671)
(5.86277e-06 -7.54861e-07 0.085821)
(-1.20663e-05 -1.2005e-06 0.0822782)
(4.92171e-06 -8.8061e-07 0.0684063)
(-1.23201e-05 -1.37625e-06 0.0858772)
(-7.45427e-06 5.41986e-07 0.0769239)
(-1.662e-05 -2.82239e-07 0.0914194)
(5.53686e-06 -5.46891e-07 0.089892)
(3.87193e-06 -1.8593e-07 0.0786538)
(4.2655e-06 -7.04249e-07 0.076877)
(-1.60129e-05 -1.13205e-06 0.0899418)
(-7.44536e-06 1.45346e-07 0.0786943)
(-5.86546e-06 3.35149e-06 0.071596)
(-3.10481e-06 -3.1595e-06 0.0836177)
(3.5874e-06 5.12978e-06 0.0683808)
(5.15705e-06 3.5645e-06 0.0683746)
(-2.62046e-06 -4.10145e-06 0.0683252)
(-4.0491e-06 -2.65625e-06 0.0683191)
(7.24998e-06 7.21421e-06 0.0836637)
(1.68112e-05 1.02674e-05 0.0917203)
(-1.10188e-05 -5.55366e-06 0.0962733)
(-3.84381e-06 -3.04196e-06 0.0815548)
(9.92129e-06 6.9172e-06 0.0875998)
(-7.79513e-06 -3.82963e-06 0.0916725)
(2.40322e-05 1.42139e-05 0.0963224)
(8.08256e-06 4.01156e-06 0.0816065)
(1.03373e-05 1.67794e-05 0.0917136)
(-5.52261e-06 -1.10145e-05 0.0962709)
(-3.00846e-06 -3.88897e-06 0.0815503)
(6.97012e-06 9.89402e-06 0.0875983)
(-3.78683e-06 -7.84331e-06 0.0916661)
(1.42654e-05 2.40111e-05 0.0963197)
(4.06698e-06 8.06862e-06 0.0816012)
(7.26451e-06 7.2232e-06 0.0836562)
(-2.62213e-06 -4.10337e-06 0.0683185)
(-4.05249e-06 -2.66053e-06 0.0683124)
(-3.10365e-06 -3.16105e-06 0.0836101)
(3.59907e-06 5.13241e-06 0.0683742)
(5.16197e-06 3.57569e-06 0.0683679)
(-7.80348e-06 -3.83539e-06 0.0916796)
(8.06313e-06 4.0114e-06 0.0816144)
(-3.58608e-06 -3.4891e-06 0.0875583)
(2.39733e-05 1.42032e-05 0.0963283)
(-1.10286e-05 -5.54507e-06 0.0962793)
(-3.85125e-06 -3.03678e-06 0.0815626)
(1.67756e-05 1.02484e-05 0.0917273)
(-3.79151e-06 -7.847e-06 0.0916732)
(4.06803e-06 8.04886e-06 0.0816089)
(-3.45601e-06 -3.59872e-06 0.0875571)
(1.42634e-05 2.3993e-05 0.0963257)
(-5.52214e-06 -1.10165e-05 0.0962768)
(-3.00192e-06 -3.89557e-06 0.0815581)
(1.03253e-05 1.67478e-05 0.0917206)
(-3.27234e-06 -5.95753e-06 0.0715658)
(2.60978e-06 4.3436e-06 0.0715192)
(-5.93907e-06 -3.28961e-06 0.0715655)
(4.32117e-06 2.62489e-06 0.0715194)
(3.14161e-06 3.12135e-06 0.083587)
(-5.13864e-06 -3.62727e-06 0.0683539)
(-3.61564e-06 -5.16367e-06 0.0683475)
(4.09432e-06 2.63596e-06 0.0682974)
(2.65548e-06 4.07691e-06 0.0682913)
(-7.2708e-06 -7.29331e-06 0.0836338)
(-1.0304e-05 -1.68716e-05 0.0916924)
(5.57342e-06 1.10084e-05 0.0962495)
(-6.88425e-06 -9.95839e-06 0.0875685)
(3.03365e-06 3.79381e-06 0.0815231)
(-3.98487e-06 -8.11556e-06 0.0815764)
(-1.42055e-05 -2.40813e-05 0.0962988)
(3.80852e-06 7.76899e-06 0.0916438)
(-1.68678e-05 -1.03402e-05 0.0916859)
(1.09883e-05 5.56544e-06 0.0962469)
(-9.9865e-06 -6.91789e-06 0.0875664)
(3.83759e-06 3.02912e-06 0.0815182)
(-8.14006e-06 -4.01322e-06 0.0815704)
(-2.40976e-05 -1.42324e-05 0.0962964)
(7.77479e-06 3.79747e-06 0.0916374)
(3.80632e-06 7.77408e-06 0.0916509)
(-3.9876e-06 -8.09763e-06 0.0815842)
(3.49033e-06 3.54736e-06 0.0875258)
(-1.42061e-05 -2.40599e-05 0.0963046)
(3.02614e-06 3.80382e-06 0.0815309)
(-1.02979e-05 -1.68505e-05 0.0916994)
(5.56487e-06 1.10082e-05 0.0962553)
(7.77934e-06 3.7964e-06 0.0916445)
(-8.12544e-06 -4.0178e-06 0.0815782)
(3.56618e-06 3.50283e-06 0.0875248)
(-2.40754e-05 -1.42319e-05 0.0963022)
(3.84489e-06 3.02012e-06 0.081526)
(-1.68466e-05 -1.03319e-05 0.0916929)
(1.09879e-05 5.55663e-06 0.0962528)
(-7.28011e-06 -7.30261e-06 0.0836263)
(4.09859e-06 2.63378e-06 0.0682907)
(2.65422e-06 4.08032e-06 0.0682845)
(-5.13982e-06 -3.63506e-06 0.0683472)
(-3.62423e-06 -5.16572e-06 0.0683408)
(3.13969e-06 3.11866e-06 0.0835795)
(2.57901e-06 4.35592e-06 0.0715345)
(-3.29842e-06 -5.93031e-06 0.0715811)
(4.33254e-06 2.59507e-06 0.0715347)
(-5.91172e-06 -3.31612e-06 0.0715808)
(-7.26085e-06 -7.28315e-06 0.0836413)
(4.09036e-06 2.63845e-06 0.0683042)
(2.65839e-06 4.07355e-06 0.068298)
(3.14473e-06 3.12475e-06 0.0835946)
(-5.13568e-06 -3.61917e-06 0.0683606)
(-3.60771e-06 -5.16051e-06 0.0683542)
(3.80843e-06 7.7907e-06 0.091665)
(-1.42039e-05 -2.40112e-05 0.0963164)
(3.46957e-06 3.5671e-06 0.0875418)
(-3.98616e-06 -8.05201e-06 0.0815998)
(3.0053e-06 3.81602e-06 0.0815466)
(5.55139e-06 1.1015e-05 0.0962671)
(-1.02775e-05 -1.68024e-05 0.0917134)
(7.7956e-06 3.79907e-06 0.0916585)
(-2.40267e-05 -1.42291e-05 0.0963139)
(3.58566e-06 3.48293e-06 0.0875407)
(-8.08585e-06 -4.02e-06 0.0815938)
(3.86087e-06 3.00344e-06 0.0815416)
(1.09946e-05 5.54207e-06 0.0962645)
(-1.67977e-05 -1.03125e-05 0.0917069)
(-1.02884e-05 -1.68268e-05 0.0917064)
(3.01871e-06 3.81348e-06 0.0815388)
(5.55861e-06 1.10108e-05 0.0962612)
(-6.89587e-06 -9.92532e-06 0.0875844)
(3.80687e-06 7.78054e-06 0.0916579)
(-3.99023e-06 -8.08029e-06 0.081592)
(-1.42053e-05 -2.40359e-05 0.0963105)
(-1.68223e-05 -1.03228e-05 0.0916999)
(3.85235e-06 3.01195e-06 0.0815338)
(1.09903e-05 5.5495e-06 0.0962586)
(-9.95249e-06 -6.92837e-06 0.0875823)
(7.78679e-06 3.79809e-06 0.0916515)
(-8.10987e-06 -4.0216e-06 0.081586)
(-2.40516e-05 -1.4231e-05 0.096308)
(3.14949e-06 3.1302e-06 0.0836021)
(-5.1345e-06 -3.61201e-06 0.0683673)
(-3.60068e-06 -5.15871e-06 0.0683609)
(4.08613e-06 2.64167e-06 0.0683109)
(2.66047e-06 4.06982e-06 0.0683047)
(-7.25182e-06 -7.27406e-06 0.0836488)
(6.79582e-07 4.2638e-06 0.0768514)
(-1.4237e-07 -7.46567e-06 0.0786687)
(1.11797e-06 -1.60438e-05 0.0899172)
(2.4796e-07 5.02992e-06 0.0913523)
(1.8309e-07 3.87079e-06 0.0786282)
(5.30525e-07 5.54321e-06 0.0898681)
(-5.62566e-07 -7.46992e-06 0.0768981)
(-2.45538e-07 -6.12352e-06 0.0684387)
(1.12098e-06 -1.21152e-05 0.0822451)
(7.46388e-07 5.84313e-06 0.0857879)
(1.31796e-06 -1.2389e-05 0.0858437)
(8.38109e-07 4.91801e-06 0.0683779)
(8.54356e-07 4.91791e-06 0.0683855)
(1.32465e-06 -1.23757e-05 0.0858521)
(-6.29077e-07 7.13345e-06 0.0822006)
(7.5554e-07 5.8489e-06 0.0857964)
(-2.33625e-07 -6.11609e-06 0.0684463)
(-5.68007e-07 -7.47578e-06 0.0768897)
(2.90811e-07 -1.66598e-05 0.0913882)
(1.82959e-07 3.87276e-06 0.0786196)
(5.24839e-07 5.55124e-06 0.08986)
(-1.41102e-07 -7.47482e-06 0.0786602)
(1.11559e-06 -1.60522e-05 0.0899092)
(6.69908e-07 4.27011e-06 0.0768429)
(5.40794e-07 -7.46374e-06 0.0769067)
(-1.92502e-07 3.87011e-06 0.0786366)
(-5.47284e-07 5.53779e-06 0.0898755)
(-3.02803e-07 -1.66365e-05 0.0914036)
(-6.99318e-07 4.26922e-06 0.0768598)
(1.27659e-07 -7.45753e-06 0.0786771)
(-1.13869e-06 -1.60278e-05 0.0899253)
(-8.87872e-07 4.92366e-06 0.068398)
(6.30442e-07 7.1749e-06 0.0822179)
(-1.37909e-06 -1.23282e-05 0.0858682)
(1.80604e-07 -6.09602e-06 0.0684589)
(-7.63577e-07 5.86362e-06 0.085812)
(1.94104e-07 -6.10473e-06 0.0684514)
(-7.53781e-07 5.85818e-06 0.0858036)
(-1.18164e-06 -1.20972e-05 0.0822607)
(-8.7247e-07 4.92334e-06 0.0683904)
(-1.37121e-06 -1.2344e-05 0.0858598)
(-7.08801e-07 4.26597e-06 0.0768682)
(-2.59777e-07 5.01875e-06 0.0913677)
(1.28307e-07 -7.45509e-06 0.0786856)
(-1.14294e-06 -1.60195e-05 0.0899333)
(5.32752e-07 -7.46151e-06 0.076915)
(-1.93507e-07 3.87062e-06 0.0786451)
(-5.54138e-07 5.5327e-06 0.0898836)
(-5.5558e-07 -7.4649e-06 0.0769065)
(1.81985e-07 3.87016e-06 0.0786367)
(5.36035e-07 5.53833e-06 0.0898762)
(2.8838e-07 -1.66396e-05 0.0914037)
(6.87223e-07 4.26214e-06 0.0768598)
(-1.42837e-07 -7.46025e-06 0.0786772)
(1.12226e-06 -1.60323e-05 0.0899253)
(8.85886e-07 4.91773e-06 0.0684007)
(-6.091e-07 7.14338e-06 0.0822175)
(1.3399e-06 -1.23434e-05 0.085869)
(7.75217e-07 5.8594e-06 0.0858134)
(-2.08133e-07 -6.09848e-06 0.0684613)
(-2.20448e-07 -6.10617e-06 0.0684538)
(7.65989e-07 5.85538e-06 0.0858049)
(1.13756e-06 -1.2084e-05 0.0822619)
(8.70081e-07 4.9185e-06 0.0683931)
(1.33289e-06 -1.23554e-05 0.0858606)
(6.97245e-07 4.25832e-06 0.0768682)
(2.47291e-07 5.01884e-06 0.0913679)
(-1.43195e-07 -7.4502e-06 0.0786857)
(1.12598e-06 -1.60245e-05 0.0899334)
(1.82826e-07 3.86705e-06 0.0786452)
(5.42238e-07 5.53188e-06 0.0898843)
(-5.49448e-07 -7.45941e-06 0.0769148)
(-3.13788e-06 3.10324e-06 0.0835873)
(5.13318e-06 -3.64062e-06 0.0683486)
(3.6053e-06 -5.16835e-06 0.0683541)
(-4.10515e-06 2.63021e-06 0.068292)