/*--------------------------------*- C++ -*----------------------------------*\
| =========                 |                                                 |
| \\      /  F ield         | OpenFOAM: The Open Source CFD Toolbox           |
|  \\    /   O peration     | Version:                                        |
|   \\  /    A nd           | Website:  www.openfoam.com                      |
|    \\/     M anipulation  |                                                 |
\*---------------------------------------------------------------------------*/
FoamFile
{
    version     2.0;
    format      ascii;
    class       volScalarField;
    location    "1000";
    object      k;
}
// * * * * * * * * * * * * * * * * * * * * * * * * * * * * * * * * * * * * * //

dimensions      [0 2 -2 0 0 0 0];


internalField   nonuniform List<scalar> 
172512
(
3.60232e-05
3.60198e-05
3.60198e-05
3.60083e-05
3.39295e-05
3.38866e-05
3.38866e-05
3.39613e-05
3.21573e-05
3.20054e-05
3.20054e-05
3.19506e-05
3.05337e-05
3.02265e-05
3.02264e-05
2.99865e-05
2.90316e-05
2.85512e-05
2.85511e-05
2.81205e-05
2.76339e-05
2.69845e-05
2.69844e-05
2.63886e-05
2.63292e-05
2.55284e-05
2.55283e-05
2.48054e-05
2.51095e-05
2.41824e-05
2.41823e-05
2.33766e-05
2.39692e-05
2.29482e-05
2.29481e-05
2.21035e-05
2.2904e-05
2.18246e-05
2.18245e-05
2.09853e-05
2.19103e-05
2.08093e-05
2.08091e-05
2.0013e-05
2.09848e-05
1.98993e-05
1.98992e-05
1.91812e-05
2.01224e-05
1.90929e-05
1.90928e-05
1.84898e-05
1.93222e-05
1.83869e-05
1.83868e-05
1.79337e-05
1.85831e-05
1.77779e-05
1.77778e-05
1.75073e-05
1.79026e-05
1.72644e-05
1.72644e-05
1.72015e-05
1.72783e-05
1.68456e-05
1.68455e-05
1.7024e-05
1.67082e-05
1.65204e-05
1.65203e-05
1.69835e-05
1.61909e-05
1.62889e-05
1.62889e-05
1.70807e-05
1.5724e-05
1.61512e-05
1.61513e-05
1.73056e-05
1.53059e-05
1.61069e-05
1.61071e-05
1.76587e-05
1.4936e-05
1.61532e-05
1.61532e-05
1.81353e-05
1.46132e-05
1.62917e-05
1.62919e-05
1.87297e-05
1.43368e-05
1.65199e-05
1.65201e-05
1.94288e-05
1.41066e-05
1.68352e-05
1.68356e-05
2.02206e-05
1.3922e-05
1.72348e-05
1.72354e-05
2.10937e-05
1.37829e-05
1.7715e-05
1.77158e-05
2.20344e-05
1.36891e-05
1.82719e-05
1.82727e-05
2.30281e-05
1.36406e-05
1.89007e-05
1.89018e-05
2.40619e-05
1.36373e-05
1.95966e-05
1.95978e-05
2.5122e-05
1.36795e-05
2.0354e-05
2.03555e-05
2.61975e-05
1.37678e-05
2.11673e-05
2.1169e-05
2.72782e-05
1.39023e-05
2.20303e-05
2.20321e-05
2.83558e-05
1.40831e-05
2.29366e-05
2.29387e-05
2.94243e-05
1.43106e-05
2.38798e-05
2.3882e-05
3.04786e-05
1.45847e-05
2.48535e-05
2.4856e-05
3.15152e-05
1.49054e-05
2.58515e-05
2.58542e-05
3.25318e-05
1.52722e-05
2.68673e-05
2.68702e-05
3.35263e-05
1.56847e-05
2.78948e-05
2.78978e-05
3.44975e-05
1.61419e-05
2.89284e-05
2.89318e-05
3.54447e-05
1.66426e-05
2.99631e-05
2.99666e-05
3.63664e-05
1.71853e-05
3.09949e-05
3.09986e-05
3.72632e-05
1.77682e-05
3.20191e-05
3.20229e-05
3.8135e-05
1.8389e-05
3.30312e-05
3.30352e-05
3.89818e-05
1.9045e-05
3.40278e-05
3.40319e-05
3.98038e-05
1.97334e-05
3.50055e-05
3.50098e-05
4.0601e-05
2.04507e-05
3.5962e-05
3.59663e-05
4.13732e-05
2.11935e-05
3.6895e-05
3.68994e-05
4.21207e-05
2.19579e-05
3.78029e-05
3.78073e-05
4.28435e-05
2.27403e-05
3.86844e-05
3.86887e-05
4.35417e-05
2.35366e-05
3.95384e-05
3.95428e-05
4.42155e-05
2.43431e-05
4.03644e-05
4.03688e-05
4.48653e-05
2.51558e-05
4.11619e-05
4.11663e-05
4.54913e-05
2.59711e-05
4.19304e-05
4.19348e-05
4.60936e-05
2.67854e-05
4.26699e-05
4.26743e-05
4.66727e-05
2.75954e-05
4.33805e-05
4.33849e-05
4.72287e-05
2.8398e-05
4.40622e-05
4.40666e-05
4.7762e-05
2.91902e-05
4.47153e-05
4.47197e-05
4.82729e-05
2.99696e-05
4.534e-05
4.53443e-05
4.87618e-05
3.07336e-05
4.59366e-05
4.59408e-05
4.92289e-05
3.14802e-05
4.65056e-05
4.65096e-05
4.96747e-05
3.22075e-05
4.7047e-05
4.7051e-05
5.00994e-05
3.29137e-05
4.75615e-05
4.75654e-05
5.05034e-05
3.35974e-05
4.80493e-05
4.80531e-05
5.08869e-05
3.42572e-05
4.85109e-05
4.85146e-05
5.12502e-05
3.48923e-05
4.89466e-05
4.89502e-05
5.15937e-05
3.55016e-05
4.93567e-05
4.93603e-05
5.19174e-05
3.60844e-05
4.97417e-05
4.97453e-05
5.22217e-05
3.664e-05
5.01022e-05
5.01057e-05
5.2507e-05
3.71682e-05
5.04382e-05
5.04419e-05
5.27733e-05
3.76683e-05
5.07504e-05
5.07538e-05
5.30207e-05
3.81401e-05
5.10392e-05
5.10426e-05
5.32496e-05
3.85843e-05
5.13058e-05
5.13093e-05
5.34619e-05
3.89998e-05
5.15478e-05
5.15512e-05
5.36534e-05
3.9387e-05
5.17685e-05
5.17725e-05
5.38302e-05
3.97479e-05
5.19729e-05
5.19752e-05
5.39924e-05
4.00806e-05
5.21471e-05
5.21501e-05
5.41271e-05
4.03853e-05
5.23017e-05
5.23076e-05
5.42598e-05
4.06661e-05
5.24506e-05
5.24537e-05
5.43671e-05
4.09182e-05
5.25595e-05
5.25569e-05
5.44503e-05
4.1151e-05
5.2664e-05
5.26745e-05
5.45527e-05
4.13571e-05
5.27541e-05
5.27552e-05
5.4606e-05
4.1529e-05
5.27956e-05
5.27969e-05
5.4629e-05
4.16932e-05
5.2855e-05
5.28624e-05
5.46935e-05
4.18389e-05
5.29054e-05
5.29046e-05
5.47299e-05
4.19664e-05
5.29313e-05
5.29351e-05
5.47649e-05
4.20349e-05
5.28651e-05
5.28773e-05
5.4672e-05
4.20963e-05
5.28721e-05
5.28547e-05
5.46334e-05
4.22158e-05
5.29367e-05
5.29683e-05
5.48187e-05
4.22704e-05
5.28971e-05
5.28976e-05
5.47877e-05
4.22231e-05
5.271e-05
5.27097e-05
5.43085e-05
4.22519e-05
5.27438e-05
5.27404e-05
5.47679e-05
4.23175e-05
5.27093e-05
5.2676e-05
5.45748e-05
4.22113e-05
5.26778e-05
5.2748e-05
5.43931e-05
4.39429e-05
5.0857e-05
5.08591e-05
5.41015e-05
3.62983e-05
3.62919e-05
3.62919e-05
3.62984e-05
3.62919e-05
3.62919e-05
3.62908e-05
3.62908e-05
3.62908e-05
3.62908e-05
3.62919e-05
3.62919e-05
3.62984e-05
3.62919e-05
3.62919e-05
3.62984e-05
3.60083e-05
3.42678e-05
3.60198e-05
3.60198e-05
3.43746e-05
3.43745e-05
3.60083e-05
3.42678e-05
3.60198e-05
3.60198e-05
3.43746e-05
3.43745e-05
3.60198e-05
3.43746e-05
3.43746e-05
3.60083e-05
3.42678e-05
3.60198e-05
3.43746e-05
3.43746e-05
3.42678e-05
3.39613e-05
3.2262e-05
3.38865e-05
3.38865e-05
3.24657e-05
3.24656e-05
3.39613e-05
3.2262e-05
3.38866e-05
3.38865e-05
3.24658e-05
3.24656e-05
3.38865e-05
3.24658e-05
3.24657e-05
3.39613e-05
3.2262e-05
3.38866e-05
3.24658e-05
3.24657e-05
3.22619e-05
3.19507e-05
3.02976e-05
3.20052e-05
3.20051e-05
3.06615e-05
3.06613e-05
3.19507e-05
3.02975e-05
3.20053e-05
3.20051e-05
3.06616e-05
3.06613e-05
3.20052e-05
3.06617e-05
3.06614e-05
3.19507e-05
3.02975e-05
3.20053e-05
3.06617e-05
3.06616e-05
3.02974e-05
2.99866e-05
2.84235e-05
3.02261e-05
3.0226e-05
2.89596e-05
2.89594e-05
2.99866e-05
2.84235e-05
3.02263e-05
3.02259e-05
2.89598e-05
2.89593e-05
3.02261e-05
2.89599e-05
2.89595e-05
2.99865e-05
2.84233e-05
3.02263e-05
2.89599e-05
2.89597e-05
2.84232e-05
2.81207e-05
2.66722e-05
2.85508e-05
2.85506e-05
2.73652e-05
2.7365e-05
2.81207e-05
2.66721e-05
2.8551e-05
2.85505e-05
2.73656e-05
2.73649e-05
2.85507e-05
2.73657e-05
2.73651e-05
2.81206e-05
2.66719e-05
2.85509e-05
2.73657e-05
2.73655e-05
2.66718e-05
2.6389e-05
2.50647e-05
2.69839e-05
2.69836e-05
2.58814e-05
2.58812e-05
2.63889e-05
2.50646e-05
2.69842e-05
2.69835e-05
2.58819e-05
2.5881e-05
2.69838e-05
2.5882e-05
2.58813e-05
2.63888e-05
2.50644e-05
2.69841e-05
2.5882e-05
2.58817e-05
2.50642e-05
2.48058e-05
2.36112e-05
2.55277e-05
2.55274e-05
2.45077e-05
2.45074e-05
2.48058e-05
2.36111e-05
2.55282e-05
2.55273e-05
2.45082e-05
2.45072e-05
2.55276e-05
2.45084e-05
2.45075e-05
2.48056e-05
2.36109e-05
2.5528e-05
2.45083e-05
2.4508e-05
2.36106e-05
2.33771e-05
2.23115e-05
2.41816e-05
2.41813e-05
2.32454e-05
2.32451e-05
2.3377e-05
2.23115e-05
2.41822e-05
2.41812e-05
2.3246e-05
2.32449e-05
2.41815e-05
2.32462e-05
2.32453e-05
2.33768e-05
2.23112e-05
2.4182e-05
2.32462e-05
2.32459e-05
2.23109e-05
2.2104e-05
2.11676e-05
2.29473e-05
2.2947e-05
2.20942e-05
2.20939e-05
2.2104e-05
2.11675e-05
2.29479e-05
2.29468e-05
2.2095e-05
2.20937e-05
2.29472e-05
2.20952e-05
2.20941e-05
2.21037e-05
2.11672e-05
2.29478e-05
2.20951e-05
2.20948e-05
2.1167e-05
2.09859e-05
2.01707e-05
2.18236e-05
2.18233e-05
2.1052e-05
2.10517e-05
2.09858e-05
2.01706e-05
2.18243e-05
2.18231e-05
2.10528e-05
2.10515e-05
2.18235e-05
2.1053e-05
2.10519e-05
2.09855e-05
2.01703e-05
2.18242e-05
2.10529e-05
2.10526e-05
2.017e-05
2.00136e-05
1.93148e-05
2.08082e-05
2.08079e-05
2.01159e-05
2.01156e-05
2.00136e-05
1.93147e-05
2.0809e-05
2.08077e-05
2.01168e-05
2.01155e-05
2.08081e-05
2.0117e-05
2.01159e-05
2.00133e-05
1.93144e-05
2.08088e-05
2.01169e-05
2.01167e-05
1.93142e-05
1.91817e-05
1.85913e-05
1.98982e-05
1.98979e-05
1.92837e-05
1.92834e-05
1.91817e-05
1.8591e-05
1.98991e-05
1.98978e-05
1.92846e-05
1.92833e-05
1.98981e-05
1.92847e-05
1.92836e-05
1.91814e-05
1.85907e-05
1.98989e-05
1.92847e-05
1.92844e-05
1.85905e-05
1.84902e-05
1.79989e-05
1.90918e-05
1.90916e-05
1.85528e-05
1.85526e-05
1.84903e-05
1.79987e-05
1.90927e-05
1.90914e-05
1.85537e-05
1.85525e-05
1.90918e-05
1.85539e-05
1.85528e-05
1.84899e-05
1.79985e-05
1.90926e-05
1.85538e-05
1.85536e-05
1.79983e-05
1.7934e-05
1.75405e-05
1.83858e-05
1.83856e-05
1.79198e-05
1.79197e-05
1.79341e-05
1.75404e-05
1.83867e-05
1.83855e-05
1.79207e-05
1.79195e-05
1.83858e-05
1.79208e-05
1.79198e-05
1.79338e-05
1.75402e-05
1.83866e-05
1.79208e-05
1.79207e-05
1.75401e-05
1.75076e-05
1.7219e-05
1.77769e-05
1.77767e-05
1.73824e-05
1.73824e-05
1.75077e-05
1.7219e-05
1.77778e-05
1.77766e-05
1.73833e-05
1.73823e-05
1.77769e-05
1.73834e-05
1.73825e-05
1.75074e-05
1.72188e-05
1.77777e-05
1.73834e-05
1.73833e-05
1.72187e-05
1.72016e-05
1.70274e-05
1.72634e-05
1.72634e-05
1.69399e-05
1.69399e-05
1.72017e-05
1.70275e-05
1.72643e-05
1.72633e-05
1.69407e-05
1.69398e-05
1.72635e-05
1.69408e-05
1.694e-05
1.72015e-05
1.70273e-05
1.72643e-05
1.69407e-05
1.69408e-05
1.70274e-05
1.7024e-05
1.69739e-05
1.68447e-05
1.68447e-05
1.65911e-05
1.65912e-05
1.70243e-05
1.69741e-05
1.68455e-05
1.68446e-05
1.65918e-05
1.65911e-05
1.68448e-05
1.65918e-05
1.65912e-05
1.7024e-05
1.6974e-05
1.68455e-05
1.65918e-05
1.65919e-05
1.69741e-05
1.69832e-05
1.70449e-05
1.65196e-05
1.65197e-05
1.6336e-05
1.63361e-05
1.69835e-05
1.70451e-05
1.65203e-05
1.65197e-05
1.63366e-05
1.63361e-05
1.65197e-05
1.63366e-05
1.63361e-05
1.69834e-05
1.7045e-05
1.65205e-05
1.63366e-05
1.63368e-05
1.70452e-05
1.70804e-05
1.72448e-05
1.62883e-05
1.62885e-05
1.61745e-05
1.61748e-05
1.70807e-05
1.7245e-05
1.62889e-05
1.62884e-05
1.61751e-05
1.61748e-05
1.62885e-05
1.6175e-05
1.61748e-05
1.70805e-05
1.7245e-05
1.62892e-05
1.61751e-05
1.61754e-05
1.72453e-05
1.73051e-05
1.75732e-05
1.61507e-05
1.6151e-05
1.61065e-05
1.61068e-05
1.73053e-05
1.75734e-05
1.61513e-05
1.6151e-05
1.61069e-05
1.61069e-05
1.6151e-05
1.61068e-05
1.61068e-05
1.73053e-05
1.75736e-05
1.61516e-05
1.6107e-05
1.61074e-05
1.75739e-05
1.7658e-05
1.80262e-05
1.61066e-05
1.61069e-05
1.61324e-05
1.61327e-05
1.76581e-05
1.80264e-05
1.61071e-05
1.61071e-05
1.61327e-05
1.61329e-05
1.61069e-05
1.61325e-05
1.61327e-05
1.76584e-05
1.80265e-05
1.61076e-05
1.61327e-05
1.61333e-05
1.80269e-05
1.81346e-05
1.85976e-05
1.6153e-05
1.61533e-05
1.62484e-05
1.62487e-05
1.81348e-05
1.85977e-05
1.61533e-05
1.61535e-05
1.62486e-05
1.62491e-05
1.61533e-05
1.62484e-05
1.62488e-05
1.81349e-05
1.85982e-05
1.61538e-05
1.62487e-05
1.62494e-05
1.85987e-05
1.87289e-05
1.92758e-05
1.62917e-05
1.6292e-05
1.64546e-05
1.6455e-05
1.87287e-05
1.92759e-05
1.62919e-05
1.62925e-05
1.64547e-05
1.64554e-05
1.62921e-05
1.64544e-05
1.64551e-05
1.87294e-05
1.92764e-05
1.62926e-05
1.64548e-05
1.64556e-05
1.92771e-05
1.94275e-05
2.00487e-05
1.652e-05
1.65205e-05
1.67486e-05
1.67491e-05
1.94277e-05
2.00488e-05
1.65201e-05
1.65209e-05
1.67486e-05
1.67497e-05
1.65206e-05
1.67482e-05
1.67493e-05
1.94281e-05
2.00496e-05
1.65209e-05
1.67488e-05
1.67496e-05
2.00502e-05
2.02192e-05
2.0905e-05
1.68356e-05
1.6836e-05
1.71277e-05
1.71282e-05
2.02193e-05
2.09051e-05
1.68355e-05
1.68367e-05
1.71274e-05
1.71289e-05
1.68363e-05
1.71271e-05
1.71285e-05
2.02201e-05
2.09059e-05
1.68364e-05
1.71278e-05
1.71286e-05
2.09068e-05
2.10922e-05
2.18313e-05
1.72354e-05
1.72359e-05
1.75884e-05
1.75889e-05
2.10922e-05
2.18313e-05
1.72351e-05
1.72366e-05
1.75879e-05
1.75897e-05
1.72363e-05
1.75875e-05
1.75894e-05
2.10929e-05
2.18322e-05
1.72362e-05
1.75883e-05
1.75892e-05
2.18334e-05
2.20324e-05
2.28134e-05
1.77159e-05
1.77164e-05
1.81267e-05
1.81272e-05
2.20323e-05
2.28136e-05
1.77153e-05
1.77173e-05
1.8126e-05
1.81283e-05
1.77169e-05
1.81256e-05
1.81279e-05
2.20335e-05
2.28149e-05
1.77166e-05
1.81267e-05
1.81274e-05
2.28158e-05
2.30262e-05
2.38379e-05
1.82729e-05
1.82735e-05
1.87382e-05
1.87387e-05
2.30262e-05
2.38379e-05
1.82721e-05
1.82745e-05
1.87372e-05
1.87398e-05
1.82741e-05
1.87369e-05
1.87396e-05
2.30273e-05
2.38392e-05
1.82734e-05
1.87381e-05
1.87388e-05
2.38405e-05
2.40594e-05
2.48916e-05
1.89019e-05
1.89025e-05
1.94181e-05
1.94186e-05
2.40593e-05
2.48916e-05
1.89009e-05
1.89037e-05
1.94167e-05
1.94198e-05
1.89035e-05
1.94165e-05
1.94196e-05
2.40608e-05
2.48931e-05
1.89024e-05
1.94179e-05
1.94185e-05
2.48943e-05
2.51197e-05
2.59625e-05
1.95981e-05
1.95986e-05
2.0161e-05
2.01614e-05
2.51197e-05
2.59626e-05
1.95967e-05
1.95999e-05
2.01593e-05
2.01628e-05
1.95997e-05
2.01592e-05
2.01627e-05
2.51209e-05
2.59643e-05
1.95983e-05
2.01607e-05
2.01611e-05
2.59655e-05
2.61948e-05
2.70407e-05
2.03557e-05
2.03562e-05
2.0961e-05
2.09614e-05
2.61947e-05
2.70407e-05
2.03541e-05
2.03577e-05
2.0959e-05
2.09629e-05
2.03577e-05
2.0959e-05
2.0963e-05
2.61965e-05
2.70426e-05
2.03558e-05
2.09608e-05
2.0961e-05
2.7044e-05
2.72753e-05
2.8118e-05
2.11692e-05
2.11696e-05
2.18125e-05
2.18127e-05
2.72752e-05
2.8118e-05
2.11672e-05
2.11712e-05
2.18101e-05
2.18143e-05
2.11714e-05
2.18102e-05
2.18146e-05
2.72769e-05
2.81196e-05
2.11691e-05
2.18121e-05
2.18121e-05
2.8121e-05
2.83531e-05
2.91869e-05
2.20324e-05
2.20328e-05
2.27086e-05
2.27088e-05
2.83529e-05
2.9187e-05
2.20301e-05
2.20344e-05
2.27059e-05
2.27106e-05
2.20347e-05
2.27063e-05
2.27111e-05
2.83546e-05
2.91891e-05
2.2032e-05
2.27084e-05
2.27082e-05
2.91904e-05
2.94212e-05
3.02434e-05
2.29388e-05
2.29391e-05
2.36434e-05
2.36434e-05
2.94211e-05
3.02434e-05
2.29362e-05
2.2941e-05
2.36404e-05
2.36453e-05
2.29415e-05
2.36409e-05
2.3646e-05
2.94232e-05
3.02453e-05
2.29383e-05
2.36432e-05
2.36427e-05
3.02467e-05
3.04758e-05
3.12829e-05
2.38822e-05
2.38824e-05
2.46102e-05
2.461e-05
3.04756e-05
3.12828e-05
2.38793e-05
2.38842e-05
2.46069e-05
2.46121e-05
2.3885e-05
2.46075e-05
2.4613e-05
3.04774e-05
3.12849e-05
2.38815e-05
2.46101e-05
2.46093e-05
3.12862e-05
3.15123e-05
3.23029e-05
2.4856e-05
2.4856e-05
2.56028e-05
2.56024e-05
3.1512e-05
3.23029e-05
2.48528e-05
2.48581e-05
2.55992e-05
2.56048e-05
2.48591e-05
2.56e-05
2.56058e-05
3.15142e-05
3.23051e-05
2.48551e-05
2.56028e-05
2.56017e-05
3.23064e-05
3.25288e-05
3.33018e-05
2.58541e-05
2.58539e-05
2.66149e-05
2.66144e-05
3.25286e-05
3.33017e-05
2.58507e-05
2.5856e-05
2.66111e-05
2.66167e-05
2.58574e-05
2.6612e-05
2.6618e-05
3.25307e-05
3.33038e-05
2.5853e-05
2.66149e-05
2.66136e-05
3.33051e-05
3.35234e-05
3.42777e-05
2.687e-05
2.68696e-05
2.764e-05
2.76393e-05
3.35231e-05
3.42774e-05
2.68664e-05
2.68718e-05
2.76361e-05
2.76418e-05
2.68734e-05
2.7637e-05
2.76432e-05
3.35252e-05
3.42797e-05
2.68687e-05
2.76402e-05
2.76385e-05
3.42809e-05
3.44946e-05
3.52298e-05
2.78976e-05
2.78969e-05
2.86726e-05
2.86717e-05
3.44942e-05
3.52294e-05
2.78937e-05
2.78993e-05
2.86685e-05
2.86744e-05
2.7901e-05
2.86696e-05
2.86761e-05
3.44965e-05
3.5232e-05
2.78961e-05
2.86731e-05
2.86711e-05
3.52332e-05
3.54417e-05
3.61571e-05
2.89313e-05
2.89304e-05
2.97075e-05
2.97063e-05
3.54413e-05
3.61567e-05
2.89272e-05
2.8933e-05
2.97033e-05
2.97091e-05
2.89349e-05
2.97044e-05
2.97109e-05
3.54438e-05
3.61591e-05
2.89297e-05
2.97081e-05
2.97058e-05
3.61602e-05
3.63636e-05
3.70594e-05
2.99661e-05
2.99649e-05
3.07406e-05
3.07391e-05
3.63632e-05
3.70588e-05
2.99619e-05
2.99676e-05
3.07362e-05
3.0742e-05
2.99696e-05
3.07374e-05
3.0744e-05
3.63655e-05
3.70615e-05
2.99643e-05
3.07413e-05
3.07388e-05
3.70625e-05
3.72604e-05
3.79368e-05
3.0998e-05
3.09965e-05
3.17671e-05
3.17654e-05
3.72599e-05
3.79362e-05
3.09936e-05
3.09994e-05
3.17626e-05
3.17684e-05
3.10015e-05
3.17639e-05
3.17705e-05
3.72625e-05
3.7939e-05
3.0996e-05
3.1768e-05
3.17652e-05
3.79398e-05
3.81323e-05
3.87893e-05
3.20221e-05
3.20204e-05
3.27826e-05
3.27806e-05
3.81317e-05
3.87886e-05
3.20176e-05
3.20234e-05
3.2778e-05
3.27838e-05
3.20256e-05
3.27794e-05
3.2786e-05
3.81344e-05
3.87914e-05
3.20201e-05
3.27836e-05
3.27806e-05
3.87922e-05
3.89792e-05
3.9617e-05
3.30343e-05
3.30322e-05
3.37834e-05
3.37811e-05
3.89785e-05
3.96163e-05
3.30297e-05
3.30354e-05
3.37787e-05
3.37843e-05
3.30377e-05
3.37802e-05
3.37866e-05
3.89813e-05
3.96191e-05
3.30322e-05
3.37845e-05
3.37812e-05
3.96198e-05
3.98013e-05
4.04199e-05
3.40309e-05
3.40285e-05
3.47661e-05
3.47635e-05
3.98006e-05
4.0419e-05
3.40262e-05
3.40318e-05
3.47614e-05
3.47669e-05
3.40341e-05
3.47629e-05
3.47692e-05
3.98034e-05
4.04221e-05
3.40286e-05
3.47673e-05
3.47639e-05
4.04226e-05
4.05985e-05
4.11979e-05
3.50087e-05
3.50059e-05
3.57281e-05
3.57251e-05
4.05976e-05
4.1197e-05
3.50039e-05
3.50094e-05
3.57234e-05
3.57287e-05
3.50118e-05
3.57249e-05
3.5731e-05
4.06006e-05
4.12e-05
3.50063e-05
3.57294e-05
3.57258e-05
4.12005e-05
4.13709e-05
4.1951e-05
3.59651e-05
3.59621e-05
3.66671e-05
3.66639e-05
4.137e-05
4.19501e-05
3.59604e-05
3.59657e-05
3.66624e-05
3.66676e-05
3.5968e-05
3.6664e-05
3.66699e-05
4.13729e-05
4.19531e-05
3.59626e-05
3.66685e-05
3.66647e-05
4.19535e-05
4.21183e-05
4.26795e-05
3.68981e-05
3.68948e-05
3.75814e-05
3.75779e-05
4.21174e-05
4.26785e-05
3.68933e-05
3.68985e-05
3.75766e-05
3.75816e-05
3.69008e-05
3.75783e-05
3.7584e-05
4.21205e-05
4.26815e-05
3.68956e-05
3.75828e-05
3.75789e-05
4.26819e-05
4.28413e-05
4.33833e-05
3.78059e-05
3.78023e-05
3.84695e-05
3.84657e-05
4.28403e-05
4.33822e-05
3.78012e-05
3.78061e-05
3.84648e-05
3.84696e-05
3.78085e-05
3.84664e-05
3.84719e-05
4.28433e-05
4.33853e-05
3.78033e-05
3.8471e-05
3.8467e-05
4.33856e-05
4.35396e-05
4.40627e-05
3.86873e-05
3.86835e-05
3.93304e-05
3.93264e-05
4.35385e-05
4.40616e-05
3.86826e-05
3.86874e-05
3.93257e-05
3.93304e-05
3.86897e-05
3.93274e-05
3.93326e-05
4.35416e-05
4.40647e-05
3.86847e-05
3.9332e-05
3.93278e-05
4.40649e-05
4.42136e-05
4.4718e-05
3.95413e-05
3.95373e-05
4.01634e-05
4.01592e-05
4.42124e-05
4.47167e-05
3.95366e-05
3.95412e-05
4.01588e-05
4.01632e-05
3.95435e-05
4.01604e-05
4.01654e-05
4.42155e-05
4.47199e-05
3.95386e-05
4.01651e-05
4.01608e-05
4.472e-05
4.48635e-05
4.53493e-05
4.03672e-05
4.0363e-05
4.0968e-05
4.09636e-05
4.48623e-05
4.5348e-05
4.03626e-05
4.0367e-05
4.09634e-05
4.09676e-05
4.03692e-05
4.09651e-05
4.09698e-05
4.48654e-05
4.53511e-05
4.03645e-05
4.09697e-05
4.09653e-05
4.53512e-05
4.54896e-05
4.59569e-05
4.11646e-05
4.11602e-05
4.17437e-05
4.17392e-05
4.54883e-05
4.59556e-05
4.11601e-05
4.11642e-05
4.17392e-05
4.17432e-05
4.11665e-05
4.17409e-05
4.17453e-05
4.54914e-05
4.59587e-05
4.11619e-05
4.17455e-05
4.1741e-05
4.59587e-05
4.6092e-05
4.65412e-05
4.19331e-05
4.19286e-05
4.24904e-05
4.24858e-05
4.60907e-05
4.65397e-05
4.19287e-05
4.19326e-05
4.24861e-05
4.24899e-05
4.19348e-05
4.24876e-05
4.24919e-05
4.60938e-05
4.65429e-05
4.19303e-05
4.24922e-05
4.24877e-05
4.65428e-05
4.66712e-05
4.71023e-05
4.26726e-05
4.26679e-05
4.32082e-05
4.32035e-05
4.66698e-05
4.71009e-05
4.26682e-05
4.2672e-05
4.32039e-05
4.32075e-05
4.26741e-05
4.32055e-05
4.32095e-05
4.66729e-05
4.7104e-05
4.26698e-05
4.321e-05
4.32054e-05
4.71038e-05
4.72273e-05
4.76406e-05
4.33831e-05
4.33784e-05
4.3897e-05
4.38922e-05
4.7226e-05
4.76391e-05
4.33788e-05
4.33824e-05
4.38928e-05
4.38962e-05
4.33844e-05
4.38944e-05
4.38982e-05
4.7229e-05
4.76422e-05
4.33803e-05
4.38989e-05
4.38942e-05
4.7642e-05
4.77607e-05
4.81565e-05
4.40647e-05
4.40599e-05
4.45572e-05
4.45523e-05
4.77593e-05
4.81549e-05
4.40606e-05
4.40639e-05
4.45531e-05
4.45563e-05
4.40659e-05
4.45547e-05
4.45582e-05
4.77623e-05
4.8158e-05
4.40619e-05
4.45591e-05
4.45543e-05
4.81577e-05
4.82719e-05
4.86502e-05
4.47178e-05
4.47128e-05
4.51889e-05
4.51839e-05
4.82703e-05
4.86487e-05
4.47137e-05
4.47169e-05
4.51849e-05
4.51879e-05
4.47188e-05
4.51865e-05
4.51897e-05
4.82733e-05
4.86516e-05
4.47149e-05
4.51908e-05
4.5186e-05
4.86513e-05
4.87609e-05
4.9122e-05
4.53424e-05
4.53374e-05
4.57924e-05
4.57873e-05
4.87594e-05
4.91205e-05
4.53384e-05
4.53414e-05
4.57884e-05
4.57913e-05
4.53432e-05
4.57901e-05
4.57931e-05
4.87623e-05
4.91234e-05
4.53395e-05
4.57943e-05
4.57895e-05
4.9123e-05
4.92281e-05
4.95725e-05
4.59389e-05
4.59338e-05
4.6368e-05
4.63629e-05
4.92266e-05
4.95709e-05
4.5935e-05
4.59378e-05
4.63642e-05
4.63669e-05
4.59396e-05
4.63659e-05
4.63686e-05
4.92295e-05
4.95738e-05
4.5936e-05
4.637e-05
4.63651e-05
4.95733e-05
4.96741e-05
5.00017e-05
4.65077e-05
4.65025e-05
4.69162e-05
4.69111e-05
4.96725e-05
5.00002e-05
4.65039e-05
4.65065e-05
4.69125e-05
4.6915e-05
4.65082e-05
4.69142e-05
4.69166e-05
4.96753e-05
5.00029e-05
4.65047e-05
4.69182e-05
4.69133e-05
5.00024e-05
5.00988e-05
5.04101e-05
4.7049e-05
4.70439e-05
4.74372e-05
4.74321e-05
5.00973e-05
5.04086e-05
4.70453e-05
4.70478e-05
4.74336e-05
4.7436e-05
4.70495e-05
4.74354e-05
4.74376e-05
5.01e-05
5.04113e-05
4.70461e-05
4.74393e-05
4.74343e-05
5.04107e-05
5.05029e-05
5.07981e-05
4.75634e-05
4.75582e-05
4.79317e-05
4.79264e-05
5.05014e-05
5.07964e-05
4.75597e-05
4.75621e-05
4.79281e-05
4.79303e-05
4.75637e-05
4.79298e-05
4.79318e-05
5.05041e-05
5.07991e-05
4.75604e-05
4.79337e-05
4.79287e-05
5.07985e-05
5.08866e-05
5.11655e-05
4.80511e-05
4.80459e-05
4.83995e-05
4.83943e-05
5.0885e-05
5.1164e-05
4.80476e-05
4.80497e-05
4.83961e-05
4.83982e-05
4.80513e-05
4.83979e-05
4.83997e-05
5.08877e-05
5.11666e-05
4.80482e-05
4.84016e-05
4.83966e-05
5.11659e-05
5.12499e-05
5.15132e-05
4.85125e-05
4.85073e-05
4.88415e-05
4.88363e-05
5.12484e-05
5.15116e-05
4.8509e-05
4.85111e-05
4.88382e-05
4.88401e-05
4.85126e-05
4.884e-05
4.88416e-05
5.1251e-05
5.15142e-05
4.85096e-05
4.88437e-05
4.88386e-05
5.15134e-05
5.15935e-05
5.18411e-05
4.89481e-05
4.89429e-05
4.9258e-05
4.92527e-05
5.1592e-05
5.18394e-05
4.89447e-05
4.89467e-05
4.92548e-05
4.92565e-05
4.89481e-05
4.92564e-05
4.92579e-05
5.15945e-05
5.1842e-05
4.89452e-05
4.92601e-05
4.92551e-05
5.18412e-05
5.19174e-05
5.21493e-05
4.93582e-05
4.93529e-05
4.96491e-05
4.96438e-05
5.19157e-05
5.21476e-05
4.93549e-05
4.93567e-05
4.9646e-05
4.96476e-05
4.93581e-05
4.96476e-05
4.9649e-05
5.19183e-05
5.21502e-05
4.93553e-05
4.96513e-05
4.96462e-05
5.21494e-05
5.22217e-05
5.24384e-05
4.97431e-05
4.97378e-05
5.00155e-05
5.00103e-05
5.22201e-05
5.2437e-05
4.97399e-05
4.97416e-05
5.00125e-05
5.0014e-05
4.9743e-05
5.00142e-05
5.00154e-05
5.22226e-05
5.24394e-05
4.97402e-05
5.00178e-05
5.00127e-05
5.24385e-05
5.2507e-05
5.27087e-05
5.01034e-05
5.00983e-05
5.03576e-05
5.03524e-05
5.25057e-05
5.27071e-05
5.01004e-05
5.01019e-05
5.03546e-05
5.03561e-05
5.01032e-05
5.03563e-05
5.03573e-05
5.25079e-05
5.27097e-05
5.01006e-05
5.03599e-05
5.03548e-05
5.27086e-05
5.27735e-05
5.29601e-05
5.04395e-05
5.04342e-05
5.06758e-05
5.06703e-05
5.27717e-05
5.29582e-05
5.04366e-05
5.0438e-05
5.06729e-05
5.06742e-05
5.04392e-05
5.06743e-05
5.06754e-05
5.27745e-05
5.29607e-05
5.04367e-05
5.0678e-05
5.0673e-05
5.29599e-05
5.30208e-05
5.31925e-05
5.07517e-05
5.07463e-05
5.09698e-05
5.09648e-05
5.30191e-05
5.31913e-05
5.07488e-05
5.075e-05
5.0967e-05
5.09683e-05
5.07514e-05
5.09689e-05
5.09696e-05
5.30214e-05
5.31935e-05
5.07489e-05
5.09722e-05
5.09672e-05
5.31925e-05
5.32497e-05
5.34091e-05
5.104e-05
5.1035e-05
5.1242e-05
5.12368e-05
5.32485e-05
5.34075e-05
5.10373e-05
5.10386e-05
5.12394e-05
5.12407e-05
5.10398e-05
5.1241e-05
5.12415e-05
5.32509e-05
5.341e-05
5.10374e-05
5.12446e-05
5.12392e-05
5.34085e-05
5.34626e-05
5.36044e-05
5.13069e-05
5.13016e-05
5.14904e-05
5.14851e-05
5.3461e-05
5.36025e-05
5.13042e-05
5.13054e-05
5.14878e-05
5.14886e-05
5.13063e-05
5.14893e-05
5.14901e-05
5.34632e-05
5.36048e-05
5.1304e-05
5.14926e-05
5.14878e-05
5.36043e-05
5.36536e-05
5.37841e-05
5.1549e-05
5.15435e-05
5.1716e-05
5.17098e-05
5.36514e-05
5.37808e-05
5.15463e-05
5.15472e-05
5.17135e-05
5.17143e-05
5.15487e-05
5.1714e-05
5.17152e-05
5.36541e-05
5.37844e-05
5.15464e-05
5.17183e-05
5.17131e-05
5.37832e-05
5.38308e-05
5.39488e-05
5.17701e-05
5.17642e-05
5.19227e-05
5.1919e-05
5.38281e-05
5.39507e-05
5.17677e-05
5.17685e-05
5.19203e-05
5.19219e-05
5.17695e-05
5.19233e-05
5.19231e-05
5.38313e-05
5.39514e-05
5.17673e-05
5.1926e-05
5.19209e-05
5.39501e-05
5.39914e-05
5.40925e-05
5.19715e-05
5.19685e-05
5.2106e-05
5.21013e-05
5.39939e-05
5.40903e-05
5.1969e-05
5.19711e-05
5.21036e-05
5.21043e-05
5.1972e-05
5.21056e-05
5.21042e-05
5.39945e-05
5.40917e-05
5.19697e-05
5.21085e-05
5.21021e-05
5.40889e-05
5.41312e-05
5.42202e-05
5.2149e-05
5.21429e-05
5.22668e-05
5.22577e-05
5.41269e-05
5.42118e-05
5.21466e-05
5.21461e-05
5.22645e-05
5.22628e-05
5.21466e-05
5.22619e-05
5.22663e-05
5.41286e-05
5.42178e-05
5.21444e-05
5.22667e-05
5.22643e-05
5.42215e-05
5.42571e-05
5.43357e-05
5.23058e-05
5.22973e-05
5.24128e-05
5.24103e-05
5.425e-05
5.43409e-05
5.23036e-05
5.23035e-05
5.24109e-05
5.24157e-05
5.23068e-05
5.2415e-05
5.24142e-05
5.42572e-05
5.43437e-05
5.23048e-05
5.24202e-05
5.24125e-05
5.43371e-05
5.43672e-05
5.4423e-05
5.24467e-05
5.24461e-05
5.25313e-05
5.25299e-05
5.43744e-05
5.44251e-05
5.24447e-05
5.24494e-05
5.25286e-05
5.25273e-05
5.24469e-05
5.25342e-05
5.25291e-05
5.43741e-05
5.44182e-05
5.24452e-05
5.25312e-05
5.25266e-05
5.442e-05
5.44532e-05
5.45254e-05
5.25593e-05
5.25552e-05
5.2643e-05
5.26299e-05
5.44513e-05
5.45097e-05
5.25564e-05
5.25529e-05
5.26411e-05
5.2639e-05
5.25574e-05
5.26342e-05
5.26406e-05
5.44464e-05
5.45236e-05
5.25546e-05
5.26431e-05
5.26388e-05
5.45217e-05
5.45559e-05
5.45835e-05
5.26718e-05
5.26597e-05
5.27333e-05
5.27314e-05
5.45427e-05
5.45913e-05
5.26703e-05
5.26704e-05
5.27316e-05
5.27358e-05
5.26699e-05
5.27359e-05
5.27346e-05
5.4557e-05
5.45914e-05
5.26686e-05
5.274e-05
5.27332e-05
5.45884e-05
5.45999e-05
5.46099e-05
5.2748e-05
5.27493e-05
5.27808e-05
5.27794e-05
5.46107e-05
5.46096e-05
5.27461e-05
5.27507e-05
5.27782e-05
5.27785e-05
5.27514e-05
5.27844e-05
5.27813e-05
5.46078e-05
5.46071e-05
5.27496e-05
5.27832e-05
5.27787e-05
5.46074e-05
5.46343e-05
5.46716e-05
5.27969e-05
5.27913e-05
5.2845e-05
5.28349e-05
5.46289e-05
5.46626e-05
5.27944e-05
5.27926e-05
5.28433e-05
5.28427e-05
5.27947e-05
5.28387e-05
5.2843e-05
5.46298e-05
5.46718e-05
5.27922e-05
5.28463e-05
5.28415e-05
5.46707e-05
5.46919e-05
5.4712e-05
5.28596e-05
5.2851e-05
5.28888e-05
5.28867e-05
5.46856e-05
5.4716e-05
5.28581e-05
5.28586e-05
5.28872e-05
5.28896e-05
5.28593e-05
5.28917e-05
5.28909e-05
5.46944e-05
5.47132e-05
5.2858e-05
5.28942e-05
5.28894e-05
5.47103e-05
5.47376e-05
5.47718e-05
5.2903e-05
5.29007e-05
5.29365e-05
5.29285e-05
5.47403e-05
5.47623e-05
5.29009e-05
5.29e-05
5.29341e-05
5.29316e-05
5.28995e-05
5.29322e-05
5.29276e-05
5.4735e-05
5.47619e-05
5.28977e-05
5.2935e-05
5.29255e-05
5.47489e-05
5.47843e-05
5.46209e-05
5.29358e-05
5.29276e-05
5.28848e-05
5.28787e-05
5.4774e-05
5.46222e-05
5.29334e-05
5.29318e-05
5.28837e-05
5.28949e-05
5.29292e-05
5.28844e-05
5.29071e-05
5.47767e-05
5.46452e-05
5.29273e-05
5.29002e-05
5.29061e-05
5.46692e-05
5.46244e-05
5.46346e-05
5.28626e-05
5.2859e-05
5.28501e-05
5.28514e-05
5.46263e-05
5.46506e-05
5.28617e-05
5.2871e-05
5.28485e-05
5.28446e-05
5.2885e-05
5.28567e-05
5.28506e-05
5.46476e-05
5.46048e-05
5.28843e-05
5.28502e-05
5.28485e-05
5.46028e-05
5.46799e-05
5.47902e-05
5.28609e-05
5.2868e-05
5.29375e-05
5.2927e-05
5.47001e-05
5.4777e-05
5.28581e-05
5.28498e-05
5.2935e-05
5.29435e-05
5.28528e-05
5.29303e-05
5.29199e-05
5.4645e-05
5.482e-05
5.28505e-05
5.29455e-05
5.29176e-05
5.47752e-05
5.48209e-05
5.47603e-05
5.29533e-05
5.29331e-05
5.29425e-05
5.29156e-05
5.47934e-05
5.47125e-05
5.2953e-05
5.29656e-05
5.29436e-05
5.29435e-05
5.29478e-05
5.29203e-05
5.29498e-05
5.48616e-05
5.47208e-05
5.29481e-05
5.29473e-05
5.29515e-05
5.47987e-05
5.47418e-05
5.43799e-05
5.29115e-05
5.28911e-05
5.27069e-05
5.27338e-05
5.47109e-05
5.44405e-05
5.29124e-05
5.28922e-05
5.27017e-05
5.27141e-05
5.29295e-05
5.27378e-05
5.26934e-05
5.46915e-05
5.44239e-05
5.29301e-05
5.27194e-05
5.26871e-05
5.43095e-05
5.43899e-05
5.4562e-05
5.2686e-05
5.27082e-05
5.27129e-05
5.27234e-05
5.44474e-05
5.45747e-05
5.26815e-05
5.27065e-05
5.27098e-05
5.27254e-05
5.26587e-05
5.27257e-05
5.27097e-05
5.44496e-05
5.45753e-05
5.26539e-05
5.27262e-05
5.27066e-05
5.46216e-05
5.46235e-05
5.47164e-05
5.27497e-05
5.27378e-05
5.28009e-05
5.27178e-05
5.46084e-05
5.44823e-05
5.27459e-05
5.27379e-05
5.27974e-05
5.26999e-05
5.2804e-05
5.27254e-05
5.28128e-05
5.45953e-05
5.44634e-05
5.28015e-05
5.2705e-05
5.28093e-05
5.46688e-05
5.47158e-05
5.42184e-05
5.27827e-05
5.27061e-05
5.25499e-05
5.26715e-05
5.44894e-05
5.46184e-05
5.27787e-05
5.26734e-05
5.25434e-05
5.26738e-05
5.27447e-05
5.26721e-05
5.25578e-05
5.44613e-05
5.4623e-05
5.27421e-05
5.26758e-05
5.25533e-05
5.42555e-05
5.41514e-05
5.43284e-05
5.25099e-05
5.26736e-05
5.12154e-05
5.13902e-05
5.46438e-05
5.46548e-05
5.25027e-05
5.27378e-05
5.12256e-05
5.14946e-05
5.25754e-05
5.14164e-05
5.13123e-05
5.48038e-05
5.49152e-05
5.25741e-05
5.1518e-05
5.13273e-05
5.44885e-05
5.42552e-05
5.07043e-05
5.08362e-05
5.44738e-05
5.07132e-05
5.08385e-05
4.4025e-05
4.40335e-05
4.39568e-05
5.07096e-05
5.44102e-05
5.07226e-05
3.73769e-05
3.73764e-05
3.73767e-05
3.73767e-05
3.73694e-05
3.73755e-05
3.73043e-05
3.73764e-05
3.73694e-05
3.73755e-05
3.73764e-05
3.73043e-05
3.73714e-05
3.72959e-05
3.72959e-05
3.58864e-05
4.08615e-05
3.66006e-05
4.51355e-05
5.51055e-05
6.48938e-05
3.5887e-05
4.08611e-05
3.66005e-05
4.51382e-05
3.60232e-05
3.60232e-05
3.60232e-05
3.44005e-05
3.44005e-05
3.44005e-05
3.44005e-05
3.52763e-05
3.56369e-05
3.60241e-05
3.53762e-05
3.60477e-05
3.42377e-05
3.53827e-05
5.51074e-05
6.48955e-05
3.52764e-05
3.60241e-05
3.56365e-05
3.53762e-05
3.60476e-05
3.53827e-05
3.42382e-05
3.65914e-05
3.65921e-05
3.52783e-05
3.40716e-05
3.40707e-05
3.39708e-05
5.13445e-05
3.46832e-05
5.46148e-05
7.65468e-05
8.08644e-05
3.39718e-05
5.1345e-05
3.46825e-05
5.46181e-05
3.39295e-05
3.39295e-05
3.39295e-05
3.2585e-05
3.2585e-05
3.2585e-05