/*--------------------------------*- C++ -*----------------------------------*\
| =========                 |                                                 |
| \\      /  F ield         | OpenFOAM: The Open Source CFD Toolbox           |
|  \\    /   O peration     | Version:                                        |
|   \\  /    A nd           | Website:  www.openfoam.com                      |
|    \\/     M anipulation  |                                                 |
\*---------------------------------------------------------------------------*/
FoamFile
{
    version     2.0;
    format      ascii;
    class       volScalarField;
    location    "1000";
    object      nut;
}
// * * * * * * * * * * * * * * * * * * * * * * * * * * * * * * * * * * * * * //

dimensions      [0 2 -1 0 0 0 0];


internalField   nonuniform List<scalar> 
172512
(
0.000233969
0.000233548
0.000233548
0.000233451
0.000232529
0.00022758
0.00022758
0.000223833
0.000230487
0.000220158
0.000220157
0.000209027
0.000227758
0.000211542
0.00021154
0.000193702
0.000224387
0.000202552
0.000202549
0.000179637
0.000220505
0.000193693
0.000193689
0.000167281
0.000216258
0.000185208
0.000185204
0.000156541
0.000211776
0.000177176
0.000177171
0.000147172
0.000207165
0.000169637
0.000169632
0.000138927
0.000202506
0.000162564
0.000162559
0.0001316
0.000197852
0.000155905
0.0001559
0.000124946
0.00019324
0.000149604
0.000149599
0.00011881
0.000188648
0.000143624
0.00014362
0.000113168
0.000184117
0.000137912
0.000137907
0.000107937
0.000179673
0.000132422
0.000132418
0.000103063
0.000175306
0.000127147
0.000127143
9.84444e-05
0.000171004
0.000122106
0.000122102
9.42613e-05
0.000166753
0.000117325
0.000117322
9.06715e-05
0.000162555
0.000112842
0.000112838
8.77442e-05
0.000158382
0.00010871
0.000108707
8.53974e-05
0.00015423
0.000104981
0.000104979
8.36826e-05
0.000150109
0.00010167
0.000101666
8.25931e-05
0.000146029
9.8854e-05
9.88519e-05
8.21119e-05
0.000142011
9.65465e-05
9.65438e-05
8.21643e-05
0.000138081
9.47559e-05
9.47547e-05
8.26997e-05
0.000134258
9.34841e-05
9.34827e-05
8.36746e-05
0.000130594
9.27161e-05
9.27166e-05
8.5029e-05
0.000127117
9.24334e-05
9.24336e-05
8.67017e-05
0.000123864
9.26063e-05
9.26081e-05
8.86421e-05
0.000120864
9.32061e-05
9.32074e-05
9.07921e-05
0.000118149
9.41951e-05
9.41983e-05
9.31113e-05
0.000115753
9.55386e-05
9.55421e-05
9.5558e-05
0.000113694
9.72004e-05
9.7204e-05
9.80995e-05
0.000111986
9.91421e-05
9.91473e-05
0.000100713
0.000110641
0.000101331
0.000101336
0.000103374
0.000109664
0.000103733
0.000103739
0.000106072
0.000109054
0.000106318
0.000106325
0.000108791
0.00010881
0.000109057
0.000109064
0.000111515
0.000108925
0.00011192
0.000111927
0.000114239
0.000109387
0.000114884
0.000114893
0.000116955
0.000110184
0.00011793
0.000117938
0.00011965
0.000111302
0.000121042
0.000121052
0.000122327
0.000112724
0.0001242
0.00012421
0.000124978
0.000114432
0.000127385
0.000127395
0.0001276
0.000116406
0.000130582
0.000130592
0.000130189
0.000118625
0.000133776
0.000133787
0.000132741
0.000121066
0.000136958
0.000136969
0.000135253
0.000123709
0.000140116
0.000140127
0.000137721
0.000126532
0.000143244
0.000143255
0.000140143
0.000129512
0.000146333
0.000146344
0.000142515
0.000132628
0.000149379
0.00014939
0.000144837
0.000135859
0.000152375
0.000152386
0.000147106
0.000139187
0.000155315
0.000155326
0.000149321
0.000142591
0.000158196
0.000158207
0.00015148
0.000146055
0.000161015
0.000161026
0.000153583
0.00014956
0.00016377
0.000163781
0.000155627
0.000153093
0.000166459
0.00016647
0.000157613
0.000156638
0.000169081
0.000169091
0.00015954
0.000160183
0.000171633
0.000171643
0.000161407
0.000163713
0.000174113
0.000174124
0.000163215
0.000167218
0.000176523
0.000176533
0.000164962
0.000170687
0.000178858
0.000178868
0.000166649
0.000174112
0.000181119
0.000181129
0.000168276
0.000177485
0.000183304
0.000183314
0.000169842
0.000180795
0.000185413
0.000185422
0.000171346
0.000184038
0.000187445
0.000187454
0.000172789
0.000187206
0.000189398
0.000189407
0.000174171
0.000190293
0.000191272
0.000191281
0.000175491
0.000193292
0.000193069
0.000193077
0.000176749
0.000196202
0.000194786
0.000194795
0.000177946
0.000199015
0.000196422
0.00019643
0.000179078
0.000201726
0.000197977
0.000197985
0.000180148
0.000204342
0.000199462
0.000199472
0.000181169
0.000206846
0.000200849
0.000200856
0.000182103
0.000209242
0.000202161
0.000202174
0.000182999
0.000211544
0.000203441
0.000203441
0.000183855
0.000213722
0.000204562
0.000204565
0.000184567
0.000215782
0.000205613
0.000205641
0.00018532
0.000217756
0.000206705
0.00020671
0.000185955
0.000219598
0.000207567
0.000207527
0.000186491
0.000221373
0.000208441
0.000208508
0.000187187
0.000222996
0.000209261
0.000209244
0.000187555
0.000224434
0.000209809
0.000209797
0.000187822
0.000225935
0.000210545
0.000210596
0.000188459
0.000227316
0.000211223
0.0002112
0.000188798
0.000228629
0.000211801
0.000211802
0.000189219
0.000229419
0.000211634
0.0002117
0.000188891
0.000230247
0.000212173
0.000212071
0.000188844
0.000231938
0.000213431
0.000213625
0.000190543
0.00023265
0.000213228
0.000212977
0.000190173
0.000232544
0.000211947
0.000212677
0.000188009
0.000234094
0.000214908
0.000214218
0.000191448
0.000233236
0.000212279
0.000211151
0.000188036
0.000233685
0.000210877
0.000214972
0.000190123
0.000237967
0.000221072
0.000220614
0.000198048
0.000234256
0.000234459
0.00023446
0.000234257
0.00023446
0.00023446
0.000234259
0.000234259
0.000234259
0.000234259
0.000234459
0.000234459
0.000234256
0.000234459
0.00023446
0.000234256
0.000233451
0.000226179
0.000233548
0.000233547
0.000229123
0.000229118
0.000233451
0.00022618
0.000233547
0.000233547
0.00022912
0.000229117
0.000233548
0.000229126
0.000229123
0.000233451
0.000226178
0.000233547
0.000229126
0.00022912
0.000226177
0.000223834
0.000212154
0.000227577
0.000227572
0.000222157
0.000222151
0.000223833
0.000212155
0.000227575
0.000227571
0.000222158
0.00022215
0.000227576
0.000222163
0.000222156
0.000223834
0.000212152
0.000227575
0.000222162
0.000222156
0.000212148
0.000209031
0.000196985
0.000220151
0.000220146
0.000213749
0.000213742
0.000209029
0.000196983
0.000220153
0.000220143
0.000213753
0.00021374
0.000220149
0.000213758
0.000213745
0.000209029
0.00019698
0.000220151
0.000213757
0.00021375
0.000196975
0.000193711
0.000182814
0.000211531
0.000211525
0.000204788
0.000204781
0.000193709
0.000182811
0.000211537
0.000211522
0.000204797
0.000204778
0.000211527
0.000204801
0.000204784
0.000193706
0.000182807
0.000211533
0.000204799
0.000204792
0.0001828
0.000179648
0.000170219
0.000202538
0.000202531
0.000195862
0.000195855
0.000179645
0.000170216
0.000202548
0.000202528
0.000195874
0.000195851
0.000202533
0.000195877
0.000195856
0.000179642
0.000170211
0.000202542
0.000195875
0.000195868
0.000170204
0.000167295
0.000159208
0.000193675
0.000193669
0.00018727
0.000187263
0.000167292
0.000159204
0.000193689
0.000193665
0.000187286
0.000187258
0.000193669
0.000187288
0.000187263
0.000167287
0.000159198
0.000193682
0.000187285
0.000187278
0.000159191
0.000156557
0.000149591
0.000185188
0.000185181
0.000179116
0.000179109
0.000156553
0.000149587
0.000185205
0.000185177
0.000179135
0.000179104
0.000185182
0.000179137
0.000179109
0.000156548
0.000149581
0.000185197
0.000179134
0.000179127
0.000149573
0.000147189
0.000141095
0.000177153
0.000177146
0.000171451
0.000171444
0.000147184
0.000141091
0.000177173
0.000177142
0.000171473
0.000171439
0.000177146
0.000171474
0.000171444
0.000147179
0.000141084
0.000177164
0.000171471
0.000171464
0.000141076
0.000138944
0.000133545
0.000169611
0.000169604
0.000164264
0.000164257
0.00013894
0.000133541
0.000169634
0.0001696
0.000164288
0.000164252
0.000169605
0.00016429
0.000164258
0.000138934
0.000133533
0.000169625
0.000164287
0.000164279
0.000133525
0.000131619
0.00012669
0.000162536
0.000162529
0.000157505
0.000157498
0.000131614
0.000126687
0.000162562
0.000162525
0.000157532
0.000157493
0.00016253
0.000157533
0.000157499
0.000131607
0.000126679
0.000162552
0.000157529
0.000157522
0.00012667
0.000124964
0.000120371
0.000155875
0.000155868
0.000151118
0.000151111
0.00012496
0.000120368
0.000155903
0.000155864
0.000151147
0.000151106
0.00015587
0.000151148
0.000151112
0.000124953
0.000120359
0.000155893
0.000151144
0.000151137
0.000120351
0.000118828
0.000114443
0.000149573
0.000149565
0.000145058
0.000145051
0.000118825
0.000114437
0.000149602
0.000149562
0.000145088
0.000145046
0.000149567
0.000145089
0.000145053
0.000118817
0.00011443
0.000149592
0.000145086
0.000145079
0.000114421
0.000113185
0.000108855
0.000143592
0.000143584
0.000139282
0.000139274
0.000113181
0.000108849
0.000143622
0.000143581
0.000139313
0.00013927
0.000143587
0.000139314
0.000139278
0.000113174
0.000108842
0.000143612
0.000139311
0.000139303
0.000108834
0.000107954
0.000103722
0.000137879
0.00013787
0.00013374
0.000133731
0.00010795
0.000103717
0.000137909
0.000137867
0.000133771
0.000133727
0.000137874
0.000133772
0.000133735
0.000107943
0.00010371
0.0001379
0.000133769
0.000133761
0.000103702
0.000103081
9.91476e-05
0.000132389
0.00013238
0.00012841
0.000128399
0.000103076
9.91428e-05
0.00013242
0.000132377
0.000128439
0.000128396
0.000132384
0.000128441
0.000128406
0.00010307
9.9136e-05
0.00013241
0.000128438
0.000128429
9.91292e-05
9.84622e-05
9.50095e-05
0.000127116
0.000127104
0.00012331
0.000123295
9.84569e-05
9.50052e-05
0.000127144
0.000127102
0.000123336
0.000123294
0.000127112
0.000123339
0.000123306
9.84505e-05
9.49987e-05
0.000127135
0.000123336
0.000123326
9.49925e-05
9.42777e-05
9.14561e-05
0.000122077
0.000122063
0.000118443
0.000118428
9.42727e-05
9.14514e-05
0.000122102
0.000122061
0.000118467
0.000118427
0.000122073
0.000118471
0.00011844
9.42668e-05
9.14464e-05
0.000122093
0.000118468
0.000118458
9.14403e-05
9.06859e-05
8.83995e-05
0.000117296
0.000117281
0.000113888
0.000113871
9.06795e-05
8.83942e-05
0.00011732
0.00011728
0.00011391
0.000113871
0.000117294
0.000113915
0.000113886
9.06761e-05
8.83895e-05
0.000117311
0.000113912
0.000113902
8.83845e-05
8.77583e-05
8.59305e-05
0.000112813
0.000112797
0.000109658
0.00010964
8.77527e-05
8.5926e-05
0.000112835
0.000112796
0.000109679
0.000109641
0.000112811
0.000109684
0.000109657
8.77482e-05
8.59216e-05
0.000112827
0.000109681
0.000109671
8.59174e-05
8.54097e-05
8.40905e-05
0.000108683
0.000108666
0.000105815
0.000105798
8.54055e-05
8.40868e-05
0.000108704
0.000108666
0.000105835
0.000105799
0.000108681
0.00010584
0.000105815
8.54007e-05
8.40837e-05
0.000108696
0.000105839
0.000105827
8.40794e-05
8.36924e-05
8.28809e-05
0.000104954
0.000104938
0.00010242
0.000102405
8.36888e-05
8.28783e-05
0.000104974
0.000104939
0.00010244
0.000102405
0.000104955
0.000102446
0.000102421
8.36863e-05
8.28731e-05
0.000104967
0.000102445
0.000102433
8.28691e-05
8.26033e-05
8.22807e-05
0.000101641
0.000101627
9.94811e-05
9.94686e-05
8.26016e-05
8.22774e-05
0.000101661
0.000101627
9.95015e-05
9.94689e-05
0.000101643
9.95074e-05
9.94848e-05
8.25961e-05
8.22751e-05
0.000101654
9.95073e-05
9.94957e-05
8.22714e-05
8.21208e-05
8.22257e-05
9.88263e-05
9.88136e-05
9.70455e-05
9.7035e-05
8.21171e-05
8.22236e-05
9.88464e-05
9.88143e-05
9.70655e-05
9.70348e-05
9.88299e-05
9.70716e-05
9.70508e-05
8.21156e-05
8.22203e-05
9.88401e-05
9.70717e-05
9.70607e-05
8.22183e-05
8.21702e-05
8.26635e-05
9.65183e-05
9.65084e-05
9.51269e-05
9.51181e-05
8.21695e-05
8.26619e-05
9.65379e-05
9.65077e-05
9.51463e-05
9.51179e-05
9.6524e-05
9.51526e-05
9.51332e-05
8.2165e-05
8.26596e-05
9.65331e-05
9.51532e-05
9.5142e-05
8.26568e-05
8.27059e-05
8.35494e-05
9.47291e-05
9.47201e-05
9.37273e-05
9.37196e-05
8.27042e-05
8.35476e-05
9.47479e-05
9.47204e-05
9.37458e-05
9.37198e-05
9.47354e-05
9.37518e-05
9.37346e-05
8.27028e-05
8.35455e-05
9.47434e-05
9.37532e-05
9.37423e-05
8.35437e-05
8.36801e-05
8.48267e-05
9.34586e-05
9.34507e-05
9.28371e-05
9.28301e-05
8.36784e-05
8.48244e-05
9.34764e-05
9.34503e-05
9.28544e-05
9.28299e-05
9.34655e-05
9.28601e-05
9.2845e-05
8.36752e-05
8.48223e-05
9.34723e-05
9.28614e-05
9.28514e-05
8.48221e-05
8.50321e-05
8.64342e-05
9.26922e-05
9.26851e-05
9.2436e-05
9.24304e-05
8.503e-05
8.64334e-05
9.27089e-05
9.26861e-05
9.24523e-05
9.24316e-05
9.27006e-05
9.24583e-05
9.24453e-05
8.50297e-05
8.64335e-05
9.27062e-05
9.24611e-05
9.24505e-05
8.64315e-05
8.67053e-05
8.83184e-05
9.24104e-05
9.24046e-05
9.24999e-05
9.24948e-05
8.67047e-05
8.8317e-05
9.24258e-05
9.2405e-05
9.25148e-05
9.24953e-05
9.24189e-05
9.25207e-05
9.25097e-05
8.67029e-05
8.83162e-05
9.24232e-05
9.25231e-05
9.25133e-05
8.83167e-05
8.86426e-05
9.04262e-05
9.25852e-05
9.25797e-05
9.29974e-05
9.29928e-05
8.8641e-05
9.0425e-05
9.25992e-05
9.25812e-05
9.3011e-05
9.29942e-05
9.25953e-05
9.30168e-05
9.30079e-05
8.86417e-05
9.04252e-05
9.25982e-05
9.30203e-05
9.30102e-05
9.04247e-05
9.07947e-05
9.27093e-05
9.31864e-05
9.31815e-05
9.38943e-05
9.38901e-05
9.07937e-05
9.27081e-05
9.31991e-05
9.31823e-05
9.39064e-05
9.38918e-05
9.31959e-05
9.39124e-05
9.3905e-05
9.07924e-05
9.27092e-05
9.31975e-05
9.39163e-05
9.39059e-05
9.27084e-05
9.31112e-05
9.51281e-05
9.41767e-05
9.41722e-05
9.51536e-05
9.51497e-05
9.311e-05
9.51269e-05
9.41881e-05
9.41746e-05
9.51644e-05
9.51523e-05
9.41878e-05
9.51704e-05
9.51658e-05
9.31121e-05
9.51289e-05
9.41878e-05
9.51754e-05
9.51653e-05
9.51292e-05
9.55574e-05
9.76517e-05
9.55216e-05
9.55173e-05
9.6741e-05
9.6737e-05
9.55562e-05
9.76502e-05
9.55316e-05
9.55199e-05
9.67503e-05
9.67389e-05
9.55335e-05
9.67564e-05
9.67526e-05
9.55574e-05
9.76508e-05
9.55321e-05
9.6761e-05
9.67506e-05
9.7651e-05
9.81003e-05
0.000100248
9.71846e-05
9.71804e-05
9.86169e-05
9.8613e-05
9.80989e-05
0.000100247
9.71933e-05
9.71827e-05
9.8625e-05
9.86166e-05
9.71962e-05
9.86314e-05
9.863e-05
9.80997e-05
0.00010025
9.71933e-05
9.86376e-05
9.86265e-05
0.00010025
0.000100711
0.000102901
9.91272e-05
9.91233e-05
0.000100749
0.000100744
0.00010071
0.0001029
9.91348e-05
9.91271e-05
0.000100755
0.000100748
9.91405e-05
0.000100762
0.000100762
0.000100713
0.000102901
9.91363e-05
0.000100768
0.000100757
0.000102902
0.000103374
0.000105591
0.000101317
0.000101313
0.000103101
0.000103097
0.000103372
0.000105589
0.000101324
0.000101316
0.000103107
0.0001031
0.00010133
0.000103113
0.000103114
0.000103374
0.000105592
0.000101325
0.00010312
0.000103108
0.000105591
0.000106072
0.000108303
0.00010372
0.000103716
0.000105644
0.000105639
0.00010607
0.000108301
0.000103725
0.00010372
0.000105649
0.000105644
0.000103734
0.000105655
0.000105658
0.000106073
0.000108305
0.000103727
0.000105663
0.000105651
0.000108305
0.00010879
0.000111027
0.000106306
0.000106302
0.000108348
0.000108343
0.000108788
0.000111025
0.000106311
0.000106306
0.000108352
0.000108347
0.00010632
0.000108359
0.000108362
0.000108791
0.000111028
0.000106313
0.000108367
0.000108354
0.000111027
0.000111516
0.00011375
0.000109046
0.000109041
0.000111183
0.000111177
0.000111514
0.000113748
0.000109049
0.000109045
0.000111186
0.000111182
0.000109059
0.000111193
0.000111196
0.000111516
0.000113752
0.000109051
0.000111201
0.000111188
0.000113751
0.000114239
0.000116468
0.000111909
0.000111903
0.000114124
0.000114118
0.000114237
0.000116465
0.000111912
0.000111908
0.000114127
0.000114124
0.000111923
0.000114134
0.000114138
0.00011424
0.00011647
0.000111914
0.000114144
0.000114129
0.000116469
0.000116954
0.00011917
0.000114874
0.000114868
0.000117151
0.000117144
0.000116951
0.000119167
0.000114876
0.000114874
0.000117153
0.00011715
0.000114888
0.00011716
0.000117165
0.000116956
0.000119171
0.000114879
0.00011717
0.000117156
0.00011917
0.000119651
0.000121851
0.00011792
0.000117913
0.00012025
0.000120242
0.000119648
0.000121848
0.000117922
0.000117919
0.000120251
0.000120248
0.000117933
0.000120258
0.000120263
0.000119652
0.000121854
0.000117924
0.000120269
0.000120253
0.000121852
0.000122327
0.00012451
0.000121034
0.000121025
0.0001234
0.00012339
0.000122324
0.000124507
0.000121034
0.000121032
0.0001234
0.000123397
0.000121046
0.000123407
0.000123411
0.000122329
0.000124513
0.000121036
0.000123418
0.000123402
0.00012451
0.000124978
0.000127141
0.000124193
0.000124182
0.000126581
0.000126569
0.000124975
0.000127137
0.000124193
0.00012419
0.00012658
0.000126577
0.000124204
0.000126587
0.000126591
0.00012498
0.000127143
0.000124195
0.000126598
0.000126582
0.000127141
0.000127601
0.00012974
0.000127379
0.000127367
0.000129776
0.000129764
0.000127596
0.000129736
0.000127378
0.000127375
0.000129775
0.000129772
0.000127389
0.000129782
0.000129785
0.000127602
0.000129742
0.00012738
0.000129793
0.000129777
0.00012974
0.00013019
0.000132303
0.000130576
0.000130563
0.000132973
0.000132959
0.000130186
0.000132299
0.000130574
0.000130571
0.000132971
0.000132968
0.000130585
0.000132978
0.000132981
0.000130192
0.000132306
0.000130576
0.00013299
0.000132973
0.000132302
0.000132743
0.000134827
0.000133771
0.000133757
0.000136159
0.000136144
0.000132738
0.000134822
0.000133769
0.000133766
0.000136157
0.000136154
0.000133779
0.000136163
0.000136166
0.000132745
0.000134828
0.000133771
0.000136175
0.000136159
0.000134825
0.000135255
0.000137306
0.000136953
0.000136938
0.000139324
0.000139309
0.00013525
0.000137301
0.000136951
0.000136947
0.000139323
0.000139318
0.000136959
0.000139328
0.00013933
0.000135257
0.000137309
0.000136952
0.000139341
0.000139324
0.000137304
0.000137723
0.000139741
0.000140111
0.000140096
0.000142461
0.000142444
0.000137718
0.000139735
0.00014011
0.000140105
0.000142459
0.000142454
0.000140117
0.000142464
0.000142465
0.000137725
0.000139742
0.00014011
0.000142477
0.00014246
0.000139738
0.000140145
0.000142126
0.000143239
0.000143223
0.00014556
0.000145543
0.00014014
0.000142121
0.000143237
0.000143233
0.000145559
0.000145553
0.000143244
0.000145564
0.000145564
0.000140147
0.000142128
0.000143238
0.000145576
0.000145559
0.000142123
0.000142519
0.000144461
0.000146329
0.000146312
0.000148617
0.0001486
0.000142513
0.000144455
0.000146327
0.000146322
0.000148616
0.00014861
0.000146332
0.000148621
0.00014862
0.00014252
0.000144463
0.000146327
0.000148633
0.000148616
0.000144458
0.000144841
0.000146744
0.000149374
0.000149357
0.000151626
0.000151609
0.000144835
0.000146738
0.000149373
0.000149367
0.000151626
0.000151619
0.000149377
0.00015163
0.000151628
0.000144842
0.000146746
0.000149372
0.000151643
0.000151625
0.00014674
0.00014711
0.000148973
0.000152371
0.000152353
0.000154581
0.000154563
0.000147104
0.000148967
0.00015237
0.000152363
0.000154581
0.000154573
0.000152372
0.000154585
0.000154582
0.000147112
0.000148974
0.000152369
0.000154597
0.00015458
0.000148969
0.000149326
0.000151146
0.000155311
0.000155293
0.000157477
0.000157458
0.00014932
0.00015114
0.000155311
0.000155303
0.000157477
0.000157469
0.000155311
0.000157481
0.000157477
0.000149327
0.000151147
0.000155309
0.000157493
0.000157475
0.000151141
0.000151486
0.000153263
0.000158191
0.000158173
0.000160312
0.000160293
0.000151479
0.000153256
0.000158192
0.000158183
0.000160312
0.000160303
0.000158191
0.000160315
0.00016031
0.000151486
0.000153264
0.000158189
0.000160328
0.00016031
0.000153257
0.000153589
0.000155322
0.00016101
0.000160991
0.000163083
0.000163064
0.000153581
0.000155315
0.000161011
0.000161002
0.000163084
0.000163074
0.000161009
0.000163087
0.000163081
0.000153589
0.000155322
0.000161008
0.000163099
0.000163081
0.000155316
0.000155633
0.000157322
0.000163765
0.000163746
0.000165788
0.000165769
0.000155626
0.000157315
0.000163767
0.000163757
0.00016579
0.000165779
0.000163764
0.000165792
0.000165786
0.000155634
0.000157322
0.000163764
0.000165804
0.000165787
0.000157315
0.00015762
0.000159264
0.000166454
0.000166435
0.000168426
0.000168407
0.000157612
0.000159256
0.000166456
0.000166445
0.000168429
0.000168417
0.000166452
0.00016843
0.000168423
0.00015762
0.000159263
0.000166452
0.000168443
0.000168424
0.000159256
0.000159547
0.000161145
0.000169075
0.000169055
0.000170995
0.000170976
0.00015954
0.000161138
0.000169078
0.000169066
0.000170998
0.000170986
0.000169072
0.000171
0.000170991
0.000159547
0.000161145
0.000169073
0.000171012
0.000170993
0.000161137
0.000161415
0.000162967
0.000171627
0.000171607
0.000173494
0.000173473
0.000161408
0.000162959
0.000171629
0.000171617
0.000173497
0.000173484
0.000171623
0.000173498
0.000173489
0.000161415
0.000162966
0.000171625
0.00017351
0.000173492
0.000162959
0.000163223
0.00016473
0.000174107
0.000174087
0.00017592
0.0001759
0.000163215
0.000164721
0.000174111
0.000174097
0.000175924
0.000175911
0.000174103
0.000175926
0.000175915
0.000163222
0.000164728
0.000174105
0.000175937
0.000175919
0.00016472
0.000164971
0.000166431
0.000176516
0.000176496
0.000178274
0.000178254
0.000164963
0.000166423
0.00017652
0.000176506
0.000178279
0.000178264
0.00017651
0.00017828
0.000178268
0.00016497
0.000166429
0.000176514
0.000178291
0.000178273
0.000166421
0.000166659
0.000168072
0.000178851
0.000178831
0.000180553
0.000180533
0.000166651
0.000168064
0.000178855
0.000178841
0.000180558
0.000180543
0.000178845
0.00018056
0.000180547
0.000166657
0.00016807
0.000178849
0.000180571
0.000180552
0.000168062
0.000168286
0.000169652
0.000181111
0.000181091
0.000182758
0.000182737
0.000168278
0.000169644
0.000181117
0.000181101
0.000182763
0.000182747
0.000181105
0.000182764
0.000182751
0.000168285
0.00016965
0.00018111
0.000182775
0.000182756
0.000169641
0.000169853
0.00017117
0.000183297
0.000183276
0.000184885
0.000184864
0.000169844
0.000171162
0.000183302
0.000183286
0.000184891
0.000184874
0.00018329
0.000184892
0.000184877
0.00016985
0.000171168
0.000183295
0.000184902
0.000184883
0.000171159
0.000171356
0.000172628
0.000185404
0.000185384
0.000186935
0.000186914
0.000171349
0.00017262
0.000185411
0.000185393
0.000186942
0.000186924
0.000185397
0.000186942
0.000186927
0.000171355
0.000172626
0.000185403
0.000186953
0.000186934
0.000172616
0.000172801
0.000174024
0.000187436
0.000187415
0.000188908
0.000188886
0.000172793
0.000174015
0.000187442
0.000187425
0.000188915
0.000188897
0.000187428
0.000188915
0.0001889
0.000172799
0.000174022
0.000187434
0.000188926
0.000188907
0.000174012
0.000174183
0.000175357
0.000189389
0.000189367
0.000190802
0.00019078
0.000174174
0.000175348
0.000189396
0.000189378
0.000190809
0.00019079
0.000189381
0.000190809
0.000190793
0.000174181
0.000175355
0.000189388
0.00019082
0.000190801
0.000175345
0.000175503
0.000176629
0.000191263
0.000191241
0.000192616
0.000192595
0.000175494
0.000176621
0.000191271
0.000191251
0.000192625
0.000192605
0.000191255
0.000192625
0.000192608
0.0001755
0.000176626
0.000191262
0.000192635
0.000192616
0.000176616
0.000176761
0.00017784
0.000193058
0.000193037
0.000194353
0.000194332
0.000176754
0.000177831
0.000193067
0.000193046
0.000194362
0.000194342
0.000193049
0.000194362
0.000194344
0.000176759
0.000177838
0.000193058
0.000194372
0.000194352
0.000177827
0.000177959
0.000178988
0.000194775
0.000194754
0.00019601
0.000195988
0.00017795
0.000178978
0.000194784
0.000194764
0.00019602
0.000195998
0.000194766
0.000196018
0.000196
0.000177957
0.000178984
0.000194775
0.000196029
0.00019601
0.000178974
0.000179091
0.00018007
0.000196412
0.00019639
0.000197583
0.000197562
0.000179082
0.000180063
0.000196421
0.000196399
0.000197592
0.00019757
0.000196402
0.000197593
0.000197574
0.000179086
0.000180067
0.000196411
0.000197601
0.000197583
0.000180057
0.000180161
0.000181107
0.000197965
0.000197944
0.000199086
0.000199064
0.000180154
0.000181098
0.000197975
0.000197953
0.000199096
0.000199075
0.000197956
0.000199096
0.000199075
0.000180159
0.000181105
0.000197965
0.000199108
0.000199085
0.000181091
0.000181184
0.000182058
0.000199451
0.000199429
0.000200499
0.000200478
0.000181176
0.00018205
0.000199462
0.00019944
0.000200509
0.000200485
0.00019944
0.00020051
0.00020049
0.000181181
0.000182053
0.00019945
0.000200517
0.000200499
0.000182045
0.000182116
0.000182963
0.000200838
0.000200815
0.000201827
0.000201797
0.000182105
0.000182942
0.000200848
0.000200823
0.000201839
0.000201813
0.000200828
0.00020183
0.000201814
0.000182111
0.000182955
0.000200838
0.000201846
0.000201825
0.000182944
0.000183016
0.000183826
0.000202156
0.000202127
0.000203104
0.000203092
0.000182998
0.00018384
0.000202168
0.000202142
0.000203115
0.000203097
0.000202143
0.000203126
0.0002031
0.000183009
0.000183835
0.000202155
0.00020313
0.000203111
0.000183822
0.00018386
0.00018459
0.00020341
0.000203405
0.000204274
0.000204258
0.000183879
0.000184581
0.000203421
0.000203407
0.000204286
0.000204261
0.000203408
0.000204292
0.000204255
0.000183872
0.000184577
0.000203418
0.000204295
0.000204265
0.000184555
0.000184605
0.000185304
0.000204555
0.000204527
0.000205356
0.000205302
0.000184581
0.000185246
0.000204567
0.000204532
0.000205368
0.000205322
0.00020453
0.000205335
0.000205345
0.00018458
0.000185277
0.000204541
0.000205355
0.000205357
0.000185298
0.000185314
0.000185986
0.000205627
0.000205578
0.000206401
0.000206401
0.000185265
0.000186025
0.000205641
0.000205607
0.000206417
0.000206424
0.000205628
0.000206438
0.000206407
0.000185305
0.000186034
0.00020564
0.000206461
0.000206422
0.000185986
0.000185964
0.000186553
0.000206654
0.000206668
0.000207321
0.000207328
0.000186018
0.000186569
0.000206669
0.000206674
0.00020733
0.000207286
0.000206649
0.000207362
0.000207292
0.000186004
0.000186507
0.000206663
0.000207318
0.0002073
0.000186511
0.000186533
0.000187237
0.000207548
0.000207534
0.000208247
0.00020816
0.00018652
0.000187129
0.000207555
0.000207494
0.000208262
0.000208215
0.000207521
0.000208194
0.000208223
0.000186472
0.000187218
0.000207526
0.000208249
0.000208237
0.000187204
0.000187211
0.00018763
0.000208485
0.000208406
0.000209041
0.000209046
0.000187121
0.000187689
0.000208504
0.000208474
0.000209059
0.00020906
0.000208467
0.000209083
0.000209051
0.000187214
0.000187674
0.000208485
0.000209097
0.000209068
0.000187658
0.000187522
0.000187924
0.000209188
0.00020922
0.000209617
0.000209631
0.000187604
0.000187936
0.000209203
0.000209206
0.000209625
0.000209595
0.000209208
0.00020967
0.000209606
0.000187565
0.000187894
0.000209222
0.000209633
0.000209612
0.000187883
0.000187881
0.000188525
0.000209796
0.000209773
0.000210404
0.00021033
0.000187857
0.000188442
0.000209805
0.000209762
0.000210423
0.000210385
0.000209764
0.000210361
0.000210381
0.000187842
0.000188522
0.000209772
0.000210417
0.0002104
0.000188508
0.000188454
0.0001889
0.000210577
0.000210511
0.000211019
0.000211018
0.000188389
0.000188935
0.000210598
0.000210563
0.000211036
0.000211019
0.00021057
0.000211059
0.000211032
0.000188462
0.000188887
0.00021059
0.00021106
0.000211047
0.000188892
0.000188852
0.000189498
0.000211181
0.000211184
0.000211725
0.000211702
0.000188884
0.000189466
0.000211194
0.00021116
0.000211735
0.000211703
0.000211145
0.00021173
0.000211631
0.000188826
0.000189445
0.000211157
0.00021173
0.000211642
0.000189309
0.000189378
0.00018871
0.000211795
0.00021177
0.00021172
0.000211672
0.000189342
0.000188693
0.000211805
0.000211774
0.000211738
0.000211761
0.000211732
0.000211722
0.000211912
0.00018934
0.000188817
0.000211743
0.000211808
0.000211929
0.000189076
0.000188533
0.000189089
0.000211628
0.000211582
0.000211888
0.000211886
0.000188498
0.000189169
0.00021165
0.000211644
0.000211907
0.000211829
0.000211812
0.000211926
0.000211876
0.000188621
0.000188867
0.000211832
0.000211874
0.000211888
0.000188823
0.000189201
0.00019054
0.000212076
0.000212141
0.000213184
0.0002132
0.00018932
0.000190595
0.000212088
0.00021203
0.0002132
0.000213339
0.000212008
0.000213233
0.000213026
0.00018896
0.000190955
0.000212021
0.000213359
0.000213041
0.000190449
0.000190555
0.000190392
0.000213442
0.000213398
0.00021358
0.00021344
0.000190518
0.000190151
0.00021347
0.000213599
0.000213596
0.000213399
0.000213339
0.00021347
0.000213538
0.000191037
0.000189795
0.000213374
0.000213421
0.000213559
0.00019049
0.000189941
0.0001881
0.000213335
0.000213192
0.000211932
0.000211863
0.000189751
0.000187804
0.000213346
0.000212938
0.000211924
0.000212059
0.000213438
0.00021191
0.000212268
0.000189218
0.000188558
0.000213442
0.000212143
0.000212255
0.000188129
0.000188089
0.00019174
0.000212209
0.000211893
0.000214065
0.00021432
0.00018774
0.000192129
0.000212249
0.000212612
0.000214081
0.000214156
0.000212309
0.000214316
0.000213366
0.000188706
0.000191744
0.000212336
0.000214123
0.000213383
0.000190961
0.000191939
0.000188966
0.000214482
0.000214914
0.000213067
0.000213875
0.000192308
0.000189513
0.000214452
0.000214255
0.000212876
0.00021194
0.0002141
0.000213891
0.000213329
0.000191454
0.000187022
0.000214089
0.000211971
0.000213145
0.000189089
0.000187515
0.000185152
0.000211814
0.000212199
0.000209701
0.000209946
0.000187928
0.000185572
0.000211689
0.000211047
0.00020985
0.000211918
0.000212625
0.000210147
0.000212367
0.000186016
0.000189862
0.000212499
0.000212249
0.000212651
0.000188928
0.000185427
0.000201721
0.000211488
0.000210663
0.000220277
0.00022033
0.000186023
0.000201496
0.000211836
0.000214713
0.000220449
0.000221593
0.000213878
0.000220284
0.000217842
0.000191695
0.000204415
0.000214198
0.000221479
0.00021805
0.000198167
0.000204583
0.000220972
0.000221198
0.000204396
0.000221044
0.000220802
0.000237925
0.000238279
0.000236591
0.000217455
0.000203664
0.000217504
0.000234728
0.000234779
0.000234733
0.000234733
0.00023511
0.000234806
0.000234702
0.000234742
0.00023511
0.000234806
0.000234742
0.000234702
0.00023486
0.000233567
0.000233568
0.000104653
3.87587e-05
0.000129428
3.98342e-05
2.16907e-05
2.28368e-05
0.000104616
3.87547e-05
0.00012946
3.98309e-05
0.000233969
0.000233969
0.000233969
0.000232942
0.000232942
0.000232942
0.000232942
0.000206249
9.37608e-05
0.000233996
0.000231746
0.000222768
8.72446e-05
0.000233595
2.169e-05
2.28361e-05
0.000206248
0.000233996
9.37597e-05
0.000231747
0.000222768
0.000233595
8.72484e-05
4.78456e-05
4.78363e-05
0.000231405
4.39757e-05
4.39601e-05
7.25106e-05
4.24332e-05
8.13316e-05
4.37612e-05
2.47747e-05
2.54626e-05
7.24964e-05
4.24283e-05
8.13406e-05
4.37576e-05
0.000232529
0.000232529
0.000232529
0.000231061
0.000231061
0.00023106
0.00023106