/*--------------------------------*- C++ -*----------------------------------*\
| =========                 |                                                 |
| \\      /  F ield         | OpenFOAM: The Open Source CFD Toolbox           |
|  \\    /   O peration     | Version:                                        |
|   \\  /    A nd           | Website:  www.openfoam.com                      |
|    \\/     M anipulation  |                                                 |
\*---------------------------------------------------------------------------*/
FoamFile
{
    version     2.0;
    format      ascii;
    class       volScalarField;
    location    "14350.5";
    object      p;
}
// * * * * * * * * * * * * * * * * * * * * * * * * * * * * * * * * * * * * * //

dimensions      [0 2 -2 0 0 0 0];


internalField   nonuniform List<scalar> 
247096
(
1.23419e-07
1.23422e-07
1.23565e-07
1.23652e-07
1.23685e-07
1.23643e-07
1.23552e-07
1.23398e-07
1.23422e-07
1.2362e-07
1.23797e-07
1.2389e-07
1.23913e-07
1.23883e-07
1.23779e-07
1.23596e-07
1.23565e-07
1.23797e-07
1.23938e-07
1.23979e-07
1.23986e-07
1.23977e-07
1.23927e-07
1.2377e-07
1.23538e-07
1.23652e-07
1.2389e-07
1.23979e-07
1.23991e-07
1.2399e-07
1.23991e-07
1.23975e-07
1.23868e-07
1.23619e-07
1.23419e-07
1.23684e-07
1.23913e-07
1.23986e-07
1.2399e-07
1.23987e-07
1.23991e-07
1.23983e-07
1.23894e-07
1.2365e-07
1.23643e-07
1.23883e-07
1.23977e-07
1.23991e-07
1.23991e-07
1.23991e-07
1.23972e-07
1.2386e-07
1.2361e-07
1.23552e-07
1.23779e-07
1.23927e-07
1.23975e-07
1.23983e-07
1.23972e-07
1.23915e-07
1.23751e-07
1.23526e-07
1.23398e-07
1.23596e-07
1.2377e-07
1.23868e-07
1.23893e-07
1.2386e-07
1.23751e-07
1.23574e-07
1.23538e-07
1.23619e-07
1.2365e-07
1.2361e-07
1.23526e-07
1.206e-07
1.20576e-07
1.20584e-07
1.20437e-07
1.20449e-07
1.20468e-07
1.20448e-07
1.20633e-07
1.20571e-07
1.20584e-07
1.20456e-07
1.20248e-07
1.20266e-07
1.20266e-07
1.20248e-07
1.20511e-07
1.2046e-07
1.20437e-07
1.20248e-07
1.20287e-07
1.2031e-07
1.2031e-07
1.20287e-07
1.20248e-07
1.20574e-07
1.20622e-07
1.206e-07
1.20449e-07
1.20266e-07
1.2031e-07
1.20334e-07
1.20334e-07
1.2031e-07
1.20266e-07
1.20601e-07
1.20639e-07
1.20576e-07
1.20468e-07
1.20266e-07
1.2031e-07
1.20334e-07
1.20334e-07
1.2031e-07
1.20266e-07
1.20604e-07
1.20465e-07
1.20448e-07
1.20248e-07
1.20287e-07
1.2031e-07
1.2031e-07
1.20287e-07
1.20248e-07
1.20597e-07
1.20648e-07
1.20633e-07
1.20511e-07
1.20248e-07
1.20266e-07
1.20266e-07
1.20248e-07
1.20591e-07
1.20518e-07
1.20632e-07
1.20571e-07
1.2046e-07
1.20574e-07
1.20601e-07
1.20604e-07
1.20597e-07
1.20518e-07
1.20641e-07
1.20621e-07
1.20639e-07
1.20465e-07
1.20648e-07
1.20632e-07
1.18847e-07
1.18838e-07
1.18846e-07
1.18716e-07
1.18714e-07
1.18723e-07
1.18716e-07
1.1888e-07
1.18838e-07
1.18846e-07
1.18709e-07
1.1848e-07
1.1849e-07
1.1849e-07
1.1848e-07
1.18732e-07
1.18728e-07
1.18716e-07
1.1848e-07
1.18503e-07
1.18514e-07
1.18514e-07
1.18503e-07
1.1848e-07
1.18777e-07
1.18871e-07
1.18847e-07
1.18714e-07
1.1849e-07
1.18514e-07
1.18527e-07
1.18528e-07
1.18514e-07
1.1849e-07
1.18781e-07
1.18868e-07
1.18838e-07
1.18723e-07
1.1849e-07
1.18514e-07
1.18527e-07
1.18527e-07
1.18514e-07
1.1849e-07
1.1878e-07
1.18735e-07
1.18716e-07
1.1848e-07
1.18503e-07
1.18514e-07
1.18514e-07
1.18503e-07
1.1848e-07
1.18784e-07
1.18876e-07
1.1888e-07
1.18732e-07
1.1848e-07
1.1849e-07
1.1849e-07
1.1848e-07
1.18764e-07
1.18756e-07
1.1888e-07
1.18838e-07
1.18728e-07
1.18777e-07
1.18781e-07
1.1878e-07
1.18784e-07
1.18756e-07
1.18883e-07
1.18871e-07
1.18868e-07
1.18735e-07
1.18876e-07
1.1888e-07
1.17322e-07
1.17313e-07
1.17321e-07
1.17198e-07
1.17195e-07
1.17202e-07
1.17197e-07
1.17349e-07
1.17316e-07
1.17321e-07
1.17192e-07
1.16998e-07
1.17003e-07
1.17003e-07
1.16998e-07
1.17216e-07
1.17213e-07
1.17198e-07
1.16998e-07
1.1701e-07
1.17015e-07
1.17015e-07
1.1701e-07
1.16998e-07
1.17257e-07
1.17345e-07
1.17322e-07
1.17195e-07
1.17003e-07
1.17015e-07
1.17021e-07
1.17021e-07
1.17015e-07
1.17003e-07
1.1726e-07
1.17343e-07
1.17313e-07
1.17202e-07
1.17003e-07
1.17015e-07
1.17021e-07
1.17021e-07
1.17015e-07
1.17003e-07
1.17259e-07
1.17217e-07
1.17197e-07
1.16998e-07
1.1701e-07
1.17015e-07
1.17015e-07
1.1701e-07
1.16998e-07
1.17261e-07
1.17349e-07
1.17349e-07
1.17216e-07
1.16998e-07
1.17003e-07
1.17003e-07
1.16998e-07
1.17243e-07
1.17236e-07
1.17351e-07
1.17316e-07
1.17213e-07
1.17257e-07
1.1726e-07
1.17259e-07
1.17261e-07
1.17236e-07
1.17357e-07
1.17345e-07
1.17343e-07
1.17217e-07
1.17349e-07
1.17351e-07
1.1596e-07
1.1595e-07
1.15959e-07
1.1584e-07
1.15837e-07
1.15842e-07
1.15838e-07
1.15984e-07
1.15955e-07
1.15959e-07
1.15835e-07
1.15658e-07
1.15661e-07
1.15661e-07
1.15658e-07
1.1586e-07
1.15857e-07
1.1584e-07
1.15658e-07
1.15665e-07
1.15666e-07
1.15666e-07
1.15665e-07
1.15658e-07
1.15901e-07
1.15984e-07
1.1596e-07
1.15837e-07
1.15661e-07
1.15666e-07
1.15668e-07
1.15668e-07
1.15666e-07
1.15661e-07
1.15902e-07
1.15981e-07
1.1595e-07
1.15842e-07
1.15661e-07
1.15666e-07
1.15668e-07
1.15668e-07
1.15666e-07
1.15661e-07
1.159e-07
1.15861e-07
1.15838e-07
1.15658e-07
1.15665e-07
1.15666e-07
1.15666e-07
1.15665e-07
1.15658e-07
1.15902e-07
1.15986e-07
1.15984e-07
1.1586e-07
1.15658e-07
1.15661e-07
1.15661e-07
1.15658e-07
1.15887e-07
1.15879e-07
1.15987e-07
1.15955e-07
1.15857e-07
1.15901e-07
1.15902e-07
1.159e-07
1.15902e-07
1.15879e-07
1.15995e-07
1.15984e-07
1.15981e-07
1.15861e-07
1.15986e-07
1.15987e-07
1.14662e-07
1.14652e-07
1.14661e-07
1.14544e-07
1.1454e-07
1.14545e-07
1.14542e-07
1.14685e-07
1.14658e-07
1.14661e-07
1.14538e-07
1.14368e-07
1.14369e-07
1.14369e-07
1.14368e-07
1.14564e-07
1.14561e-07
1.14544e-07
1.14368e-07
1.14372e-07
1.14371e-07
1.14371e-07
1.14372e-07
1.14368e-07
1.14606e-07
1.14686e-07
1.14662e-07
1.1454e-07
1.14369e-07
1.14371e-07
1.14371e-07
1.14371e-07
1.14371e-07
1.14369e-07
1.14606e-07
1.14683e-07
1.14652e-07
1.14545e-07
1.14369e-07
1.14371e-07
1.14371e-07
1.14371e-07
1.14371e-07
1.14369e-07
1.14604e-07
1.14565e-07
1.14542e-07
1.14368e-07
1.14372e-07
1.14371e-07
1.14371e-07
1.14372e-07
1.14368e-07
1.14605e-07
1.14688e-07
1.14685e-07
1.14564e-07
1.14368e-07
1.14369e-07
1.14369e-07
1.14368e-07
1.14591e-07
1.14583e-07
1.14689e-07
1.14658e-07
1.14561e-07
1.14606e-07
1.14606e-07
1.14604e-07
1.14605e-07
1.14583e-07
1.14697e-07
1.14686e-07
1.14683e-07
1.14565e-07
1.14688e-07
1.14689e-07
1.1338e-07
1.1337e-07
1.13378e-07
1.13262e-07
1.13257e-07
1.13262e-07
1.13259e-07
1.13402e-07
1.13375e-07
1.13378e-07
1.13256e-07
1.13086e-07
1.13087e-07
1.13087e-07
1.13086e-07
1.13281e-07
1.13279e-07
1.13262e-07
1.13086e-07
1.1309e-07
1.13088e-07
1.13088e-07
1.1309e-07
1.13086e-07
1.13324e-07
1.13403e-07
1.1338e-07
1.13257e-07
1.13087e-07
1.13088e-07
1.13088e-07
1.13088e-07
1.13088e-07
1.13087e-07
1.13324e-07
1.134e-07
1.1337e-07
1.13262e-07
1.13087e-07
1.13088e-07
1.13088e-07
1.13088e-07
1.13088e-07
1.13087e-07
1.13321e-07
1.13283e-07
1.13259e-07
1.13086e-07
1.1309e-07
1.13088e-07
1.13088e-07
1.1309e-07
1.13086e-07
1.13323e-07
1.13405e-07
1.13402e-07
1.13281e-07
1.13086e-07
1.13087e-07
1.13087e-07
1.13086e-07
1.13308e-07
1.133e-07
1.13406e-07
1.13375e-07
1.13279e-07
1.13324e-07
1.13324e-07
1.13321e-07
1.13323e-07
1.133e-07
1.13415e-07
1.13403e-07
1.134e-07
1.13283e-07
1.13405e-07
1.13406e-07
1.12098e-07
1.12088e-07
1.12097e-07
1.1198e-07
1.11976e-07
1.1198e-07
1.11977e-07
1.12121e-07
1.12094e-07
1.12097e-07
1.11974e-07
1.11804e-07
1.11805e-07
1.11805e-07
1.11804e-07
1.12e-07
1.11997e-07
1.1198e-07
1.11804e-07
1.11808e-07
1.11806e-07
1.11806e-07
1.11808e-07
1.11804e-07
1.12042e-07
1.12122e-07
1.12098e-07
1.11976e-07
1.11805e-07
1.11806e-07
1.11805e-07
1.11805e-07
1.11806e-07
1.11805e-07
1.12042e-07
1.12119e-07
1.12088e-07
1.1198e-07
1.11805e-07
1.11806e-07
1.11805e-07
1.11805e-07
1.11806e-07
1.11805e-07
1.1204e-07
1.12001e-07
1.11977e-07
1.11804e-07
1.11808e-07
1.11806e-07
1.11806e-07
1.11808e-07
1.11804e-07
1.12041e-07
1.12123e-07
1.12121e-07
1.12e-07
1.11804e-07
1.11805e-07
1.11805e-07
1.11804e-07
1.12027e-07
1.12019e-07
1.12124e-07
1.12094e-07
1.11997e-07
1.12042e-07
1.12042e-07
1.1204e-07
1.12041e-07
1.12019e-07
1.12133e-07
1.12122e-07
1.12119e-07
1.12001e-07
1.12123e-07
1.12125e-07
1.10815e-07
1.10805e-07
1.10814e-07
1.10698e-07
1.10693e-07
1.10698e-07
1.10695e-07
1.10838e-07
1.10811e-07
1.10814e-07
1.10692e-07
1.10521e-07
1.10522e-07
1.10522e-07
1.10521e-07
1.10717e-07
1.10714e-07
1.10698e-07
1.10521e-07
1.10525e-07
1.10523e-07
1.10523e-07
1.10525e-07
1.10521e-07
1.1076e-07
1.10839e-07
1.10815e-07
1.10693e-07
1.10522e-07
1.10523e-07
1.10523e-07
1.10523e-07
1.10523e-07
1.10522e-07
1.1076e-07
1.10836e-07
1.10805e-07
1.10698e-07
1.10522e-07
1.10523e-07
1.10523e-07
1.10523e-07
1.10523e-07
1.10522e-07
1.10757e-07
1.10718e-07
1.10695e-07
1.10521e-07
1.10525e-07
1.10523e-07
1.10523e-07
1.10525e-07
1.10521e-07
1.10759e-07
1.10841e-07
1.10838e-07
1.10717e-07
1.10521e-07
1.10522e-07
1.10522e-07
1.10521e-07
1.10744e-07
1.10736e-07
1.10842e-07
1.10811e-07
1.10714e-07
1.1076e-07
1.1076e-07
1.10757e-07
1.10759e-07
1.10736e-07
1.10851e-07
1.10839e-07
1.10836e-07
1.10718e-07
1.10841e-07
1.10842e-07
1.09533e-07
1.09523e-07
1.09531e-07
1.09415e-07
1.0941e-07
1.09415e-07
1.09412e-07
1.09555e-07
1.09528e-07
1.09531e-07
1.09409e-07
1.09238e-07
1.09239e-07
1.09239e-07
1.09238e-07
1.09434e-07
1.09431e-07
1.09415e-07
1.09238e-07
1.09242e-07
1.09241e-07
1.09241e-07
1.09242e-07
1.09238e-07
1.09477e-07
1.09556e-07
1.09533e-07
1.0941e-07
1.09239e-07
1.09241e-07
1.0924e-07
1.0924e-07
1.09241e-07
1.09239e-07
1.09477e-07
1.09553e-07
1.09523e-07
1.09415e-07
1.09239e-07
1.09241e-07
1.0924e-07
1.0924e-07
1.09241e-07
1.09239e-07
1.09474e-07
1.09435e-07
1.09412e-07
1.09238e-07
1.09242e-07
1.09241e-07
1.09241e-07
1.09242e-07
1.09238e-07
1.09476e-07
1.09558e-07
1.09555e-07
1.09434e-07
1.09238e-07
1.09239e-07
1.09239e-07
1.09238e-07
1.09461e-07
1.09453e-07
1.09559e-07
1.09528e-07
1.09431e-07
1.09477e-07
1.09477e-07
1.09474e-07
1.09476e-07
1.09453e-07
1.09568e-07
1.09556e-07
1.09553e-07
1.09435e-07
1.09558e-07
1.09559e-07
1.0825e-07
1.0824e-07
1.08248e-07
1.08132e-07
1.08127e-07
1.08132e-07
1.08129e-07
1.08272e-07
1.08245e-07
1.08248e-07
1.08126e-07
1.07955e-07
1.07956e-07
1.07956e-07
1.07955e-07
1.08151e-07
1.08148e-07
1.08132e-07
1.07955e-07
1.07959e-07
1.07958e-07
1.07958e-07
1.07959e-07
1.07955e-07
1.08194e-07
1.08273e-07
1.0825e-07
1.08127e-07
1.07956e-07
1.07958e-07
1.07957e-07
1.07957e-07
1.07958e-07
1.07956e-07
1.08194e-07
1.0827e-07
1.0824e-07
1.08132e-07
1.07956e-07
1.07958e-07
1.07957e-07
1.07957e-07
1.07958e-07
1.07956e-07
1.08191e-07
1.08153e-07
1.08129e-07
1.07955e-07
1.07959e-07
1.07958e-07
1.07958e-07
1.07959e-07
1.07955e-07
1.08193e-07
1.08275e-07
1.08272e-07
1.08151e-07
1.07955e-07
1.07956e-07
1.07956e-07
1.07955e-07
1.08178e-07
1.0817e-07
1.08276e-07
1.08245e-07
1.08148e-07
1.08194e-07
1.08194e-07
1.08191e-07
1.08193e-07
1.0817e-07
1.08285e-07
1.08273e-07
1.0827e-07
1.08153e-07
1.08275e-07
1.08276e-07
1.06967e-07
1.06957e-07
1.06965e-07
1.06849e-07
1.06844e-07
1.06849e-07
1.06846e-07
1.06989e-07
1.06962e-07
1.06965e-07
1.06843e-07
1.06672e-07
1.06673e-07
1.06673e-07
1.06672e-07
1.06868e-07
1.06866e-07
1.06849e-07
1.06672e-07
1.06676e-07
1.06675e-07
1.06675e-07
1.06676e-07
1.06672e-07
1.06911e-07
1.0699e-07
1.06967e-07
1.06844e-07
1.06673e-07
1.06675e-07
1.06674e-07
1.06674e-07
1.06675e-07
1.06673e-07
1.06911e-07
1.06987e-07
1.06957e-07
1.06849e-07
1.06673e-07
1.06675e-07
1.06674e-07
1.06674e-07
1.06675e-07
1.06673e-07
1.06908e-07
1.0687e-07
1.06846e-07
1.06672e-07
1.06676e-07
1.06675e-07
1.06675e-07
1.06676e-07
1.06672e-07
1.0691e-07
1.06992e-07
1.06989e-07
1.06868e-07
1.06672e-07
1.06673e-07
1.06673e-07
1.06672e-07
1.06895e-07
1.06887e-07
1.06993e-07
1.06962e-07
1.06866e-07
1.06911e-07
1.06911e-07
1.06908e-07
1.0691e-07
1.06887e-07
1.07002e-07
1.0699e-07
1.06987e-07
1.0687e-07
1.06992e-07
1.06993e-07
1.05684e-07
1.05674e-07
1.05682e-07
1.05566e-07
1.05561e-07
1.05566e-07
1.05563e-07
1.05706e-07
1.05679e-07
1.05682e-07
1.0556e-07
1.0539e-07
1.0539e-07
1.0539e-07
1.0539e-07
1.05585e-07
1.05583e-07
1.05566e-07
1.0539e-07
1.05393e-07
1.05392e-07
1.05392e-07
1.05393e-07
1.0539e-07
1.05628e-07
1.05708e-07
1.05684e-07
1.05561e-07
1.0539e-07
1.05392e-07
1.05391e-07
1.05391e-07
1.05392e-07
1.0539e-07
1.05628e-07
1.05704e-07
1.05674e-07
1.05566e-07
1.0539e-07
1.05392e-07
1.05391e-07
1.05391e-07
1.05392e-07
1.0539e-07
1.05625e-07
1.05587e-07
1.05563e-07
1.0539e-07
1.05393e-07
1.05392e-07
1.05392e-07
1.05393e-07
1.0539e-07
1.05627e-07
1.05709e-07
1.05706e-07
1.05585e-07
1.0539e-07
1.0539e-07
1.0539e-07
1.0539e-07
1.05612e-07
1.05604e-07
1.0571e-07
1.05679e-07
1.05583e-07
1.05628e-07
1.05628e-07
1.05625e-07
1.05627e-07
1.05604e-07
1.05719e-07
1.05708e-07
1.05704e-07
1.05587e-07
1.05709e-07
1.0571e-07
1.04401e-07
1.04391e-07
1.04399e-07
1.04283e-07
1.04278e-07
1.04283e-07
1.0428e-07
1.04424e-07
1.04396e-07
1.04399e-07
1.04277e-07
1.04107e-07
1.04107e-07
1.04107e-07
1.04107e-07
1.04303e-07
1.043e-07
1.04283e-07
1.04107e-07
1.0411e-07
1.04109e-07
1.04109e-07
1.0411e-07
1.04107e-07
1.04345e-07
1.04425e-07
1.04401e-07
1.04278e-07
1.04107e-07
1.04109e-07
1.04108e-07
1.04108e-07
1.04109e-07
1.04107e-07
1.04345e-07
1.04421e-07
1.04391e-07
1.04283e-07
1.04107e-07
1.04109e-07
1.04108e-07
1.04108e-07
1.04109e-07
1.04107e-07
1.04342e-07
1.04304e-07
1.0428e-07
1.04107e-07
1.0411e-07
1.04109e-07
1.04109e-07
1.0411e-07
1.04107e-07
1.04344e-07
1.04426e-07
1.04424e-07
1.04302e-07
1.04107e-07
1.04107e-07
1.04107e-07
1.04107e-07
1.04329e-07
1.04321e-07
1.04427e-07
1.04396e-07
1.043e-07
1.04345e-07
1.04345e-07
1.04342e-07
1.04344e-07
1.04321e-07
1.04436e-07
1.04425e-07
1.04421e-07
1.04304e-07
1.04426e-07
1.04427e-07
1.03118e-07
1.03108e-07
1.03117e-07
1.03e-07
1.02995e-07
1.03e-07
1.02997e-07
1.03141e-07
1.03114e-07
1.03117e-07
1.02994e-07
1.02824e-07
1.02824e-07
1.02824e-07
1.02824e-07
1.0302e-07
1.03017e-07
1.03e-07
1.02824e-07
1.02827e-07
1.02826e-07
1.02826e-07
1.02827e-07
1.02824e-07
1.03062e-07
1.03142e-07
1.03118e-07
1.02995e-07
1.02824e-07
1.02826e-07
1.02825e-07
1.02825e-07
1.02826e-07
1.02824e-07
1.03062e-07
1.03139e-07
1.03108e-07
1.03e-07
1.02824e-07
1.02826e-07
1.02825e-07
1.02825e-07
1.02826e-07
1.02824e-07
1.0306e-07
1.03021e-07
1.02997e-07
1.02824e-07
1.02827e-07
1.02826e-07
1.02826e-07
1.02827e-07
1.02824e-07
1.03061e-07
1.03143e-07
1.03141e-07
1.0302e-07
1.02824e-07
1.02824e-07
1.02824e-07
1.02824e-07
1.03046e-07
1.03038e-07
1.03144e-07
1.03114e-07
1.03017e-07
1.03062e-07
1.03062e-07
1.0306e-07
1.03061e-07
1.03038e-07
1.03153e-07
1.03142e-07
1.03139e-07
1.03021e-07
1.03143e-07
1.03144e-07
1.01835e-07
1.01825e-07
1.01834e-07
1.01717e-07
1.01712e-07
1.01717e-07
1.01714e-07
1.01858e-07
1.01831e-07
1.01834e-07
1.01711e-07
1.01541e-07
1.01541e-07
1.01541e-07
1.01541e-07
1.01737e-07
1.01734e-07
1.01717e-07
1.01541e-07
1.01544e-07
1.01543e-07
1.01543e-07
1.01544e-07
1.01541e-07
1.01779e-07
1.01859e-07
1.01835e-07
1.01712e-07
1.01541e-07
1.01543e-07
1.01542e-07
1.01542e-07
1.01543e-07
1.01541e-07
1.01779e-07
1.01856e-07
1.01825e-07
1.01717e-07
1.01541e-07
1.01543e-07
1.01542e-07
1.01542e-07
1.01543e-07
1.01541e-07
1.01777e-07
1.01738e-07
1.01714e-07
1.01541e-07
1.01544e-07
1.01543e-07
1.01543e-07
1.01544e-07
1.01541e-07
1.01778e-07
1.0186e-07
1.01858e-07
1.01737e-07
1.01541e-07
1.01541e-07
1.01541e-07
1.01541e-07
1.01763e-07
1.01756e-07
1.01861e-07
1.01831e-07
1.01734e-07
1.01779e-07
1.01779e-07
1.01777e-07
1.01778e-07
1.01756e-07
1.0187e-07
1.01859e-07
1.01856e-07
1.01738e-07
1.0186e-07
1.01861e-07
1.00552e-07
1.00542e-07
1.00551e-07
1.00434e-07
1.0043e-07
1.00434e-07
1.00431e-07
1.00575e-07
1.00548e-07
1.00551e-07
1.00428e-07
1.00258e-07
1.00258e-07
1.00258e-07
1.00258e-07
1.00454e-07
1.00451e-07
1.00434e-07
1.00258e-07
1.00261e-07
1.0026e-07
1.0026e-07
1.00261e-07
1.00258e-07
1.00496e-07
1.00576e-07
1.00552e-07
1.0043e-07
1.00258e-07
1.0026e-07
1.00259e-07
1.00259e-07
1.0026e-07
1.00258e-07
1.00496e-07
1.00573e-07
1.00542e-07
1.00434e-07
1.00258e-07
1.0026e-07
1.00259e-07
1.00259e-07
1.0026e-07
1.00258e-07
1.00494e-07
1.00455e-07
1.00431e-07
1.00258e-07
1.00261e-07
1.0026e-07
1.0026e-07
1.00261e-07
1.00258e-07
1.00495e-07
1.00577e-07
1.00575e-07
1.00454e-07
1.00258e-07
1.00258e-07
1.00258e-07
1.00258e-07
1.0048e-07
1.00473e-07
1.00578e-07
1.00548e-07
1.00451e-07
1.00496e-07
1.00496e-07
1.00494e-07
1.00495e-07
1.00473e-07
1.00587e-07
1.00576e-07
1.00573e-07
1.00455e-07
1.00577e-07
1.00578e-07
9.9269e-08
9.92589e-08
9.92676e-08
9.9151e-08
9.91466e-08
9.91513e-08
9.91483e-08
9.92917e-08
9.92647e-08
9.92676e-08
9.91451e-08
9.89747e-08
9.89753e-08
9.89753e-08
9.89747e-08
9.91707e-08
9.91678e-08
9.9151e-08
9.89747e-08
9.89785e-08
9.8977e-08
9.8977e-08
9.89785e-08
9.89747e-08
9.92132e-08
9.92928e-08
9.9269e-08
9.91466e-08
9.89753e-08
9.8977e-08
9.89761e-08
9.89761e-08
9.8977e-08
9.89753e-08
9.92131e-08
9.92896e-08
9.92589e-08
9.91513e-08
9.89753e-08
9.8977e-08
9.89761e-08
9.89761e-08
9.8977e-08
9.89753e-08
9.92107e-08
9.91719e-08
9.91483e-08
9.89747e-08
9.89785e-08
9.8977e-08
9.8977e-08
9.89785e-08
9.89747e-08
9.92125e-08
9.92943e-08
9.92917e-08
9.91707e-08
9.89747e-08
9.89753e-08
9.89753e-08
9.89747e-08
9.91974e-08
9.91896e-08
9.92955e-08
9.92647e-08
9.91678e-08
9.92132e-08
9.92131e-08
9.92107e-08
9.92125e-08
9.91896e-08
9.93041e-08
9.92928e-08
9.92896e-08
9.91719e-08
9.92943e-08
9.92955e-08
9.7986e-08
9.7976e-08
9.79847e-08
9.78681e-08
9.78636e-08
9.78683e-08
9.78654e-08
9.80088e-08
9.79817e-08
9.79847e-08
9.78621e-08
9.76918e-08
9.76923e-08
9.76923e-08
9.76918e-08
9.78877e-08
9.78849e-08
9.78681e-08
9.76918e-08
9.76955e-08
9.7694e-08
9.7694e-08
9.76955e-08
9.76918e-08
9.79303e-08
9.80098e-08
9.7986e-08
9.78636e-08
9.76923e-08
9.7694e-08
9.76932e-08
9.76932e-08
9.7694e-08
9.76923e-08
9.79301e-08
9.80067e-08
9.7976e-08
9.78683e-08
9.76923e-08
9.7694e-08
9.76932e-08
9.76932e-08
9.7694e-08
9.76923e-08
9.79277e-08
9.78889e-08
9.78654e-08
9.76918e-08
9.76955e-08
9.7694e-08
9.7694e-08
9.76955e-08
9.76918e-08
9.79295e-08
9.80113e-08
9.80088e-08
9.78877e-08
9.76918e-08
9.76923e-08
9.76923e-08
9.76918e-08
9.79145e-08
9.79066e-08
9.80126e-08
9.79817e-08
9.78849e-08
9.79303e-08
9.79301e-08
9.79277e-08
9.79295e-08
9.79067e-08
9.80211e-08
9.80098e-08
9.80067e-08
9.78889e-08
9.80113e-08
9.80126e-08
9.67031e-08
9.6693e-08
9.67017e-08
9.65851e-08
9.65807e-08
9.65854e-08
9.65825e-08
9.67258e-08
9.66988e-08
9.67017e-08
9.65792e-08
9.64088e-08
9.64094e-08
9.64094e-08
9.64088e-08
9.66048e-08
9.66019e-08
9.65851e-08
9.64088e-08
9.64126e-08
9.64111e-08
9.64111e-08
9.64126e-08
9.64088e-08
9.66473e-08
9.67269e-08
9.67031e-08
9.65807e-08
9.64094e-08
9.64111e-08
9.64102e-08
9.64102e-08
9.64111e-08
9.64094e-08
9.66472e-08
9.67237e-08
9.6693e-08
9.65854e-08
9.64094e-08
9.64111e-08
9.64102e-08
9.64102e-08
9.64111e-08
9.64094e-08
9.66448e-08
9.6606e-08
9.65824e-08
9.64089e-08
9.64126e-08
9.64111e-08
9.64111e-08
9.64126e-08
9.64088e-08
9.66466e-08
9.67284e-08
9.67258e-08
9.66048e-08
9.64088e-08
9.64094e-08
9.64094e-08
9.64089e-08
9.66315e-08
9.66237e-08
9.67296e-08
9.66988e-08
9.66019e-08
9.66473e-08
9.66472e-08
9.66448e-08
9.66466e-08
9.66237e-08
9.67382e-08
9.67269e-08
9.67237e-08
9.6606e-08
9.67284e-08
9.67296e-08
9.54201e-08
9.54101e-08
9.54188e-08
9.53022e-08
9.52977e-08
9.53024e-08
9.52995e-08
9.54429e-08
9.54158e-08
9.54188e-08
9.52962e-08
9.51259e-08
9.51264e-08
9.51264e-08
9.51259e-08
9.53218e-08
9.5319e-08
9.53022e-08
9.51259e-08
9.51296e-08
9.51281e-08
9.51281e-08
9.51296e-08
9.51259e-08
9.53644e-08
9.54439e-08
9.54201e-08
9.52977e-08
9.51264e-08
9.51281e-08
9.51273e-08
9.51273e-08
9.51281e-08
9.51264e-08
9.53642e-08
9.54408e-08
9.54101e-08
9.53024e-08
9.51264e-08
9.51281e-08
9.51273e-08
9.51273e-08
9.51281e-08
9.51264e-08
9.53618e-08
9.5323e-08
9.52995e-08
9.51259e-08
9.51296e-08
9.51281e-08
9.51281e-08
9.51296e-08
9.51259e-08
9.53636e-08
9.54454e-08
9.54429e-08
9.53218e-08
9.51259e-08
9.51264e-08
9.51264e-08
9.51259e-08
9.53486e-08
9.53407e-08
9.54467e-08
9.54158e-08
9.5319e-08
9.53644e-08
9.53642e-08
9.53618e-08
9.53636e-08
9.53408e-08
9.54552e-08
9.54439e-08
9.54408e-08
9.5323e-08
9.54454e-08
9.54467e-08
9.41372e-08
9.41271e-08
9.41358e-08
9.40192e-08
9.40148e-08
9.40195e-08
9.40165e-08
9.41599e-08
9.41328e-08
9.41358e-08
9.40133e-08
9.38429e-08
9.38435e-08
9.38435e-08
9.38429e-08
9.40389e-08
9.4036e-08
9.40192e-08
9.38429e-08
9.38466e-08
9.38451e-08
9.38451e-08
9.38466e-08
9.38429e-08
9.40814e-08
9.41609e-08
9.41372e-08
9.40148e-08
9.38435e-08
9.38451e-08
9.38443e-08
9.38443e-08
9.38451e-08
9.38435e-08
9.40813e-08
9.41578e-08
9.41271e-08
9.40195e-08
9.38435e-08
9.38451e-08
9.38443e-08
9.38443e-08
9.38451e-08
9.38435e-08
9.40788e-08
9.404e-08
9.40165e-08
9.38429e-08
9.38466e-08
9.38451e-08
9.38451e-08
9.38466e-08
9.38429e-08
9.40806e-08
9.41625e-08
9.41599e-08
9.40389e-08
9.38429e-08
9.38435e-08
9.38435e-08
9.38429e-08
9.40656e-08
9.40578e-08
9.41637e-08
9.41328e-08
9.4036e-08
9.40814e-08
9.40813e-08
9.40789e-08
9.40806e-08
9.40578e-08
9.41723e-08
9.4161e-08
9.41578e-08
9.404e-08
9.41625e-08
9.41637e-08
9.28542e-08
9.28442e-08
9.28529e-08
9.27363e-08
9.27318e-08
9.27365e-08
9.27336e-08
9.28769e-08
9.28499e-08
9.28529e-08
9.27303e-08
9.256e-08
9.25605e-08
9.25605e-08
9.256e-08
9.27559e-08
9.27531e-08
9.27363e-08
9.256e-08
9.25637e-08
9.25622e-08
9.25622e-08
9.25637e-08
9.256e-08
9.27985e-08
9.2878e-08
9.28542e-08
9.27318e-08
9.25605e-08
9.25622e-08
9.25614e-08
9.25614e-08
9.25622e-08
9.25605e-08
9.27983e-08
9.28749e-08
9.28442e-08
9.27365e-08
9.25605e-08
9.25622e-08
9.25614e-08
9.25614e-08
9.25622e-08
9.25605e-08
9.27959e-08
9.27571e-08
9.27336e-08
9.256e-08
9.25637e-08
9.25622e-08
9.25622e-08
9.25637e-08
9.256e-08
9.27977e-08
9.28795e-08
9.28769e-08
9.27559e-08
9.256e-08
9.25605e-08
9.25605e-08
9.256e-08
9.27827e-08
9.27748e-08
9.28807e-08
9.28499e-08
9.27531e-08
9.27985e-08
9.27983e-08
9.27959e-08
9.27977e-08
9.27749e-08
9.28893e-08
9.2878e-08
9.28749e-08
9.27571e-08
9.28795e-08
9.28808e-08
9.15713e-08
9.15612e-08
9.15699e-08
9.14533e-08
9.14489e-08
9.14536e-08
9.14507e-08
9.1594e-08
9.1567e-08
9.15699e-08
9.14474e-08
9.1277e-08
9.12776e-08
9.12776e-08
9.12771e-08
9.1473e-08
9.14701e-08
9.14533e-08
9.12771e-08
9.12808e-08
9.12793e-08
9.12793e-08
9.12808e-08
9.12771e-08
9.15155e-08
9.15951e-08
9.15713e-08
9.14489e-08
9.12776e-08
9.12793e-08
9.12784e-08
9.12784e-08
9.12793e-08
9.12776e-08
9.15154e-08
9.15919e-08
9.15612e-08
9.14536e-08
9.12776e-08
9.12793e-08
9.12784e-08
9.12784e-08
9.12793e-08
9.12776e-08
9.1513e-08
9.14742e-08
9.14506e-08
9.12771e-08
9.12808e-08
9.12793e-08
9.12793e-08
9.12808e-08
9.12771e-08
9.15148e-08
9.15966e-08
9.1594e-08
9.1473e-08
9.12771e-08
9.12776e-08
9.12776e-08
9.12771e-08
9.14997e-08
9.14919e-08
9.15978e-08
9.1567e-08
9.14701e-08
9.15155e-08
9.15154e-08
9.1513e-08
9.15148e-08
9.14919e-08
9.16064e-08
9.15951e-08
9.15919e-08
9.14742e-08
9.15966e-08
9.15978e-08
9.02883e-08
9.02783e-08
9.0287e-08
9.01704e-08
9.01659e-08
9.01706e-08
9.01677e-08
9.03111e-08
9.0284e-08
9.0287e-08
9.01645e-08
8.99941e-08
8.99947e-08
8.99947e-08
8.99941e-08
9.019e-08
9.01872e-08
9.01704e-08
8.99941e-08
8.99978e-08
8.99963e-08
8.99963e-08
8.99978e-08
8.99941e-08
9.02326e-08
9.03121e-08
9.02883e-08
9.01659e-08
8.99947e-08
8.99963e-08
8.99955e-08
8.99955e-08
8.99963e-08
8.99947e-08
9.02324e-08
9.0309e-08
9.02783e-08
9.01706e-08
8.99947e-08
8.99963e-08
8.99955e-08
8.99955e-08
8.99963e-08
8.99947e-08
9.023e-08
9.01912e-08
9.01677e-08
8.99941e-08
8.99978e-08
8.99963e-08
8.99963e-08
8.99978e-08
8.99941e-08
9.02318e-08
9.03136e-08
9.03111e-08
9.019e-08
8.99941e-08
8.99947e-08
8.99947e-08
8.99941e-08
9.02168e-08
9.0209e-08
9.03149e-08
9.0284e-08
9.01872e-08
9.02326e-08
9.02324e-08
9.023e-08
9.02318e-08
9.0209e-08
9.03235e-08
9.03121e-08
9.0309e-08
9.01912e-08
9.03136e-08
9.03149e-08
8.90054e-08
8.89953e-08
8.9004e-08
8.88874e-08
8.8883e-08
8.88877e-08
8.88848e-08
8.90281e-08
8.90011e-08
8.90041e-08
8.88815e-08
8.87111e-08
8.87117e-08
8.87117e-08
8.87111e-08
8.89071e-08
8.89042e-08
8.88874e-08
8.87111e-08
8.87149e-08
8.87134e-08
8.87134e-08
8.87149e-08
8.87111e-08
8.89496e-08
8.90292e-08
8.90054e-08
8.8883e-08
8.87117e-08
8.87134e-08
8.87125e-08
8.87125e-08
8.87134e-08
8.87117e-08
8.89495e-08
8.90261e-08
8.89953e-08
8.88877e-08
8.87117e-08
8.87134e-08
8.87125e-08
8.87125e-08
8.87134e-08
8.87117e-08
8.89471e-08
8.89083e-08
8.88847e-08
8.87111e-08
8.87149e-08
8.87134e-08
8.87134e-08
8.87149e-08
8.87111e-08
8.89489e-08
8.90307e-08
8.90281e-08
8.89071e-08
8.87111e-08
8.87117e-08
8.87117e-08
8.87111e-08
8.89338e-08
8.8926e-08
8.90319e-08
8.90011e-08
8.89042e-08
8.89496e-08
8.89495e-08
8.89471e-08
8.89489e-08
8.8926e-08
8.90405e-08
8.90292e-08
8.90261e-08
8.89083e-08
8.90307e-08
8.90319e-08
8.77224e-08
8.77124e-08
8.77211e-08
8.76045e-08
8.76e-08
8.76047e-08
8.76018e-08
8.77452e-08
8.77181e-08
8.77211e-08
8.75985e-08
8.74282e-08
8.74287e-08
8.74287e-08
8.74282e-08
8.76241e-08
8.76213e-08
8.76045e-08
8.74282e-08
8.74319e-08
8.74304e-08
8.74304e-08
8.74319e-08
8.74282e-08
8.76667e-08
8.77462e-08
8.77224e-08
8.76e-08
8.74287e-08
8.74304e-08
8.74296e-08
8.74296e-08
8.74304e-08
8.74287e-08
8.76665e-08
8.77431e-08
8.77124e-08
8.76047e-08
8.74287e-08
8.74304e-08
8.74296e-08
8.74296e-08
8.74304e-08
8.74287e-08
8.76641e-08
8.76253e-08
8.76018e-08
8.74282e-08
8.74319e-08
8.74304e-08
8.74304e-08
8.74319e-08
8.74282e-08
8.76659e-08
8.77477e-08
8.77451e-08
8.76241e-08
8.74282e-08
8.74287e-08
8.74287e-08
8.74282e-08
8.76509e-08
8.7643e-08
8.77489e-08
8.77181e-08
8.76213e-08
8.76667e-08
8.76665e-08
8.76641e-08
8.76659e-08
8.76431e-08
8.77575e-08
8.77462e-08
8.77431e-08
8.76253e-08
8.77477e-08
8.7749e-08
8.64395e-08
8.64294e-08
8.64381e-08
8.63215e-08
8.63171e-08
8.63218e-08
8.63188e-08
8.64622e-08
8.64351e-08
8.64381e-08
8.63156e-08
8.61452e-08
8.61458e-08
8.61458e-08
8.61452e-08
8.63411e-08
8.63383e-08
8.63215e-08
8.61452e-08
8.61489e-08
8.61474e-08
8.61474e-08
8.61489e-08
8.61452e-08
8.63837e-08
8.64632e-08
8.64395e-08
8.63171e-08
8.61458e-08
8.61474e-08
8.61466e-08
8.61466e-08
8.61474e-08
8.61458e-08
8.63836e-08
8.64601e-08
8.64294e-08
8.63218e-08
8.61458e-08
8.61474e-08
8.61466e-08
8.61466e-08
8.61474e-08
8.61458e-08
8.63811e-08
8.63423e-08
8.63188e-08
8.61452e-08
8.61489e-08
8.61474e-08
8.61474e-08
8.61489e-08
8.61452e-08
8.63829e-08
8.64648e-08
8.64622e-08
8.63411e-08
8.61452e-08
8.61458e-08
8.61458e-08
8.61452e-08
8.63679e-08
8.63601e-08
8.6466e-08
8.64351e-08
8.63383e-08
8.63837e-08
8.63836e-08
8.63811e-08
8.63829e-08
8.63601e-08
8.64746e-08
8.64633e-08
8.64601e-08
8.63423e-08
8.64648e-08
8.6466e-08
8.51565e-08
8.51465e-08
8.51552e-08
8.50386e-08
8.50341e-08
8.50388e-08
8.50359e-08
8.51792e-08
8.51522e-08
8.51552e-08
8.50326e-08
8.48623e-08
8.48628e-08
8.48628e-08
8.48623e-08
8.50582e-08
8.50553e-08
8.50386e-08
8.48623e-08
8.4866e-08
8.48645e-08
8.48645e-08
8.4866e-08
8.48623e-08
8.51008e-08
8.51803e-08
8.51565e-08
8.50341e-08
8.48628e-08
8.48645e-08
8.48637e-08
8.48637e-08
8.48645e-08
8.48628e-08
8.51006e-08
8.51772e-08
8.51464e-08
8.50388e-08
8.48628e-08
8.48645e-08
8.48637e-08
8.48637e-08
8.48645e-08
8.48628e-08
8.50982e-08
8.50594e-08
8.50359e-08
8.48623e-08
8.4866e-08
8.48645e-08
8.48645e-08
8.4866e-08
8.48623e-08
8.51e-08
8.51818e-08
8.51792e-08
8.50582e-08
8.48623e-08
8.48628e-08
8.48628e-08
8.48623e-08
8.5085e-08
8.50771e-08
8.5183e-08
8.51522e-08
8.50553e-08
8.51008e-08
8.51006e-08
8.50982e-08
8.51e-08
8.50771e-08
8.51916e-08
8.51803e-08
8.51772e-08
8.50594e-08
8.51818e-08
8.5183e-08
8.38735e-08
8.38635e-08
8.38722e-08
8.37556e-08
8.37511e-08
8.37558e-08
8.37529e-08
8.38963e-08
8.38692e-08
8.38722e-08
8.37497e-08
8.35793e-08
8.35799e-08
8.35799e-08
8.35793e-08
8.37752e-08
8.37724e-08
8.37556e-08
8.35793e-08
8.3583e-08
8.35815e-08
8.35815e-08
8.3583e-08
8.35793e-08
8.38178e-08
8.38973e-08
8.38735e-08
8.37511e-08
8.35799e-08
8.35815e-08
8.35807e-08
8.35807e-08
8.35815e-08
8.35799e-08
8.38176e-08
8.38942e-08
8.38635e-08
8.37558e-08
8.35799e-08
8.35815e-08
8.35807e-08
8.35807e-08
8.35815e-08
8.35799e-08
8.38152e-08
8.37764e-08
8.37529e-08
8.35793e-08
8.3583e-08
8.35815e-08
8.35815e-08
8.3583e-08
8.35793e-08
8.3817e-08
8.38988e-08
8.38963e-08
8.37752e-08
8.35793e-08
8.35799e-08
8.35799e-08
8.35793e-08
8.3802e-08
8.37942e-08
8.39001e-08
8.38692e-08
8.37724e-08
8.38178e-08
8.38177e-08
8.38152e-08
8.3817e-08
8.37942e-08
8.39087e-08
8.38973e-08
8.38942e-08
8.37764e-08
8.38989e-08
8.39001e-08
8.25906e-08
8.25805e-08
8.25893e-08
8.24726e-08
8.24682e-08
8.24729e-08
8.247e-08
8.26133e-08
8.25863e-08
8.25893e-08
8.24667e-08
8.22964e-08
8.22969e-08
8.22969e-08
8.22964e-08
8.24923e-08
8.24894e-08
8.24727e-08
8.22964e-08
8.23001e-08
8.22986e-08
8.22986e-08
8.23001e-08
8.22964e-08
8.25349e-08
8.26144e-08
8.25906e-08
8.24682e-08
8.22969e-08
8.22986e-08
8.22977e-08
8.22977e-08
8.22986e-08
8.22969e-08
8.25347e-08
8.26113e-08
8.25805e-08
8.24729e-08
8.22969e-08
8.22986e-08
8.22977e-08
8.22977e-08
8.22986e-08
8.22969e-08
8.25323e-08
8.24935e-08
8.247e-08
8.22964e-08
8.23001e-08
8.22986e-08
8.22986e-08
8.23001e-08
8.22964e-08
8.25341e-08
8.26159e-08
8.26133e-08
8.24923e-08
8.22964e-08
8.22969e-08
8.22969e-08
8.22964e-08
8.25191e-08
8.25112e-08
8.26171e-08
8.25863e-08
8.24894e-08
8.25349e-08
8.25347e-08
8.25323e-08
8.25341e-08
8.25112e-08
8.26257e-08
8.26144e-08
8.26113e-08
8.24935e-08
8.26159e-08
8.26171e-08
8.13076e-08
8.12976e-08
8.13063e-08
8.11897e-08
8.11852e-08
8.11899e-08
8.1187e-08
8.13304e-08
8.13033e-08
8.13063e-08
8.11838e-08
8.10134e-08
8.1014e-08
8.1014e-08
8.10134e-08
8.12093e-08
8.12065e-08
8.11897e-08
8.10134e-08
8.10171e-08
8.10156e-08
8.10156e-08
8.10171e-08
8.10134e-08
8.12519e-08
8.13314e-08
8.13076e-08
8.11852e-08
8.1014e-08
8.10156e-08
8.10148e-08
8.10148e-08
8.10156e-08
8.1014e-08
8.12517e-08
8.13283e-08
8.12976e-08
8.11899e-08
8.1014e-08
8.10156e-08
8.10148e-08
8.10148e-08
8.10156e-08
8.1014e-08
8.12493e-08
8.12105e-08
8.1187e-08
8.10134e-08
8.10171e-08
8.10156e-08
8.10156e-08
8.10171e-08
8.10134e-08
8.12511e-08
8.13329e-08
8.13304e-08
8.12093e-08
8.10134e-08
8.1014e-08
8.1014e-08
8.10134e-08
8.12361e-08
8.12283e-08
8.13342e-08
8.13033e-08
8.12065e-08
8.12519e-08
8.12518e-08
8.12493e-08