/*--------------------------------*- C++ -*----------------------------------*\
| =========                 |                                                 |
| \\      /  F ield         | OpenFOAM: The Open Source CFD Toolbox           |
|  \\    /   O peration     | Version:  2312                                  |
|   \\  /    A nd           | Website:  www.openfoam.com                      |
|    \\/     M anipulation  |                                                 |
\*---------------------------------------------------------------------------*/
FoamFile
{
    version     2.0;
    format      ascii;
    arch        "LSB;label=32;scalar=64";
    class       volScalarField;
    location    "50";
    object      nut;
}
// * * * * * * * * * * * * * * * * * * * * * * * * * * * * * * * * * * * * * //

dimensions      [0 2 -1 0 0 0 0];

internalField   nonuniform List<scalar> 
42840
(
0.000197032
0.000155912
0.000155808
0.000127999
0.000196984
0.00015586
0.000155784
0.000128005
0.000196803
0.000155728
0.00015569
0.000127411
0.000196528
0.000155563
0.000155557
0.000127237
0.000196497
0.000155543
0.000155556
0.000127375
0.000196519
0.000155554
0.000155567
0.000127783
0.000196544
0.000155568
0.000155559
0.000127598
0.000196583
0.000155555
0.000155546
0.000127265
0.0001967
0.000155638
0.000155621
0.000127573
0.000196804
0.000155702
0.000155692
0.000127239
0.000196892
0.000155745
0.000155728
0.00012726
0.00019693
0.000155753
0.00015576
0.000127389
0.000196947
0.000155757
0.00015576
0.000127479
0.000196951
0.000155747
0.000155784
0.000127621
0.000196956
0.000155744
0.000155795
0.000127776
0.000196953
0.000155735
0.000155793
0.000127784
0.000196957
0.000155741
0.000155791
0.000127788
0.000196955
0.000155746
0.000155793
0.000127786
0.000196953
0.000155744
0.000155796
0.000127787
0.000196964
0.000155758
0.00015579
0.00012779
0.000196958
0.000155747
0.000155792
0.000127787
0.000196952
0.000155744
0.000155787
0.000127788
0.000196952
0.000155758
0.000155797
0.000127792
0.000196955
0.000155769
0.000155789
0.000127571
0.000196951
0.000155758
0.000155802
0.000127814
0.00012746
0.000127799
0.000155832
0.00015581
0.000155803
0.0001558
0.00012768
0.000127821
0.000155845
0.000155792
0.000155816
0.000155773
0.000155824
0.000155873
0.000155791
0.000127381
0.000127772
0.000155864
0.000155794
0.000155822
0.000127925
0.00012757
0.000127782
0.000155788
0.000155778
0.000155716
0.000155688
0.00012763
0.000127638
0.000155814
0.000155766
0.00015575
0.000155676
0.000155772
0.000155765
0.000155701
0.000127865
0.00012723
0.000155813
0.000155713
0.00015573
0.000127998
0.000127473
0.000128086
0.000155649
0.000155621
0.000155557
0.000155514
0.000127353
0.000128107
0.00015568
0.000155614
0.000155579
0.000155496
0.00015562
0.000155569
0.000155499
0.000127513
0.000127464
0.000155666
0.000155564
0.000155543
0.000127691
0.000127537
0.000127483
0.000155522
0.000155479
0.0001555
0.000155479
0.000127566
0.000127872
0.000155547
0.00015547
0.000155531
0.000155478
0.000155477
0.000155524
0.00015547
0.000127333
0.000127774
0.000155513
0.000155532
0.000155499
0.000127704
0.000127354
0.000127722
0.000155465
0.000155457
0.000155498
0.000155481
0.000127521
0.000127945
0.000155496
0.000155457
0.000155512
0.000155493
0.000155446
0.000155533
0.000155462
0.000127654
0.000127457
0.000155479
0.000155557
0.000155489
0.000127726
0.000127554
0.000128105
0.000155498
0.000155463
0.000155507
0.000155505
0.000128047
0.000127732
0.000155516
0.000155464
0.00015555
0.000155486
0.00015545
0.000155562
0.000155464
0.000127268
0.000128151
0.000155469
0.000155551
0.000155525
0.000127379
0.000127397
0.000127477
0.00015547
0.000155486
0.000155497
0.000155504
0.000127915
0.000127423
0.000155509
0.000155476
0.000155542
0.000155499
0.000155446
0.000155537
0.000155483
0.000127476
0.000127968
0.000155479
0.000155545
0.000155525
0.000127432
0.000127363
0.000127835
0.00015551
0.00015551
0.000155582
0.000155578
0.000127665
0.00012766
0.000155539
0.000155475
0.000155609
0.000155518
0.000155495
0.000155608
0.000155564
0.000127313
0.000127776
0.000155535
0.000155576
0.000155587
0.00012785
0.000127664
0.000127845
0.000155577
0.000155572
0.000155635
0.000155641
0.000127507
0.000127991
0.000155607
0.000155547
0.000155667
0.000155622
0.000155553
0.000155675
0.000155618
0.000127497
0.000127816
0.000155595
0.00015567
0.000155656
0.000127498
0.000127494
0.000127759
0.000155649
0.000155643
0.000155692
0.00015568
0.000128015
0.000127821
0.000155656
0.000155606
0.000155707
0.000155667
0.000155625
0.000155733
0.000155674
0.000127969
0.000127729
0.000155661
0.000155712
0.000155703
0.000127391
0.000127904
0.000128066
0.00015569
0.000155688
0.000155706
0.00015572
0.000127982
0.000128193
0.000155706
0.000155672
0.000155734
0.0001557
0.000155659
0.000155751
0.000155692
0.00012797
0.000128165
0.000155695
0.000155744
0.000155717
0.000127755
0.000127342
0.000128012
0.000155703
0.000155719
0.000155704
0.000155721
0.000128252
0.00012779
0.00015573
0.000155703
0.000155743
0.000155717
0.000155685
0.000155749
0.000155704
0.000127953
0.000127862
0.000155703
0.00015576
0.000155731
0.000128083
0.000127651
0.000128414
0.000155726
0.000155709
0.000155756
0.000155709
0.000128095
0.000127827
0.000155752
0.00015571
0.000155777
0.000155743
0.00015571
0.000155748
0.000155722
0.00012754
0.000127938
0.000155718
0.000155778
0.000155741
0.000127845
0.000127744
0.000128495
0.000155754
0.00015571
0.000155766
0.000155724
0.00012755
0.00012776
0.000155776
0.000155738
0.000155789
0.000155757
0.000155712
0.000155744
0.00015572
0.000127663
0.000128493
0.000155733
0.000155794
0.000155741
0.000127637
0.00012836
0.000127685
0.000155759
0.000155718
0.000155756
0.000155718
0.000127847
0.000127568
0.000155776
0.000155742
0.000155775
0.000155746
0.000155717
0.000155734
0.000155714
0.000127884
0.000127723
0.000155736
0.00015579
0.00015574
0.000127662
0.000127407
0.000127732
0.000155735
0.000155707
0.000155745
0.000155718
0.000127455
0.000127926
0.000155776
0.000155746
0.000155772
0.000155755
0.000155708
0.000155733
0.000155718
0.000127479
0.000128264
0.000155735
0.000155793
0.000155747
0.000127667
0.000127614
0.000127763
0.00015575
0.000155713
0.00015575
0.000155714
0.000127836
0.000127585
0.000155769
0.000155751
0.00015577
0.000155736
0.00015571
0.00015574
0.000155715
0.000128
0.000127431
0.000155743
0.000155782
0.000155745
0.000127665
0.000127697
0.000127918
0.000155747
0.000155715
0.000155729
0.000155715
0.000127963
0.000127773
0.000155766
0.000155738
0.000155776
0.000155743
0.000155707
0.000155742
0.000155712
0.000127434
0.000127808
0.00015574
0.000155797
0.000155751
0.000127666
0.000128121
0.000127982
0.000155741
0.000155715
0.000155772
0.000155727
0.000127533
0.000128024
0.000155771
0.000155743
0.000155787
0.000155746
0.000155706
0.000155757
0.000155707
0.000127542
0.000127728
0.000155739
0.000155789
0.000155748
0.000127668
0.000128148
0.000128059
0.000155772
0.000155717
0.000155774
0.000155721
0.000128123
0.000127849
0.000155787
0.000155744
0.000155792
0.000155755
0.000155706
0.000155748
0.000155714
0.000127983
0.000127919
0.000155731
0.000155792
0.000155747
0.000127667
0.000127746
0.000128135
0.000155764
0.000155719
0.000155763
0.000155713
0.000127742
0.000128475
0.000155789
0.000155744
0.000155781
0.000155755
0.000155713
0.000155734
0.000155719
0.000127625
0.000127861
0.000155739
0.000155786
0.000155744
0.000127667
0.000128292
0.000127932
0.000155743
0.000155716
0.000155743
0.00015573
0.000127932
0.00012797
0.000155776
0.000155744
0.000155772
0.000155752
0.000155717
0.00015576
0.000155718
0.000127977
0.000128076
0.000155739
0.000155796
0.000155751
0.00012767
0.00012768
0.000128215
0.000155747
0.000155735
0.000155756
0.000155738
0.000127808
0.00012866
0.000155773
0.000155754
0.000155778
0.000155754
0.000155713
0.000155769
0.000155726
0.000128092
0.000127825
0.000155747
0.000155789
0.000155751
0.000128297
0.000127738
0.000128232
0.00015575
0.000155738
0.000155753
0.000155733
0.000128143
0.000128019
0.000155763
0.000155749
0.000155763
0.000155753
0.000155717
0.000155759
0.000155721
0.000127765
0.000128467
0.000155748
0.000155802
0.000155737
0.000127895
0.000128253
0.000155731
0.000155715
0.000127489
0.00015576
0.000155748
0.000155716
0.000127898
0.000155726
3.99149e-05
4.91293e-05
4.91342e-05
3.99133e-05
2.40392e-05
2.40388e-05
3.99187e-05
4.91295e-05
4.91291e-05
3.99194e-05
0.000196994
0.000197013
0.000196972
0.000196998
0.000196946
0.000196979
0.000196947
6.71006e-05
4.61087e-05
0.00017862
0.00015588
4.61222e-05
0.000178591
6.69808e-05
2.40399e-05
2.40399e-05
6.70515e-05
0.000178581
4.61091e-05
0.000155793
0.000178562
4.61224e-05
6.68809e-05
4.19099e-05
4.17868e-05
0.000128215
4.19796e-05
4.1958e-05
3.99289e-05
4.91236e-05
3.99172e-05
4.91234e-05
2.40391e-05
2.40386e-05
3.993e-05
4.91178e-05
3.99205e-05
4.91157e-05
0.000196929
0.000196947
0.000196924
0.000196856
0.000196784
0.000196799
0.000196771
6.7163e-05
4.61243e-05
0.000178616
0.000155808
6.71166e-05
4.61363e-05
0.000178559
2.40368e-05
2.40363e-05
6.70978e-05
0.000178571
4.61168e-05
0.000155743
6.70618e-05
0.000178534
4.61231e-05
4.17982e-05
4.18647e-05
0.000128103
4.18595e-05
4.19092e-05
3.99391e-05
4.9123e-05
3.99307e-05
4.91211e-05
2.40381e-05
2.40386e-05
3.99343e-05
4.91206e-05
3.99284e-05
4.91211e-05
0.000196655
0.000196672
0.00019666
0.00019654
0.000196467
0.000196477
0.000196448
6.69767e-05
4.61357e-05
0.000178457
0.000155627
6.69955e-05
4.61441e-05
0.00017832
2.40374e-05
2.40381e-05
6.71193e-05
0.000178453
4.61265e-05
0.000155614
6.71314e-05
0.000178344
4.61409e-05
4.18792e-05
4.20306e-05
0.000127344
4.18085e-05
4.20496e-05
3.99382e-05
4.91282e-05
3.99325e-05
4.91282e-05
2.40392e-05
2.40414e-05
3.99373e-05
4.91254e-05
3.99314e-05
4.91262e-05
0.000196412
0.000196418
0.00019641
0.000196478
0.000196401
0.000196416
0.000196377
6.69081e-05
4.61401e-05
0.000178218
0.000155531
6.69844e-05
4.61471e-05
0.000178165
2.40387e-05
2.40403e-05
6.69623e-05
0.00017825
4.61369e-05
0.000155525
6.69214e-05
0.000178176
4.61407e-05
4.2016e-05
4.20936e-05
0.000127753
4.20432e-05
4.2098e-05
3.99392e-05
4.91306e-05
3.99327e-05
4.91308e-05
2.40417e-05
2.40421e-05
3.99379e-05
4.91276e-05
3.99316e-05
4.91286e-05
0.0001964
0.000196414
0.000196373
0.000196483
0.000196432
0.000196458
0.000196406
6.682e-05
4.61399e-05
0.000178167
0.000155507
6.6813e-05
4.61467e-05
0.000178126
2.40415e-05
2.40423e-05
6.68305e-05
0.000178193
4.61309e-05
0.000155553
6.70049e-05
0.000178172
4.61377e-05
4.21946e-05
4.19174e-05
0.000127514
4.21794e-05
4.18873e-05
3.99385e-05
4.91345e-05
3.99327e-05
4.91335e-05
2.40432e-05
2.40436e-05
3.99389e-05
4.91276e-05
3.9933e-05
4.91277e-05
0.000196421
0.000196417
0.000196384
0.000196528
0.000196471
0.000196477
0.000196446
6.69028e-05
4.6137e-05
0.000178177
0.00015554
6.68981e-05
4.61392e-05
0.000178175
2.40426e-05
2.40445e-05
6.68048e-05
0.000178203
4.61345e-05
0.000155533
6.68033e-05
0.000178183
4.61402e-05
4.20938e-05
4.19243e-05
0.000127494
4.20886e-05
4.19396e-05
3.993e-05
4.91346e-05
3.99262e-05
4.9134e-05
2.40451e-05
2.40459e-05
3.99379e-05
4.9129e-05
3.99294e-05
4.91283e-05
0.000196469
0.000196463
0.000196424
0.000196553
0.000196524
0.000196522
0.000196504
6.70773e-05
4.61218e-05
0.000178197
0.000155525
6.70456e-05
4.61235e-05
0.000178202
2.4045e-05
2.40455e-05
6.6937e-05
0.000178213
4.61321e-05
0.000155516
6.69494e-05
0.000178207
4.6136e-05
4.21488e-05
4.20944e-05
0.000127521
4.20265e-05
4.18939e-05
3.99285e-05
4.91345e-05
3.99244e-05
4.91321e-05
2.40456e-05
2.40459e-05
3.99293e-05
4.91295e-05
3.99285e-05
4.91302e-05
0.00019651
0.000196527
0.000196506
0.000196661
0.00019664
0.000196629
0.00019663
6.68627e-05
4.61103e-05
0.000178267
0.000155539
6.68807e-05
4.61137e-05
0.000178263
2.4045e-05
2.40452e-05
6.68969e-05
0.000178269
4.61233e-05
0.000155543
6.69731e-05
0.000178263
4.61273e-05
4.21857e-05
4.19448e-05
0.000127543
4.19156e-05
4.19772e-05
3.9919e-05
4.91358e-05
3.99182e-05
4.91336e-05
2.4045e-05
2.40453e-05
3.99192e-05
4.91297e-05
3.99172e-05
4.91296e-05
0.000196631
0.000196633
0.00019663
0.00019675
0.00019676
0.000196759
0.000196753
6.69016e-05
4.61051e-05
0.000178327
0.000155634
6.69079e-05
4.61121e-05
0.000178332
2.40444e-05
2.40446e-05
6.69667e-05
0.000178367
4.61162e-05
0.000155626
6.6954e-05
0.000178362
4.6122e-05
4.21222e-05
4.19379e-05
0.000127441
4.2047e-05
4.19537e-05
3.99093e-05
4.91328e-05
3.99034e-05
4.91319e-05
2.4045e-05
2.40456e-05
3.99108e-05
4.91273e-05
3.99052e-05
4.91262e-05
0.000196763
0.000196752
0.00019676
0.000196856
0.000196855
0.000196846
0.000196845
6.70263e-05
4.61061e-05
0.000178465
0.0001557
6.69745e-05
4.61138e-05
0.000178453
2.40443e-05
2.40448e-05
6.69798e-05
0.000178445
4.61152e-05
0.000155677
6.69227e-05
0.000178434
4.61222e-05
4.2186e-05
4.21605e-05
0.000127368
4.2169e-05
4.20013e-05
3.99313e-05
4.91315e-05
3.99152e-05
4.91323e-05
2.40455e-05
2.4046e-05
3.99255e-05
4.91227e-05
3.9912e-05
4.91237e-05
0.000196834
0.000196842
0.00019683
0.000196915
0.000196892
0.000196892
0.000196883
6.68774e-05
4.61079e-05
0.00017851
0.000155745
6.70067e-05
4.61153e-05
0.000178504
2.40444e-05
2.40447e-05
6.68802e-05
0.000178497
4.61155e-05
0.000155724
6.69856e-05
0.00017849
4.61217e-05
4.21922e-05
4.1979e-05
0.00012815
4.23413e-05
4.19284e-05
3.99394e-05
4.91291e-05
3.99337e-05
4.91286e-05
2.40457e-05
2.40461e-05
3.99354e-05
4.91232e-05
3.99291e-05
4.91246e-05
0.000196891
0.000196884
0.000196864
0.000196936
0.000196908
0.000196909
0.000196899
6.68485e-05
4.61087e-05
0.000178518
0.000155756
6.69402e-05
4.6116e-05
0.000178511
2.40444e-05
2.40449e-05
6.7057e-05
0.00017852
4.61152e-05
0.000155758
6.71133e-05
0.000178511
4.61227e-05
4.23935e-05
4.19623e-05
0.000127489
4.24004e-05
4.19327e-05
3.99352e-05
4.91313e-05
3.99292e-05
4.91323e-05
2.40458e-05
2.40461e-05
3.99343e-05
4.91265e-05
3.99278e-05
4.91241e-05
0.000196906
0.000196894
0.00019689
0.000196951
0.000196912
0.000196917
0.000196906
6.69512e-05
4.61106e-05
0.000178527
0.00015575
6.7028e-05
4.61185e-05
0.000178518
2.40448e-05
2.40453e-05
6.68856e-05
0.000178538
4.6117e-05
0.000155762
6.69287e-05
0.000178495
4.61241e-05
4.23985e-05
4.19632e-05
0.000128025
4.24014e-05
4.19334e-05
3.99321e-05
4.91287e-05
3.99261e-05
4.91296e-05
2.40452e-05
2.40456e-05
3.99353e-05
4.91251e-05
3.9929e-05
4.91271e-05
0.000196912
0.000196915
0.000196904
0.000196954
0.000196915
0.000196925
0.000196905
6.67623e-05
4.61123e-05
0.000178535
0.000155743
6.67569e-05
4.61191e-05
0.000178525
2.4045e-05
2.40455e-05
6.67473e-05
0.000178524
4.61179e-05
0.000155783
6.67332e-05
0.000178509
4.61252e-05
4.23981e-05
4.19633e-05
0.000127665
4.24011e-05
4.19335e-05
3.99313e-05
4.91315e-05
3.99251e-05
4.9132e-05
2.40453e-05
2.40458e-05
3.99322e-05
4.91263e-05
3.99268e-05
4.91256e-05
0.000196915
0.000196917
0.000196902
0.00019695
0.000196918
0.000196921
0.000196905
6.68386e-05
4.61113e-05
0.000178521
0.00015574
6.69065e-05
4.61178e-05
0.000178522
2.40452e-05
2.40456e-05
6.66352e-05
0.000178522
4.61189e-05
0.00015579
6.66184e-05
0.000178522
4.61252e-05
4.2398e-05
4.19636e-05
0.000127922
4.24011e-05
4.19336e-05
3.99338e-05
4.91304e-05
3.99261e-05
4.91295e-05
2.40453e-05
2.40457e-05
3.99301e-05
4.91236e-05
3.99244e-05
4.91243e-05
0.000196914
0.000196918
0.0001969
0.000196955
0.000196922
0.000196926
0.000196912
6.66975e-05
4.61103e-05
0.000178523
0.000155731
6.68549e-05
4.61171e-05
0.00017851
2.40453e-05
2.40456e-05
6.66428e-05
0.000178522
4.61184e-05
0.000155789
6.65981e-05
0.000178518
4.61254e-05
4.22631e-05
4.1963e-05
0.000127982
4.20563e-05
4.19331e-05
3.99323e-05
4.91301e-05
3.99257e-05
4.91293e-05
2.40453e-05
2.40459e-05
3.99328e-05
4.9125e-05
3.99258e-05
4.91267e-05
0.000196909
0.000196915
0.000196897
0.000196955
0.000196919
0.000196925
0.00019691
6.70175e-05
4.61102e-05
0.000178518
0.00015574
6.68083e-05
4.61173e-05
0.000178515
2.4045e-05
2.40453e-05
6.65801e-05
0.00017852
4.61191e-05
0.00015578
6.65332e-05
0.000178519
4.61262e-05
4.21057e-05
4.19631e-05
0.000127973
4.20784e-05
4.19333e-05
3.99347e-05
4.9129e-05
3.99289e-05
4.91301e-05
2.40456e-05
2.40462e-05
3.99353e-05
4.91261e-05
3.993e-05
4.91266e-05
0.000196907
0.000196908
0.000196895
0.000196956
0.000196911
0.000196929
0.000196902
6.7019e-05
4.61107e-05
0.000178515
0.000155746
6.70067e-05
4.61177e-05
0.000178511
2.40449e-05
2.40454e-05
6.64584e-05
0.000178525
4.61196e-05
0.000155799
6.64355e-05
0.000178519
4.61265e-05
4.21654e-05
4.19635e-05
0.000127955
4.20229e-05
4.19337e-05
3.99326e-05
4.91304e-05
3.99253e-05
4.91297e-05
2.4046e-05
2.40465e-05
3.99363e-05
4.91235e-05
3.99302e-05
4.91241e-05
0.000196909
0.000196909
0.0001969
0.000196962
0.000196919
0.000196934
0.000196906
6.70392e-05
4.61107e-05
0.000178528
0.000155751
6.69313e-05
4.61176e-05
0.000178526
2.40451e-05
2.40456e-05
6.62444e-05
0.000178521
4.61192e-05
0.000155787
6.63843e-05
0.00017852
4.61253e-05
4.20325e-05
4.19637e-05
0.000127984
4.21558e-05
4.19337e-05
3.99256e-05
4.9133e-05
3.99232e-05
4.91298e-05
2.4046e-05
2.40463e-05
3.99307e-05
4.91261e-05
3.99265e-05
4.91252e-05
0.000196914
0.00019691
0.000196903
0.000196958
0.000196914
0.000196923
0.000196909
6.68919e-05
4.61109e-05
0.000178533
0.000155751
6.69074e-05
4.6118e-05
0.000178525
2.40452e-05
2.40456e-05
6.61598e-05
0.000178523
4.61178e-05
0.00015579
6.61398e-05
0.000178525
4.61247e-05
4.21925e-05
4.19635e-05
0.00012798
4.23443e-05
4.19334e-05
3.99234e-05
4.91335e-05
3.99143e-05
4.91319e-05
2.40454e-05
2.40457e-05
3.99327e-05
4.91241e-05
3.99246e-05
4.91245e-05
0.000196913
0.000196917
0.0001969
0.000196952
0.000196915
0.000196921
0.000196913
6.70825e-05
4.61113e-05
0.000178517
0.000155725
6.70422e-05
4.61182e-05
0.000178491
2.40451e-05
2.40453e-05
6.61497e-05
0.000178528
4.61188e-05
0.000155787
6.61265e-05
0.000178521
4.61259e-05
4.22599e-05
4.19631e-05
0.000127972
4.20557e-05
4.1933e-05
3.99335e-05
4.91302e-05
3.9925e-05
4.91308e-05
2.40453e-05
2.40457e-05
3.99337e-05
4.91236e-05
3.99264e-05
4.91254e-05
0.000196914
0.000196916
0.000196894
0.000196949
0.000196921
0.000196918
0.000196912
6.69377e-05
4.61109e-05
0.000178525
0.000155753
6.69305e-05
4.61176e-05
0.000178511
2.40444e-05
2.40447e-05
6.61464e-05
0.000178524
4.61197e-05
0.000155791
6.61242e-05
0.000178524
4.61269e-05
4.21057e-05
4.19633e-05
0.000127979
4.20783e-05
4.19335e-05
3.99335e-05
4.91302e-05
3.99265e-05
4.91299e-05
2.40455e-05
2.4046e-05
3.99337e-05
4.9125e-05
3.99268e-05
4.91239e-05
0.000196913
0.00019692
0.000196887
0.000196953
0.000196921
0.00019693
0.000196907
6.69288e-05
4.61104e-05
0.000178523
0.000155759
6.69655e-05
4.61172e-05
0.000178523
2.40445e-05
2.4045e-05
6.61456e-05
0.000178521
4.61201e-05
0.000155791
6.61235e-05
0.000178515
4.61264e-05
4.21654e-05
4.19634e-05
0.000128031
4.20231e-05
4.17564e-05
3.99319e-05
4.91318e-05
3.99258e-05
4.91288e-05
2.40457e-05
2.40461e-05
3.99339e-05
4.91237e-05
3.99268e-05
4.91235e-05
0.00019691
0.000196912
0.000196901
0.000196952
0.000196927
0.000196925
0.000196907
6.68125e-05
4.61102e-05
0.000178529
0.000155762
6.69788e-05
4.61173e-05
0.000178514
2.40448e-05
2.40453e-05
6.61461e-05
0.000178517
4.61193e-05
0.00015579
6.61245e-05
0.000178516
4.61262e-05
4.20321e-05
4.18883e-05
0.000127506
4.2149e-05
4.1882e-05
3.99321e-05
4.91315e-05
3.99252e-05
4.91313e-05
2.40458e-05
2.40462e-05
3.99317e-05
4.91276e-05
3.9926e-05
4.91253e-05
0.000196908
0.00019691
0.000196898
6.68913e-05
4.61103e-05
0.000178519
0.000155755
6.67907e-05
4.61156e-05
0.000178516
2.4045e-05
2.40455e-05
6.61484e-05
0.00017852
4.61198e-05
0.000155793
6.61274e-05
0.000178513
4.6127e-05
4.21565e-05
4.19207e-05
0.000127666
4.21088e-05
4.19199e-05
2.40424e-05
2.40421e-05
2.4041e-05
2.40396e-05
4.19365e-05
4.1897e-05
0.000127613
4.19573e-05
4.18902e-05
2.40417e-05
2.40417e-05
2.40376e-05
2.40387e-05
0.000127545
4.18618e-05
4.16999e-05
4.19796e-05
4.17905e-05
3.99156e-05
4.9121e-05
4.91192e-05
3.99032e-05
6.70448e-05
4.61121e-05
0.000178607
0.000155803
4.61258e-05
0.000178558
6.68992e-05
6.71176e-05
4.61018e-05
0.000178588
0.000155786
4.61201e-05
0.000178562
6.69191e-05
3.99108e-05
4.91233e-05
4.91416e-05
3.99199e-05
3.99158e-05
4.91289e-05
4.91183e-05
3.99302e-05
6.71553e-05
0.00015581
4.6135e-05
0.000178572
4.61256e-05
0.000178581
6.72067e-05
6.71338e-05
0.000155805
4.61353e-05
0.000178578
4.61208e-05
0.000178578
6.70789e-05
4.19196e-05
4.18039e-05
0.000127884
4.2006e-05
4.18694e-05
2.40402e-05
2.40399e-05
2.40398e-05
2.40388e-05
0.000127637
4.18574e-05
4.18033e-05
4.19864e-05
4.18793e-05
2.40401e-05
2.40396e-05
6.70108e-05
4.6112e-05
0.000178606
0.000155817
4.61227e-05
0.000178578
6.69118e-05
3.99183e-05
4.91188e-05
4.91187e-05
3.99065e-05
6.69627e-05
0.000178613
4.61132e-05
0.000155766
0.000178581
4.61204e-05
6.68806e-05
3.99147e-05
4.91172e-05
4.91269e-05
3.99231e-05
6.71704e-05
0.000155817
4.61241e-05
0.000178597
4.61191e-05
0.000178603
6.71906e-05
3.99169e-05
4.91182e-05
4.91196e-05
3.99261e-05
6.69424e-05
0.00015577
0.000178592
4.61225e-05
0.000178602
4.61164e-05
6.69147e-05
3.9935e-05
4.91343e-05
4.9125e-05
3.99271e-05
6.70655e-05
0.0001786
4.61139e-05
0.000155806
0.000178575
4.61245e-05
6.69329e-05
3.99158e-05
4.9128e-05
4.91275e-05
3.99095e-05
6.71732e-05
0.000155874
4.61304e-05
0.000178624
4.6121e-05
0.000178622
6.70744e-05
3.99329e-05
4.91233e-05
4.91261e-05
3.99392e-05
6.71389e-05
0.000155807
0.000178586
4.61264e-05
0.000178589
4.61218e-05
6.71133e-05
3.99136e-05
4.91239e-05
4.9127e-05
3.99219e-05
4.20284e-05
4.19026e-05
0.000127807
4.18795e-05
4.19814e-05
2.40411e-05
2.40411e-05
2.40376e-05
2.40387e-05
0.000127616
4.18572e-05
4.18444e-05
4.18761e-05
4.19839e-05
2.40402e-05
2.40408e-05
6.71226e-05
0.000178603
4.61072e-05
0.000155835
0.000178578
4.61209e-05
6.69323e-05
3.99063e-05
4.91226e-05
4.91156e-05
3.98983e-05
3.9915e-05
4.91142e-05
4.91229e-05
3.99028e-05
6.70063e-05
0.000155797
0.000178581
4.61235e-05
0.000178573
4.612e-05
6.69822e-05
6.71081e-05
0.000155833
0.000178582
4.61238e-05
0.000178585
4.61175e-05
6.70233e-05
3.99027e-05
4.91182e-05
4.91259e-05
3.99115e-05
3.9914e-05
4.91102e-05
4.91186e-05
3.99243e-05
2.4041e-05
2.40403e-05
2.40378e-05
2.40382e-05
0.00012804
4.18955e-05
4.18802e-05
4.19911e-05
4.18275e-05
2.40393e-05
2.40397e-05
2.40372e-05
2.40375e-05
2.40409e-05
2.40414e-05
2.40372e-05
2.40376e-05
4.18725e-05
4.18455e-05
0.000127906
4.19542e-05
4.17365e-05
2.40416e-05
2.4041e-05
2.40371e-05
2.40372e-05
0.000127769
4.20162e-05
4.18874e-05
4.19764e-05
4.17671e-05
3.99393e-05
4.91246e-05
3.99317e-05
4.91175e-05
6.70743e-05
4.61334e-05
0.000178546
0.000155743
6.71958e-05
4.61408e-05
0.000178487
6.70475e-05
4.61343e-05
0.00017856
0.000155729
6.70606e-05
4.61403e-05
0.00017849
3.99267e-05
4.91231e-05
4.91239e-05
3.99344e-05
3.99362e-05
4.91136e-05
4.91161e-05
3.99411e-05
6.70134e-05
0.000155739
4.61424e-05
0.000178457
4.61366e-05
0.000178504
6.70923e-05
6.69984e-05
0.000155719
4.61444e-05
0.000178447
4.61362e-05
0.000178495
6.70853e-05
4.18822e-05
4.18049e-05
0.00012778
4.18631e-05
4.18765e-05
2.40394e-05
2.40395e-05
2.40386e-05
2.40379e-05
0.00012779
4.19568e-05
4.19665e-05
4.18065e-05
4.19084e-05
2.40403e-05
2.40394e-05
6.70842e-05
4.61228e-05
0.000178576
0.000155767
6.72234e-05
4.61279e-05
0.000178517
3.99341e-05
4.91185e-05
3.99269e-05
4.91171e-05
6.70048e-05
0.000178574
4.61218e-05
0.000155712
6.69272e-05
0.000178515
4.61324e-05
3.99273e-05
4.91192e-05
4.91173e-05
3.99334e-05
6.70491e-05
0.000155766
4.61309e-05
0.000178473
4.61234e-05
0.000178526
6.71304e-05
3.99313e-05
4.91148e-05
4.91175e-05
3.99345e-05
6.70353e-05
0.000155712
0.000178467
4.61393e-05
0.000178514
4.6131e-05
6.70737e-05
3.99426e-05
4.91206e-05
3.99377e-05
4.91239e-05
6.70642e-05
0.000178579
4.61236e-05
0.000155728
6.70281e-05
0.00017848
4.61323e-05
3.99287e-05
4.91214e-05
3.9922e-05
4.91277e-05
6.70279e-05
0.000155788
4.61424e-05
0.000178506
4.61339e-05
0.000178524
6.71027e-05
3.99384e-05
4.91145e-05
4.91354e-05
3.99423e-05
6.71209e-05
0.000155724
0.000178445
4.61365e-05
0.0001785
4.61295e-05
6.70071e-05
3.9926e-05
4.91202e-05
4.91342e-05
3.99304e-05
4.18798e-05
4.18569e-05
0.00012756
4.18693e-05
4.17716e-05
2.40394e-05
2.40391e-05
2.40373e-05
2.4036e-05
0.000127367
4.19716e-05
4.17198e-05
4.19545e-05
4.17066e-05
2.40377e-05
2.40382e-05
6.7225e-05
0.00017859
4.61222e-05
0.00015576
6.69886e-05
0.00017853
4.61315e-05
3.99286e-05
4.91164e-05
3.99135e-05
4.91141e-05
3.99314e-05
4.91092e-05
3.99237e-05
4.91093e-05
6.70761e-05
0.000155722
0.000178487
4.61293e-05
0.000178503
4.61188e-05
6.71901e-05
6.722e-05
0.000155768
0.000178482
4.61398e-05
0.000178528
4.6129e-05
6.72316e-05
3.9929e-05
4.91165e-05
4.91111e-05
3.99376e-05
3.99296e-05
4.91095e-05
4.91101e-05
3.99373e-05
2.40382e-05
2.40387e-05
2.40367e-05
2.4036e-05
0.000127531
4.18251e-05
4.2011e-05
4.18926e-05
4.19444e-05
2.40384e-05
2.40381e-05
2.40368e-05
2.40361e-05
2.40413e-05
2.40416e-05
2.40374e-05
2.4038e-05
4.20241e-05
4.19429e-05
0.000127866
4.20222e-05
4.18845e-05
2.40427e-05
2.40414e-05
2.40384e-05
2.4038e-05
0.000127617
4.2019e-05
4.19986e-05
4.20294e-05
4.18889e-05
3.99411e-05
4.9113e-05
3.99377e-05
4.91187e-05
6.69915e-05
4.61386e-05
0.00017837
0.000155573
6.7003e-05
4.61417e-05
0.000178267
6.7061e-05
4.61397e-05
0.000178356
0.000155546
6.70596e-05
4.61432e-05
0.000178262
3.99359e-05
4.91273e-05
4.91235e-05
3.99374e-05
3.99386e-05
4.91206e-05
4.91201e-05
3.99394e-05
6.70248e-05
0.000155571
4.61418e-05
0.000178209
4.61374e-05
0.00017823
6.7047e-05
6.70991e-05
0.000155535
4.6143e-05
0.000178205
4.61397e-05
0.00017822
6.70704e-05
4.18392e-05
4.19595e-05
0.000127707
4.1891e-05
4.19636e-05
2.40399e-05
2.40411e-05
2.40393e-05
2.40386e-05
0.000127395
4.19613e-05
4.20347e-05
4.20254e-05
4.19287e-05
2.40422e-05
2.40407e-05
6.69487e-05
4.61278e-05
0.000178376
0.00015559
6.70103e-05
4.61311e-05
0.00017828
3.99368e-05
4.9115e-05
3.99316e-05
4.9114e-05
6.71438e-05
0.000178375
4.61351e-05
0.000155532
6.71353e-05
0.00017827
4.61362e-05
3.99308e-05
4.91242e-05
4.91285e-05
3.99358e-05
6.70247e-05
0.000155594
4.61315e-05
0.000178217
4.61269e-05
0.000178253
6.70565e-05
3.99341e-05
4.91189e-05
4.91233e-05
3.99372e-05
6.70272e-05
0.000155504
0.000178211
4.61417e-05
0.000178238
4.61317e-05
6.70479e-05
3.99418e-05
4.91126e-05
3.99387e-05
4.91103e-05
6.70026e-05
0.000178349
4.61327e-05
0.000155532
6.69715e-05
0.000178229
4.61366e-05
3.99336e-05
4.91188e-05
3.9927e-05
4.91127e-05
6.70326e-05
0.000155584
4.61466e-05
0.000178233
4.61404e-05
0.000178256
6.69483e-05
3.99383e-05
4.9115e-05
4.91179e-05
3.99408e-05
6.7017e-05
0.00015551
0.000178185
4.61396e-05
0.000178195
4.61333e-05
6.70165e-05
3.99321e-05
4.91147e-05
4.91109e-05
3.99376e-05
4.19664e-05
4.18958e-05
0.000127307
4.19048e-05
4.19919e-05
2.4038e-05
2.40397e-05
2.40385e-05
2.40382e-05
0.000127062
4.20103e-05
4.20574e-05
4.18985e-05
4.19905e-05
2.40406e-05
2.404e-05
6.69966e-05
0.000178391
4.61377e-05
0.000155575
6.70748e-05
0.000178278
4.61436e-05
3.99382e-05
4.91178e-05
3.99342e-05
4.91208e-05
3.99356e-05
4.91079e-05
3.99331e-05
4.91138e-05
6.71451e-05
0.000155582
0.00017826
4.61439e-05
0.00017829
4.61381e-05
6.69586e-05
6.70477e-05
0.000155557
0.00017822
4.61404e-05
0.000178242
4.6138e-05
6.69479e-05
3.99357e-05
4.91209e-05
4.91226e-05
3.99394e-05
3.99328e-05
4.91164e-05
4.91156e-05
3.99352e-05
2.40383e-05
2.40377e-05
2.40367e-05
2.40379e-05
0.000127482
4.20723e-05
4.20048e-05
4.19591e-05
4.19474e-05
2.404e-05
2.40378e-05
2.40383e-05
2.40375e-05
2.40412e-05
2.40423e-05
2.40382e-05
2.40394e-05
4.20627e-05
4.18954e-05
0.000127812
4.19678e-05
4.20318e-05
2.40443e-05
2.40424e-05
2.40406e-05
2.40397e-05
0.000127523
4.21353e-05
4.20628e-05
4.20929e-05
4.20479e-05
3.99338e-05
4.9121e-05
3.99357e-05
4.91191e-05
6.69835e-05
4.61374e-05
0.000178164
0.000155466
6.7006e-05
4.61421e-05
0.000178112
6.68831e-05
4.61402e-05
0.000178163
0.000155448
6.69483e-05
4.61426e-05
0.000178104
3.99334e-05
4.91293e-05
4.91298e-05
3.99373e-05
3.99295e-05
4.91183e-05
4.91186e-05
3.99299e-05
6.68654e-05
0.000155496
4.61424e-05
0.000178156
4.61387e-05
0.000178137
6.68544e-05
6.68335e-05
0.000155457
4.61365e-05
0.000178137
4.61375e-05
0.000178125
6.68914e-05
4.21298e-05
4.20451e-05
0.000127546
4.21182e-05
4.20458e-05
2.40424e-05
2.40434e-05
2.4042e-05
2.40412e-05
0.000127317
4.21357e-05
4.20869e-05
4.21403e-05
4.1975e-05
2.40447e-05
2.40431e-05
6.69958e-05
4.61269e-05
0.000178173
0.000155503
6.70194e-05
4.61314e-05
0.000178131
3.99332e-05
4.91188e-05
3.99345e-05
4.91214e-05
6.69486e-05
0.000178171
4.61404e-05
0.000155437
6.70541e-05
0.000178097
4.61484e-05
3.99328e-05
4.91259e-05
4.91267e-05
3.99364e-05
6.68641e-05
0.000155525
4.61307e-05
0.000178154
4.61271e-05
0.000178142
6.69437e-05
3.99292e-05
4.91234e-05
4.91225e-05
3.99292e-05
6.69549e-05
0.000155464
0.00017814
4.61494e-05
0.000178129
4.61459e-05
6.68457e-05
3.99393e-05
4.91246e-05
3.99371e-05
4.91218e-05
6.69571e-05
0.000178148
4.61352e-05
0.000155432
6.69607e-05
0.000178084
4.61397e-05
3.9935e-05
4.91172e-05
3.99351e-05
4.91202e-05
6.68648e-05
0.000155524
4.61475e-05
0.000178153
4.61423e-05
0.000178141
6.68554e-05
3.9935e-05
4.91257e-05
4.91244e-05
3.99363e-05
6.6962e-05
0.000155456
0.000178121
4.61425e-05
0.000178107
4.61352e-05
6.6826e-05
3.9931e-05
4.91254e-05
4.91284e-05
3.99301e-05
4.21037e-05
4.20472e-05
0.000127959
4.20242e-05
4.19948e-05
2.4041e-05
2.40422e-05
2.40414e-05
2.40405e-05
0.000127597
4.20592e-05
4.19261e-05
4.21754e-05
4.20493e-05
2.40422e-05
2.4042e-05
6.70533e-05
0.000178166
4.61363e-05
0.000155467
6.69255e-05
0.000178096
4.61381e-05
3.994e-05
4.91216e-05
3.99368e-05
4.91206e-05
3.99307e-05
4.91171e-05
3.99312e-05
4.91153e-05
6.70221e-05
0.000155525
0.000178181
4.61375e-05
0.000178194
4.6136e-05
6.69488e-05
6.69593e-05
0.000155482
0.000178145
4.61355e-05
0.000178142
4.61333e-05
6.69202e-05
3.99364e-05
4.91219e-05
4.9122e-05
3.99381e-05
3.99263e-05
4.91156e-05
4.91155e-05
3.99261e-05
2.404e-05
2.40409e-05
2.40381e-05
2.40396e-05
0.000127609
4.20936e-05
4.2122e-05
4.19517e-05
4.2122e-05
2.4042e-05
2.40407e-05
2.40404e-05
2.40392e-05
2.40441e-05
2.40448e-05
2.40402e-05
2.40411e-05
4.21829e-05
4.19628e-05
0.000127426
4.21588e-05
4.19633e-05
2.4046e-05
2.4045e-05
2.40429e-05
2.40413e-05
0.000127145
4.21637e-05
4.20553e-05
4.21706e-05
4.2017e-05
3.99292e-05
4.91193e-05
3.9927e-05