/*--------------------------------*- C++ -*----------------------------------*\
| =========                 |                                                 |
| \\      /  F ield         | OpenFOAM: The Open Source CFD Toolbox           |
|  \\    /   O peration     | Version:  2312                                  |
|   \\  /    A nd           | Website:  www.openfoam.com                      |
|    \\/     M anipulation  |                                                 |
\*---------------------------------------------------------------------------*/
FoamFile
{
    version     2.0;
    format      ascii;
    arch        "LSB;label=32;scalar=64";
    class       volScalarField;
    location    "50";
    object      p;
}
// * * * * * * * * * * * * * * * * * * * * * * * * * * * * * * * * * * * * * //

dimensions      [0 2 -2 0 0 0 0];

internalField   nonuniform List<scalar> 
42840
(
0.00275215
0.00275212
0.00275211
0.00275392
0.00271389
0.00271387
0.00271387
0.00271567
0.00267565
0.00267562
0.00267563
0.00267743
0.00263741
0.00263739
0.00263738
0.0026392
0.00259916
0.00259913
0.00259913
0.00260094
0.00256091
0.00256087
0.00256087
0.00256268
0.00252265
0.00252262
0.00252262
0.00252443
0.00248439
0.00248436
0.00248436
0.00248617
0.00244614
0.00244611
0.00244611
0.00244791
0.00240789
0.00240786
0.00240786
0.00240967
0.00236964
0.00236961
0.00236961
0.00237142
0.00233139
0.00233136
0.00233136
0.00233317
0.00229313
0.00229311
0.00229311
0.00229492
0.00225488
0.00225485
0.00225485
0.00225666
0.00221662
0.0022166
0.00221659
0.00221841
0.00217837
0.00217834
0.00217834
0.00218015
0.00214011
0.00214008
0.00214008
0.00214189
0.00210186
0.00210183
0.00210183
0.00210364
0.0020636
0.00206357
0.00206357
0.00206538
0.00202535
0.00202532
0.00202532
0.00202713
0.00198709
0.00198706
0.00198706
0.00198887
0.00194883
0.0019488
0.0019488
0.00195061
0.00191058
0.00191055
0.00191055
0.00191236
0.00187233
0.0018723
0.0018723
0.00187411
0.00183407
0.00183404
0.00183404
0.00183585
0.00275392
0.00272162
0.00275212
0.00275212
0.00272343
0.00272343
0.00275392
0.00272162
0.00275212
0.00275212
0.00272343
0.00272343
0.00275212
0.00272343
0.00272343
0.00275392
0.00272161
0.00275211
0.00272343
0.00272343
0.00272161
0.00271568
0.00268337
0.00271387
0.00271387
0.00268519
0.00268518
0.00271568
0.00268337
0.00271387
0.00271386
0.00268519
0.00268518
0.00271387
0.00268518
0.00268518
0.00271568
0.00268337
0.00271387
0.00268519
0.00268518
0.00268337
0.00267744
0.00264514
0.00267563
0.00267563
0.00264695
0.00264695
0.00267744
0.00264514
0.00267563
0.00267562
0.00264695
0.00264695
0.00267562
0.00264695
0.00264695
0.00267744
0.00264514
0.00267562
0.00264695
0.00264695
0.00264514
0.0026392
0.00260688
0.00263739
0.00263738
0.00260869
0.0026087
0.0026392
0.00260688
0.00263738
0.00263739
0.00260869
0.00260869
0.00263739
0.0026087
0.0026087
0.0026392
0.00260688
0.00263738
0.0026087
0.0026087
0.00260688
0.00260094
0.00256863
0.00259913
0.00259913
0.00257044
0.00257044
0.00260094
0.00256863
0.00259913
0.00259913
0.00257044
0.00257044
0.00259913
0.00257044
0.00257044
0.00260094
0.00256863
0.00259913
0.00257044
0.00257044
0.00256862
0.00256269
0.00253037
0.00256088
0.00256088
0.00253218
0.00253219
0.00256269
0.00253037
0.00256088
0.00256088
0.00253218
0.00253218
0.00256087
0.00253219
0.00253218
0.00256269
0.00253037
0.00256087
0.00253218
0.00253218
0.00253037
0.00252443
0.00249212
0.00252262
0.00252262
0.00249393
0.00249393
0.00252443
0.00249212
0.00252262
0.00252262
0.00249393
0.00249392
0.00252262
0.00249393
0.00249393
0.00252444
0.00249211
0.00252262
0.00249393
0.00249393
0.00249211
0.00248618
0.00245386
0.00248436
0.00248436
0.00245567
0.00245567
0.00248618
0.00245385
0.00248436
0.00248436
0.00245567
0.00245567
0.00248436
0.00245567
0.00245567
0.00248617
0.00245386
0.00248436
0.00245567
0.00245567
0.00245385
0.00244792
0.00241561
0.00244611
0.00244611
0.00241742
0.00241742
0.00244792
0.00241561
0.00244611
0.00244611
0.00241742
0.00241742
0.00244611
0.00241742
0.00241742
0.00244792
0.00241561
0.00244611
0.00241742
0.00241742
0.00241561
0.00240967
0.00237736
0.00240786
0.00240786
0.00237917
0.00237918
0.00240967
0.00237736
0.00240786
0.00240786
0.00237917
0.00237917
0.00240786
0.00237917
0.00237918
0.00240967
0.00237736
0.00240786
0.00237917
0.00237917
0.00237736
0.00237142
0.00233911
0.00236961
0.00236961
0.00234092
0.00234093
0.00237142
0.00233911
0.00236961
0.00236961
0.00234092
0.00234092
0.00236961
0.00234093
0.00234093
0.00237142
0.00233911
0.00236961
0.00234092
0.00234092
0.00233911
0.00233317
0.00230086
0.00233136
0.00233136
0.00230267
0.00230267
0.00233317
0.00230086
0.00233136
0.00233136
0.00230267
0.00230267
0.00233136
0.00230267
0.00230267
0.00233317
0.00230086
0.00233136
0.00230267
0.00230267
0.00230086
0.00229492
0.0022626
0.00229311
0.0022931
0.00226441
0.00226441
0.00229492
0.0022626
0.00229311
0.00229311
0.00226441
0.00226442
0.00229311
0.00226441
0.00226441
0.00229492
0.0022626
0.00229311
0.00226442
0.00226441
0.0022626
0.00225666
0.00222435
0.00225485
0.00225485
0.00222616
0.00222616
0.00225666
0.00222435
0.00225485
0.00225485
0.00222616
0.00222616
0.00225485
0.00222616
0.00222616
0.00225666
0.00222435
0.00225485
0.00222616
0.00222616
0.00222435
0.00221841
0.00218609
0.0022166
0.0022166
0.0021879
0.0021879
0.00221841
0.00218609
0.0022166
0.0022166
0.0021879
0.00218791
0.0022166
0.00218791
0.0021879
0.00221841
0.00218609
0.0022166
0.00218791
0.0021879
0.00218609
0.00218015
0.00214784
0.00217834
0.00217834
0.00214965
0.00214965
0.00218015
0.00214784
0.00217834
0.00217834
0.00214965
0.00214965
0.00217834
0.00214965
0.00214965
0.00218015
0.00214783
0.00217834
0.00214965
0.00214965
0.00214783
0.0021419
0.00210958
0.00214008
0.00214008
0.00211139
0.0021114
0.0021419
0.00210958
0.00214008
0.00214008
0.00211139
0.00211139
0.00214008
0.00211139
0.00211139
0.00214189
0.00210958
0.00214008
0.00211139
0.00211139
0.00210958
0.00210364
0.00207133
0.00210183
0.00210183
0.00207314
0.00207314
0.00210364
0.00207133
0.00210183
0.00210183
0.00207314
0.00207314
0.00210183
0.00207314
0.00207314
0.00210364
0.00207132
0.00210183
0.00207314
0.00207314
0.00207132
0.00206539
0.00203307
0.00206358
0.00206357
0.00203488
0.00203488
0.00206539
0.00203307
0.00206358
0.00206357
0.00203488
0.00203488
0.00206357
0.00203488
0.00203488
0.00206539
0.00203307
0.00206357
0.00203488
0.00203488
0.00203307
0.00202713
0.00199481
0.00202532
0.00202532
0.00199662
0.00199662
0.00202713
0.00199481
0.00202532
0.00202532
0.00199662
0.00199662
0.00202532
0.00199662
0.00199662
0.00202713
0.00199481
0.00202532
0.00199663
0.00199662
0.00199481
0.00198887
0.00195655
0.00198706
0.00198706
0.00195837
0.00195837
0.00198887
0.00195656
0.00198706
0.00198706
0.00195837
0.00195837
0.00198706
0.00195837
0.00195837
0.00198887
0.00195655
0.00198706
0.00195837
0.00195837
0.00195655
0.00195061
0.0019183
0.0019488
0.00194881
0.00192012
0.00192012
0.00195062
0.0019183
0.0019488
0.0019488
0.00192011
0.00192012
0.0019488
0.00192012
0.00192011
0.00195061
0.0019183
0.0019488
0.00192011
0.00192011
0.0019183
0.00191236
0.00188005
0.00191055
0.00191055
0.00188186
0.00188186
0.00191236
0.00188005
0.00191055
0.00191055
0.00188186
0.00188186
0.00191055
0.00188186
0.00188186
0.00191236
0.00188005
0.00191055
0.00188186
0.00188186
0.00188005
0.00187411
0.00184179
0.0018723
0.0018723
0.0018436
0.0018436
0.00187411
0.00184179
0.0018723
0.0018723
0.0018436
0.00184361
0.0018723
0.0018436
0.00184361
0.00187411
0.00184179
0.0018723
0.00184361
0.00184361
0.00184179
0.00183585
0.00183404
0.00183404
0.00183585
0.00183404
0.00183404
0.00183404
0.00183585
0.00183404
0.00274027
0.00275441
0.00274027
0.00275441
0.00275442
0.00274026
0.00274027
0.00275442
0.00274028
0.00275441
0.00275215
0.00275215
0.00275214
0.00272346
0.00272346
0.00272345
0.00272346
0.00274036
0.00275434
0.00275212
0.00274255
0.00274035
0.00274256
0.00275433
0.00275444
0.00274027
0.00274035
0.00275212
0.00275434
0.00274255
0.00274256
0.00274035
0.00275433
0.00275441
0.00275441
0.00274074
0.00274028
0.00274028
0.00270203
0.00271617
0.00271617
0.00270204
0.00271618
0.00270202
0.00270203
0.00271617
0.00271616
0.00270203
0.00271389
0.00271389
0.00271389
0.00268521
0.00268521
0.00268521
0.00268521
0.00270211
0.00271609
0.00271387
0.0027043
0.00271608
0.0027021
0.00270431
0.00271617
0.00270201
0.00270211
0.00271387
0.00271609
0.00270431
0.00271608
0.00270431
0.0027021
0.00271617
0.00271616
0.00270249
0.00270203
0.00270204
0.00266379
0.00267793
0.00267792
0.00266379
0.00267794
0.00266378
0.00266379
0.00267793
0.00267792
0.00266379
0.00267565
0.00267565
0.00267565
0.00264697
0.00264697
0.00264697
0.00264697
0.00266387
0.00267784
0.00267563
0.00266606
0.00267783
0.00266387
0.00266607
0.00267794
0.00266378
0.00266388
0.00267563
0.00267785
0.00266607
0.00267784
0.00266607
0.00266387
0.00267792
0.00267792
0.00266426
0.00266379
0.0026638
0.00262555
0.00263969
0.00263969
0.00262555
0.0026397
0.00262554
0.00262555
0.00263969
0.00263969
0.00262555
0.00263741
0.00263741
0.00263741
0.00260872
0.00260872
0.00260872
0.00260872
0.00262564
0.00263961
0.00263739
0.00262783
0.00263961
0.00262563
0.00262783
0.0026397
0.00262554
0.00262563
0.00263739
0.00263961
0.00262782
0.0026396
0.00262783
0.00262562
0.00263969
0.00263969
0.00262601
0.00262556
0.00262555
0.00258729
0.00260143
0.00260143
0.00258729
0.00260145
0.00258728
0.00258729
0.00260143
0.00260143
0.0025873
0.00259916
0.00259916
0.00259916
0.00257047
0.00257047
0.00257047
0.00257046
0.00258738
0.00260136
0.00259914
0.00258957
0.00260135
0.00258737
0.00258957
0.00260145
0.00258728
0.00258738
0.00259914
0.00260136
0.00258957
0.00260135
0.00258957
0.00258738
0.00260144
0.00260144
0.00258775
0.0025873
0.0025873
0.00254904
0.00256318
0.00256318
0.00254904
0.00256318
0.00254903
0.00254904
0.00256318
0.00256318
0.00254904
0.0025609
0.0025609
0.0025609
0.00253221
0.00253221
0.00253221
0.00253221
0.00254912
0.0025631
0.00256088
0.00255131
0.00256309
0.00254912
0.00255132
0.00256318
0.00254903
0.00254912
0.00256088
0.0025631
0.00255131
0.00256309
0.00255132
0.00254911
0.00256317
0.00256317
0.0025495
0.00254903
0.00254903
0.00251078
0.00252493
0.00252492
0.00251079
0.00252494
0.00251078
0.00251078
0.00252492
0.00252492
0.00251079
0.00252265
0.00252265
0.00252265
0.00249396
0.00249395
0.00249395
0.00249395
0.00251087
0.00252485
0.00252263
0.00251306
0.00252484
0.00251086
0.00251306
0.00252494
0.00251078
0.00251087
0.00252263
0.00252485
0.00251306
0.00252484
0.00251306
0.00251087
0.00252493
0.00252493
0.00251124
0.00251079
0.00251079
0.00247252
0.00248667
0.00248666
0.00247253
0.00248668
0.00247251
0.00247252
0.00248667
0.00248666
0.00247253
0.00248439
0.00248439
0.00248439
0.0024557
0.0024557
0.0024557
0.0024557
0.0024726
0.00248659
0.00248437
0.0024748
0.00248658
0.0024726
0.0024748
0.00248667
0.00247251
0.0024726
0.00248437
0.00248659
0.00247479
0.00248658
0.0024748
0.00247259
0.00248667
0.00248667
0.00247298
0.00247252
0.00247252
0.00243427
0.00244841
0.0024484
0.00243427
0.00244841
0.00243426
0.00243427
0.00244841
0.00244841
0.00243428
0.00244613
0.00244614
0.00244614
0.00241745
0.00241745
0.00241745
0.00241745
0.00243435
0.00244833
0.00244611
0.00243655
0.00244832
0.00243435
0.00243655
0.00244842
0.00243427
0.00243436
0.00244611
0.00244833
0.00243655
0.00244832
0.00243655
0.00243436
0.00244841
0.0024484
0.00243474
0.00243427
0.00243428
0.00239602
0.00241016
0.00241016
0.00239602
0.00241018
0.00239602
0.00239602
0.00241016
0.00241016
0.00239603
0.00240789
0.00240789
0.00240789
0.0023792
0.0023792
0.0023792
0.0023792
0.00239611
0.00241009
0.00240787
0.0023983
0.00241008
0.0023961
0.0023983
0.00241017
0.00239601
0.00239611
0.00240787
0.00241008
0.0023983
0.00241008
0.0023983
0.0023961
0.00241017
0.00241017
0.00239648
0.00239603
0.00239602
0.00235777
0.00237191
0.00237191
0.00235778
0.00237193
0.00235777
0.00235777
0.00237191
0.00237191
0.00235778
0.00236964
0.00236964
0.00236964
0.00234095
0.00234095
0.00234095
0.00234095
0.00235786
0.00237184
0.00236962
0.00236005
0.00237183
0.00235785
0.00236006
0.00237192
0.00235777
0.00235786
0.00236962
0.00237183
0.00236005
0.00237182
0.00236006
0.00235785
0.00237191
0.00237191
0.00235824
0.00235778
0.00235778
0.00231953
0.00233366
0.00233366
0.00231953
0.00233367
0.00231952
0.00231952
0.00233366
0.00233366
0.00231953
0.00233139
0.00233139
0.00233139
0.0023027
0.0023027
0.0023027
0.0023027
0.00231961
0.00233359
0.00233137
0.0023218
0.00233358
0.0023196
0.0023218
0.00233367
0.00231951
0.00231961
0.00233137
0.00233359
0.0023218
0.00233358
0.0023218
0.0023196
0.00233367
0.00233367
0.00231999
0.00231953
0.00231953
0.00228126
0.00229541
0.00229541
0.00228127
0.00229542
0.00228126
0.00228127
0.00229541
0.00229541
0.00228127
0.00229313
0.00229314
0.00229314
0.00226444
0.00226444
0.00226444
0.00226444
0.00228135
0.00229533
0.00229311
0.00228354
0.00229532
0.00228135
0.00228355
0.00229542
0.00228126
0.00228135
0.00229311
0.00229534
0.00228355
0.00229532
0.00228355
0.00228135
0.00229541
0.00229541
0.00228173
0.00228127
0.00228127
0.00224301
0.00225715
0.00225715
0.00224302
0.00225716
0.00224301
0.00224301
0.00225715
0.00225715
0.00224302
0.00225488
0.00225488
0.00225488
0.00222619
0.00222619
0.00222619
0.00222619
0.0022431
0.00225708
0.00225486
0.00224529
0.00225707
0.00224309
0.00224529
0.00225717
0.002243
0.00224309
0.00225486
0.00225708
0.00224529
0.00225706
0.00224529
0.00224308
0.00225715
0.00225715
0.00224347
0.00224302
0.00224302
0.00220475
0.0022189
0.0022189
0.00220476
0.00221891
0.00220475
0.00220476
0.0022189
0.0022189
0.00220476
0.00221662
0.00221662
0.00221662
0.00218793
0.00218793
0.00218793
0.00218793
0.00220484
0.00221882
0.0022166
0.00220703
0.00221881
0.00220484
0.00220704
0.00221891
0.00220475
0.00220484
0.0022166
0.00221882
0.00220703
0.00221881
0.00220704
0.00220483
0.0022189
0.0022189
0.00220522
0.00220476
0.00220477
0.0021665
0.00218064
0.00218064
0.0021665
0.00218065
0.0021665
0.0021665
0.00218064
0.00218064
0.0021665
0.00217837
0.00217837
0.00217837
0.00214968
0.00214968
0.00214967
0.00214967
0.00216658
0.00218057
0.00217835
0.00216878
0.00218056
0.00216658
0.00216878
0.00218066
0.00216649
0.00216659
0.00217835
0.00218057
0.00216878
0.00218056
0.00216878
0.00216658
0.00218064
0.00218064
0.00216696
0.0021665
0.0021665
0.00212824
0.00214239
0.00214238
0.00212825
0.0021424
0.00212824
0.00212824
0.00214239
0.00214238
0.00212825
0.00214011
0.00214011
0.00214011
0.00211142
0.00211142
0.00211142
0.00211142
0.00212833
0.00214231
0.00214009
0.00213052
0.0021423
0.00212832
0.00213053
0.0021424
0.00212824
0.00212833
0.00214009
0.00214231
0.00213052
0.0021423
0.00213053
0.00212832
0.00214238
0.00214239
0.00212871
0.00212825
0.00212825
0.00208999
0.00210413
0.00210413
0.00208999
0.00210414
0.00208998
0.00208999
0.00210413
0.00210413
0.00208999
0.00210186
0.00210185
0.00210186
0.00207317
0.00207317
0.00207316
0.00207316
0.00209007
0.00210405
0.00210183
0.00209227
0.00210404
0.00209007
0.00209227
0.00210414
0.00208998
0.00209007
0.00210183
0.00210405
0.00209226
0.00210404
0.00209227
0.00209006
0.00210413
0.00210413
0.00209045
0.00208999
0.00208999
0.00205174
0.00206587
0.00206587
0.00205174
0.0020659
0.00205173
0.00205174
0.00206588
0.00206587
0.00205174
0.0020636
0.0020636
0.0020636
0.00203491
0.00203491
0.00203491
0.00203491
0.00205182
0.0020658
0.00206358
0.00205401
0.00206579
0.00205181
0.00205401
0.00206589
0.00205173
0.00205182
0.00206358
0.0020658
0.00205401
0.00206579
0.00205402
0.00205181
0.00206588
0.00206588
0.0020522
0.00205174
0.00205174
0.00201348
0.00202762
0.00202762
0.00201348
0.00202763
0.00201347
0.00201348
0.00202763
0.00202762
0.00201348
0.00202534
0.00202535
0.00202535
0.00199665
0.00199665
0.00199665
0.00199665
0.00201356
0.00202754
0.00202532
0.00201575
0.00202753
0.00201356
0.00201576
0.00202764
0.00201347
0.00201357
0.00202533
0.00202755
0.00201576
0.00202754
0.00201576
0.00201356
0.00202762
0.00202763
0.00201394
0.00201349
0.00201349
0.00197522
0.00198936
0.00198936
0.00197522
0.00198937
0.00197521
0.00197522
0.00198936
0.00198936
0.00197522
0.00198709
0.00198709
0.00198709
0.00195839
0.0019584
0.00195839
0.00195839
0.0019753
0.00198928
0.00198707
0.0019775
0.00198927
0.0019753
0.0019775
0.00198937
0.00197521
0.0019753
0.00198707
0.00198929
0.0019775
0.00198928
0.0019775
0.0019753
0.00198937
0.00198936
0.00197568
0.00197522
0.00197522
0.00193697
0.00195111
0.0019511
0.00193697
0.00195112
0.00193696
0.00193697
0.00195111
0.0019511
0.00193697
0.00194883
0.00194883
0.00194883
0.00192014
0.00192014
0.00192014
0.00192014
0.00193705
0.00195103
0.00194881
0.00193924
0.00195102
0.00193705
0.00193925
0.00195112
0.00193695
0.00193705
0.00194881
0.00195103
0.00193924
0.00195102
0.00193925
0.00193704
0.00195111
0.00195111
0.00193743
0.00193697
0.00193697
0.00189871
0.00191285
0.00191285
0.00189872
0.00191287
0.0018987
0.00189871
0.00191286
0.00191285
0.00189872
0.00191058
0.00191058
0.00191058
0.00188189
0.00188189
0.00188189
0.00188189
0.0018988
0.00191278
0.00191056
0.00190099
0.00191277
0.00189879
0.00190099
0.00191287
0.00189871
0.0018988
0.00191056
0.00191278
0.00190099
0.00191276
0.00190099
0.00189879
0.00191286
0.00191286
0.00189917
0.00189872
0.00189872
0.00186046
0.0018746
0.0018746
0.00186046
0.00187461
0.00186045
0.00186046
0.0018746
0.0018746
0.00186046
0.00187233
0.00187233
0.00187233
0.00184363
0.00184363
0.00184363
0.00184363
0.00186054
0.00187452
0.0018723
0.00186274
0.00187451
0.00186054
0.00186274
0.00187461
0.00186046
0.00186054
0.0018723
0.00187453
0.00186274
0.00187451
0.00186274
0.00186054
0.0018746
0.0018746
0.00186092
0.00186046
0.00186046
0.0018222
0.00183635
0.00183634
0.0018222
0.00183636
0.00182219
0.0018222
0.00183635
0.00183635
0.00182221
0.00183407
0.00183407
0.00183407
0.00182228
0.00183627
0.00183404
0.00182447
0.00183626
0.00182228
0.00182448
0.00183636
0.00182219
0.00182229
0.00183405
0.00183627
0.00182448
0.00183626
0.00182448
0.00182228
0.00183635
0.00183635
0.00182266
0.00182221
0.00182221
0.00275442
0.00274026
0.00275443
0.00274027
0.00275441
0.00275441
0.00274074
0.00274028
0.00274028
0.00272113
0.0027353
0.00272113
0.00273531
0.00273481
0.00272115
0.00272115
0.00273528
0.00273528
0.00274027
0.00275441
0.00274028
0.00275441
0.00274036
0.00275434
0.00275212
0.00274255
0.00274034
0.00274256
0.00275433
0.00274036
0.00275434
0.00275212
0.00274256
0.00274035
0.00274256
0.00275433
0.00273528
0.00272115
0.00273529
0.00272116
0.00273528
0.00272115
0.00273529
0.00272116
0.00273521
0.00273299
0.00272122
0.00272343
0.00273521
0.002733
0.00272123
0.00273521
0.00273299
0.00272122
0.00272343
0.00273521
0.002733
0.00272123
0.00275441
0.00275441
0.00274074
0.00274028
0.00274028
0.00275442
0.00274027
0.00272115
0.0027353
0.00273481
0.00272115
0.00272116
0.00273529
0.00273529
0.00272114
0.00273531
0.00274036
0.00275434
0.00275212
0.00274255
0.00274034
0.00274256
0.00275433
0.00274027
0.00275442
0.00274028
0.00275441
0.00274036
0.00275212
0.00275434
0.00274255
0.00274256
0.00274035
0.00275433
0.00273528
0.00272115
0.00273529
0.00272116
0.0027352
0.00273299
0.00272122
0.00272343
0.00273521
0.002733
0.00272123
0.00273528
0.00272114
0.00273529
0.00272116
0.0027352
0.00273299
0.00272343
0.00272122
0.00273299
0.00273521
0.00272123
0.00274028
0.00275441
0.00274028
0.00275441
0.00274036
0.00275212
0.00275434
0.00274255
0.00274256
0.00274035
0.00275433
0.00274027
0.00275442
0.00274028
0.00275441
0.00273521
0.00273299
0.00272123
0.00272343
0.00273521
0.002733
0.00272124
0.00273529
0.00272115
0.00273529
0.00272117
0.00273521
0.00273299
0.00272343
0.00272122
0.002733
0.00273521
0.00272124
0.00273529
0.00272115
0.00273529
0.00272117
0.00275442
0.00275442
0.00274074
0.00274028
0.00274028
0.00275443
0.00274026
0.00272113
0.0027353
0.0027348
0.00272115
0.00272115
0.00273528
0.00273529
0.00272113
0.00273531
0.00274036
0.00275212
0.00275434
0.00274255
0.00274256
0.00274035
0.00275433
0.00274027
0.00275442
0.00274027
0.00275441
0.00274027
0.00275441
0.00274027
0.0027544
0.0027352
0.00273299
0.00272343
0.00272122
0.00273299
0.00273521
0.00272123
0.0027352
0.00273299
0.00272343
0.00272122
0.00273299
0.00273521
0.00272123
0.00273528
0.00272114
0.00273529
0.00272116
0.00273528
0.00272115
0.00273529
0.00272116
0.00275443
0.00274026
0.00275441
0.00274026
0.0027348
0.00272115
0.00272115
0.00273528
0.00273528
0.00272114
0.00273531
0.00272113
0.00273531
0.00271617
0.00270203
0.00271618
0.00270203
0.00271617
0.00271617
0.00270249
0.00270205
0.00270204
0.00268289
0.00269706
0.00268289
0.00269705
0.00269656
0.00268291
0.00268291
0.00269704
0.00269704
0.00270203
0.00271617
0.00271616
0.00270203
0.00270211
0.00271609
0.00271387
0.00270431
0.00271609
0.00270211
0.00270431
0.00270211
0.00271609
0.00271387
0.0027043
0.00271609
0.00270211
0.00270431
0.00269704
0.00268291
0.00269704
0.00268292
0.00269704
0.00268291
0.00269704
0.00268292
0.00269696
0.00269475
0.00268298
0.00268519
0.00269697
0.00269475
0.00268299
0.00269696
0.00269474
0.00268298
0.00268519
0.00269697
0.00269475
0.00268299
0.00271616
0.00271616
0.00270249
0.00270204
0.00270204
0.00271618
0.00270202
0.0026829
0.00269705
0.00269656
0.00268291
0.0026829
0.00269704
0.00269704
0.00268289
0.00269705
0.00270211
0.00271609
0.00271387
0.00270431
0.00271609
0.00270211
0.00270431
0.00270203
0.00271616
0.00271616
0.00270203
0.00270211
0.00271387
0.00271609
0.00270431
0.00271608
0.00270431
0.0027021
0.00269704
0.00268291
0.00269704
0.00268292
0.00269696
0.00269475
0.00268298
0.00268519
0.00269697
0.00269475
0.00268299
0.00269704
0.00268291
0.00269704
0.00268292
0.00269696
0.00269474
0.00268519
0.00268298
0.00269475
0.00269696
0.00268299
0.00270203
0.00271617
0.00271616
0.00270203
0.00270211
0.00271387
0.00271609
0.0027043
0.00271608
0.00270431
0.0027021
0.00270203
0.00271616
0.00271616
0.00270203
0.00269696
0.00269474
0.00268297
0.00268519
0.00269696
0.00269475
0.00268298
0.00269703
0.0026829
0.00269704
0.00268291
0.00269696
0.00269474
0.00268519
0.00268297
0.00269475
0.00269696
0.00268298
0.00269703
0.0026829
0.00269704
0.00268291
0.00271616
0.00271616
0.00270249
0.00270203
0.00270203
0.00271618
0.00270201
0.00268289
0.00269705
0.00269656
0.00268291
0.00268291
0.00269703
0.00269703
0.00268288
0.00269704
0.00270211
0.00271387
0.00271609
0.0027043
0.00271608
0.00270431
0.0027021
0.00270203
0.00271616
0.00271615
0.00270203
0.00270203
0.00271616
0.00271615
0.00270203
0.00269696
0.00269475
0.00268519
0.00268298
0.00269475
0.00269696
0.00268299
0.00269696
0.00269474
0.00268519
0.00268298
0.00269475
0.00269696
0.00268299
0.00269703
0.0026829
0.00269703
0.00268292
0.00269704
0.0026829
0.00269704
0.00268292
0.00271617
0.00270202
0.00271617
0.00270202
0.00269656
0.0026829
0.00268291
0.00269704
0.00269704
0.00268289
0.00269704
0.00268289
0.00269706
0.00267794
0.00266378
0.00267794
0.00266378
0.00267792
0.00267793
0.00266425
0.0026638
0.0026638
0.00264465
0.00265882
0.00264465
0.00265881
0.00265832
0.00264467
0.00264467
0.0026588
0.0026588
0.0026638
0.00267792
0.00267792
0.0026638
0.00266387
0.00267785
0.00267563
0.00266607
0.00267784
0.00266387
0.00266607
0.00266388
0.00267785
0.00267563
0.00266607
0.00267784
0.00266387
0.00266607
0.00265881
0.00264467
0.00265881
0.00264468
0.00265881
0.00264467
0.00265881
0.00264468
0.00265873
0.00265651
0.00264475
0.00264695
0.00265873
0.00265651
0.00264475
0.00265873
0.00265651
0.00264474
0.00264695
0.00265873
0.00265651
0.00264475
0.00267792
0.00267792
0.00266425
0.0026638
0.0026638
0.00267793
0.00266378
0.00264464
0.00265882
0.00265832
0.00264467
0.00264467
0.0026588
0.0026588
0.00264466
0.00265881
0.00266387
0.00267785
0.00267563
0.00266607
0.00267784
0.00266387
0.00266607
0.00266379
0.00267792
0.00267792
0.0026638
0.00266387
0.00267563
0.00267785
0.00266607
0.00267784
0.00266607
0.00266387
0.0026588
0.00264467
0.00265881
0.00264468
0.00265873
0.00265651
0.00264475
0.00264695
0.00265873
0.00265651
0.00264475
0.0026588
0.00264467
0.0026588
0.00264469
0.00265873
0.00265651
0.00264695
0.00264475
0.00265651
0.00265873
0.00264475
0.00266379
0.00267792
0.00267791
0.00266379
0.00266387
0.00267563
0.00267784
0.00266607
0.00267784
0.00266607
0.00266387
0.00266379
0.00267792
0.00267791
0.00266379
0.00265872
0.00265651
0.00264475
0.00264695
0.00265873
0.00265651
0.00264475
0.0026588
0.00264467
0.0026588
0.00264469
0.00265872
0.00265651
0.00264695
0.00264474
0.00265651
0.00265873
0.00264475
0.0026588
0.00264467
0.0026588
0.00264469
0.00267792
0.00267792
0.00266425
0.0026638
0.00266381
0.00267793
0.00266379
0.00264465
0.00265881
0.00265832
0.00264467
0.00264467
0.0026588
0.00265881
0.00264466
0.00265882
0.00266388
0.00267563
0.00267785
0.00266607
0.00267784
0.00266607
0.00266388
0.00266381
0.00267792
0.00267792
0.00266381
0.0026638
0.00267793
0.00267792
0.0026638
0.00265873
0.00265651
0.00264695
0.00264475
0.00265651
0.00265873
0.00264475
0.00265873
0.00265651
0.00264695
0.00264475
0.00265651
0.00265874
0.00264475
0.00265881
0.00264467
0.00265881
0.00264469
0.00265881
0.00264467
0.00265881
0.00264469
0.00267793
0.00266377
0.00267794
0.00266379
0.00265832
0.00264468
0.00264467
0.0026588
0.00265881
0.00264467
0.00265881
0.00264465
0.00265882
0.0026397
0.00262554
0.0026397
0.00262554
0.00263968
0.00263968
0.00262601
0.00262556
0.00262556
0.00260639
0.00262057
0.0026064
0.00262058
0.00262007
0.00260641
0.00260642
0.00262056
0.00262055
0.00262555
0.00263969
0.00263968
0.00262555
0.00262563
0.00263961
0.00263739
0.00262782
0.0026396
0.00262563
0.00262783
0.00262563
0.00263961
0.00263739
0.00262782
0.0026396
0.00262563
0.00262783
0.00262056
0.00260641
0.00262056
0.00260643
0.00262055
0.00260642
0.00262055
0.00260643
0.00262048
0.00261826
0.00260649
0.0026087
0.00262048
0.00261826
0.0026065
0.00262048
0.00261826
0.00260649
0.0026087
0.00262048
0.00261826
0.0026065
0.00263968
0.00263968
0.00262601
0.00262555
0.00262556
0.0026397
0.00262554
0.0026064
0.00262057
0.00262008
0.00260642
0.00260642
0.00262055
0.00262056
0.0026064
0.00262057
0.00262563
0.00263961
0.00263739
0.00262782
0.00263961
0.00262562
0.00262783
0.00262555
0.00263969
0.00263968
0.00262556
0.00262563
0.00263739
0.00263962
0.00262782
0.00263961
0.00262783
0.00262563
0.00262056
0.00260642
0.00262056
0.00260643
0.00262048
0.00261826
0.00260649
0.0026087
0.00262048
0.00261826
0.0026065
0.00262056
0.00260642
0.00262056
0.00260643
0.00262048
0.00261826
0.0026087
0.00260649
0.00261826
0.00262048
0.0026065
0.00262556
0.00263969
0.00263968
0.00262556
0.00262564
0.00263739
0.00263961
0.00262783
0.00263961
0.00262783
0.00262563
0.00262556
0.00263969
0.00263969
0.00262556
0.00262048
0.00261826
0.00260649
0.0026087
0.00262049
0.00261827
0.0026065
0.00262056
0.00260642
0.00262056
0.00260644
0.00262048
0.00261826
0.0026087
0.0026065
0.00261827
0.00262049
0.0026065
0.00262057
0.00260643
0.00262057
0.00260644
0.00263969
0.00263968
0.00262601
0.00262556
0.00262555
0.0026397
0.00262554
0.0026064
0.00262057
0.00262008
0.00260642
0.00260642
0.00262055
0.00262055
0.00260639
0.00262057
0.00262563
0.00263739
0.00263961
0.00262782
0.0026396
0.00262783
0.00262563
0.00262555
0.00263969
0.00263968
0.00262555
0.00262555
0.00263969
0.00263968
0.00262555
0.00262048
0.00261826
0.0026087
0.00260649
0.00261827
0.00262048
0.0026065
0.00262048
0.00261826
0.0026087
0.0026065
0.00261827
0.00262048
0.0026065
0.00262055
0.00260641
0.00262055
0.00260643
0.00262055
0.00260643
0.00262056
0.00260643
0.00263971
0.00262554
0.0026397
0.00262554
0.00262008
0.00260643
0.00260643
0.00262056
0.00262056
0.00260641
0.00262058
0.00260642
0.00262057
0.00260144
0.00258728
0.00260144
0.00258729
0.00260142
0.00260143
0.00258775
0.0025873
0.0025873
0.00256816
0.00258231
0.00256815
0.00258231
0.00258182
0.00256817
0.00256817
0.0025823
0.0025823
0.00258729
0.00260143
0.00260143
0.0025873
0.00258737
0.00260135
0.00259914
0.00258957
0.00260135
0.00258737
0.00258957
0.00258737
0.00260136
0.00259914
0.00258957
0.00260135
0.00258737
0.00258957
0.0025823
0.00256817
0.0025823
0.00256817
0.0025823
0.00256815
0.0025823
0.00256817
0.00258222
0.00258
0.00256824
0.00257044
0.00258223
0.00258001
0.00256824
0.00258222
0.00258
0.00256823
0.00257044
0.00258222
0.00258001
0.00256824
0.00260143
0.00260143
0.00258775
0.0025873
0.00258731
0.00260144
0.00258728
0.00256814
0.00258231
0.00258182
0.00256816
0.00256816
0.0025823
0.0025823
0.00256814
0.00258231
0.00258737
0.00260136
0.00259914
0.00258957
0.00260135
0.00258737
0.00258957
0.00258729
0.00260144
0.00260143
0.0025873
0.00258737
0.00259914
0.00260136
0.00258957
0.00260135
0.00258957
0.00258737
0.0025823
0.00256816
0.0025823
0.00256817
0.00258222
0.00258
0.00256824
0.00257044
0.00258223
0.00258001
0.00256824
0.0025823
0.00256816
0.0025823
0.00256817
0.00258222
0.00258
0.00257044
0.00256823
0.00258001
0.00258223
0.00256824
0.00258729
0.00260143
0.00260143
0.0025873
0.00258738
0.00259914
0.00260136
0.00258957
0.00260135
0.00258957
0.00258737
0.00258729
0.00260144
0.00260143
0.0025873
0.00258222
0.00258
0.00256823
0.00257044
0.00258223
0.00258001
0.00256824
0.0025823
0.00256816
0.0025823
0.00256817
0.00258222
0.00258
0.00257044
0.00256823
0.00258001
0.00258223
0.00256824
0.0025823
0.00256815
0.0025823
0.00256817
0.00260143
0.00260143
0.00258775
0.00258731
0.00258731
0.00260145
0.00258729
0.00256814
0.00258231
0.00258182
0.00256816
0.00256816
0.00258231
0.00258231
0.00256814
0.00258232
0.00258737
0.00259914
0.00260136
0.00258957
0.00260135
0.00258957
0.00258737
0.0025873
0.00260144
0.00260143
0.0025873
0.0025873
0.00260144
0.00260143
0.0025873
0.00258222
0.00258
0.00257044
0.00256823
0.00258001
0.00258223
0.00256824
0.00258222
0.00258
0.00257044
0.00256823
0.00258001
0.00258223
0.00256824
0.0025823
0.00256816
0.0025823
0.00256817
0.0025823
0.00256816
0.0025823
0.00256817
0.00260145
0.00258728
0.00260147
0.00258728
0.00258182
0.00256816
0.00256816
0.0025823
0.0025823
0.00256815
0.00258232
0.00256815
0.00258231
0.00256319
0.00254902
0.00256319
0.00254903
0.00256318
0.00256318
0.0025495
0.00254905
0.00254905
0.00252989
0.00254405
0.00252989
0.00254405
0.00254356
0.00252991
0.00252991
0.00254405
0.00254405
0.00254904
0.00256317
0.00256317
0.00254905
0.00254912
0.00256311
0.00256088
0.00255131
0.0025631
0.00254912
0.00255132