/*--------------------------------*- C++ -*----------------------------------*\
| =========                 |                                                 |
| \\      /  F ield         | OpenFOAM: The Open Source CFD Toolbox           |
|  \\    /   O peration     | Version:  2312                                  |
|   \\  /    A nd           | Website:  www.openfoam.com                      |
|    \\/     M anipulation  |                                                 |
\*---------------------------------------------------------------------------*/
FoamFile
{
    version     2.0;
    format      ascii;
    arch        "LSB;label=32;scalar=64";
    class       surfaceScalarField;
    location    "50";
    object      phi;
}
// * * * * * * * * * * * * * * * * * * * * * * * * * * * * * * * * * * * * * //

dimensions      [0 3 -1 0 0 0 0];

oriented        oriented;

internalField   nonuniform List<scalar> 
123680
(
1.347e-09
1.45904e-09
-1.24435e-09
-1.33494e-09
0.00110678
-0.00110678
-1.24814e-06
-2.19571e-09
-1.73235e-09
0.00110478
-3.01526e-07
1.25172e-06
3.00538e-07
9.47906e-07
-3.10828e-07
3.06596e-07
-9.47008e-07
-0.00110478
-1.24583e-06
-2.04855e-09
3.74302e-09
0.00110466
-2.99114e-07
1.24905e-06
2.97573e-07
9.48472e-07
-3.1121e-07
3.0662e-07
-9.4715e-07
-0.00110466
1.27667e-06
1.24034e-06
-2.44633e-07
-2.47386e-07
0.000268871
-0.000270896
1.37289e-09
1.80558e-09
-0.00110678
-1.53773e-09
-1.46561e-09
0.00110678
-0.00110478
-1.24862e-06
-2.033e-09
-4.08954e-10
0.00110478
-3.02102e-07
1.25149e-06
3.00029e-07
9.48175e-07
-3.10947e-07
-9.47349e-07
3.06494e-07
-0.00110466
-1.24589e-06
-2.14466e-09
3.99529e-09
0.00110466
-2.99095e-07
1.24907e-06
2.9747e-07
9.48117e-07
-3.10863e-07
-9.47365e-07
3.06986e-07
-0.000270896
1.27665e-06
1.24028e-06
-2.44618e-07
-2.47425e-07
0.000268871
1.19868e-09
1.25928e-09
-0.00110678
-1.21545e-09
-1.32344e-09
0.00110678
-0.00110478
-1.24862e-06
-2.3981e-09
-2.81929e-10
0.00110478
-3.02016e-07
1.25147e-06
2.99978e-07
9.48218e-07
-3.10982e-07
-9.47075e-07
3.06717e-07
-0.00110465
-1.24585e-06
-1.26642e-09
4.30465e-09
0.00110465
-2.99259e-07
1.24903e-06
2.97386e-07
9.47801e-07
-3.11103e-07
-9.47835e-07
3.06783e-07
-0.000270896
1.27704e-06
1.24037e-06
-2.44576e-07
-2.47887e-07
0.000268871
2.31788e-10
4.32659e-10
-0.00110678
-7.50195e-10
-8.37107e-10
0.00110678
-0.00110478
-1.24878e-06
-6.24291e-10
4.58416e-10
0.00110478
-3.02406e-07
1.25138e-06
2.99782e-07
9.47204e-07
-3.11453e-07
-9.48411e-07
3.06492e-07
-0.00110466
-1.24628e-06
-7.56126e-10
4.86735e-09
0.00110466
-2.99607e-07
1.24859e-06
2.97131e-07
9.47848e-07
-3.11655e-07
-9.4779e-07
3.06542e-07
-0.000270897
1.27715e-06
1.24083e-06
-2.45062e-07
-2.48011e-07
0.000268872
9.36666e-10
1.18098e-09
-0.00110679
-1.25493e-09
-1.23457e-09
0.00110679
-0.00110478
-1.2486e-06
-8.35155e-10
-6.0038e-10
0.00110479
-3.02321e-07
1.25132e-06
3.00087e-07
9.48078e-07
-3.11709e-07
-9.47963e-07
3.06673e-07
-0.00110466
-1.24609e-06
-1.20386e-09
4.36715e-09
0.00110466
-2.9951e-07
1.24886e-06
2.97127e-07
9.48184e-07
-3.11504e-07
-9.47885e-07
3.06888e-07
-0.000270897
1.27708e-06
1.2409e-06
-2.45354e-07
-2.4781e-07
0.000268872
8.73401e-10
8.61428e-10
-0.00110679
-1.0489e-09
-1.10056e-09
0.00110679
-0.00110478
-1.24861e-06
-1.65907e-09
-2.23132e-10
0.00110479
-3.02221e-07
1.25136e-06
2.9995e-07
9.48357e-07
-3.11563e-07
-9.47751e-07
3.07089e-07
-0.00110466
-1.24611e-06
-1.64158e-09
4.38498e-09
0.00110466
-2.99318e-07
1.24874e-06
2.97347e-07
9.48369e-07
-3.11666e-07
-9.47838e-07
3.07065e-07
-0.000270897
1.27697e-06
1.24054e-06
-2.44688e-07
-2.47817e-07
0.000268872
9.49979e-10
1.29716e-09
-0.00110679
-1.29068e-09
-1.22242e-09
0.00110679
-0.00110478
-1.24875e-06
-1.11309e-09
-3.81965e-10
0.00110479
-3.0222e-07
1.25138e-06
3.00023e-07
9.47967e-07
-3.11774e-07
-9.48066e-07
3.07051e-07
-0.00110466
-1.24615e-06
-1.0711e-09
4.4581e-09
0.00110466
-2.99613e-07
1.24874e-06
2.96873e-07
9.47966e-07
-3.11652e-07
-9.48021e-07
3.07285e-07
-0.000270897
1.27697e-06
1.24069e-06
-2.44966e-07
-2.47668e-07
0.000268872
9.51507e-11
5.68775e-10
-0.00110679
-8.10307e-10
-6.13931e-10
0.00110679
-0.00110479
-1.2489e-06
-9.20395e-10
2.71769e-10
0.00110479
-3.02332e-07
1.25118e-06
2.99754e-07
9.47918e-07
-3.11866e-07
-9.48001e-07
3.07031e-07
-0.00110466
-1.24609e-06
-1.28277e-09
4.2285e-09
0.00110467
-2.9911e-07
1.24887e-06
2.97595e-07
9.48112e-07
-3.12081e-07
-9.48004e-07
3.06999e-07
-0.000270897
1.27712e-06
1.24074e-06
-2.44988e-07
-2.47807e-07
0.000268872
1.3829e-09
1.42007e-09
-0.00110679
-1.24808e-09
-1.34682e-09
0.00110679
-0.00110479
-1.24832e-06
-2.72142e-09
-1.11654e-09
0.00110479
-3.01664e-07
1.25163e-06
3.00079e-07
9.48581e-07
-3.11332e-07
-9.47354e-07
3.07509e-07
-0.00110466
-1.24587e-06
-2.207e-09
4.50295e-09
0.00110466
-2.99311e-07
1.24893e-06
2.97161e-07
9.48249e-07
-3.11397e-07
-9.47531e-07
3.07643e-07
-0.000270897
1.27677e-06
1.24048e-06
-2.44779e-07
-2.4742e-07
0.000268872
1.66998e-09
1.91776e-09
-0.00110679
-6.47898e-09
-1.93921e-09
0.00110679
-0.00110478
-1.24835e-06
-2.30658e-09
-9.49311e-10
0.00110479
-3.01817e-07
1.2516e-06
3.00293e-07
9.48291e-07
-3.11369e-07
-9.47727e-07
3.07377e-07
-0.00110466
-1.2458e-06
-1.82774e-09
4.02216e-09
0.00110466
-2.99016e-07
1.24892e-06
2.97539e-07
9.48292e-07
-3.11701e-07
-9.47624e-07
3.07321e-07
-0.000270897
1.27693e-06
1.24037e-06
-2.4452e-07
-2.47753e-07
0.000268872
1.11547e-09
1.94134e-09
-0.00110678
-6.53935e-09
-1.60098e-09
0.00110679
-0.00110478
-1.24846e-06
-1.62416e-09
-4.88129e-10
0.00110479
-3.01728e-07
1.25149e-06
3.00226e-07
9.48041e-07
-3.11752e-07
-9.47937e-07
3.07087e-07
-0.00110466
-1.24577e-06
-2.14592e-09
3.85671e-09
0.00110466
-2.9918e-07
1.2488e-06
2.97348e-07
9.48543e-07
-3.11555e-07
-9.47354e-07
3.07417e-07
-0.000270896
1.27679e-06
1.24057e-06
-2.44864e-07
-2.47518e-07
0.000268871
9.04794e-10
1.40523e-09
-0.00110678
-6.27844e-09
-1.49697e-09
0.00110679
-0.00110478
-1.24854e-06
-1.3404e-09
-2.55567e-10
0.00110479
-3.0215e-07
1.25156e-06
2.99911e-07
9.47871e-07
-3.11666e-07
-9.47949e-07
3.07158e-07
-0.00110466
-1.24568e-06
-1.36831e-09
4.11079e-09
0.00110466
-2.98966e-07
1.24893e-06
2.97488e-07
9.47953e-07
-3.11841e-07
-9.48126e-07
3.07172e-07
-0.000270897
1.27673e-06
1.24047e-06
-2.44748e-07
-2.47552e-07
0.000268872
9.30692e-10
1.27017e-09
-0.00110678
-6.11864e-09
-1.53234e-09
0.00110679
-0.00110478
-1.24854e-06
-1.30501e-09
-6.59193e-10
0.00110479
-3.02091e-07
1.25159e-06
3.00039e-07
9.48075e-07
-3.11699e-07
-9.47838e-07
3.07129e-07
-0.00110466
-1.24584e-06
-9.66306e-10
4.66703e-09
0.00110466
-2.99388e-07
1.24853e-06
2.97085e-07
9.4792e-07
-3.11802e-07
-9.47926e-07
3.07214e-07
-0.000270897
1.27692e-06
1.24057e-06
-2.44748e-07
-2.4775e-07
0.000268872
1.1478e-09
1.1814e-09
-0.00110678
-6.0395e-09
-1.62785e-09
0.00110679
-0.00110478
-1.24851e-06
-1.59525e-09
-5.99505e-10
0.00110479
-3.02019e-07
1.25147e-06
3.00078e-07
9.48253e-07
-3.11719e-07
-9.47797e-07
3.07132e-07
-0.00110466
-1.24592e-06
-1.48806e-09
4.58257e-09
0.00110466
-2.99353e-07
1.24846e-06
2.97152e-07
9.48507e-07
-3.11811e-07
-9.47597e-07
3.07197e-07
-0.000270897
1.2768e-06
1.24047e-06
-2.44744e-07
-2.47531e-07
0.000268872
8.50828e-10
1.28442e-09
-0.00110678
-6.11149e-09
-1.4335e-09
0.00110679
-0.00110478
-1.24861e-06
-1.57454e-09
-4.6779e-10
0.00110479
-3.02067e-07
1.25144e-06
3.00056e-07
9.48246e-07
-3.11724e-07
-9.47897e-07
3.07155e-07
-0.00110466
-1.24588e-06
-1.77636e-09
4.11391e-09
0.00110466
-2.9921e-07
1.2486e-06
2.97224e-07
9.48375e-07
-3.11605e-07
-9.47346e-07
3.07333e-07
-0.000270897
1.27689e-06
1.24046e-06
-2.44792e-07
-2.47588e-07
0.000268872
1.11603e-09
1.30314e-09
-0.00110678
-6.14158e-09
-1.67156e-09
0.00110679
-0.00110478
-1.24857e-06
-1.55213e-09
-4.98997e-10
0.00110479
-3.02032e-07
1.25161e-06
3.00038e-07
9.48245e-07
-3.11708e-07
-9.47913e-07
3.07156e-07
-0.00110466
-1.24579e-06
-1.04891e-09
4.33563e-09
0.00110466
-2.99302e-07
1.24867e-06
2.97286e-07
9.47923e-07
-3.11786e-07
-9.47972e-07
3.07146e-07
-0.000270897
1.27691e-06
1.2405e-06
-2.44777e-07
-2.4767e-07
0.000268872
9.57236e-10
1.3194e-09
-0.00110678
-6.1061e-09
-1.54239e-09
0.00110679
-0.00110478
-1.24852e-06
-1.70244e-09
-4.40797e-10
0.00110479
-3.02008e-07
1.2515e-06
3.00044e-07
9.48236e-07
-3.1167e-07
-9.47836e-07
3.07177e-07
-0.00110466
-1.24566e-06
-1.21106e-09
4.1957e-09
0.00110466
-2.99063e-07
1.24883e-06
2.97364e-07
9.47874e-07
-3.11893e-07
-9.48053e-07
3.07108e-07
-0.000270897
1.27682e-06
1.24047e-06
-2.44701e-07
-2.47606e-07
0.000268872
9.46774e-10
1.44778e-09
-0.00110678
-1.45221e-09
-1.3633e-09
0.00110678
-0.00110478
-1.24856e-06
-1.50196e-09
-2.64686e-10
0.00110479
-3.02044e-07
1.2514e-06
2.99943e-07
9.48245e-07
-3.11698e-07
-9.47874e-07
3.07147e-07
-0.00110466
-1.24586e-06
-1.80954e-09
4.26398e-09
0.00110466
-2.99214e-07
1.24863e-06
2.97172e-07
9.48378e-07
-3.11714e-07
-9.47423e-07
3.07273e-07
-0.000270897
1.27683e-06
1.24056e-06
-2.44956e-07
-2.47492e-07
0.000268872
7.10646e-10
1.39625e-09
-0.00110678
-1.25143e-09
-1.11737e-09
0.00110678
-0.00110478
-1.24852e-06
-1.5697e-09
-4.4699e-10
0.00110479
-3.02074e-07
1.25133e-06
3.00071e-07
9.4825e-07
-3.11692e-07
-9.47818e-07
3.07167e-07
-0.00110466
-1.24588e-06
-2.01316e-09
4.13076e-09
0.00110466
-2.99184e-07
1.24861e-06
2.97295e-07
9.48285e-07
-3.11618e-07
-9.47359e-07
3.07342e-07
-0.000270897
1.27688e-06
1.24049e-06
-2.44843e-07
-2.47572e-07
0.000268872
1.07259e-09
1.16539e-09
-0.00110678
-1.13549e-09
-1.249e-09
0.00110678
-0.00110478
-1.24848e-06
-1.59781e-09
-7.08023e-10
0.00110479
-3.02061e-07
1.25151e-06
3.00099e-07
9.48192e-07
-3.11732e-07
-9.47793e-07
3.07135e-07
-0.00110466
-1.24573e-06
-1.33688e-09
4.12158e-09
0.00110466
-2.99145e-07
1.24868e-06
2.97439e-07
9.47819e-07
-3.11754e-07
-9.47859e-07
3.07203e-07
-0.000270897
1.27694e-06
1.24049e-06
-2.44841e-07
-2.47641e-07
0.000268872
1.24079e-09
1.22395e-09
-0.00110678
-1.25174e-09
-1.34815e-09
0.00110678
-0.00110478
-1.24839e-06
-1.54045e-09
-9.79226e-10
0.00110479
-3.02013e-07
1.2516e-06
3.00158e-07
9.48222e-07
-3.11746e-07
-9.47902e-07
3.07127e-07
-0.00110466
-1.24573e-06
-1.0814e-09
4.36009e-09
0.00110466
-2.99219e-07
1.24875e-06
2.97407e-07
9.47891e-07
-3.11834e-07
-9.48006e-07
3.07135e-07
-0.000270897
1.27682e-06
1.24051e-06
-2.44764e-07
-2.47611e-07
0.000268872
1.10891e-09
1.48497e-09
-0.00110678
-1.35598e-09
-1.27186e-09
0.00110678
-0.00110478
-1.24843e-06
-1.63433e-09
-4.28374e-10
0.00110479
-3.01925e-07
1.25131e-06
2.99989e-07
9.48279e-07
-3.11655e-07
-9.47853e-07
3.07224e-07
-0.00110466
-1.24568e-06
-1.4882e-09
4.20764e-09
0.00110466
-2.99048e-07
1.24868e-06
2.97371e-07
9.47923e-07
-3.11769e-07
-9.47893e-07
3.07207e-07
-0.000270897
1.27682e-06
1.24048e-06
-2.44748e-07
-2.47577e-07
0.000268872
1.09473e-09
1.35726e-09
-0.00110678
-1.31603e-09
-1.22326e-09
0.00110678
-0.00110478
-1.24856e-06
-1.50283e-09
-3.59798e-10
0.00110479
-3.021e-07
1.25145e-06
3.00069e-07
9.48242e-07
-3.11696e-07
-9.47879e-07
3.07147e-07
-0.00110466
-1.24587e-06
-1.90025e-09
4.28407e-09
0.00110466
-2.99324e-07
1.24859e-06
2.97172e-07
9.48456e-07
-3.11617e-07
-9.4727e-07
3.07293e-07
-0.000270897
1.27682e-06
1.24051e-06
-2.44904e-07
-2.47463e-07
0.000268872
1.17889e-09
1.32165e-09
-0.00110678
-1.30559e-09
-1.27947e-09
0.00110678
-0.00110478
-1.2486e-06
-1.57758e-09
-5.73071e-10
0.00110479
-3.02227e-07
1.25158e-06
3.00048e-07
9.47993e-07
-3.11661e-07
-9.47815e-07
3.07166e-07
-0.00110466
-1.24576e-06
-1.40486e-09
4.19879e-09
0.00110466
-2.99317e-07
1.24869e-06
2.97316e-07
9.4797e-07
-3.11673e-07
-9.47735e-07
3.07229e-07
-0.000270897
1.2769e-06
1.24055e-06
-2.44865e-07
-2.47615e-07
0.000268872
9.44442e-10
1.14484e-09
-0.00110678
-1.20279e-09
-1.32054e-09
0.00110679
-0.00110478
-1.24856e-06
-1.241e-09
-1.10072e-09
0.00110479
-3.01927e-07
1.25159e-06
3.00477e-07
9.48035e-07
-3.11774e-07
-9.4796e-07
3.06755e-07
-0.00110466
-1.24587e-06
-9.73455e-10
4.19418e-09
0.00110466
-2.99253e-07
1.2489e-06
2.97563e-07
9.47658e-07
-3.11872e-07
-9.48029e-07
3.06844e-07
-0.000270897
1.27707e-06
1.24068e-06
-2.44982e-07
-2.47764e-07
0.000268872
1.28763e-06
1.24851e-06
-2.44721e-07
-2.5011e-07
0.000268928
-0.000270969
-1.29116e-06
-1.25212e-06
0.000270969
-0.000268928
2.48037e-07
2.53539e-07
4.30491e-09
0.00110426
-3.07603e-07
1.29076e-06
3.05588e-07
9.53852e-07
-3.11153e-07
3.06564e-07
-9.52672e-07
-0.00110426
-1.28478e-06
-1.37463e-09
3.55993e-09
0.00110433
-3.07169e-07
1.28843e-06
3.05917e-07
9.53427e-07
-3.08416e-07
3.03775e-07
-9.52517e-07
-0.00110433
0.00110426
-1.66324e-09
-0.00110426
3.19616e-09
-1.2875e-06
3.0602e-07
-3.07408e-07
-9.52509e-07
3.06754e-07
-3.11051e-07
9.53636e-07
1.28868e-06
0.00110433
-1.3544e-09
-0.00110433
3.33582e-09
-1.28495e-06
3.05975e-07
-3.0733e-07
-9.52597e-07
3.03903e-07
-3.08433e-07
9.53437e-07
-2.44768e-07
-2.46955e-07
0.000268909
-0.00027095
-1.25201e-06
0.00027095
-0.000268908
2.48193e-07
2.5067e-07
3.83516e-09
0.00110522
-3.0209e-07
1.25182e-06
3.00294e-07
9.53772e-07
-3.112e-07
3.06654e-07
-9.52574e-07
-0.00110523
-1.27968e-06
-1.015e-09
3.87987e-09
0.00110422
-3.07432e-07
1.28322e-06
3.05985e-07
9.53306e-07
-3.08548e-07
3.03687e-07
-9.52919e-07
-0.00110422
0.00110522
-2.06132e-09
-0.00110522
3.03637e-09
-1.24847e-06
3.00683e-07
-3.01972e-07
-9.52445e-07
3.07151e-07
-3.10825e-07
9.536e-07
1.28355e-06
0.00110422
-1.51706e-09
-0.00110422
3.09041e-09
-1.27966e-06
3.06228e-07
-3.07471e-07
-9.52673e-07
3.04025e-07
-3.08264e-07
9.53376e-07
-1.44403e-09
3.8564e-09
0.00110385
-3.04428e-07
1.28006e-06
3.02864e-07
9.45229e-07
-3.05508e-07
3.00911e-07
-9.44691e-07
-0.00110385
-1.71002e-09
-0.00110478
8.11684e-09
-1.2483e-06
3.00534e-07
-3.01858e-07
-9.46953e-07
3.0665e-07
9.47999e-07
-3.1097e-07
1.28052e-06
0.00110384
-1.58819e-09
-0.00110385
3.25829e-09
-1.27671e-06
3.03273e-07
-3.04539e-07
-9.44412e-07
3.01181e-07
-3.054e-07
9.45231e-07
-2.4511e-07
-2.50015e-07
0.000268896
-0.000270926
-1.24955e-06
0.000270927
-0.000268896
2.4848e-07
2.53616e-07
-1.69034e-09
3.55538e-09
0.0011048
-3.01874e-07
1.24364e-06
3.00313e-07
9.50901e-07
-3.11207e-07
3.06573e-07
-9.49338e-07
-0.0011048
-2.18238e-09
-0.00110466
3.02131e-09
-1.2457e-06
2.97885e-07
-2.99119e-07
-9.4698e-07
3.06931e-07
9.48333e-07
-3.10786e-07
1.2441e-06
0.0011048
-2.18031e-09
-0.0011048
3.26641e-09
-1.2404e-06
3.00674e-07
-3.01979e-07
-9.49406e-07
3.07054e-07
-3.10794e-07
9.50454e-07
-0.000268871
2.48104e-07
2.51057e-07
1.28762e-06
1.24859e-06
-2.44564e-07
-2.49901e-07
0.000268927
-1.29124e-06
-1.25226e-06
0.000270969
-0.000268927
2.48195e-07
2.53501e-07
3.97823e-09
0.00110426
-3.07389e-07
1.29083e-06
3.05881e-07
9.53563e-07
-3.11159e-07
-9.53002e-07
3.06698e-07
-1.2853e-06
-1.36847e-09
4.24784e-09
0.00110433
-3.07734e-07
1.28815e-06
3.05595e-07
9.53794e-07
-3.08448e-07
-9.52764e-07
3.04006e-07
0.00110425
-1.61456e-09
-0.00110425
3.46049e-09
-1.28757e-06
3.06071e-07
-3.0731e-07
-9.53183e-07
3.06844e-07
-3.11197e-07
9.53449e-07
1.28876e-06
0.00110433
-1.31447e-09
-0.00110433
3.27831e-09
-1.28508e-06
3.06251e-07
-3.07464e-07
-9.52863e-07
3.04111e-07
-3.08426e-07
9.53199e-07
-2.44946e-07
-2.4738e-07
0.000268909
-1.25194e-06
0.00027095
-0.000268909
2.48289e-07
2.50677e-07
3.92441e-09
0.00110522
-3.01932e-07
1.25178e-06
3.0052e-07
9.53556e-07
-3.11027e-07
-9.52881e-07
3.06987e-07
-1.27988e-06
-1.38664e-09
4.02785e-09
0.00110422
-3.07566e-07
1.28306e-06
3.05953e-07
9.53681e-07
-3.08476e-07
-9.52774e-07
3.03867e-07
0.00110522
-1.82518e-09
-0.00110522
3.10493e-09
-1.24849e-06
3.0079e-07
-3.0192e-07
-9.52991e-07
3.07031e-07
-3.11242e-07
9.53281e-07
1.28328e-06
0.00110422
-1.76134e-09
-0.00110422
3.60983e-09
-1.2799e-06
3.05929e-07
-3.07763e-07
-9.5264e-07
3.04298e-07
-3.0823e-07
9.53532e-07
-1.49026e-09
3.69496e-09
0.00110384
-3.04436e-07
1.28017e-06
3.02942e-07
9.45348e-07
-3.0571e-07
3.00965e-07
-9.44619e-07
-2.27484e-09
-0.00110478
8.25096e-09
-1.24852e-06
3.00448e-07
-3.01962e-07
-9.46808e-07
3.06948e-07
9.48444e-07
-3.10854e-07
1.28033e-06
0.00110384
-2.29057e-09
-0.00110384
3.83643e-09
-1.27706e-06
3.02961e-07
-3.04809e-07
-9.44363e-07
3.01535e-07
-3.054e-07
9.45492e-07
-2.45073e-07
-2.49868e-07
0.000268896
-1.24951e-06
0.000270927
-0.000268896
2.48486e-07
2.53304e-07
-1.97814e-09
3.63289e-09
0.0011048
-3.01901e-07
1.24381e-06
3.0056e-07
9.50435e-07
-3.10972e-07
3.06863e-07
-9.4991e-07
-1.25969e-09
-0.00110466
3.50259e-09
-1.24574e-06
2.97682e-07
-2.99228e-07
-9.47665e-07
3.06982e-07
9.47858e-07
-3.11026e-07
1.24423e-06
0.0011048
-1.32521e-09
-0.0011048
3.31837e-09
-1.24047e-06
3.00482e-07
-3.02156e-07
-9.49781e-07
3.06988e-07
-3.11071e-07
9.50234e-07
-0.000268871
2.48264e-07
2.50706e-07
1.28791e-06
1.24881e-06
-2.44753e-07
-2.50208e-07
0.000268927
-1.29102e-06
-1.25207e-06
0.000270969
-0.000268927
2.47823e-07
2.5315e-07
4.53568e-09
0.00110425
-3.07554e-07
1.2907e-06
3.05407e-07
9.53679e-07
-3.11242e-07
-9.53048e-07
3.06727e-07
-1.28517e-06
-1.03446e-09
4.15184e-09
0.00110433
-3.07428e-07
1.28827e-06
3.05836e-07
9.53295e-07
-3.08623e-07
-9.53315e-07
3.03942e-07
0.00110426
-6.0904e-10
-0.00110425
4.29769e-09
-1.28803e-06
3.05467e-07
-3.07944e-07
-9.5365e-07
3.06612e-07
-3.11532e-07
9.53148e-07
1.28832e-06
0.00110433
-6.48793e-10
-0.00110433
3.94562e-09
-1.28536e-06
3.05681e-07
-3.07871e-07
-9.53305e-07
3.03941e-07
-3.08896e-07
9.53343e-07
-2.44867e-07
-2.4728e-07
0.000268909
-1.25172e-06
0.00027095
-0.000268908
2.47913e-07
2.50264e-07
4.31995e-09
0.00110522
-3.02127e-07
1.2517e-06
3.00336e-07
9.53503e-07
-3.11375e-07
-9.53206e-07
3.06851e-07
-1.28006e-06
-1.48098e-09
4.42006e-09
0.00110422
-3.07813e-07
1.2828e-06
3.05733e-07
9.53584e-07
-3.08382e-07
-9.52971e-07
3.04168e-07
0.00110522
-7.60983e-10
-0.00110522
3.9031e-09
-1.24894e-06
3.00072e-07
-3.02606e-07
-9.53317e-07
3.06777e-07
-3.11609e-07
9.53231e-07
1.28299e-06
0.00110422
-3.76734e-10
-0.00110422
4.33638e-09
-1.28016e-06
3.05749e-07
-3.08016e-07
-9.53502e-07
3.03869e-07
-3.08951e-07
9.53007e-07
-2.1138e-09
4.31718e-09
0.00110384
-3.04808e-07
1.27987e-06
3.0271e-07
9.45748e-07
-3.05489e-07
3.01347e-07
-9.44432e-07
-7.28162e-10
-0.00110478
9.06334e-09
-1.24864e-06
3.00057e-07
-3.02281e-07
-9.47864e-07
3.0674e-07
9.47622e-07
-3.11325e-07
1.28017e-06
0.00110384
-7.89288e-10
-0.00110384
4.66943e-09
-1.27733e-06
3.02847e-07
-3.05163e-07
-9.45141e-07
3.01132e-07
-3.05947e-07
9.44727e-07
-2.44858e-07
-2.50124e-07
0.000268896
-1.24899e-06
0.000270926
-0.000268895
2.47896e-07
2.52991e-07
-1.12076e-09
3.69531e-09
0.0011048
-3.021e-07
1.24381e-06
3.00378e-07
9.50468e-07
-3.11247e-07
3.06731e-07
-9.50106e-07
-5.16233e-10
-0.00110466
4.00035e-09
-1.24613e-06
2.9739e-07
-2.99478e-07
-9.47984e-07
3.06757e-07
9.47822e-07
-3.1154e-07
1.24383e-06
0.0011048
-6.35859e-10
-0.0011048
3.92907e-09
-1.24086e-06
3.00228e-07
-3.02386e-07
-9.5046e-07
3.06746e-07
-3.11681e-07
9.50301e-07
-0.000268871
2.47797e-07
2.50475e-07
1.28818e-06
1.24911e-06
-2.452e-07
-2.50538e-07
0.000268927
-1.29123e-06
-1.25217e-06
0.00027097
-0.000268928
2.4793e-07
2.53473e-07
5.12814e-09
0.00110426
-3.08125e-07
1.29064e-06
3.05314e-07
9.53191e-07
-3.1185e-07
-9.5385e-07
3.06328e-07
-1.28559e-06
-5.65082e-10
4.9201e-09
0.00110433
-3.08101e-07
1.28787e-06
3.05155e-07
9.53611e-07
-3.09028e-07
-9.53342e-07
3.03837e-07
0.00110426
-9.14064e-10
-0.00110426
3.75486e-09
-1.28801e-06
3.0582e-07
-3.07814e-07
-9.5324e-07
3.06848e-07
-3.11761e-07
9.53437e-07
1.28827e-06
0.00110433
-9.64372e-10
-0.00110433
4.20711e-09
-1.28546e-06
3.05649e-07
-3.08076e-07
-9.53258e-07
3.04218e-07
-3.088e-07
9.53226e-07
-2.45198e-07
-2.4758e-07
0.000268909
-1.25177e-06
0.000270951
-0.000268909
2.48005e-07
2.50087e-07
4.72966e-09
0.00110522
-3.0265e-07
1.25161e-06
2.99953e-07
9.5327e-07
-3.11839e-07
-9.53589e-07
3.06674e-07
-1.28023e-06
-2.45511e-10
5.15455e-09
0.00110422
-3.08012e-07
1.28263e-06
3.05633e-07
9.53219e-07
-3.09229e-07
-9.53759e-07
3.03612e-07
0.00110523
-1.24364e-09
-0.00110522
3.58761e-09
-1.24898e-06
3.00618e-07
-3.02308e-07
-9.53148e-07
3.06985e-07
-3.118e-07
9.53309e-07
1.28297e-06
0.00110422
-8.71703e-10
-0.00110422
3.96433e-09
-1.28006e-06
3.0573e-07
-3.07959e-07
-9.53069e-07
3.04129e-07
-3.08965e-07
9.53463e-07
-4.49474e-10
4.85413e-09
0.00110385
-3.05052e-07
1.27991e-06
3.02753e-07
9.44995e-07
-3.06192e-07
3.0088e-07
-9.45565e-07
-4.03655e-10
-0.00110479
8.35311e-09
-1.24859e-06
3.00187e-07
-3.02335e-07
-9.47854e-07
3.06719e-07
9.48101e-07
-3.1173e-07
1.2802e-06
0.00110385
-1.17016e-10
-0.00110385
4.30476e-09
-1.27724e-06
3.02802e-07
-3.05172e-07
-9.45447e-07
3.00943e-07
-3.06437e-07
9.44884e-07
-2.45441e-07
-2.50251e-07
0.000268896
-1.2491e-06
0.000270926
-0.000268895
2.481e-07
2.5297e-07
-7.27957e-10
4.35608e-09
0.0011048
-3.02479e-07
1.24342e-06
3.00035e-07
9.50721e-07
-3.11819e-07
3.06661e-07
-9.50422e-07
-7.56362e-10
-0.00110466
3.58355e-09
-1.24601e-06
2.97436e-07
-2.9945e-07
-9.47793e-07
3.06983e-07
9.47971e-07
-3.11501e-07
1.2436e-06
0.0011048
-7.48264e-10
-0.0011048
4.30583e-09
-1.24109e-06
3.00072e-07
-3.02607e-07
-9.50245e-07
3.06977e-07
-3.1168e-07
9.50509e-07
-0.000268871
2.47421e-07
2.50623e-07
1.28803e-06
1.249e-06
-2.44889e-07
-2.50316e-07
0.000268928
-1.29101e-06
-1.25201e-06
0.00027097
-0.000268928
2.47888e-07
2.53261e-07
4.37316e-09
0.00110426
-3.07632e-07
1.29085e-06
3.05756e-07
9.53574e-07
-3.11801e-07
-9.53456e-07
3.06739e-07
-1.28541e-06
-9.10019e-10
4.90669e-09
0.00110433
-3.07932e-07
1.28787e-06
3.05488e-07
9.53549e-07
-3.09065e-07
-9.53458e-07
3.04085e-07
0.00110426
-1.1883e-09
-0.00110426
3.81229e-09
-1.28788e-06
3.05907e-07
-3.07665e-07
-9.53239e-07
3.07105e-07
-3.11671e-07
9.53479e-07
1.28841e-06
0.00110433
-1.31746e-09
-0.00110434
3.60221e-09
-1.28521e-06
3.05838e-07
-3.07713e-07
-9.52611e-07
3.0438e-07
-3.08891e-07
9.53707e-07
-2.44917e-07
-2.47576e-07
0.00026891
-1.25182e-06
0.000270951
-0.000268909
2.48078e-07
2.50439e-07
4.26264e-09
0.00110523
-3.02268e-07
1.25186e-06
3.0042e-07
9.53517e-07
-3.11797e-07
-9.53334e-07
3.06883e-07
-1.28018e-06
-1.10811e-09
4.66251e-09
0.00110422
-3.08054e-07
1.28272e-06
3.05567e-07
9.53801e-07
-3.08977e-07
-9.53247e-07
3.04125e-07
0.00110523
-1.35804e-09
-0.00110523
3.52223e-09
-1.24881e-06
3.00499e-07
-3.02205e-07
-9.52917e-07
3.07197e-07
-3.11578e-07
9.5353e-07
1.2831e-06
0.00110422
-1.21082e-09
-0.00110422
3.79201e-09
-1.28005e-06
3.05954e-07
-3.07729e-07
-9.53075e-07
3.04416e-07
-3.089e-07
9.53393e-07
-3.41941e-10
4.56061e-09
0.00110385
-3.05132e-07
1.27993e-06
3.02736e-07
9.45285e-07
-3.0654e-07
3.01e-07
-9.45477e-07
-1.29587e-09
-0.00110479
8.31391e-09
-1.24844e-06
3.00413e-07
-3.02058e-07
-9.47669e-07
3.0714e-07
9.4833e-07
-3.11513e-07
1.28028e-06
0.00110385
-1.34461e-09
-0.00110385
3.59582e-09
-1.27716e-06
3.03158e-07
-3.04787e-07
-9.44558e-07
3.01581e-07
-3.06048e-07
9.45491e-07
-2.45171e-07
-2.50274e-07
0.000268896
-1.24922e-06
0.000270927
-0.000268896
2.48187e-07
2.53118e-07
-9.40874e-10
4.63306e-09
0.0011048
-3.02493e-07
1.24338e-06
2.9989e-07
9.50622e-07
-3.11879e-07
3.06864e-07
-9.50317e-07
-1.10114e-09
-0.00110466
3.63782e-09
-1.24593e-06
2.97718e-07
-2.99289e-07
-9.47929e-07
3.07048e-07
9.48081e-07
-3.11757e-07
1.244e-06
0.0011048
-1.47855e-09
-0.0011048
3.52664e-09
-1.24068e-06
3.00499e-07
-3.02e-07
-9.50092e-07
3.0731e-07
-3.11634e-07
9.50559e-07
-0.000268872
2.4808e-07
2.50658e-07
1.28813e-06
1.24905e-06
-2.44974e-07
-2.5046e-07
0.000268928
-1.29137e-06
-1.2523e-06
0.00027097
-0.000268928
2.48114e-07
2.53556e-07
4.68409e-09
0.00110426
-3.07923e-07
1.29053e-06
3.05485e-07
9.53544e-07
-3.11915e-07
-9.53377e-07
3.0695e-07
-1.28524e-06
-1.01104e-09
4.47962e-09
0.00110434
-3.07763e-07
1.28814e-06
3.0567e-07
9.53291e-07
-3.08994e-07
-9.53224e-07
3.04328e-07
0.00110426
-1.11792e-09
-0.00110426
3.31582e-09
-1.28776e-06
3.06158e-07
-3.07597e-07
-9.53381e-07
3.07193e-07
-3.11812e-07
9.53005e-07
1.28857e-06
0.00110434
-7.58347e-10
-0.00110434
3.91769e-09
-1.28521e-06
3.05725e-07
-3.07805e-07
-9.53256e-07
3.04438e-07
-3.09071e-07
9.53245e-07
-2.44946e-07
-2.47305e-07
0.000268909
-1.25185e-06
0.000270951
-0.000268909
2.47965e-07
2.50538e-07
4.64002e-09
0.00110523
-3.02469e-07
1.25157e-06
2.99988e-07
9.5333e-07
-3.11887e-07
-9.53164e-07
3.0712e-07
-1.2801e-06
-9.68782e-10
4.48309e-09
0.00110422
-3.07821e-07
1.2828e-06
3.05735e-07
9.53434e-07
-3.09016e-07
-9.53353e-07
3.0425e-07
0.00110523
-1.61005e-09
-0.00110523
3.10952e-09
-1.24873e-06
3.00729e-07
-3.02136e-07
-9.5306e-07
3.07418e-07
-3.11768e-07
9.53284e-07
1.28334e-06
0.00110422
-1.00564e-09
-0.00110422
3.51644e-09
-1.27974e-06
3.06216e-07
-3.07542e-07
-9.53479e-07
3.044e-07
-3.09072e-07
9.53145e-07
-1.35363e-09
3.85346e-09
0.00110385
-3.04694e-07
1.28011e-06
3.03032e-07
9.45452e-07
-3.06138e-07
3.01616e-07
-9.45109e-07
-1.07504e-09
-0.00110479
8.4414e-09
-1.24864e-06
3.00308e-07
-3.0223e-07
-9.4789e-07
3.07269e-07
9.48097e-07
-3.11649e-07
1.28043e-06
0.00110385
-9.92912e-10
-0.00110385
3.60753e-09
-1.27704e-06
3.03136e-07
-3.04762e-07
-9.45187e-07
3.01646e-07
-3.06146e-07
9.45003e-07
-2.45143e-07
-2.5015e-07
0.000268896
-1.24928e-06
0.000270927
-0.000268896
2.48281e-07
2.53292e-07
-1.6484e-09
3.83821e-09
0.0011048
-3.02009e-07
1.24376e-06
3.00224e-07
9.51083e-07
-3.11651e-07
3.07225e-07
-9.50213e-07
-1.41434e-09
-0.00110466
3.22558e-09
-1.24584e-06
2.97711e-07
-2.99179e-07
-9.47667e-07
3.07349e-07
9.48183e-07
-3.11635e-07
1.24394e-06
0.0011048
-1.34694e-09
-0.0011048
3.62855e-09
-1.24075e-06
3.00277e-07
-3.02047e-07
-9.50282e-07
3.07377e-07
-3.11612e-07
9.50743e-07
-0.000268871
2.47878e-07
2.50834e-07
1.28779e-06
1.24877e-06
-2.44685e-07
-2.50101e-07
0.000268929
-1.29092e-06
-1.25183e-06
0.000270971
-0.000268928
2.47614e-07
2.53096e-07
4.0201e-09
0.00110426
-3.07506e-07
1.29096e-06
3.05972e-07
9.53367e-07
-3.11967e-07
-9.53628e-07
3.07043e-07
-1.2854e-06
-5.90073e-10
4.81095e-09
0.00110434
-3.07915e-07
1.28807e-06
3.05446e-07
9.53442e-07
-3.0925e-07
-9.53492e-07
3.04256e-07
0.00110426
-4.85478e-10
-0.00110426
3.92754e-09
-1.28801e-06
3.05603e-07
-3.07908e-07
-9.53286e-07
3.07192e-07
-3.1201e-07
9.53289e-07
1.28836e-06
0.00110434
-3.41354e-10
-0.00110434
3.87062e-09
-1.2854e-06
3.05693e-07
-3.0786e-07
-9.53565e-07
3.04338e-07
-3.09282e-07
9.53144e-07
-2.45175e-07
-2.47352e-07
0.000268909
-1.25165e-06
0.000270952
-0.00026891
2.47879e-07
2.50236e-07
3.67081e-09
0.00110523
-3.0206e-07
1.25193e-06
3.00463e-07
9.53519e-07
-3.11913e-07
-9.53319e-07
3.07246e-07
-1.28009e-06
-6.49828e-10
4.66257e-09
0.00110422
-3.08005e-07
1.28276e-06
3.05335e-07
9.53371e-07
-3.09297e-07
-9.53528e-07
3.04283e-07
0.00110523
-7.96212e-10
-0.00110523
3.84462e-09
-1.249e-06
3.00205e-07
-3.02345e-07
-9.53204e-07
3.07277e-07
-3.12069e-07
9.53395e-07
1.28315e-06
0.00110423
-6.17635e-10
-0.00110422
3.72252e-09
-1.28013e-06
3.06114e-07
-3.07757e-07
-9.53245e-07
3.04128e-07
-3.09484e-07
9.5328e-07
-6.04809e-10
4.17232e-09
0.00110385
-3.04791e-07
1.28004e-06
3.02845e-07
9.4507e-07
-3.0647e-07
3.01383e-07
-9.45485e-07
-5.95237e-10
-0.00110479
8.74993e-09
-1.24871e-06
3.00083e-07
-3.02274e-07
-9.4787e-07
3.07182e-07
9.48153e-07
-3.11933e-07
1.28019e-06
0.00110385
-6.03429e-10
-0.00110385
4.09886e-09
-1.27722e-06
3.02913e-07
-3.0513e-07
-9.45077e-07
3.01592e-07
-3.06399e-07
9.45194e-07
-2.45233e-07
-2.50146e-07
0.000268896
-1.24923e-06
0.000270928
-0.000268897
2.48054e-07
2.53063e-07
-1.06723e-09
4.11464e-09
0.0011048
-3.02125e-07
1.24358e-06
3.00061e-07
9.50542e-07
-3.11916e-07
3.07131e-07
-9.50428e-07
-6.73129e-10
-0.00110466
3.58188e-09
-1.24606e-06
2.97812e-07
-2.99239e-07
-9.47989e-07
3.06972e-07
9.47883e-07
-3.1217e-07
1.24383e-06
0.00110481
-8.85827e-10
-0.00110481
3.91586e-09
-1.24084e-06
3.00232e-07
-3.02362e-07
-9.50464e-07
3.07337e-07
-3.11816e-07
9.5052e-07
-0.000268872
2.47735e-07
2.50659e-07
1.28811e-06
1.24914e-06
-2.45118e-07
-2.50423e-07
0.000268929
-1.29101e-06
-1.25201e-06
0.00027097
-0.000268929
2.4796e-07
2.53278e-07
4.90786e-09
0.00110426
-3.08141e-07
1.29051e-06
3.05185e-07
9.53349e-07
-3.1205e-07
-9.53606e-07
3.07045e-07
-1.2855e-06
-2.83858e-10
4.58028e-09
0.00110434
-3.07855e-07
1.28794e-06
3.05403e-07
9.53631e-07
-3.09469e-07
-9.53584e-07
3.04152e-07
0.00110426
-1.19639e-09
-0.00110426
4.07794e-09
-1.28783e-06
3.05893e-07
-3.076e-07
-9.53062e-07
3.07281e-07
-3.11861e-07
9.53523e-07
1.28861e-06
0.00110434
-1.84187e-09
-0.00110434
2.98067e-09
-1.28495e-06
3.0604e-07
-3.07355e-07
-9.52567e-07
3.04734e-07
-3.0894e-07
9.53936e-07
-2.45221e-07
-2.47508e-07
0.00026891
-1.25203e-06
0.000270951
-0.00026891
2.48296e-07
2.50718e-07
4.92622e-09
0.00110523
-3.02646e-07
1.2514e-06
2.99683e-07
9.53501e-07
-3.12135e-07
-9.53391e-07
3.07183e-07
-1.28011e-06
-9.1849e-10
4.05947e-09
0.00110423
-3.07643e-07
1.28282e-06
3.05968e-07
9.53812e-07
-3.09532e-07
-9.53383e-07
3.04187e-07
0.00110523
-1.39004e-09
-0.00110523
3.87081e-09
-1.24879e-06
3.00345e-07
-3.02219e-07
-9.52972e-07
3.07424e-07
-3.11889e-07
9.53866e-07
1.28334e-06
0.00110422
-1.5101e-09
-0.00110423
3.23673e-09
-1.27971e-06
3.06024e-07
-3.07462e-07
-9.53031e-07
3.04851e-07
-3.08833e-07
9.53676e-07
-7.89168e-10
4.21362e-09
0.00110385
-3.04886e-07
1.27988e-06
3.02835e-07
9.45508e-07
-3.06506e-07
3.01527e-07
-9.45013e-07
-2.1067e-09
-0.00110479
8.16538e-09
-1.2482e-06
3.00609e-07
-3.01677e-07
-9.47411e-07
3.07564e-07
9.48379e-07
-3.11494e-07
1.28047e-06
0.00110385
-1.48979e-09
-0.00110385
3.90898e-09
-1.2769e-06
3.03172e-07
-3.04872e-07
-9.44701e-07
3.01819e-07
-3.06069e-07
9.45259e-07
-2.45241e-07
-2.50177e-07
0.000268897
-1.24933e-06
0.000270927
-0.000268897
2.4834e-07
2.53495e-07
-1.14789e-09
4.25371e-09
0.00110481
-3.02179e-07
1.24353e-06
3.0002e-07
9.50794e-07
-3.11925e-07
3.07274e-07
-9.5034e-07
-2.14573e-09
-0.00110466
3.34975e-09
-1.2457e-06
2.97765e-07
-2.98998e-07
-9.4737e-07
3.07778e-07
9.48413e-07
-3.1143e-07
1.24399e-06
0.00110481
-2.03919e-09
-0.00110481
3.6449e-09
-1.24059e-06
3.00501e-07
-3.02028e-07
-9.49822e-07
3.07698e-07
-3.11515e-07
9.50956e-07
-0.000268872
2.47907e-07
2.51025e-07
1.28792e-06
1.24882e-06
-2.44744e-07
-2.50135e-07
0.000268929
-1.29119e-06
-1.25226e-06
0.00027097
-0.000268928
2.48175e-07
2.53496e-07
4.86641e-09
0.00110426
-3.07629e-07
1.29079e-06
3.05509e-07
9.53713e-07
-3.11866e-07
-9.53122e-07
3.07249e-07
-1.28499e-06
-1.8576e-09
3.74257e-09