/*--------------------------------*- C++ -*----------------------------------*\
| =========                 |                                                 |
| \\      /  F ield         | OpenFOAM: The Open Source CFD Toolbox           |
|  \\    /   O peration     | Version:  2312                                  |
|   \\  /    A nd           | Website:  www.openfoam.com                      |
|    \\/     M anipulation  |                                                 |
\*---------------------------------------------------------------------------*/
FoamFile
{
    version     2.0;
    format      ascii;
    arch        "LSB;label=32;scalar=64";
    class       volVectorField;
    location    "50";
    object      U;
}
// * * * * * * * * * * * * * * * * * * * * * * * * * * * * * * * * * * * * * //

dimensions      [0 1 -1 0 0 0 0];

internalField   nonuniform List<vector> 
42840
(
(-7.80492e-07 -7.9285e-07 0.105133)
(-7.4164e-07 9.4551e-07 0.104893)
(1.03777e-06 -7.80293e-07 0.104893)
(-4.60043e-05 -4.6003e-05 0.104569)
(-8.17814e-07 -8.07873e-07 0.105133)
(-7.56365e-07 1.10661e-06 0.104893)
(1.05536e-06 -7.30032e-07 0.104893)
(-4.59895e-05 -4.59984e-05 0.104569)
(-7.79164e-07 -7.87158e-07 0.105133)
(-7.29676e-07 1.12746e-06 0.104893)
(1.0866e-06 -8.09234e-07 0.104893)
(-4.60028e-05 -4.61372e-05 0.104569)
(-7.03803e-07 -7.07226e-07 0.105133)
(-8.4831e-07 1.19179e-06 0.104893)
(1.19526e-06 -8.51686e-07 0.104893)
(-4.61884e-05 -4.61913e-05 0.104569)
(-7.66327e-07 -7.64141e-07 0.105133)
(-8.68221e-07 1.11972e-06 0.104893)
(1.15309e-06 -8.07135e-07 0.104893)
(-4.62123e-05 -4.61039e-05 0.104569)
(-7.5315e-07 -7.59891e-07 0.105133)
(-7.77474e-07 1.13691e-06 0.104893)
(1.12908e-06 -7.82314e-07 0.104893)
(-4.60709e-05 -4.61126e-05 0.104569)
(-7.73678e-07 -7.52748e-07 0.105134)
(-8.14941e-07 1.13474e-06 0.104893)
(1.15563e-06 -8.19235e-07 0.104893)
(-4.61214e-05 -4.60907e-05 0.104569)
(-7.18389e-07 -6.90942e-07 0.105134)
(-8.52891e-07 1.19746e-06 0.104894)
(1.11055e-06 -8.32194e-07 0.104894)
(-4.61478e-05 -4.61833e-05 0.104569)
(-7.88026e-07 -7.93297e-07 0.105134)
(-6.95872e-07 1.03735e-06 0.104894)
(1.12109e-06 -7.3989e-07 0.104894)
(-4.60566e-05 -4.6016e-05 0.104569)
(-8.50849e-07 -8.47591e-07 0.105133)
(-7.28295e-07 1.04606e-06 0.104893)
(1.05578e-06 -7.72458e-07 0.104893)
(-4.5976e-05 -4.6091e-05 0.104569)
(-8.59628e-07 -8.03165e-07 0.105133)
(-7.58489e-07 1.07855e-06 0.104893)
(1.07168e-06 -7.50442e-07 0.104893)
(-4.60959e-05 -4.60338e-05 0.104569)
(-8.38895e-07 -7.93066e-07 0.105133)
(-7.76146e-07 1.11885e-06 0.104893)
(1.06789e-06 -7.84433e-07 0.104893)
(-4.60423e-05 -4.60016e-05 0.104569)
(-8.18136e-07 -7.84511e-07 0.105133)
(-7.95613e-07 1.07983e-06 0.104893)
(1.13946e-06 -8.205e-07 0.104893)
(-4.60761e-05 -4.60811e-05 0.104569)
(-8.13042e-07 -8.08313e-07 0.105133)
(-7.72478e-07 1.0753e-06 0.104893)
(1.15164e-06 -7.70549e-07 0.104893)
(-4.6043e-05 -4.60234e-05 0.104569)
(-8.17527e-07 -7.80342e-07 0.105133)
(-7.72009e-07 1.09472e-06 0.104893)
(1.11477e-06 -7.73422e-07 0.104893)
(-4.60447e-05 -4.60643e-05 0.104569)
(-8.26528e-07 -8.07545e-07 0.105133)
(-7.71483e-07 1.09427e-06 0.104893)
(1.11417e-06 -8.40408e-07 0.104893)
(-4.6052e-05 -4.60838e-05 0.104569)
(-8.21281e-07 -7.84811e-07 0.105133)
(-7.61674e-07 1.10251e-06 0.104893)
(1.0629e-06 -8.35243e-07 0.104893)
(-4.60492e-05 -4.60515e-05 0.104569)
(-8.14681e-07 -7.77282e-07 0.105133)
(-7.72987e-07 1.11674e-06 0.104893)
(1.09688e-06 -7.79561e-07 0.104893)
(-4.60884e-05 -4.60326e-05 0.104569)
(-7.89157e-07 -7.41716e-07 0.105133)
(-7.65087e-07 1.09393e-06 0.104893)
(1.12199e-06 -7.83682e-07 0.104893)
(-4.60548e-05 -4.60661e-05 0.104569)
(-7.63406e-07 -7.68098e-07 0.105133)
(-7.75878e-07 1.09e-06 0.104893)
(1.07791e-06 -8.15704e-07 0.104893)
(-4.60583e-05 -4.60852e-05 0.104569)
(-7.815e-07 -7.87784e-07 0.105133)
(-7.81926e-07 1.06115e-06 0.104893)
(1.10214e-06 -8.25436e-07 0.104893)
(-4.60578e-05 -4.6053e-05 0.104569)
(-7.91456e-07 -7.74751e-07 0.105133)
(-7.57877e-07 1.08185e-06 0.104893)
(1.06763e-06 -7.76904e-07 0.104893)
(-4.60614e-05 -4.60491e-05 0.104569)
(-7.82725e-07 -7.66653e-07 0.105133)
(-7.74612e-07 1.10434e-06 0.104893)
(1.13432e-06 -7.61537e-07 0.104893)
(-4.60688e-05 -4.60275e-05 0.104569)
(-7.82223e-07 -7.77776e-07 0.105133)
(-7.73426e-07 1.09007e-06 0.104893)
(1.0795e-06 -7.77422e-07 0.104893)
(-4.60819e-05 -4.60777e-05 0.104569)
(-7.74191e-07 -7.85768e-07 0.105133)
(-8.29609e-07 1.03061e-06 0.104893)
(1.08449e-06 -8.54908e-07 0.104893)
(-4.61368e-05 -4.61534e-05 0.104569)
(4.6018e-05 4.59828e-05 0.104569)
(-4.87084e-05 -4.86594e-05 0.104589)
(1.0928e-06 8.17834e-07 0.104893)
(-9.84962e-07 8.07439e-07 0.104893)
(8.68147e-07 8.23701e-07 0.104893)
(-8.91027e-07 8.39343e-07 0.104893)
(-4.59193e-05 4.59337e-05 0.104569)
(4.87387e-05 -4.87073e-05 0.104589)
(7.86504e-07 1.03138e-06 0.104893)
(8.55518e-07 -1.03461e-06 0.104893)
(7.81635e-07 8.25851e-07 0.104893)
(8.25241e-07 -8.36526e-07 0.104893)
(-7.98278e-07 -1.00365e-06 0.104893)
(-8.02211e-07 8.68783e-07 0.104893)
(-8.09999e-07 -8.74313e-07 0.104893)
(4.60886e-05 -4.60734e-05 0.104569)
(-4.88057e-05 4.88658e-05 0.104589)
(-9.85019e-07 -7.89487e-07 0.104893)
(8.23571e-07 -7.65947e-07 0.104893)
(-8.69494e-07 -7.46743e-07 0.104893)
(4.87313e-05 4.8784e-05 0.104588)
(4.59395e-05 4.59523e-05 0.104569)
(-4.87482e-05 -4.87432e-05 0.104589)
(1.06829e-06 8.19636e-07 0.104893)
(-1.13717e-06 8.31108e-07 0.104893)
(8.93717e-07 7.92052e-07 0.104893)
(-8.90155e-07 8.27121e-07 0.104893)
(-4.60598e-05 4.60402e-05 0.104569)
(4.87934e-05 -4.87145e-05 0.104589)
(7.71012e-07 1.03469e-06 0.104893)
(8.30012e-07 -1.08417e-06 0.104893)
(7.76539e-07 8.53339e-07 0.104893)
(7.74434e-07 -9.33436e-07 0.104893)
(-8.04008e-07 -9.86789e-07 0.104893)
(-7.62247e-07 8.99166e-07 0.104893)
(-7.35719e-07 -9.8673e-07 0.104892)
(4.6082e-05 -4.60757e-05 0.104569)
(-4.88354e-05 4.87922e-05 0.104589)
(-9.687e-07 -7.55116e-07 0.104893)
(8.65884e-07 -7.84535e-07 0.104893)
(-9.05632e-07 -8.06761e-07 0.104893)
(4.88376e-05 4.87533e-05 0.104588)
(4.6051e-05 4.60187e-05 0.104569)
(-4.8683e-05 -4.86815e-05 0.104589)
(1.15507e-06 8.37675e-07 0.104893)
(-1.10528e-06 8.51892e-07 0.104893)
(1.04355e-06 8.87302e-07 0.104893)
(-9.94225e-07 8.75483e-07 0.104893)
(-4.60019e-05 4.60195e-05 0.104569)
(4.86132e-05 -4.85985e-05 0.104589)
(8.15539e-07 1.11552e-06 0.104893)
(8.02423e-07 -1.15567e-06 0.104893)
(8.36287e-07 9.8842e-07 0.104893)
(8.91912e-07 -1.01804e-06 0.104893)
(-7.55218e-07 -1.12007e-06 0.104892)
(-8.55423e-07 9.76363e-07 0.104893)
(-8.39467e-07 -1.05957e-06 0.104893)
(4.60073e-05 -4.6127e-05 0.104569)
(-4.8608e-05 4.8662e-05 0.104589)
(-1.02646e-06 -8.48678e-07 0.104893)
(9.68987e-07 -8.67987e-07 0.104893)
(-9.9642e-07 -8.64693e-07 0.104893)
(4.86578e-05 4.86587e-05 0.104588)
(4.61935e-05 4.61743e-05 0.104569)
(-4.87772e-05 -4.87254e-05 0.104589)
(1.23431e-06 9.43076e-07 0.104893)
(-1.24456e-06 8.84309e-07 0.104893)
(9.722e-07 8.45105e-07 0.104893)
(-1.01456e-06 8.30667e-07 0.104893)
(-4.61563e-05 4.60975e-05 0.104569)
(4.85627e-05 -4.86037e-05 0.104589)
(9.04448e-07 1.18733e-06 0.104893)
(9.20251e-07 -1.23658e-06 0.104893)
(8.05554e-07 9.37241e-07 0.104893)
(8.58753e-07 -9.95637e-07 0.104893)
(-8.95195e-07 -1.15052e-06 0.104893)
(-8.96161e-07 9.266e-07 0.104893)
(-9.21132e-07 -1.04372e-06 0.104893)
(4.61717e-05 -4.61694e-05 0.104569)
(-4.86322e-05 4.86394e-05 0.104589)
(-1.11664e-06 -8.73614e-07 0.104893)
(9.33868e-07 -8.51617e-07 0.104893)
(-1.05788e-06 -8.64806e-07 0.104893)
(4.8553e-05 4.8706e-05 0.104589)
(4.61209e-05 4.61125e-05 0.104569)
(-4.86517e-05 -4.86249e-05 0.104589)
(1.15833e-06 8.52742e-07 0.104893)
(-1.20156e-06 8.65608e-07 0.104893)
(9.6522e-07 8.47595e-07 0.104893)
(-9.62916e-07 8.28168e-07 0.104893)
(-4.60797e-05 4.60153e-05 0.104569)
(4.86388e-05 -4.8641e-05 0.104589)
(8.13916e-07 1.12542e-06 0.104893)
(8.37245e-07 -1.20555e-06 0.104893)
(8.13724e-07 9.2323e-07 0.104893)
(8.2324e-07 -9.52305e-07 0.104893)
(-9.10708e-07 -1.13784e-06 0.104893)
(-8.00639e-07 8.9699e-07 0.104893)
(-8.146e-07 -9.71281e-07 0.104893)
(4.61093e-05 -4.61719e-05 0.104569)
(-4.87046e-05 4.86855e-05 0.104589)
(-1.14016e-06 -8.47063e-07 0.104893)
(9.23468e-07 -8.22858e-07 0.104893)
(-9.38675e-07 -8.07715e-07 0.104893)
(4.87233e-05 4.87165e-05 0.104589)
(4.61345e-05 4.61169e-05 0.104569)
(-4.8801e-05 -4.87693e-05 0.104589)
(1.2013e-06 8.77939e-07 0.104893)
(-1.16404e-06 8.46778e-07 0.104893)
(8.83671e-07 8.12876e-07 0.104893)
(-9.76613e-07 8.62952e-07 0.104893)
(-4.60166e-05 4.60019e-05 0.104569)
(4.87115e-05 -4.86337e-05 0.104589)
(8.60103e-07 1.16182e-06 0.104893)
(8.40684e-07 -1.14055e-06 0.104893)
(7.73782e-07 8.68185e-07 0.104893)
(8.3679e-07 -9.21974e-07 0.104893)
(-8.18241e-07 -1.0567e-06 0.104893)
(-8.18202e-07 9.35239e-07 0.104893)
(-8.12631e-07 -9.54272e-07 0.104893)
(4.60935e-05 -4.61422e-05 0.104569)
(-4.86922e-05 4.87795e-05 0.104589)
(-1.03515e-06 -7.97336e-07 0.104893)
(8.96059e-07 -7.95055e-07 0.104893)
(-9.70909e-07 -7.92458e-07 0.104893)
(4.87166e-05 4.87872e-05 0.104589)
(4.60048e-05 4.60057e-05 0.104569)
(-4.85814e-05 -4.8535e-05 0.104589)
(1.08907e-06 8.50878e-07 0.104893)
(-1.20458e-06 8.92958e-07 0.104893)
(9.94704e-07 9.00084e-07 0.104893)
(-9.68655e-07 9.02503e-07 0.104893)
(-4.60764e-05 4.6098e-05 0.104569)
(4.86061e-05 -4.85476e-05 0.104589)
(8.11256e-07 1.05367e-06 0.104893)
(8.85094e-07 -1.17997e-06 0.104893)
(8.75278e-07 9.80071e-07 0.104894)
(9.16349e-07 -9.68419e-07 0.104893)
(-8.83458e-07 -1.08742e-06 0.104893)
(-8.9839e-07 9.49637e-07 0.104894)
(-8.81677e-07 -1.01197e-06 0.104893)
(4.61419e-05 -4.6133e-05 0.104569)
(-4.86717e-05 4.86968e-05 0.104589)
(-1.08537e-06 -8.30075e-07 0.104893)
(9.3452e-07 -8.96865e-07 0.104894)
(-9.81228e-07 -8.3277e-07 0.104893)
(4.86361e-05 4.86551e-05 0.104589)
(4.61531e-05 4.61627e-05 0.104569)
(-4.86546e-05 -4.86502e-05 0.104589)
(1.19987e-06 9.41129e-07 0.104894)
(-1.19e-06 9.18939e-07 0.104894)
(9.68539e-07 8.29564e-07 0.104894)
(-8.61346e-07 8.12354e-07 0.104893)
(-4.61071e-05 4.61409e-05 0.104569)
(4.87211e-05 -4.87225e-05 0.104589)
(8.92842e-07 1.20004e-06 0.104894)
(8.78786e-07 -1.12678e-06 0.104894)
(8.10217e-07 9.44301e-07 0.104894)
(7.92953e-07 -8.85813e-07 0.104893)
(-8.71848e-07 -1.09652e-06 0.104894)
(-7.55e-07 8.29268e-07 0.104894)
(-8.03277e-07 -9.52519e-07 0.104893)
(4.61224e-05 -4.61533e-05 0.104569)
(-4.87236e-05 4.87772e-05 0.104589)
(-1.08597e-06 -8.3329e-07 0.104894)
(8.73033e-07 -7.50352e-07 0.104894)
(-9.36453e-07 -7.57214e-07 0.104894)
(4.86956e-05 4.87909e-05 0.104589)
(4.60549e-05 4.60218e-05 0.104569)
(-4.87209e-05 -4.87288e-05 0.104589)
(1.17121e-06 8.22892e-07 0.104894)
(-1.0685e-06 7.97283e-07 0.104893)
(9.32757e-07 7.73651e-07 0.104893)
(-8.97413e-07 7.91244e-07 0.104893)
(-4.59003e-05 4.58822e-05 0.104569)
(4.87509e-05 -4.87116e-05 0.104589)
(8.10818e-07 1.12714e-06 0.104894)
(7.95895e-07 -1.13361e-06 0.104893)
(7.71033e-07 8.68018e-07 0.104893)
(8.05448e-07 -9.51978e-07 0.104893)
(-7.92956e-07 -1.06192e-06 0.104893)
(-7.35441e-07 8.23914e-07 0.104893)
(-7.54743e-07 -9.78064e-07 0.104893)
(4.60401e-05 -4.60478e-05 0.104569)
(-4.87111e-05 4.87193e-05 0.104589)
(-1.03062e-06 -7.73589e-07 0.104893)
(8.73882e-07 -8.0566e-07 0.104893)
(-9.07457e-07 -7.79117e-07 0.104893)
(4.88049e-05 4.87237e-05 0.104589)
(4.59697e-05 4.59473e-05 0.104569)
(-4.87778e-05 -4.87324e-05 0.104589)
(1.11349e-06 8.12696e-07 0.104893)
(-1.11348e-06 7.90446e-07 0.104893)
(8.73167e-07 8.26324e-07 0.104893)
(-8.94733e-07 8.03037e-07 0.104893)
(-4.59263e-05 4.5934e-05 0.104569)
(4.87485e-05 -4.8682e-05 0.104589)
(7.91569e-07 1.06159e-06 0.104893)
(7.91385e-07 -1.1227e-06 0.104893)
(7.65038e-07 8.63232e-07 0.104893)
(7.75301e-07 -9.15154e-07 0.104893)
(-7.63222e-07 -1.06772e-06 0.104893)
(-7.81976e-07 8.51535e-07 0.104893)
(-8.17493e-07 -9.62407e-07 0.104893)
(4.6001e-05 -4.60332e-05 0.104569)
(-4.86641e-05 4.87347e-05 0.104589)
(-1.02064e-06 -7.95849e-07 0.104893)
(8.6872e-07 -7.66998e-07 0.104893)
(-9.54903e-07 -7.65962e-07 0.104893)
(4.86503e-05 4.87675e-05 0.104588)
(4.59563e-05 4.59636e-05 0.104569)
(-4.87178e-05 -4.86997e-05 0.104589)
(1.07014e-06 8.4901e-07 0.104893)
(-1.11794e-06 7.93344e-07 0.104893)
(9.00621e-07 8.68587e-07 0.104893)
(-9.48662e-07 8.26657e-07 0.104893)
(-4.59656e-05 4.59759e-05 0.104569)
(4.8676e-05 -4.8668e-05 0.104589)
(7.89463e-07 1.07851e-06 0.104893)
(7.91135e-07 -1.11442e-06 0.104893)
(8.09765e-07 8.9216e-07 0.104893)
(8.15489e-07 -9.12102e-07 0.104893)
(-8.44274e-07 -1.05284e-06 0.104893)
(-8.13171e-07 8.98393e-07 0.104893)
(-8.46737e-07 -9.48515e-07 0.104893)
(4.59984e-05 -4.59919e-05 0.104569)
(-4.87047e-05 4.86888e-05 0.104589)
(-1.06053e-06 -7.76139e-07 0.104893)
(8.49715e-07 -8.24088e-07 0.104893)
(-9.4034e-07 -8.02737e-07 0.104893)
(4.87e-05 4.8796e-05 0.104589)
(4.60122e-05 4.59993e-05 0.104569)
(-4.8626e-05 -4.8594e-05 0.104589)
(1.10478e-06 8.9437e-07 0.104893)
(-1.1768e-06 8.35627e-07 0.104893)
(8.84577e-07 8.6727e-07 0.104893)
(-9.3498e-07 7.91063e-07 0.104893)
(-4.60279e-05 4.60007e-05 0.104569)
(4.86301e-05 -4.86801e-05 0.104589)
(8.41241e-07 1.09675e-06 0.104893)
(8.29464e-07 -1.12525e-06 0.104893)
(8.0277e-07 8.67763e-07 0.104893)
(8.3863e-07 -9.51851e-07 0.104893)
(-8.3661e-07 -1.0324e-06 0.104893)
(-8.2715e-07 8.8025e-07 0.104893)
(-8.39257e-07 -9.82058e-07 0.104893)
(4.59412e-05 -4.60094e-05 0.104569)
(-4.85771e-05 4.85976e-05 0.104589)
(-1.02189e-06 -8.16929e-07 0.104893)
(8.96734e-07 -8.58781e-07 0.104893)
(-9.52367e-07 -8.29666e-07 0.104893)
(4.86607e-05 4.87089e-05 0.104589)
(4.59507e-05 4.59528e-05 0.104569)
(-4.86192e-05 -4.866e-05 0.104589)
(1.11153e-06 8.68881e-07 0.104893)
(-1.13906e-06 8.10071e-07 0.104893)
(9.45001e-07 8.29599e-07 0.104893)
(-9.36805e-07 7.84092e-07 0.104893)
(-4.61022e-05 4.60101e-05 0.104569)
(4.86348e-05 -4.8669e-05 0.104589)
(8.44466e-07 1.07906e-06 0.104893)
(8.43561e-07 -1.19007e-06 0.104893)
(8.28617e-07 8.68798e-07 0.104893)
(8.44384e-07 -9.45048e-07 0.104893)
(-8.47223e-07 -1.06739e-06 0.104893)
(-8.19035e-07 8.63629e-07 0.104893)
(-8.0421e-07 -9.53925e-07 0.104893)
(4.6002e-05 -4.60369e-05 0.104569)
(-4.8572e-05 4.86101e-05 0.104589)
(-1.04419e-06 -8.33211e-07 0.104893)
(9.24577e-07 -8.29089e-07 0.104893)
(-9.22152e-07 -7.99974e-07 0.104893)
(4.86824e-05 4.87415e-05 0.104589)
(4.598e-05 4.59117e-05 0.104569)
(-4.86857e-05 -4.86778e-05 0.104589)
(1.14042e-06 8.64301e-07 0.104893)
(-1.13623e-06 8.14367e-07 0.104893)
(9.07725e-07 8.69182e-07 0.104893)
(-9.2579e-07 8.17911e-07 0.104893)
(-4.60333e-05 4.59707e-05 0.104569)
(4.87086e-05 -4.86427e-05 0.104589)
(8.54468e-07 1.07976e-06 0.104893)
(8.66359e-07 -1.16174e-06 0.104893)
(8.23758e-07 8.80611e-07 0.104893)
(8.40967e-07 -9.13451e-07 0.104893)
(-8.23051e-07 -1.05243e-06 0.104893)
(-8.01808e-07 9.09549e-07 0.104893)
(-8.15654e-07 -9.77616e-07 0.104893)
(4.60035e-05 -4.60149e-05 0.104569)
(-4.8602e-05 4.87074e-05 0.104588)
(-1.02566e-06 -7.97397e-07 0.104893)
(9.07899e-07 -7.91521e-07 0.104893)
(-9.54983e-07 -8.10035e-07 0.104893)
(4.87018e-05 4.87251e-05 0.104588)
(4.59947e-05 4.59616e-05 0.104569)
(-4.86603e-05 -4.86633e-05 0.104589)
(1.12214e-06 8.80532e-07 0.104893)
(-1.1188e-06 8.24847e-07 0.104893)
(9.25903e-07 8.55311e-07 0.104893)
(-9.38395e-07 8.13733e-07 0.104893)
(-4.60225e-05 4.60415e-05 0.104569)
(4.86657e-05 -4.86871e-05 0.104589)
(8.32914e-07 1.1017e-06 0.104893)
(8.50681e-07 -1.12156e-06 0.104893)
(8.25654e-07 8.83269e-07 0.104893)
(8.29897e-07 -9.42327e-07 0.104893)
(-8.27882e-07 -1.07852e-06 0.104893)
(-8.08865e-07 8.84289e-07 0.104893)
(-8.22334e-07 -9.88447e-07 0.104893)
(4.60263e-05 -4.59749e-05 0.104568)
(-4.86242e-05 4.86156e-05 0.104588)
(-1.05051e-06 -8.39582e-07 0.104893)
(8.84992e-07 -8.68791e-07 0.104893)
(-9.39053e-07 -8.21806e-07 0.104893)
(4.87018e-05 4.86972e-05 0.104588)
(4.60189e-05 4.5976e-05 0.104569)
(-4.86635e-05 -4.86628e-05 0.104589)
(1.123e-06 8.63121e-07 0.104893)
(-1.14463e-06 8.21399e-07 0.104893)
(9.23207e-07 8.50932e-07 0.104893)
(-9.272e-07 8.18293e-07 0.104893)
(-4.60732e-05 4.60085e-05 0.104569)
(4.86438e-05 -4.86129e-05 0.104589)
(8.5247e-07 1.07733e-06 0.104893)
(8.63492e-07 -1.16308e-06 0.104893)
(8.15279e-07 8.9726e-07 0.104893)
(8.41787e-07 -9.32922e-07 0.104893)
(-8.21627e-07 -1.06923e-06 0.104893)
(-7.93492e-07 8.87387e-07 0.104893)
(-8.02485e-07 -9.31652e-07 0.104893)
(4.59767e-05 -4.60425e-05 0.104569)
(-4.86661e-05 4.86205e-05 0.104589)
(-1.03536e-06 -8.36101e-07 0.104893)
(8.65765e-07 -8.70015e-07 0.104893)
(-9.30179e-07 -8.05934e-07 0.104893)
(4.87005e-05 4.87256e-05 0.104589)
(4.60143e-05 4.59791e-05 0.104569)
(-4.8646e-05 -4.86556e-05 0.104589)
(1.12188e-06 8.69182e-07 0.104893)
(-1.14415e-06 8.36878e-07 0.104893)
(9.14005e-07 8.67575e-07 0.104893)
(-9.38734e-07 8.42102e-07 0.104893)
(-4.60013e-05 4.59925e-05 0.104569)
(4.86839e-05 -4.86337e-05 0.104589)
(8.38591e-07 1.11001e-06 0.104893)
(8.646e-07 -1.11541e-06 0.104893)
(8.25285e-07 8.94597e-07 0.104893)
(8.57072e-07 -8.96027e-07 0.104893)
(-8.14992e-07 -1.02146e-06 0.104893)
(-7.99189e-07 9.11438e-07 0.104893)
(-8.11379e-07 -9.56619e-07 0.104893)
(4.59359e-05 -4.60388e-05 0.104569)
(-4.86121e-05 4.86488e-05 0.104589)
(-1.02297e-06 -8.14577e-07 0.104893)
(8.84024e-07 -8.35208e-07 0.104893)
(-9.55397e-07 -7.92681e-07 0.104893)
(4.86608e-05 4.87519e-05 0.104588)
(4.5989e-05 4.59454e-05 0.104569)
(-4.86093e-05 -4.85492e-05 0.104589)
(1.11654e-06 8.82009e-07 0.104893)
(-1.1572e-06 8.40998e-07 0.104893)
(9.07286e-07 8.36652e-07 0.104893)
(-9.15392e-07 8.2279e-07 0.104893)
(-4.59908e-05 4.6e-05 0.104569)
(4.8681e-05 -4.86367e-05 0.104589)
(8.25488e-07 1.10162e-06 0.104893)
(8.68818e-07 -1.0955e-06 0.104893)
(7.87823e-07 9.00543e-07 0.104893)
(8.89185e-07 -8.80817e-07 0.104893)
(-8.34015e-07 -1.05531e-06 0.104893)
(-7.97815e-07 8.88376e-07 0.104893)
(-8.06724e-07 -9.69742e-07 0.104893)
(4.59889e-05 -4.59989e-05 0.104569)
(-4.85798e-05 4.8695e-05 0.104588)
(-1.05132e-06 -8.00304e-07 0.104893)
(8.9461e-07 -8.3449e-07 0.104893)
(-9.60777e-07 -8.09149e-07 0.104893)
(4.86908e-05 4.87119e-05 0.104588)
(4.59441e-05 4.59653e-05 0.104569)
(-4.86234e-05 -4.85921e-05 0.104589)
(1.10879e-06 8.69286e-07 0.104893)
(-1.11609e-06 8.44968e-07 0.104893)
(9.51923e-07 8.17895e-07 0.104893)
(-9.34601e-07 8.08574e-07 0.104893)
(-4.60011e-05 4.59866e-05 0.104569)
(4.8661e-05 -4.86461e-05 0.104589)
(8.1274e-07 1.10336e-06 0.104893)
(8.84244e-07 -1.10614e-06 0.104893)
(8.05596e-07 9.13056e-07 0.104893)
(8.61659e-07 -9.1371e-07 0.104893)
(-8.39212e-07 -1.06686e-06 0.104893)
(-8.07184e-07 8.88059e-07 0.104893)
(-8.22882e-07 -1.00641e-06 0.104893)
(4.6023e-05 -4.59606e-05 0.104568)
(-4.8617e-05 4.86316e-05 0.104589)
(-1.05231e-06 -8.08633e-07 0.104893)
(8.72288e-07 -8.5129e-07 0.104893)
(-9.54466e-07 -8.29702e-07 0.104893)
(4.86986e-05 4.87121e-05 0.104588)
(4.59566e-05 4.59476e-05 0.104569)
(-4.86603e-05 -4.86426e-05 0.104589)
(1.16541e-06 8.55292e-07 0.104893)
(-1.14029e-06 8.17772e-07 0.104893)
(9.52087e-07 8.06997e-07 0.104893)
(-9.28927e-07 8.09579e-07 0.104893)
(-4.60136e-05 4.59755e-05 0.104569)
(4.86605e-05 -4.86896e-05 0.104589)
(8.12783e-07 1.09973e-06 0.104893)
(8.53918e-07 -1.13112e-06 0.104893)
(8.2055e-07 8.92879e-07 0.104893)
(8.00095e-07 -9.47407e-07 0.104893)
(-8.36147e-07 -1.10758e-06 0.104893)
(-8.24022e-07 8.58137e-07 0.104893)
(-8.38036e-07 -9.6906e-07 0.104893)
(4.596e-05 -4.60148e-05 0.104569)
(-4.86567e-05 4.85974e-05 0.104589)
(-1.04317e-06 -8.39693e-07 0.104893)
(8.78215e-07 -8.65372e-07 0.104893)
(-9.26797e-07 -8.34954e-07 0.104893)
(4.87076e-05 4.87281e-05 0.104589)
(4.60111e-05 4.59827e-05 0.104569)
(-4.867e-05 -4.8653e-05 0.104589)
(1.137e-06 8.35958e-07 0.104893)
(-1.13967e-06 8.05772e-07 0.104893)
(9.17207e-07 8.11493e-07 0.104893)
(-9.13841e-07 8.17332e-07 0.104893)
(-4.60122e-05 4.59239e-05 0.104569)
(4.85962e-05 -4.85443e-05 0.104589)
(8.28152e-07 1.08397e-06 0.104893)
(8.1364e-07 -1.17713e-06 0.104893)
(7.77388e-07 9.06043e-07 0.104893)
(7.90554e-07 -9.30527e-07 0.104893)
(-8.27982e-07 -1.04046e-06 0.104893)
(-7.90295e-07 8.60644e-07 0.104893)
(-7.99918e-07 -9.35661e-07 0.104893)
(4.59481e-05 -4.60652e-05 0.104569)
(-4.86499e-05 4.85989e-05 0.104589)
(-1.02035e-06 -8.04921e-07 0.104893)
(8.53837e-07 -8.44272e-07 0.104893)
(-9.36233e-07 -7.83672e-07 0.104893)
(4.86883e-05 4.87348e-05 0.104588)
(4.59776e-05 4.59769e-05 0.104569)
(-4.86703e-05 -4.8605e-05 0.104589)
(1.12731e-06 8.41192e-07 0.104893)
(-1.12844e-06 8.31952e-07 0.104893)
(9.28699e-07 8.07396e-07 0.104893)
(-9.36264e-07 8.50237e-07 0.104893)
(-4.59409e-05 4.59426e-05 0.104569)
(4.86756e-05 -4.85934e-05 0.104589)
(7.88095e-07 1.10695e-06 0.104893)
(8.14264e-07 -1.13041e-06 0.104893)
(7.88278e-07 9.21211e-07 0.104893)
(8.50863e-07 -9.21862e-07 0.104893)
(-8.23502e-07 -1.04045e-06 0.104893)
(-8.12546e-07 9.03204e-07 0.104893)
(-8.26302e-07 -9.66367e-07 0.104893)
(4.59261e-05 -4.60147e-05 0.104569)
(-4.85766e-05 4.86408e-05 0.104588)
(-1.03459e-06 -7.91046e-07 0.104893)
(9.11818e-07 -8.00068e-07 0.104893)
(-9.48399e-07 -8.05308e-07 0.104893)
(4.86754e-05 4.87529e-05 0.104588)
(4.59875e-05 4.60062e-05 0.104569)
(-4.86907e-05 -4.86402e-05 0.104589)
(1.13085e-06 8.41401e-07 0.104893)
(-1.14006e-06 8.48201e-07 0.104893)
(9.30388e-07 8.18725e-07 0.104893)
(-9.72877e-07 8.53944e-07 0.104893)
(-4.59908e-05 4.60124e-05 0.104569)
(4.86656e-05 -4.86429e-05 0.104589)
(8.03704e-07 1.10755e-06 0.104893)
(8.60195e-07 -1.12664e-06 0.104893)
(8.11253e-07 8.99054e-07 0.104893)
(8.48285e-07 -9.50575e-07 0.104893)
(-8.29797e-07 -1.06747e-06 0.104893)
(-8.2553e-07 9.48604e-07 0.104893)
(-8.37481e-07 -1.01075e-06 0.104893)
(4.60078e-05 -4.59807e-05 0.104569)
(-4.85727e-05 4.8623e-05 0.104588)
(-1.03725e-06 -8.02002e-07 0.104893)
(9.0909e-07 -8.26468e-07 0.104893)
(-9.65473e-07 -8.30202e-07 0.104893)
(4.87215e-05 4.8761e-05 0.104588)
(4.60025e-05 4.60058e-05 0.104569)
(-4.8655e-05 -4.86712e-05 0.104589)
(1.11076e-06 8.36351e-07 0.104893)
(-1.11893e-06 8.44379e-07 0.104893)
(9.50513e-07 8.3926e-07 0.104893)
(-9.87823e-07 8.59813e-07 0.104893)
(-4.60541e-05 4.60324e-05 0.104569)
(4.86918e-05 -4.86771e-05 0.104589)
(8.09342e-07 1.069e-06 0.104893)
(8.41311e-07 -1.12633e-06 0.104893)
(8.25223e-07 9.07836e-07 0.104893)
(8.71917e-07 -9.76892e-07 0.104893)
(-8.16969e-07 -1.06815e-06 0.104893)
(-8.45348e-07 9.35347e-07 0.104893)
(-8.3198e-07 -1.00743e-06 0.104893)
(4.59767e-05 -4.60112e-05 0.104568)
(-4.86894e-05 4.87114e-05 0.104589)
(-1.03239e-06 -8.11707e-07 0.104893)
(9.18488e-07 -8.60337e-07 0.104893)
(-9.58295e-07 -8.26544e-07 0.104893)
(4.87334e-05 4.87503e-05 0.104589)
(4.60411e-05 4.59912e-05 0.104569)
(1.11746e-06 8.81623e-07 0.104893)
(-1.09017e-06 8.80817e-07 0.104893)
(-4.60738e-05 4.60267e-05 0.104569)
(8.35799e-07 1.07269e-06 0.104893)
(8.9118e-07 -1.13665e-06 0.104893)
(-8.69494e-07 -1.09771e-06 0.104893)
(4.60303e-05 -4.60724e-05 0.104569)
(-1.04047e-06 -8.72514e-07 0.104893)
(1.25352e-07 -1.88949e-05 0.0989329)
(8.00722e-07 1.46708e-05 0.0884431)
(-1.69564e-06 -1.41027e-05 0.0884992)
(-3.54942e-07 1.86362e-05 0.0988789)
(-4.00511e-06 7.3614e-06 0.0757288)
(4.38757e-06 -7.60569e-06 0.0757903)
(-1.87859e-05 1.24366e-07 0.0989326)
(1.47288e-05 9.67102e-07 0.0884426)
(-1.3907e-05 -1.49024e-06 0.0884985)
(1.86462e-05 -4.6075e-07 0.0988785)
(8.23287e-07 -8.05647e-07 0.105133)
(-7.76894e-07 8.22562e-07 0.105133)
(7.95221e-07 8.06809e-07 0.105133)
(-8.44731e-07 -8.38774e-07 0.105133)
(8.26361e-07 -8.14294e-07 0.105133)
(-8.30034e-07 8.61654e-07 0.105133)
(8.19665e-07 8.45846e-07 0.105133)
(2.36342e-05 4.02664e-07 0.1034)
(-2.10286e-05 9.75445e-06 0.0996553)
(-8.12725e-07 -1.41002e-07 0.105051)
(-7.86949e-07 8.07371e-07 0.104893)
(2.01702e-05 -1.03221e-05 0.0997323)
(-8.34518e-07 -1.24403e-07 0.10505)
(-2.35814e-05 -5.84396e-07 0.103371)
(7.78827e-06 -4.30557e-06 0.0757308)
(-6.71781e-06 3.86336e-06 0.0757853)
(2.99958e-07 2.36982e-05 0.1034)
(-1.24103e-07 -8.10338e-07 0.105051)
(9.92897e-06 -2.12388e-05 0.0996557)
(8.65586e-07 -8.16605e-07 0.104893)
(-1.43708e-07 -8.26328e-07 0.105051)
(-1.00895e-05 2.02161e-05 0.09973)
(-4.93865e-07 -2.37544e-05 0.103372)
(-7.46236e-06 -9.38672e-06 0.0945386)
(-9.75305e-06 -7.88043e-06 0.0945381)
(4.86953e-05 4.87725e-05 0.104589)
(6.93276e-06 9.42005e-06 0.0946087)
(9.20862e-06 7.00906e-06 0.0946056)
(2.43759e-07 -1.90347e-05 0.0989343)
(1.18692e-06 1.41642e-05 0.0884428)
(-4.55343e-07 1.8245e-05 0.098881)
(-1.36958e-06 -1.41759e-05 0.0884997)
(-4.21094e-06 7.55198e-06 0.0757301)
(4.34937e-06 -7.50379e-06 0.0757897)
(-1.90563e-05 3.20338e-07 0.098934)
(1.41767e-05 1.12057e-06 0.0884421)
(1.82425e-05 -4.32053e-07 0.0988807)
(-1.41565e-05 -1.43938e-06 0.0884993)
(8.12908e-07 -8.0356e-07 0.105133)
(-8.11787e-07 8.29652e-07 0.105133)
(8.09564e-07 8.24507e-07 0.105133)
(-8.18303e-07 -8.20569e-07 0.105133)
(8.66705e-07 -8.18187e-07 0.105133)
(-8.10462e-07 7.74889e-07 0.105133)
(8.42844e-07 7.98868e-07 0.105133)
(2.35291e-05 4.39099e-07 0.1034)
(-2.11016e-05 9.87042e-06 0.0996568)
(-7.95384e-07 -1.01635e-07 0.10505)
(-8.25672e-07 8.96195e-07 0.104893)
(-2.37589e-05 -5.21879e-07 0.10337)
(2.003e-05 -9.94455e-06 0.099733)
(-8.02555e-07 -1.12745e-07 0.10505)
(7.0914e-06 -4.03733e-06 0.0757255)
(-7.65974e-06 4.41008e-06 0.0757866)
(5.12269e-07 2.36766e-05 0.103399)
(-1.04338e-07 -7.63831e-07 0.10505)
(9.75469e-06 -2.09707e-05 0.0996575)
(8.34716e-07 -7.9402e-07 0.104893)
(-3.59291e-07 -2.35509e-05 0.10337)
(-1.0969e-07 -8.14032e-07 0.10505)
(-1.04054e-05 2.03895e-05 0.0997316)
(-7.59802e-06 -9.87043e-06 0.0945409)
(-9.81608e-06 -7.36993e-06 0.09454)
(4.87885e-05 4.8811e-05 0.104589)
(6.81151e-06 9.1338e-06 0.0946105)
(9.19737e-06 6.88522e-06 0.0946072)
(2.9775e-07 -1.90082e-05 0.0989336)
(7.23938e-07 1.41664e-05 0.0884436)
(-2.60236e-07 1.8391e-05 0.0988809)
(-1.6894e-06 -1.41409e-05 0.0885005)
(-4.12356e-06 7.30353e-06 0.0757322)
(4.35776e-06 -7.47908e-06 0.0757922)
(-1.90917e-05 3.10061e-07 0.0989335)
(1.41502e-05 6.71428e-07 0.0884435)
(1.83185e-05 -2.87124e-07 0.0988807)
(-1.42312e-05 -1.79359e-06 0.0885005)
(8.50827e-07 -7.87241e-07 0.105133)
(-7.95127e-07 7.66884e-07 0.105133)
(8.41773e-07 7.84495e-07 0.105133)
(-7.16924e-07 -7.28285e-07 0.105133)
(7.4445e-07 -7.23644e-07 0.105133)
(-7.07377e-07 7.02723e-07 0.105133)
(7.36891e-07 7.09872e-07 0.105133)
(2.36948e-05 5.13146e-07 0.103399)
(-2.10458e-05 9.90893e-06 0.0996559)
(-7.34115e-07 -9.75163e-08 0.10505)
(-7.95224e-07 9.57313e-07 0.104893)
(-2.35711e-05 -4.649e-07 0.10337)
(2.02509e-05 -1.05812e-05 0.0997317)
(-7.49755e-07 -1.03136e-07 0.10505)
(7.36968e-06 -4.10446e-06 0.0757301)
(-7.58841e-06 4.44906e-06 0.0757904)
(4.885e-07 2.35464e-05 0.103399)
(-4.39084e-08 -8.21859e-07 0.10505)
(9.40373e-06 -2.10329e-05 0.0996576)
(8.99232e-07 -8.70417e-07 0.104893)
(-4.20424e-07 -2.36019e-05 0.10337)
(-7.66224e-08 -8.73384e-07 0.10505)
(-1.06358e-05 2.02152e-05 0.0997306)
(-7.67058e-06 -9.5771e-06 0.0945406)
(-9.32678e-06 -7.72405e-06 0.0945392)
(4.87552e-05 4.866e-05 0.104589)
(6.79901e-06 9.44397e-06 0.094609)
(9.75319e-06 6.85529e-06 0.094606)
(3.49576e-07 -1.87908e-05 0.0989324)
(4.73756e-07 1.43063e-05 0.0884447)
(-3.19251e-07 1.85194e-05 0.0988799)
(-1.8697e-06 -1.4098e-05 0.0885014)
(-3.84961e-06 7.34724e-06 0.075736)
(4.45441e-06 -7.3266e-06 0.0757963)
(-1.88106e-05 3.33804e-07 0.0989323)
(1.43582e-05 5.6152e-07 0.0884442)
(1.84915e-05 -3.13726e-07 0.0988797)
(-1.41306e-05 -1.76635e-06 0.0885011)
(6.99456e-07 -7.14243e-07 0.105133)
(-6.91449e-07 7.03876e-07 0.105133)
(7.10701e-07 7.20182e-07 0.105133)
(-7.68748e-07 -7.59502e-07 0.105133)
(7.12782e-07 -7.54304e-07 0.105133)
(-7.53766e-07 7.38718e-07 0.105133)
(6.73366e-07 7.39537e-07 0.105133)
(2.3346e-05 5.29808e-07 0.1034)
(-2.10442e-05 9.26349e-06 0.0996544)
(-8.55114e-07 -3.60046e-08 0.10505)
(-9.31194e-07 9.72534e-07 0.104893)
(-2.37985e-05 -3.78498e-07 0.10337)
(2.0034e-05 -1.06859e-05 0.0997302)
(-8.96536e-07 -5.61136e-08 0.10505)
(7.01484e-06 -3.84599e-06 0.0757386)
(-7.40943e-06 4.5017e-06 0.0757995)
(4.45784e-07 2.3393e-05 0.103399)
(-4.32773e-08 -8.66819e-07 0.10505)
(9.74997e-06 -2.13767e-05 0.0996559)
(9.7499e-07 -8.87337e-07 0.104893)
(-3.39591e-07 -2.3996e-05 0.10337)
(-7.17155e-08 -8.79103e-07 0.10505)
(-1.03321e-05 1.99936e-05 0.0997291)
(-7.54275e-06 -9.46212e-06 0.0945382)
(-9.38994e-06 -7.65191e-06 0.0945374)
(4.85409e-05 4.86793e-05 0.104589)
(6.66139e-06 9.45242e-06 0.0946067)
(9.40097e-06 6.70182e-06 0.0946043)
(2.08222e-07 -1.87652e-05 0.098931)
(7.21391e-07 1.42926e-05 0.0884447)
(-3.83406e-07 1.8531e-05 0.0988785)
(-1.7749e-06 -1.41346e-05 0.0885013)
(-4.09894e-06 7.4409e-06 0.0757374)
(4.39894e-06 -7.44869e-06 0.0757982)
(-1.87999e-05 3.2997e-07 0.0989308)
(1.43319e-05 6.31484e-07 0.0884444)
(1.85123e-05 -3.32228e-07 0.0988783)
(-1.40944e-05 -1.79906e-06 0.088501)
(7.35343e-07 -7.50384e-07 0.105133)
(-7.65178e-07 7.47295e-07 0.105133)
(6.93806e-07 7.47525e-07 0.105133)
(-7.8889e-07 -7.83655e-07 0.105133)
(7.71099e-07 -8.06643e-07 0.105133)
(-7.9452e-07 7.75147e-07 0.105133)
(8.00585e-07 7.97446e-07 0.105133)
(2.33644e-05 4.73726e-07 0.1034)
(-2.12495e-05 9.75186e-06 0.0996529)
(-8.83017e-07 -1.2536e-07 0.105051)
(-8.92265e-07 8.93823e-07 0.104893)
(-2.39029e-05 -5.60597e-07 0.10337)
(1.99924e-05 -1.04503e-05 0.0997287)
(-8.76925e-07 -1.2149e-07 0.105051)
(7.42533e-06 -4.02542e-06 0.0757413)
(-7.32033e-06 4.38018e-06 0.0758004)
(4.12469e-07 2.34226e-05 0.103399)
(-9.36372e-08 -8.19451e-07 0.105051)
(9.72103e-06 -2.12399e-05 0.0996548)
(9.40398e-07 -9.09021e-07 0.104893)
(-4.49598e-07 -2.38058e-05 0.10337)
(-1.23697e-07 -8.55232e-07 0.105051)
(-1.03373e-05 2.01177e-05 0.0997278)
(-7.87466e-06 -9.67184e-06 0.0945355)
(-9.57767e-06 -7.2671e-06 0.0945357)
(4.86787e-05 4.87033e-05 0.104589)
(6.85348e-06 9.35439e-06 0.0946045)
(9.29263e-06 6.77707e-06 0.0946037)
(2.65503e-07 -1.87555e-05 0.09893)
(7.76743e-07 1.42546e-05 0.0884446)
(-2.50018e-07 1.84687e-05 0.0988772)
(-1.60427e-06 -1.4199e-05 0.0885013)
(-4.03437e-06 7.16271e-06 0.0757415)
(4.32957e-06 -7.49151e-06 0.0758024)
(-1.87727e-05 2.92422e-07 0.0989298)
(1.42126e-05 7.95506e-07 0.0884441)