/*--------------------------------*- C++ -*----------------------------------*\
| =========                 |                                                 |
| \\      /  F ield         | OpenFOAM: The Open Source CFD Toolbox           |
|  \\    /   O peration     | Version:                                        |
|   \\  /    A nd           | Website:  www.openfoam.com                      |
|    \\/     M anipulation  |                                                 |
\*---------------------------------------------------------------------------*/
FoamFile
{
    version     2.0;
    format      ascii;
    class       volScalarField;
    location    "900";
    object      epsilon;
}
// * * * * * * * * * * * * * * * * * * * * * * * * * * * * * * * * * * * * * //

dimensions      [0 2 -3 0 0 0 0];


internalField   nonuniform List<scalar> 
172512
(
4.9917e-07
4.99976e-07
4.99976e-07
4.99864e-07
4.45574e-07
4.54114e-07
4.54114e-07
4.63753e-07
4.03788e-07
4.18749e-07
4.18751e-07
4.3954e-07
3.68406e-07
3.88705e-07
3.88708e-07
4.17791e-07
3.38054e-07
3.62205e-07
3.62208e-07
3.9618e-07
3.11679e-07
3.38343e-07
3.38346e-07
3.74653e-07
2.88499e-07
3.16686e-07
3.1669e-07
3.53759e-07
2.67942e-07
2.97056e-07
2.9706e-07
3.34179e-07
2.49594e-07
2.79396e-07
2.794e-07
3.16504e-07
2.33147e-07
2.63701e-07
2.63704e-07
3.01174e-07
2.18372e-07
2.49975e-07
2.49979e-07
2.88501e-07
2.05095e-07
2.38219e-07
2.38223e-07
2.78702e-07
1.93175e-07
2.28434e-07
2.28438e-07
2.71884e-07
1.825e-07
2.20627e-07
2.20631e-07
2.68172e-07
1.7298e-07
2.14805e-07
2.14809e-07
2.67656e-07
1.64542e-07
2.1098e-07
2.10985e-07
2.70509e-07
1.57123e-07
2.09159e-07
2.09164e-07
2.76716e-07
1.5067e-07
2.09358e-07
2.09364e-07
2.86302e-07
1.45139e-07
2.11621e-07
2.11628e-07
2.99251e-07
1.40495e-07
2.15965e-07
2.15973e-07
3.15625e-07
1.36707e-07
2.22411e-07
2.22421e-07
3.35369e-07
1.33753e-07
2.30975e-07
2.30987e-07
3.58383e-07
1.3161e-07
2.41646e-07
2.41659e-07
3.84503e-07
1.30265e-07
2.54402e-07
2.54417e-07
4.13476e-07
1.29704e-07
2.69198e-07
2.69216e-07
4.44965e-07
1.29929e-07
2.85969e-07
2.8599e-07
4.78581e-07
1.30919e-07
3.04629e-07
3.04654e-07
5.13898e-07
1.32675e-07
3.25073e-07
3.25102e-07
5.50467e-07
1.35196e-07
3.47181e-07
3.47215e-07
5.87844e-07
1.38486e-07
3.70817e-07
3.70856e-07
6.25607e-07
1.42545e-07
3.95836e-07
3.95881e-07
6.63375e-07
1.4738e-07
4.2208e-07
4.2213e-07
7.00818e-07
1.52995e-07
4.49383e-07
4.49439e-07
7.37663e-07
1.59396e-07
4.77575e-07
4.77637e-07
7.73699e-07
1.66588e-07
5.06481e-07
5.06549e-07
8.08765e-07
1.74573e-07
5.35922e-07
5.35997e-07
8.42717e-07
1.83352e-07
5.65725e-07
5.65806e-07
8.75523e-07
1.9292e-07
5.95714e-07
5.95802e-07
9.07147e-07
2.03269e-07
6.25722e-07
6.25817e-07
9.37568e-07
2.14382e-07
6.55588e-07
6.5569e-07
9.66779e-07
2.26239e-07
6.85162e-07
6.85271e-07
9.94785e-07
2.38812e-07
7.14311e-07
7.14425e-07
1.0216e-06
2.52065e-07
7.42911e-07
7.43032e-07
1.04727e-06
2.65956e-07
7.70854e-07
7.70979e-07
1.07181e-06
2.80434e-07
7.98043e-07
7.98172e-07
1.09526e-06
2.95441e-07
8.24398e-07
8.2453e-07
1.11766e-06
3.10911e-07
8.49853e-07
8.49988e-07
1.13903e-06
3.26771e-07
8.74359e-07
8.74495e-07
1.1594e-06
3.42947e-07
8.97878e-07
8.98016e-07
1.1788e-06
3.59357e-07
9.20387e-07
9.20525e-07
1.19727e-06
3.75922e-07
9.41872e-07
9.42011e-07
1.21482e-06
3.92558e-07
9.62334e-07
9.62473e-07
1.2315e-06
4.09185e-07
9.81789e-07
9.81928e-07
1.24732e-06
4.25726e-07
1.00024e-06
1.00038e-06
1.26232e-06
4.42104e-07
1.0177e-06
1.01784e-06
1.27651e-06
4.58248e-07
1.03418e-06
1.03432e-06
1.28994e-06
4.74092e-07
1.0497e-06
1.04984e-06
1.30261e-06
4.89576e-07
1.06429e-06
1.06443e-06
1.31456e-06
5.04647e-07
1.07797e-06
1.07811e-06
1.3258e-06
5.19263e-07
1.09076e-06
1.09089e-06
1.33636e-06
5.33379e-07
1.10269e-06
1.10282e-06
1.34626e-06
5.46959e-07
1.11378e-06
1.1139e-06
1.35552e-06
5.59971e-07
1.12406e-06
1.12418e-06
1.36415e-06
5.7239e-07
1.13356e-06
1.13368e-06
1.37218e-06
5.84197e-07
1.1423e-06
1.14242e-06
1.37962e-06
5.95379e-07
1.15031e-06
1.15042e-06
1.38649e-06
6.05925e-07
1.1576e-06
1.15772e-06
1.39281e-06
6.15828e-07
1.16421e-06
1.16432e-06
1.39859e-06
6.25086e-07
1.17016e-06
1.17027e-06
1.40385e-06
6.33697e-07
1.17545e-06
1.17557e-06
1.40858e-06
6.41665e-07
1.18013e-06
1.18025e-06
1.41283e-06
6.48998e-07
1.18423e-06
1.18434e-06
1.41659e-06
6.557e-07
1.18772e-06
1.18783e-06
1.41987e-06
6.61788e-07
1.19067e-06
1.19079e-06
1.42272e-06
6.67267e-07
1.1931e-06
1.1932e-06
1.4251e-06
6.72156e-07
1.19497e-06
1.19508e-06
1.42703e-06
6.76489e-07
1.19641e-06
1.19652e-06
1.42862e-06
6.80262e-07
1.19736e-06
1.19746e-06
1.4298e-06
6.83497e-07
1.19782e-06
1.19793e-06
1.43056e-06
6.86196e-07
1.1978e-06
1.19792e-06
1.43082e-06
6.8846e-07
1.19753e-06
1.19762e-06
1.43087e-06
6.90313e-07
1.19693e-06
1.19707e-06
1.43085e-06
6.91603e-07
1.19568e-06
1.1958e-06
1.43002e-06
6.92452e-07
1.19418e-06
1.19423e-06
1.42856e-06
6.93063e-07
1.19262e-06
1.19271e-06
1.42788e-06
6.9329e-07
1.19053e-06
1.19069e-06
1.42653e-06
6.9316e-07
1.18849e-06
1.18867e-06
1.42417e-06
6.92685e-07
1.18578e-06
1.18557e-06
1.42251e-06
6.91545e-07
1.18168e-06
1.18202e-06
1.41941e-06
6.91214e-07
1.18103e-06
1.18244e-06
1.42056e-06
6.8998e-07
1.17978e-06
1.17572e-06
1.41189e-06
6.86346e-07
1.16502e-06
1.16862e-06
1.41008e-06
6.91016e-07
1.1779e-06
1.1827e-06
1.42556e-06
6.8623e-07
1.18432e-06
1.16486e-06
1.40054e-06
7.30303e-07
1.05296e-06
1.05523e-06
1.33012e-06
5.06203e-07
5.05586e-07
5.05585e-07
5.06203e-07
5.05585e-07
5.05585e-07
5.05986e-07
5.05986e-07
5.05986e-07
5.05987e-07
5.05587e-07
5.05586e-07
5.06203e-07
5.05587e-07
5.05585e-07
5.06203e-07
4.99865e-07
4.67264e-07
4.99977e-07
4.99979e-07
4.6414e-07
4.64148e-07
4.99865e-07
4.67263e-07
4.99979e-07
4.99979e-07
4.64144e-07
4.64149e-07
4.99977e-07
4.64135e-07
4.6414e-07
4.99864e-07
4.67266e-07
4.99978e-07
4.64135e-07
4.64144e-07
4.67268e-07
4.63753e-07
4.41544e-07
4.54119e-07
4.54127e-07
4.27004e-07
4.27013e-07
4.63753e-07
4.41543e-07
4.54123e-07
4.54129e-07
4.27004e-07
4.27015e-07
4.5412e-07
4.26996e-07
4.27006e-07
4.63753e-07
4.41549e-07
4.54123e-07
4.26998e-07
4.27007e-07
4.41555e-07
4.39534e-07
4.19396e-07
4.18757e-07
4.18766e-07
3.95844e-07
3.95853e-07
4.39537e-07
4.19399e-07
4.18757e-07
4.18769e-07
3.95839e-07
3.95856e-07
4.18761e-07
3.95834e-07
3.9585e-07
4.39538e-07
4.19404e-07
4.1876e-07
3.95836e-07
3.95845e-07
4.19413e-07
4.17775e-07
3.9773e-07
3.88717e-07
3.88725e-07
3.68571e-07
3.68579e-07
4.17779e-07
3.97735e-07
3.88711e-07
3.88729e-07
3.68561e-07
3.68583e-07
3.88723e-07
3.68558e-07
3.68578e-07
4.17783e-07
3.97741e-07
3.88717e-07
3.68561e-07
3.68569e-07
3.97751e-07
3.96161e-07
3.76141e-07
3.62219e-07
3.62226e-07
3.44105e-07
3.44112e-07
3.96166e-07
3.76146e-07
3.62208e-07
3.6223e-07
3.44092e-07
3.44116e-07
3.62226e-07
3.44091e-07
3.44113e-07
3.96172e-07
3.76153e-07
3.62216e-07
3.44094e-07
3.441e-07
3.76164e-07
3.74632e-07
3.55142e-07
3.38358e-07
3.38364e-07
3.21922e-07
3.21928e-07
3.74637e-07
3.55148e-07
3.38344e-07
3.38368e-07
3.21906e-07
3.21932e-07
3.38366e-07
3.21907e-07
3.2193e-07
3.74644e-07
3.55155e-07
3.38353e-07
3.2191e-07
3.21915e-07
3.55166e-07
3.53736e-07
3.35407e-07
3.16703e-07
3.16708e-07
3.01795e-07
3.018e-07
3.53743e-07
3.35414e-07
3.16686e-07
3.16712e-07
3.01776e-07
3.01804e-07
3.16711e-07
3.01778e-07
3.01803e-07
3.53749e-07
3.35421e-07
3.16695e-07
3.01782e-07
3.01787e-07
3.35432e-07
3.34155e-07
3.17533e-07
2.97074e-07
2.97079e-07
2.83645e-07
2.8365e-07
3.34163e-07
3.1754e-07
2.97054e-07
2.97082e-07
2.83625e-07
2.83654e-07
2.97082e-07
2.83628e-07
2.83654e-07
3.3417e-07
3.17548e-07
2.97065e-07
2.83631e-07
2.83636e-07
3.17559e-07
3.1648e-07
3.01967e-07
2.79415e-07
2.7942e-07
2.67459e-07
2.67463e-07
3.16488e-07
3.01973e-07
2.79394e-07
2.79422e-07
2.67437e-07
2.67467e-07
2.79423e-07
2.6744e-07
2.67467e-07
3.16494e-07
3.01982e-07
2.79405e-07
2.67444e-07
2.67448e-07
3.01993e-07
3.01148e-07
2.89028e-07
2.6372e-07
2.63725e-07
2.53241e-07
2.53246e-07
3.01157e-07
2.89033e-07
2.63698e-07
2.63727e-07
2.53218e-07
2.53249e-07
2.63728e-07
2.53221e-07
2.53249e-07
3.01164e-07
2.89043e-07
2.63709e-07
2.53225e-07
2.53229e-07
2.89054e-07
2.88475e-07
2.78935e-07
2.49995e-07
2.5e-07
2.40994e-07
2.40999e-07
2.88484e-07
2.7894e-07
2.49972e-07
2.50003e-07
2.4097e-07
2.41003e-07
2.50003e-07
2.40973e-07
2.41001e-07
2.88491e-07
2.7895e-07
2.49983e-07
2.40976e-07
2.40981e-07
2.78962e-07
2.78675e-07
2.71813e-07
2.38242e-07
2.38247e-07
2.30716e-07
2.30723e-07
2.78684e-07
2.71821e-07
2.38217e-07
2.38249e-07
2.30691e-07
2.30726e-07
2.38249e-07
2.30694e-07
2.30723e-07
2.78691e-07
2.7183e-07
2.38229e-07
2.30697e-07
2.30703e-07
2.71843e-07
2.71854e-07
2.67846e-07
2.28458e-07
2.28465e-07
2.22415e-07
2.22423e-07
2.71865e-07
2.67856e-07
2.28432e-07
2.28467e-07
2.22388e-07
2.22427e-07
2.28465e-07
2.2239e-07
2.22423e-07
2.71872e-07
2.67865e-07
2.28444e-07
2.22394e-07
2.22402e-07
2.67879e-07
2.68139e-07
2.66965e-07
2.20653e-07
2.20661e-07
2.16097e-07
2.16107e-07
2.68152e-07
2.66976e-07
2.20626e-07
2.20664e-07
2.16069e-07
2.16111e-07
2.2066e-07
2.16069e-07
2.16104e-07
2.6816e-07
2.66987e-07
2.20639e-07
2.16073e-07
2.16083e-07
2.67002e-07
2.67618e-07
2.69137e-07
2.14833e-07
2.14845e-07
2.1177e-07
2.11787e-07
2.67633e-07
2.69152e-07
2.14805e-07
2.14847e-07
2.11744e-07
2.11789e-07
2.14841e-07
2.11742e-07
2.11778e-07
2.67642e-07
2.69163e-07
2.14819e-07
2.11747e-07
2.11759e-07
2.6918e-07
2.70466e-07
2.74645e-07
2.11006e-07
2.11026e-07
2.09443e-07
2.09468e-07
2.70484e-07
2.74662e-07
2.10982e-07
2.11027e-07
2.09419e-07
2.09468e-07
2.11016e-07
2.09415e-07
2.09452e-07
2.70494e-07
2.74674e-07
2.10998e-07
2.0942e-07
2.09437e-07
2.74693e-07
2.76667e-07
2.83526e-07
2.09186e-07
2.09212e-07
2.09161e-07
2.09191e-07
2.7669e-07
2.83547e-07
2.09163e-07
2.09212e-07
2.09137e-07
2.09191e-07
2.09196e-07
2.09131e-07
2.0917e-07
2.76699e-07
2.83559e-07
2.09181e-07
2.09137e-07
2.09157e-07
2.83581e-07
2.86249e-07
2.95788e-07
2.0939e-07
2.09421e-07
2.1089e-07
2.10925e-07
2.86278e-07
2.95813e-07
2.09366e-07
2.09421e-07
2.10864e-07
2.10925e-07
2.09399e-07
2.10855e-07
2.10898e-07
2.86285e-07
2.95825e-07
2.09386e-07
2.10861e-07
2.10886e-07
2.95848e-07
2.99191e-07
3.11465e-07
2.11658e-07
2.11693e-07
2.14715e-07
2.14759e-07
2.99221e-07
3.11492e-07
2.11632e-07
2.11693e-07
2.1469e-07
2.14757e-07
2.11666e-07
2.14678e-07
2.14725e-07
2.99231e-07
3.11507e-07
2.11654e-07
2.14685e-07
2.14715e-07
3.11533e-07
3.1556e-07
3.30518e-07
2.16005e-07
2.16047e-07
2.20646e-07
2.20691e-07
3.15586e-07
3.3054e-07
2.15979e-07
2.16048e-07
2.20617e-07
2.20692e-07
2.16015e-07
2.20602e-07
2.20655e-07
3.15603e-07
3.30562e-07
2.16005e-07
2.2061e-07
2.20646e-07
3.30591e-07
3.35304e-07
3.52854e-07
2.22461e-07
2.22503e-07
2.28694e-07
2.28736e-07
3.35321e-07
3.52873e-07
2.22429e-07
2.22506e-07
2.28658e-07
2.28741e-07
2.22468e-07
2.28639e-07
2.28699e-07
3.35344e-07
3.52899e-07
2.22458e-07
2.28648e-07
2.2869e-07
3.52933e-07
3.58313e-07
3.78321e-07
2.31035e-07
2.31077e-07
2.38849e-07
2.38889e-07
3.58327e-07
3.78337e-07
2.30998e-07
2.31083e-07
2.38807e-07
2.38899e-07
2.3104e-07
2.38784e-07
2.38852e-07
3.58355e-07
3.7837e-07
2.31029e-07
2.38796e-07
2.38842e-07
3.78407e-07
3.84427e-07
4.06685e-07
2.41716e-07
2.41755e-07
2.51096e-07
2.51136e-07
3.84438e-07
4.067e-07
2.41672e-07
2.41766e-07
2.51048e-07
2.51151e-07
2.41719e-07
2.51022e-07
2.511e-07
3.84472e-07
4.06739e-07
2.41707e-07
2.51036e-07
2.51087e-07
4.06779e-07
4.13392e-07
4.37624e-07
2.54481e-07
2.5452e-07
2.65397e-07
2.65436e-07
4.13402e-07
4.37639e-07
2.5443e-07
2.54536e-07
2.65342e-07
2.65456e-07
2.54484e-07
2.65314e-07
2.65401e-07
4.13442e-07
4.37683e-07
2.54469e-07
2.6533e-07
2.65385e-07
4.37727e-07
4.44873e-07
4.7076e-07
2.69286e-07
2.69326e-07
2.81691e-07
2.81731e-07
4.44882e-07
4.70774e-07
2.69229e-07
2.69347e-07
2.81628e-07
2.81755e-07
2.69291e-07
2.81598e-07
2.81697e-07
4.44927e-07
4.70824e-07
2.69272e-07
2.81617e-07
2.81676e-07
4.70872e-07
4.78481e-07
5.05673e-07
2.86067e-07
2.86107e-07
2.99898e-07
2.99937e-07
4.7849e-07
5.05687e-07
2.86002e-07
2.86132e-07
2.99826e-07
2.99966e-07
2.86074e-07
2.99794e-07
2.99905e-07
4.7854e-07
5.05742e-07
2.8605e-07
2.99818e-07
2.99879e-07
5.05795e-07
5.13789e-07
5.41923e-07
3.04736e-07
3.04777e-07
3.19916e-07
3.19956e-07
5.13797e-07
5.41936e-07
3.04663e-07
3.04807e-07
3.19836e-07
3.19989e-07
3.04746e-07
3.19803e-07
3.19927e-07
5.13853e-07
5.41996e-07
3.04715e-07
3.19831e-07
3.19893e-07
5.42053e-07
5.50351e-07
5.79063e-07
3.2519e-07
3.25231e-07
3.41631e-07
3.41669e-07
5.50358e-07
5.79075e-07
3.25108e-07
3.25265e-07
3.41539e-07
3.41707e-07
3.25203e-07
3.41507e-07
3.41645e-07
5.50419e-07
5.79141e-07
3.25164e-07
3.4154e-07
3.41602e-07
5.79202e-07
5.87721e-07
6.16669e-07
3.47307e-07
3.47347e-07
3.64909e-07
3.64945e-07
5.87726e-07
6.16681e-07
3.47215e-07
3.47386e-07
3.64805e-07
3.64988e-07
3.47325e-07
3.64775e-07
3.64927e-07
5.87793e-07
6.16752e-07
3.47276e-07
3.64813e-07
3.64873e-07
6.16816e-07
6.25477e-07
6.54355e-07
3.70953e-07
3.70992e-07
3.89607e-07
3.8964e-07
6.25482e-07
6.54367e-07
3.7085e-07
3.71036e-07
3.89491e-07
3.89687e-07
3.70976e-07
3.89463e-07
3.89628e-07
6.25553e-07
6.54442e-07
3.70916e-07
3.89506e-07
3.89563e-07
6.54509e-07
6.63239e-07
6.91782e-07
3.95979e-07
3.96018e-07
4.15569e-07
4.15599e-07
6.63244e-07
6.91793e-07
3.95867e-07
3.96066e-07
4.15441e-07
4.1565e-07
3.96008e-07
4.15415e-07
4.15595e-07
6.63319e-07
6.91873e-07
3.95937e-07
4.15464e-07
4.15517e-07
6.91942e-07
7.00676e-07
7.28669e-07
4.2223e-07
4.22268e-07
4.4263e-07
4.42657e-07
7.0068e-07
7.2868e-07
4.22107e-07
4.2232e-07
4.42491e-07
4.42714e-07
4.22266e-07
4.42469e-07
4.42662e-07
7.0076e-07
7.28763e-07
4.22182e-07
4.42524e-07
4.42572e-07
7.28834e-07
7.37518e-07
7.64794e-07
4.49541e-07
4.49575e-07
4.70623e-07
4.70647e-07
7.37521e-07
7.64805e-07
4.49407e-07
4.49631e-07
4.70473e-07
4.70707e-07
4.49583e-07
4.70455e-07
4.70661e-07
7.37603e-07
7.6489e-07
4.49485e-07
4.70516e-07
4.70558e-07
7.64962e-07
7.7355e-07
7.99989e-07
4.77739e-07
4.7777e-07
4.99373e-07
4.99392e-07
7.73553e-07
7.99999e-07
4.77594e-07
4.7783e-07
4.99212e-07
4.99457e-07
4.77788e-07
4.99199e-07
4.99417e-07
7.73637e-07
8.00086e-07
4.77677e-07
4.99266e-07
4.99301e-07
8.0016e-07
8.08614e-07
8.34122e-07
5.0665e-07
5.06677e-07
5.28702e-07
5.28717e-07
8.08616e-07
8.34132e-07
5.06495e-07
5.0674e-07
5.28531e-07
5.28787e-07
5.06705e-07
5.28523e-07
5.28753e-07
8.08702e-07
8.34221e-07
5.06581e-07
5.28597e-07
5.28624e-07
8.34297e-07
8.42559e-07
8.67135e-07
5.36096e-07
5.36118e-07
5.58435e-07
5.58444e-07
8.42563e-07
8.67143e-07
5.35932e-07
5.36185e-07
5.58255e-07
5.5852e-07
5.36158e-07
5.58251e-07
5.58492e-07
8.42651e-07
8.67234e-07
5.36021e-07
5.58332e-07
5.58351e-07
8.67308e-07
8.75366e-07
8.98982e-07
5.65903e-07
5.65919e-07
5.88397e-07
5.88401e-07
8.75368e-07
8.98988e-07
5.65729e-07
5.65989e-07
5.88209e-07
5.88482e-07
5.65971e-07
5.88209e-07
5.8846e-07
8.75458e-07
8.9908e-07
5.65822e-07
5.88297e-07
5.88307e-07
8.99153e-07
9.06992e-07
9.29635e-07
5.95896e-07
5.95906e-07
6.18418e-07
6.18417e-07
9.06991e-07
9.29638e-07
5.95714e-07
5.9598e-07
6.18223e-07
6.18502e-07
5.9597e-07
6.18228e-07
6.18487e-07
9.07083e-07
9.29733e-07
5.95809e-07
6.18323e-07
6.18324e-07
9.29805e-07
9.37413e-07
9.59085e-07
6.25907e-07
6.2591e-07
6.48335e-07
6.4833e-07
9.37411e-07
9.59086e-07
6.25718e-07
6.25989e-07
6.48136e-07
6.48417e-07
6.25985e-07
6.48144e-07
6.4841e-07
9.37505e-07
9.59184e-07
6.25815e-07
6.48247e-07
6.48238e-07
9.59254e-07
9.66625e-07
9.87335e-07
6.55776e-07
6.55771e-07
6.77999e-07
6.77983e-07
9.66621e-07
9.87332e-07
6.5558e-07
6.55856e-07
6.77792e-07
6.78075e-07
6.55858e-07
6.77804e-07
6.78077e-07
9.66717e-07
9.87433e-07
6.55679e-07
6.77914e-07
6.77896e-07
9.87501e-07
9.94629e-07
1.0144e-06
6.85356e-07
6.85342e-07
7.07264e-07
7.07245e-07
9.94626e-07
1.01439e-06
6.8515e-07
6.8543e-07
7.07055e-07
7.07338e-07
6.85438e-07
7.07071e-07
7.07347e-07
9.94726e-07
1.0145e-06
6.8525e-07
7.07187e-07
7.0716e-07
1.01456e-06
1.02145e-06
1.0403e-06
7.14503e-07
7.14485e-07
7.36008e-07
7.35988e-07
1.02145e-06
1.04029e-06
7.14294e-07
7.14578e-07
7.35799e-07
7.36083e-07
7.1459e-07
7.3582e-07
7.36098e-07
1.02155e-06
1.0404e-06
7.14396e-07
7.35942e-07
7.35905e-07
1.04046e-06
1.04711e-06
1.06508e-06
7.43099e-07
7.4308e-07
7.64121e-07
7.64097e-07
1.04711e-06
1.06507e-06
7.4289e-07
7.43175e-07
7.63912e-07
7.64196e-07
7.43193e-07
7.63937e-07
7.64216e-07
1.04721e-06
1.06518e-06
7.42993e-07
7.64064e-07
7.64019e-07
1.06524e-06
1.07166e-06
1.08876e-06
7.71039e-07
7.71014e-07
7.91504e-07
7.91473e-07
1.07165e-06
1.08875e-06
7.70829e-07
7.71113e-07
7.91293e-07
7.91576e-07
7.71136e-07
7.91322e-07
7.91601e-07
1.07176e-06
1.08886e-06
7.70933e-07
7.91453e-07
7.91401e-07
1.08892e-06
1.09511e-06
1.11138e-06
7.98226e-07
7.98194e-07
8.18072e-07
8.18033e-07
1.0951e-06
1.11137e-06
7.98014e-07
7.98296e-07
8.1786e-07
8.18139e-07
7.98324e-07
8.17892e-07
8.18169e-07
1.09521e-06
1.11148e-06
7.98118e-07
8.18027e-07
8.17967e-07
1.11154e-06
1.11751e-06
1.13297e-06
8.24577e-07
8.24537e-07
8.43754e-07
8.43707e-07
1.1175e-06
1.13296e-06
8.24365e-07
8.24644e-07
8.43541e-07
8.43817e-07
8.24676e-07
8.43577e-07
8.43851e-07
1.11761e-06
1.13307e-06
8.24469e-07
8.43715e-07
8.43648e-07
1.13312e-06
1.13888e-06
1.15355e-06
8.5003e-07
8.49981e-07
8.68498e-07
8.68442e-07
1.13887e-06
1.15354e-06
8.49817e-07
8.50091e-07
8.68284e-07
8.68556e-07
8.50128e-07
8.68324e-07
8.68593e-07
1.13898e-06
1.15365e-06
8.4992e-07
8.68463e-07
8.6839e-07
1.1537e-06
1.15925e-06
1.17316e-06
8.74532e-07
8.74475e-07
8.92264e-07
8.92199e-07
1.15924e-06
1.17315e-06
8.74318e-07
8.74589e-07
8.92049e-07
8.92317e-07
8.74629e-07
8.92092e-07
8.92357e-07
1.15935e-06
1.17326e-06
8.74421e-07
8.92233e-07
8.92154e-07
1.17331e-06
1.17866e-06
1.19183e-06
8.98049e-07
8.97983e-07
9.15024e-07
9.14951e-07
1.17865e-06
1.19182e-06
8.97834e-07
8.98101e-07
9.14809e-07
9.15072e-07
8.98143e-07
9.14855e-07
9.15115e-07
1.17876e-06
1.19193e-06
8.97935e-07
9.14997e-07
9.14912e-07
1.19198e-06
1.19713e-06
1.20958e-06
9.20555e-07
9.20481e-07
9.36763e-07
9.36683e-07
1.19712e-06
1.20956e-06
9.2034e-07
9.20602e-07
9.36549e-07
9.36807e-07
9.20647e-07
9.36597e-07
9.36852e-07
1.19722e-06
1.20967e-06
9.2044e-07
9.36739e-07
9.3665e-07
1.20973e-06
1.21468e-06
1.22644e-06
9.42038e-07
9.41957e-07
9.57476e-07
9.5739e-07
1.21467e-06
1.22642e-06
9.41823e-07
9.4208e-07
9.57262e-07
9.57515e-07
9.42127e-07
9.57313e-07
9.57563e-07
1.21478e-06
1.22653e-06
9.41921e-07
9.57455e-07
9.57362e-07
1.22658e-06
1.23136e-06
1.24244e-06
9.62496e-07
9.62409e-07
9.7718e-07
9.77088e-07
1.23135e-06
1.24242e-06
9.62282e-07
9.62534e-07
9.76965e-07
9.77214e-07
9.62583e-07
9.77019e-07
9.77263e-07
1.23146e-06
1.24253e-06
9.62378e-07
9.77161e-07
9.77063e-07
1.24258e-06
1.24718e-06
1.25761e-06
9.81949e-07
9.81856e-07
9.9588e-07
9.95783e-07
1.24717e-06
1.25759e-06
9.81735e-07
9.81982e-07
9.95667e-07
9.9591e-07
9.82033e-07
9.95722e-07
9.95961e-07
1.24728e-06
1.2577e-06
9.8183e-07
9.95863e-07
9.95762e-07
1.25775e-06
1.26218e-06
1.27198e-06
1.0004e-06
1.0003e-06
1.01358e-06
1.01348e-06
1.26217e-06
1.27196e-06
1.00019e-06
1.00043e-06
1.01337e-06
1.01361e-06
1.00048e-06
1.01343e-06
1.01366e-06
1.26228e-06
1.27207e-06
1.00028e-06
1.01357e-06
1.01346e-06
1.27212e-06
1.27639e-06
1.28557e-06
1.01786e-06
1.01775e-06
1.03031e-06
1.0302e-06
1.27637e-06
1.28555e-06
1.01764e-06
1.01788e-06
1.03009e-06
1.03033e-06
1.01793e-06
1.03015e-06
1.03038e-06
1.27647e-06
1.28565e-06
1.01773e-06
1.03029e-06
1.03019e-06
1.2857e-06
1.28981e-06
1.2984e-06
1.03434e-06
1.03423e-06
1.04607e-06
1.04596e-06
1.28979e-06
1.29838e-06
1.03412e-06
1.03436e-06
1.04585e-06
1.04608e-06
1.03441e-06
1.04592e-06
1.04614e-06
1.2899e-06
1.29848e-06
1.03421e-06
1.04605e-06
1.04594e-06
1.29853e-06
1.30249e-06
1.3105e-06
1.04986e-06
1.04975e-06
1.06088e-06
1.06077e-06
1.30247e-06
1.31048e-06
1.04965e-06
1.04988e-06
1.06067e-06
1.0609e-06
1.04993e-06
1.06074e-06
1.06095e-06
1.30258e-06
1.31058e-06
1.04973e-06
1.06087e-06
1.06076e-06
1.31062e-06
1.31444e-06
1.32189e-06
1.06444e-06
1.06433e-06
1.07478e-06
1.07467e-06
1.31442e-06
1.32187e-06
1.06424e-06
1.06446e-06
1.07458e-06
1.0748e-06
1.06451e-06
1.07464e-06
1.07485e-06
1.31452e-06
1.32197e-06
1.06432e-06
1.07477e-06
1.07466e-06
1.32201e-06
1.32569e-06
1.33259e-06
1.07812e-06
1.07801e-06
1.08779e-06
1.08768e-06
1.32567e-06
1.33257e-06
1.07791e-06
1.07813e-06
1.08758e-06
1.0878e-06
1.07818e-06
1.08765e-06
1.08785e-06
1.32577e-06
1.33267e-06
1.07799e-06
1.08778e-06
1.08766e-06
1.33271e-06
1.33625e-06
1.34262e-06
1.09091e-06
1.09079e-06
1.09993e-06
1.09981e-06
1.33623e-06
1.3426e-06
1.0907e-06
1.09091e-06
1.09972e-06
1.09993e-06
1.09097e-06
1.09979e-06
1.09998e-06
1.33633e-06
1.3427e-06
1.09078e-06
1.09991e-06
1.0998e-06
1.34274e-06
1.34615e-06
1.35201e-06
1.10283e-06
1.10271e-06
1.11122e-06
1.1111e-06
1.34613e-06
1.35199e-06
1.10262e-06
1.10284e-06
1.11101e-06
1.11123e-06
1.10289e-06
1.11109e-06
1.11128e-06
1.34623e-06
1.35208e-06
1.1027e-06
1.11121e-06
1.11109e-06
1.35212e-06
1.35541e-06
1.36077e-06
1.11391e-06
1.1138e-06
1.1217e-06
1.12158e-06
1.35539e-06
1.36075e-06
1.11371e-06
1.11392e-06
1.1215e-06
1.1217e-06
1.11397e-06
1.12157e-06
1.12175e-06
1.35548e-06
1.36084e-06
1.11379e-06
1.12169e-06
1.12157e-06
1.36088e-06
1.36404e-06
1.36892e-06
1.12419e-06
1.12408e-06
1.13139e-06
1.13127e-06
1.36402e-06
1.3689e-06
1.12399e-06
1.1242e-06
1.13119e-06
1.13139e-06
1.12425e-06
1.13126e-06
1.13144e-06
1.36412e-06
1.36899e-06
1.12407e-06
1.13138e-06
1.13126e-06
1.36903e-06
1.37207e-06
1.37648e-06
1.13369e-06
1.13357e-06
1.14031e-06
1.1402e-06
1.37206e-06
1.37646e-06
1.13349e-06
1.13369e-06
1.14011e-06
1.14032e-06
1.13374e-06
1.14019e-06
1.14036e-06
1.37215e-06
1.37655e-06
1.13356e-06
1.1403e-06
1.14018e-06
1.37659e-06
1.37952e-06
1.38346e-06
1.14243e-06
1.14231e-06
1.1485e-06
1.14838e-06
1.3795e-06
1.38345e-06
1.14223e-06
1.14243e-06
1.1483e-06
1.1485e-06
1.14248e-06
1.14838e-06
1.14855e-06
1.37959e-06
1.38354e-06
1.1423e-06
1.14849e-06
1.14837e-06
1.38357e-06
1.38639e-06
1.38989e-06
1.15043e-06
1.15032e-06
1.15597e-06
1.15585e-06
1.38638e-06
1.38987e-06
1.15024e-06
1.15044e-06
1.15577e-06
1.15597e-06
1.15048e-06
1.15585e-06
1.15601e-06
1.38647e-06
1.38996e-06
1.1503e-06
1.15596e-06
1.15584e-06
1.39e-06
1.39271e-06
1.39578e-06
1.15773e-06
1.15761e-06
1.16274e-06
1.16263e-06
1.39269e-06
1.39576e-06
1.15753e-06
1.15773e-06
1.16255e-06
1.16274e-06
1.15777e-06
1.16263e-06
1.16279e-06
1.39278e-06
1.39585e-06
1.1576e-06
1.16273e-06
1.16261e-06
1.39588e-06
1.39849e-06
1.40114e-06
1.16433e-06
1.16422e-06
1.16885e-06
1.16874e-06
1.39848e-06
1.40112e-06
1.16414e-06
1.16433e-06
1.16866e-06
1.16885e-06
1.16438e-06
1.16874e-06
1.16889e-06
1.39856e-06
1.40121e-06
1.1642e-06
1.16884e-06
1.16872e-06
1.40124e-06
1.40375e-06
1.40598e-06
1.17028e-06
1.17016e-06
1.17431e-06
1.17419e-06
1.40374e-06
1.40596e-06
1.17008e-06
1.17028e-06
1.17412e-06
1.17431e-06
1.17032e-06
1.17419e-06
1.17435e-06
1.40382e-06
1.40604e-06
1.17015e-06
1.1743e-06
1.17418e-06
1.40607e-06
1.40849e-06
1.41031e-06
1.17558e-06
1.17546e-06
1.17914e-06
1.17902e-06
1.40847e-06
1.41029e-06
1.17538e-06
1.17557e-06
1.17895e-06
1.17914e-06
1.17562e-06
1.17902e-06
1.17918e-06
1.40856e-06
1.41038e-06
1.17545e-06
1.17913e-06
1.17901e-06
1.41041e-06
1.41274e-06
1.41417e-06
1.18026e-06
1.18014e-06
1.18337e-06
1.18326e-06
1.41271e-06
1.41416e-06
1.18007e-06
1.18026e-06
1.18318e-06
1.18338e-06
1.1803e-06
1.18326e-06
1.18341e-06
1.4128e-06
1.41425e-06
1.18013e-06
1.18337e-06
1.18325e-06
1.41427e-06
1.4165e-06
1.41755e-06
1.18434e-06
1.18423e-06
1.18701e-06
1.1869e-06
1.41649e-06
1.41753e-06
1.18415e-06
1.18435e-06
1.18683e-06
1.18701e-06
1.18438e-06
1.1869e-06
1.18705e-06
1.41658e-06
1.41761e-06
1.18421e-06
1.187e-06
1.18688e-06
1.41764e-06
1.41978e-06
1.42048e-06
1.18784e-06
1.18773e-06
1.1901e-06
1.18998e-06
1.41977e-06
1.42044e-06
1.18765e-06
1.18784e-06
1.18992e-06
1.1901e-06
1.18788e-06
1.18998e-06
1.19014e-06
1.41984e-06
1.42054e-06
1.18771e-06
1.19009e-06
1.18998e-06
1.42057e-06
1.42263e-06
1.42294e-06
1.1908e-06
1.19068e-06
1.19265e-06
1.19254e-06
1.4226e-06
1.42293e-06
1.19061e-06
1.1908e-06
1.19246e-06
1.19265e-06
1.19084e-06
1.19254e-06
1.19269e-06
1.4227e-06
1.42302e-06
1.19067e-06
1.19265e-06
1.19252e-06
1.42304e-06
1.425e-06
1.42495e-06
1.1932e-06
1.1931e-06
1.19465e-06
1.19454e-06
1.425e-06
1.42494e-06
1.19302e-06
1.19321e-06
1.19446e-06
1.19465e-06
1.19325e-06
1.19454e-06
1.19469e-06
1.42508e-06
1.42501e-06
1.19308e-06
1.19464e-06
1.19452e-06
1.42504e-06
1.42694e-06
1.42662e-06
1.19509e-06
1.19498e-06
1.1962e-06
1.19608e-06
1.42692e-06
1.42658e-06
1.19491e-06
1.19509e-06
1.19602e-06
1.1962e-06
1.19513e-06
1.19608e-06
1.19623e-06
1.427e-06
1.42668e-06
1.19496e-06
1.19619e-06
1.19607e-06
1.4267e-06
1.42855e-06
1.42784e-06
1.19653e-06
1.19641e-06
1.19726e-06
1.19715e-06
1.42851e-06
1.42784e-06
1.19635e-06
1.19653e-06
1.19708e-06
1.19727e-06
1.19657e-06
1.19715e-06
1.1973e-06
1.42861e-06
1.42793e-06
1.19641e-06
1.19726e-06
1.19714e-06
1.42795e-06
1.42971e-06
1.42868e-06
1.19746e-06
1.19736e-06
1.19786e-06
1.19775e-06
1.42971e-06
1.42865e-06
1.19728e-06
1.19747e-06
1.19768e-06
1.19786e-06
1.1975e-06
1.19774e-06
1.19789e-06
1.42979e-06
1.42873e-06
1.19734e-06
1.19785e-06
1.19773e-06
1.42875e-06
1.4305e-06
1.42891e-06
1.19794e-06
1.19783e-06
1.19794e-06
1.19784e-06
1.43046e-06
1.4289e-06
1.19776e-06
1.19795e-06
1.19777e-06
1.19796e-06
1.19798e-06
1.19784e-06
1.19801e-06
1.43055e-06
1.42901e-06
1.19782e-06
1.19795e-06
1.19785e-06
1.42907e-06
1.43065e-06
1.42906e-06
1.19791e-06
1.1978e-06
1.19769e-06
1.1976e-06
1.43065e-06
1.42906e-06
1.19773e-06
1.19793e-06
1.19752e-06
1.1977e-06
1.19798e-06
1.19759e-06
1.19772e-06
1.43076e-06
1.4291e-06
1.19782e-06
1.19768e-06
1.19756e-06
1.42911e-06
1.43085e-06
1.4291e-06
1.19763e-06
1.19754e-06
1.19724e-06
1.19712e-06
1.43085e-06
1.42906e-06
1.19746e-06
1.19763e-06
1.19706e-06
1.19724e-06
1.19765e-06
1.19711e-06
1.19724e-06
1.43088e-06
1.42918e-06
1.19749e-06
1.19722e-06
1.19708e-06
1.42915e-06
1.43078e-06
1.42825e-06
1.19707e-06
1.19694e-06
1.1961e-06
1.19596e-06
1.43073e-06
1.42814e-06
1.19689e-06
1.19709e-06
1.19594e-06
1.19613e-06
1.1971e-06
1.19596e-06
1.19619e-06
1.43087e-06
1.42833e-06
1.19694e-06
1.19612e-06
1.19604e-06
1.42843e-06
1.42985e-06
1.42691e-06
1.19581e-06
1.19569e-06
1.19453e-06
1.19449e-06
1.42975e-06
1.42707e-06
1.19564e-06
1.19581e-06
1.19434e-06
1.19453e-06
1.19589e-06
1.19449e-06
1.19457e-06
1.42991e-06
1.42695e-06
1.19574e-06
1.19451e-06
1.1944e-06
1.42699e-06
1.42851e-06
1.42618e-06
1.19421e-06
1.19419e-06
1.19302e-06
1.19293e-06
1.42868e-06
1.42613e-06
1.19402e-06
1.19424e-06
1.19285e-06
1.19305e-06
1.19423e-06
1.19292e-06
1.19304e-06
1.42858e-06
1.42635e-06
1.19406e-06
1.19303e-06
1.19289e-06
1.42616e-06
1.42788e-06
1.4248e-06
1.19275e-06
1.19263e-06
1.19119e-06
1.19096e-06
1.42779e-06
1.42454e-06
1.19258e-06
1.19273e-06
1.19102e-06
1.1911e-06
1.19279e-06
1.19097e-06
1.19132e-06
1.42794e-06
1.42467e-06
1.19264e-06
1.19109e-06
1.19116e-06
1.42502e-06
1.42635e-06
1.42287e-06
1.19076e-06
1.19053e-06
1.18889e-06
1.18889e-06
1.42609e-06
1.42307e-06
1.1906e-06
1.1907e-06
1.18874e-06
1.18912e-06
1.19082e-06
1.18887e-06
1.18881e-06
1.42624e-06
1.42333e-06
1.19067e-06
1.18909e-06
1.18867e-06
1.42263e-06
1.42439e-06
1.42073e-06
1.18841e-06
1.18851e-06
1.18639e-06
1.18646e-06
1.42475e-06
1.42096e-06
1.18825e-06
1.1887e-06
1.18621e-06
1.18648e-06
1.18839e-06
1.18647e-06
1.18648e-06
1.42493e-06
1.42085e-06
1.18824e-06
1.18647e-06
1.18632e-06
1.42108e-06
1.42225e-06
1.41795e-06
1.18582e-06
1.18578e-06
1.18308e-06
1.18252e-06
1.4224e-06
1.41686e-06
1.18563e-06
1.18558e-06
1.18288e-06
1.18249e-06
1.18584e-06
1.18249e-06
1.18317e-06
1.42224e-06
1.41641e-06
1.18566e-06
1.18247e-06
1.18298e-06
1.41786e-06
1.41943e-06
1.41751e-06
1.18236e-06
1.1817e-06
1.18111e-06
1.18069e-06
1.41828e-06
1.41683e-06
1.18219e-06
1.18204e-06
1.18107e-06
1.18216e-06
1.18268e-06
1.18073e-06
1.18167e-06
1.41795e-06
1.41992e-06
1.1825e-06
1.18221e-06
1.18163e-06
1.41877e-06
1.41991e-06
1.41492e-06
1.18108e-06
1.18096e-06
1.17972e-06
1.18131e-06
1.41973e-06
1.42031e-06
1.18106e-06
1.18242e-06
1.17954e-06
1.17934e-06
1.18131e-06
1.18123e-06
1.17725e-06
1.42272e-06
1.41376e-06
1.18132e-06
1.17911e-06
1.17705e-06
1.41104e-06
1.41552e-06
1.39737e-06
1.17725e-06
1.18e-06
1.16824e-06
1.16731e-06
1.42115e-06
1.39519e-06
1.17683e-06
1.17594e-06
1.16801e-06
1.16829e-06
1.17548e-06
1.16744e-06
1.17192e-06
1.41399e-06
1.39802e-06
1.17511e-06
1.16851e-06
1.17169e-06
1.40614e-06
1.39907e-06
1.42592e-06
1.16759e-06
1.16472e-06
1.17763e-06
1.1695e-06
1.39561e-06
1.40966e-06
1.16759e-06
1.16831e-06
1.17853e-06
1.17937e-06
1.17208e-06
1.16974e-06
1.17672e-06
1.40117e-06
1.42745e-06
1.17204e-06
1.17942e-06
1.17757e-06
1.42251e-06
1.43692e-06
1.42891e-06
1.18378e-06
1.17821e-06
1.18519e-06
1.18929e-06
1.42192e-06
1.4468e-06
1.1843e-06
1.18317e-06
1.18405e-06
1.17832e-06
1.17757e-06
1.18818e-06
1.17066e-06
1.43506e-06
1.41434e-06
1.17815e-06
1.17657e-06
1.16889e-06
1.40228e-06
1.42328e-06
1.31688e-06
1.17338e-06
1.18533e-06
1.0717e-06
1.07877e-06
1.44463e-06
1.33424e-06
1.17114e-06
1.16581e-06
1.0713e-06
1.07699e-06
1.16317e-06
1.0801e-06
1.08779e-06
1.4101e-06
1.32775e-06
1.16137e-06
1.07852e-06
1.08739e-06
1.34841e-06
1.29496e-06
1.04712e-06
1.0515e-06
1.30661e-06
1.04715e-06
1.05348e-06
7.33166e-07
7.32359e-07
7.35015e-07
1.06428e-06
1.30824e-06
1.06458e-06
5.35653e-07
5.35523e-07
5.35636e-07
5.35636e-07
5.34569e-07
5.35437e-07
5.33636e-07
5.35608e-07
5.34569e-07
5.35437e-07
5.35608e-07
5.33635e-07
5.35196e-07
5.35984e-07
5.35983e-07
1.10752e-06
3.87706e-06
9.31517e-07
4.60281e-06
1.25997e-05
1.65964e-05
1.10795e-06
3.87738e-06
9.31279e-07
4.60373e-06
4.9917e-07
4.9917e-07
4.9917e-07
4.57218e-07
4.57218e-07
4.57218e-07
4.57218e-07
5.43021e-07
1.21905e-06
4.99137e-07
4.86017e-07
5.24982e-07
1.20925e-06
4.82349e-07
1.26009e-05
1.65978e-05
5.43028e-07
4.99137e-07
1.21903e-06
4.86017e-07
5.2498e-07
4.82349e-07
1.20923e-06
2.51859e-06
2.51919e-06
4.84044e-07
2.37583e-06
2.37655e-06
1.43236e-06
5.59145e-06
1.33113e-06
6.13443e-06
2.12857e-05
2.31129e-05
1.43272e-06
5.59222e-06
1.33093e-06
6.13568e-06
4.45574e-07
4.45575e-07
4.45575e-07
4.13574e-07