/*--------------------------------*- C++ -*----------------------------------*\
| =========                 |                                                 |
| \\      /  F ield         | OpenFOAM: The Open Source CFD Toolbox           |
|  \\    /   O peration     | Version:                                        |
|   \\  /    A nd           | Website:  www.openfoam.com                      |
|    \\/     M anipulation  |                                                 |
\*---------------------------------------------------------------------------*/
FoamFile
{
    version     2.0;
    format      ascii;
    class       volScalarField;
    location    "900";
    object      k;
}
// * * * * * * * * * * * * * * * * * * * * * * * * * * * * * * * * * * * * * //

dimensions      [0 2 -2 0 0 0 0];


internalField   nonuniform List<scalar> 
172512
(
3.60232e-05
3.60198e-05
3.60198e-05
3.60083e-05
3.39295e-05
3.38866e-05
3.38866e-05
3.39613e-05
3.21573e-05
3.20054e-05
3.20054e-05
3.19506e-05
3.05337e-05
3.02265e-05
3.02264e-05
2.99865e-05
2.90316e-05
2.85512e-05
2.85511e-05
2.81205e-05
2.76339e-05
2.69845e-05
2.69844e-05
2.63886e-05
2.63292e-05
2.55284e-05
2.55283e-05
2.48054e-05
2.51095e-05
2.41824e-05
2.41823e-05
2.33766e-05
2.39692e-05
2.29482e-05
2.29481e-05
2.21035e-05
2.2904e-05
2.18246e-05
2.18245e-05
2.09852e-05
2.19103e-05
2.08093e-05
2.08091e-05
2.0013e-05
2.09848e-05
1.98994e-05
1.98992e-05
1.91813e-05
2.01224e-05
1.90929e-05
1.90928e-05
1.84898e-05
1.93222e-05
1.83869e-05
1.83868e-05
1.79337e-05
1.85831e-05
1.77779e-05
1.77778e-05
1.75073e-05
1.79026e-05
1.72644e-05
1.72644e-05
1.72015e-05
1.72783e-05
1.68456e-05
1.68455e-05
1.7024e-05
1.67082e-05
1.65204e-05
1.65203e-05
1.69835e-05
1.61909e-05
1.62889e-05
1.62889e-05
1.70806e-05
1.5724e-05
1.61512e-05
1.61513e-05
1.73056e-05
1.53059e-05
1.61069e-05
1.61071e-05
1.76586e-05
1.4936e-05
1.61532e-05
1.61533e-05
1.81354e-05
1.46132e-05
1.62917e-05
1.62919e-05
1.87297e-05
1.43368e-05
1.65198e-05
1.65202e-05
1.94286e-05
1.41066e-05
1.68352e-05
1.68356e-05
2.02207e-05
1.3922e-05
1.72348e-05
1.72354e-05
2.10937e-05
1.37829e-05
1.7715e-05
1.77158e-05
2.20343e-05
1.36891e-05
1.82719e-05
1.82727e-05
2.30282e-05
1.36406e-05
1.89007e-05
1.89018e-05
2.40618e-05
1.36373e-05
1.95966e-05
1.95978e-05
2.51221e-05
1.36795e-05
2.0354e-05
2.03555e-05
2.61975e-05
1.37678e-05
2.11673e-05
2.1169e-05
2.72781e-05
1.39023e-05
2.20303e-05
2.20321e-05
2.83558e-05
1.40831e-05
2.29366e-05
2.29387e-05
2.94243e-05
1.43106e-05
2.38798e-05
2.3882e-05
3.04786e-05
1.45847e-05
2.48535e-05
2.4856e-05
3.15152e-05
1.49054e-05
2.58515e-05
2.58542e-05
3.25318e-05
1.52722e-05
2.68673e-05
2.68702e-05
3.35262e-05
1.56847e-05
2.78948e-05
2.78979e-05
3.44975e-05
1.61419e-05
2.89284e-05
2.89317e-05
3.54446e-05
1.66426e-05
2.99631e-05
2.99666e-05
3.63665e-05
1.71853e-05
3.09949e-05
3.09986e-05
3.72632e-05
1.77682e-05
3.2019e-05
3.20229e-05
3.8135e-05
1.8389e-05
3.30312e-05
3.30352e-05
3.89819e-05
1.9045e-05
3.40278e-05
3.40319e-05
3.98038e-05
1.97334e-05
3.50056e-05
3.50098e-05
4.0601e-05
2.04507e-05
3.5962e-05
3.59663e-05
4.13732e-05
2.11935e-05
3.6895e-05
3.68994e-05
4.21207e-05
2.19579e-05
3.78029e-05
3.78073e-05
4.28434e-05
2.27403e-05
3.86844e-05
3.86887e-05
4.35417e-05
2.35366e-05
3.95384e-05
3.95428e-05
4.42156e-05
2.43431e-05
4.03644e-05
4.03688e-05
4.48653e-05
2.51558e-05
4.11619e-05
4.11663e-05
4.54913e-05
2.59711e-05
4.19304e-05
4.19348e-05
4.60936e-05
2.67854e-05
4.267e-05
4.26743e-05
4.66727e-05
2.75954e-05
4.33805e-05
4.33849e-05
4.72287e-05
2.8398e-05
4.40622e-05
4.40666e-05
4.7762e-05
2.91902e-05
4.47153e-05
4.47197e-05
4.82729e-05
2.99695e-05
4.534e-05
4.53443e-05
4.87618e-05
3.07336e-05
4.59367e-05
4.59408e-05
4.92289e-05
3.14802e-05
4.65056e-05
4.65096e-05
4.96747e-05
3.22075e-05
4.7047e-05
4.7051e-05
5.00994e-05
3.29137e-05
4.75615e-05
4.75654e-05
5.05034e-05
3.35974e-05
4.80493e-05
4.80531e-05
5.08869e-05
3.42572e-05
4.85109e-05
4.85146e-05
5.12502e-05
3.48923e-05
4.89466e-05
4.89502e-05
5.15936e-05
3.55016e-05
4.93567e-05
4.93603e-05
5.19174e-05
3.60844e-05
4.97417e-05
4.97453e-05
5.22218e-05
3.664e-05
5.01021e-05
5.01055e-05
5.25068e-05
3.71681e-05
5.04384e-05
5.0442e-05
5.27735e-05
3.76683e-05
5.07503e-05
5.07537e-05
5.30205e-05
3.814e-05
5.10387e-05
5.10425e-05
5.32494e-05
3.85843e-05
5.13065e-05
5.13094e-05
5.34624e-05
3.89998e-05
5.15482e-05
5.15517e-05
5.36531e-05
3.9387e-05
5.17674e-05
5.17716e-05
5.38307e-05
3.97477e-05
5.19722e-05
5.19761e-05
5.39912e-05
4.00799e-05
5.21473e-05
5.21479e-05
5.41272e-05
4.03865e-05
5.23048e-05
5.23117e-05
5.42611e-05
4.06672e-05
5.24493e-05
5.24516e-05
5.43689e-05
4.09163e-05
5.25566e-05
5.25584e-05
5.44493e-05
4.11491e-05
5.26636e-05
5.26692e-05
5.4543e-05
4.13564e-05
5.27512e-05
5.27532e-05
5.4608e-05
4.15415e-05
5.28194e-05
5.28218e-05
5.46625e-05
4.16888e-05
5.28392e-05
5.28468e-05
5.46772e-05
4.18204e-05
5.2879e-05
5.28744e-05
5.46836e-05
4.19682e-05
5.294e-05
5.29505e-05
5.47687e-05
4.20663e-05
5.29254e-05
5.29403e-05
5.47762e-05
4.21045e-05
5.28637e-05
5.28575e-05
5.46117e-05
4.21739e-05
5.28807e-05
5.28798e-05
5.47072e-05
4.22634e-05
5.28539e-05
5.28621e-05
5.47629e-05
4.22659e-05
5.28349e-05
5.28452e-05
5.45251e-05
4.22841e-05
5.28343e-05
5.28484e-05
5.47112e-05
4.22225e-05
5.23717e-05
5.22761e-05
5.4065e-05
4.23281e-05
5.26219e-05
5.33934e-05
5.56114e-05
4.44476e-05
5.22572e-05
5.1264e-05
5.34689e-05
3.62983e-05
3.62919e-05
3.62919e-05
3.62984e-05
3.62919e-05
3.62919e-05
3.62908e-05
3.62908e-05
3.62908e-05
3.62908e-05
3.62919e-05
3.62919e-05
3.62984e-05
3.62919e-05
3.62919e-05
3.62984e-05
3.60083e-05
3.42678e-05
3.60198e-05
3.60198e-05
3.43746e-05
3.43745e-05
3.60083e-05
3.42678e-05
3.60198e-05
3.60198e-05
3.43746e-05
3.43745e-05
3.60198e-05
3.43746e-05
3.43746e-05
3.60083e-05
3.42678e-05
3.60198e-05
3.43746e-05
3.43746e-05
3.42678e-05
3.39613e-05
3.2262e-05
3.38865e-05
3.38865e-05
3.24657e-05
3.24656e-05
3.39613e-05
3.2262e-05
3.38866e-05
3.38865e-05
3.24658e-05
3.24656e-05
3.38865e-05
3.24658e-05
3.24657e-05
3.39613e-05
3.2262e-05
3.38866e-05
3.24658e-05
3.24657e-05
3.22619e-05
3.19507e-05
3.02976e-05
3.20052e-05
3.20051e-05
3.06615e-05
3.06613e-05
3.19507e-05
3.02975e-05
3.20053e-05
3.20051e-05
3.06616e-05
3.06613e-05
3.20052e-05
3.06617e-05
3.06614e-05
3.19506e-05
3.02975e-05
3.20053e-05
3.06617e-05
3.06616e-05
3.02974e-05
2.99866e-05
2.84235e-05
3.02261e-05
3.0226e-05
2.89596e-05
2.89594e-05
2.99866e-05
2.84235e-05
3.02263e-05
3.02259e-05
2.89598e-05
2.89593e-05
3.02261e-05
2.89599e-05
2.89595e-05
2.99865e-05
2.84233e-05
3.02263e-05
2.89599e-05
2.89597e-05
2.84232e-05
2.81207e-05
2.66722e-05
2.85508e-05
2.85506e-05
2.73652e-05
2.7365e-05
2.81207e-05
2.66721e-05
2.8551e-05
2.85505e-05
2.73656e-05
2.73649e-05
2.85507e-05
2.73657e-05
2.73651e-05
2.81206e-05
2.66719e-05
2.85509e-05
2.73657e-05
2.73655e-05
2.66718e-05
2.6389e-05
2.50647e-05
2.69839e-05
2.69836e-05
2.58814e-05
2.58812e-05
2.63889e-05
2.50646e-05
2.69842e-05
2.69835e-05
2.58819e-05
2.5881e-05
2.69838e-05
2.5882e-05
2.58813e-05
2.63888e-05
2.50644e-05
2.69841e-05
2.5882e-05
2.58817e-05
2.50642e-05
2.48059e-05
2.36112e-05
2.55277e-05
2.55274e-05
2.45077e-05
2.45074e-05
2.48058e-05
2.36111e-05
2.55282e-05
2.55273e-05
2.45082e-05
2.45072e-05
2.55276e-05
2.45084e-05
2.45075e-05
2.48056e-05
2.36109e-05
2.5528e-05
2.45083e-05
2.4508e-05
2.36106e-05
2.33771e-05
2.23115e-05
2.41816e-05
2.41813e-05
2.32454e-05
2.32451e-05
2.3377e-05
2.23114e-05
2.41822e-05
2.41812e-05
2.3246e-05
2.32449e-05
2.41815e-05
2.32462e-05
2.32453e-05
2.33768e-05
2.23112e-05
2.4182e-05
2.32461e-05
2.32459e-05
2.23109e-05
2.2104e-05
2.11676e-05
2.29473e-05
2.2947e-05
2.20942e-05
2.20939e-05
2.21039e-05
2.11675e-05
2.29479e-05
2.29468e-05
2.2095e-05
2.20937e-05
2.29472e-05
2.20952e-05
2.20941e-05
2.21037e-05
2.11672e-05
2.29478e-05
2.20951e-05
2.20948e-05
2.1167e-05
2.09859e-05
2.01706e-05
2.18236e-05
2.18233e-05
2.1052e-05
2.10517e-05
2.09858e-05
2.01705e-05
2.18243e-05
2.18231e-05
2.10528e-05
2.10515e-05
2.18235e-05
2.1053e-05
2.10519e-05
2.09855e-05
2.01702e-05
2.18242e-05
2.10529e-05
2.10526e-05
2.017e-05
2.00136e-05
1.93149e-05
2.08082e-05
2.08079e-05
2.01159e-05
2.01157e-05
2.00135e-05
1.93148e-05
2.0809e-05
2.08077e-05
2.01168e-05
2.01155e-05
2.08081e-05
2.0117e-05
2.01159e-05
2.00132e-05
1.93145e-05
2.08088e-05
2.01169e-05
2.01167e-05
1.93142e-05
1.91817e-05
1.85913e-05
1.98982e-05
1.98979e-05
1.92837e-05
1.92834e-05
1.91818e-05
1.85911e-05
1.98991e-05
1.98978e-05
1.92846e-05
1.92833e-05
1.98982e-05
1.92848e-05
1.92836e-05
1.91814e-05
1.85908e-05
1.9899e-05
1.92847e-05
1.92844e-05
1.85905e-05
1.84902e-05
1.79989e-05
1.90918e-05
1.90916e-05
1.85528e-05
1.85526e-05
1.84903e-05
1.79987e-05
1.90927e-05
1.90914e-05
1.85537e-05
1.85524e-05
1.90918e-05
1.85539e-05
1.85528e-05
1.84899e-05
1.79985e-05
1.90926e-05
1.85538e-05
1.85536e-05
1.79983e-05
1.7934e-05
1.75405e-05
1.83858e-05
1.83856e-05
1.79198e-05
1.79197e-05
1.79341e-05
1.75404e-05
1.83867e-05
1.83855e-05
1.79207e-05
1.79195e-05
1.83858e-05
1.79208e-05
1.79198e-05
1.79338e-05
1.75402e-05
1.83866e-05
1.79208e-05
1.79207e-05
1.754e-05
1.75076e-05
1.7219e-05
1.77769e-05
1.77767e-05
1.73824e-05
1.73824e-05
1.75077e-05
1.7219e-05
1.77778e-05
1.77766e-05
1.73833e-05
1.73823e-05
1.77769e-05
1.73834e-05
1.73825e-05
1.75074e-05
1.72188e-05
1.77777e-05
1.73834e-05
1.73833e-05
1.72187e-05
1.72017e-05
1.70274e-05
1.72634e-05
1.72634e-05
1.69399e-05
1.69399e-05
1.72018e-05
1.70275e-05
1.72643e-05
1.72633e-05
1.69407e-05
1.69398e-05
1.72635e-05
1.69408e-05
1.694e-05
1.72015e-05
1.70273e-05
1.72643e-05
1.69407e-05
1.69408e-05
1.70274e-05
1.7024e-05
1.69739e-05
1.68447e-05
1.68447e-05
1.65911e-05
1.65912e-05
1.70242e-05
1.69741e-05
1.68455e-05
1.68446e-05
1.65918e-05
1.65911e-05
1.68448e-05
1.65918e-05
1.65912e-05
1.7024e-05
1.6974e-05
1.68455e-05
1.65918e-05
1.65919e-05
1.69741e-05
1.69833e-05
1.70448e-05
1.65196e-05
1.65197e-05
1.6336e-05
1.63361e-05
1.69835e-05
1.70451e-05
1.65203e-05
1.65196e-05
1.63366e-05
1.63361e-05
1.65197e-05
1.63366e-05
1.63361e-05
1.69834e-05
1.7045e-05
1.65205e-05
1.63366e-05
1.63368e-05
1.70451e-05
1.70803e-05
1.72448e-05
1.62883e-05
1.62885e-05
1.61745e-05
1.61748e-05
1.70806e-05
1.7245e-05
1.62889e-05
1.62884e-05
1.61751e-05
1.61748e-05
1.62885e-05
1.6175e-05
1.61748e-05
1.70805e-05
1.72451e-05
1.62891e-05
1.61751e-05
1.61754e-05
1.72453e-05
1.73051e-05
1.75732e-05
1.61507e-05
1.6151e-05
1.61065e-05
1.61068e-05
1.73053e-05
1.75734e-05
1.61513e-05
1.6151e-05
1.61069e-05
1.61069e-05
1.6151e-05
1.61068e-05
1.61068e-05
1.73054e-05
1.75735e-05
1.61516e-05
1.61069e-05
1.61074e-05
1.75739e-05
1.7658e-05
1.80262e-05
1.61066e-05
1.6107e-05
1.61324e-05
1.61327e-05
1.76581e-05
1.80263e-05
1.61071e-05
1.61071e-05
1.61327e-05
1.61329e-05
1.61069e-05
1.61325e-05
1.61327e-05
1.76583e-05
1.80266e-05
1.61075e-05
1.61327e-05
1.61333e-05
1.8027e-05
1.81347e-05
1.85977e-05
1.6153e-05
1.61533e-05
1.62484e-05
1.62488e-05
1.81348e-05
1.85977e-05
1.61533e-05
1.61536e-05
1.62486e-05
1.62491e-05
1.61533e-05
1.62484e-05
1.62488e-05
1.81351e-05
1.85982e-05
1.61539e-05
1.62487e-05
1.62494e-05
1.85987e-05
1.87288e-05
1.92758e-05
1.62917e-05
1.6292e-05
1.64546e-05
1.6455e-05
1.87288e-05
1.92758e-05
1.62919e-05
1.62924e-05
1.64547e-05
1.64554e-05
1.62921e-05
1.64544e-05
1.64551e-05
1.87293e-05
1.92763e-05
1.62926e-05
1.64548e-05
1.64555e-05
1.9277e-05
1.94275e-05
2.00487e-05
1.652e-05
1.65204e-05
1.67486e-05
1.67491e-05
1.94275e-05
2.00489e-05
1.65201e-05
1.65209e-05
1.67486e-05
1.67497e-05
1.65206e-05
1.67482e-05
1.67493e-05
1.94281e-05
2.00496e-05
1.65209e-05
1.67488e-05
1.67496e-05
2.00503e-05
2.02193e-05
2.0905e-05
1.68356e-05
1.6836e-05
1.71277e-05
1.71282e-05
2.02194e-05
2.09051e-05
1.68355e-05
1.68367e-05
1.71275e-05
1.71289e-05
1.68363e-05
1.71271e-05
1.71285e-05
2.02201e-05
2.09059e-05
1.68364e-05
1.71278e-05
1.71286e-05
2.09068e-05
2.10921e-05
2.18312e-05
1.72354e-05
1.72359e-05
1.75883e-05
1.75889e-05
2.10921e-05
2.18313e-05
1.72351e-05
1.72367e-05
1.75879e-05
1.75898e-05
1.72363e-05
1.75875e-05
1.75894e-05
2.10929e-05
2.18324e-05
1.72362e-05
1.75884e-05
1.75892e-05
2.18333e-05
2.20324e-05
2.28135e-05
1.77159e-05
1.77164e-05
1.81267e-05
1.81272e-05
2.20324e-05
2.28136e-05
1.77153e-05
1.77173e-05
1.8126e-05
1.81282e-05
1.77169e-05
1.81256e-05
1.81278e-05
2.20334e-05
2.28147e-05
1.77165e-05
1.81266e-05
1.81274e-05
2.28158e-05
2.30262e-05
2.38379e-05
1.82729e-05
1.82734e-05
1.87382e-05
1.87387e-05
2.30261e-05
2.3838e-05
1.82721e-05
1.82745e-05
1.87372e-05
1.87399e-05
1.82741e-05
1.87369e-05
1.87396e-05
2.30273e-05
2.38393e-05
1.82735e-05
1.87381e-05
1.87388e-05
2.38405e-05
2.40595e-05
2.48916e-05
1.8902e-05
1.89025e-05
1.94181e-05
1.94186e-05
2.40595e-05
2.48916e-05
1.89009e-05
1.89037e-05
1.94168e-05
1.94198e-05
1.89034e-05
1.94166e-05
1.94196e-05
2.40608e-05
2.4893e-05
1.89024e-05
1.94179e-05
1.94185e-05
2.48943e-05
2.51197e-05
2.59625e-05
1.95981e-05
1.95986e-05
2.01609e-05
2.01614e-05
2.51196e-05
2.59626e-05
1.95967e-05
1.95999e-05
2.01593e-05
2.01628e-05
1.95997e-05
2.01592e-05
2.01627e-05
2.5121e-05
2.59642e-05
1.95983e-05
2.01607e-05
2.01611e-05
2.59655e-05
2.61948e-05
2.70408e-05
2.03557e-05
2.03562e-05
2.09611e-05
2.09614e-05
2.61947e-05
2.70408e-05
2.03541e-05
2.03577e-05
2.0959e-05
2.09629e-05
2.03577e-05
2.09591e-05
2.0963e-05
2.61964e-05
2.70425e-05
2.03558e-05
2.09608e-05
2.0961e-05
2.70439e-05
2.72754e-05
2.81179e-05
2.11692e-05
2.11697e-05
2.18124e-05
2.18126e-05
2.72753e-05
2.81179e-05
2.11672e-05
2.11712e-05
2.181e-05
2.18143e-05
2.11714e-05
2.18102e-05
2.18146e-05
2.72769e-05
2.81197e-05
2.11691e-05
2.18121e-05
2.18121e-05
2.81211e-05
2.8353e-05
2.9187e-05
2.20324e-05
2.20327e-05
2.27087e-05
2.27088e-05
2.83529e-05
2.91871e-05
2.20301e-05
2.20344e-05
2.27059e-05
2.27106e-05
2.20348e-05
2.27063e-05
2.27111e-05
2.83547e-05
2.9189e-05
2.2032e-05
2.27084e-05
2.27082e-05
2.91904e-05
2.94213e-05
3.02434e-05
2.29388e-05
2.29391e-05
2.36434e-05
2.36434e-05
2.94212e-05
3.02434e-05
2.29362e-05
2.29409e-05
2.36404e-05
2.36454e-05
2.29415e-05
2.36409e-05
2.3646e-05
2.94231e-05
3.02453e-05
2.29383e-05
2.36432e-05
2.36427e-05
3.02467e-05
3.04757e-05
3.12829e-05
2.38822e-05
2.38823e-05
2.46102e-05
2.461e-05
3.04755e-05
3.12828e-05
2.38793e-05
2.38843e-05
2.46069e-05
2.46121e-05
2.3885e-05
2.46075e-05
2.4613e-05
3.04774e-05
3.12849e-05
2.38815e-05
2.461e-05
2.46093e-05
3.12862e-05
3.15123e-05
3.2303e-05
2.4856e-05
2.4856e-05
2.56028e-05
2.56025e-05
3.15121e-05
3.23029e-05
2.48528e-05
2.4858e-05
2.55993e-05
2.56048e-05
2.48591e-05
2.56e-05
2.56058e-05
3.15141e-05
3.23051e-05
2.48551e-05
2.56028e-05
2.56017e-05
3.23064e-05
3.25288e-05
3.33017e-05
2.58541e-05
2.58539e-05
2.66149e-05
2.66143e-05
3.25286e-05
3.33016e-05
2.58507e-05
2.5856e-05
2.66111e-05
2.66167e-05
2.58574e-05
2.66119e-05
2.6618e-05
3.25307e-05
3.33038e-05
2.5853e-05
2.66149e-05
2.66136e-05
3.33051e-05
3.35234e-05
3.42777e-05
2.687e-05
2.68696e-05
2.764e-05
2.76393e-05
3.3523e-05
3.42774e-05
2.68664e-05
2.68718e-05
2.76361e-05
2.76418e-05
2.68734e-05
2.7637e-05
2.76433e-05
3.35252e-05
3.42798e-05
2.68687e-05
2.76402e-05
2.76386e-05
3.4281e-05
3.44947e-05
3.52298e-05
2.78976e-05
2.78969e-05
2.86726e-05
2.86717e-05
3.44943e-05
3.52295e-05
2.78937e-05
2.78993e-05
2.86686e-05
2.86744e-05
2.79011e-05
2.86696e-05
2.8676e-05
3.44966e-05
3.52319e-05
2.78961e-05
2.86731e-05
2.86711e-05
3.52331e-05
3.54417e-05
3.61571e-05
2.89313e-05
2.89304e-05
2.97075e-05
2.97063e-05
3.54413e-05
3.61566e-05
2.89272e-05
2.89329e-05
2.97033e-05
2.97091e-05
2.89348e-05
2.97044e-05
2.97109e-05
3.54436e-05
3.61592e-05
2.89297e-05
2.97081e-05
2.97058e-05
3.61603e-05
3.63636e-05
3.70594e-05
2.99661e-05
2.99649e-05
3.07406e-05
3.07391e-05
3.63631e-05
3.70589e-05
2.99618e-05
2.99676e-05
3.07362e-05
3.0742e-05
2.99696e-05
3.07374e-05
3.0744e-05
3.63656e-05
3.70615e-05
2.99643e-05
3.07413e-05
3.07388e-05
3.70625e-05
3.72604e-05
3.79368e-05
3.0998e-05
3.09965e-05
3.17671e-05
3.17653e-05
3.72599e-05
3.79362e-05
3.09936e-05
3.09994e-05
3.17626e-05
3.17684e-05
3.10015e-05
3.17639e-05
3.17705e-05
3.72625e-05
3.79389e-05
3.0996e-05
3.17679e-05
3.17652e-05
3.79398e-05
3.81323e-05
3.87893e-05
3.20221e-05
3.20204e-05
3.27826e-05
3.27806e-05
3.81317e-05
3.87886e-05
3.20176e-05
3.20234e-05
3.2778e-05
3.27838e-05
3.20256e-05
3.27794e-05
3.2786e-05
3.81344e-05
3.87915e-05
3.20201e-05
3.27836e-05
3.27806e-05
3.87922e-05
3.89792e-05
3.9617e-05
3.30343e-05
3.30323e-05
3.37834e-05
3.3781e-05
3.89785e-05
3.96163e-05
3.30297e-05
3.30354e-05
3.37787e-05
3.37843e-05
3.30377e-05
3.37802e-05
3.37866e-05
3.89813e-05
3.96192e-05
3.30322e-05
3.37845e-05
3.37813e-05
3.96198e-05
3.98013e-05
4.04199e-05
3.40309e-05
3.40285e-05
3.47661e-05
3.47635e-05
3.98005e-05
4.04191e-05
3.40262e-05
3.40318e-05
3.47614e-05
3.47669e-05
3.40341e-05
3.47629e-05
3.47692e-05
3.98034e-05
4.0422e-05
3.40286e-05
3.47673e-05
3.47639e-05
4.04226e-05
4.05985e-05
4.11979e-05
3.50087e-05
3.50059e-05
3.57281e-05
3.57251e-05
4.05977e-05
4.1197e-05
3.50039e-05
3.50094e-05
3.57234e-05
3.57287e-05
3.50118e-05
3.57249e-05
3.5731e-05
4.06006e-05
4.12e-05
3.50063e-05
3.57294e-05
3.57258e-05
4.12005e-05
4.13708e-05
4.1951e-05
3.59651e-05
3.59621e-05
3.66671e-05
3.66639e-05
4.137e-05
4.19501e-05
3.59604e-05
3.59657e-05
3.66624e-05
3.66676e-05
3.5968e-05
3.6664e-05
3.66699e-05
4.13729e-05
4.19531e-05
3.59626e-05
3.66685e-05
3.66647e-05
4.19535e-05
4.21184e-05
4.26795e-05
3.68981e-05
3.68948e-05
3.75814e-05
3.75778e-05
4.21174e-05
4.26784e-05
3.68933e-05
3.68985e-05
3.75766e-05
3.75817e-05
3.69008e-05
3.75783e-05
3.75839e-05
4.21204e-05
4.26815e-05
3.68956e-05
3.75828e-05
3.75789e-05
4.26818e-05
4.28412e-05
4.33833e-05
3.78059e-05
3.78023e-05
3.84695e-05
3.84657e-05
4.28403e-05
4.33822e-05
3.78012e-05
3.78061e-05
3.84648e-05
3.84696e-05
3.78085e-05
3.84664e-05
3.84719e-05
4.28433e-05
4.33853e-05
3.78033e-05
3.8471e-05
3.8467e-05
4.33856e-05
4.35396e-05
4.40627e-05
3.86873e-05
3.86835e-05
3.93304e-05
3.93264e-05
4.35385e-05
4.40616e-05
3.86826e-05
3.86874e-05
3.93257e-05
3.93303e-05
3.86897e-05
3.93274e-05
3.93326e-05
4.35416e-05
4.40647e-05
3.86847e-05
3.9332e-05
3.93278e-05
4.40649e-05
4.42136e-05
4.4718e-05
3.95413e-05
3.95373e-05
4.01634e-05
4.01592e-05
4.42125e-05
4.47167e-05
3.95366e-05
3.95412e-05
4.01588e-05
4.01632e-05
3.95435e-05
4.01604e-05
4.01654e-05
4.42155e-05
4.47199e-05
3.95386e-05
4.01651e-05
4.01608e-05
4.472e-05
4.48635e-05
4.53493e-05
4.03672e-05
4.0363e-05
4.0968e-05
4.09636e-05
4.48623e-05
4.5348e-05
4.03626e-05
4.0367e-05
4.09634e-05
4.09676e-05
4.03692e-05
4.09651e-05
4.09698e-05
4.48654e-05
4.53512e-05
4.03645e-05
4.09697e-05
4.09653e-05
4.53512e-05
4.54896e-05
4.59569e-05
4.11646e-05
4.11602e-05
4.17437e-05
4.17392e-05
4.54883e-05
4.59556e-05
4.11601e-05
4.11643e-05
4.17392e-05
4.17432e-05
4.11665e-05
4.17408e-05
4.17453e-05
4.54914e-05
4.59587e-05
4.11619e-05
4.17455e-05
4.1741e-05
4.59587e-05
4.6092e-05
4.65412e-05
4.19331e-05
4.19286e-05
4.24904e-05
4.24858e-05
4.60907e-05
4.65398e-05
4.19287e-05
4.19326e-05
4.24861e-05
4.24899e-05
4.19348e-05
4.24876e-05
4.24919e-05
4.60938e-05
4.65429e-05
4.19303e-05
4.24922e-05
4.24877e-05
4.65428e-05
4.66712e-05
4.71023e-05
4.26726e-05
4.26679e-05
4.32082e-05
4.32035e-05
4.66698e-05
4.71009e-05
4.26682e-05
4.2672e-05
4.32039e-05
4.32075e-05
4.26741e-05
4.32055e-05
4.32095e-05
4.66729e-05
4.7104e-05
4.26698e-05
4.321e-05
4.32054e-05
4.71038e-05
4.72274e-05
4.76406e-05
4.33831e-05
4.33784e-05
4.3897e-05
4.38922e-05
4.72259e-05
4.76391e-05
4.33788e-05
4.33824e-05
4.38928e-05
4.38962e-05
4.33844e-05
4.38944e-05
4.38982e-05
4.7229e-05
4.76422e-05
4.33803e-05
4.38989e-05
4.38942e-05
4.7642e-05
4.77608e-05
4.81565e-05
4.40647e-05
4.40599e-05
4.45572e-05
4.45523e-05
4.77593e-05
4.81549e-05
4.40606e-05
4.40639e-05
4.45531e-05
4.45563e-05
4.40659e-05
4.45547e-05
4.45582e-05
4.77623e-05
4.8158e-05
4.40619e-05
4.45591e-05
4.45543e-05
4.81577e-05
4.82718e-05
4.86502e-05
4.47178e-05
4.47128e-05
4.51889e-05
4.51839e-05
4.82703e-05
4.86486e-05
4.47137e-05
4.47169e-05
4.51848e-05
4.51879e-05
4.47188e-05
4.51865e-05
4.51897e-05
4.82733e-05
4.86516e-05
4.47149e-05
4.51908e-05
4.5186e-05
4.86513e-05
4.87608e-05
4.91221e-05
4.53424e-05
4.53374e-05
4.57924e-05
4.57873e-05
4.87593e-05
4.91205e-05
4.53384e-05
4.53414e-05
4.57884e-05
4.57913e-05
4.53432e-05
4.57901e-05
4.57931e-05
4.87622e-05
4.91234e-05
4.53395e-05
4.57943e-05
4.57895e-05
4.9123e-05
4.92281e-05
4.95725e-05
4.59389e-05
4.59338e-05
4.63681e-05
4.63629e-05
4.92266e-05
4.95709e-05
4.5935e-05
4.59378e-05
4.63642e-05
4.63669e-05
4.59396e-05
4.63659e-05
4.63686e-05
4.92295e-05
4.95738e-05
4.5936e-05
4.637e-05
4.63651e-05
4.95733e-05
4.9674e-05
5.00017e-05
4.65077e-05
4.65025e-05
4.69162e-05
4.6911e-05
4.96725e-05
5.00002e-05
4.65039e-05
4.65065e-05
4.69124e-05
4.6915e-05
4.65082e-05
4.69142e-05
4.69166e-05
4.96753e-05
5.00029e-05
4.65047e-05
4.69182e-05
4.69133e-05
5.00024e-05
5.00988e-05
5.04101e-05
4.7049e-05
4.70438e-05
4.74373e-05
4.74321e-05
5.00973e-05
5.04086e-05
4.70453e-05
4.70477e-05
4.74336e-05
4.7436e-05
4.70494e-05
4.74354e-05
4.74376e-05
5.01e-05
5.04113e-05
4.70461e-05
4.74393e-05
4.74343e-05
5.04107e-05
5.05029e-05
5.0798e-05
4.75634e-05
4.75582e-05
4.79316e-05
4.79264e-05
5.05014e-05
5.07964e-05
4.75597e-05
4.75621e-05
4.79281e-05
4.79303e-05
4.75637e-05
4.79298e-05
4.79318e-05
5.05041e-05
5.07991e-05
4.75604e-05
4.79337e-05
4.79287e-05
5.07985e-05
5.08866e-05
5.11655e-05
4.80511e-05
4.80459e-05
4.83996e-05
4.83943e-05
5.0885e-05
5.1164e-05
4.80476e-05
4.80497e-05
4.83961e-05
4.83982e-05
4.80513e-05
4.83978e-05
4.83997e-05
5.08877e-05
5.11666e-05
4.80482e-05
4.84016e-05
4.83966e-05
5.11659e-05
5.12499e-05
5.15131e-05
4.85125e-05
4.85073e-05
4.88415e-05
4.88363e-05
5.12484e-05
5.15116e-05
4.85091e-05
4.85111e-05
4.88382e-05
4.88401e-05
4.85126e-05
4.884e-05
4.88416e-05
5.1251e-05
5.15142e-05
4.85096e-05
4.88437e-05
4.88386e-05
5.15134e-05
5.15934e-05
5.1841e-05
4.89481e-05
4.89429e-05
4.9258e-05
4.92527e-05
5.1592e-05
5.18394e-05
4.89447e-05
4.89466e-05
4.92547e-05
4.92565e-05
4.89481e-05
4.92565e-05
4.92579e-05
5.15945e-05
5.1842e-05
4.89452e-05
4.92601e-05
4.9255e-05
5.18412e-05
5.19173e-05
5.21494e-05
4.93582e-05
4.93529e-05
4.96492e-05
4.96438e-05
5.19158e-05
5.21477e-05
4.93549e-05
4.93567e-05
4.9646e-05
4.96477e-05
4.93581e-05
4.96477e-05
4.9649e-05
5.19183e-05
5.21503e-05
4.93552e-05
4.96514e-05
4.96463e-05
5.21495e-05
5.22218e-05
5.24382e-05
4.97431e-05
4.97378e-05
5.00155e-05
5.00103e-05
5.22201e-05
5.24368e-05
4.974e-05
4.97416e-05
5.00124e-05
5.00139e-05
4.9743e-05
5.00142e-05
5.00153e-05
5.22226e-05
5.24392e-05
4.97403e-05
5.00177e-05
5.00126e-05
5.24383e-05
5.25068e-05
5.27089e-05
5.01033e-05
5.00981e-05
5.03577e-05
5.03524e-05
5.25054e-05
5.27073e-05
5.01002e-05
5.01018e-05
5.03547e-05
5.03563e-05
5.01031e-05
5.03564e-05
5.03574e-05
5.25078e-05
5.271e-05
5.01005e-05
5.03601e-05
5.03548e-05
5.27087e-05
5.27738e-05
5.296e-05
5.04397e-05
5.04344e-05
5.06758e-05
5.06705e-05
5.27722e-05
5.29583e-05
5.04367e-05
5.04382e-05
5.0673e-05
5.06741e-05
5.04393e-05
5.06746e-05
5.06755e-05
5.27747e-05
5.29606e-05
5.04368e-05
5.0678e-05
5.0673e-05
5.29599e-05
5.30206e-05
5.31926e-05
5.07515e-05
5.07463e-05
5.09697e-05
5.09641e-05
5.30189e-05
5.31904e-05
5.07487e-05
5.07499e-05
5.09669e-05
5.09682e-05
5.07513e-05
5.09682e-05
5.09693e-05
5.30212e-05
5.31934e-05
5.07488e-05
5.09721e-05
5.09669e-05
5.31922e-05
5.32499e-05
5.34088e-05
5.10401e-05
5.10345e-05
5.12421e-05
5.12372e-05
5.32478e-05
5.34081e-05
5.10374e-05
5.10386e-05
5.12394e-05
5.12406e-05
5.10396e-05
5.12414e-05
5.12419e-05
5.32507e-05
5.34099e-05
5.10372e-05
5.12446e-05
5.12396e-05
5.3409e-05
5.34621e-05
5.36051e-05
5.13067e-05
5.13022e-05
5.14906e-05
5.14857e-05
5.34618e-05
5.36038e-05
5.1304e-05
5.13054e-05
5.14879e-05
5.14892e-05
5.13067e-05
5.149e-05
5.14899e-05
5.34634e-05
5.3606e-05
5.13044e-05
5.14933e-05
5.14876e-05
5.3604e-05
5.36546e-05
5.3784e-05
5.15494e-05
5.1544e-05
5.17163e-05
5.17094e-05
5.36525e-05
5.37797e-05
5.15468e-05
5.15477e-05
5.17137e-05
5.17135e-05
5.15483e-05
5.17135e-05
5.17154e-05
5.36549e-05
5.3783e-05
5.1546e-05
5.17174e-05
5.17133e-05
5.37836e-05
5.38304e-05
5.39483e-05
5.17699e-05
5.17632e-05
5.19223e-05
5.1918e-05
5.38263e-05
5.39487e-05
5.17674e-05
5.17676e-05
5.192e-05
5.19227e-05
5.17698e-05
5.19224e-05
5.1923e-05
5.383e-05
5.39523e-05
5.17676e-05
5.19269e-05
5.1921e-05
5.39493e-05
5.3991e-05
5.40905e-05
5.19712e-05
5.19678e-05
5.21049e-05
5.21016e-05
5.39925e-05
5.40913e-05
5.1969e-05
5.19719e-05
5.21023e-05
5.21025e-05
5.19714e-05
5.21057e-05
5.21033e-05
5.39951e-05
5.40893e-05
5.19693e-05
5.21064e-05
5.2101e-05
5.40884e-05
5.41291e-05
5.4224e-05
5.21475e-05
5.21431e-05
5.22685e-05
5.22599e-05
5.41285e-05
5.42163e-05
5.21448e-05
5.21439e-05
5.22662e-05
5.22655e-05
5.2146e-05
5.22643e-05
5.22678e-05
5.41267e-05
5.42228e-05
5.21436e-05
5.22696e-05
5.22657e-05
5.4223e-05
5.42623e-05
5.43375e-05
5.23093e-05
5.23004e-05
5.24152e-05
5.2411e-05
5.42545e-05
5.43389e-05
5.23073e-05
5.23076e-05
5.24133e-05
5.24159e-05
5.23084e-05
5.24153e-05
5.24151e-05
5.42625e-05
5.43414e-05
5.23066e-05
5.242e-05
5.24134e-05
5.43384e-05
5.4367e-05
5.442e-05
5.2447e-05
5.24449e-05
5.25276e-05
5.2525e-05
5.43706e-05
5.44214e-05
5.24448e-05
5.24473e-05
5.2525e-05
5.2526e-05
5.24479e-05
5.25297e-05
5.25285e-05
5.43709e-05
5.44204e-05
5.24459e-05
5.25305e-05
5.25261e-05
5.44205e-05
5.44507e-05
5.45163e-05
5.25567e-05
5.25521e-05
5.26402e-05
5.26315e-05
5.44494e-05
5.45091e-05
5.25542e-05
5.25541e-05
5.26382e-05
5.26371e-05
5.2556e-05
5.26354e-05
5.26371e-05
5.44499e-05
5.45149e-05
5.25536e-05
5.26409e-05
5.26354e-05
5.45129e-05
5.45449e-05
5.45838e-05
5.26675e-05
5.26596e-05
5.27293e-05
5.27255e-05
5.45389e-05
5.45851e-05
5.26657e-05
5.26654e-05
5.27274e-05
5.27292e-05
5.26658e-05
5.27302e-05
5.27302e-05
5.45446e-05
5.45864e-05
5.26641e-05
5.27336e-05
5.27284e-05
5.45849e-05
5.46085e-05
5.46487e-05
5.27495e-05
5.27466e-05
5.28054e-05
5.27998e-05
5.46102e-05
5.4645e-05
5.27474e-05
5.27487e-05
5.2803e-05
5.28015e-05
5.27493e-05
5.28037e-05
5.28002e-05
5.46101e-05
5.46452e-05
5.27474e-05
5.28053e-05
5.27981e-05
5.46407e-05
5.46698e-05
5.46494e-05
5.28221e-05
5.28155e-05
5.28394e-05
5.28335e-05
5.46651e-05
5.46482e-05
5.28197e-05
5.28182e-05
5.28378e-05
5.28416e-05
5.28174e-05
5.28384e-05
5.28458e-05
5.46667e-05
5.46594e-05
5.28153e-05
5.28462e-05
5.28444e-05
5.46651e-05
5.4659e-05
5.46648e-05
5.28391e-05
5.2834e-05
5.28541e-05
5.28529e-05
5.46582e-05
5.46688e-05
5.28376e-05
5.28419e-05
5.28525e-05
5.28524e-05
5.28485e-05
5.28583e-05
5.28558e-05
5.46695e-05
5.46598e-05
5.28471e-05
5.28579e-05
5.28543e-05
5.4658e-05
5.46989e-05
5.47564e-05
5.28766e-05
5.28748e-05
5.29346e-05
5.29304e-05
5.47032e-05
5.47567e-05
5.28746e-05
5.287e-05
5.29312e-05
5.29313e-05
5.28691e-05
5.29336e-05
5.29222e-05
5.46894e-05
5.47582e-05
5.28674e-05
5.29338e-05
5.29192e-05
5.47427e-05
5.4777e-05
5.47527e-05
5.29458e-05
5.29362e-05
5.29451e-05
5.29285e-05
5.47736e-05
5.47259e-05
5.29438e-05
5.29474e-05
5.29449e-05
5.29482e-05
5.29394e-05
5.29333e-05
5.29489e-05
5.47846e-05
5.47536e-05
5.29375e-05
5.29524e-05
5.29488e-05
5.47698e-05
5.47583e-05
5.46143e-05
5.29363e-05
5.29201e-05
5.28622e-05
5.28682e-05
5.4734e-05
5.46395e-05
5.29364e-05
5.29355e-05
5.28587e-05
5.28581e-05
5.29437e-05
5.28733e-05
5.28633e-05
5.47554e-05
5.46159e-05
5.29436e-05
5.2863e-05
5.28593e-05
5.46086e-05
5.46225e-05
5.46692e-05
5.2851e-05
5.28597e-05
5.28575e-05
5.28664e-05
5.46484e-05
5.46832e-05
5.28473e-05
5.28533e-05
5.28546e-05
5.28686e-05
5.28421e-05
5.28682e-05
5.28425e-05
5.46279e-05
5.46867e-05
5.28383e-05
5.28698e-05
5.28398e-05
5.46401e-05
5.47013e-05
5.4716e-05
5.28787e-05
5.28767e-05
5.28943e-05
5.28597e-05
5.47119e-05
5.46327e-05
5.28762e-05
5.28769e-05
5.28925e-05
5.28638e-05
5.28771e-05
5.28676e-05
5.29171e-05
5.4707e-05
5.46438e-05
5.28755e-05
5.28702e-05
5.29157e-05
5.4773e-05
5.47261e-05
5.45873e-05
5.28905e-05
5.28479e-05
5.28214e-05
5.28326e-05
5.46369e-05
5.4654e-05
5.28888e-05
5.2856e-05
5.28188e-05
5.28347e-05
5.29028e-05
5.28326e-05
5.27751e-05
5.46508e-05
5.46384e-05
5.29019e-05
5.28365e-05
5.27724e-05
5.44977e-05
5.45838e-05
5.45642e-05
5.27883e-05
5.28336e-05
5.27564e-05
5.28303e-05
5.46864e-05
5.46908e-05
5.27843e-05
5.28435e-05
5.27564e-05
5.28661e-05
5.2776e-05
5.28422e-05
5.28017e-05
5.46874e-05
5.48362e-05
5.27733e-05
5.28749e-05
5.2803e-05
5.47109e-05
5.46144e-05
5.4315e-05
5.27649e-05
5.28197e-05
5.26568e-05
5.25347e-05
5.46988e-05
5.41115e-05
5.27648e-05
5.28377e-05
5.26382e-05
5.23437e-05
5.27894e-05
5.25175e-05
5.25444e-05
5.48295e-05
5.36051e-05
5.27915e-05
5.23342e-05
5.25234e-05
5.40623e-05
5.42066e-05
5.44103e-05
5.25398e-05
5.23883e-05
5.25339e-05
5.2297e-05
5.39649e-05
5.37118e-05
5.2515e-05
5.22847e-05
5.25369e-05
5.2791e-05
5.25318e-05
5.23098e-05
5.28712e-05
5.35506e-05
5.56085e-05
5.25068e-05
5.28305e-05
5.2889e-05
5.54148e-05
5.49967e-05
5.63621e-05
5.28296e-05
5.25719e-05
5.22424e-05
5.28226e-05
5.41255e-05
5.7593e-05
5.28802e-05
5.33546e-05
5.22475e-05
5.22094e-05
5.30226e-05
5.28035e-05
5.14434e-05
5.62617e-05
5.60241e-05
5.30717e-05
5.21792e-05
5.1447e-05
5.43391e-05
5.56921e-05
5.15246e-05
5.22907e-05
5.7381e-05
5.15054e-05
5.13023e-05
4.48122e-05
4.43946e-05
4.40083e-05
5.06519e-05
5.47288e-05
5.06318e-05
3.73769e-05
3.73764e-05
3.73767e-05
3.73767e-05
3.73694e-05
3.73755e-05
3.73043e-05
3.73764e-05
3.73694e-05
3.73755e-05
3.73764e-05
3.73043e-05
3.73714e-05
3.72959e-05
3.72959e-05
3.58864e-05
4.08615e-05
3.66006e-05
4.51355e-05
5.51055e-05
6.48938e-05
3.5887e-05
4.08611e-05
3.66005e-05
4.51382e-05
3.60232e-05
3.60232e-05
3.60232e-05
3.44005e-05
3.44005e-05
3.44005e-05
3.44005e-05
3.52763e-05
3.56369e-05
3.60241e-05
3.53762e-05
3.60477e-05
3.42377e-05
3.53827e-05
5.51074e-05
6.48955e-05
3.52764e-05
3.60241e-05
3.56365e-05
3.53762e-05
3.60476e-05
3.53827e-05
3.42382e-05
3.65914e-05
3.65921e-05
3.52783e-05
3.40716e-05
3.40707e-05
3.39708e-05
5.13445e-05
3.46832e-05
5.46148e-05
7.65468e-05
8.08644e-05
3.39718e-05
5.1345e-05
3.46825e-05
5.46181e-05
3.39295e-05
3.39295e-05
3.39295e-05
3.2585e-05
3.2585e-05
3.2585e-05