/*--------------------------------*- C++ -*----------------------------------*\
| =========                 |                                                 |
| \\      /  F ield         | OpenFOAM: The Open Source CFD Toolbox           |
|  \\    /   O peration     | Version:                                        |
|   \\  /    A nd           | Website:  www.openfoam.com                      |
|    \\/     M anipulation  |                                                 |
\*---------------------------------------------------------------------------*/
FoamFile
{
    version     2.0;
    format      ascii;
    class       volScalarField;
    location    "900";
    object      nut;
}
// * * * * * * * * * * * * * * * * * * * * * * * * * * * * * * * * * * * * * //

dimensions      [0 2 -1 0 0 0 0];


internalField   nonuniform List<scalar> 
172512
(
0.000233969
0.000233548
0.000233548
0.000233451
0.000232529
0.00022758
0.00022758
0.000223833
0.000230487
0.000220158
0.000220157
0.000209027
0.000227758
0.000211542
0.00021154
0.000193702
0.000224387
0.000202552
0.000202549
0.000179637
0.000220505
0.000193693
0.000193689
0.000167281
0.000216258
0.000185208
0.000185204
0.000156542
0.000211776
0.000177176
0.000177171
0.000147172
0.000207165
0.000169637
0.000169632
0.000138926
0.000202506
0.000162564
0.000162559
0.000131599
0.000197852
0.000155905
0.0001559
0.000124945
0.00019324
0.000149604
0.000149599
0.000118811
0.000188648
0.000143624
0.00014362
0.000113168
0.000184117
0.000137912
0.000137907
0.000107937
0.000179673
0.000132422
0.000132418
0.000103063
0.000175306
0.000127147
0.000127143
9.84445e-05
0.000171004
0.000122106
0.000122102
9.42614e-05
0.000166753
0.000117325
0.000117321
9.06714e-05
0.000162554
0.000112841
0.000112837
8.77437e-05
0.000158382
0.00010871
0.000108707
8.53977e-05
0.00015423
0.000104981
0.000104978
8.36819e-05
0.000150109
0.00010167
0.000101666
8.25945e-05
0.000146029
9.88542e-05
9.88515e-05
8.21116e-05
0.000142011
9.6546e-05
9.65438e-05
8.21632e-05
0.000138082
9.47562e-05
9.47548e-05
8.27008e-05
0.000134258
9.34838e-05
9.34829e-05
8.36746e-05
0.000130594
9.27164e-05
9.27162e-05
8.50281e-05
0.000127117
9.24331e-05
9.24337e-05
8.67024e-05
0.000123864
9.26067e-05
9.2608e-05
8.86416e-05
0.000120864
9.3206e-05
9.32077e-05
9.07927e-05
0.000118149
9.4195e-05
9.4198e-05
9.31113e-05
0.000115753
9.55389e-05
9.55421e-05
9.55575e-05
0.000113694
9.72e-05
9.72041e-05
9.80998e-05
0.000111986
9.91424e-05
9.91472e-05
0.000100712
0.000110641
0.000101331
0.000101336
0.000103374
0.000109663
0.000103733
0.000103739
0.000106072
0.000109054
0.000106318
0.000106325
0.000108791
0.00010881
0.000109057
0.000109064
0.000111515
0.000108925
0.00011192
0.000111928
0.00011424
0.000109387
0.000114884
0.000114893
0.000116954
0.000110184
0.000117929
0.000117938
0.000119651
0.000111302
0.000121042
0.000121052
0.000122326
0.000112724
0.0001242
0.00012421
0.000124978
0.000114432
0.000127385
0.000127396
0.0001276
0.000116406
0.000130582
0.000130592
0.000130189
0.000118625
0.000133776
0.000133787
0.000132741
0.000121066
0.000136958
0.000136969
0.000135253
0.000123709
0.000140116
0.000140127
0.000137721
0.000126532
0.000143244
0.000143255
0.000140142
0.000129512
0.000146333
0.000146344
0.000142515
0.000132628
0.000149379
0.00014939
0.000144837
0.000135859
0.000152375
0.000152386
0.000147106
0.000139187
0.000155315
0.000155327
0.000149321
0.000142591
0.000158196
0.000158207
0.00015148
0.000146055
0.000161015
0.000161026
0.000153583
0.00014956
0.00016377
0.000163781
0.000155627
0.000153093
0.000166459
0.00016647
0.000157613
0.000156638
0.000169081
0.000169091
0.00015954
0.000160182
0.000171632
0.000171643
0.000161407
0.000163713
0.000174114
0.000174124
0.000163215
0.000167218
0.000176523
0.000176533
0.000164962
0.000170687
0.000178858
0.000178868
0.000166649
0.000174112
0.000181119
0.000181129
0.000168276
0.000177485
0.000183304
0.000183314
0.000169842
0.000180796
0.000185413
0.000185422
0.000171346
0.000184038
0.000187445
0.000187453
0.000172789
0.000187206
0.000189398
0.000189407
0.000174171
0.000190293
0.000191272
0.000191281
0.000175491
0.000193292
0.000193068
0.000193076
0.000176748
0.000196202
0.000194787
0.000194796
0.000177948
0.000199015
0.000196422
0.000196429
0.000179077
0.000201726
0.000197973
0.000197984
0.000180147
0.000204342
0.000199467
0.000199473
0.000181172
0.000206847
0.000200853
0.000200859
0.0001821
0.000209242
0.000202153
0.000202167
0.000183003
0.000211541
0.000203435
0.000203448
0.000183847
0.000213715
0.000204563
0.000204548
0.000184568
0.000215794
0.000205637
0.000205674
0.000185329
0.000217769
0.000206695
0.000206693
0.000185967
0.000219577
0.000207545
0.000207539
0.000186485
0.000221352
0.000208438
0.000208467
0.00018712
0.000222988
0.000209238
0.000209228
0.000187569
0.000224569
0.000209998
0.000209995
0.000188053
0.000225887
0.000210419
0.000210472
0.000188346
0.000227115
0.000211013
0.000210958
0.00018848
0.000228648
0.000211871
0.000211925
0.000189245
0.000229761
0.000212117
0.000212205
0.000189611
0.000230337
0.000212106
0.000212093
0.000188694
0.000231478
0.00021298
0.000212911
0.000189768
0.000232572
0.00021288
0.000212692
0.000190001
0.000233016
0.000212952
0.000213772
0.000189511
0.000234451
0.000215646
0.000215096
0.000191051
0.000232189
0.000209569
0.000207958
0.000184539
0.00023498
0.00021043
0.000220265
0.000198736
0.000243464
0.000233413
0.000224141
0.000193444
0.000234256
0.000234459
0.00023446
0.000234257
0.00023446
0.00023446
0.000234259
0.000234259
0.000234259
0.000234259
0.000234459
0.000234459
0.000234256
0.000234459
0.00023446
0.000234256
0.000233451
0.000226179
0.000233548
0.000233547
0.000229123
0.000229118
0.000233451
0.00022618
0.000233547
0.000233547
0.00022912
0.000229117
0.000233548
0.000229126
0.000229123
0.000233451
0.000226178
0.000233547
0.000229126
0.00022912
0.000226177
0.000223834
0.000212154
0.000227577
0.000227572
0.000222157
0.000222151
0.000223833
0.000212155
0.000227575
0.000227571
0.000222158
0.00022215
0.000227576
0.000222163
0.000222156
0.000223834
0.000212152
0.000227575
0.000222162
0.000222156
0.000212148
0.000209031
0.000196985
0.000220151
0.000220146
0.000213749
0.000213742
0.000209029
0.000196983
0.000220153
0.000220143
0.000213753
0.00021374
0.000220149
0.000213758
0.000213745
0.000209029
0.00019698
0.000220151
0.000213757
0.00021375
0.000196975
0.000193711
0.000182814
0.000211531
0.000211525
0.000204788
0.000204781
0.000193709
0.000182811
0.000211537
0.000211522
0.000204797
0.000204778
0.000211527
0.000204801
0.000204784
0.000193706
0.000182807
0.000211533
0.000204799
0.000204792
0.0001828
0.000179648
0.000170219
0.000202538
0.000202531
0.000195862
0.000195855
0.000179645
0.000170216
0.000202548
0.000202528
0.000195874
0.000195851
0.000202533
0.000195877
0.000195856
0.000179642
0.000170211
0.000202542
0.000195875
0.000195868
0.000170204
0.000167295
0.000159208
0.000193675
0.000193669
0.00018727
0.000187263
0.000167292
0.000159204
0.000193689
0.000193665
0.000187286
0.000187258
0.000193669
0.000187288
0.000187263
0.000167287
0.000159199
0.000193682
0.000187285
0.000187278
0.000159191
0.000156557
0.000149591
0.000185188
0.000185181
0.000179116
0.000179109
0.000156553
0.000149587
0.000185205
0.000185177
0.000179135
0.000179104
0.000185182
0.000179137
0.000179109
0.000156548
0.000149581
0.000185197
0.000179134
0.000179127
0.000149573
0.000147189
0.000141095
0.000177153
0.000177146
0.000171451
0.000171444
0.000147185
0.000141091
0.000177173
0.000177142
0.000171473
0.000171439
0.000177146
0.000171474
0.000171444
0.000147179
0.000141084
0.000177164
0.000171471
0.000171464
0.000141076
0.000138944
0.000133545
0.000169611
0.000169604
0.000164264
0.000164257
0.000138939
0.000133541
0.000169634
0.0001696
0.000164288
0.000164252
0.000169605
0.00016429
0.000164258
0.000138933
0.000133533
0.000169625
0.000164286
0.000164279
0.000133525
0.000131618
0.00012669
0.000162536
0.000162529
0.000157505
0.000157498
0.000131613
0.000126686
0.000162561
0.000162525
0.000157532
0.000157493
0.00016253
0.000157533
0.000157499
0.000131606
0.000126678
0.000162552
0.000157529
0.000157522
0.00012667
0.000124964
0.000120371
0.000155875
0.000155868
0.000151118
0.000151111
0.000124959
0.000120368
0.000155903
0.000155864
0.000151147
0.000151106
0.000155869
0.000151148
0.000151113
0.000124952
0.00012036
0.000155893
0.000151144
0.000151137
0.000120352
0.000118828
0.000114443
0.000149573
0.000149566
0.000145058
0.000145051
0.000118825
0.000114437
0.000149602
0.000149562
0.000145088
0.000145046
0.000149568
0.000145089
0.000145053
0.000118818
0.00011443
0.000149592
0.000145086
0.000145079
0.000114421
0.000113185
0.000108855
0.000143592
0.000143584
0.000139282
0.000139274
0.000113182
0.000108849
0.000143622
0.000143581
0.000139313
0.00013927
0.000143587
0.000139314
0.000139278
0.000113175
0.000108842
0.000143612
0.000139311
0.000139303
0.000108834
0.000107954
0.000103722
0.000137879
0.00013787
0.00013374
0.000133731
0.00010795
0.000103717
0.000137909
0.000137867
0.000133771
0.000133727
0.000137874
0.000133772
0.000133735
0.000107943
0.00010371
0.0001379
0.000133769
0.000133761
0.000103702
0.000103081
9.91478e-05
0.000132389
0.00013238
0.00012841
0.000128399
0.000103076
9.91429e-05
0.00013242
0.000132377
0.000128439
0.000128396
0.000132384
0.000128441
0.000128406
0.00010307
9.91362e-05
0.00013241
0.000128438
0.00012843
9.91293e-05
9.84624e-05
9.50096e-05
0.000127116
0.000127104
0.00012331
0.000123295
9.8457e-05
9.5005e-05
0.000127144
0.000127102
0.000123336
0.000123294
0.000127112
0.000123339
0.000123306
9.84507e-05
9.49988e-05
0.000127135
0.000123336
0.000123326
9.49925e-05
9.42778e-05
9.14561e-05
0.000122077
0.000122063
0.000118443
0.000118428
9.42724e-05
9.14516e-05
0.000122102
0.000122061
0.000118467
0.000118427
0.000122073
0.000118471
0.00011844
9.4267e-05
9.14461e-05
0.000122093
0.000118468
0.000118458
9.14403e-05
9.06861e-05
8.8399e-05
0.000117296
0.000117281
0.000113888
0.000113871
9.06796e-05
8.83942e-05
0.00011732
0.00011728
0.00011391
0.000113871
0.000117294
0.000113915
0.000113886
9.06758e-05
8.83894e-05
0.000117311
0.000113912
0.000113902
8.83843e-05
8.77577e-05
8.59305e-05
0.000112813
0.000112797
0.000109658
0.00010964
8.77525e-05
8.5926e-05
0.000112835
0.000112796
0.000109679
0.000109641
0.000112811
0.000109684
0.000109657
8.7748e-05
8.5922e-05
0.000112827
0.000109682
0.000109671
8.59174e-05
8.54099e-05
8.40908e-05
0.000108683
0.000108666
0.000105815
0.000105798
8.54055e-05
8.40869e-05
0.000108704
0.000108666
0.000105835
0.000105799
0.000108682
0.00010584
0.000105815
8.54016e-05
8.4083e-05
0.000108696
0.000105838
0.000105827
8.40788e-05
8.36922e-05
8.28809e-05
0.000104954
0.000104938
0.00010242
0.000102405
8.36892e-05
8.28779e-05
0.000104974
0.000104938
0.00010244
0.000102406
0.000104954
0.000102446
0.000102422
8.36851e-05
8.28741e-05
0.000104967
0.000102445
0.000102434
8.28703e-05
8.2604e-05
8.22808e-05
0.000101641
0.000101627
9.94811e-05
9.94687e-05
8.26013e-05
8.2278e-05
0.000101662
0.000101628
9.95015e-05
9.94689e-05
0.000101644
9.95075e-05
9.94849e-05
8.25978e-05
8.22748e-05
0.000101655
9.95073e-05
9.94958e-05
8.22713e-05
8.212e-05
8.22256e-05
9.88259e-05
9.88138e-05
9.70454e-05
9.70348e-05
8.21177e-05
8.22231e-05
9.88461e-05
9.88138e-05
9.70654e-05
9.70345e-05
9.88299e-05
9.70714e-05
9.70504e-05
8.21143e-05
8.22195e-05
9.884e-05
9.70714e-05
9.70603e-05
8.22173e-05
8.21705e-05
8.26638e-05
9.65183e-05
9.65079e-05
9.5127e-05
9.5118e-05
8.21683e-05
8.2662e-05
9.6538e-05
9.65078e-05
9.51463e-05
9.51182e-05
9.65236e-05
9.51525e-05
9.51335e-05
8.21651e-05
8.26602e-05
9.65327e-05
9.51534e-05
9.51422e-05
8.26576e-05
8.27066e-05
8.35495e-05
9.47294e-05
9.47205e-05
9.37275e-05
9.37198e-05
8.27051e-05
8.35478e-05
9.47482e-05
9.47204e-05
9.37459e-05
9.37195e-05
9.47357e-05
9.3752e-05
9.37347e-05
8.27029e-05
8.3545e-05
9.47437e-05
9.37529e-05
9.37423e-05
8.35438e-05
8.36794e-05
8.48257e-05
9.34583e-05
9.34504e-05
9.28366e-05
9.28299e-05
8.36778e-05
8.4824e-05
9.34761e-05
9.34505e-05
9.2854e-05
9.28304e-05
9.34656e-05
9.28599e-05
9.28449e-05
8.36755e-05
8.48231e-05
9.34724e-05
9.28618e-05
9.28514e-05
8.48218e-05
8.50319e-05
8.64347e-05
9.26922e-05
9.26854e-05
9.24363e-05
9.24305e-05
8.50305e-05
8.64333e-05
9.27089e-05
9.26857e-05
9.24524e-05
9.24309e-05
9.27002e-05
9.24584e-05
9.24451e-05
8.50291e-05
8.64321e-05
9.27058e-05
9.24604e-05
9.24502e-05
8.64312e-05
8.67053e-05
8.83185e-05
9.24104e-05
9.24043e-05
9.24999e-05
9.24948e-05
8.6704e-05
8.83172e-05
9.24258e-05
9.24051e-05
9.25148e-05
9.24959e-05
9.24192e-05
9.25207e-05
9.25099e-05
8.67032e-05
8.83174e-05
9.24234e-05
9.25237e-05
9.25136e-05
8.8317e-05
8.86431e-05
9.04263e-05
9.25855e-05
9.25801e-05
9.29976e-05
9.2993e-05
8.86419e-05
9.0425e-05
9.25996e-05
9.25812e-05
9.30111e-05
9.29941e-05
9.25951e-05
9.3017e-05
9.30079e-05
8.86417e-05
9.04249e-05
9.25981e-05
9.30202e-05
9.30102e-05
9.04248e-05
9.07943e-05
9.2709e-05
9.31863e-05
9.31813e-05
9.3894e-05
9.38898e-05
9.07931e-05
9.27078e-05
9.31989e-05
9.31825e-05
9.39061e-05
9.38918e-05
9.31962e-05
9.39121e-05
9.39052e-05
9.07929e-05
9.27091e-05
9.31977e-05
9.39162e-05
9.3906e-05
9.27088e-05
9.31113e-05
9.51287e-05
9.41767e-05
9.41721e-05
9.5154e-05
9.515e-05
9.31102e-05
9.51275e-05
9.4188e-05
9.41744e-05
9.51647e-05
9.51521e-05
9.41877e-05
9.51707e-05
9.51656e-05
9.31115e-05
9.51285e-05
9.41878e-05
9.51752e-05
9.51651e-05
9.51287e-05
9.55578e-05
9.76509e-05
9.55219e-05
9.55176e-05
9.67407e-05
9.67367e-05
9.55566e-05
9.76496e-05
9.55319e-05
9.55198e-05
9.675e-05
9.67393e-05
9.55332e-05
9.67562e-05
9.67527e-05
9.55574e-05
9.76514e-05
9.55319e-05
9.67612e-05
9.67506e-05
9.76512e-05
9.80996e-05
0.000100248
9.71842e-05
9.718e-05
9.8617e-05
9.86131e-05
9.80983e-05
0.000100247
9.7193e-05
9.71829e-05
9.86251e-05
9.86164e-05
9.71963e-05
9.86315e-05
9.86299e-05
9.81e-05
0.00010025
9.71934e-05
9.86374e-05
9.86265e-05
0.00010025
0.000100711
0.000102901
9.91276e-05
9.91235e-05
0.000100749
0.000100745
0.00010071
0.0001029
9.91351e-05
9.91269e-05
0.000100755
0.000100748
9.91405e-05
0.000100762
0.000100762
0.000100712
0.000102902
9.91363e-05
0.000100768
0.000100757
0.000102902
0.000103373
0.000105591
0.000101317
0.000101313
0.000103101
0.000103096
0.000103372
0.000105589
0.000101324
0.000101317
0.000103106
0.0001031
0.00010133
0.000103113
0.000103114
0.000103374
0.000105592
0.000101325
0.00010312
0.000103108
0.000105591
0.000106072
0.000108303
0.00010372
0.000103716
0.000105644
0.00010564
0.00010607
0.000108302
0.000103725
0.00010372
0.000105649
0.000105644
0.000103734
0.000105656
0.000105658
0.000106073
0.000108305
0.000103727
0.000105663
0.000105651
0.000108304
0.00010879
0.000111026
0.000106306
0.000106302
0.000108348
0.000108343
0.000108788
0.000111024
0.000106311
0.000106306
0.000108352
0.000108348
0.00010632
0.000108359
0.000108362
0.000108791
0.000111028
0.000106313
0.000108367
0.000108354
0.000111027
0.000111515
0.00011375
0.000109045
0.00010904
0.000111183
0.000111177
0.000111513
0.000113748
0.000109049
0.000109045
0.000111186
0.000111182
0.000109059
0.000111193
0.000111196
0.000111516
0.000113752
0.000109051
0.000111201
0.000111188
0.000113751
0.000114239
0.000116468
0.000111909
0.000111904
0.000114124
0.000114118
0.000114237
0.000116465
0.000111912
0.000111909
0.000114127
0.000114124
0.000111923
0.000114134
0.000114138
0.000114241
0.00011647
0.000111914
0.000114143
0.000114129
0.000116469
0.000116954
0.000119169
0.000114874
0.000114868
0.000117151
0.000117144
0.000116951
0.000119167
0.000114876
0.000114873
0.000117153
0.00011715
0.000114888
0.00011716
0.000117165
0.000116955
0.000119172
0.000114879
0.00011717
0.000117156
0.00011917
0.00011965
0.000121851
0.00011792
0.000117913
0.00012025
0.000120242
0.000119648
0.000121849
0.000117922
0.000117919
0.000120251
0.000120248
0.000117933
0.000120258
0.000120263
0.000119652
0.000121854
0.000117924
0.000120269
0.000120253
0.000121852
0.000122327
0.00012451
0.000121034
0.000121025
0.0001234
0.00012339
0.000122324
0.000124507
0.000121034
0.000121032
0.0001234
0.000123397
0.000121046
0.000123407
0.000123411
0.000122328
0.000124512
0.000121036
0.000123418
0.000123402
0.00012451
0.000124978
0.000127141
0.000124193
0.000124182
0.000126581
0.000126569
0.000124974
0.000127137
0.000124193
0.00012419
0.00012658
0.000126577
0.000124204
0.000126587
0.000126591
0.00012498
0.000127143
0.000124195
0.000126598
0.000126582
0.000127141
0.000127601
0.00012974
0.000127379
0.000127367
0.000129776
0.000129763
0.000127597
0.000129736
0.000127378
0.000127375
0.000129775
0.000129772
0.000127389
0.000129782
0.000129785
0.000127602
0.000129742
0.00012738
0.000129793
0.000129777
0.00012974
0.00013019
0.000132303
0.000130576
0.000130563
0.000132973
0.000132959
0.000130186
0.000132299
0.000130574
0.000130571
0.000132971
0.000132968
0.000130585
0.000132978
0.000132981
0.000130192
0.000132305
0.000130576
0.00013299
0.000132973
0.000132302
0.000132743
0.000134827
0.000133771
0.000133757
0.000136159
0.000136144
0.000132739
0.000134822
0.000133769
0.000133766
0.000136157
0.000136154
0.000133779
0.000136163
0.000136166
0.000132745
0.000134829
0.000133771
0.000136175
0.000136159
0.000134825
0.000135255
0.000137307
0.000136953
0.000136938
0.000139325
0.000139309
0.00013525
0.000137301
0.000136951
0.000136947
0.000139323
0.000139318
0.000136959
0.000139328
0.00013933
0.000135257
0.000137308
0.000136952
0.000139341
0.000139324
0.000137305
0.000137723
0.000139741
0.000140112
0.000140096
0.000142461
0.000142444
0.000137718
0.000139735
0.00014011
0.000140105
0.000142459
0.000142454
0.000140117
0.000142464
0.000142465
0.000137725
0.000139742
0.00014011
0.000142477
0.000142459
0.000139738
0.000140145
0.000142126
0.000143239
0.000143223
0.00014556
0.000145543
0.00014014
0.000142121
0.000143237
0.000143233
0.000145559
0.000145553
0.000143244
0.000145564
0.000145564
0.000140147
0.000142128
0.000143238
0.000145576
0.000145559
0.000142123
0.000142519
0.000144461
0.000146329
0.000146312
0.000148617
0.0001486
0.000142513
0.000144455
0.000146327
0.000146322
0.000148616
0.00014861
0.000146332
0.000148621
0.00014862
0.00014252
0.000144463
0.000146327
0.000148633
0.000148616
0.000144458
0.000144841
0.000146744
0.000149374
0.000149357
0.000151627
0.000151609
0.000144835
0.000146738
0.000149373
0.000149367
0.000151626
0.000151619
0.000149377
0.00015163
0.000151628
0.000144842
0.000146745
0.000149372
0.000151643
0.000151625
0.00014674
0.000147111
0.000148973
0.000152371
0.000152353
0.000154581
0.000154563
0.000147104
0.000148967
0.00015237
0.000152363
0.000154581
0.000154573
0.000152372
0.000154585
0.000154582
0.000147112
0.000148974
0.000152369
0.000154597
0.00015458
0.000148968
0.000149326
0.000151146
0.000155311
0.000155293
0.000157477
0.000157458
0.000149319
0.00015114
0.000155311
0.000155303
0.000157477
0.000157469
0.000155311
0.000157481
0.000157477
0.000149327
0.000151147
0.000155309
0.000157493
0.000157475
0.000151141
0.000151486
0.000153263
0.000158191
0.000158173
0.000160312
0.000160293
0.000151479
0.000153256
0.000158192
0.000158183
0.000160312
0.000160303
0.000158191
0.000160315
0.00016031
0.000151486
0.000153264
0.00015819
0.000160328
0.00016031
0.000153257
0.000153589
0.000155322
0.00016101
0.000160991
0.000163083
0.000163064
0.000153582
0.000155315
0.000161011
0.000161002
0.000163084
0.000163074
0.000161009
0.000163087
0.000163081
0.000153589
0.000155322
0.000161008
0.000163099
0.000163081
0.000155316
0.000155634
0.000157322
0.000163765
0.000163746
0.000165788
0.000165769
0.000155626
0.000157315
0.000163767
0.000163757
0.00016579
0.000165779
0.000163763
0.000165792
0.000165786
0.000155634
0.000157322
0.000163764
0.000165804
0.000165787
0.000157315
0.00015762
0.000159264
0.000166454
0.000166435
0.000168426
0.000168407
0.000157612
0.000159256
0.000166456
0.000166445
0.000168429
0.000168417
0.000166452
0.00016843
0.000168423
0.00015762
0.000159263
0.000166452
0.000168443
0.000168425
0.000159256
0.000159547
0.000161145
0.000169075
0.000169055
0.000170995
0.000170975
0.00015954
0.000161138
0.000169078
0.000169066
0.000170998
0.000170986
0.000169072
0.000171
0.000170991
0.000159547
0.000161145
0.000169073
0.000171012
0.000170993
0.000161137
0.000161415
0.000162967
0.000171626
0.000171607
0.000173494
0.000173474
0.000161407
0.000162959
0.000171629
0.000171617
0.000173497
0.000173484
0.000171622
0.000173499
0.000173489
0.000161414
0.000162966
0.000171625
0.00017351
0.000173492
0.000162959
0.000163223
0.00016473
0.000174107
0.000174087
0.000175921
0.0001759
0.000163215
0.000164721
0.000174111
0.000174097
0.000175924
0.000175911
0.000174103
0.000175926
0.000175915
0.000163222
0.000164728
0.000174105
0.000175937
0.000175919
0.00016472
0.000164971
0.000166431
0.000176516
0.000176496
0.000178274
0.000178254
0.000164963
0.000166423
0.00017652
0.000176506
0.000178278
0.000178264
0.000176511
0.00017828
0.000178268
0.00016497
0.000166429
0.000176514
0.000178291
0.000178272
0.000166421
0.000166659
0.000168072
0.000178851
0.00017883
0.000180553
0.000180533
0.000166651
0.000168064
0.000178855
0.00017884
0.000180558
0.000180543
0.000178845
0.00018056
0.000180547
0.000166657
0.00016807
0.000178849
0.000180571
0.000180552
0.000168062
0.000168286
0.000169652
0.000181111
0.000181091
0.000182757
0.000182737
0.000168278
0.000169644
0.000181117
0.000181101
0.000182763
0.000182747
0.000181105
0.000182764
0.000182751
0.000168285
0.00016965
0.00018111
0.000182775
0.000182756
0.000169641
0.000169852
0.00017117
0.000183297
0.000183276
0.000184885
0.000184864
0.000169844
0.000171162
0.000183302
0.000183286
0.000184891
0.000184874
0.00018329
0.000184891
0.000184878
0.000169851
0.000171168
0.000183295
0.000184902
0.000184883
0.000171159
0.000171357
0.000172628
0.000185405
0.000185384
0.000186935
0.000186914
0.000171349
0.00017262
0.000185411
0.000185394
0.000186942
0.000186924
0.000185397
0.000186942
0.000186927
0.000171355
0.000172626
0.000185403
0.000186953
0.000186934
0.000172616
0.000172801
0.000174024
0.000187436
0.000187415
0.000188908
0.000188887
0.000172793
0.000174016
0.000187442
0.000187424
0.000188915
0.000188896
0.000187428
0.000188916
0.0001889
0.000172798
0.000174022
0.000187435
0.000188926
0.000188907
0.000174011
0.000174183
0.000175358
0.000189389
0.000189368
0.000190802
0.00019078
0.000174175
0.000175349
0.000189396
0.000189378
0.00019081
0.00019079
0.000189381
0.00019081
0.000190794
0.000174181
0.000175355
0.000189388
0.00019082
0.000190801
0.000175345
0.000175504
0.000176628
0.000191263
0.000191241
0.000192616
0.000192595
0.000175494
0.00017662
0.000191271
0.000191251
0.000192624
0.000192604
0.000191255
0.000192625
0.000192607
0.0001755
0.000176625
0.000191262
0.000192634
0.000192615
0.000176615
0.00017676
0.000177842
0.000193057
0.000193036
0.000194353
0.000194332
0.000176753
0.000177833
0.000193065
0.000193045
0.000194362
0.000194343
0.000193049
0.000194363
0.000194344
0.000176758
0.00017784
0.000193057
0.000194374
0.000194353
0.000177828
0.000177961
0.000178987
0.000194776
0.000194755
0.000196011
0.00019599
0.000177953
0.000178979
0.000194786
0.000194765
0.00019602
0.000195998
0.000194767
0.00019602
0.000196001
0.000177959
0.000178983
0.000194776
0.000196029
0.00019601
0.000178974
0.00017909
0.00018007
0.000196411
0.000196389
0.000197581
0.000197557
0.000179081
0.000180057
0.00019642
0.000196398
0.000197591
0.000197569
0.000196402
0.000197588
0.000197571
0.000179085
0.000180066
0.00019641
0.0001976
0.00019758
0.000180055
0.000180162
0.000181105
0.000197965
0.00019794
0.000199086
0.000199067
0.000180149
0.000181102
0.000197975
0.000197953
0.000199096
0.000199075
0.000197954
0.000199099
0.000199078
0.000180158
0.000181105
0.000197964
0.000199107
0.000199088
0.000181095
0.000181181
0.000182063
0.00019945
0.000199434
0.0002005
0.000200483
0.000181181
0.000182058
0.00019946
0.00019944
0.00020051
0.00020049
0.000199443
0.000200515
0.000200488
0.000181182
0.000182061
0.000199453
0.000200523
0.000200498
0.000182043
0.000182123
0.000182962
0.000200841
0.000200819
0.00020183
0.000201794
0.000182113
0.000182934
0.000200852
0.000200827
0.000201841
0.000201807
0.000200825
0.000201826
0.000201816
0.000182116
0.000182945
0.000200835
0.000201839
0.000201827
0.000182947
0.000183013
0.000183823
0.000202154
0.000202119
0.000203101
0.000203084
0.000182985
0.000183827
0.000202166
0.000202135
0.000203113
0.000203103
0.000202146
0.000203119
0.000203099
0.000183
0.000183842
0.000202156
0.000203138
0.000203111
0.000183817
0.000183857
0.000184576
0.000203408
0.0002034
0.000204265
0.00020426
0.000183869
0.000184588
0.000203421
0.000203413
0.000204276
0.000204247
0.000203403
0.000204293
0.000204247
0.000183877
0.000184561
0.000203415
0.000204279
0.000204257
0.000184551
0.000184591
0.00018533
0.000204544
0.000204529
0.000205369
0.00020532
0.000184592
0.000185277
0.000204553
0.000204515
0.000205382
0.000205344
0.000204525
0.000205354
0.000205356
0.000184567
0.000185311
0.000204534
0.000205378
0.000205368
0.000185309
0.000185349
0.000185998
0.000205654
0.000205602
0.00020642
0.000206406
0.000185296
0.000186012
0.000205669
0.00020564
0.000206436
0.000206425
0.000205641
0.000206441
0.000206414
0.000185341
0.000186018
0.000205655
0.00020646
0.000206429
0.000185995
0.000185963
0.000186533
0.000206656
0.000206659
0.000207291
0.000207289
0.000185992
0.000186544
0.000206669
0.000206658
0.000207301
0.000207276
0.000206657
0.000207327
0.000207287
0.000185982
0.000186522
0.000206669
0.000207312
0.000207296
0.000186514
0.000186515
0.000187174
0.000207528
0.000207509
0.000208224
0.000208172
0.000186507
0.000187125
0.000207538
0.000207504
0.000208239
0.0002082
0.00020751
0.000208204
0.000208195
0.000186496
0.000187159
0.000207519
0.000208232
0.000208209
0.000187144
0.000187135
0.000187632
0.000208451
0.000208405
0.000209009
0.000209
0.000187095
0.000187646
0.000208467
0.000208435
0.000209025
0.000209008
0.000208435
0.000209039
0.000209016
0.00018713
0.00018764
0.000208449
0.000209046
0.00020903
0.000187634
0.000187582
0.000188191
0.000209199
0.000209199
0.000209812
0.000209793
0.0001876
0.00018818
0.000209213
0.00020919
0.000209822
0.000209777
0.000209192
0.000209824
0.000209756
0.000187581
0.000188156
0.000209205
0.000209809
0.000209766
0.000188112
0.000188125
0.000188371
0.000209996
0.000209966
0.00021036
0.000210319
0.000188105
0.000188342
0.000210007
0.000209965
0.000210379
0.000210377
0.000209945
0.000210359
0.000210404
0.000188095
0.000188436
0.000209956
0.000210416
0.000210423
0.00018847
0.000188228
0.000188574
0.000210414
0.000210376
0.000210742
0.000210748
0.0001882
0.00018861
0.000210434
0.00021043
0.000210759
0.000210723
0.000210484
0.000210793
0.000210752
0.000188291
0.000188518
0.000210503
0.000210771
0.000210767
0.000188531
0.000188585
0.000189391
0.00021097
0.000210977
0.00021171
0.000211717
0.000188628
0.000189427
0.000210984
0.000210921
0.000211713
0.0002117
0.000210903
0.000211741
0.000211588
0.000188511
0.00018942
0.000210915
0.000211721
0.000211591
0.000189266
0.000189327
0.000189622
0.000211875
0.000211839
0.000212204
0.000212071
0.000189339
0.00018941
0.000211888
0.000211899
0.000212228
0.000212188
0.000211814
0.000212113
0.000212247
0.000189395
0.000189567
0.000211825
0.000212226
0.000212272
0.000189772
0.000189458
0.000188949
0.000212219
0.000212072
0.000211984
0.000212021
0.000189242
0.000189092
0.000212249
0.000212161
0.000211989
0.000211937
0.000212282
0.00021206
0.000211977
0.000189366
0.000188944
0.000212308
0.000211977
0.000211975
0.000188863
0.000188803
0.000189699
0.000211998
0.000212075
0.00021254
0.000212712
0.000188962
0.000189942
0.000212001
0.000212058
0.000212552
0.000212736
0.000211923
0.000212733
0.000212403
0.000188842
0.000190027
0.000211923
0.000212749
0.000212416
0.00018951
0.000189725
0.000190084
0.000212841
0.000212943
0.000213191
0.000212989
0.000189952
0.000189597
0.000212852
0.000212884
0.000213184
0.000212757
0.000212769
0.000213045
0.000213274
0.000189962
0.000189261
0.000212789
0.0002128
0.00021327
0.000190312
0.000189832
0.000189537
0.000213166
0.000212845
0.000212854
0.000212658
0.000189239
0.00018928
0.000213156
0.000212647
0.000212867
0.00021303
0.000213223
0.000212673
0.000212927
0.000188936
0.000190047
0.000213214
0.000213086
0.000212942
0.000189435
0.000189433
0.000191756
0.000213034
0.000212903
0.000214419
0.00021519
0.000189392
0.000192947
0.000213079
0.000213718
0.00021446
0.000215301
0.000213256
0.000215264
0.000214112
0.000190358
0.000193582
0.0002133
0.000215332
0.000214165
0.000191585
0.000191875
0.000186203
0.000214606
0.000215582
0.000211906
0.000212391
0.000192945
0.000186942
0.000214606
0.000215066
0.000211594
0.000209084
0.000213982
0.000212208
0.000211166
0.0001931
0.000181174
0.000214007
0.000208999
0.000210843
0.000184917
0.000184041
0.000186465
0.000209868
0.000209648
0.000209573
0.000206971
0.000184327
0.000179462
0.000209579
0.000207944
0.000209798
0.000212862
0.000210912
0.000207266
0.000214908
0.000179847
0.000196775
0.000210607
0.000213497
0.000215376
0.000197088
0.000191261
0.000217106
0.000214072
0.00020985
0.0002292
0.000232783
0.000182512
0.000223743
0.000214893
0.000219765
0.000229331
0.000227787
0.000217531
0.00023233
0.000218956
0.00020203
0.000212754
0.000218272
0.0002272
0.000219068
0.000197082
0.000215562
0.000228179
0.000234036
0.000226794
0.000228004
0.000224849
0.000246509
0.000242203
0.000237146
0.00021696
0.000206057
0.000216726
0.000234728
0.000234779
0.000234733
0.000234733
0.00023511
0.000234806
0.000234702
0.000234742
0.00023511
0.000234806
0.000234742
0.000234702
0.00023486
0.000233567
0.000233568
0.000104653
3.87587e-05
0.000129428
3.98342e-05
2.16907e-05
2.28368e-05
0.000104616
3.87547e-05
0.00012946
3.98309e-05
0.000233969
0.000233969
0.000233969
0.000232942
0.000232942
0.000232942
0.000232942
0.000206249
9.37608e-05
0.000233996
0.000231746
0.000222768
8.72446e-05
0.000233595
2.169e-05
2.28361e-05
0.000206248
0.000233996
9.37597e-05
0.000231747
0.000222768
0.000233595
8.72484e-05
4.78455e-05
4.78363e-05
0.000231405
4.39757e-05
4.39601e-05
7.25106e-05
4.24332e-05
8.13316e-05
4.37612e-05
2.47747e-05
2.54626e-05
7.24964e-05
4.24283e-05
8.13406e-05
4.37576e-05
0.000232529
0.000232529
0.000232529
0.000231061
0.000231061
0.00023106
0.00023106
0.000167386
7.94673e-05