/*--------------------------------*- C++ -*----------------------------------*\
| =========                 |                                                 |
| \\      /  F ield         | OpenFOAM: The Open Source CFD Toolbox           |
|  \\    /   O peration     | Version:                                        |
|   \\  /    A nd           | Website:  www.openfoam.com                      |
|    \\/     M anipulation  |                                                 |
\*---------------------------------------------------------------------------*/
FoamFile
{
    version     2.0;
    format      ascii;
    class       volScalarField;
    location    "900";
    object      p;
}
// * * * * * * * * * * * * * * * * * * * * * * * * * * * * * * * * * * * * * //

dimensions      [0 2 -2 0 0 0 0];


internalField   nonuniform List<scalar> 
172512
(
0.00361191
0.00361235
0.00361235
0.00361227
0.00355354
0.00355386
0.00355386
0.00355667
0.00350223
0.00350223
0.00350223
0.00350499
0.00344998
0.00344997
0.00344997
0.0034527
0.00339861
0.00339862
0.00339861
0.00340131
0.00334864
0.00334865
0.00334865
0.00335131
0.00330012
0.00330014
0.00330014
0.00330276
0.00325288
0.00325292
0.00325292
0.00325551
0.00320676
0.00320679
0.00320679
0.00320935
0.00316152
0.00316156
0.00316156
0.00316409
0.00311701
0.00311705
0.00311705
0.00311955
0.0030731
0.00307313
0.00307313
0.00307561
0.0030297
0.00302973
0.00302973
0.00303218
0.00298677
0.0029868
0.0029868
0.00298925
0.00294426
0.00294429
0.00294429
0.00294673
0.00290217
0.00290218
0.00290218
0.00290462
0.00286046
0.00286047
0.00286047
0.0028629
0.00281911
0.00281912
0.00281912
0.00282153
0.00277809
0.00277809
0.00277809
0.0027805
0.00273738
0.00273738
0.00273738
0.00273979
0.00269697
0.00269696
0.00269696
0.00269936
0.00265682
0.00265681
0.00265681
0.0026592
0.00261693
0.00261692
0.00261691
0.0026193
0.00257728
0.00257726
0.00257726
0.00257963
0.00253785
0.00253783
0.00253783
0.00254019
0.00249865
0.00249862
0.00249862
0.00250097
0.00245965
0.00245962
0.00245962
0.00246195
0.00242085
0.00242082
0.00242082
0.00242313
0.00238224
0.00238221
0.00238221
0.00238451
0.00234382
0.00234379
0.00234379
0.00234607
0.00230559
0.00230556
0.00230556
0.00230782
0.00226752
0.0022675
0.0022675
0.00226974
0.00222962
0.00222961
0.00222961
0.00223182
0.00219189
0.00219187
0.00219187
0.00219407
0.00215431
0.0021543
0.0021543
0.00215648
0.00211689
0.00211688
0.00211688
0.00211904
0.00207961
0.0020796
0.0020796
0.00208174
0.00204248
0.00204246
0.00204246
0.00204459
0.00200548
0.00200546
0.00200546
0.00200757
0.00196861
0.00196858
0.00196858
0.00197068
0.00193186
0.00193183
0.00193183
0.00193392
0.00189523
0.00189519
0.00189519
0.00189727
0.00185872
0.00185867
0.00185867
0.00186074
0.00182231
0.00182225
0.00182225
0.00182431
0.00178599
0.00178593
0.00178593
0.00178799
0.00174978
0.00174971
0.00174971
0.00175176
0.00171365
0.00171357
0.00171357
0.00171561
0.00167759
0.00167751
0.00167751
0.00167955
0.00164162
0.00164153
0.00164153
0.00164356
0.00160572
0.00160562
0.00160562
0.00160764
0.00156988
0.00156978
0.00156978
0.00157179
0.0015341
0.00153399
0.00153399
0.00153601
0.00149838
0.00149827
0.00149827
0.00150027
0.00146271
0.00146259
0.00146259
0.00146459
0.00142708
0.00142696
0.00142696
0.00142896
0.0013915
0.00139137
0.00139137
0.00139337
0.00135595
0.00135582
0.00135582
0.00135781
0.00132044
0.00132031
0.00132031
0.0013223
0.00128495
0.00128483
0.00128483
0.00128681
0.00124949
0.00124937
0.00124937
0.00125135
0.00121406
0.00121394
0.00121394
0.00121591
0.00117864
0.00117852
0.00117852
0.0011805
0.00114323
0.00114312
0.00114312
0.00114509
0.00110784
0.00110773
0.00110773
0.0011097
0.00107245
0.00107234
0.00107234
0.00107431
0.00103706
0.00103696
0.00103696
0.00103893
0.00100168
0.00100158
0.00100158
0.00100355
0.000966283
0.000966188
0.000966188
0.000968158
0.000930883
0.000930791
0.000930791
0.000932761
0.00089547
0.000895382
0.000895382
0.000897353
0.000860044
0.000859958
0.000859958
0.00086193
0.000824602
0.000824521
0.00082452
0.000826493
0.000789138
0.00078906
0.00078906
0.000791033
0.000753652
0.000753575
0.000753575
0.000755552
0.000718147
0.000718076
0.000718077
0.000720054
0.00068261
0.000682541
0.000682538
0.000684518
0.00064705
0.00064698
0.000646984
0.000648966
0.000611465
0.000611405
0.000611404
0.000613387
0.000575827
0.000575767
0.000575765
0.000577752
0.00054019
0.000540129
0.000540132
0.000542119
0.000504509
0.000504457
0.000504455
0.000506446
0.000468802
0.000468749
0.000468747
0.000470739
0.000433016
0.000432967
0.000432971
0.000434973
0.000397227
0.000397179
0.000397173
0.000399166
0.000361494
0.000361453
0.00036145
0.000363447
0.000325622
0.000325567
0.000325589
0.000327598
0.000289619
0.000289601
0.000289561
0.000291582
0.000253762
0.000253719
0.000253741
0.000255693
0.000217829
0.000217779
0.000217775
0.000219907
0.000181822
0.000181785
0.000181765
0.000183634
0.000145768
0.000145797
0.000145921
0.000147958
0.000109392
0.000109335
0.000108939
0.000111066
7.36161e-05
7.32356e-05
7.40054e-05
7.61141e-05
4.01844e-05
4.04321e-05
3.90693e-05
4.03023e-05
9.0477e-06
6.71033e-06
4.54625e-06
4.48939e-06
0.00362208
0.00362114
0.00362113
0.00362207
0.00362114
0.00362113
0.00362003
0.00362003
0.00362003
0.00362003
0.00362113
0.00362113
0.00362208
0.00362114
0.00362113
0.00362207
0.00361227
0.00356311
0.00361235
0.00361235
0.00356525
0.00356525
0.00361227
0.00356311
0.00361235
0.00361235
0.00356525
0.00356525
0.00361235
0.00356525
0.00356525
0.00361227
0.00356311
0.00361235
0.00356525
0.00356525
0.00356311
0.00355667
0.00351206
0.00355386
0.00355386
0.00351543
0.00351543
0.00355667
0.00351206
0.00355386
0.00355386
0.00351543
0.00351543
0.00355386
0.00351543
0.00351543
0.00355667
0.00351206
0.00355386
0.00351543
0.00351543
0.00351206
0.00350499
0.00345968
0.00350223
0.00350223
0.00346296
0.00346296
0.00350499
0.00345968
0.00350223
0.00350223
0.00346296
0.00346296
0.00350223
0.00346296
0.00346296
0.00350499
0.00345968
0.00350223
0.00346296
0.00346296
0.00345968
0.0034527
0.00340813
0.00344997
0.00344997
0.00341134
0.00341134
0.00345269
0.00340813
0.00344997
0.00344997
0.00341134
0.00341134
0.00344997
0.00341134
0.00341134
0.00345269
0.00340813
0.00344997
0.00341134
0.00341134
0.00340813
0.00340132
0.00335791
0.00339862
0.00339862
0.003361
0.00336101
0.00340131
0.00335791
0.00339861
0.00339862
0.003361
0.003361
0.00339862
0.003361
0.003361
0.00340131
0.00335791
0.00339861
0.003361
0.003361
0.00335791
0.00335131
0.00330915
0.00334866
0.00334866
0.00331214
0.00331214
0.00335131
0.00330915
0.00334865
0.00334866
0.00331214
0.00331214
0.00334865
0.00331214
0.00331214
0.00335131
0.00330915
0.00334865
0.00331214
0.00331214
0.00330915
0.00330276
0.00326172
0.00330014
0.00330015
0.00326461
0.00326461
0.00330276
0.00326172
0.00330014
0.00330014
0.00326461
0.00326461
0.00330014
0.00326461
0.00326461
0.00330276
0.00326172
0.00330014
0.00326462
0.00326462
0.00326172
0.00325551
0.00321542
0.00325291
0.00325291
0.00321823
0.00321823
0.00325551
0.00321542
0.00325292
0.00325291
0.00321823
0.00321823
0.00325292
0.00321823
0.00321823
0.00325551
0.00321542
0.00325292
0.00321823
0.00321823
0.00321542
0.00320935
0.00317004
0.00320679
0.00320679
0.00317279
0.0031728
0.00320935
0.00317004
0.00320679
0.00320679
0.00317279
0.00317279
0.00320679
0.00317279
0.00317279
0.00320935
0.00317004
0.00320679
0.0031728
0.00317279
0.00317004
0.00316409
0.00312541
0.00316156
0.00316156
0.00312812
0.00312812
0.00316409
0.0031254
0.00316156
0.00316156
0.00312812
0.00312812
0.00316156
0.00312812
0.00312812
0.00316409
0.00312541
0.00316156
0.00312812
0.00312812
0.00312541
0.00311955
0.00308138
0.00311705
0.00311705
0.00308406
0.00308406
0.00311955
0.00308138
0.00311705
0.00311705
0.00308406
0.00308406
0.00311705
0.00308406
0.00308406
0.00311955
0.00308138
0.00311705
0.00308406
0.00308406
0.00308138
0.00307561
0.00303788
0.00307313
0.00307313
0.00304054
0.00304054
0.00307561
0.00303788
0.00307313
0.00307313
0.00304054
0.00304054
0.00307313
0.00304054
0.00304054
0.00307561
0.00303788
0.00307313
0.00304054
0.00304054
0.00303788
0.00303218
0.00299487
0.00302973
0.00302973
0.00299749
0.00299749
0.00303218
0.00299488
0.00302973
0.00302973
0.00299749
0.00299749
0.00302973
0.00299749
0.00299749
0.00303218
0.00299488
0.00302973
0.00299749
0.00299749
0.00299487
0.00298924
0.00295231
0.0029868
0.0029868
0.00295488
0.00295488
0.00298925
0.00295231
0.0029868
0.0029868
0.00295488
0.00295488
0.0029868
0.00295488
0.0029549
0.00298925
0.00295231
0.0029868
0.00295488
0.00295488
0.00295231
0.00294673
0.00291014
0.00294429
0.00294429
0.00291268
0.00291267
0.00294673
0.00291014
0.00294429
0.00294429
0.00291267
0.00291267
0.00294429
0.00291267
0.00291267
0.00294673
0.00291014
0.00294429
0.00291267
0.00291267
0.00291014
0.00290462
0.00286837
0.00290219
0.00290219
0.00287086
0.00287086
0.00290462
0.00286837
0.00290218
0.00290218
0.00287086
0.00287086
0.00290219
0.00287086
0.00287087
0.00290462
0.00286837
0.00290218
0.00287086
0.00287086
0.00286837
0.0028629
0.00282696
0.00286047
0.00286047
0.00282942
0.00282942
0.0028629
0.00282696
0.00286047
0.00286047
0.00282942
0.00282942
0.00286047
0.00282942
0.00282942
0.0028629
0.00282696
0.00286047
0.00282942
0.00282942
0.00282696
0.00282153
0.00278589
0.00281912
0.00281912
0.00278832
0.00278832
0.00282153
0.00278589
0.00281912
0.00281912
0.00278832
0.00278832
0.00281912
0.00278832
0.00278832
0.00282153
0.00278589
0.00281912
0.00278832
0.00278832
0.00278589
0.0027805
0.00274513
0.00277809
0.00277809
0.00274753
0.00274753
0.0027805
0.00274513
0.00277809
0.00277809
0.00274753
0.00274753
0.00277809
0.00274753
0.00274753
0.0027805
0.00274513
0.00277809
0.00274753
0.00274753
0.00274513
0.00273979
0.00270467
0.00273738
0.00273738
0.00270704
0.00270704
0.00273979
0.00270467
0.00273738
0.00273738
0.00270704
0.00270704
0.00273738
0.00270704
0.00270704
0.00273979
0.00270467
0.00273738
0.00270704
0.00270704
0.00270467
0.00269936
0.00266448
0.00269696
0.00269696
0.00266682
0.00266682
0.00269936
0.00266448
0.00269696
0.00269696
0.00266682
0.00266682
0.00269696
0.00266682
0.00266682
0.00269936
0.00266448
0.00269696
0.00266682
0.00266682
0.00266448
0.0026592
0.00262455
0.00265681
0.00265681
0.00262687
0.00262687
0.0026592
0.00262455
0.00265681
0.00265681
0.00262687
0.00262686
0.00265681
0.00262687
0.00262687
0.00265921
0.00262455
0.00265681
0.00262687
0.00262687
0.00262455
0.0026193
0.00258486
0.00261691
0.00261691
0.00258715
0.00258715
0.0026193
0.00258486
0.00261691
0.00261691
0.00258715
0.00258715
0.00261692
0.00258715
0.00258715
0.0026193
0.00258486
0.00261691
0.00258715
0.00258715
0.00258486
0.00257963
0.00254539
0.00257726
0.00257726
0.00254766
0.00254766
0.00257963
0.00254539
0.00257725
0.00257726
0.00254766
0.00254766
0.00257726
0.00254766
0.00254766
0.00257963
0.00254539
0.00257726
0.00254766
0.00254766
0.00254539
0.00254019
0.00250614
0.00253783
0.00253783
0.0025084
0.0025084
0.00254019
0.00250614
0.00253783
0.00253783
0.0025084
0.0025084
0.00253783
0.0025084
0.0025084
0.00254019
0.00250614
0.00253783
0.0025084
0.0025084
0.00250614
0.00250097
0.00246711
0.00249862
0.00249862
0.00246935
0.00246935
0.00250097
0.00246711
0.00249862
0.00249862
0.00246935
0.00246935
0.00249862
0.00246935
0.00246935
0.00250097
0.00246711
0.00249862
0.00246935
0.00246935
0.00246711
0.00246195
0.00242827
0.00245962
0.00245962
0.0024305
0.0024305
0.00246195
0.00242827
0.00245962
0.00245962
0.0024305
0.0024305
0.00245962
0.0024305
0.0024305
0.00246195
0.00242827
0.00245962
0.0024305
0.0024305
0.00242827
0.00242313
0.00238963
0.00242082
0.00242082
0.00239185
0.00239185
0.00242313
0.00238963
0.00242082
0.00242082
0.00239185
0.00239185
0.00242082
0.00239185
0.00239185
0.00242313
0.00238963
0.00242082
0.00239185
0.00239184
0.00238963
0.00238451
0.00235117
0.00238221
0.00238221
0.00235338
0.00235338
0.00238451
0.00235117
0.00238221
0.00238221
0.00235338
0.00235338
0.00238221
0.00235338
0.00235338
0.00238451
0.00235117
0.00238221
0.00235338
0.00235338
0.00235117
0.00234607
0.0023129
0.00234379
0.00234379
0.0023151
0.0023151
0.00234607
0.0023129
0.00234379
0.00234379
0.0023151
0.0023151
0.00234379
0.0023151
0.0023151
0.00234607
0.0023129
0.00234379
0.0023151
0.0023151
0.0023129
0.00230782
0.0022748
0.00230556
0.00230556
0.002277
0.002277
0.00230782
0.0022748
0.00230556
0.00230556
0.002277
0.002277
0.00230556
0.002277
0.002277
0.00230782
0.0022748
0.00230556
0.002277
0.002277
0.0022748
0.00226974
0.00223687
0.0022675
0.0022675
0.00223906
0.00223906
0.00226974
0.00223687
0.0022675
0.0022675
0.00223906
0.00223906
0.0022675
0.00223906
0.00223906
0.00226974
0.00223687
0.0022675
0.00223906
0.00223906
0.00223687
0.00223182
0.00219911
0.00222961
0.00222961
0.00220129
0.00220129
0.00223182
0.00219911
0.00222961
0.00222961
0.00220129
0.00220129
0.00222961
0.00220129
0.00220129
0.00223182
0.00219911
0.00222961
0.00220129
0.00220129
0.00219911
0.00219407
0.0021615
0.00219187
0.00219187
0.00216368
0.00216368
0.00219407
0.0021615
0.00219187
0.00219187
0.00216368
0.00216368
0.00219188
0.00216368
0.00216368
0.00219407
0.0021615
0.00219187
0.00216368
0.00216368
0.0021615
0.00215648
0.00212405
0.0021543
0.0021543
0.00212622
0.00212622
0.00215648
0.00212405
0.0021543
0.0021543
0.00212622
0.00212622
0.0021543
0.00212622
0.00212622
0.00215648
0.00212405
0.0021543
0.00212622
0.00212622
0.00212405
0.00211904
0.00208674
0.00211688
0.00211688
0.0020889
0.0020889
0.00211904
0.00208674
0.00211688
0.00211688
0.0020889
0.0020889
0.00211688
0.0020889
0.0020889
0.00211904
0.00208674
0.00211688
0.0020889
0.0020889
0.00208674
0.00208174
0.00204957
0.0020796
0.0020796
0.00205173
0.00205173
0.00208174
0.00204957
0.0020796
0.0020796
0.00205173
0.00205173
0.0020796
0.00205173
0.00205173
0.00208174
0.00204957
0.0020796
0.00205173
0.00205173
0.00204957
0.00204459
0.00201254
0.00204246
0.00204246
0.00201469
0.00201469
0.00204459
0.00201254
0.00204246
0.00204246
0.00201469
0.00201469
0.00204246
0.00201469
0.00201469
0.00204459
0.00201254
0.00204246
0.00201469
0.00201469
0.00201254
0.00200757
0.00197565
0.00200546
0.00200546
0.00197779
0.00197779
0.00200757
0.00197565
0.00200546
0.00200546
0.00197779
0.00197779
0.00200546
0.00197779
0.00197779
0.00200757
0.00197565
0.00200546
0.00197779
0.00197779
0.00197565
0.00197068
0.00193887
0.00196858
0.00196858
0.00194101
0.001941
0.00197068
0.00193887
0.00196858
0.00196858
0.001941
0.001941
0.00196858
0.001941
0.001941
0.00197068
0.00193887
0.00196858
0.001941
0.001941
0.00193887
0.00193392
0.00190222
0.00193183
0.00193183
0.00190434
0.00190434
0.00193392
0.00190222
0.00193183
0.00193183
0.00190434
0.00190434
0.00193183
0.00190434
0.00190434
0.00193392
0.00190222
0.00193183
0.00190434
0.00190434
0.00190222
0.00189727
0.00186567
0.00189519
0.00189519
0.00186779
0.00186779
0.00189727
0.00186567
0.00189519
0.00189519
0.00186779
0.00186779
0.00189519
0.00186779
0.00186779
0.00189727
0.00186567
0.00189519
0.00186779
0.00186779
0.00186567
0.00186074
0.00182924
0.00185867
0.00185867
0.00183134
0.00183134
0.00186074
0.00182924
0.00185867
0.00185867
0.00183134
0.00183134
0.00185867
0.00183134
0.00183134
0.00186074
0.00182924
0.00185867
0.00183134
0.00183134
0.00182924
0.00182431
0.0017929
0.00182225
0.00182225
0.001795
0.001795
0.00182431
0.0017929
0.00182225
0.00182225
0.001795
0.001795
0.00182225
0.001795
0.001795
0.00182431
0.0017929
0.00182225
0.001795
0.001795
0.0017929
0.00178799
0.00175666
0.00178593
0.00178593
0.00175875
0.00175875
0.00178799
0.00175666
0.00178593
0.00178593
0.00175875
0.00175875
0.00178593
0.00175875
0.00175875
0.00178799
0.00175666
0.00178593
0.00175875
0.00175875
0.00175666
0.00175175
0.00172051
0.00174971
0.00174971
0.0017226
0.0017226
0.00175175
0.00172051
0.00174971
0.00174971
0.0017226
0.0017226
0.00174971
0.0017226
0.0017226
0.00175175
0.00172051
0.00174971
0.0017226
0.0017226
0.00172051
0.00171561
0.00168444
0.00171357
0.00171357
0.00168652
0.00168652
0.00171561
0.00168444
0.00171357
0.00171357
0.00168652
0.00168652
0.00171357
0.00168652
0.00168652
0.00171561
0.00168444
0.00171357
0.00168652
0.00168652
0.00168444
0.00167955
0.00164845
0.00167751
0.00167751
0.00165052
0.00165052
0.00167955
0.00164845
0.00167751
0.00167751
0.00165052
0.00165052
0.00167751
0.00165052
0.00165052
0.00167955
0.00164845
0.00167751
0.00165052
0.00165052
0.00164845
0.00164356
0.00161253
0.00164153
0.00164153
0.00161459
0.00161459
0.00164356
0.00161253
0.00164153
0.00164153
0.00161459
0.00161459
0.00164153
0.00161459
0.00161459
0.00164356
0.00161253
0.00164153
0.00161459
0.00161459
0.00161253
0.00160764
0.00157668
0.00160562
0.00160562
0.00157873
0.00157873
0.00160764
0.00157668
0.00160562
0.00160562
0.00157873
0.00157873
0.00160562
0.00157873
0.00157873
0.00160764
0.00157668
0.00160562
0.00157873
0.00157873
0.00157668
0.00157179
0.00154088
0.00156978
0.00156978
0.00154294
0.00154294
0.00157179
0.00154088
0.00156978
0.00156978
0.00154294
0.00154294
0.00156978
0.00154294
0.00154294
0.00157179
0.00154088
0.00156978
0.00154294
0.00154294
0.00154088
0.001536
0.00150515
0.00153399
0.00153399
0.00150719
0.00150719
0.001536
0.00150515
0.00153399
0.00153399
0.00150719
0.00150719
0.00153399
0.00150719
0.00150719
0.001536
0.00150515
0.00153399
0.00150719
0.00150719
0.00150515
0.00150027
0.00146946
0.00149827
0.00149827
0.0014715
0.0014715
0.00150027
0.00146946
0.00149827
0.00149827
0.0014715
0.0014715
0.00149827
0.0014715
0.0014715
0.00150027
0.00146946
0.00149827
0.0014715
0.0014715
0.00146946
0.00146459
0.00143383
0.00146259
0.00146259
0.00143586
0.00143586
0.00146459
0.00143383
0.00146259
0.00146259
0.00143586
0.00143586
0.00146259
0.00143586
0.00143586
0.00146459
0.00143383
0.00146259
0.00143586
0.00143586
0.00143383
0.00142896
0.00139823
0.00142696
0.00142696
0.00140027
0.00140027
0.00142896
0.00139823
0.00142696
0.00142696
0.00140027
0.00140027
0.00142696
0.00140027
0.00140027
0.00142896
0.00139823
0.00142696
0.00140027
0.00140027
0.00139823
0.00139337
0.00136268
0.00139137
0.00139137
0.00136471
0.00136471
0.00139337
0.00136268
0.00139137
0.00139137
0.00136471
0.00136471
0.00139137
0.00136471
0.00136471
0.00139337
0.00136268
0.00139137
0.00136471
0.00136471
0.00136268
0.00135781
0.00132716
0.00135582
0.00135582
0.00132918
0.00132918
0.00135781
0.00132716
0.00135582
0.00135582
0.00132918
0.00132918
0.00135582
0.00132919
0.00132918
0.00135781
0.00132716
0.00135582
0.00132918
0.00132918
0.00132716
0.0013223
0.00129167
0.00132031
0.00132031
0.0012937
0.0012937
0.0013223
0.00129167
0.00132031
0.00132031
0.0012937
0.0012937
0.00132031
0.00129369
0.0012937
0.0013223
0.00129167
0.00132031
0.0012937
0.0012937
0.00129167
0.00128681
0.00125622
0.00128483
0.00128483
0.00125823
0.00125823
0.00128681
0.00125622
0.00128483
0.00128483
0.00125823
0.00125823
0.00128483
0.00125823
0.00125823
0.00128681
0.00125622
0.00128483
0.00125823
0.00125823
0.00125621
0.00125135
0.00122078
0.00124937
0.00124937
0.0012228
0.0012228
0.00125135
0.00122078
0.00124937
0.00124937
0.0012228
0.0012228
0.00124937
0.0012228
0.0012228
0.00125135
0.00122078
0.00124937
0.0012228
0.0012228
0.00122078
0.00121591
0.00118536
0.00121394
0.00121394
0.00118738
0.00118738
0.00121591
0.00118536
0.00121394
0.00121394
0.00118738
0.00118738
0.00121394
0.00118738
0.00118738
0.00121591
0.00118536
0.00121394
0.00118738
0.00118738
0.00118536
0.0011805
0.00114996
0.00117852
0.00117852
0.00115197
0.00115197
0.0011805
0.00114996
0.00117852
0.00117852
0.00115197
0.00115197
0.00117852
0.00115197
0.00115197
0.0011805
0.00114996
0.00117852
0.00115197
0.00115197
0.00114996
0.00114509
0.00111457
0.00114312
0.00114312
0.00111658
0.00111658
0.00114509
0.00111457
0.00114312
0.00114312
0.00111658
0.00111658
0.00114312
0.00111658
0.00111658
0.00114509
0.00111457
0.00114312
0.00111658
0.00111658
0.00111457
0.0011097
0.00107918
0.00110773
0.00110773
0.00108119
0.00108119
0.0011097
0.00107918
0.00110773
0.00110773
0.00108119
0.00108119
0.00110773
0.00108119
0.00108119
0.0011097
0.00107918
0.00110773
0.00108119
0.00108119
0.00107918
0.00107431
0.0010438
0.00107234
0.00107234
0.00104581
0.00104581
0.00107431
0.0010438
0.00107234
0.00107234
0.00104581
0.00104581
0.00107234
0.00104581
0.00104581
0.00107431
0.0010438
0.00107234
0.00104581
0.00104581
0.0010438
0.00103893
0.00100842
0.00103696
0.00103696
0.00101042
0.00101042
0.00103893
0.00100842
0.00103696
0.00103696
0.00101042
0.00101042
0.00103696
0.00101042
0.00101042
0.00103893
0.00100842
0.00103696
0.00101042
0.00101042
0.00100842
0.00100355
0.000973032
0.00100158
0.00100158
0.000975036
0.000975036
0.00100355
0.000973032
0.00100158
0.00100158
0.000975036
0.000975036
0.00100158
0.000975036
0.000975036
0.00100355
0.000973032
0.00100158
0.000975036
0.000975036
0.000973032
0.000968157
0.000937638
0.000966188
0.000966188
0.000939641
0.000939641
0.000968157
0.000937639
0.000966188
0.000966188
0.000939641
0.000939641
0.000966188
0.000939641
0.000939641
0.000968157
0.000937639
0.000966188
0.000939641
0.000939641
0.000937638
0.000932761
0.000902234
0.000930791
0.000930791
0.000904236
0.000904236
0.00093276
0.000902234
0.000930791
0.000930791
0.000904235
0.000904235
0.000930791
0.000904236
0.000904236
0.000932761
0.000902233
0.000930791
0.000904235
0.000904236
0.000902233
0.000897352
0.000866814
0.000895382
0.000895382
0.000868815
0.000868815
0.000897352
0.000866814
0.000895382
0.000895382
0.000868815
0.000868815
0.000895382
0.000868815
0.000868815
0.000897352
0.000866814
0.000895382
0.000868815
0.000868815
0.000866814
0.000861929
0.000831381
0.000859958
0.000859958
0.000833382
0.000833382
0.000861929
0.000831382
0.000859958
0.000859958
0.000833381
0.000833381
0.000859958
0.000833382
0.000833382
0.00086193
0.000831381
0.000859958
0.000833381
0.000833382
0.000831381
0.000826493
0.000795926
0.00082452
0.000824521
0.000797927
0.000797927
0.000826493
0.000795927
0.00082452
0.00082452
0.000797927
0.000797927
0.000824521
0.000797927
0.000797927
0.000826493
0.000795927
0.00082452
0.000797927
0.000797927
0.000795926
0.000791033
0.000760449
0.000789059
0.00078906
0.000762449
0.000762448
0.000791034
0.000760448
0.000789059
0.00078906
0.000762449
0.000762448
0.000789059
0.000762448
0.000762448
0.000791034
0.000760448
0.000789059
0.000762448
0.000762448
0.000760448
0.000755552
0.000724953
0.000753577
0.000753575
0.000726952
0.000726953
0.00075555
0.000724954
0.000753577
0.000753576
0.000726952
0.000726954
0.000753577
0.000726953
0.000726954
0.000755551
0.000724956
0.000753577
0.000726954
0.000726954
0.000724955
0.000720052
0.000689427
0.000718075
0.000718076
0.000691428
0.000691429
0.000720054
0.000689428
0.000718075
0.000718077
0.000691427
0.000691427
0.000718076
0.000691429
0.000691426
0.000720055
0.000689425
0.000718076
0.000691427
0.000691426
0.000689424
0.000684519
0.000653873
0.00068254
0.000682541
0.000655873
0.00065587
0.000684521
0.00065387
0.00068254
0.000682538
0.000655872
0.000655871
0.000682539
0.00065587
0.000655873
0.000684517
0.000653872
0.000682538
0.000655871
0.000655873
0.000653874
0.000648964
0.000618303
0.000646983
0.00064698
0.000620304
0.000620304
0.000648961
0.000618305
0.000646984
0.000646984
0.000620304
0.000620306
0.000646984
0.000620304
0.000620303
0.000648964
0.000618306
0.000646984
0.000620306
0.000620304
0.000618302
0.000613386
0.000582672
0.000611402
0.000611405
0.000584676
0.000584679
0.000613389
0.000582675
0.000611402
0.000611404
0.000584675
0.000584674
0.000611402
0.000584679
0.000584678
0.000613388
0.000582671
0.000611402
0.000584675
0.000584677
0.000582673
0.00057775
0.000547044
0.000575766
0.000575766
0.000549043
0.000549038
0.000577752
0.000547038
0.000575765
0.000575764
0.000549043
0.000549041
0.000575767
0.000549037
0.000549038
0.000577749
0.000547042
0.000575766
0.00054904
0.000549039
0.000547039
0.000542122
0.000511373
0.000540133
0.00054013
0.000513378
0.000513381
0.000542117
0.000511377
0.000540134
0.000540133
0.000513378
0.000513381
0.000540131
0.000513381
0.000513382
0.00054212
0.000511377
0.000540131
0.000513381
0.000513382
0.000511378
0.000506442
0.000475679
0.000504452
0.000504456
0.000477679
0.000477678
0.000506446
0.000475677
0.000504452
0.000504454
0.000477678
0.000477675
0.000504456
0.000477677
0.000477673
0.000506445
0.000475673
0.000504456
0.000477674
0.000477673
0.00047567
0.000470747
0.000439913
0.000468753
0.00046875
0.000441922
0.000441921
0.000470744
0.000439913
0.000468752
0.000468748
0.000441923
0.000441925
0.000468745
0.000441922
0.000441926
0.000470742
0.000439917
0.000468745
0.000441925
0.000441927
0.000439919
0.000434962
0.000404103
0.000432965
0.000432966
0.000406108
0.000406109
0.000434963
0.000404105
0.000432965
0.00043297
0.000406107
0.000406108
0.000432975
0.00040611
0.000406112
0.000434968
0.000404103
0.000432975
0.00040611
0.000406112
0.000404104
0.000399171
0.0003684
0.000397178
0.000397179
0.0003704
0.000370404
0.000399172
0.000368406
0.000397177
0.000397173
0.000370398
0.00037039
0.000397173
0.000370401
0.000370383
0.000399167
0.000368391
0.000397172
0.000370387
0.000370381
0.000368384
0.000363453
0.000332547
0.000361452
0.000361454
0.000334554
0.000334541
0.000363457
0.000332527
0.000361451
0.000361452
0.000334559
0.000334573
0.000361447
0.000334543
0.000334566
0.000363451
0.000332565
0.000361446
0.000334575
0.000334571
0.000332558
0.000327589
0.000296554
0.000325581
0.000325566
0.000298583
0.000298597
0.000327568
0.000296586
0.000325584
0.000325587
0.000298577
0.000298555
0.000325588
0.000298598
0.000298591
0.000327599
0.000296523
0.000325592
0.000298556
0.000298586
0.000296565
0.000291576
0.000260678
0.000289576
0.0002896
0.00026267
0.000262667
0.000291611
0.000260664
0.000289569
0.00028956
0.000262673
0.000262696
0.00028958
0.00026266
0.00026263
0.000291557
0.000260709
0.000289572
0.000262691
0.000262633
0.000260623
0.000255736
0.000224778
0.000253725
0.000253722
0.000226802
0.000226802
0.000255726
0.000224782
0.000253729
0.000253745
0.000226799
0.000226777
0.000253696
0.000226813
0.000226886
0.00025576
0.00022475
0.000253701
0.000226785
0.000226882
0.000224901
0.000219795
0.000188788
0.000217787
0.000217768
0.000190786
0.000190749
0.000219781
0.000188748
0.000217786
0.000217764
0.000190791
0.000190764
0.000217868
0.000190736
0.000190668
0.000219772
0.000188753
0.000217866
0.000190754
0.000190674
0.000188598
0.000183812
0.000152659
0.000181794
0.000181806
0.00015469
0.000154785
0.000183812
0.000152782
0.000181792
0.000181786
0.000154688
0.00015486
0.000181658
0.000154805
0.000154874
0.000183789
0.000152918
0.000181657
0.000154877
0.000154872
0.000152924
0.000147732
0.000116601
0.00014572
0.000145769
0.000118635
0.000118608
0.000147813
0.000116542
0.00014573
0.000145893
0.000118615
0.000118366
0.000145893
0.000118575
0.00011837
0.000147964
0.000116123
0.000145905
0.000118339
0.000118347
0.000116191
0.000111472
8.00505e-05
0.000109406
0.000109374
8.20753e-05
8.1877e-05
0.000111424
7.983e-05
0.00010937
0.00010897
8.20991e-05
8.23002e-05
0.000109123
8.19144e-05
8.25109e-05
0.000110897
8.04146e-05
0.000109081
8.2338e-05
8.25362e-05
8.07066e-05
7.53411e-05
4.72192e-05
7.34361e-05
7.31812e-05
4.87032e-05
4.85119e-05
7.50502e-05
4.71874e-05
7.35086e-05
7.39582e-05
4.87797e-05
4.88401e-05
7.4018e-05
4.84399e-05
4.77782e-05
7.59224e-05
4.69299e-05
7.40863e-05
4.87474e-05
4.7829e-05
4.5607e-05
4.24666e-05
6.17505e-06
4.01129e-05
4.06237e-05
8.42088e-06
1.00893e-05
4.29904e-05
8.014e-06
4.00782e-05
3.93208e-05
8.24141e-06
6.83774e-06
3.83074e-05
1.00061e-05
8.16994e-06
4.15881e-05
4.71048e-06
3.82458e-05
6.7777e-06
7.99976e-06
6.37356e-06
3.55259e-06
5.6304e-06
6.78866e-06
4.7818e-06
5.41996e-06
4.59635e-06
1.02491e-05
8.01915e-06
9.08114e-06
6.0608e-06
2.8114e-06
5.8644e-06
0.00362995
0.00364013
0.00363466
0.00363466
0.0036572
0.00364413
0.00367237
0.00363807
0.0036572
0.00364413
0.00363808
0.00367237
0.00364865
0.00367609
0.00367609
0.00358412
0.00360809
0.00361298
0.00357453
0.00358482
0.00357668
0.00358411
0.00360812
0.00361296
0.00357451
0.00361191
0.00361191
0.00361191
0.00356494
0.00356494
0.00356493
0.00356494
0.00358191
0.00360905
0.0036117
0.00358948
0.00361168
0.0035794
0.00359038
0.00358489
0.00357666
0.00358191
0.0036117
0.00360906
0.00358948
0.00361169
0.00359038
0.00357939
0.00361375
0.00361375
0.00358461
0.00357977
0.00357977
0.00353915
0.0035587
0.00355968
0.00353764
0.00355738
0.00353717
0.00353915
0.00355872
0.00355968
0.00353763
0.00355354
0.00355354
0.00355354
0.0035155
0.0035155
0.0035155
0.0035155
0.00353775
0.00355843
0.00355369
0.00354157
0.0035572
0.00353811
0.00354146
0.0035574
0.00353717
0.00353776
0.00355369
0.00355843
0.00354157
0.00355719
0.00354146
0.00353811
0.0035596
0.0035596
0.00353812
0.00353856
0.00353856
0.00348669
0.0035055
0.00350656
0.00348567
0.00350512
0.00348538
0.00348669
0.0035055
0.00350656
0.00348567
0.00350223
0.00350223
0.00350222
0.00346296
0.00346296
0.00346296
0.00346296
0.00348578
0.00350583
0.00350216
0.00348909
0.00350534
0.00348609
0.00348902
0.00350512
0.00348538
0.00348578
0.00350216
0.00350583
0.00348909
0.00350534
0.00348902
0.00348609
0.00350611
0.00350611
0.00348582
0.0034862
0.0034862
0.00343417
0.00345282
0.00345368
0.00343341
0.00345261
0.00343323
0.00343417
0.00345282
0.00345368
0.00343341
0.00344998
0.00344998
0.00344998
0.00341134
0.00341134
0.00341134
0.00341134
0.00343366
0.0034532
0.00344994
0.00343703
0.00345296
0.00343382
0.003437
0.00345261
0.00343323
0.00343366
0.00344994
0.0034532
0.00343703
0.00345296
0.003437
0.00343382
0.00345325
0.00345325
0.00343377
0.00343378
0.00343378
0.00338297
0.00340134
0.00340196
0.00338243
0.00340118
0.00338228
0.00338297
0.00340134
0.00340196
0.00338243
0.00339861
0.00339861
0.00339861
0.00336099
0.00336099
0.00336099
0.00336099
0.0033827
0.00340167
0.00339859
0.00338598
0.00340152
0.0033828
0.00338596
0.00340118
0.00338228
0.0033827
0.00339859
0.00340167
0.00338598
0.00340152
0.00338596
0.0033828
0.00340166
0.00340166
0.00338283
0.00338271
0.00338271
0.00333334
0.00335129
0.00335174
0.00333295
0.00335116
0.00333283
0.00333334
0.00335129
0.00335174
0.00333295
0.00334864
0.00334864
0.00334864
0.00331212
0.00331212
0.00331212
0.00331212
0.00333322
0.00335158
0.00334862
0.00333639
0.00335148
0.00333328
0.00333636
0.00335116
0.00333282
0.00333322