/*--------------------------------*- C++ -*----------------------------------*\
| =========                 |                                                 |
| \\      /  F ield         | OpenFOAM: The Open Source CFD Toolbox           |
|  \\    /   O peration     | Version:  2312                                  |
|   \\  /    A nd           | Website:  www.openfoam.com                      |
|    \\/     M anipulation  |                                                 |
\*---------------------------------------------------------------------------*/
FoamFile
{
    version     2.0;
    format      ascii;
    arch        "LSB;label=32;scalar=64";
    class       volScalarField;
    location    "500";
    object      epsilon;
}
// * * * * * * * * * * * * * * * * * * * * * * * * * * * * * * * * * * * * * //

dimensions      [0 2 -3 0 0 0 0];

internalField   nonuniform List<scalar> 
43208
(
6.67302e-07
1.19387e-06
1.19459e-06
1.42637e-06
6.71738e-07
1.1951e-06
1.19355e-06
1.42509e-06
6.75132e-07
1.19226e-06
1.1943e-06
1.42528e-06
6.80054e-07
1.19767e-06
1.198e-06
1.43126e-06
6.84028e-07
1.19959e-06
1.1986e-06
1.4323e-06
6.8643e-07
1.19813e-06
1.19801e-06
1.43116e-06
6.88536e-07
1.1974e-06
1.19791e-06
1.43091e-06
6.90199e-07
1.19693e-06
1.19657e-06
1.43035e-06
6.91651e-07
1.1954e-06
1.19587e-06
1.42989e-06
6.92676e-07
1.1949e-06
1.19556e-06
1.4317e-06
6.93011e-07
1.19158e-06
1.1913e-06
1.4236e-06
6.93245e-07
1.19087e-06
1.19138e-06
1.43067e-06
6.93204e-07
1.18793e-06
1.18802e-06
1.42207e-06
6.92369e-07
1.18481e-06
1.18466e-06
1.42215e-06
6.91837e-07
1.18395e-06
1.18351e-06
1.4211e-06
6.91569e-07
1.17981e-06
1.18195e-06
1.42022e-06
6.88897e-07
1.17669e-06
1.17382e-06
1.41047e-06
6.88822e-07
1.17342e-06
1.17626e-06
1.41599e-06
6.86634e-07
1.17129e-06
1.16992e-06
1.41097e-06
6.82583e-07
1.1624e-06
1.16183e-06
1.39583e-06
7.42652e-07
1.08521e-06
1.08725e-06
1.37545e-06
1.425e-06
1.19278e-06
1.19179e-06
1.42435e-06
1.19281e-06
1.19405e-06
1.19178e-06
1.19219e-06
1.42689e-06
1.19405e-06
1.19232e-06
1.42383e-06
1.42731e-06
1.42187e-06
1.19377e-06
1.1939e-06
1.19423e-06
1.19568e-06
1.42798e-06
1.42484e-06
1.19377e-06
1.19462e-06
1.19401e-06
1.19409e-06
1.19342e-06
1.19566e-06
1.19475e-06
1.42874e-06
1.42175e-06
1.1935e-06
1.19406e-06
1.19455e-06
1.4237e-06
1.42316e-06
1.42136e-06
1.19371e-06
1.19507e-06
1.193e-06
1.19226e-06
1.4258e-06
1.41844e-06
1.19336e-06
1.19354e-06
1.19272e-06
1.1934e-06
1.19467e-06
1.19233e-06
1.19398e-06
1.4231e-06
1.42302e-06
1.19437e-06
1.19346e-06
1.19371e-06
1.42265e-06
1.4243e-06
1.42911e-06
1.19328e-06
1.1922e-06
1.19701e-06
1.19597e-06
1.42099e-06
1.42806e-06
1.19313e-06
1.19422e-06
1.19704e-06
1.19733e-06
1.19408e-06
1.19599e-06
1.1969e-06
1.42595e-06
1.42912e-06
1.1939e-06
1.19735e-06
1.19695e-06
1.42876e-06
1.43173e-06
1.43065e-06
1.19809e-06
1.19766e-06
1.19921e-06
1.19964e-06
1.4315e-06
1.43182e-06
1.19804e-06
1.19801e-06
1.19896e-06
1.19865e-06
1.19787e-06
1.19963e-06
1.1991e-06
1.43129e-06
1.42977e-06
1.19784e-06
1.19862e-06
1.19886e-06
1.43071e-06
1.43214e-06
1.42887e-06
1.19917e-06
1.19961e-06
1.19825e-06
1.19838e-06
1.43322e-06
1.42927e-06
1.1989e-06
1.19864e-06
1.19803e-06
1.19812e-06
1.19912e-06
1.19839e-06
1.19852e-06
1.43141e-06
1.42899e-06
1.19887e-06
1.19813e-06
1.19833e-06
1.42955e-06
1.43053e-06
1.42965e-06
1.19808e-06
1.19811e-06
1.19786e-06
1.19759e-06
1.43084e-06
1.42918e-06
1.19787e-06
1.19799e-06
1.19766e-06
1.19794e-06
1.19827e-06
1.19758e-06
1.19777e-06
1.43066e-06
1.42995e-06
1.19808e-06
1.19792e-06
1.19757e-06
1.42906e-06
1.4314e-06
1.42828e-06
1.19777e-06
1.19743e-06
1.19687e-06
1.19701e-06
1.43082e-06
1.42901e-06
1.19758e-06
1.19794e-06
1.19675e-06
1.19707e-06
1.1977e-06
1.19701e-06
1.19716e-06
1.43185e-06
1.42842e-06
1.19752e-06
1.19707e-06
1.1971e-06
1.42891e-06
1.4299e-06
1.42913e-06
1.19666e-06
1.19692e-06
1.19635e-06
1.19592e-06
1.43094e-06
1.42792e-06
1.19651e-06
1.19654e-06
1.19609e-06
1.1959e-06
1.1967e-06
1.19587e-06
1.19577e-06
1.4299e-06
1.42833e-06
1.19658e-06
1.19586e-06
1.19556e-06
1.42748e-06
1.43093e-06
1.42762e-06
1.1962e-06
1.19548e-06
1.1949e-06
1.19491e-06
1.42942e-06
1.42842e-06
1.19595e-06
1.19593e-06
1.19484e-06
1.19588e-06
1.19577e-06
1.19493e-06
1.19596e-06
1.43053e-06
1.42958e-06
1.19557e-06
1.19584e-06
1.19584e-06
1.4304e-06
1.4292e-06
1.42574e-06
1.19462e-06
1.19485e-06
1.19315e-06
1.19289e-06
1.4305e-06
1.42462e-06
1.19454e-06
1.1955e-06
1.19289e-06
1.19219e-06
1.19569e-06
1.19288e-06
1.19178e-06
1.43095e-06
1.42355e-06
1.1956e-06
1.19217e-06
1.1916e-06
1.42219e-06
1.42717e-06
1.42454e-06
1.19237e-06
1.19168e-06
1.19074e-06
1.1906e-06
1.42579e-06
1.4251e-06
1.19213e-06
1.1914e-06
1.19062e-06
1.19106e-06
1.19106e-06
1.19052e-06
1.19145e-06
1.4249e-06
1.42623e-06
1.19087e-06
1.19096e-06
1.19132e-06
1.42773e-06
1.42678e-06
1.42301e-06
1.19061e-06
1.19085e-06
1.18962e-06
1.18996e-06
1.42817e-06
1.42261e-06
1.19051e-06
1.19139e-06
1.18943e-06
1.19003e-06
1.19188e-06
1.1901e-06
1.18979e-06
1.42913e-06
1.42257e-06
1.19177e-06
1.19018e-06
1.18964e-06
1.42135e-06
1.42425e-06
1.41949e-06
1.18847e-06
1.18787e-06
1.18563e-06
1.18489e-06
1.42337e-06
1.41834e-06
1.18826e-06
1.18798e-06
1.18551e-06
1.18494e-06
1.18749e-06
1.18476e-06
1.18491e-06
1.42339e-06
1.41845e-06
1.18732e-06
1.18481e-06
1.18477e-06
1.41903e-06
1.42123e-06
1.41806e-06
1.18503e-06
1.18493e-06
1.18332e-06
1.18475e-06
1.42165e-06
1.42083e-06
1.18489e-06
1.18478e-06
1.18307e-06
1.18374e-06
1.18497e-06
1.18481e-06
1.1845e-06
1.42111e-06
1.41945e-06
1.18485e-06
1.18386e-06
1.18424e-06
1.41978e-06
1.42018e-06
1.42061e-06
1.18323e-06
1.18379e-06
1.18288e-06
1.18053e-06
1.42199e-06
1.41532e-06
1.18299e-06
1.18343e-06
1.18279e-06
1.18288e-06
1.1836e-06
1.18038e-06
1.18197e-06
1.42103e-06
1.42048e-06
1.18332e-06
1.18278e-06
1.18189e-06
1.41872e-06
1.42141e-06
1.40536e-06
1.18189e-06
1.17997e-06
1.17459e-06
1.17697e-06
1.41681e-06
1.41293e-06
1.18197e-06
1.18213e-06
1.1743e-06
1.17451e-06
1.1812e-06
1.17711e-06
1.17586e-06
1.42149e-06
1.4057e-06
1.18129e-06
1.17461e-06
1.17557e-06
1.40908e-06
1.40766e-06
1.41816e-06
1.17414e-06
1.17649e-06
1.17629e-06
1.17446e-06
1.41462e-06
1.41142e-06
1.17374e-06
1.1737e-06
1.17605e-06
1.1758e-06
1.17501e-06
1.17421e-06
1.17464e-06
1.40738e-06
1.41703e-06
1.17456e-06
1.17565e-06
1.17444e-06
1.41358e-06
1.42034e-06
1.40518e-06
1.17652e-06
1.17378e-06
1.17116e-06
1.17181e-06
1.41267e-06
1.40929e-06
1.17642e-06
1.17649e-06
1.17134e-06
1.17281e-06
1.17475e-06
1.17167e-06
1.17296e-06
1.41992e-06
1.40735e-06
1.1748e-06
1.17276e-06
1.17335e-06
1.41001e-06
1.40587e-06
1.39674e-06
1.16895e-06
1.17125e-06
1.1635e-06
1.1642e-06
1.41132e-06
1.39721e-06
1.16888e-06
1.1698e-06
1.16307e-06
1.16246e-06
1.17162e-06
1.16445e-06
1.16335e-06
1.40783e-06
1.39445e-06
1.17146e-06
1.16254e-06
1.16276e-06
1.39479e-06
1.39855e-06
1.39367e-06
1.16291e-06
1.16235e-06
1.10953e-06
1.10762e-06
1.39798e-06
1.38932e-06
1.16251e-06
1.16181e-06
1.10959e-06
1.10975e-06
1.16188e-06
1.1075e-06
1.10845e-06
1.3961e-06
1.3943e-06
1.16145e-06
1.10971e-06
1.1087e-06
1.39211e-06
1.37538e-06
1.08671e-06
1.08526e-06
1.37254e-06
1.0868e-06
1.08722e-06
7.42045e-07
7.42712e-07
7.42368e-07
1.08629e-06
1.37671e-06
1.08658e-06
4.23297e-06
9.55506e-06
1.90822e-05
9.55429e-06
6.65896e-07
6.65694e-07
6.66407e-07
6.65906e-07
2.29321e-06
1.18945e-06
3.64115e-06
9.39137e-07
4.24615e-06
9.57015e-06
4.24157e-06
9.58763e-06
1.91004e-05
1.91314e-05
4.24651e-06
9.57557e-06
4.24437e-06
9.5918e-06
6.67302e-07
6.67813e-07
6.67314e-07
6.70851e-07
6.71399e-07
6.71076e-07
6.71136e-07
2.30201e-06
3.65401e-06
9.41322e-07
1.19513e-06
2.2983e-06
3.65882e-06
9.42844e-07
1.91252e-05
1.91369e-05
2.30209e-06
9.42399e-07
3.65681e-06
1.19472e-06
2.30076e-06
9.43467e-07
3.65603e-06
5.65816e-06
5.661e-06
1.4254e-06
5.66125e-06
5.66347e-06
4.24228e-06
9.59643e-06
4.24618e-06
9.59327e-06
1.91454e-05
1.91411e-05
4.24065e-06
9.59662e-06
4.24352e-06
9.59151e-06
6.72281e-07
6.71924e-07
6.72153e-07
6.74132e-07
6.74051e-07
6.74521e-07
6.74667e-07
2.29931e-06
3.6568e-06
9.45611e-07
1.19376e-06
2.30305e-06
3.64888e-06
9.4573e-07
1.91338e-05
1.91302e-05
2.29797e-06
9.45111e-07
3.65086e-06
1.19329e-06
2.30037e-06
9.45236e-07
3.64796e-06
5.65884e-06
5.65958e-06
1.42217e-06
5.65434e-06
5.65498e-06
4.23879e-06
9.58427e-06
4.23766e-06
9.58519e-06
1.91256e-05
1.91331e-05
4.24153e-06
9.58523e-06
4.2392e-06
9.5887e-06
6.74749e-07
6.756e-07
6.75598e-07
6.78773e-07
6.78265e-07
6.79091e-07
6.78939e-07
2.29464e-06
3.64393e-06
9.4547e-07
1.19256e-06
2.29488e-06
3.64651e-06
9.45536e-07
1.91351e-05
1.91527e-05
2.29753e-06
9.45948e-07
3.6499e-06
1.19546e-06
2.29653e-06
9.46539e-07
3.65276e-06
5.65357e-06
5.65568e-06
1.42558e-06
5.65765e-06
5.66028e-06
4.24949e-06
9.6016e-06
4.24604e-06
9.61631e-06
1.91687e-05
1.91965e-05
4.24889e-06
9.60566e-06
4.24697e-06
9.61835e-06
6.7971e-07
6.80241e-07
6.80139e-07
6.83214e-07
6.83339e-07
6.83147e-07
6.83241e-07
2.30253e-06
3.65797e-06
9.48324e-07
1.19882e-06
2.30027e-06
3.66092e-06
9.49437e-07
1.91802e-05
1.91938e-05
2.30189e-06
9.48973e-07
3.65795e-06
1.1984e-06
2.30103e-06
9.49676e-07
3.65846e-06
5.6682e-06
5.67029e-06
1.4305e-06
5.67077e-06
5.67238e-06
4.2496e-06
9.62664e-06
4.2507e-06
9.62778e-06
1.92102e-05
1.92133e-05
4.24926e-06
9.62649e-06
4.24956e-06
9.62777e-06
6.84214e-07
6.83955e-07
6.84095e-07
6.85857e-07
6.86033e-07
6.85862e-07
6.8603e-07
2.30151e-06
3.66118e-06
9.51365e-07
1.19925e-06
2.30315e-06
3.65888e-06
9.51489e-07
1.92019e-05
1.92068e-05
2.30109e-06
9.50977e-07
3.65872e-06
1.1985e-06
2.30194e-06
9.51142e-07
3.65824e-06
5.67195e-06
5.67327e-06
1.43008e-06
5.67136e-06
5.67294e-06
4.24886e-06
9.62705e-06
4.2488e-06
9.62832e-06
1.92124e-05
1.92178e-05
4.24859e-06
9.62848e-06
4.24884e-06
9.63031e-06
6.86557e-07
6.8646e-07
6.8658e-07
6.88014e-07
6.8796e-07
6.88174e-07
6.88084e-07
2.2996e-06
3.65806e-06
9.51369e-07
1.19793e-06
2.30031e-06
3.658e-06
9.51304e-07
1.92135e-05
1.92206e-05
2.29938e-06
9.5129e-07
3.65799e-06
1.19794e-06
2.30028e-06
9.51284e-07
3.65755e-06
5.6715e-06
5.67335e-06
1.42909e-06
5.67157e-06
5.67328e-06
4.24924e-06
9.63374e-06
4.24951e-06
9.63833e-06
1.92284e-05
1.92362e-05
4.24986e-06
9.63462e-06
4.24966e-06
9.63924e-06
6.88449e-07
6.88746e-07
6.88631e-07
6.89753e-07
6.8983e-07
6.89945e-07
6.89925e-07
2.29833e-06
3.65837e-06
9.51213e-07
1.19722e-06
2.29917e-06
3.6578e-06
9.51164e-07
1.92293e-05
1.92389e-05
2.29888e-06
9.5138e-07
3.65908e-06
1.19784e-06
2.29907e-06
9.51378e-07
3.65924e-06
5.67369e-06
5.6753e-06
1.42963e-06
5.6748e-06
5.67668e-06
4.24933e-06
9.64072e-06
4.24897e-06
9.6417e-06
1.92434e-05
1.9251e-05
4.24866e-06
9.64298e-06
4.2491e-06
9.64371e-06
6.90304e-07
6.90293e-07
6.9027e-07
6.91308e-07
6.91199e-07
6.91282e-07
6.91179e-07
2.29734e-06
3.65867e-06
9.50991e-07
1.19678e-06
2.2979e-06
3.65879e-06
9.50912e-07
1.92471e-05
1.92517e-05
2.29667e-06
9.5113e-07
3.65816e-06
1.19617e-06
2.29806e-06
9.50878e-07
3.65673e-06
5.67558e-06
5.67754e-06
1.42759e-06
5.67431e-06
5.67582e-06
4.24935e-06
9.64724e-06
4.2501e-06
9.65299e-06
1.92609e-05
1.92674e-05
4.25012e-06
9.64731e-06
4.24985e-06
9.65349e-06
6.91449e-07
6.91691e-07
6.91619e-07
6.92405e-07
6.92461e-07
6.92837e-07
6.92854e-07
2.29525e-06
3.65813e-06
9.50338e-07
1.1951e-06
2.29629e-06
3.65684e-06
9.50098e-07
1.92577e-05
1.92694e-05
2.29583e-06
9.50359e-07
3.65823e-06
1.1959e-06
2.29589e-06
9.50264e-07
3.6592e-06
5.67616e-06
5.67748e-06
1.42959e-06
5.67961e-06
5.68138e-06
4.25058e-06
9.65437e-06
4.24941e-06
9.65473e-06
1.92726e-05
1.92806e-05
4.25038e-06
9.65694e-06
4.25026e-06
9.65778e-06
6.92819e-07
6.93027e-07
6.92977e-07
6.93013e-07
6.92974e-07
6.92931e-07
6.92759e-07
2.29592e-06
3.65986e-06
9.49669e-07
1.19478e-06
2.29571e-06
3.66111e-06
9.49548e-07
1.92812e-05
1.92852e-05
2.29566e-06
9.50039e-07
3.66079e-06
1.19468e-06
2.29654e-06
9.49792e-07
3.65985e-06
5.68494e-06
5.68699e-06
1.42619e-06
5.68134e-06
5.68311e-06
4.24693e-06
9.66135e-06
4.25054e-06
9.66407e-06
1.92895e-05
1.92922e-05
4.24701e-06
9.66183e-06
4.24947e-06
9.66354e-06
6.9286e-07
6.92858e-07
6.92718e-07
6.93073e-07
6.93025e-07
6.93263e-07
6.93373e-07
2.28906e-06
3.65657e-06
9.47988e-07
1.19076e-06
2.29276e-06
3.65104e-06
9.47189e-07
1.92857e-05
1.9288e-05
2.28907e-06
9.47886e-07
3.65476e-06
1.19084e-06
2.29214e-06
9.47165e-07
3.6514e-06
5.67282e-06
5.67404e-06
1.42283e-06
5.67229e-06
5.67367e-06
4.25023e-06
9.65867e-06
4.2459e-06
9.65957e-06
1.92896e-05
1.93026e-05
4.25072e-06
9.66091e-06
4.24727e-06
9.66304e-06
6.9334e-07
6.93573e-07
6.93664e-07
6.93297e-07
6.93393e-07
6.93591e-07
6.9354e-07
2.29276e-06
3.65691e-06
9.46122e-07
1.19102e-06
2.28935e-06
3.66235e-06
9.46062e-07
1.92942e-05
1.9309e-05
2.29314e-06
9.46333e-07
3.65864e-06
1.19145e-06
2.29021e-06
9.46284e-07
3.66294e-06
5.68878e-06
5.69077e-06
1.42851e-06
5.69339e-06
5.69545e-06
4.24583e-06
9.67631e-06
4.25185e-06
9.67887e-06
1.93221e-05
1.93221e-05
4.24571e-06
9.67758e-06
4.25102e-06
9.67916e-06
6.93071e-07
6.93278e-07
6.93113e-07
6.92606e-07
6.92393e-07
6.92494e-07
6.9245e-07
2.28514e-06
3.65861e-06
9.45236e-07
1.18607e-06
2.29209e-06
3.64827e-06
9.43897e-07
1.93233e-05
1.93212e-05
2.28498e-06
9.45304e-07
3.65751e-06
1.18628e-06
2.29151e-06
9.43948e-07
3.64863e-06
5.68127e-06
5.68281e-06
1.41677e-06
5.67155e-06
5.67301e-06
4.24601e-06
9.66402e-06
4.24304e-06
9.66562e-06
1.93027e-05
1.93145e-05
4.24599e-06
9.66568e-06
4.24399e-06
9.66835e-06
6.92373e-07
6.92397e-07
6.92415e-07
6.91813e-07
6.92189e-07
6.92004e-07
6.92104e-07
2.28476e-06
3.64999e-06
9.41529e-07
1.18501e-06
2.28159e-06
3.65557e-06
9.41133e-07
1.93043e-05
1.9317e-05
2.28478e-06
9.41632e-07
3.65111e-06
1.18455e-06
2.2822e-06
9.41118e-07
3.65437e-06
5.67986e-06
5.68183e-06
1.42188e-06
5.68579e-06
5.68776e-06
4.24484e-06
9.67761e-06
4.24614e-06
9.67806e-06
1.93428e-05
1.93479e-05
4.24372e-06
9.67823e-06
4.24433e-06
9.67809e-06
6.92043e-07
6.92012e-07
6.92012e-07
6.91858e-07
6.91128e-07
6.92004e-07
6.91727e-07
2.28209e-06
3.65657e-06
9.40177e-07
1.18235e-06
2.28582e-06
3.65134e-06
9.39283e-07
1.93401e-05
1.93464e-05
2.28164e-06
9.39935e-07
3.6532e-06
1.18324e-06
2.2842e-06
9.39323e-07
3.65183e-06
5.68558e-06
5.68653e-06
1.41823e-06
5.68307e-06
5.68391e-06
4.24791e-06
9.68074e-06
4.24876e-06
9.69209e-06
1.93354e-05
1.93432e-05
4.25162e-06
9.68182e-06
4.25231e-06
9.69716e-06
6.90941e-07
6.91767e-07
6.91498e-07
6.89075e-07
6.89816e-07
6.89155e-07
6.8948e-07
2.28078e-06
3.65125e-06
9.37434e-07
1.1787e-06
2.281e-06
3.64997e-06
9.36497e-07
1.93408e-05
1.93506e-05
2.28381e-06
9.38242e-07
3.65887e-06
1.17943e-06
2.28386e-06
9.37314e-07
3.65438e-06
5.68849e-06
5.69115e-06
1.41408e-06
5.68429e-06
5.68768e-06
4.23567e-06
9.68066e-06
4.23636e-06
9.66217e-06
1.93447e-05
1.93518e-05
4.23001e-06
9.68471e-06
4.23267e-06
9.6593e-06
6.89608e-07
6.88878e-07
6.89175e-07
6.88814e-07
6.88293e-07
6.88765e-07
6.88418e-07
2.27389e-06
3.64841e-06
9.34052e-07
1.17588e-06
2.27604e-06
3.64655e-06
9.32875e-07
1.93421e-05
1.93327e-05
2.26897e-06
9.33102e-07
3.63837e-06
1.17372e-06
2.27251e-06
9.32065e-07
3.6373e-06
5.6754e-06
5.67595e-06
1.40973e-06
5.67411e-06
5.67357e-06
4.2469e-06
9.6745e-06
4.24689e-06
9.70415e-06
1.93514e-05
1.93683e-05
4.25238e-06
9.67012e-06
4.24874e-06
9.70904e-06
6.88066e-07
6.8885e-07
6.88402e-07
6.87249e-07
6.87214e-07
6.87783e-07
6.87737e-07
2.27365e-06
3.64882e-06
9.31117e-07
1.1724e-06
2.27484e-06
3.64457e-06
9.30264e-07
1.93449e-05
1.93875e-05
2.27918e-06
9.31605e-07
3.65648e-06
1.17617e-06
2.27757e-06
9.3149e-07
3.65433e-06
5.6884e-06
5.6907e-06
1.4137e-06
5.68807e-06
5.69198e-06
4.23979e-06
9.69303e-06
4.2397e-06
9.68716e-06
1.93559e-05
1.93677e-05
4.2369e-06
9.6997e-06
4.24054e-06
9.68888e-06
6.87024e-07
6.87068e-07
6.87328e-07
6.83565e-07
6.84035e-07
6.83399e-07
6.83671e-07
2.27237e-06
3.65089e-06
9.28661e-07
1.17e-06
2.27283e-06
3.64508e-06
9.27623e-07
1.93715e-05
1.93627e-05
2.26837e-06
9.29273e-07
3.64881e-06
1.16653e-06
2.27341e-06
9.27085e-07
3.63759e-06
5.69027e-06
5.69247e-06
1.40294e-06
5.68326e-06
5.68349e-06
4.22433e-06
9.66975e-06
4.23179e-06
9.67178e-06
1.93419e-05
1.93626e-05
4.22375e-06
9.66839e-06
4.22865e-06
9.67086e-06
6.82576e-07
6.82399e-07
6.82379e-07
7.30779e-07
7.30162e-07
7.30762e-07
7.3041e-07
2.25185e-06
3.64283e-06
9.23514e-07
1.16126e-06
2.26564e-06
3.62194e-06
9.19909e-07
1.93272e-05
1.93566e-05
2.25267e-06
9.22693e-07
3.63985e-06
1.16144e-06
2.26223e-06
9.19622e-07
3.62433e-06
5.67335e-06
5.67309e-06
1.39626e-06
5.67008e-06
5.67166e-06
3.48408e-06
8.87902e-06
4.18461e-06
5.8698e-06
1.71161e-05
8.56312e-06
3.48532e-06
8.87992e-06
4.18709e-06
5.87161e-06
3.143e-07
5.21877e-07
5.2187e-07
7.64679e-07
3.18484e-07
5.31053e-07
5.31075e-07
2.19939e-06
3.55754e-06
8.34157e-07
1.04302e-06
2.23182e-06
3.67567e-06
7.90839e-07
1.71207e-05
8.56483e-06
2.20157e-06
8.34739e-07
3.56244e-06
1.04408e-06
2.23483e-06
7.91374e-07
3.67875e-06
5.6258e-06
5.62926e-06
1.3231e-06
5.27508e-06
5.27769e-06
1.90772e-05
1.90798e-05
1.42112e-06
5.64742e-06
5.64973e-06
1.91052e-05
1.90798e-05
1.91109e-05
1.90832e-05
1.42448e-06
5.65864e-06
5.66183e-06
5.65169e-06
5.65412e-06
4.23234e-06
9.55879e-06
2.29293e-06
1.18996e-06
3.64506e-06
9.3896e-07
2.29244e-06
1.18942e-06
3.64108e-06
9.38969e-07
4.23404e-06
9.56586e-06
9.55485e-06
4.23953e-06
4.23323e-06
9.55691e-06
9.55601e-06
4.23918e-06
2.29356e-06
1.19124e-06
3.65283e-06
9.40081e-07
3.64809e-06
9.39156e-07
2.29741e-06
2.29289e-06
1.18988e-06
3.65066e-06
9.39683e-07
3.64346e-06
9.39048e-07
2.29697e-06
1.41848e-06
5.64193e-06
5.64107e-06
1.90817e-05
1.90959e-05
1.90813e-05
1.42218e-06
5.65678e-06
5.65523e-06
5.64618e-06
5.64486e-06
1.90946e-05
1.90808e-05
1.18967e-06
3.64639e-06
4.23751e-06
9.57042e-06
9.55485e-06
4.24289e-06
2.29602e-06
1.19122e-06
3.65473e-06
9.40544e-07
3.64983e-06
9.39158e-07
2.29992e-06
4.23774e-06
9.57627e-06
9.55875e-06
4.24296e-06
2.29634e-06
1.19289e-06
9.41002e-07
3.65622e-06
9.39639e-07
3.65244e-06
2.30006e-06
4.23323e-06
9.56059e-06
2.29361e-06
9.39247e-07
4.23362e-06
2.29336e-06
1.18991e-06
3.65014e-06
9.39835e-07
3.64317e-06
9.39215e-07
2.29649e-06
4.23361e-06
9.55775e-06
9.55771e-06
4.23844e-06
2.29375e-06
1.19082e-06
9.40152e-07
3.65053e-06
9.39401e-07
3.64647e-06
2.29654e-06
4.23386e-06
9.56492e-06
9.56117e-06
4.23841e-06
1.91223e-05
1.90941e-05
1.42702e-06
5.66389e-06
5.66219e-06
5.65868e-06
5.65745e-06
1.91199e-05
1.90929e-05
2.29671e-06
1.19295e-06
9.41173e-07
3.65562e-06
9.3997e-07
3.65226e-06
2.29966e-06
2.2961e-06
1.1908e-06
9.40694e-07
3.6525e-06
9.39495e-07
3.64833e-06
2.29914e-06
4.23824e-06
9.57658e-06
9.5605e-06
4.24228e-06
4.23777e-06
9.5695e-06
9.5612e-06
4.24178e-06
1.42349e-06
5.65511e-06
5.65836e-06
5.64914e-06
5.6517e-06
1.91037e-05
1.90875e-05
1.91087e-05
1.90897e-05
1.91099e-05
1.91295e-05
1.91159e-05
1.91342e-05
5.66124e-06
5.66402e-06
1.42488e-06
5.66193e-06
5.66411e-06
1.91342e-05
1.91303e-05
1.91371e-05
1.91347e-05
1.42612e-06
5.65644e-06
5.65735e-06
5.66172e-06
5.66349e-06
4.24654e-06
9.56089e-06
4.24141e-06
9.58257e-06
2.30213e-06
3.65502e-06
9.41522e-07
1.19423e-06
2.29905e-06
3.65624e-06
9.42845e-07
2.30239e-06
3.65468e-06
9.41243e-07
1.19517e-06
2.29879e-06
3.65935e-06
9.42798e-07
4.24709e-06
9.59646e-06
9.59063e-06
4.24698e-06
4.2476e-06
9.60182e-06
9.58833e-06
4.24754e-06
2.30287e-06
1.19435e-06
3.65295e-06
9.4476e-07
3.65648e-06
9.43974e-07
2.30257e-06
2.30326e-06
1.19568e-06
3.65787e-06
9.4504e-07
3.66071e-06
9.44139e-07
2.30314e-06
5.66195e-06
5.66006e-06
1.42816e-06
5.66873e-06
5.66711e-06
1.90991e-05
1.91294e-05
1.91462e-05
1.91349e-05
1.42996e-06
5.66462e-06
5.66347e-06
5.66991e-06
5.66824e-06
1.9145e-05
1.91331e-05
2.3026e-06
3.65666e-06
9.41945e-07
1.19418e-06
2.30116e-06
3.65706e-06
9.43146e-07
4.24642e-06
9.58101e-06
4.2444e-06
9.59399e-06
2.30255e-06
9.42311e-07
3.65754e-06
1.19477e-06
2.30125e-06
9.43421e-07
3.65667e-06
4.24657e-06
9.59733e-06
9.59409e-06
4.24432e-06
2.30279e-06
1.19423e-06
3.65239e-06
9.44654e-07
3.65692e-06
9.44078e-07
2.30064e-06
4.24646e-06
9.59683e-06
9.59545e-06
4.24419e-06
2.3027e-06
1.19465e-06
9.44738e-07
3.65146e-06
9.44253e-07
3.65625e-06
2.30048e-06
4.24601e-06
9.56109e-06
4.24088e-06
9.58211e-06
2.30156e-06
9.41475e-07
3.65297e-06
1.19424e-06
2.29815e-06
9.42774e-07
3.65544e-06
4.24542e-06
9.56778e-06
4.24043e-06
9.58348e-06
2.30304e-06
1.19565e-06
3.65784e-06
9.45149e-07
3.66022e-06
9.44186e-07
2.30344e-06
4.24746e-06
9.60218e-06
9.58798e-06
4.24803e-06
2.30251e-06
1.19465e-06
9.44898e-07
3.65488e-06
9.43969e-07
3.65631e-06
2.30298e-06
4.24666e-06
9.59654e-06
9.5871e-06
4.24755e-06
5.66506e-06
5.66329e-06
1.42474e-06
5.66287e-06
5.66107e-06
1.91226e-05
1.91336e-05
1.91369e-05
1.91367e-05
1.42596e-06
5.65593e-06
5.65447e-06
5.66195e-06
5.66029e-06
1.91338e-05
1.91334e-05
2.30195e-06
9.41943e-07
3.65463e-06
1.19421e-06
2.30035e-06
9.43104e-07
3.65625e-06
4.24582e-06
9.58073e-06
4.24381e-06
9.59283e-06
4.24577e-06
9.57279e-06
4.24361e-06
9.58771e-06
2.30237e-06
1.1946e-06
9.44823e-07
3.65129e-06
9.44305e-07
3.65572e-06
2.30079e-06
2.30233e-06
1.19452e-06
9.44791e-07
3.65423e-06
9.44098e-07
3.65664e-06
2.30101e-06
4.24615e-06
9.59591e-06
9.5942e-06
4.2446e-06
4.2463e-06
9.59647e-06
9.59033e-06
4.24489e-06
1.91071e-05
1.91281e-05
1.91125e-05
1.91323e-05
1.42707e-06
5.65953e-06
5.66037e-06
5.6619e-06
5.66371e-06
1.91381e-05
1.91299e-05
1.91397e-05
1.91335e-05
1.91323e-05
1.91292e-05
1.91346e-05
1.91301e-05
5.65545e-06
5.65615e-06
1.42004e-06
5.65068e-06
5.65141e-06
1.91282e-05
1.91267e-05
1.91305e-05
1.91277e-05
1.42167e-06
5.65037e-06
5.65217e-06
5.65031e-06
5.65115e-06
4.24221e-06
9.60306e-06
4.2466e-06
9.60169e-06
2.29857e-06
3.65239e-06
9.45173e-07
1.19323e-06
2.30197e-06
3.64793e-06
9.45308e-07
2.29862e-06
3.65683e-06
9.45448e-07
1.1937e-06
2.30244e-06
3.6487e-06
9.45532e-07
4.24107e-06
9.58554e-06
9.59039e-06
4.23809e-06
4.24086e-06
9.58635e-06
9.59727e-06
4.2376e-06
2.29772e-06
1.19301e-06
3.64621e-06
9.45317e-07
3.64765e-06
9.45323e-07
2.29504e-06
2.29761e-06
1.19274e-06
3.64372e-06
9.45296e-07
3.6478e-06
9.45477e-07
2.29463e-06
5.66289e-06
5.6616e-06
1.42001e-06
5.65242e-06
5.6517e-06
1.91443e-05
1.91406e-05
1.91274e-05
1.91347e-05
1.42119e-06
5.64664e-06
5.64574e-06
5.65058e-06
5.64964e-06
1.91271e-05
1.91346e-05
2.29732e-06
3.65178e-06
9.44922e-07
1.19289e-06
2.30004e-06
3.64773e-06
9.45011e-07
4.24064e-06
9.59529e-06
4.2434e-06
9.58955e-06
2.29727e-06
9.44958e-07
3.65095e-06
1.19326e-06
2.29989e-06
9.4504e-07
3.64791e-06
4.23997e-06
9.58562e-06
9.5886e-06
4.23899e-06
2.29689e-06
1.1927e-06
3.64701e-06
9.45161e-07
3.64759e-06
9.45063e-07
2.29558e-06
4.24e-06
9.58525e-06
9.58706e-06
4.23913e-06
2.29688e-06
1.19322e-06
9.45272e-07
3.64846e-06
9.45116e-07
3.64796e-06
2.29569e-06
4.24304e-06
9.60362e-06
4.24756e-06
9.60293e-06
2.29944e-06
9.45468e-07
3.6545e-06
1.19433e-06
2.3027e-06
9.45707e-07
3.65027e-06
4.24328e-06
9.59732e-06
4.24704e-06
9.59748e-06
2.29836e-06
1.1928e-06
3.64376e-06
9.45545e-07
3.64788e-06
9.45696e-07
2.29525e-06
4.24197e-06
9.58774e-06
9.59875e-06
4.23834e-06
2.29859e-06
1.19406e-06
9.45783e-07
3.64784e-06
9.45772e-07
3.64994e-06
2.29576e-06
4.24212e-06
9.59067e-06
9.59568e-06
4.23891e-06
5.65484e-06
5.65356e-06
1.42063e-06
5.65202e-06
5.65086e-06
1.91311e-05
1.91284e-05
1.91335e-05
1.91287e-05
1.42281e-06
5.65495e-06
5.65373e-06
5.65225e-06
5.65113e-06
1.91318e-05
1.91269e-05
2.29811e-06
9.4521e-07
3.65381e-06
1.19396e-06
2.30063e-06
9.45399e-07
3.65e-06
4.24148e-06
9.5949e-06
4.24422e-06
9.59033e-06
4.24154e-06
9.59665e-06
4.24461e-06
9.59539e-06
2.29764e-06
1.19326e-06
9.45534e-07
3.64843e-06
9.45345e-07
3.64803e-06
2.29638e-06
2.29774e-06
1.19374e-06
9.45621e-07
3.64859e-06
9.45498e-07
3.64982e-06
2.2963e-06
4.24109e-06
9.58614e-06
9.58796e-06
4.23994e-06
4.24128e-06
9.58998e-06
9.59337e-06
4.23981e-06
1.91377e-05
1.91389e-05
1.9139e-05
1.91392e-05
1.42371e-06
5.65255e-06
5.6542e-06
5.65372e-06
5.65454e-06
1.91375e-05
1.91371e-05
1.91387e-05
1.91372e-05
1.91286e-05
1.9142e-05
1.91314e-05
1.91469e-05
5.65218e-06
5.65433e-06
1.42524e-06
5.65744e-06
5.66017e-06
1.91694e-05
1.91453e-05
1.9175e-05
1.91504e-05
1.42848e-06
5.66659e-06
5.66903e-06
5.66086e-06
5.66346e-06
4.23833e-06
9.58294e-06
4.23712e-06
9.5803e-06
2.29486e-06
3.64689e-06
9.45365e-07
1.19431e-06
2.29476e-06
3.64968e-06
9.45645e-07
2.29436e-06
3.644e-06
9.45229e-07
1.19251e-06
2.29429e-06
3.64669e-06
9.45305e-07
4.24006e-06
9.59837e-06
9.58662e-06
4.24448e-06
4.23967e-06
9.59284e-06
9.58073e-06
4.24434e-06
2.29602e-06
1.19572e-06
3.65595e-06
9.47438e-07
3.65207e-06
9.46443e-07
2.29898e-06
2.29558e-06
1.19392e-06
3.65532e-06
9.46994e-07
3.64977e-06
9.45816e-07
2.29879e-06
5.64758e-06
5.6464e-06
1.42228e-06
5.65358e-06
5.65243e-06
1.91253e-05
1.91323e-05
1.91631e-05
1.9136e-05
1.42609e-06
5.66686e-06
5.66563e-06
5.65812e-06
5.65659e-06
1.91618e-05
1.91352e-05
2.29705e-06
3.64815e-06
9.45446e-07
1.19436e-06
2.29578e-06
3.65135e-06
9.46075e-07
4.24166e-06
9.58531e-06
4.23938e-06
9.59112e-06
2.29721e-06
9.45675e-07
3.64998e-06
1.1954e-06
2.29595e-06
9.46315e-07
3.65295e-06
4.24263e-06
9.60268e-06
9.59049e-06
4.24595e-06
2.29809e-06
1.19578e-06
3.65715e-06
9.47847e-07
3.65368e-06
9.46931e-07
2.30017e-06
4.24273e-06
9.60528e-06
9.59316e-06
4.24588e-06
2.29821e-06
1.19646e-06
9.48e-07
3.65717e-06
9.47142e-07
3.65487e-06
2.30014e-06
4.23854e-06
9.5842e-06
4.23791e-06
9.58124e-06
2.29511e-06
9.45821e-07
3.64819e-06
1.19465e-06
2.2954e-06
9.46018e-07
3.65004e-06
4.239e-06
9.58885e-06
4.23838e-06
9.58839e-06
2.29582e-06
1.19395e-06
3.65509e-06
9.47125e-07
3.6495e-06
9.45988e-07
2.29888e-06
4.24015e-06
9.59321e-06
9.58151e-06
4.24442e-06
2.29614e-06
1.19581e-06
9.47555e-07
3.65556e-06
9.46655e-07
3.65213e-06
2.29891e-06
4.24025e-06
9.59913e-06
9.58924e-06
4.2444e-06
5.65738e-06
5.65615e-06
1.42654e-06
5.66252e-06
5.66117e-06
1.91333e-05
1.91505e-05
1.91777e-05
1.91562e-05
1.42936e-06
5.66859e-06
5.66717e-06
5.66513e-06
5.66379e-06
1.91752e-05
1.91539e-05
2.29725e-06
9.45895e-07
3.64925e-06
1.19471e-06
2.29638e-06
9.4641e-07
3.65166e-06
4.24194e-06
9.58613e-06
4.24017e-06
9.59136e-06
4.24165e-06
9.58914e-06
4.24008e-06
9.59081e-06
2.2985e-06
1.1965e-06
9.48135e-07
3.65686e-06
9.47321e-07
3.65466e-06
2.30022e-06
2.29827e-06
1.1959e-06
9.47966e-07
3.65673e-06
9.47152e-07
3.65371e-06
2.30007e-06
4.24327e-06
9.60524e-06
9.59334e-06
4.24592e-06
4.24317e-06
9.60274e-06
9.5922e-06
4.24578e-06
1.91371e-05
1.91466e-05
1.91388e-05
1.91505e-05
1.42849e-06
5.66579e-06
5.66824e-06
5.66057e-06
5.6632e-06
1.91699e-05
1.91491e-05
1.91747e-05
1.91532e-05
1.91733e-05
1.91927e-05
1.91785e-05
1.91961e-05
5.66912e-06
5.67117e-06
1.43098e-06
5.67165e-06
5.67331e-06
1.92034e-05
1.91943e-05
1.92056e-05
1.91975e-05
1.43289e-06
5.67213e-06
5.67345e-06
5.67248e-06
5.6739e-06
4.24958e-06
9.59693e-06
4.24597e-06
9.61536e-06
2.30244e-06
3.65799e-06
9.48515e-07
1.19879e-06
2.30028e-06
3.65972e-06
9.49496e-07
2.30251e-06
3.65826e-06
9.48231e-07
1.19882e-06
2.30016e-06
3.66113e-06
9.49357e-07
4.25022e-06
9.62612e-06
9.6188e-06
4.25073e-06
4.25034e-06
9.62849e-06
9.61899e-06
4.25085e-06
2.30306e-06
1.19913e-06
3.65987e-06
9.50896e-07
3.66042e-06
9.50324e-07
2.30303e-06
2.30316e-06
1.19945e-06
3.66145e-06
9.50959e-07
3.66215e-06
9.503e-07
2.30315e-06
5.67082e-06
5.66928e-06
1.43177e-06
5.67504e-06
5.67379e-06
1.91675e-05
1.91953e-05
1.92102e-05
1.91989e-05
1.43394e-06
5.67538e-06
5.67414e-06
5.67627e-06
5.67489e-06
1.92091e-05
1.91978e-05
2.30211e-06
3.65882e-06
9.488e-07
1.19865e-06
2.30106e-06
3.66002e-06
9.49608e-07
4.24866e-06
9.60767e-06
4.24686e-06
9.61773e-06
2.30192e-06
9.48877e-07
3.65828e-06
1.19842e-06
2.30098e-06
9.49609e-07
3.65883e-06
4.2493e-06
9.62609e-06
9.62022e-06
4.24951e-06
2.30249e-06
1.19892e-06
3.65989e-06
9.50726e-07
3.6605e-06
9.50282e-07
2.30202e-06
4.24907e-06
9.62339e-06
9.61899e-06
4.24933e-06
2.30229e-06
1.19861e-06
9.50638e-07
3.65884e-06
9.50225e-07
3.65919e-06
2.30185e-06
4.24962e-06
9.59733e-06
4.24629e-06
9.61587e-06
2.30227e-06
9.48558e-07
3.65749e-06
1.19856e-06
2.30017e-06
9.49481e-07
3.6592e-06
4.24929e-06
9.60194e-06
4.24594e-06
9.61595e-06
2.30319e-06
1.19944e-06
3.6612e-06
9.51008e-07
3.66188e-06
9.50352e-07
2.30316e-06
4.25054e-06
9.62935e-06
9.61966e-06
4.2509e-06
2.30289e-06
1.19896e-06
9.50858e-07
3.65965e-06
9.50293e-07
3.65994e-06
2.30289e-06
4.25004e-06
9.62578e-06
9.61836e-06
4.25057e-06
5.66993e-06
5.66854e-06
1.43004e-06
5.67109e-06
5.66961e-06
1.91777e-05
1.91912e-05
1.92018e-05
1.91948e-05
1.43181e-06
5.67168e-06
5.67017e-06
5.67156e-06
5.6701e-06
1.91991e-05
1.91921e-05
2.30189e-06
9.48838e-07
3.6583e-06
1.19844e-06
2.30094e-06
9.49592e-07
3.65946e-06
4.24864e-06
9.60763e-06
4.2471e-06
9.61758e-06
4.2487e-06
9.6054e-06
4.2472e-06
9.6175e-06
2.30226e-06
1.19858e-06
9.50678e-07
3.65847e-06
9.50271e-07
3.65882e-06
2.30186e-06
2.30228e-06
1.19876e-06
9.50687e-07
3.65962e-06
9.5024e-07
3.65999e-06
2.3019e-06
4.24918e-06
9.62308e-06
9.61881e-06
4.24939e-06
4.24936e-06
9.62511e-06
9.61928e-06
4.24948e-06
1.91736e-05
1.91929e-05
1.91782e-05
1.91955e-05
1.43244e-06
5.67179e-06
5.67308e-06
5.67164e-06
5.67303e-06
1.92045e-05
1.91947e-05
1.92057e-05
1.9197e-05
1.92034e-05
1.92072e-05
1.92056e-05
1.92095e-05
5.67216e-06
5.67346e-06
1.42961e-06
5.6706e-06
5.67227e-06
1.92096e-05
1.92065e-05
1.92126e-05
1.92089e-05
1.43114e-06
5.67002e-06
5.67196e-06
5.67061e-06
5.6723e-06
4.24959e-06
9.62927e-06
4.25079e-06
9.63035e-06
2.30142e-06
3.65998e-06
9.51232e-07
1.1989e-06
2.30302e-06
3.65839e-06
9.5135e-07
2.30144e-06
3.6615e-06
9.51316e-07
1.19927e-06
2.30311e-06
3.65914e-06
9.51426e-07
4.2495e-06
9.62725e-06
9.62754e-06
4.24878e-06
4.24949e-06
9.62816e-06
9.62979e-06
4.24874e-06
2.30133e-06
1.19854e-06
3.65741e-06
9.51331e-07
3.65847e-06
9.51366e-07
2.30007e-06
2.30133e-06
1.19879e-06
3.65791e-06
9.51369e-07
3.6592e-06
9.51433e-07
2.30003e-06
5.67531e-06
5.67392e-06
1.43025e-06
5.67266e-06
5.6714e-06
1.92092e-05
1.92123e-05
1.92132e-05
1.92119e-05
1.43174e-06
5.67185e-06
5.67066e-06
5.67266e-06
5.67129e-06
1.92122e-05
1.9211e-05
2.30102e-06
3.66e-06
9.51014e-07
1.19862e-06
2.30208e-06
3.65877e-06
9.5114e-07
4.24916e-06
9.6237e-06
4.24941e-06
9.6255e-06
2.30093e-06
9.5093e-07
3.65906e-06
1.19853e-06
2.30192e-06