/*--------------------------------*- C++ -*----------------------------------*\
| =========                 |                                                 |
| \\      /  F ield         | OpenFOAM: The Open Source CFD Toolbox           |
|  \\    /   O peration     | Version:  2312                                  |
|   \\  /    A nd           | Website:  www.openfoam.com                      |
|    \\/     M anipulation  |                                                 |
\*---------------------------------------------------------------------------*/
FoamFile
{
    version     2.0;
    format      ascii;
    arch        "LSB;label=32;scalar=64";
    class       volScalarField;
    location    "500";
    object      k;
}
// * * * * * * * * * * * * * * * * * * * * * * * * * * * * * * * * * * * * * //

dimensions      [0 2 -2 0 0 0 0];

internalField   nonuniform List<scalar> 
43208
(
3.94535e-05
5.17557e-05
5.16896e-05
5.37404e-05
3.97552e-05
5.19781e-05
5.20637e-05
5.40521e-05
4.00721e-05
5.21764e-05
5.2098e-05
5.40797e-05
4.02777e-05
5.20945e-05
5.21738e-05
5.40777e-05
4.06275e-05
5.24221e-05
5.24613e-05
5.44163e-05
4.09576e-05
5.26586e-05
5.26103e-05
5.45326e-05
4.11706e-05
5.26883e-05
5.26716e-05
5.45557e-05
4.13637e-05
5.27427e-05
5.2772e-05
5.46093e-05
4.15333e-05
5.28212e-05
5.28023e-05
5.4651e-05
4.16991e-05
5.28459e-05
5.28601e-05
5.46594e-05
4.18461e-05
5.29355e-05
5.29473e-05
5.48552e-05
4.19519e-05
5.288e-05
5.28588e-05
5.45262e-05
4.20445e-05
5.29195e-05
5.29488e-05
5.49347e-05
4.21385e-05
5.29212e-05
5.29248e-05
5.45936e-05
4.21719e-05
5.28239e-05
5.2826e-05
5.46841e-05
4.22192e-05
5.28831e-05
5.2848e-05
5.46678e-05
4.23023e-05
5.28073e-05
5.29078e-05
5.47446e-05
4.22369e-05
5.27264e-05
5.25881e-05
5.43268e-05
4.23139e-05
5.26882e-05
5.28062e-05
5.46458e-05
4.22625e-05
5.26513e-05
5.26804e-05
5.45754e-05
4.38471e-05
5.05817e-05
5.04946e-05
5.36178e-05
5.36549e-05
5.17661e-05
5.17846e-05
5.36616e-05
5.17472e-05
5.16701e-05
5.17864e-05
5.17834e-05
5.36401e-05
5.16681e-05
5.17636e-05
5.37235e-05
5.36984e-05
5.40412e-05
5.17612e-05
5.17513e-05
5.19014e-05
5.18203e-05
5.3665e-05
5.39834e-05
5.17437e-05
5.16874e-05
5.19129e-05
5.19891e-05
5.17753e-05
5.18257e-05
5.1869e-05
5.37473e-05
5.41203e-05
5.17574e-05
5.19958e-05
5.18829e-05
5.39817e-05
5.40992e-05
5.4008e-05
5.19985e-05
5.1974e-05
5.21059e-05
5.21767e-05
5.4117e-05
5.41607e-05
5.20123e-05
5.20611e-05
5.21011e-05
5.21022e-05
5.19666e-05
5.21808e-05
5.21325e-05
5.41541e-05
5.39914e-05
5.19825e-05
5.2104e-05
5.21274e-05
5.40753e-05
5.40086e-05
5.39605e-05
5.21047e-05
5.21717e-05
5.20942e-05
5.20893e-05
5.41378e-05
5.38802e-05
5.20976e-05
5.2095e-05
5.2084e-05
5.21043e-05
5.21423e-05
5.20978e-05
5.21437e-05
5.39946e-05
5.40344e-05
5.21312e-05
5.2113e-05
5.21323e-05
5.40266e-05
5.40271e-05
5.43758e-05
5.21141e-05
5.20859e-05
5.23689e-05
5.22899e-05
5.38998e-05
5.43224e-05
5.2109e-05
5.21609e-05
5.23805e-05
5.2395e-05
5.21609e-05
5.22965e-05
5.23679e-05
5.41171e-05
5.43712e-05
5.21568e-05
5.24012e-05
5.23804e-05
5.43579e-05
5.44392e-05
5.45198e-05
5.24523e-05
5.24166e-05
5.26108e-05
5.26308e-05
5.44312e-05
5.45633e-05
5.24601e-05
5.24561e-05
5.26044e-05
5.25799e-05
5.24429e-05
5.26346e-05
5.25991e-05
5.44158e-05
5.44828e-05
5.2451e-05
5.25825e-05
5.25931e-05
5.45076e-05
5.45372e-05
5.45167e-05
5.26358e-05
5.26552e-05
5.26625e-05
5.26725e-05
5.45788e-05
5.45318e-05
5.26278e-05
5.26077e-05
5.26576e-05
5.26512e-05
5.26297e-05
5.2677e-05
5.26762e-05
5.45065e-05
5.45157e-05
5.26219e-05
5.26566e-05
5.26715e-05
5.45404e-05
5.45388e-05
5.45937e-05
5.26766e-05
5.26825e-05
5.27395e-05
5.27242e-05
5.45467e-05
5.45745e-05
5.26725e-05
5.26652e-05
5.27348e-05
5.27388e-05
5.26861e-05
5.27285e-05
5.27278e-05
5.45351e-05
5.46071e-05
5.26819e-05
5.27423e-05
5.27235e-05
5.45795e-05
5.46174e-05
5.46119e-05
5.27595e-05
5.27394e-05
5.27825e-05
5.27903e-05
5.45947e-05
5.46381e-05
5.27567e-05
5.27696e-05
5.27844e-05
5.27992e-05
5.27496e-05
5.27962e-05
5.28032e-05
5.46403e-05
5.46229e-05
5.27471e-05
5.28035e-05
5.28044e-05
5.46407e-05
5.46295e-05
5.46938e-05
5.27955e-05
5.28147e-05
5.28607e-05
5.28433e-05
5.46672e-05
5.46619e-05
5.2796e-05
5.27971e-05
5.28528e-05
5.282e-05
5.28053e-05
5.28459e-05
5.28103e-05
5.46301e-05
5.46563e-05
5.28054e-05
5.28239e-05
5.28064e-05
5.4609e-05
5.47178e-05
5.47155e-05
5.2878e-05
5.2844e-05
5.28937e-05
5.28969e-05
5.46704e-05
5.47418e-05
5.28716e-05
5.28591e-05
5.28984e-05
5.29374e-05
5.28368e-05
5.2902e-05
5.29498e-05
5.47046e-05
5.47968e-05
5.28291e-05
5.29431e-05
5.29511e-05
5.48412e-05
5.473e-05
5.4708e-05
5.29051e-05
5.29268e-05
5.29164e-05
5.29177e-05
5.47889e-05
5.46578e-05
5.291e-05
5.29399e-05
5.29133e-05
5.28825e-05
5.29518e-05
5.29244e-05
5.28592e-05
5.48129e-05
5.46027e-05
5.29535e-05
5.28901e-05
5.28566e-05
5.45258e-05
5.4713e-05
5.46996e-05
5.29089e-05
5.28787e-05
5.2891e-05
5.2865e-05
5.46436e-05
5.46966e-05
5.29026e-05
5.28566e-05
5.28886e-05
5.28803e-05
5.28331e-05
5.28638e-05
5.28987e-05
5.46026e-05
5.47547e-05
5.28296e-05
5.28776e-05
5.28974e-05
5.48413e-05
5.47477e-05
5.47218e-05
5.29064e-05
5.29167e-05
5.29373e-05
5.29608e-05
5.48095e-05
5.47413e-05
5.29084e-05
5.29478e-05
5.2937e-05
5.29711e-05
5.29759e-05
5.29722e-05
5.29751e-05
5.48576e-05
5.47199e-05
5.29763e-05
5.29813e-05
5.29746e-05
5.46522e-05
5.47165e-05
5.46245e-05
5.29235e-05
5.29104e-05
5.28521e-05
5.28082e-05
5.46771e-05
5.45339e-05
5.29211e-05
5.29143e-05
5.2852e-05
5.28199e-05
5.28913e-05
5.28069e-05
5.28059e-05
5.46688e-05
5.45695e-05
5.28889e-05
5.28185e-05
5.28051e-05
5.45788e-05
5.46445e-05
5.4592e-05
5.2847e-05
5.28265e-05
5.28263e-05
5.28838e-05
5.4641e-05
5.47389e-05
5.28469e-05
5.28277e-05
5.28211e-05
5.2839e-05
5.28315e-05
5.28913e-05
5.28692e-05
5.46372e-05
5.46448e-05
5.28327e-05
5.2846e-05
5.28645e-05
5.46673e-05
5.46127e-05
5.4869e-05
5.28305e-05
5.28735e-05
5.29117e-05
5.28153e-05
5.47287e-05
5.45819e-05
5.28245e-05
5.28404e-05
5.29158e-05
5.29095e-05
5.28562e-05
5.28148e-05
5.28598e-05
5.46558e-05
5.48342e-05
5.28498e-05
5.2909e-05
5.28623e-05
5.47196e-05
5.48734e-05
5.41353e-05
5.29059e-05
5.28093e-05
5.26155e-05
5.2726e-05
5.45917e-05
5.45189e-05
5.2912e-05
5.29089e-05
5.26113e-05
5.26235e-05
5.28601e-05
5.2736e-05
5.26899e-05
5.48494e-05
5.41559e-05
5.28651e-05
5.26328e-05
5.26883e-05
5.43294e-05
5.41446e-05
5.48485e-05
5.25938e-05
5.27131e-05
5.27775e-05
5.26957e-05
5.45314e-05
5.45246e-05
5.25817e-05
5.25763e-05
5.2767e-05
5.27326e-05
5.26511e-05
5.26986e-05
5.26872e-05
5.41531e-05
5.47882e-05
5.26369e-05
5.27336e-05
5.26746e-05
5.45973e-05
5.48836e-05
5.43559e-05
5.28184e-05
5.26909e-05
5.26718e-05
5.26517e-05
5.45234e-05
5.44987e-05
5.28203e-05
5.28121e-05
5.26933e-05
5.27551e-05
5.27208e-05
5.26467e-05
5.27225e-05
5.48516e-05
5.44873e-05
5.27262e-05
5.27536e-05
5.27434e-05
5.45817e-05
5.43047e-05
5.38909e-05
5.26027e-05
5.26523e-05
5.10776e-05
5.11428e-05
5.45293e-05
5.3972e-05
5.26179e-05
5.26756e-05
5.10671e-05
5.10324e-05
5.27008e-05
5.11632e-05
5.10858e-05
5.44128e-05
5.38016e-05
5.27163e-05
5.10431e-05
5.1068e-05
5.38328e-05
5.37361e-05
5.05364e-05
5.05653e-05
5.37114e-05
5.05266e-05
5.04855e-05
4.38858e-05
4.38301e-05
4.385e-05
5.05168e-05
5.36355e-05
5.05017e-05
6.87533e-05
7.33866e-05
7.1167e-05
7.33771e-05
3.94189e-05
3.94304e-05
3.93276e-05
3.94007e-05
6.10018e-05
5.18672e-05
6.50126e-05
4.71842e-05
6.84703e-05
7.34621e-05
6.84731e-05
7.35518e-05
7.12112e-05
7.1288e-05
6.85908e-05
7.34842e-05
6.84545e-05
7.3568e-05
3.94643e-05
3.9395e-05
3.94496e-05
3.96565e-05
3.96317e-05
3.96876e-05
3.96525e-05
6.06269e-05
6.46604e-05
4.72039e-05
5.17514e-05
6.06939e-05
6.46512e-05
4.71966e-05
7.12709e-05
7.13005e-05
6.06981e-05
4.71205e-05
6.47531e-05
5.17699e-05
6.06587e-05
4.71448e-05
6.4963e-05
6.98099e-05
6.98071e-05
5.37924e-05
6.99494e-05
7.00043e-05
6.88527e-05
7.35979e-05
6.87488e-05
7.35824e-05
7.13239e-05
7.13139e-05
6.88359e-05
7.35938e-05
6.88012e-05
7.3568e-05
3.97409e-05
3.97883e-05
3.97475e-05
4.00096e-05
4.00392e-05
4.00222e-05
4.00176e-05
6.10113e-05
6.50726e-05
4.73007e-05
5.21041e-05
6.08278e-05
6.52203e-05
4.74202e-05
7.12932e-05
7.12842e-05
6.09942e-05
4.73904e-05
6.51171e-05
5.20972e-05
6.09278e-05
4.7471e-05
6.50996e-05
7.01843e-05
7.02177e-05
5.40897e-05
7.02241e-05
7.02309e-05
6.87146e-05
7.3536e-05
6.88193e-05
7.35401e-05
7.12749e-05
7.12928e-05
6.86759e-05
7.35353e-05
6.87388e-05
7.35524e-05
4.01112e-05
4.00783e-05
4.0089e-05
4.02168e-05
4.02328e-05
4.0235e-05
4.02528e-05
6.09713e-05
6.50742e-05
4.76607e-05
5.21547e-05
6.10525e-05
6.48991e-05
4.76887e-05
7.12956e-05
7.1339e-05
6.09126e-05
4.76238e-05
6.49268e-05
5.20933e-05
6.09647e-05
4.7643e-05
6.48703e-05
7.00726e-05
7.00453e-05
5.40174e-05
6.99568e-05
6.99418e-05
6.86277e-05
7.36231e-05
6.85853e-05
7.36985e-05
7.13806e-05
7.145e-05
6.87129e-05
7.36386e-05
6.86326e-05
7.37037e-05
4.02643e-05
4.03055e-05
4.0312e-05
4.05312e-05
4.04863e-05
4.05562e-05
4.05443e-05
6.08185e-05
6.47474e-05
4.76967e-05
5.21056e-05
6.081e-05
6.48744e-05
4.77066e-05
7.14074e-05
7.14416e-05
6.09211e-05
4.77152e-05
6.49221e-05
5.22545e-05
6.08688e-05
4.77648e-05
6.50449e-05
6.9947e-05
6.99906e-05
5.41785e-05
7.00886e-05
7.01271e-05
6.8895e-05
7.3752e-05
6.88345e-05
7.3758e-05
7.14845e-05
7.14925e-05
6.88656e-05
7.37458e-05
6.88408e-05
7.37525e-05
4.05943e-05
4.06437e-05
4.06336e-05
4.08866e-05
4.08899e-05
4.08797e-05
4.08839e-05
6.11553e-05
6.51617e-05
4.79239e-05
5.25199e-05
6.10444e-05
6.52281e-05
4.80149e-05
7.14617e-05
7.1474e-05
6.11233e-05
4.79707e-05
6.51347e-05
5.25097e-05
6.10713e-05
4.80365e-05
6.51444e-05
7.02382e-05
7.02467e-05
5.4456e-05
7.02583e-05
7.02537e-05
6.88727e-05
7.37543e-05
6.88924e-05
7.37606e-05
7.14902e-05
7.15034e-05
6.88667e-05
7.37562e-05
6.88685e-05
7.37654e-05
4.09674e-05
4.09486e-05
4.09565e-05
4.11202e-05
4.11326e-05
4.11144e-05
4.1128e-05
6.11614e-05
6.51874e-05
4.82184e-05
5.26672e-05
6.11705e-05
6.51451e-05
4.82544e-05
7.14904e-05
7.1508e-05
6.11432e-05
4.81939e-05
6.5147e-05
5.26298e-05
6.11374e-05
4.82288e-05
6.51454e-05
7.02278e-05
7.02318e-05
5.45322e-05
7.02188e-05
7.02306e-05
6.8856e-05
7.37881e-05
6.88515e-05
7.38117e-05
7.15295e-05
7.1549e-05
6.88457e-05
7.37872e-05
6.88463e-05
7.38108e-05
4.11812e-05
4.11667e-05
4.11775e-05
4.13154e-05
4.1313e-05
4.13181e-05
4.13153e-05
6.11397e-05
6.51342e-05
4.83219e-05
5.27012e-05
6.11411e-05
6.51489e-05
4.83402e-05
7.15297e-05
7.15533e-05
6.11313e-05
4.83113e-05
6.51225e-05
5.26889e-05
6.11334e-05
4.83324e-05
6.51219e-05
7.02102e-05
7.02199e-05
5.45488e-05
7.02029e-05
7.02042e-05
6.88593e-05
7.38241e-05
6.88613e-05
7.3829e-05
7.15668e-05
7.15856e-05
6.887e-05
7.38301e-05
6.8866e-05
7.38339e-05
4.13587e-05
4.13712e-05
4.13636e-05
4.14891e-05
4.14905e-05
4.15019e-05
4.15001e-05
6.1141e-05
6.51418e-05
4.84074e-05
5.27557e-05
6.1137e-05
6.51374e-05
4.84278e-05
7.15739e-05
7.15852e-05
6.11522e-05
4.84125e-05
6.5178e-05
5.2793e-05
6.11394e-05
4.84392e-05
6.51881e-05
7.02392e-05
7.0249e-05
5.46239e-05
7.02632e-05
7.02844e-05
6.88609e-05
7.38569e-05
6.88497e-05
7.38864e-05
7.16103e-05
7.16264e-05
6.88431e-05
7.38519e-05
6.88466e-05
7.38834e-05
4.15404e-05
4.15405e-05
4.15398e-05
4.16556e-05
4.16508e-05
4.16457e-05
4.16391e-05
6.11483e-05
6.5167e-05
4.84993e-05
5.28383e-05
6.11443e-05
6.518e-05
4.85204e-05
7.15999e-05
7.16288e-05
6.11351e-05
4.85051e-05
6.51272e-05
5.28018e-05
6.11461e-05
4.8515e-05
6.5104e-05
7.02343e-05
7.02434e-05
5.46046e-05
7.01748e-05
7.01681e-05
6.88519e-05
7.38938e-05
6.88635e-05
7.38954e-05
7.16393e-05
7.16589e-05
6.88636e-05
7.39014e-05
6.88588e-05
7.39056e-05
4.16862e-05
4.1694e-05
4.16879e-05
4.18066e-05
4.18041e-05
4.18265e-05
4.18277e-05
6.11268e-05
6.51226e-05
4.85683e-05
5.28482e-05
6.1132e-05
6.50985e-05
4.85794e-05
7.16583e-05
7.16684e-05
6.1141e-05
4.85654e-05
6.51486e-05
5.28941e-05
6.11221e-05
4.85862e-05
6.51927e-05
7.02092e-05
7.02158e-05
5.47516e-05
7.03196e-05
7.03425e-05
6.88951e-05
7.39289e-05
6.8849e-05
7.39432e-05
7.16811e-05
7.16882e-05
6.88804e-05
7.39261e-05
6.88685e-05
7.39351e-05
4.18502e-05
4.18678e-05
4.18676e-05
4.19287e-05
4.19317e-05
4.19265e-05
4.19182e-05
6.12015e-05
6.52244e-05
4.8651e-05
5.2945e-05
6.11588e-05
6.52875e-05
4.86757e-05
7.16696e-05
7.16752e-05
6.11953e-05
4.86701e-05
6.52394e-05
5.29442e-05
6.11809e-05
4.86845e-05
6.52368e-05
7.04296e-05
7.04511e-05
5.47201e-05
7.02811e-05
7.02842e-05
6.87481e-05
7.39159e-05
6.88702e-05
7.39197e-05
7.16813e-05
7.17129e-05
6.87607e-05
7.39217e-05
6.88389e-05
7.39319e-05
4.19444e-05
4.19367e-05
4.1925e-05
4.20108e-05
4.20001e-05
4.20075e-05
4.20097e-05
6.09828e-05
6.5057e-05
4.86798e-05
5.28538e-05
6.11131e-05
6.49139e-05
4.86621e-05
7.16901e-05
7.17265e-05
6.09825e-05
4.86724e-05
6.50158e-05
5.28482e-05
6.10852e-05
4.86557e-05
6.49378e-05
6.99698e-05
6.99671e-05
5.45332e-05
7.00086e-05
7.00177e-05
6.89267e-05
7.4005e-05
6.87571e-05
7.40188e-05
7.17618e-05
7.17625e-05
6.89253e-05
7.40061e-05
6.87904e-05
7.40149e-05
4.20437e-05
4.20552e-05
4.20618e-05
4.21179e-05
4.21281e-05
4.21397e-05
4.21398e-05
6.12125e-05
6.51693e-05
4.86614e-05
5.29716e-05
6.10166e-05
6.53883e-05
4.86976e-05
7.17627e-05
7.1758e-05
6.12231e-05
4.86686e-05
6.52227e-05
5.29892e-05
6.10466e-05
4.87131e-05
6.53826e-05
7.05453e-05
7.05661e-05
5.49615e-05
7.06153e-05
7.06323e-05
6.86936e-05
7.39433e-05
6.88796e-05
7.39505e-05
7.1714e-05
7.17423e-05
6.87016e-05
7.39462e-05
6.88456e-05
7.39589e-05
4.21356e-05
4.2147e-05
4.21399e-05
4.21657e-05
4.21459e-05
4.21538e-05
4.2145e-05
6.09334e-05
6.51135e-05
4.87396e-05
5.28412e-05
6.11884e-05
6.48319e-05
4.872e-05
7.17157e-05
7.17463e-05
6.0927e-05
4.87457e-05
6.50715e-05
5.28522e-05
6.11625e-05
4.87233e-05
6.48656e-05
7.00174e-05
7.00158e-05
5.44529e-05
6.98778e-05
6.98839e-05
6.8797e-05
7.40119e-05
6.87178e-05
7.40145e-05
7.1813e-05
7.18259e-05
6.87831e-05
7.40098e-05
6.87491e-05
7.40093e-05
4.21631e-05
4.21626e-05
4.21616e-05
4.21907e-05
4.22169e-05
4.21961e-05
4.22085e-05
6.10228e-05
6.50213e-05
4.86552e-05
5.28686e-05
6.08568e-05
6.52068e-05
4.86565e-05
7.1804e-05
7.18198e-05
6.10202e-05
4.8658e-05
6.50681e-05
5.284e-05
6.08871e-05
4.86565e-05
6.51408e-05
7.03359e-05
7.03605e-05
5.47429e-05
7.04018e-05
7.04202e-05
6.87029e-05
7.40275e-05
6.8705e-05
7.40854e-05
7.17948e-05
7.18139e-05
6.86611e-05
7.40272e-05
6.86431e-05
7.41055e-05
4.22381e-05
4.22284e-05
4.22326e-05
4.22982e-05
4.22637e-05
4.23046e-05
4.22883e-05
6.09313e-05
6.50903e-05
4.86822e-05
5.28517e-05
6.10227e-05
6.49962e-05
4.86791e-05
7.18058e-05
7.18299e-05
6.09001e-05
4.86688e-05
6.4969e-05
5.28578e-05
6.09538e-05
4.86724e-05
6.49821e-05
7.01366e-05
7.01102e-05
5.46345e-05
7.0144e-05
7.01316e-05
6.8833e-05
7.40296e-05
6.88875e-05
7.39348e-05
7.18178e-05
7.18355e-05
6.89465e-05
7.40454e-05
6.90171e-05
7.39153e-05
4.22753e-05
4.23099e-05
4.22978e-05
4.22447e-05
4.22714e-05
4.22509e-05
4.22666e-05
6.09539e-05
6.50436e-05
4.86673e-05
5.27884e-05
6.09475e-05
6.49946e-05
4.86552e-05
7.181e-05
7.17865e-05
6.10912e-05
4.87009e-05
6.53339e-05
5.28777e-05
6.10662e-05
4.86973e-05
6.51315e-05
7.04247e-05
7.05062e-05
5.46398e-05
7.02002e-05
7.02649e-05
6.85049e-05
7.39939e-05
6.84215e-05
7.41463e-05
7.1834e-05
7.18762e-05
6.83149e-05
7.39657e-05
6.82526e-05
7.4165e-05
4.22708e-05
4.22376e-05
4.22549e-05
4.22678e-05
4.22662e-05
4.22554e-05
4.22515e-05
6.0746e-05
6.49551e-05
4.85932e-05
5.27129e-05
6.07719e-05
6.4934e-05
4.85572e-05
7.18146e-05
7.19205e-05
6.05372e-05
4.85512e-05
6.45511e-05
5.25885e-05
6.06131e-05
4.85099e-05
6.46611e-05
6.99157e-05
6.98137e-05
5.43549e-05
7.00759e-05
6.99844e-05
6.87442e-05
7.4092e-05
6.88143e-05
7.40621e-05
7.18457e-05
7.18755e-05
6.89178e-05
7.41209e-05
6.89201e-05
7.40655e-05
4.22741e-05
4.23071e-05
4.22758e-05
4.23174e-05
4.22777e-05
4.2335e-05
4.2314e-05
6.07596e-05
6.49621e-05
4.85347e-05
5.26573e-05
6.07944e-05
6.48593e-05
4.85237e-05
7.18828e-05
7.18616e-05
6.09665e-05
4.85546e-05
6.5247e-05
5.28192e-05
6.0917e-05
4.85744e-05
6.5113e-05
7.02975e-05
7.03714e-05
5.46485e-05
7.02104e-05
7.02859e-05
6.86076e-05
7.39781e-05
6.85957e-05
7.40159e-05
7.18152e-05
7.18895e-05
6.85278e-05
7.39654e-05
6.85614e-05
7.40052e-05
4.22626e-05
4.22897e-05
4.22924e-05
4.35427e-05
4.35928e-05
4.35298e-05
4.35569e-05
6.07636e-05
6.50901e-05
4.85103e-05
5.2562e-05
6.0791e-05
6.48664e-05
4.84396e-05
7.1777e-05
7.18729e-05
6.06307e-05
4.85606e-05
6.50065e-05
5.24344e-05
6.0796e-05
4.84284e-05
6.46646e-05
7.0247e-05
7.0246e-05
5.43301e-05
7.00018e-05
6.99596e-05
6.43102e-05
7.37184e-05
6.80863e-05
7.45628e-05
7.16949e-05
6.60517e-05
6.43245e-05
7.37187e-05
6.80333e-05
7.4567e-05
2.96785e-05
3.76441e-05
3.76349e-05
4.43779e-05
2.98374e-05
3.79337e-05
3.79226e-05
6.02539e-05
6.44365e-05
4.60771e-05
4.96944e-05
6.04019e-05
6.60073e-05
4.48297e-05
7.17049e-05
6.61387e-05
6.02745e-05
4.60213e-05
6.43461e-05
4.96917e-05
6.02739e-05
4.47954e-05
6.60997e-05
6.89216e-05
6.88893e-05
5.33604e-05
7.01883e-05
7.02054e-05
7.11586e-05
7.11599e-05
5.37167e-05
6.98055e-05
6.97609e-05
7.12276e-05
7.1165e-05
7.12367e-05
7.1168e-05
5.37084e-05
6.97341e-05
6.97175e-05
6.97496e-05
6.97076e-05
6.87772e-05
7.3402e-05
6.09735e-05
5.18532e-05
6.48426e-05
4.72087e-05
6.1004e-05
5.18752e-05
6.50015e-05
4.72096e-05
6.86704e-05
7.34403e-05
7.33852e-05
6.85125e-05
6.86891e-05
7.33907e-05
7.33873e-05
6.85135e-05
6.08767e-05
5.17962e-05
6.46806e-05
4.72097e-05
6.47685e-05
4.72136e-05
6.07048e-05
6.09032e-05
5.18419e-05
6.46872e-05
4.72182e-05
6.49033e-05
4.72211e-05
6.07134e-05
5.38559e-05
7.00065e-05
7.0016e-05
7.11685e-05
7.11999e-05
7.11646e-05
5.38288e-05
6.9678e-05
6.96967e-05
6.99036e-05
6.99169e-05
7.11995e-05
7.11662e-05
5.18413e-05
6.47894e-05
6.85497e-05
7.3458e-05
7.33795e-05
6.84578e-05
6.07461e-05
5.17781e-05
6.46487e-05
4.7167e-05
6.47155e-05
4.71775e-05
6.06224e-05
6.85446e-05
7.34856e-05
7.33964e-05
6.8462e-05
6.07331e-05
5.16691e-05
4.71274e-05
6.46761e-05
4.7131e-05
6.46722e-05
6.06235e-05
6.88048e-05
7.34117e-05
6.0985e-05
4.71655e-05
6.87955e-05
6.09272e-05
5.18387e-05
6.47109e-05
4.72103e-05
6.49188e-05
4.72096e-05
6.07563e-05
6.87235e-05
7.33958e-05
7.33966e-05
6.85597e-05
6.09143e-05
5.18037e-05
4.7201e-05
6.47582e-05
4.71964e-05
6.48707e-05
6.07598e-05
6.87169e-05
7.34294e-05
7.34112e-05
6.85668e-05
7.12633e-05
7.11934e-05
5.35716e-05
6.98615e-05
6.98828e-05
6.97023e-05
6.97139e-05
7.12624e-05
7.11951e-05
6.07572e-05
5.16658e-05
4.71141e-05
6.47037e-05
4.71121e-05
6.46895e-05
6.06726e-05
6.07796e-05
5.17857e-05
4.71539e-05
6.47314e-05
4.71537e-05
6.48175e-05
6.06804e-05
6.85865e-05
7.34912e-05
7.34093e-05
6.85141e-05
6.86002e-05
7.34505e-05
7.34091e-05
6.85138e-05
5.37888e-05
6.98096e-05
6.97938e-05
6.98924e-05
6.98464e-05
7.12195e-05
7.11799e-05
7.1229e-05
7.11822e-05
7.12394e-05
7.12885e-05
7.12491e-05
7.12954e-05
6.97942e-05
6.98087e-05
5.38276e-05
7.00366e-05
7.00813e-05
7.13009e-05
7.12907e-05
7.13029e-05
7.12967e-05
5.39276e-05
7.02375e-05
7.02797e-05
7.00975e-05
7.01465e-05
6.84489e-05
7.34104e-05
6.84656e-05
7.35209e-05
6.06201e-05
6.46806e-05
4.71974e-05
5.17684e-05
6.0653e-05
6.48338e-05
4.71928e-05
6.06027e-05
6.46392e-05
4.72047e-05
5.17466e-05
6.06525e-05
6.46392e-05
4.71937e-05
6.85044e-05
7.3598e-05
7.35674e-05
6.87149e-05
6.84781e-05
7.36206e-05
7.35506e-05
6.87056e-05
6.06313e-05
5.1804e-05
6.50613e-05
4.72267e-05
6.48941e-05
4.71973e-05
6.08163e-05
6.06096e-05
5.17591e-05
6.50136e-05
4.72128e-05
6.47037e-05
4.71943e-05
6.07983e-05
6.9658e-05
6.96738e-05
5.36747e-05
6.98159e-05
6.98119e-05
7.12105e-05
7.12857e-05
7.1326e-05
7.1297e-05
5.37693e-05
7.02278e-05
7.02136e-05
6.99351e-05
6.99262e-05
7.13254e-05
7.12952e-05
6.06613e-05
6.46566e-05
4.71579e-05
5.17537e-05
6.06058e-05
6.48797e-05
4.71587e-05
6.85987e-05
7.35099e-05
6.84599e-05
7.35771e-05
6.06744e-05
4.71272e-05
6.47228e-05
5.17566e-05
6.06105e-05
4.71375e-05
6.49558e-05
6.86372e-05
7.35972e-05
7.35799e-05
6.87838e-05
6.07092e-05
5.18e-05
6.5101e-05
4.72437e-05
6.49431e-05
4.71755e-05
6.09161e-05
6.86429e-05
7.35924e-05
7.35848e-05
6.87852e-05
6.0722e-05
5.18834e-05
4.72842e-05
6.51217e-05
4.71837e-05
6.50054e-05
6.09219e-05
6.8463e-05
7.34121e-05
6.85055e-05
7.35191e-05
6.06436e-05
4.71987e-05
6.47383e-05
5.17774e-05
6.07022e-05
4.71973e-05
6.47662e-05
6.84789e-05
7.34438e-05
6.85165e-05
7.35239e-05
6.06272e-05
5.17641e-05
6.50048e-05
4.72196e-05
6.4702e-05
4.71983e-05
6.07703e-05
6.84742e-05
7.36229e-05
7.35492e-05
6.86777e-05
6.06443e-05
5.17974e-05
4.72351e-05
6.49929e-05
4.72033e-05
6.48148e-05
6.07729e-05
6.8489e-05
7.35916e-05
7.35426e-05
6.86776e-05
6.99403e-05
6.99551e-05
5.39305e-05
7.01511e-05
7.01488e-05
7.12691e-05
7.12971e-05
7.13008e-05
7.13001e-05
5.40404e-05
7.02857e-05
7.02677e-05
7.02044e-05
7.01965e-05
7.12981e-05
7.12966e-05
6.06804e-05
4.71536e-05
6.4726e-05
5.17622e-05
6.06591e-05
4.71596e-05
6.48257e-05
6.85911e-05
7.35125e-05
6.85082e-05
7.35751e-05
6.85695e-05
7.34672e-05
6.85035e-05
7.35437e-05
6.07296e-05
5.18948e-05
4.73008e-05
6.511e-05
4.72126e-05
6.50063e-05
6.09021e-05
6.07087e-05
5.17922e-05
4.72677e-05
6.50346e-05
4.71889e-05
6.48803e-05
6.08845e-05
6.86304e-05
7.35915e-05
7.35823e-05
6.87614e-05
6.86124e-05
7.35894e-05
7.35573e-05
6.87503e-05
7.12281e-05
7.12805e-05
7.12384e-05
7.1288e-05
5.38702e-05
7.0151e-05
7.01933e-05
7.00036e-05
7.0058e-05
7.13058e-05
7.12849e-05
7.13068e-05
7.12909e-05
7.12962e-05
7.12886e-05
7.12968e-05
7.12856e-05
7.0254e-05
7.02887e-05
5.41031e-05
7.02272e-05
7.0218e-05
7.12858e-05
7.12822e-05
7.12862e-05
7.12798e-05
5.41087e-05
7.0054e-05
7.00255e-05
7.01764e-05
7.01593e-05
6.88654e-05
7.36272e-05
6.87459e-05
7.36212e-05
6.10136e-05
6.5088e-05
4.73183e-05
5.20647e-05
6.08649e-05
6.51199e-05
4.74248e-05
6.10249e-05
6.50826e-05
4.72902e-05
5.21014e-05
6.08545e-05
6.52238e-05
4.74168e-05
6.88608e-05
7.35427e-05
7.35677e-05
6.88543e-05
6.88758e-05
7.3543e-05
7.3599e-05
6.88689e-05
6.1027e-05
5.20982e-05
6.50237e-05
4.75854e-05
6.5112e-05
4.75162e-05
6.10395e-05
6.10423e-05
5.21646e-05
6.5144e-05
4.76049e-05
6.52293e-05
4.7524e-05
6.10583e-05
7.03032e-05
7.02877e-05
5.42345e-05
7.04015e-05
7.03925e-05
7.13239e-05
7.13153e-05
7.12795e-05
7.1298e-05
5.42655e-05
7.01643e-05
7.01739e-05
7.03935e-05
7.03869e-05
7.12814e-05
7.13004e-05
6.10115e-05
6.51204e-05
4.7358e-05
5.20744e-05
6.09461e-05
6.51279e-05
4.74555e-05
6.88336e-05
7.35848e-05
6.88018e-05
7.35557e-05
6.10095e-05
4.7385e-05
6.51299e-05
5.2096e-05
6.09498e-05
4.74719e-05
6.51088e-05
6.88313e-05
7.35375e-05
7.35531e-05
6.87784e-05
6.10099e-05
5.20989e-05
6.49861e-05
4.75874e-05
6.5099e-05
4.75336e-05
6.09872e-05
6.88284e-05
7.35331e-05
7.35428e-05
6.8774e-05
6.10073e-05
5.21036e-05
4.75906e-05
6.4957e-05
4.75424e-05
6.50621e-05
6.09825e-05
6.88539e-05
7.36306e-05
6.87216e-05
7.3628e-05
6.09956e-05
4.73211e-05
6.50271e-05
5.20464e-05
6.08245e-05
4.74182e-05
6.51027e-05
6.8839e-05
7.35957e-05
6.87161e-05
7.3597e-05
6.1034e-05
5.21679e-05
6.51579e-05
4.76054e-05
6.52279e-05
4.75236e-05
6.10623e-05
6.88692e-05
7.35507e-05
7.36071e-05
6.88752e-05
6.10155e-05
5.21027e-05
4.75862e-05
6.50736e-05
4.75103e-05
6.51048e-05
6.10451e-05
6.88526e-05
7.35624e-05
7.3588e-05
6.88621e-05
7.02842e-05
7.02656e-05
5.40985e-05
7.01658e-05
7.01557e-05
7.12914e-05
7.12845e-05
7.12918e-05
7.12802e-05
5.40964e-05
6.99881e-05
6.99915e-05
7.01157e-05
7.01098e-05
7.12925e-05
7.12807e-05
6.09919e-05
4.73616e-05
6.50594e-05
5.20586e-05
6.09134e-05
4.74494e-05
6.51002e-05
6.88158e-05
7.35866e-05
6.87767e-05
7.35634e-05
6.88137e-05
7.35904e-05
6.87675e-05
7.35844e-05
6.09933e-05
5.21051e-05
4.75895e-05
6.49654e-05
4.75394e-05
6.50604e-05
6.09834e-05
6.09926e-05
5.21065e-05
4.75874e-05
6.50361e-05
4.75274e-05
6.50972e-05
6.09872e-05
6.88143e-05
7.35416e-05
7.35512e-05
6.87843e-05
6.88134e-05
7.35566e-05
7.35742e-05
6.87882e-05
7.13049e-05
7.1308e-05
7.1305e-05
7.13058e-05
5.41149e-05
7.01153e-05
7.00877e-05
7.02182e-05
7.02044e-05
7.13044e-05
7.13034e-05
7.13043e-05
7.13008e-05
7.12865e-05
7.13195e-05
7.12883e-05
7.13264e-05
7.00072e-05
6.99773e-05
5.39363e-05
6.98965e-05
6.9882e-05
7.1387e-05
7.13274e-05
7.13959e-05
7.13351e-05
5.39459e-05
6.99048e-05
6.99429e-05
6.98772e-05
6.98726e-05
6.87124e-05
7.35253e-05
6.88289e-05
7.35112e-05
6.09442e-05
6.49753e-05
4.76342e-05
5.20976e-05
6.1026e-05
6.48809e-05
4.766e-05
6.09483e-05
6.50602e-05
4.76563e-05
5.21481e-05
6.10425e-05
6.48833e-05
4.76794e-05
6.86676e-05
7.36067e-05
7.35472e-05
6.85976e-05
6.86618e-05
7.35739e-05
7.35131e-05
6.85846e-05
6.08959e-05
5.20922e-05
6.48266e-05
4.76743e-05
6.48493e-05
4.76692e-05
6.08258e-05
6.08935e-05
5.21113e-05
6.47404e-05
4.76822e-05
6.48235e-05
4.76835e-05
6.08128e-05
7.00851e-05
7.0094e-05
5.39523e-05
6.98695e-05
6.98814e-05
7.12768e-05
7.12936e-05
7.13668e-05
7.13e-05
5.39476e-05
6.97615e-05
6.97673e-05
6.98101e-05
6.98201e-05
7.13662e-05
7.13006e-05
6.08905e-05
6.49399e-05
4.76214e-05
5.20863e-05
6.09574e-05
6.48586e-05
4.7636e-05
6.86741e-05
7.35333e-05
6.87347e-05
7.35623e-05
6.08882e-05
4.76205e-05
6.49163e-05
5.20885e-05
6.09523e-05
4.76344e-05
6.48578e-05
6.86506e-05
7.36234e-05
7.35615e-05
6.86302e-05
6.0864e-05
5.20809e-05
6.48383e-05
4.76574e-05
6.48367e-05
4.76447e-05
6.08426e-05
6.86503e-05
7.36344e-05
7.35727e-05
6.86338e-05
6.08637e-05
5.20895e-05
4.76636e-05
6.48891e-05
4.76459e-05
6.48499e-05
6.08464e-05
6.87322e-05
7.35323e-05
6.88453e-05
7.35166e-05
6.09731e-05
4.76442e-05
6.50303e-05
5.21423e-05
6.10382e-05
4.76793e-05
6.4934e-05
6.8738e-05
7.3553e-05
6.88388e-05
7.35502e-05
6.09183e-05
5.21194e-05
6.47511e-05
4.76957e-05
6.48379e-05
4.76959e-05
6.08331e-05
6.86817e-05
7.35763e-05
7.35177e-05
6.85991e-05
6.09263e-05
5.21411e-05
4.7703e-05
6.48594e-05
4.76962e-05
6.48977e-05
6.08508e-05
6.86897e-05
7.36041e-05
7.35543e-05
6.86146e-05
6.99479e-05
6.99525e-05
5.39486e-05
6.99011e-05
6.9906e-05
7.12962e-05
7.13384e-05
7.14012e-05
7.13477e-05
5.39705e-05
7.002e-05
7.00206e-05
6.99052e-05
6.99095e-05
7.13999e-05
7.1347e-05
6.09188e-05
4.76306e-05
6.49923e-05
5.21295e-05
6.09716e-05
4.76552e-05
6.49115e-05
6.8696e-05
7.35414e-05
6.8753e-05
7.35675e-05
6.86979e-05
7.35522e-05
6.87576e-05
7.35602e-05
6.08896e-05
5.20952e-05
4.76796e-05
6.48979e-05
4.76593e-05
6.48621e-05
6.087e-05
6.08935e-05
5.2128e-05
4.76863e-05
6.48698e-05
4.76713e-05
6.48846e-05
6.0868e-05
6.86723e-05
7.36381e-05
7.35775e-05
6.86508e-05
6.86728e-05
7.36205e-05
7.35672e-05
6.86461e-05
7.13032e-05
7.13265e-05
7.13045e-05
7.1333e-05
5.40268e-05
6.99182e-05
6.99461e-05
6.99276e-05
6.99227e-05
7.13838e-05
7.13324e-05
7.13928e-05
7.13397e-05
7.13968e-05
7.14453e-05
7.14048e-05
7.14488e-05
6.99503e-05
6.99896e-05
5.41649e-05
7.01005e-05
7.01364e-05
7.14723e-05
7.14495e-05
7.14728e-05
7.14523e-05
5.42646e-05
7.02417e-05
7.02562e-05
7.01421e-05
7.01732e-05
6.86158e-05
7.35947e-05
6.85715e-05
7.3689e-05
6.08253e-05
6.48338e-05
4.76855e-05
5.21814e-05
6.08077e-05
6.49628e-05
4.77136e-05
6.0808e-05
6.47381e-05
4.76826e-05
5.20972e-05
6.07922e-05
6.48715e-05
4.7692e-05
6.86595e-05
7.37492e-05
7.37113e-05
6.88148e-05
6.86501e-05
7.37569e-05
7.37077e-05
6.88123e-05
6.08486e-05
5.22777e-05
6.51323e-05
4.78492e-05
6.50028e-05
4.7773e-05
6.10149e-05
6.08323e-05
5.21542e-05
6.51237e-05
4.78197e-05
6.49349e-05
4.77313e-05
6.10093e-05
6.97885e-05
6.97901e-05
5.40074e-05
7.00286e-05
7.00294e-05
7.13801e-05
7.14497e-05
7.14845e-05
7.14562e-05
5.41248e-05
7.02561e-05
7.0256e-05
7.00979e-05
7.00961e-05
7.14845e-05
7.14561e-05
6.09046e-05
6.48578e-05
4.76859e-05
5.21882e-05
6.08421e-05
6.50039e-05
4.77357e-05
6.87176e-05
7.36467e-05
6.86372e-05
7.36984e-05
6.09123e-05
4.76989e-05
6.49146e-05
5.22446e-05
6.08471e-05
4.77504e-05
6.50399e-05
6.87347e-05
7.37438e-05
7.37133e-05
6.88319e-05
6.09302e-05
5.22897e-05
6.51436e-05
4.78811e-05
6.50389e-05
4.78047e-05
6.10563e-05
6.87382e-05
7.37277e-05
7.37049e-05
6.88293e-05
6.09368e-05
5.23247e-05
4.78902e-05
6.51283e-05
4.78177e-05
6.50631e-05
6.10555e-05
6.86168e-05
7.35973e-05
6.85833e-05
7.36921e-05
6.08368e-05
4.77138e-05
6.48601e-05
5.22132e-05
6.08289e-05
4.77379e-05
6.49565e-05
6.86288e-05
7.36184e-05
6.85991e-05
7.36901e-05
6.08402e-05
5.2162e-05
6.51282e-05
4.78288e-05
6.49375e-05
4.77443e-05
6.10094e-05
6.86516e-05
7.37618e-05
7.37116e-05
6.88108e-05
6.08559e-05
5.22897e-05
4.78579e-05
6.51167e-05
4.77892e-05
6.49928e-05
6.10091e-05
6.86579e-05
7.37409e-05
7.37026e-05
6.88096e-05
7.00571e-05
7.00571e-05
5.42366e-05
7.01615e-05
7.01604e-05
7.1406e-05
7.14398e-05
7.14616e-05
7.14439e-05
5.43119e-05
7.02251e-05
7.02217e-05
7.01847e-05
7.0183e-05
7.14597e-05
7.14421e-05
6.09111e-05
4.77146e-05
6.4879e-05
5.22223e-05
6.08652e-05
4.77584e-05
6.5e-05
6.87195e-05
7.36503e-05
6.86517e-05
7.37015e-05
6.87098e-05
7.36341e-05
6.86456e-05
7.36962e-05
6.09435e-05
5.23326e-05
4.78986e-05
6.51305e-05
4.78291e-05
6.50676e-05
6.10551e-05
6.09339e-05
5.23028e-05
4.78898e-05
6.51295e-05
4.782e-05
6.50318e-05
6.10507e-05
6.87396e-05
7.373e-05
7.37079e-05
6.8827e-05
6.8732e-05
7.37355e-05
7.37054e-05
6.88237e-05
7.1393e-05
7.14413e-05
7.14014e-05
7.14449e-05
5.42637e-05
7.02213e-05
7.02363e-05
7.01275e-05
7.01615e-05
7.14703e-05
7.14457e-05
7.14704e-05
7.14485e-05
7.14723e-05
7.14818e-05
7.14727e-05
7.14823e-05
7.02608e-05
7.02696e-05
5.44801e-05
7.02843e-05
7.02814e-05
7.14878e-05
7.148e-05
7.14901e-05
7.14808e-05
5.45149e-05
7.02462e-05
7.02428e-05
7.02828e-05
7.02757e-05
6.88973e-05
7.3761e-05
6.88333e-05
7.37669e-05
6.11543e-05
6.51513e-05
4.7936e-05
5.25199e-05
6.10476e-05
6.51927e-05
4.80194e-05
6.1157e-05
6.51577e-05
4.79182e-05
5.25148e-05
6.10444e-05
6.52233e-05
4.80112e-05
6.88962e-05
7.37554e-05
7.37568e-05
6.88984e-05
6.88989e-05
7.37558e-05
7.37641e-05
6.89008e-05
6.11614e-05
5.25746e-05
6.51847e-05
4.81602e-05
6.51928e-05
4.80976e-05
6.11739e-05
6.11648e-05
5.2587e-05
6.52082e-05
4.81638e-05
6.52253e-05
4.80965e-05
6.11777e-05
7.02902e-05
7.02888e-05
5.45153e-05
7.03307e-05
7.03314e-05
7.14847e-05
7.14925e-05
7.14922e-05
7.14891e-05
5.45576e-05
7.02628e-05
7.02653e-05
7.03288e-05
7.03294e-05
7.14924e-05
7.14894e-05
6.1132e-05
6.51557e-05
4.79613e-05
5.25226e-05
6.10747e-05
6.51801e-05
4.80342e-05
6.88609e-05
7.37293e-05
6.88375e-05
7.37386e-05
6.11262e-05
4.79653e-05
6.51329e-05
5.25055e-05
6.10725e-05