/*--------------------------------*- C++ -*----------------------------------*\
| =========                 |                                                 |
| \\      /  F ield         | OpenFOAM: The Open Source CFD Toolbox           |
|  \\    /   O peration     | Version:  2312                                  |
|   \\  /    A nd           | Website:  www.openfoam.com                      |
|    \\/     M anipulation  |                                                 |
\*---------------------------------------------------------------------------*/
FoamFile
{
    version     2.0;
    format      ascii;
    arch        "LSB;label=32;scalar=64";
    class       volScalarField;
    location    "500";
    object      nut;
}
// * * * * * * * * * * * * * * * * * * * * * * * * * * * * * * * * * * * * * //

dimensions      [0 2 -1 0 0 0 0];

internalField   nonuniform List<scalar> 
43208
(
0.000209938
0.000201931
0.000201294
0.000182226
0.000211754
0.000203459
0.000204396
0.000184512
0.000214061
0.000205504
0.000204537
0.000184676
0.000214698
0.000203933
0.000204498
0.00018389
0.000217174
0.000206176
0.000206654
0.000186065
0.000219946
0.000208295
0.000207934
0.000187011
0.00022156
0.000208658
0.000208435
0.000187201
0.000223104
0.000209169
0.000209465
0.000187644
0.000224464
0.00021006
0.000209829
0.00018799
0.000225926
0.000210345
0.000210342
0.000187811
0.000227412
0.000211647
0.000211791
0.000190236
0.000228485
0.000211329
0.00021107
0.000187031
0.000229509
0.000212169
0.000212388
0.000190991
0.000230815
0.000212743
0.000212798
0.000188617
0.000231358
0.000212115
0.00021221
0.000189382
0.000231968
0.000213336
0.000212668
0.000189387
0.000233785
0.000213288
0.000214625
0.000191233
0.000233088
0.000213229
0.000211599
0.00018759
0.000234684
0.000213307
0.000214514
0.000190475
0.000235503
0.000214637
0.000214981
0.000192045
0.000232991
0.000212186
0.000211058
0.000188112
0.000181822
0.000202196
0.000202509
0.00018195
0.000202043
0.000201233
0.000202524
0.000202431
0.000181481
0.000201218
0.000202255
0.000182437
0.000181821
0.000184855
0.000201991
0.000201891
0.000203007
0.000202129
0.000181511
0.000184075
0.000201854
0.000201272
0.000203135
0.000203719
0.00020216
0.000202173
0.000202666
0.000181972
0.000185413
0.000202007
0.000203776
0.000202809
0.000184211
0.000185084
0.000184694
0.000203856
0.000203433
0.000204821
0.000205506
0.000184863
0.000186123
0.000204025
0.000204377
0.000204832
0.000204725
0.000203443
0.000205526
0.000204862
0.000185468
0.000184366
0.000203619
0.000204728
0.000204869
0.000184988
0.000184318
0.00018337
0.000204764
0.000205478
0.000204043
0.000204182
0.000185632
0.000182959
0.000204734
0.000204527
0.000203958
0.000204068
0.000204923
0.000204246
0.000204451
0.000184009
0.000183871
0.000204866
0.000204133
0.000204352
0.000183865
0.000183487
0.000186003
0.000204016
0.000203867
0.000205823
0.000205128
0.000182653
0.000185486
0.000203984
0.000204397
0.000205956
0.000206124
0.00020442
0.000205182
0.000205833
0.000184156
0.000186086
0.000204392
0.000206179
0.000205973
0.000185873
0.000186243
0.000187223
0.000206486
0.000206129
0.000207895
0.000208031
0.000186048
0.000187469
0.000206594
0.000206608
0.000207882
0.000207673
0.000206421
0.00020806
0.000207757
0.000186178
0.000186953
0.000206528
0.000207692
0.000207742
0.000187049
0.000187124
0.000187099
0.000208123
0.00020827
0.000208372
0.000208498
0.00018737
0.000187265
0.000208095
0.000207916
0.000208368
0.000208268
0.00020804
0.000208536
0.000208496
0.000186897
0.000187053
0.000208012
0.000208314
0.000208493
0.000187339
0.000187022
0.000187808
0.000208499
0.000208606
0.000209155
0.000209008
0.000187152
0.000187581
0.000208499
0.00020838
0.000209139
0.000209114
0.000208587
0.000209043
0.00020901
0.000186937
0.000187882
0.000208585
0.000209142
0.000208988
0.000187628
0.000187759
0.000187821
0.000209351
0.000209144
0.000209586
0.000209724
0.000187465
0.000188161
0.000209355
0.000209451
0.000209647
0.000209797
0.000209263
0.000209781
0.000209853
0.000187916
0.000188002
0.000209265
0.000209839
0.0002099
0.000188237
0.000187706
0.000188585
0.000209717
0.000209996
0.000210464
0.000210324
0.000188164
0.000188259
0.000209765
0.000209776
0.000210412
0.000209967
0.00020987
0.000210341
0.000209877
0.000187763
0.000188068
0.000209907
0.000210005
0.000209866
0.000187634
0.000188542
0.000188983
0.000210651
0.000210339
0.000211036
0.000211107
0.000188043
0.000189314
0.000210614
0.000210345
0.000211118
0.000211554
0.000210133
0.00021115
0.000211727
0.00018822
0.000189836
0.000210089
0.000211603
0.00021177
0.000190326
0.000188894
0.00018909
0.000211264
0.00021156
0.000211644
0.000211679
0.000189483
0.000188669
0.000211347
0.000211715
0.000211641
0.000211316
0.000211871
0.000211747
0.000211061
0.000189768
0.00018814
0.000211919
0.000211395
0.000211063
0.000187413
0.000188827
0.000189236
0.000211607
0.000211323
0.000211639
0.000211371
0.000188166
0.000189268
0.000211575
0.000211051
0.000211655
0.000211482
0.000210776
0.000211336
0.000211671
0.000187757
0.000189676
0.000210767
0.000211433
0.000211687
0.00019044
0.000189404
0.000189858
0.000211968
0.000212158
0.000212724
0.000213046
0.000189949
0.000190148
0.000212023
0.000212389
0.000212743
0.000213121
0.0002127
0.000213162
0.000213158
0.000190279
0.000189986
0.000212735
0.000213225
0.000213178
0.000189437
0.000189589
0.000189375
0.000212721
0.000212634
0.000212454
0.000211845
0.000189261
0.000188379
0.000212727
0.000212691
0.000212498
0.00021212
0.000212472
0.000211824
0.000211872
0.000189275
0.000188808
0.000212475
0.000212087
0.000211911
0.000188829
0.000189232
0.000188811
0.000212429
0.000212164
0.000212325
0.000213211
0.000188965
0.000190537
0.000212472
0.000212239
0.0002123
0.000212428
0.000212238
0.000213298
0.000212835
0.000189068
0.000189193
0.000212299
0.000212502
0.00021281
0.000189584
0.000188848
0.0001928
0.000212537
0.00021323
0.000214517
0.000213303
0.000190266
0.000189766
0.000212474
0.000212574
0.000214603
0.000214512
0.000212868
0.000213273
0.000213864
0.000189134
0.000192509
0.0002128
0.000214491
0.000213937
0.000191246
0.000192517
0.000185985
0.000214551
0.000213342
0.000211814
0.000213036
0.000189608
0.000189532
0.000214675
0.000214656
0.000211824
0.000211967
0.000214021
0.000213163
0.000212712
0.000192387
0.000186275
0.000214143
0.000212069
0.000212736
0.000187928
0.000185763
0.000192681
0.000211598
0.000213055
0.000214054
0.000213273
0.00018945
0.000189857
0.000211519
0.000211463
0.000213937
0.00021339
0.000212378
0.000213321
0.000212995
0.000185877
0.000191961
0.000212256
0.000213406
0.000212823
0.000190267
0.000192834
0.000190379
0.000214792
0.000213336
0.000214602
0.000214308
0.000189575
0.000191317
0.00021482
0.000214584
0.000214856
0.000215472
0.00021351
0.000214221
0.000215043
0.000192341
0.000191615
0.000213584
0.000215446
0.000215322
0.000192233
0.000189776
0.000187548
0.000214148
0.000214654
0.000211624
0.00021253
0.000191427
0.000188702
0.000214344
0.000214944
0.000211525
0.000211208
0.000215137
0.000212723
0.000211898
0.000190866
0.000186844
0.000215343
0.000211303
0.000211703
0.000187354
0.000188953
0.000211513
0.000212038
0.000189169
0.000211414
0.000210988
0.000233593
0.000232792
0.000233111
0.000211431
0.000188063
0.000211249
0.000100504
5.07273e-05
2.38876e-05
5.07183e-05
0.000210013
0.000210199
0.00020888
0.000209815
0.000146044
0.000203555
0.000104472
0.000213357
9.93691e-05
5.07516e-05
9.94847e-05
5.0783e-05
2.38944e-05
2.39072e-05
9.97108e-05
5.07535e-05
9.9365e-05
5.07832e-05
0.000210053
0.000209156
0.000209893
0.000210982
0.000210547
0.000211242
0.00021085
0.000143703
0.000102979
0.00021304
0.000201683
0.000144254
0.000102815
0.00021263
2.39034e-05
2.39087e-05
0.000144036
0.000212045
0.000103195
0.000201898
0.000143932
0.000212024
0.000103888
7.75179e-05
7.74727e-05
0.000182704
7.77855e-05
7.78771e-05
0.000100574
5.08e-05
0.000100179
5.07952e-05
2.39138e-05
2.39124e-05
0.000100563
5.07933e-05
0.000100394
5.07848e-05
0.000211431
0.000212047
0.000211541
0.00021371
0.000214053
0.000213722
0.000213626
0.000145702
0.000104217
0.000212944
0.000204677
0.000144592
0.000104918
0.000213994
2.39077e-05
2.39061e-05
0.000145705
0.000213866
0.000104529
0.000204703
0.000145236
0.000214565
0.000104556
7.83422e-05
7.84064e-05
0.000185148
7.84934e-05
7.84998e-05
0.000100254
5.07789e-05
0.000100586
5.07797e-05
2.39057e-05
2.39083e-05
0.000100076
5.07729e-05
0.000100314
5.07782e-05
0.000214601
0.000213979
0.000214095
0.000214453
0.000214785
0.000214546
0.000214785
0.000145807
0.00010459
0.00021623
0.000205281
0.000146181
0.000103954
0.000216469
2.39077e-05
2.39148e-05
0.000145343
0.000215786
0.000103946
0.000204302
0.000145656
0.000215826
0.000103684
7.81656e-05
7.80756e-05
0.000184212
7.78514e-05
7.77818e-05
9.97482e-05
5.08074e-05
9.97059e-05
5.08336e-05
2.39227e-05
2.39345e-05
0.00010001
5.08072e-05
9.98214e-05
5.083e-05
0.000214664
0.000214935
0.000215037
0.000216403
0.000215885
0.000216692
0.000216535
0.000144581
0.000103145
0.000215905
0.000203825
0.000144682
0.000103466
0.000215741
2.39264e-05
2.39322e-05
0.000145109
0.000215925
0.000103703
0.000205064
0.000144914
0.000216213
0.000104081
7.76846e-05
7.7753e-05
0.000184675
7.79643e-05
7.80276e-05
0.000100524
5.08528e-05
0.000100322
5.08552e-05
2.39406e-05
2.3942e-05
0.000100446
5.08452e-05
0.000100367
5.08476e-05
0.000216761
0.000217371
0.000217218
0.000219366
0.000219346
0.000219292
0.000219283
0.000146251
0.000104377
0.00021727
0.000207005
0.000145617
0.000104656
0.000218067
2.39357e-05
2.39377e-05
0.000146124
0.000217783
0.000104361
0.000207053
0.000145822
0.000218343
0.000104406
7.82811e-05
7.82819e-05
0.000186627
7.8334e-05
7.83021e-05
0.000100477
5.08539e-05
0.000100535
5.08559e-05
2.39416e-05
2.39437e-05
0.000100465
5.08489e-05
0.000100465
5.0852e-05
0.000220011
0.000219839
0.000219886
0.000221185
0.000221336
0.000221071
0.000221246
0.000146401
0.000104549
0.000219948
0.000208397
0.0001464
0.000104415
0.000220292
2.39405e-05
2.39434e-05
0.000146328
0.000219743
0.000104421
0.0002081
0.000146243
0.000220062
0.000104429
7.82642e-05
7.82474e-05
0.000187279
7.8243e-05
7.82458e-05
0.000100419
5.08652e-05
0.000100399
5.08734e-05
2.39481e-05
2.39514e-05
0.000100374
5.08593e-05
0.00010038
5.08674e-05
0.000221701
0.00022145
0.000221603
0.000222727
0.000222676
0.000222694
0.00022267
0.000146378
0.000104369
0.000220929
0.000208791
0.000146332
0.000104433
0.000221108
2.3947e-05
2.39509e-05
0.000146303
0.000220793
0.000104312
0.000208584
0.000146301
0.000220987
0.000104305
7.81947e-05
7.8194e-05
0.000187323
7.8163e-05
7.81403e-05
0.000100426
5.08778e-05
0.000100441
5.08795e-05
2.39544e-05
2.39575e-05
0.000100473
5.08743e-05
0.000100451
5.08757e-05
0.000223016
0.000223154
0.00022308
0.000224098
0.000224149
0.000224246
0.000224259
0.000146448
0.000104385
0.000221763
0.000209299
0.000146392
0.000104368
0.000221968
2.39545e-05
2.39564e-05
0.000146544
0.000221778
0.000104516
0.000209702
0.000146394
0.000222081
0.000104589
7.82332e-05
7.82281e-05
0.000188106
7.83043e-05
7.83307e-05
0.00010043
5.08887e-05
0.00010038
5.08991e-05
2.39616e-05
2.39644e-05
0.00010036
5.08815e-05
0.000100377
5.08923e-05
0.000224607
0.00022453
0.000224545
0.000225543
0.000225473
0.000225295
0.000225219
0.000146616
0.000104481
0.000222759
0.000210251
0.000146531
0.00010456
0.00022301
2.39587e-05
2.39635e-05
0.000146515
0.000222808
0.000104351
0.000209819
0.000146565
0.000222921
0.000104249
7.82143e-05
7.82163e-05
0.000187711
7.80346e-05
7.79953e-05
0.000100375
5.09019e-05
0.000100437
5.09024e-05
2.39665e-05
2.39697e-05
0.000100414
5.08988e-05
0.000100403
5.09003e-05
0.000225739
0.000225756
0.000225706
0.000226982
0.000226967
0.000227225
0.000227294
0.00014647
0.00010429
0.000223551
0.000210385
0.000146509
0.000104177
0.000223681
2.39685e-05
2.39703e-05
0.000146555
0.000223436
0.000104347
0.000210769
0.000146408
0.000223687
0.000104515
7.80378e-05
7.80243e-05
0.000189173
7.83329e-05
7.83595e-05
0.000100588
5.09136e-05
0.000100368
5.09189e-05
2.39735e-05
2.39748e-05
0.000100543
5.09072e-05
0.00010045
5.09105e-05
0.000227506
0.000227697
0.000227742
0.00022829
0.000228338
0.000228203
0.000228076
0.000147269
0.00010471
0.00022471
0.000211869
0.000146826
0.000105072
0.000225128
2.39705e-05
2.39715e-05
0.000147238
0.000224911
0.00010481
0.000211848
0.000146971
0.000225216
0.000104898
7.86963e-05
7.87275e-05
0.000189402
7.83722e-05
7.83599e-05
0.000100081
5.09097e-05
0.000100539
5.09102e-05
2.39735e-05
2.39785e-05
0.000100106
5.0906e-05
0.000100416
5.09088e-05
0.000228373
0.000228212
0.000228055
0.000229111
0.000228962
0.000228978
0.000229019
0.000145982
0.000104164
0.00022542
0.000211093
0.000146825
0.000103552
0.000225271
2.39737e-05
2.39797e-05
0.000145956
0.000225301
0.000103983
0.000210974
0.000146635
0.000225159
0.000103612
7.74542e-05
7.74211e-05
0.000187362
7.74772e-05
7.74695e-05
0.000100706
5.09395e-05
0.000100069
5.0945e-05
2.3987e-05
2.39874e-05
0.000100705
5.09344e-05
0.000100186
5.09382e-05
0.000229544
0.000229601
0.000229728
0.00023051
0.000230692
0.000230786
0.000230802
0.000147574
0.000104475
0.000225461
0.000212921
0.000146186
0.000105477
0.000226117
2.39861e-05
2.39855e-05
0.000147635
0.000225512
0.000104678
0.000213026
0.000146367
0.000226248
0.000105448
7.88376e-05
7.88627e-05
0.000191893
7.91295e-05
7.91472e-05
0.000100022
5.09193e-05
0.000100634
5.09207e-05
2.39791e-05
2.39833e-05
0.000100046
5.09145e-05
0.000100513
5.0918e-05
0.000230781
0.000230899
0.000230815
0.000231298
0.000230956
0.000231104
0.000230974
0.000146256
0.000104543
0.000227077
0.000212064
0.000147687
0.000103482
0.00022699
2.39782e-05
2.39829e-05
0.000146223
0.000227108
0.000104376
0.000212233
0.000147523
0.000227024
0.000103624
7.76814e-05
7.76508e-05
0.000187681
7.72913e-05
7.72779e-05
0.000100351
5.09423e-05
0.000100089
5.09434e-05
2.39954e-05
2.39978e-05
0.000100337
5.0936e-05
0.000100223
5.0936e-05
0.000231193
0.000231198
0.000231187
0.000231557
0.000232091
0.000231568
0.000231796
0.000146857
0.000104059
0.000226616
0.00021276
0.000145821
0.000104803
0.000226844
2.39928e-05
2.39956e-05
0.000146873
0.000226701
0.000104305
0.000212371
0.000146069
0.000226835
0.000104578
7.83109e-05
7.83525e-05
0.000190174
7.84924e-05
7.85217e-05
0.000100004
5.09471e-05
9.999e-05
5.09672e-05
2.39926e-05
2.39956e-05
9.97952e-05
5.09411e-05
9.97265e-05
5.09681e-05
0.000232386
0.000232002
0.000232138
0.000233679
0.000233047
0.000233723
0.000233432
0.000146501
0.000104432
0.000227532
0.000213282
0.000146926
0.000104167
0.000227731
2.39931e-05
2.39971e-05
0.000146157
0.000227211
0.000103827
0.000213201
0.000146411
0.000227469
0.000103996
7.78278e-05
7.7733e-05
0.000189978
7.79019e-05
7.78277e-05
0.000100673
5.09505e-05
0.000100816
5.09173e-05
2.39964e-05
2.39993e-05
0.000101141
5.09509e-05
0.000101284
5.09055e-05
0.000233246
0.000233875
0.000233641
0.000233177
0.000233648
0.000233262
0.000233553
0.000147054
0.000104363
0.000228215
0.000213284
0.000146884
0.000104259
0.00022839
2.39943e-05
2.39903e-05
0.000148037
0.000228764
0.000105588
0.0002144
0.000147686
0.000228984
0.000104965
7.86496e-05
7.8824e-05
0.000190601
7.81667e-05
7.83182e-05
9.94519e-05
5.09338e-05
9.92101e-05
5.09875e-05
2.39989e-05
2.4006e-05
9.87736e-05
5.0918e-05
9.8678e-05
5.09876e-05
0.000233719
0.000233086
0.000233428
0.000233964
0.000233958
0.000233645
0.000233617
0.000146068
0.000104068
0.000228239
0.000213305
0.000146116
0.000104121
0.00022811
2.39939e-05
2.40118e-05
0.000144713
0.000227725
0.000102562
0.000211618
0.000145179
0.000227366
0.000102972
7.73395e-05
7.70829e-05
0.000188089
7.7699e-05
7.74428e-05
0.000100316
5.09713e-05
0.000100523
5.0961e-05
2.40011e-05
2.40064e-05
0.000100892
5.0976e-05
0.000100812
5.09567e-05
0.00023411
0.000234461
0.000234025
0.000235776
0.000235172
0.00023603
0.000235702
0.000146215
0.000104031
0.000228292
0.000213292
0.000146354
0.000103868
0.000228443
2.40065e-05
2.40034e-05
0.000147473
0.000228328
0.000105006
0.000215245
0.000146907
0.000229054
0.000104897
7.81608e-05
7.82949e-05
0.000191584
7.80634e-05
7.82284e-05
0.000100283
5.0937e-05
0.000100072
5.09784e-05
2.39981e-05
2.40221e-05
0.000100064
5.09267e-05
0.000100046
5.09685e-05
0.000235507
0.000235871
0.000235908
0.0002335
0.000234235
0.000233367
0.000233771
0.000147567
0.000104673
0.000229333
0.00021412
0.000146801
0.000104554
0.000229562
2.39908e-05
2.40185e-05
0.000146869
0.000230014
0.000104489
0.000213048
0.000147047
0.000229527
0.000103836
7.82814e-05
7.82828e-05
0.000190265
7.77808e-05
7.76652e-05
0.000106835
5.50846e-05
9.97028e-05
8.5244e-05
2.7028e-05
4.58541e-05
0.000106845
5.50793e-05
9.94887e-05
8.52274e-05
0.000252222
0.000244381
0.000244265
0.000231791
0.00025158
0.000243869
0.000243715
0.000148563
0.000105041
0.000229069
0.000213091
0.000147124
0.000106682
0.00022871
2.70283e-05
4.59658e-05
0.000148517
0.000228354
0.000104602
0.000212851
0.000146305
0.000228206
0.000106891
7.59922e-05
7.58743e-05
0.000193682
8.40509e-05
8.40504e-05
2.38882e-05
2.38858e-05
0.000182739
7.76554e-05
7.75246e-05
2.38994e-05
2.38891e-05
2.38983e-05
2.3887e-05
0.000182251
7.73431e-05
7.72626e-05
7.74726e-05
7.7346e-05
0.000100589
5.07289e-05
0.000145927
0.000203359
0.000103815
0.000213619
0.000146103
0.000203623
0.000104438
0.000213624
0.000100236
5.07442e-05
5.07266e-05
9.96468e-05
0.000100311
5.07232e-05
5.07234e-05
9.96583e-05
0.000145423
0.000202694
0.000103077
0.000213373
0.000103491
0.000213619
0.000144361
0.000145593
0.000203283
0.000103159
0.000213541
0.000104055
0.000213711
0.00014443
0.000184028
7.81792e-05
7.82123e-05
2.38892e-05
2.38925e-05
2.38871e-05
0.000183365
7.7244e-05
7.73066e-05
7.78909e-05
7.79388e-05
2.38938e-05
2.38887e-05
0.000203314
0.000103607
9.9803e-05
5.07446e-05
5.07188e-05
9.94092e-05
0.000144645
0.000202554
0.000102922
0.000212882
0.000103273
0.000213292
0.000143812
9.97826e-05
5.07517e-05
5.07214e-05
9.94197e-05
0.000144563
0.00020142
0.000212422
0.000102967
0.000212762
0.000103061
0.000143809
0.000100649
5.07328e-05
0.000145938
0.000213163
0.000100612
0.000145677
0.000203254
0.00010325
0.000213435
0.000104113
0.000213569
0.000144664
0.000100402
5.07258e-05
5.07272e-05
9.98101e-05
0.000145591
0.000202823
0.000213279
0.000103389
0.000213407
0.000103865
0.000144677
0.000100377
5.07342e-05
5.0729e-05
9.98315e-05
2.39021e-05
2.38903e-05
0.000181001
7.75539e-05
7.76245e-05
7.72719e-05
7.73144e-05
2.39044e-05
2.3893e-05
0.000144655
0.000201385
0.000212263
0.000103072
0.000212517
0.000103121
0.000144067
0.000144799
0.000202686
0.00021273
0.000103248
0.000213
0.000103641
0.000144136
9.98929e-05
5.07578e-05
5.073e-05
9.95872e-05
9.99438e-05
5.07391e-05
5.0726e-05
9.95981e-05
0.000182924
7.7559e-05
7.74793e-05
7.78251e-05
7.76874e-05
2.38959e-05
2.38895e-05
2.38959e-05
2.38883e-05
2.39014e-05
2.391e-05
2.39005e-05
2.39086e-05
7.74409e-05
7.74349e-05
0.00018301
7.79702e-05
7.80396e-05
2.39123e-05
2.39104e-05
2.39101e-05
2.39089e-05
0.00018353
7.84942e-05
7.85759e-05
7.81088e-05
7.81936e-05
9.92978e-05
5.07294e-05
9.94665e-05
5.07671e-05
0.000143663
0.000103015
0.000212936
0.000201968
0.000144012
0.000103469
0.000212595
0.000143565
0.000102893
0.000213065
0.000201639
0.000144026
0.000102761
0.000212614
9.94461e-05
5.07999e-05
5.07886e-05
0.000100061
9.93578e-05
5.08028e-05
5.07775e-05
0.000100021
0.00014367
0.000202227
0.000104291
0.00021247
0.000103655
0.000212382
0.000144567
0.000143543
0.000201652
0.000103998
0.000212282
0.000102928
0.000212317
0.000144446
7.71292e-05
7.71899e-05
0.000181554
7.73864e-05
7.73999e-05
2.38956e-05
2.39082e-05
2.39141e-05
2.39089e-05
0.000181965
7.83591e-05
7.83434e-05
7.76348e-05
7.76378e-05
2.39153e-05
2.39099e-05
0.000143829
0.000102892
0.000212484
0.000201862
0.000143656
0.000103592
0.00021222
9.97358e-05
5.07602e-05
9.938e-05
5.07841e-05
0.000143895
0.000212125
0.000103079
0.000201786
0.000143673
0.000211968
0.000103847
9.98442e-05
5.07942e-05
5.07876e-05
0.000100324
0.000144045
0.000202215
0.000104434
0.000212646
0.000103799
0.000212162
0.000145164
9.98637e-05
5.07903e-05
5.0787e-05
0.000100332
0.000144111
0.000202796
0.000212992
0.000104527
0.000212196
0.000104017
0.000145201
9.93514e-05
5.07307e-05
9.9595e-05
5.07671e-05
0.000143811
0.000212958
0.000103257
0.000202037
0.000144302
0.000212652
0.000103276
9.94113e-05
5.0739e-05
9.96374e-05
5.07664e-05
0.00014364
0.000201695
0.00010397
0.000212318
0.000102937
0.000212343
0.000144294
9.93499e-05
5.08041e-05
5.07776e-05
9.99279e-05
0.000143754
0.000202124
0.000212514
0.000104016
0.000212436
0.000103406
0.000144335
9.94116e-05
5.07906e-05
5.0773e-05
9.99388e-05
7.77129e-05
7.777e-05
0.000183728
7.82122e-05
7.82321e-05
2.39056e-05
2.39106e-05
2.39089e-05
2.39087e-05
0.000184321
7.8609e-05
7.85891e-05
7.83439e-05
7.83492e-05
2.39109e-05
2.39105e-05
0.000143961
0.000212446
0.000103171
0.000201923
0.000143959
0.000212238
0.000103443
9.9728e-05
5.07652e-05
9.95341e-05
5.07875e-05
9.9666e-05
5.07448e-05
9.95251e-05
5.07714e-05
0.000144167
0.000202893
0.000213122
0.000104494
0.000212445
0.000104036
0.000145087
0.000144071
0.000202106
0.000212831
0.000104168
0.000212278
0.000103606
0.000144989
9.98345e-05
5.07939e-05
5.07902e-05
0.000100253
9.97786e-05
5.0788e-05
5.07763e-05
0.000100213
2.38973e-05
2.39062e-05
2.38975e-05
2.3906e-05
0.000183019
7.82582e-05
7.8341e-05
7.7897e-05
7.79932e-05
2.39107e-05
2.3907e-05
2.39094e-05
2.39066e-05
2.39115e-05
2.39103e-05
2.39091e-05
2.39073e-05
7.85447e-05
7.86128e-05
0.000185518
7.85511e-05
7.85204e-05
2.39097e-05
2.39092e-05
2.39072e-05
2.39062e-05
0.000185344
7.81684e-05
7.808e-05
7.84428e-05
7.83927e-05
0.000100613
5.08054e-05
0.00010016
5.08043e-05
0.00014576
0.000104392
0.000213201
0.000204458
0.000144836
0.000104622
0.000214131
0.000145811
0.000104248
0.000212886
0.000204665
0.000144757
0.000104934
0.000214008
0.000100626
5.07814e-05
5.07903e-05
0.000100678
0.000100675
5.07776e-05
5.07971e-05
0.000100733
0.000145878
0.000204759
0.000104362
0.000215582
0.000104605
0.000214954
0.000146108
0.000145958
0.000205329
0.000104821
0.000215764
0.000104978
0.000214989
0.000146224
7.85516e-05
7.85349e-05
0.000186425
7.89173e-05
7.89072e-05
2.39151e-05
2.3914e-05
2.39065e-05
2.39098e-05
0.000186483
7.84665e-05
7.85005e-05
7.8925e-05
7.89234e-05
2.39082e-05
2.39115e-05
0.000145829
0.000104513
0.000213616
0.000204594
0.000145345
0.000104653
0.000214476
0.000100557
5.0788e-05
0.000100399
5.07781e-05
0.000145822
0.000213851
0.000104568
0.000204699
0.000145372
0.000214618
0.000104587
0.000100566
5.07738e-05
5.07796e-05
0.000100435
0.000145849
0.000204819
0.000104219
0.000215636
0.000104565
0.000215171
0.000145823
0.000100557
5.07698e-05
5.07735e-05
0.000100419
0.000145837
0.000204767
0.00021564
0.000104084
0.000215238
0.000104435
0.000145794
0.000100559
5.0807e-05
0.000100067
5.08071e-05
0.000145619
0.00021316
0.000104137
0.000204127
0.000144598
0.000213982
0.0001045
0.00010051
5.07922e-05
0.000100063
5.07932e-05
0.00014587
0.000205343
0.000104864
0.000215711
0.000104971
0.000214936
0.000146204
0.000100629
5.07808e-05
5.08004e-05
0.000100733
0.000145768
0.000204614
0.000215483
0.000104476
0.000214799
0.000104516
0.000146089
0.000100577
5.07815e-05
5.07904e-05
0.000100681
7.86209e-05
7.85971e-05
0.00018541
7.83954e-05
7.83888e-05
2.39098e-05
2.39086e-05
2.39072e-05
2.39054e-05
0.00018511
7.79582e-05
7.79825e-05
7.82801e-05
7.82824e-05
2.39097e-05
2.39079e-05
0.000145686
0.000213583
0.00010426
0.000204284
0.000145151
0.000214333
0.000104499
0.000100485
5.07925e-05
0.000100306
5.07847e-05
0.000100477
5.07885e-05
0.00010027
5.07868e-05
0.000145722
0.00020477
0.00021557
0.000104112
0.000215159
0.000104428
0.000145754
0.000145712
0.000204699
0.000215531
0.000104334
0.000215016
0.000104495
0.000145778
0.00010049
5.07767e-05
5.07804e-05
0.00010043
0.000100483
5.07772e-05
5.07834e-05
0.000100444
2.39106e-05
2.39112e-05
2.39091e-05
2.39093e-05
0.000185121
7.8275e-05
7.81907e-05
7.84887e-05
7.84466e-05
2.39105e-05
2.39105e-05
2.3909e-05
2.39085e-05
2.39097e-05
2.3915e-05
2.39074e-05
2.39136e-05
7.8039e-05
7.79427e-05
0.000183703
7.772e-05
7.76504e-05
2.39262e-05
2.39163e-05
2.39251e-05
2.3915e-05
0.000183352
7.76131e-05
7.76641e-05
7.76302e-05
7.75843e-05
0.000100258
5.07712e-05
0.000100627
5.07657e-05
0.000145664
0.000104187
0.000216013
0.000204532
0.000146061
0.000103806
0.000216184
0.000145715
0.000104543
0.000216245
0.000205238
0.00014617
0.000103899
0.000216438
0.000100086
5.08018e-05
5.0782e-05
9.97782e-05
0.000100078
5.07858e-05
5.07661e-05
9.97435e-05
0.00014536
0.000204248
0.000103454
0.000215904
0.000103637
0.000216085
0.000144838
0.000145376
0.000204706
0.000103197
0.000216076
0.00010362
0.000216357
0.000144788
7.82764e-05
7.83128e-05
0.000184195
7.77131e-05
7.77554e-05
2.39073e-05
2.39098e-05
2.39204e-05
2.39095e-05
0.000183671
7.72915e-05
7.73211e-05
7.75188e-05
7.7562e-05
2.39216e-05
2.39109e-05
0.000145269
0.000104038
0.000215878
0.000204434
0.000145668
0.000103687
0.000215868
0.000100067
5.07697e-05
0.000100298
5.0779e-05
0.000145247
0.000215819
0.00010391
0.000204275
0.000145633
0.000215798
0.000103639
9.99759e-05
5.0802e-05
5.07811e-05
9.98385e-05
0.000145077
0.00020415
0.000103458
0.000215657
0.000103551
0.000215751
0.000144844
9.99727e-05
5.08036e-05
5.07825e-05
9.98506e-05
0.000145067
0.0002041
0.000215679
0.000103619
0.000215714
0.000103559
0.000144863
0.00010031
5.07742e-05
0.000100656
5.07681e-05
0.000145786
0.000215999
0.000104327
0.000204825
0.000146079
0.000216273
0.000103965
0.000100317
5.07781e-05
0.000100626
5.07767e-05
0.000145479
0.000204765
0.000103238
0.00021617
0.000103673
0.000216431
0.00014488
0.000100125
5.07873e-05
5.07683e-05
9.9784e-05
0.000145496
0.000204617
0.000216137
0.00010357
0.000216281
0.00010379
0.000144961
0.000100146
5.07943e-05
5.07779e-05
9.98296e-05
7.78352e-05
7.78624e-05
0.00018362
7.76607e-05
7.76901e-05
2.39103e-05
2.39172e-05
2.39253e-05
2.39163e-05
0.000183406
7.78416e-05
7.78623e-05
7.7634e-05
7.76619e-05
2.39275e-05
2.39186e-05
0.000145391
0.00021586
0.000104175
0.000204713
0.000145698
0.000215965
0.000103848
0.000100125
5.07765e-05
0.000100333
5.07848e-05
0.000100137
5.07755e-05
0.000100348
5.07777e-05
0.000145172
0.000204139
0.000215793
0.000103656
0.000215795
0.000103604
0.000144971
0.000145205
0.000204498
0.000215892
0.00010357
0.000215941
0.000103703
0.00014497
0.000100024
5.08089e-05
5.07882e-05
9.98993e-05
0.000100028
5.07979e-05
5.078e-05
9.98889e-05
2.39103e-05
2.3914e-05
2.3909e-05
2.39135e-05
0.000183901
7.76538e-05
7.76822e-05
7.77463e-05
7.76993e-05
2.39234e-05
2.39149e-05
2.39234e-05
2.39146e-05
2.39278e-05
2.39361e-05
2.39267e-05
2.39342e-05
7.76794e-05
7.77386e-05
0.00018452
7.79786e-05
7.80356e-05
2.39408e-05
2.39369e-05
2.39384e-05
2.39348e-05
0.000184953
7.82864e-05
7.83004e-05
7.80597e-05
7.81094e-05
9.97115e-05
5.07929e-05
9.96672e-05
5.08256e-05
0.000144618
0.00010342
0.00021576
0.000204423
0.00014467
0.000103782
0.000215791
0.000144531
0.000103107
0.000215798
0.000203759
0.000144604
0.000103451
0.000215628
9.98234e-05
5.08518e-05
5.08382e-05
0.000100263
9.97933e-05
5.08499e-05
5.08322e-05
0.000100253
0.00014469
0.00020512
0.000104321
0.0002167
0.000103891
0.000216141
0.000145483
0.000144606
0.000204098
0.000104248
0.000216419
0.000103625
0.000215769
0.000145449
7.72972e-05
7.73218e-05
0.000183348
7.77721e-05
7.77913e-05
2.39239e-05
2.39358e-05
2.39406e-05
2.39356e-05
0.000183866
7.82737e-05
7.82904e-05
7.79093e-05
7.79243e-05
2.39419e-05
2.39369e-05
0.000145017
0.000103473
0.000215699
0.000204501
0.000144785
0.000103905
0.000215966
0.000100029
5.08078e-05
9.98376e-05
5.0826e-05
0.000145065
0.000215799
0.000103669
0.000204983
0.000144814
0.000216098
0.000104054
0.000100064
5.08444e-05
5.08335e-05
0.000100342
0.000145114
0.000205251
0.000104356
0.000217028
0.000104004
0.000216437
0.000145745
0.000100079
5.08365e-05
5.08283e-05
0.000100339
0.000145158
0.000205578
0.000217131
0.000104337
0.000216568
0.000104118
0.000145752
9.97131e-05
5.07943e-05
9.9694e-05
5.08272e-05
0.000144684
0.000216006
0.000103518
0.000204711
0.000144778
0.000216015
0.000103777
9.9756e-05
5.07992e-05
9.97483e-05
5.0824e-05
0.000144642
0.000204161
0.000104269
0.00021649
0.00010364
0.000215874
0.000145449
9.97929e-05
5.08521e-05
5.08341e-05
0.000100248
0.000144735
0.000205244
0.000216788
0.000104277
0.000216294
0.000103872
0.000145465
9.98229e-05
5.08421e-05
5.08284e-05
0.000100252
7.79056e-05
7.79247e-05
0.000185131
7.8122e-05
7.81399e-05
2.39286e-05
2.39344e-05
2.39357e-05
2.39326e-05
0.000185416
7.82556e-05
7.82689e-05
7.81672e-05
7.81835e-05
2.39378e-05
2.39348e-05
0.000145061
0.00021595
0.000103555
0.000204804
0.000144902
0.000216175
0.000103909
0.000100035
5.08131e-05
9.9874e-05
5.08311e-05
0.000100005
5.08025e-05
9.98541e-05
5.08242e-05
0.000145192
0.000205646
0.000217197
0.000104355
0.00021666
0.000104143
0.00014575
0.000145145
0.00020538
0.000217116
0.000104319
0.000216585
0.000103996
0.000145726
0.000100081
5.08413e-05
5.08334e-05
0.000100331
0.000100055
5.08382e-05
5.08274e-05
0.000100319
2.39249e-05
2.39332e-05
2.39249e-05
2.39323e-05
0.000185006
7.82455e-05
7.82613e-05
7.80387e-05
7.80955e-05
2.39382e-05
2.39339e-05
2.39367e-05
2.39329e-05
2.39409e-05
2.39425e-05
2.39384e-05
2.394e-05
7.83285e-05
7.83303e-05
0.000186853
7.84027e-05
7.83731e-05
2.39435e-05
2.39422e-05
2.39413e-05
2.39398e-05
0.000186891
7.83256e-05
7.82912e-05
7.83991e-05
7.83599e-05
0.000100531
5.08514e-05
0.000100316
5.08538e-05
0.000146251
0.000104378
0.00021741
0.000207065
0.000145641
0.000104556
0.000218141
0.000146263
0.000104355
0.00021723
0.000206961
0.000145619
0.000104633
0.000218049
0.00010053
5.08543e-05
5.08548e-05
0.000100553
0.000100538
5.08501e-05
5.08529e-05
0.000100561
0.000146291
0.000207559
0.000104559
0.000219425
0.000104555
0.000218848
0.000146432
0.000146308
0.000207615
0.00010462
0.000219449
0.000104638
0.000218822
0.000146452
7.83506e-05
7.83667e-05
0.000187011
7.84776e-05
7.84965e-05
2.3942e-05
2.39434e-05
2.3942e-05
2.39415e-05
0.000187107
7.83374e-05
7.83593e-05
7.84734e-05
7.84937e-05
2.39433e-05
2.39429e-05
0.000146171
0.000104392
0.00021769
0.000207135
0.000145829
0.000104505
0.000218323
0.000100435
5.08371e-05
0.000100361
5.08403e-05
0.000146148
0.000217745
0.000104345
0.000207015