/*--------------------------------*- C++ -*----------------------------------*\
| =========                 |                                                 |
| \\      /  F ield         | OpenFOAM: The Open Source CFD Toolbox           |
|  \\    /   O peration     | Version:  2312                                  |
|   \\  /    A nd           | Website:  www.openfoam.com                      |
|    \\/     M anipulation  |                                                 |
\*---------------------------------------------------------------------------*/
FoamFile
{
    version     2.0;
    format      ascii;
    arch        "LSB;label=32;scalar=64";
    class       surfaceScalarField;
    location    "500";
    object      phi;
}
// * * * * * * * * * * * * * * * * * * * * * * * * * * * * * * * * * * * * * //

dimensions      [0 3 -1 0 0 0 0];

oriented        oriented;

internalField   nonuniform List<scalar> 
125400
(
1.33533e-07
7.92597e-08
-0.00118371
-4.27812e-08
-1.03612e-07
0.00118364
-0.0011321
-1.1973e-06
-1.49636e-07
-2.5605e-08
0.00113211
-2.2656e-07
1.21265e-06
2.20724e-07
8.96696e-07
-1.68404e-07
-8.12678e-07
2.44598e-07
-0.00113197
-1.20255e-06
-7.82252e-08
3.58686e-08
0.00113192
-2.22352e-07
1.20737e-06
2.24205e-07
8.78799e-07
-1.86344e-07
-8.28777e-07
2.26148e-07
-0.000270063
1.23152e-06
1.1786e-06
-1.94464e-07
-2.10861e-07
0.000268058
1.00034e-07
1.3252e-07
-0.00118347
-9.55335e-08
-6.52205e-08
0.0011834
-0.00113202
-1.18965e-06
-7.2161e-08
-3.09637e-08
0.00113199
-2.04598e-07
1.22727e-06
2.48391e-07
8.68426e-07
-1.95539e-07
-8.40539e-07
2.17513e-07
-0.00113185
-1.16872e-06
-1.30642e-07
-1.04192e-07
0.00113186
-1.85974e-07
1.24e-06
2.57003e-07
8.77217e-07
-1.87262e-07
-8.33269e-07
2.28038e-07
-0.000270063
1.20486e-06
1.17943e-06
-1.97125e-07
-1.90034e-07
0.000268066
1.62637e-07
1.53117e-07
-0.00118312
-1.01203e-07
-1.0889e-07
0.00118301
-0.00113196
-1.16778e-06
-1.71946e-07
-1.23041e-07
0.00113198
-1.90539e-07
1.24358e-06
2.55383e-07
8.90477e-07
-1.75063e-07
-8.21237e-07
2.40825e-07
-0.00113188
-1.18042e-06
-1.46216e-07
-5.3427e-08
0.00113186
-2.05153e-07
1.22532e-06
2.36158e-07
8.91214e-07
-1.73953e-07
-8.18992e-07
2.40308e-07
-0.000270103
1.21236e-06
1.17052e-06
-1.8778e-07
-1.94554e-07
0.000268103
1.27239e-07
1.03378e-07
-0.0011827
-5.22792e-08
-8.29714e-08
0.0011826
-0.00113198
-1.1949e-06
-1.35091e-07
-2.21705e-08
0.00113195
-2.18706e-07
1.21713e-06
2.30188e-07
8.93331e-07
-1.7105e-07
-8.14949e-07
2.40978e-07
-0.00113175
-1.18805e-06
-1.13494e-07
-2.09199e-08
0.00113171
-2.08215e-07
1.22016e-06
2.36222e-07
8.84842e-07
-1.79636e-07
-8.23621e-07
2.33359e-07
-0.000270094
1.22105e-06
1.17889e-06
-1.93951e-07
-2.00965e-07
0.000268088
1.09053e-07
1.37108e-07
-0.00118234
-9.29141e-08
-6.27252e-08
0.00118225
-0.0011318
-1.18516e-06
-1.07304e-07
-3.91034e-08
0.00113177
-2.0386e-07
1.22823e-06
2.45208e-07
8.79886e-07
-1.84281e-07
-8.29359e-07
2.29054e-07
-0.00113164
-1.17751e-06
-1.38494e-07
-6.63475e-08
0.00113163
-1.98434e-07
1.22892e-06
2.43503e-07
8.84983e-07
-1.79177e-07
-8.24512e-07
2.34614e-07
-0.000270091
1.20535e-06
1.17689e-06
-1.94041e-07
-1.89586e-07
0.000268093
1.43109e-07
1.41487e-07
-0.00118197
-9.85194e-08
-9.50808e-08
0.00118188
-0.00113172
-1.18016e-06
-1.42621e-07
-7.31738e-08
0.00113172
-2.02767e-07
1.23098e-06
2.44231e-07
8.85499e-07
-1.78667e-07
-8.23934e-07
2.34939e-07
-0.00113162
-1.17972e-06
-1.35758e-07
-5.95647e-08
0.00113162
-2.01049e-07
1.22711e-06
2.41855e-07
8.83579e-07
-1.80879e-07
-8.25486e-07
2.32463e-07
-0.00027012
1.21387e-06
1.17516e-06
-1.92682e-07
-1.97328e-07
0.000268121
1.28342e-07
1.26959e-07
-0.00118161
-8.43794e-08
-8.84016e-08
0.00118153
-0.00113172
-1.18588e-06
-1.29546e-07
-5.37111e-08
0.00113173
-2.07061e-07
1.22639e-06
2.41495e-07
8.82071e-07
-1.82679e-07
-8.27219e-07
2.30742e-07
-0.0011316
-1.18392e-06
-1.30728e-07
-3.94219e-08
0.00113159
-2.06951e-07
1.22145e-06
2.34352e-07
8.85216e-07
-1.79046e-07
-8.24257e-07
2.34367e-07
-0.000270147
1.21227e-06
1.17473e-06
-1.92663e-07
-1.95476e-07
0.000268148
1.34461e-07
1.2655e-07
-0.0011813
-8.53995e-08
-9.43473e-08
0.00118121
-0.00113171
-1.18373e-06
-1.30674e-07
-6.08247e-08
0.00113171
-2.05875e-07
1.22764e-06
2.41027e-07
8.84595e-07
-1.79814e-07
-8.25187e-07
2.33912e-07
-0.00113156
-1.18074e-06
-1.20954e-07
-5.83789e-08
0.00113156
-1.9983e-07
1.22731e-06
2.44206e-07
8.79474e-07
-1.85354e-07
-8.29832e-07
2.28222e-07
-0.000270166
1.2175e-06
1.179e-06
-1.96076e-07
-2.00379e-07
0.000268166
1.14284e-07
1.28341e-07
-0.00118096
-8.67746e-08
-7.29441e-08
0.00118088
-0.00113167
-1.18739e-06
-1.21461e-07
-4.2538e-08
0.00113167
-2.07539e-07
1.2256e-06
2.41894e-07
8.80159e-07
-1.84679e-07
-8.29254e-07
2.28731e-07
-0.00113155
-1.18216e-06
-1.4075e-07
-4.56605e-08
0.00113154
-2.0594e-07
1.22279e-06
2.34877e-07
8.8695e-07
-1.77378e-07
-8.23052e-07
2.36364e-07
-0.000270194
1.20547e-06
1.17191e-06
-1.90236e-07
-1.89782e-07
0.000268196
1.38509e-07
1.20571e-07
-0.00118064
-8.05158e-08
-9.90618e-08
0.00118056
-0.00113166
-1.18191e-06
-1.31847e-07
-7.52046e-08
0.00113167
-2.05791e-07
1.22819e-06
2.39471e-07
8.86366e-07
-1.78044e-07
-8.23798e-07
2.35764e-07
-0.00113151
-1.18523e-06
-1.05938e-07
-4.53766e-08
0.0011315
-2.06033e-07
1.22181e-06
2.36796e-07
8.79545e-07
-1.85104e-07
-8.29628e-07
2.28114e-07
-0.000270206
1.22896e-06
1.18747e-06
-2.02193e-07
-2.09e-07
0.000268201
1.02134e-07
1.20203e-07
-0.00118034
-8.63744e-08
-6.94671e-08
0.00118027
-0.00113164
-1.19114e-06
-1.01088e-07
-2.80466e-08
0.00113164
-2.08455e-07
1.22376e-06
2.43706e-07
8.71978e-07
-1.92675e-07
-8.36925e-07
2.20265e-07
-0.0011315
-1.17932e-06
-1.26364e-07
-5.68445e-08
0.0011315
-1.98096e-07
1.22828e-06
2.45365e-07
8.7617e-07
-1.88481e-07
-8.3374e-07
2.25751e-07
-0.000270224
1.19705e-06
1.16464e-06
-1.86478e-07
-1.85278e-07
0.000268234
1.45013e-07
1.33122e-07
-0.00118002
-8.39606e-08
-9.41928e-08
0.00117992
-0.00113164
-1.17967e-06
-1.65449e-07
-7.80048e-08
0.00113165
-2.06637e-07
1.2283e-06
2.34976e-07
8.96492e-07
-1.68995e-07
-8.15352e-07
2.45974e-07
-0.00113152
-1.18459e-06
-1.48577e-07
-4.23555e-08
0.00113151
-2.11642e-07
1.21828e-06
2.25929e-07
8.94507e-07
-1.70493e-07
-8.16519e-07
2.43499e-07
-0.000270291
1.22823e-06
1.18853e-06
-2.00876e-07
-2.05921e-07
0.000268281
9.03793e-08
9.54623e-08
-0.00117974
-7.80342e-08
-7.53043e-08
0.00117971
-0.00113163
-1.19583e-06
-4.66914e-08
-3.00459e-08
0.00113163
-2.10204e-07
1.22204e-06
2.46223e-07
8.58871e-07
-2.04783e-07
-8.48735e-07
2.06647e-07
-0.00113148
-1.18708e-06
-5.58674e-08
-4.51223e-08
0.00113148
-2.00612e-07
1.22513e-06
2.49171e-07
8.59618e-07
-2.04555e-07
-8.48644e-07
2.07825e-07
-0.000270239
1.2135e-06
1.17721e-06
-1.98024e-07
-2.00318e-07
0.000268246
1.35833e-07
1.32074e-07
-0.00117947
-7.59514e-08
-8.02119e-08
0.00117936
-0.00113163
-1.17731e-06
-1.97767e-07
-7.40989e-08
0.00113165
-2.0577e-07
1.22878e-06
2.33262e-07
9.01375e-07
-1.6426e-07
-8.11523e-07
2.51079e-07
-0.00113149
-1.18188e-06
-1.84644e-07
-4.50516e-08
0.0011315
-2.11316e-07
1.21915e-06
2.24216e-07
8.99468e-07
-1.6519e-07
-8.12076e-07
2.48491e-07
-0.000270347
1.21181e-06
1.17474e-06
-1.91187e-07
-1.93656e-07
0.000268345
1.14444e-07
1.28891e-07
-0.00117917
-1.07409e-07
-8.92118e-08
0.00117912
-0.00113164
-1.19757e-06
-4.55995e-08
-2.25032e-08
0.00113163
-2.12394e-07
1.22009e-06
2.42188e-07
8.62504e-07
-2.01442e-07
-8.45229e-07
2.09986e-07
-0.00113152
-1.18052e-06
-7.77052e-08
-7.29944e-08
0.00113152
-1.94127e-07
1.23189e-06
2.53668e-07
8.66362e-07
-1.99337e-07
-8.43692e-07
2.14945e-07
-0.000270315
1.21831e-06
1.18437e-06
-2.0104e-07
-2.01884e-07
0.000268315
7.64849e-08
5.08696e-08
-0.00117889
-1.42958e-08
-4.52766e-08
0.00117883
-0.00113158
-1.18573e-06
-1.478e-07
-6.67889e-08
0.00113162
-2.11048e-07
1.22323e-06
2.33193e-07
8.8559e-07
-1.75751e-07
-8.22999e-07
2.34508e-07
-0.00113145
-1.20874e-06
-9.96755e-08
4.48337e-08
0.00113145
-2.40067e-07
1.19134e-06
1.96449e-07
8.8467e-07
-1.74327e-07
-8.21074e-07
2.32464e-07
-0.000270357
1.22918e-06
1.18549e-06
-2.01134e-07
-2.08521e-07
0.000268352
1.82383e-07
2.01e-07
-0.00117874
-1.5626e-07
-1.35123e-07
0.00117864
-0.00113171
-1.18031e-06
-1.05805e-07
-6.33689e-08
0.00113171
-1.96894e-07
1.2316e-06
2.47139e-07
8.72213e-07
-1.87337e-07
-8.34825e-07
2.20622e-07
-0.00113151
-1.14219e-06
-1.49922e-07
-1.9398e-07
0.00113154
-1.45775e-07
1.27037e-06
2.9521e-07
8.65013e-07
-1.98342e-07
-8.46509e-07
2.16029e-07
-0.000270377
1.19339e-06
1.1625e-06
-1.82724e-07
-1.81627e-07
0.000268385
3.83554e-08
5.52413e-08
-0.00117835
-2.82918e-08
-1.09706e-08
0.00117829
-0.00113157
-1.20388e-06
-9.32824e-08
-9.08508e-09
0.00113159
-2.26588e-07
1.20608e-06
2.21224e-07
8.6945e-07
-1.80446e-07
-8.26467e-07
2.13759e-07
-0.00113154
-1.22683e-06
-9.3799e-08
8.74522e-08
0.00113155
-2.64641e-07
1.17042e-06
1.7587e-07
8.8547e-07
-1.60435e-07
-8.06667e-07
2.28613e-07
-0.000270426
1.23523e-06
1.20133e-06
-2.13562e-07
-2.12282e-07
0.000268415
1.85862e-07
1.41954e-07
-0.00117827
-6.76447e-08
-1.29382e-07
0.00117814
-0.00113173
-1.16817e-06
-1.89096e-07
-1.03739e-07
0.00113177
-1.86299e-07
1.23138e-06
2.34067e-07
8.75618e-07
-1.50547e-07
-8.07012e-07
2.19968e-07
-0.00113148
-1.1618e-06
-1.24541e-07
-1.09642e-07
0.0011315
-1.69716e-07
1.24021e-06
2.57963e-07
8.50641e-07
-1.7544e-07
-8.27029e-07
1.98961e-07
-0.000270421
1.21366e-06
1.1533e-06
-1.70751e-07
-1.87386e-07
0.000268413
1.36567e-06
1.43544e-06
-0.00117788
-1.15913e-06
-1.07167e-06
0.00117731
-0.00113206
-1.0456e-06
-1.31487e-06
-6.39458e-07
0.0011326
-6.18815e-08
1.46871e-06
3.97307e-07
1.0684e-06
-5.4275e-08
-6.89967e-07
3.35726e-07
-0.00113196
-1.02698e-06
-1.42178e-06
-7.2488e-07
0.00113257
-5.81838e-08
1.47448e-06
3.94605e-07
1.0885e-06
-2.97253e-08
-6.66144e-07
3.60056e-07
-0.000270549
1.05656e-06
1.03471e-06
-7.26326e-08
-5.73979e-08
0.000268587
5.50592e-06
5.49197e-06
-0.000289615
-3.87733e-06
-3.88661e-06
0.000286381
-0.000281046
4.97345e-06
-5.52007e-06
6.12033e-06
-3.86917e-06
0.000279341
-0.000281051
-5.49788e-06
4.95017e-06
-3.84652e-06
6.10207e-06
0.000279343
-0.000272822
-4.95732e-06
-4.98083e-06
5.48071e-06
5.44946e-06
0.00027183
-1.24208e-06
-1.21716e-06
0.000270135
-0.000268122
2.26435e-07
2.1966e-07
0.00113153
-1.61148e-07
-0.00113154
3.61735e-08
-1.24954e-06
2.16142e-07
-2.39596e-07
-8.14088e-07
2.40884e-07
-1.65767e-07
9.00121e-07
1.26256e-06
0.00113162
-1.82674e-07
-0.0011316
-6.2796e-08
-1.22243e-06
2.37503e-07
-2.18951e-07
-8.19925e-07
2.4699e-07
-1.67704e-07
9.06533e-07
-1.22496e-06
0.000270139
-0.000268119
2.32143e-07
2.35597e-07
0.00113256
-1.11725e-07
-0.00113256
-4.47937e-08
-1.19085e-06
2.31174e-07
-2.19626e-07
-8.27054e-07
2.33084e-07
-1.79077e-07
8.91838e-07
1.23855e-06
0.00113149
-1.01436e-07
-0.00113154
4.35414e-08
-1.2401e-06
2.26951e-07
-2.36352e-07
-8.26362e-07
2.28686e-07
-1.76815e-07
8.91147e-07
-1.75909e-07
-0.0011321
-5.76017e-08
-1.18443e-06
2.30801e-07
-2.13532e-07
-8.12214e-07
2.47926e-07
8.99136e-07
-1.67487e-07
1.24008e-06
0.00113109
-1.68349e-07
-0.00113109
9.13046e-09
-1.22938e-06
2.25026e-07
-2.29114e-07
-8.10605e-07
2.38575e-07
-1.6428e-07
8.93692e-07
-1.20345e-06
0.000270077
-0.00026808
2.19651e-07
2.25831e-07
-9.38787e-08
-0.00113203
4.37379e-08
-1.20492e-06
2.17199e-07
-2.28405e-07
-8.21379e-07
2.3215e-07
8.86222e-07
-1.79522e-07
1.22068e-06
0.0011321
-1.1833e-07
-0.0011321
-7.19568e-08
-1.17597e-06
2.40024e-07
-2.08983e-07
-8.26316e-07
2.33385e-07
-1.80327e-07
8.88104e-07
-0.000268062
2.36097e-07
2.24072e-07
1.25032e-06
1.19201e-06
-1.9797e-07
-2.19187e-07
0.00026811
-1.27725e-06
-1.2261e-06
0.000270128
-0.000268104
2.31327e-07
2.47329e-07
3.74638e-08
0.00113152
-2.3468e-07
1.24478e-06
2.23834e-07
8.91528e-07
-1.73522e-07
-8.20911e-07
2.32005e-07
-1.23184e-06
-1.44697e-07
-3.34699e-08
0.00113162
-2.28735e-07
1.25333e-06
2.3012e-07
9.02032e-07
-1.70804e-07
-8.22826e-07
2.41857e-07
0.00113148
-9.09104e-08
-0.00113149
-8.23817e-08
-1.21888e-06
2.59784e-07
-1.97026e-07
-8.41876e-07
2.17719e-07
-1.90862e-07
8.73356e-07
1.25426e-06
0.00113153
-6.0138e-08
-0.00113157
4.71271e-09
-1.23554e-06
2.41201e-07
-2.2164e-07
-8.45927e-07
2.19275e-07
-1.93431e-07
8.78458e-07
-2.03147e-07
-2.02964e-07
0.000268116
-1.21619e-06
0.000270096
-0.00026808
2.25971e-07
2.28811e-07
-3.42988e-08
0.00113254
-2.1639e-07
1.2176e-06
2.35341e-07
8.84002e-07
-1.86713e-07
-8.34499e-07
2.25584e-07
-1.234e-06
-7.35241e-08
2.14995e-08
0.00113144
-2.26848e-07
1.24572e-06
2.36741e-07
8.81459e-07
-1.86099e-07
-8.36316e-07
2.20653e-07
0.00113247
-1.03875e-07
-0.00113249
-4.43125e-08
-1.1833e-06
2.47107e-07
-2.02851e-07
-8.40383e-07
2.25989e-07
-1.88948e-07
8.81094e-07
1.26995e-06
0.00113137
-1.0461e-07
-0.00113138
-8.24712e-08
-1.2083e-06
2.62424e-07
-1.98136e-07
-8.42454e-07
2.21005e-07
-1.88616e-07
8.78848e-07
-1.52175e-07
7.75971e-09
0.00113108
-2.28036e-07
1.24007e-06
2.28479e-07
8.8931e-07
-1.67772e-07
2.33615e-07
-8.13423e-07
-6.61148e-08
-0.00113206
1.40175e-08
-1.20007e-06
2.35462e-07
-2.17362e-07
-8.36697e-07
2.19828e-07
8.71249e-07
-1.9239e-07
1.26226e-06
0.00113106
-9.36728e-08
-0.00113107
-7.18706e-08
-1.21122e-06
2.5431e-07
-2.02258e-07
-8.33244e-07
2.17274e-07
-1.85474e-07
8.7034e-07
-2.08918e-07
-2.10961e-07
0.00026806
-1.23464e-06
0.00027008
-0.000268064
2.41477e-07
2.46795e-07
-9.71541e-08
-6.35765e-08
0.00113209
-2.09844e-07
1.2183e-06
2.39758e-07
8.84259e-07
-1.8366e-07
2.297e-07
-8.29729e-07
-1.1135e-07
-0.00113185
-7.87987e-08
-1.17554e-06
2.54037e-07
-1.91053e-07
-8.35562e-07
2.24327e-07
8.74362e-07
-1.90074e-07
1.21636e-06
0.00113204
-1.07024e-07
-0.00113206
-3.33863e-08
-1.18125e-06
2.41417e-07
-2.08218e-07
-8.34213e-07
2.28405e-07
-1.85921e-07
8.80952e-07
-0.000268057
2.30795e-07
2.41818e-07
1.21051e-06
1.17952e-06
-1.90914e-07
-1.88825e-07
0.000268118
-1.27458e-06
-1.23307e-06
0.00027019
-0.000268166
2.38821e-07
2.45069e-07
-1.10426e-07
0.00113148
-1.8981e-07
1.28418e-06
2.6488e-07
8.74662e-07
-1.89899e-07
-8.41347e-07
2.19549e-07
-1.2277e-06
-7.35545e-08
-1.81484e-08
0.0011315
-2.11516e-07
1.26279e-06
2.51676e-07
8.77314e-07
-1.94878e-07
-8.48025e-07
2.1854e-07
0.00113147
-1.51406e-07
-0.00113148
-7.39853e-08
-1.21594e-06
2.49121e-07
-2.02048e-07
-8.2569e-07
2.36302e-07
-1.73972e-07
8.91353e-07
1.28097e-06
0.00113147
-1.6543e-07
-0.00113147
-1.03045e-07
-1.20584e-06
2.63879e-07
-1.93839e-07
-8.34545e-07
2.36411e-07
-1.79806e-07
8.93247e-07
-1.98769e-07
-2.01792e-07
0.000268079
-1.24714e-06
0.000270159
-0.000268129
2.49227e-07
2.48872e-07
-5.58671e-08
0.00113246
-1.99378e-07
1.22972e-06
2.50026e-07
8.84989e-07
-1.85027e-07
-8.365e-07
2.30091e-07
-1.20411e-06
-1.31986e-07
-9.72115e-08
0.00113138
-1.95735e-07
1.2727e-06
2.62919e-07
8.83658e-07
-1.83832e-07
-8.38116e-07
2.26541e-07
0.00113247
-1.62584e-07
-0.00113247
-7.49659e-08
-1.17491e-06
2.48905e-07
-1.99304e-07
-8.26673e-07
2.38611e-07
-1.75834e-07
8.94237e-07
1.2626e-06
0.00113139
-1.63816e-07
-0.0011314
-6.34613e-08
-1.2125e-06
2.47796e-07
-2.09975e-07
-8.24455e-07
2.38314e-07
-1.70802e-07
8.96642e-07
-9.23073e-08
-8.94864e-08
0.00113106
-1.95959e-07
1.26764e-06
2.59245e-07
8.6959e-07
-1.86462e-07
2.16949e-07
-8.34751e-07
-1.53272e-07
-0.00113196
-1.13229e-07
-1.16508e-06
2.61515e-07
-1.84896e-07
-8.28899e-07
2.34432e-07
8.83185e-07
-1.82144e-07
1.26196e-06
0.001131
-1.36836e-07
-0.00113102
-5.98041e-08
-1.20682e-06
2.48373e-07
-2.03036e-07
-8.22674e-07
2.31041e-07
-1.73873e-07
8.83181e-07
-1.8506e-07
-1.90697e-07
0.000268083
-1.2314e-06
0.000270145
-0.000268134
2.39961e-07
2.4228e-07
-1.24626e-07
-3.44749e-08
0.00113203
-2.05672e-07
1.21852e-06
2.44185e-07
8.82587e-07
-1.84256e-07
2.29991e-07
-8.3251e-07
-1.52025e-07
-0.00113188
-7.9257e-08
-1.17452e-06
2.42626e-07
-1.98353e-07
-8.21361e-07
2.39186e-07
8.89281e-07
-1.75657e-07
1.22582e-06
0.00113199
-1.48738e-07
-0.001132
-6.10156e-08
-1.17126e-06
2.48042e-07
-2.00298e-07
-8.26081e-07
2.36316e-07
-1.78121e-07
8.89057e-07
-0.000268098
2.40331e-07
2.41585e-07
1.22302e-06
1.17564e-06
-1.84915e-07
-1.96826e-07
0.000268173
-1.25591e-06
-1.22219e-06
0.00027017
-0.000268157
2.31889e-07
2.33125e-07
-4.44348e-08
0.00113145
-2.10436e-07
1.26742e-06
2.4101e-07
8.96343e-07
-1.69178e-07
-8.20274e-07
2.40492e-07
-1.20738e-06
-1.81217e-07
-1.06645e-07
0.00113149
-1.98182e-07
1.27878e-06
2.59194e-07
8.99652e-07
-1.73719e-07
-8.27688e-07
2.4179e-07
0.00113136
-1.44624e-07
-0.0011314
1.15508e-09
-1.23647e-06
2.32734e-07
-2.22032e-07
-8.17429e-07
2.38423e-07
-1.68417e-07
8.96543e-07
1.26094e-06
0.00113149
-1.54219e-07
-0.00113151
-4.97309e-08
-1.22436e-06
2.399e-07
-2.18399e-07
-8.21088e-07
2.44415e-07
-1.68728e-07
9.04184e-07
-1.81187e-07
-1.85524e-07
0.00026815
-1.22185e-06
0.000270185
-0.00026817
2.31759e-07
2.35911e-07
-7.34826e-08
0.00113246
-2.01339e-07
1.23202e-06
2.46594e-07
8.9517e-07
-1.75403e-07
-8.25689e-07
2.38984e-07
-1.21719e-06
-1.55175e-07
-4.27065e-08
0.00113138
-2.15421e-07
1.25788e-06
2.42784e-07
8.97601e-07
-1.70038e-07
-8.23026e-07
2.38512e-07
0.00113237
-1.09352e-07
-0.00113241
-4.08638e-08
-1.18466e-06
2.37733e-07
-2.10559e-07
-8.26611e-07
2.35858e-07
-1.77446e-07
8.93243e-07
1.25322e-06
0.00113127
-1.12229e-07
-0.00113132
-1.79787e-08
-1.22356e-06
2.4191e-07
-2.18758e-07
-8.27447e-07
2.31489e-07
-1.75888e-07
8.91722e-07
-1.52351e-07
-3.80349e-08
0.00113098
-2.10003e-07
1.25616e-06
2.41467e-07
8.8857e-07
-1.68485e-07
2.35762e-07
-8.16764e-07
-1.58383e-07
-0.00113199
-3.68893e-08
-1.18885e-06
2.32456e-07
-2.14743e-07
-8.11978e-07
2.45663e-07
8.97431e-07
-1.67547e-07
1.24707e-06
0.0011309
-1.49687e-07
-0.00113093
-1.04063e-08
-1.22308e-06
2.34838e-07
-2.19736e-07
-8.1238e-07
2.35533e-07
-1.66034e-07
8.90498e-07
-1.91473e-07
-1.98184e-07
0.000268137
-1.21702e-06
0.000270117
-0.000268115
2.30665e-07
2.37105e-07
-1.43402e-07
-6.71039e-08
0.00113197
-2.01009e-07
1.22607e-06
2.46891e-07
8.9029e-07
-1.77162e-07
2.37083e-07
-8.24674e-07
-1.15792e-07
-0.00113179
-1.07e-08
-1.19066e-06
2.31868e-07
-2.12258e-07
-8.21137e-07
2.35202e-07
8.87328e-07
-1.77595e-07
1.21885e-06
0.0011319
-1.14106e-07
-0.00113193
-5.25023e-08
-1.17668e-06
2.39852e-07
-2.08224e-07
-8.24293e-07
2.35485e-07
-1.778e-07
8.89783e-07
-0.000268095
2.35571e-07
2.3161e-07
1.23426e-06
1.1868e-06
-1.92653e-07
-2.0453e-07
0.000268147
-1.27396e-06
-1.2232e-06
0.000270157
-0.000268137
2.30766e-07
2.45669e-07
-1.03323e-08
0.00113132
-2.1802e-07
1.25935e-06
2.37816e-07
8.91495e-07
-1.73041e-07
-8.21825e-07
2.33631e-07
-1.22988e-06
-1.28466e-07
-2.68136e-08
0.00113146
-2.21946e-07
1.25657e-06
2.37882e-07
9.00039e-07
-1.72433e-07
-8.24235e-07
2.39633e-07
0.00113123
-1.03737e-07
-0.00113126
-7.1285e-08
-1.21866e-06
2.53106e-07
-2.00747e-07
-8.32759e-07
2.25939e-07
-1.82143e-07
8.82052e-07
1.26241e-06
0.00113132
-9.40444e-08
-0.00113137
-2.43108e-08
-1.22562e-06
2.47618e-07
-2.12855e-07
-8.36932e-07
2.28916e-07
-1.84127e-07
8.87956e-07
-1.99451e-07
-1.99889e-07
0.000268159
-1.22415e-06
0.00027014
-0.000268124
2.33544e-07
2.36524e-07
-3.12991e-08
0.00113233
-2.1136e-07
1.22063e-06
2.37629e-07
8.91354e-07
-1.79042e-07
-8.28295e-07
2.34322e-07
-1.22047e-06
-1.07298e-07
-3.0927e-08
0.00113123
-2.1433e-07
1.25672e-06
2.46529e-07
8.89125e-07
-1.7816e-07
-8.30115e-07
2.29501e-07
0.00113222
-1.27384e-07
-0.00113225
-3.36224e-08
-1.18432e-06
2.41992e-07
-2.06538e-07
-8.30369e-07
2.33732e-07
-1.79871e-07
8.8973e-07
1.2648e-06
0.00113116
-1.26214e-07
-0.00113118
-7.13003e-08
-1.21089e-06
2.53879e-07
-2.04755e-07
-8.31583e-07
2.30236e-07
-1.78321e-07
8.88755e-07
-1.34976e-07
-2.30614e-08
0.00113087
-2.15903e-07
1.25027e-06
2.39686e-07
8.86061e-07
-1.70149e-07
2.31141e-07
-8.16141e-07
-9.97176e-08
-0.00113186
-1.12219e-08
-1.18968e-06
2.41203e-07
-2.0851e-07
-8.2847e-07
2.29446e-07
8.80408e-07
-1.83552e-07
1.26392e-06
0.00113081
-1.09664e-07
-0.00113083
-7.83783e-08
-1.20676e-06
2.53852e-07
-1.99963e-07
-8.26579e-07
2.23959e-07
-1.78857e-07
8.77192e-07
-1.97103e-07
-2.00288e-07
0.000268106
-1.22904e-06
0.000270121
-0.00026811
2.38237e-07
2.44017e-07
-1.10464e-07
-4.4183e-08
0.00113186
-2.09122e-07
1.21713e-06
2.39568e-07
8.88361e-07
-1.79018e-07
2.34306e-07
-8.25515e-07
-1.32675e-07
-0.00113166
-6.36126e-08
-1.17789e-06
2.44517e-07
-1.97883e-07
-8.25383e-07
2.33715e-07
8.84163e-07
-1.8017e-07
1.21841e-06
0.00113179
-1.33686e-07
-0.00113181
-4.03858e-08
-1.17797e-06
2.42533e-07
-2.05871e-07
-8.26711e-07
2.34648e-07
-1.79067e-07
8.87788e-07
-0.000268087
2.33747e-07
2.43822e-07
1.21694e-06
1.18285e-06
-1.9191e-07
-1.92729e-07
0.000268142
-1.27021e-06
-1.22834e-06
0.000270191
-0.000268168
2.34397e-07
2.41182e-07
-7.7576e-08
0.00113121
-1.99853e-07
1.27479e-06
2.53039e-07
8.82531e-07
-1.81848e-07
-8.32626e-07
2.26562e-07
-1.22167e-06
-1.03238e-07
-3.81346e-08
0.00113128
-2.08779e-07
1.26592e-06
2.51067e-07
8.87624e-07
-1.84586e-07
-8.37545e-07
2.28757e-07
0.00113119
-1.36986e-07
-0.00113119
-6.33259e-08
-1.22068e-06
2.46913e-07
-2.05748e-07
-8.27527e-07
2.31515e-07
-1.76851e-07
8.87652e-07
1.26893e-06
0.00113123
-1.40021e-07
-0.00113124
-6.38153e-08
-1.21672e-06
2.50958e-07
-2.06922e-07
-8.33013e-07
2.34374e-07
-1.79631e-07
8.92672e-07
-1.93497e-07
-1.95443e-07
0.000268122
-1.23263e-06
0.000270169
-0.000268146
2.38119e-07
2.39759e-07
-4.03038e-08
0.00113221
-2.05407e-07
1.22452e-06
2.42887e-07
8.9017e-07
-1.79461e-07
-8.29949e-07
2.34181e-07
-1.21107e-06
-1.33536e-07
-7.12663e-08
0.00113116
-2.05892e-07
1.26409e-06
2.52253e-07
8.89841e-07
-1.77063e-07
-8.30464e-07
2.31415e-07
0.00113219
-1.43204e-07
-0.00113219
-6.10415e-08
-1.1788e-06
2.45311e-07
-2.02944e-07
-8.30006e-07
2.33768e-07
-1.79685e-07
8.89879e-07
1.25991e-06
0.00113114
-1.38366e-07
-0.00113115
-5.34889e-08
-1.21542e-06
2.47878e-07
-2.1115e-07
-8.29812e-07
2.30893e-07
-1.76905e-07
8.89971e-07
-1.13528e-07
-8.17543e-08
0.00113079
-1.99432e-07
1.26436e-06
2.53326e-07
8.77866e-07
-1.7838e-07
2.24799e-07
-8.26276e-07
-1.3931e-07
-0.00113173
-6.28177e-08
-1.17878e-06
2.46503e-07
-2.00561e-07
-8.25107e-07
2.34172e-07
8.84588e-07
-1.79829e-07
1.25681e-06
0.00113076
-1.33392e-07
-0.00113077
-5.36355e-08
-1.2119e-06
2.441e-07
-2.08364e-07
-8.21512e-07
2.28962e-07
-1.73751e-07
8.82327e-07
-1.90503e-07
-1.94697e-07
0.000268118
-1.22662e-06
0.000270153
-0.000268142
2.35685e-07
2.39572e-07
-1.42139e-07
-4.40391e-08
0.00113178
-2.05165e-07
1.21931e-06
2.42948e-07
8.88435e-07
-1.78397e-07
2.35322e-07
-8.26018e-07
-1.36949e-07
-0.00113163
-5.8673e-08
-1.17998e-06
2.41003e-07
-2.01772e-07
-8.248e-07
2.33116e-07
8.84174e-07
-1.80004e-07
1.22057e-06
0.00113175
-1.39045e-07
-0.00113176
-5.18354e-08
-1.17525e-06
2.4266e-07
-2.05366e-07
-8.26895e-07
2.33656e-07
-1.79451e-07
8.87053e-07
-0.000268115
2.35263e-07
2.36793e-07
1.22232e-06
1.17836e-06
-1.88421e-07
-1.97929e-07
0.000268177
-1.26528e-06
-1.22389e-06
0.000270218
-0.000268197
2.30486e-07
2.3771e-07
-5.84234e-08
0.00113118
-2.07327e-07
1.26878e-06
2.45608e-07
8.88644e-07
-1.75789e-07
-8.26331e-07
2.3239e-07
-1.21844e-06
-1.44972e-07
-6.11187e-08
0.00113123
-2.09465e-07
1.26696e-06
2.48405e-07
8.9387e-07
-1.78253e-07
-8.31562e-07
2.3536e-07
0.00113118
-1.3502e-07
-0.00113118
-4.50975e-08
-1.22583e-06
2.41826e-07
-2.1103e-07
-8.27376e-07
2.30744e-07
-1.77007e-07
8.87292e-07
1.26305e-06
0.00113124
-1.32957e-07
-0.00113123
-4.89808e-08
-1.22339e-06
2.45872e-07
-2.136e-07
-8.33631e-07
2.3163e-07
-1.81229e-07
8.91159e-07
-1.9094e-07
-1.94077e-07
0.000268156
-1.22601e-06
0.0002702
-0.000268178
2.32628e-07
2.34822e-07
-6.33586e-08
0.00113219
-2.02717e-07
1.22858e-06
2.45334e-07
8.8961e-07
-1.80129e-07
-8.30393e-07
2.33475e-07
-1.21556e-06
-1.39231e-07
-5.25861e-08
0.00113114
-2.10779e-07
1.26006e-06
2.48478e-07
8.89698e-07
-1.77462e-07
-8.30181e-07
2.30527e-07
0.00113218
-1.32653e-07
-0.00113219
-4.96479e-08
-1.18236e-06
2.40103e-07
-2.07423e-07
-8.30212e-07
2.33562e-07
-1.80038e-07
8.90047e-07
1.25936e-06
0.00113112
-1.36849e-07
-0.00113113
-5.1512e-08
-1.21548e-06
2.46591e-07
-2.11239e-07
-8.29566e-07
2.32041e-07
-1.76371e-07
8.90789e-07
-1.36783e-07
-4.71325e-08
0.00113075
-2.101e-07
1.25528e-06
2.43046e-07
8.82391e-07
-1.73551e-07
2.2878e-07
-8.2108e-07
-1.31102e-07
-0.00113173
-4.28003e-08
-1.18584e-06
2.40377e-07
-2.07894e-07
-8.2628e-07
2.31356e-07
8.82735e-07
-1.81693e-07
1.25739e-06
0.00113074
-1.3632e-07
-0.00113075
-5.43785e-08
-1.21249e-06
2.46073e-07
-2.07364e-07
-8.23086e-07
2.27005e-07
-1.75767e-07
8.80646e-07
-1.92635e-07
-1.98606e-07
0.000268149
-1.22489e-06
0.000270178
-0.000268168
2.34633e-07
2.39522e-07
-1.34521e-07
-5.27328e-08
0.00113175
-2.05283e-07
1.22066e-06
2.42898e-07
8.85929e-07
-1.80774e-07
2.32344e-07
-8.28004e-07
-1.35175e-07
-0.00113161
-5.04713e-08
-1.18077e-06
2.38153e-07
-2.02964e-07
-8.24693e-07
2.34585e-07
8.85082e-07
-1.79426e-07
1.2213e-06
0.00113174
-1.34267e-07
-0.00113174
-5.85222e-08
-1.17457e-06
2.44147e-07
-2.03888e-07
-8.28584e-07
2.32662e-07
-1.81319e-07
8.86083e-07
-0.000268141
2.35361e-07
2.37672e-07
1.22722e-06
1.1841e-06
-1.93203e-07
-2.01206e-07
0.000268201
-1.26724e-06
-1.22728e-06
0.000270238
-0.000268216
2.33303e-07
2.39232e-07
-3.94579e-08
0.00113117
-2.12301e-07
1.26403e-06
2.40837e-07
8.85843e-07
-1.78425e-07
-8.28708e-07
2.29164e-07
-1.22264e-06
-1.28299e-07
-5.24624e-08
0.00113124
-2.11946e-07
1.26426e-06
2.47775e-07
8.89812e-07
-1.82858e-07
-8.3517e-07
2.3032e-07
0.00113115
-1.29021e-07
-0.00113116
-4.8093e-08
-1.22507e-06
2.4595e-07
-2.08196e-07
-8.30559e-07
2.28055e-07
-1.80282e-07
8.84668e-07
1.26644e-06
0.00113123
-1.31746e-07
-0.00113124
-5.8243e-08
-1.2196e-06
2.48829e-07
-2.09184e-07
-8.34478e-07
2.33132e-07
-1.81107e-07
8.91549e-07
-1.9557e-07
-1.97682e-07
0.000268185
-1.22929e-06
0.000270227
-0.000268205
2.35779e-07
2.382e-07
-4.58496e-08
0.00113217
-2.08878e-07
1.22254e-06
2.39216e-07
8.89045e-07
-1.80836e-07
-8.30782e-07
2.32336e-07
-1.21774e-06
-1.28842e-07
-4.42713e-08
0.00113111
-2.1433e-07
1.25681e-06
2.43612e-07
8.90054e-07
-1.76743e-07
-8.29862e-07
2.31041e-07
0.00113216
-1.19736e-07
-0.00113216
-6.04416e-08
-1.18049e-06
2.45667e-07
-2.03224e-07
-8.34722e-07
2.29199e-07
-1.84607e-07
8.85547e-07
1.25699e-06
0.00113108
-1.13868e-07
-0.00113109
-4.00488e-08
-1.21931e-06
2.46716e-07
-2.13647e-07
-8.35126e-07
2.25083e-07
-1.82597e-07
8.8458e-07
-1.35274e-07
-5.38169e-08
0.00113074
-2.07531e-07
1.2571e-06
2.45134e-07
8.80771e-07
-1.75607e-07
2.27426e-07
-8.23203e-07
-1.34039e-07
-0.00113172
-5.45928e-08
-1.18267e-06
2.43655e-07
-2.03756e-07
-8.25672e-07
2.33621e-07
8.84255e-07
-1.80435e-07
1.25136e-06
0.00113072
-1.26542e-07
-0.00113073
-3.4059e-08
-1.21784e-06
2.39339e-07
-2.13912e-07
-8.23214e-07
2.26603e-07
-1.75595e-07
8.8044e-07
-1.95275e-07
-1.99688e-07
0.000268172
-1.22258e-06
0.00027019
-0.000268179
2.32278e-07
2.37217e-07
-1.34495e-07
-5.96578e-08
0.00113173
-2.04263e-07
1.22088e-06
2.43306e-07
8.86789e-07
-1.80455e-07
2.33512e-07
-8.27912e-07
-1.16555e-07
-0.00113157
-4.22409e-08
-1.18515e-06
2.38894e-07
-2.05461e-07
-8.28896e-07
2.28251e-07
8.79805e-07
-1.84568e-07
1.21688e-06
0.00113172
-1.17012e-07
-0.00113172
-4.62699e-08
-1.17868e-06
2.39027e-07
-2.08939e-07
-8.30092e-07
2.30224e-07
-1.82743e-07
8.83897e-07
-0.000268162
2.3175e-07
2.3251e-07
1.22256e-06
1.17873e-06
-1.88715e-07
-1.97926e-07
0.000268223
-1.26663e-06
-1.22021e-06
0.00027026
-0.00026824
2.27583e-07
2.38904e-07
-5.87123e-08
0.00113115
-2.05537e-07
1.26975e-06
2.48269e-07
8.85971e-07
-1.7908e-07
-8.29538e-07
2.29615e-07
-1.22164e-06
-1.32226e-07
-4.83548e-08
0.00113122
-2.1232e-07
1.26378e-06
2.45254e-07
8.92772e-07
-1.79648e-07
-8.33217e-07
2.34301e-07
0.00113113
-1.22015e-07
-0.00113114
-5.3355e-08
-1.22385e-06
2.42172e-07
-2.09858e-07
-8.28554e-07
2.29884e-07
-1.77771e-07
8.86251e-07
1.26102e-06
0.00113119
-1.14391e-07
-0.0011312
-3.61623e-08
-1.22609e-06
2.44704e-07
-2.15745e-07
-8.35824e-07
2.28804e-07
-1.83617e-07
8.88686e-07
-1.93047e-07
-1.95734e-07
0.00026821
-1.22287e-06
0.000270238
-0.000268218
2.30482e-07
2.33483e-07
-6.34845e-08
0.00113215
-2.01626e-07
1.2286e-06
2.46473e-07
8.87037e-07
-1.83445e-07
-8.33843e-07
2.31041e-07
-1.216e-06
-1.22664e-07
-5.12285e-08
0.00113108
-2.09157e-07
1.26057e-06
2.50973e-07
8.85265e-07
-1.82417e-07
-8.35093e-07
2.26039e-07
0.00113213
-1.35603e-07
-0.00113214
-3.37475e-08
-1.18534e-06
2.35517e-07
-2.11354e-07
-8.28445e-07
2.35743e-07
-1.77701e-07
8.92011e-07
1.26263e-06
0.00113107
-1.41241e-07
-0.00113107
-6.85656e-08
-1.21202e-06
2.49552e-07
-2.07868e-07
-8.29207e-07
2.33066e-07
-1.7555e-07
8.91551e-07
-1.2355e-07
-3.78942e-08
0.00113072
-2.1269e-07
1.2527e-06
2.41762e-07
8.79294e-07
-1.76918e-07
2.25116e-07
-8.24137e-07
-1.14874e-07
-0.00113169
-2.30817e-08
-1.18935e-06
2.37908e-07
-2.11024e-07
-8.28491e-07
2.28962e-07
8.80515e-07
-1.83892e-07
1.26396e-06
0.00113071
-1.29113e-07
-0.00113071
-8.02764e-08
-1.20649e-06
2.53522e-07
-2.00027e-07
-8.25932e-07
2.25192e-07
-1.78377e-07
8.78444e-07
-1.93937e-07
-1.99248e-07
0.000268186
-1.22741e-06
0.000270224
-0.000268213
2.36558e-07
2.41843e-07
-1.15414e-07
-4.2838e-08
0.00113171
-2.08701e-07
1.21709e-06
2.40022e-07
8.82899e-07
-1.841e-07
2.29088e-07
-8.31299e-07
-1.40938e-07
-0.00113155
-6.10351e-08
-1.1778e-06
2.40166e-07
-2.00256e-07
-8.24648e-07
2.35671e-07
8.85681e-07
-1.78756e-07
1.22306e-06
0.00113169
-1.42345e-07
-0.0011317
-6.08637e-08
-1.17339e-06
2.46936e-07
-2.01427e-07
-8.28565e-07
2.33642e-07
-1.80989e-07
8.86729e-07
-0.000268187
2.36963e-07
2.43123e-07
1.22701e-06
1.18816e-06
-1.96394e-07
-2.00773e-07
0.000268242
-1.26578e-06
-1.22856e-06
0.000270276
-0.000268254
2.34508e-07
2.37819e-07
-4.0905e-08
0.00113112
-2.1305e-07
1.26372e-06
2.39801e-07
8.84359e-07
-1.79701e-07
-8.30196e-07
2.27604e-07
-1.2225e-06
-1.14246e-07
-5.22739e-08
0.00113118
-2.10614e-07
1.26535e-06
2.50138e-07
8.86848e-07
-1.85805e-07
-8.38019e-07
2.27204e-07
0.00113109
-1.27843e-07
-0.0011311
-4.10747e-08
-1.22648e-06
2.44532e-07
-2.09414e-07
-8.30955e-07
2.28436e-07
-1.80503e-07
8.84957e-07
1.26883e-06
0.00113118
-1.41445e-07
-0.00113118
-7.02078e-08
-1.21612e-06
2.49823e-07
-2.06233e-07
-8.3365e-07
2.35977e-07
-1.79395e-07
8.93514e-07
-1.96666e-07
-1.9764e-07
0.000268222
-1.2332e-06
0.000270273
-0.000268249
2.38742e-07
2.39845e-07
-2.80874e-08
0.00113212
-2.13684e-07
1.21833e-06
2.34692e-07