/*--------------------------------*- C++ -*----------------------------------*\
| =========                 |                                                 |
| \\      /  F ield         | OpenFOAM: The Open Source CFD Toolbox           |
|  \\    /   O peration     | Version:  2312                                  |
|   \\  /    A nd           | Website:  www.openfoam.com                      |
|    \\/     M anipulation  |                                                 |
\*---------------------------------------------------------------------------*/
FoamFile
{
    version     2.0;
    format      ascii;
    arch        "LSB;label=32;scalar=64";
    class       volVectorField;
    location    "500";
    object      U;
}
// * * * * * * * * * * * * * * * * * * * * * * * * * * * * * * * * * * * * * //

dimensions      [0 1 -1 0 0 0 0];

internalField   nonuniform List<vector> 
43208
(
(-7.10313e-06 -1.2492e-05 0.112437)
(1.36884e-05 -1.0422e-06 0.107488)
(2.11206e-06 8.03564e-06 0.107484)
(-2.73447e-05 -3.31325e-05 0.104203)
(-1.23839e-05 -9.60009e-06 0.112414)
(6.5851e-06 -4.93304e-06 0.107477)
(-1.21075e-05 1.12221e-05 0.107475)
(-2.75e-05 -2.35215e-05 0.104205)
(-1.40643e-05 -1.47584e-05 0.11238)
(1.50953e-05 -1.29514e-05 0.107475)
(-6.28446e-06 1.33435e-05 0.107477)
(-2.41925e-05 -2.56975e-05 0.104221)
(-8.56526e-06 -1.11986e-05 0.11234)
(1.2798e-05 -1.74088e-06 0.107474)
(-3.37544e-06 1.08889e-05 0.107464)
(-2.69869e-05 -2.90188e-05 0.104216)
(-1.23979e-05 -9.67013e-06 0.112306)
(1.00915e-05 -5.46997e-06 0.107457)
(-7.84219e-06 1.24012e-05 0.107455)
(-2.64339e-05 -2.34028e-05 0.104217)
(-1.32308e-05 -1.30752e-05 0.112271)
(1.28299e-05 -7.99672e-06 0.107451)
(-7.28029e-06 1.20387e-05 0.107454)
(-2.58916e-05 -2.65796e-05 0.104229)
(-1.1755e-05 -1.20615e-05 0.112238)
(1.12394e-05 -5.96385e-06 0.107451)
(-5.02937e-06 1.16836e-05 0.107451)
(-2.57895e-05 -2.59328e-05 0.104239)
(-1.17996e-05 -1.25689e-05 0.112208)
(1.16412e-05 -6.46916e-06 0.10745)
(-7.26447e-06 1.06802e-05 0.107448)
(-2.72431e-05 -2.79089e-05 0.104247)
(-1.18396e-05 -1.057e-05 0.112176)
(1.06596e-05 -5.35096e-06 0.107446)
(-5.67436e-06 1.24074e-05 0.107446)
(-2.47862e-05 -2.34975e-05 0.104258)
(-1.1239e-05 -1.28877e-05 0.112146)
(1.17377e-05 -7.12482e-06 0.107446)
(-5.21673e-06 9.5999e-06 0.107443)
(-2.99791e-05 -3.16689e-05 0.104262)
(-1.14761e-05 -9.9142e-06 0.112119)
(8.56127e-06 -4.60071e-06 0.107443)
(-7.72539e-06 1.05168e-05 0.107442)
(-2.24657e-05 -2.09e-05 0.104272)
(-1.21072e-05 -1.30958e-05 0.112086)
(1.48511e-05 -7.11438e-06 0.107444)
(-4.10996e-06 1.35284e-05 0.107444)
(-2.98916e-05 -3.08051e-05 0.104295)
(-9.68397e-06 -9.36192e-06 0.112064)
(3.62931e-06 -4.2644e-06 0.107443)
(-6.52869e-06 4.40926e-06 0.10744)
(-2.74383e-05 -2.73263e-05 0.104278)
(-1.17314e-05 -1.20761e-05 0.112036)
(1.74386e-05 -7.43719e-06 0.107444)
(-4.92471e-06 1.63893e-05 0.107442)
(-2.50403e-05 -2.49433e-05 0.104318)
(-1.28407e-05 -1.13406e-05 0.112011)
(3.96076e-06 -3.22368e-06 0.107444)
(-9.22181e-06 6.45557e-06 0.107445)
(-2.95831e-05 -2.8799e-05 0.104306)
(-3.99584e-06 -6.64076e-06 0.111985)
(1.27904e-05 -5.91949e-06 0.107439)
(5.74989e-06 9.36019e-06 0.107437)
(-2.91764e-05 -3.10886e-05 0.104322)
(-1.93951e-05 -1.76052e-05 0.111975)
(9.64238e-06 -8.52234e-06 0.107451)
(-2.42178e-05 1.2565e-05 0.107445)
(-2.11938e-05 -1.98434e-05 0.104333)
(-4.45012e-06 -2.73119e-06 0.111941)
(8.51637e-06 -2.61137e-07 0.107435)
(1.1292e-05 9.2824e-06 0.107445)
(-3.56425e-05 -3.36341e-05 0.10435)
(-8.25431e-06 -1.37908e-05 0.111937)
(1.69028e-05 -1.16971e-05 0.107446)
(-1.44893e-05 1.13584e-05 0.107434)
(-1.84737e-05 -2.46617e-05 0.104358)
(-2.27228e-05 -1.59644e-05 0.111933)
(1.528e-05 -1.98742e-05 0.107439)
(-2.46828e-05 2.34887e-05 0.107443)
(-1.40362e-05 -5.36921e-06 0.10442)
(-3.51644e-05 -3.85629e-05 0.111216)
(6.56311e-05 -1.70546e-05 0.107886)
(-8.76746e-06 5.88418e-05 0.10789)
(4.26842e-05 3.64757e-05 0.105)
(-3.4144e-05 -4.02382e-05 0.104319)
(3.5271e-06 -1.46022e-05 0.107484)
(5.63607e-06 -1.59869e-05 0.107484)
(4.21862e-05 -4.19033e-05 0.104326)
(-1.02182e-05 -3.51141e-06 0.107488)
(-1.00323e-05 -3.34006e-06 0.107486)
(1.56988e-05 -5.73561e-06 0.107487)
(1.53148e-05 -2.56116e-07 0.107482)
(-3.6227e-05 3.65961e-05 0.104313)
(3.32368e-06 9.66183e-06 0.107489)
(6.7473e-06 1.08493e-05 0.107485)
(4.35884e-05 3.74241e-05 0.104317)
(3.58905e-05 3.01468e-05 0.104204)
(-4.7037e-05 -4.37617e-05 0.104313)
(3.22156e-06 -1.21296e-05 0.107483)
(2.21362e-06 -1.29502e-05 0.107486)
(-9.38979e-06 -7.65597e-06 0.107478)
(9.94942e-07 -5.65941e-06 0.107479)
(-3.00978e-05 3.09472e-05 0.104212)
(4.00804e-05 -3.97602e-05 0.104308)
(-7.52031e-06 -3.09677e-06 0.107487)
(-7.30521e-06 -8.29036e-07 0.107482)
(-9.11259e-06 -6.20992e-06 0.107479)
(-9.08672e-06 1.0065e-05 0.107473)
(1.37586e-05 -3.78517e-07 0.107481)
(6.23899e-06 -6.02026e-07 0.107481)
(8.00487e-06 7.93668e-06 0.107479)
(3.34625e-05 -3.24803e-05 0.104196)
(-4.68811e-05 4.71921e-05 0.104309)
(5.89947e-06 9.07426e-06 0.107485)
(-9.65524e-06 9.73121e-06 0.107475)
(4.68036e-06 9.47629e-06 0.10748)
(4.22233e-05 4.55549e-05 0.104315)
(2.17037e-05 2.56475e-05 0.104204)
(-4.55938e-05 -4.59926e-05 0.104338)
(-1.24551e-05 -8.4258e-06 0.107478)
(4.38102e-06 -6.71963e-06 0.107475)
(-9.13404e-06 -1.35191e-05 0.107478)
(1.25809e-05 -1.44318e-05 0.107471)
(-2.84856e-05 2.82711e-05 0.104197)
(4.88257e-05 -4.99795e-05 0.10433)
(-1.15164e-05 -7.80187e-06 0.107479)
(-1.13774e-05 1.15531e-05 0.107473)
(-1.43056e-05 -9.11944e-06 0.107479)
(-1.44795e-05 7.61796e-06 0.107475)
(7.92533e-06 1.01877e-05 0.107479)
(1.34177e-05 -1.39381e-05 0.107473)
(1.24942e-05 8.16585e-06 0.107474)
(2.20297e-05 -2.22799e-05 0.104202)
(-4.53032e-05 4.42006e-05 0.104336)
(5.46274e-06 1.0957e-05 0.107479)
(-8.97456e-06 1.35097e-05 0.107478)
(8.15331e-06 1.33706e-05 0.107475)
(4.5589e-05 4.52205e-05 0.104331)
(2.56501e-05 2.40947e-05 0.104227)
(-3.96016e-05 -4.25368e-05 0.104332)
(-6.09056e-06 -1.4742e-05 0.107477)
(1.20405e-05 -1.57932e-05 0.107472)
(-8.09655e-07 -1.36461e-05 0.107469)
(4.60971e-06 -1.41322e-05 0.107474)
(-2.15111e-05 2.05999e-05 0.104223)
(4.18533e-05 -4.1112e-05 0.104343)
(-1.36935e-05 -8.54696e-06 0.107479)
(-1.4006e-05 5.38999e-06 0.107475)
(-1.07566e-05 -4.46612e-06 0.107471)
(-1.08782e-05 2.82786e-06 0.107465)
(1.40344e-05 5.82326e-06 0.107472)
(1.45732e-05 -3.95203e-06 0.107476)
(1.39555e-05 1.93692e-06 0.107465)
(2.56944e-05 -2.65615e-05 0.104225)
(-4.0926e-05 4.15964e-05 0.104326)
(8.26169e-06 1.30571e-05 0.107474)
(-2.18728e-06 1.1235e-05 0.107468)
(5.58402e-06 1.10062e-05 0.107467)
(4.32121e-05 4.02336e-05 0.104328)
(2.96389e-05 2.76609e-05 0.104219)
(-4.58418e-05 -4.28032e-05 0.104324)
(-1.98858e-06 -1.20346e-05 0.107466)
(2.6251e-06 -1.22178e-05 0.107472)
(-8.2484e-06 -9.63718e-06 0.107456)
(4.10939e-06 -9.16164e-06 0.107458)
(-2.89927e-05 2.9756e-05 0.10423)
(4.29633e-05 -4.26161e-05 0.104325)
(-1.0251e-05 -3.79796e-06 0.107467)
(-1.03613e-05 4.22126e-06 0.107461)
(-1.17445e-05 -4.96368e-06 0.107456)
(-1.15208e-05 8.24395e-06 0.107453)
(1.25203e-05 3.08275e-06 0.107462)
(9.50676e-06 -3.55858e-06 0.107461)
(9.98176e-06 8.78094e-06 0.107456)
(2.82834e-05 -2.76017e-05 0.104214)
(-4.47962e-05 4.5249e-05 0.104325)
(4.91971e-06 1.06474e-05 0.107464)
(-7.63266e-06 1.19624e-05 0.107456)
(5.45415e-06 1.2143e-05 0.107456)
(4.2988e-05 4.61006e-05 0.104325)
(2.35906e-05 2.65306e-05 0.104216)
(-4.39883e-05 -4.42469e-05 0.104337)
(-8.95557e-06 -1.00644e-05 0.107454)
(5.79112e-06 -9.88139e-06 0.107454)
(-7.67433e-06 -1.2439e-05 0.107451)
(8.04329e-06 -1.27102e-05 0.107448)
(-2.60067e-05 2.62068e-05 0.104215)
(4.45449e-05 -4.48218e-05 0.104334)
(-1.2437e-05 -5.7119e-06 0.107455)
(-1.20882e-05 8.21724e-06 0.107453)
(-1.2647e-05 -7.58111e-06 0.107452)
(-1.23141e-05 6.62417e-06 0.107451)
(1.03471e-05 9.24686e-06 0.107454)
(1.2646e-05 -8.40891e-06 0.10745)
(1.22073e-05 6.65406e-06 0.10745)
(2.47894e-05 -2.44963e-05 0.104218)
(-4.36652e-05 4.32829e-05 0.104338)
(5.94808e-06 1.27854e-05 0.107455)
(-7.0863e-06 1.21723e-05 0.107454)
(6.62253e-06 1.23496e-05 0.107452)
(4.35209e-05 4.31801e-05 0.104336)
(2.57411e-05 2.51177e-05 0.10423)
(-4.22762e-05 -4.25654e-05 0.104347)
(-7.18008e-06 -1.29183e-05 0.107451)
(7.47087e-06 -1.30058e-05 0.107448)
(-5.57855e-06 -1.19244e-05 0.10745)
(5.85297e-06 -1.16261e-05 0.107448)
(-2.52238e-05 2.48664e-05 0.104227)
(4.23465e-05 -4.23907e-05 0.104346)
(-1.24434e-05 -7.75846e-06 0.107453)
(-1.23386e-05 6.66571e-06 0.107451)
(-1.17483e-05 -6.00762e-06 0.107452)
(-1.22191e-05 6.3352e-06 0.107449)
(1.24345e-05 6.05696e-06 0.10745)
(1.14216e-05 -5.89185e-06 0.107451)
(1.20194e-05 6.78228e-06 0.107449)
(2.57075e-05 -2.6192e-05 0.10423)
(-4.30681e-05 4.30889e-05 0.104347)
(6.70002e-06 1.18883e-05 0.107452)
(-6.30991e-06 1.20386e-05 0.107452)
(7.15875e-06 1.18789e-05 0.10745)
(4.36295e-05 4.33939e-05 0.104346)
(2.73016e-05 2.70958e-05 0.10424)
(-4.3031e-05 -4.38071e-05 0.104354)
(-4.9947e-06 -1.12563e-05 0.10745)
(6.25537e-06 -1.11595e-05 0.107449)
(-6.20834e-06 -1.12805e-05 0.107448)
(6.98016e-06 -1.15731e-05 0.107448)
(-2.68256e-05 2.68989e-05 0.104239)
(4.36248e-05 -4.35778e-05 0.104356)
(-1.12894e-05 -5.49871e-06 0.107451)
(-1.15284e-05 5.39277e-06 0.107449)
(-1.05469e-05 -7.23777e-06 0.10745)
(-1.00211e-05 5.32806e-06 0.107446)
(1.18338e-05 6.62102e-06 0.107449)
(1.18382e-05 -7.06677e-06 0.10745)
(1.1147e-05 4.42693e-06 0.107447)
(2.68999e-05 -2.67553e-05 0.10424)
(-4.2233e-05 4.22881e-05 0.104351)
(7.06482e-06 1.19417e-05 0.10745)
(-5.43297e-06 1.03279e-05 0.107448)
(5.45016e-06 1.03636e-05 0.107449)
(4.20364e-05 4.12241e-05 0.104353)
(2.57887e-05 2.51637e-05 0.104248)
(-4.2692e-05 -4.12274e-05 0.104363)
(-7.28365e-06 -1.18819e-05 0.107448)
(5.96246e-06 -1.17228e-05 0.107448)
(-6.12027e-06 -1.09283e-05 0.107446)
(4.74364e-06 -1.02581e-05 0.107444)
(-2.6107e-05 2.59428e-05 0.10425)
(4.17299e-05 -4.14231e-05 0.104361)
(-1.11595e-05 -7.73633e-06 0.10745)
(-1.07841e-05 6.72395e-06 0.107445)
(-1.21153e-05 -4.48571e-06 0.107447)
(-1.25617e-05 7.818e-06 0.107444)
(1.09511e-05 4.9346e-06 0.107447)
(1.0174e-05 -4.26202e-06 0.107446)
(1.13786e-05 9.37251e-06 0.107445)
(2.61391e-05 -2.63397e-05 0.104245)
(-4.38706e-05 4.40841e-05 0.104364)
(5.41784e-06 1.02004e-05 0.107449)
(-7.35432e-06 1.23718e-05 0.107446)
(7.75487e-06 1.25134e-05 0.107446)
(4.42358e-05 4.56604e-05 0.104363)
(2.71137e-05 2.84681e-05 0.104256)
(-4.24383e-05 -4.42451e-05 0.104368)
(-4.97329e-06 -1.01817e-05 0.107445)
(6.48868e-06 -1.01499e-05 0.107444)
(-5.67644e-06 -1.13013e-05 0.107441)
(8.09604e-06 -1.23861e-05 0.107443)
(-2.6763e-05 2.73247e-05 0.104254)
(4.43135e-05 -4.47953e-05 0.104373)
(-1.14639e-05 -3.83511e-06 0.107446)
(-1.19757e-05 6.787e-06 0.107444)
(-1.00946e-05 -7.66485e-06 0.107443)
(-9.88122e-06 3.84701e-06 0.107441)
(1.20607e-05 9.42071e-06 0.107446)
(1.26188e-05 -8.78424e-06 0.107445)
(1.08242e-05 1.14497e-06 0.107442)
(2.62223e-05 -2.57511e-05 0.104258)
(-4.12037e-05 4.08538e-05 0.104367)
(8.28963e-06 1.32577e-05 0.107447)
(-4.47675e-06 1.01731e-05 0.107443)
(3.04809e-06 9.6509e-06 0.107444)
(3.96884e-05 3.79944e-05 0.104369)
(2.6342e-05 2.44976e-05 0.104263)
(-4.18779e-05 -4.03219e-05 0.10438)
(-6.56175e-06 -1.23214e-05 0.107442)
(5.2309e-06 -1.25169e-05 0.107443)
(-5.77579e-06 -9.87148e-06 0.107442)
(2.08146e-06 -8.50541e-06 0.10744)
(-2.62657e-05 2.52419e-05 0.104268)
(3.9091e-05 -3.9101e-05 0.104375)
(-1.0648e-05 -8.42771e-06 0.107444)
(-1.02127e-05 3.42236e-06 0.10744)
(-1.07553e-05 -4.23842e-06 0.107443)
(-1.02872e-05 6.37877e-06 0.107438)
(9.86707e-06 -4.06026e-08 0.107441)
(7.63642e-06 -2.2044e-06 0.107443)
(9.25722e-06 1.00662e-05 0.107438)
(2.75299e-05 -2.8451e-05 0.104261)
(-4.29199e-05 4.27019e-05 0.104375)
(1.71249e-06 8.3961e-06 0.107443)
(-6.5497e-06 9.33467e-06 0.107441)
(8.61783e-06 1.00374e-05 0.10744)
(4.51106e-05 4.64628e-05 0.104374)
(2.72675e-05 2.91113e-05 0.104275)
(-4.38658e-05 -4.47321e-05 0.10439)
(-5.85333e-06 -8.58716e-06 0.107444)
(6.53297e-06 -7.93866e-06 0.107441)
(-6.88003e-06 -1.17329e-05 0.10744)
(1.23998e-05 -1.33889e-05 0.107441)
(-2.80378e-05 2.88526e-05 0.10427)
(4.81791e-05 -4.66603e-05 0.104397)
(-1.03025e-05 -3.82792e-06 0.107445)
(-1.01874e-05 9.44748e-06 0.10744)
(-1.15109e-05 -7.61884e-06 0.107442)
(-1.26752e-05 9.65545e-06 0.107442)
(1.0701e-05 1.37902e-05 0.107441)
(1.55157e-05 -1.05817e-05 0.107443)
(1.41592e-05 5.4943e-06 0.107445)
(2.55065e-05 -2.49724e-05 0.104272)
(-4.40678e-05 4.57898e-05 0.104398)
(1.19455e-05 1.20085e-05 0.107442)
(-7.75713e-06 1.49156e-05 0.107443)
(6.06969e-06 1.41319e-05 0.107446)
(4.2278e-05 4.17145e-05 0.104402)
(2.59224e-05 2.45705e-05 0.104285)
(-3.90832e-05 -3.90318e-05 0.104394)
(-5.35726e-06 -1.32938e-05 0.107439)
(6.41977e-06 -1.43183e-05 0.107442)
(-3.45294e-06 -8.23288e-06 0.107439)
(-4.23729e-06 -6.45283e-06 0.107438)
(-2.37048e-05 2.40969e-05 0.104293)
(3.28565e-05 -3.5896e-05 0.104389)
(-1.20825e-05 -7.00987e-06 0.107441)
(-1.26169e-05 3.71977e-06 0.107442)
(-7.89361e-06 -3.57927e-06 0.10744)
(-6.45098e-06 -2.68648e-06 0.107435)
(1.26709e-05 -1.23754e-06 0.107444)
(3.54684e-06 6.03685e-07 0.107442)
(4.43979e-06 5.09334e-07 0.107435)
(2.67707e-05 -2.6084e-05 0.104292)
(-3.77047e-05 3.453e-05 0.104385)
(6.39739e-08 1.19778e-05 0.107445)
(-1.0202e-06 3.48478e-06 0.107439)
(8.04574e-07 3.87569e-06 0.107436)
(3.80055e-05 3.77553e-05 0.10438)
(2.8662e-05 2.91875e-05 0.10429)
(-4.37266e-05 -4.36628e-05 0.104412)
(-6.49976e-06 -7.05953e-06 0.107443)
(2.65222e-06 -5.51401e-06 0.10744)
(-6.74129e-06 -1.16406e-05 0.107441)
(1.66283e-05 -1.36512e-05 0.10744)
(-3.31084e-05 3.09626e-05 0.104284)
(5.22072e-05 -4.86863e-05 0.104417)
(-7.63552e-06 -5.76096e-06 0.107444)
(-6.59304e-06 4.67195e-06 0.107437)
(-1.19498e-05 -6.76012e-06 0.107442)
(-1.33298e-05 1.44602e-05 0.107439)
(5.46682e-06 9.16277e-06 0.107437)
(1.63696e-05 -1.26555e-05 0.107441)
(1.55856e-05 1.29138e-05 0.107441)
(2.88251e-05 -3.12256e-05 0.104281)
(-4.61859e-05 4.98281e-05 0.104415)
(8.72432e-06 5.54475e-06 0.107438)
(-1.04188e-05 1.6172e-05 0.10744)
(1.2745e-05 1.61756e-05 0.107442)
(4.76839e-05 4.80657e-05 0.104421)
(2.70805e-05 2.67976e-05 0.104307)
(-4.25728e-05 -4.16983e-05 0.104414)
(-3.21683e-06 -1.25452e-05 0.10744)
(1.06098e-05 -1.46814e-05 0.107443)
(-7.16409e-06 -7.96947e-06 0.107438)
(-4.45171e-06 -6.06897e-06 0.10744)
(-1.98774e-05 2.30311e-05 0.104315)
(3.25972e-05 -3.52367e-05 0.104414)
(-1.21813e-05 -3.85615e-06 0.107442)
(-1.34503e-05 8.28036e-06 0.107441)
(-8.27812e-06 -5.98864e-06 0.10744)
(-6.99449e-06 -4.67574e-08 0.10744)
(1.56859e-05 4.98536e-06 0.107443)
(4.49076e-06 1.45276e-06 0.107443)
(4.98569e-06 -2.32614e-07 0.10744)
(2.57665e-05 -2.24533e-05 0.104313)
(-3.97496e-05 3.68282e-05 0.104415)
(5.37642e-06 1.57221e-05 0.107445)
(-3.21541e-06 5.10969e-06 0.107443)
(-1.08036e-06 4.83222e-06 0.107441)
(3.63416e-05 3.67685e-05 0.104411)
(2.42968e-05 2.55099e-05 0.104312)
(-3.40332e-05 -3.55483e-05 0.104426)
(-1.22686e-05 -9.53514e-06 0.107443)
(-1.73999e-07 -6.36989e-06 0.10744)
(2.99916e-06 -9.45462e-06 0.107439)
(9.65382e-06 -1.09207e-05 0.107435)
(-3.42246e-05 3.1315e-05 0.104307)
(4.56878e-05 -4.40006e-05 0.104422)
(-1.06341e-05 -1.02994e-05 0.107444)
(-9.16909e-06 5.56975e-06 0.107442)
(-9.22148e-06 1.21344e-06 0.107441)
(-1.028e-05 2.96237e-06 0.107435)
(5.73398e-06 7.05425e-06 0.107441)
(1.14769e-05 -7.78596e-06 0.107437)
(1.14154e-05 5.03222e-06 0.107437)
(2.64761e-05 -2.96642e-05 0.10431)
(-3.73704e-05 3.94862e-05 0.104423)
(5.35006e-06 6.39171e-06 0.107442)
(-7.23336e-07 1.1353e-05 0.107438)
(6.36279e-06 1.1773e-05 0.107438)
(4.21692e-05 4.12077e-05 0.104425)
(3.84155e-05 3.59787e-05 0.104319)
(-5.27524e-05 -5.27899e-05 0.104429)
(9.6214e-06 -7.38982e-06 0.107438)
(9.11812e-06 -1.09565e-05 0.107438)
(-1.67495e-05 -7.38114e-06 0.107439)
(5.45802e-06 -6.62876e-06 0.107448)
(-2.42827e-05 2.65696e-05 0.10432)
(4.0914e-05 -4.20499e-05 0.104444)
(-5.37629e-06 5.52879e-06 0.10744)
(-6.92346e-06 -2.1983e-06 0.107436)
(-5.59372e-06 -1.71626e-05 0.107441)
(-4.65965e-06 1.19506e-05 0.107439)
(1.11327e-05 -1.36335e-06 0.107437)
(6.97397e-06 -6.87206e-06 0.10745)
(5.99993e-06 7.18452e-06 0.107441)
(3.50196e-05 -3.23521e-05 0.104318)
(-4.95011e-05 4.78025e-05 0.104429)
(2.34114e-06 9.73963e-06 0.107439)
(-1.38084e-05 4.24385e-06 0.107441)
(8.08738e-06 3.39641e-06 0.107443)
(4.39887e-05 4.32905e-05 0.104431)
(9.57516e-06 1.14991e-05 0.104334)
(-2.85536e-05 -2.44019e-05 0.104459)
(-2.77519e-05 -1.53125e-05 0.107444)
(4.75094e-06 -1.15417e-05 0.107448)
(5.95773e-06 -7.65382e-06 0.107448)
(-3.39556e-06 -6.99301e-06 0.107435)
(-2.68179e-05 2.45895e-05 0.104342)
(3.42172e-05 -3.39724e-05 0.104434)
(-1.68046e-05 -2.35214e-05 0.107445)
(-1.51212e-05 2.00371e-05 0.107442)
(-1.28509e-05 1.10321e-05 0.107448)
(-1.31586e-05 -3.5476e-06 0.107444)
(1.07549e-05 1.66e-05 0.107444)
(5.67815e-06 3.57948e-06 0.107438)
(7.60684e-06 2.77403e-06 0.107443)
(1.27863e-05 -1.56286e-05 0.104333)
(-3.06804e-05 3.14519e-05 0.104459)
(1.27068e-05 1.16453e-05 0.107445)
(4.25736e-06 1.25815e-05 0.107447)
(-2.82731e-06 1.37173e-05 0.107443)
(3.29263e-05 3.77468e-05 0.104451)
(4.41731e-05 4.5795e-05 0.104353)
(-4.03933e-05 -4.78883e-05 0.104424)
(1.37911e-05 -4.58579e-06 0.107444)
(3.99866e-06 -6.77914e-06 0.107433)
(-3.408e-06 -3.25057e-06 0.107441)
(1.29574e-05 -5.28042e-06 0.107452)
(-3.15104e-05 3.33813e-05 0.104333)
(4.56063e-05 -4.33567e-05 0.104451)
(-5.9662e-06 1.30982e-05 0.107446)
(-7.05453e-06 -7.35567e-06 0.107443)
(3.7196e-06 -1.21688e-05 0.107445)
(3.29685e-06 4.22671e-06 0.107444)
(8.38175e-06 -2.36777e-06 0.107441)
(8.70498e-06 -1.04092e-05 0.107454)
(6.32037e-06 -9.9154e-07 0.107448)
(4.20351e-05 -3.97512e-05 0.104354)
(-3.8943e-05 4.01636e-05 0.104425)
(-1.81724e-06 1.00997e-05 0.107442)
(-2.57201e-06 -1.11997e-06 0.107446)
(8.66223e-06 -1.98922e-06 0.107451)
(4.3067e-05 3.45125e-05 0.104436)
(1.67033e-05 1.11665e-05 0.104348)
(-3.22389e-05 -2.45913e-05 0.104433)
(-1.61907e-05 -1.68722e-05 0.107431)
(1.02037e-05 -1.63578e-05 0.107444)
(-4.01593e-06 -1.19164e-06 0.107462)
(-1.37523e-05 1.33878e-06 0.107457)
(-1.89572e-05 1.92731e-05 0.104374)
(1.83447e-05 -2.37244e-05 0.104413)
(-1.21921e-05 -2.05849e-05 0.107433)
(-1.18118e-05 1.25972e-05 0.107431)
(-6.7713e-06 4.27979e-06 0.107461)
(-5.90023e-06 -3.4117e-07 0.107454)
(1.61769e-05 7.37889e-06 0.107437)
(-6.7927e-06 8.1168e-06 0.10746)
(-4.4464e-06 2.28515e-06 0.107456)
(1.83599e-05 -1.89129e-05 0.104348)
(-3.23764e-05 2.89955e-05 0.104426)
(1.21092e-05 1.06516e-05 0.107439)
(-3.80673e-06 2.51802e-06 0.107458)
(-7.40879e-06 3.08949e-06 0.107455)
(2.2784e-05 3.22877e-05 0.104416)
(8.69455e-06 1.56087e-05 0.104436)
(-3.91447e-05 -4.30081e-05 0.10466)
(-2.365e-05 -1.9827e-05 0.107447)
(1.71243e-05 -1.91644e-05 0.107436)
(-1.82442e-05 -6.55211e-05 0.107732)
(3.40449e-05 -6.83234e-05 0.107729)
(-1.6419e-05 1.25764e-05 0.104413)
(5.28838e-05 -4.68136e-05 0.104665)
(-2.55717e-05 -1.62253e-05 0.107446)
(-2.53294e-05 2.3141e-05 0.10744)
(-6.30299e-05 -2.2725e-05 0.107734)
(-6.39766e-05 2.36404e-05 0.107735)
(1.67832e-05 2.80897e-05 0.107439)
(7.36846e-05 -2.77953e-05 0.107729)
(7.16504e-05 2.32485e-05 0.107732)
(8.04416e-06 -9.98926e-06 0.104431)
(-3.92337e-05 4.3377e-05 0.104666)
(1.94412e-05 2.45202e-05 0.107438)
(-1.88578e-05 6.75945e-05 0.107735)
(2.91526e-05 6.76652e-05 0.107735)
(4.85015e-05 4.28971e-05 0.10467)
(-3.43743e-05 -3.87659e-05 0.104989)
(-8.71027e-06 -5.77665e-05 0.107886)
(2.2929e-05 -6.032e-05 0.107886)
(4.63436e-05 -4.05913e-05 0.104998)
(-5.46855e-05 -1.3674e-05 0.107888)
(-5.53646e-05 1.31195e-05 0.107889)
(4.73736e-05 -4.20732e-05 0.111211)
(-3.59662e-05 3.98933e-05 0.111216)
(4.47382e-05 4.00982e-05 0.111214)
(6.35581e-05 1.21159e-05 0.107888)
(-3.38958e-05 3.76998e-05 0.104995)
(1.86e-05 5.88638e-05 0.10789)
(5.95705e-06 -1.13105e-05 0.0914207)
(2.80631e-06 -9.0103e-06 0.0822799)
(-7.20489e-07 -3.23334e-06 0.0715986)
(-7.09079e-06 -1.88168e-06 0.0822838)
(-1.03383e-05 -1.50402e-05 0.112444)
(1.63502e-05 -1.73524e-05 0.112445)
(-8.63609e-06 7.57501e-06 0.112451)
(1.54337e-05 1.07049e-05 0.112446)
(1.97643e-05 -3.73293e-06 0.0985669)
(1.53746e-05 -1.38678e-05 0.107483)
(1.64216e-05 -6.1683e-07 0.0930643)
(1.71709e-05 -8.10065e-06 0.109896)
(-5.15684e-06 -1.36624e-05 0.091462)
(-5.4413e-06 5.97829e-06 0.082271)
(-8.92221e-07 -2.61544e-06 0.0914219)
(-6.52908e-06 -6.46369e-06 0.0823235)
(4.55609e-07 3.043e-06 0.0715849)
(5.45073e-06 -2.71298e-06 0.0716405)
(-1.19564e-05 8.72118e-07 0.0914575)
(4.32062e-06 -3.18073e-06 0.082274)
(-2.06044e-06 5.59169e-07 0.0914233)
(-8.31255e-06 -2.35515e-06 0.0823234)
(1.3805e-05 -1.36944e-05 0.112437)
(-6.13381e-06 6.22359e-06 0.112442)
(1.41329e-05 8.67261e-06 0.112438)
(-9.62563e-06 -8.78742e-06 0.112421)
(5.79337e-06 -5.2931e-06 0.11242)
(-9.75491e-06 1.03235e-05 0.112418)
(8.99135e-06 9.8876e-06 0.112419)
(2.39604e-05 3.26716e-06 0.0986095)
(2.62104e-06 2.95524e-06 0.0930473)
(1.91637e-05 -2.65582e-06 0.109889)
(1.06103e-05 1.69728e-06 0.107487)
(2.24974e-06 3.54987e-07 0.0985486)
(1.7978e-05 -7.53688e-06 0.0930998)
(1.66002e-05 3.98148e-07 0.109889)
(3.84606e-06 3.19051e-06 0.0715943)
(-2.81718e-06 4.8109e-06 0.0716382)
(-1.7487e-06 2.03538e-05 0.0986022)
(4.38059e-06 1.39891e-05 0.109894)
(-2.35192e-06 -4.54778e-06 0.093038)
(-1.25139e-06 7.66932e-06 0.107479)
(2.72482e-06 2.09195e-07 0.0985504)
(1.97913e-06 1.20899e-05 0.109891)
(-9.53304e-06 1.17769e-05 0.0930881)
(-1.11622e-06 1.56707e-06 0.087589)
(1.37488e-06 -1.23991e-06 0.08759)
(4.2349e-05 3.97864e-05 0.104313)
(3.11543e-06 1.0204e-05 0.087634)
(6.50897e-06 5.50351e-06 0.0876331)
(1.24194e-06 -8.52707e-06 0.0914773)
(7.25062e-07 4.88873e-06 0.0823041)
(-2.34722e-06 2.97402e-06 0.0914431)
(2.55974e-06 -8.82448e-06 0.082345)
(7.5437e-07 2.66097e-06 0.0716147)
(1.32997e-06 -3.33184e-06 0.071655)
(-9.3244e-06 -6.73413e-07 0.0914776)
(4.87561e-06 1.66368e-06 0.0823028)
(3.36304e-06 1.47126e-07 0.0914394)
(-7.48757e-06 3.62894e-07 0.0823451)
(6.41132e-06 -6.53814e-06 0.112414)
(-1.24305e-05 1.23226e-05 0.112411)
(8.74155e-06 1.15588e-05 0.112413)
(-1.51224e-05 -1.38663e-05 0.112389)
(1.41712e-05 -1.54082e-05 0.112387)
(-1.52621e-05 1.40399e-05 0.112386)
(1.22441e-05 1.3539e-05 0.112387)
(1.67138e-05 -2.32831e-06 0.0986123)
(-9.57367e-06 -2.93885e-06 0.0930605)
(9.22943e-06 3.27759e-07 0.109886)
(8.42291e-06 -9.67494e-06 0.107474)
(-4.36583e-06 7.72514e-07 0.098565)
(8.84102e-06 -6.8778e-06 0.0931114)
(9.44112e-06 -2.56982e-06 0.109879)
(1.61177e-06 -3.79166e-06 0.0716132)
(-3.98559e-06 -3.02655e-07 0.0716524)
(-2.88318e-06 1.87234e-05 0.0986125)
(-6.89591e-06 1.19412e-05 0.10988)
(-3.89587e-07 -7.9261e-06 0.0930621)
(-1.25132e-05 1.24772e-05 0.107476)
(-4.26898e-06 -4.25721e-06 0.098559)
(-7.6411e-06 1.30721e-05 0.109875)
(-3.40834e-06 1.46558e-05 0.0931192)
(-3.80534e-06 -9.96124e-07 0.0876218)
(-3.13067e-06 -2.37213e-06 0.0876198)
(4.41036e-05 4.79648e-05 0.104323)
(6.57301e-06 2.46191e-06 0.0876638)
(3.52022e-06 6.21833e-06 0.0876614)
(1.55059e-06 -1.34323e-05 0.0915116)
(3.70734e-06 3.41123e-06 0.082324)
(3.33507e-06 1.29598e-06 0.0914666)
(-1.09654e-06 -8.25694e-06 0.0823741)
(-3.17016e-06 2.18611e-06 0.0716272)
(1.68299e-06 -2.86913e-06 0.0716794)
(-1.36776e-05 -9.21459e-07 0.091515)
(4.62528e-06 6.10612e-07 0.0823271)
(3.72645e-07 -1.44232e-06 0.0914716)
(-8.19193e-06 -2.10901e-06 0.0823771)
(1.59425e-05 -1.69772e-05 0.112377)
(-1.42197e-05 1.32077e-05 0.112377)
(1.35758e-05 1.29176e-05 0.112377)
(-9.17054e-06 -1.27873e-05 0.112349)
(1.44037e-05 -1.41149e-05 0.112349)
(-9.57767e-06 9.84886e-06 0.112347)
(1.3359e-05 9.75165e-06 0.112345)
(2.32152e-05 -2.30267e-06 0.0986369)
(-3.34533e-06 3.51319e-06 0.0930908)
(1.60375e-05 -8.42622e-06 0.109859)
(1.5887e-05 -1.0586e-05 0.107476)
(-2.50399e-06 -4.17448e-06 0.0985755)
(1.97046e-05 -2.47558e-06 0.0931519)
(1.79464e-05 -7.87945e-06 0.109853)
(2.70865e-06 -1.54963e-06 0.0716359)
(-2.58758e-06 4.28039e-06 0.0716858)
(2.1342e-06 2.30784e-05 0.09864)
(-3.44494e-06 1.60569e-05 0.109859)
(3.88622e-06 -9.75135e-07 0.0930964)
(-3.77822e-06 1.27633e-05 0.107475)
(1.32786e-06 -8.34235e-07 0.0985814)
(-1.48383e-06 1.63039e-05 0.109854)
(-4.16836e-06 1.87453e-05 0.09315)
(3.26744e-06 -5.63546e-06 0.0876489)
(-2.01768e-06 1.09813e-06 0.0876485)
(4.52344e-05 4.14455e-05 0.104332)
(9.94455e-06 4.62769e-06 0.0876923)
(6.70516e-06 8.54365e-06 0.0876917)
(-2.6064e-06 -1.39546e-05 0.0915508)
(-3.3132e-06 4.8414e-06 0.0823699)
(-2.20085e-06 -2.79788e-06 0.0915104)
(-3.99089e-06 -7.84634e-06 0.0824231)
(1.18364e-06 2.47007e-06 0.0716772)
(4.41153e-06 -2.95223e-06 0.0717347)
(-1.29856e-05 6.9617e-07 0.0915476)
(3.7664e-06 -7.67855e-07 0.082371)
(-1.67402e-06 4.48571e-07 0.091508)
(-8.60595e-06 -1.60802e-06 0.0824225)
(1.20217e-05 -1.14146e-05 0.112341)
(-9.15151e-06 9.73309e-06 0.112338)
(1.21092e-05 9.44729e-06 0.112336)
(-1.13211e-05 -9.15253e-06 0.112314)
(8.54749e-06 -7.8713e-06 0.112318)
(-1.13655e-05 1.2083e-05 0.112311)
(9.91474e-06 1.20987e-05 0.112312)
(2.37884e-05 2.14423e-06 0.0986681)
(1.27296e-06 -3.83341e-07 0.093129)
(1.74875e-05 -1.3912e-06 0.109844)
(1.09397e-05 -1.16468e-06 0.10747)
(2.76634e-06 1.58174e-06 0.098613)
(1.75466e-05 -7.6086e-06 0.0931814)
(1.54809e-05 3.33877e-07 0.109842)
(2.86243e-06 8.03224e-07 0.0716809)
(-3.28781e-06 3.10178e-06 0.0717284)
(-1.54961e-06 2.20789e-05 0.0986617)
(-5.05377e-07 1.48098e-05 0.109841)
(-1.38822e-06 -3.1122e-06 0.0931218)
(-5.12021e-06 1.09915e-05 0.10746)
(-3.12982e-08 6.87989e-07 0.0986082)
(-1.79902e-06 1.42094e-05 0.109837)
(-7.22731e-06 1.51569e-05 0.0931758)
(-1.18943e-06 2.14643e-06 0.0876833)
(8.51003e-08 1.24869e-08 0.0876831)
(4.25194e-05 4.33525e-05 0.104324)
(4.95648e-06 8.64257e-06 0.08773)
(5.86114e-06 6.65583e-06 0.0877284)
(1.87728e-07 -1.03035e-05 0.0915778)
(7.60993e-07 4.44836e-06 0.0824096)
(-7.78251e-07 1.33365e-06 0.091539)
(-2.03172e-07 -7.99721e-06 0.0824546)
(-9.46019e-07 2.28024e-06 0.0717153)
(1.50162e-06 -3.29356e-06 0.0717603)
(-1.08613e-05 -6.58165e-07 0.0915788)
(4.64116e-06 8.24881e-07 0.0824091)
(1.2049e-06 -7.12695e-08 0.0915381)
(-7.52646e-06 -1.05373e-06 0.0824548)
(9.28949e-06 -8.77196e-06 0.112309)
(-1.21423e-05 1.27142e-05 0.112304)
(1.02326e-05 1.29979e-05 0.112304)
(-1.33228e-05 -1.24084e-05 0.112279)
(1.25793e-05 -1.26671e-05 0.112279)
(-1.28113e-05 1.26731e-05 0.112279)
(1.19992e-05 1.28776e-05 0.112278)
(1.96998e-05 -1.04719e-06 0.0986806)
(-5.61409e-06 -2.71064e-07 0.0931516)
(1.26385e-05 -6.19376e-07 0.109829)
(1.09943e-05 -7.09596e-06 0.107453)
(-2.07035e-06 2.73083e-07 0.0986276)
(1.34833e-05 -4.96926e-06 0.0932065)
(1.32027e-05 -1.98136e-06 0.109823)
(2.29499e-06 -1.96029e-06 0.071712)
(-3.02834e-06 2.36929e-06 0.0717541)
(-9.01471e-07 2.07726e-05 0.0986822)
(-4.27708e-06 1.47941e-05 0.109825)
(8.34489e-07 -3.9586e-06 0.0931534)
(-7.54298e-06 1.25149e-05 0.107454)
(-1.65564e-06 -1.59443e-06 0.0986261)
(-4.12877e-06 1.51993e-05 0.10982)
(-4.64403e-06 1.54834e-05 0.0932092)
(-1.02362e-06 -2.11079e-06 0.0877212)
(-2.82845e-06 -4.59235e-07 0.0877199)
(4.33839e-05 4.53462e-05 0.104331)
(6.8966e-06 3.74953e-06 0.0877644)
(4.44876e-06 6.58284e-06 0.0877627)
(-3.83205e-08 -1.13174e-05 0.0916099)
(1.17098e-06 4.79069e-06 0.082435)
(2.31989e-07 1.58475e-06 0.0915689)
(-8.45476e-07 -7.72667e-06 0.0824811)
(-1.84619e-06 2.50113e-06 0.0717335)
(2.92794e-06 -2.62654e-06 0.07178)
(-1.12319e-05 -4.17948e-08 0.0916096)
(4.83028e-06 6.90078e-07 0.0824363)
(1.44907e-06 -4.83256e-07 0.0915698)
(-7.886e-06 -9.25813e-07 0.0824821)
(1.30312e-05 -1.33081e-05 0.11227)
(-1.29544e-05 1.25956e-05 0.112271)
(1.24055e-05 1.25136e-05 0.11227)
(-1.23281e-05 -1.26081e-05 0.112245)
(1.23558e-05 -1.25203e-05 0.112244)
(-1.26596e-05 1.25027e-05 0.112245)
(1.27581e-05 1.24991e-05 0.112244)
(2.06676e-05 -6.79073e-07 0.0987076)
(-4.0396e-06 1.99269e-06 0.0931836)
(1.56127e-05 -4.32723e-06 0.109808)
(1.25019e-05 -7.18497e-06 0.10745)
(-2.06015e-06 -1.58662e-06 0.0986497)
(1.5615e-05 -4.50506e-06 0.0932396)
(1.57611e-05 -4.03173e-06 0.109803)
(2.51209e-06 -9.41197e-07 0.0717349)
(-3.42448e-06 2.00353e-06 0.0717794)
(-4.7509e-07 2.03353e-05 0.0987077)
(-3.60911e-06 1.52906e-05 0.109809)
(7.82459e-07 -4.74443e-06 0.0931836)
(-7.48693e-06 1.20447e-05 0.107453)
(-4.50055e-07 -2.02234e-06 0.0986519)
(-3.6199e-06 1.51543e-05 0.109805)
(-4.86041e-06 1.50097e-05 0.0932371)
(-8.86817e-07 -2.40033e-06 0.0877491)
(-1.58293e-06 -1.496e-06 0.0877483)
(4.35637e-05 4.26452e-05 0.104341)
(5.83484e-06 5.30797e-06 0.0877908)
(5.48419e-06 5.73303e-06 0.0877891)
(4.30507e-08 -1.11664e-05 0.0916395)
(-4.06564e-08 4.79615e-06 0.082466)
(1.02498e-07 9.42227e-07 0.0916009)
(-2.27261e-06 -7.41437e-06 0.0825124)
(-3.20406e-09 2.69632e-06 0.0717587)
(2.30189e-06 -3.31486e-06 0.0718075)
(-1.14162e-05 -9.31584e-07 0.0916409)
(5.11417e-06 -4.81682e-07 0.082467)
(7.81495e-07 -4.98352e-07 0.091601)
(-7.15309e-06 -2.69203e-06 0.0825134)
(1.22654e-05 -1.21443e-05 0.112237)
(-1.18907e-05 1.20549e-05 0.112237)
(1.27503e-05 1.24837e-05 0.112237)
(-1.11652e-05 -1.21608e-05 0.112215)
(1.25179e-05 -1.23798e-05 0.112214)
(-1.06425e-05 1.08118e-05 0.112213)
(1.18629e-05 1.08692e-05 0.112213)
(2.03151e-05 -7.79432e-07 0.098731)
(-4.82805e-06 4.17393e-07 0.0932111)
(1.48989e-05 -2.84439e-06 0.109795)
(1.14507e-05 -6.49656e-06 0.107451)
(-2.17747e-06 -6.39557e-08 0.0986764)
(1.46093e-05 -5.49239e-06 0.0932647)
(1.47618e-05 -3.17123e-06 0.109791)
(2.87914e-06 -1.11713e-06 0.0717622)
(-2.34737e-06 4.16913e-06 0.0718055)
(4.46597e-07 2.0927e-05 0.0987318)
(-2.1567e-06 1.52296e-05 0.109795)
(2.1999e-06 -2.82824e-06 0.0932127)
(-4.08638e-06 1.1125e-05 0.10745)
(2.25738e-07 -1.59717e-06 0.0986757)
(-1.58487e-06 1.49582e-05 0.109791)
(-5.05025e-06 1.55025e-05 0.0932661)
(-1.51644e-08 -2.50112e-06 0.0877782)
(-2.23433e-06 -5.22326e-08 0.0877774)
(4.29596e-05 4.26184e-05 0.10435)
(7.15491e-06 4.69586e-06 0.0878214)
(5.24379e-06 6.86752e-06 0.0878202)
(-1.00953e-06 -1.13554e-05 0.0916682)
(3.82662e-07 4.87518e-06 0.0824927)
(-1.19714e-06 1.41331e-06 0.0916281)
(-5.21793e-07 -7.84334e-06 0.0825401)