/*--------------------------------*- C++ -*----------------------------------*\
| =========                 |                                                 |
| \\      /  F ield         | OpenFOAM: The Open Source CFD Toolbox           |
|  \\    /   O peration     | Version:  2312                                  |
|   \\  /    A nd           | Website:  www.openfoam.com                      |
|    \\/     M anipulation  |                                                 |
\*---------------------------------------------------------------------------*/
FoamFile
{
    version     2.0;
    format      ascii;
    arch        "LSB;label=32;scalar=64";
    class       volScalarField;
    location    "1000";
    object      k;
}
// * * * * * * * * * * * * * * * * * * * * * * * * * * * * * * * * * * * * * //

dimensions      [0 2 -2 0 0 0 0];

internalField   nonuniform List<scalar> 
43008
(
1.57101e-05
1.6115e-05
1.52904e-05
1.60659e-05
1.60661e-05
1.76021e-05
1.72577e-05
1.75151e-05
1.61148e-05
1.61149e-05
1.60674e-05
1.60676e-05
1.75191e-05
1.6115e-05
1.61146e-05
1.60676e-05
1.60673e-05
1.60676e-05
1.60673e-05
1.72617e-05
1.75188e-05
1.61149e-05
1.60677e-05
1.60676e-05
1.75292e-05
1.76111e-05
1.6066e-05
1.60661e-05
1.76129e-05
1.6066e-05
1.60658e-05
1.60658e-05
1.76125e-05
1.60661e-05
5.00965e-05
6.99053e-05
4.93372e-05
6.99386e-05
6.97737e-05
5.00989e-05
6.99061e-05
4.93364e-05
6.99395e-05
1.57101e-05
1.57098e-05
1.57098e-05
1.53907e-05
1.53907e-05
1.53905e-05
1.53905e-05
2.60143e-05
1.60923e-05
4.29332e-05
1.53537e-05
6.97974e-05
6.97736e-05
2.6017e-05
1.54377e-05
4.24496e-05
1.60924e-05
2.54883e-05
1.53535e-05
4.29413e-05
1.73481e-05
5.77574e-05
5.77672e-05
5.19462e-05
6.99762e-05
5.12818e-05
7.00076e-05
6.97129e-05
6.9691e-05
5.1948e-05
6.99774e-05
5.12816e-05
7.00087e-05
1.52904e-05
1.52902e-05
1.52902e-05
2.76546e-05
4.38806e-05
1.51275e-05
1.60683e-05
2.71046e-05
4.43261e-05
1.506e-05
6.97129e-05
6.9691e-05
2.76618e-05
1.51275e-05
4.38787e-05
1.60684e-05
2.71048e-05
1.50599e-05
4.43372e-05
5.83099e-05
5.8319e-05
1.7746e-05
5.85668e-05
5.85756e-05
6.97957e-05
6.97717e-05
6.97973e-05
6.97738e-05
5.74651e-05
5.74776e-05
1.73375e-05
5.77589e-05
5.77711e-05
6.97295e-05
6.97525e-05
6.97318e-05
6.97544e-05
1.74182e-05
5.81773e-05
5.81888e-05
5.79023e-05
5.79145e-05
5.00962e-05
6.99021e-05
4.93364e-05
6.99353e-05
2.60113e-05
4.24467e-05
1.54379e-05
1.60921e-05
2.54934e-05
4.29362e-05
1.53538e-05
2.60112e-05
4.24517e-05
1.54376e-05
1.60923e-05
2.54927e-05
4.2939e-05
1.53535e-05
5.03432e-05
6.99738e-05
6.99415e-05
5.1056e-05
5.03425e-05
6.99704e-05
6.99385e-05
5.10556e-05
2.62906e-05
1.60788e-05
4.36471e-05
1.51986e-05
4.3177e-05
1.52744e-05
2.68268e-05
2.62894e-05
1.6079e-05
4.36499e-05
1.51983e-05
4.31806e-05
1.52741e-05
2.68232e-05
1.7337e-05
5.77669e-05
5.77605e-05
6.9772e-05
6.97317e-05
6.97544e-05
1.74207e-05
5.81844e-05
5.81779e-05
5.79099e-05
5.79035e-05
6.97299e-05
6.97524e-05
2.60141e-05
4.24489e-05
1.54378e-05
1.60923e-05
2.54916e-05
4.29416e-05
1.53537e-05
5.00979e-05
6.99021e-05
4.93359e-05
6.99355e-05
2.6013e-05
1.54373e-05
4.245e-05
1.60919e-05
2.54916e-05
1.53532e-05
4.29385e-05
5.0343e-05
6.99748e-05
6.99425e-05
5.10579e-05
2.6289e-05
1.60789e-05
4.36522e-05
1.51985e-05
4.31789e-05
1.52743e-05
2.68257e-05
5.03422e-05
6.99704e-05
6.99382e-05
5.1057e-05
2.62895e-05
1.60787e-05
1.5198e-05
4.36504e-05
1.52738e-05
4.31809e-05
2.68242e-05
5.0082e-05
6.99376e-05
2.60111e-05
1.6092e-05
1.53536e-05
4.29352e-05
5.0091e-05
6.99342e-05
2.62827e-05
1.60789e-05
4.36463e-05
1.51985e-05
4.31779e-05
1.52743e-05
2.6826e-05
5.03504e-05
6.99725e-05
6.99405e-05
5.10429e-05
2.62876e-05
1.60787e-05
1.51984e-05
4.36479e-05
1.52743e-05
4.31765e-05
2.68242e-05
5.03457e-05
6.99692e-05
6.99372e-05
5.10509e-05
5.74737e-05
5.74674e-05
1.73371e-05
5.77661e-05
5.77609e-05
6.97958e-05
6.97721e-05
6.97316e-05
6.97544e-05
1.74212e-05
5.81841e-05
5.81794e-05
5.79107e-05
5.79047e-05
6.97301e-05
6.97528e-05
2.60121e-05
1.54376e-05
4.24495e-05
1.60922e-05
2.5493e-05
1.53534e-05
4.29423e-05
5.00906e-05
6.9905e-05
4.93435e-05
6.99382e-05
5.009e-05
6.9903e-05
4.9343e-05
6.99364e-05
2.62856e-05
1.6079e-05
1.51984e-05
4.36533e-05
1.52742e-05
4.31764e-05
2.6831e-05
2.62892e-05
1.60789e-05
1.51983e-05
4.36514e-05
1.52741e-05
4.31794e-05
2.68247e-05
5.035e-05
6.99733e-05
6.99412e-05
5.10498e-05
5.03492e-05
6.99713e-05
6.99392e-05
5.10491e-05
6.97718e-05
6.97741e-05
1.74108e-05
5.81753e-05
5.81855e-05
5.79008e-05
5.7911e-05
6.97298e-05
6.97525e-05
6.97321e-05
6.97548e-05
6.97108e-05
6.96889e-05
6.9713e-05
6.96912e-05
5.83114e-05
5.83236e-05
1.77263e-05
5.85683e-05
5.85797e-05
5.19457e-05
6.99733e-05
5.12813e-05
7.00046e-05
2.76575e-05
4.38824e-05
1.51277e-05
1.60682e-05
2.71107e-05
4.433e-05
1.50601e-05
2.76582e-05
4.38838e-05
1.51273e-05
1.60686e-05
2.71096e-05
4.43437e-05
1.50598e-05
5.83184e-05
5.83126e-05
1.77271e-05
5.85747e-05
5.85688e-05
6.97109e-05
6.96893e-05
2.76586e-05
4.3884e-05
1.51276e-05
1.60683e-05
2.71097e-05
4.43349e-05
1.506e-05
5.19469e-05
6.99731e-05
5.12809e-05
7.00046e-05
2.76567e-05
1.51271e-05
4.38846e-05
1.60682e-05
2.711e-05
1.50595e-05
4.43379e-05
5.1934e-05
6.99752e-05
5.12886e-05
7.00066e-05
2.76556e-05
1.51275e-05
4.38806e-05
1.60683e-05
2.71077e-05
1.506e-05
4.43287e-05
5.19413e-05
6.9972e-05
5.12844e-05
7.00031e-05
5.83193e-05
5.83131e-05
1.77262e-05
5.85754e-05
5.85702e-05
6.97113e-05
6.96896e-05
2.7661e-05
1.51274e-05
4.3885e-05
1.60686e-05
2.711e-05
1.50599e-05
4.43402e-05
5.19398e-05
6.9976e-05
5.12888e-05
7.00073e-05
5.19386e-05
6.99741e-05
5.12882e-05
7.00053e-05
6.9711e-05
6.96891e-05
6.97133e-05
6.96914e-05
6.97451e-05
4.98487e-05
6.90333e-05
5.70685e-05
6.90255e-05
5.68498e-05
6.97563e-05
7.11547e-05
7.2998e-05
6.99208e-05
7.11507e-05
7.31107e-05
6.97444e-05
4.95912e-05
6.90191e-05
5.64664e-05
6.97339e-05
6.90253e-05
5.66914e-05
7.1131e-05
7.32591e-05
6.99236e-05
7.31521e-05
7.11349e-05
6.97953e-05
6.97758e-05
6.97452e-05
4.98479e-05
5.70684e-05
6.90337e-05
5.68481e-05
6.9026e-05
6.97564e-05
7.11546e-05
7.29977e-05
6.99216e-05
7.11507e-05
7.31071e-05
6.97444e-05
4.95935e-05
5.64647e-05
6.90194e-05
6.97339e-05
5.66913e-05
6.90257e-05
7.11311e-05
7.32543e-05
6.99244e-05
7.31507e-05
7.11349e-05
6.97952e-05
6.97757e-05
8.65068e-05
7.26169e-05
7.26107e-05
7.26161e-05
7.26099e-05
8.66093e-05
5.44828e-05
5.75377e-05
3.58111e-05
6.84898e-05
5.45504e-05
5.75478e-05
3.58332e-05
6.8501e-05
8.64627e-05
7.26396e-05
7.26334e-05
5.47183e-05
6.85379e-05
5.76859e-05
3.62422e-05
3.61006e-05
6.85026e-05
5.48371e-05
5.47865e-05
6.85494e-05
5.76959e-05
3.62621e-05
3.61178e-05
6.85141e-05
5.49047e-05
6.97969e-05
5.17255e-05
6.90963e-05
5.8431e-05
6.90786e-05
5.82347e-05
6.98093e-05
7.10749e-05
7.35688e-05
6.99907e-05
7.10715e-05
7.36607e-05
6.97956e-05
5.15099e-05
6.9062e-05
5.791e-05
6.97834e-05
6.90765e-05
5.81118e-05
7.10515e-05
7.37823e-05
6.99931e-05
7.36941e-05
7.10549e-05
6.97112e-05
6.96927e-05
6.97971e-05
5.17254e-05
5.84313e-05
6.90968e-05
5.82333e-05
6.90793e-05
6.98096e-05
7.10752e-05
7.35684e-05
6.99918e-05
7.10718e-05
7.36578e-05
6.97958e-05
5.15115e-05
5.79088e-05
6.90627e-05
6.97836e-05
5.81118e-05
6.90768e-05
7.10519e-05
7.37777e-05
6.99943e-05
7.36933e-05
7.10552e-05
6.97111e-05
6.96927e-05
8.70501e-05
7.25263e-05
7.25202e-05
7.25257e-05
7.25196e-05
8.71373e-05
5.58393e-05
3.73651e-05
6.86414e-05
5.83745e-05
5.57305e-05
3.75035e-05
6.86733e-05
5.59053e-05
3.73866e-05
6.86529e-05
5.83837e-05
5.57986e-05
3.75204e-05
6.86851e-05
8.70129e-05
7.25482e-05
7.25421e-05
8.69227e-05
7.25489e-05
7.25428e-05
5.60481e-05
6.87156e-05
5.85037e-05
3.79128e-05
3.77772e-05
6.86845e-05
5.61546e-05
5.61177e-05
6.87273e-05
5.85139e-05
3.79297e-05
3.77982e-05
6.86962e-05
5.6215e-05
6.97935e-05
6.97739e-05
6.97953e-05
6.97758e-05
8.65118e-05
7.26183e-05
7.26119e-05
7.26175e-05
7.2611e-05
8.66135e-05
5.44821e-05
3.56705e-05
6.84549e-05
5.75389e-05
5.43604e-05
6.84901e-05
3.58078e-05
5.45474e-05
3.56898e-05
6.84669e-05
5.7552e-05
5.44276e-05
6.8502e-05
3.58255e-05
8.6467e-05
7.26401e-05
7.26336e-05
8.63606e-05
7.26411e-05
7.26346e-05
5.47186e-05
6.8538e-05
5.76878e-05
3.62378e-05
6.85042e-05
5.48362e-05
3.61016e-05
5.47867e-05
6.85502e-05
5.76996e-05
3.62559e-05
6.85163e-05
5.49021e-05
3.61206e-05
6.97315e-05
6.97504e-05
6.97335e-05
6.97525e-05
8.6753e-05
7.25948e-05
7.25884e-05
8.66574e-05
7.25955e-05
7.25891e-05
5.54021e-05
3.70835e-05
5.81102e-05
6.86303e-05
6.85973e-05
3.69507e-05
5.55138e-05
5.54725e-05
3.71039e-05
5.81223e-05
6.86425e-05
6.86101e-05
3.69688e-05
5.55807e-05
5.51807e-05
6.8552e-05
3.65283e-05
5.79714e-05
5.50654e-05
6.8585e-05
3.66634e-05
5.52457e-05
6.85641e-05
3.65473e-05
5.79836e-05
5.51341e-05
6.85971e-05
3.66829e-05
8.67951e-05
7.25728e-05
7.25664e-05
7.25721e-05
7.25657e-05
8.68887e-05
6.97443e-05
4.98479e-05
6.90328e-05
5.70662e-05
6.9025e-05
5.6845e-05
6.97554e-05
7.11539e-05
7.29813e-05
6.99174e-05
7.11501e-05
7.30902e-05
6.97435e-05
4.95911e-05
6.90184e-05
5.64616e-05
6.90247e-05
6.9733e-05
5.6689e-05
7.11304e-05
7.32372e-05
6.99204e-05
7.31338e-05
7.1134e-05
6.97689e-05
6.90347e-05
5.72177e-05
5.05846e-05
6.97573e-05
6.90448e-05
5.74306e-05
7.10915e-05
6.99588e-05
7.3534e-05
7.10951e-05
7.34372e-05
7.1115e-05
7.3298e-05
6.99562e-05
7.11112e-05
7.33989e-05
6.97701e-05
5.08211e-05
6.90592e-05
5.77782e-05
6.97821e-05
6.90471e-05
5.75711e-05
6.9768e-05
6.90342e-05
5.72131e-05
5.05844e-05
6.97564e-05
6.90443e-05
5.74283e-05
7.10906e-05
6.99556e-05
7.35131e-05
7.34177e-05
7.10941e-05
7.11141e-05
7.32793e-05
6.99531e-05
7.11105e-05
7.33791e-05
6.97692e-05
5.08205e-05
6.90586e-05
5.77756e-05
6.90467e-05
5.75666e-05
6.97811e-05
8.65151e-05
7.26123e-05
7.26175e-05
7.26115e-05
7.26167e-05
8.66102e-05
5.45453e-05
5.75477e-05
6.8499e-05
3.58262e-05
5.44749e-05
5.7541e-05
3.5807e-05
6.84884e-05
8.64642e-05
7.2635e-05
7.26402e-05
5.47904e-05
6.85475e-05
5.76951e-05
3.62573e-05
6.85164e-05
3.61212e-05
5.48986e-05
5.47214e-05
6.85368e-05
5.76884e-05
3.62378e-05
3.61012e-05
6.85066e-05
5.48314e-05
6.97935e-05
6.97736e-05
6.97334e-05
6.97525e-05
8.67503e-05
7.25889e-05
7.25941e-05
8.66589e-05
7.25897e-05
7.25948e-05
5.54752e-05
3.71027e-05
5.81176e-05
6.86396e-05
3.69698e-05
6.86106e-05
5.55779e-05
5.54053e-05
3.70837e-05
5.81114e-05
6.86288e-05
6.86003e-05
3.69491e-05
5.55102e-05
5.52434e-05
6.85642e-05
3.65475e-05
5.79789e-05
3.66828e-05
5.51375e-05
6.85943e-05
5.51746e-05
6.85539e-05
3.65277e-05
5.79725e-05
5.50683e-05
6.85838e-05
3.66634e-05
8.67974e-05
7.25671e-05
7.25721e-05
7.25663e-05
7.25714e-05
8.68852e-05
6.97315e-05
6.97507e-05
6.97441e-05
4.98474e-05
6.90332e-05
5.70638e-05
6.90253e-05
5.68451e-05
6.97553e-05
7.11526e-05
7.29746e-05
6.99175e-05
7.11487e-05
7.30868e-05
6.97434e-05
4.95927e-05
6.90188e-05
5.64615e-05
6.90251e-05
6.97329e-05
5.66868e-05
7.1129e-05
7.32356e-05
6.99203e-05
7.31284e-05
7.11328e-05
6.97691e-05
5.72164e-05
6.90352e-05
5.0587e-05
6.97574e-05
5.74308e-05
6.90452e-05
7.10916e-05
6.99598e-05
7.35304e-05
7.10952e-05
7.34355e-05
7.11151e-05
7.32972e-05
6.99571e-05
7.11114e-05
7.33958e-05
6.97703e-05
5.08208e-05
5.77785e-05
6.90596e-05
6.97823e-05
5.75698e-05
6.90477e-05
6.97679e-05
6.90346e-05
5.72133e-05
5.05862e-05
6.97563e-05
6.90447e-05
5.74256e-05
7.10894e-05
6.99555e-05
7.3511e-05
7.34141e-05
7.10929e-05
7.11128e-05
7.32744e-05
6.99531e-05
7.11092e-05
7.33752e-05
6.97691e-05
5.08201e-05
6.90592e-05
5.77729e-05
6.9047e-05
5.75667e-05
6.9781e-05
6.97437e-05
4.98558e-05
5.70472e-05
6.90323e-05
5.68582e-05
6.90246e-05
6.97546e-05
7.11287e-05
7.32473e-05
6.99221e-05
7.31421e-05
7.11332e-05
6.97433e-05
4.98511e-05
6.90322e-05
5.70619e-05
6.90244e-05
5.68459e-05
6.97544e-05
7.11286e-05
7.32326e-05
6.99189e-05
7.31286e-05
7.11324e-05
6.97673e-05
5.72256e-05
6.90338e-05
5.05712e-05
6.97558e-05
5.74103e-05
6.90437e-05
7.1089e-05
6.99575e-05
7.35222e-05
7.34267e-05
7.10932e-05
7.11132e-05
7.32885e-05
6.99552e-05
7.11089e-05
7.3388e-05
6.97686e-05
5.08281e-05
5.77586e-05
6.90581e-05
5.75782e-05
6.90463e-05
6.97804e-05
6.9767e-05
6.90336e-05
5.72141e-05
5.05797e-05
6.97554e-05
6.90436e-05
5.74242e-05
7.1089e-05
6.99544e-05
7.35073e-05
7.34131e-05
7.10926e-05
7.11125e-05
7.32746e-05
6.99519e-05
7.11089e-05
7.3373e-05
6.97682e-05
5.08236e-05
6.9058e-05
5.77718e-05
6.90461e-05
5.75672e-05
6.97802e-05
8.65114e-05
7.26118e-05
7.26175e-05
7.2611e-05
7.26166e-05
8.66073e-05
5.45451e-05
3.56887e-05
6.84662e-05
5.75469e-05
6.84992e-05
5.44319e-05
3.5829e-05
5.44801e-05
3.56685e-05
6.84553e-05
5.75419e-05
3.58092e-05
5.43595e-05
6.84901e-05
8.64614e-05
7.26335e-05
7.26392e-05
7.26344e-05
8.63594e-05
7.26401e-05
5.47898e-05
6.85473e-05
5.76958e-05
3.62587e-05
6.85156e-05
3.61201e-05
5.48997e-05
5.47188e-05
6.85382e-05
5.76893e-05
3.6239e-05
3.61004e-05
6.85044e-05
5.48356e-05
6.97937e-05
6.97741e-05
6.97335e-05
6.97524e-05
8.67478e-05
7.25884e-05
7.2594e-05
8.66549e-05
7.25891e-05
7.25947e-05
5.54743e-05
3.71042e-05
5.81185e-05
6.86405e-05
3.69696e-05
6.86081e-05
5.55784e-05
5.54038e-05
3.70848e-05
5.81122e-05
6.86302e-05
6.85982e-05
3.69493e-05
5.55133e-05
5.52445e-05
6.85631e-05
3.65475e-05
5.7979e-05
3.66831e-05
5.51367e-05
6.85949e-05
5.5179e-05
6.85522e-05
3.65276e-05
5.79736e-05
5.50656e-05
6.85849e-05
3.66645e-05
8.67933e-05
7.25664e-05
7.25721e-05
7.25657e-05
7.25714e-05
8.68825e-05
6.97319e-05
6.97509e-05
6.97444e-05
4.98551e-05
5.70647e-05
6.9033e-05
5.68503e-05
6.90251e-05
6.97555e-05
7.11537e-05
7.29939e-05
6.99203e-05
7.31025e-05
7.11499e-05
6.97436e-05
4.95854e-05
5.6467e-05
6.90186e-05
5.66874e-05
6.97331e-05
6.90248e-05
7.11302e-05
7.32505e-05
6.99231e-05
7.31465e-05
7.11339e-05
6.97446e-05
4.98546e-05
5.70637e-05
6.9033e-05
5.68457e-05
6.90251e-05
6.97557e-05
7.11545e-05
7.29816e-05
6.99185e-05
7.11508e-05
7.30844e-05
6.97438e-05
4.9585e-05
5.64624e-05
6.90186e-05
6.97333e-05
5.66866e-05
6.90248e-05
7.1131e-05
7.32309e-05
6.99214e-05
7.31354e-05
7.11346e-05
6.97682e-05
5.72186e-05
6.90344e-05
5.05787e-05
6.97566e-05
5.7427e-05
6.90445e-05
7.10906e-05
6.99584e-05
7.35266e-05
7.34314e-05
7.10941e-05
7.1114e-05
7.32937e-05
6.99559e-05
7.11105e-05
7.33922e-05
6.97694e-05
5.0828e-05
5.77748e-05
6.9059e-05
5.75717e-05
6.9047e-05
6.97814e-05
6.97684e-05
5.72136e-05
6.90345e-05
5.05782e-05
6.97568e-05
5.7426e-05
6.90445e-05
7.10913e-05
6.99566e-05
7.35056e-05
7.34228e-05
7.10945e-05
7.11147e-05
7.3281e-05
6.9954e-05
7.11112e-05
7.33739e-05
6.97696e-05
5.08273e-05
5.77735e-05
6.9059e-05
5.75669e-05
6.90471e-05
6.97816e-05
6.97934e-05
6.97738e-05
6.97957e-05
6.97761e-05
8.67495e-05
7.25935e-05
7.25873e-05
8.66516e-05
7.25942e-05
7.25881e-05
5.54032e-05
3.70887e-05
5.81086e-05
6.86296e-05
5.55146e-05
3.69481e-05
6.85964e-05
5.54711e-05
3.71055e-05
5.81182e-05
6.86414e-05
5.55818e-05
3.69696e-05
6.86079e-05
5.5182e-05
6.85506e-05
3.65274e-05
5.79699e-05
5.50656e-05
3.66672e-05
6.85843e-05
5.52493e-05
6.85621e-05
3.65457e-05
5.79798e-05
5.51336e-05
3.66844e-05
6.85959e-05
8.67897e-05
7.25715e-05
7.25654e-05
8.68838e-05
7.25708e-05
7.25647e-05
6.97315e-05
6.97506e-05
6.97339e-05
6.97529e-05
6.9709e-05
6.96907e-05
6.97113e-05
6.96928e-05
8.70551e-05
7.25276e-05
7.25213e-05
7.25268e-05
7.25205e-05
8.71418e-05
5.58393e-05
3.73671e-05
6.86424e-05
5.83758e-05
5.57292e-05
6.8674e-05
3.74991e-05
5.59041e-05
3.73857e-05
6.86549e-05
5.83878e-05
5.57988e-05
6.86861e-05
3.75172e-05
8.70176e-05
7.25494e-05
7.2543e-05
8.69272e-05
7.25501e-05
7.25437e-05
5.60445e-05
6.87164e-05
5.85063e-05
3.79112e-05
6.86853e-05
5.61571e-05
3.7778e-05
5.61158e-05
6.87285e-05
5.85179e-05
3.79269e-05
6.8698e-05
5.62224e-05
3.77976e-05
6.9796e-05
5.1725e-05
6.90938e-05
5.84279e-05
6.90802e-05
5.82304e-05
6.98082e-05
7.1074e-05
7.3551e-05
6.99877e-05
7.10707e-05
7.364e-05
6.97946e-05
5.15092e-05
6.9062e-05
5.79055e-05
6.90753e-05
6.97824e-05
5.81086e-05
7.10506e-05
7.37604e-05
6.999e-05
7.36758e-05
7.10538e-05
8.70561e-05
7.25218e-05
7.25269e-05
7.25212e-05
7.25263e-05
8.71394e-05
5.59015e-05
3.73867e-05
6.8655e-05
5.83823e-05
6.86829e-05
5.58023e-05
3.75176e-05
5.58325e-05
3.73659e-05
6.86444e-05
5.83765e-05
3.74991e-05
5.57329e-05
6.86725e-05
8.70143e-05
7.25438e-05
7.25488e-05
7.25444e-05
8.69294e-05
7.25495e-05
5.61186e-05
6.87248e-05
5.85131e-05
3.79278e-05
6.86983e-05
3.77986e-05
5.62233e-05
5.60498e-05
6.87143e-05
5.85071e-05
3.7909e-05
3.77776e-05
6.86878e-05
5.61541e-05
6.97094e-05
6.96907e-05
6.97958e-05
5.17247e-05
6.90962e-05
5.84256e-05
6.90786e-05
5.82303e-05
6.98081e-05
7.10728e-05
7.35449e-05
6.99877e-05
7.10694e-05
7.36378e-05
6.97945e-05
5.15106e-05
6.9062e-05
5.79056e-05
6.90764e-05
6.97823e-05
5.81062e-05
7.10494e-05
7.37593e-05
6.99899e-05
7.36711e-05
7.10527e-05
6.97954e-05
5.17323e-05
5.84132e-05
6.90931e-05
5.82403e-05
6.90798e-05
6.98074e-05
7.10731e-05
7.35593e-05
6.99897e-05
7.36499e-05
7.1069e-05
6.97938e-05
5.14968e-05
5.79162e-05
6.90616e-05
5.80926e-05
6.97819e-05
6.90748e-05
7.1049e-05
7.37717e-05
6.9992e-05
7.36834e-05
7.1053e-05
6.9795e-05
5.1728e-05
6.90929e-05
5.84247e-05
6.90797e-05
5.82306e-05
6.98072e-05
7.10725e-05
7.35452e-05
6.99863e-05
7.10691e-05
7.36344e-05
6.97936e-05
5.15047e-05
6.90615e-05
5.7906e-05
6.97815e-05
6.90747e-05
5.81052e-05
7.10491e-05
7.3755e-05
6.99888e-05
7.36704e-05
7.10523e-05
8.70541e-05
7.25212e-05
7.25268e-05
7.25206e-05
7.25262e-05
8.7134e-05
5.59034e-05
3.73866e-05
6.8653e-05
5.83833e-05
6.86845e-05
5.58009e-05
3.75202e-05
5.58359e-05
3.73666e-05
6.8643e-05
5.83776e-05
3.75005e-05
5.57311e-05
6.86738e-05
8.70107e-05
7.25431e-05
7.25487e-05
7.25438e-05
8.69263e-05
7.25494e-05
5.61187e-05
6.87267e-05
5.8514e-05
3.79318e-05
6.8696e-05
3.77967e-05
5.62165e-05
5.605e-05
6.87161e-05
5.85081e-05
3.79104e-05
3.77781e-05
6.8686e-05
5.61477e-05
6.97096e-05
6.96911e-05
6.97963e-05
5.17326e-05
5.84278e-05
6.90941e-05
5.82351e-05
6.90806e-05
6.98086e-05
7.10741e-05
7.35646e-05
6.99905e-05
7.36537e-05
7.10708e-05
6.9795e-05
5.15031e-05
5.79104e-05
6.90624e-05
5.81081e-05
6.97828e-05
6.90757e-05
7.10508e-05
7.3774e-05
6.99929e-05
7.36898e-05
7.1054e-05
6.97964e-05
5.17322e-05
5.84262e-05
6.90941e-05
5.82305e-05
6.90807e-05
6.98086e-05
7.10745e-05
7.35523e-05
6.99885e-05
7.10712e-05
7.36338e-05
6.9795e-05
5.15023e-05
5.79058e-05
6.90625e-05
6.97829e-05
5.81069e-05
6.90757e-05
7.10511e-05
7.3753e-05
6.99908e-05
7.36791e-05
7.10543e-05
6.97093e-05
6.96908e-05
6.97116e-05
6.96931e-05
1.59857e-05
1.59859e-05
1.56004e-05
1.58592e-05
1.58594e-05
1.62836e-05
1.64158e-05
3.44381e-05
1.72694e-05
2.2637e-05
2.26431e-05
1.54944e-05
1.54946e-05
1.51929e-05
1.53774e-05
1.53776e-05
1.57732e-05
1.58981e-05
3.61917e-05
2.36613e-05
2.36704e-05
1.76328e-05
3.60459e-05
2.3768e-05
2.37636e-05
3.44333e-05
2.256e-05
2.25629e-05
1.72589e-05
3.42808e-05
2.26222e-05
2.26253e-05
3.56098e-05
1.75122e-05
2.34557e-05
2.34577e-05
2.33882e-05
2.33925e-05
3.57544e-05
3.44217e-05
1.72598e-05
2.2627e-05
2.26392e-05
3.56172e-05
1.75144e-05
2.3474e-05
2.34611e-05
2.33809e-05
2.33873e-05
3.57488e-05
3.44345e-05
2.25639e-05
2.25462e-05
1.72609e-05
2.26422e-05
3.42793e-05
2.26258e-05
3.56102e-05
1.75142e-05
2.34578e-05
2.34678e-05
2.33942e-05
2.33761e-05
3.57567e-05
3.56099e-05
1.75013e-05
2.34765e-05
2.34751e-05
3.57584e-05
2.33728e-05
2.33807e-05
3.61877e-05
2.36746e-05
2.36806e-05
1.76175e-05
3.60454e-05
2.37519e-05
2.37526e-05
3.61811e-05
2.36712e-05
2.36785e-05
1.76189e-05
2.37462e-05
3.60516e-05
2.37719e-05
3.6188e-05
2.36822e-05
2.3668e-05
1.76185e-05
2.37609e-05
3.6046e-05
2.37485e-05
1.59856e-05
1.59859e-05
1.56005e-05
1.58592e-05
1.58595e-05
1.62836e-05
1.64158e-05
1.59854e-05
1.59857e-05
1.56002e-05
1.5859e-05
1.58592e-05
1.62834e-05
1.64157e-05
1.59855e-05
1.59856e-05
1.56002e-05
1.58591e-05
1.58592e-05
1.62834e-05
1.64157e-05
1.54942e-05
1.56136e-05
1.56138e-05
1.57353e-05
1.57355e-05
1.61533e-05
1.60248e-05
1.54942e-05
1.56136e-05
1.56139e-05
1.57353e-05
1.57356e-05
1.61533e-05
1.60248e-05
1.5494e-05
1.56134e-05
1.56136e-05
1.57351e-05
1.57353e-05
1.61531e-05
1.60246e-05
1.5494e-05
1.56135e-05
1.56136e-05
1.57352e-05
1.57353e-05
1.61531e-05
1.60246e-05
1.82866e-05
2.58795e-05
3.01464e-05
1.69995e-05
3.00142e-05
1.69706e-05
1.83312e-05
2.07011e-05
3.69427e-05
4.28135e-05
2.5363e-05
2.52534e-05
3.68046e-05
2.07721e-05
1.82986e-05
2.58832e-05
1.69925e-05
3.01555e-05
1.69785e-05
3.00134e-05
1.83154e-05
2.05691e-05
2.49421e-05
3.63998e-05
4.25712e-05
2.05009e-05
2.5045e-05
3.6532e-05
1.81862e-05
2.56189e-05
1.68903e-05
2.95904e-05
1.81707e-05
1.69038e-05
2.97287e-05
2.07023e-05
3.69532e-05
4.28164e-05
2.53699e-05
2.52568e-05
3.68117e-05
2.07698e-05
3.47289e-05
1.73282e-05
2.29142e-05
2.29173e-05
2.28173e-05
2.28203e-05
3.48816e-05
1.54944e-05
1.54947e-05
1.5193e-05
1.53774e-05
1.53777e-05
1.57732e-05
1.58981e-05
1.54942e-05
1.54944e-05
1.51928e-05
1.53772e-05
1.53774e-05
1.5773e-05
1.58979e-05
1.54943e-05
1.54944e-05
1.51928e-05
1.53773e-05
1.53774e-05
1.5773e-05
1.58979e-05
1.88799e-05
2.75212e-05
3.18565e-05
1.74393e-05
3.1724e-05
1.73991e-05
1.89423e-05
2.14297e-05
2.62232e-05
3.80217e-05
4.39944e-05
2.13505e-05
2.63373e-05
3.81574e-05
1.87716e-05
2.72397e-05
3.12971e-05
1.72791e-05
1.87212e-05
3.14285e-05
1.73137e-05
2.15788e-05
3.85635e-05
4.42219e-05
2.66731e-05
2.65581e-05
3.84166e-05
2.16694e-05
1.88968e-05
2.75222e-05
1.74257e-05
3.18663e-05
1.74092e-05
3.17226e-05
1.89161e-05
2.1422e-05
2.62268e-05
3.80262e-05
4.39961e-05
2.13554e-05
2.63358e-05
3.81534e-05
1.87591e-05
2.72436e-05
1.7287e-05
3.12949e-05
1.87365e-05
1.7306e-05
3.1437e-05
2.15913e-05
3.85417e-05
4.42229e-05
2.66645e-05
2.65647e-05
3.84322e-05
2.16316e-05
3.64751e-05
1.77114e-05
2.40715e-05
2.40686e-05
2.39584e-05
2.39685e-05
3.66199e-05
3.47281e-05
1.73329e-05
2.28927e-05
2.29003e-05
3.48774e-05
2.28301e-05
2.28333e-05
3.53199e-05
1.7424e-05
2.31052e-05
2.31097e-05
3.51711e-05
2.31779e-05
2.31739e-05
1.83019e-05
2.58896e-05
3.01515e-05
1.69921e-05
3.00193e-05
1.69792e-05
1.83187e-05
2.05703e-05
2.4939e-05
3.63959e-05
4.25719e-05
3.65405e-05
2.05018e-05
2.50508e-05
1.81879e-05
2.56148e-05
2.95947e-05
1.68912e-05
2.97253e-05
1.81733e-05
1.69035e-05
2.07038e-05
3.69537e-05
4.28151e-05
2.53685e-05
3.68107e-05
2.52552e-05
2.07717e-05
1.82874e-05
2.58889e-05
3.01488e-05
1.69911e-05
3.00157e-05
1.69779e-05
1.83309e-05
2.05647e-05
2.49568e-05
3.63922e-05
4.25754e-05
2.05053e-05
3.65323e-05
2.50412e-05
1.81995e-05
2.56137e-05
2.95908e-05
1.68903e-05
1.81588e-05
2.9723e-05
1.69024e-05
2.07066e-05
3.69408e-05
4.28177e-05
2.5355e-05
3.68052e-05
2.07657e-05
2.52714e-05
1.8459e-05
3.0446e-05
1.70726e-05
2.64166e-05
1.84409e-05
3.05769e-05
1.70877e-05
2.11302e-05
2.60112e-05
4.35318e-05
3.77646e-05
2.58981e-05
3.76241e-05
2.12005e-05
2.09829e-05
3.72182e-05
2.55732e-05
4.32945e-05
2.56817e-05
2.0912e-05
3.7354e-05
1.85857e-05
2.66981e-05
3.10043e-05
1.71927e-05
3.08742e-05
1.71764e-05
1.8605e-05
1.84718e-05
3.04424e-05
1.70715e-05
2.64174e-05
1.84274e-05
3.05745e-05
1.70869e-05
2.11316e-05
2.60033e-05
4.35328e-05
3.77529e-05
3.76171e-05
2.59153e-05
2.11954e-05
2.09786e-05
3.72163e-05
2.55905e-05
4.32993e-05
2.09151e-05
3.73509e-05
2.568e-05
1.85701e-05
2.66974e-05
3.1002e-05
1.71913e-05
3.08702e-05
1.7175e-05
1.86162e-05
3.47373e-05
1.73378e-05
2.29118e-05
2.29013e-05
2.28288e-05
2.28238e-05
3.48697e-05
3.53109e-05
1.74247e-05
2.31002e-05
2.31059e-05
2.31881e-05
3.51786e-05
2.31756e-05
1.82895e-05
2.58868e-05
3.01567e-05
1.70009e-05
3.00112e-05
1.69707e-05
1.83348e-05
2.05699e-05
2.49543e-05
3.63966e-05
4.25759e-05
3.65377e-05
2.05015e-05
2.50408e-05
1.82022e-05
2.56162e-05
2.95887e-05
1.6884e-05
2.97302e-05
1.81604e-05
1.69114e-05
2.07042e-05
3.69523e-05
4.28179e-05
2.53604e-05
3.68102e-05
2.52682e-05
2.07724e-05
1.82989e-05
2.58878e-05
1.7e-05
3.01476e-05
1.69705e-05
3.00175e-05
1.83155e-05
2.05688e-05
2.4944e-05
3.6389e-05
4.25745e-05
2.05001e-05
3.65347e-05
2.50562e-05
1.81857e-05
2.56152e-05
1.68837e-05
2.95915e-05
1.81707e-05
1.69105e-05
2.97226e-05
2.07021e-05
3.69456e-05
4.28184e-05
2.53688e-05
3.68043e-05
2.0769e-05
2.52604e-05
1.84759e-05
3.04387e-05
1.70651e-05
2.64173e-05
1.84301e-05
3.05825e-05
1.7097e-05
2.11314e-05
2.60066e-05
4.35343e-05
3.77639e-05
2.59131e-05
3.76223e-05
2.11992e-05
2.09823e-05
3.72181e-05
2.55891e-05
4.32984e-05
2.56753e-05
2.09123e-05
3.73549e-05
1.85735e-05
2.6697e-05
3.10099e-05
1.72024e-05
3.0866e-05
1.71677e-05
1.86198e-05
1.84558e-05
1.70645e-05
3.0444e-05
2.64161e-05
1.84373e-05
1.70957e-05
3.05732e-05
2.11285e-05
2.60151e-05
4.35345e-05
3.77512e-05
3.7621e-05
2.59029e-05
2.11985e-05
2.09818e-05
3.72127e-05
2.55806e-05
4.32984e-05
2.09109e-05
3.73456e-05
2.56878e-05
1.85821e-05
2.66976e-05
1.72011e-05
3.10017e-05
1.71673e-05
3.08717e-05
1.86019e-05
1.8288e-05
2.5886e-05
1.69991e-05
3.01486e-05
1.69697e-05
3.00119e-05
1.83306e-05
2.07042e-05
3.69366e-05
4.2812e-05
2.53491e-05
2.52667e-05
3.68007e-05
2.07639e-05
1.84718e-05
3.04414e-05
1.70653e-05
2.64178e-05
1.84264e-05
3.05721e-05
1.7095e-05
2.11282e-05
2.60101e-05
4.35294e-05
3.77546e-05
2.12012e-05
2.58952e-05
3.76198e-05
2.09849e-05
3.7217e-05
2.55741e-05
4.32947e-05
2.09115e-05
2.56805e-05
3.73496e-05
1.85699e-05
2.66901e-05
3.09978e-05
1.72001e-05
1.86145e-05
3.08689e-05
1.71676e-05
1.84722e-05
1.70654e-05
3.04404e-05
2.64153e-05
1.84277e-05
1.70962e-05
3.05781e-05
2.11312e-05
2.59967e-05
4.35301e-05
3.77454e-05
3.76178e-05
2.59099e-05
2.11943e-05
2.09796e-05
3.72157e-05
2.55835e-05
4.32951e-05
2.09148e-05
3.73463e-05
2.56748e-05
1.85716e-05
2.66954e-05
1.72012e-05
3.10042e-05
1.71677e-05
3.08656e-05
1.8617e-05
3.47285e-05
1.73376e-05
2.28976e-05
2.29068e-05
2.28191e-05
2.28339e-05
3.48776e-05
3.53214e-05
1.74249e-05
2.31101e-05
2.30964e-05
2.31798e-05
3.51712e-05
2.31842e-05
1.83005e-05
2.58881e-05
1.69923e-05
3.01478e-05
1.69785e-05
3.00165e-05
1.83173e-05
2.05548e-05
2.49445e-05
3.64025e-05
4.25761e-05
2.50546e-05
2.05146e-05
3.65184e-05
1.81874e-05
2.5615e-05
1.68906e-05
2.95917e-05
1.69037e-05
1.81719e-05
2.97226e-05
2.07149e-05
3.69299e-05
4.28186e-05
2.53728e-05
2.52616e-05
3.68145e-05
2.07559e-05
1.84576e-05
1.70719e-05
3.04406e-05
2.64204e-05
1.84386e-05
1.70876e-05
3.05818e-05
2.11285e-05
2.6014e-05
4.35324e-05
3.77623e-05
2.11987e-05
2.58982e-05
3.76266e-05
2.09816e-05
3.72181e-05
2.55736e-05
4.32957e-05
2.09107e-05
2.56808e-05
3.73503e-05
1.85834e-05
2.66932e-05
1.71905e-05
3.10106e-05
1.86043e-05
1.71754e-05
3.08676e-05
1.8459e-05
1.70721e-05
3.04431e-05
2.64174e-05
1.84396e-05
1.7088e-05
3.0575e-05
2.11417e-05
2.60183e-05
4.35357e-05
3.77411e-05
3.76324e-05
2.59031e-05
2.11849e-05
2.09654e-05
3.72239e-05
2.55794e-05
4.32982e-05
2.09232e-05
3.73389e-05
2.56882e-05
1.85847e-05
2.66971e-05
1.71924e-05
3.10031e-05
1.71761e-05
3.08702e-05
1.86051e-05
3.53249e-05
1.74302e-05
2.30942e-05
2.30984e-05
3.51715e-05
2.31864e-05
2.3188e-05
3.64722e-05
1.77207e-05
2.40481e-05
2.40483e-05
3.66201e-05
2.39693e-05
2.39734e-05
1.88987e-05
2.75282e-05
3.186e-05
1.7427e-05
3.17295e-05
1.74091e-05
1.8918e-05
2.14061e-05
2.62298e-05
3.80273e-05
4.39944e-05
3.81594e-05
2.13606e-05
2.63351e-05
1.87586e-05
2.72392e-05
3.13018e-05
1.72879e-05
3.14326e-05
1.87372e-05
1.73072e-05
2.15983e-05
3.85534e-05
4.42236e-05
2.66581e-05
3.84256e-05
2.6565e-05
2.16373e-05
1.88814e-05
2.75253e-05
3.18573e-05
1.74265e-05
3.17267e-05
1.74079e-05
1.89409e-05
2.14244e-05
2.62409e-05
3.8023e-05
4.39997e-05
2.13575e-05
3.81556e-05
2.6343e-05
1.87717e-05
2.72408e-05
3.12984e-05
1.72868e-05
1.87231e-05
3.14293e-05
1.73064e-05
2.15835e-05
3.85594e-05
4.4223e-05
2.6672e-05
3.84179e-05
2.16663e-05
2.65677e-05
3.64791e-05
1.77213e-05
2.4073e-05
2.40389e-05
2.39749e-05
2.3961e-05
3.6621e-05
1.88904e-05
2.75259e-05
3.18676e-05
1.74395e-05
3.17212e-05
1.73988e-05
1.89135e-05
2.14067e-05
2.62414e-05
3.80258e-05
4.3998e-05
3.81626e-05
2.1361e-05
2.63348e-05
1.87701e-05
2.72407e-05
3.1295e-05
1.72807e-05
3.14367e-05
1.87271e-05
1.7315e-05
2.15996e-05
3.85627e-05
4.42264e-05
2.66686e-05
3.84212e-05
2.65739e-05
2.16371e-05
1.8895e-05
2.75268e-05
1.74385e-05
3.18581e-05
1.7398e-05
3.17266e-05
1.89149e-05
2.14063e-05
2.62346e-05
3.80255e-05
4.40004e-05
2.13591e-05
3.8152e-05
2.63475e-05
1.87552e-05
2.72407e-05
1.72796e-05
3.12991e-05
1.87335e-05
1.73141e-05
3.14305e-05
2.15962e-05
3.85496e-05
4.42238e-05
2.66854e-05
3.84211e-05
2.16352e-05
2.6565e-05
1.88828e-05
2.75244e-05
1.74389e-05
3.18579e-05
1.73982e-05
3.17217e-05
1.89414e-05
2.14232e-05
2.62357e-05
3.80241e-05
4.39925e-05
2.63377e-05
2.13556e-05
3.81484e-05
1.87722e-05
2.72389e-05
1.72802e-05
3.1294e-05
1.73146e-05
1.87247e-05
3.14312e-05
2.15816e-05
3.85479e-05
4.42234e-05
2.66823e-05
2.65598e-05
3.84194e-05
2.16648e-05
3.64773e-05
1.7721e-05
2.4043e-05
2.40602e-05
2.39598e-05
2.39791e-05
3.66042e-05
1.88992e-05
2.75251e-05
1.7427e-05
3.18602e-05
1.74094e-05
3.17237e-05
1.89195e-05
2.1411e-05
2.62353e-05
3.80316e-05
4.39993e-05
2.63378e-05
2.13673e-05
3.81463e-05
1.87597e-05
2.724e-05
1.72879e-05
3.12975e-05
1.73073e-05
1.87371e-05
3.1432e-05
2.16007e-05
3.85538e-05
4.42249e-05
2.66669e-05
2.65716e-05
3.84245e-05
2.16377e-05
3.60233e-05
3.60197e-05
3.60197e-05
3.60085e-05
3.39295e-05
3.38849e-05
3.38853e-05
3.39586e-05
3.21567e-05
3.20018e-05
3.20016e-05
3.19434e-05
3.05324e-05
3.02209e-05
3.02207e-05
2.99761e-05
2.90295e-05
2.85442e-05
2.85437e-05
2.81081e-05
2.7631e-05
2.69762e-05
2.69755e-05
2.63754e-05
2.63255e-05
2.55192e-05
2.55185e-05
2.47915e-05
2.51051e-05
2.41724e-05
2.4172e-05
2.33635e-05
2.39643e-05
2.29373e-05
2.29371e-05
2.20895e-05
2.28985e-05
2.18128e-05
2.18127e-05
2.097e-05
2.19043e-05
2.07965e-05
2.07965e-05
1.99962e-05
2.09783e-05
1.98856e-05
1.98854e-05
1.91631e-05
2.01155e-05
1.90778e-05
1.90776e-05
1.84694e-05
1.93147e-05
1.83699e-05
1.83696e-05
1.79095e-05
1.85749e-05
1.77587e-05
1.77584e-05
1.74787e-05
1.78936e-05
1.72426e-05
1.72423e-05
1.71671e-05
1.72683e-05
1.68207e-05
1.68205e-05
1.69826e-05
1.6697e-05
1.64922e-05
1.6492e-05
1.69402e-05
1.61784e-05
1.62569e-05
1.62568e-05
1.70326e-05
1.6115e-05
1.72518e-05
3.62977e-05
3.62919e-05
3.62919e-05
3.62977e-05
3.62919e-05
3.62919e-05
3.62908e-05
3.62908e-05
3.62908e-05
3.62908e-05
3.62919e-05
3.62919e-05
3.62977e-05
3.62919e-05
3.62919e-05
3.62977e-05
3.60085e-05
3.42652e-05