/*--------------------------------*- C++ -*----------------------------------*\
| =========                 |                                                 |
| \\      /  F ield         | OpenFOAM: The Open Source CFD Toolbox           |
|  \\    /   O peration     | Version:  2312                                  |
|   \\  /    A nd           | Website:  www.openfoam.com                      |
|    \\/     M anipulation  |                                                 |
\*---------------------------------------------------------------------------*/
FoamFile
{
    version     2.0;
    format      ascii;
    arch        "LSB;label=32;scalar=64";
    class       volScalarField;
    location    "1000";
    object      nut;
}
// * * * * * * * * * * * * * * * * * * * * * * * * * * * * * * * * * * * * * //

dimensions      [0 2 -1 0 0 0 0];

internalField   nonuniform List<scalar> 
43008
(
0.000158326
0.00010854
0.00015417
0.000104787
0.000104783
8.32693e-05
8.52781e-05
8.37271e-05
0.000108516
0.000108503
0.000105631
0.000105618
8.38781e-05
0.000108536
0.000108501
0.000105652
0.000105616
0.000105659
0.000105628
8.52314e-05
8.37685e-05
0.00010853
0.000105654
0.000105644
8.40437e-05
8.35436e-05
0.000104758
0.000104747
8.34702e-05
0.000104778
0.000104744
0.000104758
8.35588e-05
0.000104774
6.51394e-05
4.95065e-05
6.39649e-05
4.95229e-05
2.36525e-05
6.51248e-05
4.95013e-05
6.39736e-05
4.95177e-05
0.000158325
0.000158319
0.000158318
0.000155202
0.0001552
0.000155193
0.000155193
6.16549e-05
0.000107542
6.23381e-05
0.000133384
2.36552e-05
2.36513e-05
6.16497e-05
0.000134455
6.15923e-05
0.000107537
6.08167e-05
0.000133372
6.23636e-05
8.48098e-05
5.93406e-05
5.93398e-05
6.77282e-05
4.95322e-05
6.66852e-05
4.95478e-05
2.36418e-05
2.36381e-05
6.77362e-05
4.95267e-05
6.66923e-05
4.95424e-05
0.000154168
0.00015416
0.00015416
6.41974e-05
6.36961e-05
0.000130148
0.000103914
6.32818e-05
6.44058e-05
0.000129103
2.36409e-05
2.36373e-05
6.42124e-05
0.000130134
6.36895e-05
0.000103908
6.32768e-05
0.000129092
6.43916e-05
6.00617e-05
6.00602e-05
8.34485e-05
6.04238e-05
6.04446e-05
2.36582e-05
2.36546e-05
2.36558e-05
2.36522e-05
5.89441e-05
5.89304e-05
8.45785e-05
5.93275e-05
5.9346e-05
2.36473e-05
2.36513e-05
2.3645e-05
2.36487e-05
8.4288e-05
5.9893e-05
5.99092e-05
5.95269e-05
5.9513e-05
6.51372e-05
4.95011e-05
6.39639e-05
4.95171e-05
6.16001e-05
6.15814e-05
0.000134457
0.000107514
6.0881e-05
6.23481e-05
0.000133375
6.16287e-05
6.15826e-05
0.000134448
0.0001075
6.08448e-05
6.23429e-05
0.000133369
6.53631e-05
4.95357e-05
4.95197e-05
6.6481e-05
6.53625e-05
4.9529e-05
4.95138e-05
6.6479e-05
6.20633e-05
0.000106584
6.33975e-05
0.000131216
6.26513e-05
0.00013228
6.28567e-05
6.20321e-05
0.000106572
6.33892e-05
0.000131209
6.26465e-05
0.000132271
6.28714e-05
8.46663e-05
5.93422e-05
5.9347e-05
2.36535e-05
2.36451e-05
2.3649e-05
8.42649e-05
5.99032e-05
5.99103e-05
5.9507e-05
5.95109e-05
2.36466e-05
2.365e-05
6.16504e-05
6.15756e-05
0.000134452
0.000107535
6.08336e-05
6.23551e-05
0.000133374
6.51368e-05
4.94976e-05
6.39629e-05
4.95141e-05
6.16488e-05
0.000134442
6.15772e-05
0.000107497
6.08364e-05
0.000133362
6.23392e-05
6.53733e-05
4.953e-05
4.95144e-05
6.64723e-05
6.20223e-05
0.000106604
6.34016e-05
0.000131217
6.26441e-05
0.000132277
6.28872e-05
6.53599e-05
4.95262e-05
4.95105e-05
6.64799e-05
6.20269e-05
0.000106569
0.000131203
6.33894e-05
0.000132264
6.26468e-05
6.28715e-05
6.51036e-05
4.95186e-05
6.16294e-05
0.00010751
0.000133378
6.23391e-05
6.51196e-05
4.95146e-05
6.19979e-05
0.000106614
6.33922e-05
0.000131227
6.26545e-05
0.000132292
6.28819e-05
6.53784e-05
4.95312e-05
4.95156e-05
6.64477e-05
6.20233e-05
0.000106582
0.000131221
6.33644e-05
0.000132282
6.26473e-05
6.28741e-05
6.53711e-05
4.95268e-05
4.95118e-05
6.64644e-05
5.89254e-05
5.89305e-05
8.46045e-05
5.93387e-05
5.93463e-05
2.36573e-05
2.36535e-05
2.36442e-05
2.36479e-05
8.43284e-05
5.99022e-05
5.99107e-05
5.9508e-05
5.95133e-05
2.36464e-05
2.365e-05
6.1638e-05
0.000134453
6.15737e-05
0.000107526
6.08336e-05
0.000133373
6.23536e-05
6.51205e-05
4.95026e-05
6.39788e-05
4.95189e-05
6.51196e-05
4.94972e-05
6.3978e-05
4.95135e-05
6.20062e-05
0.000106608
0.000131216
6.34149e-05
0.000132276
6.26477e-05
6.28967e-05
6.20166e-05
0.000106598
0.000131215
6.33938e-05
0.000132277
6.26418e-05
6.28885e-05
6.5377e-05
4.95311e-05
4.95154e-05
6.64652e-05
6.53749e-05
4.95256e-05
4.951e-05
6.64637e-05
2.36521e-05
2.3651e-05
8.41937e-05
5.99045e-05
5.99047e-05
5.95083e-05
5.95086e-05
2.3645e-05
2.36486e-05
2.36439e-05
2.36476e-05
2.3644e-05
2.36402e-05
2.36417e-05
2.36381e-05
6.00816e-05
6.00687e-05
8.30397e-05
6.04293e-05
6.04285e-05
6.77437e-05
4.95262e-05
6.66835e-05
4.95421e-05
6.41882e-05
6.37077e-05
0.000130136
0.000103885
6.33334e-05
6.43717e-05
0.000129092
6.4191e-05
6.36982e-05
0.000130128
0.000103875
6.3304e-05
6.44e-05
0.000129086
6.00618e-05
6.00654e-05
8.30084e-05
6.04216e-05
6.04533e-05
2.36432e-05
2.36397e-05
6.42206e-05
6.36997e-05
0.000130135
0.000103905
6.32994e-05
6.43745e-05
0.000129092
6.77298e-05
4.95231e-05
6.66813e-05
4.9539e-05
6.41949e-05
0.00013012
6.36942e-05
0.000103869
6.3303e-05
0.000129079
6.4425e-05
6.76977e-05
4.95279e-05
6.66989e-05
4.95437e-05
6.41376e-05
0.00013014
6.37189e-05
0.000103887
6.32929e-05
0.000129099
6.43638e-05
6.77056e-05
4.9524e-05
6.66912e-05
4.95392e-05
6.00627e-05
6.00675e-05
8.30381e-05
6.04455e-05
6.04528e-05
2.3643e-05
2.36395e-05
6.42139e-05
0.000130134
6.36951e-05
0.000103901
6.32941e-05
0.000129093
6.44333e-05
6.77256e-05
4.95281e-05
6.66979e-05
4.95435e-05
6.77114e-05
4.95226e-05
6.66968e-05
4.95381e-05
2.36416e-05
2.3638e-05
2.36405e-05
2.3637e-05
3.61704e-05
6.46715e-05
4.03051e-05
6.75543e-05
4.03028e-05
6.71502e-05
3.61733e-05
2.02411e-05
6.67428e-05
4.95166e-05
2.02405e-05
6.69463e-05
3.61702e-05
6.44387e-05
4.03009e-05
6.6632e-05
3.61674e-05
4.03028e-05
6.70436e-05
2.02377e-05
6.71667e-05
4.95133e-05
6.69676e-05
2.02383e-05
2.36561e-05
2.36526e-05
3.61702e-05
6.46837e-05
6.7554e-05
4.03046e-05
6.71453e-05
4.03024e-05
3.61732e-05
2.02414e-05
6.67469e-05
4.95114e-05
2.02408e-05
6.69346e-05
3.61701e-05
6.44273e-05
6.66282e-05
4.03004e-05
3.61673e-05
6.70438e-05
4.03023e-05
2.0238e-05
6.71466e-05
4.95081e-05
6.69732e-05
2.02386e-05
2.36549e-05
2.36515e-05
6.93105e-05
2.15791e-05
2.15759e-05
2.15789e-05
2.15757e-05
6.94772e-05
7.01972e-05
5.90493e-05
6.60551e-05
4.70418e-05
7.02435e-05
5.90491e-05
6.60725e-05
4.70324e-05
6.92645e-05
2.15824e-05
2.15793e-05
7.04863e-05
4.70581e-05
5.92182e-05
6.67039e-05
6.64448e-05
4.70424e-05
7.06959e-05
7.05337e-05
4.70488e-05
5.9218e-05
6.67177e-05
6.64513e-05
4.70332e-05
7.07412e-05
3.61837e-05
6.73197e-05
4.03255e-05
6.94502e-05
4.03164e-05
6.90739e-05
3.61871e-05
2.02298e-05
6.75947e-05
4.95415e-05
2.02293e-05
6.77636e-05
3.61835e-05
6.71221e-05
4.03129e-05
6.86146e-05
3.61803e-05
4.03184e-05
6.89982e-05
2.02265e-05
6.79554e-05
4.95384e-05
6.77915e-05
2.0227e-05
2.36416e-05
2.36383e-05
3.61837e-05
6.73238e-05
6.94534e-05
4.03249e-05
6.90664e-05
4.03163e-05
3.6187e-05
2.02301e-05
6.75962e-05
4.9536e-05
2.02296e-05
6.77574e-05
3.61834e-05
6.71158e-05
6.86095e-05
4.03128e-05
3.61802e-05
6.89998e-05
4.03177e-05
2.02268e-05
6.79473e-05
4.9533e-05
6.77924e-05
2.02273e-05
2.36407e-05
2.36375e-05
7.01168e-05
2.15656e-05
2.15625e-05
2.15655e-05
2.15623e-05
7.02655e-05
7.21353e-05
6.83821e-05
4.709e-05
6.01779e-05
7.19427e-05
6.86524e-05
4.71049e-05
7.21442e-05
6.84072e-05
4.70809e-05
6.01769e-05
7.19986e-05
6.86436e-05
4.70954e-05
7.00764e-05
2.15688e-05
2.15657e-05
6.99244e-05
2.1569e-05
2.15658e-05
7.23946e-05
4.712e-05
6.0333e-05
6.92878e-05
6.90274e-05
4.71048e-05
7.25978e-05
7.24688e-05
4.71103e-05
6.03282e-05
6.92479e-05
6.90635e-05
4.70958e-05
7.25882e-05
2.36581e-05
2.36549e-05
2.36557e-05
2.36523e-05
6.93162e-05
2.15797e-05
2.15764e-05
2.15795e-05
2.15763e-05
6.94817e-05
7.01971e-05
6.58155e-05
4.70288e-05
5.90343e-05
6.99877e-05
4.70445e-05
6.60398e-05
7.02356e-05
6.58267e-05
4.70177e-05
5.90567e-05
7.00323e-05
4.70335e-05
6.60448e-05
6.92689e-05
2.15828e-05
2.15795e-05
6.90972e-05
2.15831e-05
2.15798e-05
7.049e-05
4.70609e-05
5.9238e-05
6.66856e-05
4.70455e-05
7.06976e-05
6.64617e-05
7.05385e-05
4.705e-05
5.92236e-05
6.66919e-05
4.70347e-05
7.07368e-05
6.64715e-05
2.36477e-05
2.3651e-05
2.36452e-05
2.36485e-05
6.96869e-05
2.15762e-05
2.15729e-05
6.95292e-05
2.15765e-05
2.1573e-05
7.14625e-05
6.79904e-05
5.98078e-05
4.70926e-05
4.70774e-05
6.77563e-05
7.16626e-05
7.15144e-05
6.80075e-05
5.97911e-05
4.70816e-05
4.70664e-05
6.77601e-05
7.17036e-05
7.11875e-05
4.7062e-05
6.71092e-05
5.96165e-05
7.09822e-05
4.70769e-05
6.73397e-05
7.1223e-05
4.70509e-05
6.71174e-05
5.96313e-05
7.10318e-05
4.70657e-05
6.73526e-05
6.97326e-05
2.15733e-05
2.15697e-05
2.15732e-05
2.15695e-05
6.98886e-05
3.61689e-05
6.46719e-05
4.0305e-05
6.75452e-05
4.03026e-05
6.7144e-05
3.61718e-05
2.02404e-05
6.67353e-05
4.95109e-05
2.02398e-05
6.69143e-05
3.61687e-05
6.44371e-05
4.03007e-05
6.66268e-05
4.03026e-05
3.6166e-05
6.70347e-05
2.0237e-05
6.71286e-05
4.95076e-05
6.69539e-05
2.02375e-05
3.61766e-05
4.03054e-05
6.76535e-05
6.58181e-05
3.61735e-05
4.03085e-05
6.80485e-05
2.02321e-05
4.95257e-05
6.75689e-05
2.02327e-05
6.73916e-05
2.02354e-05
6.71799e-05
4.95287e-05
2.02348e-05
6.73628e-05
3.61768e-05
6.6035e-05
4.03129e-05
6.85314e-05
3.618e-05
4.0309e-05
6.8142e-05
3.61751e-05
4.03053e-05
6.76471e-05
6.58175e-05
3.61721e-05
4.03083e-05
6.80407e-05
2.02314e-05
4.95192e-05
6.75417e-05
6.73756e-05
2.0232e-05
2.02347e-05
6.71679e-05
4.95227e-05
2.02341e-05
6.73403e-05
3.61754e-05
6.60327e-05
4.03125e-05
6.85209e-05
4.03089e-05
6.81357e-05
3.61784e-05
6.93218e-05
2.15764e-05
2.15793e-05
2.15763e-05
2.15792e-05
6.94763e-05
7.02017e-05
5.90528e-05
4.70287e-05
6.60338e-05
7.01545e-05
5.90572e-05
6.6023e-05
4.70379e-05
6.92648e-05
2.15795e-05
2.15824e-05
7.05685e-05
4.70455e-05
5.92161e-05
6.66835e-05
4.70388e-05
6.64806e-05
7.07051e-05
7.05219e-05
4.70548e-05
5.92215e-05
6.66679e-05
6.64756e-05
4.70498e-05
7.06603e-05
2.36571e-05
2.36536e-05
2.36454e-05
2.36487e-05
6.96818e-05
2.15729e-05
2.15758e-05
6.95314e-05
2.1573e-05
2.15759e-05
7.15404e-05
6.79712e-05
5.97848e-05
4.70774e-05
6.77845e-05
4.7071e-05
7.16715e-05
7.14929e-05
6.79694e-05
5.9788e-05
4.70868e-05
4.70818e-05
6.77711e-05
7.16306e-05
7.11888e-05
4.70551e-05
6.71254e-05
5.96251e-05
6.73275e-05
7.10563e-05
4.70615e-05
7.11446e-05
4.70654e-05
6.71271e-05
5.96326e-05
7.10131e-05
4.70715e-05
6.7328e-05
6.97361e-05
2.15698e-05
2.15725e-05
2.15696e-05
2.15725e-05
6.98823e-05
2.36467e-05
2.36501e-05
3.61686e-05
6.46704e-05
4.03045e-05
6.75365e-05
4.03021e-05
6.71469e-05
3.61714e-05
2.02405e-05
6.6719e-05
4.95076e-05
2.02399e-05
6.6921e-05
3.61684e-05
6.44373e-05
4.03002e-05
6.66272e-05
4.03021e-05
3.61657e-05
6.70287e-05
2.02371e-05
6.71414e-05
4.95044e-05
6.69436e-05
2.02376e-05
3.61765e-05
6.76485e-05
4.03051e-05
6.58132e-05
3.61734e-05
6.80523e-05
4.0308e-05
2.02324e-05
4.95201e-05
6.75601e-05
2.0233e-05
6.73944e-05
2.02358e-05
6.71884e-05
4.95232e-05
2.02352e-05
6.73575e-05
3.61768e-05
6.60412e-05
6.85331e-05
4.03122e-05
3.61799e-05
6.81366e-05
4.03087e-05
3.61747e-05
4.03048e-05
6.76498e-05
6.5821e-05
3.61717e-05
4.03078e-05
6.80349e-05
2.02314e-05
4.95162e-05
6.75501e-05
6.73682e-05
2.0232e-05
2.02348e-05
6.7156e-05
4.95197e-05
2.02342e-05
6.7338e-05
3.61751e-05
6.60312e-05
4.03122e-05
6.85152e-05
4.03083e-05
6.81367e-05
3.61781e-05
3.61702e-05
6.46879e-05
6.75041e-05
4.0304e-05
6.7179e-05
4.03016e-05
3.6173e-05
2.02381e-05
6.71402e-05
4.95082e-05
6.69599e-05
2.02388e-05
3.61689e-05
6.46829e-05
4.03046e-05
6.75327e-05
4.03023e-05
6.71531e-05
3.61717e-05
2.02372e-05
6.71288e-05
4.95043e-05
6.69391e-05
2.02378e-05
3.61763e-05
6.76778e-05
4.03043e-05
6.57892e-05
3.61734e-05
6.80012e-05
4.03073e-05
2.02324e-05
4.95211e-05
6.75529e-05
6.7382e-05
2.02331e-05
2.02359e-05
6.71744e-05
4.95248e-05
2.02353e-05
6.73497e-05
3.61767e-05
6.60495e-05
6.84842e-05
4.03115e-05
6.81646e-05
4.0308e-05
3.61797e-05
3.6175e-05
4.0305e-05
6.76543e-05
6.58042e-05
3.6172e-05
4.0308e-05
6.80292e-05
2.02315e-05
4.95171e-05
6.75415e-05
6.73655e-05
2.02321e-05
2.02349e-05
6.71609e-05
4.95205e-05
2.02343e-05
6.73422e-05
3.61753e-05
6.6042e-05
4.03121e-05
6.85098e-05
4.03086e-05
6.81422e-05
3.61784e-05
6.93188e-05
2.15766e-05
2.15798e-05
2.15765e-05
2.15797e-05
6.94747e-05
7.02304e-05
6.58197e-05
4.70212e-05
5.90484e-05
4.70301e-05
7.00419e-05
6.60592e-05
7.01922e-05
6.58087e-05
4.70288e-05
5.90565e-05
6.60451e-05
6.99872e-05
4.70447e-05
6.92632e-05
2.15799e-05
2.1583e-05
2.158e-05
6.90993e-05
2.15831e-05
7.05448e-05
4.70465e-05
5.92194e-05
6.67017e-05
4.70382e-05
6.64623e-05
7.07288e-05
7.04938e-05
4.70611e-05
5.92239e-05
6.66905e-05
6.64572e-05
4.70459e-05
7.06967e-05
2.36572e-05
2.36536e-05
2.36444e-05
2.36477e-05
6.96812e-05
2.15732e-05
2.15763e-05
6.9528e-05
2.15733e-05
2.15764e-05
7.15176e-05
6.79986e-05
5.97863e-05
4.70809e-05
6.77568e-05
4.7067e-05
7.16962e-05
7.14662e-05
6.79923e-05
5.97908e-05
4.70924e-05
4.70774e-05
6.7751e-05
7.16619e-05
7.12192e-05
4.70541e-05
6.71131e-05
5.96248e-05
6.73461e-05
7.10363e-05
4.70639e-05
7.11837e-05
4.7062e-05
6.7106e-05
5.96319e-05
7.0985e-05
4.70764e-05
6.73394e-05
6.97325e-05
2.15699e-05
2.1573e-05
2.15698e-05
2.15729e-05
6.98812e-05
2.36465e-05
2.36499e-05
3.61706e-05
6.46858e-05
6.75476e-05
4.03044e-05
6.71496e-05
4.0302e-05
3.61735e-05
2.0242e-05
6.67382e-05
4.95125e-05
6.69385e-05
2.02414e-05
3.61704e-05
6.44201e-05
6.66347e-05
4.03001e-05
6.70378e-05
3.61676e-05
4.0302e-05
2.02386e-05
6.71486e-05
4.95092e-05
6.69613e-05
2.02391e-05
3.61681e-05
6.4685e-05
6.75373e-05
4.03039e-05
6.71451e-05
4.03015e-05
3.61709e-05
2.02403e-05
6.67273e-05
4.9507e-05
2.02398e-05
6.69162e-05
3.61679e-05
6.44177e-05
6.66266e-05
4.02996e-05
3.61651e-05
6.70282e-05
4.03015e-05
2.0237e-05
6.71211e-05
4.9504e-05
6.69511e-05
2.02375e-05
3.61768e-05
6.76532e-05
4.03047e-05
6.5802e-05
3.61737e-05
6.80448e-05
4.03078e-05
2.02329e-05
4.95211e-05
6.75625e-05
6.73848e-05
2.02335e-05
2.02363e-05
6.71817e-05
4.95246e-05
2.02358e-05
6.73638e-05
3.61771e-05
6.60466e-05
6.85264e-05
4.0312e-05
6.81405e-05
4.03084e-05
3.61802e-05
3.61742e-05
6.76481e-05
4.03042e-05
6.58018e-05
3.61713e-05
6.8032e-05
4.03072e-05
2.02314e-05
4.95161e-05
6.75321e-05
6.73824e-05
2.02317e-05
2.02346e-05
6.71693e-05
4.9519e-05
2.02342e-05
6.73378e-05
3.61746e-05
6.60453e-05
6.85129e-05
4.03114e-05
6.81375e-05
4.03079e-05
3.61777e-05
2.36558e-05
2.36523e-05
2.36547e-05
2.36512e-05
6.96831e-05
2.15756e-05
2.15724e-05
6.9522e-05
2.15757e-05
2.15725e-05
7.14799e-05
6.79995e-05
5.97859e-05
4.70896e-05
7.16399e-05
6.77377e-05
4.70745e-05
7.15282e-05
6.79983e-05
5.97854e-05
4.70802e-05
7.16805e-05
6.77612e-05
4.70654e-05
7.11595e-05
4.70594e-05
6.70963e-05
5.96255e-05
7.09825e-05
6.73448e-05
4.70737e-05
7.12031e-05
4.70503e-05
6.71049e-05
5.96247e-05
7.10301e-05
6.73443e-05
4.70643e-05
6.97259e-05
2.15723e-05
2.15692e-05
6.98823e-05
2.15722e-05
2.1569e-05
2.36451e-05
2.36485e-05
2.3644e-05
2.36474e-05
2.36436e-05
2.36405e-05
2.36416e-05
2.36383e-05
7.01231e-05
2.15664e-05
2.15628e-05
2.15664e-05
2.15627e-05
7.02707e-05
7.21361e-05
6.84041e-05
4.70934e-05
6.01657e-05
7.19355e-05
4.71078e-05
6.86338e-05
7.21694e-05
6.84061e-05
4.70823e-05
6.01832e-05
7.19848e-05
4.70967e-05
6.86432e-05
7.0082e-05
2.15698e-05
2.15662e-05
6.99297e-05
2.157e-05
2.15663e-05
7.23867e-05
4.71229e-05
6.03515e-05
6.9282e-05
4.71076e-05
7.26127e-05
6.9047e-05
7.24396e-05
4.71119e-05
6.034e-05
6.92825e-05
4.70967e-05
7.26496e-05
6.90512e-05
3.61823e-05
6.73147e-05
4.03211e-05
6.94402e-05
4.03201e-05
6.90678e-05
3.61854e-05
2.02291e-05
6.75789e-05
4.95353e-05
2.02286e-05
6.77392e-05
3.61819e-05
6.71231e-05
4.03136e-05
6.86092e-05
4.0317e-05
3.61788e-05
6.89894e-05
2.02258e-05
6.79294e-05
4.95321e-05
6.77734e-05
2.02263e-05
7.01245e-05
2.15632e-05
2.15658e-05
2.15631e-05
2.15657e-05
7.02665e-05
7.21356e-05
6.8429e-05
4.70867e-05
6.01753e-05
4.70929e-05
7.20096e-05
6.86107e-05
7.21211e-05
6.84157e-05
4.70959e-05
6.01847e-05
6.86062e-05
7.19574e-05
4.71019e-05
7.00763e-05
2.15665e-05
2.15691e-05
2.15665e-05
6.99334e-05
2.15692e-05
7.24745e-05
4.71067e-05
6.03334e-05
6.92326e-05
4.71019e-05
6.90831e-05
7.26026e-05
7.24053e-05
4.71158e-05
6.03314e-05
6.92375e-05
6.90702e-05
4.71113e-05
7.26018e-05
2.36431e-05
2.36398e-05
3.6182e-05
6.73222e-05
4.03248e-05
6.94329e-05
4.03158e-05
6.90683e-05
3.61852e-05
2.02291e-05
6.75674e-05
4.95323e-05
2.02286e-05
6.77381e-05
3.61816e-05
6.71172e-05
4.03123e-05
6.86093e-05
4.03177e-05
3.61785e-05
6.89835e-05
2.02257e-05
6.79314e-05
4.95287e-05
6.77669e-05
2.02262e-05
3.61837e-05
6.73406e-05
6.94027e-05
4.03198e-05
6.90953e-05
4.03194e-05
3.61866e-05
2.02302e-05
6.75841e-05
4.95373e-05
6.77497e-05
2.02296e-05
3.61832e-05
6.7085e-05
6.86353e-05
4.03127e-05
6.89529e-05
3.61802e-05
4.03159e-05
2.02267e-05
6.79418e-05
4.95337e-05
6.77782e-05
2.02273e-05
3.61823e-05
6.73345e-05
4.03204e-05
6.94267e-05
4.03203e-05
6.90765e-05
3.61853e-05
2.02292e-05
6.75714e-05
4.95328e-05
2.02287e-05
6.77369e-05
3.61819e-05
6.71025e-05
4.03134e-05
6.86143e-05
3.61788e-05
4.03165e-05
6.89778e-05
2.02259e-05
6.79254e-05
4.95298e-05
6.77678e-05
2.02263e-05
7.01242e-05
2.15632e-05
2.15663e-05
2.15631e-05
2.15662e-05
7.02611e-05
7.21659e-05
6.8406e-05
4.7082e-05
6.01775e-05
4.70965e-05
7.19889e-05
6.86468e-05
7.2098e-05
6.8397e-05
4.70934e-05
6.01839e-05
6.86441e-05
7.1947e-05
4.71073e-05
7.00738e-05
2.15664e-05
2.15696e-05
2.15665e-05
6.99312e-05
2.15697e-05
7.24481e-05
4.71113e-05
6.03291e-05
6.92968e-05
4.70968e-05
6.90438e-05
7.26285e-05
7.24268e-05
4.71222e-05
6.03344e-05
6.92886e-05
6.90397e-05
4.71078e-05
7.25389e-05
2.36429e-05
2.36396e-05
3.61841e-05
6.73293e-05
6.9445e-05
4.03205e-05
6.9072e-05
4.03198e-05
3.61873e-05
2.02306e-05
6.75924e-05
4.95371e-05
6.77573e-05
2.02301e-05
3.61837e-05
6.71026e-05
6.86135e-05
4.03131e-05
6.89919e-05
3.61805e-05
4.03164e-05
2.02273e-05
6.79454e-05
4.95339e-05
6.77885e-05
2.02278e-05
3.61816e-05
6.73366e-05
6.94321e-05
4.03198e-05
6.90706e-05
4.03195e-05
3.61846e-05
2.02289e-05
6.7582e-05
4.95317e-05
2.02285e-05
6.77285e-05
3.61811e-05
6.70951e-05
6.86104e-05
4.03127e-05
3.6178e-05
6.89817e-05
4.03158e-05
2.02256e-05
6.79149e-05
4.95282e-05
6.77815e-05
2.0226e-05
2.36415e-05
2.36382e-05
2.36404e-05
2.36371e-05
0.000180011
0.00018002
0.00015728
0.000179146
0.000179156
0.000197121
0.000197821
6.8926e-05
8.52916e-05
7.04698e-05
7.05159e-05
0.000176561
0.00017657
0.00015313
0.0001757
0.00017571
0.000194314
0.000195016
7.14979e-05
7.11647e-05
7.12012e-05
8.36217e-05
7.12713e-05
7.15205e-05
7.14506e-05
6.88893e-05
7.03171e-05
7.02926e-05
8.50605e-05
6.85921e-05
7.0376e-05
7.03807e-05
7.05753e-05
8.39485e-05
7.10705e-05
7.10725e-05
7.09897e-05
7.09712e-05
7.08609e-05
6.88073e-05
8.52022e-05
7.03201e-05
7.04686e-05
7.06416e-05
8.38076e-05
7.11684e-05
7.10483e-05
7.08989e-05
7.1054e-05
7.08069e-05
6.89073e-05
7.03861e-05
7.01994e-05
8.50929e-05
7.05392e-05
6.85728e-05
7.02502e-05
7.05725e-05
8.39255e-05
7.09952e-05
7.119e-05
7.10893e-05
7.08856e-05
7.08818e-05
7.0602e-05
8.36831e-05
7.12021e-05
7.11558e-05
7.084e-05
7.08808e-05
7.09047e-05
7.15176e-05
7.12683e-05
7.12576e-05
8.33866e-05
7.12472e-05
7.13994e-05
7.13718e-05
7.14617e-05
7.12002e-05
7.13378e-05
8.34415e-05
7.13065e-05
7.13001e-05
7.14829e-05
7.15248e-05
7.1314e-05
7.11997e-05
8.34043e-05
7.15019e-05
7.12418e-05
7.13815e-05
0.000180009
0.000180023
0.000157279
0.000179145
0.000179157
0.000197121
0.000197821
0.000180005
0.000180015
0.000157272
0.00017914
0.000179151
0.000197116
0.000197816
0.000180008
0.000180013
0.000157271
0.000179143
0.000179149
0.000197116
0.000197816
0.000156245
0.000177421
0.00017743
0.000178284
0.000178292
0.00019642
0.000195718
0.000156244
0.000177419
0.000177431
0.000178282
0.000178295
0.00019642
0.000195718
0.000156237
0.000177414
0.000177425
0.000178277
0.000178287
0.000196414
0.000195713
0.000156236
0.000177417
0.000177424
0.00017828
0.000178286
0.000196414
0.000195713
7.30558e-05
6.13792e-05
6.31593e-05
7.68876e-05
6.3008e-05
7.67566e-05
7.30193e-05
6.67815e-05
6.38251e-05
6.2111e-05
6.52219e-05
6.49406e-05
6.35393e-05
6.71581e-05
7.29124e-05
6.13949e-05
7.6808e-05
6.32436e-05
7.68074e-05
6.29515e-05
7.30292e-05
6.70057e-05
6.45419e-05
6.29453e-05
6.1819e-05
6.6653e-05
6.47985e-05
6.31806e-05
7.33101e-05
6.10582e-05
7.72167e-05
6.23223e-05
7.31941e-05
7.72145e-05
6.2583e-05
6.6799e-05
6.38565e-05
6.21185e-05
6.52718e-05
6.49519e-05
6.35645e-05
6.71405e-05
6.92434e-05
8.46034e-05
7.07111e-05
7.0716e-05
7.04074e-05
7.03962e-05
6.95676e-05
0.000176559
0.000176573
0.000153128
0.000175698
0.00017571
0.000194314
0.000195016
0.000176554
0.000176564
0.000153121
0.000175693
0.000175704
0.000194309
0.00019501
0.000176557
0.000176563
0.000153121
0.000175696
0.000175704
0.000194308
0.00019501
7.23903e-05
6.39382e-05
6.58943e-05
7.57738e-05
6.56716e-05
7.55707e-05
7.25736e-05
6.77278e-05
6.63122e-05
6.54461e-05
6.39199e-05
6.73287e-05
6.66358e-05
6.57263e-05
7.26043e-05
6.35413e-05
6.49979e-05
7.58419e-05
7.26042e-05
6.52019e-05
7.59765e-05
6.75443e-05
6.63896e-05
6.42057e-05
6.7145e-05
6.68049e-05
6.6065e-05
6.80708e-05
7.23661e-05
6.39442e-05
7.54619e-05
6.59357e-05
7.56889e-05
6.56397e-05
7.25925e-05
6.76723e-05
6.63374e-05
6.54615e-05
6.39193e-05
6.73631e-05
6.66197e-05
6.5699e-05
7.26978e-05
6.35462e-05
7.5896e-05
6.49555e-05
7.25542e-05
7.58922e-05
6.52439e-05
6.76234e-05
6.63122e-05
6.4222e-05
6.70943e-05
6.68479e-05
6.61125e-05
6.78325e-05
7.19377e-05
8.29843e-05
7.18681e-05
7.18161e-05
7.14853e-05
7.15218e-05
7.21478e-05
6.9255e-05
8.47371e-05
7.05653e-05
7.05965e-05
6.95473e-05
7.05032e-05
7.04767e-05
7.01993e-05
8.41972e-05
7.07217e-05
7.07094e-05
6.99264e-05
7.08416e-05
7.08084e-05
7.31956e-05
6.14671e-05
6.31821e-05
7.66705e-05
6.30175e-05
7.69368e-05
7.29678e-05
6.70137e-05
6.45112e-05
6.29144e-05
6.18251e-05
6.32227e-05
6.66511e-05
6.48357e-05
7.31585e-05
6.10087e-05
6.23757e-05
7.7328e-05
6.25379e-05
7.34034e-05
7.70705e-05
6.68004e-05
6.38567e-05
6.21178e-05
6.52549e-05
6.35556e-05
6.49412e-05
6.71507e-05
7.29491e-05
6.1433e-05
6.32157e-05
7.66692e-05
6.29697e-05
7.69231e-05
7.32499e-05
6.69711e-05
6.45902e-05
6.29173e-05
6.18242e-05
6.66801e-05
6.32002e-05
6.47323e-05
7.33941e-05
6.10374e-05
6.23286e-05
7.73156e-05
7.32171e-05
6.25725e-05
7.70672e-05
6.68252e-05
6.38053e-05
6.21098e-05
6.51308e-05
6.35517e-05
6.71038e-05
6.50006e-05
7.27586e-05
6.36765e-05
7.65829e-05
6.22258e-05
7.29984e-05
6.3841e-05
7.63367e-05
6.71515e-05
6.61702e-05
6.31776e-05
6.51173e-05
6.58341e-05
6.48099e-05
6.75065e-05
6.73267e-05
6.41828e-05
6.53762e-05
6.28749e-05
6.56611e-05
6.69597e-05
6.44587e-05
7.28587e-05
6.26888e-05
6.45109e-05
7.60242e-05
6.43463e-05
7.62858e-05
7.26411e-05
7.305e-05
6.3631e-05
7.65734e-05
6.22586e-05
7.27353e-05
6.38747e-05
7.63376e-05
6.71696e-05
6.60641e-05
6.31676e-05
6.50759e-05
6.4803e-05
6.59136e-05
6.74593e-05
6.72944e-05
6.41833e-05
6.54395e-05
6.28777e-05
6.6985e-05
6.44677e-05
6.56252e-05
7.25806e-05
6.26625e-05
6.4545e-05
7.6023e-05
6.43e-05
7.62735e-05
7.28841e-05
6.93294e-05
8.46576e-05
7.0683e-05
7.05327e-05
7.05702e-05
7.0422e-05
6.94856e-05
7.01396e-05
8.43229e-05
7.06571e-05
7.07953e-05
7.08922e-05
6.99819e-05
7.0782e-05
7.29641e-05
6.14051e-05
6.32522e-05
7.68886e-05
6.2939e-05
7.67333e-05
7.33164e-05
6.70103e-05
6.45756e-05
6.29241e-05
6.18291e-05
6.32047e-05
6.66514e-05
6.47618e-05
7.34353e-05
6.10639e-05
6.23132e-05
7.71562e-05
6.25952e-05
7.30965e-05
7.72819e-05
6.68052e-05
6.38472e-05
6.21129e-05
6.51892e-05
6.35551e-05
6.49898e-05
6.71567e-05
7.31252e-05
6.14116e-05
7.68898e-05
6.31739e-05
7.67442e-05
6.30147e-05
7.287e-05
6.70053e-05
6.4505e-05
6.28996e-05
6.18184e-05
6.66455e-05
6.32128e-05
6.48322e-05
7.30923e-05
6.10595e-05
7.71708e-05
6.23663e-05
7.33458e-05
7.72833e-05
6.2531e-05
6.67952e-05
6.38339e-05
6.21127e-05
6.52333e-05
6.35457e-05
6.71318e-05
6.49378e-05
7.31036e-05
6.36084e-05
7.64021e-05
6.22533e-05
7.27764e-05
6.39011e-05
7.65616e-05
6.71616e-05
6.61154e-05
6.31714e-05
6.51188e-05
6.58987e-05
6.48067e-05
6.74978e-05
6.73246e-05
6.41824e-05
6.54419e-05
6.28729e-05
6.55967e-05
6.69643e-05
6.44653e-05
7.26188e-05
6.26552e-05
6.45719e-05
7.62597e-05
6.4282e-05
7.60864e-05
7.29364e-05
7.2702e-05
7.64036e-05
6.36701e-05
6.22526e-05
7.29327e-05
7.65514e-05
6.38287e-05
6.71447e-05
6.61381e-05
6.31681e-05
6.50748e-05
6.48169e-05
6.583e-05
6.74867e-05
6.73199e-05
6.41761e-05
6.53837e-05
6.28707e-05
6.69578e-05
6.4429e-05
6.56519e-05
7.28099e-05
6.26576e-05
7.62514e-05
6.45022e-05
7.60925e-05
6.43386e-05
7.25949e-05
7.29319e-05
6.14199e-05
7.68834e-05
6.32229e-05
7.67422e-05
6.29478e-05
7.32227e-05
6.68213e-05
6.3802e-05
6.21053e-05
6.51312e-05
6.50098e-05
6.35392e-05
6.71023e-05
7.28454e-05
6.36638e-05
7.64246e-05
6.22647e-05
7.28601e-05
6.384e-05
7.65524e-05
6.71425e-05
6.61419e-05
6.31704e-05
6.50781e-05
6.74993e-05
6.58437e-05
6.48171e-05
6.73401e-05
6.41894e-05
6.53969e-05
6.28779e-05
6.69585e-05
6.56458e-05
6.44498e-05
7.27234e-05
6.26327e-05
6.45025e-05
7.62583e-05
7.27265e-05
6.43238e-05
7.612e-05
7.30822e-05
7.64175e-05
6.36203e-05
6.22532e-05
7.2739e-05
7.65603e-05
6.38962e-05
6.7163e-05
6.60548e-05
6.31784e-05
6.50486e-05
6.48177e-05
6.59054e-05
6.74531e-05
6.73082e-05
6.41907e-05
6.54307e-05
6.28685e-05
6.69852e-05
6.44506e-05
6.56259e-05
7.26248e-05
6.26529e-05
7.62486e-05
6.45533e-05
7.60976e-05
6.42789e-05
7.29254e-05
6.92521e-05
8.47538e-05
7.04539e-05
7.06729e-05
7.04131e-05
7.05705e-05
6.95474e-05
7.02302e-05
8.42045e-05
7.08003e-05
7.06508e-05
7.07533e-05
6.99132e-05
7.09061e-05
7.31946e-05
6.14123e-05
7.68123e-05
6.31589e-05
7.68128e-05
6.30182e-05
7.28933e-05
6.67679e-05
6.45141e-05
6.29907e-05
6.18265e-05
6.48314e-05
6.68812e-05
6.31168e-05
7.32006e-05
6.10531e-05
7.7215e-05
6.23622e-05
7.72163e-05
7.33165e-05
6.25217e-05
6.70018e-05
6.37453e-05
6.21119e-05
6.5258e-05
6.49475e-05
6.36104e-05
6.69106e-05
7.295e-05
7.64677e-05
6.36144e-05
6.22675e-05
7.28607e-05
7.64775e-05
6.39e-05
6.71595e-05
6.61772e-05
6.31741e-05
6.51104e-05
6.74888e-05
6.58398e-05
6.48314e-05
6.73212e-05
6.41909e-05
6.53833e-05
6.28719e-05
6.69591e-05
6.56495e-05
6.44359e-05
7.27006e-05
6.26401e-05
7.6168e-05
6.45796e-05
7.27921e-05
7.61678e-05
6.4282e-05
7.27804e-05
7.64667e-05
6.36709e-05
6.22633e-05
7.29859e-05
7.64866e-05
6.38321e-05
6.73543e-05
6.61739e-05
6.31706e-05
6.50144e-05
6.48902e-05
6.58304e-05
6.72669e-05
6.70523e-05
6.42462e-05
6.53796e-05
6.28707e-05
6.71577e-05
6.43948e-05
6.56619e-05
7.28629e-05
6.26486e-05
7.61736e-05
6.45015e-05
7.61638e-05
6.43365e-05
7.26417e-05
7.01865e-05
8.43911e-05
7.06463e-05
7.06464e-05
6.99104e-05
7.08944e-05
7.08701e-05
7.18947e-05
8.31798e-05
7.17299e-05
7.16054e-05
7.22268e-05
7.15812e-05
7.16231e-05
7.25592e-05
6.39863e-05
6.59349e-05
7.5482e-05
6.56796e-05
7.57924e-05
7.2414e-05
6.75832e-05
6.63369e-05
6.54561e-05
6.38861e-05
6.57283e-05
6.74021e-05
6.66136e-05
7.2522e-05
6.35253e-05
6.5012e-05
7.59922e-05
6.52209e-05
7.27417e-05
7.57837e-05
6.76624e-05
6.63601e-05
6.42436e-05
6.70762e-05
6.60851e-05
6.68379e-05
6.7863e-05
7.22811e-05
6.39704e-05
6.58664e-05
7.549e-05
6.56882e-05
7.57865e-05
7.28162e-05
6.7696e-05
6.63632e-05
6.54459e-05
6.38894e-05
6.73853e-05
6.57279e-05
6.66269e-05
7.2832e-05
6.35379e-05
6.49777e-05
7.5989e-05
7.24895e-05
6.5201e-05
7.57823e-05
6.75691e-05
6.63767e-05
6.42276e-05
6.70983e-05
6.60709e-05
6.80422e-05
6.68297e-05
7.19722e-05
8.31339e-05
7.1743e-05
7.15907e-05
7.16733e-05
7.1553e-05
7.21285e-05
7.23515e-05
6.39531e-05
6.59426e-05
7.56055e-05
6.56414e-05
7.56471e-05
7.26043e-05
6.75869e-05
6.63914e-05
6.54476e-05
6.3882e-05
6.57385e-05
6.74066e-05
6.65019e-05
7.28301e-05
6.35417e-05
6.49626e-05
7.58256e-05
6.52384e-05
7.25262e-05
7.59205e-05
6.76704e-05
6.6393e-05
6.42394e-05
6.70153e-05
6.60688e-05
6.69299e-05
6.78624e-05
7.25224e-05
6.39708e-05
7.56e-05
6.59243e-05
7.56449e-05
6.56704e-05
7.23799e-05
6.74253e-05
6.63328e-05
6.54553e-05
6.39211e-05
6.74336e-05
6.57181e-05
6.6607e-05
7.24808e-05
6.35321e-05
7.58175e-05
6.50024e-05
7.26999e-05
7.59187e-05
6.5214e-05
6.77807e-05
6.63533e-05
6.41988e-05
6.70898e-05
6.60778e-05
6.75983e-05
6.68507e-05
7.23217e-05
6.39804e-05
7.56082e-05
6.59232e-05
7.56529e-05
6.56362e-05
7.28409e-05
6.76976e-05
6.63582e-05
6.5462e-05
6.38742e-05
6.66202e-05
6.73861e-05
6.56996e-05
7.28653e-05
6.35249e-05
7.5831e-05
6.49571e-05
7.59254e-05
7.25364e-05
6.52371e-05
6.76145e-05
6.63414e-05
6.42405e-05
6.71936e-05
6.68092e-05
6.60862e-05
6.78027e-05
7.19321e-05
8.32132e-05
7.17107e-05
7.18488e-05
7.14893e-05
7.15964e-05
7.20781e-05
7.25909e-05
6.39565e-05
7.56694e-05
6.59325e-05
7.56504e-05
6.5662e-05
7.24537e-05
6.76454e-05
6.63354e-05
6.5507e-05
6.39179e-05
6.66019e-05
6.75145e-05
6.56511e-05
7.25616e-05
6.35305e-05
7.58887e-05
6.50023e-05
7.5907e-05
7.27686e-05
6.52181e-05
6.77063e-05
6.6301e-05
6.42004e-05
6.70883e-05
6.68387e-05
6.61306e-05
6.78752e-05
0.000233968
0.000233539
0.000233541
0.000233423
0.00023252
0.000227468
0.000227485
0.000223683
0.000230465
0.000220028
0.000220019
0.000208848
0.000227721
0.000211404
0.00021139
0.000193555
0.000224338
0.000202416
0.000202403
0.000179547
0.000220446
0.000193566
0.000193554
0.000167264
0.000216193
0.000185097
0.000185086
0.000156573
0.00021171
0.000177079
0.000177071
0.000147261
0.0002071
0.000169555
0.000169547
0.000139037
0.000202442
0.000162494
0.000162488
0.000131755
0.000197792
0.000155842
0.000155837
0.000125106
0.000193183
0.000149546
0.000149542
0.000118941
0.000188596
0.000143565
0.000143561
0.000113215
0.000184067
0.000137845
0.000137842
0.000107897
0.000179625
0.000132345
0.000132344
0.000102977
0.000175258
0.000127058
0.000127057
9.82978e-05
0.000170956
0.000122001
0.000121998
9.39938e-05
0.000166703
0.000117209
0.000117203
9.03566e-05
0.000162502
0.000112703
0.000112696
8.74002e-05
0.000108546
8.50916e-05
0.000234247
0.000234466
0.000234466
0.000234253
0.000234468
0.000234467
0.00023426
0.00023426
0.00023426
0.000234261
0.000234468
0.00023447
0.000234249
0.000234466
0.000234468
0.000234248
0.000233431
0.000226051
0.00023354