/*--------------------------------*- C++ -*----------------------------------*\
| =========                 |                                                 |
| \\      /  F ield         | OpenFOAM: The Open Source CFD Toolbox           |
|  \\    /   O peration     | Version:  2312                                  |
|   \\  /    A nd           | Website:  www.openfoam.com                      |
|    \\/     M anipulation  |                                                 |
\*---------------------------------------------------------------------------*/
FoamFile
{
    version     2.0;
    format      ascii;
    arch        "LSB;label=32;scalar=64";
    class       surfaceScalarField;
    location    "1000";
    object      phi;
}
// * * * * * * * * * * * * * * * * * * * * * * * * * * * * * * * * * * * * * //

dimensions      [0 3 -1 0 0 0 0];

oriented        oriented;

internalField   nonuniform List<scalar> 
124832
(
-8.75814e-07
-8.82798e-07
4.56199e-07
4.56874e-07
0.00114043
-0.00113959
-1.51898e-06
8.77224e-07
4.45321e-07
0.00113301
-5.32564e-07
1.10755e-06
1.27646e-07
7.24713e-07
-5.90803e-07
-1.27341e-06
5.8319e-08
-0.00113244
-8.56713e-07
-8.57883e-07
-0.00114291
4.4288e-07
4.43346e-07
0.00114374
-0.00113482
-1.51672e-06
8.5731e-07
4.19132e-07
0.00113536
-5.21517e-07
1.11693e-06
1.34235e-07
7.32328e-07
-5.75218e-07
-1.25935e-06
6.76056e-08
-0.00113469
-1.51392e-06
8.57771e-07
4.24593e-07
0.00113523
-5.21576e-07
1.11429e-06
1.34197e-07
7.3233e-07
-5.75437e-07
-1.25958e-06
6.7776e-08
-0.000276279
1.54548e-06
1.5086e-06
-4.99842e-07
-5.02834e-07
0.000274227
1.5616e-06
1.52206e-06
-5.07859e-07
-5.15995e-07
0.00027407
-0.00027613
-1.15824e-06
-1.11537e-06
0.000276354
-0.000274237
7.57342e-08
8.12251e-08
4.36122e-07
0.0011326
-5.35281e-07
1.15049e-06
1.30623e-07
7.30215e-07
-5.90791e-07
-1.27886e-06
5.83303e-08
-0.00113201
8.70973e-07
4.36032e-07
0.00113266
1.14772e-06
1.33269e-07
7.3003e-07
-5.90813e-07
-1.27871e-06
5.82691e-08
-0.00113208
-1.55646e-06
-5.35641e-07
0.00113427
8.61465e-07
-0.00113374
4.39123e-07
-1.55803e-06
1.41468e-07
-5.29966e-07
-1.26868e-06
6.53486e-08
-5.79382e-07
7.36119e-07
1.15284e-06
0.00113435
8.61865e-07
-0.0011338
4.28274e-07
-1.55551e-06
1.38249e-07
-5.27391e-07
-1.2685e-06
6.52728e-08
-5.79176e-07
7.35847e-07
-1.11529e-06
0.000276334
-0.000274221
7.58521e-08
7.84367e-08
4.34731e-07
0.00113358
-5.32811e-07
1.11037e-06
1.27578e-07
7.30184e-07
-5.90755e-07
-1.27873e-06
5.85898e-08
-0.001133
-1.55374e-06
8.76093e-07
4.36285e-07
0.00113255
-5.38357e-07
1.14228e-06
1.33359e-07
7.30307e-07
-5.90731e-07
-1.27859e-06
5.50215e-08
-0.00113197
0.00113527
8.62619e-07
-0.00113472
4.27273e-07
-1.51838e-06
1.32461e-07
-5.24662e-07
-1.26852e-06
6.56039e-08
-5.79336e-07
7.36031e-07
1.14738e-06
0.00113424
8.61352e-07
-0.00113368
4.28772e-07
-1.55009e-06
1.38314e-07
-5.30089e-07
-1.26841e-06
6.21917e-08
-5.76434e-07
7.36124e-07
8.62144e-07
-0.00113427
4.32707e-07
-1.51808e-06
1.3258e-07
-5.24388e-07
-1.26293e-06
6.53556e-08
7.30465e-07
-5.79006e-07
1.14462e-06
0.00113385
8.614e-07
-0.0011333
4.28257e-07
-1.54685e-06
1.35633e-07
-5.2688e-07
-1.25997e-06
5.87165e-08
-5.73341e-07
7.27746e-07
-5.10936e-07
-5.15751e-07
0.000274045
-0.000276091
-1.1099e-06
0.00027631
-0.000274209
7.60804e-08
8.11197e-08
7.76039e-07
2.55153e-07
0.00113308
1.06638e-06
1.15389e-07
7.27258e-07
-5.87854e-07
5.87026e-08
-1.27578e-06
-1.58656e-06
-0.00113209
-5.43527e-07
8.62464e-07
-0.00113414
4.27042e-07
-1.51257e-06
1.32584e-07
-5.24375e-07
-1.26316e-06
6.55105e-08
7.30476e-07
-5.79223e-07
1.10713e-06
0.00113484
8.61968e-07
-0.00113428
4.27025e-07
-1.51e-06
1.32495e-07
-5.24514e-07
-1.26534e-06
6.58365e-08
-5.79067e-07
7.33147e-07
-0.000274182
7.58027e-08
7.8706e-08
1.55949e-06
1.51706e-06
-5.00156e-07
-5.05591e-07
0.000274283
4.14716e-07
0.00113482
-5.3007e-07
1.15987e-06
1.4299e-07
7.37871e-07
-5.75574e-07
-1.26517e-06
6.75238e-08
-1.55414e-06
8.57379e-07
4.25845e-07
0.00113489
-5.27298e-07
1.1545e-06
1.39905e-07
7.37849e-07
-5.75386e-07
-1.26486e-06
6.43422e-08
-5.00356e-07
-5.02507e-07
0.000274266
4.24821e-07
0.00113581
-5.21891e-07
1.11699e-06
1.3403e-07
7.37892e-07
-5.75452e-07
-1.26496e-06
6.78203e-08
-1.54867e-06
8.56593e-07
4.26336e-07
0.00113477
-5.27274e-07
1.14904e-06
1.39924e-07
7.37946e-07
-5.72563e-07
-1.2649e-06
6.4439e-08
8.56611e-07
4.25777e-07
0.00113439
-5.24099e-07
1.14624e-06
1.37275e-07
7.29677e-07
-5.69608e-07
6.10306e-08
-1.25638e-06
-5.00381e-07
-5.05297e-07
0.000274253
8.57224e-07
4.24578e-07
0.00113537
-5.21715e-07
1.10875e-06
1.3414e-07
7.34996e-07
-5.75232e-07
6.81102e-08
-1.26175e-06
-2.58369e-10
9.36344e-08
0.000237627
-0.000237702
-1.06129e-08
-8.2769e-09
-3.68084e-09
1.51438e-07
-2.08792e-08
0.00019805
-0.000198176
-9.83845e-11
2.76887e-07
0.000237945
-9.49711e-08
-1.29682e-08
-0.000238114
1.51037e-08
3.11537e-08
0.00019784
-5.67651e-09
-0.000197881
-1.49043e-08
5.43042e-09
9.92821e-05
-9.92726e-05
9.3574e-08
-3.0782e-10
0.000237614
-0.000237689
-8.31695e-09
-1.05454e-08
-3.92682e-09
1.51332e-07
-2.08547e-08
0.00019803
-0.000198157
2.76831e-07
5.56591e-11
0.000237932
-1.32948e-08
-9.49286e-08
-0.0002381
1.54171e-08
3.08906e-08
0.000197823
-5.92336e-09
-0.000197863
4.61824e-07
4.3521e-07
0.00114019
-8.76832e-07
-0.00113934
4.56676e-07
4.84257e-07
0.00114001
-0.0011392
4.0644e-07
4.28995e-07
0.00113994
-1.04303e-06
-0.00113896
-0.00114209
4.55843e-07
4.50842e-07
0.0011427
-0.00114187
4.50327e-07
4.50992e-07
0.00114249
-0.00114167
4.50507e-07
4.50708e-07
0.00114245
-0.00114163
4.50212e-07
4.5067e-07
-9.37958e-08
-1.80129e-09
0.000261358
-0.000261287
-2.75091e-08
5.21798e-08
4.26987e-07
1.11185e-06
0.0011337
8.71879e-07
-1.26976e-06
6.07664e-08
-5.86755e-07
7.26552e-07
-1.52063e-06
1.2922e-07
-5.29914e-07
-0.00113312
4.84483e-09
-3.12104e-08
0.000254115
2.01627e-08
-0.000254149
4.05059e-08
-1.76795e-08
0.00113384
9.24082e-07
-1.38039e-06
5.74472e-07
-1.20854e-06
7.71418e-07
-0.00113308
4.2425e-09
6.76006e-08
9.93322e-05
-9.9404e-05
-1.49253e-08
7.85226e-09
9.92747e-05
-9.92677e-05
-5.57981e-10
-9.38469e-08
0.000261344
-0.000261277
5.4999e-08
-2.79317e-08
0.00113294
5.30269e-08
9.28532e-07
7.7157e-07
-1.21103e-06
-1.38339e-06
5.71979e-07
-0.00113223
-7.05507e-08
-1.51322e-07
3.37771e-07
7.62574e-08
0.000254363
-0.000254555
4.42891e-07
1.10653e-06
0.00113358
8.72268e-07
-1.27002e-06
6.08499e-08
-5.86927e-07
7.26643e-07
-1.51778e-06
1.29291e-07
-5.29853e-07
1.61306e-09
-2.76936e-07
0.000261428
5.3118e-07
-3.52625e-08
-0.000261648
1.88864e-08
0.00113368
9.24294e-07
-1.38067e-06
5.77114e-07
-1.20609e-06
7.73939e-07
4.56693e-09
-3.10567e-08
0.000254103
2.01668e-08
-0.00025414
4.30279e-08
-1.14672e-06
-1.09827e-06
0.000276177
-0.000274074
6.54506e-08
7.61893e-08
-4.81304e-09
-7.84536e-09
0.000285614
2.276e-08
-0.000285685
6.07785e-08
-4.5794e-09
-7.74011e-09
0.000285533
2.30336e-08
-0.000285604
6.05285e-08
-1.82467e-10
7.71044e-08
-0.000236782
-5.79713e-09
-6.54827e-09
-0.000197528
-3.32963e-09
1.40599e-07
-1.78195e-08
0.000197408
-0.000237162
-7.09327e-11
2.57453e-07
0.000237004
-8.82676e-08
-1.12541e-08
1.40386e-08
2.27013e-08
-3.81071e-09
-0.000197258
-9.91577e-05
4.90773e-09
6.36834e-08
9.90891e-05
-1.39848e-08
4.60198e-09
-9.90291e-05
7.70477e-08
-2.23445e-10
-0.00023677
-6.61839e-09
-5.76437e-09
-0.000197506
-4.91382e-09
1.40353e-07
-1.80872e-08
0.000197389
-0.000237149
2.57409e-07
9.07831e-11
0.000236992
-1.15084e-08
-8.82963e-08
1.40097e-08
2.25996e-08
-3.69406e-09
-0.000197239
4.4845e-07
4.49146e-07
0.00114351
4.48571e-07
4.48828e-07
0.00114331
4.48274e-07
4.48715e-07
0.00114327
-7.72981e-08
-1.47879e-09
-0.000260654
-2.28257e-08
3.60991e-08
-0.000253675
-6.76872e-08
-1.42552e-07
3.23066e-07
6.88443e-08
0.000253493
0.00113603
-0.00113532
2.82991e-09
9.10762e-07
7.81103e-07
-1.19894e-06
-1.36959e-06
5.84171e-07
4.278e-07
1.11851e-06
8.5253e-07
-1.25572e-06
6.98288e-08
-5.71373e-07
7.34266e-07
-1.51533e-06
1.35854e-07
-5.18743e-07
-0.000261044
-2.57297e-07
1.59133e-09
0.000260816
-3.02941e-08
5.14062e-07
7.86744e-09
-2.06082e-08
1.46047e-08
-0.000253281
2.85797e-08
-4.13212e-09
9.06419e-07
-1.36926e-06
5.83631e-07
-1.19916e-06
7.80601e-07
-9.91513e-05
4.92462e-09
6.34788e-08
9.90829e-05
-1.40953e-08
4.66655e-09
-9.90242e-05
-9.60043e-10
-7.73404e-08
-0.000260643
3.62325e-08
-2.26173e-08
0.00113587
-0.00113514
4.56639e-09
9.11325e-07
7.81084e-07
-1.20208e-06
-1.37261e-06
5.81176e-07
-0.000253665
-6.79382e-08
-1.40378e-07
3.20679e-07
6.90783e-08
0.000253484
4.22284e-07
1.11589e-06
8.53002e-07
-1.256e-06
6.99674e-08
-5.71604e-07
7.3422e-07
-1.51248e-06
1.32804e-07
-5.18702e-07
-0.000261033
8.06658e-10
-2.57511e-07
0.000260806
5.14405e-07
-3.04916e-08
-3.12177e-09
9.06993e-07
-1.36957e-06
5.86284e-07
-1.19677e-06
7.83241e-07
7.60933e-09
-2.27202e-08
1.45964e-08
-0.000253272
3.11538e-08
-0.000285134
6.79471e-08
-6.35507e-08
1.79792e-07
-1.35048e-08
0.000284964
-0.000285053
6.81245e-08
-6.34165e-08
1.74832e-07
-1.39927e-08
0.000284888
-1.14782e-06
-1.11034e-06
-0.000274269
8.08441e-08
8.37082e-08
-7.76441e-09
-4.58367e-09
2.1285e-08
-0.000284735
4.903e-08
-7.65449e-09
-4.59956e-09
2.17693e-08
-0.00028466
5.35136e-08
6.94358e-08
9.93597e-05
-9.94328e-05
7.8958e-09
9.93044e-05
-9.92972e-05
6.74883e-08
9.93484e-05
-9.94198e-05
7.41399e-09
9.92907e-05
-9.92827e-05
7.29331e-08
1.88853e-07
-1.3166e-08
0.000285991
-0.000286171
7.03052e-08
1.90859e-07
-1.29874e-08
0.000285913
-0.000286094
0.00027625
-1.15219e-06
-1.11206e-06
-0.00027413
6.80627e-08
7.61639e-08
0.000285669
-2.03063e-09
2.52878e-08
-0.000285742
5.83174e-08
0.000285592
-2.13887e-09
2.25236e-08
-0.000285663
5.79186e-08
6.15932e-09
-1.40848e-08
9.91789e-05
-9.9171e-05
6.5746e-08
4.70233e-09
9.92339e-05
6.09396e-09
-1.44869e-08
9.91673e-05
-9.9159e-05
6.5589e-08
4.57081e-09
9.92205e-05
1.55931e-06
1.51972e-06
0.000274184
-5.02795e-07
-5.10855e-07
-6.15394e-09
0.000285189
5.35616e-08
-0.000285252
2.19095e-08
-3.62667e-09
0.000285113
5.33785e-08
-0.000285179
2.19243e-08
6.79521e-08
-1.59012e-08
1.85633e-07
0.000285497
6.79539e-08
-1.33441e-08
1.85162e-07
0.000285418
9.35973e-08
0.000237585
-0.00023766
-1.05842e-08
-8.37172e-09
1.53582e-07
-2.05239e-08
0.000197983
-4.12141e-09
-0.000198112
2.76833e-07
0.000237903
-9.49174e-08
-1.35931e-08
-0.000238071
2.8802e-08
0.00019778
-5.26834e-09
-0.000197819
-9.63081e-10
0.000261372
-0.000261302
-2.77561e-08
5.19904e-08
3.40422e-07
7.60295e-08
0.000254377
-0.000254569
0.00113336
4.07836e-09
9.29016e-07
7.77523e-07
-1.21636e-06
-1.38872e-06
5.80662e-07
-0.00113261
4.32933e-07
0.00113317
8.70886e-07
-1.56047e-06
1.35265e-07
-5.32609e-07
-1.27551e-06
6.06432e-08
-5.86962e-07
7.32106e-07
7.8539e-10
0.000261452
-3.402e-08
5.31054e-07
-0.000261673
0.000254115
2.01069e-08
-0.000254146
4.05596e-08
-3.22127e-09
0.00113412
9.18868e-07
-1.3863e-06
5.82976e-07
-1.21424e-06
7.79922e-07
0.000261343
-0.000261276
-2.66277e-08
5.19439e-08
3.4023e-07
7.61847e-08
0.000254268
-0.000254458
-7.30041e-08
0.00113331
9.2346e-07
7.77413e-07
-1.21635e-06
-1.3884e-06
5.80629e-07
-0.00113255
4.33539e-07
0.00113324
1.14939e-06
8.71705e-07
-1.27539e-06
6.06669e-08
7.31936e-07
-5.86994e-07
-1.55802e-06
1.34951e-07
-5.35674e-07
0.000261426
-3.57982e-08
5.31042e-07
-0.000261644
0.000254006
4.43869e-09
2.03188e-08
-0.000254043
4.04058e-08
0.00113406
9.19031e-07
-1.38593e-06
5.82948e-07
-1.21423e-06
7.79738e-07
-1.06421e-10
2.66982e-07
-9.14349e-08
-1.2034e-08
0.000237464
2.65853e-08
-0.000197564
-4.15927e-09
1.45783e-07
-2.17304e-08
0.000197721
-3.04637e-10
8.51175e-08
-0.000237232
-7.93881e-09
-7.29855e-09
2.66951e-07
-9.14225e-08
-1.26578e-08
0.000237422
2.67839e-08
1.41052e-08
0.000197457
-0.000197494
-3.92371e-09
1.47983e-07
-4.77359e-09
-1.90028e-08
0.000197656
8.51109e-08
0.00023712
-0.00023719
-7.97812e-09
-7.71781e-09
7.89198e-10
-3.1877e-08
5.22794e-07
0.000261148
4.25159e-07
8.66424e-07
1.15387e-06
-5.32738e-07
1.36834e-07
7.34017e-07
-5.83246e-07
6.29242e-08
-1.27219e-06
0.000253677
3.42175e-08
-0.000253708
1.73378e-08
-0.00113485
-3.36349e-09
0.00113559
9.15564e-07
-1.38087e-06
5.84793e-07
-1.207e-06
7.8466e-07
6.99589e-08
3.31838e-07
0.000253927
3.87511e-09
9.2009e-07
7.82254e-07
-1.20932e-06
-1.38363e-06
5.82473e-07
-9.49789e-10
0.000261058
-0.000260991
-2.56203e-08
4.39621e-08
-3.38533e-08
5.22754e-07
0.000261122
4.3117e-07
-1.55682e-06
8.66766e-07
7.33932e-07
-5.83107e-07
-1.27197e-06
6.30291e-08
1.15115e-06
-5.30166e-07
1.33596e-07
3.47241e-09
0.000253568
3.43889e-08
-0.000253597
1.74782e-08
-0.0011348
0.00113553
9.15688e-07
-1.38061e-06
5.84778e-07
-1.20696e-06
7.84502e-07
-7.04747e-08
7.25551e-08
3.31671e-07
0.00025382
9.20183e-07
7.82148e-07
-1.20928e-06
-1.38333e-06
5.82462e-07
0.000261029
-0.000260964
-2.42302e-08
4.39263e-08
0.000276233
-0.000274116
7.07266e-08
7.32949e-08
0.00028553
2.29949e-08
-0.000285604
6.07038e-08
-7.98276e-09
0.000285682
2.3016e-08
-0.00028575
5.85253e-08
9.92978e-05
-1.50017e-08
-9.92908e-05
6.61307e-09
-9.91502e-05
6.79586e-08
9.92093e-05
1.51944e-06
0.00027417
-5.05783e-07
-5.07886e-07
0.000285056
5.36653e-08
-0.000285122
2.22948e-08
-4.09239e-09
-6.42488e-09
0.0002852
5.37285e-08
-0.000285265
2.24257e-08
-1.33727e-08
1.8534e-07
0.000285355
-6.55409e-08
7.02378e-08
-1.31751e-08
1.85353e-07
0.000285505
-1.46857e-08
9.91768e-05
-9.91662e-05
4.45303e-09
9.92278e-05
-1.87722e-09
0.000261365
-0.000261295
-2.7228e-08
5.20004e-08
3.37692e-07
7.60916e-08
0.000254337
-0.000254529
0.00113321
2.81709e-09
9.34013e-07
7.77238e-07
-1.21356e-06
-1.38848e-06
5.77768e-07
-0.00113247
4.31843e-07
0.00113416
8.72212e-07
-1.52086e-06
1.29231e-07
-5.30062e-07
-1.27538e-06
6.10325e-08
-5.8689e-07
7.32138e-07
1.63378e-09
0.000261445
-3.51121e-08
5.31029e-07
-0.000261666
0.000254077
1.99173e-08
-0.000254111
4.28822e-08
-4.43371e-09
0.00113396
9.23889e-07
-1.38607e-06
5.80118e-07
-1.21141e-06
7.79663e-07
9.35416e-08
0.000237573
-0.000237648
-1.05421e-08
-8.7814e-09
1.51372e-07
-2.05384e-08
0.000197972
-0.000198099
2.7678e-07
0.000237891
-9.48968e-08
-1.33106e-08
-0.000238059
3.12545e-08
0.000197764
-5.55548e-09
-0.000197805
0.000261334
-0.000261268
5.19874e-08
-2.7209e-08
0.00113317
9.28291e-07
7.7751e-07
-1.21354e-06
-1.38844e-06
5.77827e-07
-0.00113241
-7.31416e-08
3.3522e-07
7.6235e-08
0.000254256
-0.000254443
4.33895e-07
0.00113312
1.14398e-06
8.82096e-07
-1.27526e-06
5.74739e-08
7.32216e-07
-5.84132e-07
-1.55257e-06
1.35045e-07
-5.35606e-07
0.000261418
5.30953e-07
-3.56019e-08
-0.000261635
0.00113391
9.29656e-07
-1.38579e-06
5.8018e-07
-1.21139e-06
7.80055e-07
0.000253991
4.74675e-09
1.98656e-08
-0.00025403
4.59378e-08
2.66917e-07
2.98381e-11
-1.23215e-08
-9.13978e-08
0.000237451
2.65918e-08
-0.000197543
-4.5199e-09
1.45692e-07
-1.933e-08
0.000197701
8.50686e-08
-2.41357e-10
-0.000237219
-7.44451e-09
-7.97507e-09
1.61742e-09
-3.29224e-08
5.22722e-07
0.000261141
4.29476e-07
8.67412e-07
1.11374e-06
-5.2741e-07
1.30775e-07
7.34002e-07
-5.83101e-07
6.32088e-08
-1.27198e-06
0.000253639
3.68711e-08
-0.00025367
1.71603e-08
-0.00113469
-4.2345e-09
0.00113543
9.15326e-07
-1.38072e-06
5.84751e-07
-1.20688e-06
7.84395e-07
7.25188e-08
3.2909e-07
0.000253889
2.84554e-09
9.25081e-07
7.81991e-07
-1.20922e-06
-1.38343e-06
5.82397e-07
-1.85199e-09
0.000261051
-0.000260981
-2.45921e-08
4.11683e-08
2.66892e-07
-9.13881e-08
-1.23646e-08
0.00023741
2.68849e-08
1.44682e-08
0.000197448
-0.000197484
-4.66722e-09
1.45696e-07
-4.63145e-09
-1.91997e-08
0.000197643
8.50636e-08
0.000237108
-0.000237178
-7.98675e-09
-7.77823e-09
5.22703e-07
-3.34602e-08
0.000261114
4.25915e-07
-1.55137e-06
8.66216e-07
7.34092e-07
-5.80257e-07
-1.27185e-06
5.98348e-08
1.14568e-06
-5.32884e-07
1.36687e-07
-0.00113464
0.00113537
9.15386e-07
-1.38052e-06
5.848e-07
-1.20688e-06
7.84654e-07
6.33139e-09
0.000253553
3.98654e-08
-0.000253589
1.69481e-08
9.25211e-07
7.82324e-07
-1.20921e-06
-1.38322e-06
5.82445e-07
-7.05182e-08
7.2559e-08
3.26551e-07
0.000253808
0.00026102
-0.000260954
4.11497e-08
-2.44752e-08
-5.10261e-11
0.00023761
-0.000237687
-8.59351e-09
-8.52084e-09
0.000197828
-5.59149e-09
-0.000197869
-9.36666e-08
0.000261327
-0.00026126
5.20179e-08
-2.72868e-08
4.49412e-07
0.00113274
8.76548e-07
-1.54932e-06
1.35356e-07
-5.32549e-07
-1.26963e-06
5.73671e-08
-5.8661e-07
7.23885e-07
-0.0011322
0.00113376
9.23742e-07
-1.38018e-06
5.77379e-07
-1.20854e-06
7.74253e-07
-0.00113301
-3.12504e-08
0.000254031
1.98463e-08
-0.000254071
4.60141e-08
0.00023757
-0.000237645
-1.06145e-08
-8.77234e-09
0.000197768
1.49605e-08
-5.59399e-09
-0.000197809
-2.66819e-07
1.38891e-09
-3.26725e-08
5.22652e-07
0.000261134
4.24375e-07
8.67029e-07
1.11358e-06
-5.27157e-07
1.30915e-07
7.28461e-07
-5.82863e-07
-1.26642e-06
6.30216e-08
-2.46257e-08
3.44645e-08
-0.000253708
1.72643e-08
-0.00113457
-5.34807e-09
9.15168e-07
-1.3751e-06
5.79067e-07
7.76062e-07
-1.20405e-06
-1.45562e-07
7.23443e-08
3.31436e-07
0.000253927
-1.13904e-09
9.19609e-07
7.76449e-07
-1.20363e-06
-1.37508e-06
5.79555e-07
-8.53506e-08
-1.51514e-09
-0.000260977
-2.5101e-08
4.41508e-08
-1.81765e-11
-1.23532e-08
-9.34974e-08
0.000237449
0.000197513
-0.000197548
-4.75544e-09
-1.92477e-08
0.000197706
3.31677e-13
0.000237145
-0.000237216
-7.86293e-09
-5.96863e-09
-2.6688e-07
5.2262e-07
-3.34795e-08
0.000261106
4.36072e-07
-1.55086e-06
8.66371e-07
7.25801e-07
-5.80018e-07
-1.26344e-06
5.63678e-08
1.14562e-06
-5.32463e-07
1.36974e-07
-0.0011345
0.00113523
9.15214e-07
-1.37493e-06
5.82001e-07
-1.20403e-06
7.78944e-07
-2.68465e-08
6.36046e-09
0.000253594
3.45746e-08
-0.000253625
1.71468e-08
9.19503e-07
7.7653e-07
-1.20636e-06
-1.37769e-06
5.79671e-07
-1.45674e-07
-7.04272e-08
7.23713e-08
3.28987e-07
0.000253846
-8.52085e-08
0.00026101
-0.000260949
4.68162e-08
-2.43558e-08
-9.13856e-08
-1.25028e-08
0.000237407
1.44566e-08
0.000197452
-0.000197488
-4.62641e-09
-4.53886e-09
-1.9266e-08
0.000197646
0.000237105
-0.000237175
-8.04169e-09
-7.37428e-09
1.86385e-07
-1.3624e-08
0.000285854
-0.000286033
-6.76594e-08
1.88721e-07
-1.36519e-08
0.000285997
-0.000286175
0.000276208
-0.000274105
7.09965e-08
7.59955e-08
0.000285529
2.31052e-08
-0.000285603
6.31162e-08
-7.76758e-09
0.000285671
2.30246e-08
-0.000285742
6.07723e-08
4.18762e-09
9.93554e-05
-9.94272e-05
9.92979e-05
-1.48673e-08
-9.92908e-05
6.19528e-09
-9.91431e-05
6.54686e-08
9.92046e-05
1.51386e-06
0.000274159
-5.05755e-07
-5.10639e-07
0.00028505
5.82848e-08
-0.000285118
2.23924e-08
-6.12145e-09
-6.16096e-09
0.000285191
5.5892e-08
-0.00028526
2.50155e-08
-1.38178e-08
1.80576e-07
0.000285358
-6.55498e-08
7.04242e-08
-1.64284e-08
1.82985e-07
0.000285499
-1.44238e-08
9.91745e-05
-9.91662e-05
4.59699e-09
9.92277e-05
-9.1179e-08
0.000261313
-0.000261249
5.21528e-08
-2.57787e-08
0.00113287
9.57463e-07
7.74292e-07
-1.21088e-06
5.71991e-07
-1.38573e-06
-0.00113227
-1.51234e-07
3.40104e-07
7.6435e-08
0.000254255
-7.32202e-08
-0.000254447
3.93876e-07
0.00113372
8.66399e-07
-1.51527e-06
1.23099e-07
-5.32785e-07
-1.27234e-06
6.11178e-08
-5.84025e-07
7.29365e-07
-2.79313e-07
0.000261399
5.33735e-07
-3.56312e-08
-0.000261616
0.00113359
9.24304e-07
-1.38294e-06
5.77124e-07
-1.20594e-06
7.76603e-07
-3.09385e-08
0.000253995
2.02118e-08
-0.000254032
4.27775e-08
-1.54625e-10
0.000237603
-0.000237678
-8.33671e-09
-1.07002e-08
-2.04992e-08
0.00019803
-0.000198157
9.1662e-11
0.00023792
-1.34641e-08
-9.49476e-08
-0.000238089
0.000197823
-5.33066e-09
-0.000197863
0.000237564
-0.000237636
-8.46837e-09
-1.06095e-08
-2.01893e-08
0.000197969
-0.000198096
-4.39981e-09
0.000237879
-1.37428e-08
-9.4863e-08
-0.00023805
0.000197762
1.48211e-08
-5.14154e-09
-0.000197802
1.09578e-09
-2.67011e-07
5.20223e-07
-3.28421e-08
0.000261123
4.35112e-07
8.67443e-07
1.10823e-06
-5.27121e-07
1.30937e-07
7.28528e-07
-5.8309e-07
-1.26661e-06
6.31276e-08
-0.00113442
-9.00816e-10
9.15631e-07
-1.37542e-06
5.81724e-07
7.78782e-07
-1.2016e-06
-2.66992e-08
3.69552e-08
-0.000253699
1.72708e-08
1.14571e-08
9.20249e-07
7.76465e-07
-1.20668e-06
-1.3781e-06
5.76603e-07
-1.4569e-07
7.25839e-08
3.29047e-07
0.000253918
-9.17166e-10
-8.53563e-08
-0.000260966
4.42701e-08
-2.51536e-08
-2.69417e-07
5.22709e-07
-3.3971e-08
0.000261095
4.24043e-07
-1.51131e-06
8.6703e-07
7.31257e-07
-5.82875e-07
-1.26887e-06
6.34724e-08
1.10541e-06
-5.27286e-07
1.30827e-07
-0.00113434
0.00113507
9.15201e-07
-1.37764e-06
5.8179e-07
-1.20138e-06
7.81278e-07
-2.66152e-08
6.19639e-09
0.000253558
3.94027e-08
-0.000253594
1.72976e-08
9.197e-07
7.78976e-07
-1.20651e-06
-1.38041e-06
5.76626e-07
-1.45535e-07
-7.05747e-08
7.27794e-08
3.28887e-07
0.00025381
-8.27061e-08
0.000261002
-0.000260938
4.12988e-08
-2.35672e-08
6.57201e-11
-1.2528e-08
-9.14051e-08
0.00023744
0.000197506
-0.000197542
-4.46547e-09
-1.91884e-08
0.000197701
-2.58881e-10
0.000237138
-0.000237208
-7.39763e-09
-8.14856e-09
-1.27875e-08
-9.13677e-08
0.000237399
1.4367e-08
0.000197445
-0.000197482
-4.27386e-09
-4.72429e-09
-1.89038e-08
0.00019764
0.000237099
-0.000237167
-7.48239e-09
-8.05799e-09
9.9277e-05
-9.92699e-05
9.92731e-05
-9.9266e-05
0.000274129
-5.05265e-07
-5.08184e-07
-6.14404e-09
5.35847e-08
-0.000285197
2.19967e-08
-6.09406e-09
5.80341e-08
-0.000285121
2.23949e-08
-6.55925e-08
-1.3252e-08
1.83018e-07
0.000285439
-6.53961e-08
-1.38792e-08
1.8281e-07
0.000285359
9.91537e-05
-9.91454e-05
9.92069e-05
9.91496e-05
-9.91414e-05
9.92029e-05
6.39342e-08
9.91116e-05
4.50067e-09
-9.90525e-05
6.3478e-08
9.9099e-05
4.45317e-09
-9.90403e-05
6.805e-08
1.80038e-07
-1.35441e-08
0.000285019
6.8014e-08
1.79669e-07
-1.36867e-08
0.000284942
-1.15874e-06
-1.11858e-06
-0.000274327
8.07395e-08
8.62339e-08
-7.55505e-09
2.07936e-08
-0.00028479
5.13585e-08
-7.53217e-09
2.08603e-08
-0.000284714
4.89071e-08
7.70879e-08
-0.000236741
-5.77885e-09
-6.77142e-09
1.40385e-07
-1.80428e-08
0.00019734
2.57442e-07
0.000236962
-8.83023e-08
-1.17718e-08
2.26771e-08
-3.58691e-09
-0.000197192
-9.09326e-10
-0.000260668
-2.26117e-08
3.5888e-08
3.2343e-07
6.9134e-08
0.000253493
0.0011363
3.87746e-09
9.11226e-07
7.8688e-07
-1.2074e-06
-1.37819e-06
5.89884e-07
4.29074e-07
8.52057e-07
-1.55531e-06
1.41647e-07
-5.2439e-07
-1.26155e-06
6.98007e-08
-5.71764e-07
7.39759e-07
8.03703e-10
0.000260831
-2.97971e-08
5.14183e-07
1.45997e-08
-0.000253281
3.12262e-08
-3.35966e-09
9.07105e-07
-1.37512e-06
5.92167e-07
-1.2049e-06
7.89172e-07
-0.000260642
-2.16468e-08
3.58673e-08
-6.52471e-08
3.23258e-07
6.89475e-08
0.000253382
0.00113626
9.11294e-07
7.86842e-07
-1.20737e-06
-1.3778e-06
5.89869e-07
4.23415e-07
1.15607e-06
8.52538e-07
-1.26124e-06
6.65596e-08
7.39786e-07
-5.688e-07
-1.55278e-06
1.41495e-07
-5.24528e-07
0.000260804
-3.14504e-08
5.14181e-07
4.83083e-09
1.46609e-08
-0.000253173
3.12729e-08
9.07105e-07
-1.37477e-06
5.92151e-07
-1.20486e-06
7.89053e-07
1.7967e-07
-1.3072e-08
0.000284888
-6.59253e-08
1.79787e-07
-1.33022e-08
0.000285031
-0.000274308
8.09187e-08
8.34622e-08
2.3622e-08
-0.000284657
4.89469e-08
-2.58306e-09
2.17325e-08
-0.000284803
4.92009e-08
4.81979e-09
9.91061e-05
-1.43273e-08
-9.90474e-05
-1.82596e-09
-0.000260658
-2.20656e-08
3.31082e-08
3.20688e-07
6.91007e-08
0.000253458
0.00113615
3.03901e-09
9.10994e-07
7.86749e-07
-1.20455e-06
-1.37792e-06
5.87013e-07
4.22381e-07
8.53038e-07
-1.51565e-06
1.35643e-07
-5.19105e-07
-1.26131e-06
7.00804e-08
-5.71591e-07
7.39768e-07
1.65077e-09
0.000260821
-3.08262e-08
5.16883e-07
1.45738e-08
-0.000253246
3.10264e-08
-4.08451e-09
9.06683e-07
-1.37491e-06
5.8926e-07
-1.20207e-06
7.88952e-07
7.70258e-08
-0.000236729
-5.76559e-09
-6.88969e-09
1.40386e-07
-1.80908e-08
0.00019733
2.57399e-07
0.000236951
-8.82858e-08
-1.14407e-08
2.28681e-08
-3.96179e-09
-0.00019718
-0.000260631
3.30935e-08
-2.19293e-08
0.00113609
9.11042e-07
7.86957e-07
-1.20455e-06
-1.37776e-06
5.87064e-07
-6.80601e-08
3.18135e-07
6.91201e-08
0.000253374
4.23826e-07
1.15062e-06
8.51729e-07
-1.26122e-06
6.67573e-08
7.39793e-07
-5.6879e-07
-1.54725e-06
1.4161e-07
-5.24469e-07
0.000260794
5.16873e-07
-3.12706e-08
9.06772e-07
-1.37473e-06
5.89307e-07
-1.20207e-06
7.89179e-07
7.75199e-09
1.43383e-08
-0.000253163
3.40352e-08
2.67016e-11
-0.000236767
-7.00717e-09
-3.71963e-09
-1.81704e-08
0.000197394
2.53435e-11
0.000236989
-1.12305e-08
-9.04026e-08
-4.04556e-09
-0.000197244
-7.72185e-08
-0.000260626
3.88733e-08
-2.16047e-08
0.00113595
9.10766e-07
7.81279e-07
-1.20169e-06
5.84276e-07
-1.37208e-06
-1.40356e-07
3.23149e-07
6.89738e-08
0.00025341
4.23262e-07
8.51733e-07
-1.54401e-06
1.38885e-07
-5.21256e-07
-1.25279e-06
6.33445e-08
-5.65686e-07
7.31534e-07
-2.57368e-07
0.000260789
5.11362e-07
-3.13452e-08
9.06444e-07
-1.36904e-06
5.86495e-07
-1.19921e-06
7.83462e-07
-2.28047e-08
1.45534e-08
-0.000253198
2.86606e-08
-0.000236726
-5.83483e-09
-6.54139e-09
-4.89464e-09
-1.81036e-08
0.000197334
0.000236948
-8.82946e-08
-1.16291e-08
1.40492e-08
-3.83494e-09
-0.000197184
1.7498e-07
-1.39993e-08
0.000284884
-6.35679e-08
1.7738e-07
-1.6554e-08
0.000285026
-0.000274294
8.11515e-08
8.6179e-08
2.17226e-08
-0.000284656
5.37308e-08
-4.61449e-09
2.43541e-08
-0.000284798
5.13829e-08
4.87825e-09
9.9106e-05
-1.40615e-08
-9.90473e-05
-7.46649e-08
-0.000260615
3.32558e-08
-2.13022e-08
0.0011358
9.10941e-07
7.83605e-07
-1.20183e-06
5.81187e-07
-1.37489e-06
-1.4024e-07
3.17934e-07
6.92483e-08
0.000253379
4.22084e-07
8.52467e-07
-1.50711e-06
1.35763e-07
-5.18826e-07
-1.25814e-06
7.0311e-08
-5.71411e-07
7.36867e-07
-2.59879e-07
0.000260778
5.16841e-07
-3.20643e-08
9.06626e-07
-1.37183e-06
5.86335e-07
-1.19651e-06
7.85895e-07
-2.26388e-08
1.46259e-08
-0.000253167
3.36007e-08
-2.75879e-10
-0.000236759
-6.5119e-09
-5.93521e-09
-1.8103e-08
0.000197388
-3.21329e-11
0.000236981
-1.16514e-08
-8.82942e-08
-3.79553e-09
-0.000197238
-0.000236718
-6.81564e-09
-5.83883e-09
-5.01251e-09
-1.78121e-08
0.000197327
0.000236939
-1.1895e-08
-8.82405e-08
1.4019e-08
-3.62746e-09
-0.000197177
9.90852e-05
-9.90265e-05
9.90812e-05
-9.90225e-05
-5.3915e-10
8.64723e-08
0.000145584
-0.000145666
-3.65606e-09
-9.31569e-08
-1.26681e-08
-0.000237868
-2.94953e-10
2.71886e-07
-0.000173727
-4.83266e-11
-2.52968e-10
0.000173717
-0.000230529
-7.36384e-09
-8.52546e-09
0.000230467
6.99508e-08
-0.000173821
-3.15486e-10
-0.000230687
-1.71145e-08
2.48941e-07
-1.21036e-10
0.000145577
-8.03656e-05
-1.37851e-08
-2.37219e-10
8.03797e-05
-6.16767e-08
0.00027022
1.75603e-08
1.99054e-07
-0.000270396
-6.71542e-09
0.000198005
1.74956e-08
3.3618e-08
3.40884e-09
-8.04307e-05
8.83702e-09
0.000270148
4.25952e-08
-0.000145675
-2.91141e-10
8.61841e-09
-1.2078e-08
-8.72529e-09
-9.81957e-11
9.80526e-08
8.59632e-10
0.000173833
-2.38991e-10
-0.000173928
-8.80573e-08
0.000230752
2.53447e-07
-0.000230913
-0.000145759
-2.25493e-10
7.39285e-08
6.05376e-08
8.03155e-05
-0.000269976
1.46515e-08
0.000269908
3.95879e-08
-2.00524e-08
-4.38836e-09
1.48663e-07
1.95476e-07
8.033e-05
9.93461e-05
-1.5337e-08
6.3435e-09
-9.93371e-05
4.51471e-09
6.89766e-08
8.64822e-08
-3.64475e-10
0.000145582
-0.000145665
-3.80865e-09
-1.30198e-08
-9.31235e-08
-0.000237854
-1.07958e-10
2.71842e-07
-0.000230518
-7.30815e-09
-8.46856e-09
0.000230456
6.98681e-08
-0.000173724
-1.17066e-10
-1.17995e-10
0.000173714
-0.000230676
-1.72143e-08
2.48916e-07
-0.000173818
-1.04068e-10
-9.06982e-11
0.000145575
-8.03671e-05
-1.41019e-08
-1.24571e-10
8.03813e-05
-6.16379e-08
0.000270215
1.77149e-08
1.98967e-07
-0.00027039
-6.03968e-09
0.000197988
1.54284e-08
3.32606e-08
3.53142e-09
-8.04323e-05
9.08569e-09
0.000270143
4.23909e-08
-0.000145673
8.54257e-09
-1.92581e-10
-8.60997e-09
-1.19975e-08
-1.27535e-10
9.79835e-08
-8.80324e-08
0.000230741
2.5342e-07
-0.000230902
7.18998e-10
0.00017383
-9.20227e-11
-0.000173925
-0.000145757
7.38812e-08
-7.82543e-11
6.059e-08
8.03169e-05
-0.000269971
1.47635e-08
0.000269902
3.94168e-08
-2.01027e-08
-3.77348e-09
1.48358e-07
1.95459e-07
8.03316e-05
9.93386e-05
-1.51867e-08
8.76171e-09
4.44831e-09
6.65151e-08
-4.10046e-08
-4.08964e-08
0.000218974
-0.000219099
1.02299e-07
1.0481e-07
-8.19488e-05
8.46123e-09
-1.72517e-08
8.19576e-05
-8.19368e-05
8.30408e-09
-1.71276e-08
8.19456e-05
-8.2014e-05
2.42001e-08
-8.2002e-05
2.4308e-08
3.84275e-08
3.86317e-08
0.000218914
7.02366e-08
-3.85952e-08
-4.01912e-08
0.00022902
5.74982e-08
-0.000229069
6.33531e-08
2.36359e-08
0.000285865
-8.76459e-09
-0.000285939
-3.93765e-09
0.000260211
7.79237e-08
-0.000260235
7.913e-08
1.74194e-08
0.000187189
-0.000187222
7.2888e-08
-3.83454e-08
-3.8356e-08
0.000228944
5.73646e-08
-0.000228998
6.30439e-08
2.33368e-08
0.000285781
-8.61163e-09
-3.66427e-09
-0.000285855
0.000260089
7.31024e-08
8.41469e-08
-0.000260111
1.7246e-08
0.000187135
-0.000187167
-9.18602e-09
-8.97806e-09
-0.000219159
-8.20057e-05
-8.19937e-05
1.46221e-07
-1.2824e-07
0.000228869
2.35316e-07
-0.000187072
3.4834e-08
0.000187043
1.88282e-07
-1.31188e-08
-6.66457e-08
7.16428e-08
-0.000260028
-6.98404e-08
0.000260008
7.24282e-08
7.85086e-08
3.28215e-07
1.89518e-07
0.000228815
5.73344e-08
1.46426e-07
-1.261e-07
0.000228798
2.30845e-07
-0.000187019
3.6641e-08
0.000186988
1.85711e-07
-1.38318e-08
-6.64264e-08
7.18675e-08
-0.000259909
-7.23389e-08
0.000259891
6.98226e-08
8.10147e-08
3.22865e-07
1.89678e-07
0.000228746
5.49374e-08
8.43538e-10
8.07184e-08
0.000145246
-0.000145323
-4.74327e-09
-8.68738e-08
-1.10975e-08
-0.000236937
-2.01918e-10
2.52862e-07
-0.000173341
-1.14302e-09
-1.33824e-10
-0.000229692
-2.83749e-09
-6.85054e-09
5.52848e-08
-0.000173427
-1.25378e-10
-0.000229839
-1.56472e-08
2.31739e-07
-7.08895e-10
-8.01727e-05
-1.66931e-08
6.63278e-10
8.01887e-05
-5.75729e-08
0.000269284
1.61428e-08
-0.000269445
1.85284e-07
-3.95066e-09
0.000197373
1.41266e-08
2.4771e-08
4.56201e-09
-8.02348e-05
7.40971e-09
0.000269224
3.12557e-08
-0.000145327
9.85989e-10
3.90757e-09
-6.86181e-09
-7.0413e-09
-1.11227e-11
8.10755e-08
-4.97652e-10
0.000173432
-0.00017352
-2.08275e-10
-8.20412e-08
0.000229894
-0.000230043
2.35947e-07
-0.000145405
-9.79246e-11
5.88422e-08
5.67518e-08
8.01272e-05
-0.000269066
1.73271e-08
2.85807e-08
-1.76311e-08
-5.03729e-09
1.37887e-07
1.82077e-07
9.90971e-05
-1.39043e-08
5.87671e-09
5.24096e-09
6.27923e-08
8.06855e-08
9.27978e-10
0.000145244
-0.000145321
-4.80083e-09
-1.13489e-08
-8.68691e-08
-0.000236924
-5.5671e-11
2.52829e-07
-0.000229682
-2.79336e-09
-6.93805e-09
5.52448e-08
-0.000173338
-1.24718e-09