/*--------------------------------*- C++ -*----------------------------------*\
| =========                 |                                                 |
| \\      /  F ield         | OpenFOAM: The Open Source CFD Toolbox           |
|  \\    /   O peration     | Version:  2312                                  |
|   \\  /    A nd           | Website:  www.openfoam.com                      |
|    \\/     M anipulation  |                                                 |
\*---------------------------------------------------------------------------*/
FoamFile
{
    version     2.0;
    format      ascii;
    arch        "LSB;label=32;scalar=64";
    class       volVectorField;
    location    "1000";
    object      U;
}
// * * * * * * * * * * * * * * * * * * * * * * * * * * * * * * * * * * * * * //

dimensions      [0 1 -1 0 0 0 0];

internalField   nonuniform List<vector> 
43008
(
(6.35e-05 6.35108e-05 0.108289)
(5.91457e-05 -9.55673e-05 0.107557)
(6.22812e-05 6.22719e-05 0.108604)
(-9.36706e-05 5.81653e-05 0.107771)
(5.81266e-05 -9.3725e-05 0.107771)
(-0.000149547 -0.00014953 0.106584)
(0.000152367 0.000152393 0.106508)
(1.26023e-05 1.26995e-05 0.106725)
(5.9322e-05 9.55023e-05 0.107557)
(-5.9407e-05 9.56453e-05 0.107556)
(5.85851e-05 9.41836e-05 0.107719)
(-5.86214e-05 9.42659e-05 0.107718)
(-1.26005e-05 1.26662e-05 0.106725)
(9.5555e-05 5.92281e-05 0.107557)
(9.55533e-05 -5.93711e-05 0.107556)
(9.41973e-05 5.84819e-05 0.107719)
(9.41534e-05 -5.85973e-05 0.107718)
(-9.41325e-05 5.84427e-05 0.107719)
(-9.4044e-05 -5.84927e-05 0.107718)
(0.000152409 -0.000152456 0.106508)
(1.26086e-05 -1.25869e-05 0.106725)
(-5.91941e-05 -9.55349e-05 0.107557)
(5.83802e-05 -9.41678e-05 0.107719)
(-5.84226e-05 -9.41479e-05 0.107719)
(-1.26498e-05 -1.25418e-05 0.106724)
(0.000149557 0.000149558 0.106585)
(5.83325e-05 9.37384e-05 0.10777)
(-5.83541e-05 9.37975e-05 0.10777)
(-0.000149548 0.000149539 0.106585)
(9.3746e-05 5.82208e-05 0.107771)
(9.37003e-05 -5.83294e-05 0.10777)
(-9.35791e-05 -5.82187e-05 0.10777)
(0.000149539 -0.000149602 0.106585)
(-5.81513e-05 -9.3699e-05 0.10777)
(2.06341e-06 2.08514e-05 0.0947508)
(-2.87265e-06 3.83131e-05 0.0840943)
(2.78213e-06 7.04759e-05 0.0947941)
(-5.23892e-06 -1.2181e-06 0.0840813)
(5.93447e-06 -4.84988e-06 0.0725368)
(2.08297e-05 2.08111e-06 0.0947508)
(3.83103e-05 -2.82632e-06 0.0840943)
(7.04644e-05 2.80322e-06 0.094794)
(-1.29725e-06 -5.38547e-06 0.0840814)
(-6.35204e-05 6.3508e-05 0.108289)
(6.34691e-05 -6.35394e-05 0.108289)
(-6.34945e-05 -6.35174e-05 0.108289)
(6.25842e-05 6.25783e-05 0.108526)
(-6.25839e-05 6.25763e-05 0.108526)
(6.25399e-05 -6.26108e-05 0.108526)
(-6.25545e-05 -6.25792e-05 0.108526)
(-6.21569e-05 6.40596e-06 0.103006)
(-9.50594e-05 5.89779e-05 0.107612)
(-3.03171e-05 2.13291e-06 0.0963718)
(-0.000104297 2.11287e-05 0.108126)
(1.6375e-05 -3.45556e-06 0.0725069)
(-4.75916e-06 5.94186e-06 0.0725358)
(6.25402e-06 -6.21449e-05 0.103005)
(2.12595e-05 -0.000104812 0.108055)
(3.09129e-05 -7.5327e-05 0.0963603)
(5.88918e-05 -9.50916e-05 0.107612)
(7.55484e-06 -0.000126299 0.102968)
(2.11232e-05 -0.000104397 0.108126)
(2.17284e-06 -3.02235e-05 0.0963696)
(-1.41458e-05 -1.39917e-05 0.106681)
(-1.56546e-05 2.05843e-06 0.0899648)
(2.00318e-06 -1.55926e-05 0.089962)
(1.59727e-06 1.53033e-05 0.0943849)
(-1.89822e-06 3.52045e-05 0.0838208)
(2.31924e-06 6.36411e-05 0.094419)
(-4.56275e-06 -3.31061e-06 0.0838166)
(-3.42428e-06 1.56268e-05 0.0723247)
(5.6783e-06 -5.16925e-06 0.0723587)
(1.52546e-05 1.61929e-06 0.0943849)
(3.5206e-05 -1.98588e-06 0.083821)
(6.36384e-05 2.32106e-06 0.0944189)
(-3.32517e-06 -4.54576e-06 0.0838168)
(-6.22743e-05 6.2267e-05 0.108604)
(6.22372e-05 -6.23012e-05 0.108604)
(-6.2246e-05 -6.22682e-05 0.108604)
(-5.5391e-05 5.23387e-06 0.102755)
(-6.98472e-05 2.83481e-05 0.0960259)
(-0.000103139 2.06891e-05 0.108337)
(-9.31947e-05 5.78961e-05 0.107821)
(-0.000118568 6.55691e-06 0.102725)
(-2.56204e-05 6.76777e-07 0.096042)
(-0.000102756 2.05472e-05 0.108405)
(1.55662e-05 -3.50788e-06 0.0723247)
(-5.17633e-06 5.74746e-06 0.0723578)
(5.09336e-06 -5.54212e-05 0.102754)
(2.06936e-05 -0.000103251 0.108336)
(2.84333e-05 -6.98944e-05 0.0960267)
(5.78414e-05 -9.32448e-05 0.107821)
(6.60438e-06 -0.000118679 0.102725)
(2.05525e-05 -0.000102843 0.108405)
(7.24541e-07 -2.55248e-05 0.0960398)
(-3.43341e-05 -1.8279e-05 0.0896682)
(-1.82827e-05 -3.42836e-05 0.0896676)
(-1.12353e-05 -1.11419e-05 0.106761)
(-1.30845e-05 2.65507e-06 0.0896669)
(2.61944e-06 -1.30311e-05 0.089664)
(3.37897e-06 1.63181e-05 0.0725069)
(-6.08479e-06 -4.79481e-06 0.0725364)
(1.63018e-05 3.33806e-06 0.0725056)
(-4.97139e-06 -6.25112e-06 0.0725355)
(1.94973e-05 3.69451e-05 0.0899755)
(3.69204e-05 1.93768e-05 0.0899724)
(1.40339e-05 1.41449e-05 0.106682)
(-2.10805e-06 1.56427e-05 0.0899658)
(1.54047e-05 -2.14904e-06 0.0899631)
(-5.61047e-06 -4.98602e-06 0.0724452)
(3.49321e-06 1.60299e-05 0.0724135)
(-5.0094e-06 -5.88925e-06 0.0724446)
(1.58949e-05 3.32671e-06 0.0724121)
(0.000151019 0.000151044 0.10655)
(-2.28507e-06 1.43441e-05 0.0898132)
(1.42553e-05 -2.39404e-06 0.0898107)
(1.88507e-05 3.57036e-05 0.0898189)
(3.55475e-05 1.87817e-05 0.0898156)
(-2.20231e-06 2.08394e-05 0.0947507)
(2.77081e-06 3.82275e-05 0.0840942)
(-2.95921e-06 7.04617e-05 0.0947942)
(5.11383e-06 -1.25929e-06 0.0840814)
(6.32167e-06 6.20907e-05 0.103005)
(3.08443e-05 7.54052e-05 0.0963595)
(2.12828e-05 0.000104718 0.108055)
(5.90755e-05 9.50697e-05 0.107612)
(7.489e-06 0.000126274 0.102968)
(2.07418e-06 3.03313e-05 0.0963695)
(2.11433e-05 0.000104322 0.108126)
(-6.39817e-06 6.20803e-05 0.103005)
(-3.08971e-05 7.53148e-05 0.0963586)
(-2.12748e-05 0.000104743 0.108055)
(-5.91626e-05 9.51951e-05 0.107611)
(-7.61509e-06 0.000126278 0.102968)
(-2.22815e-06 3.02748e-05 0.0963686)
(-2.11465e-05 0.000104343 0.108126)
(2.5249e-06 6.69251e-05 0.0946024)
(-4.68417e-06 -2.43269e-06 0.0839454)
(-2.27062e-06 3.67051e-05 0.083954)
(1.80728e-06 1.79256e-05 0.0945636)
(-2.69935e-06 6.69214e-05 0.0946025)
(4.63801e-06 -2.32733e-06 0.0839453)
(2.26063e-06 3.66816e-05 0.0839541)
(-1.95892e-06 1.79388e-05 0.0945635)
(7.03095e-06 0.00012246 0.102849)
(5.88455e-05 9.4648e-05 0.107666)
(1.44188e-06 2.77712e-05 0.096202)
(2.08616e-05 0.000103557 0.108267)
(2.9638e-05 7.26104e-05 0.0961902)
(2.10071e-05 0.000103944 0.108197)
(5.72789e-06 5.86697e-05 0.102882)
(-7.142e-06 0.000122465 0.102849)
(-5.88905e-05 9.47299e-05 0.107665)
(-1.48123e-06 2.7911e-05 0.0962007)
(-2.08644e-05 0.000103572 0.108267)
(-2.9672e-05 7.25835e-05 0.0961895)
(-2.10061e-05 0.000103954 0.108197)
(-5.78525e-06 5.86641e-05 0.102882)
(-1.40944e-05 1.41573e-05 0.106682)
(1.98065e-06 1.56071e-05 0.0899636)
(-1.57003e-05 -2.11691e-06 0.0899673)
(4.72818e-06 -5.97896e-06 0.0725387)
(5.73509e-06 -4.81319e-06 0.0724455)
(-3.45927e-06 1.59383e-05 0.0724135)
(-0.000151051 0.000151045 0.10655)
(2.41574e-06 1.44873e-05 0.0898108)
(-1.43597e-05 -2.45841e-06 0.0898148)
(-1.88531e-05 3.56279e-05 0.0898158)
(-3.56138e-05 1.87939e-05 0.0898171)
(4.98122e-06 -5.88672e-06 0.0724479)
(-1.5978e-05 3.38915e-06 0.0724109)
(6.20694e-05 6.30183e-06 0.103006)
(7.53276e-05 3.0852e-05 0.0963591)
(0.000104722 2.1245e-05 0.108055)
(9.50952e-05 5.89755e-05 0.107612)
(0.000126251 7.49514e-06 0.102968)
(3.01521e-05 2.00667e-06 0.0963689)
(0.000104312 2.11024e-05 0.108126)
(2.08158e-05 -2.18603e-06 0.0947508)
(3.83127e-05 2.70762e-06 0.0840945)
(7.04605e-05 -2.92311e-06 0.094794)
(-1.17453e-06 5.19058e-06 0.0840812)
(6.20748e-05 -6.40221e-06 0.103006)
(0.000104733 -2.13136e-05 0.108055)
(7.53522e-05 -3.09411e-05 0.0963594)
(9.50736e-05 -5.91185e-05 0.107611)
(0.00012623 -7.62753e-06 0.102968)
(0.000104315 -2.11783e-05 0.108126)
(3.03171e-05 -2.09212e-06 0.0963678)
(6.69121e-05 2.53862e-06 0.0946023)
(-2.36097e-06 -4.83732e-06 0.0839456)
(3.66651e-05 -2.37151e-06 0.0839539)
(1.79215e-05 1.84983e-06 0.0945636)
(0.000122429 7.01792e-06 0.102849)
(9.46604e-05 5.87382e-05 0.107666)
(2.77593e-05 1.37289e-06 0.0962015)
(0.000103552 2.08306e-05 0.108267)
(7.25552e-05 2.96097e-05 0.0961896)
(0.000103936 2.09688e-05 0.108197)
(5.86824e-05 5.71022e-06 0.102883)
(6.69208e-05 -2.67317e-06 0.0946023)
(-2.2768e-06 4.87384e-06 0.0839453)
(3.66987e-05 2.31042e-06 0.0839541)
(1.79198e-05 -1.90374e-06 0.0945636)
(0.000122424 -7.16195e-06 0.102849)
(9.46173e-05 -5.88663e-05 0.107665)
(0.000103537 -2.08961e-05 0.108267)
(2.78768e-05 -1.3414e-06 0.0962002)
(0.000103923 -2.10385e-05 0.108197)
(7.25752e-05 -2.966e-05 0.0961899)
(5.86888e-05 -5.78356e-06 0.102883)
(-2.09086e-05 2.21415e-06 0.0947523)
(1.18919e-06 -5.21212e-06 0.0840836)
(-6.2105e-05 -6.33991e-06 0.103005)
(-9.50006e-05 -5.90224e-05 0.107611)
(-0.000104266 -2.11556e-05 0.108126)
(-3.03338e-05 -2.09535e-06 0.0963694)
(-2.08689e-05 -2.074e-06 0.0947508)
(1.21441e-06 5.19701e-06 0.0840813)
(-0.000122392 7.02442e-06 0.102849)
(-9.46001e-05 5.87102e-05 0.107666)
(-2.79076e-05 1.38805e-06 0.0962043)
(-0.000103512 2.0834e-05 0.108267)
(-7.24873e-05 2.95581e-05 0.09619)
(-0.000103899 2.09817e-05 0.108197)
(-5.87527e-05 5.81913e-06 0.102883)
(-6.68898e-05 2.5357e-06 0.0946015)
(2.30146e-06 -4.91568e-06 0.0839477)
(-3.66775e-05 -2.33881e-06 0.0839531)
(-1.80203e-05 1.95086e-06 0.094565)
(-0.000122411 -7.10806e-06 0.102849)
(-9.45248e-05 -5.8772e-05 0.107665)
(-0.000103494 -2.08709e-05 0.108267)
(-2.79619e-05 -1.37158e-06 0.0962018)
(-0.00010387 -2.10145e-05 0.108197)
(-7.25178e-05 -2.96103e-05 0.0961895)
(-5.86719e-05 -5.70063e-06 0.102882)
(-6.69149e-05 -2.65287e-06 0.094602)
(2.32777e-06 4.85911e-06 0.0839453)
(-3.67345e-05 2.33904e-06 0.0839536)
(-1.79871e-05 -1.81631e-06 0.0945636)
(3.69715e-05 -1.94735e-05 0.0899732)
(1.94547e-05 -3.69512e-05 0.0899752)
(1.40746e-05 -1.40543e-05 0.106681)
(1.56555e-05 2.00663e-06 0.0899617)
(-1.99061e-06 -1.56368e-05 0.0899656)
(3.42387e-06 -1.64007e-05 0.0725067)
(-5.93748e-06 4.78539e-06 0.0725364)
(-4.97781e-06 5.84007e-06 0.0724447)
(1.59545e-05 -3.49148e-06 0.0724136)
(0.000151032 -0.000151096 0.10655)
(1.43272e-05 2.32597e-06 0.089809)
(-2.30203e-06 -1.4312e-05 0.089813)
(3.56087e-05 -1.88649e-05 0.0898166)
(1.88452e-05 -3.5575e-05 0.0898184)
(-5.83477e-06 5.00133e-06 0.0724453)
(3.46102e-06 -1.59898e-05 0.0724135)
(-6.46005e-06 -6.21336e-05 0.103006)
(-2.12665e-05 -0.000104742 0.108055)
(-3.0995e-05 -7.53276e-05 0.0963598)
(-5.89243e-05 -9.5074e-05 0.107612)
(-7.59303e-06 -0.000126245 0.102967)
(-2.11245e-05 -0.000104319 0.108126)
(-2.18296e-06 -3.01652e-05 0.0963687)
(2.05164e-06 -2.09222e-05 0.0947505)
(-2.71153e-06 -3.83071e-05 0.0840947)
(2.84161e-06 -7.04845e-05 0.0947934)
(-5.13562e-06 1.24124e-06 0.0840814)
(-2.23578e-06 -2.08602e-05 0.0947512)
(2.62139e-06 -3.8248e-05 0.0840954)
(-2.96433e-06 -7.0452e-05 0.0947931)
(5.10317e-06 1.26688e-06 0.084082)
(7.05403e-06 -0.000122476 0.102849)
(5.86417e-05 -9.4639e-05 0.107666)
(2.08435e-05 -0.000103606 0.108267)
(1.42375e-06 -2.77937e-05 0.096202)
(2.09891e-05 -0.000104015 0.108197)
(2.96361e-05 -7.25391e-05 0.0961908)
(5.67286e-06 -5.87692e-05 0.102882)
(-7.13261e-06 -0.000122425 0.102848)
(-5.86864e-05 -9.46142e-05 0.107666)
(-2.08487e-05 -0.000103541 0.108267)
(-1.43731e-06 -2.7719e-05 0.096201)
(-2.09848e-05 -0.000103949 0.108197)
(-2.97164e-05 -7.25253e-05 0.0961905)
(-5.8297e-06 -5.87396e-05 0.102883)
(2.58951e-06 -6.69393e-05 0.0946018)
(-4.82489e-06 2.32829e-06 0.0839455)
(-2.31712e-06 -3.66969e-05 0.0839544)
(1.79614e-06 -1.80262e-05 0.0945634)
(-2.69869e-06 -6.69109e-05 0.0946014)
(4.79427e-06 2.34929e-06 0.083946)
(2.25313e-06 -3.66302e-05 0.083955)
(-1.95765e-06 -1.79789e-05 0.0945642)
(4.77174e-06 5.9618e-06 0.0725364)
(5.92548e-06 4.785e-06 0.0725359)
(-0.000151047 -0.000151007 0.10655)
(-1.43283e-05 2.37593e-06 0.0898123)
(2.33316e-06 -1.42584e-05 0.0898094)
(-3.56371e-05 -1.88507e-05 0.0898174)
(-1.88773e-05 -3.5574e-05 0.0898167)
(5.00709e-06 5.8444e-06 0.0724454)
(-1.59928e-05 -3.4471e-06 0.0724133)
(5.8264e-06 4.99514e-06 0.0724448)
(-3.5147e-06 -1.59352e-05 0.0724137)
(3.60688e-06 1.56576e-05 0.0723246)
(-5.71028e-06 -5.21681e-06 0.0723585)
(1.55711e-05 3.46567e-06 0.0723235)
(-5.24172e-06 -5.7315e-06 0.0723579)
(1.83066e-05 3.44592e-05 0.0896699)
(3.42984e-05 1.82753e-05 0.0896665)
(1.11797e-05 1.1282e-05 0.106762)
(-2.55527e-06 1.30558e-05 0.0896676)
(1.30254e-05 -2.58449e-06 0.0896654)
(-1.69142e-06 1.52988e-05 0.0943848)
(1.98857e-06 3.52409e-05 0.0838212)
(-2.45088e-06 6.36409e-05 0.0944191)
(4.5108e-06 -3.30523e-06 0.0838164)
(5.14112e-06 5.53103e-05 0.102755)
(2.84976e-05 6.9981e-05 0.0960261)
(2.07217e-05 0.000103195 0.108337)
(5.80572e-05 9.32707e-05 0.107821)
(6.57632e-06 0.000118616 0.102725)
(7.28843e-07 2.55355e-05 0.0960397)
(2.05791e-05 0.000102813 0.108405)
(-5.17217e-06 5.53176e-05 0.102755)
(-2.84312e-05 6.99402e-05 0.0960257)
(-2.07151e-05 0.000103197 0.108337)
(-5.80775e-05 9.33023e-05 0.107821)
(-6.66401e-06 0.000118644 0.102725)
(-7.5328e-07 2.55673e-05 0.0960384)
(-2.057e-05 0.000102812 0.108405)
(-1.80927e-05 3.43267e-05 0.0896667)
(-3.43195e-05 1.81946e-05 0.089668)
(-1.11896e-05 1.12413e-05 0.106761)
(2.53444e-06 1.30964e-05 0.0896655)
(-1.31252e-05 -2.73977e-06 0.0896693)
(-1.55562e-05 3.38915e-06 0.072322)
(5.20826e-06 -5.7997e-06 0.072361)
(5.53473e-05 5.12134e-06 0.102755)
(6.99157e-05 2.84618e-05 0.0960256)
(0.000103178 2.06896e-05 0.108337)
(9.32678e-05 5.7946e-05 0.107821)
(0.000118618 6.56253e-06 0.102724)
(2.5472e-05 7.2615e-07 0.0960393)
(0.000102785 2.05433e-05 0.108405)
(1.52526e-05 -1.65847e-06 0.0943848)
(3.52413e-05 1.99348e-06 0.083821)
(6.36485e-05 -2.4117e-06 0.0944189)
(-3.23409e-06 4.61763e-06 0.0838163)
(5.53454e-05 -5.18056e-06 0.102755)
(0.000103162 -2.07519e-05 0.108337)
(6.99199e-05 -2.84632e-05 0.0960258)
(9.32251e-05 -5.80398e-05 0.107821)
(0.000118621 -6.67563e-06 0.102725)
(0.000102781 -2.06098e-05 0.108405)
(2.55853e-05 -6.53189e-07 0.096038)
(-1.53649e-05 1.7199e-06 0.0943861)
(-3.52126e-05 -2.03386e-06 0.0838201)
(-6.36104e-05 2.28906e-06 0.0944181)
(3.27086e-06 -4.66437e-06 0.0838187)
(-5.53376e-05 -5.11818e-06 0.102755)
(-0.000103113 -2.07171e-05 0.108337)
(-6.98953e-05 -2.84255e-05 0.0960254)
(-9.30926e-05 -5.7938e-05 0.107821)
(-0.000118591 -6.62085e-06 0.102725)
(-0.000102738 -2.0577e-05 0.108405)
(-2.56745e-05 -6.88425e-07 0.0960395)
(-1.53481e-05 -1.57825e-06 0.0943848)
(-3.52609e-05 2.00005e-06 0.0838206)
(-6.36444e-05 -2.41201e-06 0.0944186)
(3.31381e-06 4.58386e-06 0.0838164)
(3.43134e-05 -1.82857e-05 0.0896675)
(1.82603e-05 -3.42846e-05 0.0896692)
(1.11748e-05 -1.11524e-05 0.106761)
(1.30948e-05 2.61129e-06 0.0896636)
(-2.59487e-06 -1.3093e-05 0.0896676)
(3.47557e-06 -1.56051e-05 0.0723245)
(-5.74656e-06 5.19618e-06 0.0723584)
(-5.23562e-06 -5.54011e-05 0.102755)
(-2.07034e-05 -0.000103197 0.108336)
(-2.8493e-05 -6.98578e-05 0.0960264)
(-5.78699e-05 -9.32261e-05 0.107821)
(-6.64763e-06 -0.000118603 0.102724)
(-2.05624e-05 -0.000102792 0.108405)
(-7.21412e-07 -2.54256e-05 0.0960388)
(1.55633e-06 -1.53814e-05 0.0943848)
(-2.00417e-06 -3.52488e-05 0.0838213)
(2.34893e-06 -6.36457e-05 0.0944184)
(-4.57453e-06 3.27876e-06 0.0838166)
(-1.71441e-06 -1.53205e-05 0.0943855)
(1.93768e-06 -3.51843e-05 0.0838219)
(-2.45602e-06 -6.36237e-05 0.0944181)
(4.55027e-06 3.27625e-06 0.0838169)
(-1.55892e-05 -3.48941e-06 0.0723243)
(5.21588e-06 5.73223e-06 0.0723585)
(-3.52511e-06 -1.5553e-05 0.0723248)
(5.74128e-06 5.17983e-06 0.0723579)
(-1.1894e-06 1.33413e-05 0.0780382)
(2.63827e-06 6.86766e-05 0.0946972)
(1.81925e-07 -1.02615e-05 0.079912)
(4.15168e-06 1.39503e-05 0.0928157)
(3.58588e-08 8.40073e-06 0.0798525)
(6.37445e-06 5.91802e-05 0.0927531)
(1.22061e-07 -6.13878e-06 0.0781086)
(2.28446e-06 -6.67025e-06 0.0694211)
(5.29263e-06 3.92073e-05 0.0880751)
(-5.62976e-06 -6.21239e-07 0.0841521)
(8.34992e-07 1.24836e-05 0.0693265)
(3.66157e-06 3.66891e-06 0.0881438)
(-1.41428e-07 -6.24335e-06 0.0781573)
(2.19853e-06 2.24077e-05 0.0948475)
(-5.07187e-08 8.17989e-06 0.0799013)
(6.60519e-06 6.06865e-05 0.0928432)
(-1.42773e-06 1.3264e-05 0.078087)
(9.91898e-08 -1.04962e-05 0.0799604)
(4.34936e-06 1.52341e-05 0.0929054)
(8.71355e-07 1.23675e-05 0.0692833)
(3.61469e-06 2.92052e-06 0.0880644)
(-2.56838e-06 3.75181e-05 0.0840231)
(5.24706e-06 3.82691e-05 0.0879953)
(2.35847e-06 -6.7114e-06 0.0693776)
(6.01268e-06 -4.73486e-06 0.0725841)
(-3.38315e-06 1.61456e-05 0.0724592)
(1.33405e-05 -1.08243e-06 0.0780385)
(6.86633e-05 2.6686e-06 0.0946971)
(1.39277e-05 4.16259e-06 0.0928157)
(-1.02907e-05 2.31259e-07 0.0799124)
(5.91729e-05 6.4325e-06 0.0927532)
(8.38412e-06 1.10107e-07 0.0798526)
(-6.16962e-06 1.27704e-07 0.0781091)
(-6.73199e-06 2.33498e-06 0.0694217)
(3.9187e-05 5.38427e-06 0.0880753)
(-6.37139e-07 -5.36549e-06 0.0841522)
(1.25015e-05 9.0255e-07 0.0693272)
(3.57324e-06 3.75633e-06 0.0881438)
(-6.26714e-06 -8.72418e-08 0.0781577)
(2.23728e-05 2.22731e-06 0.0948475)
(6.06755e-05 6.64519e-06 0.0928431)
(8.15755e-06 1.15999e-08 0.0799013)
(1.32592e-05 -1.35134e-06 0.0780872)
(1.52026e-05 4.40056e-06 0.0929054)
(-1.05213e-05 1.58764e-07 0.0799608)
(1.24045e-05 9.62599e-07 0.069284)
(2.85306e-06 3.58461e-06 0.0880645)
(3.7462e-05 -2.68061e-06 0.0840232)
(3.82861e-05 5.2301e-06 0.0879955)
(-6.79311e-06 2.34493e-06 0.0693782)
(-4.63411e-06 6.00442e-06 0.072583)
(1.6161e-05 -3.47541e-06 0.0724597)
(-2.75667e-05 -2.74808e-05 0.0856509)
(-4.15245e-07 6.30949e-06 0.0695838)
(6.25427e-06 -3.76306e-07 0.0695771)
(-1.00633e-05 -1.19827e-05 0.0695014)
(-1.20104e-05 -1.00543e-05 0.0694951)
(-8.5242e-06 -8.43074e-06 0.0857042)
(-1.6194e-05 -2.08427e-05 0.0946918)
(-1.6358e-05 1.89354e-06 0.090044)
(-3.28618e-05 -3.53994e-05 0.10001)
(-1.24665e-05 7.04065e-06 0.0834762)
(-2.08936e-05 -1.60334e-05 0.094683)
(1.81804e-06 -1.63032e-05 0.0900412)
(-3.53803e-05 -3.27907e-05 0.100006)
(6.98071e-06 -1.23786e-05 0.0834701)
(-9.01031e-06 -8.88528e-06 0.0857766)
(-5.90247e-07 6.31516e-06 0.0696322)
(6.24055e-06 -5.31148e-07 0.0696255)
(-6.9253e-05 -4.42202e-05 0.094537)
(-1.19901e-05 6.91101e-06 0.0834103)
(-3.63097e-05 -1.91301e-05 0.0898948)
(-3.16877e-05 -3.4142e-05 0.0999312)
(-9.96322e-05 -6.26391e-05 0.0998519)
(-3.08032e-05 -5.73483e-06 0.0833399)
(-1.537e-05 -1.99198e-05 0.0946081)
(-4.43122e-05 -6.91362e-05 0.0945292)
(6.86694e-06 -1.19038e-05 0.0834042)
(-1.91925e-05 -3.62563e-05 0.0898939)
(-3.41054e-05 -3.1609e-05 0.0999271)
(-6.27084e-05 -9.95708e-05 0.0998489)
(-5.79953e-06 -3.08176e-05 0.0833356)
(-1.99366e-05 -1.52222e-05 0.0945994)
(-2.75274e-07 1.35916e-05 0.0778567)
(2.20355e-06 6.21043e-05 0.0943305)
(3.94018e-07 -9.14111e-06 0.0797346)
(3.40082e-06 9.48388e-06 0.0924795)
(3.33666e-07 9.43121e-06 0.0796744)
(5.69477e-06 5.37492e-05 0.0924156)
(7.9469e-07 -5.81145e-06 0.0779272)
(2.43278e-06 -6.9949e-06 0.0692533)
(4.91929e-06 3.57813e-05 0.0877689)
(-4.60506e-06 -2.80862e-06 0.0838802)
(1.03416e-06 1.19904e-05 0.0691599)
(3.2187e-06 9.83625e-07 0.0878393)
(6.95155e-07 -5.88695e-06 0.0779707)
(1.73372e-06 1.65923e-05 0.0944732)
(2.94466e-07 9.15426e-06 0.0797166)
(5.85816e-06 5.50252e-05 0.0924966)
(-5.00557e-07 1.3532e-05 0.0779001)
(3.90718e-07 -9.44327e-06 0.0797768)
(3.61666e-06 1.05311e-05 0.0925603)
(1.17611e-06 1.19975e-05 0.0691213)
(3.02373e-06 3.95413e-07 0.0877684)
(-1.83335e-06 3.45505e-05 0.0837571)
(4.78747e-06 3.51093e-05 0.0876978)
(2.43613e-06 -7.01937e-06 0.0692141)
(5.75811e-06 -5.07146e-06 0.0724013)
(-3.59886e-06 1.55295e-05 0.0722815)
(1.35835e-05 -2.53794e-07 0.077857)
(6.20962e-05 2.21438e-06 0.0943304)
(9.46153e-06 3.42396e-06 0.0924795)
(-9.1329e-06 4.43796e-07 0.0797349)
(5.37315e-05 5.69962e-06 0.0924156)
(9.43276e-06 3.6976e-07 0.0796745)
(-5.8161e-06 8.3116e-07 0.0779276)
(-6.96532e-06 2.48016e-06 0.0692541)
(3.58199e-05 4.94986e-06 0.0877693)
(-2.85101e-06 -4.68088e-06 0.0838804)
(1.21086e-05 1.16754e-06 0.0691609)
(9.33588e-07 3.21721e-06 0.0878395)
(-5.91311e-06 6.90719e-07 0.0779711)
(1.65636e-05 1.73599e-06 0.0944732)
(5.50155e-05 5.86922e-06 0.0924967)
(9.15928e-06 3.1903e-07 0.0797168)
(1.35314e-05 -4.31533e-07 0.0779005)
(1.04853e-05 3.59869e-06 0.0925603)
(-9.44226e-06 4.05794e-07 0.0797771)
(1.20172e-05 1.22332e-06 0.0691219)
(3.6351e-07 3.07666e-06 0.0877686)
(3.45359e-05 -1.84465e-06 0.0837571)
(3.50641e-05 4.82668e-06 0.0876981)
(-7.00717e-06 2.49081e-06 0.0692148)
(-5.08165e-06 5.79659e-06 0.0724008)
(1.53806e-05 -3.51097e-06 0.0722818)
(-2.55585e-05 -2.55555e-05 0.0853787)
(2.60325e-07 6.22254e-06 0.0694009)
(6.23825e-06 2.45275e-07 0.0693943)
(-9.43506e-06 -1.17144e-05 0.0693188)
(-1.16583e-05 -9.48646e-06 0.0693127)
(-6.75731e-06 -6.73737e-06 0.0854337)
(-1.30033e-05 -1.73958e-05 0.0943686)
(-9.53482e-05 -5.89344e-05 0.099621)
(-2.93813e-05 -5.97825e-06 0.0831506)
(-1.36886e-05 2.51425e-06 0.0897387)
(-6.61e-05 -4.14782e-05 0.094297)
(-2.83548e-05 -3.06429e-05 0.0996999)
(-1.0545e-05 6.5549e-06 0.0832213)
(-1.73235e-05 -1.28694e-05 0.0943599)
(-5.89495e-05 -9.52563e-05 0.0996182)
(-5.98224e-06 -2.94207e-05 0.0831464)
(2.47693e-06 -1.36366e-05 0.0897358)
(-4.15104e-05 -6.6034e-05 0.0942893)
(-3.04991e-05 -2.82414e-05 0.0996958)
(6.56052e-06 -1.04925e-05 0.0832153)
(-7.17266e-06 -7.13827e-06 0.0854986)
(-9.58971e-06 -1.17778e-05 0.0693629)
(-1.17382e-05 -9.62883e-06 0.0693567)
(-2.60393e-05 -2.6021e-05 0.085444)
(1.00916e-07 6.24629e-06 0.0694451)
(6.25145e-06 9.67028e-08 0.0694384)
(-6.5119e-05 -4.06305e-05 0.0942206)
(-1.0073e-05 6.44871e-06 0.0831612)
(-3.37163e-05 -1.80076e-05 0.0895963)
(-2.73103e-05 -2.95364e-05 0.0996244)
(-9.397e-05 -5.77641e-05 0.0995457)
(-2.88999e-05 -6.04247e-06 0.0830903)
(-1.22384e-05 -1.65776e-05 0.0942923)
(-4.06411e-05 -6.50545e-05 0.0942129)
(6.46526e-06 -1.00301e-05 0.0831552)
(-1.80039e-05 -3.36642e-05 0.0895958)
(-2.93741e-05 -2.72095e-05 0.0996202)
(-5.7766e-05 -9.38917e-05 0.0995429)
(-6.03101e-06 -2.8952e-05 0.0830862)
(-1.65182e-05 -1.21368e-05 0.0942836)
(-6.3102e-06 -4.86586e-06 0.0725836)
(3.37587e-06 1.61484e-05 0.0724594)
(-4.52873e-06 -6.02309e-06 0.0725829)
(1.61313e-05 3.30388e-06 0.0724586)
(2.74411e-05 2.75226e-05 0.0856508)
(-6.27587e-06 4.12092e-07 0.0695846)
(2.98754e-07 -6.18173e-06 0.0695776)
(1.19076e-05 1.00412e-05 0.0695014)
(1.00356e-05 1.19794e-05 0.0694946)
(8.3875e-06 8.50962e-06 0.0857055)
(2.07891e-05 1.60479e-05 0.0946929)
(6.40068e-05 0.000101112 0.0999312)
(5.75139e-06 3.13263e-05 0.0834075)
(-2.00381e-06 1.62019e-05 0.090045)
(4.51736e-05 7.0338e-05 0.0946214)
(-7.13747e-06 1.23727e-05 0.0834778)
(3.53302e-05 3.27913e-05 0.100011)
(1.61147e-05 2.07434e-05 0.0946847)
(0.000100974 6.39197e-05 0.0999267)
(3.12362e-05 5.58364e-06 0.0834011)
(1.63731e-05 -1.95932e-06 0.0900425)
(7.01628e-05 4.52208e-05 0.0946125)
(1.24135e-05 -7.17171e-06 0.0834717)
(3.27734e-05 3.53134e-05 0.100007)
(8.79234e-06 8.75381e-06 0.085778)
(1.21516e-05 1.04026e-05 0.0695503)
(1.01203e-05 1.21042e-05 0.0695433)
(2.79209e-05 2.81593e-05 0.0857239)
(-6.39152e-06 3.93342e-07 0.0696334)
(4.2484e-07 -6.55515e-06 0.0696262)
(4.41899e-05 6.92292e-05 0.0945374)
(-6.86172e-06 1.19649e-05 0.0834117)
(1.90928e-05 3.6331e-05 0.0898961)
(3.41027e-05 3.16855e-05 0.0999322)
(5.65843e-06 3.08232e-05 0.083341)
(1.99441e-05 1.53374e-05 0.0946093)
(6.26611e-05 9.96964e-05 0.0998527)
(6.90977e-05 4.42461e-05 0.0945288)
(1.18518e-05 -6.82317e-06 0.0834057)
(3.61718e-05 1.90855e-05 0.0898931)
(3.1557e-05 3.40756e-05 0.0999287)
(3.07877e-05 5.77668e-06 0.083335)
(1.52074e-05 1.99267e-05 0.0946011)
(9.94649e-05 6.26068e-05 0.0998484)
(3.53475e-06 1.58026e-05 0.0723684)
(-6.02592e-06 -4.95542e-06 0.0724904)
(1.57695e-05 3.42699e-06 0.0723674)
(-4.88945e-06 -5.96741e-06 0.0724895)
(7.98181e-06 8.00839e-06 0.0856351)
(1.19033e-05 9.96972e-06 0.0694543)
(9.89456e-06 1.20063e-05 0.0694475)
(2.69665e-05 2.70879e-05 0.08558)
(-6.25022e-06 2.11895e-07 0.0695374)
(1.87776e-07 -6.28004e-06 0.0695304)
(4.23931e-05 6.7197e-05 0.0943759)
(3.17555e-05 2.94584e-05 0.0997771)
(1.85688e-05 3.50527e-05 0.0897434)
(-6.65342e-06 1.10569e-05 0.0832843)
(5.91888e-06 2.99203e-05 0.0832137)
(6.01944e-05 9.68536e-05 0.0996983)
(1.82148e-05 1.37872e-05 0.0944478)
(6.70544e-05 4.24513e-05 0.094367)
(2.93735e-05 3.17094e-05 0.0997738)
(3.49369e-05 1.85276e-05 0.0897402)
(1.09647e-05 -6.66724e-06 0.0832783)
(2.98754e-05 5.95863e-06 0.0832074)
(9.66591e-05 6.01545e-05 0.0996937)
(1.36716e-05 1.81821e-05 0.0944396)
(1.90725e-05 1.45178e-05 0.0945276)
(5.8648e-06 3.03852e-05 0.0832766)
(6.14235e-05 9.82792e-05 0.0997752)
(-2.24387e-06 1.49102e-05 0.0898885)
(4.32984e-05 6.82261e-05 0.0944557)
(-6.73173e-06 1.14537e-05 0.0833473)
(3.28934e-05 3.05322e-05 0.0998543)
(1.44879e-05 1.90368e-05 0.0945194)
(3.03196e-05 5.88354e-06 0.0832703)
(9.80982e-05 6.13898e-05 0.0997706)
(1.49239e-05 -2.27115e-06 0.089886)
(6.80582e-05 4.3357e-05 0.0944469)
(1.1444e-05 -6.77411e-06 0.0833413)
(3.0504e-05 3.2886e-05 0.0998508)
(2.65094e-05 2.65906e-05 0.0855112)
(-6.37784e-06 5.78703e-08 0.0694912)
(-1.47429e-09 -6.28795e-06 0.0694841)
(1.1843e-05 9.80354e-06 0.0694084)
(9.78907e-06 1.19047e-05 0.0694014)
(7.50081e-06 7.57888e-06 0.0855666)
(8.53813e-07 1.33273e-05 0.0780379)
(-2.83726e-06 6.86609e-05 0.0946973)
(-3.69301e-07 -1.02783e-05 0.079912)
(-4.27812e-06 1.38978e-05 0.0928152)
(-2.96688e-07 8.38625e-06 0.0798526)
(-6.59184e-06 5.91498e-05 0.0927539)
(-2.93446e-07 -6.17898e-06 0.0781081)
(-2.4476e-06 -6.74133e-06 0.0694232)
(-5.45866e-06 3.91458e-05 0.0880768)
(5.32925e-06 -6.51438e-07 0.0841521)
(-9.65209e-07 1.24417e-05 0.0693296)
(-3.87573e-06 3.60513e-06 0.0881439)
(-7.73983e-08 -6.26369e-06 0.0781568)
(-2.34279e-06 2.23865e-05 0.0948474)
(-1.91866e-07 8.16298e-06 0.0799013)
(-6.76644e-06 6.06503e-05 0.0928439)
(-3.09996e-07 -1.0517e-05 0.0799604)
(1.20677e-06 1.32327e-05 0.0780868)
(-4.50808e-06 1.51977e-05 0.0929048)
(-1.12102e-06 1.24472e-05 0.0692862)
(-3.72276e-06 2.8801e-06 0.0880646)
(2.47496e-06 3.74829e-05 0.0840232)
(-5.42196e-06 3.83056e-05 0.0879969)
(-2.48903e-06 -6.76236e-06 0.0693797)
(3.2211e-07 -6.05727e-06 0.0780614)
(1.20685e-07 8.64527e-06 0.0798056)
(6.18537e-06 5.771e-05 0.0926654)
(1.93076e-06 1.93654e-05 0.0946562)
(-9.64563e-07 1.34022e-05 0.0779908)
(2.34348e-07 -1.00074e-05 0.0798654)
(3.93124e-06 1.27139e-05 0.0927284)
(9.59986e-07 1.21535e-05 0.0692004)
(-2.00017e-06 3.59294e-05 0.0838867)
(3.30907e-06 1.32854e-06 0.0879121)
(2.16909e-06 -7.20995e-06 0.0692937)
(5.08043e-06 3.64858e-05 0.0878424)
(2.39507e-06 -6.74349e-06 0.0693353)
(5.17084e-06 3.73712e-05 0.0879177)
(-5.042e-06 -1.7972e-06 0.0840125)
(9.25791e-07 1.22139e-05 0.0692412)
(3.48425e-06 2.284e-06 0.0879874)
(-7.8409e-07 1.3455e-05 0.0779448)
(2.39484e-06 6.52593e-05 0.0945097)
(2.75012e-07 -9.74395e-06 0.0798203)
(3.69748e-06 1.1541e-05 0.0926432)
(2.85966e-07 -6.03935e-06 0.0780154)
(1.72344e-07 8.90316e-06 0.0797604)
(5.9591e-06 5.63056e-05 0.0925799)
(-4.6971e-07 -6.10048e-06 0.0780607)
(-3.4072e-07 8.63808e-06 0.0798056)
(-6.35785e-06 5.7686e-05 0.0926662)
(-2.07551e-06 1.93622e-05 0.0946561)
(7.05339e-07 1.33736e-05 0.0779906)
(-4.24459e-07 -1.00163e-05 0.0798653)
(-4.07472e-06 1.26843e-05 0.0927278)
(-1.19031e-06 1.21831e-05 0.069203)
(2.08299e-06 3.59501e-05 0.0838867)
(-3.50278e-06 1.54332e-06 0.0879124)
(-5.17237e-06 3.65973e-05 0.0878439)
(-2.55026e-06 -6.92502e-06 0.0692958)
(-2.50719e-06 -6.85616e-06 0.0693372)
(-5.2775e-06 3.74135e-05 0.0879194)
(4.9348e-06 -1.82884e-06 0.0840123)
(-1.11531e-06 1.22808e-05 0.0692441)
(-3.57341e-06 2.18821e-06 0.0879874)
(4.89328e-07 1.34506e-05 0.0779446)
(-2.57288e-06 6.52544e-05 0.0945097)
(-4.87425e-07 -9.74842e-06 0.0798203)
(-3.89117e-06 1.15478e-05 0.0926427)
(-3.95292e-07 8.89689e-06 0.0797604)
(-6.17438e-06 5.63145e-05 0.0925806)
(-6.56918e-07 -6.00566e-06 0.0780148)
(-2.75819e-05 2.75177e-05 0.0856512)
(6.24029e-06 3.08417e-07 0.0695785)
(-4.54292e-07 -6.37394e-06 0.0695839)
(-1.20618e-05 1.00778e-05 0.0694954)
(-1.00623e-05 1.1972e-05 0.069501)
(-8.54188e-06 8.36559e-06 0.0857053)
(-2.09069e-05 1.60852e-05 0.0946842)
(1.8186e-06 1.63051e-05 0.0900427)
(6.953e-06 1.2415e-05 0.0834718)
(-3.54563e-05 3.28259e-05 0.100007)
(-1.61886e-05 2.08311e-05 0.0946932)
(-1.63971e-05 -1.93146e-06 0.0900463)
(-3.29121e-05 3.53599e-05 0.100012)
(-1.24874e-05 -7.10934e-06 0.0834777)
(-9.01927e-06 8.84353e-06 0.0857777)
(6.21624e-06 4.78676e-07 0.0696268)
(-6.28212e-07 -6.37099e-06 0.0696323)
(-4.43215e-05 6.91654e-05 0.0945289)
(6.8303e-06 1.19518e-05 0.0834061)
(-1.91397e-05 3.62973e-05 0.089893)
(-3.42065e-05 3.16592e-05 0.0999282)
(-5.81983e-06 3.08208e-05 0.0833349)
(-6.26809e-05 9.96119e-05 0.0998485)
(-1.9981e-05 1.52688e-05 0.0946008)
(-6.92414e-05 4.42713e-05 0.0945377)
(-1.20147e-05 -6.99669e-06 0.0834118)
(-3.62717e-05 1.91198e-05 0.0898946)
(-3.17616e-05 3.40982e-05 0.0999331)
(-9.95801e-05 6.26886e-05 0.0998525)
(-3.07884e-05 5.74587e-06 0.0833405)
(-1.53702e-05 1.99053e-05 0.0946096)
(4.61229e-06 -6.03872e-06 0.0725856)
(-1.61748e-05 3.39003e-06 0.0724573)
(-3.46272e-06 1.57932e-05 0.0723685)
(5.86023e-06 -4.94207e-06 0.0724904)
(-8.09392e-06 7.84631e-06 0.0856348)
(-1.19802e-05 9.93976e-06 0.0694483)
(-9.93078e-06 1.1876e-05 0.0694538)
(-2.70802e-05 2.70059e-05 0.0855804)
(6.27712e-06 9.29858e-08 0.0695313)
(-3.07679e-07 -6.38978e-06 0.0695366)
(-4.24428e-05 6.70464e-05 0.094367)
(-3.1769e-05 2.94049e-05 0.0997732)
(-1.85149e-05 3.5006e-05 0.0897403)
(6.73005e-06 1.10212e-05 0.0832789)
(-6.01417e-05 9.67457e-05 0.0996938)
(-5.92768e-06 2.98794e-05 0.083207)
(-1.81819e-05 1.36242e-05 0.0944393)
(-6.71472e-05 4.23603e-05 0.094376)
(-2.95062e-05 3.16709e-05 0.0997781)
(-3.49376e-05 1.84796e-05 0.0897416)
(-1.10632e-05 -6.80337e-06 0.0832844)
(-2.98765e-05 5.86382e-06 0.0832129)
(-9.67409e-05 6.01547e-05 0.0996979)
(-1.3795e-05 1.81124e-05 0.0944479)
(-1.9081e-05 1.44384e-05 0.0945191)
(-5.88595e-06 3.03404e-05 0.0832702)
(-6.14091e-05 9.81697e-05 0.0997708)
(2.17405e-06 1.49707e-05 0.0898861)
(-3.29768e-05 3.05235e-05 0.0998504)
(-4.33852e-05 6.81043e-05 0.094447)
(6.77266e-06 1.14739e-05 0.0833417)
(-1.45699e-05 1.89817e-05 0.0945278)
(-3.03342e-05 5.81258e-06 0.0832759)
(-9.81527e-05 6.14088e-05 0.0997748)
(-1.5023e-05 -2.284e-06 0.0898902)