/*--------------------------------*- C++ -*----------------------------------*\
| =========                 |                                                 |
| \\      /  F ield         | OpenFOAM: The Open Source CFD Toolbox           |
|  \\    /   O peration     | Version:  2312                                  |
|   \\  /    A nd           | Website:  www.openfoam.com                      |
|    \\/     M anipulation  |                                                 |
\*---------------------------------------------------------------------------*/
FoamFile
{
    version     2.0;
    format      ascii;
    arch        "LSB;label=32;scalar=64";
    class       volScalarField;
    location    "375";
    object      k;
}
// * * * * * * * * * * * * * * * * * * * * * * * * * * * * * * * * * * * * * //

dimensions      [0 2 -2 0 0 0 0];

internalField   nonuniform List<scalar> 
172512
(
3.60232e-05
3.60198e-05
3.60198e-05
3.60083e-05
3.39295e-05
3.38866e-05
3.38866e-05
3.39612e-05
3.21574e-05
3.20055e-05
3.20055e-05
3.19506e-05
3.05338e-05
3.02267e-05
3.02267e-05
2.99864e-05
2.90318e-05
2.85515e-05
2.85515e-05
2.81202e-05
2.76341e-05
2.69848e-05
2.69847e-05
2.6388e-05
2.63294e-05
2.55287e-05
2.55286e-05
2.48046e-05
2.51097e-05
2.41827e-05
2.41826e-05
2.33754e-05
2.39694e-05
2.29484e-05
2.29483e-05
2.21019e-05
2.29042e-05
2.18247e-05
2.18245e-05
2.09833e-05
2.19105e-05
2.08093e-05
2.08091e-05
2.00107e-05
2.09849e-05
1.98992e-05
1.98991e-05
1.91788e-05
2.01226e-05
1.90927e-05
1.90926e-05
1.8487e-05
1.93223e-05
1.83865e-05
1.83864e-05
1.79306e-05
1.85832e-05
1.77774e-05
1.77773e-05
1.75041e-05
1.79027e-05
1.72637e-05
1.72637e-05
1.71981e-05
1.72783e-05
1.68447e-05
1.68447e-05
1.70204e-05
1.67082e-05
1.65194e-05
1.65194e-05
1.69801e-05
1.61908e-05
1.62879e-05
1.62879e-05
1.70775e-05
1.57239e-05
1.61501e-05
1.61502e-05
1.73023e-05
1.53058e-05
1.61058e-05
1.6106e-05
1.76554e-05
1.49359e-05
1.6152e-05
1.61521e-05
1.81331e-05
1.4613e-05
1.62906e-05
1.62908e-05
1.87282e-05
1.43368e-05
1.65185e-05
1.65191e-05
1.9428e-05
1.41065e-05
1.68342e-05
1.68342e-05
2.02202e-05
1.3922e-05
1.72342e-05
1.72348e-05
2.10943e-05
1.37829e-05
1.77146e-05
1.7715e-05
2.20363e-05
1.36889e-05
1.82715e-05
1.82734e-05
2.3031e-05
1.36413e-05
1.89008e-05
1.89019e-05
2.4065e-05
1.36372e-05
1.95958e-05
1.95976e-05
2.51257e-05
1.36807e-05
2.03554e-05
2.03567e-05
2.62003e-05
1.37676e-05
2.11701e-05
2.11694e-05
2.72824e-05
1.39024e-05
2.20299e-05
2.20345e-05
2.8364e-05
1.40856e-05
2.29379e-05
2.2942e-05
2.94325e-05
1.43095e-05
2.38881e-05
2.38808e-05
3.04808e-05
1.45887e-05
2.48476e-05
2.48636e-05
3.15253e-05
1.49024e-05
2.58637e-05
2.58517e-05
3.25283e-05
1.52794e-05
2.68572e-05
2.68789e-05
3.35556e-05
1.56818e-05
2.79211e-05
2.7902e-05
3.44751e-05
1.61502e-05
2.89057e-05
2.89268e-05
3.54787e-05
1.66391e-05
2.99924e-05
2.99861e-05
3.63581e-05
1.71914e-05
3.09815e-05
3.09889e-05
3.7275e-05
1.77647e-05
3.20273e-05
3.203e-05
3.81355e-05
1.84046e-05
3.30504e-05
3.30534e-05
3.90014e-05
1.90434e-05
3.40204e-05
3.40256e-05
3.98043e-05
1.97323e-05
3.50119e-05
3.50153e-05
4.06073e-05
2.04565e-05
3.5967e-05
3.59747e-05
4.13824e-05
2.11991e-05
3.69026e-05
3.6903e-05
4.21286e-05
2.1962e-05
3.78068e-05
3.78134e-05
4.28502e-05
2.27467e-05
3.86926e-05
3.86955e-05
4.35503e-05
2.35402e-05
3.95428e-05
3.95465e-05
4.42212e-05
2.43454e-05
4.0367e-05
4.03728e-05
4.4871e-05
2.516e-05
4.11669e-05
4.1171e-05
4.5498e-05
2.59741e-05
4.19342e-05
4.19385e-05
4.60991e-05
2.6789e-05
4.26737e-05
4.26779e-05
4.66784e-05
2.75986e-05
4.33841e-05
4.3389e-05
4.72337e-05
2.83999e-05
4.40656e-05
4.4069e-05
4.7767e-05
2.91947e-05
4.47183e-05
4.47237e-05
4.82773e-05
2.9971e-05
4.53441e-05
4.53474e-05
4.87674e-05
3.07375e-05
4.5938e-05
4.59425e-05
4.92308e-05
3.1482e-05
4.65102e-05
4.65144e-05
4.96815e-05
3.22109e-05
4.70476e-05
4.70509e-05
5.01005e-05
3.29157e-05
4.75659e-05
4.7571e-05
5.05081e-05
3.35962e-05
4.80481e-05
4.80487e-05
5.08883e-05
3.42701e-05
4.85198e-05
4.85296e-05
5.12582e-05
3.48742e-05
4.89385e-05
4.89331e-05
5.15854e-05
3.55271e-05
4.93671e-05
4.93808e-05
5.19343e-05
3.60659e-05
4.97404e-05
4.97357e-05
5.221e-05
3.6651e-05
5.00949e-05
5.01025e-05
5.25127e-05
3.71718e-05
5.04647e-05
5.04682e-05
5.27817e-05
3.766e-05
5.07097e-05
5.07118e-05
5.30012e-05
3.81439e-05
5.10865e-05
5.10906e-05
5.32846e-05
3.86029e-05
5.12779e-05
5.12809e-05
5.34393e-05
3.89437e-05
5.15605e-05
5.1565e-05
5.36746e-05
3.95039e-05
5.18278e-05
5.18295e-05
5.38706e-05
3.96126e-05
5.18481e-05
5.18522e-05
5.38962e-05
4.01688e-05
5.2242e-05
5.22453e-05
5.42196e-05
4.04056e-05
5.22947e-05
5.22951e-05
5.42228e-05
4.06783e-05
5.2438e-05
5.24441e-05
5.44264e-05
4.07486e-05
5.23423e-05
5.23471e-05
5.40693e-05
4.16312e-05
5.34198e-05
5.34201e-05
5.56655e-05
4.10756e-05
5.1576e-05
5.15891e-05
5.30616e-05
4.01515e-05
5.0916e-05
5.09147e-05
5.24132e-05
4.44169e-05
5.72794e-05
5.7282e-05
5.98307e-05
4.58497e-05
5.68239e-05
5.68319e-05
5.78562e-05
3.79967e-05
4.61179e-05
4.61203e-05
4.71139e-05
3.43907e-05
4.46278e-05
4.46317e-05
4.68454e-05
4.16122e-05
5.5509e-05
5.55153e-05
5.7796e-05
5.08036e-05
6.17555e-05
6.17578e-05
6.38205e-05
5.14987e-05
6.04545e-05
6.04545e-05
6.12795e-05
4.30285e-05
5.14278e-05
5.14303e-05
5.29381e-05
3.69617e-05
4.703e-05
4.70336e-05
4.89549e-05
3.55097e-05
4.64723e-05
4.64759e-05
4.88108e-05
3.70179e-05
4.80053e-05
4.80078e-05
5.03205e-05
4.02708e-05
4.69454e-05
4.69478e-05
5.05731e-05
3.62984e-05
3.62919e-05
3.62919e-05
3.62984e-05
3.62919e-05
3.62919e-05
3.62908e-05
3.62908e-05
3.62908e-05
3.62908e-05
3.62919e-05
3.62919e-05
3.62984e-05
3.62919e-05
3.62919e-05
3.62984e-05
3.60083e-05
3.42676e-05
3.60198e-05
3.60198e-05
3.43745e-05
3.43744e-05
3.60083e-05
3.42677e-05
3.60198e-05
3.60198e-05
3.43745e-05
3.43744e-05
3.60198e-05
3.43745e-05
3.43745e-05
3.60083e-05
3.42677e-05
3.60198e-05
3.43745e-05
3.43745e-05
3.42676e-05
3.39612e-05
3.22619e-05
3.38865e-05
3.38865e-05
3.24658e-05
3.24657e-05
3.39612e-05
3.22619e-05
3.38865e-05
3.38865e-05
3.24659e-05
3.24657e-05
3.38865e-05
3.2466e-05
3.24658e-05
3.39612e-05
3.22619e-05
3.38865e-05
3.24659e-05
3.24659e-05
3.22618e-05
3.19506e-05
3.02973e-05
3.20054e-05
3.20053e-05
3.06617e-05
3.06616e-05
3.19506e-05
3.02973e-05
3.20054e-05
3.20052e-05
3.06618e-05
3.06615e-05
3.20053e-05
3.0662e-05
3.06617e-05
3.19506e-05
3.02972e-05
3.20054e-05
3.06619e-05
3.06618e-05
3.02971e-05
2.99865e-05
2.84231e-05
3.02264e-05
3.02263e-05
2.89599e-05
2.89597e-05
2.99865e-05
2.8423e-05
3.02266e-05
3.02262e-05
2.89601e-05
2.89596e-05
3.02264e-05
2.89603e-05
2.89598e-05
2.99864e-05
2.84229e-05
3.02265e-05
2.89602e-05
2.896e-05
2.84227e-05
2.81204e-05
2.66716e-05
2.85511e-05
2.85509e-05
2.73656e-05
2.73653e-05
2.81204e-05
2.66715e-05
2.85514e-05
2.85508e-05
2.73659e-05
2.73652e-05
2.8551e-05
2.73661e-05
2.73655e-05
2.81203e-05
2.66714e-05
2.85513e-05
2.7366e-05
2.73658e-05
2.66712e-05
2.63884e-05
2.50638e-05
2.69842e-05
2.6984e-05
2.58817e-05
2.58815e-05
2.63883e-05
2.50637e-05
2.69846e-05
2.69839e-05
2.58822e-05
2.58813e-05
2.69841e-05
2.58824e-05
2.58816e-05
2.63882e-05
2.50636e-05
2.69844e-05
2.58823e-05
2.5882e-05
2.50634e-05
2.4805e-05
2.361e-05
2.5528e-05
2.55277e-05
2.45079e-05
2.45077e-05
2.48049e-05
2.36099e-05
2.55285e-05
2.55276e-05
2.45085e-05
2.45075e-05
2.55279e-05
2.45087e-05
2.45078e-05
2.48047e-05
2.36097e-05
2.55283e-05
2.45086e-05
2.45083e-05
2.36094e-05
2.33759e-05
2.231e-05
2.41819e-05
2.41816e-05
2.32456e-05
2.32453e-05
2.33758e-05
2.23099e-05
2.41824e-05
2.41814e-05
2.32462e-05
2.32451e-05
2.41817e-05
2.32465e-05
2.32455e-05
2.33756e-05
2.23096e-05
2.41823e-05
2.32464e-05
2.32461e-05
2.23094e-05
2.21025e-05
2.11657e-05
2.29475e-05
2.29472e-05
2.20943e-05
2.2094e-05
2.21024e-05
2.11656e-05
2.29481e-05
2.2947e-05
2.20951e-05
2.20939e-05
2.29473e-05
2.20953e-05
2.20942e-05
2.21021e-05
2.11653e-05
2.2948e-05
2.20952e-05
2.20949e-05
2.1165e-05
2.09839e-05
2.01683e-05
2.18237e-05
2.18234e-05
2.1052e-05
2.10517e-05
2.09838e-05
2.01683e-05
2.18244e-05
2.18232e-05
2.10528e-05
2.10515e-05
2.18236e-05
2.1053e-05
2.10519e-05
2.09835e-05
2.0168e-05
2.18243e-05
2.10529e-05
2.10527e-05
2.01677e-05
2.00113e-05
1.93123e-05
2.08081e-05
2.08079e-05
2.01158e-05
2.01156e-05
2.00112e-05
1.93122e-05
2.0809e-05
2.08077e-05
2.01167e-05
2.01154e-05
2.08081e-05
2.01169e-05
2.01158e-05
2.00109e-05
1.9312e-05
2.08088e-05
2.01168e-05
2.01166e-05
1.93117e-05
1.91793e-05
1.85882e-05
1.98981e-05
1.98978e-05
1.92834e-05
1.92832e-05
1.91794e-05
1.85881e-05
1.9899e-05
1.98977e-05
1.92843e-05
1.9283e-05
1.9898e-05
1.92845e-05
1.92834e-05
1.9179e-05
1.85877e-05
1.98988e-05
1.92844e-05
1.92842e-05
1.85875e-05
1.84873e-05
1.79957e-05
1.90916e-05
1.90913e-05
1.85524e-05
1.85522e-05
1.84874e-05
1.79956e-05
1.90925e-05
1.90912e-05
1.85534e-05
1.85521e-05
1.90915e-05
1.85535e-05
1.85524e-05
1.8487e-05
1.79953e-05
1.90923e-05
1.85534e-05
1.85533e-05
1.79951e-05
1.79311e-05
1.75371e-05
1.83854e-05
1.83852e-05
1.79193e-05
1.79192e-05
1.79312e-05
1.7537e-05
1.83863e-05
1.83851e-05
1.79202e-05
1.79191e-05
1.83854e-05
1.79203e-05
1.79193e-05
1.79309e-05
1.75367e-05
1.83862e-05
1.79203e-05
1.79202e-05
1.75367e-05
1.75044e-05
1.72156e-05
1.77763e-05
1.77762e-05
1.73818e-05
1.73817e-05
1.75045e-05
1.72157e-05
1.77772e-05
1.77761e-05
1.73827e-05
1.73816e-05
1.77764e-05
1.73828e-05
1.73818e-05
1.75041e-05
1.72155e-05
1.77772e-05
1.73827e-05
1.73827e-05
1.72155e-05
1.71983e-05
1.7024e-05
1.72627e-05
1.72627e-05
1.69391e-05
1.69391e-05
1.71984e-05
1.7024e-05
1.72636e-05
1.72626e-05
1.69399e-05
1.6939e-05
1.72628e-05
1.69399e-05
1.69391e-05
1.71981e-05
1.70238e-05
1.72636e-05
1.694e-05
1.69399e-05
1.70238e-05
1.70206e-05
1.69704e-05
1.68438e-05
1.68439e-05
1.65901e-05
1.65903e-05
1.70207e-05
1.69707e-05
1.68446e-05
1.68438e-05
1.65908e-05
1.65902e-05
1.68439e-05
1.65909e-05
1.65903e-05
1.70206e-05
1.69706e-05
1.68447e-05
1.65909e-05
1.6591e-05
1.69706e-05
1.69797e-05
1.70413e-05
1.65186e-05
1.65187e-05
1.63349e-05
1.63351e-05
1.69801e-05
1.70419e-05
1.65193e-05
1.65187e-05
1.63355e-05
1.63351e-05
1.65188e-05
1.63355e-05
1.63351e-05
1.698e-05
1.70416e-05
1.65195e-05
1.63356e-05
1.63359e-05
1.70419e-05
1.70769e-05
1.72417e-05
1.62872e-05
1.62874e-05
1.61734e-05
1.61737e-05
1.70773e-05
1.7242e-05
1.62879e-05
1.62874e-05
1.6174e-05
1.61738e-05
1.62874e-05
1.61739e-05
1.61736e-05
1.70771e-05
1.72417e-05
1.62881e-05
1.6174e-05
1.61743e-05
1.72423e-05
1.73022e-05
1.75706e-05
1.61495e-05
1.61499e-05
1.61053e-05
1.61056e-05
1.73021e-05
1.75706e-05
1.61501e-05
1.61499e-05
1.61058e-05
1.61058e-05
1.61499e-05
1.61056e-05
1.61056e-05
1.73024e-05
1.75707e-05
1.61505e-05
1.61058e-05
1.61062e-05
1.7571e-05
1.76553e-05
1.80239e-05
1.61054e-05
1.61058e-05
1.61312e-05
1.61315e-05
1.76552e-05
1.80239e-05
1.61059e-05
1.6106e-05
1.61315e-05
1.61318e-05
1.61057e-05
1.61313e-05
1.61316e-05
1.76558e-05
1.80243e-05
1.61064e-05
1.61317e-05
1.61322e-05
1.80246e-05
1.81324e-05
1.8596e-05
1.61519e-05
1.61522e-05
1.62473e-05
1.62477e-05
1.81325e-05
1.85962e-05
1.61522e-05
1.61524e-05
1.62475e-05
1.62481e-05
1.61522e-05
1.62473e-05
1.62478e-05
1.81332e-05
1.85965e-05
1.61527e-05
1.62477e-05
1.62484e-05
1.85967e-05
1.87271e-05
1.9275e-05
1.62905e-05
1.62909e-05
1.64534e-05
1.64538e-05
1.87273e-05
1.92747e-05
1.62907e-05
1.62913e-05
1.64536e-05
1.64543e-05
1.62909e-05
1.64532e-05
1.64542e-05
1.8728e-05
1.92755e-05
1.62913e-05
1.64537e-05
1.64546e-05
1.92757e-05
1.94266e-05
2.00487e-05
1.6519e-05
1.65191e-05
1.67477e-05
1.67483e-05
1.94265e-05
2.00493e-05
1.6519e-05
1.65198e-05
1.67477e-05
1.67485e-05
1.65198e-05
1.67474e-05
1.67483e-05
1.94271e-05
2.005e-05
1.65201e-05
1.67476e-05
1.67486e-05
2.005e-05
2.02193e-05
2.09055e-05
1.68348e-05
1.68351e-05
1.71268e-05
1.71277e-05
2.02201e-05
2.09063e-05
1.68347e-05
1.68352e-05
1.71267e-05
1.71286e-05
1.68356e-05
1.71266e-05
1.71276e-05
2.02199e-05
2.09084e-05
1.68357e-05
1.71275e-05
1.71277e-05
2.09077e-05
2.10927e-05
2.18326e-05
1.72347e-05
1.72353e-05
1.75878e-05
1.75886e-05
2.10938e-05
2.18335e-05
1.72344e-05
1.7236e-05
1.75874e-05
1.75893e-05
1.72354e-05
1.75872e-05
1.75889e-05
2.10961e-05
2.18333e-05
1.72354e-05
1.7588e-05
1.75888e-05
2.1835e-05
2.20343e-05
2.28157e-05
1.77153e-05
1.7716e-05
1.81269e-05
1.81269e-05
2.20347e-05
2.28163e-05
1.77148e-05
1.77165e-05
1.81263e-05
1.81289e-05
1.77165e-05
1.81253e-05
1.81277e-05
2.20351e-05
2.28175e-05
1.77161e-05
1.81273e-05
1.81273e-05
2.28181e-05
2.30291e-05
2.38396e-05
1.8273e-05
1.82731e-05
1.87381e-05
1.87384e-05
2.30287e-05
2.38418e-05
1.82722e-05
1.82751e-05
1.8737e-05
1.87388e-05
1.82742e-05
1.87366e-05
1.87396e-05
2.30311e-05
2.38405e-05
1.82736e-05
1.8737e-05
1.87388e-05
2.38434e-05
2.40617e-05
2.48951e-05
1.89031e-05
1.89027e-05
1.9417e-05
1.94186e-05
2.4063e-05
2.48976e-05
1.8902e-05
1.89038e-05
1.94157e-05
1.94208e-05
1.89034e-05
1.94166e-05
1.94202e-05
2.40624e-05
2.48993e-05
1.89024e-05
1.94189e-05
1.94191e-05
2.48973e-05
2.51212e-05
2.59711e-05
1.95969e-05
1.95978e-05
2.01638e-05
2.01639e-05
2.51255e-05
2.59677e-05
1.95955e-05
1.95996e-05
2.01622e-05
2.0163e-05
1.96003e-05
2.01616e-05
2.01631e-05
2.51261e-05
2.59678e-05
1.95989e-05
2.01609e-05
2.01616e-05
2.59686e-05
2.62032e-05
2.70439e-05
2.03584e-05
2.03576e-05
2.0959e-05
2.09621e-05
2.62024e-05
2.70424e-05
2.03568e-05
2.03589e-05
2.0957e-05
2.09646e-05
2.03593e-05
2.09598e-05
2.09631e-05
2.62016e-05
2.70488e-05
2.03575e-05
2.09625e-05
2.09611e-05
2.70507e-05
2.72782e-05
2.81276e-05
2.11683e-05
2.11724e-05
2.18167e-05
2.18122e-05
2.72775e-05
2.8125e-05
2.11664e-05
2.11717e-05
2.18143e-05
2.18162e-05
2.11717e-05
2.18097e-05
2.18166e-05
2.72835e-05
2.81229e-05
2.11694e-05
2.18141e-05
2.18142e-05
2.81292e-05
2.83639e-05
2.9188e-05
2.20331e-05
2.20324e-05
2.27109e-05
2.27119e-05
2.83576e-05
2.91949e-05
2.20308e-05
2.20368e-05
2.27083e-05
2.27119e-05
2.20351e-05
2.27094e-05
2.27135e-05
2.83595e-05
2.91944e-05
2.20324e-05
2.27097e-05
2.27107e-05
2.91959e-05
2.9426e-05
3.02507e-05
2.29456e-05
2.29403e-05
2.36433e-05
2.36494e-05
2.94308e-05
3.02485e-05
2.29432e-05
2.29442e-05
2.36401e-05
2.36457e-05
2.29465e-05
2.36469e-05
2.3647e-05
2.9427e-05
3.02537e-05
2.29435e-05
2.36435e-05
2.36435e-05
3.0251e-05
3.04766e-05
3.12922e-05
2.38785e-05
2.38906e-05
2.46145e-05
2.46032e-05
3.0481e-05
3.12866e-05
2.38754e-05
2.38831e-05
2.46117e-05
2.46212e-05
2.3882e-05
2.46008e-05
2.462e-05
3.04843e-05
3.12933e-05
2.38782e-05
2.46193e-05
2.46168e-05
3.12944e-05
3.15253e-05
3.23093e-05
2.48648e-05
2.48497e-05
2.56041e-05
2.56185e-05
3.15111e-05
3.23218e-05
2.48622e-05
2.48654e-05
2.55997e-05
2.55948e-05
2.48725e-05
2.56157e-05
2.55974e-05
3.15232e-05
3.23029e-05
2.48692e-05
2.55925e-05
2.55924e-05
3.23103e-05
3.25315e-05
3.33074e-05
2.58496e-05
2.58666e-05
2.66209e-05
2.66015e-05
3.25508e-05
3.32893e-05
2.58455e-05
2.58539e-05
2.66186e-05
2.66383e-05
2.58429e-05
2.65998e-05
2.66399e-05
3.25281e-05
3.33285e-05
2.58378e-05
2.6637e-05
2.66371e-05
3.3325e-05
3.3534e-05
3.42852e-05
2.68815e-05
2.68587e-05
2.76395e-05
2.76615e-05
3.35103e-05
3.43051e-05
2.68789e-05
2.68798e-05
2.76341e-05
2.76276e-05
2.68996e-05
2.76587e-05
2.76253e-05
3.35467e-05
3.42674e-05
2.68962e-05
2.76254e-05
2.7619e-05
3.42679e-05
3.4498e-05
3.52425e-05
2.78953e-05
2.79241e-05
2.86867e-05
2.86614e-05
3.45249e-05
3.52219e-05
2.78903e-05
2.79044e-05
2.8684e-05
2.86942e-05
2.78782e-05
2.86593e-05
2.86975e-05
3.44897e-05
3.52609e-05
2.78721e-05
2.86931e-05
2.8694e-05
3.52565e-05
3.54573e-05
3.61532e-05
2.89429e-05
2.8907e-05
2.96986e-05
2.97163e-05
3.54239e-05
3.61689e-05
2.894e-05
2.89274e-05
2.96933e-05
2.96994e-05
2.89631e-05
2.9715e-05
2.97083e-05
3.54628e-05
3.61418e-05
2.89593e-05
2.96989e-05
2.97021e-05
3.61628e-05
3.63569e-05
3.70778e-05
2.99632e-05
2.99943e-05
3.07559e-05
3.07478e-05
3.63893e-05
3.70722e-05
2.99583e-05
2.99871e-05
3.07523e-05
3.0761e-05
2.99622e-05
3.07455e-05
3.07508e-05
3.63648e-05
3.70931e-05
2.9956e-05
3.07597e-05
3.07463e-05
3.70697e-05
3.72777e-05
3.7929e-05
3.10044e-05
3.09832e-05
3.17575e-05
3.1754e-05
3.72564e-05
3.79249e-05
3.10004e-05
3.09899e-05
3.17527e-05
3.17518e-05
3.10074e-05
3.17531e-05
3.17667e-05
3.72734e-05
3.79179e-05
3.10025e-05
3.17519e-05
3.17611e-05
3.794e-05
3.81288e-05
3.8818e-05
3.20226e-05
3.20285e-05
3.28066e-05
3.28098e-05
3.81359e-05
3.88242e-05
3.20179e-05
3.20303e-05
3.28021e-05
3.28147e-05
3.20259e-05
3.28082e-05
3.28032e-05
3.81319e-05
3.88313e-05
3.20203e-05
3.28141e-05
3.27979e-05
3.88117e-05
3.90053e-05
3.96136e-05
3.30535e-05
3.30516e-05
3.37808e-05
3.37734e-05
3.90055e-05
3.96064e-05
3.30489e-05
3.30539e-05
3.37762e-05
3.37761e-05
3.30541e-05
3.37729e-05
3.37884e-05
3.90106e-05
3.96068e-05
3.30486e-05
3.37766e-05
3.37832e-05
3.96228e-05
3.97963e-05
4.0425e-05
3.4027e-05
3.40208e-05
3.47672e-05
3.47677e-05
3.97912e-05
4.04278e-05
3.40225e-05
3.40253e-05
3.47624e-05
3.47708e-05
3.40335e-05
3.47672e-05
3.4771e-05
3.9793e-05
4.0432e-05
3.40282e-05
3.47712e-05
3.47657e-05
4.04278e-05
4.06045e-05
4.12063e-05
3.50108e-05
3.50123e-05
3.57343e-05
3.57299e-05
4.06078e-05
4.12045e-05
3.50059e-05
3.50149e-05
3.57298e-05
3.5737e-05
3.5015e-05
3.57298e-05
3.57372e-05
4.06113e-05
4.12098e-05
3.50095e-05
3.57376e-05
3.57322e-05
4.12095e-05
4.13799e-05
4.19608e-05
3.59734e-05
3.5967e-05
3.66746e-05
3.6672e-05
4.13766e-05
4.19597e-05
3.59689e-05
3.59742e-05
3.66698e-05
3.66725e-05
3.59748e-05
3.6672e-05
3.66767e-05
4.13824e-05
4.196e-05
3.59697e-05
3.66734e-05
3.66715e-05
4.19619e-05
4.21266e-05
4.26856e-05
3.69034e-05
3.69024e-05
3.75857e-05
3.75817e-05
4.21273e-05
4.26844e-05
3.68984e-05
3.69021e-05
3.7581e-05
3.75865e-05
3.69068e-05
3.75821e-05
3.75883e-05
4.21262e-05
4.26889e-05
3.69013e-05
3.75877e-05
3.75833e-05
4.26884e-05
4.28486e-05
4.33935e-05
3.78116e-05
3.78062e-05
3.84773e-05
3.84735e-05
4.28459e-05
4.33923e-05
3.7807e-05
3.78123e-05
3.84727e-05
3.84771e-05
3.78134e-05
3.84741e-05
3.84785e-05
4.28518e-05
4.33946e-05
3.78085e-05
3.84784e-05
3.84737e-05
4.33946e-05
4.35491e-05
4.40684e-05
3.86945e-05
3.86918e-05
3.93347e-05
3.93319e-05
4.3549e-05
4.40687e-05
3.86897e-05
3.86942e-05
3.93299e-05
3.93343e-05
3.86961e-05
3.93329e-05
3.93371e-05
4.35502e-05
4.40704e-05
3.86911e-05
3.9336e-05
3.93323e-05
4.4071e-05
4.42189e-05
4.47238e-05
3.95452e-05
3.95416e-05
4.01666e-05
4.01617e-05
4.42185e-05
4.47215e-05
3.95405e-05
3.95449e-05
4.01621e-05
4.0167e-05
3.95475e-05
4.01629e-05
4.01687e-05
4.42207e-05
4.47263e-05
3.95426e-05
4.01688e-05
4.01642e-05
4.47257e-05
4.48692e-05
4.53563e-05
4.03704e-05
4.03656e-05
4.09729e-05
4.09684e-05
4.4867e-05
4.53549e-05
4.0366e-05
4.0371e-05
4.09684e-05
4.09726e-05
4.03726e-05
4.09698e-05
4.09745e-05
4.48718e-05
4.5358e-05
4.03681e-05
4.09746e-05
4.09701e-05
4.53579e-05
4.54966e-05
4.59626e-05
4.11698e-05
4.11653e-05
4.17474e-05
4.17433e-05
4.54954e-05
4.59616e-05
4.11652e-05
4.11691e-05
4.1743e-05
4.17469e-05
4.11713e-05
4.1745e-05
4.17492e-05
4.54982e-05
4.59642e-05
4.11667e-05
4.17491e-05
4.17448e-05
4.59644e-05
4.60974e-05
4.65469e-05
4.19367e-05
4.19324e-05
4.24944e-05
4.24896e-05
4.60963e-05
4.65453e-05
4.19323e-05
4.19364e-05
4.24901e-05
4.24938e-05
4.19385e-05
4.24914e-05
4.2496e-05
4.60992e-05
4.65487e-05
4.19341e-05
4.24962e-05
4.24918e-05
4.65487e-05
4.66768e-05
4.71075e-05
4.26763e-05
4.26717e-05
4.32117e-05
4.32072e-05
4.66753e-05
4.71062e-05
4.26719e-05
4.26754e-05
4.32074e-05
4.32111e-05
4.2678e-05
4.32091e-05
4.32129e-05
4.66784e-05
4.71091e-05
4.26736e-05
4.32136e-05
4.32088e-05
4.71089e-05
4.72324e-05
4.76455e-05
4.3387e-05
4.33821e-05
4.38998e-05
4.3895e-05
4.7231e-05
4.7644e-05
4.33829e-05
4.33866e-05
4.38957e-05
4.38991e-05
4.33879e-05
4.38975e-05
4.39017e-05
4.72342e-05
4.76471e-05
4.33839e-05
4.39019e-05
4.38977e-05
4.76472e-05
4.77654e-05
4.81617e-05
4.40672e-05
4.4063e-05
4.45615e-05
4.45564e-05
4.77642e-05
4.81602e-05
4.40629e-05
4.40661e-05
4.45574e-05
4.45603e-05
4.40693e-05
4.45584e-05
4.4561e-05
4.77667e-05
4.8163e-05
4.40651e-05
4.45628e-05
4.45573e-05
4.81622e-05
4.82773e-05
4.86542e-05
4.4722e-05
4.47161e-05
4.51909e-05
4.51863e-05
4.82752e-05
4.86527e-05
4.47182e-05
4.47212e-05
4.5187e-05
4.51907e-05
4.47216e-05
4.51894e-05
4.51941e-05
4.82787e-05
4.86563e-05
4.4718e-05
4.51939e-05
4.51903e-05
4.8657e-05
4.87645e-05
4.91271e-05
4.53448e-05
4.53411e-05
4.57965e-05
4.57911e-05
4.87638e-05
4.91254e-05
4.53407e-05
4.53442e-05
4.57925e-05
4.57945e-05
4.53476e-05
4.57932e-05
4.57943e-05
4.87665e-05
4.91274e-05
4.53437e-05
4.57971e-05
4.57908e-05
4.91254e-05
4.92329e-05
4.95756e-05
4.59419e-05
4.59355e-05
4.63695e-05
4.63646e-05
4.92304e-05
4.9574e-05
4.59382e-05
4.59399e-05
4.63659e-05
4.63693e-05
4.59402e-05
4.6368e-05
4.63726e-05
4.92331e-05
4.95778e-05
4.59367e-05
4.63726e-05
4.63692e-05
4.95791e-05
4.96776e-05
5.00067e-05
4.65108e-05
4.65069e-05
4.69205e-05
4.69157e-05
4.9677e-05
5.00056e-05
4.65071e-05
4.6511e-05
4.69166e-05
4.69191e-05
4.65137e-05
4.69186e-05
4.69196e-05
4.96802e-05
5.00077e-05
4.65104e-05
4.69221e-05
4.69161e-05
5.00055e-05
5.01025e-05
5.04118e-05
4.70502e-05
4.70444e-05
4.7438e-05
4.74315e-05
5.01004e-05
5.0409e-05
4.70464e-05
4.70481e-05
4.74346e-05
4.74362e-05
4.70491e-05
4.74346e-05
4.74379e-05
5.01027e-05
5.04123e-05
4.70454e-05
4.74394e-05
4.7435e-05
5.04129e-05
5.05065e-05
5.08017e-05
4.75685e-05
4.75629e-05
4.7933e-05
4.79307e-05
5.05047e-05
5.08028e-05
4.7565e-05
4.75674e-05
4.79289e-05
4.79324e-05
4.75689e-05
4.79346e-05
4.79353e-05
5.05078e-05
5.0804e-05
4.75663e-05
4.7936e-05
4.79313e-05
5.08033e-05
5.08872e-05
5.11724e-05
4.80469e-05
4.8044e-05
4.84088e-05
4.83987e-05
5.0888e-05
5.11658e-05
4.8043e-05
4.80456e-05
4.84066e-05
4.84072e-05
4.80485e-05
4.84013e-05
4.84051e-05
5.0889e-05
5.1172e-05
4.80442e-05
4.84101e-05
4.84038e-05
5.11699e-05
5.12605e-05
5.15048e-05
4.85269e-05
4.85172e-05
4.88273e-05
4.88287e-05
5.12537e-05
5.15106e-05
4.85245e-05
4.85261e-05
4.88224e-05
4.88259e-05
4.85244e-05
4.8834e-05
4.8833e-05
5.12606e-05
5.15075e-05
4.85233e-05
4.88303e-05
4.88277e-05
5.15098e-05
5.15806e-05
5.18611e-05
4.89317e-05
4.89333e-05
4.92819e-05
4.92699e-05
5.15879e-05
5.18511e-05
4.89269e-05
4.89292e-05
4.92801e-05
4.928e-05
4.89359e-05
4.92714e-05
4.92749e-05
5.15828e-05
5.18598e-05
4.89303e-05
4.92823e-05
4.92746e-05
5.18548e-05
5.194e-05
5.21329e-05
4.93789e-05
4.93656e-05
4.96281e-05
4.96279e-05
5.19283e-05
5.21367e-05
4.93772e-05
4.93781e-05
4.96242e-05
4.96284e-05
4.93729e-05
4.9634e-05
4.96346e-05
5.19397e-05
5.21366e-05
4.93731e-05
4.96334e-05
4.96302e-05
5.21387e-05
5.22031e-05
5.24556e-05
4.97317e-05
4.9734e-05
5.00338e-05
5.00263e-05
5.22116e-05
5.24502e-05
4.97274e-05
4.97308e-05
5.00306e-05
5.00296e-05
4.97384e-05
5.00289e-05
5.00295e-05
5.22066e-05
5.24535e-05
4.97331e-05
5.00323e-05
5.00269e-05
5.2451e-05
5.2518e-05
5.27008e-05
5.0103e-05
5.00928e-05
5.03508e-05
5.03453e-05
5.25101e-05
5.26987e-05
5.01005e-05
5.00998e-05
5.03484e-05
5.03518e-05
5.00974e-05
5.03495e-05
5.03516e-05
5.25163e-05
5.27039e-05
5.0096e-05
5.03561e-05
5.03499e-05
5.2702e-05
5.27789e-05
5.29619e-05
5.04636e-05
5.04601e-05
5.06775e-05
5.06733e-05
5.27799e-05
5.29618e-05
5.04606e-05
5.04638e-05
5.06742e-05
5.06745e-05
5.04659e-05
5.06775e-05
5.06779e-05
5.27823e-05
5.29619e-05
5.04633e-05
5.06784e-05
5.06748e-05
5.29624e-05
5.30016e-05
5.31953e-05
5.07105e-05
5.07056e-05
5.09681e-05
5.09622e-05
5.30005e-05
5.31928e-05
5.07077e-05
5.07081e-05
5.09654e-05
5.09675e-05
5.071e-05
5.09669e-05
5.09672e-05
5.30014e-05
5.31966e-05
5.07071e-05
5.09712e-05
5.09646e-05
5.31937e-05
5.32857e-05
5.34184e-05
5.10881e-05
5.10824e-05
5.12705e-05
5.12652e-05
5.32834e-05
5.34165e-05
5.10852e-05
5.10867e-05
5.12674e-05
5.12664e-05
5.10873e-05
5.12676e-05
5.1269e-05
5.32869e-05
5.34178e-05
5.10848e-05
5.12704e-05
5.12675e-05
5.34185e-05
5.34392e-05
5.35731e-05
5.12807e-05
5.12755e-05
5.1423e-05
5.14177e-05
5.34372e-05
5.35723e-05
5.12777e-05
5.12769e-05
5.14214e-05
5.14283e-05
5.12794e-05
5.14257e-05
5.14265e-05
5.34388e-05
5.35781e-05
5.12778e-05
5.14323e-05
5.14229e-05
5.35736e-05
5.36743e-05
5.38546e-05
5.15584e-05
5.15536e-05
5.18171e-05
5.1812e-05
5.36739e-05
5.38531e-05
5.15564e-05
5.1561e-05
5.18141e-05
5.18128e-05
5.15605e-05
5.18149e-05
5.18149e-05
5.36785e-05
5.38523e-05
5.15573e-05
5.18167e-05
5.18131e-05
5.38532e-05
5.38723e-05
5.38355e-05
5.1831e-05
5.18255e-05
5.18295e-05
5.18236e-05
5.38703e-05
5.3832e-05
5.18279e-05
5.18257e-05
5.18264e-05
5.18248e-05
5.1828e-05
5.18263e-05
5.18267e-05
5.38695e-05
5.38362e-05
5.18264e-05
5.18288e-05
5.18251e-05
5.38339e-05
5.38963e-05
5.41891e-05
5.18497e-05
5.1844e-05
5.21887e-05
5.2184e-05
5.38944e-05
5.41894e-05
5.18471e-05
5.18481e-05
5.21871e-05
5.21908e-05
5.18488e-05
5.21901e-05
5.2191e-05
5.39008e-05
5.41921e-05
5.18466e-05
5.2195e-05
5.21885e-05
5.41912e-05
5.42183e-05
5.41796e-05
5.22426e-05
5.22377e-05
5.22748e-05
5.22696e-05
5.42179e-05
5.41766e-05
5.22405e-05
5.22412e-05
5.2272e-05
5.22697e-05
5.22429e-05
5.22724e-05
5.22723e-05
5.42194e-05
5.41741e-05
5.22409e-05
5.22737e-05
5.22708e-05
5.41758e-05
5.42276e-05
5.44275e-05
5.22968e-05
5.22918e-05
5.24459e-05
5.24403e-05
5.42255e-05
5.44268e-05
5.22936e-05
5.22911e-05
5.24439e-05
5.24469e-05
5.22932e-05
5.24459e-05
5.24464e-05
5.42233e-05
5.44342e-05
5.22914e-05
5.24512e-05
5.24439e-05
5.44286e-05
5.44244e-05
5.40394e-05
5.24383e-05
5.24324e-05
5.23183e-05
5.23118e-05
5.44228e-05
5.40346e-05
5.24365e-05
5.24398e-05
5.2317e-05
5.23181e-05
5.24393e-05
5.23164e-05
5.23196e-05
5.44313e-05
5.40394e-05
5.24371e-05
5.23227e-05
5.23184e-05
5.40412e-05
5.40686e-05
5.55533e-05
5.23438e-05
5.23378e-05
5.32935e-05
5.32911e-05
5.40647e-05
5.55565e-05
5.23423e-05
5.23427e-05
5.32903e-05
5.32893e-05
5.23444e-05
5.3295e-05
5.32903e-05
5.40675e-05
5.55513e-05
5.23429e-05
5.32924e-05
5.32871e-05
5.55487e-05
5.56691e-05
5.36056e-05
5.34191e-05
5.34162e-05
5.25662e-05
5.25583e-05
5.56714e-05
5.35972e-05
5.34162e-05
5.34166e-05
5.25654e-05
5.25707e-05
5.34168e-05
5.25618e-05
5.25688e-05
5.56688e-05
5.36151e-05
5.34144e-05
5.25785e-05
5.2572e-05
5.36121e-05
5.30553e-05
5.18787e-05
5.15793e-05
5.15712e-05
5.06854e-05
5.06784e-05
5.30477e-05
5.18771e-05
5.15784e-05
5.15814e-05
5.06835e-05
5.06818e-05
5.15813e-05
5.06844e-05
5.0685e-05
5.30628e-05
5.1873e-05
5.15833e-05
5.06865e-05
5.06823e-05
5.18745e-05
5.24228e-05
5.91521e-05
5.09166e-05
5.09103e-05
5.60785e-05
5.60756e-05
5.24243e-05
5.91523e-05
5.09141e-05
5.09114e-05
5.60745e-05
5.6075e-05
5.09152e-05
5.60779e-05
5.60763e-05
5.24112e-05
5.9152e-05
5.09108e-05
5.60758e-05
5.60708e-05
5.91505e-05
5.98319e-05
5.92076e-05
5.72806e-05
5.72779e-05
5.77733e-05
5.77713e-05
5.98322e-05
5.92094e-05
5.72771e-05
5.728e-05
5.77711e-05
5.7776e-05
5.72798e-05
5.77744e-05
5.77746e-05
5.9834e-05
5.92182e-05
5.72767e-05
5.77812e-05
5.77745e-05
5.9213e-05
5.78488e-05
4.80084e-05
5.682e-05
5.6818e-05
4.80243e-05
4.80191e-05
5.7851e-05
4.80064e-05
5.68192e-05
5.68239e-05
4.80249e-05
4.80224e-05
5.68226e-05
4.80277e-05
4.80239e-05
5.78589e-05
4.80071e-05
5.68247e-05
4.8031e-05
4.80258e-05
4.80064e-05
4.71156e-05
4.59505e-05
4.61163e-05
4.61099e-05
4.44003e-05
4.43923e-05
4.71129e-05
4.59432e-05
4.61162e-05
4.61124e-05
4.43987e-05
4.43951e-05
4.61142e-05
4.43958e-05
4.43961e-05
4.71128e-05
4.59451e-05
4.61148e-05
4.43989e-05
4.43946e-05
4.59434e-05
4.68519e-05
5.62668e-05
4.4634e-05
4.46258e-05
5.25696e-05
5.25633e-05
4.68435e-05
5.62622e-05
4.46316e-05
4.4629e-05
5.25645e-05
5.25693e-05
4.46296e-05
5.25608e-05
5.25683e-05
4.68473e-05
5.62682e-05
4.46274e-05
5.25683e-05
5.25634e-05
5.62667e-05
5.77977e-05
6.34415e-05
5.55153e-05
5.55104e-05
6.10175e-05
6.10154e-05
5.77946e-05
6.34436e-05
5.5511e-05
5.55157e-05
6.10149e-05
6.10189e-05
5.55156e-05
6.10197e-05
6.10202e-05
5.77997e-05
6.34458e-05
5.55114e-05
6.10228e-05
6.10174e-05
6.34441e-05
6.38186e-05
6.23803e-05
6.17524e-05
6.17507e-05
6.17174e-05
6.17157e-05
6.38212e-05
6.23829e-05
6.17502e-05
6.17538e-05
6.17162e-05
6.17179e-05
6.17553e-05
6.17223e-05
6.17196e-05
6.38228e-05
6.23825e-05
6.17527e-05
6.17235e-05
6.17181e-05
6.2381e-05
6.12775e-05
5.38363e-05
6.04481e-05
6.04459e-05
5.33302e-05
5.33254e-05
6.12798e-05
5.38344e-05
6.04482e-05
6.04469e-05
5.333e-05
5.3327e-05
6.04489e-05
5.33319e-05
5.33293e-05
6.1279e-05
5.38354e-05
6.04489e-05
5.33339e-05
5.333e-05
5.38356e-05
5.29375e-05
4.9164e-05
5.14263e-05
5.14211e-05
4.76551e-05
4.76497e-05
5.29355e-05
4.91611e-05
5.14258e-05
5.14229e-05
4.76533e-05
4.76521e-05
5.14253e-05
4.76539e-05
4.76539e-05
5.29364e-05
4.91633e-05
5.14258e-05
4.76573e-05
4.76532e-05
4.91629e-05
4.89557e-05
4.86316e-05
4.70311e-05
4.70259e-05
4.64381e-05
4.64334e-05
4.8953e-05
4.86297e-05
4.70291e-05
4.70285e-05
4.64357e-05
4.64364e-05
4.703e-05
4.64366e-05
4.64374e-05
4.89552e-05
4.86324e-05
4.70289e-05
4.64403e-05
4.64355e-05
4.86309e-05
4.88115e-05
5.01052e-05
4.64738e-05
4.64692e-05
4.76059e-05
4.76023e-05
4.88098e-05
5.01044e-05
4.64712e-05
4.64723e-05
4.76034e-05
4.7605e-05
4.64732e-05
4.76053e-05
4.76059e-05
4.88124e-05
5.01063e-05
4.64711e-05
4.76081e-05
4.76033e-05
5.01054e-05
5.03211e-05
5.07195e-05
4.80054e-05
4.80017e-05
4.74063e-05
4.74024e-05
5.03202e-05
5.07181e-05
4.80036e-05
4.80044e-05
4.74065e-05
4.7405e-05
4.80054e-05
4.74075e-05
4.74056e-05
5.03219e-05
5.07198e-05
4.80035e-05
4.74097e-05
4.74058e-05
5.07188e-05
5.05738e-05
4.69442e-05
4.69403e-05
5.05723e-05
4.69444e-05
4.69429e-05
4.02699e-05
4.02726e-05
4.02714e-05
4.69438e-05
5.05742e-05
4.69442e-05
3.73769e-05
3.73764e-05
3.73767e-05
3.73767e-05
3.73694e-05
3.73756e-05
3.73043e-05
3.73764e-05
3.73695e-05
3.73756e-05
3.73764e-05
3.73043e-05
3.73714e-05
3.72959e-05
3.72959e-05
3.58829e-05
4.08678e-05
3.6601e-05
4.51385e-05
5.51099e-05
6.48883e-05
3.58835e-05
4.08674e-05
3.66009e-05
4.51411e-05
3.60232e-05
3.60232e-05
3.60232e-05
3.44005e-05
3.44005e-05
3.44005e-05
3.44005e-05
3.52763e-05
3.56383e-05
3.60241e-05
3.53761e-05
3.60479e-05
3.42427e-05
3.53827e-05
5.51119e-05
6.48899e-05
3.52764e-05
3.60241e-05
3.56379e-05
3.53761e-05
3.60478e-05
3.53827e-05
3.42432e-05
3.65942e-05
3.65949e-05
3.52782e-05
3.40673e-05
3.40664e-05
3.39695e-05
5.13493e-05
3.46835e-05
5.46194e-05
7.65443e-05
8.08619e-05
3.39704e-05
5.13498e-05
3.46829e-05
5.46228e-05
3.39295e-05