/*--------------------------------*- C++ -*----------------------------------*\
| =========                 |                                                 |
| \\      /  F ield         | OpenFOAM: The Open Source CFD Toolbox           |
|  \\    /   O peration     | Version:  2312                                  |
|   \\  /    A nd           | Website:  www.openfoam.com                      |
|    \\/     M anipulation  |                                                 |
\*---------------------------------------------------------------------------*/
FoamFile
{
    version     2.0;
    format      ascii;
    arch        "LSB;label=32;scalar=64";
    class       volScalarField;
    location    "375";
    object      nut;
}
// * * * * * * * * * * * * * * * * * * * * * * * * * * * * * * * * * * * * * //

dimensions      [0 2 -1 0 0 0 0];

internalField   nonuniform List<scalar> 
172512
(
0.000233969
0.000233549
0.000233549
0.00023345
0.000232529
0.000227583
0.000227583
0.000223835
0.000230489
0.000220163
0.000220162
0.00020903
0.00022776
0.000211546
0.000211544
0.0001937
0.00022439
0.000202555
0.000202552
0.00017963
0.000220508
0.000193694
0.000193691
0.000167269
0.000216261
0.00018521
0.000185206
0.000156525
0.000211779
0.000177178
0.000177173
0.000147152
0.000207168
0.000169639
0.000169635
0.000138902
0.000202509
0.000162568
0.000162563
0.000131572
0.000197856
0.000155911
0.000155906
0.000124916
0.000193244
0.000149612
0.000149607
0.000118782
0.000188654
0.000143634
0.000143629
0.000113136
0.000184123
0.000137923
0.000137919
0.000107904
0.000179681
0.000132436
0.000132431
0.000103033
0.000175315
0.000127164
0.00012716
9.84124e-05
0.000171014
0.000122126
0.000122122
9.42283e-05
0.000166765
0.000117347
0.000117343
9.06423e-05
0.000162569
0.000112864
0.000112861
8.7716e-05
0.000158398
0.000108733
0.000108731
8.5366e-05
0.000154248
0.000105004
0.000105002
8.36491e-05
0.000150129
0.000101693
0.000101689
8.25677e-05
0.000146049
9.88773e-05
9.88745e-05
8.20887e-05
0.000142033
9.65647e-05
9.65654e-05
8.21396e-05
0.000138104
9.47765e-05
9.47698e-05
8.26757e-05
0.000134281
9.3505e-05
9.35048e-05
8.36541e-05
0.000130618
9.27377e-05
9.27341e-05
8.50136e-05
0.00012714
9.24531e-05
9.24636e-05
8.66899e-05
0.000123898
9.26271e-05
9.26256e-05
8.86305e-05
0.000120881
9.32169e-05
9.32262e-05
9.07809e-05
0.000118191
9.42228e-05
9.422e-05
9.30912e-05
0.000115765
9.55709e-05
9.55602e-05
9.55555e-05
0.000113715
9.72058e-05
9.72321e-05
9.81178e-05
0.00011203
9.91583e-05
9.91777e-05
0.000100722
0.000110642
0.000101403
0.00010133
0.000103356
0.000109713
0.000103682
0.00010381
0.000106096
0.00010903
0.000106425
0.000106283
0.000108746
0.000108893
0.000108966
0.000109157
0.000111647
0.000108876
0.000112106
0.000111919
0.00011409
0.000109504
0.000114738
0.000114899
0.000117095
0.000110113
0.000118094
0.000118017
0.000119597
0.00011139
0.00012099
0.000121036
0.000122363
0.000112637
0.000124199
0.000124194
0.000124946
0.000114589
0.000127525
0.000127533
0.000127679
0.000116393
0.000130528
0.000130544
0.000130174
0.000118598
0.000133805
0.000133807
0.000132748
0.000121095
0.000136976
0.000137012
0.000135276
0.000123751
0.000140155
0.000140141
0.00013774
0.000126548
0.000143255
0.000143279
0.000140153
0.000129557
0.000146373
0.000146378
0.00014254
0.000132649
0.0001494
0.000149404
0.000144847
0.000135867
0.000152381
0.000152401
0.000147116
0.00013921
0.000155337
0.000155348
0.000149337
0.000142604
0.000158211
0.000158221
0.00015149
0.000146076
0.00016103
0.00016104
0.000153595
0.000149575
0.000163785
0.000163799
0.000155636
0.000153098
0.000166472
0.000166478
0.000157623
0.000156668
0.000169093
0.000169109
0.000159547
0.000160181
0.00017165
0.000171656
0.000161423
0.000163742
0.000174118
0.000174129
0.00016321
0.000167217
0.000176542
0.000176554
0.000164984
0.000170719
0.000178865
0.00017887
0.000166646
0.000174111
0.000181133
0.000181152
0.000168284
0.000177477
0.000183301
0.000183286
0.000169842
0.000180901
0.000185465
0.00018552
0.000171376
0.00018386
0.000187382
0.000187327
0.000172735
0.000187456
0.000189481
0.000189556
0.000174255
0.000190082
0.000191237
0.000191197
0.000175413
0.000193446
0.000193055
0.00019308
0.000176782
0.000196147
0.000194914
0.00019493
0.00017796
0.000199056
0.00019621
0.000196207
0.000179005
0.000201604
0.000198215
0.000198228
0.000180281
0.000204722
0.000199408
0.000199412
0.000181138
0.000206092
0.000200762
0.000200785
0.00018209
0.000210513
0.000202721
0.000202718
0.000183362
0.000210242
0.000202428
0.000202436
0.000183149
0.000214442
0.000205257
0.000205269
0.000185125
0.000215934
0.000205492
0.000205473
0.00018498
0.000218371
0.000207142
0.000207167
0.000186793
0.000217306
0.000205258
0.000205297
0.000183437
0.00022555
0.000213574
0.000213541
0.000193312
0.000225191
0.00020617
0.000206263
0.000184066
0.000208355
0.000191895
0.000191891
0.000170041
0.000243182
0.000234392
0.000234387
0.000210194
0.000282627
0.000256677
0.000256723
0.000220043
0.00021439
0.000182184
0.000182184
0.000161336
0.000165207
0.000157539
0.000157544
0.000145558
0.000205519
0.000215866
0.000215897
0.00019338
0.000298584
0.000264589
0.000264594
0.000230276
0.000341112
0.000278194
0.000278177
0.000231849
0.000269776
0.000221051
0.000221055
0.000192383
0.000210012
0.000192141
0.000192151
0.000171716
0.000194298
0.000187823
0.000187832
0.000169529
0.000206326
0.000198117
0.000198122
0.000177044
0.000223181
0.000203833
0.00020384
0.000184531
0.000234257
0.000234459
0.00023446
0.000234257
0.000234459
0.000234459
0.000234259
0.000234259
0.000234259
0.000234259
0.000234458
0.000234459
0.000234257
0.000234458
0.000234459
0.000234257
0.00023345
0.00022618
0.000233549
0.000233548
0.000229126
0.000229122
0.00023345
0.00022618
0.000233548
0.000233548
0.000229124
0.000229121
0.000233549
0.000229129
0.000229127
0.00023345
0.000226179
0.000233548
0.000229129
0.000229124
0.000226178
0.000223836
0.000212153
0.00022758
0.000227575
0.000222162
0.000222156
0.000223835
0.000212153
0.000227578
0.000227574
0.000222162
0.000222155
0.000227579
0.000222168
0.000222161
0.000223836
0.00021215
0.000227578
0.000222167
0.000222161
0.000212146
0.000209034
0.000196981
0.000220156
0.00022015
0.000213753
0.000213746
0.000209032
0.000196979
0.000220157
0.000220148
0.000213758
0.000213744
0.000220154
0.000213762
0.00021375
0.000209031
0.000196975
0.000220156
0.000213761
0.000213754
0.00019697
0.000193709
0.000182805
0.000211535
0.000211528
0.000204791
0.000204784
0.000193707
0.000182802
0.000211541
0.000211526
0.0002048
0.000204781
0.000211531
0.000204804
0.000204786
0.000193704
0.000182798
0.000211537
0.000204802
0.000204795
0.000182791
0.000179642
0.000170207
0.000202541
0.000202534
0.000195864
0.000195857
0.000179639
0.000170204
0.000202551
0.000202531
0.000195876
0.000195853
0.000202536
0.000195879
0.000195858
0.000179635
0.000170199
0.000202545
0.000195876
0.000195869
0.000170192
0.000167283
0.000159191
0.000193677
0.00019367
0.000187271
0.000187264
0.00016728
0.000159187
0.000193691
0.000193666
0.000187287
0.00018726
0.000193671
0.000187289
0.000187264
0.000167275
0.000159182
0.000193684
0.000187286
0.000187279
0.000159174
0.00015654
0.00014957
0.00018519
0.000185183
0.000179118
0.000179111
0.000156537
0.000149566
0.000185206
0.000185179
0.000179137
0.000179106
0.000185183
0.000179138
0.000179111
0.000156531
0.000149559
0.000185198
0.000179135
0.000179128
0.000149552
0.000147168
0.00014107
0.000177155
0.000177148
0.000171454
0.000171447
0.000147164
0.000141066
0.000177175
0.000177144
0.000171475
0.000171442
0.000177148
0.000171477
0.000171447
0.000147158
0.000141059
0.000177166
0.000171473
0.000171466
0.000141052
0.00013892
0.000133516
0.000169614
0.000169607
0.000164268
0.000164261
0.000138915
0.000133513
0.000169637
0.000169603
0.000164292
0.000164256
0.000169608
0.000164294
0.000164262
0.000138909
0.000133505
0.000169628
0.00016429
0.000164283
0.000133497
0.00013159
0.000126659
0.000162541
0.000162533
0.000157511
0.000157503
0.000131586
0.000126655
0.000162566
0.000162529
0.000157537
0.000157498
0.000162534
0.000157538
0.000157504
0.000131579
0.000126648
0.000162556
0.000157535
0.000157528
0.000126639
0.000124934
0.000120339
0.000155881
0.000155874
0.000151126
0.000151118
0.000124929
0.000120336
0.000155909
0.00015587
0.000151154
0.000151114
0.000155875
0.000151155
0.00015112
0.000124922
0.000120328
0.000155899
0.000151152
0.000151145
0.000120319
0.000118799
0.000114407
0.000149581
0.000149573
0.000145068
0.00014506
0.000118796
0.000114402
0.00014961
0.00014957
0.000145098
0.000145056
0.000149575
0.000145098
0.000145062
0.000118788
0.000114394
0.0001496
0.000145095
0.000145088
0.000114385
0.000113152
0.00010882
0.000143602
0.000143594
0.000139294
0.000139285
0.000113149
0.000108814
0.000143632
0.00014359
0.000139324
0.000139282
0.000143596
0.000139325
0.000139289
0.000113141
0.000108808
0.000143622
0.000139322
0.000139315
0.000108799
0.000107923
0.000103688
0.00013789
0.000137882
0.000133754
0.000133745
0.000107918
0.000103682
0.000137921
0.000137879
0.000133784
0.000133741
0.000137885
0.000133786
0.000133749
0.000107912
0.000103675
0.000137911
0.000133783
0.000133775
0.000103669
0.00010305
9.91159e-05
0.000132403
0.000132394
0.000128426
0.000128416
0.000103045
9.91118e-05
0.000132433
0.00013239
0.000128456
0.000128413
0.000132398
0.000128458
0.000128422
0.000103038
9.91046e-05
0.000132424
0.000128455
0.000128446
9.90988e-05
9.84308e-05
9.49788e-05
0.000127133
0.000127121
0.000123329
0.000123316
9.84255e-05
9.49724e-05
0.000127161
0.000127119
0.000123356
0.000123314
0.000127128
0.000123359
0.000123325
9.84191e-05
9.49666e-05
0.000127152
0.000123356
0.000123346
9.49588e-05
9.42476e-05
9.14252e-05
0.000122096
0.000122082
0.000118464
0.000118449
9.42413e-05
9.1422e-05
0.000122122
0.000122081
0.000118488
0.000118448
0.000122092
0.000118493
0.000118461
9.42367e-05
9.14164e-05
0.000122113
0.00011849
0.00011848
9.14086e-05
9.06549e-05
8.83668e-05
0.000117318
0.000117303
0.00011391
0.000113894
9.06506e-05
8.83658e-05
0.000117343
0.000117302
0.000113933
0.000113894
0.000117315
0.000113938
0.000113908
9.06465e-05
8.83587e-05
0.000117333
0.000113935
0.000113925
8.8355e-05
8.77281e-05
8.59031e-05
0.000112835
0.00011282
0.000109682
0.000109664
8.77224e-05
8.5898e-05
0.000112858
0.00011282
0.000109703
0.000109665
0.000112834
0.000109707
0.000109679
8.77175e-05
8.58898e-05
0.00011285
0.000109706
0.000109694
8.58886e-05
8.5384e-05
8.40643e-05
0.000108706
0.000108689
0.000105838
0.000105821
8.53744e-05
8.4058e-05
0.000108727
0.00010869
0.000105858
0.000105822
0.000108705
0.000105864
0.000105838
8.53738e-05
8.4053e-05
0.000108719
0.000105862
0.000105851
8.40493e-05
8.36644e-05
8.28526e-05
0.000104977
0.000104961
0.000102442
0.000102428
8.36589e-05
8.28485e-05
0.000104998
0.000104962
0.000102463
0.00010243
0.000104977
0.000102469
0.000102445
8.36595e-05
8.28462e-05
0.00010499
0.000102469
0.000102457
8.28411e-05
8.25759e-05
8.22548e-05
0.000101664
0.00010165
9.95033e-05
9.94925e-05
8.25742e-05
8.22542e-05
0.000101685
0.000101651
9.95238e-05
9.9492e-05
0.000101667
9.95313e-05
9.95092e-05
8.25743e-05
8.22485e-05
0.000101678
9.95305e-05
9.95202e-05
8.22427e-05
8.20933e-05
8.22033e-05
9.88476e-05
9.8837e-05
9.70666e-05
9.70556e-05
8.20954e-05
8.21993e-05
9.88679e-05
9.88368e-05
9.70868e-05
9.7056e-05
9.88513e-05
9.70923e-05
9.70728e-05
8.20922e-05
8.21987e-05
9.88615e-05
9.7093e-05
9.70828e-05
8.21879e-05
8.21461e-05
8.26433e-05
9.65395e-05
9.65266e-05
9.51487e-05
9.51405e-05
8.21456e-05
8.26444e-05
9.65593e-05
9.65292e-05
9.51682e-05
9.51375e-05
9.65474e-05
9.5175e-05
9.51539e-05
8.21433e-05
8.2646e-05
9.65566e-05
9.51728e-05
9.51628e-05
8.26344e-05
8.26852e-05
8.35287e-05
9.47513e-05
9.47408e-05
9.37476e-05
9.37427e-05
8.26911e-05
8.35308e-05
9.47702e-05
9.47354e-05
9.37662e-05
9.3744e-05
9.4758e-05
9.37748e-05
9.37541e-05
8.26845e-05
8.35357e-05
9.4766e-05
9.37774e-05
9.37619e-05
8.35262e-05
8.36591e-05
8.48067e-05
9.3479e-05
9.34717e-05
9.28571e-05
9.28525e-05
8.36661e-05
8.48119e-05
9.34969e-05
9.34722e-05
9.28745e-05
9.28519e-05
9.34848e-05
9.28827e-05
9.28664e-05
8.36736e-05
8.48022e-05
9.34918e-05
9.28835e-05
9.28729e-05
8.48048e-05
8.50158e-05
8.64174e-05
9.27113e-05
9.27067e-05
9.24618e-05
9.24512e-05
8.50205e-05
8.64236e-05
9.27281e-05
9.27036e-05
9.2478e-05
9.24599e-05
9.27212e-05
9.2479e-05
9.24663e-05
8.50146e-05
8.6418e-05
9.27268e-05
9.24894e-05
9.24715e-05
8.64153e-05
8.66929e-05
8.82964e-05
9.24342e-05
9.24242e-05
9.25172e-05
9.25125e-05
8.6694e-05
8.83125e-05
9.24498e-05
9.24348e-05
9.25318e-05
9.25049e-05
9.24422e-05
9.25383e-05
9.25311e-05
8.66977e-05
8.82915e-05
9.24467e-05
9.25326e-05
9.25348e-05
8.8304e-05
8.86212e-05
9.04196e-05
9.26137e-05
9.26007e-05
9.30072e-05
9.3012e-05
8.86362e-05
9.04312e-05
9.26277e-05
9.25991e-05
9.3021e-05
9.30231e-05
9.26148e-05
9.3036e-05
9.30305e-05
8.86164e-05
9.04352e-05
9.26177e-05
9.30493e-05
9.30332e-05
9.04096e-05
9.07725e-05
9.27285e-05
9.3191e-05
9.31921e-05
9.39329e-05
9.39254e-05
9.0803e-05
9.26994e-05
9.32036e-05
9.32006e-05
9.3945e-05
9.39058e-05
9.32187e-05
9.39475e-05
9.39222e-05
9.07985e-05
9.26943e-05
9.32204e-05
9.39302e-05
9.3923e-05
9.26937e-05
9.31341e-05
9.51161e-05
9.42166e-05
9.42001e-05
9.51503e-05
9.51653e-05
9.31206e-05
9.51028e-05
9.42281e-05
9.41966e-05
9.51611e-05
9.51807e-05
9.42141e-05
9.51864e-05
9.518e-05
9.31074e-05
9.51324e-05
9.42142e-05
9.52039e-05
9.51796e-05
9.51411e-05
9.55436e-05
9.76722e-05
9.55233e-05
9.55495e-05
9.67883e-05
9.67449e-05
9.55324e-05
9.76628e-05
9.55333e-05
9.55378e-05
9.67978e-05
9.67633e-05
9.55471e-05
9.6764e-05
9.67812e-05
9.55655e-05
9.76329e-05
9.5546e-05
9.67853e-05
9.67795e-05
9.76647e-05
9.81333e-05
0.000100212
9.72057e-05
9.71862e-05
9.86333e-05
9.86444e-05
9.80982e-05
0.000100254
9.72144e-05
9.72111e-05
9.86417e-05
9.86319e-05
9.72112e-05
9.86629e-05
9.86505e-05
9.80899e-05
0.00010025
9.72084e-05
9.8653e-05
9.86473e-05
0.000100242
0.000100693
0.000102924
9.91801e-05
9.91391e-05
0.000100764
0.000100793
0.000100728
0.000102899
9.91888e-05
9.91569e-05
0.00010077
0.000100759
9.91827e-05
0.000100811
0.000100783
0.000100702
0.000102917
9.91795e-05
0.000100778
0.000100777
0.000102899
0.000103358
0.000105602
0.0001013
0.000101385
0.000103124
0.000103053
0.000103372
0.000105585
0.000101304
0.000101311
0.000103133
0.000103174
0.000101316
0.00010307
0.000103158
0.000103383
0.00010561
0.000101308
0.000103195
0.000103155
0.000105603
0.00010611
0.000108316
0.000103782
0.000103663
0.000105669
0.000105758
0.000106036
0.000108374
0.000103792
0.00010379
0.000105667
0.000105562
0.000103835
0.000105772
0.000105615
0.000106098
0.000108257
0.000103833
0.00010558
0.000105601
0.000108306
0.000108782
0.000111019
0.000106283
0.000106412
0.000108378
0.000108253
0.00010889
0.000110925
0.000106281
0.000106267
0.000108392
0.000108518
0.000106214
0.000108273
0.0001085
0.000108736
0.00011114
0.000106199
0.00010854
0.000108502
0.000111094
0.000111536
0.000113765
0.00010912
0.000108944
0.000111181
0.00011131
0.000111399
0.000113862
0.000109133
0.000109133
0.000111174
0.000111054
0.000109255
0.000111324
0.000111093
0.000111619
0.000113647
0.000109256
0.00011107
0.000111074
0.000113667
0.00011423
0.000116507
0.000111886
0.000112095
0.000114221
0.000114082
0.00011438
0.000116418
0.000111879
0.000111905
0.000114232
0.000114299
0.000111756
0.000114096
0.00011425
0.000114158
0.000116616
0.000111736
0.000114318
0.00011425
0.00011654
0.000117013
0.000119127
0.000114965
0.000114718
0.000117084
0.000117159
0.00011684
0.000119177
0.000114976
0.000114876
0.000117079
0.000117028
0.00011507
0.00011718
0.000117164
0.000117058
0.000119023
0.000115071
0.000117053
0.000117148
0.000119181
0.000119587
0.000121926
0.00011788
0.000118076
0.00012036
0.000120347
0.00011974
0.00012193
0.000117876
0.000117996
0.000120365
0.000120427
0.000117886
0.000120358
0.000120303
0.000119586
0.000122034
0.00011787
0.000120443
0.000120299
0.00012186
0.000122403
0.000124431
0.000121093
0.000120975
0.000123312
0.000123265
0.000122315
0.000124387
0.000121097
0.000121019
0.00012331
0.000123234
0.000121088
0.000123286
0.000123373
0.000122406
0.000124339
0.000121082
0.000123258
0.000123362
0.000124483
0.000124913
0.000127265
0.000124157
0.000124179
0.000126726
0.00012676
0.000124931
0.000127309
0.000124156
0.000124172
0.000126726
0.000126783
0.000124182
0.000126774
0.000126687
0.000124895
0.00012734
0.000124172
0.0001268
0.000126679
0.000127213
0.000127721
0.000129709
0.000127507
0.000127508
0.000129765
0.000129718
0.000127734
0.000129668
0.000127506
0.000127515
0.000129765
0.000129721
0.00012749
0.000129739
0.000129801
0.000127757
0.000129659
0.000127481
0.000129743
0.000129793
0.00012974
0.000130147
0.000132304
0.00013055
0.000130507
0.000132969
0.000132971
0.000130114
0.000132317
0.00013055
0.000130521
0.000132967
0.000132977
0.00013058
0.00013299
0.000132981
0.000130112
0.000132329
0.000130573
0.000132999
0.000132973
0.000132303
0.000132749
0.000134844
0.000133772
0.000133785
0.000136182
0.000136163
0.000132766
0.000134838
0.000133769
0.000133786
0.000136182
0.000136194
0.000133787
0.000136183
0.000136191
0.000132774
0.000134856
0.000133778
0.000136216
0.000136186
0.000134846
0.000135277
0.000137337
0.000136991
0.000136956
0.000139365
0.000139349
0.000135262
0.000137327
0.000136991
0.000136991
0.000139363
0.000139343
0.000136989
0.000139368
0.000139364
0.000135284
0.000137324
0.000136984
0.000139364
0.000139357
0.000137325
0.000137746
0.000139746
0.000140138
0.000140135
0.000142473
0.000142457
0.000137747
0.000139743
0.000140135
0.000140119
0.000142471
0.00014247
0.000140146
0.000142478
0.00014248
0.000137734
0.000139754
0.000140138
0.000142492
0.000142474
0.000139748
0.000140157
0.000142158
0.00014326
0.000143234
0.000145599
0.000145578
0.000140145
0.000142148
0.000143259
0.000143256
0.000145598
0.000145591
0.000143262
0.000145598
0.000145595
0.000140166
0.000142155
0.000143257
0.000145613
0.000145591
0.000142148
0.000142548
0.000144471
0.000146365
0.000146353
0.000148636
0.000148628
0.000142545
0.000144474
0.000146364
0.000146356
0.000148634
0.000148626
0.000146363
0.000148649
0.00014864
0.000142545
0.000144473
0.000146358
0.00014865
0.000148635
0.00014447
0.000144849
0.000146754
0.000149391
0.000149378
0.000151637
0.000151615
0.000144848
0.000146742
0.000149389
0.000149381
0.000151637
0.000151632
0.000149394
0.000151636
0.000151639
0.000144849
0.000146758
0.000149389
0.000151656
0.000151636
0.000146749
0.00014712
0.000148989
0.00015238
0.000152358
0.000154602
0.000154581
0.000147108
0.000148982
0.00015238
0.000152377
0.000154602
0.000154595
0.000152383
0.000154603
0.000154601
0.000147125
0.00014899
0.000152381
0.000154619
0.0001546
0.000148984
0.000149344
0.000151158
0.000155334
0.000155314
0.000157492
0.000157476
0.000149337
0.000151153
0.000155334
0.000155324
0.000157491
0.000157482
0.000155332
0.000157498
0.000157492
0.000149343
0.000151157
0.00015533
0.000157506
0.00015749
0.000151152
0.000151496
0.000153275
0.000158205
0.000158188
0.000160328
0.000160308
0.000151491
0.000153267
0.000158205
0.000158197
0.000160329
0.000160319
0.000158205
0.00016033
0.000160328
0.000151496
0.000153276
0.000158204
0.000160344
0.000160327
0.00015327
0.000153601
0.000155332
0.000161026
0.000161006
0.000163096
0.000163079
0.000153593
0.000155325
0.000161026
0.000161015
0.000163097
0.000163088
0.000161026
0.000163102
0.000163094
0.000153601
0.000155331
0.000161025
0.000163112
0.000163094
0.000155325
0.000155643
0.000157332
0.000163782
0.000163762
0.000165798
0.000165778
0.000155636
0.000157324
0.000163784
0.000163775
0.000165801
0.00016579
0.000163777
0.000165803
0.0001658
0.000155644
0.000157332
0.000163778
0.000165816
0.000165801
0.000157326
0.000157628
0.000159275
0.000166461
0.000166446
0.000168446
0.000168427
0.000157622
0.000159268
0.000166462
0.000166451
0.000168448
0.000168434
0.000166466
0.000168448
0.000168433
0.000157627
0.000159272
0.000166465
0.000168458
0.000168435
0.000159263
0.000159561
0.000161151
0.000169096
0.00016907
0.000171
0.000170981
0.000159551
0.000161143
0.000169099
0.000169086
0.000171004
0.000170997
0.000169081
0.000171009
0.000171012
0.000159559
0.000161155
0.000169084
0.000171025
0.000171014
0.000161153
0.000161419
0.00016298
0.000171633
0.000171621
0.000173516
0.000173495
0.000161415
0.000162973
0.000171636
0.000171628
0.000173518
0.000173499
0.000171645
0.000173516
0.000173492
0.000161423
0.000162974
0.000171646
0.000173523
0.000173495
0.000162958
0.000163235
0.000164731
0.000174123
0.000174095
0.000175921
0.000175899
0.000163223
0.000164721
0.000174127
0.000174106
0.000175926
0.000175915
0.000174099
0.000175928
0.000175931
0.000163228
0.000164734
0.000174103
0.000175943
0.000175935
0.000164735
0.000164975
0.000166447
0.000176527
0.000176513
0.000178302
0.000178286
0.000164971
0.000166443
0.000176531
0.000176525
0.000178305
0.000178292
0.000176538
0.000178311
0.000178289
0.000164981
0.000166446
0.000176543
0.000178319
0.000178293
0.000166429
0.000166669
0.000168065
0.000178859
0.000178837
0.000180546
0.000180514
0.00016666
0.000168048
0.000178863
0.000178845
0.000180553
0.00018053
0.000178844
0.00018054
0.000180535
0.000166664
0.000168058
0.000178846
0.000180556
0.000180541
0.000168055
0.00016829
0.000169663
0.000181134
0.000181107
0.00018277
0.000182771
0.000168277
0.000169672
0.000181141
0.000181123
0.000182771
0.000182766
0.000181126
0.000182801
0.000182779
0.000168287
0.000169669
0.000181135
0.000182797
0.00018278
0.000169661
0.000169847
0.000171192
0.000183267
0.000183267
0.000184933
0.000184879
0.000169855
0.000171157
0.000183269
0.000183258
0.000184947
0.000184918
0.000183274
0.0001849
0.000184898
0.00016985
0.000171182
0.000183271
0.000184942
0.000184914
0.000171164
0.000171404
0.000172577
0.000185502
0.000185444
0.000186846
0.000186867
0.000171363
0.000172606
0.000185516
0.000185493
0.000186843
0.000186838
0.00018547
0.000186906
0.000186878
0.000171395
0.000172585
0.000185491
0.000186874
0.00018687
0.000172592
0.000172717
0.000174117
0.00018731
0.00018734
0.000189059
0.000188999
0.00017276
0.000174069
0.000187305
0.000187294
0.000189074
0.000189041
0.000187338
0.000189014
0.000189005
0.000172724
0.000174101
0.000187325
0.000189061
0.000189026
0.00017407
0.000174302
0.000175265
0.000189545
0.000189468
0.000190656
0.000190659
0.000174239
0.000175275
0.000189563
0.000189535
0.000190662
0.00019066
0.00018949
0.000190702
0.000190687
0.00017429
0.000175278
0.000189518
0.000190698
0.000190688
0.00017528
0.000175386
0.000176716
0.000191161
0.000191188
0.000192758
0.000192732
0.000175428
0.000176696
0.000191162
0.000191158
0.000192763
0.000192726
0.000191201
0.000192755
0.000192729
0.0001754
0.000176697
0.000191193
0.00019275
0.000192733
0.000176682
0.000176821
0.000177768
0.000193085
0.000193035
0.000194255
0.000194225
0.000176785
0.00017775
0.000193095
0.000193057
0.000194269
0.00019426
0.000193041
0.000194255
0.000194246
0.000176803
0.000177776
0.000193054
0.000194293
0.000194263
0.000177757
0.000177959
0.000179033
0.000194894
0.000194879
0.000196108
0.000196095
0.00017796
0.000179035
0.000194904
0.000194896
0.000196114
0.000196086
0.000194898
0.000196127
0.000196106
0.000177971
0.000179026
0.000194909
0.000196118
0.000196111
0.000179026
0.000179016
0.000180013
0.000196195
0.000196178
0.000197457
0.000197432
0.000179013
0.00018
0.000196204
0.000196176
0.000197468
0.000197453
0.000196187
0.000197468
0.000197444
0.000179008
0.000180014
0.000196193
0.000197483
0.000197452
0.000179991
0.0001803
0.000181248
0.000198205
0.00019818
0.000199422
0.000199399
0.000180288
0.000181237
0.000198215
0.000198197
0.000199429
0.00019939
0.000198193
0.000199419
0.000199403
0.0001803
0.000181235
0.000198201
0.000199423
0.000199419
0.000181234
0.00018115
0.000181755
0.000199412
0.00019939
0.000199878
0.000199856
0.000181139
0.00018175
0.00019942
0.00019938
0.000199897
0.000199914
0.000199393
0.000199915
0.000199895
0.000181138
0.000181777
0.00019941
0.000199948
0.000199896
0.000181746
0.000182098
0.000183449
0.000200727
0.000200708
0.000202601
0.000202581
0.000182096
0.000183447
0.000200743
0.000200752
0.00020261
0.000202573
0.000200741
0.000202607
0.000202582
0.000182118
0.000183433
0.000200744
0.000202606
0.000202595
0.000183431
0.000183381
0.000183113
0.000202722
0.0002027
0.000202482
0.000202456
0.000183375
0.00018309
0.00020273
0.000202685
0.000202488
0.000202435
0.000202697
0.00020247
0.000202447
0.000183362
0.000183099
0.000202711
0.000202467
0.000202463
0.000183087
0.000183167
0.000185108
0.000202428
0.000202401
0.000204803
0.000204785
0.000183151
0.000185114
0.000202436
0.000202404
0.000204822
0.000204823
0.000202406
0.000204835
0.000204817
0.000183176
0.00018513
0.000202418
0.000204858
0.000204825
0.000185112
0.000185125
0.000185021
0.000205239
0.000205219
0.000205407
0.000205386
0.000185127
0.000185003
0.000205254
0.000205235
0.000205417
0.000205369
0.000205239
0.000205409
0.000205385
0.000185136
0.000184977
0.000205251
0.000205402
0.000205401
0.00018499
0.000185019
0.000186948
0.00020549
0.00020547
0.000206915
0.000206892
0.000185006
0.000186949
0.000205496
0.000205441
0.000206927
0.000206913
0.000205455
0.000206934
0.000206904
0.000184978
0.000186975
0.000205469
0.000206948
0.000206912
0.000186933
0.000186801
0.000184068
0.000207123
0.000207097
0.00020593
0.000205893
0.000186797
0.000184034
0.000207138
0.000207131
0.000205951
0.000205936
0.00020712
0.000205931
0.000205937
0.000186832
0.000184071
0.000207129
0.000205975
0.000205957
0.000184075
0.000183432
0.000192342
0.000205257
0.000205221
0.000211768
0.000211765
0.000183399
0.000192367
0.000205278
0.000205258
0.000211775
0.000211732
0.000205263
0.000211799
0.000211739
0.000183429
0.00019231
0.000205283
0.000211759
0.000211741
0.000192295
0.000193354
0.000187786
0.000213544
0.000213541
0.000213351
0.000213311
0.000193375
0.00018774
0.000213551
0.000213514
0.000213374
0.000213389
0.000213517
0.000213338
0.000213363
0.00019333
0.000187844
0.00021352
0.00021345
0.000213416
0.000187816
0.000184036
0.000169874
0.000206176
0.000206134
0.000194476
0.000194435
0.000183993
0.000169858
0.0002062
0.000206201
0.000194495
0.000194465
0.000206188
0.000194481
0.000194474
0.000184082
0.000169852
0.000206233
0.000194514
0.000194497
0.000169852
0.000170097
0.000205639
0.000191883
0.000191846
0.000224383
0.000224367
0.000170101
0.000205635
0.000191897
0.000191853
0.000224386
0.000224343
0.000191871
0.000224395
0.000224354
0.000170035
0.000205615
0.000191877
0.000224354
0.000224337
0.000205606
0.000210225
0.000226782
0.000234386
0.00023437
0.000256147
0.000256141
0.000210221
0.000226792
0.000234392
0.000234366
0.000256159
0.000256159
0.000234365
0.000256163
0.000256143
0.000210213
0.000226836
0.000234366
0.000256195
0.000256162
0.000226798
0.000220013
0.000167395
0.000256636
0.000256636
0.000196748
0.000196732
0.000220025
0.000167396
0.00025666
0.000256667
0.000196778
0.000196741
0.00025665
0.000196801
0.000196749
0.000220068
0.000167393
0.000256689
0.000196809
0.000196786
0.000167384
0.000161344
0.000144048
0.000182144
0.00018212
0.000161581
0.000161546
0.000161341
0.00014402
0.000182168
0.000182123
0.000161598
0.000161547
0.000182132
0.000161588
0.000161553
0.000161333
0.000144017
0.000182159
0.000161587
0.00016157
0.000144004
0.000145598
0.000186408
0.000157544
0.000157506
0.00019735
0.000197313
0.000145562
0.000186379
0.000157557
0.00015751
0.000197346
0.00019734
0.000157513
0.000197309
0.000197331
0.000145569
0.000186403
0.000157525
0.000197346
0.000197326
0.000186392
0.000193406
0.000227381
0.000215893
0.000215862
0.000256927
0.000256914
0.000193383
0.000227384
0.000215894
0.000215886
0.000256942
0.000256926
0.000215883
0.000256959
0.000256934
0.000193403
0.00022739
0.000215883
0.000256968
0.000256944
0.000227375
0.000230284
0.00023807
0.000264553
0.000264543
0.000281959
0.000281954
0.000230291
0.000238083
0.00026457
0.000264551
0.000281983
0.000281957
0.000264561
0.000282016
0.000281963
0.000230294
0.000238075
0.000264572
0.000282011
0.00028198
0.000238051
0.000231858
0.000197945
0.000278126
0.000278118
0.000233422
0.000233397
0.000231869
0.000197937
0.000278162
0.000278111
0.000233453
0.000233396
0.000278118
0.000233455
0.000233404
0.000231861
0.000197934
0.000278147
0.000233454
0.000233436
0.000197924
0.000192393
0.000173237
0.000221022
0.000220994
0.000196305
0.000196277
0.000192384
0.000173223
0.000221049
0.000220995
0.000196321
0.000196281
0.000221003
0.000196317
0.000196289
0.000192382
0.000173226
0.000221033
0.000196327
0.000196309
0.00017322
0.000171731
0.00016912
0.000192128
0.000192102
0.000187936
0.000187912
0.000171718
0.000169111
0.000192142
0.000192106
0.000187945
0.000187919
0.000192114
0.000187946
0.000187924
0.000171722
0.000169116
0.000192131
0.000187955
0.000187935
0.000169104
0.000169544
0.000176118
0.000187812
0.000187788
0.000195043
0.000195027
0.000169536
0.000176114
0.000187821
0.000187795
0.000195053
0.000195031
0.0001878
0.00019506
0.000195036
0.000169541
0.000176116
0.000187811
0.000195064
0.000195042
0.000176106
0.00017706
0.000182632
0.000198096
0.000198078
0.00020332
0.000203301
0.000177055
0.000182622
0.000198111
0.000198084
0.000203332
0.000203309
0.000198089
0.000203332
0.00020331
0.000177057
0.000182628
0.000198102
0.000203338
0.000203321
0.000182618
0.000184548
0.000203824
0.000203806
0.000184537
0.000203835
0.000203814
0.000223174
0.000223182
0.000223174
0.000203815
0.000184542
0.000203823
0.000234728
0.000234779
0.000234733
0.000234733
0.000235111
0.000234805
0.000234701
0.000234742
0.000235111
0.000234806
0.000234742
0.000234701
0.000234859
0.000233567
0.000233568
0.000104728
3.87616e-05
0.000129351
3.98355e-05
2.16916e-05
2.28358e-05
0.000104691
3.87576e-05
0.000129384
3.98323e-05
0.000233969
0.000233969
0.000233969
0.000232943
0.000232943
0.000232943
0.000232943
0.000206273
9.38644e-05
0.000233996
0.00023175
0.000222758
8.73169e-05
0.000233595
2.16909e-05
2.28351e-05
0.000206271
0.000233996
9.38633e-05
0.00023175
0.000222758
0.000233595
8.73207e-05
4.78468e-05
4.78374e-05
0.000231405
4.40452e-05
4.40306e-05
7.2548e-05
4.24352e-05
8.13597e-05
4.37631e-05
2.47743e-05
2.54623e-05
7.25339e-05
4.24302e-05
8.13687e-05
4.37595e-05
0.000232529
0.000232529