/*--------------------------------*- C++ -*----------------------------------*\
| =========                 |                                                 |
| \\      /  F ield         | OpenFOAM: The Open Source CFD Toolbox           |
|  \\    /   O peration     | Version:  2312                                  |
|   \\  /    A nd           | Website:  www.openfoam.com                      |
|    \\/     M anipulation  |                                                 |
\*---------------------------------------------------------------------------*/
FoamFile
{
    version     2.0;
    format      ascii;
    arch        "LSB;label=32;scalar=64";
    class       volScalarField;
    location    "375";
    object      p;
}
// * * * * * * * * * * * * * * * * * * * * * * * * * * * * * * * * * * * * * //

dimensions      [0 2 -2 0 0 0 0];

internalField   nonuniform List<scalar> 
172512
(
0.003602
0.00360241
0.00360241
0.00360231
0.00354415
0.0035443
0.0035443
0.00354698
0.00349256
0.00349257
0.00349257
0.00349535
0.00344031
0.00344031
0.00344031
0.00344307
0.00338893
0.00338894
0.00338894
0.00339169
0.00333897
0.00333898
0.00333898
0.00334169
0.00329045
0.00329046
0.00329046
0.00329314
0.00324322
0.00324325
0.00324324
0.00324589
0.0031971
0.00319711
0.00319712
0.00319974
0.00315187
0.00315189
0.00315189
0.00315448
0.00310736
0.00310738
0.00310738
0.00310995
0.00306346
0.00306347
0.00306347
0.00306602
0.00302007
0.00302009
0.00302009
0.0030226
0.00297714
0.00297716
0.00297716
0.00297966
0.00293465
0.00293466
0.00293466
0.00293716
0.00289257
0.00289258
0.00289258
0.00289507
0.00285086
0.00285085
0.00285085
0.00285334
0.00280952
0.00280952
0.00280952
0.00281198
0.00276851
0.0027685
0.0027685
0.00277096
0.00272781
0.00272779
0.00272778
0.00273025
0.00268741
0.00268737
0.00268737
0.00268982
0.00264727
0.00264722
0.00264722
0.00264967
0.00260738
0.00260733
0.00260733
0.00260976
0.00256773
0.00256767
0.00256767
0.0025701
0.0025283
0.00252824
0.00252824
0.00253066
0.00248909
0.00248903
0.00248903
0.00249144
0.00245009
0.00245004
0.00245004
0.00245243
0.0024113
0.00241125
0.00241125
0.00241361
0.00237269
0.00237265
0.00237265
0.002375
0.00233428
0.00233424
0.00233424
0.00233657
0.00229604
0.00229601
0.00229601
0.00229831
0.00225798
0.00225795
0.00225795
0.00226023
0.00222008
0.00222006
0.00222006
0.00222232
0.00218235
0.00218233
0.00218233
0.00218457
0.00214477
0.00214475
0.00214475
0.00214698
0.00210734
0.00210733
0.00210733
0.00210953
0.00207006
0.00207005
0.00207005
0.00207223
0.00203292
0.00203291
0.00203291
0.00203508
0.00199592
0.00199589
0.0019959
0.00199806
0.00195904
0.00195902
0.00195902
0.00196116
0.0019223
0.00192226
0.00192227
0.00192439
0.00188566
0.00188562
0.00188562
0.00188775
0.00184916
0.0018491
0.00184911
0.00185121
0.00181273
0.00181267
0.00181267
0.00181478
0.00177642
0.00177636
0.00177636
0.00177845
0.00174021
0.00174013
0.00174013
0.00174222
0.00170408
0.001704
0.001704
0.00170608
0.00166803
0.00166795
0.00166795
0.00167002
0.00163206
0.00163197
0.00163197
0.00163404
0.00159616
0.00159606
0.00159606
0.00159812
0.00156033
0.00156022
0.00156022
0.00156228
0.00152456
0.00152445
0.00152445
0.00152649
0.00148884
0.00148872
0.00148872
0.00149077
0.00145317
0.00145305
0.00145305
0.00145509
0.00141755
0.00141743
0.00141743
0.00141946
0.00138198
0.00138185
0.00138185
0.00138388
0.00134644
0.00134631
0.00134631
0.00134833
0.00131093
0.0013108
0.0013108
0.00131282
0.00127545
0.00127533
0.00127533
0.00127734
0.00124
0.00123988
0.00123988
0.00124189
0.00120457
0.00120445
0.00120445
0.00120646
0.00116916
0.00116904
0.00116904
0.00117105
0.00113376
0.00113365
0.00113365
0.00113566
0.00109837
0.00109826
0.00109827
0.00110027
0.00106299
0.00106289
0.00106289
0.00106489
0.00102762
0.00102752
0.00102752
0.00102952
0.000992235
0.000992144
0.000992141
0.000994149
0.000956878
0.000956772
0.000956773
0.000958774
0.000921469
0.00092139
0.00092139
0.000923398
0.000886105
0.000886
0.000885999
0.000888001
0.000850663
0.000850599
0.0008506
0.000852609
0.000815286
0.000815175
0.000815175
0.000817177
0.000779787
0.000779742
0.000779742
0.000781755
0.000744405
0.000744293
0.000744293
0.000746296
0.00070885
0.000708789
0.00070879
0.000710795
0.000673388
0.000673351
0.00067335
0.000675381
0.000637843
0.000637743
0.000637742
0.000639738
0.000602347
0.000602311
0.000602314
0.000604347
0.000566564
0.000566484
0.00056648
0.000568491
0.000531571
0.000531565
0.000531565
0.000533564
0.000495094
0.000495001
0.000495004
0.000497061
0.000459349
0.000459476
0.000459465
0.000461458
0.000426649
0.000427036
0.000427039
0.000429033
0.000390071
0.000389402
0.0003894
0.000391318
0.000349714
0.000349429
0.000349425
0.000351691
0.000313789
0.000314906
0.000314907
0.000317286
0.00028268
0.00028325
0.000283244
0.000285215
0.000253229
0.000251455
0.000251444
0.00025263
0.000217604
0.000216826
0.000216824
0.000218519
0.000176003
0.000176188
0.000176185
0.000178726
0.000134432
0.000135637
0.000135635
0.000138403
9.69347e-05
9.7467e-05
9.74683e-05
9.98158e-05
6.31102e-05
6.31459e-05
6.31451e-05
6.50609e-05
3.15706e-05
3.0687e-05
3.06827e-05
3.23231e-05
9.75029e-06
5.93779e-06
5.9335e-06
4.49027e-06
0.00361217
0.00361124
0.00361124
0.00361217
0.00361124
0.00361124
0.00361015
0.00361015
0.00361015
0.00361015
0.00361124
0.00361124
0.00361217
0.00361124
0.00361124
0.00361217
0.00360231
0.00355337
0.00360241
0.00360241
0.00355574
0.00355574
0.00360231
0.00355337
0.00360241
0.00360241
0.00355574
0.00355574
0.00360241
0.00355574
0.00355574
0.00360231
0.00355337
0.00360241
0.00355574
0.00355574
0.00355337
0.00354698
0.0035023
0.0035443
0.00354429
0.00350576
0.00350576
0.00354698
0.0035023
0.0035443
0.0035443
0.00350576
0.00350576
0.0035443
0.00350576
0.00350576
0.00354698
0.0035023
0.0035443
0.00350576
0.00350576
0.0035023
0.00349535
0.00344995
0.00349257
0.00349257
0.00345331
0.00345331
0.00349534
0.00344995
0.00349257
0.00349257
0.00345331
0.00345331
0.00349257
0.00345331
0.00345331
0.00349535
0.00344995
0.00349257
0.00345331
0.00345331
0.00344995
0.00344307
0.0033984
0.00344031
0.00344031
0.00340167
0.00340167
0.00344307
0.0033984
0.00344031
0.00344031
0.00340167
0.00340167
0.00344031
0.00340167
0.00340167
0.00344307
0.0033984
0.00344031
0.00340167
0.00340167
0.0033984
0.00339169
0.00334819
0.00338894
0.00338894
0.00335133
0.00335133
0.00339169
0.00334819
0.00338894
0.00338894
0.00335133
0.00335133
0.00338894
0.00335133
0.00335133
0.0033917
0.00334819
0.00338894
0.00335133
0.00335133
0.00334819
0.0033417
0.00329944
0.00333898
0.00333898
0.00330246
0.00330247
0.00334169
0.00329944
0.00333898
0.00333898
0.00330246
0.00330246
0.00333898
0.00330246
0.00330246
0.00334169
0.00329944
0.00333898
0.00330246
0.00330246
0.00329944
0.00329314
0.00325202
0.00329046
0.00329046
0.00325493
0.00325494
0.00329314
0.00325202
0.00329046
0.00329046
0.00325494
0.00325494
0.00329046
0.00325494
0.00325494
0.00329314
0.00325202
0.00329046
0.00325494
0.00325494
0.00325202
0.00324589
0.00320573
0.00324324
0.00324324
0.00320855
0.00320856
0.00324589
0.00320572
0.00324324
0.00324324
0.00320855
0.00320855
0.00324324
0.00320856
0.00320855
0.00324589
0.00320573
0.00324323
0.00320855
0.00320856
0.00320572
0.00319974
0.00316036
0.00319712
0.00319711
0.00316312
0.00316313
0.00319973
0.00316035
0.00319712
0.00319712
0.00316312
0.00316313
0.00319712
0.00316313
0.00316313
0.00319974
0.00316035
0.00319712
0.00316313
0.00316313
0.00316035
0.00315449
0.00311573
0.0031519
0.00315189
0.00311845
0.00311846
0.00315448
0.00311573
0.00315189
0.00315189
0.00311845
0.00311846
0.00315189
0.00311846
0.00311846
0.00315448
0.00311573
0.00315189
0.00311846
0.00311846
0.00311573
0.00310995
0.00307172
0.00310738
0.00310738
0.00307441
0.00307441
0.00310995
0.00307172
0.00310738
0.00310738
0.00307441
0.00307441
0.00310738
0.00307441
0.00307441
0.00310995
0.00307172
0.00310738
0.00307441
0.00307441
0.00307172
0.00306602
0.00302824
0.00306347
0.00306347
0.00303089
0.00303089
0.00306602
0.00302823
0.00306347
0.00306347
0.00303089
0.00303089
0.00306347
0.00303089
0.00303089
0.00306602
0.00302823
0.00306347
0.00303089
0.00303089
0.00302823
0.0030226
0.00298522
0.00302009
0.00302009
0.00298784
0.00298784
0.00302259
0.00298523
0.00302009
0.00302009
0.00298784
0.00298784
0.00302008
0.00298784
0.00298785
0.00302259
0.00298523
0.00302008
0.00298784
0.00298785
0.00298522
0.00297966
0.00294267
0.00297716
0.00297716
0.00294525
0.00294525
0.00297967
0.00294267
0.00297716
0.00297716
0.00294525
0.00294526
0.00297716
0.00294526
0.00294525
0.00297967
0.00294267
0.00297716
0.00294526
0.00294525
0.00294267
0.00293716
0.00290052
0.00293466
0.00293464
0.00290306
0.00290305
0.00293716
0.00290053
0.00293466
0.00293465
0.00290305
0.00290305
0.00293465
0.00290305
0.00290305
0.00293716
0.00290052
0.00293465
0.00290305
0.00290304
0.00290053
0.00289506
0.00285875
0.00289258
0.00289258
0.00286125
0.00286126
0.00289507
0.00285875
0.00289257
0.00289258
0.00286125
0.00286126
0.00289258
0.00286126
0.00286126
0.00289506
0.00285875
0.00289258
0.00286126
0.00286126
0.00285876
0.00285334
0.00281736
0.00285086
0.00285085
0.00281982
0.00281981
0.00285334
0.00281735
0.00285086
0.00285085
0.00281982
0.00281981
0.00285086
0.00281981
0.00281982
0.00285334
0.00281736
0.00285086
0.00281981
0.00281982
0.00281735
0.00281199
0.00277629
0.00280952
0.00280952
0.00277873
0.00277872
0.00281199
0.00277629
0.00280952
0.00280952
0.00277873
0.00277873
0.00280951
0.00277872
0.00277872
0.00281199
0.00277629
0.00280951
0.00277873
0.00277872
0.00277629
0.00277095
0.00273554
0.00276849
0.0027685
0.00273793
0.00273793
0.00277096
0.00273554
0.00276849
0.0027685
0.00273793
0.00273794
0.0027685
0.00273794
0.00273794
0.00277096
0.00273554
0.0027685
0.00273794
0.00273794
0.00273554
0.00273025
0.00269509
0.00272779
0.00272779
0.00269745
0.00269745
0.00273025
0.00269508
0.00272779
0.00272778
0.00269745
0.00269745
0.0027278
0.00269745
0.00269745
0.00273024
0.00269508
0.00272779
0.00269745
0.00269745
0.00269508
0.00268983
0.00265489
0.00268737
0.00268737
0.00265723
0.00265724
0.00268982
0.00265489
0.00268737
0.00268737
0.00265724
0.00265724
0.00268737
0.00265724
0.00265724
0.00268982
0.0026549
0.00268737
0.00265723
0.00265724
0.00265489
0.00264967
0.00261497
0.00264722
0.00264722
0.00261728
0.00261728
0.00264967
0.00261496
0.00264722
0.00264722
0.00261728
0.00261727
0.00264722
0.00261728
0.00261728
0.00264967
0.00261496
0.00264722
0.00261728
0.00261728
0.00261496
0.00260977
0.00257527
0.00260733
0.00260732
0.00257756
0.00257756
0.00260977
0.00257527
0.00260733
0.00260732
0.00257756
0.00257756
0.00260732
0.00257756
0.00257756
0.00260977
0.00257527
0.00260732
0.00257756
0.00257756
0.00257527
0.0025701
0.00253581
0.00256767
0.00256767
0.00253808
0.00253808
0.0025701
0.00253581
0.00256767
0.00256767
0.00253808
0.00253807
0.00256767
0.00253808
0.00253808
0.0025701
0.00253581
0.00256767
0.00253807
0.00253808
0.00253581
0.00253066
0.00249656
0.00252825
0.00252824
0.00249882
0.00249882
0.00253066
0.00249656
0.00252824
0.00252824
0.00249882
0.00249882
0.00252825
0.00249882
0.00249882
0.00253066
0.00249656
0.00252824
0.00249882
0.00249882
0.00249656
0.00249144
0.00245753
0.00248904
0.00248903
0.00245977
0.00245977
0.00249144
0.00245753
0.00248904
0.00248903
0.00245977
0.00245977
0.00248904
0.00245977
0.00245977
0.00249144
0.00245753
0.00248904
0.00245977
0.00245977
0.00245753
0.00245243
0.0024187
0.00245004
0.00245004
0.00242093
0.00242093
0.00245243
0.00241869
0.00245004
0.00245004
0.00242093
0.00242093
0.00245004
0.00242093
0.00242093
0.00245242
0.00241869
0.00245004
0.00242093
0.00242093
0.0024187
0.00241362
0.00238006
0.00241125
0.00241125
0.00238228
0.00238228
0.00241361
0.00238006
0.00241125
0.00241125
0.00238228
0.00238228
0.00241125
0.00238228
0.00238228
0.00241361
0.00238006
0.00241125
0.00238228
0.00238228
0.00238006
0.002375
0.00234161
0.00237265
0.00237265
0.00234382
0.00234382
0.00237499
0.0023416
0.00237265
0.00237265
0.00234382
0.00234382
0.00237265
0.00234382
0.00234383
0.002375
0.0023416
0.00237265
0.00234382
0.00234383
0.00234161
0.00233656
0.00230333
0.00233424
0.00233424
0.00230555
0.00230555
0.00233656
0.00230334
0.00233424
0.00233424
0.00230555
0.00230555
0.00233424
0.00230555
0.00230555
0.00233656
0.00230333
0.00233424
0.00230555
0.00230555
0.00230334
0.00229831
0.00226524
0.002296
0.00229601
0.00226744
0.00226745
0.00229831
0.00226524
0.002296
0.00229601
0.00226744
0.00226745
0.00229601
0.00226745
0.00226744
0.00229831
0.00226524
0.00229601
0.00226745
0.00226744
0.00226524
0.00226023
0.00222731
0.00225794
0.00225795
0.00222952
0.00222951
0.00226023
0.00222731
0.00225794
0.00225795
0.00222952
0.00222952
0.00225795
0.00222951
0.00222951
0.00226023
0.00222731
0.00225795
0.00222952
0.00222951
0.00222731
0.00222232
0.00218955
0.00222006
0.00222006
0.00219175
0.00219175
0.00222232
0.00218955
0.00222006
0.00222006
0.00219175
0.00219175
0.00222006
0.00219175
0.00219175
0.00222232
0.00218955
0.00222006
0.00219175
0.00219175
0.00218955
0.00218457
0.00215194
0.00218233
0.00218233
0.00215413
0.00215413
0.00218457
0.00215194
0.00218233
0.00218233
0.00215413
0.00215413
0.00218233
0.00215413
0.00215413
0.00218457
0.00215194
0.00218233
0.00215413
0.00215413
0.00215194
0.00214697
0.00211448
0.00214475
0.00214475
0.00211667
0.00211667
0.00214698
0.00211448
0.00214475
0.00214475
0.00211667
0.00211667
0.00214476
0.00211667
0.00211667
0.00214697
0.00211448
0.00214476
0.00211667
0.00211667
0.00211448
0.00210953
0.00207717
0.00210733
0.00210733
0.00207936
0.00207936
0.00210953
0.00207717
0.00210733
0.00210733
0.00207936
0.00207936
0.00210733
0.00207936
0.00207936
0.00210953
0.00207717
0.00210733
0.00207936
0.00207936
0.00207717
0.00207224
0.00204
0.00207005
0.00207005
0.00204218
0.00204218
0.00207223
0.00204
0.00207005
0.00207005
0.00204218
0.00204218
0.00207005
0.00204218
0.00204218
0.00207223
0.00204
0.00207005
0.00204218
0.00204218
0.00204
0.00203508
0.00200297
0.00203291
0.00203291
0.00200514
0.00200514
0.00203508
0.00200296
0.00203291
0.00203291
0.00200514
0.00200514
0.0020329
0.00200514
0.00200514
0.00203508
0.00200296
0.0020329
0.00200514
0.00200514
0.00200297
0.00199805
0.00196606
0.0019959
0.00199589
0.00196823
0.00196823
0.00199805
0.00196607
0.0019959
0.0019959
0.00196823
0.00196823
0.0019959
0.00196823
0.00196823
0.00199805
0.00196606
0.0019959
0.00196823
0.00196823
0.00196606
0.00196116
0.00192928
0.00195902
0.00195902
0.00193144
0.00193144
0.00196117
0.00192928
0.00195902
0.00195902
0.00193144
0.00193144
0.00195902
0.00193144
0.00193144
0.00196116
0.00192928
0.00195902
0.00193144
0.00193144
0.00192928
0.0019244
0.00189262
0.00192227
0.00192226
0.00189477
0.00189477
0.00192439
0.00189262
0.00192227
0.00192227
0.00189477
0.00189477
0.00192226
0.00189477
0.00189477
0.0019244
0.00189262
0.00192226
0.00189477
0.00189477
0.00189262
0.00188774
0.00185608
0.00188562
0.00188562
0.00185822
0.00185823
0.00188775
0.00185608
0.00188562
0.00188562
0.00185822
0.00185823
0.00188562
0.00185823
0.00185822
0.00188774
0.00185608
0.00188562
0.00185823
0.00185822
0.00185608
0.00185122
0.00181964
0.0018491
0.0018491
0.00182177
0.00182177
0.00185122
0.00181964
0.0018491
0.00184911
0.00182177
0.00182177
0.0018491
0.00182177
0.00182177
0.00185122
0.00181964
0.0018491
0.00182177
0.00182177
0.00181964
0.00181478
0.0017833
0.00181267
0.00181267
0.00178543
0.00178543
0.00181478
0.00178331
0.00181267
0.00181267
0.00178543
0.00178543
0.00181268
0.00178543
0.00178543
0.00181478
0.00178331
0.00181268
0.00178543
0.00178543
0.0017833
0.00177845
0.00174707
0.00177636
0.00177636
0.00174918
0.00174918
0.00177846
0.00174706
0.00177636
0.00177636
0.00174918
0.00174918
0.00177636
0.00174918
0.00174918
0.00177846
0.00174706
0.00177636
0.00174918
0.00174918
0.00174706
0.00174222
0.00171091
0.00174014
0.00174013
0.00171303
0.00171303
0.00174222
0.00171092
0.00174014
0.00174013
0.00171303
0.00171303
0.00174014
0.00171303
0.00171303
0.00174222
0.00171091
0.00174014
0.00171303
0.00171303
0.00171091
0.00170608
0.00167485
0.001704
0.001704
0.00167695
0.00167695
0.00170608
0.00167485
0.001704
0.001704
0.00167695
0.00167695
0.001704
0.00167695
0.00167695
0.00170608
0.00167485
0.001704
0.00167695
0.00167695
0.00167485
0.00167002
0.00163886
0.00166795
0.00166795
0.00164096
0.00164096
0.00167002
0.00163886
0.00166795
0.00166795
0.00164096
0.00164096
0.00166795
0.00164096
0.00164096
0.00167002
0.00163886
0.00166795
0.00164096
0.00164096
0.00163886
0.00163404
0.00160294
0.00163197
0.00163197
0.00160503
0.00160503
0.00163404
0.00160294
0.00163197
0.00163197
0.00160503
0.00160503
0.00163197
0.00160503
0.00160503
0.00163404
0.00160294
0.00163197
0.00160503
0.00160503
0.00160294
0.00159812
0.00156709
0.00159606
0.00159606
0.00156918
0.00156918
0.00159812
0.00156709
0.00159606
0.00159606
0.00156918
0.00156918
0.00159606
0.00156918
0.00156918
0.00159812
0.00156709
0.00159606
0.00156918
0.00156918
0.00156709
0.00156228
0.0015313
0.00156022
0.00156022
0.00153338
0.00153338
0.00156228
0.0015313
0.00156022
0.00156022
0.00153338
0.00153338
0.00156022
0.00153338
0.00153338
0.00156228
0.0015313
0.00156022
0.00153338
0.00153338
0.0015313
0.00152649
0.00149557
0.00152445
0.00152445
0.00149765
0.00149765
0.00152649
0.00149557
0.00152444
0.00152444
0.00149765
0.00149765
0.00152445
0.00149765
0.00149765
0.00152649
0.00149557
0.00152445
0.00149765
0.00149765
0.00149557
0.00149076
0.00145989
0.00148872
0.00148872
0.00146197
0.00146197
0.00149076
0.00145989
0.00148872
0.00148872
0.00146197
0.00146197
0.00148872
0.00146197
0.00146197
0.00149076
0.00145989
0.00148872
0.00146197
0.00146197
0.00145989
0.00145509
0.00142426
0.00145305
0.00145305
0.00142633
0.00142633
0.00145509
0.00142426
0.00145305
0.00145305
0.00142633
0.00142633
0.00145305
0.00142633
0.00142633
0.00145509
0.00142426
0.00145305
0.00142633
0.00142633
0.00142426
0.00141946
0.00138867
0.00141743
0.00141743
0.00139074
0.00139074
0.00141946
0.00138867
0.00141743
0.00141743
0.00139074
0.00139074
0.00141743
0.00139074
0.00139074
0.00141946
0.00138867
0.00141743
0.00139074
0.00139074
0.00138867
0.00138388
0.00135313
0.00138185
0.00138185
0.00135519
0.00135519
0.00138388
0.00135313
0.00138185
0.00138185
0.00135519
0.00135519
0.00138185
0.00135519
0.00135519
0.00138388
0.00135313
0.00138185
0.00135519
0.00135519
0.00135313
0.00134833
0.00131761
0.00134631
0.00134631
0.00131968
0.00131968
0.00134833
0.00131761
0.00134631
0.00134631
0.00131968
0.00131968
0.00134631
0.00131968
0.00131968
0.00134833
0.00131761
0.00134631
0.00131968
0.00131968
0.00131761
0.00131282
0.00128213
0.0013108
0.0013108
0.00128419
0.00128419
0.00131282
0.00128213
0.0013108
0.0013108
0.00128419
0.00128419
0.0013108
0.00128419
0.00128419
0.00131282
0.00128213
0.0013108
0.00128419
0.00128419
0.00128213
0.00127734
0.00124668
0.00127533
0.00127533
0.00124874
0.00124874
0.00127734
0.00124668
0.00127533
0.00127533
0.00124874
0.00124874
0.00127533
0.00124874
0.00124874
0.00127734
0.00124668
0.00127533
0.00124874
0.00124874
0.00124668
0.00124189
0.00121125
0.00123988
0.00123988
0.00121331
0.00121331
0.00124189
0.00121125
0.00123988
0.00123988
0.00121331
0.00121331
0.00123988
0.00121331
0.00121331
0.00124189
0.00121125
0.00123988
0.00121331
0.00121331
0.00121125
0.00120646
0.00117584
0.00120445
0.00120445
0.00117789
0.00117789
0.00120646
0.00117584
0.00120445
0.00120445
0.00117789
0.00117789
0.00120445
0.00117789
0.00117789
0.00120646
0.00117584
0.00120445
0.00117789
0.00117789
0.00117584
0.00117105
0.00114044
0.00116904
0.00116904
0.0011425
0.0011425
0.00117105
0.00114044
0.00116904
0.00116904
0.0011425
0.0011425
0.00116904
0.0011425
0.0011425
0.00117105
0.00114044
0.00116904
0.0011425
0.0011425
0.00114044
0.00113565
0.00110506
0.00113365
0.00113365
0.00110711
0.00110711
0.00113566
0.00110506
0.00113365
0.00113365
0.00110711
0.00110711
0.00113365
0.00110711
0.00110711
0.00113565
0.00110506
0.00113365
0.00110711
0.00110711
0.00110506
0.00110027
0.00106968
0.00109827
0.00109826
0.00107173
0.00107173
0.00110027
0.00106968
0.00109827
0.00109827
0.00107173
0.00107173
0.00109827
0.00107173
0.00107173
0.00110027
0.00106968
0.00109827
0.00107173
0.00107173
0.00106968
0.00106489
0.00103432
0.00106289
0.00106289
0.00103636
0.00103636
0.00106489
0.00103431
0.00106289
0.00106289
0.00103636
0.00103636
0.00106289
0.00103636
0.00103636
0.00106489
0.00103432
0.00106289
0.00103636
0.00103636
0.00103431
0.00102952
0.00099894
0.00102752
0.00102752
0.00100099
0.00100099
0.00102952
0.000998942
0.00102752
0.00102752
0.00100099
0.00100099
0.00102752
0.00100099
0.00100099
0.00102952
0.000998941
0.00102752
0.00100099
0.00100099
0.000998941
0.000994146
0.000963572
0.000992141
0.000992143
0.000965618
0.000965618
0.000994149
0.000963571
0.00099214
0.000992141
0.000965618
0.000965617
0.000992144
0.000965617
0.000965617
0.000994147
0.000963571
0.000992142
0.000965616
0.000965617
0.00096357
0.000958776
0.000928193
0.000956775
0.000956773
0.000930233
0.000930232
0.000958774
0.000928193
0.000956775
0.000956774
0.000930233
0.000930234
0.000956772
0.000930232
0.000930233
0.000958775
0.000928194
0.000956773
0.000930235
0.000930234
0.000928193
0.000923396
0.000892805
0.000921389
0.000921389
0.000894854
0.000894855
0.000923397
0.000892806
0.000921389
0.00092139
0.000894853
0.000894853
0.00092139
0.000894855
0.000894855
0.000923397
0.000892804
0.00092139
0.000894853
0.000894854
0.000892805
0.000888001
0.000857409
0.000886
0.000886
0.000859442
0.000859442
0.000888001
0.000857408
0.000886
0.000885999
0.000859443
0.000859443
0.000886
0.000859442
0.000859442
0.000888
0.000857409
0.000885999
0.000859443
0.000859442
0.000857408
0.000852609
0.000821993
0.000850599
0.000850599
0.000824049
0.000824049
0.000852608
0.000821994
0.000850599
0.0008506
0.000824048
0.000824048
0.000850599
0.000824048
0.000824049
0.000852609
0.000821993
0.000850599
0.000824048
0.000824049
0.000821993
0.000817176
0.000786558
0.000815175
0.000815175
0.000788589
0.000788589
0.000817177
0.000786559
0.000815175
0.000815174
0.000788589
0.00078859
0.000815175
0.00078859
0.00078859
0.000817176
0.000786559
0.000815175
0.00078859
0.000788589
0.000786558
0.000781755
0.000751127
0.000779741
0.000779741
0.000753184
0.000753183
0.000781755
0.000751127
0.000779741
0.000779741
0.000753183
0.000753182
0.000779742
0.000753182
0.000753183
0.000781755
0.000751126
0.000779742
0.000753182
0.000753183
0.000751126
0.000746297
0.000715604
0.000744295
0.000744294
0.000717644
0.000717645
0.000746296
0.000715604
0.000744294
0.000744293
0.000717645
0.000717646
0.000744293
0.000717645
0.000717645
0.000746296
0.000715604
0.000744293
0.000717646
0.000717645
0.000715604
0.000710794
0.000680212
0.000708788
0.000708788
0.000682234
0.000682234
0.000710794
0.000680212
0.000708789
0.00070879
0.000682234
0.000682234
0.000708789
0.000682234
0.000682234
0.000710795
0.000680212
0.000708789
0.000682234
0.000682234
0.000680212
0.000675381
0.000644556
0.000673352
0.000673352
0.000646611
0.000646611
0.000675381
0.000644555
0.000673351
0.00067335
0.00064661
0.000646609
0.000673351
0.00064661
0.000646609
0.00067538
0.000644554
0.000673351
0.000646609
0.000646609
0.000644554
0.000639739
0.000609181
0.000637743
0.000637743
0.000611209
0.000611209
0.000639738
0.000609182
0.000637743
0.000637742
0.000611209
0.000611211
0.000637742
0.00061121
0.00061121
0.000639738
0.000609184
0.000637742
0.000611212
0.000611211
0.000609182
0.000604344
0.00057334
0.000602311
0.00060231
0.000575396
0.000575396
0.000604345
0.000573339
0.000602311
0.000602314
0.000575396
0.000575395
0.000602313
0.000575395
0.000575396
0.000604348
0.000573338
0.000602314
0.000575394
0.000575395
0.000573339
0.000568492
0.000538296
0.000566484
0.000566485
0.000540277
0.000540278
0.000568491
0.000538298
0.000566483
0.000566481
0.000540276
0.000540276
0.000566482
0.000540278
0.000540276
0.000568489
0.000538294
0.000566482
0.000540275
0.000540276
0.000538294
0.000533566
0.000502121
0.000531564
0.000531565
0.000504289
0.000504288
0.000533568
0.00050212
0.000531565
0.000531564
0.00050429
0.000504293
0.000531563
0.000504289
0.000504292
0.000533565
0.000502125
0.000531564
0.000504294
0.000504293
0.000502124
0.000497058
0.000465968
0.000495001
0.000495001
0.000467775
0.000467779
0.000497057
0.000465974
0.000495002
0.000495003
0.000467772
0.00046777
0.000495003
0.00046778
0.000467775
0.000497061
0.000465964
0.000495004
0.000467769
0.000467772
0.000465967
0.000461456
0.000433519
0.000459471
0.000459475
0.000435223
0.000435231
0.000461463
0.000433528
0.000459467
0.000459465
0.000435216
0.000435218
0.000459472
0.00043523
0.000435229
0.000461453
0.000433523
0.000459469
0.000435227
0.000435232
0.000433529
0.000429023
0.000396614
0.000427031
0.000427037
0.00039916
0.000399163
0.00042903
0.000396618
0.000427027
0.000427032
0.000399159
0.000399161
0.000427038
0.000399163
0.000399163
0.000429029
0.000396615
0.000427041
0.000399162
0.000399162
0.000396617
0.000391315
0.000356815
0.0003894
0.000389401
0.000359161
0.000359161
0.000391318
0.000356814
0.0003894
0.0003894
0.000359161
0.000359158
0.000389401
0.000359162
0.000359158
0.000391316
0.000356811
0.000389401
0.000359156
0.000359157
0.000356809
0.000351698
0.000321888
0.000349431
0.000349431
0.000323248
0.000323244
0.000351696
0.000321883
0.000349432
0.000349426
0.000323247
0.000323246
0.000349426
0.000323242
0.000323241
0.000351693
0.000321884
0.000349427
0.000323243
0.00032324
0.00032188
0.000317294
0.000289467
0.000314913
0.000314909
0.000290905
0.000290894
0.00031729
0.000289447
0.000314911
0.000314909
0.000290901
0.000290896
0.000314905
0.000290888
0.000290888
0.000317291
0.000289444
0.000314904
0.000290885
0.000290879
0.000289435
0.000285303
0.00025702
0.000283274
0.000283262
0.000259564
0.00025955
0.000285231
0.000257003
0.000283271
0.000283257
0.000259561
0.000259538
0.000283241
0.000259535
0.000259514
0.000285228
0.000256991
0.000283235
0.000259522
0.000259511
0.000256975
0.000252666
0.000223547
0.000251474
0.000251464
0.000226043
0.000226037
0.000252652
0.000223542
0.000251473
0.000251458
0.000226042
0.000226033
0.000251439
0.000226034
0.000226029
0.000252642
0.000223538
0.000251437
0.000226033
0.000226029
0.000223536
0.000218527
0.00018426
0.00021683
0.000216828
0.000186545
0.000186547
0.000218523
0.000184262
0.000216831
0.000216823
0.000186547
0.000186541
0.000216823
0.000186553
0.000186548
0.000218519
0.000184258
0.000216824
0.000186547
0.000186549
0.000184261
0.000178724
0.000143884
0.000176185
0.000176186
0.000145669
0.00014567
0.000178725
0.000143887
0.000176184
0.000176182
0.000145666
0.00014567
0.000176187
0.000145669
0.000145671
0.000178723
0.000143885
0.000176186
0.000145668
0.000145669
0.000143886
0.000138401
0.000104797
0.000135638
0.000135637
0.000106644
0.000106642
0.000138402
0.000104795
0.000135635
0.000135636
0.000106643
0.000106644
0.00013564
0.000106642
0.000106644
0.0001384
0.000104796
0.000135636
0.000106643
0.000106643
0.000104796
9.98141e-05
6.95089e-05
9.74708e-05
9.74684e-05
7.14117e-05
7.14096e-05
9.98125e-05
6.9508e-05
9.74685e-05
9.7471e-05
7.14095e-05
7.14097e-05
9.74712e-05
7.14106e-05
7.141e-05
9.98153e-05
6.95092e-05
9.74709e-05
7.14109e-05
7.14091e-05
6.95077e-05
6.50615e-05
3.65598e-05
6.31466e-05
6.31454e-05
3.86982e-05
3.86989e-05
6.50607e-05
3.6561e-05
6.31455e-05
6.31447e-05
3.86996e-05
3.86965e-05
6.31454e-05
3.8699e-05
3.86964e-05
6.50615e-05
3.65574e-05
6.31436e-05
3.86975e-05
3.8697e-05
3.65574e-05
3.23249e-05
5.89815e-06
3.06846e-05
3.06841e-05
7.60023e-06
7.60019e-06
3.23262e-05
5.89946e-06
3.0687e-05
3.06802e-05
7.59956e-06
7.5943e-06
3.06816e-05
7.60048e-06
7.59595e-06
3.23217e-05
5.89419e-06
3.06838e-05
7.59548e-06
7.5961e-06
5.89636e-06
4.49371e-06
5.93814e-06
5.93774e-06
4.49433e-06
5.9373e-06
5.93292e-06
9.75067e-06
9.74742e-06
9.74797e-06
5.93361e-06
4.48963e-06
5.93312e-06
0.00362019
0.00363043
0.00362492
0.00362493
0.00364753
0.00363444
0.00366289
0.00362834
0.00364753
0.00363444
0.00362834
0.00366289
0.00363896
0.00366661
0.00366661
0.00357461
0.00359429
0.00360342
0.00356674
0.00356798
0.00357028
0.00357459
0.00359431
0.0036034
0.00356673
0.003602
0.003602
0.003602
0.00355555
0.00355555
0.00355555
0.00355555
0.00357208
0.00359849
0.00360186
0.00357961
0.00360131
0.00357097
0.00358054
0.00356805
0.00357026
0.00357208
0.00360186
0.0035985
0.00357961
0.00360131
0.00358054
0.00357096
0.00360434
0.00360435
0.0035749
0.00357068
0.00357068
0.0035294
0.00354844
0.00354983
0.00352793
0.00354734
0.00352748
0.0035294
0.00354845
0.00354983
0.00352792
0.00354415
0.00354415
0.00354415
0.00350584
0.00350584
0.00350584
0.00350584
0.00352801
0.00354856
0.00354403
0.00353194
0.00354737
0.00352854
0.00353176
0.00354735
0.00352748
0.00352801
0.00354403
0.00354856
0.00353194
0.00354737
0.00353176
0.00352854
0.00354955
0.00354955
0.00352828
0.00352885
0.00352885
0.00347699
0.00349581
0.00349689
0.00347597
0.00349545
0.00347569
0.00347699
0.00349581
0.00349689
0.00347597
0.00349256
0.00349256
0.00349256
0.0034533
0.0034533
0.0034533
0.0034533
0.00347609
0.00349622
0.00349245
0.00347943
0.00349565
0.00347645
0.00347933
0.00349545
0.00347569
0.00347609
0.00349245
0.00349622
0.00347943
0.00349565
0.00347933
0.00347645
0.00349645
0.00349645
0.00347607
0.00347652
0.00347652
0.0034245
0.00344315
0.00344401
0.00342373
0.00344294
0.00342355
0.0034245
0.00344315
0.00344401
0.00342373
0.00344031
0.00344031
0.00344031
0.00340166
0.00340166
0.00340166
0.00340166
0.00342399
0.00344356
0.00344026
0.00342736
0.00344327
0.00342418
0.00342732
0.00344294
0.00342355
0.00342399
0.00344026
0.00344356
0.00342736
0.00344327
0.00342732
0.00342418
0.00344359
0.00344359
0.00342404
0.00342412
0.00342412
0.0033733
0.00339166
0.00339229
0.00337275
0.00339151
0.00337262
0.0033733
0.00339166
0.00339229
0.00337275
0.00338893
0.00338893
0.00338893
0.00335132
0.00335132
0.00335132
0.00335132
0.00337303
0.00339201
0.00338891
0.00337631
0.00339184
0.00337314
0.00337628
0.00339151
0.00337262
0.00337303
0.00338891
0.00339201
0.00337631
0.00339184
0.00337628
0.00337314
0.003392
0.003392
0.00337311
0.00337305
0.00337305
0.00332367
0.00334161
0.00334207
0.00332327
0.0033415
0.00332316
0.00332367
0.00334161
0.00334207
0.00332327
0.00333897
0.00333897
0.00333897
0.00330245