/*--------------------------------*- C++ -*----------------------------------*\
| =========                 |                                                 |
| \\      /  F ield         | OpenFOAM: The Open Source CFD Toolbox           |
|  \\    /   O peration     | Version:  2312                                  |
|   \\  /    A nd           | Website:  www.openfoam.com                      |
|    \\/     M anipulation  |                                                 |
\*---------------------------------------------------------------------------*/
FoamFile
{
    version     2.0;
    format      ascii;
    arch        "LSB;label=32;scalar=64";
    class       volScalarField;
    location    "800";
    object      epsilon;
}
// * * * * * * * * * * * * * * * * * * * * * * * * * * * * * * * * * * * * * //

dimensions      [0 2 -3 0 0 0 0];

internalField   nonuniform List<scalar> 
43008
(
1.40296e-07
2.15328e-07
1.36484e-07
2.21702e-07
2.21698e-07
3.34563e-07
3.14467e-07
3.29778e-07
2.15376e-07
2.15413e-07
2.19961e-07
2.2e-07
3.29227e-07
2.15342e-07
2.15402e-07
2.19924e-07
2.19991e-07
2.19917e-07
2.19963e-07
3.14501e-07
3.29815e-07
2.15357e-07
2.19915e-07
2.19942e-07
3.29392e-07
3.34122e-07
2.21753e-07
2.21791e-07
3.34452e-07
2.21715e-07
2.21779e-07
2.21747e-07
3.34127e-07
2.21728e-07
3.46751e-06
8.88387e-06
3.42494e-06
8.88943e-06
1.85246e-05
3.4682e-06
8.885e-06
3.42439e-06
8.89053e-06
1.40301e-07
1.40298e-07
1.403e-07
1.37361e-07
1.37366e-07
1.37364e-07
1.37365e-07
9.87871e-07
2.16733e-07
2.66114e-06
1.59069e-07
1.85351e-05
1.85255e-05
9.87999e-07
1.59519e-07
2.63314e-06
2.16728e-07
9.61452e-07
1.59063e-07
2.66123e-06
3.19372e-07
5.0595e-06
5.06131e-06
3.586e-06
8.8973e-06
3.54932e-06
8.90245e-06
1.85007e-05
1.8492e-05
3.5861e-06
8.89852e-06
3.5487e-06
8.90367e-06
1.36489e-07
1.36487e-07
1.36488e-07
1.07248e-06
2.72056e-06
1.58255e-07
2.23632e-07
1.04488e-06
2.74551e-06
1.58115e-07
1.85015e-05
1.84927e-05
1.07219e-06
1.58258e-07
2.72078e-06
2.23627e-07
1.04507e-06
1.58114e-07
2.74768e-06
5.09482e-06
5.09657e-06
3.39543e-07
5.10903e-06
5.1088e-06
1.85319e-05
1.8522e-05
1.85346e-05
1.85249e-05
5.04209e-06
5.04547e-06
3.19752e-07
5.06085e-06
5.06147e-06
1.85053e-05
1.85144e-05
1.85081e-05
1.85173e-05
3.238e-07
5.08596e-06
5.0866e-06
5.06898e-06
5.07233e-06
3.46771e-06
8.88396e-06
3.42481e-06
8.88954e-06
9.88732e-07
2.63323e-06
1.59524e-07
2.16772e-07
9.60784e-07
2.66102e-06
1.59071e-07
9.87899e-07
2.63374e-06
1.59532e-07
2.16813e-07
9.61426e-07
2.66167e-06
1.59076e-07
3.4898e-06
8.89607e-06
8.89072e-06
3.52891e-06
3.48973e-06
8.89632e-06
8.89089e-06
3.52886e-06
1.00221e-06
2.18303e-07
2.70433e-06
1.58436e-07
2.67807e-06
1.58733e-07
1.0305e-06
1.00287e-06
2.18342e-07
2.70491e-06
1.5844e-07
2.67865e-06
1.5874e-07
1.02984e-06
3.19579e-07
5.06101e-06
5.05952e-06
1.8523e-05
1.85081e-05
1.85171e-05
3.24169e-07
5.08631e-06
5.08462e-06
5.072e-06
5.07056e-06
1.8506e-05
1.85153e-05
9.88076e-07
2.63364e-06
1.59532e-07
2.16739e-07
9.61383e-07
2.66161e-06
1.59075e-07
3.46771e-06
8.88459e-06
3.42491e-06
8.89013e-06
9.88163e-07
1.59534e-07
2.63366e-06
2.16804e-07
9.61402e-07
1.59078e-07
2.66188e-06
3.48934e-06
8.89727e-06
8.89188e-06
3.52988e-06
1.0028e-06
2.18268e-07
2.70487e-06
1.5844e-07
2.67857e-06
1.58739e-07
1.03005e-06
3.48984e-06
8.89687e-06
8.89151e-06
3.5289e-06
1.00283e-06
2.1833e-07
1.58441e-07
2.70516e-06
1.58743e-07
2.67867e-06
1.02993e-06
3.46815e-06
8.88981e-06
9.87927e-07
2.16774e-07
1.59069e-07
2.66124e-06
3.46747e-06
8.88974e-06
1.00285e-06
2.18256e-07
2.70444e-06
1.58431e-07
2.67787e-06
1.58728e-07
1.0298e-06
3.48924e-06
8.89643e-06
8.89109e-06
3.52959e-06
1.00281e-06
2.18301e-07
1.58434e-07
2.70603e-06
1.58734e-07
2.67813e-06
1.02968e-06
3.48984e-06
8.89642e-06
8.89102e-06
3.52886e-06
5.0452e-06
5.04366e-06
3.19777e-07
5.06117e-06
5.05963e-06
1.85328e-05
1.85232e-05
1.85088e-05
1.8518e-05
3.23978e-07
5.08635e-06
5.08484e-06
5.07205e-06
5.07057e-06
1.85065e-05
1.85156e-05
9.87911e-07
1.59526e-07
2.63382e-06
2.16755e-07
9.61494e-07
1.5907e-07
2.66179e-06
3.46769e-06
8.88456e-06
3.42506e-06
8.89008e-06
3.46775e-06
8.8848e-06
3.4252e-06
8.89038e-06
1.00298e-06
2.18253e-07
1.58428e-07
2.70446e-06
1.58729e-07
2.67814e-06
1.02972e-06
1.00301e-06
2.1828e-07
1.58434e-07
2.70508e-06
1.58734e-07
2.67872e-06
1.02985e-06
3.49007e-06
8.8968e-06
8.89146e-06
3.52899e-06
3.49006e-06
8.89711e-06
8.89171e-06
3.52899e-06
1.85238e-05
1.85258e-05
3.24055e-07
5.08465e-06
5.08642e-06
5.0703e-06
5.07209e-06
1.85071e-05
1.85163e-05
1.85091e-05
1.85182e-05
1.84979e-05
1.84893e-05
1.85007e-05
1.8492e-05
5.09341e-06
5.09662e-06
3.40597e-07
5.10878e-06
5.11087e-06
3.58475e-06
8.89754e-06
3.54939e-06
8.90269e-06
1.07318e-06
2.72039e-06
1.58264e-07
2.2368e-07
1.0444e-06
2.74749e-06
1.5812e-07
1.07238e-06
2.72093e-06
1.58269e-07
2.23721e-07
1.04493e-06
2.74818e-06
1.58124e-07
5.09629e-06
5.095e-06
3.40817e-07
5.11058e-06
5.10689e-06
1.84986e-05
1.84899e-05
1.07242e-06
2.72096e-06
1.58269e-07
2.23643e-07
1.04491e-06
2.74812e-06
1.58125e-07
3.58492e-06
8.8981e-06
3.54937e-06
8.90328e-06
1.07241e-06
1.58273e-07
2.72123e-06
2.23713e-07
1.04493e-06
1.58126e-07
2.74615e-06
3.58552e-06
8.89771e-06
3.54874e-06
8.90283e-06
1.07271e-06
1.58261e-07
2.71968e-06
2.23677e-07
1.04498e-06
1.58116e-07
2.74778e-06
3.58591e-06
8.89764e-06
3.54939e-06
8.90284e-06
5.09637e-06
5.09491e-06
3.40487e-07
5.10867e-06
5.10718e-06
1.84991e-05
1.84903e-05
1.07228e-06
1.58264e-07
2.72127e-06
2.23657e-07
1.04513e-06
1.5812e-07
2.74618e-06
3.58582e-06
8.89804e-06
3.54964e-06
8.9032e-06
3.58579e-06
8.89833e-06
3.54964e-06
8.9035e-06
1.84997e-05
1.8491e-05
1.85017e-05
1.84929e-05
1.21038e-05
3.45814e-06
1.06414e-05
4.33885e-06
1.06397e-05
4.33184e-06
1.21067e-05
2.25124e-05
7.18556e-06
8.88604e-06
2.25105e-05
7.18585e-06
1.21036e-05
3.4349e-06
1.06381e-05
4.30676e-06
1.21008e-05
1.06396e-05
4.31433e-06
2.25012e-05
7.19139e-06
8.88732e-06
7.19173e-06
2.2503e-05
1.85332e-05
1.85256e-05
1.21038e-05
3.45763e-06
4.33895e-06
1.06417e-05
4.33166e-06
1.06399e-05
1.21067e-05
2.25118e-05
7.18508e-06
8.88712e-06
2.251e-05
7.18641e-06
1.21036e-05
3.43553e-06
4.30662e-06
1.06384e-05
1.21009e-05
4.31441e-06
1.06399e-05
2.25007e-05
7.1926e-06
8.88842e-06
7.19084e-06
2.25024e-05
1.85341e-05
1.85265e-05
9.71728e-06
2.1993e-05
2.19924e-05
2.19926e-05
2.19921e-05
9.71693e-06
3.80584e-06
5.04586e-06
1.74774e-06
8.97431e-06
3.8127e-06
5.04769e-06
1.74921e-06
8.9793e-06
9.71381e-06
2.20033e-05
2.20027e-05
3.82301e-06
8.98384e-06
5.05738e-06
1.77248e-06
1.76509e-06
8.97794e-06
3.82832e-06
3.82994e-06
8.9888e-06
5.0592e-06
1.774e-06
1.76677e-06
8.98249e-06
3.83528e-06
1.21173e-05
3.57685e-06
1.06555e-05
4.4242e-06
1.06524e-05
4.4189e-06
1.21204e-05
2.24743e-05
7.20666e-06
8.89933e-06
2.24727e-05
7.20657e-06
1.21169e-05
3.55775e-06
1.06483e-05
4.39887e-06
1.21137e-05
1.06513e-05
4.40483e-06
2.24633e-05
7.20982e-06
8.90047e-06
7.21e-06
2.24648e-05
1.85e-05
1.84927e-05
1.21173e-05
3.57627e-06
4.42436e-06
1.06558e-05
4.41875e-06
1.06527e-05
1.21205e-05
2.2474e-05
7.20602e-06
8.90053e-06
2.24724e-05
7.20656e-06
1.21169e-05
3.55844e-06
4.39882e-06
1.06485e-05
1.21138e-05
4.40484e-06
1.06516e-05
2.24629e-05
7.20976e-06
8.90169e-06
7.20977e-06
2.24644e-05
1.85007e-05
1.84934e-05
9.72652e-06
2.19518e-05
2.19513e-05
2.19515e-05
2.19511e-05
9.72545e-06
3.89034e-06
1.83738e-06
9.00513e-06
5.09631e-06
3.88549e-06
1.84425e-06
9.01046e-06
3.89897e-06
1.83894e-06
9.00983e-06
5.09799e-06
3.89199e-06
1.84588e-06
9.01543e-06
9.72386e-06
2.19618e-05
2.19613e-05
9.72479e-06
2.19621e-05
2.19616e-05
3.90539e-06
9.01866e-06
5.10569e-06
1.86733e-06
1.86054e-06
9.01358e-06
3.9093e-06
3.91114e-06
9.02361e-06
5.10791e-06
1.86874e-06
1.8622e-06
9.01834e-06
3.91806e-06
1.85308e-05
1.85229e-05
1.85336e-05
1.85259e-05
9.71762e-06
2.19933e-05
2.19926e-05
2.19929e-05
2.19923e-05
9.7173e-06
3.80587e-06
1.74009e-06
8.96786e-06
5.04729e-06
3.8e-06
8.97406e-06
1.74729e-06
3.81281e-06
1.74167e-06
8.97313e-06
5.04778e-06
3.80704e-06
8.97927e-06
1.74883e-06
9.71421e-06
2.20033e-05
2.20027e-05
9.71443e-06
2.20036e-05
2.2003e-05
3.82281e-06
8.98352e-06
5.05604e-06
1.77212e-06
8.97756e-06
3.8281e-06
1.76503e-06
3.82975e-06
8.98875e-06
5.05935e-06
1.77368e-06
8.98278e-06
3.83508e-06
1.76665e-06
1.8506e-05
1.85135e-05
1.85089e-05
1.85164e-05
9.7199e-06
2.19826e-05
2.1982e-05
9.72053e-06
2.19827e-05
2.19823e-05
3.86568e-06
1.82034e-06
5.08147e-06
9.00164e-06
8.99591e-06
1.81373e-06
3.8703e-06
3.87265e-06
1.82216e-06
5.08502e-06
9.00691e-06
9.00131e-06
1.81525e-06
3.8775e-06
3.84954e-06
8.98693e-06
1.78951e-06
5.07345e-06
3.84463e-06
8.99279e-06
1.79652e-06
3.85665e-06
8.99223e-06
1.79112e-06
5.07439e-06
3.85155e-06
8.99803e-06
1.79824e-06
9.72298e-06
2.19721e-05
2.1972e-05
2.19718e-05
2.19717e-05
9.7222e-06
1.21038e-05
3.45797e-06
1.06413e-05
4.33913e-06
1.06395e-05
4.33147e-06
1.21067e-05
2.25122e-05
7.18298e-06
8.88612e-06
2.25104e-05
7.18526e-06
1.21036e-05
3.43509e-06
1.0638e-05
4.30635e-06
1.06394e-05
1.21009e-05
4.31454e-06
2.25011e-05
7.19092e-06
8.88746e-06
7.18982e-06
2.25028e-05
1.211e-05
1.06418e-05
4.35545e-06
3.49898e-06
1.21069e-05
1.06441e-05
4.36217e-06
2.24823e-05
8.89405e-06
7.20191e-06
2.24839e-05
7.20231e-06
2.24935e-05
7.19763e-06
8.89286e-06
2.24918e-05
7.1978e-06
1.21103e-05
3.52018e-06
1.06474e-05
4.38408e-06
1.21134e-05
1.06447e-05
4.37775e-06
1.211e-05
1.06416e-05
4.35505e-06
3.49888e-06
1.21069e-05
1.06439e-05
4.36231e-06
2.24822e-05
8.89433e-06
7.20092e-06
7.20037e-06
2.24837e-05
2.24934e-05
7.19488e-06
8.89308e-06
2.24917e-05
7.19628e-06
1.21103e-05
3.52024e-06
1.06473e-05
4.38436e-06
1.06445e-05
4.3774e-06
1.21134e-05
9.7176e-06
2.19932e-05
2.19934e-05
2.19928e-05
2.1993e-05
9.71733e-06
3.81412e-06
5.0473e-06
8.97941e-06
1.74981e-06
3.80713e-06
5.04578e-06
1.74788e-06
8.97496e-06
9.71417e-06
2.20037e-05
2.20039e-05
3.82865e-06
8.9889e-06
5.05918e-06
1.77463e-06
8.98214e-06
1.76597e-06
3.8365e-06
3.8215e-06
8.98439e-06
5.05756e-06
1.77272e-06
1.76441e-06
8.97747e-06
3.82915e-06
1.85315e-05
1.85238e-05
1.85088e-05
1.85163e-05
9.72004e-06
2.19825e-05
2.19827e-05
9.72056e-06
2.19829e-05
2.1983e-05
3.87161e-06
1.82285e-06
5.08471e-06
9.00701e-06
1.8146e-06
9.00061e-06
3.8788e-06
3.86446e-06
1.82109e-06
5.08338e-06
9.00247e-06
8.99589e-06
1.81274e-06
3.87137e-06
3.8582e-06
8.9916e-06
1.79062e-06
5.07403e-06
1.79881e-06
3.85059e-06
8.99815e-06
3.85109e-06
8.98687e-06
1.7889e-06
5.0723e-06
3.84346e-06
8.99354e-06
1.79708e-06
9.72305e-06
2.19725e-05
2.19727e-05
2.19722e-05
2.19724e-05
9.72232e-06
1.85068e-05
1.85143e-05
1.21039e-05
3.45805e-06
1.06416e-05
4.33916e-06
1.06398e-05
4.33122e-06
1.21068e-05
2.25114e-05
7.18395e-06
8.88671e-06
2.25096e-05
7.18409e-06
1.21037e-05
3.43507e-06
1.06382e-05
4.30622e-06
1.06397e-05
1.2101e-05
4.31458e-06
2.25003e-05
7.18931e-06
8.88803e-06
7.1896e-06
2.25021e-05
1.211e-05
4.35528e-06
1.06421e-05
3.4996e-06
1.2107e-05
4.36218e-06
1.06444e-05
2.24818e-05
8.89523e-06
7.20254e-06
2.24835e-05
7.20162e-06
2.2493e-05
7.19654e-06
8.89399e-06
2.24913e-05
7.19782e-06
1.21103e-05
3.51968e-06
4.38409e-06
1.06477e-05
1.21134e-05
4.37764e-06
1.06449e-05
1.21101e-05
1.06419e-05
4.35487e-06
3.49885e-06
1.21071e-05
1.06442e-05
4.36252e-06
2.24816e-05
8.89487e-06
7.19973e-06
7.20022e-06
2.24832e-05
2.24927e-05
7.19561e-06
8.89361e-06
2.2491e-05
7.19582e-06
1.21104e-05
3.52025e-06
1.06475e-05
4.38454e-06
1.06448e-05
4.37713e-06
1.21136e-05
1.21031e-05
3.45751e-06
4.33894e-06
1.06414e-05
4.33103e-06
1.06396e-05
1.2106e-05
2.24989e-05
7.19167e-06
8.88774e-06
7.19077e-06
2.25009e-05
1.21035e-05
3.45814e-06
1.06412e-05
4.33909e-06
1.06394e-05
4.33125e-06
1.21065e-05
2.25e-05
7.19027e-06
8.88767e-06
7.19019e-06
2.25018e-05
1.21093e-05
4.35484e-06
1.06417e-05
3.49955e-06
1.21063e-05
4.36215e-06
1.0644e-05
2.24801e-05
8.89447e-06
7.20165e-06
7.20119e-06
2.2482e-05
2.24915e-05
7.19602e-06
8.89319e-06
2.24895e-05
7.19697e-06
1.21096e-05
3.5196e-06
4.38432e-06
1.06474e-05
4.3772e-06
1.06446e-05
1.21127e-05
1.21097e-05
1.06415e-05
4.3549e-06
3.4988e-06
1.21067e-05
1.06438e-05
4.36231e-06
2.24812e-05
8.89441e-06
7.20005e-06
7.20041e-06
2.24828e-05
2.24923e-05
7.1951e-06
8.89316e-06
2.24907e-05
7.19499e-06
1.21101e-05
3.5203e-06
1.06472e-05
4.38438e-06
1.06444e-05
4.37724e-06
1.21132e-05
9.71722e-06
2.19926e-05
2.19927e-05
2.19922e-05
2.19924e-05
9.71692e-06
3.81274e-06
1.74179e-06
8.9723e-06
5.04755e-06
8.97925e-06
3.80709e-06
1.749e-06
3.80572e-06
1.74005e-06
8.96796e-06
5.04599e-06
1.74754e-06
3.79997e-06
8.97411e-06
9.71378e-06
2.20024e-05
2.20026e-05
2.20029e-05
9.71384e-06
2.2003e-05
3.82981e-06
8.98874e-06
5.05903e-06
1.7738e-06
8.98201e-06
1.76679e-06
3.83524e-06
3.82269e-06
8.98356e-06
5.05751e-06
1.77225e-06
1.76497e-06
8.9776e-06
3.82817e-06
1.85318e-05
1.85241e-05
1.85097e-05
1.85171e-05
9.7196e-06
2.19819e-05
2.19821e-05
9.72014e-06
2.19823e-05
2.19824e-05
3.87273e-06
1.8223e-06
5.08474e-06
9.00658e-06
1.81536e-06
9.00078e-06
3.87761e-06
3.86566e-06
1.82049e-06
5.08328e-06
9.00176e-06
8.99614e-06
1.81364e-06
3.87051e-06
3.85673e-06
8.99142e-06
1.79126e-06
5.0741e-06
1.79847e-06
3.85166e-06
8.99789e-06
3.84965e-06
8.98706e-06
1.78951e-06
5.07256e-06
3.84454e-06
8.99289e-06
1.79681e-06
9.72265e-06
2.19719e-05
2.19721e-05
2.19716e-05
2.19718e-05
9.72189e-06
1.85073e-05
1.85148e-05
1.21035e-05
3.45833e-06
4.33898e-06
1.06415e-05
4.33183e-06
1.06397e-05
1.21064e-05
2.25109e-05
7.18532e-06
8.88668e-06
7.18512e-06
2.25092e-05
1.21033e-05
3.43521e-06
4.30659e-06
1.06382e-05
4.3143e-06
1.21006e-05
1.06396e-05
2.24998e-05
7.19172e-06
8.88799e-06
7.19137e-06
2.25016e-05
1.21041e-05
3.45836e-06
4.3393e-06
1.06416e-05
4.33134e-06
1.06398e-05
1.2107e-05
2.25123e-05
7.18405e-06
8.88697e-06
2.25105e-05
7.18396e-06
1.21039e-05
3.43513e-06
4.30638e-06
1.06383e-05
1.21012e-05
4.31481e-06
1.06397e-05
2.25012e-05
7.1903e-06
8.88825e-06
7.19019e-06
2.25029e-05
1.21097e-05
4.35537e-06
1.06419e-05
3.49902e-06
1.21067e-05
4.36214e-06
1.06442e-05
2.24811e-05
8.8948e-06
7.20163e-06
7.20196e-06
2.24827e-05
2.24922e-05
7.19662e-06
8.89356e-06
2.24905e-05
7.19643e-06
1.211e-05
3.52056e-06
4.38402e-06
1.06475e-05
4.3778e-06
1.06448e-05
1.21131e-05
1.21103e-05
4.3551e-06
1.06419e-05
3.499e-06
1.21072e-05
4.36236e-06
1.06442e-05
2.24823e-05
8.89507e-06
7.2007e-06
7.20044e-06
2.2484e-05
2.24934e-05
7.19556e-06
8.89385e-06
2.24917e-05
7.19577e-06
1.21106e-05
3.52057e-06
4.38441e-06
1.06476e-05
4.37756e-06
1.06448e-05
1.21137e-05
1.85324e-05
1.85248e-05
1.85344e-05
1.85267e-05
9.71963e-06
2.19823e-05
2.19818e-05
9.72016e-06
2.19827e-05
2.19821e-05
3.86487e-06
1.82082e-06
5.08306e-06
9.00191e-06
3.87176e-06
1.81371e-06
8.99638e-06
3.87171e-06
1.82238e-06
5.08481e-06
9.00687e-06
3.87894e-06
1.8153e-06
9.00098e-06
3.85131e-06
8.9872e-06
1.78964e-06
5.07246e-06
3.84465e-06
1.79689e-06
8.99312e-06
3.85835e-06
8.99186e-06
1.79128e-06
5.07428e-06
3.85158e-06
1.79853e-06
8.998e-06
9.72266e-06
2.19724e-05
2.19718e-05
9.72193e-06
2.19721e-05
2.19716e-05
1.85079e-05
1.85154e-05
1.85099e-05
1.85174e-05
1.84973e-05
1.84899e-05
1.85e-05
1.84927e-05
9.72685e-06
2.19517e-05
2.19516e-05
2.19514e-05
2.19512e-05
9.7257e-06
3.8902e-06
1.83724e-06
9.00465e-06
5.09751e-06
3.88572e-06
9.01019e-06
1.84385e-06
3.89741e-06
1.83873e-06
9.01005e-06
5.09818e-06
3.89271e-06
9.01548e-06
1.84585e-06
9.72412e-06
2.19615e-05
2.19614e-05
9.72508e-06
2.19618e-05
2.19616e-05
3.9053e-06
9.0184e-06
5.10456e-06
1.8667e-06
9.01321e-06
3.90881e-06
1.86048e-06
3.91233e-06
9.02368e-06
5.10757e-06
1.86874e-06
9.01861e-06
3.91597e-06
1.86195e-06
1.21173e-05
3.57723e-06
1.06559e-05
4.42475e-06
1.06519e-05
4.41828e-06
1.21205e-05
2.24742e-05
7.20438e-06
8.8996e-06
2.24727e-05
7.20486e-06
1.2117e-05
3.55755e-06
1.0648e-05
4.3985e-06
1.06512e-05
1.21138e-05
4.4051e-06
2.24632e-05
7.20821e-06
8.90075e-06
7.20822e-06
2.24647e-05
9.7269e-06
2.19517e-05
2.19522e-05
2.19514e-05
2.19519e-05
9.72583e-06
3.89899e-06
1.83841e-06
9.00928e-06
5.09785e-06
9.01545e-06
3.89187e-06
1.84618e-06
3.88994e-06
1.83661e-06
9.00473e-06
5.09605e-06
1.84447e-06
3.8852e-06
9.01104e-06
9.72424e-06
2.19617e-05
2.19621e-05
2.1962e-05
9.72511e-06
2.19624e-05
3.91084e-06
9.0238e-06
5.10728e-06
1.86951e-06
9.01771e-06
1.86153e-06
3.91847e-06
3.90502e-06
9.01936e-06
5.10645e-06
1.86743e-06
1.85978e-06
9.0132e-06
3.90898e-06
1.84979e-05
1.84906e-05
1.21174e-05
3.57708e-06
1.06556e-05
4.42489e-06
1.06526e-05
4.41802e-06
1.21206e-05
2.24737e-05
7.20458e-06
8.90015e-06
2.24722e-05
7.20456e-06
1.21171e-05
3.55778e-06
1.06484e-05
4.39828e-06
1.06514e-05
1.21139e-05
4.40517e-06
2.24627e-05
7.20779e-06
8.90137e-06
7.20805e-06
2.24642e-05
1.21166e-05
3.57651e-06
4.42479e-06
1.0656e-05
4.41799e-06
1.06519e-05
1.21198e-05
2.24726e-05
7.20552e-06
8.89972e-06
7.20562e-06
2.24706e-05
1.21162e-05
3.55795e-06
4.39834e-06
1.06481e-05
4.40499e-06
1.21131e-05
1.06514e-05
2.24612e-05
7.20906e-06
8.90098e-06
7.20923e-06
2.2463e-05
1.2117e-05
3.57683e-06
1.06558e-05
4.42497e-06
1.06517e-05
4.41802e-06
1.21202e-05
2.24733e-05
7.2043e-06
8.8997e-06
2.24717e-05
7.20413e-06
1.21167e-05
3.55788e-06
1.06479e-05
4.39837e-06
1.21135e-05
1.06512e-05
4.40518e-06
2.24622e-05
7.20767e-06
8.90086e-06
7.20788e-06
2.24637e-05
9.7265e-06
2.19514e-05
2.19516e-05
2.19511e-05
2.19513e-05
9.72539e-06
3.89746e-06
1.83888e-06
9.00971e-06
5.09781e-06
9.0151e-06
3.89282e-06
1.8459e-06
3.89169e-06
1.83723e-06
9.00484e-06
5.09632e-06
1.84408e-06
3.88539e-06
9.01034e-06
9.72382e-06
2.19614e-05
2.19615e-05
2.19616e-05
9.72476e-06
2.19618e-05
3.91233e-06
9.02334e-06
5.1078e-06
1.86872e-06
9.01817e-06
1.86214e-06
3.91626e-06
3.90403e-06
9.01857e-06
5.10635e-06
1.86706e-06
1.86046e-06
9.01337e-06
3.91145e-06
1.84983e-05
1.84911e-05
1.2117e-05
3.57695e-06
4.42415e-06
1.06561e-05
4.41892e-06
1.06521e-05
1.21202e-05
2.24732e-05
7.20586e-06
8.90007e-06
7.20571e-06
2.24717e-05
1.21166e-05
3.55819e-06
4.39894e-06
1.06483e-05
4.4048e-06
1.21135e-05
1.06515e-05
2.24622e-05
7.20929e-06
8.90128e-06
7.20945e-06
2.24637e-05
1.21175e-05
3.57698e-06
4.42476e-06
1.06562e-05
4.41856e-06
1.06521e-05
1.21208e-05
2.24744e-05
7.20452e-06
8.90038e-06
2.24729e-05
7.20483e-06
1.21172e-05
3.55818e-06
4.39869e-06
1.06483e-05
1.2114e-05
4.40509e-06
1.06516e-05
2.24634e-05
7.20835e-06
8.90158e-06
7.20809e-06
2.24649e-05
1.8499e-05
1.84917e-05
1.85009e-05
1.84937e-05
1.27763e-07
1.2776e-07
1.39266e-07
1.26357e-07
1.26354e-07
1.21064e-07
1.22602e-07
1.54879e-06
3.14717e-07
6.54324e-07
6.54656e-07
1.22377e-07
1.22374e-07
1.35665e-07
1.21126e-07
1.21123e-07
1.15233e-07
1.16644e-07
1.64875e-06
7.08204e-07
7.08453e-07
3.34382e-07
1.64101e-06
7.1064e-07
7.11094e-07
1.54896e-06
6.51481e-07
6.51738e-07
3.15091e-07
1.54194e-06
6.54499e-07
6.54661e-07
1.61715e-06
3.28772e-07
6.96597e-07
6.96722e-07
6.9355e-07
6.93836e-07
1.62345e-06
1.54952e-06
3.1468e-07
6.55346e-07
6.54497e-07
1.6163e-06
3.29271e-07
6.96744e-07
6.97328e-07
6.9398e-07
6.92724e-07
1.6246e-06
1.54852e-06
6.50921e-07
6.51495e-07
3.15236e-07
6.54634e-07
1.5422e-06
6.55801e-07
1.61721e-06
3.28964e-07
6.97798e-07
6.96689e-07
6.92922e-07
6.93553e-07
1.62364e-06
1.61649e-06
3.29343e-07
6.96246e-07
6.96653e-07
1.62449e-06
6.93892e-07
6.94135e-07
1.64804e-06
7.0784e-07
7.08083e-07
3.35078e-07
1.64124e-06
7.11084e-07
7.12321e-07
1.6487e-06
7.08173e-07
7.07341e-07
3.34637e-07
7.11679e-07
1.64064e-06
7.12268e-07
1.64747e-06
7.0776e-07
7.08011e-07
3.34962e-07
7.10931e-07
1.64153e-06
7.10991e-07
1.27764e-07
1.27761e-07
1.39271e-07
1.26358e-07
1.26355e-07
1.21064e-07
1.22602e-07
1.27764e-07
1.27759e-07
1.39268e-07
1.26358e-07
1.26353e-07
1.21064e-07
1.22602e-07
1.27764e-07
1.27761e-07
1.3927e-07
1.26358e-07
1.26354e-07
1.21064e-07
1.22602e-07
1.38285e-07
1.23665e-07
1.23662e-07
1.24992e-07
1.24989e-07
1.19559e-07
1.18085e-07
1.3829e-07
1.23666e-07
1.23663e-07
1.24993e-07
1.2499e-07
1.19559e-07
1.18086e-07
1.38288e-07
1.23666e-07
1.23661e-07
1.24993e-07
1.24989e-07
1.19559e-07
1.18086e-07
1.38289e-07
1.23666e-07
1.23662e-07
1.24993e-07
1.2499e-07
1.19559e-07
1.18086e-07
4.11951e-07
9.82087e-07
1.29467e-06
3.38271e-07
1.28706e-06
3.37759e-07
4.1415e-07
5.77456e-07
1.92439e-06
2.656e-06
8.87762e-07
8.83625e-07
1.91863e-06
5.7838e-07
4.12867e-07
9.82205e-07
3.38308e-07
1.29406e-06
3.37758e-07
1.28789e-06
4.13005e-07
5.68222e-07
8.6749e-07
1.89472e-06
2.63838e-06
5.67441e-07
8.71038e-07
1.90051e-06
4.05932e-07
9.67312e-07
3.32494e-07
1.26448e-06
4.05891e-07
3.3305e-07
1.27083e-06
5.77356e-07
1.92525e-06
2.65605e-06
8.87434e-07
8.83888e-07
1.91854e-06
5.78278e-07
1.56768e-06
3.19376e-07
6.68117e-07
6.68421e-07
6.65635e-07
6.65878e-07
1.57411e-06
1.22378e-07
1.22374e-07
1.35671e-07
1.21128e-07
1.21125e-07
1.15234e-07
1.16644e-07
1.22378e-07
1.22373e-07
1.35668e-07
1.21127e-07
1.21122e-07
1.15233e-07
1.16644e-07
1.22378e-07
1.22374e-07
1.35669e-07
1.21127e-07
1.21123e-07
1.15234e-07
1.16645e-07
4.43157e-07
1.06589e-06
1.38552e-06
3.61203e-07
1.37934e-06
3.60562e-07
4.44959e-07
6.10283e-07
9.33048e-07
1.98801e-06
2.72529e-06
6.09323e-07
9.37411e-07
1.99375e-06
4.36819e-07
1.05116e-06
1.35618e-06
3.54356e-07
4.34456e-07
1.3636e-06
3.55075e-07
6.20419e-07
2.01727e-06
2.7412e-06
9.54271e-07
9.49917e-07
2.01006e-06
6.20914e-07
4.44104e-07
1.06637e-06
3.62197e-07
1.38592e-06
3.60369e-07
1.37978e-06
4.43597e-07
6.10193e-07
9.33238e-07
1.98833e-06
2.72535e-06
6.09284e-07
9.36979e-07
1.99353e-06
4.35679e-07
1.051e-06
3.54366e-07
1.35687e-06
4.35512e-07
3.55163e-07
1.36324e-06
6.20401e-07
2.01617e-06
2.74064e-06
9.53629e-07
9.50133e-07
2.01063e-06
6.20823e-07
1.66465e-06
3.40261e-07
7.25145e-07
7.25686e-07
7.22857e-07
7.23062e-07
1.67281e-06
1.56725e-06
3.19052e-07
6.6838e-07
6.68616e-07
1.57417e-06
6.65387e-07
6.65683e-07
1.59917e-06
3.24473e-07
6.79389e-07
6.7968e-07
1.59216e-06
6.82505e-07
6.8271e-07
4.11885e-07
9.81393e-07
1.29501e-06
3.38937e-07
1.28694e-06
3.37221e-07
4.14144e-07
5.68263e-07
8.67795e-07
1.89479e-06
2.63825e-06
1.90087e-06
5.67535e-07
8.71108e-07
4.06917e-07
9.67781e-07
1.26369e-06
3.32041e-07
1.27161e-06
4.0482e-07
3.33652e-07
5.77475e-07
1.92467e-06
2.656e-06
8.87459e-07
1.91878e-06
8.8403e-07
5.78299e-07
4.12386e-07
9.82183e-07
1.29393e-06
3.38918e-07
1.28784e-06
3.3725e-07
4.12696e-07
5.68367e-07
8.67914e-07
1.89435e-06
2.63892e-06
5.67512e-07
1.90096e-06
8.71883e-07
4.05875e-07
9.67118e-07
1.26441e-06
3.32065e-07
4.05076e-07
1.27071e-06
3.33635e-07
5.77448e-07
1.92483e-06
2.65662e-06
8.88322e-07
1.91842e-06
5.78409e-07
8.84293e-07
4.21519e-07
1.31014e-06
3.42516e-07
1.00941e-06
4.19327e-07
1.31787e-06
3.44239e-07
5.98364e-07
9.20329e-07
2.69968e-06
1.97095e-06
9.17001e-07
1.96563e-06
5.99237e-07
5.88515e-07
1.94232e-06
9.00378e-07
2.68312e-06
9.04023e-07
5.87766e-07
1.94815e-06
4.26701e-07
1.02323e-06
1.34107e-06
3.49921e-07
1.3333e-06
3.48054e-07
4.28885e-07
4.20215e-07
1.31087e-06
3.42519e-07
1.00874e-06
4.20008e-07
1.31713e-06
3.44205e-07
5.98305e-07
9.21135e-07
2.70021e-06
1.97119e-06
1.96514e-06
9.17046e-07
5.99395e-07
5.88606e-07
1.94203e-06
9.00665e-07
2.68376e-06
5.87739e-07
1.94811e-06
9.04567e-07
4.27484e-07
1.02387e-06
1.34024e-06
3.49885e-07
1.33392e-06
3.48059e-07
4.27807e-07
1.56675e-06
3.19506e-07
6.68506e-07
6.69312e-07
6.64582e-07
6.65841e-07
1.57494e-06
1.59991e-06
3.24305e-07
6.79755e-07
6.78699e-07
6.82636e-07
1.5916e-06
6.83069e-07
4.12664e-07
9.8202e-07
1.29426e-06
3.38357e-07
1.28773e-06
3.37787e-07
4.12854e-07
5.68309e-07
8.67848e-07
1.89499e-06
2.63889e-06
1.90085e-06
5.67532e-07
8.71673e-07
4.06203e-07
9.67399e-07
1.26444e-06
3.32527e-07
1.27108e-06
4.05822e-07
3.33071e-07
5.77472e-07
1.92466e-06
2.65647e-06
8.88088e-07
1.91885e-06
8.8415e-07
5.78343e-07
4.11889e-07
9.81937e-07
3.38298e-07
1.29486e-06
3.37724e-07
1.28697e-06
4.1413e-07
5.68297e-07
8.68122e-07
1.89439e-06
2.63911e-06
5.67488e-07
1.90084e-06
8.71601e-07
4.06913e-07
9.67303e-07
3.32446e-07
1.26381e-06
4.04828e-07
3.33021e-07
1.27149e-06
5.7742e-07
1.92504e-06
2.65654e-06
8.87895e-07
1.91831e-06
5.7834e-07
8.84385e-07
4.20129e-07
1.31079e-06
3.43042e-07
1.00898e-06
4.19835e-07
1.31738e-06
3.43646e-07
5.98357e-07
9.20878e-07
2.70019e-06
1.97128e-06
9.17003e-07
1.96559e-06
5.99316e-07
5.88555e-07
1.94234e-06
9.00564e-07
2.68376e-06
9.04477e-07
5.8777e-07
1.9486e-06
4.27451e-07
1.02376e-06
1.34045e-06
3.49243e-07
1.33388e-06
3.48619e-07
4.27803e-07
4.21504e-07
3.43003e-07
1.31026e-06
1.00886e-06
4.1933e-07
3.43618e-07
1.31754e-06
5.98318e-07
9.20846e-07
2.70028e-06
1.97118e-06
1.96498e-06
9.17389e-07
5.99313e-07
5.8852e-07
1.94198e-06
9.00694e-07
2.68378e-06
5.87714e-07
1.94809e-06
9.04762e-07
4.26688e-07
1.02378e-06
3.49199e-07
1.34008e-06
3.48565e-07
1.33356e-06
4.28851e-07
4.12791e-07
9.82034e-07
3.38267e-07
1.29384e-06
3.37776e-07
1.28787e-06
4.12749e-07
5.77373e-07
1.92407e-06
2.65614e-06
8.87866e-07
8.83869e-07
1.91861e-06
5.78215e-07
4.2154e-07
1.31024e-06
3.43003e-07
1.00868e-06
4.19399e-07
1.3175e-06
3.43586e-07
5.98318e-07
9.20829e-07
2.69961e-06
1.97085e-06
5.99454e-07
9.16412e-07
1.96529e-06
5.88595e-07
1.94193e-06
9.00037e-07
2.68321e-06
5.87749e-07
9.04191e-07
1.94818e-06
4.26753e-07
1.02372e-06
1.34117e-06
3.4912e-07
4.2879e-07
1.33338e-06
3.48526e-07
4.20341e-07
3.43017e-07
1.31084e-06
1.00876e-06
4.20048e-07
3.43621e-07
1.317e-06
5.98366e-07
9.21003e-07
2.69929e-06
1.97062e-06
1.96525e-06
9.16673e-07
5.99318e-07
5.88503e-07
1.94177e-06
9.00159e-07
2.68353e-06
5.87711e-07
1.94803e-06
9.04383e-07
4.27476e-07
1.02386e-06
3.49227e-07
1.34004e-06
3.48612e-07
1.33395e-06
4.27763e-07
1.5675e-06
3.19282e-07
6.69876e-07
6.68656e-07
6.65463e-07
6.64992e-07
1.57392e-06
1.59864e-06
3.24599e-07
6.78838e-07
6.79447e-07
6.83333e-07
1.59254e-06
6.82416e-07
4.12516e-07
9.82217e-07
3.38303e-07
1.29447e-06
3.37767e-07
1.28736e-06
4.13912e-07
5.69466e-07
8.6799e-07
1.89403e-06
2.63906e-06
8.71739e-07
5.66406e-07
1.90131e-06
4.07008e-07
9.67313e-07
3.32535e-07
1.26391e-06
3.33066e-07
4.04962e-07
1.27136e-06
5.76477e-07
1.92507e-06
2.65662e-06
8.88055e-07
8.84288e-07
1.91787e-06
5.79427e-07
4.20498e-07
3.43e-07
1.31098e-06
1.00873e-06
4.20279e-07
3.43616e-07
1.31717e-06
5.9818e-07
9.20401e-07
2.69976e-06
1.97145e-06
5.99287e-07
9.16816e-07
1.96516e-06
5.88449e-07
1.94228e-06
9.00222e-07
2.68323e-06
5.87683e-07
9.04104e-07
1.9479e-06
4.27634e-07
1.02396e-06
3.49147e-07
1.34019e-06
4.28027e-07
3.4856e-07
1.33401e-06
4.2145e-07
3.43027e-07
1.31057e-06
1.00875e-06
4.19169e-07
3.43613e-07
1.31768e-06
5.97325e-07
9.208e-07
2.7004e-06
1.9715e-06
1.96442e-06
9.17247e-07
6.0033e-07
5.89945e-07
1.94162e-06
9.00679e-07
2.6839e-06
5.86772e-07
1.9488e-06
9.04579e-07
4.26617e-07
1.02405e-06
3.49237e-07
1.34073e-06
3.48609e-07
1.3336e-06
4.28853e-07
1.60021e-06
3.24139e-07
6.79551e-07
6.79841e-07
1.5925e-06
6.82363e-07
6.82631e-07
1.66536e-06
3.39763e-07
7.25463e-07
7.27717e-07
1.67084e-06
7.22467e-07
7.21833e-07
4.42989e-07
1.06551e-06
1.38596e-06
3.6213e-07
1.37941e-06
3.59877e-07
4.44783e-07
6.10175e-07
9.33461e-07
1.98833e-06
2.72678e-06
1.99375e-06
6.09231e-07
9.36988e-07
4.3668e-07
1.05146e-06
1.35638e-06
3.53952e-07
1.36328e-06
4.34366e-07
3.55713e-07
6.20463e-07
2.01594e-06
2.73982e-06
9.53649e-07
2.01081e-06
9.50331e-07
6.20891e-07
4.43797e-07
1.06607e-06
1.38694e-06
3.62051e-07
1.37918e-06
3.59872e-07
4.43392e-07
6.10231e-07
9.33685e-07
1.98801e-06
2.72741e-06
6.09219e-07
1.99393e-06
9.37811e-07
4.35298e-07
1.05122e-06
1.35684e-06
3.53924e-07
4.35121e-07
1.3635e-06
3.55688e-07
6.20471e-07
2.01752e-06
2.74032e-06
9.54624e-07
2.0098e-06
6.2095e-07
9.50405e-07
1.66454e-06
3.40049e-07
7.26872e-07
7.26453e-07
7.21833e-07
7.22008e-07
1.67089e-06
4.43829e-07
1.06602e-06
1.38604e-06
3.62012e-07
1.37967e-06
3.60151e-07
4.43384e-07
6.10203e-07
9.33559e-07
1.98824e-06
2.72738e-06
1.99424e-06
6.09243e-07
9.38461e-07
4.35302e-07
1.05124e-06
1.3569e-06
3.5446e-07
1.36326e-06
4.35169e-07
3.55427e-07
6.20495e-07
2.01642e-06
2.74037e-06
9.54938e-07
2.01068e-06
9.49714e-07
6.20914e-07
4.42964e-07
1.06604e-06
3.62012e-07
1.38582e-06
3.60116e-07
1.37966e-06
4.44774e-07
6.11615e-07
9.33731e-07
1.98788e-06
2.72594e-06
6.08858e-07
1.99396e-06
9.38033e-07
4.3668e-07
1.05116e-06
3.54431e-07
1.35676e-06
4.34344e-07
3.5538e-07
1.36314e-06
6.19268e-07
2.01636e-06
2.74179e-06
9.55693e-07
2.01021e-06
6.23202e-07
9.50219e-07
4.4372e-07
1.06582e-06
3.61982e-07
1.386e-06
3.60118e-07
1.37954e-06
4.4336e-07
6.10114e-07
9.33304e-07
1.98775e-06
2.727e-06
9.37562e-07
6.09102e-07
1.99438e-06
4.35229e-07
1.0513e-06
3.54428e-07
1.3568e-06
3.55411e-07
4.35044e-07
1.36333e-06
6.19942e-07
2.01747e-06
2.73995e-06
9.54131e-07
9.50104e-07
2.00936e-06
6.23054e-07
1.66548e-06
3.39634e-07
7.25436e-07
7.25495e-07
7.22602e-07
7.229e-07
1.67123e-06
4.4302e-07
1.06635e-06
3.6123e-07
1.38643e-06
3.60581e-07
1.3793e-06
4.4481e-07
6.09907e-07
9.33809e-07
1.98767e-06
2.72601e-06
9.37527e-07
6.08738e-07
1.99374e-06
4.36691e-07
1.05106e-06
3.54444e-07
1.35662e-06
3.55188e-07
4.34383e-07
1.36367e-06
6.2032e-07
2.01655e-06
2.74187e-06
9.54052e-07
9.50714e-07
2.01014e-06
6.20917e-07
4.99174e-07
4.99986e-07
4.99985e-07
4.99926e-07
4.45591e-07
4.54256e-07
4.54253e-07
4.64037e-07
4.03813e-07
4.18894e-07
4.18897e-07
4.39763e-07
3.68435e-07
3.88818e-07
3.88825e-07
4.17846e-07
3.3808e-07
3.62267e-07
3.62277e-07
3.95976e-07
3.11696e-07
3.3835e-07
3.38361e-07
3.74302e-07
2.88503e-07
3.16641e-07
3.16652e-07
3.53285e-07
2.67933e-07
2.96965e-07
2.96975e-07
3.33603e-07
2.49569e-07
2.79263e-07
2.79273e-07
3.15836e-07
2.33107e-07
2.6353e-07
2.63538e-07
3.00377e-07
2.18319e-07
2.4977e-07
2.49777e-07
2.87661e-07
2.05027e-07
2.37978e-07
2.37986e-07
2.77869e-07
1.93094e-07
2.28158e-07
2.28166e-07
2.71176e-07
1.82406e-07
2.20316e-07
2.20324e-07
2.67551e-07
1.72873e-07
2.14455e-07
2.14461e-07
2.67007e-07
1.64421e-07
2.10588e-07
2.1059e-07
2.69832e-07
1.56985e-07
2.08721e-07
2.08718e-07
2.76153e-07
1.50514e-07
2.0886e-07
2.08852e-07
2.85829e-07
1.44963e-07
2.11062e-07
2.11053e-07
2.98722e-07
2.15334e-07
3.14777e-07
5.06193e-07
5.05569e-07
5.05572e-07
5.06203e-07
5.05569e-07
5.0557e-07
5.05986e-07
5.05985e-07
5.05986e-07
5.05983e-07
5.0557e-07
5.05561e-07
5.06198e-07
5.05572e-07
5.0556e-07
5.0619e-07
4.99909e-07
4.67461e-07
4.99992e-07
4.99992e-07