/*--------------------------------*- C++ -*----------------------------------*\
| =========                 |                                                 |
| \\      /  F ield         | OpenFOAM: The Open Source CFD Toolbox           |
|  \\    /   O peration     | Version:  2312                                  |
|   \\  /    A nd           | Website:  www.openfoam.com                      |
|    \\/     M anipulation  |                                                 |
\*---------------------------------------------------------------------------*/
FoamFile
{
    version     2.0;
    format      ascii;
    arch        "LSB;label=32;scalar=64";
    class       volScalarField;
    location    "800";
    object      k;
}
// * * * * * * * * * * * * * * * * * * * * * * * * * * * * * * * * * * * * * //

dimensions      [0 2 -2 0 0 0 0];

internalField   nonuniform List<scalar> 
43008
(
1.57102e-05
1.61148e-05
1.52905e-05
1.60665e-05
1.60659e-05
1.76011e-05
1.7261e-05
1.75162e-05
1.61149e-05
1.61151e-05
1.60676e-05
1.60678e-05
1.75177e-05
1.61153e-05
1.61146e-05
1.6068e-05
1.60674e-05
1.60681e-05
1.60672e-05
1.72617e-05
1.75185e-05
1.61149e-05
1.60675e-05
1.60675e-05
1.75303e-05
1.76121e-05
1.60661e-05
1.60664e-05
1.76133e-05
1.60664e-05
1.60659e-05
1.60657e-05
1.76128e-05
1.6066e-05
5.00977e-05
6.99055e-05
4.93374e-05
6.9939e-05
6.97737e-05
5.00988e-05
6.99063e-05
4.93367e-05
6.99396e-05
1.57102e-05
1.57098e-05
1.57098e-05
1.53908e-05
1.53909e-05
1.53905e-05
1.53904e-05
2.60163e-05
1.60928e-05
4.2938e-05
1.5354e-05
6.97974e-05
6.97738e-05
2.60161e-05
1.54374e-05
4.24476e-05
1.60922e-05
2.54867e-05
1.53533e-05
4.29378e-05
1.73468e-05
5.77574e-05
5.77674e-05
5.19467e-05
6.99765e-05
5.12824e-05
7.00078e-05
6.97129e-05
6.9691e-05
5.19476e-05
6.99774e-05
5.12814e-05
7.00086e-05
1.52906e-05
1.52902e-05
1.52901e-05
2.76596e-05
4.38789e-05
1.51278e-05
1.60689e-05
2.71029e-05
4.43355e-05
1.50603e-05
6.9713e-05
6.96912e-05
2.76644e-05
1.51272e-05
4.38825e-05
1.60682e-05
2.71074e-05
1.50597e-05
4.43361e-05
5.83098e-05
5.83185e-05
1.77467e-05
5.8567e-05
5.85765e-05
6.9796e-05
6.9772e-05
6.97974e-05
6.97738e-05
5.74654e-05
5.7478e-05
1.73387e-05
5.77592e-05
5.77715e-05
6.97297e-05
6.97527e-05
6.97317e-05
6.97544e-05
1.74209e-05
5.81774e-05
5.81891e-05
5.79027e-05
5.79145e-05
5.00972e-05
6.99019e-05
4.93372e-05
6.99354e-05
2.60133e-05
4.24453e-05
1.54378e-05
1.60922e-05
2.54916e-05
4.2937e-05
1.53537e-05
2.60143e-05
4.24493e-05
1.54376e-05
1.60924e-05
2.54923e-05
4.29418e-05
1.53535e-05
5.03437e-05
6.99741e-05
6.99418e-05
5.10568e-05
5.03435e-05
6.99704e-05
6.99381e-05
5.10564e-05
2.62895e-05
1.60789e-05
4.36499e-05
1.51985e-05
4.31766e-05
1.52743e-05
2.68262e-05
2.62893e-05
1.60792e-05
4.36532e-05
1.51983e-05
4.3179e-05
1.52742e-05
2.68256e-05
1.73392e-05
5.77666e-05
5.77609e-05
6.97721e-05
6.97317e-05
6.97544e-05
1.74211e-05
5.81843e-05
5.81787e-05
5.79099e-05
5.79039e-05
6.973e-05
6.97525e-05
2.60124e-05
4.24506e-05
1.5438e-05
1.60927e-05
2.54931e-05
4.29431e-05
1.53539e-05
5.00978e-05
6.99019e-05
4.93364e-05
6.99352e-05
2.60124e-05
1.54375e-05
4.24494e-05
1.6092e-05
2.54933e-05
1.53534e-05
4.29395e-05
5.03428e-05
6.99748e-05
6.99426e-05
5.10578e-05
2.62917e-05
1.60793e-05
4.36543e-05
1.51988e-05
4.31792e-05
1.52746e-05
2.6826e-05
5.03425e-05
6.99704e-05
6.99383e-05
5.10567e-05
2.62904e-05
1.60787e-05
1.51982e-05
4.36504e-05
1.52741e-05
4.31799e-05
2.68248e-05
5.0082e-05
6.99374e-05
2.60112e-05
1.60918e-05
1.53536e-05
4.29343e-05
5.00917e-05
6.99342e-05
2.62836e-05
1.60795e-05
4.36484e-05
1.51988e-05
4.31746e-05
1.52746e-05
2.68293e-05
5.03511e-05
6.99723e-05
6.99402e-05
5.10426e-05
2.62889e-05
1.60786e-05
1.51985e-05
4.36472e-05
1.52743e-05
4.3177e-05
2.68238e-05
5.03459e-05
6.99691e-05
6.99373e-05
5.10512e-05
5.74729e-05
5.74672e-05
1.73372e-05
5.77673e-05
5.77614e-05
6.97962e-05
6.97726e-05
6.97317e-05
6.97544e-05
1.74213e-05
5.81844e-05
5.81793e-05
5.79097e-05
5.79046e-05
6.97306e-05
6.97533e-05
2.6013e-05
1.54375e-05
4.24493e-05
1.60921e-05
2.54918e-05
1.53533e-05
4.29431e-05
5.0092e-05
6.99055e-05
4.9345e-05
6.99387e-05
5.00915e-05
6.99023e-05
4.93444e-05
6.99359e-05
2.6286e-05
1.60788e-05
1.51981e-05
4.36464e-05
1.5274e-05
4.31766e-05
2.68289e-05
2.62898e-05
1.60788e-05
1.51981e-05
4.36545e-05
1.5274e-05
4.3179e-05
2.68261e-05
5.03515e-05
6.99737e-05
6.99417e-05
5.10508e-05
5.0351e-05
6.99709e-05
6.99386e-05
5.10503e-05
6.97717e-05
6.97736e-05
1.74116e-05
5.81753e-05
5.81856e-05
5.79009e-05
5.79106e-05
6.97296e-05
6.97523e-05
6.97316e-05
6.97543e-05
6.9711e-05
6.96891e-05
6.97128e-05
6.9691e-05
5.83117e-05
5.83231e-05
1.7728e-05
5.85687e-05
5.85801e-05
5.19465e-05
6.99731e-05
5.1282e-05
7.00042e-05
2.76595e-05
4.38808e-05
1.51276e-05
1.60684e-05
2.71102e-05
4.43291e-05
1.506e-05
2.76584e-05
4.38828e-05
1.51274e-05
1.60689e-05
2.71105e-05
4.43323e-05
1.50599e-05
5.83181e-05
5.83128e-05
1.77281e-05
5.85748e-05
5.85691e-05
6.97111e-05
6.96895e-05
2.76565e-05
4.38842e-05
1.51279e-05
1.60687e-05
2.71114e-05
4.43347e-05
1.50603e-05
5.19467e-05
6.99732e-05
5.1281e-05
7.00045e-05
2.76565e-05
1.51273e-05
4.38848e-05
1.60682e-05
2.71112e-05
1.50598e-05
4.43332e-05
5.19338e-05
6.99749e-05
5.12891e-05
7.00064e-05
2.76547e-05
1.51276e-05
4.38814e-05
1.60682e-05
2.71092e-05
1.506e-05
4.43285e-05
5.19414e-05
6.9972e-05
5.12843e-05
7.00032e-05
5.83188e-05
5.83136e-05
1.77265e-05
5.85754e-05
5.85703e-05
6.97118e-05
6.969e-05
2.76602e-05
1.51273e-05
4.38839e-05
1.60684e-05
2.71108e-05
1.50597e-05
4.43345e-05
5.19403e-05
6.99766e-05
5.129e-05
7.00077e-05
5.19396e-05
6.99735e-05
5.12896e-05
7.00049e-05
6.97108e-05
6.96889e-05
6.97128e-05
6.9691e-05
6.97454e-05
4.98489e-05
6.90334e-05
5.70693e-05
6.90256e-05
5.68501e-05
6.97566e-05
7.11553e-05
7.29981e-05
6.99212e-05
7.11513e-05
7.31109e-05
6.97447e-05
4.95923e-05
6.90191e-05
5.64667e-05
6.97341e-05
6.90253e-05
5.6692e-05
7.11316e-05
7.32593e-05
6.99238e-05
7.31522e-05
7.11354e-05
6.97953e-05
6.97758e-05
6.97455e-05
4.98483e-05
5.70684e-05
6.90339e-05
5.68481e-05
6.90262e-05
6.97567e-05
7.1155e-05
7.29983e-05
6.99218e-05
7.11511e-05
7.31073e-05
6.97448e-05
4.95935e-05
5.64648e-05
6.90196e-05
6.97342e-05
5.66912e-05
6.90259e-05
7.11314e-05
7.32546e-05
6.99245e-05
7.31507e-05
7.11352e-05
6.97953e-05
6.97758e-05
8.65085e-05
7.26168e-05
7.26106e-05
7.26159e-05
7.26098e-05
8.6609e-05
5.44816e-05
5.75376e-05
3.58102e-05
6.84891e-05
5.4551e-05
5.75484e-05
3.58305e-05
6.85012e-05
8.64623e-05
7.26394e-05
7.26332e-05
5.47209e-05
6.85374e-05
5.76861e-05
3.62407e-05
3.61014e-05
6.85035e-05
5.48367e-05
5.47868e-05
6.85494e-05
5.76955e-05
3.62609e-05
3.61197e-05
6.8514e-05
5.49043e-05
6.97972e-05
5.17261e-05
6.90964e-05
5.84318e-05
6.90788e-05
5.82349e-05
6.98096e-05
7.10754e-05
7.35684e-05
6.9991e-05
7.1072e-05
7.36611e-05
6.97959e-05
5.15104e-05
6.90622e-05
5.79103e-05
6.97837e-05
6.90766e-05
5.81123e-05
7.10519e-05
7.37829e-05
6.99934e-05
7.36938e-05
7.10553e-05
6.97112e-05
6.96927e-05
6.97972e-05
5.17248e-05
5.84306e-05
6.90969e-05
5.82331e-05
6.90795e-05
6.98096e-05
7.10752e-05
7.35682e-05
6.99918e-05
7.10718e-05
7.3658e-05
6.9796e-05
5.15113e-05
5.79083e-05
6.90629e-05
6.97837e-05
5.81112e-05
6.9077e-05
7.10518e-05
7.37782e-05
6.99942e-05
7.36927e-05
7.10551e-05
6.97113e-05
6.96928e-05
8.70511e-05
7.25261e-05
7.252e-05
7.25255e-05
7.25194e-05
8.71366e-05
5.584e-05
3.73667e-05
6.86418e-05
5.83743e-05
5.57319e-05
3.75034e-05
6.86729e-05
5.59056e-05
3.73856e-05
6.8653e-05
5.83838e-05
5.57995e-05
3.75222e-05
6.86849e-05
8.70128e-05
7.25481e-05
7.25419e-05
8.69227e-05
7.25487e-05
7.25426e-05
5.60487e-05
6.87151e-05
5.85038e-05
3.79123e-05
3.77778e-05
6.86847e-05
5.61599e-05
5.61165e-05
6.87272e-05
5.85134e-05
3.79357e-05
3.77962e-05
6.86962e-05
5.62249e-05
6.97937e-05
6.97742e-05
6.97953e-05
6.97758e-05
8.65115e-05
7.26183e-05
7.26118e-05
7.26175e-05
7.2611e-05
8.66138e-05
5.44812e-05
3.56701e-05
6.8455e-05
5.75398e-05
5.43606e-05
6.84901e-05
3.58096e-05
5.45479e-05
3.56889e-05
6.8467e-05
5.75519e-05
5.44273e-05
6.85021e-05
3.58273e-05
8.64675e-05
7.26401e-05
7.26337e-05
8.63634e-05
7.26412e-05
7.26346e-05
5.47201e-05
6.85381e-05
5.76878e-05
3.62388e-05
6.85042e-05
5.48364e-05
3.61014e-05
5.47874e-05
6.85501e-05
5.77001e-05
3.62562e-05
6.85162e-05
5.49036e-05
3.61197e-05
6.97317e-05
6.97506e-05
6.97334e-05
6.97525e-05
8.67532e-05
7.25948e-05
7.25883e-05
8.66583e-05
7.25955e-05
7.2589e-05
5.54031e-05
3.70835e-05
5.81105e-05
6.86303e-05
6.85974e-05
3.69506e-05
5.55148e-05
5.5472e-05
3.71022e-05
5.81225e-05
6.86423e-05
6.861e-05
3.69687e-05
5.55792e-05
5.5181e-05
6.85519e-05
3.65285e-05
5.79717e-05
5.50666e-05
6.85851e-05
3.66637e-05
5.52465e-05
6.85642e-05
3.65468e-05
5.79835e-05
5.5134e-05
6.85969e-05
3.66832e-05
8.67959e-05
7.25727e-05
7.25663e-05
7.2572e-05
7.25656e-05
8.68885e-05
6.9744e-05
4.98487e-05
6.90327e-05
5.70668e-05
6.90248e-05
5.68455e-05
6.97551e-05
7.11534e-05
7.29785e-05
6.99174e-05
7.11496e-05
7.30911e-05
6.97432e-05
4.95919e-05
6.90183e-05
5.6462e-05
6.90245e-05
6.97327e-05
5.66896e-05
7.11299e-05
7.32391e-05
6.99203e-05
7.31324e-05
7.11336e-05
6.97692e-05
6.90348e-05
5.72182e-05
5.05858e-05
6.97576e-05
6.90449e-05
5.74314e-05
7.1092e-05
6.99591e-05
7.35345e-05
7.10956e-05
7.34377e-05
7.11155e-05
7.3298e-05
6.99565e-05
7.11118e-05
7.33989e-05
6.97704e-05
5.08217e-05
6.90594e-05
5.77789e-05
6.97824e-05
6.90472e-05
5.75716e-05
6.97678e-05
6.90341e-05
5.72136e-05
5.05855e-05
6.97561e-05
6.90442e-05
5.74288e-05
7.10903e-05
6.99556e-05
7.35128e-05
7.34191e-05
7.10938e-05
7.11137e-05
7.32777e-05
6.9953e-05
7.11101e-05
7.33782e-05
6.9769e-05
5.08213e-05
6.90586e-05
5.77759e-05
6.90466e-05
5.75669e-05
6.97809e-05
8.65151e-05
7.26127e-05
7.26179e-05
7.26118e-05
7.26171e-05
8.66113e-05
5.45443e-05
5.75469e-05
6.84996e-05
3.58281e-05
5.44787e-05
5.75412e-05
3.58081e-05
6.84888e-05
8.64642e-05
7.26353e-05
7.26406e-05
5.47905e-05
6.8548e-05
5.76952e-05
3.62582e-05
6.85165e-05
3.61214e-05
5.49002e-05
5.47216e-05
6.85371e-05
5.7689e-05
3.62379e-05
3.61004e-05
6.85069e-05
5.48301e-05
6.97936e-05
6.97737e-05
6.97334e-05
6.97525e-05
8.67522e-05
7.25892e-05
7.25944e-05
8.66582e-05
7.259e-05
7.25952e-05
5.54753e-05
3.71034e-05
5.81173e-05
6.86398e-05
3.69702e-05
6.86109e-05
5.55777e-05
5.54063e-05
3.70837e-05
5.81119e-05
6.86291e-05
6.86009e-05
3.69498e-05
5.55092e-05
5.52429e-05
6.8564e-05
3.65482e-05
5.79789e-05
3.66834e-05
5.51379e-05
6.85949e-05
5.51763e-05
6.85542e-05
3.65276e-05
5.7973e-05
5.50683e-05
6.85841e-05
3.66636e-05
8.67964e-05
7.25674e-05
7.25725e-05
7.25666e-05
7.25718e-05
8.68869e-05
6.97316e-05
6.97508e-05
6.9744e-05
4.98479e-05
6.90332e-05
5.70637e-05
6.90253e-05
5.68451e-05
6.97552e-05
7.11525e-05
7.29764e-05
6.99174e-05
7.11486e-05
7.30849e-05
6.97432e-05
4.95925e-05
6.90187e-05
5.64615e-05
6.9025e-05
6.97327e-05
5.66867e-05
7.1129e-05
7.32327e-05
6.99202e-05
7.313e-05
7.11327e-05
6.97693e-05
5.72162e-05
6.90354e-05
5.05869e-05
6.97576e-05
5.74305e-05
6.90454e-05
7.10917e-05
6.99597e-05
7.35304e-05
7.10953e-05
7.3435e-05
7.11152e-05
7.32972e-05
6.99572e-05
7.11116e-05
7.33961e-05
6.97704e-05
5.08206e-05
5.7778e-05
6.90598e-05
6.97825e-05
5.75696e-05
6.90478e-05
6.97679e-05
6.90346e-05
5.7213e-05
5.0586e-05
6.97562e-05
6.90447e-05
5.74257e-05
7.10895e-05
6.99555e-05
7.35093e-05
7.34145e-05
7.1093e-05
7.11129e-05
7.32751e-05
6.9953e-05
7.11092e-05
7.33744e-05
6.97691e-05
5.08202e-05
6.90592e-05
5.7773e-05
6.9047e-05
5.75665e-05
6.97811e-05
6.97432e-05
4.98567e-05
5.70474e-05
6.90319e-05
5.68586e-05
6.90243e-05
6.97542e-05
7.11283e-05
7.32472e-05
6.99217e-05
7.31409e-05
7.11329e-05
6.97433e-05
4.98511e-05
6.90321e-05
5.70623e-05
6.90243e-05
5.68464e-05
6.97544e-05
7.11288e-05
7.32331e-05
6.99189e-05
7.31284e-05
7.11326e-05
6.97668e-05
5.7226e-05
6.90336e-05
5.05709e-05
6.97554e-05
5.74103e-05
6.90434e-05
7.10888e-05
6.99574e-05
7.35218e-05
7.34285e-05
7.10931e-05
7.11129e-05
7.32885e-05
6.99549e-05
7.11086e-05
7.3387e-05
6.97682e-05
5.08287e-05
5.77586e-05
6.90577e-05
5.75785e-05
6.90462e-05
6.978e-05
6.97671e-05
6.90335e-05
5.72147e-05
5.05801e-05
6.97554e-05
6.90435e-05
5.74246e-05
7.10891e-05
6.99544e-05
7.35077e-05
7.34125e-05
7.10926e-05
7.11126e-05
7.32752e-05
6.99519e-05
7.1109e-05
7.33738e-05
6.97683e-05
5.08236e-05
6.90579e-05
5.77722e-05
6.9046e-05
5.75678e-05
6.97802e-05
8.65122e-05
7.26121e-05
7.26177e-05
7.26113e-05
7.26169e-05
8.66082e-05
5.45469e-05
3.56906e-05
6.84665e-05
5.75477e-05
6.84994e-05
5.44328e-05
3.58279e-05
5.44827e-05
3.56676e-05
6.84554e-05
5.75418e-05
3.58119e-05
5.43602e-05
6.84904e-05
8.64616e-05
7.26339e-05
7.26394e-05
7.26347e-05
8.63619e-05
7.26403e-05
5.47908e-05
6.85477e-05
5.76952e-05
3.62588e-05
6.85158e-05
3.61215e-05
5.49003e-05
5.47194e-05
6.85385e-05
5.76897e-05
3.62415e-05
3.61002e-05
6.85046e-05
5.48364e-05
6.97942e-05
6.97746e-05
6.97335e-05
6.97525e-05
8.67482e-05
7.25887e-05
7.25942e-05
8.66565e-05
7.25894e-05
7.2595e-05
5.54759e-05
3.71048e-05
5.81177e-05
6.86407e-05
3.69706e-05
6.86082e-05
5.5579e-05
5.54052e-05
3.70891e-05
5.81123e-05
6.86307e-05
6.85983e-05
3.69473e-05
5.55149e-05
5.5244e-05
6.85634e-05
3.65485e-05
5.79791e-05
3.66834e-05
5.51385e-05
6.85951e-05
5.51807e-05
6.85525e-05
3.65276e-05
5.79738e-05
5.50673e-05
6.85853e-05
3.66676e-05
8.6795e-05
7.25667e-05
7.25723e-05
7.25661e-05
7.25716e-05
8.68832e-05
6.97323e-05
6.97514e-05
6.9745e-05
4.98566e-05
5.70657e-05
6.9033e-05
5.68513e-05
6.90252e-05
6.97561e-05
7.11546e-05
7.29939e-05
6.99208e-05
7.31026e-05
7.11508e-05
6.97442e-05
4.95867e-05
5.64682e-05
6.90187e-05
5.66884e-05
6.97337e-05
6.90249e-05
7.11312e-05
7.32504e-05
6.99238e-05
7.31475e-05
7.11349e-05
6.97439e-05
4.98561e-05
5.70648e-05
6.90326e-05
5.68468e-05
6.90248e-05
6.97551e-05
7.11534e-05
7.29818e-05
6.99179e-05
7.11496e-05
7.30845e-05
6.97432e-05
4.95862e-05
5.64634e-05
6.90183e-05
6.97327e-05
5.66876e-05
6.90245e-05
7.11299e-05
7.32326e-05
6.99207e-05
7.31341e-05
7.11335e-05
6.97688e-05
5.72194e-05
6.90345e-05
5.058e-05
6.97572e-05
5.74278e-05
6.90445e-05
7.10916e-05
6.9959e-05
7.35267e-05
7.34316e-05
7.10951e-05
7.1115e-05
7.32945e-05
6.99564e-05
7.11114e-05
7.33922e-05
6.977e-05
5.08294e-05
5.77754e-05
6.90589e-05
5.75724e-05
6.9047e-05
6.9782e-05
6.97677e-05
5.72148e-05
6.90341e-05
5.05795e-05
6.97561e-05
5.74268e-05
6.90441e-05
7.10902e-05
6.9956e-05
7.35079e-05
7.34201e-05
7.10936e-05
7.11136e-05
7.32802e-05
6.99534e-05
7.11101e-05
7.33738e-05
6.97689e-05
5.08289e-05
5.77743e-05
6.90585e-05
5.7568e-05
6.90466e-05
6.97808e-05
6.97933e-05
6.97736e-05
6.97952e-05
6.97756e-05
8.67495e-05
7.25933e-05
7.25871e-05
8.66512e-05
7.25941e-05
7.25879e-05
5.54069e-05
3.70873e-05
5.81087e-05
6.86292e-05
5.55141e-05
3.69496e-05
6.85972e-05
5.54717e-05
3.71065e-05
5.81178e-05
6.86412e-05
5.55818e-05
3.69694e-05
6.86079e-05
5.51788e-05
6.8551e-05
3.65285e-05
5.79698e-05
5.50675e-05
3.66665e-05
6.85838e-05
5.52492e-05
6.85622e-05
3.6547e-05
5.79797e-05
5.51345e-05
3.6685e-05
6.85958e-05
8.679e-05
7.25714e-05
7.25652e-05
8.68837e-05
7.25707e-05
7.25645e-05
6.97314e-05
6.97504e-05
6.97334e-05
6.97524e-05
6.97092e-05
6.96908e-05
6.97112e-05
6.96926e-05
8.70578e-05
7.25274e-05
7.25211e-05
7.25268e-05
7.25204e-05
8.71411e-05
5.58397e-05
3.73671e-05
6.86424e-05
5.83763e-05
5.57296e-05
6.86739e-05
3.74997e-05
5.59022e-05
3.73865e-05
6.86549e-05
5.83875e-05
5.58004e-05
6.86859e-05
3.75165e-05
8.70163e-05
7.25493e-05
7.25429e-05
8.69285e-05
7.255e-05
7.25436e-05
5.60455e-05
6.87163e-05
5.85062e-05
3.79102e-05
6.86853e-05
5.61569e-05
3.77783e-05
5.6118e-05
6.87282e-05
5.85176e-05
3.79293e-05
6.86979e-05
5.622e-05
3.77976e-05
6.97958e-05
5.17254e-05
6.90938e-05
5.8428e-05
6.90801e-05
5.82305e-05
6.98081e-05
7.10737e-05
7.355e-05
6.99875e-05
7.10704e-05
7.36393e-05
6.97944e-05
5.15099e-05
6.9062e-05
5.79057e-05
6.90753e-05
6.97823e-05
5.81089e-05
7.10504e-05
7.37596e-05
6.999e-05
7.36761e-05
7.10536e-05
8.70575e-05
7.2522e-05
7.25272e-05
7.25214e-05
7.25266e-05
8.71397e-05
5.59024e-05
3.73872e-05
6.86553e-05
5.83821e-05
6.86831e-05
5.58025e-05
3.75202e-05
5.58347e-05
3.73673e-05
6.8645e-05
5.83774e-05
3.7498e-05
5.57335e-05
6.86727e-05
8.7015e-05
7.2544e-05
7.25491e-05
7.25446e-05
8.69301e-05
7.25498e-05
5.61189e-05
6.87249e-05
5.85129e-05
3.79293e-05
6.86986e-05
3.77968e-05
5.62229e-05
5.60507e-05
6.87145e-05
5.85076e-05
3.79089e-05
3.77791e-05
6.86883e-05
5.61536e-05
6.97096e-05
6.96909e-05
6.97959e-05
5.17243e-05
6.90964e-05
5.84255e-05
6.90786e-05
5.823e-05
6.98083e-05
7.1073e-05
7.35453e-05
6.99876e-05
7.10696e-05
7.36361e-05
6.97946e-05
5.15101e-05
6.9062e-05
5.79053e-05
6.90766e-05
6.97824e-05
5.81064e-05
7.10497e-05
7.37573e-05
6.99901e-05
7.3672e-05
7.10529e-05
6.97951e-05
5.17325e-05
5.84134e-05
6.90928e-05
5.82404e-05
6.90798e-05
6.98071e-05
7.1073e-05
7.35596e-05
6.99894e-05
7.36488e-05
7.10689e-05
6.97935e-05
5.14966e-05
5.79164e-05
6.90616e-05
5.80928e-05
6.97815e-05
6.90745e-05
7.10489e-05
7.37697e-05
6.99918e-05
7.36859e-05
7.10529e-05
6.97951e-05
5.17279e-05
6.90929e-05
5.84249e-05
6.90797e-05
5.8231e-05
6.98073e-05
7.10725e-05
7.35448e-05
6.99863e-05
7.10691e-05
7.3635e-05
6.97937e-05
5.15049e-05
6.90614e-05
5.79063e-05
6.97815e-05
6.90747e-05
5.81055e-05
7.1049e-05
7.37559e-05
6.99887e-05
7.36691e-05
7.10523e-05
8.70559e-05
7.25214e-05
7.2527e-05
7.25209e-05
7.25264e-05
8.71348e-05
5.59043e-05
3.73874e-05
6.86534e-05
5.83834e-05
6.86845e-05
5.58021e-05
3.75201e-05
5.58377e-05
3.73651e-05
6.86432e-05
5.8378e-05
3.75033e-05
5.57324e-05
6.86743e-05
8.70118e-05
7.25434e-05
7.25489e-05
7.2544e-05
8.69273e-05
7.25496e-05
5.61194e-05
6.87266e-05
5.85131e-05
3.79326e-05
6.86965e-05
3.77975e-05
5.62188e-05
5.6052e-05
6.87165e-05
5.85083e-05
3.79142e-05
3.77768e-05
6.86862e-05
5.6148e-05
6.97101e-05
6.96916e-05
6.97968e-05
5.1734e-05
5.84283e-05
6.9094e-05
5.82354e-05
6.90807e-05
6.98091e-05
7.10751e-05
7.35648e-05
6.99909e-05
7.36538e-05
7.10718e-05
6.97955e-05
5.15038e-05
5.7911e-05
6.90624e-05
5.81086e-05
6.97833e-05
6.90757e-05
7.10518e-05
7.37744e-05
6.99933e-05
7.36893e-05
7.1055e-05
6.97957e-05
5.17335e-05
5.84268e-05
6.90935e-05
5.82314e-05
6.90802e-05
6.98079e-05
7.10735e-05
7.35515e-05
6.9988e-05
7.10703e-05
7.36352e-05
6.97943e-05
5.15033e-05
5.79067e-05
6.9062e-05
6.97822e-05
5.81075e-05
6.90752e-05
7.10502e-05
7.37561e-05
6.99903e-05
7.36757e-05
7.10534e-05
6.97091e-05
6.96905e-05
6.97111e-05
6.96925e-05
1.59857e-05
1.5986e-05
1.56006e-05
1.58593e-05
1.58595e-05
1.62837e-05
1.64159e-05
3.44315e-05
1.72706e-05
2.26382e-05
2.26354e-05
1.54945e-05
1.54947e-05
1.51931e-05
1.53775e-05
1.53777e-05
1.57732e-05
1.58981e-05
3.61877e-05
2.36619e-05
2.36722e-05
1.76323e-05
3.60496e-05
2.37666e-05
2.37657e-05
3.44292e-05
2.25612e-05
2.25616e-05
1.72602e-05
3.42811e-05
2.26227e-05
2.26305e-05
3.56124e-05
1.75123e-05
2.34528e-05
2.34642e-05
2.33917e-05
2.33912e-05
3.57564e-05
3.44221e-05
1.72593e-05
2.26207e-05
2.2643e-05
3.56177e-05
1.7513e-05
2.34792e-05
2.34623e-05
2.3378e-05
2.33884e-05
3.57501e-05
3.44356e-05
2.25639e-05
2.25522e-05
1.72609e-05
2.26353e-05
3.42836e-05
2.26291e-05
3.56128e-05
1.75143e-05
2.34593e-05
2.34665e-05
2.33947e-05
2.33773e-05
3.57563e-05
3.56165e-05
1.75024e-05
2.34778e-05
2.34724e-05
3.57556e-05
2.33741e-05
2.33827e-05
3.61883e-05
2.36783e-05
2.3679e-05
1.76189e-05
3.60441e-05
2.37456e-05
2.37575e-05
3.61807e-05
2.36688e-05
2.36771e-05
1.76198e-05
2.37527e-05
3.60521e-05
2.37705e-05
3.61911e-05
2.36813e-05
2.36693e-05
1.76186e-05
2.37634e-05
3.60482e-05
2.3754e-05
1.59857e-05
1.5986e-05
1.56006e-05
1.58592e-05
1.58596e-05
1.62837e-05
1.64159e-05
1.59855e-05
1.59857e-05
1.56002e-05
1.58591e-05
1.58592e-05
1.62835e-05
1.64157e-05
1.59856e-05
1.59856e-05
1.56002e-05
1.58591e-05
1.58592e-05
1.62835e-05
1.64157e-05
1.54943e-05
1.56137e-05
1.56139e-05
1.57354e-05
1.57356e-05
1.61533e-05
1.60248e-05
1.54944e-05
1.56136e-05
1.5614e-05
1.57353e-05
1.57357e-05
1.61533e-05
1.60248e-05
1.5494e-05
1.56135e-05
1.56136e-05
1.57351e-05
1.57353e-05
1.61531e-05
1.60246e-05
1.54939e-05
1.56135e-05
1.56136e-05
1.57352e-05
1.57352e-05
1.61531e-05
1.60246e-05
1.82884e-05
2.58814e-05
3.0147e-05
1.70029e-05
3.00163e-05
1.69696e-05
1.83328e-05
2.07055e-05
3.69468e-05
4.28135e-05
2.53661e-05
2.52562e-05
3.68065e-05
2.07658e-05
1.82985e-05
2.58823e-05
1.69943e-05
3.01555e-05
1.69769e-05
3.00121e-05
1.83165e-05
2.05657e-05
2.49379e-05
3.63977e-05
4.25732e-05
2.05015e-05
2.50513e-05
3.65375e-05
1.8186e-05
2.5619e-05
1.68892e-05
2.95884e-05
1.81699e-05
1.69042e-05
2.97281e-05
2.07032e-05
3.69397e-05
4.28145e-05
2.53666e-05
2.52538e-05
3.68068e-05
2.07665e-05
3.47335e-05
1.73262e-05
2.29139e-05
2.29148e-05
2.28176e-05
2.28245e-05
3.48771e-05
1.54944e-05
1.54948e-05
1.51932e-05
1.53774e-05
1.53778e-05
1.57732e-05
1.58981e-05
1.54943e-05
1.54944e-05
1.51927e-05
1.53773e-05
1.53774e-05
1.5773e-05
1.58979e-05
1.54943e-05
1.54944e-05
1.51927e-05
1.53773e-05
1.53774e-05
1.5773e-05
1.58979e-05
1.88813e-05
2.75199e-05
3.18636e-05
1.74464e-05
3.17236e-05
1.73961e-05
1.89434e-05
2.1424e-05
2.62249e-05
3.80239e-05
4.39939e-05
2.13559e-05
2.63378e-05
3.81506e-05
1.87727e-05
2.72414e-05
3.12976e-05
1.72761e-05
1.87227e-05
3.14287e-05
1.73193e-05
2.15835e-05
3.85507e-05
4.42203e-05
2.6673e-05
2.65622e-05
3.84235e-05
2.16652e-05
1.88954e-05
2.75213e-05
1.74326e-05
3.18658e-05
1.74055e-05
3.17216e-05
1.89176e-05
2.14241e-05
2.6227e-05
3.80251e-05
4.3995e-05
2.13552e-05
2.63394e-05
3.81572e-05
1.87598e-05
2.7244e-05
1.72841e-05
3.12946e-05
1.87351e-05
1.73103e-05
3.14366e-05
2.15879e-05
3.8542e-05
4.42222e-05
2.66776e-05
2.65595e-05
3.8425e-05
2.16358e-05
3.64788e-05
1.77107e-05
2.40743e-05
2.40711e-05
2.39593e-05
2.39655e-05
3.66186e-05
3.47311e-05
1.7338e-05
2.28926e-05
2.29012e-05
3.48761e-05
2.2831e-05
2.28341e-05
3.53168e-05
1.74221e-05
2.3107e-05
2.31098e-05
3.51725e-05
2.31753e-05
2.31789e-05
1.83012e-05
2.58875e-05
3.01511e-05
1.69931e-05
3.00182e-05
1.69781e-05
1.83181e-05
2.05706e-05
2.49391e-05
3.63947e-05
4.25719e-05
3.65406e-05
2.05017e-05
2.50528e-05
1.81879e-05
2.56162e-05
2.95939e-05
1.68902e-05
2.97253e-05
1.81728e-05
1.6904e-05
2.07037e-05
3.6953e-05
4.28155e-05
2.53648e-05
3.681e-05
2.52556e-05
2.0771e-05
1.82893e-05
2.58874e-05
3.01505e-05
1.69924e-05
3.00169e-05
1.69773e-05
1.83327e-05
2.05647e-05
2.49578e-05
3.63959e-05
4.2575e-05
2.05058e-05
3.65293e-05
2.50413e-05
1.8201e-05
2.56161e-05
2.95919e-05
1.68897e-05
1.81602e-05
2.97241e-05
1.69034e-05
2.07074e-05
3.69429e-05
4.28185e-05
2.53557e-05
3.68088e-05
2.0766e-05
2.52725e-05
1.84588e-05
3.04441e-05
1.70718e-05
2.64173e-05
1.844e-05
3.05789e-05
1.70881e-05
2.113e-05
2.60064e-05
4.35304e-05
3.77629e-05
2.58986e-05
3.76234e-05
2.11993e-05
2.0983e-05
3.72178e-05
2.55754e-05
4.32955e-05
2.56818e-05
2.09122e-05
3.73535e-05
1.85849e-05
2.66974e-05
3.10063e-05
1.71931e-05
3.08714e-05
1.71756e-05
1.86051e-05
1.8474e-05
3.04431e-05
1.70712e-05
2.6418e-05
1.84297e-05
3.05764e-05
1.70879e-05
2.11326e-05
2.60037e-05
4.35337e-05
3.77542e-05
3.76202e-05
2.59165e-05
2.11961e-05
2.09785e-05
3.72179e-05
2.55916e-05
4.32984e-05
2.09159e-05
3.73501e-05
2.56807e-05
1.85727e-05
2.66974e-05
3.10039e-05
1.71925e-05
3.08703e-05
1.71746e-05
1.86185e-05
3.4738e-05
1.73386e-05
2.29154e-05
2.28996e-05
2.28319e-05
2.28205e-05
3.48698e-05
3.53112e-05
1.74234e-05
2.30978e-05
2.31066e-05
2.31904e-05
3.51793e-05
2.31786e-05
1.82902e-05
2.58904e-05
3.01563e-05
1.70015e-05
3.00135e-05
1.69718e-05
1.83347e-05
2.05702e-05
2.49559e-05
3.63972e-05
4.25756e-05
3.65379e-05
2.0503e-05
2.50407e-05
1.82024e-05
2.56153e-05
2.95883e-05
1.68849e-05
2.97295e-05
1.8161e-05
1.69119e-05
2.07055e-05
3.69517e-05
4.28187e-05
2.53559e-05
3.68107e-05
2.52697e-05
2.0772e-05
1.83002e-05
2.58891e-05
1.70005e-05
3.01471e-05
1.69714e-05
3.00184e-05
1.83173e-05
2.05673e-05
2.49428e-05
3.63943e-05
4.2575e-05
2.05011e-05
3.65312e-05
2.50552e-05
1.81869e-05
2.56154e-05
1.68846e-05
2.95925e-05
1.81718e-05
1.69111e-05
2.9722e-05
2.07031e-05
3.69384e-05
4.2818e-05
2.53736e-05
3.68049e-05
2.07689e-05
2.52606e-05
1.84763e-05
3.04403e-05
1.7066e-05
2.64165e-05
1.84307e-05
3.05811e-05
1.70975e-05
2.11317e-05
2.60007e-05
4.35347e-05
3.77639e-05
2.59149e-05
3.76234e-05
2.12006e-05
2.09848e-05
3.7219e-05
2.55894e-05
4.32993e-05
2.56781e-05
2.0914e-05
3.73542e-05
1.85741e-05
2.66994e-05
3.10099e-05
1.72031e-05
3.08684e-05
1.71686e-05
1.862e-05
1.84582e-05
1.70656e-05
3.04438e-05
2.64162e-05
1.84387e-05
1.70966e-05
3.05744e-05
2.11286e-05
2.60209e-05
4.35337e-05
3.77562e-05
3.76154e-05
2.59023e-05
2.11988e-05
2.09821e-05
3.72175e-05
2.55779e-05
4.32983e-05
2.09114e-05
3.7352e-05
2.5687e-05
1.85835e-05
2.66989e-05
1.72023e-05
3.10016e-05
1.71682e-05
3.08713e-05
1.86048e-05
1.82876e-05
2.58877e-05
1.70019e-05
3.01542e-05
1.69686e-05
3.00094e-05
1.83324e-05
2.07026e-05
3.69427e-05
4.28145e-05
2.53536e-05
2.52628e-05
3.68003e-05
2.07698e-05
1.84729e-05
3.0443e-05
1.70636e-05
2.64197e-05
1.84279e-05
3.05717e-05
1.70985e-05
2.11325e-05
2.60119e-05
4.35317e-05
3.77535e-05
2.11956e-05
2.58962e-05
3.76235e-05
2.09808e-05
3.72161e-05
2.55752e-05
4.32921e-05
2.09164e-05
2.56822e-05
3.73455e-05
1.85717e-05
2.66907e-05
3.10011e-05
1.72056e-05
1.8616e-05
3.08694e-05
1.71655e-05
1.84744e-05
1.70639e-05
3.04369e-05
2.64149e-05
1.84277e-05
1.70988e-05
3.05795e-05
2.11285e-05
2.59993e-05
4.35314e-05
3.77562e-05
3.76166e-05
2.59074e-05
2.1202e-05
2.09853e-05
3.72125e-05
2.55826e-05
4.32937e-05
2.09126e-05
3.73453e-05
2.56728e-05
1.85706e-05
2.66968e-05
1.72056e-05
3.10065e-05
1.71658e-05
3.08643e-05
1.86191e-05
3.47302e-05
1.73377e-05
2.29017e-05
2.29064e-05
2.28221e-05
2.28339e-05
3.4876e-05
3.53215e-05
1.74248e-05
2.31113e-05
2.3099e-05
2.31765e-05
3.51753e-05
2.3185e-05
1.83001e-05
2.58881e-05
1.69939e-05
3.01487e-05
1.69772e-05
3.00196e-05
1.83163e-05
2.05478e-05
2.49486e-05
3.64024e-05
4.25766e-05
2.50501e-05
2.05176e-05
3.65201e-05
1.81864e-05
2.56158e-05
1.68896e-05
2.95935e-05
1.69043e-05
1.81723e-05
2.97214e-05
2.07177e-05
3.69321e-05
4.28186e-05
2.53687e-05
2.5263e-05
3.68153e-05
2.07512e-05
1.84576e-05
1.70702e-05
3.04394e-05
2.64207e-05
1.84375e-05
1.70903e-05
3.05804e-05
2.11276e-05
2.60089e-05
4.35323e-05
3.7755e-05
2.1197e-05
2.58969e-05
3.7619e-05
2.09808e-05
3.72223e-05
2.55732e-05
4.32944e-05
2.09116e-05
2.56806e-05
3.73551e-05
1.8582e-05
2.66932e-05
1.71953e-05
3.10104e-05
1.86048e-05
1.71726e-05
3.08675e-05
1.84582e-05
1.70708e-05
3.04444e-05
2.64167e-05
1.84397e-05
1.70898e-05
3.05747e-05
2.11444e-05
2.60167e-05
4.35355e-05
3.77429e-05
3.76334e-05
2.59033e-05
2.11807e-05
2.09595e-05
3.72243e-05
2.55814e-05
4.32985e-05
2.09262e-05
3.734e-05
2.56874e-05
1.85846e-05
2.66976e-05
1.71955e-05
3.1002e-05
1.71741e-05
3.08725e-05
1.86045e-05
3.53174e-05
1.74333e-05
2.30937e-05
2.31006e-05
3.51759e-05
2.31847e-05
2.31874e-05
3.64711e-05
1.77212e-05
2.40374e-05
2.40571e-05
3.66216e-05
2.39742e-05
2.39723e-05
1.88981e-05
2.75262e-05
3.18623e-05
1.7427e-05
3.17257e-05
1.74087e-05
1.89181e-05
2.14055e-05
2.6231e-05
3.80285e-05
4.39944e-05
3.81508e-05
2.1361e-05
2.63408e-05
1.87587e-05
2.72399e-05
3.12991e-05
1.72876e-05
3.14342e-05
1.87365e-05
1.7307e-05
2.15994e-05
3.85398e-05
4.4224e-05
2.66765e-05
3.84319e-05
2.65592e-05
2.16361e-05
1.8884e-05
2.75272e-05
3.18588e-05
1.74263e-05
3.17259e-05
1.74085e-05
1.89431e-05
2.14243e-05
2.62423e-05
3.80238e-05
4.39961e-05
2.1358e-05
3.81515e-05
2.63429e-05
1.8774e-05
2.72388e-05
3.12983e-05
1.72871e-05
1.87257e-05
3.1431e-05
1.73065e-05
2.15845e-05
3.85464e-05
4.42268e-05
2.66905e-05
3.84219e-05
2.16673e-05
2.65656e-05
3.64799e-05
1.77221e-05
2.40767e-05
2.40442e-05
2.39738e-05
2.39602e-05
3.66176e-05
1.88916e-05
2.75285e-05
3.1864e-05
1.74406e-05
3.17252e-05
1.73995e-05
1.89146e-05
2.14079e-05
2.62418e-05
3.80281e-05
4.39951e-05
3.81536e-05
2.13625e-05
2.63361e-05
1.8771e-05
2.72417e-05
3.12962e-05
1.72815e-05
3.14348e-05
1.87279e-05
1.73159e-05
2.16e-05
3.85469e-05
4.42284e-05
2.66787e-05
3.84296e-05
2.65718e-05
2.16373e-05
1.88961e-05
2.75282e-05
1.744e-05
3.18571e-05
1.73987e-05
3.17268e-05
1.89186e-05
2.14058e-05
2.62319e-05
3.80217e-05
4.39989e-05
2.13591e-05
3.81567e-05
2.63427e-05
1.87588e-05
2.724e-05
1.72805e-05
3.12989e-05
1.87347e-05
1.73154e-05
3.14318e-05
2.15958e-05
3.85532e-05
4.42255e-05
2.66826e-05
3.84172e-05
2.16402e-05
2.65657e-05
1.88819e-05
2.75262e-05
1.74457e-05
3.1858e-05
1.73952e-05
3.17233e-05
1.89437e-05
2.14305e-05
2.62361e-05
3.802e-05
4.39939e-05
2.6335e-05
2.13531e-05
3.81467e-05
1.87743e-05
2.72379e-05
1.7278e-05
3.12927e-05
1.73177e-05
1.87235e-05
3.14301e-05
2.15785e-05
3.85333e-05
4.42233e-05
2.66808e-05
2.65597e-05
3.8424e-05
2.16674e-05
3.64764e-05
1.77214e-05
2.40468e-05
2.40596e-05
2.39606e-05
2.3976e-05
3.66093e-05
1.88978e-05
2.75258e-05
1.74317e-05
3.1857e-05
1.74059e-05
3.1728e-05
1.8918e-05
2.14066e-05
2.62349e-05
3.80323e-05
4.39976e-05
2.63349e-05
2.13676e-05
3.81466e-05
1.87586e-05
2.72401e-05
1.7286e-05
3.12999e-05
1.73103e-05
1.87361e-05
3.14312e-05
2.16013e-05
3.85494e-05
4.42271e-05
2.66618e-05
2.65742e-05
3.84264e-05
2.16368e-05
3.60233e-05
3.60197e-05
3.60197e-05
3.60085e-05
3.39295e-05
3.38855e-05
3.38855e-05
3.39585e-05
3.21567e-05
3.20021e-05
3.2002e-05
3.19436e-05
3.05324e-05
3.02212e-05
3.02209e-05
2.99759e-05
2.90294e-05
2.85444e-05
2.85439e-05
2.81075e-05
2.76308e-05
2.69763e-05
2.69758e-05
2.63748e-05
2.63253e-05
2.55191e-05
2.55189e-05
2.47922e-05
2.5105e-05
2.41724e-05
2.41722e-05
2.33635e-05
2.39642e-05
2.29374e-05
2.29373e-05
2.20888e-05
2.28984e-05
2.1813e-05
2.18128e-05
2.09698e-05
2.19042e-05
2.07968e-05
2.07965e-05
1.99964e-05
2.09782e-05
1.98858e-05
1.98854e-05
1.9163e-05
2.01155e-05
1.90779e-05
1.90774e-05
1.84694e-05
1.93147e-05
1.837e-05
1.83694e-05
1.79095e-05
1.85749e-05
1.77589e-05
1.77582e-05
1.74787e-05
1.78936e-05
1.72428e-05
1.72421e-05
1.71668e-05
1.72684e-05
1.6821e-05
1.68203e-05
1.69825e-05
1.66972e-05
1.64925e-05
1.64918e-05
1.69399e-05
1.61786e-05
1.62574e-05
1.62566e-05
1.70324e-05
1.61155e-05
1.72521e-05
3.62977e-05
3.62919e-05
3.62919e-05
3.62977e-05
3.62919e-05
3.62919e-05
3.62908e-05
3.62908e-05
3.62908e-05
3.62908e-05
3.62919e-05
3.62919e-05
3.62977e-05
3.62919e-05
3.62919e-05
3.62978e-05
3.60085e-05
3.42652e-05