/*--------------------------------*- C++ -*----------------------------------*\
| =========                 |                                                 |
| \\      /  F ield         | OpenFOAM: The Open Source CFD Toolbox           |
|  \\    /   O peration     | Version:  2312                                  |
|   \\  /    A nd           | Website:  www.openfoam.com                      |
|    \\/     M anipulation  |                                                 |
\*---------------------------------------------------------------------------*/
FoamFile
{
    version     2.0;
    format      ascii;
    arch        "LSB;label=32;scalar=64";
    class       surfaceScalarField;
    location    "800";
    object      phi;
}
// * * * * * * * * * * * * * * * * * * * * * * * * * * * * * * * * * * * * * //

dimensions      [0 3 -1 0 0 0 0];

oriented        oriented;

internalField   nonuniform List<scalar> 
124832
(
-8.75846e-07
-8.82703e-07
4.5608e-07
4.5691e-07
0.00114043
-0.00113959
-1.519e-06
8.77104e-07
4.45344e-07
0.00113302
-5.32575e-07
1.10753e-06
1.27608e-07
7.24762e-07
-5.90765e-07
-1.27338e-06
5.84013e-08
-0.00113244
-8.56694e-07
-8.5787e-07
-0.00114291
4.42857e-07
4.43366e-07
0.00114374
-0.00113482
-1.51675e-06
8.57212e-07
4.19062e-07
0.00113536
-5.21554e-07
1.11693e-06
1.34215e-07
7.32379e-07
-5.75175e-07
-1.2593e-06
6.76663e-08
-0.00113469
-1.51392e-06
8.57629e-07
4.24547e-07
0.00113523
-5.21549e-07
1.11431e-06
1.34232e-07
7.3238e-07
-5.7537e-07
-1.25954e-06
6.77868e-08
-0.000276279
1.54559e-06
1.50858e-06
-4.99821e-07
-5.0294e-07
0.000274228
1.56162e-06
1.52209e-06
-5.07841e-07
-5.16021e-07
0.00027407
-0.00027613
-1.15821e-06
-1.11536e-06
0.000276354
-0.000274237
7.5762e-08
8.1198e-08
4.36021e-07
0.0011326
-5.35286e-07
1.15047e-06
1.30601e-07
7.30231e-07
-5.90773e-07
-1.27884e-06
5.83783e-08
-0.00113201
8.71215e-07
4.36065e-07
0.00113266
1.14773e-06
1.33301e-07
7.29948e-07
-5.90889e-07
-1.27878e-06
5.81569e-08
-0.00113208
-1.55644e-06
-5.35618e-07
0.00113427
8.6145e-07
-0.00113374
4.39142e-07
-1.55808e-06
1.41455e-07
-5.30001e-07
-1.26865e-06
6.53769e-08
-5.79366e-07
7.36152e-07
1.15285e-06
0.00113435
8.62003e-07
-0.0011338
4.28239e-07
-1.55547e-06
1.38327e-07
-5.27359e-07
-1.26853e-06
6.52198e-08
-5.79245e-07
7.35805e-07
-1.11523e-06
0.000276334
-0.00027422
7.5811e-08
7.84655e-08
4.34839e-07
0.00113358
-5.32805e-07
1.11035e-06
1.27556e-07
7.30203e-07
-5.90749e-07
-1.27869e-06
5.86041e-08
-0.001133
-1.55373e-06
8.76201e-07
4.36146e-07
0.00113255
-5.38315e-07
1.14228e-06
1.33375e-07
7.30291e-07
-5.9074e-07
-1.27859e-06
5.49922e-08
-0.00113197
0.00113527
8.62607e-07
-0.00113472
4.27375e-07
-1.51841e-06
1.32474e-07
-5.24643e-07
-1.2685e-06
6.55754e-08
-5.79283e-07
7.36016e-07
1.14738e-06
0.00113424
8.61332e-07
-0.00113369
4.28661e-07
-1.55005e-06
1.38289e-07
-5.30107e-07
-1.26838e-06
6.2301e-08
-5.76414e-07
7.36141e-07
8.62052e-07
-0.00113427
4.32688e-07
-1.5181e-06
1.3254e-07
-5.24395e-07
-1.26288e-06
6.54357e-08
7.30507e-07
-5.78951e-07
1.1445e-06
0.00113386
8.61443e-07
-0.0011333
4.28557e-07
-1.54695e-06
1.35518e-07
-5.27019e-07
-1.25994e-06
5.87666e-08
-5.73361e-07
7.27783e-07
-5.10929e-07
-5.15734e-07
0.000274046
-0.000276092
-1.10989e-06
0.00027631
-0.00027421
7.60789e-08
8.11293e-08
7.76158e-07
2.5522e-07
0.00113308
1.0664e-06
1.15367e-07
7.27228e-07
-5.87919e-07
5.8612e-08
-1.27584e-06
-1.58658e-06
-0.00113209
-5.43548e-07
8.62382e-07
-0.00113414
4.27004e-07
-1.51255e-06
1.32607e-07
-5.2433e-07
-1.26314e-06
6.55261e-08
7.30483e-07
-5.79235e-07
1.10714e-06
0.00113484
8.62188e-07
-0.00113428
4.27066e-07
-1.50998e-06
1.32538e-07
-5.24485e-07
-1.26543e-06
6.57147e-08
-5.79165e-07
7.33092e-07
-0.000274182
7.58385e-08
7.8579e-08
1.55952e-06
1.51706e-06
-5.00098e-07
-5.05659e-07
0.000274283
4.1475e-07
0.00113482
-5.30078e-07
1.15984e-06
1.42944e-07
7.37891e-07
-5.75512e-07
-1.26516e-06
6.75437e-08
-1.5541e-06
8.57453e-07
4.25765e-07
0.00113489
-5.27271e-07
1.15455e-06
1.39915e-07
7.37791e-07
-5.75365e-07
-1.2649e-06
6.42264e-08
-5.00408e-07
-5.02449e-07
0.000274266
4.24924e-07
0.00113581
-5.21921e-07
1.11701e-06
1.34079e-07
7.37898e-07
-5.755e-07
-1.26494e-06
6.78017e-08
-1.54867e-06
8.56554e-07
4.26223e-07
0.00113478
-5.2724e-07
1.14905e-06
1.39938e-07
7.37972e-07
-5.72525e-07
-1.26488e-06
6.45229e-08
8.56632e-07
4.26098e-07
0.00113439
-5.24232e-07
1.14612e-06
1.37117e-07
7.29701e-07
-5.69519e-07
6.10498e-08
-1.25636e-06
-5.00338e-07
-5.0529e-07
0.000274253
8.57501e-07
4.24578e-07
0.00113538
-5.21664e-07
1.10877e-06
1.34177e-07
7.34927e-07
-5.75357e-07
6.79721e-08
-1.26185e-06
-8.65123e-11
9.36475e-08
0.000237628
-0.000237702
-1.06106e-08
-8.44722e-09
-3.8013e-09
1.51359e-07
-2.06692e-08
0.00019805
-0.000198177
4.00352e-11
2.76893e-07
0.000237945
-9.49552e-08
-1.31051e-08
-0.000238114
1.50006e-08
3.1067e-08
0.000197841
-5.46541e-09
-0.000197882
-1.49457e-08
5.47179e-09
9.92821e-05
-9.92726e-05
9.35382e-08
-1.08584e-10
0.000237615
-0.000237689
-8.49185e-09
-1.05409e-08
-3.94758e-09
1.51314e-07
-2.07565e-08
0.000198031
-0.000198158
2.7678e-07
2.72396e-10
0.000237932
-1.3485e-08
-9.49078e-08
-0.0002381
1.53891e-08
3.08809e-08
0.000197824
-5.81977e-09
-0.000197864
4.61898e-07
4.35332e-07
0.00114019
-8.76851e-07
-0.00113934
4.56627e-07
4.84299e-07
0.00114001
-0.0011392
4.06481e-07
4.29107e-07
0.00113994
-1.04314e-06
-0.00113896
-0.00114209
4.55795e-07
4.50864e-07
0.0011427
-0.00114187
4.50317e-07
4.50997e-07
0.00114249
-0.00114167
4.50439e-07
4.50697e-07
0.00114245
-0.00114163
4.5037e-07
4.50747e-07
-9.38061e-08
-1.81034e-09
0.000261357
-0.000261286
-2.74768e-08
5.21638e-08
4.26998e-07
1.11183e-06
0.0011337
8.71846e-07
-1.26972e-06
6.08185e-08
-5.86695e-07
7.26567e-07
-1.52068e-06
1.29162e-07
-5.29958e-07
-0.00113312
4.78038e-09
-3.11522e-08
0.000254114
2.01943e-08
-0.000254149
4.04518e-08
-1.77471e-08
0.00113384
9.24095e-07
-1.38036e-06
5.74481e-07
-1.20855e-06
7.7143e-07
-0.00113308
4.27404e-09
6.75494e-08
9.93322e-05
-9.9404e-05
-1.48816e-08
7.80122e-09
9.92748e-05
-9.92677e-05
-4.59163e-10
-9.38088e-08
0.000261345
-0.000261278
5.49799e-08
-2.80002e-08
0.00113295
5.30554e-08
9.28402e-07
7.71555e-07
-1.21097e-06
-1.38337e-06
5.72031e-07
-0.00113223
-7.0511e-08
-1.51312e-07
3.37746e-07
7.622e-08
0.000254364
-0.000254557
4.4296e-07
1.10653e-06
0.00113358
8.7215e-07
-1.26999e-06
6.0874e-08
-5.86944e-07
7.26642e-07
-1.51778e-06
1.29302e-07
-5.29857e-07
1.69865e-09
-2.76896e-07
0.000261429
5.31117e-07
-3.52678e-08
-0.000261649
1.88355e-08
0.00113368
9.24179e-07
-1.38065e-06
5.7716e-07
-1.20606e-06
7.74096e-07
4.59643e-09
-3.10414e-08
0.000254105
2.01373e-08
-0.000254141
4.30036e-08
-1.14663e-06
-1.09827e-06
0.000276178
-0.000274074
6.54739e-08
7.60846e-08
-4.63981e-09
-7.75188e-09
0.000285614
2.25939e-08
-0.000285685
6.0697e-08
-4.74418e-09
-7.84863e-09
0.000285532
2.32103e-08
-0.000285603
6.0639e-08
-3.20332e-12
7.71166e-08
-0.000236783
-5.8138e-09
-6.7247e-09
-0.000197529
-3.40954e-09
1.40532e-07
-1.76495e-08
0.000197409
-0.000237162
9.72983e-11
2.57463e-07
0.000237004
-8.82701e-08
-1.14358e-08
1.39779e-08
2.26576e-08
-3.67486e-09
-0.000197259
-9.91577e-05
4.89482e-09
6.36934e-08
9.90891e-05
-1.3971e-08
4.58912e-09
-9.90291e-05
7.7022e-08
-6.94983e-11
-0.00023677
-6.74514e-09
-5.7575e-09
-0.000197507
-4.9246e-09
1.40362e-07
-1.80293e-08
0.000197389
-0.00023715
2.57378e-07
2.66169e-10
0.000236992
-1.16612e-08
-8.82861e-08
1.40115e-08
2.26039e-08
-3.65792e-09
-0.000197239
4.48417e-07
4.49128e-07
0.00114351
4.485e-07
4.48773e-07
0.00114331
4.48469e-07
4.48783e-07
0.00114327
-7.72499e-08
-1.57041e-09
-0.000260653
-2.27743e-08
3.60439e-08
-0.000253674
-6.7782e-08
-1.42479e-07
3.23002e-07
6.8867e-08
0.000253493
0.00113602
-0.00113532
2.61706e-09
9.10692e-07
7.81136e-07
-1.1989e-06
-1.36953e-06
5.84186e-07
4.27681e-07
1.1185e-06
8.52404e-07
-1.25566e-06
6.98609e-08
-5.71276e-07
7.34311e-07
-1.51533e-06
1.35817e-07
-5.18741e-07
-0.000261043
-2.57271e-07
1.50852e-09
0.000260815
-3.02366e-08
5.14015e-07
7.73824e-09
-2.0528e-08
1.46436e-08
-0.000253281
2.85012e-08
-4.33912e-09
9.06318e-07
-1.36919e-06
5.83675e-07
-1.19912e-06
7.80628e-07
-9.91514e-05
4.96232e-09
6.34324e-08
9.9083e-05
-1.40694e-08
4.63768e-09
-9.90243e-05
-8.46275e-10
-7.73186e-08
-0.000260644
3.62146e-08
-2.26935e-08
0.00113587
-0.00113515
4.57758e-09
9.1124e-07
7.81104e-07
-1.20205e-06
-1.3726e-06
5.81214e-07
-0.000253667
-6.79376e-08
-1.40321e-07
3.20635e-07
6.90746e-08
0.000253485
4.22226e-07
1.11593e-06
8.52846e-07
-1.25599e-06
7.00158e-08
-5.71528e-07
7.34238e-07
-1.51245e-06
1.32865e-07
-5.18677e-07
-0.000261034
9.23398e-10
-2.57481e-07
0.000260806
5.14361e-07
-3.0551e-08
-3.16436e-09
9.0691e-07
-1.36956e-06
5.86315e-07
-1.19676e-06
7.83308e-07
7.56015e-09
-2.26504e-08
1.46342e-08
-0.000253274
3.11064e-08
-0.000285134
6.80625e-08
-6.34916e-08
1.79734e-07
-1.35992e-08
0.000284963
-0.000285052
6.80283e-08
-6.35022e-08
1.74928e-07
-1.3895e-08
0.000284887
-1.14772e-06
-1.11036e-06
-0.000274269
8.08605e-08
8.36061e-08
-7.67732e-09
-4.55666e-09
2.12216e-08
-0.000284735
4.89868e-08
-7.73622e-09
-4.66506e-09
2.185e-08
-0.000284659
5.35932e-08
6.93284e-08
9.936e-05
-9.94331e-05
7.8048e-09
9.93046e-05
-9.92974e-05
6.74884e-08
9.93485e-05
-9.94199e-05
7.41957e-09
9.92908e-05
-9.92828e-05
7.30593e-08
1.8878e-07
-1.3307e-08
0.000285992
-0.000286171
7.03369e-08
1.90894e-07
-1.29619e-08
0.000285914
-0.000286095
0.000276249
-1.1522e-06
-1.11207e-06
-0.000274129
6.80889e-08
7.61485e-08
0.000285669
-1.86689e-09
2.51505e-08
-0.000285743
5.8251e-08
0.000285593
-2.08899e-09
2.25356e-08
-0.000285664
5.79509e-08
6.09709e-09
-1.40059e-08
9.91791e-05
-9.91712e-05
6.56431e-08
4.80722e-09
9.92342e-05
6.10275e-09
-1.44739e-08
9.91673e-05
-9.91589e-05
6.55877e-08
4.59233e-09
9.92206e-05
1.55928e-06
1.51967e-06
0.000274184
-5.02744e-07
-5.10874e-07
-6.03494e-09
0.000285189
5.35175e-08
-0.000285253
2.17996e-08
-3.59655e-09
0.000285113
5.34232e-08
-0.000285179
2.19282e-08
6.80746e-08
-1.60175e-08
1.85553e-07
0.000285497
6.79921e-08
-1.33244e-08
1.85184e-07
0.000285418
9.36246e-08
0.000237585
-0.00023766
-1.05871e-08
-8.21976e-09
1.53644e-07
-2.06336e-08
0.000197983
-4.07308e-09
-0.000198112
2.76864e-07
0.000237903
-9.49352e-08
-1.34522e-08
-0.000238071
2.88439e-08
0.00019778
-5.36413e-09
-0.000197818
-8.67676e-10
0.000261373
-0.000261303
-2.78418e-08
5.20094e-08
3.40362e-07
7.612e-08
0.000254378
-0.00025457
0.00113336
3.89676e-09
9.29116e-07
7.77559e-07
-1.21639e-06
-1.38878e-06
5.80637e-07
-0.00113261
4.32876e-07
0.00113317
8.70893e-07
-1.56046e-06
1.3522e-07
-5.32654e-07
-1.2755e-06
6.06784e-08
-5.86958e-07
7.32117e-07
8.18962e-10
0.000261453
-3.40585e-08
5.3106e-07
-0.000261674
0.000254115
2.022e-08
-0.000254147
4.05081e-08
-3.34219e-09
0.00113412
9.18928e-07
-1.38624e-06
5.82946e-07
-1.21427e-06
7.7991e-07
0.000261343
-0.000261276
-2.6524e-08
5.19831e-08
3.403e-07
7.61335e-08
0.000254268
-0.000254458
-7.29464e-08
0.00113331
9.23672e-07
7.77293e-07
-1.21639e-06
-1.38847e-06
5.80584e-07
-0.00113255
4.33561e-07
0.00113324
1.14943e-06
8.71889e-07
-1.27545e-06
6.05906e-08
7.31866e-07
-5.87064e-07
-1.55801e-06
1.34978e-07
-5.3565e-07
0.000261426
-3.57325e-08
5.31065e-07
-0.000261644
0.000254006
4.4918e-09
2.02601e-08
-0.000254042
4.0459e-08
0.00113406
9.192e-07
-1.38597e-06
5.82903e-07
-1.21427e-06
7.79656e-07
6.07767e-11
2.66981e-07
-9.14176e-08
-1.22012e-08
0.000237464
2.65188e-08
-0.000197565
-3.98203e-09
1.45695e-07
-2.15264e-08
0.000197722
-1.15196e-10
8.51246e-08
-0.000237232
-7.94553e-09
-7.4791e-09
2.66957e-07
-9.14108e-08
-1.24957e-08
0.000237422
2.68039e-08
1.41382e-08
0.000197457
-0.000197494
-4.00291e-09
1.48024e-07
-4.74277e-09
-1.91001e-08
0.000197656
8.51299e-08
0.000237119
-0.000237189
-7.98807e-09
-7.54402e-09
8.87514e-10
-3.19638e-08
5.22786e-07
0.000261148
4.25113e-07
8.664e-07
1.15386e-06
-5.32778e-07
1.36791e-07
7.34043e-07
-5.83193e-07
6.29865e-08
-1.27216e-06
0.000253677
3.41535e-08
-0.000253708
1.74493e-08
-0.00113485
-3.37023e-09
0.00113559
9.15615e-07
-1.38089e-06
5.84783e-07
-1.207e-06
7.84647e-07
7.00769e-08
3.31777e-07
0.000253927
3.81755e-09
9.20148e-07
7.8223e-07
-1.20933e-06
-1.38366e-06
5.82461e-07
-8.18744e-10
0.000261059
-0.000260991
-2.57296e-08
4.39629e-08
-3.37466e-08
5.22752e-07
0.000261122
4.31164e-07
-1.55679e-06
8.66934e-07
7.33857e-07
-5.83156e-07
-1.27202e-06
6.29421e-08
1.15118e-06
-5.30126e-07
1.33639e-07
3.51768e-09
0.000253568
3.44178e-08
-0.000253597
1.74122e-08
-0.0011348
0.00113553
9.15797e-07
-1.38061e-06
5.84746e-07
-1.20698e-06
7.84441e-07
-7.04335e-08
7.25e-08
3.31726e-07
0.00025382
9.20342e-07
7.82069e-07
-1.2093e-06
-1.38335e-06
5.82425e-07
0.000261029
-0.000260964
-2.40942e-08
4.39449e-08
0.000276233
-0.000274116
7.06836e-08
7.33434e-08
0.00028553
2.30476e-08
-0.000285604
6.07693e-08
-7.91478e-09
0.000285682
2.29154e-08
-0.000285751
5.84736e-08
9.92979e-05
-1.49518e-08
-9.92908e-05
6.63839e-09
-9.91502e-05
6.79879e-08
9.92093e-05
1.51947e-06
0.00027417
-5.05828e-07
-5.07859e-07
0.000285056
5.37174e-08
-0.000285122
2.23296e-08
-4.00254e-09
-6.34812e-09
0.0002852
5.36684e-08
-0.000285266
2.22953e-08
-1.33325e-08
1.85387e-07
0.000285356
-6.54739e-08
7.03074e-08
-1.32948e-08
1.85296e-07
0.000285505
-1.4612e-08
9.91769e-05
-9.91663e-05
4.51989e-09
9.92279e-05
-1.69846e-09
0.000261365
-0.000261295
-2.73819e-08
5.19593e-08
3.37685e-07
7.61666e-08
0.000254337
-0.00025453
0.00113321
2.89843e-09
9.33936e-07
7.77306e-07
-1.21351e-06
-1.38849e-06
5.77798e-07
-0.00113247
4.31943e-07
0.00113416
8.72135e-07
-1.52084e-06
1.29204e-07
-5.30058e-07
-1.27535e-06
6.10317e-08
-5.86867e-07
7.32132e-07
1.81063e-09
0.000261445
-3.52627e-08
5.30963e-07
-0.000261666
0.000254077
2.00121e-08
-0.000254111
4.289e-08
-4.3625e-09
0.00113396
9.23814e-07
-1.38594e-06
5.80133e-07
-1.21136e-06
7.79623e-07
9.35281e-08
0.000237573
-0.000237648
-1.05501e-08
-8.59883e-09
1.51355e-07
-2.05583e-08
0.000197971
-0.000198098
2.76771e-07
0.00023789
-9.49095e-08
-1.31067e-08
-0.000238059
3.12147e-08
0.000197764
-5.53871e-09
-0.000197805
0.000261334
-0.000261267
5.19609e-08
-2.70383e-08
0.00113317
9.28318e-07
7.77454e-07
-1.21351e-06
-1.38844e-06
5.77835e-07
-0.00113241
-7.31685e-08
3.35205e-07
7.61905e-08
0.000254255
-0.000254442
4.33776e-07
0.00113312
1.14399e-06
8.82147e-07
-1.27525e-06
5.75256e-08
7.32211e-07
-5.8413e-07
-1.55256e-06
1.35037e-07
-5.35609e-07
0.000261418
5.30914e-07
-3.54105e-08
-0.000261634
0.00113391
9.29658e-07
-1.38575e-06
5.80188e-07
-1.21134e-06
7.80018e-07
0.00025399
4.71505e-09
1.98539e-08
-0.00025403
4.58803e-08
2.66888e-07
2.38195e-10
-1.25067e-08
-9.13924e-08
0.000237451
2.65787e-08
-0.000197543
-4.434e-09
1.45683e-07
-1.92547e-08
0.000197702
8.50438e-08
-7.02042e-11
-0.000237219
-7.60899e-09
-7.96741e-09
1.7921e-09
-3.30694e-08
5.22669e-07
0.000261141
4.29569e-07
8.6736e-07
1.11374e-06
-5.27428e-07
1.30775e-07
7.34005e-07
-5.83141e-07
6.32378e-08
-1.27194e-06
0.00025364
3.68673e-08
-0.000253671
1.72273e-08
-0.00113469
-4.08796e-09
0.00113543
9.1524e-07
-1.38065e-06
5.84773e-07
-1.20684e-06
7.84369e-07
7.25783e-08
3.29121e-07
0.000253889
2.9403e-09
9.25005e-07
7.82005e-07
-1.20917e-06
-1.38338e-06
5.82408e-07
-1.67484e-09
0.000261051
-0.000260981
-2.47387e-08
4.11321e-08
2.6688e-07
-9.13909e-08
-1.22083e-08
0.00023741
2.68243e-08
1.44354e-08
0.000197448
-0.000197484
-4.64941e-09
1.45661e-07
-4.67094e-09
-1.92072e-08
0.000197642
8.50355e-08
0.000237108
-0.000237178
-7.98178e-09
-7.63156e-09
5.22683e-07
-3.32839e-08
0.000261113
4.25807e-07
-1.55136e-06
8.66222e-07
7.34102e-07
-5.80244e-07
-1.27183e-06
5.9838e-08
1.1457e-06
-5.32835e-07
1.36686e-07
-0.00113464
0.00113537
9.15359e-07
-1.38045e-06
5.8482e-07
-1.20684e-06
7.84648e-07
6.31303e-09
0.000253553
3.97756e-08
-0.000253589
1.69544e-08
9.25195e-07
7.82304e-07
-1.20918e-06
-1.38316e-06
5.82459e-07
-7.05471e-08
7.25267e-08
3.2651e-07
0.000253808
0.00026102
-0.000260954
4.11162e-08
-2.43214e-08
-9.22033e-11
0.000237609
-0.000237685
-8.59321e-09
-8.53278e-09
0.000197827
-5.50959e-09
-0.000197868
-9.36547e-08
0.000261326
-0.000261259
5.1992e-08
-2.73076e-08
4.49572e-07
0.00113274
8.76637e-07
-1.5494e-06
1.35243e-07
-5.32661e-07
-1.26961e-06
5.74337e-08
-5.86645e-07
7.23901e-07
-0.0011322
0.00113376
9.23836e-07
-1.3803e-06
5.77398e-07
-1.20855e-06
7.74227e-07
-0.00113301
-3.11815e-08
0.000254031
2.00113e-08
-0.000254071
4.59428e-08
0.00023757
-0.000237644
-1.06126e-08
-8.83954e-09
0.000197768
1.48519e-08
-5.43131e-09
-0.000197809
-2.66813e-07
1.34946e-09
-3.26267e-08
5.22637e-07
0.000261133
4.24363e-07
8.6695e-07
1.11354e-06
-5.27208e-07
1.30887e-07
7.28508e-07
-5.82841e-07
-1.26639e-06
6.30745e-08
-2.4534e-08
3.43643e-08
-0.000253708
1.72877e-08
-0.00113457
-5.51681e-09
9.15139e-07
-1.37506e-06
5.79097e-07
7.76095e-07
-1.20403e-06
-1.45517e-07
7.2377e-08
3.31398e-07
0.000253926
-1.22222e-09
9.19598e-07
7.76463e-07
-1.20361e-06
-1.37504e-06
5.79561e-07
-8.53373e-08
-1.58762e-09
-0.000260976
-2.50425e-08
4.41099e-08
-7.87945e-11
-1.23312e-08
-9.35066e-08
0.000237448
0.000197513
-0.000197547
-4.62691e-09
-1.91698e-08
0.000197706
-6.68057e-11
0.000237144
-0.000237215
-7.82048e-09
-5.96575e-09
-2.66856e-07
5.2261e-07
-3.35621e-08
0.000261105
4.3634e-07
-1.55099e-06
8.66434e-07
7.2579e-07
-5.79934e-07
-1.26342e-06
5.63864e-08
1.14554e-06
-5.32596e-07
1.36826e-07
-0.0011345
0.00113523
9.1521e-07
-1.37491e-06
5.82021e-07
-1.20404e-06
7.78959e-07
-2.67934e-08
6.21649e-09
0.000253594
3.45284e-08
-0.000253625
1.72931e-08
9.19528e-07
7.76586e-07
-1.20635e-06
-1.3776e-06
5.7966e-07
-1.45589e-07
-7.05536e-08
7.25208e-08
3.28902e-07
0.000253846
-8.51982e-08
0.000261009
-0.000260948
4.67889e-08
-2.4438e-08
-9.13773e-08
-1.25924e-08
0.000237407
1.4391e-08
0.000197451
-0.000197488
-4.52551e-09
-4.62866e-09
-1.91233e-08
0.000197646
0.000237105
-0.000237174
-8.04114e-09
-7.47466e-09
1.86348e-07
-1.36915e-08
0.000285854
-0.000286033
-6.76602e-08
1.88713e-07
-1.36146e-08
0.000285997
-0.000286175
0.000276208
-0.000274105
7.09865e-08
7.60092e-08
0.000285529
2.30336e-08
-0.000285603
6.30604e-08
-7.75744e-09
0.000285672
2.30536e-08
-0.000285743
6.07552e-08
4.1825e-09
9.93557e-05
-9.94276e-05
9.92983e-05
-1.48519e-08
-9.92912e-05
6.14797e-09
-9.91431e-05
6.54153e-08
9.92047e-05
1.51386e-06
0.000274159
-5.05727e-07
-5.10633e-07
0.00028505
5.82283e-08
-0.000285118
2.23385e-08
-6.06823e-09
-6.15347e-09
0.000285192
5.58747e-08
-0.00028526
2.49872e-08
-1.38896e-08
1.80517e-07
0.000285358
-6.55275e-08
7.03884e-08
-1.64014e-08
1.82965e-07
0.0002855
-1.43687e-08
9.91749e-05
-9.91666e-05
4.61164e-09
9.92281e-05
-9.11961e-08
0.000261313
-0.000261248
5.21424e-08
-2.56135e-08
0.00113287
9.57373e-07
7.74343e-07
-1.21085e-06
5.72005e-07
-1.38567e-06
-0.00113227
-1.51347e-07
3.40198e-07
7.62783e-08
0.000254253
-7.30575e-08
-0.000254445
3.93857e-07
0.00113372
8.66554e-07
-1.51527e-06
1.23134e-07
-5.32762e-07
-1.2724e-06
6.10168e-08
-5.84115e-07
7.29317e-07
-2.79302e-07
0.000261399
5.33708e-07
-3.5504e-08
-0.000261616
0.00113359
9.24278e-07
-1.38306e-06
5.77157e-07
-1.20594e-06
7.76632e-07
-3.10524e-08
0.000253994
2.00367e-08
-0.00025403
4.28859e-08
1.17987e-11
0.000237603
-0.000237678
-8.41523e-09
-1.06837e-08
-2.04917e-08
0.000198031
-0.000198158
2.34122e-10
0.000237921
-1.34942e-08
-9.49238e-08
-0.00023809
0.000197824
-5.28695e-09
-0.000197864
0.000237563
-0.000237636
-8.23667e-09
-1.06207e-08
-2.04787e-08
0.000197967
-0.000198094
-4.25937e-09
0.000237879
-1.35059e-08
-9.48752e-08
-0.00023805
0.00019776
1.4938e-08
-5.4218e-09
-0.0001978
1.21452e-09
-2.66987e-07
5.20209e-07
-3.29077e-08
0.000261124
4.35097e-07
8.67335e-07
1.10824e-06
-5.2711e-07
1.30959e-07
7.28576e-07
-5.83054e-07
-1.26658e-06
6.31777e-08
-0.00113442
-8.86274e-10
9.15518e-07
-1.37539e-06
5.81759e-07
7.78811e-07
-1.2016e-06
-2.66634e-08
3.69429e-08
-0.0002537
1.72519e-08
1.14169e-08
9.20111e-07
7.76524e-07
-1.20666e-06
-1.37802e-06
5.76623e-07
-1.45667e-07
7.25513e-08
3.29039e-07
0.000253919
-7.90112e-10
-8.53427e-08
-0.000260967
4.42524e-08
-2.52068e-08
-2.69414e-07
5.22705e-07
-3.38151e-08
0.000261094
4.24054e-07
-1.51132e-06
8.6721e-07
7.31181e-07
-5.82969e-07
-1.26895e-06
6.33638e-08
1.10545e-06
-5.27263e-07
1.30873e-07
-0.00113434
0.00113507
9.15218e-07
-1.37767e-06
5.81782e-07
-1.20141e-06
7.81322e-07
-2.67121e-08
6.33246e-09
0.000253556
3.95051e-08
-0.000253592
1.71233e-08
9.19699e-07
7.78962e-07
-1.2065e-06
-1.38042e-06
5.76629e-07
-1.45639e-07
-7.04317e-08
7.26057e-08
3.2899e-07
0.000253808
-8.27188e-08
0.000261001
-0.000260937
4.13241e-08
-2.34127e-08
2.29655e-10
-1.26048e-08
-9.13929e-08
0.00023744
0.000197507
-0.000197544
-4.36053e-09
-1.91522e-08
0.000197702
-9.71586e-11
0.000237138
-0.000237208
-7.48809e-09
-8.14315e-09
-1.25439e-08
-9.1364e-08
0.000237398
1.44697e-08
0.000197443
-0.00019748
-4.51991e-09
-4.6162e-09
-1.91555e-08
0.000197638
0.000237098
-0.000237166
-7.26918e-09
-8.07305e-09
9.92769e-05
-9.92698e-05
9.92725e-05
-9.92654e-05
0.000274129
-5.05263e-07
-5.08311e-07
-6.08528e-09
5.35215e-08
-0.000285197
2.18769e-08
-6.1787e-09
5.8148e-08
-0.00028512
2.2513e-08
-6.55075e-08
-1.33862e-08
1.82947e-07
0.000285439
-6.55044e-08
-1.37162e-08
1.82919e-07
0.000285357
9.91535e-05
-9.91452e-05
9.92068e-05
9.91491e-05
-9.91408e-05
9.92023e-05
6.38676e-08
9.91118e-05
4.44717e-09
-9.90526e-05
6.34941e-08
9.90989e-05
4.47196e-09
-9.90402e-05
6.81475e-08
1.79975e-07
-1.36341e-08
0.000285019
6.80488e-08
1.79714e-07
-1.36793e-08
0.000284943
-1.15873e-06
-1.1186e-06
-0.000274327
8.07685e-08
8.61954e-08
-7.45474e-09
2.07152e-08
-0.00028479
5.13118e-08
-7.50406e-09
2.08875e-08
-0.000284714
4.8922e-08
7.70884e-08
-0.00023674
-5.78288e-09
-6.60563e-09
1.40397e-07
-1.81105e-08
0.000197339
2.57438e-07
0.000236962
-8.8301e-08
-1.15981e-08
2.26621e-08
-3.60084e-09
-0.000197192
-7.66885e-10
-0.000260668
-2.27376e-08
3.59151e-08
3.23361e-07
6.92609e-08
0.000253493
0.0011363
3.90647e-09
9.11251e-07
7.86876e-07
-1.2074e-06
-1.37818e-06
5.89875e-07
4.29122e-07
8.52031e-07
-1.55534e-06
1.41611e-07
-5.24442e-07
-1.26152e-06
6.98033e-08
-5.71706e-07
7.3978e-07
9.3986e-10
0.000260831
-2.99097e-08
5.14197e-07
1.46876e-08
-0.000253282
3.11941e-08
-3.29071e-09
9.07128e-07
-1.37511e-06
5.9214e-07
-1.20492e-06
7.89165e-07
-0.000260642
-2.15344e-08
3.58977e-08
-6.52057e-08
3.23277e-07
6.89107e-08
0.000253381
0.00113626
9.1138e-07
7.86786e-07
-1.20738e-06
-1.3778e-06
5.8983e-07
4.23297e-07
1.15612e-06
8.52586e-07
-1.26129e-06
6.65611e-08
7.39724e-07
-5.68814e-07
-1.5527e-06
1.41564e-07
-5.24416e-07
0.000260804
-3.13186e-08
5.14167e-07
4.86119e-09
1.46222e-08
-0.000253173
3.12652e-08
9.07195e-07
-1.37476e-06
5.92106e-07
-1.20488e-06
7.89031e-07
1.79705e-07
-1.30299e-08
0.000284888
-6.58209e-08
1.79703e-07
-1.3423e-08
0.000285032
-0.000274308
8.08898e-08
8.35138e-08
2.36361e-08
-0.000284657
4.89551e-08
-2.47013e-09
2.15737e-08
-0.000284804
4.91156e-08
4.90908e-09
9.91062e-05
-1.42078e-08
-9.90475e-05
-1.6946e-09
-0.000260658
-2.22114e-08
3.30643e-08
3.20717e-07
6.91514e-08
0.000253458
0.00113615
3.21744e-09
9.10913e-07
7.86709e-07
-1.20449e-06
-1.37788e-06
5.87041e-07
4.22497e-07
8.53e-07
-1.51564e-06
1.35623e-07
-5.19112e-07
-1.2613e-06
7.00909e-08
-5.71529e-07
7.3973e-07
1.83404e-09
0.000260821
-3.09744e-08
5.1682e-07
1.46833e-08
-0.000253246
3.10234e-08
-3.92978e-09
9.06609e-07
-1.37485e-06
5.89286e-07
-1.20199e-06
7.88963e-07
7.70132e-08
-0.000236729
-5.75859e-09
-6.77957e-09
1.40341e-07
-1.80766e-08
0.00019733
2.57348e-07
0.000236951
-8.82623e-08
-1.12876e-08
2.28354e-08
-3.94986e-09
-0.00019718
-0.000260631
3.30484e-08
-2.17969e-08
0.00113609
9.10992e-07
7.8697e-07
-1.2045e-06
-1.3777e-06
5.87089e-07
-6.80877e-08
3.18086e-07
6.91078e-08
0.000253374
4.23691e-07
1.15067e-06
8.51664e-07
-1.26117e-06
6.67669e-08
7.39835e-07
-5.68767e-07
-1.54723e-06
1.41621e-07
-5.24455e-07
0.000260794
5.16808e-07
-3.1125e-08
9.06684e-07
-1.37464e-06
5.89331e-07
-1.202e-06
7.89205e-07
7.71389e-09
1.42946e-08
-0.000253163
3.39723e-08
-4.62488e-11
-0.000236766
-6.95736e-09
-3.71058e-09
-1.80529e-08
0.000197393
-5.23693e-11
0.000236988
-1.1189e-08
-9.03928e-08
-3.87569e-09
-0.000197243
-7.71879e-08
-0.000260626
3.88265e-08
-2.17182e-08
0.00113595
9.10757e-07
7.81286e-07
-1.20166e-06
5.84269e-07
-1.37206e-06
-1.40287e-07
3.2307e-07
6.91205e-08
0.00025341
4.23614e-07
8.51775e-07
-1.54412e-06
1.38755e-07
-5.2138e-07
-1.25281e-06
6.34087e-08
-5.65695e-07
7.31556e-07
-2.5733e-07
0.000260788
5.11301e-07
-3.14528e-08
9.06437e-07
-1.369e-06
5.86534e-07
-1.19918e-06
7.83512e-07
-2.27659e-08
1.46777e-08
-0.000253198
2.86019e-08
-0.000236725
-5.82424e-09
-6.61153e-09
-4.95112e-09
-1.79944e-08
0.000197334
0.000236947
-8.82827e-08
-1.17092e-08
1.40201e-08
-3.79314e-09
-0.000197184
1.7491e-07
-1.40368e-08
0.000284885
-6.35002e-08
1.77346e-07
-1.65804e-08
0.000285027
-0.000274294
8.11941e-08
8.62287e-08
2.16934e-08
-0.000284656
5.36817e-08
-4.52205e-09
2.42803e-08
-0.000284798
5.13235e-08
4.9397e-09
9.91064e-05
-1.39606e-08
-9.90477e-05
-7.46923e-08
-0.000260615
3.32714e-08
-2.11321e-08
0.0011358
9.10975e-07
7.8361e-07
-1.20185e-06
5.81177e-07
-1.37492e-06
-1.40344e-07
3.18067e-07
6.9101e-08
0.000253377
4.22033e-07
8.52736e-07
-1.5071e-06
1.35796e-07
-5.18804e-07
-1.25821e-06
7.01851e-08
-5.715e-07
7.36837e-07
-2.59899e-07
0.000260777
5.16862e-07
-3.19089e-08
9.06677e-07
-1.37188e-06
5.86331e-07
-1.19655e-06
7.85877e-07
-2.27156e-08
1.44718e-08
-0.000253166
3.37073e-08
-1.07232e-10
-0.000236759
-6.62702e-09
-5.93183e-09
-1.79784e-08
0.00019739
1.46281e-10
0.000236981
-1.17304e-08
-8.82813e-08
-3.60922e-09
-0.00019724
-0.000236717
-6.62599e-09
-5.86161e-09
-4.92347e-09
-1.80466e-08
0.000197326
0.000236938
-1.16605e-08
-8.82547e-08
1.40894e-08
-3.81737e-09
-0.000197176
9.9085e-05
-9.90263e-05
9.90806e-05
-9.90219e-05
-3.81571e-10
8.64292e-08
0.000145584
-0.000145667
-3.78402e-09
-9.31413e-08
-1.28439e-08
-0.000237868
-1.35277e-10
2.71887e-07
-0.000173727
-2.77013e-10
-5.31759e-11
0.000173717
-0.00023053
-7.29802e-09
-8.70175e-09
0.000230467
6.99262e-08
-0.000173821
-1.28024e-10
-0.000230688
-1.72691e-08
2.48888e-07
-2.43575e-10
0.000145577
-8.03661e-05
-1.39277e-08
-6.65196e-11
8.03801e-05
-6.15593e-08
0.000270222
1.77057e-08
1.98998e-07
-0.000270398
-6.50072e-09
0.000198006
1.73707e-08
3.35349e-08
3.52444e-09
-8.04312e-05
8.97578e-09
0.00027015
4.25291e-08
-0.000145675
-1.43797e-10
8.60414e-09
-1.20539e-08
-8.87855e-09
5.05051e-11
9.80484e-08
7.00255e-10
0.000173833
-6.72872e-11
-0.000173928
-8.80425e-08
0.000230753
2.53444e-07
-0.000230914
-0.000145759
-5.29624e-11
7.38883e-08
6.04144e-08
8.03159e-05
-0.000269978
1.47657e-08
0.000269909
3.95317e-08
-1.98538e-08
-4.50014e-09
1.48586e-07
1.95408e-07
8.03305e-05
9.93461e-05
-1.53723e-08
6.38762e-09
-9.93371e-05
4.48172e-09
6.90142e-08
8.64461e-08
-2.39672e-10
0.000145583
-0.000145665
-3.89875e-09
-1.32099e-08
-9.30972e-08
-0.000237855
9.13829e-11
2.718e-07
-0.000230519
-7.26372e-09
-8.62426e-09
0.000230456
6.98507e-08
-0.000173724
-2.92536e-10
4.95723e-11
0.000173714
-0.000230677
-1.73544e-08
2.48844e-07
-0.000173818
5.17098e-11
-1.68224e-10
0.000145575
-8.03675e-05
-1.41711e-08
-9.85914e-12
8.03816e-05
-6.15762e-08
0.000270216
1.78656e-08
1.98935e-07
-0.000270392
-5.94354e-09
0.000197988
1.5404e-08
3.32498e-08
3.62259e-09
-8.04327e-05
9.22988e-09
0.000270144
4.23572e-08
-0.000145674
8.53906e-09
-5.00927e-11
-8.81607e-09
-1.19925e-08
8.33052e-11
9.79626e-08
-8.80234e-08
0.000230742
2.53402e-07
-0.000230903
5.76691e-10
0.00017383
8.25977e-11
-0.000173925
-0.000145757
7.38347e-08
7.48624e-11
6.05246e-08
8.03172e-05
-0.000269972
1.48168e-08
0.000269903
3.94106e-08
-2.00061e-08
-3.79899e-09
1.48332e-07
1.95427e-07
8.03319e-05
9.93386e-05
-1.51493e-08
8.71447e-09
4.47743e-09
6.64731e-08
-4.09105e-08
-4.10112e-08
0.000218974
-0.000219099
1.02446e-07
1.04707e-07
-8.19486e-05
8.3788e-09
-1.71682e-08
8.19574e-05
-8.19366e-05
8.40809e-09
-1.72233e-08
8.19454e-05
-8.20138e-05
2.43021e-08
-8.20018e-05
2.42057e-08
3.85679e-08
3.85318e-08
0.000218913
7.03762e-08
-3.85148e-08
-4.03385e-08
0.00022902
5.74336e-08
-0.000229069
6.32658e-08
2.34536e-08
0.000285865
-8.65498e-09
-0.000285939
-3.75797e-09
0.000260211
7.78549e-08
-0.000260235
7.92601e-08
1.73191e-08
0.000187189
-0.000187221
7.27963e-08
-3.84663e-08
-3.82612e-08
0.000228944
5.75012e-08
-0.000228997
6.31727e-08
2.35304e-08
0.00028578
-8.73924e-09
-3.85471e-09
-0.000285854
0.000260089
7.32307e-08
8.40631e-08
-0.00026011
1.73571e-08
0.000187134
-0.000187167
-9.08879e-09
-9.09617e-09
-0.000219159
-8.20056e-05
-8.19936e-05
1.46378e-07
-1.28169e-07
0.000228869
2.35235e-07
-0.000187072
3.47504e-08
0.000187043
1.8821e-07
-1.33023e-08
-6.65392e-08
7.18136e-08
-0.000260028
-6.99917e-08
0.000260008
7.23693e-08
7.86446e-08
3.28155e-07
1.89663e-07
0.000228815
5.72476e-08
1.46316e-07
-1.26214e-07
0.000228797
2.30987e-07
-0.000187019
3.67571e-08
0.000186988
1.85812e-07
-1.36502e-08
-6.65432e-08
7.172e-08
-0.000259909
-7.22458e-08
0.000259891
6.99493e-08
8.09312e-08
3.2297e-07
1.89589e-07
0.000228745
5.5074e-08
9.87404e-10
8.06902e-08
0.000145246
-0.000145323
-4.85633e-09
-8.68827e-08
-1.12844e-08
-0.000236937
-1.88633e-11
2.52878e-07
-0.000173341
-1.26722e-09
-1.6551e-11
-0.000229693
-2.81917e-09
-7.00586e-09
5.52635e-08
-0.000173427
2.16871e-13
-0.00022984
-1.58068e-08
2.31714e-07
-8.05568e-10
-8.01731e-05
-1.67933e-08
7.71137e-10
8.01891e-05
-5.74801e-08
0.000269285
1.63079e-08
-0.000269447
1.85261e-07
-3.79804e-09
0.000197374
1.40474e-08
2.47186e-08
4.68142e-09
-8.02352e-05
7.57074e-09
0.000269226
3.12074e-08
-0.000145327
1.12634e-09
3.87629e-09
-6.86417e-09
-7.21569e-09
1.82933e-10
8.10714e-08
-6.62516e-10
0.000173432
-0.00017352
-4.81314e-11
-8.20018e-08
0.000229894
-0.000230043
2.35914e-07
-0.000145405
4.2913e-11
5.8819e-08
5.66673e-08
8.01276e-05
-0.000269067
1.74093e-08
2.85449e-08
-1.74908e-08
-5.09339e-09
1.37823e-07
1.82043e-07
9.90971e-05
-1.39163e-08
5.89117e-09
5.24647e-09
6.27946e-08
8.06633e-08
9.88748e-10
0.000145245
-0.000145321
-4.84446e-09
-1.14896e-08
-8.68392e-08
-0.000236925
1.12419e-10
2.52773e-07
-0.000229682
-2.79499e-09
-7.01919e-09
5.52167e-08
-0.000173338
-1.30008e-09
5.39688e-11
-0.000229829
-1.57797e-08