/*--------------------------------*- C++ -*----------------------------------*\
| =========                 |                                                 |
| \\      /  F ield         | OpenFOAM: The Open Source CFD Toolbox           |
|  \\    /   O peration     | Version:  2312                                  |
|   \\  /    A nd           | Website:  www.openfoam.com                      |
|    \\/     M anipulation  |                                                 |
\*---------------------------------------------------------------------------*/
FoamFile
{
    version     2.0;
    format      ascii;
    arch        "LSB;label=32;scalar=64";
    class       volScalarField;
    location    "1000";
    object      k;
}
// * * * * * * * * * * * * * * * * * * * * * * * * * * * * * * * * * * * * * //

dimensions      [0 2 -2 0 0 0 0];

internalField   nonuniform List<scalar> 
43208
(
3.94239e-05
5.17928e-05
5.17783e-05
5.38159e-05
3.97247e-05
5.19431e-05
5.19763e-05
5.4e-05
4.00547e-05
5.21234e-05
5.21112e-05
5.40865e-05
4.04174e-05
5.2331e-05
5.23401e-05
5.42891e-05
4.06678e-05
5.24684e-05
5.24673e-05
5.43937e-05
4.08805e-05
5.25065e-05
5.25018e-05
5.4388e-05
4.11555e-05
5.26675e-05
5.26813e-05
5.45552e-05
4.13909e-05
5.27953e-05
5.28078e-05
5.46674e-05
4.15578e-05
5.28214e-05
5.28097e-05
5.46507e-05
4.16157e-05
5.2766e-05
5.27727e-05
5.45747e-05
4.17883e-05
5.28742e-05
5.28906e-05
5.47392e-05
4.21047e-05
5.30842e-05
5.30804e-05
5.49223e-05
4.207e-05
5.28675e-05
5.28922e-05
5.46692e-05
4.19927e-05
5.27218e-05
5.27123e-05
5.44943e-05
4.22002e-05
5.29513e-05
5.29472e-05
5.47884e-05
4.22956e-05
5.29557e-05
5.29827e-05
5.47776e-05
4.22823e-05
5.28016e-05
5.2802e-05
5.45941e-05
4.22824e-05
5.27217e-05
5.27107e-05
5.45207e-05
4.22442e-05
5.26577e-05
5.2666e-05
5.45023e-05
4.22363e-05
5.26393e-05
5.26545e-05
5.44924e-05
4.39513e-05
5.06702e-05
5.066e-05
5.40019e-05
5.38218e-05
5.1762e-05
5.1755e-05
5.38174e-05
5.17529e-05
5.17237e-05
5.17516e-05
5.17092e-05
5.3789e-05
5.172e-05
5.17006e-05
5.37738e-05
5.38571e-05
5.39118e-05
5.18049e-05
5.17986e-05
5.18942e-05
5.18977e-05
5.38538e-05
5.39204e-05
5.17966e-05
5.17842e-05
5.18957e-05
5.19338e-05
5.17591e-05
5.19039e-05
5.19373e-05
5.38386e-05
5.39553e-05
5.17514e-05
5.19396e-05
5.19385e-05
5.39583e-05
5.39442e-05
5.40713e-05
5.19248e-05
5.19309e-05
5.20741e-05
5.20646e-05
5.3955e-05
5.40629e-05
5.19278e-05
5.19645e-05
5.20718e-05
5.20572e-05
5.19835e-05
5.20746e-05
5.20647e-05
5.39881e-05
5.40515e-05
5.19863e-05
5.20672e-05
5.20632e-05
5.40536e-05
5.4129e-05
5.42641e-05
5.21383e-05
5.21195e-05
5.23084e-05
5.22832e-05
5.41115e-05
5.42435e-05
5.21341e-05
5.21075e-05
5.23045e-05
5.22876e-05
5.20989e-05
5.22781e-05
5.22718e-05
5.40959e-05
5.4248e-05
5.20952e-05
5.22824e-05
5.22684e-05
5.42362e-05
5.42995e-05
5.43304e-05
5.23507e-05
5.23338e-05
5.24178e-05
5.24396e-05
5.42856e-05
5.43557e-05
5.23481e-05
5.2343e-05
5.24172e-05
5.24446e-05
5.2336e-05
5.24489e-05
5.24615e-05
5.42934e-05
5.43592e-05
5.23338e-05
5.24534e-05
5.24606e-05
5.43744e-05
5.43469e-05
5.43824e-05
5.24296e-05
5.24572e-05
5.24858e-05
5.24808e-05
5.4378e-05
5.4381e-05
5.24284e-05
5.24563e-05
5.24817e-05
5.2474e-05
5.24741e-05
5.24893e-05
5.24817e-05
5.43781e-05
5.43709e-05
5.24725e-05
5.24826e-05
5.24786e-05
5.43639e-05
5.44219e-05
5.45351e-05
5.25221e-05
5.2503e-05
5.26507e-05
5.26238e-05
5.4407e-05
5.45092e-05
5.25177e-05
5.24983e-05
5.26484e-05
5.26358e-05
5.24938e-05
5.26221e-05
5.26222e-05
5.44014e-05
5.45221e-05
5.24899e-05
5.26339e-05
5.26203e-05
5.45098e-05
5.45711e-05
5.46185e-05
5.26906e-05
5.26684e-05
5.27652e-05
5.27674e-05
5.45505e-05
5.4623e-05
5.26892e-05
5.26827e-05
5.27658e-05
5.27852e-05
5.26702e-05
5.27729e-05
5.27894e-05
5.45651e-05
5.46374e-05
5.26692e-05
5.27904e-05
5.27898e-05
5.46426e-05
5.46384e-05
5.46491e-05
5.27792e-05
5.27846e-05
5.28195e-05
5.28162e-05
5.46468e-05
5.46549e-05
5.27797e-05
5.27985e-05
5.28161e-05
5.28056e-05
5.28115e-05
5.28222e-05
5.28202e-05
5.4659e-05
5.46364e-05
5.28113e-05
5.28135e-05
5.28183e-05
5.46433e-05
5.46651e-05
5.45781e-05
5.28212e-05
5.28164e-05
5.27856e-05
5.27835e-05
5.46673e-05
5.45838e-05
5.28171e-05
5.28047e-05
5.27808e-05
5.2781e-05
5.2813e-05
5.2782e-05
5.27651e-05
5.4646e-05
5.45859e-05
5.28095e-05
5.27804e-05
5.27616e-05
5.45646e-05
5.45805e-05
5.46253e-05
5.27599e-05
5.27643e-05
5.27778e-05
5.27799e-05
5.459e-05
5.46344e-05
5.27565e-05
5.27703e-05
5.27783e-05
5.27991e-05
5.27586e-05
5.27925e-05
5.28256e-05
5.45954e-05
5.46546e-05
5.27559e-05
5.28161e-05
5.28282e-05
5.46744e-05
5.47201e-05
5.49693e-05
5.28695e-05
5.28575e-05
5.30983e-05
5.30752e-05
5.47094e-05
5.49234e-05
5.28724e-05
5.28768e-05
5.30947e-05
5.30698e-05
5.28987e-05
5.30707e-05
5.30597e-05
5.47198e-05
5.49079e-05
5.28989e-05
5.30639e-05
5.30558e-05
5.48986e-05
5.49868e-05
5.45897e-05
5.31048e-05
5.30888e-05
5.29205e-05
5.29641e-05
5.49481e-05
5.46568e-05
5.3101e-05
5.30858e-05
5.29209e-05
5.29879e-05
5.30734e-05
5.29757e-05
5.29894e-05
5.49346e-05
5.46881e-05
5.30697e-05
5.29999e-05
5.29904e-05
5.46898e-05
5.45658e-05
5.45129e-05
5.28167e-05
5.28503e-05
5.27289e-05
5.27113e-05
5.46334e-05
5.44779e-05
5.28179e-05
5.28737e-05
5.27279e-05
5.27066e-05
5.28855e-05
5.27196e-05
5.27123e-05
5.46645e-05
5.44664e-05
5.28879e-05
5.2714e-05
5.27106e-05
5.44699e-05
5.45912e-05
5.48122e-05
5.27474e-05
5.27164e-05
5.29502e-05
5.29116e-05
5.45245e-05
5.47614e-05
5.27444e-05
5.27077e-05
5.29437e-05
5.28907e-05
5.27103e-05
5.28959e-05
5.28692e-05
5.44975e-05
5.47446e-05
5.27076e-05
5.28728e-05
5.28612e-05
5.47319e-05
5.48291e-05
5.46434e-05
5.29665e-05
5.29577e-05
5.29096e-05
5.29621e-05
5.47987e-05
5.47235e-05
5.29621e-05
5.29557e-05
5.29125e-05
5.29838e-05
5.29448e-05
5.29721e-05
5.29943e-05
5.47946e-05
5.47586e-05
5.29397e-05
5.29937e-05
5.29947e-05
5.47767e-05
5.46449e-05
5.46001e-05
5.28684e-05
5.29341e-05
5.28096e-05
5.28075e-05
5.47258e-05
5.46003e-05
5.28725e-05
5.29662e-05
5.28083e-05
5.28161e-05
5.2983e-05
5.28208e-05
5.28215e-05
5.47601e-05
5.46004e-05
5.29845e-05
5.283e-05
5.28225e-05
5.45898e-05
5.46291e-05
5.46073e-05
5.28104e-05
5.2794e-05
5.27999e-05
5.27426e-05
5.46087e-05
5.45409e-05
5.28082e-05
5.27952e-05
5.27956e-05
5.2729e-05
5.27907e-05
5.27323e-05
5.27116e-05
5.46063e-05
5.45257e-05
5.27899e-05
5.272e-05
5.27078e-05
5.45113e-05
5.46071e-05
5.4419e-05
5.27801e-05
5.27313e-05
5.26372e-05
5.26567e-05
5.45475e-05
5.44601e-05
5.2775e-05
5.27195e-05
5.26359e-05
5.26639e-05
5.27048e-05
5.26633e-05
5.26764e-05
5.45335e-05
5.44697e-05
5.27009e-05
5.26681e-05
5.26739e-05
5.44879e-05
5.44258e-05
5.44604e-05
5.26247e-05
5.26472e-05
5.26167e-05
5.26222e-05
5.44692e-05
5.44708e-05
5.26238e-05
5.26579e-05
5.26165e-05
5.26368e-05
5.26755e-05
5.26369e-05
5.26542e-05
5.44797e-05
5.44859e-05
5.26734e-05
5.26529e-05
5.26551e-05
5.44877e-05
5.44786e-05
5.42713e-05
5.26241e-05
5.26258e-05
5.1271e-05
5.12424e-05
5.44839e-05
5.42291e-05
5.26239e-05
5.26398e-05
5.12709e-05
5.1236e-05
5.26503e-05
5.12421e-05
5.12161e-05
5.44984e-05
5.42175e-05
5.26513e-05
5.12347e-05
5.12153e-05
5.41964e-05
5.40629e-05
5.06967e-05
5.0671e-05
5.40321e-05
5.06961e-05
5.06615e-05
4.39309e-05
4.39258e-05
4.39123e-05
5.06447e-05
5.40165e-05
5.06437e-05
6.86572e-05
7.34765e-05
7.12191e-05
7.34777e-05
3.93339e-05
3.93331e-05
3.93054e-05
3.93e-05
6.07605e-05
5.16506e-05
6.48982e-05
4.69493e-05
6.86766e-05
7.34996e-05
6.86701e-05
7.35182e-05
7.12421e-05
7.12636e-05
6.86799e-05
7.35017e-05
6.8665e-05
7.35207e-05
3.94219e-05
3.94018e-05
3.93858e-05
3.96542e-05
3.96554e-05
3.96798e-05
3.96729e-05
6.08212e-05
6.4913e-05
4.71398e-05
5.183e-05
6.07932e-05
6.49226e-05
4.71962e-05
7.12498e-05
7.127e-05
6.08252e-05
4.71225e-05
6.49121e-05
5.18375e-05
6.07815e-05
4.71909e-05
6.49486e-05
7.00083e-05
7.00191e-05
5.38608e-05
7.00483e-05
7.00602e-05
6.86943e-05
7.35493e-05
6.86812e-05
7.35787e-05
7.12939e-05
7.13218e-05
6.86966e-05
7.35514e-05
6.86889e-05
7.35799e-05
3.973e-05
3.97595e-05
3.97636e-05
3.99631e-05
3.99658e-05
3.99721e-05
3.99793e-05
6.08885e-05
6.4936e-05
4.73674e-05
5.19839e-05
6.08646e-05
6.49542e-05
4.74211e-05
7.12928e-05
7.13179e-05
6.08952e-05
4.73914e-05
6.49528e-05
5.20049e-05
6.0879e-05
4.74419e-05
6.49514e-05
7.00569e-05
7.00669e-05
5.40181e-05
7.00388e-05
7.00465e-05
6.87761e-05
7.36195e-05
6.87358e-05
7.36402e-05
7.13537e-05
7.13764e-05
6.87715e-05
7.36207e-05
6.87281e-05
7.3642e-05
4.00494e-05
4.0048e-05
4.00462e-05
4.03324e-05
4.03058e-05
4.03079e-05
4.02934e-05
6.09558e-05
6.49972e-05
4.75758e-05
5.21728e-05
6.09174e-05
6.50389e-05
4.76302e-05
7.1355e-05
7.13792e-05
6.09483e-05
4.7572e-05
6.49812e-05
5.21633e-05
6.09101e-05
4.76237e-05
6.50395e-05
7.00607e-05
7.00661e-05
5.41225e-05
7.01274e-05
7.01351e-05
6.88125e-05
7.36592e-05
6.88055e-05
7.36727e-05
7.13979e-05
7.14154e-05
6.88125e-05
7.36609e-05
6.88054e-05
7.36745e-05
4.03941e-05
4.04013e-05
4.03908e-05
4.06152e-05
4.06342e-05
4.06418e-05
4.06509e-05
6.10594e-05
6.50842e-05
4.78206e-05
5.23783e-05
6.10258e-05
6.50922e-05
4.78856e-05
7.13995e-05
7.14159e-05
6.1061e-05
4.78244e-05
6.50902e-05
5.23888e-05
6.10271e-05
4.7892e-05
6.50945e-05
7.01825e-05
7.01917e-05
5.43282e-05
7.0184e-05
7.01931e-05
6.87977e-05
7.36931e-05
6.88043e-05
7.3714e-05
7.1435e-05
7.14567e-05
6.87955e-05
7.36947e-05
6.88039e-05
7.37154e-05
4.06968e-05
4.07004e-05
4.07114e-05
4.0822e-05
4.08327e-05
4.08284e-05
4.08321e-05
6.10634e-05
6.50832e-05
4.80311e-05
5.24774e-05
6.10657e-05
6.50708e-05
4.8054e-05
7.1435e-05
7.1457e-05
6.10615e-05
4.8034e-05
6.50783e-05
5.24722e-05
6.10654e-05
4.80534e-05
6.50626e-05
7.0144e-05
7.01518e-05
5.43779e-05
7.01213e-05
7.01288e-05
6.88311e-05
7.37515e-05
6.87984e-05
7.37745e-05
7.14894e-05
7.15137e-05
6.88305e-05
7.3753e-05
6.8795e-05
7.37763e-05
4.08789e-05
4.08759e-05
4.08745e-05
4.10832e-05
4.10585e-05
4.1068e-05
4.10564e-05
6.10682e-05
6.50676e-05
4.81034e-05
5.25372e-05
6.10508e-05
6.51077e-05
4.81328e-05
7.14917e-05
7.15165e-05
6.10675e-05
4.81004e-05
6.50638e-05
5.25393e-05
6.10474e-05
4.81315e-05
6.51126e-05
7.01433e-05
7.01514e-05
5.44186e-05
7.01959e-05
7.02051e-05
6.88721e-05
7.37939e-05
6.88633e-05
7.38072e-05
7.15336e-05
7.15497e-05
6.88726e-05
7.37956e-05
6.88636e-05
7.3809e-05
4.11306e-05
4.11436e-05
4.11312e-05
4.13413e-05
4.13399e-05
4.13588e-05
4.13546e-05
6.11561e-05
6.51585e-05
4.82748e-05
5.27093e-05
6.1129e-05
6.51713e-05
4.83267e-05
7.15364e-05
7.15513e-05
6.11594e-05
4.8284e-05
6.51671e-05
5.27244e-05
6.11328e-05
4.8337e-05
6.51791e-05
7.02473e-05
7.02569e-05
5.45892e-05
7.02651e-05
7.02745e-05
6.88745e-05
7.38253e-05
6.8874e-05
7.3837e-05
7.15674e-05
7.15835e-05
6.88743e-05
7.38271e-05
6.88744e-05
7.38388e-05
4.13975e-05
4.14135e-05
4.14164e-05
4.15191e-05
4.15244e-05
4.15194e-05
4.15326e-05
6.11698e-05
6.51765e-05
4.8454e-05
5.28115e-05
6.11666e-05
6.51776e-05
4.84787e-05
7.15673e-05
7.15822e-05
6.11703e-05
4.84647e-05
6.51804e-05
5.28141e-05
6.11687e-05
4.84865e-05
6.51744e-05
7.02749e-05
7.02829e-05
5.46647e-05
7.02637e-05
7.027e-05
6.88503e-05
7.38466e-05
6.88627e-05
7.38494e-05
7.1597e-05
7.16094e-05
6.88466e-05
7.38483e-05
6.88602e-05
7.38511e-05
4.15586e-05
4.1549e-05
4.15559e-05
4.16132e-05
4.16181e-05
4.16147e-05
4.15971e-05
6.11307e-05
6.51553e-05
4.85191e-05
5.28169e-05
6.11521e-05
6.51251e-05
4.85193e-05
7.15971e-05
7.16123e-05
6.11248e-05
4.8511e-05
6.51396e-05
5.28017e-05
6.11468e-05
4.85113e-05
6.51153e-05
7.02071e-05
7.02136e-05
5.46011e-05
7.01663e-05
7.01749e-05
6.87635e-05
7.38636e-05
6.87857e-05
7.39022e-05
7.16306e-05
7.16652e-05
6.87696e-05
7.38656e-05
6.87866e-05
7.39042e-05
4.16235e-05
4.16284e-05
4.16125e-05
4.16939e-05
4.17033e-05
4.17225e-05
4.17321e-05
6.10594e-05
6.50465e-05
4.8501e-05
5.27602e-05
6.10711e-05
6.50441e-05
4.84972e-05
7.16362e-05
7.16673e-05
6.1068e-05
4.85027e-05
6.5064e-05
5.27712e-05
6.10751e-05
4.85019e-05
6.50666e-05
7.01348e-05
7.01468e-05
5.45736e-05
7.01874e-05
7.01993e-05
6.89709e-05
7.39712e-05
6.88479e-05
7.39909e-05
7.17064e-05
7.17206e-05
6.89601e-05
7.39723e-05
6.88502e-05
7.39918e-05
4.17792e-05
4.17916e-05
4.18023e-05
4.20559e-05
4.20338e-05
4.20326e-05
4.20295e-05
6.12136e-05
6.51981e-05
4.85858e-05
5.29582e-05
6.11205e-05
6.53082e-05
4.86632e-05
7.17041e-05
7.17183e-05
6.12035e-05
4.86025e-05
6.51928e-05
5.29592e-05
6.11241e-05
4.86681e-05
6.52859e-05
7.03577e-05
7.03623e-05
5.48127e-05
7.04452e-05
7.04477e-05
6.89461e-05
7.39427e-05
6.90514e-05
7.3902e-05
7.16946e-05
7.16835e-05
6.89505e-05
7.39453e-05
6.90405e-05
7.39049e-05
4.20953e-05
4.20964e-05
4.20897e-05
4.21083e-05
4.21242e-05
4.21346e-05
4.21284e-05
6.1266e-05
6.53543e-05
4.8821e-05
5.30812e-05
6.12961e-05
6.52122e-05
4.88282e-05
7.17001e-05
7.16899e-05
6.12642e-05
4.88184e-05
6.53378e-05
5.30796e-05
6.12822e-05
4.88278e-05
6.52318e-05
7.04215e-05
7.04316e-05
5.4872e-05
7.02621e-05
7.02773e-05
6.85877e-05
7.38929e-05
6.86483e-05
7.39454e-05
7.16924e-05
7.1737e-05
6.85966e-05
7.38949e-05
6.8662e-05
7.39457e-05
4.20976e-05
4.21127e-05
4.21096e-05
4.19927e-05
4.19841e-05
4.19854e-05
4.19861e-05
6.08868e-05
6.49441e-05
4.87297e-05
5.27826e-05
6.09969e-05
6.48892e-05
4.86401e-05
7.16939e-05
7.17309e-05
6.09015e-05
4.87473e-05
6.49765e-05
5.27993e-05
6.1017e-05
4.86549e-05
6.48991e-05
7.00583e-05
7.00712e-05
5.45165e-05
7.00296e-05
7.00369e-05
6.88566e-05
7.40267e-05
6.8721e-05
7.40448e-05
7.17845e-05
7.18008e-05
6.88388e-05
7.40265e-05
6.8706e-05
7.40458e-05
4.19771e-05
4.19739e-05
4.1973e-05
4.2123e-05
4.20634e-05
4.20407e-05
4.20317e-05
6.09906e-05
6.50351e-05
4.85311e-05
5.27419e-05
6.08722e-05
6.51386e-05
4.85334e-05
7.17808e-05
7.18014e-05
6.09672e-05
4.85272e-05
6.49942e-05
5.27234e-05
6.08604e-05
4.85273e-05
6.51031e-05
7.02086e-05
7.02071e-05
5.45594e-05
7.03014e-05
7.03049e-05
6.886e-05
7.4015e-05
6.89171e-05
7.40022e-05
7.17906e-05
7.17983e-05
6.88682e-05
7.40188e-05
6.89092e-05
7.40051e-05
4.21672e-05
4.2154e-05
4.21449e-05
4.22931e-05
4.23317e-05
4.23511e-05
4.23536e-05
6.11262e-05
6.52041e-05
4.87183e-05
5.29726e-05
6.11168e-05
6.51526e-05
4.877e-05
7.17985e-05
7.18045e-05
6.11306e-05
4.87063e-05
6.52065e-05
5.29838e-05
6.11098e-05
4.87699e-05
6.51854e-05
7.03662e-05
7.03811e-05
5.48134e-05
7.03205e-05
7.03396e-05
6.87091e-05
7.40085e-05
6.87294e-05
7.40305e-05
7.18026e-05
7.18243e-05
6.87136e-05
7.40103e-05
6.87376e-05
7.40316e-05
4.23404e-05
4.23637e-05
4.23688e-05
4.22827e-05
4.23064e-05
4.2325e-05
4.23292e-05
6.09602e-05
6.50593e-05
4.87984e-05
5.29047e-05
6.10194e-05
6.50278e-05
4.87801e-05
7.18037e-05
7.18228e-05
6.09678e-05
4.88137e-05
6.50794e-05
5.29376e-05
6.10365e-05
4.88002e-05
6.50311e-05
7.02369e-05
7.02436e-05
5.46757e-05
7.02075e-05
7.02126e-05
6.87189e-05
7.4039e-05
6.87078e-05
7.40461e-05
7.1821e-05
7.18414e-05
6.87108e-05
7.404e-05
6.87052e-05
7.40474e-05
4.22906e-05
4.2302e-05
4.23019e-05
4.22824e-05
4.22472e-05
4.22424e-05
4.22348e-05
6.08668e-05
6.50235e-05
4.86567e-05
5.27696e-05
6.08898e-05
6.49913e-05
4.86136e-05
7.18194e-05
7.18414e-05
6.08618e-05
4.86638e-05
6.50146e-05
5.27621e-05
6.08876e-05
4.86135e-05
6.4979e-05
7.02056e-05
7.02109e-05
5.45403e-05
7.01766e-05
7.01833e-05
6.86418e-05
7.40272e-05
6.8689e-05
7.40438e-05
7.18276e-05
7.18636e-05
6.86425e-05
7.40291e-05
6.86848e-05
7.40458e-05
4.22481e-05
4.22418e-05
4.2234e-05
4.22465e-05
4.22479e-05
4.2246e-05
4.22446e-05
6.08006e-05
6.49777e-05
4.85651e-05
5.26967e-05
6.08301e-05
6.49168e-05
4.85481e-05
7.18294e-05
7.1865e-05
6.07966e-05
4.85586e-05
6.49719e-05
5.26901e-05
6.08231e-05
4.8542e-05
6.49175e-05
7.0183e-05
7.01923e-05
5.4494e-05
7.01486e-05
7.01585e-05
6.8616e-05
7.40395e-05
6.8602e-05
7.4075e-05
7.18472e-05
7.18925e-05
6.86181e-05
7.40414e-05
6.86034e-05
7.40769e-05
4.22539e-05
4.22595e-05
4.22655e-05
4.22336e-05
4.22491e-05
4.22636e-05
4.22727e-05
6.0762e-05
6.49697e-05
4.85283e-05
5.26446e-05
6.07751e-05
6.48981e-05
4.85146e-05
7.18474e-05
7.18923e-05
6.07677e-05
4.85311e-05
6.49767e-05
5.26588e-05
6.07792e-05
4.85226e-05
6.49064e-05
7.02035e-05
7.02131e-05
5.4492e-05
7.01561e-05
7.01654e-05
6.86013e-05
7.40334e-05
6.86157e-05
7.40799e-05
7.1838e-05
7.18952e-05
6.86044e-05
7.4035e-05
6.8619e-05
7.40812e-05
4.22462e-05
4.22601e-05
4.22638e-05
4.3662e-05
4.36416e-05
4.36391e-05
4.36255e-05
6.06563e-05
6.50102e-05
4.85016e-05
5.25595e-05
6.07649e-05
6.47713e-05
4.84288e-05
7.18363e-05
7.18929e-05
6.06577e-05
4.85124e-05
6.50152e-05
5.25676e-05
6.07696e-05
4.84366e-05
6.47697e-05
7.01535e-05
7.01625e-05
5.4409e-05
6.99715e-05
6.99792e-05
6.45997e-05
7.37414e-05
6.82711e-05
7.46078e-05
7.17234e-05
6.61848e-05
6.45927e-05
7.37424e-05
6.82653e-05
7.46089e-05
2.96877e-05
3.76737e-05
3.76734e-05
4.44252e-05
2.98376e-05
3.79675e-05
3.79643e-05
6.05434e-05
6.4652e-05
4.60748e-05
4.97545e-05
6.04298e-05
6.63689e-05
4.48403e-05
7.17193e-05
6.61761e-05
6.0533e-05
4.60721e-05
6.46407e-05
4.97416e-05
6.04215e-05
4.48338e-05
6.63558e-05
6.93899e-05
6.93962e-05
5.354e-05
7.05469e-05
7.05524e-05
7.1218e-05
7.12213e-05
5.37472e-05
7.00218e-05
7.00275e-05
7.1239e-05
7.12194e-05
7.12427e-05
7.12228e-05
5.37935e-05
7.00206e-05
7.00287e-05
7.00219e-05
7.00281e-05
6.86551e-05
7.34724e-05
6.07717e-05
5.1653e-05
6.49087e-05
4.69458e-05
6.07693e-05
5.1645e-05
6.48996e-05
4.69424e-05
6.86591e-05
7.34965e-05
7.34793e-05
6.86707e-05
6.86571e-05
7.3494e-05
7.34756e-05
6.86694e-05
6.07788e-05
5.17121e-05
6.49161e-05
4.70968e-05
6.49102e-05
4.70256e-05
6.08084e-05
6.07764e-05
5.17045e-05
6.49129e-05
4.70938e-05
6.49021e-05
4.70224e-05
6.08064e-05
5.37424e-05
7.00179e-05
7.00127e-05
7.12186e-05
7.12406e-05
7.12205e-05
5.37884e-05
7.00208e-05
7.00204e-05
7.00199e-05
7.0014e-05
7.12415e-05
7.12203e-05
5.16484e-05
6.49057e-05
6.86468e-05
7.34986e-05
7.34807e-05
6.86635e-05
6.07646e-05
5.17044e-05
6.49172e-05
4.70817e-05
6.49075e-05
4.70143e-05
6.07965e-05
6.86415e-05
7.34992e-05
7.34738e-05
6.86603e-05
6.07582e-05
5.16673e-05
4.70702e-05
6.49078e-05
4.70017e-05
6.48709e-05
6.07919e-05
6.86428e-05
7.34746e-05
6.07576e-05
4.69465e-05
6.86413e-05
6.07653e-05
5.17054e-05
6.49118e-05
4.70816e-05
6.49001e-05
4.70196e-05
6.07889e-05
6.86435e-05
7.34972e-05
7.34778e-05
6.86538e-05
6.07617e-05
5.16698e-05
4.70671e-05
6.48803e-05
4.70096e-05
6.48642e-05
6.07836e-05
6.86412e-05
7.34949e-05
7.3469e-05
6.86506e-05
7.12477e-05
7.1222e-05
5.37501e-05
7.00313e-05
7.00253e-05
6.9993e-05
6.99819e-05
7.12468e-05
7.12199e-05
6.07478e-05
5.16677e-05
4.70581e-05
6.49041e-05
4.69987e-05
6.48669e-05
6.07746e-05
6.07464e-05
5.16622e-05
4.70521e-05
6.48806e-05
4.69978e-05
6.48623e-05
6.07703e-05
6.8629e-05
7.35023e-05
7.34761e-05
6.86444e-05
6.86263e-05
7.3497e-05
7.34703e-05
6.86397e-05
5.37533e-05
6.99949e-05
7.00048e-05
6.99663e-05
6.99712e-05
7.1244e-05
7.12148e-05
7.12476e-05
7.12178e-05
7.12405e-05
7.1261e-05
7.12443e-05
7.12648e-05
7.00181e-05
7.00277e-05
5.38713e-05
7.00084e-05
7.00216e-05
7.12884e-05
7.12631e-05
7.12913e-05
7.12668e-05
5.39007e-05
7.00008e-05
7.00132e-05
7.00037e-05
7.00171e-05
6.86757e-05
7.34972e-05
6.86689e-05
7.35165e-05
6.08276e-05
6.4915e-05
4.71606e-05
5.18396e-05
6.08116e-05
6.49152e-05
4.72159e-05
6.08264e-05
6.49126e-05
4.71578e-05
5.18349e-05
6.08098e-05
6.49156e-05
4.72134e-05
6.86753e-05
7.35445e-05
7.35218e-05
6.86816e-05
6.86745e-05
7.35425e-05
7.35202e-05
6.86809e-05
6.08285e-05
5.18685e-05
6.49138e-05
4.73065e-05
6.49129e-05
4.72642e-05
6.08421e-05
6.08276e-05
5.18675e-05
6.49198e-05
4.73065e-05
6.49147e-05
4.72627e-05
6.08416e-05
7.00202e-05
7.0021e-05
5.38714e-05
7.00145e-05
7.00237e-05
7.12433e-05
7.12652e-05
7.1291e-05
7.12657e-05
5.39038e-05
7.00161e-05
7.00286e-05
7.00132e-05
7.00239e-05
7.12913e-05
7.12673e-05
6.08286e-05
6.49168e-05
4.71466e-05
5.18341e-05
6.08016e-05
6.49197e-05
4.72073e-05
6.86808e-05
7.35033e-05
6.86625e-05
7.35236e-05
6.08295e-05
4.71398e-05
6.49146e-05
5.18425e-05
6.07979e-05
4.72075e-05
6.49433e-05
6.86806e-05
7.35467e-05
7.35243e-05
6.86897e-05
6.08326e-05
5.18668e-05
6.49201e-05
4.73134e-05
6.4918e-05
4.72636e-05
6.08527e-05
6.8682e-05
7.3544e-05
7.35265e-05
6.86915e-05
6.08342e-05
5.18941e-05
4.7326e-05
6.4945e-05
4.72711e-05
6.49438e-05
6.08563e-05
6.86739e-05
7.35007e-05
6.86554e-05
7.35211e-05
6.08201e-05
4.71264e-05
6.4888e-05
5.18177e-05
6.07881e-05
4.71887e-05
6.49351e-05
6.86742e-05
7.35001e-05
6.86522e-05
7.35265e-05
6.08272e-05
5.18672e-05
6.4934e-05
4.73106e-05
6.49237e-05
4.72537e-05
6.08594e-05
6.86768e-05
7.3547e-05
7.35248e-05
6.86967e-05
6.0827e-05
5.18805e-05
4.73204e-05
6.49633e-05
4.72553e-05
6.49424e-05
6.08639e-05
6.86778e-05
7.35479e-05
7.35302e-05
6.87012e-05
7.00389e-05
7.0035e-05
5.38828e-05
7.00505e-05
7.00528e-05
7.12491e-05
7.12697e-05
7.12908e-05
7.12715e-05
5.39282e-05
7.004e-05
7.00457e-05
7.00503e-05
7.00531e-05
7.12899e-05
7.1271e-05
6.08206e-05
4.71127e-05
6.48893e-05
5.18127e-05
6.0777e-05
4.71806e-05
6.49408e-05
6.86805e-05
7.35067e-05
6.86484e-05
7.35285e-05
6.8676e-05
7.35023e-05
6.86437e-05
7.3529e-05
6.0834e-05
5.18935e-05
4.73302e-05
6.49553e-05
4.72625e-05
6.49511e-05
6.08744e-05
6.083e-05
5.18788e-05
4.7327e-05
6.49678e-05
4.72548e-05
6.49484e-05
6.08728e-05
6.86853e-05
7.35486e-05
7.35314e-05
6.87074e-05
6.86814e-05
7.35497e-05
7.35325e-05
6.87051e-05
7.12473e-05
7.12722e-05
7.12509e-05
7.12755e-05
5.39137e-05
7.0059e-05
7.00699e-05
7.0054e-05
7.00656e-05
7.12929e-05
7.12739e-05
7.12957e-05
7.12771e-05
7.12919e-05
7.13233e-05
7.12947e-05
7.13255e-05
7.00037e-05
7.00147e-05
5.39711e-05
7.0048e-05
7.00522e-05
7.13542e-05
7.1327e-05
7.1357e-05
7.13293e-05
5.4018e-05
7.01221e-05
7.01272e-05
7.00638e-05
7.00672e-05
6.86933e-05
7.3547e-05
6.86805e-05
7.35733e-05
6.08667e-05
6.49147e-05
4.73491e-05
5.19639e-05
6.08445e-05
6.49421e-05
4.7395e-05
6.08662e-05
6.49219e-05
4.73502e-05
5.19687e-05
6.08441e-05
6.49445e-05
4.73962e-05
6.86974e-05
7.3615e-05
7.35846e-05
6.87292e-05
6.86961e-05
7.36067e-05
7.35785e-05
6.87261e-05
6.08729e-05
5.20151e-05
6.50113e-05
4.75094e-05
6.49517e-05
4.74488e-05
6.09163e-05
6.08721e-05
5.20142e-05
6.49919e-05
4.75068e-05
6.49509e-05
4.74488e-05
6.09135e-05
7.00208e-05
7.00308e-05
5.39808e-05
7.00487e-05
7.00501e-05
7.1294e-05
7.13204e-05
7.13514e-05
7.13248e-05
5.40231e-05
7.00978e-05
7.00895e-05
7.00592e-05
7.00557e-05
7.13499e-05
7.13233e-05
6.08725e-05
6.49206e-05
4.73603e-05
5.19663e-05
6.08553e-05
6.49438e-05
4.7406e-05
6.86966e-05
7.35474e-05
6.86904e-05
7.35694e-05
6.08734e-05
4.73741e-05
6.49423e-05
5.19898e-05
6.08586e-05
4.74167e-05
6.49418e-05
6.86975e-05
7.3616e-05
7.35856e-05
6.87218e-05
6.08766e-05
5.20153e-05
6.50092e-05
4.7511e-05
6.49523e-05
4.74559e-05
6.091e-05
6.86966e-05
7.36047e-05
7.35744e-05
6.87172e-05
6.08765e-05
5.20193e-05
4.75093e-05
6.49746e-05
4.74608e-05
6.49426e-05
6.09054e-05
6.87082e-05
7.35513e-05
6.86982e-05
7.35762e-05
6.08918e-05
4.7382e-05
6.49617e-05
5.2016e-05
6.08692e-05
4.74348e-05
6.49585e-05
6.8711e-05
7.35506e-05
6.87026e-05
7.35687e-05
6.08917e-05
5.20285e-05
6.499e-05
4.75234e-05
6.49586e-05
4.74733e-05
6.09122e-05
6.8708e-05
7.36085e-05
7.3581e-05
6.87183e-05
6.08939e-05
5.20409e-05
4.75238e-05
6.49578e-05
4.74815e-05
6.49552e-05
6.09097e-05
6.87099e-05
7.35985e-05
7.35725e-05
6.8717e-05
7.00346e-05
7.0039e-05
5.39992e-05
7.00317e-05
7.00319e-05
7.12916e-05
7.13155e-05
7.13518e-05
7.13215e-05
5.40292e-05
7.00865e-05
7.00742e-05
7.00357e-05
7.00329e-05
7.13492e-05
7.13188e-05
6.08949e-05
4.73927e-05
6.4966e-05
5.20187e-05
6.0878e-05
4.74456e-05
6.49618e-05
6.87106e-05
7.35519e-05
6.87069e-05
7.35731e-05
6.87084e-05
7.35525e-05
6.8705e-05
7.35705e-05
6.08947e-05
5.20337e-05
4.75263e-05
6.49719e-05
4.74858e-05
6.49505e-05
6.09065e-05
6.08942e-05
5.20418e-05
4.75258e-05
6.49589e-05
4.74887e-05
6.49577e-05
6.09046e-05
6.87084e-05
7.36063e-05
7.35777e-05
6.87128e-05
6.87064e-05
7.36e-05
7.35743e-05
6.87096e-05
7.1294e-05
7.13138e-05
7.12968e-05
7.13163e-05
5.40455e-05
7.00442e-05
7.00495e-05
7.00345e-05
7.00415e-05
7.13451e-05
7.13163e-05
7.13476e-05
7.13188e-05
7.13563e-05
7.13758e-05
7.13592e-05
7.1379e-05
7.01348e-05
7.01402e-05
5.41826e-05
7.01624e-05
7.01706e-05
7.13931e-05
7.13767e-05
7.13963e-05
7.13799e-05
5.42309e-05
7.01675e-05
7.01763e-05
7.01654e-05
7.01737e-05
6.87722e-05
7.36116e-05
6.87323e-05
7.36359e-05
6.09809e-05
6.50223e-05
4.75773e-05
5.22005e-05
6.09265e-05
6.50667e-05
4.7647e-05
6.09763e-05
6.50004e-05
4.75715e-05
5.21744e-05
6.09233e-05
6.50423e-05
4.7638e-05
6.87811e-05
7.36571e-05
7.36428e-05
6.8805e-05
6.87775e-05
7.36569e-05
7.36395e-05
6.88031e-05
6.09901e-05
5.22587e-05
6.5081e-05
4.77825e-05
6.50705e-05
4.77169e-05
6.10303e-05
6.09856e-05
5.22303e-05
6.5076e-05
4.77714e-05
6.50487e-05
4.77059e-05
6.10272e-05
7.01097e-05
7.00981e-05
5.41566e-05
7.0141e-05
7.01381e-05
7.13527e-05
7.13769e-05
7.1397e-05
7.13779e-05
5.42044e-05
7.01642e-05
7.01688e-05
7.01491e-05
7.01463e-05
7.1398e-05
7.13787e-05
6.09736e-05
6.50204e-05
4.75742e-05
5.21955e-05
6.09192e-05
6.50676e-05
4.76413e-05
6.87675e-05
7.36104e-05
6.87234e-05
7.36379e-05
6.09684e-05
4.75672e-05
6.49854e-05
5.21652e-05
6.09142e-05
4.76312e-05
6.50451e-05
6.87775e-05
7.36587e-05
7.36446e-05
6.88047e-05
6.09839e-05
5.2254e-05
6.50834e-05
4.77785e-05
6.50718e-05
4.77112e-05
6.10295e-05
6.8774e-05
7.3658e-05
7.36415e-05
6.88033e-05
6.09792e-05
5.22276e-05
4.77703e-05
6.50842e-05
4.77009e-05
6.50539e-05
6.10273e-05
6.87537e-05
7.36135e-05
6.87213e-05
7.36394e-05
6.09514e-05
4.75703e-05
6.49633e-05
5.21461e-05
6.0914e-05
4.76217e-05
6.502e-05
6.87509e-05
7.36044e-05
6.87188e-05
7.36363e-05
6.09655e-05
5.22254e-05
6.5081e-05
4.7753e-05
6.50464e-05
4.76899e-05
6.10172e-05
6.87609e-05
7.36614e-05
7.36432e-05
6.87994e-05
6.09615e-05
5.22066e-05
4.77493e-05
6.50861e-05
4.76827e-05
6.50332e-05
6.10165e-05
6.87585e-05
7.3661e-05
7.36411e-05
6.87999e-05
7.01024e-05
7.00898e-05
5.41453e-05
7.01514e-05
7.01441e-05
7.13527e-05
7.13783e-05
7.13985e-05
7.13807e-05
5.41992e-05
7.01754e-05
7.01758e-05
7.01602e-05
7.01551e-05
7.13981e-05
7.138e-05
6.09435e-05
4.75674e-05
6.49637e-05
5.21414e-05
6.09076e-05
4.76161e-05
6.50206e-05
6.8749e-05
7.36121e-05
6.87145e-05
7.3641e-05
6.8744e-05
7.36058e-05
6.8711e-05
7.36381e-05
6.09593e-05
5.22227e-05
4.77523e-05
6.50884e-05
4.76851e-05
6.50499e-05
6.10177e-05
6.09546e-05
5.22021e-05
4.77456e-05
6.5089e-05
4.76769e-05
6.50343e-05
6.10144e-05
6.87574e-05
7.36622e-05
7.3645e-05
6.88002e-05
6.87528e-05
7.36629e-05
7.36429e-05
6.87968e-05
7.13492e-05
7.13786e-05
7.13518e-05
7.13815e-05
5.41757e-05
7.01787e-05
7.01879e-05
7.01434e-05
7.01516e-05
7.14006e-05
7.13809e-05
7.14036e-05
7.13839e-05
7.13938e-05
7.141e-05
7.1397e-05
7.14132e-05
7.01651e-05
7.01739e-05
5.43119e-05
7.01508e-05
7.01606e-05
7.14304e-05
7.1411e-05
7.14334e-05
7.14141e-05
5.43354e-05
7.01245e-05
7.0133e-05
7.01426e-05
7.01516e-05
6.88116e-05
7.36594e-05
6.8804e-05
7.36733e-05
6.10526e-05
6.50801e-05
4.7844e-05
5.2382e-05
6.10351e-05
6.50789e-05
4.78962e-05
6.10517e-05
6.50782e-05
4.78352e-05
5.23772e-05
6.10324e-05
6.50838e-05
4.78919e-05
6.88105e-05
7.369e-05
7.3675e-05
6.8809e-05
6.88098e-05
7.36894e-05
7.36755e-05
6.88091e-05
6.10518e-05
5.24044e-05
6.5063e-05
4.79734e-05
6.5075e-05
4.794e-05
6.10572e-05
6.10513e-05
5.24138e-05
6.50786e-05
4.79803e-05
6.50824e-05
4.79415e-05
6.10577e-05
7.01664e-05
7.01709e-05
5.43125e-05
7.01671e-05
7.01733e-05
7.1399e-05
7.14162e-05
7.14338e-05
7.14161e-05
5.43456e-05
7.01507e-05
7.01613e-05
7.01654e-05
7.01721e-05
7.14341e-05
7.14171e-05
6.1053e-05
6.50824e-05
4.78425e-05
5.23805e-05
6.10348e-05
6.50813e-05
4.78971e-05
6.88119e-05
7.36601e-05
6.88042e-05
7.36734e-05
6.10529e-05
4.78385e-05
6.5085e-05
5.2388e-05
6.10331e-05
4.78982e-05
6.50885e-05
6.88104e-05
7.36917e-05
7.36767e-05
6.88088e-05
6.10522e-05
5.24036e-05
6.50656e-05
4.79758e-05
6.50775e-05
4.79423e-05
6.1057e-05
6.881e-05
7.36888e-05
7.36755e-05
6.88088e-05
6.10523e-05
5.24225e-05
4.79862e-05
6.50796e-05
4.79488e-05
6.50865e-05
6.10579e-05
6.88157e-05
7.36637e-05
6.8803e-05
7.36768e-05
6.10603e-05
4.78216e-05
6.50904e-05
5.23915e-05
6.10255e-05
4.78898e-05
6.50995e-05
6.88169e-05
7.36632e-05
6.88036e-05
7.36755e-05
6.10601e-05
5.24193e-05
6.5088e-05
4.79938e-05
6.50908e-05
4.79455e-05
6.10687e-05
6.88146e-05
7.36926e-05
7.36788e-05
6.88155e-05
6.10609e-05
5.24346e-05
4.7999e-05
6.50914e-05
4.79514e-05
6.5098e-05
6.10696e-05
6.88158e-05
7.36897e-05
7.36774e-05
6.8817e-05
7.0176e-05
7.01771e-05
5.43217e-05
7.01735e-05
7.01753e-05
7.13989e-05
7.14148e-05
7.14336e-05
7.14167e-05
5.43535e-05
7.01492e-05
7.01505e-05
7.01684e-05
7.01703e-05
7.1432e-05
7.14155e-05
6.10597e-05
4.78204e-05
6.50933e-05
5.23904e-05
6.10243e-05
4.78907e-05
6.51024e-05
6.88162e-05
7.36643e-05
6.88039e-05
7.3677e-05
6.88139e-05
7.3665e-05
6.88009e-05
7.36773e-05
6.10612e-05
5.24277e-05
4.79995e-05
6.50861e-05
4.79527e-05
6.50926e-05
6.1069e-05
6.10601e-05
5.2434e-05
4.80009e-05
6.5094e-05
4.79534e-05
6.51008e-05
6.10678e-05
6.88151e-05
7.36926e-05
7.36791e-05
6.88157e-05
6.8813e-05
7.36916e-05
7.36792e-05
6.88135e-05
7.14014e-05
7.14165e-05
7.14043e-05
7.14194e-05
5.43645e-05
7.01554e-05
7.01636e-05
7.01794e-05
7.01881e-05
7.14319e-05
7.14169e-05
7.14348e-05
7.14198e-05
7.14325e-05
7.14581e-05
7.14355e-05
7.1461e-05
7.01199e-05
7.01279e-05
5.43401e-05
7.01211e-05
7.01282e-05
7.14902e-05
7.14615e-05
7.14933e-05
7.14644e-05
5.43642e-05
7.01755e-05
7.01825e-05
7.01284e-05
7.01344e-05
6.87978e-05
7.36919e-05
6.88046e-05
7.37088e-05
6.10513e-05
6.50561e-05
4.80019e-05
5.24416e-05
6.10531e-05
6.50521e-05
4.80247e-05
6.10521e-05
6.50735e-05
4.80116e-05
5.24653e-05
6.10539e-05
6.50624e-05
4.80336e-05
6.87934e-05
7.37466e-05
7.37187e-05
6.87963e-05
6.87932e-05
7.37369e-05
7.37125e-05
6.87945e-05
6.10468e-05
5.24601e-05
6.50797e-05
4.80723e-05
6.50524e-05
4.80476e-05
6.10513e-05
6.10473e-05
5.2471e-05
6.50624e-05
4.8072e-05
6.50582e-05
4.80527e-05
6.105e-05
7.01455e-05
7.01531e-05
5.43718e-05
7.01341e-05
7.01376e-05
7.14352e-05
7.14557e-05
7.14866e-05
7.14591e-05
5.43877e-05
7.01537e-05
7.01452e-05
7.01336e-05
7.01345e-05
7.1485e-05
7.14581e-05
6.10492e-05
6.50584e-05
4.80028e-05
5.24393e-05
6.10526e-05
6.50537e-05
4.80236e-05
6.8795e-05
7.36912e-05
6.88041e-05
7.37082e-05
6.10496e-05
4.80142e-05
6.50715e-05
5.24606e-05
6.10535e-05
4.80328e-05
6.50564e-05