/*--------------------------------*- C++ -*----------------------------------*\
| =========                 |                                                 |
| \\      /  F ield         | OpenFOAM: The Open Source CFD Toolbox           |
|  \\    /   O peration     | Version:  2312                                  |
|   \\  /    A nd           | Website:  www.openfoam.com                      |
|    \\/     M anipulation  |                                                 |
\*---------------------------------------------------------------------------*/
FoamFile
{
    version     2.0;
    format      ascii;
    arch        "LSB;label=32;scalar=64";
    class       volScalarField;
    location    "1000";
    object      nut;
}
// * * * * * * * * * * * * * * * * * * * * * * * * * * * * * * * * * * * * * //

dimensions      [0 2 -1 0 0 0 0];

internalField   nonuniform List<scalar> 
43208
(
0.000209722
0.000202419
0.000202218
0.000182903
0.000211374
0.000203266
0.000203533
0.000183956
0.000213344
0.000204321
0.000204208
0.000184269
0.000216143
0.0002058
0.000205857
0.000185417
0.0002179
0.000206967
0.000206954
0.00018628
0.000219144
0.000207142
0.000207057
0.000186062
0.000221293
0.00020834
0.000208413
0.000187015
0.000223333
0.0002096
0.000209724
0.000188011
0.000225043
0.000210231
0.000210106
0.000188197
0.000225172
0.000209887
0.000209898
0.000187591
0.00022623
0.000210536
0.000210667
0.000188447
0.000230211
0.000213142
0.000213052
0.000190324
0.000230284
0.000212196
0.000212429
0.000189351
0.000229094
0.000210861
0.00021078
0.000187814
0.00023149
0.000213034
0.000212882
0.000189871
0.000232903
0.000213875
0.000214107
0.000190483
0.000233245
0.000213272
0.000213286
0.000189629
0.000234051
0.000213225
0.000213087
0.000189429
0.000233928
0.000213171
0.000213206
0.000189611
0.000234886
0.000214145
0.000214289
0.00019022
0.000235172
0.000214385
0.000214281
0.000193914
0.000183273
0.000202247
0.000202196
0.000183228
0.000202202
0.000201869
0.000202169
0.00020176
0.000182975
0.000201842
0.000201716
0.000182884
0.000183262
0.000183625
0.000202523
0.000202476
0.000202955
0.000203015
0.000183224
0.000183694
0.000202478
0.000202275
0.000202993
0.000203281
0.000202054
0.000203047
0.000203278
0.000183054
0.000183917
0.000202012
0.000203311
0.000203311
0.000183911
0.000183567
0.000184365
0.000203076
0.000203176
0.000203938
0.000203923
0.000183662
0.000184354
0.000203132
0.000203444
0.000203956
0.00020386
0.000203588
0.000204025
0.000203955
0.000183885
0.000184283
0.000203639
0.000203963
0.000203975
0.000184321
0.000184499
0.000185606
0.000204384
0.000204269
0.00020568
0.00020544
0.000184418
0.000185391
0.000204384
0.000204157
0.000205678
0.000205453
0.000204113
0.00020539
0.000205287
0.00018431
0.000185404
0.000204114
0.000205405
0.000205286
0.000185288
0.000185632
0.000186059
0.00020602
0.000205837
0.000206555
0.00020673
0.000185452
0.00018623
0.000206027
0.00020589
0.000206584
0.000206769
0.000205789
0.000206793
0.000206884
0.000185492
0.000186265
0.000205797
0.00020683
0.000206908
0.000186363
0.000185925
0.000186221
0.000206621
0.000206879
0.000206927
0.000206977
0.00018616
0.00018628
0.00020665
0.000206869
0.000206927
0.000206881
0.000207008
0.000207068
0.000206987
0.000186167
0.000186182
0.000207027
0.00020697
0.000206991
0.000186163
0.000186238
0.000187181
0.000207182
0.000207097
0.000208196
0.000207991
0.000186203
0.000186981
0.000207177
0.000207012
0.000208202
0.000208041
0.000207007
0.000207978
0.000207924
0.000186128
0.000187033
0.000207003
0.00020803
0.000207932
0.000186935
0.000187214
0.000187875
0.000208541
0.00020835
0.000209273
0.000209302
0.000187036
0.000187905
0.000208554
0.000208426
0.000209311
0.000209459
0.000208306
0.000209335
0.000209457
0.000187107
0.000188018
0.000208321
0.000209493
0.00020949
0.000188037
0.000187805
0.000188363
0.000209454
0.000209515
0.000210106
0.00021008
0.000187867
0.000188395
0.000209494
0.000209648
0.000210115
0.00020998
0.00020974
0.000210141
0.000210131
0.000187965
0.000188274
0.000209771
0.000210058
0.000210147
0.000188346
0.000188275
0.000187966
0.000210225
0.000210183
0.000210062
0.000210066
0.000188281
0.000187999
0.000210226
0.000210057
0.000210051
0.000209997
0.000210149
0.000210043
0.000209841
0.000188138
0.000187962
0.000210151
0.000209979
0.000209835
0.000187787
0.000187687
0.000187852
0.000209805
0.000209889
0.000209705
0.000209775
0.00018776
0.00018797
0.000209802
0.000209894
0.000209741
0.000209923
0.000209747
0.000209892
0.000210141
0.00018776
0.000188116
0.000209746
0.000210079
0.000210194
0.000188247
0.000188252
0.000190925
0.000210437
0.00021038
0.000213043
0.000212761
0.000188226
0.000190532
0.000210493
0.000210531
0.000213041
0.000212659
0.000210725
0.000212714
0.000212582
0.000188308
0.000190385
0.000210759
0.000212599
0.000212573
0.000190319
0.000190893
0.000188971
0.000213403
0.000213209
0.000212458
0.000212909
0.00019055
0.000189485
0.000213396
0.000213127
0.000212491
0.000213108
0.000212994
0.000212989
0.00021308
0.000190415
0.000189708
0.000212982
0.000213192
0.000213114
0.000189692
0.000188543
0.000188055
0.000211637
0.000212048
0.000210829
0.000210771
0.000189109
0.000187931
0.000211682
0.000212271
0.000210867
0.000210764
0.000212352
0.000210893
0.000210872
0.000189341
0.000187898
0.000212403
0.000210885
0.000210904
0.000187956
0.000188333
0.000190514
0.000210983
0.000210774
0.000213109
0.000212587
0.000187958
0.000190002
0.000211004
0.000210699
0.000213074
0.000212288
0.000210763
0.000212407
0.00021206
0.000187804
0.000189797
0.00021078
0.000212104
0.000212014
0.000189661
0.000190447
0.000189749
0.000213401
0.000213158
0.000213342
0.000213823
0.000190075
0.000190296
0.000213378
0.000213022
0.000213393
0.000213987
0.000212842
0.000213888
0.000214056
0.00018996
0.000190532
0.000212807
0.000214051
0.000214082
0.000190661
0.000189536
0.00018972
0.000213065
0.000213699
0.000213037
0.000213161
0.000190114
0.000189825
0.000213131
0.000213969
0.000213072
0.000213258
0.000214121
0.000213327
0.00021336
0.000190352
0.000189845
0.000214161
0.000213426
0.000213403
0.000189802
0.000189735
0.000190396
0.00021323
0.000213161
0.00021388
0.000213335
0.000189686
0.00018985
0.000213252
0.000213182
0.000213872
0.000213177
0.000213191
0.00021323
0.000212973
0.000189686
0.000189712
0.000213219
0.000213082
0.000212967
0.000189567
0.000190203
0.000189268
0.00021383
0.000213332
0.000212935
0.00021311
0.000189696
0.000189549
0.000213815
0.000213187
0.000212947
0.000213128
0.000212997
0.000213136
0.000213197
0.000189565
0.00018959
0.00021299
0.000213135
0.000213198
0.000189704
0.000189061
0.00019003
0.000212854
0.000213098
0.000213338
0.000213482
0.000189403
0.000190166
0.000212871
0.000213153
0.000213375
0.000213617
0.000213298
0.000213639
0.000213805
0.00018946
0.000190284
0.000213303
0.000213786
0.000213851
0.000190335
0.000190018
0.000193008
0.00021395
0.000214012
0.000214834
0.000214538
0.000190108
0.000192633
0.000213978
0.000214148
0.000214852
0.000214481
0.000214268
0.000214501
0.000214265
0.000190225
0.000192566
0.000214305
0.000214437
0.000214274
0.000192384
0.000194476
0.000214707
0.000214435
0.000194172
0.000214716
0.000214336
0.000234886
0.000234823
0.000234665
0.000214137
0.000194058
0.000214137
0.000100046
5.07579e-05
2.38961e-05
5.07527e-05
0.000209123
0.000209107
0.00020871
0.000208688
0.000144556
0.000201512
0.000103843
0.000211101
0.000100083
5.07658e-05
0.00010007
5.07722e-05
2.39e-05
2.39036e-05
0.000100085
5.0761e-05
0.00010005
5.07675e-05
0.000209687
0.000209342
0.000209176
0.000211036
0.000211054
0.000211248
0.00021115
0.00014481
0.000103868
0.00021232
0.000202635
0.000144676
0.000103896
0.000212668
2.39001e-05
2.39035e-05
0.00014481
0.000212083
0.000103846
0.00020262
0.000144607
0.000212544
0.000103959
7.7995e-05
7.79934e-05
0.000183335
7.80699e-05
7.80709e-05
0.000100088
5.07829e-05
0.000100069
5.07929e-05
2.39086e-05
2.39133e-05
0.000100096
5.0778e-05
0.000100089
5.07877e-05
0.000211463
0.000211745
0.000211787
0.000212719
0.000212835
0.000212881
0.000213008
0.000145097
0.0001039
0.000213769
0.000203497
0.000144983
0.000103944
0.000214103
2.39073e-05
2.39115e-05
0.000145137
0.000213972
0.000103957
0.000203677
0.000145053
0.000214295
0.000103945
7.80758e-05
7.8074e-05
0.00018423
7.803e-05
7.80239e-05
0.000100256
5.08071e-05
0.000100157
5.08144e-05
2.39186e-05
2.39225e-05
0.000100241
5.08019e-05
0.000100136
5.08094e-05
0.000213354
0.000213304
0.000213323
0.00021547
0.000215108
0.000215083
0.000214895
0.000145334
0.000104014
0.000215014
0.000204636
0.000145172
0.00010413
0.000215346
2.39177e-05
2.39218e-05
0.000145298
0.000214966
0.000103964
0.000204539
0.00014514
0.000215264
0.000104127
7.80093e-05
7.79982e-05
0.000184622
7.81247e-05
7.81177e-05
0.000100349
5.0821e-05
0.000100326
5.08256e-05
2.39261e-05
2.3929e-05
0.000100348
5.08159e-05
0.000100324
5.08206e-05
0.000215784
0.000215824
0.000215668
0.000217584
0.000217742
0.000217815
0.000217907
0.000145864
0.000104251
0.000216762
0.000206178
0.000145648
0.000104293
0.000217319
2.39252e-05
2.3928e-05
0.000145872
0.000216775
0.00010427
0.000206255
0.000145653
0.000217363
0.000104303
7.8222e-05
7.82182e-05
0.000185954
7.82319e-05
7.82278e-05
0.000100306
5.08325e-05
0.000100327
5.08397e-05
2.39323e-05
2.39359e-05
0.000100299
5.08275e-05
0.000100325
5.08346e-05
0.000218224
0.000218246
0.000218381
0.000218777
0.000219001
0.00021889
0.000218981
0.000145967
0.000104269
0.000218631
0.000207041
0.000145943
0.000104236
0.000218824
2.39312e-05
2.39348e-05
0.000145957
0.000218651
0.000104258
0.000206991
0.000145944
0.000218812
0.000104214
7.81511e-05
7.81449e-05
0.000186377
7.80974e-05
7.80904e-05
0.000100348
5.08525e-05
0.000100273
5.08606e-05
2.39413e-05
2.39454e-05
0.000100344
5.08474e-05
0.000100262
5.08556e-05
0.000219231
0.000219119
0.000219155
0.000220685
0.000220417
0.000220431
0.000220313
0.000145942
0.000104176
0.000219035
0.000207339
0.000145871
0.000104283
0.000219206
2.39406e-05
2.39448e-05
0.000145931
0.000218964
0.000104159
0.000207308
0.000145849
0.000219147
0.00010429
7.80819e-05
7.80757e-05
0.000186401
7.81688e-05
7.81645e-05
0.000100447
5.08673e-05
0.000100421
5.08719e-05
2.39488e-05
2.39515e-05
0.000100446
5.08623e-05
0.00010042
5.08669e-05
0.000220988
0.000221055
0.000220905
0.000222894
0.000222854
0.00022306
0.000222976
0.000146407
0.000104412
0.000220352
0.000208692
0.000146219
0.000104464
0.000220825
2.39482e-05
2.39507e-05
0.000146422
0.000220403
0.000104434
0.000208796
0.000146234
0.00022089
0.000104486
7.82439e-05
7.82409e-05
0.000187537
7.82786e-05
7.82752e-05
0.000100472
5.08782e-05
0.000100458
5.08822e-05
2.39545e-05
2.39572e-05
0.00010047
5.08732e-05
0.000100457
5.08773e-05
0.000223395
0.000223588
0.000223601
0.000224629
0.000224661
0.000224588
0.000224795
0.000146623
0.000104487
0.000222131
0.000209834
0.000146521
0.00010452
0.000222458
2.39533e-05
2.39558e-05
0.000146628
0.000222241
0.000104504
0.000209875
0.000146533
0.000222545
0.000104519
7.82993e-05
7.82935e-05
0.000188343
7.82936e-05
7.82842e-05
0.000100439
5.08856e-05
0.000100458
5.08866e-05
2.39595e-05
2.39615e-05
0.000100426
5.08806e-05
0.000100449
5.08816e-05
0.000225019
0.000224863
0.000225
0.000225422
0.000225459
0.000225331
0.000225114
0.0001466
0.000104485
0.000223149
0.000210272
0.000146628
0.000104428
0.00022324
2.39583e-05
2.39608e-05
0.000146564
0.000223052
0.000104438
0.000210107
0.0001466
0.000223129
0.000104388
7.81915e-05
7.81822e-05
0.000188137
7.81101e-05
7.81044e-05
0.000100156
5.08911e-05
0.000100252
5.09039e-05
2.39649e-05
2.39706e-05
0.00010017
5.08861e-05
0.00010025
5.0899e-05
0.000225314
0.000225296
0.000225081
0.000225304
0.000225485
0.000225669
0.000225775
0.000146229
0.000104151
0.000223131
0.000209754
0.000146313
0.000104089
0.000223015
2.39647e-05
2.39699e-05
0.000146271
0.000223097
0.000104195
0.00020982
0.000146326
0.000223024
0.000104158
7.79833e-05
7.79846e-05
0.000187699
7.80394e-05
7.80412e-05
0.000100622
5.0928e-05
0.000100291
5.09354e-05
2.39777e-05
2.39802e-05
0.000100596
5.09228e-05
0.000100301
5.09301e-05
0.000226171
0.000226278
0.000226421
0.000229422
0.00022901
0.000228919
0.000228928
0.000146924
0.000104438
0.000223635
0.000211253
0.000146417
0.000104798
0.000224361
2.39762e-05
2.39787e-05
0.000146881
0.000223788
0.000104436
0.000211253
0.000146446
0.000224405
0.000104738
7.83075e-05
7.82957e-05
0.000189338
7.84976e-05
7.84808e-05
0.000100777
5.09198e-05
0.00010095
5.09053e-05
2.39761e-05
2.3974e-05
0.000100781
5.0915e-05
0.000100914
5.09007e-05
0.000229951
0.000229858
0.000229804
0.000230688
0.000230932
0.000231033
0.000230948
0.000147676
0.000105092
0.000226626
0.000213422
0.000147561
0.000104817
0.000227067
2.39758e-05
2.3974e-05
0.000147645
0.000226539
0.000105023
0.000213364
0.000147478
0.000227007
0.000104856
7.85491e-05
7.85448e-05
0.000190613
7.83025e-05
7.83091e-05
9.98063e-05
5.0901e-05
0.000100014
5.09185e-05
2.39752e-05
2.39825e-05
9.98348e-05
5.08961e-05
0.00010005
5.0913e-05
0.000230724
0.000230908
0.000230865
0.00022916
0.000229266
0.000229345
0.000229406
0.000146083
0.000104035
0.000226871
0.000211526
0.000146605
0.000103825
0.000226107
2.39744e-05
2.39804e-05
0.000146174
0.000227043
0.000104138
0.000211711
0.000146704
0.000226277
0.000103877
7.78916e-05
7.78967e-05
0.000188508
7.77876e-05
7.77835e-05
0.000100393
5.0947e-05
0.000100038
5.09538e-05
2.39907e-05
2.39935e-05
0.000100345
5.09413e-05
0.000100003
5.09485e-05
0.000228975
0.000228941
0.000228975
0.000230568
0.000229709
0.00022934
0.000229234
0.000146362
0.000104105
0.00022492
0.000211018
0.00014583
0.00010442
0.00022491
2.39889e-05
2.39924e-05
0.00014625
0.000224897
0.000103996
0.000210841
0.00014579
0.000224838
0.000104311
7.80246e-05
7.79997e-05
0.000188364
7.81993e-05
7.8182e-05
0.000100502
5.0944e-05
0.000100597
5.09393e-05
2.39919e-05
2.39931e-05
0.000100517
5.09397e-05
0.000100568
5.09347e-05
0.00023086
0.000230581
0.000230468
0.000232826
0.000233211
0.000233354
0.000233377
0.000147264
0.00010466
0.000226813
0.000213489
0.000147054
0.000104585
0.000227655
2.39921e-05
2.3993e-05
0.000147269
0.000226602
0.000104648
0.000213494
0.000147002
0.000227543
0.000104666
7.83419e-05
7.83466e-05
0.000190563
7.82935e-05
7.83092e-05
0.000100128
5.0941e-05
0.000100172
5.09486e-05
2.39938e-05
2.39974e-05
0.00010014
5.09361e-05
0.000100193
5.09434e-05
0.000233428
0.000233654
0.00023373
0.000233119
0.00023361
0.00023383
0.000233916
0.000146775
0.000104328
0.000228666
0.000213691
0.000146938
0.000104276
0.000228812
2.39928e-05
2.3996e-05
0.000146816
0.000228798
0.00010439
0.000213986
0.00014702
0.000229006
0.000104293
7.81329e-05
7.81259e-05
0.000190221
7.80921e-05
7.80818e-05
0.000100178
5.09517e-05
0.000100131
5.09543e-05
2.39969e-05
2.40003e-05
0.000100156
5.09465e-05
0.000100125
5.09491e-05
0.000233522
0.000233656
0.000233686
0.000233966
0.00023347
0.000233362
0.000233247
0.000146524
0.000104263
0.000228181
0.000213229
0.000146535
0.000104243
0.000228012
2.39955e-05
2.39991e-05
0.0001465
0.00022826
0.000104244
0.000213149
0.000146526
0.000228011
0.000104209
7.80686e-05
7.80575e-05
0.000189614
7.80325e-05
7.80234e-05
0.000100015
5.09477e-05
0.000100138
5.09533e-05
2.39979e-05
2.40039e-05
0.000100014
5.09428e-05
0.000100123
5.09484e-05
0.000233541
0.000233407
0.000233281
0.000233951
0.000233905
0.000233804
0.000233777
0.000146385
0.000104176
0.000227993
0.000213193
0.000146435
0.000104083
0.000228061
2.39971e-05
2.4003e-05
0.000146362
0.000227889
0.000104156
0.00021309
0.0001464
0.000227953
0.00010408
7.7998e-05
7.79944e-05
0.000189588
7.79433e-05
7.79408e-05
9.99227e-05
5.09519e-05
9.98936e-05
5.09645e-05
2.40012e-05
2.40091e-05
9.99272e-05
5.0947e-05
9.98954e-05
5.09593e-05
0.000234026
0.000234015
0.000234086
0.000234167
0.000234487
0.000234637
0.000234798
0.000146388
0.000104116
0.000228287
0.00021324
0.000146322
0.000104068
0.000228447
2.40001e-05
2.40079e-05
0.000146411
0.000228274
0.00010413
0.000213337
0.000146337
0.000228492
0.000104087
7.79808e-05
7.79778e-05
0.000189978
7.79172e-05
7.79138e-05
0.000100025
5.09557e-05
9.99893e-05
5.10004e-05
2.40019e-05
2.40231e-05
0.000100036
5.09502e-05
9.99993e-05
5.09948e-05
0.000235086
0.000235265
0.000235349
0.000235781
0.000235495
0.000235468
0.000235312
0.000146586
0.000104214
0.000229054
0.000213787
0.00014657
0.000104019
0.000229266
2.40008e-05
2.40221e-05
0.000146603
0.000229164
0.000104233
0.000213885
0.000146597
0.000229366
0.000104024
7.78622e-05
7.78592e-05
0.000190614
7.75697e-05
7.75629e-05
0.00010858
5.50949e-05
0.00010043
8.58727e-05
2.70334e-05
4.6216e-05
0.000108554
5.50901e-05
0.000100416
8.58738e-05
0.000252624
0.000245105
0.000245122
0.000233658
0.000251743
0.000244939
0.000244905
0.000151029
0.000106107
0.000229473
0.000214982
0.000147416
0.000108613
0.00022963
2.70315e-05
4.62018e-05
0.000150971
0.000229443
0.000106079
0.000214818
0.000147385
0.000229532
0.000108573
7.74476e-05
7.74367e-05
0.000197294
8.54993e-05
8.54996e-05
2.38982e-05
2.38962e-05
0.000182822
7.80608e-05
7.80491e-05
2.39017e-05
2.38985e-05
2.38998e-05
2.38965e-05
0.000182898
7.80524e-05
7.80445e-05
7.80563e-05
7.80457e-05
0.000100041
5.0752e-05
0.000144597
0.000201501
0.000103877
0.000211029
0.000144589
0.00020145
0.000103838
0.000211012
0.000100047
5.07648e-05
5.07589e-05
0.000100076
0.000100041
5.07594e-05
5.07531e-05
0.000100073
0.000144616
0.000201908
0.000103899
0.000212104
0.000103873
0.000211596
0.000144778
0.000144608
0.000201856
0.000103874
0.000212086
0.000103835
0.000211578
0.000144771
0.000182792
7.80314e-05
7.80399e-05
2.38974e-05
2.38997e-05
2.38964e-05
0.000182862
7.80284e-05
7.80435e-05
7.80286e-05
7.80358e-05
2.39012e-05
2.38976e-05
0.000201504
0.000103853
0.000100013
5.07599e-05
5.07538e-05
0.000100052
0.000144552
0.000201881
0.000103885
0.000211957
0.00010385
0.000211503
0.000144712
9.99993e-05
5.07576e-05
5.07488e-05
0.000100044
0.000144525
0.000201511
0.000211815
0.000103842
0.000211365
0.000103737
0.00014469
0.00010001
5.07533e-05
0.000144548
0.000211094
0.00010001
0.00014456
0.000201875
0.000103876
0.000211955
0.000103838
0.000211565
0.000144675
0.000100003
5.07611e-05
5.07544e-05
0.000100025
0.000144548
0.000201558
0.0002118
0.000103775
0.000211469
0.00010374
0.000144652
0.000100003
5.07573e-05
5.07485e-05
0.00010002
2.38998e-05
2.38954e-05
0.000182586
7.80338e-05
7.80399e-05
7.79669e-05
7.79637e-05
2.39021e-05
2.38975e-05
0.000144481
0.000201528
0.000211686
0.000103838
0.000211347
0.000103736
0.000144596
0.00014448
0.00020153
0.000211654
0.00010376
0.000211371
0.000103721
0.000144582
9.99652e-05
5.07627e-05
5.07536e-05
9.99958e-05
9.99566e-05
5.07559e-05
5.07468e-05
9.9984e-05
0.000182628
7.79813e-05
7.79776e-05
7.79455e-05
7.79326e-05
2.39002e-05
2.38953e-05
2.38993e-05
2.38943e-05
2.3902e-05
2.39054e-05
2.39001e-05
2.39035e-05
7.8042e-05
7.80375e-05
0.000183495
7.80168e-05
7.80192e-05
2.39099e-05
2.39057e-05
2.39079e-05
2.39038e-05
0.000183433
7.79726e-05
7.79752e-05
7.79976e-05
7.80013e-05
0.000100081
5.07606e-05
0.000100067
5.07672e-05
0.000144867
0.000103887
0.000212548
0.000202722
0.000144779
0.00010389
0.000212911
0.000144863
0.000103862
0.000212529
0.000202693
0.000144773
0.000103873
0.000212896
0.000100073
5.07812e-05
5.07735e-05
0.00010008
0.000100071
5.07761e-05
5.07684e-05
0.000100079
0.000144852
0.000202858
0.00010386
0.000213408
0.000103868
0.000213193
0.000144911
0.00014485
0.000202867
0.000103864
0.000213425
0.000103855
0.00021319
0.000144912
7.80196e-05
7.80378e-05
0.000183487
7.80029e-05
7.80356e-05
2.39015e-05
2.39051e-05
2.39081e-05
2.39039e-05
0.000183451
7.79818e-05
7.8024e-05
7.79895e-05
7.80274e-05
2.39095e-05
2.39055e-05
0.000144858
0.000103874
0.000212395
0.000202699
0.000144719
0.000103885
0.000212805
0.000100088
5.07591e-05
0.000100043
5.07661e-05
0.000144861
0.00021229
0.000103848
0.000202678
0.0001447
0.000212767
0.000103939
0.000100081
5.07764e-05
5.07687e-05
0.000100099
0.000144859
0.000202866
0.000103864
0.000213461
0.000103867
0.000213165
0.000144958
0.000100085
5.07732e-05
5.07672e-05
0.000100105
0.000144866
0.000203029
0.000213567
0.000103938
0.000213207
0.000103932
0.000144978
0.000100063
5.07623e-05
0.000100019
5.07693e-05
0.000144802
0.000212154
0.000103778
0.00020244
0.000144653
0.000212556
0.000103915
0.000100065
5.07591e-05
0.000100015
5.07683e-05
0.000144819
0.000202844
0.000103912
0.0002134
0.000103886
0.000213036
0.000144978
0.000100061
5.07782e-05
5.07706e-05
0.000100111
0.000144816
0.000202877
0.00021347
0.000103996
0.000213011
0.000103924
0.000144998
0.000100066
5.07758e-05
5.07696e-05
0.000100124
7.80423e-05
7.80508e-05
0.000183503
7.80638e-05
7.80851e-05
2.39024e-05
2.39059e-05
2.3907e-05
2.39038e-05
0.000183567
7.80334e-05
7.80628e-05
7.80587e-05
7.8081e-05
2.39093e-05
2.39061e-05
0.000144792
0.000212006
0.000103765
0.000202418
0.00014459
0.000212454
0.000103916
0.000100074
5.07642e-05
9.9994e-05
5.07718e-05
0.000100062
5.07577e-05
9.99805e-05
5.0767e-05
0.000144835
0.000203004
0.000213543
0.000103976
0.000213052
0.000103958
0.000145044
0.000144818
0.000202882
0.00021352
0.000103995
0.000212984
0.000103927
0.000145039
0.000100078
5.07788e-05
5.07728e-05
0.000100137
0.000100065
5.07743e-05
5.07683e-05
0.000100131
2.39008e-05
2.3905e-05
2.38999e-05
2.3904e-05
0.000183443
7.8085e-05
7.80846e-05
7.80758e-05
7.80768e-05
2.39085e-05
2.39053e-05
2.39074e-05
2.39043e-05
2.39105e-05
2.39158e-05
2.39084e-05
2.39136e-05
7.79598e-05
7.79615e-05
0.000183848
7.80201e-05
7.80072e-05
2.3921e-05
2.39164e-05
2.39189e-05
2.39142e-05
0.000183887
7.81357e-05
7.8123e-05
7.80329e-05
7.80184e-05
0.000100087
5.07776e-05
0.000100069
5.07866e-05
0.000144984
0.00010384
0.000213607
0.000203266
0.000144898
0.000103898
0.000213833
0.000144987
0.000103849
0.000213642
0.00020337
0.000144901
0.000103903
0.000213877
0.000100083
5.08055e-05
5.07949e-05
0.000100151
0.000100082
5.07982e-05
5.07884e-05
0.000100145
0.000144986
0.00020356
0.000104063
0.000214503
0.000103899
0.000214128
0.000145169
0.000144989
0.000203624
0.000104007
0.000214517
0.000103898
0.000214165
0.000145163
7.79751e-05
7.8016e-05
0.000183953
7.80124e-05
7.80362e-05
2.39099e-05
2.39144e-05
2.39183e-05
2.39138e-05
0.000183967
7.80775e-05
7.80813e-05
7.80161e-05
7.80324e-05
2.39193e-05
2.39148e-05
0.000145017
0.000103844
0.000213713
0.000203321
0.000144948
0.00010389
0.000213948
0.000100099
5.07743e-05
0.000100094
5.07818e-05
0.000145028
0.000213848
0.000103917
0.00020355
0.000144968
0.000214067
0.000103905
0.000100086
5.08003e-05
5.07897e-05
0.000100131
0.00014501
0.0002036
0.000104043
0.000214536
0.000103889
0.000214213
0.000145145
0.000100087
5.07939e-05
5.07835e-05
0.000100122
0.000145017
0.000203672
0.00021454
0.000103956
0.000214282
0.000103884
0.000145132
0.000100127
5.07797e-05
0.000100106
5.07882e-05
0.000145118
0.000213896
0.000103981
0.000203774
0.000145006
0.000214238
0.000103971
0.000100138
5.07767e-05
0.000100121
5.07829e-05
0.00014509
0.000203756
0.000104015
0.000214706
0.000103935
0.000214419
0.000145173
0.000100115
5.07993e-05
5.07899e-05
0.000100129
0.000145107
0.000203875
0.000214721
0.000103932
0.000214506
0.000103944
0.000145167
0.000100126
5.0793e-05
5.07842e-05
0.00010013
7.80141e-05
7.80411e-05
0.00018409
7.79867e-05
7.80092e-05
2.39096e-05
2.39135e-05
2.39172e-05
2.39121e-05
0.000184024
7.80517e-05
7.80485e-05
7.79766e-05
7.79935e-05
2.39192e-05
2.39141e-05
0.000145142
0.000213999
0.000103981
0.000203827
0.00014505
0.000214351
0.000103969
0.000100135
5.07799e-05
0.00010013
5.07871e-05
0.000100129
5.07752e-05
0.000100122
5.07814e-05
0.000145112
0.000203805
0.000214733
0.000103962
0.000214537
0.000103921
0.000145152
0.000145115
0.000203916
0.000214756
0.000103922
0.000214591
0.000103939
0.000145149
0.000100119
5.07984e-05
5.07886e-05
0.000100116
0.000100112
5.07914e-05
5.07826e-05
0.000100108
2.39087e-05
2.39119e-05
2.39076e-05
2.39108e-05
0.000184151
7.79971e-05
7.79859e-05
7.80082e-05
7.8001e-05
2.39171e-05
2.39123e-05
2.3916e-05
2.39112e-05
2.39214e-05
2.39247e-05
2.39193e-05
2.39227e-05
7.81511e-05
7.81391e-05
0.000185031
7.82053e-05
7.81985e-05
2.39276e-05
2.39248e-05
2.39256e-05
2.39228e-05
0.000185129
7.82146e-05
7.82092e-05
7.82072e-05
7.82011e-05
0.000100247
5.07999e-05
0.00010015
5.08083e-05
0.000145451
0.000104078
0.000214964
0.000204842
0.000145194
0.000104217
0.000215476
0.000145433
0.000104011
0.00021494
0.000204638
0.000145186
0.000104133
0.000215409
0.000100263
5.08202e-05
5.08153e-05
0.000100328
0.000100254
5.08157e-05
5.08096e-05
0.000100323
0.00014548
0.000205289
0.000104268
0.000216552
0.000104221
0.000216018
0.000145704
0.000145461
0.000205038
0.000104231
0.000216436
0.000104139
0.000215917
0.00014569
7.80871e-05
7.8084e-05
0.000184864
7.81422e-05
7.81527e-05
2.39198e-05
2.39239e-05
2.39259e-05
2.39227e-05
0.00018494
7.81788e-05
7.82042e-05
7.8149e-05
7.81603e-05
2.39274e-05
2.39242e-05
0.000145413
0.000104058
0.000214947
0.000204833
0.000145164
0.000104204
0.000215428
0.000100232
5.07959e-05
0.000100126
5.08055e-05
0.000145392
0.000214891
0.000103964
0.000204541
0.000145147
0.000215326
0.000104135
0.000100251
5.08152e-05
5.08103e-05
0.000100325
0.000145447
0.00020528
0.000104259
0.000216512
0.000104209
0.000215964
0.000145697
0.000100242
5.08125e-05
5.08067e-05
0.000100322
0.000145427
0.000204993
0.000216398
0.000104253
0.000215842
0.000104149
0.000145687
0.000100193
5.08011e-05
0.000100121
5.08101e-05
0.000145317
0.000214962
0.00010392
0.000204391
0.000145162
0.000215258
0.00010407
0.000100188
5.0795e-05
0.000100121
5.08061e-05
0.000145358
0.000205
0.000104249
0.000216214
0.000104137
0.000215749
0.000145615
0.000100199
5.08178e-05
5.08114e-05
0.000100302
0.000145342
0.000204803
0.00021616
0.000104257
0.000215662
0.00010409
0.000145613
0.000100197
5.08148e-05
5.08077e-05
0.000100306
7.80683e-05
7.80624e-05
0.000184771
7.81572e-05
7.81607e-05
2.39198e-05
2.39241e-05
2.39251e-05
2.39221e-05
0.000184886
7.82e-05
7.82183e-05
7.81686e-05
7.81751e-05
2.39275e-05
2.39244e-05
0.00014528
0.000214946
0.000103908
0.000204383
0.000145134
0.000215211
0.000104058
0.000100179
5.08004e-05
0.000100104
5.08105e-05
0.000100167
5.07934e-05
0.000100094
5.08045e-05
0.000145326
0.000204955
0.000216182
0.00010427
0.000215676
0.000104142
0.000145615
0.000145309
0.000204794
0.000216125
0.000104252
0.00021561
0.000104079
0.000145601
0.000100188
5.0818e-05
5.08119e-05
0.000100303
0.000100174
5.08133e-05
5.08062e-05
0.000100293
2.39178e-05
2.39228e-05
2.39167e-05
2.39218e-05
0.00018472
7.82177e-05
7.82137e-05
7.81462e-05
7.81403e-05
2.39266e-05
2.39232e-05
2.39255e-05
2.39222e-05
2.39277e-05
2.39304e-05
2.39257e-05
2.39284e-05
7.8207e-05
7.8202e-05
0.000185961
7.81822e-05
7.81788e-05
2.39338e-05
2.39306e-05
2.39317e-05
2.39285e-05
0.000185895
7.81196e-05
7.8114e-05
7.81609e-05
7.81564e-05
0.000100346
5.08165e-05
0.000100322
5.08213e-05
0.000145852
0.000104259
0.000217064
0.000206275
0.000145722
0.000104271
0.000217512
0.000145848
0.000104229
0.000216963
0.000206188
0.000145709
0.000104262
0.000217452
0.000100342
5.08315e-05
5.08264e-05
0.000100342
0.00010034
5.08269e-05
5.08221e-05
0.000100343
0.000145846
0.000206454
0.000104226
0.000218149
0.000104253
0.000217878
0.000145912
0.000145843
0.000206502
0.000104255
0.000218218
0.000104251
0.000217881
0.000145917
7.81779e-05
7.82045e-05
0.000185891
7.81824e-05
7.82108e-05
2.39276e-05
2.39305e-05
2.39321e-05
2.39292e-05
0.000185903
7.81462e-05
7.81846e-05
7.81745e-05
7.82051e-05
2.39335e-05
2.39306e-05
0.000145855
0.00010425
0.000217051
0.000206293
0.000145719
0.000104264
0.000217524
0.000100347
5.08133e-05
0.000100322
5.08179e-05
0.000145856
0.000216974
0.000104249
0.000206267
0.000145711
0.000217497
0.000104277
0.000100341
5.08265e-05
5.08214e-05
0.00010034
0.000145849
0.00020648
0.000104219
0.000218186
0.000104246
0.00021791
0.000145915
0.00010034
5.08231e-05
5.08186e-05
0.000100342
0.000145851
0.000206572
0.000218271
0.00010426
0.000217945
0.000104266
0.000145922
0.00010035
5.08186e-05
0.000100307
5.08231e-05
0.000145869
0.000216751
0.000104263
0.000206241
0.000145648
0.000217343
0.000104312
0.000100355
5.08155e-05
0.000100313
5.08198e-05
0.000145864
0.000206527
0.000104291
0.000218292
0.000104283
0.000217855
0.000145961
0.000100344
5.08285e-05
5.08238e-05
0.000100354
0.00014587
0.000206628
0.000218334
0.000104305
0.000217898
0.000104302
0.000145967
0.000100351
5.08247e-05
5.08205e-05
0.000100361
7.81978e-05
7.82177e-05
0.000185961
7.81971e-05
7.82191e-05
2.39276e-05
2.39303e-05
2.39309e-05
2.39281e-05
0.000185969
7.8147e-05
7.81685e-05
7.81841e-05
7.82063e-05
2.39331e-05
2.39304e-05
0.000145869
0.00021674
0.000104258
0.000206258
0.000145641
0.000217355
0.000104307
0.000100351
5.08187e-05
0.000100308
5.08231e-05
0.000100344
5.08141e-05
0.000100298
5.08183e-05
0.000145872
0.000206597
0.000218337
0.00010429
0.00021791
0.000104292
0.000145964
0.000145869
0.000206652
0.000218361
0.000104299
0.000217922
0.000104298
0.000145962
0.000100345
5.08285e-05
5.08238e-05
0.000100354
0.000100337
5.08232e-05
5.0819e-05
0.000100348
2.39267e-05
2.39292e-05
2.39257e-05
2.39282e-05
0.000186004
7.81789e-05
7.81731e-05
7.82208e-05
7.82162e-05
2.39318e-05
2.39293e-05
2.39307e-05
2.39283e-05
2.39341e-05
2.39384e-05
2.39321e-05
2.39363e-05
7.80997e-05
7.80939e-05
0.000186036
7.80811e-05
7.8073e-05
2.39438e-05
2.39389e-05
2.39417e-05
2.39369e-05
0.000185949
7.81513e-05
7.81423e-05
7.80774e-05
7.8068e-05
0.000100308
5.08277e-05
0.000100328
5.08334e-05
0.000145897
0.000104193
0.00021836
0.000206671
0.000145884
0.000104175
0.000218506
0.000145907
0.00010423
0.000218471
0.000206942
0.000145891
0.000104201
0.000218624
0.000100287
5.08508e-05
5.08412e-05
0.00010028
0.000100288
5.0843e-05
5.08347e-05
0.000100278
0.000145858
0.000206767
0.000104222
0.000218775
0.000104155
0.000218634
0.000145882
0.000145866
0.000206961
0.000104173
0.000218819
0.000104172
0.000218726
0.000145883
7.81284e-05
7.81628e-05
0.00018632
7.80965e-05
7.81231e-05
2.39337e-05
2.3937e-05
2.39409e-05
2.39363e-05
0.000186176
7.80992e-05
7.81023e-05
7.80805e-05
7.8105e-05
2.39419e-05
2.39374e-05
0.000145888
0.000104186
0.000218382
0.000206689
0.000145884
0.000104165
0.000218508
0.0001003
5.08239e-05
0.000100327
5.08297e-05
0.000145896
0.000218493
0.000104228
0.000206895
0.000145892