/*--------------------------------*- C++ -*----------------------------------*\
| =========                 |                                                 |
| \\      /  F ield         | OpenFOAM: The Open Source CFD Toolbox           |
|  \\    /   O peration     | Version:  2312                                  |
|   \\  /    A nd           | Website:  www.openfoam.com                      |
|    \\/     M anipulation  |                                                 |
\*---------------------------------------------------------------------------*/
FoamFile
{
    version     2.0;
    format      ascii;
    arch        "LSB;label=32;scalar=64";
    class       volScalarField;
    location    "1000";
    object      p;
}
// * * * * * * * * * * * * * * * * * * * * * * * * * * * * * * * * * * * * * //

dimensions      [0 2 -2 0 0 0 0];

internalField   nonuniform List<scalar> 
43208
(
0.000714141
0.000714078
0.000714091
0.000716109
0.000678616
0.000678554
0.00067854
0.000680557
0.000643084
0.000643011
0.000643017
0.000645032
0.000607472
0.000607411
0.000607409
0.000609428
0.000571843
0.000571779
0.000571779
0.0005738
0.00053622
0.000536167
0.000536171
0.000538197
0.00050053
0.000500476
0.000500472
0.000502501
0.000464806
0.000464737
0.000464733
0.000466759
0.000429001
0.000428963
0.000428972
0.000431006
0.000393235
0.00039321
0.000393209
0.000395253
0.000357536
0.000357447
0.000357439
0.000359463
0.000321485
0.000321445
0.000321458
0.000323498
0.000285591
0.000285556
0.000285539
0.000287595
0.000249757
0.000249754
0.000249762
0.000251812
0.000213731
0.000213684
0.000213694
0.000215742
0.000177774
0.000177703
0.000177683
0.000179721
0.000141674
0.000141654
0.00014166
0.000143727
0.000105508
0.000105528
0.000105535
0.00010761
6.94804e-05
6.9418e-05
6.94117e-05
7.14873e-05
3.40953e-05
3.34196e-05
3.34094e-05
3.54378e-05
1.04129e-05
6.34302e-06
6.34244e-06
4.8941e-06
0.00072091
0.000722949
0.00072295
0.000720912
0.000722954
0.000722968
0.000722955
0.000722973
0.000720926
0.000722973
0.000722977
0.000720932
0.000716086
0.0006854
0.00071407
0.000714071
0.00068744
0.000687439
0.00071609
0.000685399
0.000714073
0.000714084
0.000687437
0.000687427
0.000714096
0.000687438
0.000687429
0.000716101
0.000685386
0.000714099
0.000687425
0.000687426
0.000685383
0.000680575
0.000649859
0.000678563
0.00067856
0.000651905
0.000651903
0.000680573
0.000649859
0.000678559
0.000678545
0.000651905
0.000651903
0.000678539
0.000651899
0.000651895
0.00068056
0.000649862
0.000678536
0.0006519
0.000651895
0.000649857
0.000645024
0.000614254
0.000643007
0.00064301
0.000616301
0.000616311
0.000645028
0.000614264
0.000643008
0.000643017
0.000616302
0.000616312
0.000643016
0.000616318
0.000616324
0.000645034
0.000614263
0.000643017
0.000616319
0.000616325
0.00061427
0.000609417
0.000578656
0.000607401
0.000607406
0.000580699
0.000580689
0.000609423
0.000578645
0.0006074
0.000607404
0.000580698
0.000580688
0.000607412
0.000580684
0.00058068
0.000609421
0.000578645
0.000607411
0.000580683
0.000580679
0.000578638
0.000573817
0.000543037
0.000571795
0.000571785
0.000545078
0.000545072
0.000573806
0.000543034
0.000571795
0.000571785
0.000545079
0.000545077
0.000571775
0.000545071
0.000545071
0.000573807
0.000543038
0.000571775
0.000545076
0.000545072
0.000543036
0.000538191
0.000507337
0.000536164
0.000536166
0.00050939
0.000509403
0.000538192
0.000507352
0.000536165
0.00053617
0.000509389
0.0005094
0.00053617
0.000509407
0.000509411
0.000538197
0.000507348
0.000536171
0.000509405
0.000509411
0.000507356
0.000502485
0.000471633
0.000500463
0.000500472
0.000473683
0.000473676
0.000502497
0.000471624
0.000500461
0.000500468
0.000473682
0.00047367
0.000500478
0.000473673
0.000473667
0.000502492
0.00047162
0.000500477
0.000473668
0.000473666
0.000471615
0.000466776
0.000435866
0.000464751
0.000464742
0.000437911
0.000437911
0.000466767
0.000435863
0.00046475
0.000464739
0.000437912
0.000437916
0.00046473
0.00043791
0.000437909
0.000466765
0.00043587
0.000464729
0.000437916
0.000437911
0.000435866
0.000431
0.000400092
0.000428957
0.000428961
0.000402134
0.000402136
0.000430999
0.000400099
0.000428959
0.000428969
0.000402135
0.00040214
0.000428969
0.00040214
0.000402151
0.000431006
0.000400102
0.00042897
0.000402144
0.000402152
0.00040011
0.000395242
0.000364368
0.000393213
0.000393209
0.000366428
0.000366419
0.000395246
0.000364356
0.000393213
0.000393207
0.000366424
0.000366407
0.000393215
0.00036641
0.000366394
0.000395246
0.000364344
0.000393215
0.000366398
0.00036639
0.000364332
0.000359488
0.000328356
0.000357454
0.000357455
0.000330428
0.000330445
0.000359481
0.000328374
0.000357451
0.000357446
0.00033043
0.000330456
0.000357432
0.000330455
0.000330467
0.000359472
0.000328385
0.00035743
0.000330467
0.00033047
0.000328395
0.000323456
0.000292494
0.000321418
0.000321432
0.000294521
0.000294499
0.000323474
0.000292472
0.000321421
0.000321445
0.000294519
0.000294489
0.000321463
0.000294493
0.000294489
0.000323486
0.000292461
0.000321466
0.000294483
0.000294487
0.000292458
0.000287635
0.000256693
0.000285595
0.000285568
0.000258736
0.000258735
0.000287616
0.000256695
0.000285592
0.000285552
0.000258733
0.00025873
0.00028554
0.000258727
0.000258712
0.000287604
0.000256692
0.000285536
0.000258722
0.000258711
0.00025668
0.000251802
0.000220589
0.000249734
0.000249752
0.000222656
0.000222683
0.000251812
0.000220613
0.000249735
0.00024976
0.000222661
0.000222704
0.000249755
0.000222704
0.000222733
0.000251816
0.000220629
0.000249757
0.000222725
0.000222738
0.00022065
0.000215695
0.000184679
0.000213657
0.00021367
0.000186734
0.000186704
0.000215714
0.000184642
0.00021366
0.000213681
0.000186729
0.000186685
0.000213703
0.000186689
0.000186668
0.000215724
0.00018462
0.000213706
0.00018667
0.000186663
0.000184603
0.000179796
0.000148624
0.000177755
0.000177723
0.000150689
0.000150685
0.000179763
0.000148626
0.000177749
0.000177702
0.000150689
0.000150684
0.000177677
0.00015068
0.000150676
0.000179742
0.000148629
0.000177672
0.000150679
0.000150675
0.000148626
0.000143711
0.000112442
0.000141639
0.00014165
0.000114502
0.000114534
0.000143719
0.000112477
0.00014164
0.000141656
0.000114506
0.000114546
0.00014166
0.000114552
0.00011457
0.000143724
0.000112487
0.000141661
0.000114562
0.000114572
0.000112506
0.000107557
7.64063e-05
0.000105489
0.000105512
7.84816e-05
7.8461e-05
0.000107584
7.63788e-05
0.000105492
0.000105521
7.848e-05
7.84557e-05
0.000105542
7.84518e-05
7.84427e-05
0.000107592
7.63724e-05
0.000105544
7.84477e-05
7.84419e-05
7.63595e-05
7.15355e-05
4.01496e-05
6.94572e-05
6.94305e-05
4.2324e-05
4.23177e-05
7.15089e-05
4.01469e-05
6.94549e-05
6.94232e-05
4.23215e-05
4.23101e-05
6.9404e-05
4.23114e-05
4.23014e-05
7.1503e-05
4.01385e-05
6.94019e-05
4.23032e-05
4.2299e-05
4.01349e-05
3.54328e-05
6.24335e-06
3.34099e-05
3.34209e-05
8.00244e-06
8.03087e-06
3.54427e-05
6.27609e-06
3.34088e-05
3.34106e-05
8.00318e-06
8.02656e-06
3.34149e-05
8.04885e-06
8.06322e-06
3.54333e-05
6.27723e-06
3.34141e-05
8.04589e-06
8.06502e-06
6.30636e-06
4.84272e-06
6.30603e-06
6.33072e-06
4.86956e-06
6.306e-06
6.32904e-06
1.04404e-05
1.04333e-05
1.04527e-05
6.35775e-06
4.87221e-06
6.35829e-06
0.000738498
0.000738503
0.000738507
0.00073851
0.000723027
0.000723026
0.000723046
0.000723042
0.000738555
0.000740714
0.000738527
0.000740742
0.000703002
0.000716296
0.000716281
0.000703011
0.000716299
0.000703015
0.000702997
0.000716299
0.000716285
0.000703008
0.000714143
0.000714164
0.000714169
0.000687493
0.000687498
0.000687492
0.000687501
0.000703048
0.000716257
0.000714106
0.0007052
0.000716232
0.000703026
0.000705226
0.000716292
0.000703001
0.000703046
0.000714119
0.000716257
0.000705204
0.000716239
0.000705234
0.000703014
0.000716296
0.000716297
0.000703164
0.000702984
0.000702982
0.000667478
0.00068079
0.000680778
0.000667477
0.000680786
0.000667477
0.000667476
0.000680784
0.00068077
0.000667476
0.000678616
0.000678602
0.000678603
0.000651976
0.000651965
0.00065196
0.000651948
0.00066751
0.000680733
0.000678572
0.00066967
0.000680699
0.000667489
0.000669686
0.000680783
0.000667484
0.000667504
0.000678561
0.000680723
0.000669657
0.000680688
0.000669674
0.000667489
0.000680763
0.000680761
0.000667615
0.000667465
0.000667464
0.000631888
0.000645208
0.000645207
0.000631888
0.000645216
0.000631898
0.000631891
0.000645212
0.000645212
0.00063189
0.000643077
0.00064308
0.000643073
0.000616378
0.000616391
0.000616396
0.000616405
0.000631959
0.000645182
0.000643031
0.000634119
0.000645161
0.000631926
0.000634142
0.000645217
0.000631896
0.000631964
0.000643033
0.000645188
0.000634126
0.000645166
0.000634147
0.000631926
0.000645227
0.000645229
0.000632083
0.000631892
0.000631892
0.0005963
0.000609628
0.000609613
0.000596311
0.000609627
0.000596306
0.000596298
0.000609626
0.000609611
0.000596309
0.000607486
0.000607487
0.000607496
0.000580749
0.000580748
0.000580744
0.000580741
0.000596333
0.000609584
0.00060744
0.000598501
0.000609559
0.000596314
0.000598529
0.000609625
0.000596306
0.00059633
0.000607441
0.000609581
0.000598498
0.000609557
0.000598528
0.000596312
0.000609615
0.000609614
0.000596446
0.000596284
0.000596283
0.000560703
0.000574046
0.000574027
0.00056071
0.000574037
0.000560711
0.000560707
0.000574047
0.000574028
0.000560712
0.000571834
0.000571831
0.000571826
0.000545128
0.000545114
0.000545118
0.00054511
0.000560731
0.000573978
0.000571795
0.000562875
0.000573942
0.000560716
0.000562888
0.000574042
0.000560717
0.000560734
0.000571794
0.000573982
0.000562877
0.000573943
0.000562889
0.000560721
0.000574026
0.000574026
0.000560835
0.000560699
0.0005607
0.000525032
0.00053839
0.000538388
0.000525029
0.000538398
0.000525038
0.000525031
0.000538391
0.00053839
0.000525029
0.000536212
0.000536218
0.000536213
0.000509458
0.000509469
0.00050947
0.000509476
0.000525097
0.000538364
0.000536179
0.000527256
0.000538336
0.000525065
0.000527272
0.000538397
0.000525033
0.000525097
0.000536183
0.000538365
0.000527258
0.000538338
0.000527275
0.000525062
0.000538402
0.000538403
0.000525213
0.000525031
0.000525031
0.000489328
0.000502695
0.000502685
0.000489333
0.000502699
0.000489333
0.000489324
0.000502692
0.00050268
0.00048933
0.000500542
0.000500541
0.000500548
0.000473739
0.000473738
0.000473733
0.000473737
0.00048937
0.000502658
0.000500501
0.000491542
0.000502633
0.000489347
0.000491567
0.000502692
0.000489328
0.000489365
0.000500499
0.000502652
0.000491536
0.000502628
0.000491563
0.000489342
0.00050269
0.000502689
0.000489484
0.000489312
0.000489311
0.0004536
0.00046699
0.000466977
0.000453605
0.000466981
0.000453604
0.000453603
0.000466988
0.000466976
0.000453607
0.000464799
0.000464791
0.000464791
0.00043796
0.000437957
0.000437959
0.000437951
0.000453634
0.000466932
0.000464755
0.000455798
0.000466901
0.000453615
0.000455813
0.000466983
0.000453613
0.000453636
0.000464751
0.000466932
0.000455797
0.000466899
0.000455811
0.000453621
0.000466966
0.000466966
0.000453743
0.000453593
0.000453594
0.000417838
0.000431227
0.000431211
0.000417855
0.000431237
0.000417867
0.000417843
0.000431232
0.000431218
0.000417859
0.000429004
0.00042901
0.000429003
0.000402155
0.000402161
0.000402169
0.000402176
0.000417883
0.00043119
0.000428977
0.000420017
0.000431155
0.000417873
0.00042003
0.000431245
0.000417867
0.000417887
0.000428982
0.000431199
0.000420027
0.000431161
0.000420037
0.000417876
0.000431249
0.000431251
0.000417987
0.000417864
0.000417864
0.000382112
0.000395514
0.000395493
0.000382108
0.000395509
0.000382093
0.000382105
0.00039551
0.000395488
0.000382101
0.000393232
0.000393235
0.000393243
0.000366485
0.000366469
0.00036646
0.000366455
0.000382132
0.000395449
0.000393215
0.000384282
0.000395406
0.000382112
0.000384285
0.000395498
0.000382086
0.000382124
0.000393216
0.000395441
0.000384275
0.000395404
0.000384282
0.000382103
0.000395484
0.000395483
0.000382237
0.00038206
0.000382058
0.000346142
0.000359593
0.000359615
0.000346127
0.000359595
0.000346143
0.000346149
0.000359593
0.000359615
0.000346132
0.000357525
0.000357514
0.000357504
0.000330507
0.000330532
0.000330542
0.000330545
0.000346245
0.000359585
0.000357467
0.000348464
0.000359587
0.000346195
0.000348492
0.000359601
0.000346154
0.00034625
0.00035746
0.000359588
0.000348464
0.000359584
0.000348488
0.000346204
0.000359602
0.000359603
0.000346387
0.000346162
0.000346164
0.000310308
0.000323716
0.000323674
0.00031036
0.000323727
0.000310353
0.000310303
0.000323719
0.000323679
0.000310357
0.00032151
0.000321523
0.000321532
0.000294528
0.000294514
0.000294509
0.000294513
0.000310299
0.000323661
0.000321476
0.000312436
0.000323634
0.000310319
0.000312465
0.000323722
0.000310339
0.0003103
0.000321486
0.000323667
0.000312446
0.000323641
0.000312474
0.00031031
0.000323725
0.000323726
0.000310388
0.000310316
0.000310314
0.000274505
0.000287964
0.000287945
0.00027449
0.000287947
0.000274482
0.0002745
0.000287955
0.000287933
0.000274487
0.00028556
0.000285544
0.000285539
0.000258739
0.000258726
0.000258719
0.000258706
0.000274506
0.000287863
0.00028554
0.00027662
0.000287791
0.000274499
0.000276598
0.000287939
0.000274492
0.000274496
0.000285529
0.00028785
0.000276602
0.000287778
0.000276583
0.000274496
0.000287903
0.000287901
0.000274572
0.000274464
0.000274464
0.000238412
0.000251893
0.000251917
0.000238405
0.000251924
0.000238437
0.000238427
0.000251902
0.000251931
0.000238416
0.000249757
0.000249759
0.000249754
0.000222736
0.000222778
0.000222799
0.000222815
0.000238548
0.000251924
0.000249752
0.000240754
0.000251932
0.000238494
0.000240768
0.000251942
0.00023845
0.000238566
0.000249754
0.000251944
0.000240773
0.000251943
0.000240779
0.000238512
0.000251959
0.000251962
0.000238709
0.00023847
0.000238473
0.000202506
0.000215951
0.000215912
0.000202539
0.000215944
0.000202505
0.000202494
0.000215948
0.000215912
0.000202531
0.000213763
0.00021378
0.000213796
0.000186764
0.00018675
0.00018674
0.000186733
0.0002025
0.000215886
0.000213722
0.000204673
0.000215861
0.000202498
0.000204702
0.000215932
0.000202488
0.000202493
0.000213734
0.000215883
0.000204673
0.000215864
0.000204706
0.000202481
0.000215926
0.000215926
0.000202605
0.000202462
0.000202459
0.00016654
0.000180043
0.000180032
0.000166535
0.000180025
0.000166521
0.000166534
0.000180033
0.000180019
0.000166532
0.000177747
0.000177734
0.000177722
0.000150721
0.000150698
0.00015069
0.00015068
0.000166551
0.000179945
0.000177701
0.000168704
0.0001799
0.000166544
0.000168699
0.000180008
0.00016652
0.000166544
0.000177688
0.00017993
0.000168687
0.000179885
0.000168686
0.00016654
0.000179975
0.000179973
0.000166634
0.000166513
0.000166512
0.000130358
0.000143887
0.000143893
0.000130362
0.00014393
0.000130376
0.00013037
0.000143895
0.000143902
0.000130371
0.000141666
0.000141665
0.000141662
0.000114538
0.000114569
0.000114578
0.000114592
0.000130458
0.00014388
0.000141655
0.000132618
0.000143865
0.000130448
0.000132623
0.000143945
0.00013039
0.000130468
0.000141657
0.000143892
0.000132628
0.000143873
0.000132629
0.000130461
0.000143936
0.000143938
0.000130573
0.000130432
0.000130433
9.4308e-05
0.000107797
0.000107787
9.43328e-05
0.000107846
9.42651e-05
9.43057e-05
0.000107799
0.00010779
9.43306e-05
0.000105541
0.000105548
0.000105562
7.84958e-05
7.84855e-05
7.84849e-05
7.84805e-05
9.43342e-05
0.000107752
0.000105539
9.65019e-05
0.000107736
9.43555e-05
9.65093e-05
0.000107847
9.42584e-05
9.43326e-05
0.000105545
0.000107754
9.65047e-05
0.00010774
9.65131e-05
9.43504e-05
0.000107793
0.000107794
9.44395e-05
9.43129e-05
9.43132e-05
5.80896e-05
7.16839e-05
7.17017e-05
5.81182e-05
7.17643e-05
5.79411e-05
5.80832e-05
7.16801e-05
7.16956e-05
5.81144e-05
6.94598e-05
6.94578e-05
6.94482e-05
4.27228e-05
4.27092e-05
4.27031e-05
4.2696e-05
5.81152e-05
7.15637e-05
6.94299e-05
6.03722e-05
7.15987e-05
5.81593e-05
6.04053e-05
7.17557e-05
5.79332e-05
5.81094e-05
6.94262e-05
7.15567e-05
6.03662e-05
7.15922e-05
6.0401e-05
5.81526e-05
7.15837e-05
7.15819e-05
5.82425e-05
5.81182e-05
5.81175e-05
2.09137e-05
3.4924e-05
3.50606e-05
2.04037e-05
3.53132e-05
1.99004e-05
2.09018e-05
3.49215e-05
3.50538e-05
2.03868e-05
3.40956e-05
3.40872e-05
3.40871e-05
1.28177e-05
1.28411e-05
1.28301e-05
1.28505e-05
2.13712e-05
3.49265e-05
3.3717e-05
2.49103e-05
3.52013e-05
2.09253e-05
2.53547e-05
3.53043e-05
1.98968e-05
2.13661e-05
3.37092e-05
3.49189e-05
2.49002e-05
3.51947e-05
2.53459e-05
2.09209e-05
3.48503e-05
3.48494e-05
2.2423e-05
2.08061e-05
2.07996e-05
3.54252e-06
4.58688e-06
3.9489e-06
1.64072e-07
1.87897e-06
-3.51396e-06
3.55529e-06
4.58281e-06
3.94352e-06
1.74544e-07
2.25912e-06
9.12146e-06
9.11751e-06
4.55534e-06
7.32195e-06
3.5973e-06
3.59625e-06
2.89185e-06
3.89803e-06
4.65071e-06
2.50379e-06
5.01195e-06
5.74231e-06
1.24473e-06
1.85229e-06
-3.51386e-06
2.89343e-06
4.65129e-06
3.90401e-06
2.50659e-06
5.01523e-06
1.24569e-06
5.73911e-06
7.27174e-07
7.29506e-07
1.66984e-06
3.79887e-06
3.7702e-06
0.000738507
0.000738511
0.000738668
0.000738494
0.000738496
0.000720763
0.000734045
0.000720764
0.000734048
0.000733845
0.00072075
0.000720751
0.000734039
0.000734042
0.000738498
0.000738503
0.000738548
0.000740713
0.000738521
0.000740745
0.000738549
0.000740714
0.000738522
0.000740746
0.000734029
0.000720756
0.000734042
0.000720748
0.000734029
0.000720755
0.000734041
0.000720748
0.000733971
0.000731831
0.000720773
0.000722977
0.000733998
0.000731861
0.000720792
0.000733972
0.000731831
0.000720772
0.000722977
0.000733998
0.000731861
0.000720792
0.000738668
0.000738494
0.000738497
0.000738512
0.000720761
0.000734044
0.000733845
0.000720748
0.000720751
0.000734038
0.000734042
0.000720766
0.000734049
0.000740715
0.000738527
0.00073404
0.000720761
0.000734049
0.000720754
0.000733981
0.000731834
0.000720778
0.000722984
0.000734004
0.000731866
0.000720801
0.000734041
0.000720756
0.000734053
0.000720754
0.000733983
0.000731848
0.00072299
0.000720776
0.00073187
0.000734013
0.000720803
0.00073851
0.000738511
0.000738557
0.000740741
0.000738512
0.000733981
0.000731834
0.00072078
0.000722984
0.000734005
0.000731863
0.000720807
0.000734043
0.000720764
0.000734051
0.000720762
0.000733983
0.000731845
0.000722989
0.000720789
0.000731865
0.000734019
0.000720809
0.000734046
0.000720768
0.000734063
0.000720763
0.000720757
0.000734053
0.00073386
0.000720745
0.000720748
0.000734049
0.000734053
0.000720761
0.000734058
0.000733992
0.00073185
0.000722998
0.000720784
0.000731872
0.00073402
0.000720816
0.000733993
0.000731849
0.000722998
0.000720794
0.00073187
0.000734025
0.000720818
0.000734054
0.000720764
0.000734063
0.000720767
0.000734055
0.000720772
0.00073407
0.000720769
0.000733859
0.000720759
0.00072076
0.000734062
0.000734065
0.000720769
0.000734067
0.000720771
0.000734071
0.000716301
0.000703018
0.000716301
0.000703015
0.000716295
0.000716296
0.000703155
0.000703003
0.000703002
0.000685259
0.000698554
0.000685256
0.000698551
0.000698332
0.000685245
0.000685242
0.000698547
0.000698545
0.000703003
0.000716294
0.000716281
0.000703009
0.000703044
0.000716251
0.000714094
0.000705192
0.000716218
0.000703026
0.000705212
0.000703044
0.000716249
0.000714095
0.000705194
0.000716218
0.000703024
0.000705214
0.000698535
0.000685257
0.00069855
0.000685249
0.000698535
0.000685255
0.000698548
0.000685249
0.00069847
0.000696316
0.000685272
0.000687456
0.000698503
0.000696333
0.000685291
0.00069847
0.000696317
0.00068527
0.000687456
0.000698501
0.000696334
0.000685291
0.000716293
0.000716296
0.000703158
0.000703001
0.000703
0.000716302
0.000703013
0.000685256
0.000698551
0.000698334
0.000685241
0.000685237
0.000698544
0.000698542
0.000685249
0.000698547
0.000703042
0.000716254
0.000714102
0.000705194
0.000716225
0.000703024
0.000705218
0.000702995
0.000716291
0.000716284
0.000702997
0.000703041
0.000714108
0.000716249
0.000705198
0.000716225
0.000705223
0.000703013
0.000698528
0.00068525
0.000698545
0.00068524
0.000698465
0.000696316
0.000685266
0.000687453
0.0006985
0.000696335
0.000685282
0.000698525
0.000685244
0.000698535
0.000685239
0.000698463
0.000696312
0.00068745
0.000685258
0.000696336
0.000698488
0.00068528
0.000703001
0.000716302
0.000716292
0.000703008
0.000703048
0.000714113
0.000716261
0.000705211
0.000716234
0.000705232
0.000703017
0.000702999
0.000716302
0.000716293
0.000702997
0.000698469
0.00069632
0.000685261
0.000687458
0.0006985
0.000696343
0.000685279
0.000698528
0.000685243
0.000698544
0.000685233
0.000698469
0.000696321
0.000687457
0.000685248
0.000696346
0.000698488
0.000685276
0.000698526
0.000685233
0.000698532
0.000685231
0.000716286
0.000716288
0.000703156
0.000702986
0.000702985
0.000716294
0.000702999
0.000685248
0.000698537
0.000698329
0.000685232
0.000685228
0.00069853
0.000698527
0.000685242
0.000698533
0.000703047
0.000714121
0.000716265
0.000705213
0.00071624
0.000705238
0.000703015
0.000702994
0.000716298
0.000716294
0.000702996
0.000702995
0.000716304
0.000716295
0.000702994
0.000698464
0.000696314
0.000687452
0.000685249
0.000696344
0.000698485
0.000685267
0.000698464
0.00069632
0.000687454
0.000685242
0.000696348
0.000698484
0.000685267
0.000698519
0.000685233
0.000698531
0.000685223
0.000698518
0.000685227
0.000698527
0.000685222
0.0007163
0.000702998
0.0007163
0.000702995
0.000698335
0.000685221
0.000685218
0.000698522
0.000698521
0.000685236
0.00069853
0.000685232
0.000698527
0.000680789
0.000667474
0.000680787
0.000667474
0.000680783
0.000680781
0.00066764
0.000667462
0.000667462
0.000649679
0.000662999
0.000649681
0.000663
0.000662812
0.000649667
0.000649668
0.000662994
0.000662995
0.000667478
0.000680789
0.000680778
0.000667479
0.000667524
0.000680745
0.000678579
0.000669682
0.000680714
0.000667497
0.0006697
0.000667524
0.000680743
0.000678578
0.000669677
0.000680714
0.000667497
0.000669698
0.000663001
0.000649681
0.000663005
0.000649687
0.000663002
0.000649688
0.000663008
0.000649688
0.000662943
0.000660797
0.000649703
0.000651928
0.000662965
0.000660817
0.00064974
0.000662943
0.000660792
0.00064971
0.000651927
0.000662966
0.000660815
0.00064974
0.000680779
0.000680775
0.000667633
0.000667464
0.000667461
0.00068078
0.000667475
0.000649689
0.000663004
0.000662805
0.000649678
0.00064968
0.000662999
0.000662998
0.000649694
0.000663004
0.000667519
0.000680739
0.000678573
0.000669679
0.000680705
0.000667495
0.000669693
0.000667476
0.000680782
0.000680769
0.000667483
0.000667518
0.000678567
0.000680733
0.000669664
0.000680703
0.000669686
0.000667498
0.000663001
0.000649684
0.000663006
0.000649691
0.00066294
0.000660795
0.000649705
0.000651926
0.000662964
0.000660811
0.000649743
0.000663002
0.000649694
0.000663014
0.000649693
0.000662939
0.000660785
0.000651924
0.000649716
0.000660806
0.00066297
0.000649743
0.000667467
0.000680777
0.00068076
0.000667472
0.000667508
0.000678567
0.000680722
0.000669654
0.000680696
0.000669679
0.000667489
0.000667467
0.00068077
0.000680759
0.000667475
0.000662931
0.000660785
0.000649712
0.000651916
0.00066296
0.000660801
0.000649741
0.000662995
0.000649694
0.000663004
0.000649697
0.00066293
0.000660774
0.000651913
0.000649724
0.000660795
0.000662964
0.000649742
0.000662996
0.000649705
0.00066301
0.000649698
0.000680774
0.000680769
0.000667623
0.000667469
0.000667466
0.000680776
0.00066748
0.000649693
0.000663012
0.000662798
0.000649682
0.000649686
0.000663007
0.000663005
0.000649698
0.000663012
0.000667504
0.000678561
0.000680716
0.000669651
0.000680687
0.000669672
0.000667486
0.000667465
0.000680769
0.000680751
0.000667474
0.000667465
0.000680764
0.00068075
0.000667472
0.000662929
0.000660778
0.000651913
0.000649719
0.000660792
0.000662963
0.000649745
0.000662928
0.000660771
0.000651911
0.000649725
0.000660789
0.000662962
0.000649745
0.000662995
0.0006497
0.000663009
0.000649702
0.000662995
0.000649708
0.00066301
0.000649703
0.000680771
0.00066748
0.000680768
0.00066748
0.000662792
0.000649695
0.000649696
0.000663007
0.000663006
0.000649706
0.000663014
0.000649708
0.000663014
0.000645205
0.00063189
0.000645207
0.000631891
0.000645199
0.000645201
0.000632057
0.000631877
0.000631877
0.000614104
0.000627417
0.000614103
0.000627418
0.000627221
0.000614091
0.000614091
0.000627411
0.000627412
0.000631889
0.000645216
0.000645208
0.000631893
0.000631941
0.000645168
0.000643034
0.000634105
0.000645154
0.000631907
0.000634135
0.000631942
0.000645177
0.000643034
0.000634114
0.000645155
0.000631915
0.000634137
0.000627407
0.000614099
0.000627416
0.000614091
0.000627409
0.000614097
0.00062742
0.000614091
0.000627353
0.000625203
0.000614115
0.000616331
0.000627373
0.000625234
0.000614138
0.000627355
0.000625214
0.000614116
0.000616335
0.00062738
0.000625237
0.000614139
0.000645211
0.000645215
0.000632069
0.000631887
0.000631891
0.000645221
0.000631904
0.000614102
0.000627423
0.000627233
0.000614089
0.000614091
0.000627419
0.000627423
0.000614104
0.000627428
0.000631945
0.000645171
0.000643035
0.000634107
0.000645158
0.000631909
0.000634138
0.000631892
0.00064522
0.000645213
0.000631892
0.000631947
0.000643037
0.000645182
0.000634121
0.00064516
0.000634142
0.000631916
0.000627409
0.000614098
0.000627418
0.00061409
0.000627357
0.000625204
0.000614115
0.000616333
0.000627375
0.000625237
0.000614138
0.00062741
0.000614095
0.000627419
0.000614089
0.000627359
0.000625219
0.000616338
0.000614112
0.000625242
0.000627379
0.000614138
0.000631907
0.000645225
0.000645221
0.000631905
0.000631961
0.000643032
0.000645193
0.000634129
0.000645162
0.000634146
0.000631928
0.000631907
0.000645233
0.000645223
0.000631904
0.000627373
0.000625221
0.000614122
0.000616347
0.000627391
0.000625248
0.000614151
0.000627425
0.000614102
0.000627431
0.000614098
0.000627374
0.000625232
0.00061635
0.000614117
0.000625253
0.00062739
0.000614151
0.000627425
0.000614098
0.000627429
0.000614097
0.000645214
0.000645218
0.000632075
0.000631884
0.000631889
0.000645223
0.000631902
0.000614099
0.00062742
0.000627238
0.000614086
0.000614088
0.000627416
0.00062742
0.000614101
0.000627425
0.000631965
0.000643033
0.000645196
0.000634131
0.000645166
0.000634149
0.000631931
0.00063191
0.000645229
0.000645226
0.000631904
0.000631911
0.000645236
0.000645227
0.000631906
0.000627376
0.000625226
0.00061635
0.000614119
0.000625253
0.00062739
0.00061415
0.000627377
0.000625233
0.000616352
0.000614116
0.000625256
0.000627392
0.00061415
0.000627426
0.0006141
0.00062743
0.000614096
0.000627426
0.000614097
0.00062743
0.000614096
0.00064523
0.000631903
0.000645232
0.000631904
0.000627248
0.000614084
0.000614084
0.00062742
0.000627421
0.000614098
0.000627425
0.000614097
0.000627425
0.000609632
0.000596319
0.000609631
0.000596318
0.000609625
0.000609625
0.000596456
0.000596305
0.000596304
0.000578526
0.000591846
0.000578527
0.000591845
0.000591619
0.000578512
0.000578512
0.000591839
0.000591838
0.000596299
0.000609625
0.000609612
0.000596304
0.000596342
0.000609583
0.000607427
0.0005985
0.000609552
0.000596327
0.000598522
0.000596341
0.00060958
0.00060743
0.0005985
0.000609552
0.000596318
0.000598524
0.000591822
0.00057852
0.000591841
0.000578507
0.00059182
0.00057851
0.000591831
0.000578505
0.000591757
0.0005896
0.000578534
0.000580713
0.000591795
0.000589618
0.000578546
0.000591755
0.000589595
0.000578523
0.000580711
0.000591784
0.000589618
0.000578544
0.000609621
0.000609621
0.000596452
0.000596292
0.000596288
0.000609627
0.000596301
0.000578512
0.000591832
0.000591612
0.000578496
0.000578491
0.000591823
0.000591819
0.000578505
0.000591825
0.00059634
0.000609582
0.000607428
0.0005985
0.00060955
0.000596325
0.000598522
0.000596296
0.000609622
0.00060961
0.000596302
0.000596338
0.000607431
0.000609577
0.000598497
0.00060955
0.000598523
0.000596316
0.00059182
0.00057852
0.000591839
0.000578507
0.000591755
0.000589599
0.000578534
0.000580712
0.000591793
0.000589617
0.000578545
0.000591818
0.000578513
0.00059183
0.000578506
0.000591753
0.000589592
0.000580709
0.000578525
0.000589616
0.000591783
0.000578544
0.000596289
0.000609627
0.000609614
0.000596297
0.000596332
0.000607442
0.000609579
0.000598498
0.000609559
0.000598529
0.00059631
0.000596288
0.000609622
0.000609613
0.000596294
0.000591744
0.000589592
0.000578512
0.000580704
0.000591777
0.000589617
0.000578528
0.000591807
0.000578498
0.000591822
0.000578489
0.000591744
0.000589588
0.000580702
0.000578513
0.000589615
0.000591774
0.000578528
0.000591807
0.000578499
0.00059182
0.000578489
0.000609619
0.000609619
0.000596449
0.000596291
0.000596288
0.000609625
0.000596301
0.000578517
0.000591832
0.00059161
0.000578501
0.000578496
0.000591824
0.00059182
0.00057851
0.000591826
0.00059633
0.000607442
0.000609578
0.000598498
0.000609557
0.000598529
0.000596308
0.000596287
0.000609625
0.000609611
0.000596295
0.000596286
0.000609621
0.00060961
0.000596292
0.000591742
0.000589589
0.000580702
0.000578515
0.000589614
0.000591777
0.000578529
0.000591742
0.000589587
0.000580701
0.000578512
0.000589614
0.000591773
0.000578528
0.000591806
0.000578501
0.000591822
0.00057849
0.000591805
0.000578499
0.000591819
0.00057849
0.000609621
0.000596298
0.00060962
0.000596297
0.000591606
0.000578492
0.000578492
0.000591816
0.000591815
0.000578506
0.000591823
0.000578507
0.000591822
0.000574049
0.000560711
0.00057405
0.000560713
0.000574042
0.000574043
0.000560852
0.000560698
0.000560699
0.000542873
0.000556226
0.000542874
0.000556228
0.000556012
0.000542861
0.000542862
0.000556221
0.000556223
0.000560703
0.000574037
0.000574026
0.000560709
0.000560742
0.000573998
0.000571808
0.000562891
0.000573959
0.000560725
0.000562902
0.000560741
0.000573988
0.000571804
0.00056288
0.000573957
0.000560723
0.000562898
0.000556219
0.000542875
0.00055623
0.000542878
0.000556219
0.000542884
0.000556232
0.000542879
0.000556152
0.000553986
0.000542895
0.00054509
0.000556185
0.000553996
0.000542922
0.000556152
0.000553976
0.000542903
0.000545087
0.000556185
0.000553992
0.000542922
0.000574028
0.000574024
0.000560841
0.000560697
0.000560695
0.000574031
0.000560709
0.000542885
0.000556232
0.000556002
0.000542875
0.000542878
0.000556225
0.000556225
0.00054289
0.000556232
0.000560745
0.000573999
0.000571807
0.000562891
0.00057396
0.000560727
0.000562902
0.000560706
0.000574041
0.000574027
0.000560714
0.000560744
0.000571803
0.000573992
0.000562882
0.000573958
0.000562898