/*--------------------------------*- C++ -*----------------------------------*\
| =========                 |                                                 |
| \\      /  F ield         | OpenFOAM: The Open Source CFD Toolbox           |
|  \\    /   O peration     | Version:  2312                                  |
|   \\  /    A nd           | Website:  www.openfoam.com                      |
|    \\/     M anipulation  |                                                 |
\*---------------------------------------------------------------------------*/
FoamFile
{
    version     2.0;
    format      ascii;
    arch        "LSB;label=32;scalar=64";
    class       volVectorField;
    location    "1000";
    object      U;
}
// * * * * * * * * * * * * * * * * * * * * * * * * * * * * * * * * * * * * * //

dimensions      [0 1 -1 0 0 0 0];

internalField   nonuniform List<vector> 
43208
(
(-1.13972e-05 -1.26159e-05 0.112444)
(1.13196e-05 -7.79892e-06 0.107485)
(-7.01844e-06 1.06484e-05 0.107483)
(-2.6247e-05 -2.73783e-05 0.104201)
(-1.15495e-05 -1.13065e-05 0.112411)
(1.20283e-05 -5.24616e-06 0.107478)
(-5.89316e-06 1.22895e-05 0.107476)
(-2.64306e-05 -2.55832e-05 0.104204)
(-1.09036e-05 -1.04512e-05 0.112373)
(1.2034e-05 -6.10153e-06 0.107469)
(-5.85769e-06 1.20242e-05 0.107469)
(-2.6233e-05 -2.63195e-05 0.104211)
(-1.29343e-05 -1.32311e-05 0.112338)
(1.12733e-05 -7.43791e-06 0.107464)
(-7.59899e-06 1.12305e-05 0.107463)
(-2.60546e-05 -2.61509e-05 0.104216)
(-1.24282e-05 -1.21044e-05 0.112307)
(1.24892e-05 -5.68752e-06 0.10746)
(-5.71187e-06 1.26362e-05 0.107459)
(-2.6017e-05 -2.58599e-05 0.104224)
(-1.04362e-05 -1.07581e-05 0.112272)
(1.16303e-05 -6.08699e-06 0.107456)
(-5.75803e-06 1.14556e-05 0.107455)
(-2.61621e-05 -2.65221e-05 0.104231)
(-1.25049e-05 -1.27117e-05 0.112238)
(1.12755e-05 -7.20333e-06 0.107452)
(-7.30386e-06 1.11852e-05 0.10745)
(-2.63983e-05 -2.62492e-05 0.104238)
(-1.25541e-05 -1.19182e-05 0.112208)
(1.14461e-05 -5.63006e-06 0.107449)
(-6.16086e-06 1.1765e-05 0.107448)
(-2.65248e-05 -2.60344e-05 0.104247)
(-1.14543e-05 -1.14515e-05 0.112178)
(1.11505e-05 -6.14984e-06 0.107449)
(-5.7109e-06 1.11935e-05 0.107449)
(-2.61693e-05 -2.66565e-05 0.104259)
(-1.19635e-05 -1.28152e-05 0.112148)
(1.12675e-05 -6.74321e-06 0.107445)
(-6.60266e-06 1.0825e-05 0.107443)
(-2.67539e-05 -2.70401e-05 0.104264)
(-8.73346e-06 -7.71883e-06 0.112114)
(1.07952e-05 -3.78499e-06 0.107442)
(-4.40188e-06 1.14805e-05 0.107441)
(-2.70936e-05 -2.61693e-05 0.104271)
(-1.53449e-05 -1.61425e-05 0.11209)
(9.69368e-06 -9.45272e-06 0.107443)
(-8.5368e-06 9.0372e-06 0.107442)
(-2.62104e-05 -2.73839e-05 0.104286)
(-1.14252e-05 -1.1167e-05 0.112063)
(1.21364e-05 -3.28307e-06 0.107448)
(-4.36171e-06 1.22823e-05 0.107445)
(-2.80866e-05 -2.71567e-05 0.104296)
(-5.26785e-06 -3.93656e-06 0.112034)
(8.52039e-06 -3.69179e-06 0.107444)
(-3.53947e-06 9.28561e-06 0.107446)
(-2.73664e-05 -2.71722e-05 0.104304)
(-1.55706e-05 -1.77996e-05 0.112011)
(9.35241e-06 -1.06927e-05 0.107438)
(-9.49927e-06 8.2369e-06 0.107435)
(-2.65458e-05 -2.83008e-05 0.104307)
(-1.17722e-05 -1.10875e-05 0.11199)
(1.24942e-05 -2.44642e-06 0.107442)
(-3.52602e-06 1.27621e-05 0.107439)
(-2.80942e-05 -2.63853e-05 0.104321)
(-6.00145e-06 -4.69511e-06 0.111967)
(8.90674e-06 -3.76946e-06 0.107448)
(-3.88757e-06 9.41653e-06 0.107449)
(-2.8276e-05 -2.82144e-05 0.104337)
(-1.25927e-05 -1.3722e-05 0.111947)
(8.97522e-06 -9.33803e-06 0.107444)
(-8.66745e-06 8.54399e-06 0.107444)
(-2.66144e-05 -2.77081e-05 0.104344)
(-9.29549e-06 -9.37908e-06 0.111937)
(1.22613e-05 -5.50404e-06 0.107438)
(-5.66583e-06 1.2229e-05 0.107436)
(-2.50068e-05 -2.44907e-05 0.104361)
(-1.24828e-05 -1.20223e-05 0.111926)
(2.35012e-05 -1.35543e-05 0.107436)
(-1.40042e-05 2.36078e-05 0.107435)
(-1.02792e-05 -9.91074e-06 0.104424)
(-4.02575e-05 -3.97843e-05 0.111217)
(5.22509e-05 -2.20353e-05 0.107893)
(-2.21486e-05 5.2581e-05 0.107893)
(4.18448e-05 4.17501e-05 0.104988)
(-4.36695e-05 -4.48775e-05 0.104314)
(-6.03774e-06 -1.21381e-05 0.107483)
(5.85967e-06 -1.19731e-05 0.107483)
(4.34481e-05 -4.48846e-05 0.104314)
(-1.14239e-05 -7.49526e-06 0.107485)
(-1.15274e-05 4.914e-06 0.107482)
(1.14271e-05 -7.39558e-06 0.107486)
(1.20734e-05 4.8723e-06 0.107485)
(-4.44106e-05 4.29859e-05 0.104312)
(-6.4711e-06 1.1e-05 0.107485)
(6.33999e-06 1.13618e-05 0.107487)
(4.42079e-05 4.30178e-05 0.104314)
(2.66402e-05 2.54876e-05 0.104202)
(-4.40901e-05 -4.34256e-05 0.104318)
(-6.0137e-06 -1.23759e-05 0.107482)
(5.62252e-06 -1.2392e-05 0.107482)
(-6.15359e-06 -1.2079e-05 0.107479)
(5.97232e-06 -1.21925e-05 0.107478)
(-2.69735e-05 2.53066e-05 0.104201)
(4.39971e-05 -4.36852e-05 0.104319)
(-1.15008e-05 -7.46001e-06 0.107484)
(-1.16938e-05 4.83314e-06 0.10748)
(-1.22088e-05 -5.62966e-06 0.10748)
(-1.21246e-05 6.44679e-06 0.107475)
(1.16934e-05 4.63966e-06 0.107482)
(1.17234e-05 -6.11602e-06 0.10748)
(1.13175e-05 6.54774e-06 0.107475)
(2.57294e-05 -2.73991e-05 0.1042)
(-4.39262e-05 4.42362e-05 0.104316)
(6.08241e-06 1.08448e-05 0.107484)
(-6.58244e-06 1.16394e-05 0.107477)
(6.01091e-06 1.14364e-05 0.107476)
(4.36434e-05 4.43088e-05 0.104315)
(2.60587e-05 2.69173e-05 0.104206)
(-4.35918e-05 -4.34694e-05 0.104319)
(-6.03023e-06 -1.16447e-05 0.107476)
(6.47586e-06 -1.16832e-05 0.107476)
(-5.9283e-06 -1.09082e-05 0.107468)
(7.00234e-06 -1.09115e-05 0.107469)
(-2.59325e-05 2.67668e-05 0.104207)
(4.43635e-05 -4.31778e-05 0.104321)
(-1.21861e-05 -4.99977e-06 0.107478)
(-1.1945e-05 7.108e-06 0.107474)
(-1.12975e-05 -5.61424e-06 0.10747)
(-1.11348e-05 6.9626e-06 0.107469)
(1.16058e-05 7.23012e-06 0.107474)
(1.22781e-05 -5.25857e-06 0.107471)
(1.20889e-05 6.57266e-06 0.107469)
(2.64527e-05 -2.56416e-05 0.104205)
(-4.30542e-05 4.42438e-05 0.10432)
(6.20137e-06 1.2109e-05 0.107475)
(-5.21676e-06 1.25018e-05 0.10747)
(6.25952e-06 1.24791e-05 0.107471)
(4.37386e-05 4.38829e-05 0.104321)
(2.62907e-05 2.61743e-05 0.104208)
(-4.40211e-05 -4.42801e-05 0.104327)
(-6.22272e-06 -1.11513e-05 0.107466)
(6.57872e-06 -1.12505e-05 0.107467)
(-7.21434e-06 -1.23388e-05 0.107463)
(5.24426e-06 -1.25703e-05 0.107462)
(-2.58458e-05 2.64092e-05 0.10421)
(4.2651e-05 -4.46388e-05 0.104326)
(-1.12024e-05 -6.41508e-06 0.107467)
(-1.12561e-05 6.33821e-06 0.107467)
(-1.20565e-05 -7.5764e-06 0.107464)
(-1.23937e-05 5.25688e-06 0.107461)
(1.1928e-05 5.97483e-06 0.107468)
(1.12246e-05 -7.62146e-06 0.107465)
(1.15848e-05 5.98106e-06 0.107462)
(2.65781e-05 -2.60274e-05 0.10421)
(-4.46719e-05 4.27106e-05 0.104325)
(6.16624e-06 1.19864e-05 0.10747)
(-7.63134e-06 1.1074e-05 0.107464)
(6.32873e-06 1.13082e-05 0.107464)
(4.36683e-05 4.34282e-05 0.104325)
(2.56564e-05 2.55364e-05 0.104218)
(-4.35695e-05 -4.33177e-05 0.104335)
(-7.27572e-06 -1.25672e-05 0.107463)
(5.37314e-06 -1.266e-05 0.107461)
(-6.34984e-06 -1.23465e-05 0.107461)
(7.02679e-06 -1.1792e-05 0.107459)
(-2.69981e-05 2.52114e-05 0.104217)
(4.41573e-05 -4.28755e-05 0.104333)
(-1.24326e-05 -7.35529e-06 0.107464)
(-1.25844e-05 5.5328e-06 0.10746)
(-1.25814e-05 -6.06173e-06 0.107463)
(-1.199e-05 7.15694e-06 0.107458)
(1.16721e-05 6.40656e-06 0.107461)
(1.21768e-05 -5.98036e-06 0.10746)
(1.20904e-05 6.92547e-06 0.107458)
(2.51338e-05 -2.69014e-05 0.104216)
(-4.29755e-05 4.42323e-05 0.104333)
(6.47384e-06 1.15526e-05 0.107463)
(-6.12918e-06 1.23553e-05 0.10746)
(6.64818e-06 1.231e-05 0.107459)
(4.35383e-05 4.37728e-05 0.104332)
(2.62504e-05 2.64218e-05 0.104226)
(-4.26439e-05 -4.30172e-05 0.104338)
(-5.80098e-06 -1.19759e-05 0.10746)
(7.44897e-06 -1.15135e-05 0.107458)
(-5.24608e-06 -1.09675e-05 0.107453)
(6.8622e-06 -1.10959e-05 0.107455)
(-2.5295e-05 2.68017e-05 0.104224)
(4.35971e-05 -4.29834e-05 0.10434)
(-1.21746e-05 -5.66333e-06 0.107462)
(-1.16842e-05 7.45325e-06 0.107457)
(-1.07943e-05 -5.69337e-06 0.107455)
(-1.1034e-05 6.57307e-06 0.107454)
(1.21943e-05 6.81322e-06 0.107457)
(1.20452e-05 -5.75862e-06 0.107457)
(1.18255e-05 5.98327e-06 0.107455)
(2.67429e-05 -2.52777e-05 0.104224)
(-4.28215e-05 4.34355e-05 0.104339)
(6.68049e-06 1.23553e-05 0.107459)
(-5.46574e-06 1.19629e-05 0.107456)
(6.43085e-06 1.16321e-05 0.107456)
(4.34196e-05 4.30577e-05 0.104339)
(2.67487e-05 2.6364e-05 0.104229)
(-4.35678e-05 -4.35461e-05 0.104345)
(-5.58158e-06 -1.09344e-05 0.107452)
(6.35157e-06 -1.11601e-05 0.107454)
(-7.01963e-06 -1.16802e-05 0.107448)
(5.43121e-06 -1.2059e-05 0.10745)
(-2.61806e-05 2.63496e-05 0.104232)
(4.25031e-05 -4.3913e-05 0.104346)
(-1.06878e-05 -6.08213e-06 0.107453)
(-1.099e-05 6.03829e-06 0.107452)
(-1.15576e-05 -7.13029e-06 0.10745)
(-1.1885e-05 5.42475e-06 0.107447)
(1.15642e-05 5.81682e-06 0.107454)
(1.11336e-05 -7.06028e-06 0.107452)
(1.14254e-05 5.98718e-06 0.107449)
(2.65189e-05 -2.63476e-05 0.104231)
(-4.38482e-05 4.24661e-05 0.104344)
(6.30309e-06 1.13119e-05 0.107455)
(-7.04229e-06 1.10131e-05 0.10745)
(6.07355e-06 1.13308e-05 0.107451)
(4.29981e-05 4.30513e-05 0.104345)
(2.56578e-05 2.57769e-05 0.104238)
(-4.30283e-05 -4.24907e-05 0.104355)
(-7.3503e-06 -1.20486e-05 0.107449)
(5.43162e-06 -1.22508e-05 0.107449)
(-6.44989e-06 -1.18151e-05 0.107449)
(6.36154e-06 -1.16537e-05 0.107447)
(-2.68542e-05 2.5471e-05 0.104239)
(4.3059e-05 -4.25675e-05 0.104355)
(-1.20592e-05 -7.22562e-06 0.10745)
(-1.21444e-05 5.53619e-06 0.107447)
(-1.21978e-05 -5.80535e-06 0.10745)
(-1.17627e-05 6.78129e-06 0.107446)
(1.15302e-05 6.21491e-06 0.107448)
(1.14201e-05 -6.19108e-06 0.107449)
(1.12056e-05 6.8195e-06 0.107446)
(2.54651e-05 -2.68462e-05 0.104237)
(-4.27858e-05 4.32691e-05 0.104354)
(6.08183e-06 1.15603e-05 0.10745)
(-6.62934e-06 1.15521e-05 0.107448)
(6.187e-06 1.15846e-05 0.107447)
(4.26582e-05 4.31796e-05 0.104353)
(2.64811e-05 2.69798e-05 0.104249)
(-4.23478e-05 -4.26717e-05 0.104363)
(-5.92977e-06 -1.1148e-05 0.107449)
(6.84196e-06 -1.10831e-05 0.107447)
(-5.93391e-06 -1.01567e-05 0.107446)
(6.79508e-06 -1.01411e-05 0.107446)
(-2.60616e-05 2.6914e-05 0.104248)
(4.30541e-05 -4.21827e-05 0.104364)
(-1.15704e-05 -5.29337e-06 0.10745)
(-1.13846e-05 7.3717e-06 0.107446)
(-1.01691e-05 -6.15898e-06 0.107448)
(-1.03774e-05 6.60207e-06 0.107446)
(1.11755e-05 7.06917e-06 0.107446)
(1.13142e-05 -5.48022e-06 0.107448)
(1.12915e-05 6.43793e-06 0.107447)
(2.66677e-05 -2.58259e-05 0.104248)
(-4.21426e-05 4.29852e-05 0.104364)
(6.42461e-06 1.15783e-05 0.107448)
(-5.3282e-06 1.15614e-05 0.107448)
(6.67267e-06 1.12975e-05 0.107448)
(4.30685e-05 4.27398e-05 0.104364)
(2.66981e-05 2.62113e-05 0.104257)
(-4.32915e-05 -4.386e-05 0.104373)
(-6.3473e-06 -1.07234e-05 0.107446)
(6.17269e-06 -1.06215e-05 0.107446)
(-6.1111e-06 -1.32159e-05 0.107445)
(4.93696e-06 -1.27885e-05 0.107443)
(-2.63903e-05 2.66544e-05 0.104258)
(4.2201e-05 -4.4107e-05 0.104371)
(-1.04818e-05 -6.99225e-06 0.107448)
(-1.06791e-05 5.68384e-06 0.107446)
(-1.26275e-05 -6.98176e-06 0.107447)
(-1.22535e-05 4.48215e-06 0.107441)
(1.14856e-05 5.94224e-06 0.107447)
(1.11209e-05 -7.385e-06 0.107446)
(1.16336e-05 4.69183e-06 0.107443)
(2.6827e-05 -2.6614e-05 0.104258)
(-4.37325e-05 4.18789e-05 0.104369)
(6.61238e-06 1.12386e-05 0.107449)
(-6.88423e-06 1.05742e-05 0.107444)
(5.52299e-06 1.10515e-05 0.107445)
(4.26823e-05 4.21619e-05 0.10437)
(2.62954e-05 2.59404e-05 0.104266)
(-4.13161e-05 -4.02941e-05 0.104374)
(-5.17728e-06 -1.28157e-05 0.107445)
(5.31356e-06 -1.26081e-05 0.107443)
(-4.39414e-06 -8.33022e-06 0.107437)
(7.33936e-06 -8.87411e-06 0.10744)
(-2.69149e-05 2.54643e-05 0.104265)
(4.34871e-05 -4.03827e-05 0.104378)
(-1.24228e-05 -5.59295e-06 0.107446)
(-1.21172e-05 5.25601e-06 0.10744)
(-9.01765e-06 -3.21555e-06 0.107438)
(-9.22398e-06 8.06505e-06 0.107438)
(1.12614e-05 4.82946e-06 0.107442)
(1.10183e-05 -3.69203e-06 0.107441)
(9.78351e-06 6.74885e-06 0.107437)
(2.56976e-05 -2.70899e-05 0.104263)
(-4.08186e-05 4.39374e-05 0.104377)
(5.17467e-06 1.0913e-05 0.107443)
(-4.39548e-06 1.14676e-05 0.107439)
(5.56099e-06 1.05098e-05 0.107438)
(4.18989e-05 4.2909e-05 0.104375)
(2.75938e-05 2.85461e-05 0.104269)
(-4.36711e-05 -4.4574e-05 0.104388)
(-5.4621e-06 -7.5097e-06 0.107436)
(7.36879e-06 -8.2408e-06 0.10744)
(-8.84799e-06 -1.10558e-05 0.107437)
(4.24197e-06 -1.08789e-05 0.107437)
(-2.57861e-05 2.86943e-05 0.104273)
(4.03844e-05 -4.39995e-05 0.104387)
(-8.30502e-06 -4.30905e-06 0.107437)
(-8.88959e-06 7.94426e-06 0.107439)
(-1.06761e-05 -9.80008e-06 0.107439)
(-1.08249e-05 3.41813e-06 0.107437)
(9.88921e-06 7.29479e-06 0.107438)
(9.21238e-06 -8.01384e-06 0.107441)
(1.06624e-05 5.92179e-06 0.10744)
(2.8278e-05 -2.5394e-05 0.104272)
(-4.35329e-05 3.98037e-05 0.104387)
(6.17529e-06 1.0668e-05 0.107439)
(-7.31387e-06 9.03547e-06 0.107441)
(6.95207e-06 1.01813e-05 0.107441)
(4.26947e-05 4.17046e-05 0.104389)
(2.51555e-05 2.4048e-05 0.104286)
(-4.09322e-05 -4.05686e-05 0.104407)
(-8.77389e-06 -1.35907e-05 0.107442)
(3.73211e-06 -1.30644e-05 0.107439)
(-3.71253e-06 -1.33465e-05 0.107449)
(6.11936e-06 -1.27252e-05 0.107444)
(-2.86747e-05 2.42985e-05 0.104284)
(4.26285e-05 -4.14454e-05 0.104403)
(-1.27505e-05 -1.02731e-05 0.107444)
(-1.25255e-05 2.74792e-06 0.107438)
(-1.31736e-05 -3.55286e-06 0.107451)
(-1.21749e-05 6.64472e-06 0.107441)
(1.14838e-05 5.29224e-06 0.107442)
(1.18095e-05 -5.95042e-06 0.107445)
(1.11921e-05 5.1925e-06 0.107442)
(2.4861e-05 -2.93472e-05 0.104283)
(-4.16258e-05 4.29342e-05 0.104401)
(6.82537e-06 1.05585e-05 0.107444)
(-6.37673e-06 1.13038e-05 0.107442)
(4.9553e-06 1.10896e-05 0.107443)
(4.12658e-05 4.17506e-05 0.104401)
(2.88109e-05 2.96285e-05 0.104301)
(-4.08509e-05 -4.00129e-05 0.1044)
(-2.34048e-06 -1.05218e-05 0.10745)
(7.64017e-06 -1.02036e-05 0.107447)
(-3.61415e-06 -3.86201e-06 0.107436)
(7.08168e-06 -4.61587e-06 0.107443)
(-2.59922e-05 2.88644e-05 0.104299)
(4.30625e-05 -3.91975e-05 0.104409)
(-1.1122e-05 -1.05513e-06 0.107451)
(-1.02833e-05 8.79476e-06 0.107445)
(-4.98905e-06 -2.24512e-06 0.107437)
(-5.68805e-06 7.58377e-06 0.107444)
(1.04636e-05 5.98425e-06 0.107444)
(9.18848e-06 -1.18384e-06 0.107444)
(7.83679e-06 6.05559e-06 0.107442)
(2.84329e-05 -2.54556e-05 0.104297)
(-3.94882e-05 4.33486e-05 0.10441)
(4.64924e-06 1.11291e-05 0.107445)
(-1.74539e-06 1.02934e-05 0.107445)
(4.75156e-06 8.94562e-06 0.107443)
(4.14687e-05 4.22624e-05 0.104408)
(2.76835e-05 2.79424e-05 0.104295)
(-4.34692e-05 -4.55857e-05 0.104413)
(-5.5637e-06 -5.19758e-06 0.107433)
(5.44346e-06 -6.30104e-06 0.107441)
(-8.45293e-06 -1.30812e-05 0.107432)
(9.17657e-07 -1.31495e-05 0.10743)
(-2.687e-05 2.86837e-05 0.104303)
(3.83034e-05 -4.60018e-05 0.10441)
(-5.62627e-06 -5.42479e-06 0.107435)
(-7.1036e-06 5.19061e-06 0.107443)
(-1.14761e-05 -1.10627e-05 0.107434)
(-1.22475e-05 -5.21891e-07 0.107429)
(8.50518e-06 5.51537e-06 0.107443)
(7.59956e-06 -1.01271e-05 0.107436)
(1.01484e-05 3.06033e-06 0.107433)
(2.86516e-05 -2.6902e-05 0.104305)
(-4.51356e-05 3.7542e-05 0.104408)
(5.46061e-06 8.86156e-06 0.107444)
(-8.64223e-06 6.69421e-06 0.107435)
(5.59342e-06 8.54451e-06 0.107435)
(4.24034e-05 4.03647e-05 0.10441)
(2.54019e-05 2.35438e-05 0.104312)
(-4.07625e-05 -3.9318e-05 0.104433)
(-8.50584e-06 -1.55638e-05 0.107439)
(2.16109e-06 -1.50686e-05 0.107433)
(-4.03701e-06 -1.12323e-05 0.107446)
(7.6562e-06 -9.95713e-06 0.107438)
(-3.01017e-05 2.3013e-05 0.104307)
(4.36009e-05 -3.8962e-05 0.104427)
(-1.4018e-05 -1.07335e-05 0.107441)
(-1.39147e-05 1.0783e-06 0.10743)
(-1.17929e-05 -2.83477e-06 0.107447)
(-9.7235e-06 8.42253e-06 0.107434)
(1.14275e-05 3.9616e-06 0.107434)
(1.1248e-05 -3.96202e-06 0.107438)
(9.95165e-06 6.63335e-06 0.107434)
(2.38197e-05 -3.07925e-05 0.104304)
(-3.93761e-05 4.40505e-05 0.104423)
(6.07156e-06 9.94507e-06 0.107436)
(-4.69419e-06 1.10912e-05 0.107434)
(5.39544e-06 1.05509e-05 0.107434)
(4.08173e-05 4.22754e-05 0.104423)
(2.85426e-05 3.02591e-05 0.104328)
(-3.86939e-05 -3.80886e-05 0.104432)
(-3.39258e-06 -9.54411e-06 0.107448)
(9.51256e-06 -8.59266e-06 0.107443)
(-2.13672e-06 -3.1182e-06 0.107439)
(6.41195e-06 -3.6935e-06 0.107445)
(-2.47709e-05 3.06988e-05 0.104324)
(4.12021e-05 -3.79164e-05 0.104439)
(-1.0751e-05 -1.41517e-06 0.107449)
(-8.90604e-06 1.05957e-05 0.10744)
(-4.05855e-06 -9.31852e-07 0.107441)
(-4.53314e-06 6.90294e-06 0.107445)
(1.03497e-05 7.68914e-06 0.107438)
(7.90314e-06 -8.27072e-07 0.107446)
(6.62861e-06 4.94212e-06 0.107444)
(3.01268e-05 -2.42109e-05 0.104322)
(-3.82448e-05 4.1404e-05 0.10444)
(5.72864e-06 1.14904e-05 0.107439)
(-1.46015e-06 8.62215e-06 0.107446)
(3.87217e-06 7.43696e-06 0.107445)
(3.9716e-05 4.02091e-05 0.104439)
(2.90666e-05 2.91962e-05 0.104328)
(-4.09886e-05 -4.23778e-05 0.104442)
(-4.29184e-06 -5.71697e-06 0.107439)
(5.69573e-06 -6.85265e-06 0.107446)
(-5.89468e-06 -8.4584e-06 0.10744)
(-4.02319e-07 -9.31844e-06 0.107442)
(-2.77362e-05 2.91827e-05 0.104336)
(3.66337e-05 -4.30858e-05 0.104443)
(-6.02751e-06 -4.09074e-06 0.10744)
(-7.44633e-06 5.7219e-06 0.107446)
(-7.4674e-06 -7.52711e-06 0.107442)
(-8.85185e-06 -1.13679e-06 0.107442)
(8.67418e-06 5.14846e-06 0.107447)
(4.98215e-06 -7.00777e-06 0.107447)
(6.76746e-06 1.79179e-06 0.107445)
(2.90305e-05 -2.76895e-05 0.104338)
(-4.25604e-05 3.62341e-05 0.104442)
(5.0203e-06 8.90528e-06 0.107448)
(-6.17101e-06 4.61285e-06 0.107447)
(3.29761e-06 5.84749e-06 0.107447)
(3.99372e-05 3.86687e-05 0.104443)
(2.53124e-05 2.40923e-05 0.104345)
(-3.64003e-05 -3.60023e-05 0.104449)
(-8.55056e-06 -1.37182e-05 0.107441)
(1.9864e-06 -1.37557e-05 0.10744)
(-1.19446e-06 -5.68641e-06 0.107453)
(2.27353e-06 -4.48365e-06 0.107446)
(-2.96618e-05 2.35589e-05 0.104344)
(3.76032e-05 -3.55122e-05 0.104443)
(-1.27987e-05 -9.93187e-06 0.107443)
(-1.32074e-05 1.40803e-06 0.107439)
(-5.76495e-06 -1.06527e-06 0.107454)
(-4.34316e-06 2.37882e-06 0.107444)
(1.06852e-05 4.31041e-06 0.107441)
(4.40495e-06 -1.46196e-06 0.107448)
(4.08052e-06 1.96295e-06 0.107444)
(2.40221e-05 -3.00145e-05 0.104343)
(-3.55613e-05 3.76948e-05 0.10444)
(5.59233e-06 9.87141e-06 0.107443)
(-1.51798e-06 4.30951e-06 0.107445)
(1.8109e-06 4.19384e-06 0.107445)
(3.64111e-05 3.68334e-05 0.10444)
(2.55899e-05 2.60891e-05 0.104368)
(-2.8613e-05 -2.81754e-05 0.104414)
(-5.43614e-06 -1.14695e-05 0.107443)
(9.29655e-06 -1.02617e-05 0.107438)
(9.82192e-07 -9.79332e-07 0.107458)
(4.02597e-06 -1.21989e-06 0.107461)
(-2.33009e-05 2.65999e-05 0.104363)
(3.19716e-05 -2.78305e-05 0.104419)
(-1.17879e-05 -4.96462e-06 0.107444)
(-1.0234e-05 9.52053e-06 0.107435)
(-1.32459e-06 1.60323e-06 0.107459)
(-1.34641e-06 4.36388e-06 0.107459)
(1.12163e-05 7.90788e-06 0.107435)
(5.04631e-06 1.56425e-06 0.107461)
(3.92729e-06 2.17068e-06 0.107459)
(2.65149e-05 -2.31735e-05 0.104361)
(-2.80259e-05 3.208e-05 0.104418)
(7.40042e-06 1.15289e-05 0.107436)
(1.1453e-06 5.1415e-06 0.10746)
(1.57523e-06 4.23844e-06 0.10746)
(3.01583e-05 3.05502e-05 0.104418)
(1.13567e-05 1.18135e-05 0.104418)
(-4.40173e-05 -4.39187e-05 0.104655)
(-1.42479e-05 -1.9775e-05 0.10743)
(1.71392e-05 -2.05976e-05 0.107435)
(-2.88849e-05 -6.32857e-05 0.107734)
(2.29223e-05 -6.38228e-05 0.107735)
(-9.11279e-06 1.19052e-05 0.104424)
(3.9409e-05 -4.46567e-05 0.104656)
(-2.00715e-05 -1.37142e-05 0.107431)
(-2.07627e-05 1.74839e-05 0.107434)
(-6.37217e-05 -2.869e-05 0.107735)
(-6.43402e-05 2.30797e-05 0.107736)
(2.28363e-05 1.61819e-05 0.107435)
(6.01993e-05 -2.87317e-05 0.107738)
(6.1642e-05 2.57233e-05 0.107738)
(1.16409e-05 -8.95416e-06 0.104423)
(-4.48411e-05 3.9536e-05 0.104656)
(1.56999e-05 2.30832e-05 0.107436)
(-2.8949e-05 6.06232e-05 0.107739)
(2.56029e-05 6.19618e-05 0.107739)
(4.18568e-05 4.18613e-05 0.104657)
(-4.38801e-05 -4.38932e-05 0.104987)
(-2.20382e-05 -5.57573e-05 0.107889)
(1.62954e-05 -5.60683e-05 0.10789)
(3.94446e-05 -4.46002e-05 0.104987)
(-5.61069e-05 -2.1974e-05 0.107891)
(-5.65017e-05 1.63478e-05 0.10789)
(3.59132e-05 -3.95538e-05 0.11122)
(-4.00533e-05 3.63291e-05 0.111221)
(3.73004e-05 3.76935e-05 0.111222)
(5.37066e-05 1.88843e-05 0.107892)
(-4.47204e-05 3.9504e-05 0.104987)
(1.88954e-05 5.39327e-05 0.107893)
(-2.63413e-07 -1.15696e-05 0.0914221)
(-1.00359e-06 -8.01652e-06 0.0822869)
(2.08256e-06 -3.26823e-06 0.0716075)
(-7.96292e-06 -1.37347e-06 0.0822877)
(-1.13889e-05 -1.20542e-05 0.112453)
(1.15789e-05 -1.15638e-05 0.112452)
(-1.08326e-05 1.08259e-05 0.112453)
(1.18383e-05 1.11507e-05 0.112454)
(2.10641e-05 -1.39391e-06 0.0985736)
(1.18425e-05 -5.84128e-06 0.107488)
(1.51781e-05 -5.73448e-06 0.093064)
(1.43919e-05 -2.09736e-06 0.109907)
(-2.32116e-07 -1.20086e-05 0.0914537)
(6.36428e-07 4.5968e-06 0.0822717)
(-3.12657e-07 7.15467e-07 0.0914131)
(-1.32803e-06 -7.92523e-06 0.0823194)
(-1.1525e-06 2.45957e-06 0.0715869)
(2.93024e-06 -2.88732e-06 0.0716359)
(-1.19069e-05 4.56194e-07 0.0914534)
(4.35736e-06 1.0082e-06 0.0822725)
(6.94455e-07 2.71091e-08 0.091413)
(-8.14506e-06 -7.91711e-07 0.0823199)
(1.13811e-05 -1.23904e-05 0.112444)
(-1.12643e-05 1.02471e-05 0.112444)
(1.14998e-05 1.02822e-05 0.112446)
(-1.16502e-05 -1.21207e-05 0.11242)
(1.09965e-05 -1.25727e-05 0.112419)
(-1.23201e-05 1.07458e-05 0.112417)
(1.10179e-05 1.05549e-05 0.112417)
(2.11164e-05 -3.63122e-07 0.0985956)
(-3.79024e-06 7.06763e-07 0.0930376)
(1.42735e-05 -4.85449e-06 0.109895)
(1.13248e-05 -7.66172e-06 0.107484)
(-1.47428e-06 -1.47768e-06 0.0985399)
(1.60616e-05 -4.66912e-06 0.093093)
(1.41495e-05 -4.85077e-06 0.109891)
(2.58325e-06 -1.03965e-06 0.0715907)
(-2.97502e-06 2.80328e-06 0.071635)
(-9.17792e-07 2.07366e-05 0.0985943)
(-3.46886e-06 1.37932e-05 0.109895)
(7.6028e-08 -4.15069e-06 0.093037)
(-7.24842e-06 1.06422e-05 0.107481)
(-1.34066e-06 -1.60841e-06 0.0985395)
(-3.94365e-06 1.34262e-05 0.10989)
(-4.92675e-06 1.56431e-05 0.0930916)
(-6.74816e-07 -1.35052e-06 0.0875907)
(-1.52505e-06 -4.94775e-07 0.0875901)
(4.38306e-05 4.32743e-05 0.104314)
(6.38141e-06 5.62541e-06 0.0876348)
(5.07043e-06 6.76234e-06 0.0876333)
(-3.32048e-07 -1.2097e-05 0.091485)
(-6.26238e-08 4.53979e-06 0.0823051)
(-1.97946e-07 2.85543e-07 0.0914449)
(-1.85623e-06 -8.06042e-06 0.0823534)
(-6.10601e-07 2.47144e-06 0.0716176)
(2.57618e-06 -3.23542e-06 0.0716677)
(-1.21086e-05 -5.7562e-07 0.0914853)
(4.64431e-06 1.81581e-09 0.0823059)
(3.67125e-07 7.86664e-10 0.0914447)
(-7.89106e-06 -2.12205e-06 0.0823541)
(1.12165e-05 -1.17376e-05 0.112411)
(-1.20626e-05 1.15344e-05 0.112408)
(1.12507e-05 1.1477e-05 0.112408)
(-1.08078e-05 -9.972e-06 0.112383)
(1.21372e-05 -9.94108e-06 0.112383)
(-1.04509e-05 1.265e-05 0.112382)
(1.1776e-05 1.26106e-05 0.112382)
(2.15529e-05 1.92069e-07 0.098617)
(-3.26312e-06 1.54887e-06 0.0930661)
(1.44666e-05 -1.95307e-06 0.109877)
(1.22633e-05 -4.71044e-06 0.107475)
(-1.183e-06 7.53831e-07 0.0985609)
(1.58598e-05 -5.23038e-06 0.0931215)
(1.4784e-05 -1.22331e-06 0.109872)
(2.57376e-06 -9.42997e-07 0.0716187)
(-3.31443e-06 2.6528e-06 0.0716642)
(8.69132e-08 2.16897e-05 0.0986168)
(-2.90566e-06 1.44101e-05 0.109875)
(2.01241e-06 -3.19569e-06 0.0930663)
(-5.26277e-06 1.27058e-05 0.107474)
(1.77067e-07 -1.32584e-06 0.0985598)
(-2.21904e-06 1.50843e-05 0.10987)
(-4.8709e-06 1.61073e-05 0.0931211)
(-2.68769e-07 -1.86736e-06 0.0876231)
(-2.1743e-06 -8.18216e-08 0.0876223)
(4.37734e-05 4.47065e-05 0.104318)
(7.05507e-06 5.19667e-06 0.0876669)
(5.32128e-06 6.95811e-06 0.0876653)
(-6.773e-07 -1.14734e-05 0.0915157)
(4.17955e-07 4.44645e-06 0.0823395)
(-7.68102e-07 8.14365e-07 0.0914754)
(-1.01648e-06 -8.04638e-06 0.0823868)
(-1.532e-06 2.15514e-06 0.071649)
(2.33548e-06 -3.14267e-06 0.0716976)
(-1.14912e-05 -6.36948e-07 0.0915159)
(4.46288e-06 2.4629e-07 0.0823404)
(7.47975e-07 -1.01337e-06 0.0914757)
(-8.12307e-06 -9.75999e-07 0.0823875)
(1.21511e-05 -1.03221e-05 0.112375)
(-1.04949e-05 1.23256e-05 0.112373)
(1.16537e-05 1.21164e-05 0.112374)
(-1.23797e-05 -1.27618e-05 0.112346)
(1.13261e-05 -1.26822e-05 0.112348)
(-1.24236e-05 1.10735e-05 0.112347)
(1.15308e-05 1.11561e-05 0.112348)
(2.10953e-05 -1.31183e-06 0.0986397)
(-3.85567e-06 -8.75985e-08 0.093096)
(1.50164e-05 -2.54716e-06 0.109859)
(1.16791e-05 -6.90418e-06 0.107468)
(-1.04673e-06 -1.29811e-06 0.0985841)
(1.53472e-05 -5.94413e-06 0.0931515)
(1.48048e-05 -3.42398e-06 0.109855)
(2.25434e-06 -1.40469e-06 0.0716509)
(-3.18586e-06 2.45516e-06 0.0716957)
(-1.17395e-06 2.10629e-05 0.0986398)
(-2.32958e-06 1.52925e-05 0.109858)
(-3.25027e-07 -3.8422e-06 0.093096)
(-6.63193e-06 1.15116e-05 0.107467)
(-9.15288e-07 -8.90816e-07 0.0985845)
(-3.01366e-06 1.48422e-05 0.109854)
(-6.20564e-06 1.5224e-05 0.0931503)
(-4.51515e-07 -1.44414e-06 0.0876549)
(-1.11775e-06 -6.34541e-07 0.0876541)
(4.36851e-05 4.31945e-05 0.104323)
(6.37373e-06 5.59813e-06 0.0876987)
(5.68806e-06 6.35266e-06 0.0876973)
(4.45591e-07 -1.16062e-05 0.0915477)
(8.78789e-07 4.55208e-06 0.0823708)
(6.17552e-08 9.53762e-07 0.0915073)
(-1.00071e-06 -7.86307e-06 0.0824175)
(-7.03877e-07 2.6662e-06 0.0716763)
(3.04121e-06 -2.75376e-06 0.071724)
(-1.16083e-05 4.69018e-07 0.0915477)
(4.51452e-06 1.01551e-06 0.0823716)
(9.8904e-07 2.45739e-07 0.0915072)
(-7.84922e-06 -9.77469e-07 0.0824182)
(1.11495e-05 -1.31314e-05 0.112339)
(-1.29892e-05 1.10238e-05 0.112338)
(1.16896e-05 1.14108e-05 0.112339)
(-1.30593e-05 -1.2768e-05 0.112315)
(1.19626e-05 -1.2489e-05 0.112313)
(-1.2774e-05 1.22288e-05 0.112312)
(1.23196e-05 1.2597e-05 0.112311)
(2.05948e-05 -1.39347e-08 0.0986612)
(-4.07391e-06 1.19094e-06 0.0931246)
(1.44045e-05 -3.96686e-06 0.109843)
(1.14625e-05 -6.97255e-06 0.107463)
(-1.9377e-06 -3.67633e-07 0.0986056)
(1.54471e-05 -4.31179e-06 0.0931795)
(1.44613e-05 -3.54735e-06 0.109838)
(2.71958e-06 -8.65939e-07 0.0716784)
(-2.84235e-06 2.99964e-06 0.0717218)
(-1.68369e-07 2.05825e-05 0.0986607)
(-4.05359e-06 1.42101e-05 0.109842)
(1.22473e-06 -4.09806e-06 0.0931247)
(-7.21535e-06 1.15397e-05 0.107462)
(-6.04626e-07 -2.06483e-06 0.098605)
(-3.80704e-06 1.43581e-05 0.109837)
(-4.14052e-06 1.55458e-05 0.0931788)
(-7.59912e-07 -1.98726e-06 0.0876866)
(-2.16497e-06 -6.27513e-07 0.0876858)
(4.35632e-05 4.37917e-05 0.104329)
(6.57466e-06 4.88207e-06 0.0877293)
(4.7971e-06 6.62826e-06 0.0877278)
(-4.16897e-07 -1.1857e-05 0.0915784)
(1.61049e-07 4.8301e-06 0.0824017)
(1.16377e-07 6.57616e-07 0.0915386)
(-1.92249e-06 -7.76012e-06 0.0824491)
(-8.9573e-07 2.536e-06 0.0717028)
(2.54652e-06 -3.1435e-06 0.0717518)
(-1.19019e-05 -5.95724e-07 0.0915787)
(4.90072e-06 -7.90919e-09 0.0824026)
(6.20869e-07 -9.18106e-08 0.0915388)
(-7.72539e-06 -2.06958e-06 0.0824499)
(1.25481e-05 -1.20111e-05 0.112305)
(-1.2273e-05 1.27924e-05 0.112304)
(1.252e-05 1.28235e-05 0.112303)
(-1.0471e-05 -1.06264e-05 0.11228)
(1.2725e-05 -1.09467e-05 0.11228)
(-1.07485e-05 1.25021e-05 0.112279)
(1.21184e-05 1.19388e-05 0.112279)
(2.14378e-05 -4.26455e-07 0.098686)
(-3.60275e-06 1.63004e-06 0.0931534)
(1.52843e-05 -2.43695e-06 0.109826)
(1.25674e-05 -5.53938e-06 0.107459)
(-1.36608e-06 -2.25805e-07 0.0986295)
(1.5781e-05 -5.07067e-06 0.0932089)
(1.55637e-05 -2.34288e-06 0.109821)
(2.6509e-06 -9.0626e-07 0.0717046)
(-3.17874e-06 2.69468e-06 0.0717497)
(-1.77507e-07 2.15361e-05 0.098686)
(-2.5606e-06 1.5468e-05 0.109825)
(1.76745e-06 -3.47258e-06 0.0931537)
(-5.43296e-06 1.26567e-05 0.107458)
(-2.59311e-08 -1.26686e-06 0.0986294)
(-2.25758e-06 1.57333e-05 0.109821)
(-5.08331e-06 1.5824e-05 0.0932082)
(-2.77241e-07 -2.0078e-06 0.0877161)
(-1.83691e-06 -3.75144e-07 0.0877153)
(4.36134e-05 4.35009e-05 0.104336)
(6.74033e-06 5.4404e-06 0.0877594)
(5.64542e-06 6.6268e-06 0.0877579)
(-8.08845e-07 -1.1421e-05 0.0916084)
(-5.22609e-08 4.60875e-06 0.0824349)
(-9.08579e-07 7.5989e-07 0.0915687)
(-1.49512e-06 -7.77955e-06 0.0824824)
(-1.27086e-06 2.2095e-06 0.0717335)
(2.36439e-06 -3.10627e-06 0.0717825)
(-1.13941e-05 -6.43224e-07 0.0916084)
(4.58322e-06 -1.31638e-08 0.0824358)
(7.60663e-07 -8.67186e-07 0.0915687)
(-7.8367e-06 -1.33264e-06 0.082483)
(1.23005e-05 -1.09642e-05 0.112272)
(-1.062e-05 1.19406e-05 0.112271)
(1.17943e-05 1.14585e-05 0.112272)
(-1.17934e-05 -1.21629e-05 0.112245)
(1.1401e-05 -1.21364e-05 0.112248)
(-1.18549e-05 1.1149e-05 0.112246)
(1.15927e-05 1.12537e-05 0.112247)
(2.08589e-05 -8.35854e-07 0.0987081)
(-3.91725e-06 -7.08149e-09 0.0931827)
(1.49817e-05 -2.83722e-06 0.109812)
(1.12622e-05 -6.43794e-06 0.107455)
(-1.18652e-06 -7.51042e-07 0.0986537)
(1.51926e-05 -5.94074e-06 0.0932373)
(1.45935e-05 -3.14344e-06 0.109808)
(2.31152e-06 -1.24639e-06 0.0717357)
(-3.16194e-06 2.49663e-06 0.0717805)
(-9.20371e-07 2.07666e-05 0.0987076)
(-2.35789e-06 1.48824e-05 0.109811)
(-1.23569e-07 -3.95969e-06 0.0931827)
(-6.15046e-06 1.10545e-05 0.107453)
(-6.613e-07 -1.21414e-06 0.0986534)
(-2.71813e-06 1.44174e-05 0.109807)
(-6.04485e-06 1.50589e-05 0.0932363)
(-6.09706e-07 -1.36437e-06 0.0877478)
(-1.34164e-06 -5.83833e-07 0.0877471)
(4.32122e-05 4.29398e-05 0.104342)
(6.31961e-06 5.5106e-06 0.0877915)
(5.37828e-06 6.4179e-06 0.0877901)
(2.52346e-07 -1.10948e-05 0.0916389)
(8.8158e-07 4.79139e-06 0.082465)
(-2.84753e-07 1.31111e-06 0.0915991)
(-7.23367e-07 -7.8764e-06 0.0825111)
(-8.72427e-07 2.70167e-06 0.0717595)
(3.03847e-06 -2.68655e-06 0.0718066)
(-1.10937e-05 4.70238e-07 0.0916389)
(4.71678e-06 1.13002e-06 0.0824658)
(1.36131e-06 -1.22098e-08 0.091599)
(-7.92717e-06 -5.6784e-07 0.0825118)
(1.13495e-05 -1.25858e-05 0.11224)
(-1.24217e-05 1.11963e-05 0.112238)
(1.16906e-05 1.1505e-05 0.112239)
(-1.30928e-05 -1.26445e-05 0.112214)
(1.16397e-05 -1.27036e-05 0.112214)
(-1.30355e-05 1.19766e-05 0.112212)
(1.183e-05 1.22802e-05 0.112212)
(2.02181e-05 -2.5089e-07 0.0987301)
(-4.37817e-06 9.87856e-07 0.0932108)
(1.45148e-05 -3.74977e-06 0.109797)
(1.13661e-05 -7.08698e-06 0.107451)
(-2.11777e-06 -6.32407e-07 0.0986746)
(1.50315e-05 -4.5755e-06 0.0932655)
(1.46532e-05 -3.68298e-06 0.109793)
(2.77018e-06 -9.48407e-07 0.0717617)
(-2.76391e-06 3.01534e-06 0.0718046)
(-6.17447e-07 2.01448e-05 0.0987296)
(-3.81887e-06 1.43767e-05 0.109795)
(8.68266e-07 -4.51327e-06 0.0932106)
(-7.27114e-06 1.12825e-05 0.107449)
(-9.4106e-07 -2.24836e-06 0.098674)
(-3.95482e-06 1.45652e-05 0.109791)
(-4.60168e-06 1.4954e-05 0.0932645)
(-1.16687e-06 -1.78694e-06 0.0877782)
(-2.0902e-06 -9.84655e-07 0.0877774)
(4.27517e-05 4.31329e-05 0.104348)
(5.83724e-06 5.25772e-06 0.0878204)
(5.00916e-06 5.99596e-06 0.0878188)
(-1.88089e-07 -1.08206e-05 0.0916679)
(1.43781e-07 4.79608e-06 0.0824927)
(3.42221e-07 1.44283e-06 0.0916292)
(-1.91492e-06 -7.56165e-06 0.0825388)