/*--------------------------------*- C++ -*----------------------------------*\
| =========                 |                                                 |
| \\      /  F ield         | OpenFOAM: The Open Source CFD Toolbox           |
|  \\    /   O peration     | Version:                                        |
|   \\  /    A nd           | Website:  www.openfoam.com                      |
|    \\/     M anipulation  |                                                 |
\*---------------------------------------------------------------------------*/
FoamFile
{
    version     2.0;
    format      ascii;
    class       volScalarField;
    location    "3600.5";
    object      p;
}
// * * * * * * * * * * * * * * * * * * * * * * * * * * * * * * * * * * * * * //

dimensions      [0 2 -2 0 0 0 0];


internalField   nonuniform List<scalar> 
247096
(
1.8821e-07
1.88213e-07
1.88345e-07
1.88431e-07
1.88465e-07
1.88421e-07
1.88333e-07
1.8819e-07
1.88213e-07
1.88399e-07
1.88589e-07
1.88691e-07
1.88717e-07
1.88683e-07
1.88568e-07
1.88374e-07
1.88345e-07
1.88589e-07
1.88745e-07
1.88793e-07
1.88801e-07
1.8879e-07
1.88733e-07
1.88558e-07
1.8832e-07
1.88431e-07
1.88691e-07
1.88793e-07
1.88811e-07
1.88812e-07
1.88811e-07
1.88787e-07
1.88667e-07
1.88396e-07
1.8821e-07
1.88465e-07
1.88717e-07
1.88801e-07
1.88812e-07
1.8881e-07
1.88812e-07
1.88797e-07
1.88695e-07
1.88428e-07
1.88421e-07
1.88683e-07
1.8879e-07
1.88811e-07
1.88812e-07
1.8881e-07
1.88783e-07
1.88658e-07
1.88388e-07
1.88333e-07
1.88568e-07
1.88733e-07
1.88787e-07
1.88797e-07
1.88783e-07
1.8872e-07
1.88538e-07
1.8831e-07
1.8819e-07
1.88374e-07
1.88558e-07
1.88667e-07
1.88695e-07
1.88658e-07
1.88538e-07
1.88352e-07
1.8832e-07
1.88396e-07
1.88428e-07
1.88388e-07
1.8831e-07
1.85656e-07
1.85625e-07
1.85633e-07
1.85477e-07
1.85484e-07
1.85499e-07
1.85485e-07
1.85667e-07
1.85622e-07
1.85633e-07
1.85499e-07
1.85318e-07
1.85323e-07
1.85323e-07
1.85318e-07
1.85578e-07
1.85511e-07
1.85477e-07
1.85318e-07
1.85318e-07
1.85324e-07
1.85324e-07
1.85318e-07
1.85318e-07
1.85661e-07
1.85671e-07
1.85656e-07
1.85484e-07
1.85323e-07
1.85324e-07
1.85332e-07
1.85332e-07
1.85324e-07
1.85323e-07
1.85678e-07
1.85679e-07
1.85625e-07
1.85499e-07
1.85323e-07
1.85324e-07
1.85332e-07
1.85332e-07
1.85324e-07
1.85323e-07
1.85678e-07
1.85516e-07
1.85485e-07
1.85318e-07
1.85318e-07
1.85324e-07
1.85324e-07
1.85318e-07
1.85318e-07
1.85667e-07
1.85685e-07
1.85667e-07
1.85578e-07
1.85318e-07
1.85323e-07
1.85323e-07
1.85318e-07
1.85675e-07
1.85577e-07
1.85675e-07
1.85622e-07
1.85511e-07
1.85661e-07
1.85678e-07
1.85678e-07
1.85667e-07
1.85577e-07
1.85688e-07
1.85671e-07
1.85679e-07
1.85516e-07
1.85685e-07
1.85675e-07
1.83677e-07
1.83665e-07
1.83675e-07
1.8352e-07
1.83518e-07
1.83529e-07
1.83521e-07
1.83697e-07
1.83665e-07
1.83675e-07
1.83524e-07
1.83272e-07
1.83275e-07
1.83275e-07
1.83272e-07
1.83565e-07
1.83547e-07
1.8352e-07
1.83272e-07
1.83283e-07
1.83282e-07
1.83282e-07
1.83283e-07
1.83271e-07
1.83631e-07
1.837e-07
1.83677e-07
1.83518e-07
1.83275e-07
1.83282e-07
1.83284e-07
1.83284e-07
1.83282e-07
1.83275e-07
1.83633e-07
1.83684e-07
1.83665e-07
1.83529e-07
1.83275e-07
1.83282e-07
1.83284e-07
1.83284e-07
1.83282e-07
1.83275e-07
1.83629e-07
1.83554e-07
1.83521e-07
1.83272e-07
1.83283e-07
1.83282e-07
1.83282e-07
1.83283e-07
1.83271e-07
1.83631e-07
1.83693e-07
1.83697e-07
1.83565e-07
1.83271e-07
1.83275e-07
1.83275e-07
1.83271e-07
1.8361e-07
1.83586e-07
1.83709e-07
1.83665e-07
1.83547e-07
1.83631e-07
1.83633e-07
1.83629e-07
1.83631e-07
1.83586e-07
1.83711e-07
1.837e-07
1.83684e-07
1.83554e-07
1.83693e-07
1.8371e-07
1.81692e-07
1.8168e-07
1.8169e-07
1.81534e-07
1.81532e-07
1.81544e-07
1.81536e-07
1.81713e-07
1.8168e-07
1.8169e-07
1.81539e-07
1.81289e-07
1.81291e-07
1.81291e-07
1.81289e-07
1.81582e-07
1.81561e-07
1.81534e-07
1.81289e-07
1.81298e-07
1.81295e-07
1.81295e-07
1.81298e-07
1.81289e-07
1.8165e-07
1.81716e-07
1.81692e-07
1.81532e-07
1.81291e-07
1.81295e-07
1.81293e-07
1.81293e-07
1.81295e-07
1.81291e-07
1.81651e-07
1.81701e-07
1.8168e-07
1.81544e-07
1.81291e-07
1.81295e-07
1.81293e-07
1.81293e-07
1.81295e-07
1.81291e-07
1.81647e-07
1.81569e-07
1.81536e-07
1.81289e-07
1.81298e-07
1.81295e-07
1.81295e-07
1.81298e-07
1.81289e-07
1.8165e-07
1.8171e-07
1.81713e-07
1.81582e-07
1.81289e-07
1.81291e-07
1.81291e-07
1.81289e-07
1.8163e-07
1.81602e-07
1.81725e-07
1.8168e-07
1.81561e-07
1.8165e-07
1.81651e-07
1.81647e-07
1.8165e-07
1.81602e-07
1.81727e-07
1.81716e-07
1.81701e-07
1.81569e-07
1.8171e-07
1.81725e-07
1.79706e-07
1.79694e-07
1.79704e-07
1.79548e-07
1.79546e-07
1.79558e-07
1.7955e-07
1.79727e-07
1.79694e-07
1.79704e-07
1.79553e-07
1.79303e-07
1.79305e-07
1.79305e-07
1.79303e-07
1.79596e-07
1.79575e-07
1.79548e-07
1.79303e-07
1.79312e-07
1.79308e-07
1.79308e-07
1.79312e-07
1.79303e-07
1.79664e-07
1.7973e-07
1.79706e-07
1.79546e-07
1.79305e-07
1.79308e-07
1.79307e-07
1.79307e-07
1.79308e-07
1.79305e-07
1.79665e-07
1.79715e-07
1.79694e-07
1.79558e-07
1.79305e-07
1.79308e-07
1.79307e-07
1.79307e-07
1.79308e-07
1.79305e-07
1.79661e-07
1.79583e-07
1.7955e-07
1.79303e-07
1.79312e-07
1.79308e-07
1.79308e-07
1.79312e-07
1.79303e-07
1.79664e-07
1.79724e-07
1.79727e-07
1.79596e-07
1.79303e-07
1.79305e-07
1.79305e-07
1.79303e-07
1.79644e-07
1.79616e-07
1.79739e-07
1.79694e-07
1.79575e-07
1.79664e-07
1.79665e-07
1.79661e-07
1.79664e-07
1.79616e-07
1.79741e-07
1.7973e-07
1.79715e-07
1.79583e-07
1.79724e-07
1.79739e-07
1.77719e-07
1.77707e-07
1.77716e-07
1.7756e-07
1.77558e-07
1.7757e-07
1.77562e-07
1.7774e-07
1.77706e-07
1.77716e-07
1.77565e-07
1.77315e-07
1.77316e-07
1.77316e-07
1.77315e-07
1.77608e-07
1.77587e-07
1.7756e-07
1.77315e-07
1.77324e-07
1.7732e-07
1.7732e-07
1.77324e-07
1.77315e-07
1.77676e-07
1.77742e-07
1.77719e-07
1.77558e-07
1.77316e-07
1.7732e-07
1.77318e-07
1.77318e-07
1.7732e-07
1.77316e-07
1.77678e-07
1.77728e-07
1.77707e-07
1.7757e-07
1.77316e-07
1.7732e-07
1.77318e-07
1.77318e-07
1.7732e-07
1.77316e-07
1.77674e-07
1.77596e-07
1.77562e-07
1.77315e-07
1.77324e-07
1.7732e-07
1.7732e-07
1.77324e-07
1.77315e-07
1.77676e-07
1.77737e-07
1.7774e-07
1.77608e-07
1.77315e-07
1.77316e-07
1.77316e-07
1.77315e-07
1.77656e-07
1.77628e-07
1.77752e-07
1.77706e-07
1.77587e-07
1.77676e-07
1.77678e-07
1.77674e-07
1.77676e-07
1.77628e-07
1.77754e-07
1.77742e-07
1.77728e-07
1.77596e-07
1.77737e-07
1.77752e-07
1.7573e-07
1.75719e-07
1.75728e-07
1.75572e-07
1.7557e-07
1.75582e-07
1.75574e-07
1.75752e-07
1.75718e-07
1.75728e-07
1.75577e-07
1.75327e-07
1.75328e-07
1.75328e-07
1.75327e-07
1.7562e-07
1.75599e-07
1.75572e-07
1.75327e-07
1.75335e-07
1.75331e-07
1.75331e-07
1.75335e-07
1.75327e-07
1.75688e-07
1.75754e-07
1.7573e-07
1.7557e-07
1.75328e-07
1.75331e-07
1.7533e-07
1.7533e-07
1.75331e-07
1.75328e-07
1.75689e-07
1.7574e-07
1.75719e-07
1.75582e-07
1.75328e-07
1.75331e-07
1.7533e-07
1.7533e-07
1.75332e-07
1.75328e-07
1.75685e-07
1.75608e-07
1.75574e-07
1.75327e-07
1.75335e-07
1.75331e-07
1.75331e-07
1.75335e-07
1.75327e-07
1.75688e-07
1.75749e-07
1.75752e-07
1.7562e-07
1.75327e-07
1.75328e-07
1.75328e-07
1.75327e-07
1.75668e-07
1.7564e-07
1.75764e-07
1.75718e-07
1.75599e-07
1.75688e-07
1.75689e-07
1.75685e-07
1.75688e-07
1.7564e-07
1.75766e-07
1.75754e-07
1.7574e-07
1.75608e-07
1.75749e-07
1.75764e-07
1.73742e-07
1.73731e-07
1.7374e-07
1.73584e-07
1.73582e-07
1.73594e-07
1.73586e-07
1.73764e-07
1.7373e-07
1.7374e-07
1.73589e-07
1.73339e-07
1.7334e-07
1.7334e-07
1.73339e-07
1.73632e-07
1.73611e-07
1.73584e-07
1.73339e-07
1.73347e-07
1.73343e-07
1.73343e-07
1.73347e-07
1.73339e-07
1.737e-07
1.73766e-07
1.73742e-07
1.73582e-07
1.7334e-07
1.73343e-07
1.73342e-07
1.73342e-07
1.73343e-07
1.7334e-07
1.73701e-07
1.73752e-07
1.73731e-07
1.73594e-07
1.7334e-07
1.73343e-07
1.73342e-07
1.73342e-07
1.73343e-07
1.7334e-07
1.73697e-07
1.73619e-07
1.73586e-07
1.73339e-07
1.73347e-07
1.73343e-07
1.73343e-07
1.73347e-07
1.73339e-07
1.737e-07
1.73761e-07
1.73764e-07
1.73632e-07
1.73339e-07
1.7334e-07
1.7334e-07
1.73339e-07
1.7368e-07
1.73652e-07
1.73775e-07
1.7373e-07
1.73611e-07
1.737e-07
1.73701e-07
1.73697e-07
1.737e-07
1.73652e-07
1.73778e-07
1.73766e-07
1.73752e-07
1.73619e-07
1.73761e-07
1.73775e-07
1.71754e-07
1.71743e-07
1.71752e-07
1.71596e-07
1.71594e-07
1.71606e-07
1.71598e-07
1.71775e-07
1.71742e-07
1.71752e-07
1.71601e-07
1.71351e-07
1.71352e-07
1.71352e-07
1.71351e-07
1.71644e-07
1.71623e-07
1.71596e-07
1.71351e-07
1.71359e-07
1.71355e-07
1.71355e-07
1.71359e-07
1.71351e-07
1.71712e-07
1.71778e-07
1.71754e-07
1.71594e-07
1.71352e-07
1.71355e-07
1.71354e-07
1.71354e-07
1.71355e-07
1.71352e-07
1.71713e-07
1.71764e-07
1.71742e-07
1.71606e-07
1.71352e-07
1.71355e-07
1.71354e-07
1.71354e-07
1.71355e-07
1.71352e-07
1.71709e-07
1.71631e-07
1.71598e-07
1.71351e-07
1.71359e-07
1.71355e-07
1.71355e-07
1.71359e-07
1.71351e-07
1.71712e-07
1.71773e-07
1.71775e-07
1.71644e-07
1.71351e-07
1.71352e-07
1.71352e-07
1.71351e-07
1.71692e-07
1.71664e-07
1.71787e-07
1.71742e-07
1.71623e-07
1.71712e-07
1.71713e-07
1.71709e-07
1.71712e-07
1.71664e-07
1.71789e-07
1.71778e-07
1.71764e-07
1.71631e-07
1.71773e-07
1.71787e-07
1.69766e-07
1.69754e-07
1.69764e-07
1.69608e-07
1.69606e-07
1.69618e-07
1.6961e-07
1.69787e-07
1.69754e-07
1.69764e-07
1.69613e-07
1.69363e-07
1.69364e-07
1.69364e-07
1.69363e-07
1.69656e-07
1.69635e-07
1.69608e-07
1.69363e-07
1.69371e-07
1.69367e-07
1.69367e-07
1.69371e-07
1.69363e-07
1.69724e-07
1.6979e-07
1.69766e-07
1.69606e-07
1.69364e-07
1.69367e-07
1.69365e-07
1.69365e-07
1.69367e-07
1.69364e-07
1.69725e-07
1.69776e-07
1.69754e-07
1.69618e-07
1.69364e-07
1.69367e-07
1.69365e-07
1.69365e-07
1.69367e-07
1.69364e-07
1.69721e-07
1.69643e-07
1.6961e-07
1.69363e-07
1.69371e-07
1.69367e-07
1.69367e-07
1.69371e-07
1.69363e-07
1.69724e-07
1.69784e-07
1.69787e-07
1.69656e-07
1.69363e-07
1.69364e-07
1.69364e-07
1.69363e-07
1.69704e-07
1.69676e-07
1.69799e-07
1.69754e-07
1.69635e-07
1.69724e-07
1.69725e-07
1.69721e-07
1.69724e-07
1.69676e-07
1.69801e-07
1.6979e-07
1.69776e-07
1.69643e-07
1.69785e-07
1.69799e-07
1.67778e-07
1.67766e-07
1.67776e-07
1.6762e-07
1.67618e-07
1.67629e-07
1.67622e-07
1.67799e-07
1.67766e-07
1.67776e-07
1.67625e-07
1.67375e-07
1.67376e-07
1.67376e-07
1.67375e-07
1.67668e-07
1.67647e-07
1.6762e-07
1.67375e-07
1.67383e-07
1.67379e-07
1.67379e-07
1.67383e-07
1.67375e-07
1.67736e-07
1.67802e-07
1.67778e-07
1.67618e-07
1.67376e-07
1.67379e-07
1.67377e-07
1.67377e-07
1.67379e-07
1.67376e-07
1.67737e-07
1.67788e-07
1.67766e-07
1.67629e-07
1.67376e-07
1.67379e-07
1.67377e-07
1.67377e-07
1.67379e-07
1.67376e-07
1.67733e-07
1.67655e-07
1.67622e-07
1.67375e-07
1.67383e-07
1.67379e-07
1.67379e-07
1.67383e-07
1.67375e-07
1.67736e-07
1.67796e-07
1.67799e-07
1.67668e-07
1.67375e-07
1.67376e-07
1.67376e-07
1.67375e-07
1.67716e-07
1.67688e-07
1.67811e-07
1.67766e-07
1.67647e-07
1.67736e-07
1.67737e-07
1.67733e-07
1.67736e-07
1.67688e-07
1.67813e-07
1.67802e-07
1.67788e-07
1.67655e-07
1.67796e-07
1.67811e-07
1.6579e-07
1.65778e-07
1.65788e-07
1.65632e-07
1.6563e-07
1.65641e-07
1.65634e-07
1.65811e-07
1.65778e-07
1.65788e-07
1.65637e-07
1.65386e-07
1.65388e-07
1.65388e-07
1.65386e-07
1.6568e-07
1.65659e-07
1.65632e-07
1.65386e-07
1.65395e-07
1.65391e-07
1.65391e-07
1.65395e-07
1.65386e-07
1.65748e-07
1.65814e-07
1.6579e-07
1.6563e-07
1.65388e-07
1.65391e-07
1.65389e-07
1.65389e-07
1.65391e-07
1.65388e-07
1.65749e-07
1.65799e-07
1.65778e-07
1.65641e-07
1.65388e-07
1.65391e-07
1.65389e-07
1.65389e-07
1.65391e-07
1.65388e-07
1.65745e-07
1.65667e-07
1.65634e-07
1.65386e-07
1.65395e-07
1.65391e-07
1.65391e-07
1.65395e-07
1.65386e-07
1.65747e-07
1.65808e-07
1.65811e-07
1.6568e-07
1.65386e-07
1.65388e-07
1.65388e-07
1.65386e-07
1.65728e-07
1.657e-07
1.65823e-07
1.65778e-07
1.65659e-07
1.65748e-07
1.65749e-07
1.65745e-07
1.65747e-07
1.657e-07
1.65825e-07
1.65814e-07
1.65799e-07
1.65667e-07
1.65808e-07
1.65823e-07
1.63802e-07
1.6379e-07
1.63799e-07
1.63643e-07
1.63642e-07
1.63653e-07
1.63646e-07
1.63823e-07
1.6379e-07
1.638e-07
1.63649e-07
1.63398e-07
1.634e-07
1.634e-07
1.63398e-07
1.63692e-07
1.63671e-07
1.63643e-07
1.63398e-07
1.63407e-07
1.63403e-07
1.63403e-07
1.63407e-07
1.63398e-07
1.6376e-07
1.63826e-07
1.63802e-07
1.63642e-07
1.634e-07
1.63403e-07
1.63401e-07
1.63401e-07
1.63403e-07
1.634e-07
1.63761e-07
1.63811e-07
1.6379e-07
1.63653e-07
1.634e-07
1.63403e-07
1.63401e-07
1.63401e-07
1.63403e-07
1.634e-07
1.63757e-07
1.63679e-07
1.63646e-07
1.63398e-07
1.63407e-07
1.63403e-07
1.63403e-07
1.63407e-07
1.63398e-07
1.63759e-07
1.6382e-07
1.63823e-07
1.63692e-07
1.63398e-07
1.634e-07
1.634e-07
1.63398e-07
1.6374e-07
1.63711e-07
1.63835e-07
1.6379e-07
1.63671e-07
1.6376e-07
1.63761e-07
1.63757e-07
1.63759e-07
1.63712e-07
1.63837e-07
1.63826e-07
1.63811e-07
1.63679e-07
1.6382e-07
1.63835e-07
1.61814e-07
1.61802e-07
1.61811e-07
1.61655e-07
1.61653e-07
1.61665e-07
1.61657e-07
1.61835e-07
1.61802e-07
1.61811e-07
1.61661e-07
1.6141e-07
1.61412e-07
1.61412e-07
1.6141e-07
1.61704e-07
1.61683e-07
1.61655e-07
1.6141e-07
1.61419e-07
1.61415e-07
1.61415e-07
1.61419e-07
1.6141e-07
1.61771e-07
1.61838e-07
1.61814e-07
1.61653e-07
1.61412e-07
1.61415e-07
1.61413e-07
1.61413e-07
1.61415e-07
1.61412e-07
1.61773e-07
1.61823e-07
1.61802e-07
1.61665e-07
1.61412e-07
1.61415e-07
1.61413e-07
1.61413e-07
1.61415e-07
1.61412e-07
1.61769e-07
1.61691e-07
1.61657e-07
1.6141e-07
1.61419e-07
1.61415e-07
1.61415e-07
1.61419e-07
1.6141e-07
1.61771e-07
1.61832e-07
1.61835e-07
1.61704e-07
1.6141e-07
1.61412e-07
1.61412e-07
1.6141e-07
1.61752e-07
1.61723e-07
1.61847e-07
1.61802e-07
1.61683e-07
1.61771e-07
1.61773e-07
1.61769e-07
1.61771e-07
1.61723e-07
1.61849e-07
1.61838e-07
1.61823e-07
1.61691e-07
1.61832e-07
1.61847e-07
1.59826e-07
1.59814e-07
1.59823e-07
1.59667e-07
1.59665e-07
1.59677e-07
1.59669e-07
1.59847e-07
1.59813e-07
1.59823e-07
1.59672e-07
1.59422e-07
1.59423e-07
1.59423e-07
1.59422e-07
1.59716e-07
1.59695e-07
1.59667e-07
1.59422e-07
1.59431e-07
1.59427e-07
1.59427e-07
1.59431e-07
1.59422e-07
1.59783e-07
1.5985e-07
1.59826e-07
1.59665e-07
1.59423e-07
1.59427e-07
1.59425e-07
1.59425e-07
1.59427e-07
1.59423e-07
1.59785e-07
1.59835e-07
1.59814e-07
1.59677e-07
1.59423e-07
1.59427e-07
1.59425e-07
1.59425e-07
1.59427e-07
1.59423e-07
1.59781e-07
1.59703e-07
1.59669e-07
1.59422e-07
1.59431e-07
1.59427e-07
1.59427e-07
1.59431e-07
1.59422e-07
1.59783e-07
1.59844e-07
1.59847e-07
1.59716e-07
1.59422e-07
1.59423e-07
1.59423e-07
1.59422e-07
1.59764e-07
1.59735e-07
1.59859e-07
1.59813e-07
1.59695e-07
1.59783e-07
1.59785e-07
1.59781e-07
1.59783e-07
1.59735e-07
1.59861e-07
1.5985e-07
1.59835e-07
1.59703e-07
1.59844e-07
1.59859e-07
1.57838e-07
1.57826e-07
1.57835e-07
1.57679e-07
1.57677e-07
1.57689e-07
1.57681e-07
1.57859e-07
1.57825e-07
1.57835e-07
1.57684e-07
1.57434e-07
1.57435e-07
1.57435e-07
1.57434e-07
1.57728e-07
1.57707e-07
1.57679e-07
1.57434e-07
1.57443e-07
1.57439e-07
1.57439e-07
1.57443e-07
1.57434e-07
1.57795e-07
1.57862e-07
1.57838e-07
1.57677e-07
1.57435e-07
1.57439e-07
1.57437e-07
1.57437e-07
1.57439e-07
1.57435e-07
1.57797e-07
1.57847e-07
1.57826e-07
1.57689e-07
1.57435e-07
1.57439e-07
1.57437e-07
1.57437e-07
1.57439e-07
1.57435e-07
1.57793e-07
1.57715e-07
1.57681e-07
1.57434e-07
1.57443e-07
1.57439e-07
1.57439e-07
1.57443e-07
1.57434e-07
1.57795e-07
1.57856e-07
1.57859e-07
1.57728e-07
1.57434e-07
1.57435e-07
1.57435e-07
1.57434e-07
1.57776e-07
1.57747e-07
1.57871e-07
1.57825e-07
1.57707e-07
1.57795e-07
1.57797e-07
1.57793e-07
1.57795e-07
1.57747e-07
1.57873e-07
1.57862e-07
1.57847e-07
1.57715e-07
1.57856e-07
1.57871e-07
1.5585e-07
1.55838e-07
1.55847e-07
1.55691e-07
1.55689e-07
1.55701e-07
1.55693e-07
1.55871e-07
1.55837e-07
1.55847e-07
1.55696e-07
1.55446e-07
1.55447e-07
1.55447e-07
1.55446e-07
1.55739e-07
1.55719e-07
1.55691e-07
1.55446e-07
1.55455e-07
1.55451e-07
1.55451e-07
1.55455e-07
1.55446e-07
1.55807e-07
1.55873e-07
1.5585e-07
1.55689e-07
1.55447e-07
1.55451e-07
1.55449e-07
1.55449e-07
1.55451e-07
1.55447e-07
1.55809e-07
1.55859e-07
1.55838e-07
1.55701e-07
1.55447e-07
1.55451e-07
1.55449e-07
1.55449e-07
1.55451e-07
1.55447e-07
1.55805e-07
1.55727e-07
1.55693e-07
1.55446e-07
1.55455e-07
1.55451e-07
1.55451e-07
1.55455e-07
1.55446e-07
1.55807e-07
1.55868e-07
1.55871e-07
1.55739e-07
1.55446e-07
1.55447e-07
1.55447e-07
1.55446e-07
1.55788e-07
1.55759e-07
1.55883e-07
1.55837e-07
1.55719e-07
1.55807e-07
1.55809e-07
1.55805e-07
1.55807e-07
1.55759e-07
1.55885e-07
1.55873e-07
1.55859e-07
1.55727e-07
1.55868e-07
1.55883e-07
1.53862e-07
1.5385e-07
1.53859e-07
1.53703e-07
1.53701e-07
1.53713e-07
1.53705e-07
1.53883e-07
1.53849e-07
1.53859e-07
1.53708e-07
1.53458e-07
1.53459e-07
1.53459e-07
1.53458e-07
1.53751e-07
1.5373e-07
1.53703e-07
1.53458e-07
1.53466e-07
1.53463e-07
1.53463e-07
1.53466e-07
1.53458e-07
1.53819e-07
1.53885e-07
1.53862e-07
1.53701e-07
1.53459e-07
1.53463e-07
1.53461e-07
1.53461e-07
1.53463e-07
1.53459e-07
1.53821e-07
1.53871e-07
1.5385e-07
1.53713e-07
1.53459e-07
1.53463e-07
1.53461e-07
1.53461e-07
1.53463e-07
1.53459e-07
1.53817e-07
1.53739e-07
1.53705e-07
1.53458e-07
1.53466e-07
1.53463e-07
1.53463e-07
1.53466e-07
1.53458e-07
1.53819e-07
1.5388e-07
1.53883e-07
1.53751e-07
1.53458e-07
1.53459e-07
1.53459e-07
1.53458e-07
1.538e-07
1.53771e-07
1.53895e-07
1.53849e-07
1.5373e-07
1.53819e-07
1.53821e-07
1.53817e-07
1.53819e-07
1.53771e-07
1.53897e-07
1.53885e-07
1.53871e-07
1.53739e-07
1.5388e-07
1.53895e-07
1.51874e-07
1.51862e-07
1.51871e-07
1.51715e-07
1.51713e-07
1.51725e-07
1.51717e-07
1.51895e-07
1.51861e-07
1.51871e-07
1.5172e-07
1.5147e-07
1.51471e-07
1.51471e-07
1.5147e-07
1.51763e-07
1.51742e-07
1.51715e-07
1.5147e-07
1.51478e-07
1.51474e-07
1.51474e-07
1.51478e-07
1.5147e-07
1.51831e-07
1.51897e-07
1.51874e-07
1.51713e-07
1.51471e-07
1.51474e-07
1.51473e-07
1.51473e-07
1.51474e-07
1.51471e-07
1.51833e-07
1.51883e-07
1.51862e-07
1.51725e-07
1.51471e-07
1.51474e-07
1.51473e-07
1.51473e-07
1.51474e-07
1.51471e-07
1.51829e-07
1.51751e-07
1.51717e-07
1.5147e-07
1.51478e-07
1.51474e-07
1.51474e-07
1.51478e-07
1.5147e-07
1.51831e-07
1.51892e-07
1.51895e-07
1.51763e-07
1.5147e-07
1.51471e-07
1.51471e-07
1.5147e-07
1.51811e-07
1.51783e-07
1.51907e-07
1.51861e-07
1.51742e-07
1.51831e-07
1.51833e-07
1.51829e-07
1.51831e-07
1.51783e-07
1.51909e-07
1.51897e-07
1.51883e-07
1.51751e-07
1.51892e-07
1.51907e-07
1.49885e-07
1.49874e-07
1.49883e-07
1.49727e-07
1.49725e-07
1.49737e-07
1.49729e-07
1.49907e-07
1.49873e-07
1.49883e-07
1.49732e-07
1.49482e-07
1.49483e-07
1.49483e-07
1.49482e-07
1.49775e-07
1.49754e-07
1.49727e-07
1.49482e-07
1.4949e-07
1.49486e-07
1.49486e-07
1.4949e-07
1.49482e-07
1.49843e-07
1.49909e-07
1.49885e-07
1.49725e-07
1.49483e-07
1.49486e-07
1.49485e-07
1.49485e-07
1.49486e-07
1.49483e-07
1.49844e-07
1.49895e-07
1.49874e-07
1.49737e-07
1.49483e-07
1.49486e-07
1.49485e-07
1.49485e-07
1.49486e-07
1.49483e-07
1.4984e-07
1.49763e-07
1.49729e-07
1.49482e-07
1.4949e-07
1.49486e-07
1.49486e-07
1.4949e-07
1.49482e-07
1.49843e-07
1.49904e-07
1.49907e-07
1.49775e-07
1.49482e-07
1.49483e-07
1.49483e-07
1.49482e-07
1.49823e-07
1.49795e-07
1.49919e-07
1.49873e-07
1.49754e-07
1.49843e-07
1.49844e-07
1.4984e-07
1.49843e-07
1.49795e-07
1.49921e-07
1.49909e-07
1.49895e-07
1.49763e-07
1.49904e-07
1.49919e-07
1.47897e-07
1.47886e-07
1.47895e-07
1.47739e-07
1.47737e-07
1.47749e-07
1.47741e-07
1.47919e-07
1.47885e-07
1.47895e-07
1.47744e-07
1.47494e-07
1.47495e-07
1.47495e-07
1.47494e-07
1.47787e-07
1.47766e-07
1.47739e-07
1.47494e-07
1.47502e-07
1.47498e-07
1.47498e-07
1.47502e-07
1.47494e-07
1.47855e-07
1.47921e-07
1.47897e-07
1.47737e-07
1.47495e-07
1.47498e-07
1.47497e-07
1.47497e-07
1.47498e-07
1.47495e-07
1.47856e-07
1.47907e-07
1.47886e-07
1.47749e-07
1.47495e-07
1.47498e-07
1.47497e-07
1.47497e-07
1.47498e-07
1.47495e-07
1.47852e-07
1.47774e-07
1.47741e-07
1.47494e-07
1.47502e-07
1.47498e-07
1.47498e-07
1.47502e-07
1.47494e-07
1.47855e-07
1.47916e-07
1.47919e-07
1.47787e-07
1.47494e-07
1.47495e-07
1.47495e-07
1.47494e-07
1.47835e-07
1.47807e-07
1.4793e-07
1.47885e-07
1.47766e-07
1.47855e-07
1.47856e-07
1.47852e-07
1.47855e-07
1.47807e-07
1.47932e-07
1.47921e-07
1.47907e-07
1.47774e-07
1.47916e-07
1.4793e-07
1.45909e-07
1.45897e-07
1.45907e-07
1.45751e-07
1.45749e-07
1.45761e-07
1.45753e-07
1.4593e-07
1.45897e-07
1.45907e-07
1.45756e-07
1.45506e-07
1.45507e-07
1.45507e-07
1.45506e-07
1.45799e-07
1.45778e-07
1.45751e-07
1.45506e-07
1.45514e-07
1.4551e-07
1.4551e-07
1.45514e-07
1.45506e-07
1.45867e-07
1.45933e-07
1.45909e-07
1.45749e-07
1.45507e-07
1.4551e-07
1.45509e-07
1.45509e-07
1.4551e-07
1.45507e-07
1.45868e-07
1.45919e-07
1.45897e-07
1.45761e-07
1.45507e-07
1.4551e-07
1.45509e-07
1.45509e-07
1.4551e-07
1.45507e-07
1.45864e-07
1.45786e-07
1.45753e-07
1.45506e-07
1.45514e-07
1.4551e-07
1.4551e-07
1.45514e-07
1.45506e-07
1.45867e-07
1.45928e-07
1.4593e-07
1.45799e-07
1.45506e-07
1.45507e-07
1.45507e-07
1.45506e-07
1.45847e-07
1.45819e-07
1.45942e-07
1.45897e-07
1.45778e-07
1.45867e-07
1.45868e-07
1.45864e-07
1.45867e-07
1.45819e-07
1.45944e-07
1.45933e-07
1.45919e-07
1.45786e-07
1.45928e-07
1.45942e-07
1.43921e-07
1.43909e-07
1.43919e-07
1.43763e-07
1.43761e-07
1.43773e-07
1.43765e-07
1.43942e-07
1.43909e-07
1.43919e-07
1.43768e-07
1.43518e-07
1.43519e-07
1.43519e-07
1.43518e-07
1.43811e-07
1.4379e-07
1.43763e-07
1.43518e-07
1.43526e-07
1.43522e-07
1.43522e-07
1.43526e-07
1.43518e-07
1.43879e-07
1.43945e-07
1.43921e-07
1.43761e-07
1.43519e-07
1.43522e-07
1.4352e-07
1.4352e-07
1.43522e-07
1.43519e-07
1.4388e-07
1.43931e-07
1.43909e-07
1.43772e-07
1.43519e-07
1.43522e-07
1.4352e-07
1.4352e-07
1.43522e-07
1.43519e-07
1.43876e-07
1.43798e-07
1.43765e-07
1.43518e-07
1.43526e-07
1.43522e-07
1.43522e-07
1.43526e-07
1.43518e-07
1.43879e-07
1.43939e-07
1.43942e-07
1.43811e-07
1.43518e-07
1.43519e-07
1.43519e-07
1.43518e-07
1.43859e-07
1.43831e-07
1.43954e-07
1.43909e-07
1.4379e-07
1.43879e-07
1.4388e-07
1.43876e-07
1.43879e-07
1.43831e-07
1.43956e-07
1.43945e-07
1.43931e-07
1.43798e-07
1.43939e-07
1.43954e-07
1.41933e-07
1.41921e-07
1.41931e-07
1.41775e-07
1.41773e-07
1.41784e-07
1.41777e-07
1.41954e-07
1.41921e-07
1.41931e-07
1.4178e-07
1.41529e-07
1.41531e-07
1.41531e-07
1.41529e-07
1.41823e-07
1.41802e-07
1.41775e-07
1.41529e-07
1.41538e-07
1.41534e-07
1.41534e-07
1.41538e-07
1.41529e-07
1.41891e-07
1.41957e-07
1.41933e-07
1.41773e-07
1.41531e-07
1.41534e-07
1.41532e-07
1.41532e-07
1.41534e-07
1.41531e-07
1.41892e-07
1.41942e-07
1.41921e-07
1.41784e-07
1.41531e-07
1.41534e-07
1.41532e-07
1.41532e-07
1.41534e-07
1.41531e-07
1.41888e-07
1.4181e-07
1.41777e-07
1.41529e-07
1.41538e-07
1.41534e-07
1.41534e-07
1.41538e-07
1.41529e-07
1.41891e-07
1.41951e-07
1.41954e-07
1.41823e-07
1.41529e-07
1.41531e-07
1.41531e-07
1.41529e-07
1.41871e-07
1.41843e-07
1.41966e-07
1.41921e-07
1.41802e-07
1.41891e-07
1.41892e-07
1.41888e-07
1.41891e-07
1.41843e-07
1.41968e-07
1.41957e-07
1.41942e-07
1.4181e-07
1.41951e-07
1.41966e-07
1.39945e-07
1.39933e-07
1.39943e-07
1.39787e-07
1.39785e-07
1.39796e-07
1.39789e-07
1.39966e-07
1.39933e-07
1.39943e-07
1.39792e-07
1.39541e-07
1.39543e-07
1.39543e-07
1.39541e-07
1.39835e-07
1.39814e-07
1.39787e-07
1.39541e-07
1.3955e-07
1.39546e-07
1.39546e-07
1.3955e-07
1.39541e-07
1.39903e-07
1.39969e-07
1.39945e-07
1.39785e-07
1.39543e-07
1.39546e-07
1.39544e-07
1.39544e-07
1.39546e-07
1.39543e-07
1.39904e-07
1.39954e-07
1.39933e-07
1.39796e-07
1.39543e-07
1.39546e-07
1.39544e-07
1.39544e-07
1.39546e-07
1.39543e-07
1.399e-07
1.39822e-07
1.39789e-07
1.39541e-07
1.3955e-07
1.39546e-07
1.39546e-07
1.3955e-07
1.39541e-07
1.39902e-07
1.39963e-07
1.39966e-07
1.39835e-07
1.39541e-07
1.39543e-07
1.39543e-07
1.39541e-07
1.39883e-07
1.39855e-07
1.39978e-07
1.39933e-07
1.39814e-07
1.39903e-07
1.39904e-07
1.399e-07
1.39902e-07
1.39855e-07
1.3998e-07
1.39969e-07
1.39954e-07
1.39822e-07
1.39963e-07
1.39978e-07
1.37957e-07
1.37945e-07
1.37954e-07
1.37798e-07
1.37796e-07
1.37808e-07
1.37801e-07
1.37978e-07
1.37945e-07
1.37954e-07
1.37804e-07
1.37553e-07
1.37555e-07
1.37555e-07
1.37553e-07
1.37847e-07
1.37826e-07
1.37798e-07
1.37553e-07
1.37562e-07
1.37558e-07
1.37558e-07
1.37562e-07
1.37553e-07
1.37914e-07
1.37981e-07
1.37957e-07
1.37796e-07
1.37555e-07
1.37558e-07
1.37556e-07
1.37556e-07
1.37558e-07
1.37555e-07
1.37916e-07
1.37966e-07
1.37945e-07
1.37808e-07
1.37555e-07
1.37558e-07
1.37556e-07
1.37556e-07
1.37558e-07
1.37555e-07
1.37912e-07
1.37834e-07
1.37801e-07
1.37553e-07
1.37562e-07
1.37558e-07
1.37558e-07
1.37562e-07
1.37553e-07
1.37914e-07
1.37975e-07
1.37978e-07
1.37847e-07
1.37553e-07
1.37555e-07
1.37555e-07
1.37553e-07
1.37895e-07
1.37866e-07
1.3799e-07
1.37945e-07
1.37826e-07
1.37914e-07
1.37916e-07
1.37912e-07
1.37914e-07
1.37867e-07
1.37992e-07
1.37981e-07
1.37966e-07
1.37834e-07
1.37975e-07
1.3799e-07
1.35969e-07
1.35957e-07
1.35966e-07
1.3581e-07
1.35808e-07
1.3582e-07
1.35812e-07
1.3599e-07
1.35957e-07
1.35966e-07
1.35815e-07
1.35565e-07
1.35566e-07
1.35566e-07
1.35565e-07
1.35859e-07
1.35838e-07
1.3581e-07
1.35565e-07
1.35574e-07
1.3557e-07
1.3557e-07
1.35574e-07
1.35565e-07
1.35926e-07
1.35993e-07
1.35969e-07
1.35808e-07
1.35566e-07
1.3557e-07
1.35568e-07
1.35568e-07
1.3557e-07
1.35566e-07
1.35928e-07
1.35978e-07
1.35957e-07
1.3582e-07
1.35566e-07
1.3557e-07
1.35568e-07
1.35568e-07
1.3557e-07
1.35566e-07
1.35924e-07
1.35846e-07
1.35812e-07
1.35565e-07
1.35574e-07
1.3557e-07
1.3557e-07
1.35574e-07
1.35565e-07
1.35926e-07
1.35987e-07
1.3599e-07
1.35859e-07
1.35565e-07
1.35566e-07
1.35566e-07
1.35565e-07
1.35907e-07
1.35878e-07
1.36002e-07
1.35957e-07
1.35838e-07
1.35926e-07
1.35928e-07
1.35924e-07
1.35926e-07
1.35878e-07
1.36004e-07
1.35993e-07
1.35978e-07
1.35846e-07
1.35987e-07
1.36002e-07
1.33981e-07
1.33969e-07
1.33978e-07
1.33822e-07
1.3382e-07
1.33832e-07
1.33824e-07
1.34002e-07
1.33968e-07
1.33978e-07
1.33827e-07
1.33577e-07
1.33578e-07
1.33578e-07
1.33577e-07
1.33871e-07
1.3385e-07
1.33822e-07
1.33577e-07
1.33586e-07
1.33582e-07
1.33582e-07
1.33586e-07
1.33577e-07
1.33938e-07
1.34005e-07
1.33981e-07
1.3382e-07
1.33578e-07
1.33582e-07
1.3358e-07
1.3358e-07
1.33582e-07
1.33578e-07
1.3394e-07
1.3399e-07
1.33969e-07
1.33832e-07
1.33578e-07
1.33582e-07
1.3358e-07
1.3358e-07
1.33582e-07
1.33578e-07
1.33936e-07
1.33858e-07
1.33824e-07
1.33577e-07
1.33586e-07
1.33582e-07
1.33582e-07
1.33586e-07
1.33577e-07
1.33938e-07
1.33999e-07
1.34002e-07
1.33871e-07
1.33577e-07
1.33578e-07
1.33578e-07
1.33577e-07
1.33919e-07
1.3389e-07
1.34014e-07
1.33968e-07
1.3385e-07
1.33938e-07
1.3394e-07
1.33936e-07
1.33938e-07
1.3389e-07
1.34016e-07
1.34005e-07
1.3399e-07
1.33858e-07
1.33999e-07
1.34014e-07
1.31993e-07
1.31981e-07
1.3199e-07
1.31834e-07
1.31832e-07
1.31844e-07
1.31836e-07
1.32014e-07
1.3198e-07
1.3199e-07
1.31839e-07
1.31589e-07
1.3159e-07
1.3159e-07
1.31589e-07
1.31883e-07
1.31862e-07
1.31834e-07
1.31589e-07
1.31598e-07
1.31594e-07
1.31594e-07
1.31598e-07
1.31589e-07
1.3195e-07
1.32016e-07
1.31993e-07
1.31832e-07
1.3159e-07
1.31594e-07
1.31592e-07
1.31592e-07
1.31594e-07
1.3159e-07
1.31952e-07
1.32002e-07
1.31981e-07
1.31844e-07
1.3159e-07
1.31594e-07
1.31592e-07
1.31592e-07
1.31594e-07
1.3159e-07
1.31948e-07
1.3187e-07
1.31836e-07
1.31589e-07
1.31598e-07
1.31594e-07
1.31594e-07
1.31598e-07
1.31589e-07
1.3195e-07
1.32011e-07
1.32014e-07
1.31883e-07
1.31589e-07
1.3159e-07
1.3159e-07
1.31589e-07
1.31931e-07
1.31902e-07
1.32026e-07
1.3198e-07
1.31862e-07
1.3195e-07
1.31952e-07
1.31948e-07
1.3195e-07
1.31902e-07
1.32028e-07
1.32017e-07
1.32002e-07
1.3187e-07
1.32011e-07
1.32026e-07
1.30005e-07
1.29993e-07
1.30002e-07
1.29846e-07
1.29844e-07
1.29856e-07
1.29848e-07
1.30026e-07
1.29992e-07
1.30002e-07
1.29851e-07
1.29601e-07
1.29602e-07
1.29602e-07
1.29601e-07
1.29894e-07
1.29873e-07
1.29846e-07
1.29601e-07
1.2961e-07
1.29606e-07
1.29606e-07
1.2961e-07
1.29601e-07
1.29962e-07
1.30028e-07
1.30005e-07
1.29844e-07
1.29602e-07
1.29606e-07
1.29604e-07
1.29604e-07
1.29606e-07
1.29602e-07
1.29964e-07
1.30014e-07
1.29993e-07
1.29856e-07
1.29602e-07
1.29606e-07
1.29604e-07
1.29604e-07
1.29606e-07
1.29602e-07
1.2996e-07
1.29882e-07
1.29848e-07
1.29601e-07
1.2961e-07
1.29606e-07
1.29606e-07
1.2961e-07
1.29601e-07
1.29962e-07
1.30023e-07
1.30026e-07
1.29894e-07
1.29601e-07
1.29602e-07
1.29602e-07
1.29601e-07
1.29943e-07
1.29914e-07
1.30038e-07
1.29992e-07
1.29873e-07
1.29962e-07
1.29964e-07
1.2996e-07
1.29962e-07
1.29914e-07
1.3004e-07
1.30028e-07
1.30014e-07
1.29882e-07
1.30023e-07
1.30038e-07
1.28017e-07
1.28005e-07
1.28014e-07
1.27858e-07
1.27856e-07
1.27868e-07
1.2786e-07
1.28038e-07
1.28004e-07
1.28014e-07
1.27863e-07
1.27613e-07
1.27614e-07
1.27614e-07
1.27613e-07
1.27906e-07
1.27885e-07
1.27858e-07
1.27613e-07
1.27621e-07
1.27617e-07
1.27617e-07
1.27621e-07
1.27613e-07
1.27974e-07
1.2804e-07
1.28017e-07
1.27856e-07
1.27614e-07
1.27617e-07
1.27616e-07
1.27616e-07
1.27617e-07
1.27614e-07
1.27976e-07
1.28026e-07
1.28005e-07
1.27868e-07
1.27614e-07
1.27617e-07
1.27616e-07
1.27616e-07
1.27617e-07
1.27614e-07
1.27972e-07
1.27894e-07
1.2786e-07
1.27613e-07
1.27621e-07
1.27617e-07
1.27617e-07
1.27621e-07
1.27613e-07
1.27974e-07
1.28035e-07
1.28038e-07
1.27906e-07
1.27613e-07
1.27614e-07
1.27614e-07
1.27613e-07
1.27955e-07
1.27926e-07
1.2805e-07
1.28004e-07
1.27885e-07
1.27974e-07
1.27976e-07
1.27972e-07
1.27974e-07
1.27926e-07
1.28052e-07
1.2804e-07
1.28026e-07
1.27894e-07
1.28035e-07
1.2805e-07
1.26028e-07
1.26017e-07
1.26026e-07
1.2587e-07
1.25868e-07
1.2588e-07
1.25872e-07
1.2605e-07
1.26016e-07
1.26026e-07
1.25875e-07
1.25625e-07
1.25626e-07
1.25626e-07
1.25625e-07
1.25918e-07
1.25897e-07
1.2587e-07
1.25625e-07
1.25633e-07
1.25629e-07
1.25629e-07
1.25633e-07
1.25625e-07
1.25986e-07
1.26052e-07
1.26028e-07
1.25868e-07
1.25626e-07
1.25629e-07
1.25628e-07
1.25628e-07
1.25629e-07
1.25626e-07
1.25987e-07
1.26038e-07
1.26017e-07
1.2588e-07
1.25626e-07
1.25629e-07
1.25628e-07
1.25628e-07
1.25629e-07
1.25626e-07
1.25984e-07
1.25906e-07
1.25872e-07
1.25625e-07
1.25633e-07
1.25629e-07
1.25629e-07
1.25633e-07
1.25625e-07
1.25986e-07
1.26047e-07
1.2605e-07
1.25918e-07
1.25625e-07
1.25626e-07
1.25626e-07
1.25625e-07
1.25966e-07
1.25938e-07
1.26062e-07
1.26016e-07