/*--------------------------------*- C++ -*----------------------------------*\
| =========                 |                                                 |
| \\      /  F ield         | OpenFOAM: The Open Source CFD Toolbox           |
|  \\    /   O peration     | Version:  2312                                  |
|   \\  /    A nd           | Website:  www.openfoam.com                      |
|    \\/     M anipulation  |                                                 |
\*---------------------------------------------------------------------------*/
FoamFile
{
    version     2.0;
    format      ascii;
    arch        "LSB;label=32;scalar=64";
    class       volScalarField;
    location    "250";
    object      epsilon;
}
// * * * * * * * * * * * * * * * * * * * * * * * * * * * * * * * * * * * * * //

dimensions      [0 2 -3 0 0 0 0];

internalField   nonuniform List<scalar> 
42973
(
3.26817e-07
8.7454e-07
1.15999e-06
3.42992e-07
8.97655e-07
8.97793e-07
1.17835e-06
3.59538e-07
9.20369e-07
9.20462e-07
1.19794e-06
3.76438e-07
9.41059e-07
9.41285e-07
1.2135e-06
3.93291e-07
9.61178e-07
9.61198e-07
1.23063e-06
4.10707e-07
9.78943e-07
9.79236e-07
1.24554e-06
4.27358e-07
9.94536e-07
9.94545e-07
1.25207e-06
4.50902e-07
1.03039e-06
1.03055e-06
1.31223e-06
4.57695e-07
1.0169e-06
1.01713e-06
1.28572e-06
4.5409e-07
9.84952e-07
9.85003e-07
1.21869e-06
4.6715e-07
9.98574e-07
9.98699e-07
1.23452e-06
4.96708e-07
1.04318e-06
1.04334e-06
1.30492e-06
5.23383e-07
1.07806e-06
1.07815e-06
1.36218e-06
5.35579e-07
1.09324e-06
1.09333e-06
1.3898e-06
5.38752e-07
1.09627e-06
1.09639e-06
1.39654e-06
5.38769e-07
1.09555e-06
1.09568e-06
1.39538e-06
5.38471e-07
1.09492e-06
1.09503e-06
1.39416e-06
5.38534e-07
1.09502e-06
1.09512e-06
1.39425e-06
5.38729e-07
1.09528e-06
1.09539e-06
1.39474e-06
5.38833e-07
1.09539e-06
1.0955e-06
1.39497e-06
5.38851e-07
1.09542e-06
1.09553e-06
1.39504e-06
5.38859e-07
1.09543e-06
1.09555e-06
1.39506e-06
5.38861e-07
1.09544e-06
1.09556e-06
1.3951e-06
5.38859e-07
1.09544e-06
1.09555e-06
1.39507e-06
5.38859e-07
1.09544e-06
1.09555e-06
1.39506e-06
5.38858e-07
1.09544e-06
1.09555e-06
1.39507e-06
5.38859e-07
1.09545e-06
1.09556e-06
1.39508e-06
1.15985e-06
1.17299e-06
8.74713e-07
8.74654e-07
8.9224e-07
8.92194e-07
1.15984e-06
1.17301e-06
8.74501e-07
8.92025e-07
8.92273e-07
8.74808e-07
8.92068e-07
8.92332e-07
1.17305e-06
8.74602e-07
8.92183e-07
8.9213e-07
1.17315e-06
1.1782e-06
1.19209e-06
8.97849e-07
8.97786e-07
9.14727e-07
9.14632e-07
1.17819e-06
1.19202e-06
8.97637e-07
8.9788e-07
9.14513e-07
9.14799e-07
8.97947e-07
9.14579e-07
9.14808e-07
1.17825e-06
1.19224e-06
8.97746e-07
9.1473e-07
9.14603e-07
1.19221e-06
1.19783e-06
1.2091e-06
9.2046e-07
9.204e-07
9.3668e-07
9.36622e-07
1.19782e-06
1.20913e-06
9.20241e-07
9.20535e-07
9.36471e-07
9.36714e-07
9.20545e-07
9.36491e-07
9.36802e-07
1.198e-06
1.20916e-06
9.20325e-07
9.36643e-07
9.36603e-07
1.20932e-06
1.2133e-06
1.22453e-06
9.41323e-07
9.41223e-07
9.55566e-07
9.55473e-07
1.21326e-06
1.22449e-06
9.41122e-07
9.41347e-07
9.5535e-07
9.55581e-07
9.41429e-07
9.55417e-07
9.55607e-07
1.21334e-06
1.22458e-06
9.41249e-07
9.5551e-07
9.55401e-07
1.22457e-06
1.23062e-06
1.24325e-06
9.61261e-07
9.61196e-07
9.76599e-07
9.76512e-07
1.23064e-06
1.24324e-06
9.61032e-07
9.61278e-07
9.76385e-07
9.76673e-07
9.61296e-07
9.76409e-07
9.76731e-07
1.23068e-06
1.24344e-06
9.61064e-07
9.7663e-07
9.76542e-07
1.24351e-06
1.24527e-06
1.24458e-06
9.79178e-07
9.79065e-07
9.88246e-07
9.88143e-07
1.24521e-06
1.24453e-06
9.78978e-07
9.79258e-07
9.88042e-07
9.88251e-07
9.79322e-07
9.88122e-07
9.88324e-07
1.24547e-06
1.24461e-06
9.79159e-07
9.88216e-07
9.88127e-07
1.24468e-06
1.25202e-06
1.30164e-06
9.94623e-07
9.94534e-07
1.02313e-06
1.02306e-06
1.25206e-06
1.30173e-06
9.94406e-07
9.94602e-07
1.02289e-06
1.02312e-06
9.94677e-07
1.02303e-06
1.02318e-06
1.25201e-06
1.30168e-06
9.94452e-07
1.02305e-06
1.02294e-06
1.30176e-06
1.31206e-06
1.28949e-06
1.03055e-06
1.03047e-06
1.02615e-06
1.02607e-06
1.31207e-06
1.28944e-06
1.03032e-06
1.0306e-06
1.02596e-06
1.02626e-06
1.03063e-06
1.02597e-06
1.02626e-06
1.31219e-06
1.28974e-06
1.03044e-06
1.02627e-06
1.02613e-06
1.28972e-06
1.28551e-06
1.21936e-06
1.01705e-06
1.01697e-06
9.89541e-07
9.8944e-07
1.28547e-06
1.21932e-06
1.01686e-06
1.01713e-06
9.89362e-07
9.89525e-07
1.01714e-06
9.89432e-07
9.89579e-07
1.28575e-06
1.21934e-06
1.017e-06
9.89495e-07
9.89408e-07
1.21939e-06
1.21867e-06
1.22433e-06
9.85074e-07
9.84965e-07
9.91078e-07
9.90973e-07
1.21863e-06
1.22427e-06
9.84892e-07
9.8504e-07
9.90885e-07
9.91056e-07
9.85104e-07
9.90897e-07
9.91115e-07
1.21864e-06
1.22433e-06
9.84926e-07
9.90997e-07
9.90932e-07
1.22442e-06
1.23443e-06
1.29018e-06
9.98771e-07
9.98675e-07
1.03125e-06
1.03118e-06
1.23438e-06
1.29017e-06
9.98576e-07
9.98764e-07
1.03105e-06
1.03129e-06
9.98817e-07
1.03107e-06
1.03132e-06
1.23444e-06
1.29027e-06
9.98632e-07
1.03122e-06
1.03113e-06
1.29034e-06
1.30478e-06
1.35205e-06
1.04336e-06
1.04329e-06
1.0715e-06
1.07143e-06
1.30477e-06
1.35206e-06
1.04316e-06
1.04341e-06
1.07129e-06
1.07155e-06
1.04344e-06
1.07139e-06
1.07158e-06
1.30488e-06
1.35216e-06
1.04325e-06
1.07149e-06
1.07139e-06
1.35219e-06
1.36208e-06
1.38452e-06
1.07817e-06
1.0781e-06
1.09107e-06
1.09099e-06
1.36209e-06
1.38453e-06
1.07796e-06
1.07821e-06
1.09086e-06
1.0911e-06
1.07825e-06
1.09095e-06
1.09113e-06
1.36218e-06
1.3846e-06
1.07805e-06
1.09103e-06
1.09094e-06
1.38463e-06
1.3897e-06
1.39404e-06
1.09337e-06
1.09329e-06
1.09629e-06
1.09621e-06
1.38971e-06
1.39402e-06
1.09316e-06
1.0934e-06
1.09609e-06
1.09633e-06
1.09343e-06
1.09614e-06
1.09636e-06
1.38978e-06
1.39412e-06
1.09325e-06
1.09625e-06
1.09618e-06
1.39417e-06
1.39642e-06
1.39333e-06
1.09643e-06
1.09635e-06
1.09595e-06
1.09587e-06
1.3964e-06
1.39331e-06
1.09623e-06
1.09646e-06
1.09575e-06
1.09598e-06
1.0965e-06
1.09578e-06
1.09602e-06
1.39649e-06
1.39341e-06
1.09632e-06
1.09591e-06
1.09584e-06
1.39348e-06
1.39524e-06
1.39196e-06
1.09571e-06
1.09563e-06
1.09514e-06
1.09507e-06
1.39522e-06
1.39195e-06
1.09551e-06
1.09575e-06
1.09494e-06
1.09518e-06
1.09578e-06
1.09499e-06
1.09521e-06
1.39532e-06
1.39205e-06
1.0956e-06
1.09511e-06
1.09503e-06
1.3921e-06
1.39402e-06
1.39193e-06
1.09506e-06
1.09499e-06
1.09509e-06
1.09502e-06
1.39402e-06
1.39193e-06
1.09486e-06
1.0951e-06
1.09489e-06
1.09513e-06
1.09514e-06
1.09495e-06
1.09516e-06
1.39411e-06
1.39201e-06
1.09495e-06
1.09505e-06
1.09498e-06
1.39206e-06
1.39412e-06
1.39243e-06
1.09515e-06
1.09508e-06
1.09537e-06
1.0953e-06
1.39412e-06
1.39243e-06
1.09495e-06
1.09519e-06
1.09516e-06
1.0954e-06
1.09522e-06
1.09523e-06
1.09544e-06
1.39419e-06
1.39251e-06
1.09504e-06
1.09533e-06
1.09525e-06
1.39256e-06
1.39461e-06
1.39269e-06
1.09542e-06
1.09535e-06
1.09552e-06
1.09545e-06
1.39461e-06
1.39269e-06
1.09522e-06
1.09546e-06
1.09532e-06
1.09556e-06
1.09549e-06
1.09538e-06
1.09559e-06
1.39469e-06
1.39277e-06
1.09531e-06
1.09548e-06
1.09541e-06
1.39283e-06
1.39485e-06
1.39278e-06
1.09554e-06
1.09546e-06
1.09556e-06
1.09549e-06
1.39485e-06
1.39277e-06
1.09534e-06
1.09558e-06
1.09536e-06
1.0956e-06
1.09561e-06
1.09541e-06
1.09563e-06
1.39493e-06
1.39286e-06
1.09543e-06
1.09553e-06
1.09545e-06
1.39291e-06
1.39491e-06
1.39278e-06
1.09556e-06
1.09549e-06
1.09558e-06
1.0955e-06
1.3949e-06
1.39278e-06
1.09536e-06
1.0956e-06
1.09537e-06
1.09561e-06
1.09563e-06
1.09543e-06
1.09565e-06
1.39499e-06
1.39286e-06
1.09545e-06
1.09554e-06
1.09547e-06
1.39292e-06
1.39493e-06
1.39284e-06
1.09558e-06
1.09551e-06
1.0956e-06
1.09552e-06
1.39492e-06
1.39283e-06
1.09538e-06
1.09562e-06
1.09539e-06
1.09563e-06
1.09565e-06
1.09545e-06
1.09566e-06
1.39501e-06
1.39292e-06
1.09547e-06
1.09556e-06
1.09549e-06
1.39298e-06
1.39497e-06
1.3928e-06
1.09559e-06
1.09552e-06
1.09558e-06
1.09551e-06
1.39495e-06
1.39279e-06
1.09539e-06
1.09563e-06
1.09538e-06
1.09562e-06
1.09566e-06
1.09543e-06
1.09565e-06
1.39504e-06
1.39289e-06
1.09548e-06
1.09555e-06
1.09547e-06
1.39293e-06
1.39494e-06
1.39279e-06
1.09558e-06
1.09551e-06
1.09559e-06
1.09551e-06
1.39493e-06
1.39279e-06
1.09538e-06
1.09562e-06
1.09538e-06
1.09562e-06
1.09565e-06
1.09544e-06
1.09566e-06
1.39503e-06
1.39288e-06
1.09547e-06
1.09555e-06
1.09547e-06
1.39293e-06
1.39493e-06
1.39281e-06
1.09558e-06
1.09551e-06
1.09558e-06
1.09551e-06
1.39492e-06
1.39281e-06
1.09538e-06
1.09562e-06
1.09538e-06
1.09563e-06
1.09565e-06
1.09544e-06
1.09565e-06
1.39501e-06
1.3929e-06
1.09547e-06
1.09555e-06
1.09547e-06
1.39295e-06
1.39493e-06
1.39281e-06
1.09558e-06
1.09551e-06
1.09559e-06
1.09552e-06
1.39492e-06
1.39281e-06
1.09538e-06
1.09562e-06
1.09538e-06
1.09563e-06
1.09565e-06
1.09545e-06
1.09566e-06
1.39502e-06
1.39289e-06
1.09547e-06
1.09555e-06
1.09547e-06
1.39294e-06
1.39496e-06
1.09559e-06
1.09552e-06
1.39496e-06
1.09539e-06
1.09563e-06
1.09566e-06
1.39504e-06
1.09548e-06
4.09817e-06
9.16532e-06
4.09427e-06
9.17385e-06
1.84373e-05
1.84489e-05
4.09822e-06
9.16661e-06
4.09429e-06
9.1751e-06
3.26829e-07
3.26924e-07
3.38924e-07
3.38939e-07
3.39022e-07
3.39034e-07
2.11747e-06
3.47923e-06
5.68181e-07
8.80516e-07
2.11149e-06
3.48308e-06
5.7414e-07
1.84499e-05
2.11768e-06
5.68319e-07
8.80653e-07
2.11153e-06
5.74239e-07
3.48336e-06
5.46613e-06
5.46793e-06
1.16419e-06
5.46881e-06
5.47058e-06
4.10407e-06
9.18694e-06
4.10362e-06
9.18819e-06
1.84565e-05
1.84574e-05
4.10417e-06
9.18828e-06
4.1037e-06
9.18961e-06
3.42997e-07
3.43092e-07
3.43104e-07
3.55345e-07
3.55357e-07
3.55463e-07
3.55456e-07
2.13051e-06
3.48983e-06
5.91733e-07
9.03213e-07
2.12619e-06
3.49071e-06
5.97509e-07
1.84573e-05
1.84591e-05
2.13054e-06
5.91876e-07
3.48986e-06
9.03383e-07
2.12625e-06
5.97608e-07
3.49115e-06
5.47276e-06
5.47448e-06
1.18215e-06
5.47239e-06
5.47425e-06
4.11261e-06
9.18633e-06
4.1054e-06
9.21004e-06
1.84784e-05
1.85167e-05
4.11263e-06
9.18756e-06
4.10545e-06
9.21103e-06
3.59563e-07
3.59658e-07
3.59649e-07
3.72273e-07
3.72283e-07
3.72383e-07
3.72397e-07
2.14384e-06
3.49955e-06
6.146e-07
9.2607e-07
2.13723e-06
3.50775e-06
6.20484e-07
1.84806e-05
1.85172e-05
2.14363e-06
6.14704e-07
3.49899e-06
9.2612e-07
2.13709e-06
6.20537e-07
3.50708e-06
5.48313e-06
5.48454e-06
1.20198e-06
5.49585e-06
5.49724e-06
4.11813e-06
9.23124e-06
4.1216e-06
9.21683e-06
1.85102e-05
1.8483e-05
4.11831e-06
9.23274e-06
4.12171e-06
9.21871e-06
3.76427e-07
3.76545e-07
3.76561e-07
3.88854e-07
3.88863e-07
3.88965e-07
3.8896e-07
2.15449e-06
3.51158e-06
6.37845e-07
9.45495e-07
2.15325e-06
3.50714e-06
6.43203e-07
1.8512e-05
1.84852e-05
2.15501e-06
6.38031e-07
3.51246e-06
9.45732e-07
2.15365e-06
6.43373e-07
3.50835e-06
5.49261e-06
5.49485e-06
1.21567e-06
5.47901e-06
5.4813e-06
4.13155e-06
9.21093e-06
4.11798e-06
9.26289e-06
1.85291e-05
1.86097e-05
4.13142e-06
9.21206e-06
4.11794e-06
9.26341e-06
3.93315e-07
3.93401e-07
3.93393e-07
4.06763e-07
4.06771e-07
4.06897e-07
4.06898e-07
2.16855e-06
3.51771e-06
6.59081e-07
9.67171e-07
2.15986e-06
3.53387e-06
6.64977e-07
1.85293e-05
1.86099e-05
2.16799e-06
6.59167e-07
3.51633e-06
9.6717e-07
2.15957e-06
6.64991e-07
3.53274e-06
5.50131e-06
5.50208e-06
1.2365e-06
5.53266e-06
5.53377e-06
4.12375e-06
9.28567e-06
4.14005e-06
9.20083e-06
1.85682e-05
1.84333e-05
4.12407e-06
9.28688e-06
4.14017e-06
9.20312e-06
4.10702e-07
4.10846e-07
4.1085e-07
4.22555e-07
4.22562e-07
4.22679e-07
4.22684e-07
2.17354e-06
3.53478e-06
6.81661e-07
9.81048e-07
2.17729e-06
3.51141e-06
6.86118e-07
1.85725e-05
1.84363e-05
2.17421e-06
6.81845e-07
3.53637e-06
9.81322e-07
2.17774e-06
6.863e-07
3.51322e-06
5.51158e-06
5.51439e-06
1.24156e-06
5.44707e-06
5.44988e-06
4.17739e-06
9.15013e-06
4.12687e-06
9.31104e-06
1.84681e-05
1.8781e-05
4.17729e-06
9.15176e-06
4.12693e-06
9.31163e-06
4.27371e-07
4.27472e-07
4.27476e-07
4.45115e-07
4.45145e-07
4.45226e-07
4.45223e-07
2.20297e-06
3.52076e-06
7.00788e-07
1.00295e-06
2.17924e-06
3.57768e-06
7.07568e-07
1.84663e-05
1.87787e-05
2.20214e-06
7.00861e-07
3.51904e-06
1.00291e-06
2.17882e-06
7.07578e-07
3.57552e-06
5.46436e-06
5.46485e-06
1.26705e-06
5.59561e-06
5.59579e-06
4.27545e-06
9.64814e-06
4.26821e-06
9.71436e-06
1.9251e-05
1.92856e-05
4.27549e-06
9.64904e-06
4.26819e-06
9.71564e-06
4.50923e-07
4.51032e-07
4.51023e-07
4.5784e-07
4.57839e-07
4.58e-07
4.57979e-07
2.24994e-06
3.67669e-06
7.29851e-07
1.03301e-06
2.24923e-06
3.67973e-06
7.33779e-07
1.92544e-05
1.92894e-05
2.25063e-06
7.29966e-07
3.67751e-06
1.03327e-06
2.24943e-06
7.3397e-07
3.68125e-06
5.78717e-06
5.78934e-06
1.31334e-06
5.79142e-06
5.7941e-06
4.08057e-06
9.45944e-06
4.17415e-06
9.19977e-06
1.87341e-05
1.8349e-05
4.0807e-06
9.46126e-06
4.17423e-06
9.20139e-06
4.57692e-07
4.5785e-07
4.5783e-07
4.54405e-07
4.54401e-07
4.54519e-07
4.54514e-07
2.14559e-06
3.57522e-06
7.31242e-07
1.00706e-06
2.19505e-06
3.48211e-06
7.26892e-07
1.87357e-05
1.8349e-05
2.14549e-06
7.31444e-07
3.57577e-06
1.00722e-06
2.1954e-06
7.27035e-07
3.48176e-06
5.58316e-06
5.58517e-06
1.24943e-06
5.42304e-06
5.42464e-06
3.9666e-06
8.92755e-06
3.97845e-06
8.88869e-06
1.80064e-05
1.79928e-05
3.9667e-06
8.92885e-06
3.97855e-06
8.88993e-06
4.54082e-07
4.54191e-07
4.54192e-07
4.62015e-07
4.62004e-07
4.62107e-07
4.62114e-07
2.08863e-06
3.38692e-06
7.16986e-07
9.83792e-07
2.09355e-06
3.37483e-06
7.17123e-07
1.80067e-05
1.79929e-05
2.08848e-06
7.17056e-07
3.38627e-06
9.83845e-07
2.09325e-06
7.17184e-07
3.37446e-06
5.26399e-06
5.26552e-06
1.21186e-06
5.2465e-06
5.24813e-06
4.07277e-06
8.97606e-06
4.01718e-06
9.08961e-06
1.81878e-05
1.83895e-05
4.07285e-06
8.97736e-06
4.01724e-06
9.09093e-06
4.67139e-07
4.67247e-07
4.67252e-07
4.88217e-07
4.88215e-07
4.88332e-07
4.88329e-07
2.15592e-06
3.42229e-06
7.31187e-07
1.0079e-06
2.12126e-06
3.473e-06
7.38722e-07
1.81888e-05
1.83893e-05
2.15618e-06
7.31312e-07
3.42245e-06
1.00804e-06
2.12139e-06
7.38837e-07
3.4734e-06
5.31928e-06
5.32091e-06
1.2531e-06
5.39451e-06
5.39622e-06
4.21687e-06
9.2911e-06
4.16549e-06
9.41264e-06
1.87073e-05
1.89087e-05
4.21695e-06
9.2924e-06
4.16553e-06
9.41393e-06
4.96711e-07
4.96831e-07
4.96826e-07
5.18205e-07
5.18222e-07
5.1834e-07
5.18329e-07
2.24886e-06
3.56592e-06
7.66318e-07
1.05401e-06
2.21708e-06
3.61461e-06
7.74646e-07
1.8709e-05
1.89097e-05
2.24895e-06
7.66462e-07
3.56619e-06
1.05415e-06
2.21722e-06
7.74764e-07
3.61483e-06
5.5279e-06
5.52949e-06
1.32484e-06
5.60156e-06
5.60324e-06
4.31646e-06
9.58272e-06
4.28581e-06
9.66509e-06
1.91627e-05
1.92918e-05
4.31651e-06
9.58397e-06
4.28584e-06
9.66632e-06
5.234e-07
5.23515e-07
5.23505e-07
5.33631e-07
5.33644e-07
5.33756e-07
5.33749e-07
2.3105e-06
3.68415e-06
7.92099e-07
1.08348e-06
2.29254e-06
3.71232e-06
7.95808e-07
1.91641e-05
1.92925e-05
2.31041e-06
7.92191e-07
3.68396e-06
1.08356e-06
2.29246e-06
7.95881e-07
3.71209e-06
5.70387e-06
5.7055e-06
1.37187e-06
5.74744e-06
5.74916e-06
4.35793e-06
9.75153e-06
4.34847e-06
9.77946e-06
1.94087e-05
1.94497e-05
4.358e-06
9.75283e-06
4.34852e-06
9.78081e-06
5.35585e-07
5.35699e-07
5.35694e-07
5.38448e-07
5.38445e-07
5.38566e-07
5.38565e-07
2.33558e-06
3.74408e-06
8.02089e-07
1.09477e-06
2.33035e-06
3.75201e-06
8.02978e-07
1.94101e-05
1.94511e-05
2.33556e-06
8.0218e-07
3.74385e-06
1.09487e-06
2.33027e-06
8.03069e-07
3.7519e-06
5.79394e-06
5.79565e-06
1.3915e-06
5.80611e-06
5.8079e-06
4.36289e-06
9.79291e-06
4.36344e-06
9.79169e-06
1.94628e-05
1.94607e-05
4.36296e-06
9.79433e-06
4.3635e-06
9.79312e-06
5.38745e-07
5.38869e-07
5.38869e-07
5.38859e-07
5.38853e-07
5.38978e-07
5.38979e-07
2.3386e-06
3.75736e-06
8.03627e-07
1.09623e-06
2.33913e-06
3.75641e-06
8.03509e-07
1.94644e-05
1.94621e-05
2.33868e-06
8.03745e-07
3.75737e-06
1.09635e-06
2.33918e-06
8.03625e-07
3.75649e-06
5.81251e-06
5.81433e-06
1.39427e-06
5.81031e-06
5.81217e-06
4.35824e-06
9.78135e-06
4.36015e-06
9.7772e-06
1.94442e-05
1.94395e-05
4.3583e-06
9.78279e-06
4.3602e-06
9.77863e-06
5.38761e-07
5.38886e-07
5.38887e-07
5.38521e-07
5.38521e-07
5.38642e-07
5.38641e-07
2.33618e-06
3.75394e-06
8.02923e-07
1.09533e-06
2.33744e-06
3.75182e-06
8.02782e-07
1.94458e-05
1.9441e-05
2.33625e-06
8.03048e-07
3.75402e-06
1.09545e-06
2.33752e-06
8.02894e-07
3.75189e-06
5.80514e-06
5.80697e-06
1.39259e-06
5.80205e-06
5.80387e-06
4.35668e-06
9.77272e-06
4.35706e-06
9.77244e-06
1.94331e-05
1.94342e-05
4.35673e-06
9.77413e-06
4.35711e-06
9.77384e-06
5.3847e-07
5.3859e-07
5.38588e-07
5.38486e-07
5.38491e-07
5.38607e-07
5.38605e-07
2.33523e-06
3.75094e-06
8.02505e-07
1.0949e-06
2.33566e-06
3.7504e-06
8.02499e-07
1.94348e-05
1.94357e-05
2.33526e-06
8.02615e-07
3.75096e-06
1.09501e-06
2.33571e-06
8.02601e-07
3.7504e-06
5.80048e-06
5.80227e-06
1.39192e-06
5.80003e-06
5.80181e-06
4.35728e-06
9.77279e-06
4.35706e-06
9.77407e-06
1.94348e-05
1.94379e-05
4.35732e-06
9.77418e-06
4.35711e-06
9.77545e-06
5.38535e-07
5.3865e-07
5.38649e-07
5.38681e-07
5.38684e-07
5.38799e-07
5.38798e-07
2.33567e-06
3.75117e-06
8.02614e-07
1.09508e-06
2.33578e-06
3.7512e-06
8.02681e-07
1.94362e-05
1.94391e-05
2.33571e-06
8.02719e-07
3.75113e-06
1.09518e-06
2.3358e-06
8.02773e-07
3.75116e-06
5.80113e-06
5.80291e-06
1.3923e-06
5.80149e-06
5.80329e-06
4.35818e-06
9.77534e-06
4.35807e-06
9.77615e-06
1.94387e-05
1.9441e-05
4.35823e-06
9.77672e-06
4.35812e-06
9.77754e-06
5.38731e-07
5.38846e-07
5.38846e-07
5.38817e-07
5.38819e-07
5.38936e-07
5.38935e-07
2.33622e-06
3.75217e-06
8.02836e-07
1.09532e-06
2.33642e-06
3.75201e-06
8.02874e-07
1.94401e-05
1.94423e-05
2.33628e-06
8.0294e-07
3.75214e-06
1.09542e-06
2.33645e-06
8.02969e-07
3.752e-06
5.80264e-06
5.80444e-06
1.39272e-06
5.80267e-06
5.80448e-06
4.35864e-06
9.77671e-06
4.35866e-06
9.7772e-06
1.94406e-05
1.94423e-05
4.3587e-06
9.77811e-06
4.35872e-06
9.77861e-06
5.38831e-07
5.38949e-07
5.38947e-07
5.38848e-07
5.38849e-07
5.38968e-07
5.38965e-07
2.3365e-06
3.75265e-06
8.02915e-07
1.0954e-06
2.33677e-06
3.75235e-06
8.0292e-07
1.9442e-05
1.94437e-05
2.33655e-06
8.03018e-07
3.75264e-06
1.09551e-06
2.33679e-06
8.03019e-07
3.75235e-06
5.80331e-06
5.8051e-06
1.39288e-06
5.80309e-06
5.80489e-06
4.3588e-06
9.77732e-06
4.3589e-06
9.77762e-06
1.94413e-05
1.94429e-05
4.35887e-06
9.77873e-06
4.35897e-06
9.77903e-06
5.38847e-07
5.38967e-07
5.38964e-07
5.38856e-07
5.38856e-07
5.38975e-07
5.38973e-07
2.33661e-06
3.75284e-06
8.02921e-07
1.09542e-06
2.33689e-06
3.75248e-06
8.02921e-07
1.94428e-05
1.94442e-05
2.33665e-06
8.03023e-07
3.75284e-06
1.09553e-06
2.33691e-06
8.03022e-07
3.75249e-06
5.80352e-06
5.80531e-06
1.39289e-06
5.80327e-06
5.80507e-06
4.35887e-06
9.77758e-06
4.35898e-06
9.77783e-06
1.94418e-05
1.94433e-05
4.35893e-06
9.77898e-06
4.35904e-06
9.77923e-06
5.38855e-07
5.38974e-07
5.38972e-07
5.38861e-07
5.38861e-07
5.38979e-07
5.38978e-07
2.33664e-06
3.75292e-06
8.02919e-07
1.09544e-06
2.3369e-06
3.75254e-06
8.0292e-07
1.94432e-05
1.94446e-05
2.33667e-06
8.03026e-07
3.75292e-06
1.09555e-06
2.33695e-06
8.03023e-07
3.75256e-06
5.8037e-06
5.8055e-06
1.39297e-06
5.80342e-06
5.80523e-06
4.35887e-06
9.77768e-06
4.35903e-06
9.77784e-06
1.94418e-05
1.94432e-05
4.35893e-06
9.77909e-06
4.35908e-06
9.77925e-06
5.38856e-07
5.38975e-07
5.38974e-07
5.38858e-07
5.38858e-07
5.38976e-07
5.38974e-07
2.33662e-06
3.75295e-06
8.02927e-07
1.09544e-06
2.33693e-06
3.75253e-06
8.02931e-07
1.94433e-05
1.94445e-05
2.33666e-06
8.03033e-07
3.75296e-06
1.09555e-06
2.33698e-06
8.0303e-07
3.75255e-06
5.80372e-06
5.80553e-06
1.39293e-06
5.80338e-06
5.8052e-06
4.35886e-06
9.77763e-06
4.359e-06
9.77782e-06
1.94418e-05
1.94432e-05
4.35892e-06
9.77904e-06
4.35905e-06
9.77924e-06
5.38855e-07
5.38974e-07
5.38972e-07
5.38859e-07
5.38859e-07
5.38978e-07
5.38975e-07
2.33661e-06
3.75292e-06
8.02916e-07
1.09544e-06
2.33691e-06
3.75253e-06
8.0292e-07
1.94432e-05
1.94445e-05
2.33665e-06
8.03021e-07
3.75293e-06
1.09555e-06
2.33697e-06
8.0302e-07
3.75254e-06
5.80368e-06
5.80549e-06
1.39295e-06
5.80337e-06
5.80518e-06
4.35884e-06
9.77761e-06
4.35899e-06
9.77776e-06
1.94418e-05
1.94431e-05
4.3589e-06
9.77903e-06
4.35905e-06
9.77918e-06
5.38857e-07
5.38976e-07
5.38972e-07
5.38857e-07
5.3886e-07
5.38979e-07
5.38975e-07
2.3366e-06
3.75292e-06
8.02927e-07
1.09544e-06
2.33692e-06
3.75251e-06
8.02927e-07
1.94432e-05
1.94444e-05
2.33663e-06
8.0303e-07
3.75293e-06
1.09555e-06
2.33696e-06
8.03025e-07
3.75252e-06
5.80368e-06
5.80548e-06
1.39294e-06
5.80334e-06
5.80515e-06
4.35881e-06
9.77751e-06
4.35896e-06
9.77767e-06
1.94416e-05
1.94429e-05
4.35887e-06
9.77892e-06
4.35901e-06
9.77906e-06
5.38857e-07
5.38976e-07
5.38972e-07
5.3886e-07
5.38865e-07
5.38983e-07
5.38976e-07
2.3366e-06
3.7529e-06
8.02926e-07
1.09544e-06
2.33692e-06
3.7525e-06
8.02932e-07
1.94431e-05
1.94443e-05
2.33663e-06
8.03027e-07
3.7529e-06
1.09555e-06
2.33695e-06
8.03026e-07
3.7525e-06
5.80361e-06
5.8054e-06
1.39289e-06
5.80328e-06
5.80507e-06
9.77751e-06
4.35898e-06
1.94416e-05
4.35891e-06
9.77887e-06
4.35902e-06
5.38862e-07
5.38983e-07
5.3898e-07
3.75292e-06
8.02931e-07
2.33695e-06
1.94431e-05
1.94445e-05
2.3367e-06
8.03034e-07
3.75291e-06
1.09556e-06
2.33696e-06
8.03035e-07
3.75255e-06
5.80362e-06
5.8054e-06
1.39297e-06
5.80334e-06
5.80514e-06
1.84364e-05
1.84464e-05
1.84396e-05
1.84493e-05
5.46614e-06
5.46796e-06
1.16404e-06
5.46905e-06
5.47076e-06
1.84549e-05
1.84476e-05
1.8458e-05
1.84504e-05
1.16944e-06
5.47222e-06
5.47404e-06
5.47086e-06
5.47248e-06
4.09812e-06
9.16544e-06
4.09421e-06
9.17384e-06
2.11759e-06
3.47924e-06
5.68192e-07
8.80686e-07
2.11139e-06
3.48316e-06
5.74126e-07
2.11754e-06
3.47954e-06
5.68163e-07
8.80635e-07
2.11134e-06
3.4835e-06
5.74097e-07
4.09931e-06
9.18576e-06
9.17584e-06
4.10282e-06
4.09926e-06
9.18609e-06
9.17595e-06
4.10277e-06
2.11914e-06
8.86529e-07
3.48835e-06
5.85941e-07
3.48542e-06
5.80052e-07
2.1248e-06
2.11909e-06
8.86486e-07
3.48889e-06
5.8591e-07
3.48595e-06
5.80023e-07
2.12476e-06
5.46705e-06
5.46547e-06
1.16405e-06
5.47069e-06
5.46954e-06
1.84345e-05
1.84474e-05
1.84576e-05
1.84504e-05
1.16946e-06
5.47392e-06
5.47218e-06
5.4728e-06
5.4715e-06
1.8455e-05
1.84487e-05
2.11761e-06
3.47978e-06
5.68179e-07
8.80472e-07
2.11142e-06
3.4837e-06
5.74111e-07
4.09816e-06
9.17458e-06
2.11757e-06
8.80744e-07
5.74187e-07
3.48368e-06
4.09935e-06
9.18705e-06
9.17709e-06
4.1029e-06
2.11918e-06
8.86313e-07
3.48888e-06
5.85922e-07
3.4859e-06
5.80035e-07
2.12483e-06
4.0993e-06
9.18674e-06
9.1767e-06
4.10285e-06
2.11913e-06
8.86574e-07
5.85994e-07
3.48879e-06
5.80109e-07
3.48589e-06
2.12479e-06
4.09775e-06
9.16579e-06
4.09464e-06
9.17238e-06
2.11753e-06
5.68286e-07
3.4794e-06
8.80775e-07
2.11146e-06
5.74215e-07
3.48316e-06
4.09791e-06
9.16623e-06
4.09438e-06
9.17393e-06
2.11906e-06
8.86359e-07
3.48847e-06
5.85946e-07
3.48555e-06
5.80027e-07
2.12476e-06
4.09922e-06
9.18608e-06
9.17491e-06
4.10276e-06
2.11906e-06
8.86618e-07
5.86024e-07
3.48846e-06
5.80136e-07
3.48539e-06
2.12477e-06
4.09905e-06
9.18617e-06
9.17585e-06
4.10271e-06
1.16414e-06
5.47074e-06
5.46918e-06
1.84473e-05
1.8458e-05
1.84511e-05
1.16952e-06
5.47364e-06
5.47205e-06
5.4724e-06
5.47081e-06
1.84553e-05
1.84483e-05
2.11758e-06
5.68278e-07
3.47986e-06
8.80572e-07
2.11155e-06
5.74197e-07
3.4837e-06
4.09818e-06
4.09467e-06
9.17459e-06
4.09809e-06
9.16677e-06
4.09464e-06
9.17495e-06
2.11925e-06
8.8648e-07
5.86046e-07
3.48837e-06
5.80173e-07
3.48553e-06
2.12489e-06
2.11926e-06
8.86412e-07
5.86007e-07
3.48894e-06
5.80131e-07
3.4859e-06
2.12479e-06
4.09961e-06
9.18635e-06
9.17653e-06
4.10288e-06
4.09956e-06
9.1869e-06
9.17685e-06
4.1028e-06
1.84384e-05
1.84475e-05
1.84407e-05
1.84499e-05
1.16958e-06
5.47245e-06
5.47415e-06
5.47066e-06
5.47234e-06
1.84572e-05
1.84488e-05
1.84594e-05
1.84511e-05
1.84542e-05
1.8456e-05
1.84574e-05
1.84594e-05
5.4725e-06
5.47431e-06
1.182e-06
5.47208e-06
5.47404e-06
1.84701e-05
1.84553e-05
1.84729e-05
1.84587e-05
1.18756e-06
5.47872e-06
5.4804e-06
5.47263e-06
5.47452e-06
4.10401e-06
9.18721e-06
4.10357e-06
9.18816e-06
2.13039e-06
3.48985e-06
5.91756e-07
9.03419e-07
2.12615e-06
3.49096e-06
5.97493e-07
2.13033e-06
3.49031e-06
5.91723e-07
9.03327e-07
2.1261e-06
3.49115e-06
5.97456e-07
4.10406e-06
9.18507e-06
9.187e-06
4.10447e-06
4.10399e-06
9.18492e-06
9.18683e-06
4.10441e-06
2.13142e-06
9.09036e-07
3.49545e-06
6.08838e-07
3.49214e-06
6.03174e-07
2.13542e-06
2.13136e-06
9.08931e-07
3.49568e-06
6.08797e-07
3.49233e-06
6.03133e-07
2.13535e-06
5.47413e-06
5.47231e-06
1.18193e-06
5.47296e-06
5.47086e-06
1.84536e-05
1.8454e-05
1.84719e-05
1.84564e-05
1.18748e-06
5.47995e-06
5.47988e-06
5.47352e-06
5.47179e-06
1.84729e-05
1.84533e-05
2.13043e-06
3.49038e-06
5.91738e-07
9.0321e-07
2.12619e-06
3.49158e-06
5.97476e-07
4.1041e-06
9.1879e-06
4.10364e-06
9.18905e-06
2.13038e-06
5.9181e-07
3.49024e-06
9.03459e-07
2.12614e-06
5.97549e-07
3.4914e-06
4.10415e-06
9.18638e-06
9.18843e-06
4.10455e-06
2.13147e-06
9.08827e-07
3.49598e-06
6.08823e-07
3.49272e-06
6.03159e-07
2.13546e-06
4.10409e-06
9.1859e-06
9.18778e-06
4.10449e-06
2.13143e-06
9.09093e-07
6.089e-07
3.49604e-06
6.03233e-07
3.49259e-06
2.13541e-06
4.10435e-06
9.18719e-06
4.10387e-06
9.18793e-06
2.1305e-06
5.91844e-07
3.49004e-06
9.03512e-07
2.12615e-06
5.97587e-07
3.49119e-06
4.10425e-06
9.18751e-06
4.10365e-06
9.18898e-06
2.13158e-06
9.08837e-07
3.49587e-06
6.08886e-07
3.49202e-06
6.03173e-07
2.13565e-06
4.10444e-06
9.18574e-06
9.18655e-06
4.10494e-06
2.13155e-06
9.09125e-07
6.08946e-07
3.49553e-06
6.03277e-07
3.49233e-06
2.13559e-06
4.10427e-06
9.18578e-06
9.18784e-06
4.10476e-06
5.47384e-06
5.47235e-06
1.18207e-06
5.47354e-06
5.47222e-06
1.84546e-05
1.84569e-05
1.84742e-05
1.84585e-05
1.18766e-06
5.48067e-06
5.47939e-06
5.47417e-06
5.47299e-06
1.84722e-05
1.84565e-05
2.13045e-06
5.91837e-07
3.49051e-06
9.03318e-07
2.12627e-06
5.97567e-07
3.49174e-06
4.10435e-06
9.18756e-06
4.1039e-06
9.18903e-06
4.10429e-06
9.18822e-06
4.10385e-06
9.18984e-06
2.13159e-06
9.09021e-07
6.08966e-07
3.4958e-06
6.03309e-07
3.49238e-06
2.13558e-06
2.13158e-06
9.08926e-07
6.08915e-07
3.49597e-06
6.03264e-07
3.49285e-06
2.13548e-06
4.10444e-06
9.18623e-06
9.18805e-06
4.10471e-06
4.10439e-06
9.18658e-06
9.18885e-06
4.10461e-06
1.84565e-05
1.84585e-05
1.84588e-05
1.8461e-05
1.18769e-06
5.47853e-06
5.48014e-06
5.47278e-06
5.47463e-06
1.84714e-05
1.84577e-05
1.84734e-05
1.84602e-05
1.84763e-05
1.85133e-05
1.84789e-05
1.8516e-05
5.48347e-06
5.48492e-06
1.20181e-06
5.49564e-06
5.49729e-06
1.85169e-05
1.85157e-05
1.85204e-05
1.85186e-05
1.20672e-06
5.49519e-06
5.49726e-06
5.49782e-06
5.4995e-06
4.11257e-06
9.1863e-06
4.10534e-06
9.21049e-06
2.14359e-06
3.49864e-06
6.14566e-07
9.26134e-07
2.13693e-06
3.50688e-06
6.2042e-07
2.14355e-06
3.49906e-06
6.14528e-07
9.26107e-07
2.13687e-06
3.50748e-06
6.20387e-07
4.1158e-06
9.23129e-06
9.21805e-06
4.12137e-06
4.11576e-06
9.23156e-06
9.2185e-06
4.12134e-06
2.14605e-06
9.316e-07
3.51222e-06
6.32248e-07
3.51023e-06
6.26364e-07
2.15228e-06
2.146e-06
9.31575e-07
3.51261e-06
6.32218e-07
3.51091e-06
6.26336e-07
2.15224e-06
5.48532e-06
5.48576e-06
1.20192e-06
5.49765e-06
5.4969e-06
1.84804e-05
1.85162e-05
1.85193e-05
1.85189e-05
1.20684e-06
5.4965e-06
5.49335e-06
5.49989e-06
5.49851e-06
1.85142e-05
1.85173e-05
2.14359e-06
3.49907e-06
6.14547e-07
9.25912e-07
2.13697e-06
3.50733e-06
6.20397e-07
4.11259e-06
9.18725e-06
4.1054e-06
9.21117e-06
2.14356e-06
6.14627e-07
3.49925e-06
9.26199e-07
2.13693e-06
6.20478e-07
3.50749e-06
4.1158e-06
9.23275e-06
9.21912e-06
4.12147e-06
2.14606e-06
9.31382e-07
3.51285e-06
6.32226e-07
3.51069e-06
6.2634e-07
2.15231e-06
4.11577e-06
9.23232e-06
9.21916e-06
4.1214e-06
2.14602e-06
9.31648e-07
6.323e-07
3.5127e-06
6.26418e-07
3.51076e-06
2.15226e-06
4.11313e-06
9.1881e-06
4.1062e-06
9.21382e-06
2.14375e-06
6.14677e-07
3.49866e-06
9.26236e-07
2.1371e-06
6.2053e-07
3.50701e-06
4.1129e-06
9.18698e-06
4.10574e-06
9.2108e-06
2.14629e-06
9.3149e-07
3.51165e-06
6.32259e-07
3.51076e-06
6.26383e-07
2.15213e-06
4.11642e-06
9.23036e-06
9.22083e-06
4.12106e-06
2.14618e-06
9.3172e-07
6.32341e-07
3.51251e-06
6.2647e-07
3.51045e-06
2.15221e-06
4.11605e-06
9.23211e-06
9.21891e-06
4.12114e-06
5.48542e-06
5.48413e-06
1.20196e-06
5.49746e-06
5.49583e-06
1.84784e-05
1.85144e-05
1.85204e-05
1.85195e-05
1.20685e-06
5.49676e-06
5.49532e-06
5.49949e-06
5.49789e-06
1.85178e-05
1.85166e-05
2.14352e-06
6.14647e-07
3.499e-06
9.2601e-07
2.13707e-06
6.20482e-07
3.50725e-06
4.11253e-06
9.18745e-06
4.1058e-06
9.21055e-06
4.11241e-06
9.18754e-06
4.10572e-06
9.21026e-06
2.1461e-06
9.31568e-07
6.32361e-07
3.51239e-06
6.26489e-07
3.51036e-06
2.15241e-06
2.14608e-06
9.31499e-07
6.32319e-07
3.51314e-06
6.26438e-07
3.51075e-06
2.15235e-06
4.11592e-06
9.23226e-06
9.21853e-06
4.12163e-06
4.11584e-06
9.23321e-06
9.21859e-06
4.12159e-06
1.84775e-05
1.85154e-05
1.84792e-05
1.85169e-05
1.20692e-06
5.49577e-06
5.49784e-06
5.49817e-06
5.49966e-06
1.85198e-05
1.85181e-05
1.85225e-05
1.85198e-05
1.85087e-05
1.84823e-05
1.85126e-05
1.84861e-05
5.49216e-06
5.49422e-06
1.21553e-06
5.47909e-06
5.48119e-06
1.85074e-05
1.84781e-05
1.85097e-05
1.84816e-05
1.22033e-06
5.49139e-06
5.4929e-06
5.47836e-06
5.48029e-06
4.11808e-06
9.23148e-06
4.12156e-06
9.21674e-06
2.1548e-06
3.51228e-06
6.37898e-07
9.4577e-07
2.15347e-06
3.50809e-06
6.43247e-07
2.15473e-06
3.51266e-06
6.37863e-07
9.45647e-07
2.15342e-06
3.50815e-06
6.43204e-07
4.11642e-06
9.20583e-06
9.20946e-06
4.11546e-06
4.11636e-06
9.20576e-06
9.20934e-06
4.11539e-06
2.15523e-06
9.50419e-07
3.51131e-06
6.53591e-07
3.50768e-06
6.48401e-07
2.15769e-06
2.15517e-06
9.50302e-07
3.51159e-06
6.53543e-07
3.50782e-06
6.48353e-07
2.15763e-06
5.49335e-06
5.4898e-06
1.2154e-06
5.47979e-06
5.47753e-06
1.8503e-05
1.84783e-05
1.85097e-05
1.84789e-05
1.22021e-06
5.49288e-06
5.4937e-06
5.4793e-06
5.4777e-06
1.85135e-05
1.8476e-05
2.15487e-06
3.51292e-06
6.37882e-07
9.45571e-07
2.15353e-06
3.50879e-06
6.43236e-07
4.11822e-06
9.23227e-06
4.12164e-06
9.21775e-06
2.15481e-06
6.37952e-07
3.51273e-06
9.45789e-07
2.15347e-06
6.43303e-07
3.50851e-06
4.11658e-06
9.20726e-06
9.21123e-06
4.1155e-06
2.15531e-06
9.50214e-07
3.51179e-06
6.53572e-07
3.50832e-06
6.48389e-07
2.15771e-06
4.11649e-06
9.2065e-06
9.21031e-06
4.11543e-06
2.15525e-06
9.50436e-07
6.5364e-07
3.51168e-06
6.48456e-07
3.50807e-06
2.15766e-06
4.11744e-06
9.22985e-06
4.12126e-06
9.21256e-06
2.15459e-06
6.37978e-07
3.51255e-06
9.45851e-07
2.15334e-06
6.43316e-07
3.50811e-06
4.11763e-06
9.23203e-06
4.12129e-06
9.21699e-06
2.15498e-06
9.5019e-07
3.51202e-06