/*--------------------------------*- C++ -*----------------------------------*\
| =========                 |                                                 |
| \\      /  F ield         | OpenFOAM: The Open Source CFD Toolbox           |
|  \\    /   O peration     | Version:  2312                                  |
|   \\  /    A nd           | Website:  www.openfoam.com                      |
|    \\/     M anipulation  |                                                 |
\*---------------------------------------------------------------------------*/
FoamFile
{
    version     2.0;
    format      ascii;
    arch        "LSB;label=32;scalar=64";
    class       volScalarField;
    location    "250";
    object      epsilon;
}
// * * * * * * * * * * * * * * * * * * * * * * * * * * * * * * * * * * * * * //

dimensions      [0 2 -3 0 0 0 0];

internalField   nonuniform List<scalar> 
43008
(
1.40479e-07
2.15897e-07
1.3669e-07
2.22331e-07
2.22342e-07
3.35376e-07
3.15559e-07
3.30528e-07
2.1593e-07
2.15971e-07
2.20567e-07
2.20607e-07
3.30543e-07
2.15903e-07
2.15971e-07
2.20537e-07
2.20612e-07
2.20522e-07
2.20581e-07
3.15597e-07
3.30572e-07
2.15932e-07
2.20533e-07
2.20567e-07
3.30596e-07
3.3532e-07
2.22381e-07
2.22422e-07
3.35331e-07
2.22349e-07
2.22425e-07
2.22392e-07
3.35359e-07
2.22378e-07
3.47048e-06
8.88242e-06
3.42033e-06
8.88847e-06
1.85211e-05
3.47059e-06
8.88355e-06
3.42041e-06
8.88961e-06
1.40483e-07
1.40485e-07
1.40488e-07
1.3756e-07
1.37565e-07
1.37568e-07
1.37569e-07
9.89064e-07
2.17299e-07
2.65951e-06
1.59347e-07
1.85325e-05
1.85218e-05
9.89126e-07
1.59802e-07
2.63001e-06
2.17307e-07
9.62005e-07
1.59353e-07
2.6595e-06
3.20643e-07
5.05681e-06
5.05862e-06
3.58714e-06
8.89584e-06
3.54484e-06
8.90151e-06
1.84981e-05
1.8489e-05
3.58724e-06
8.89706e-06
3.54493e-06
8.90275e-06
1.36694e-07
1.36697e-07
1.36699e-07
1.07339e-06
2.71752e-06
1.58554e-07
2.24276e-07
1.0455e-06
2.74414e-06
1.58421e-07
1.84989e-05
1.84895e-05
1.07345e-06
1.58565e-07
2.7176e-06
2.24287e-07
1.04556e-06
1.58432e-07
2.74422e-06
5.08896e-06
5.09065e-06
3.41378e-07
5.10459e-06
5.1064e-06
1.85295e-05
1.85185e-05
1.85322e-05
1.85214e-05
5.03761e-06
5.03954e-06
3.20572e-07
5.05643e-06
5.05849e-06
1.8502e-05
1.85111e-05
1.85049e-05
1.85141e-05
3.25011e-07
5.0818e-06
5.08385e-06
5.06403e-06
5.06602e-06
3.47045e-06
8.88249e-06
3.42028e-06
8.88857e-06
9.89019e-07
2.62996e-06
1.59795e-07
2.17339e-07
9.61902e-07
2.65943e-06
1.5935e-07
9.89015e-07
2.63055e-06
1.59804e-07
2.17381e-07
9.61897e-07
2.66004e-06
1.59357e-07
3.48526e-06
8.89485e-06
8.88938e-06
3.53137e-06
3.48522e-06
8.89515e-06
8.88954e-06
3.53133e-06
1.00334e-06
2.1889e-07
2.7027e-06
1.58728e-07
2.67467e-06
1.59016e-07
1.03091e-06
1.00334e-06
2.18933e-07
2.70326e-06
1.58734e-07
2.67538e-06
1.59025e-07
1.0309e-06
3.20597e-07
5.05804e-06
5.05633e-06
1.85196e-05
1.85046e-05
1.85137e-05
3.25031e-07
5.08345e-06
5.08147e-06
5.06575e-06
5.06464e-06
1.85027e-05
1.85121e-05
9.89068e-07
2.63048e-06
1.59802e-07
2.17312e-07
9.61955e-07
2.66e-06
1.59355e-07
3.47056e-06
8.8831e-06
3.42039e-06
8.88915e-06
9.8907e-07
1.5981e-07
2.63063e-06
2.17383e-07
9.61958e-07
1.59363e-07
2.66012e-06
3.4853e-06
8.89608e-06
8.89054e-06
3.5315e-06
1.00339e-06
2.18861e-07
2.70329e-06
1.58733e-07
2.67523e-06
1.59023e-07
1.03096e-06
3.48528e-06
8.89565e-06
8.89008e-06
3.53147e-06
1.00339e-06
2.18934e-07
1.58741e-07
2.70346e-06
1.59031e-07
2.67536e-06
1.03096e-06
3.47012e-06
8.88907e-06
9.89059e-07
2.17353e-07
1.59352e-07
2.65961e-06
3.47044e-06
8.88879e-06
1.0034e-06
2.18845e-07
2.7027e-06
1.58723e-07
2.67486e-06
1.59011e-07
1.03097e-06
3.4858e-06
8.89548e-06
8.88999e-06
3.53108e-06
1.00339e-06
2.18906e-07
1.5873e-07
2.70297e-06
1.5902e-07
2.67501e-06
1.03096e-06
3.48536e-06
8.8953e-06
8.88974e-06
3.53139e-06
5.03921e-06
5.03762e-06
3.20613e-07
5.05818e-06
5.05657e-06
1.853e-05
1.85193e-05
1.85055e-05
1.85146e-05
3.25053e-07
5.08363e-06
5.08207e-06
5.06578e-06
5.06424e-06
1.85031e-05
1.85121e-05
9.89117e-07
1.5981e-07
2.63053e-06
2.17341e-07
9.62031e-07
1.59359e-07
2.66012e-06
3.47053e-06
8.88305e-06
3.4206e-06
8.88906e-06
3.47053e-06
8.88331e-06
3.42061e-06
8.88934e-06
1.00345e-06
2.18856e-07
1.58731e-07
2.70285e-06
1.59023e-07
2.67478e-06
1.03103e-06
1.00347e-06
2.1889e-07
1.58738e-07
2.70347e-06
1.59029e-07
2.67548e-06
1.03101e-06
3.48552e-06
8.89559e-06
8.89e-06
3.53144e-06
3.48553e-06
8.89593e-06
8.89031e-06
3.53143e-06
1.85208e-05
1.85226e-05
3.25079e-07
5.08181e-06
5.08363e-06
5.06439e-06
5.06615e-06
1.8504e-05
1.85136e-05
1.85058e-05
1.85154e-05
1.84955e-05
1.84863e-05
1.84984e-05
1.84891e-05
5.08903e-06
5.09103e-06
3.41306e-07
5.10439e-06
5.10637e-06
3.5871e-06
8.89612e-06
3.5448e-06
8.90171e-06
1.07334e-06
2.71748e-06
1.5856e-07
2.24327e-07
1.04544e-06
2.74414e-06
1.58428e-07
1.07333e-06
2.71798e-06
1.58567e-07
2.24368e-07
1.04543e-06
2.74474e-06
1.58434e-07
5.09064e-06
5.08956e-06
3.41327e-07
5.10609e-06
5.10427e-06
1.84961e-05
1.8487e-05
1.07339e-06
2.71805e-06
1.58566e-07
2.24293e-07
1.04551e-06
2.74471e-06
1.58433e-07
3.58721e-06
8.89664e-06
3.5449e-06
8.90231e-06
1.07339e-06
1.58573e-07
2.7182e-06
2.24371e-07
1.04551e-06
1.58441e-07
2.74483e-06
3.58679e-06
8.8965e-06
3.5454e-06
8.90216e-06
1.07338e-06
1.58562e-07
2.71762e-06
2.24336e-07
1.04549e-06
1.58429e-07
2.74428e-06
3.58709e-06
8.89627e-06
3.54495e-06
8.90191e-06
5.09077e-06
5.08928e-06
3.41345e-07
5.10613e-06
5.10457e-06
1.84964e-05
1.8487e-05
1.07343e-06
1.58572e-07
2.71808e-06
2.24324e-07
1.04558e-06
1.58439e-07
2.74479e-06
3.58711e-06
8.89657e-06
3.54517e-06
8.90221e-06
3.58709e-06
8.89689e-06
3.54516e-06
8.90248e-06
1.84972e-05
1.84881e-05
1.8499e-05
1.849e-05
1.21006e-05
3.45347e-06
1.06373e-05
4.33949e-06
1.06357e-05
4.32536e-06
1.21032e-05
2.25109e-05
7.17868e-06
8.88501e-06
2.25113e-05
7.1827e-06
1.21001e-05
3.43795e-06
1.06344e-05
4.30017e-06
1.20977e-05
1.06355e-05
4.31503e-06
2.25021e-05
7.18874e-06
8.88604e-06
7.18531e-06
2.25015e-05
1.85303e-05
1.85228e-05
1.21006e-05
3.45352e-06
4.33947e-06
1.06375e-05
4.32533e-06
1.06359e-05
1.21032e-05
2.25104e-05
7.17848e-06
8.88614e-06
2.25107e-05
7.18251e-06
1.21001e-05
3.43808e-06
4.30015e-06
1.06345e-05
1.20977e-05
4.31503e-06
1.06357e-05
2.25015e-05
7.18858e-06
8.88717e-06
7.18511e-06
2.2501e-05
1.85309e-05
1.85233e-05
9.71069e-06
2.19888e-05
2.19882e-05
2.19915e-05
2.1991e-05
9.71026e-06
3.80609e-06
5.04335e-06
1.75002e-06
8.97205e-06
3.81318e-06
5.04518e-06
1.75175e-06
8.97683e-06
9.70864e-06
2.19972e-05
2.19966e-05
3.81902e-06
8.98175e-06
5.05125e-06
1.77469e-06
1.76472e-06
8.97526e-06
3.8278e-06
3.82579e-06
8.98651e-06
5.05305e-06
1.77641e-06
1.7662e-06
8.98e-06
3.83491e-06
1.2114e-05
3.57277e-06
1.06514e-05
4.42461e-06
1.06482e-05
4.4131e-06
1.21168e-05
2.24727e-05
7.20039e-06
8.89826e-06
2.24732e-05
7.20289e-06
1.21133e-05
3.55992e-06
1.06441e-05
4.39296e-06
1.21104e-05
1.06471e-05
4.40511e-06
2.24639e-05
7.20636e-06
8.89921e-06
7.20427e-06
2.24633e-05
1.8497e-05
1.84903e-05
1.2114e-05
3.57284e-06
4.4246e-06
1.06516e-05
4.41309e-06
1.06483e-05
1.21168e-05
2.24723e-05
7.20023e-06
8.89948e-06
2.24728e-05
7.2027e-06
1.21133e-05
3.56005e-06
4.39294e-06
1.06443e-05
1.21104e-05
4.40512e-06
1.06472e-05
2.24635e-05
7.2062e-06
8.90044e-06
7.20412e-06
2.24629e-05
1.84977e-05
1.84908e-05
9.71904e-06
2.19457e-05
2.19452e-05
2.19466e-05
2.19461e-05
9.71947e-06
3.89009e-06
1.83656e-06
9.00099e-06
5.0935e-06
3.88124e-06
1.84651e-06
9.00759e-06
3.89726e-06
1.83798e-06
9.00578e-06
5.09532e-06
3.88803e-06
1.84829e-06
9.0124e-06
9.7166e-06
2.19507e-05
2.19502e-05
9.71384e-06
2.19518e-05
2.19513e-05
3.90128e-06
9.01649e-06
5.1004e-06
1.8696e-06
1.85985e-06
9.01041e-06
3.90925e-06
3.90808e-06
9.02131e-06
5.10209e-06
1.87139e-06
1.86128e-06
9.01522e-06
3.91642e-06
1.85278e-05
1.852e-05
1.85307e-05
1.8523e-05
9.70706e-06
2.19813e-05
2.19807e-05
2.19878e-05
2.19872e-05
9.70439e-06
3.80544e-06
1.74005e-06
8.96583e-06
5.04335e-06
3.79734e-06
8.97305e-06
1.74998e-06
3.81251e-06
1.74171e-06
8.97108e-06
5.04524e-06
3.8043e-06
8.9783e-06
1.75155e-06
9.70817e-06
2.20015e-05
2.20009e-05
9.70831e-06
2.20006e-05
2.20001e-05
3.81774e-06
8.98012e-06
5.05108e-06
1.77398e-06
8.97546e-06
3.82494e-06
1.76438e-06
3.82463e-06
8.98541e-06
5.05308e-06
1.77558e-06
8.98066e-06
3.83207e-06
1.76603e-06
1.8503e-05
1.85098e-05
1.8506e-05
1.85128e-05
9.7048e-06
2.19647e-05
2.19641e-05
9.70421e-06
2.19625e-05
2.19622e-05
3.86077e-06
1.82293e-06
5.07678e-06
8.99815e-06
8.99041e-06
1.81259e-06
3.87041e-06
3.86777e-06
1.82451e-06
5.07878e-06
9.00354e-06
8.99579e-06
1.81431e-06
3.87754e-06
3.84667e-06
8.98211e-06
1.78817e-06
5.06929e-06
3.83772e-06
8.98724e-06
1.79827e-06
3.85379e-06
8.98739e-06
1.78986e-06
5.07134e-06
3.84463e-06
8.99257e-06
1.79985e-06
9.70962e-06
2.19604e-05
2.19603e-05
2.19569e-05
2.19568e-05
9.71514e-06
1.21007e-05
3.45343e-06
1.06372e-05
4.3394e-06
1.06356e-05
4.32515e-06
1.21033e-05
2.25107e-05
7.17681e-06
8.88505e-06
2.25111e-05
7.18095e-06
1.21002e-05
3.43792e-06
1.06343e-05
4.29994e-06
1.06354e-05
1.20978e-05
4.31491e-06
2.25018e-05
7.18704e-06
8.88614e-06
7.1835e-06
2.25013e-05
1.21064e-05
1.06378e-05
4.34917e-06
3.50159e-06
1.21037e-05
1.06399e-05
4.36259e-06
2.24827e-05
8.89253e-06
7.19873e-06
2.24821e-05
7.19597e-06
2.24918e-05
7.19099e-06
8.89163e-06
2.24924e-05
7.19393e-06
1.2107e-05
3.51567e-06
1.06432e-05
4.38443e-06
1.21098e-05
1.06406e-05
4.37166e-06
1.21065e-05
1.06377e-05
4.34897e-06
3.50156e-06
1.21038e-05
1.06398e-05
4.36251e-06
2.24825e-05
8.89282e-06
7.19698e-06
7.19419e-06
2.24819e-05
2.24916e-05
7.1892e-06
8.89188e-06
2.24922e-05
7.19227e-06
1.21071e-05
3.51563e-06
1.06431e-05
4.3843e-06
1.06405e-05
4.37146e-06
1.21098e-05
9.7097e-06
2.19852e-05
2.19855e-05
2.19919e-05
2.19922e-05
9.70632e-06
3.81361e-06
5.04487e-06
8.97834e-06
1.75184e-06
3.80641e-06
5.0433e-06
1.75007e-06
8.97384e-06
9.71026e-06
2.2002e-05
2.20022e-05
3.82572e-06
8.98602e-06
5.05299e-06
1.77589e-06
8.98095e-06
1.76638e-06
3.83293e-06
3.81866e-06
8.9815e-06
5.05161e-06
1.77412e-06
1.76472e-06
8.97644e-06
3.82581e-06
1.85287e-05
1.85211e-05
1.85056e-05
1.85125e-05
9.7042e-06
2.19666e-05
2.19668e-05
9.70496e-06
2.19625e-05
2.19627e-05
3.86661e-06
1.82429e-06
5.07838e-06
9.00204e-06
1.81413e-06
8.99513e-06
3.87646e-06
3.85942e-06
1.82253e-06
5.0773e-06
8.99752e-06
8.99053e-06
1.81243e-06
3.86942e-06
3.85317e-06
8.98787e-06
1.79003e-06
5.07096e-06
1.79979e-06
3.84482e-06
8.99239e-06
3.8461e-06
8.98329e-06
1.78834e-06
5.06893e-06
3.83763e-06
8.98779e-06
1.79802e-06
9.70645e-06
2.19555e-05
2.19558e-05
2.19534e-05
2.19536e-05
9.71106e-06
1.85037e-05
1.85106e-05
1.21007e-05
3.4535e-06
1.06374e-05
4.33934e-06
1.06358e-05
4.32518e-06
1.21033e-05
2.251e-05
7.17656e-06
8.88569e-06
2.25103e-05
7.18055e-06
1.21003e-05
3.43806e-06
1.06345e-05
4.29999e-06
1.06356e-05
1.20978e-05
4.3149e-06
2.25011e-05
7.18662e-06
8.88671e-06
7.18317e-06
2.25006e-05
1.21064e-05
4.34912e-06
1.0638e-05
3.5017e-06
1.21037e-05
4.36256e-06
1.06401e-05
2.24821e-05
8.89374e-06
7.19851e-06
2.24816e-05
7.19574e-06
2.24912e-05
7.19077e-06
8.89282e-06
2.24918e-05
7.19381e-06
1.2107e-05
3.51573e-06
4.38442e-06
1.06434e-05
1.21098e-05
4.37162e-06
1.06408e-05
1.21065e-05
1.06379e-05
4.34899e-06
3.50167e-06
1.21038e-05
1.064e-05
4.36243e-06
2.24818e-05
8.8933e-06
7.19656e-06
7.19386e-06
2.24813e-05
2.24908e-05
7.18885e-06
8.89237e-06
2.24914e-05
7.19186e-06
1.21071e-05
3.51571e-06
1.06433e-05
4.38427e-06
1.06407e-05
4.37151e-06
1.21099e-05
1.21004e-05
3.45397e-06
4.33851e-06
1.06376e-05
4.32602e-06
1.0636e-05
1.21029e-05
2.25008e-05
7.18735e-06
8.88666e-06
7.18535e-06
2.25004e-05
1.21004e-05
3.45353e-06
1.06372e-05
4.33918e-06
1.06356e-05
4.32511e-06
1.2103e-05
2.25009e-05
7.18641e-06
8.88633e-06
7.18288e-06
2.25004e-05
1.21062e-05
4.34984e-06
1.06381e-05
3.50129e-06
1.21035e-05
4.36165e-06
1.06402e-05
2.24814e-05
8.89316e-06
7.19746e-06
7.19595e-06
2.24812e-05
2.24906e-05
7.19095e-06
8.8922e-06
2.2491e-05
7.19265e-06
1.21068e-05
3.51625e-06
4.38353e-06
1.06435e-05
4.37238e-06
1.06409e-05
1.21096e-05
1.21062e-05
1.06377e-05
4.34894e-06
3.5016e-06
1.21035e-05
1.06399e-05
4.36231e-06
2.24815e-05
8.89297e-06
7.19639e-06
7.19358e-06
2.2481e-05
2.24906e-05
7.18858e-06
8.89204e-06
2.24912e-05
7.19167e-06
1.21068e-05
3.5158e-06
1.06431e-05
4.38417e-06
1.06406e-05
4.37147e-06
1.21096e-05
9.70616e-06
2.19797e-05
2.19799e-05
2.19859e-05
2.19861e-05
9.70395e-06
3.81244e-06
1.74155e-06
8.97055e-06
5.04499e-06
8.97759e-06
3.80397e-06
1.75186e-06
3.80534e-06
1.73998e-06
8.96572e-06
5.04339e-06
1.74993e-06
3.79678e-06
8.97277e-06
9.70708e-06
2.20003e-05
2.20005e-05
2.19991e-05
9.70735e-06
2.19993e-05
3.82439e-06
8.98473e-06
5.05274e-06
1.77597e-06
8.97992e-06
1.76586e-06
3.83235e-06
3.81722e-06
8.97988e-06
5.05117e-06
1.77401e-06
1.7643e-06
8.97509e-06
3.82522e-06
1.85284e-05
1.85208e-05
1.85066e-05
1.85133e-05
9.70532e-06
2.19644e-05
2.19645e-05
9.70416e-06
2.19631e-05
2.19632e-05
3.86825e-06
1.825e-06
5.07857e-06
9.00352e-06
1.81433e-06
8.99571e-06
3.87802e-06
3.86106e-06
1.82303e-06
5.07707e-06
8.99868e-06
8.9909e-06
1.81276e-06
3.87084e-06
3.85455e-06
8.98685e-06
1.78983e-06
5.07111e-06
1.80038e-06
3.84492e-06
8.99238e-06
3.84738e-06
8.98205e-06
1.78827e-06
5.06953e-06
3.83776e-06
8.98756e-06
1.79842e-06
9.7108e-06
2.1962e-05
2.19621e-05
2.19585e-05
2.19586e-05
9.71589e-06
1.85041e-05
1.85109e-05
1.21003e-05
3.45371e-06
4.33938e-06
1.06375e-05
4.32534e-06
1.06358e-05
1.21028e-05
2.25094e-05
7.17804e-06
8.88562e-06
7.18198e-06
2.25098e-05
1.20998e-05
3.43803e-06
4.30017e-06
1.06345e-05
4.31494e-06
1.20974e-05
1.06356e-05
2.25005e-05
7.18805e-06
8.88664e-06
7.18463e-06
2.25e-05
1.21009e-05
3.45372e-06
4.33941e-06
1.06375e-05
4.32525e-06
1.06359e-05
1.21035e-05
2.25106e-05
7.17664e-06
8.88585e-06
2.2511e-05
7.1807e-06
1.21004e-05
3.43802e-06
4.30006e-06
1.06346e-05
1.2098e-05
4.31494e-06
1.06357e-05
2.25018e-05
7.18682e-06
8.88687e-06
7.18324e-06
2.25012e-05
1.21061e-05
4.34915e-06
1.06379e-05
3.50166e-06
1.21034e-05
4.3625e-06
1.06401e-05
2.24813e-05
8.89324e-06
7.19803e-06
7.19531e-06
2.24807e-05
2.24903e-05
7.19031e-06
8.8923e-06
2.24909e-05
7.19331e-06
1.21067e-05
3.51598e-06
4.38436e-06
1.06433e-05
4.37167e-06
1.06408e-05
1.21095e-05
1.21067e-05
4.34908e-06
1.0638e-05
3.50165e-06
1.2104e-05
4.36253e-06
1.06402e-05
2.24826e-05
8.8936e-06
7.19683e-06
7.19402e-06
2.24821e-05
2.24916e-05
7.18899e-06
8.89266e-06
2.24922e-05
7.19213e-06
1.21073e-05
3.51598e-06
4.38438e-06
1.06434e-05
4.3716e-06
1.06409e-05
1.21101e-05
1.85293e-05
1.85221e-05
1.85311e-05
1.8524e-05
9.70866e-06
2.19754e-05
2.19749e-05
9.70995e-06
2.19709e-05
2.19703e-05
3.86012e-06
1.82277e-06
5.07694e-06
8.99807e-06
3.86917e-06
1.81279e-06
8.99212e-06
3.8669e-06
1.82455e-06
5.07864e-06
9.00286e-06
3.87633e-06
1.8142e-06
8.99688e-06
3.84815e-06
8.98419e-06
1.78888e-06
5.06956e-06
3.8396e-06
1.79876e-06
8.98963e-06
3.85529e-06
8.98895e-06
1.79035e-06
5.07139e-06
3.84639e-06
1.80053e-06
8.99439e-06
9.70907e-06
2.19568e-05
2.19562e-05
9.71018e-06
2.19581e-05
2.19576e-05
1.85052e-05
1.85122e-05
1.8507e-05
1.8514e-05
1.84944e-05
1.84876e-05
1.84972e-05
1.84904e-05
9.71976e-06
2.19441e-05
2.19441e-05
2.19497e-05
2.19496e-05
9.71653e-06
3.89064e-06
1.83675e-06
9.00187e-06
5.09352e-06
3.88314e-06
9.00899e-06
1.84669e-06
3.8978e-06
1.83853e-06
9.00725e-06
5.09553e-06
3.89019e-06
9.01438e-06
1.84826e-06
9.72049e-06
2.19586e-05
2.19585e-05
9.72009e-06
2.19592e-05
2.19591e-05
3.90127e-06
9.01606e-06
5.10031e-06
1.86927e-06
9.01133e-06
3.90757e-06
1.85965e-06
3.90835e-06
9.02145e-06
5.10231e-06
1.87081e-06
9.01671e-06
3.91474e-06
1.86145e-06
1.2114e-05
3.57273e-06
1.06513e-05
4.42448e-06
1.06481e-05
4.41288e-06
1.21169e-05
2.24725e-05
7.19863e-06
8.89848e-06
2.2473e-05
7.20112e-06
1.21133e-05
3.55988e-06
1.0644e-05
4.39275e-06
1.0647e-05
1.21105e-05
4.40497e-06
2.24636e-05
7.20463e-06
8.8994e-06
7.2025e-06
2.2463e-05
9.72143e-06
2.19477e-05
2.19481e-05
2.19514e-05
2.19518e-05
9.71937e-06
3.8981e-06
1.83846e-06
9.00569e-06
5.09521e-06
9.01344e-06
3.88981e-06
1.84833e-06
3.89108e-06
1.83674e-06
9.00122e-06
5.09331e-06
1.84658e-06
3.8826e-06
9.00904e-06
9.72075e-06
2.19538e-05
2.19542e-05
2.19569e-05
9.71791e-06
2.19574e-05
3.90923e-06
9.02172e-06
5.10207e-06
1.87111e-06
9.01626e-06
1.86172e-06
3.91572e-06
3.90201e-06
9.0173e-06
5.10093e-06
1.86936e-06
1.85999e-06
9.01183e-06
3.9087e-06
1.8495e-05
1.84883e-05
1.21141e-05
3.57281e-06
1.06515e-05
4.42444e-06
1.06483e-05
4.41299e-06
1.2117e-05
2.2472e-05
7.19841e-06
8.89906e-06
2.24725e-05
7.20076e-06
1.21134e-05
3.56002e-06
1.06442e-05
4.39286e-06
1.06472e-05
1.21105e-05
4.40496e-06
2.24632e-05
7.20427e-06
8.90001e-06
7.20229e-06
2.24626e-05
1.21137e-05
3.57329e-06
4.42366e-06
1.06516e-05
4.41378e-06
1.06484e-05
1.21166e-05
2.2472e-05
7.20048e-06
8.8989e-06
7.20172e-06
2.24722e-05
1.21131e-05
3.55958e-06
4.39368e-06
1.06444e-05
4.40419e-06
1.21102e-05
1.06473e-05
2.24629e-05
7.20522e-06
8.89989e-06
7.20436e-06
2.24625e-05
1.21138e-05
3.57284e-06
1.06513e-05
4.4243e-06
1.0648e-05
4.41287e-06
1.21167e-05
2.24718e-05
7.19807e-06
8.89865e-06
2.24723e-05
7.20056e-06
1.21131e-05
3.55989e-06
1.0644e-05
4.39276e-06
1.21103e-05
1.0647e-05
4.40482e-06
2.24629e-05
7.20404e-06
8.8996e-06
7.20194e-06
2.24623e-05
9.71834e-06
2.19417e-05
2.19418e-05
2.19475e-05
2.19477e-05
9.71498e-06
3.89771e-06
1.83841e-06
9.00705e-06
5.09528e-06
9.0138e-06
3.89008e-06
1.8486e-06
3.89053e-06
1.83682e-06
9.00222e-06
5.09371e-06
1.84663e-06
3.88289e-06
9.00894e-06
9.7194e-06
2.19594e-05
2.19596e-05
2.19589e-05
9.71972e-06
2.19591e-05
3.90789e-06
9.02058e-06
5.10204e-06
1.87113e-06
9.016e-06
1.86124e-06
3.91462e-06
3.90072e-06
9.0157e-06
5.10054e-06
1.86916e-06
1.85964e-06
9.01116e-06
3.90744e-06
1.84952e-05
1.84883e-05
1.21136e-05
3.57309e-06
4.4245e-06
1.06515e-05
4.4131e-06
1.06483e-05
1.21165e-05
2.24714e-05
7.1998e-06
8.89897e-06
7.2022e-06
2.24719e-05
1.2113e-05
3.55994e-06
4.39298e-06
1.06442e-05
4.40503e-06
1.21101e-05
1.06472e-05
2.24625e-05
7.20569e-06
8.89992e-06
7.20366e-06
2.24619e-05
1.21142e-05
3.57308e-06
4.42451e-06
1.06516e-05
4.413e-06
1.06483e-05
1.21171e-05
2.24727e-05
7.19846e-06
8.89924e-06
2.24732e-05
7.20095e-06
1.21136e-05
3.55992e-06
4.39288e-06
1.06443e-05
1.21107e-05
4.40503e-06
1.06473e-05
2.24638e-05
7.20444e-06
8.90018e-06
7.2023e-06
2.24632e-05
1.8496e-05
1.84893e-05
1.84978e-05
1.84911e-05
1.27847e-07
1.27844e-07
1.39454e-07
1.26443e-07
1.2644e-07
1.21106e-07
1.22643e-07
1.54945e-06
3.15976e-07
6.55838e-07
6.56101e-07
1.2247e-07
1.22467e-07
1.35876e-07
1.21222e-07
1.21219e-07
1.15279e-07
1.16689e-07
1.6482e-06
7.08574e-07
7.0887e-07
3.35885e-07
1.64075e-06
7.12442e-07
7.12732e-07
1.54956e-06
6.52172e-07
6.52432e-07
3.15914e-07
1.54186e-06
6.55801e-07
6.56054e-07
1.61616e-06
3.30063e-07
6.97888e-07
6.98172e-07
6.94047e-07
6.94328e-07
1.62393e-06
1.54979e-06
3.1594e-07
6.55838e-07
6.561e-07
1.61583e-06
3.30073e-07
6.98125e-07
6.97845e-07
6.94284e-07
6.94001e-07
1.62361e-06
1.54952e-06
6.52453e-07
6.52203e-07
3.15952e-07
6.55822e-07
1.54182e-06
6.56078e-07
1.61636e-06
3.30104e-07
6.98239e-07
6.97962e-07
6.94387e-07
6.94115e-07
1.62411e-06
1.61627e-06
3.30122e-07
6.97954e-07
6.98239e-07
1.62381e-06
6.94137e-07
6.94428e-07
1.64852e-06
7.08562e-07
7.08864e-07
3.35818e-07
1.64118e-06
7.12414e-07
7.12709e-07
1.64849e-06
7.08827e-07
7.08544e-07
3.35835e-07
7.12418e-07
1.64097e-06
7.12709e-07
1.64852e-06
7.08897e-07
7.08618e-07
3.3586e-07
7.1246e-07
1.64122e-06
7.12745e-07
1.27848e-07
1.27844e-07
1.39458e-07
1.26444e-07
1.26441e-07
1.21106e-07
1.22643e-07
1.27849e-07
1.27847e-07
1.39461e-07
1.26446e-07
1.26442e-07
1.21107e-07
1.22644e-07
1.27849e-07
1.27848e-07
1.39462e-07
1.26445e-07
1.26444e-07
1.21107e-07
1.22644e-07
1.38479e-07
1.23755e-07
1.23753e-07
1.2508e-07
1.25078e-07
1.19602e-07
1.18129e-07
1.38483e-07
1.23757e-07
1.23754e-07
1.25082e-07
1.25078e-07
1.19602e-07
1.1813e-07
1.38487e-07
1.23758e-07
1.23755e-07
1.25084e-07
1.2508e-07
1.19603e-07
1.1813e-07
1.38488e-07
1.23758e-07
1.23756e-07
1.25083e-07
1.25081e-07
1.19603e-07
1.18131e-07
4.12496e-07
9.82572e-07
1.29406e-06
3.38754e-07
1.28699e-06
3.37718e-07
4.13608e-07
5.76764e-07
1.92342e-06
2.65278e-06
8.8869e-07
8.84092e-07
1.91644e-06
5.78672e-07
4.12503e-07
9.82625e-07
3.3878e-07
1.29415e-06
3.37739e-07
1.28702e-06
4.13624e-07
5.68485e-07
8.6785e-07
1.89252e-06
2.63701e-06
5.66613e-07
8.72451e-07
1.8997e-06
4.06637e-07
9.68437e-07
3.32671e-07
1.2638e-06
4.05572e-07
3.33649e-07
1.27095e-06
5.76762e-07
1.9235e-06
2.65277e-06
8.88688e-07
8.84069e-07
1.91646e-06
5.78686e-07
1.56702e-06
3.20242e-07
6.69677e-07
6.6995e-07
6.65988e-07
6.66248e-07
1.5747e-06
1.22471e-07
1.22467e-07
1.35881e-07
1.21223e-07
1.2122e-07
1.1528e-07
1.16689e-07
1.22473e-07
1.2247e-07
1.35884e-07
1.21225e-07
1.21221e-07
1.1528e-07
1.1669e-07
1.22472e-07
1.22471e-07
1.35886e-07
1.21224e-07
1.21222e-07
1.15281e-07
1.1669e-07
4.42686e-07
1.06674e-06
1.38589e-06
3.61782e-07
1.37898e-06
3.60494e-07
4.44006e-07
6.10604e-07
9.33673e-07
1.98597e-06
2.72372e-06
6.08542e-07
9.38445e-07
1.99261e-06
4.36044e-07
1.05213e-06
1.35615e-06
3.54426e-07
4.34777e-07
1.36312e-06
3.5565e-07
6.19583e-07
2.01499e-06
2.73817e-06
9.55298e-07
9.50532e-07
2.00849e-06
6.21692e-07
4.42692e-07
1.06681e-06
3.6181e-07
1.38599e-06
3.60523e-07
1.37903e-06
4.44021e-07
6.10633e-07
9.33744e-07
1.98603e-06
2.7239e-06
6.08556e-07
9.38517e-07
1.99275e-06
4.3606e-07
1.0522e-06
3.54448e-07
1.3562e-06
4.34781e-07
3.55682e-07
1.36322e-06
6.19595e-07
2.0151e-06
2.73817e-06
9.55314e-07
9.50535e-07
2.00854e-06
6.21713e-07
1.66482e-06
3.40836e-07
7.27085e-07
7.2738e-07
7.2319e-07
7.23492e-07
1.67204e-06
1.56658e-06
3.20178e-07
6.6952e-07
6.69781e-07
1.57402e-06
6.65865e-07
6.66129e-07
1.5987e-06
3.25443e-07
6.79758e-07
6.8003e-07
1.59098e-06
6.83528e-07
6.83797e-07
4.12489e-07
9.82524e-07
1.29408e-06
3.38736e-07
1.287e-06
3.37703e-07
4.13595e-07
5.68534e-07
8.67903e-07
1.89264e-06
2.63693e-06
1.89975e-06
5.66683e-07
8.72498e-07
4.06609e-07
9.68331e-07
1.26377e-06
3.32638e-07
1.27088e-06
4.05557e-07
3.33606e-07
5.76834e-07
1.92356e-06
2.6527e-06
8.88723e-07
1.91659e-06
8.84117e-07
5.78735e-07
4.12498e-07
9.8252e-07
1.29407e-06
3.38737e-07
1.28695e-06
3.37704e-07
4.13601e-07
5.68574e-07
8.68336e-07
1.89238e-06
2.63747e-06
5.66722e-07
1.89955e-06
8.72936e-07
4.06612e-07
9.68326e-07
1.26372e-06
3.32639e-07
4.05562e-07
1.27086e-06
3.33606e-07
5.76881e-07
1.92339e-06
2.65338e-06
8.8921e-07
1.91636e-06
5.78783e-07
8.84605e-07
4.20828e-07
1.31014e-06
3.43018e-07
1.00988e-06
4.19669e-07
1.31719e-06
3.44115e-07
5.97791e-07
9.21731e-07
2.69621e-06
1.96999e-06
9.16981e-07
1.96323e-06
5.99798e-07
5.89151e-07
1.94009e-06
9.00421e-07
2.68123e-06
9.05098e-07
5.87201e-07
1.94693e-06
4.27095e-07
1.02431e-06
1.34021e-06
3.49746e-07
1.33319e-06
3.48586e-07
4.28309e-07
4.20837e-07
1.3101e-06
3.43019e-07
1.00988e-06
4.19679e-07
1.31717e-06
3.44115e-07
5.97847e-07
9.22176e-07
2.6968e-06
1.96982e-06
1.96303e-06
9.17425e-07
5.99851e-07
5.89205e-07
1.93989e-06
9.00909e-07
2.68189e-06
5.87255e-07
1.94678e-06
9.05576e-07
4.27107e-07
1.02431e-06
1.34018e-06
3.49746e-07
1.33314e-06
3.48587e-07
4.28318e-07
1.56697e-06
3.20204e-07
6.69845e-07
6.69574e-07
6.6594e-07
6.66211e-07
1.57432e-06
1.59861e-06
3.25462e-07
6.80061e-07
6.79788e-07
6.83797e-07
1.59105e-06
6.83521e-07
4.12514e-07
9.82574e-07
1.29412e-06
3.3875e-07
1.28704e-06
3.37718e-07
4.13613e-07
5.68565e-07
8.68227e-07
1.89272e-06
2.63749e-06
1.89985e-06
5.66712e-07
8.72834e-07
4.06624e-07
9.68383e-07
1.26381e-06
3.32651e-07
1.27092e-06
4.0558e-07
3.33619e-07
5.76866e-07
1.92365e-06
2.65325e-06
8.89076e-07
1.91667e-06
8.84454e-07
5.78767e-07
4.12501e-07
9.82576e-07
3.38756e-07
1.29411e-06
3.37723e-07
1.28699e-06
4.13615e-07
5.68576e-07
8.68373e-07
1.89242e-06
2.63763e-06
5.66701e-07
1.89961e-06
8.72998e-07
4.06628e-07
9.68386e-07
3.32656e-07
1.26376e-06
4.05568e-07
3.33625e-07
1.27091e-06
5.76853e-07
1.9234e-06
2.65337e-06
8.89244e-07
1.91636e-06
5.78778e-07
8.84597e-07
4.20848e-07
1.31018e-06
3.43035e-07
1.00993e-06
4.19697e-07
1.31723e-06
3.4413e-07
5.97829e-07
9.2211e-07
2.69677e-06
1.9701e-06
9.17339e-07
1.96332e-06
5.99837e-07
5.89187e-07
1.94017e-06
9.0077e-07
2.68181e-06
9.05463e-07
5.87235e-07
1.94703e-06
4.27126e-07
1.02437e-06
1.34025e-06
3.49763e-07
1.33323e-06
3.4861e-07
4.2833e-07
4.20849e-07
3.43041e-07
1.31013e-06
1.00993e-06
4.19681e-07
3.44136e-07
1.31721e-06
5.97821e-07
9.22311e-07
2.69694e-06
1.96987e-06
1.96304e-06
9.17518e-07
5.99853e-07
5.892e-07
1.93987e-06
9.00932e-07
2.68195e-06
5.87224e-07
1.94679e-06
9.05652e-07
4.2711e-07
1.02437e-06
3.49769e-07
1.34024e-06
3.48616e-07
1.33319e-06
4.2833e-07
4.12499e-07
9.82564e-07
3.38757e-07
1.29401e-06
3.37722e-07
1.28693e-06
4.1361e-07
5.76772e-07
1.9231e-06
2.65283e-06
8.88859e-07
8.84195e-07
1.91611e-06
5.78691e-07
4.2084e-07
1.31014e-06
3.43037e-07
1.00994e-06
4.19678e-07
1.31718e-06
3.44135e-07
5.97719e-07
9.21641e-07
2.69635e-06
1.96985e-06
5.99733e-07
9.16905e-07
1.9631e-06
5.89089e-07
1.93996e-06
9.00395e-07
2.68131e-06
5.87131e-07
9.05044e-07
1.9468e-06
4.27102e-07
1.02438e-06
1.3402e-06
3.49768e-07
4.28322e-07
1.33319e-06
3.48605e-07
4.2085e-07
3.43037e-07
1.31009e-06
1.00994e-06
4.19679e-07
3.44142e-07
1.31714e-06
5.97757e-07
9.2187e-07
2.69657e-06
1.9696e-06
1.96285e-06
9.17138e-07
5.9977e-07
5.89119e-07
1.93968e-06
9.00594e-07
2.68158e-06
5.87158e-07
1.94653e-06
9.05284e-07
4.27105e-07
1.02437e-06
3.49775e-07
1.34016e-06
3.48606e-07
1.33315e-06
4.28329e-07
1.56655e-06
3.20217e-07
6.69821e-07
6.69557e-07
6.65895e-07
6.66153e-07
1.57407e-06
1.5989e-06
3.25487e-07
6.80086e-07
6.79821e-07
6.83867e-07
1.59113e-06
6.83596e-07
4.12543e-07
9.82648e-07
3.38781e-07
1.29412e-06
3.37748e-07
1.28703e-06
4.13642e-07
5.68572e-07
8.6831e-07
1.89237e-06
2.63752e-06
8.72922e-07
5.66724e-07
1.89953e-06
4.06655e-07
9.68431e-07
3.3268e-07
1.26382e-06
3.33651e-07
4.05611e-07
1.27092e-06
5.76864e-07
1.92334e-06
2.65332e-06
8.89231e-07
8.84575e-07
1.91629e-06
5.78774e-07
4.20857e-07
3.43057e-07
1.31017e-06
1.01e-06
4.19682e-07
3.44163e-07
1.31726e-06
5.97725e-07
9.21734e-07
2.69636e-06
1.96998e-06
5.99756e-07
9.16973e-07
1.96314e-06
5.89106e-07
1.93997e-06
9.00395e-07
2.68135e-06
5.8713e-07
9.05088e-07
1.94689e-06
4.27109e-07
1.02443e-06
3.49793e-07
1.34029e-06
4.28338e-07
3.48631e-07
1.33323e-06
4.20878e-07
3.43066e-07
1.31019e-06
1.00999e-06
4.19728e-07
3.44164e-07
1.31724e-06
5.97841e-07
9.22241e-07
2.69701e-06
1.96984e-06
1.96304e-06
9.17483e-07
5.9985e-07
5.89201e-07
1.93986e-06
9.00968e-07
2.68208e-06
5.87243e-07
1.94678e-06
9.05658e-07
4.27158e-07
1.02445e-06
3.49793e-07
1.34026e-06
3.4864e-07
1.33325e-06
4.28361e-07
1.5993e-06
3.25515e-07
6.79948e-07
6.80238e-07
1.59175e-06
6.83698e-07
6.83975e-07
1.66477e-06
3.40775e-07
7.26956e-07
7.27261e-07
1.67174e-06
7.23106e-07
7.23421e-07
4.4268e-07
1.06669e-06
1.38591e-06
3.61759e-07
1.37899e-06
3.60476e-07
4.43992e-07
6.10674e-07
9.3376e-07
1.98611e-06
2.72379e-06
1.99276e-06
6.08619e-07
9.38528e-07
4.36031e-07
1.05208e-06
1.35616e-06
3.54407e-07
1.36313e-06
4.34768e-07
3.55629e-07
6.1966e-07
2.01512e-06
2.73808e-06
9.55343e-07
2.00862e-06
9.50567e-07
6.21756e-07
4.42693e-07
1.06668e-06
1.38588e-06
3.6176e-07
1.37893e-06
3.60477e-07
4.44004e-07
6.10733e-07
9.34192e-07
1.98587e-06
2.72432e-06
6.08666e-07
1.99258e-06
9.39008e-07
4.36042e-07
1.05207e-06
1.35609e-06
3.54408e-07
4.3478e-07
1.3631e-06
3.55629e-07
6.19709e-07
2.01496e-06
2.73864e-06
9.55873e-07
2.00839e-06
6.21819e-07
9.51067e-07
1.66504e-06
3.40791e-07
7.27327e-07
7.2703e-07
7.23175e-07
7.23463e-07
1.67206e-06
4.42714e-07
1.06675e-06
1.38595e-06
3.61778e-07
1.37904e-06
3.60501e-07
4.44017e-07
6.10717e-07
9.34135e-07
1.98621e-06
2.72438e-06
1.99288e-06
6.08659e-07
9.38918e-07
4.36055e-07
1.05213e-06
1.3562e-06
3.54431e-07
1.36318e-06
4.348e-07
3.55647e-07
6.19704e-07
2.01524e-06
2.73865e-06
9.55731e-07
2.00873e-06
9.50958e-07
6.21801e-07
4.42696e-07
1.06675e-06
3.61784e-07
1.38593e-06
3.60507e-07
1.37901e-06
4.44016e-07
6.10733e-07
9.34299e-07
1.98597e-06
2.72452e-06
6.08653e-07
1.99265e-06
9.39104e-07
4.36055e-07
1.05213e-06
3.54437e-07
1.35618e-06
4.34783e-07
3.55653e-07
1.36317e-06
6.19696e-07
2.015e-06
2.73876e-06
9.55904e-07
2.00848e-06
6.21816e-07
9.51103e-07
4.42685e-07
1.06673e-06
3.61789e-07
1.38584e-06
3.60496e-07
1.37892e-06
4.44009e-07
6.10641e-07
9.33842e-07
1.98569e-06
2.72388e-06
9.38618e-07
6.08579e-07
1.99232e-06
4.3605e-07
1.05213e-06
3.54426e-07
1.3561e-06
3.55658e-07
4.34775e-07
1.36307e-06
6.19617e-07
2.01467e-06
2.73819e-06
9.55474e-07
9.50676e-07
2.00817e-06
6.21724e-07
1.66468e-06
3.40811e-07
7.27281e-07
7.26993e-07
7.23138e-07
7.23427e-07
1.67167e-06
4.42745e-07
1.06682e-06
3.61809e-07
1.38593e-06
3.60532e-07
1.37902e-06
4.44047e-07
6.10718e-07
9.34192e-07
1.98587e-06
2.7244e-06
9.38992e-07
6.08663e-07
1.99256e-06
4.36085e-07
1.05218e-06
3.54456e-07
1.3562e-06
3.55682e-07
4.34832e-07
1.36316e-06
6.19699e-07
2.01491e-06
2.73866e-06
9.55848e-07
9.51029e-07
2.00835e-06
6.218e-07
4.9917e-07
4.99974e-07
4.99974e-07
4.99867e-07
4.45574e-07
4.54107e-07
4.54107e-07
4.63745e-07
4.03788e-07
4.18744e-07
4.18746e-07
4.39534e-07
3.68405e-07
3.88705e-07
3.88708e-07
4.17793e-07
3.38054e-07
3.62209e-07
3.62212e-07
3.96187e-07
3.11679e-07
3.38348e-07
3.38352e-07
3.74663e-07
2.885e-07
3.16691e-07
3.16695e-07
3.53771e-07
2.67943e-07
2.9706e-07
2.97064e-07
3.34192e-07
2.49595e-07
2.79397e-07
2.794e-07
3.16514e-07
2.33147e-07
2.63696e-07
2.637e-07
3.01182e-07
2.18372e-07
2.49965e-07
2.49969e-07
2.88501e-07
2.05093e-07
2.38204e-07
2.38208e-07
2.78703e-07
1.93172e-07
2.28412e-07
2.28417e-07
2.71879e-07
1.82496e-07
2.20599e-07
2.20603e-07
2.68163e-07
1.72975e-07
2.1477e-07
2.14775e-07
2.67637e-07
1.64535e-07
2.10933e-07
2.10938e-07
2.70479e-07
1.57114e-07
2.09104e-07
2.09109e-07
2.76691e-07
1.50659e-07
2.09294e-07
2.093e-07
2.86283e-07
1.45126e-07
2.1155e-07
2.11557e-07
2.99238e-07
2.1589e-07
3.15612e-07
5.06203e-07
5.05587e-07
5.05586e-07
5.06203e-07
5.05586e-07
5.05586e-07
5.05987e-07
5.05987e-07
5.05987e-07
5.05987e-07
5.05588e-07
5.05588e-07
5.06203e-07
5.05588e-07
5.05587e-07
5.06204e-07
4.99868e-07
4.67259e-07
4.99975e-07