/*--------------------------------*- C++ -*----------------------------------*\
| =========                 |                                                 |
| \\      /  F ield         | OpenFOAM: The Open Source CFD Toolbox           |
|  \\    /   O peration     | Version:  2312                                  |
|   \\  /    A nd           | Website:  www.openfoam.com                      |
|    \\/     M anipulation  |                                                 |
\*---------------------------------------------------------------------------*/
FoamFile
{
    version     2.0;
    format      ascii;
    arch        "LSB;label=32;scalar=64";
    class       volScalarField;
    location    "250";
    object      k;
}
// * * * * * * * * * * * * * * * * * * * * * * * * * * * * * * * * * * * * * //

dimensions      [0 2 -2 0 0 0 0];

internalField   nonuniform List<scalar> 
42973
(
2.12003e-05
3.69e-05
4.21223e-05
2.19785e-05
3.78621e-05
3.7857e-05
4.29043e-05
2.27473e-05
3.86293e-05
3.86498e-05
4.3475e-05
2.36017e-05
3.97657e-05
3.9756e-05
4.44567e-05
2.43147e-05
4.01679e-05
4.0191e-05
4.45653e-05
2.54063e-05
4.17999e-05
4.18e-05
4.64031e-05
2.60147e-05
4.16012e-05
4.16253e-05
4.49488e-05
2.73262e-05
4.42561e-05
4.41988e-05
4.84734e-05
3.03325e-05
4.77768e-05
4.78002e-05
5.34113e-05
2.89025e-05
4.30485e-05
4.30573e-05
4.60882e-05
2.61899e-05
3.93463e-05
3.9344e-05
4.13431e-05
2.68022e-05
4.14322e-05
4.14403e-05
4.4268e-05
3.32416e-05
4.75011e-05
4.7508e-05
5.02085e-05
3.80241e-05
5.1448e-05
5.14461e-05
5.41905e-05
4.0338e-05
5.3059e-05
5.30603e-05
5.57618e-05
4.09217e-05
5.32797e-05
5.32844e-05
5.59173e-05
4.09077e-05
5.31492e-05
5.31546e-05
5.57362e-05
4.08107e-05
5.30803e-05
5.30836e-05
5.56507e-05
4.08175e-05
5.31109e-05
5.3113e-05
5.56923e-05
4.08703e-05
5.31518e-05
5.31544e-05
5.5731e-05
4.08924e-05
5.31648e-05
5.31678e-05
5.57478e-05
4.08975e-05
5.3166e-05
5.31693e-05
5.57394e-05
4.09007e-05
5.31699e-05
5.31734e-05
5.57574e-05
4.09001e-05
5.31677e-05
5.31714e-05
5.57416e-05
4.08997e-05
5.31678e-05
5.31711e-05
5.57459e-05
4.08991e-05
5.31677e-05
5.31714e-05
5.57565e-05
4.08982e-05
5.31666e-05
5.31696e-05
5.57383e-05
4.21185e-05
4.27647e-05
3.69018e-05
3.68968e-05
3.76313e-05
3.76303e-05
4.21168e-05
4.27673e-05
3.68977e-05
3.76259e-05
3.76325e-05
3.69068e-05
3.76316e-05
3.76314e-05
4.27675e-05
3.69013e-05
3.76335e-05
3.7626e-05
4.27654e-05
4.29026e-05
4.32897e-05
3.7859e-05
3.78625e-05
3.84456e-05
3.8433e-05
4.29089e-05
4.32731e-05
3.78533e-05
3.78575e-05
3.84424e-05
3.84432e-05
3.78603e-05
3.84253e-05
3.84488e-05
4.29019e-05
4.32866e-05
3.78543e-05
3.84455e-05
3.84472e-05
4.32929e-05
4.34758e-05
4.43087e-05
3.86446e-05
3.86293e-05
3.94603e-05
3.94686e-05
4.34528e-05
4.43295e-05
3.86411e-05
3.8646e-05
3.9453e-05
3.94637e-05
3.86442e-05
3.94832e-05
3.94652e-05
4.3478e-05
4.43172e-05
3.86426e-05
3.94631e-05
3.94531e-05
4.4314e-05
4.44461e-05
4.45043e-05
3.9755e-05
3.97614e-05
4.0112e-05
4.01005e-05
4.44638e-05
4.44792e-05
3.9749e-05
3.97565e-05
4.01107e-05
4.01103e-05
3.9763e-05
4.00845e-05
4.01176e-05
4.44505e-05
4.44984e-05
3.97535e-05
4.01142e-05
4.01203e-05
4.45085e-05
4.45648e-05
4.61717e-05
4.01903e-05
4.01789e-05
4.14323e-05
4.14356e-05
4.45386e-05
4.61932e-05
4.01884e-05
4.01876e-05
4.14237e-05
4.1429e-05
4.01919e-05
4.14494e-05
4.14263e-05
4.45587e-05
4.6175e-05
4.01934e-05
4.14253e-05
4.14125e-05
4.61687e-05
4.63981e-05
4.51334e-05
4.1798e-05
4.17972e-05
4.17448e-05
4.17352e-05
4.64111e-05
4.51103e-05
4.17916e-05
4.18001e-05
4.17429e-05
4.17517e-05
4.18009e-05
4.17282e-05
4.17548e-05
4.64058e-05
4.51457e-05
4.17931e-05
4.17593e-05
4.17577e-05
4.51497e-05
4.49363e-05
4.69123e-05
4.16137e-05
4.16044e-05
4.23727e-05
4.23699e-05
4.49168e-05
4.69411e-05
4.16121e-05
4.16177e-05
4.23669e-05
4.23604e-05
4.16216e-05
4.23855e-05
4.23692e-05
4.49448e-05
4.68812e-05
4.16237e-05
4.23591e-05
4.2357e-05
4.68867e-05
4.84962e-05
5.33604e-05
4.42299e-05
4.42315e-05
4.77374e-05
4.77338e-05
4.85199e-05
5.33542e-05
4.42204e-05
4.42079e-05
4.77316e-05
4.7745e-05
4.42191e-05
4.77294e-05
4.77424e-05
4.84699e-05
5.33793e-05
4.41962e-05
4.7749e-05
4.7741e-05
5.33759e-05
5.33954e-05
4.72013e-05
4.77856e-05
4.77822e-05
4.49328e-05
4.49312e-05
5.33892e-05
4.72011e-05
4.77803e-05
4.77949e-05
4.49328e-05
4.49428e-05
4.77913e-05
4.49331e-05
4.49374e-05
5.34155e-05
4.72117e-05
4.77913e-05
4.49537e-05
4.4942e-05
4.72028e-05
4.60881e-05
4.14701e-05
4.30449e-05
4.30412e-05
3.96579e-05
3.96502e-05
4.60883e-05
4.14647e-05
4.30445e-05
4.3048e-05
3.96563e-05
3.9651e-05
4.30465e-05
3.96577e-05
3.9655e-05
4.60934e-05
4.14602e-05
4.30481e-05
3.96547e-05
3.96525e-05
4.14629e-05
4.13496e-05
4.32598e-05
3.93485e-05
3.93406e-05
3.99349e-05
3.99283e-05
4.13439e-05
4.32546e-05
3.93465e-05
3.93411e-05
3.99314e-05
3.99285e-05
3.93453e-05
3.99253e-05
3.99318e-05
4.13398e-05
4.32558e-05
3.93425e-05
3.99281e-05
3.99279e-05
4.32599e-05
4.42669e-05
4.93252e-05
4.14466e-05
4.14417e-05
4.61615e-05
4.61577e-05
4.42624e-05
4.93241e-05
4.14423e-05
4.14424e-05
4.61577e-05
4.61629e-05
4.14444e-05
4.61572e-05
4.61636e-05
4.42645e-05
4.93306e-05
4.144e-05
4.61663e-05
4.61598e-05
4.93291e-05
5.02062e-05
5.36883e-05
4.75025e-05
4.7499e-05
5.06859e-05
5.06829e-05
5.02063e-05
5.36909e-05
4.74988e-05
4.75041e-05
5.06822e-05
5.06856e-05
4.75052e-05
5.06918e-05
5.06878e-05
5.02116e-05
5.36905e-05
4.75012e-05
5.06909e-05
5.06835e-05
5.36873e-05
5.41925e-05
5.56149e-05
5.14422e-05
5.1439e-05
5.28368e-05
5.28321e-05
5.41952e-05
5.56144e-05
5.14386e-05
5.14414e-05
5.28338e-05
5.28354e-05
5.14435e-05
5.28394e-05
5.28367e-05
5.41943e-05
5.56157e-05
5.14393e-05
5.28393e-05
5.28335e-05
5.56131e-05
5.57634e-05
5.59067e-05
5.30581e-05
5.30532e-05
5.32807e-05
5.32751e-05
5.57622e-05
5.59039e-05
5.30554e-05
5.30567e-05
5.32785e-05
5.32789e-05
5.30579e-05
5.32783e-05
5.32807e-05
5.5764e-05
5.59066e-05
5.30553e-05
5.32828e-05
5.32792e-05
5.59071e-05
5.59167e-05
5.57298e-05
5.32822e-05
5.32767e-05
5.31942e-05
5.31885e-05
5.59137e-05
5.57272e-05
5.32801e-05
5.32805e-05
5.31924e-05
5.31929e-05
5.32823e-05
5.31914e-05
5.31947e-05
5.59164e-05
5.57308e-05
5.32809e-05
5.31972e-05
5.31935e-05
5.57309e-05
5.57351e-05
5.56354e-05
5.31513e-05
5.31459e-05
5.30847e-05
5.30799e-05
5.57326e-05
5.5634e-05
5.31494e-05
5.31502e-05
5.30826e-05
5.30837e-05
5.31518e-05
5.30842e-05
5.30852e-05
5.57362e-05
5.56369e-05
5.31505e-05
5.3088e-05
5.30833e-05
5.56359e-05
5.56503e-05
5.56649e-05
5.30805e-05
5.30758e-05
5.30944e-05
5.30903e-05
5.56489e-05
5.56645e-05
5.30783e-05
5.30794e-05
5.30921e-05
5.3093e-05
5.30809e-05
5.30952e-05
5.30949e-05
5.56518e-05
5.56655e-05
5.30789e-05
5.30973e-05
5.30927e-05
5.5665e-05
5.56922e-05
5.57089e-05
5.31102e-05
5.31061e-05
5.31443e-05
5.31401e-05
5.56917e-05
5.57082e-05
5.31078e-05
5.31085e-05
5.3142e-05
5.31425e-05
5.31106e-05
5.31444e-05
5.31447e-05
5.56927e-05
5.57092e-05
5.31085e-05
5.31469e-05
5.31429e-05
5.57091e-05
5.57309e-05
5.5729e-05
5.31517e-05
5.31474e-05
5.31637e-05
5.3159e-05
5.573e-05
5.57279e-05
5.31495e-05
5.315e-05
5.31617e-05
5.31624e-05
5.31521e-05
5.31636e-05
5.3164e-05
5.57311e-05
5.57295e-05
5.31504e-05
5.31665e-05
5.31622e-05
5.5729e-05
5.57478e-05
5.57227e-05
5.31649e-05
5.31602e-05
5.3166e-05
5.31612e-05
5.57467e-05
5.57211e-05
5.31629e-05
5.31637e-05
5.3164e-05
5.31649e-05
5.31652e-05
5.31657e-05
5.31662e-05
5.57484e-05
5.57236e-05
5.31633e-05
5.31689e-05
5.31642e-05
5.57223e-05
5.57398e-05
5.57375e-05
5.31663e-05
5.31616e-05
5.31702e-05
5.31653e-05
5.57383e-05
5.57362e-05
5.31643e-05
5.31653e-05
5.3168e-05
5.31687e-05
5.31665e-05
5.31694e-05
5.31704e-05
5.57408e-05
5.57383e-05
5.31646e-05
5.31729e-05
5.31688e-05
5.57376e-05
5.57573e-05
5.57232e-05
5.31707e-05
5.31657e-05
5.3169e-05
5.31639e-05
5.57558e-05
5.57211e-05
5.31686e-05
5.31692e-05
5.31669e-05
5.31677e-05
5.31711e-05
5.31681e-05
5.31694e-05
5.57579e-05
5.57236e-05
5.31694e-05
5.31718e-05
5.31677e-05
5.57237e-05
5.57415e-05
5.57313e-05
5.31687e-05
5.31635e-05
5.31687e-05
5.31637e-05
5.57397e-05
5.57289e-05
5.31666e-05
5.31673e-05
5.31667e-05
5.31669e-05
5.31689e-05
5.31677e-05
5.31688e-05
5.57427e-05
5.57292e-05
5.31673e-05
5.3171e-05
5.31672e-05
5.57319e-05
5.57454e-05
5.57376e-05
5.31687e-05
5.31637e-05
5.31688e-05
5.3164e-05
5.57432e-05
5.57364e-05
5.31666e-05
5.31669e-05
5.31667e-05
5.31676e-05
5.31687e-05
5.31683e-05
5.31691e-05
5.57436e-05
5.57385e-05
5.31671e-05
5.31717e-05
5.31673e-05
5.57373e-05
5.57561e-05
5.57189e-05
5.31681e-05
5.31634e-05
5.31662e-05
5.31616e-05
5.57547e-05
5.57179e-05
5.31661e-05
5.31673e-05
5.31639e-05
5.31652e-05
5.31687e-05
5.31662e-05
5.31667e-05
5.57573e-05
5.57198e-05
5.3167e-05
5.31693e-05
5.31646e-05
5.57189e-05
5.57392e-05
5.31664e-05
5.31619e-05
5.57386e-05
5.31641e-05
5.31654e-05
5.31669e-05
5.57396e-05
5.31647e-05
6.48586e-05
7.13765e-05
6.47329e-05
7.14207e-05
6.95539e-05
6.95832e-05
6.48561e-05
7.13779e-05
6.47322e-05
7.14219e-05
2.12e-05
2.12055e-05
2.17778e-05
2.17797e-05
2.1783e-05
2.17815e-05
5.36062e-05
6.02783e-05
2.92552e-05
3.71437e-05
5.33916e-05
6.04145e-05
2.95009e-05
6.95836e-05
5.3605e-05
2.92565e-05
3.71533e-05
5.33808e-05
2.95033e-05
6.04379e-05
6.70047e-05
6.70115e-05
4.23806e-05
6.70678e-05
6.70811e-05
6.51723e-05
7.1489e-05
6.50803e-05
7.14959e-05
6.96027e-05
6.9605e-05
6.51727e-05
7.14906e-05
6.50796e-05
7.14979e-05
2.19825e-05
2.19824e-05
2.19823e-05
2.25634e-05
2.25575e-05
2.2566e-05
2.2569e-05
5.41634e-05
6.06576e-05
3.02656e-05
3.80645e-05
5.39349e-05
6.06925e-05
3.05273e-05
6.96024e-05
6.96069e-05
5.41682e-05
3.02696e-05
6.06412e-05
3.80613e-05
5.39481e-05
3.05306e-05
6.07016e-05
6.71966e-05
6.72031e-05
4.30191e-05
6.71755e-05
6.71856e-05
6.50842e-05
7.14855e-05
6.50818e-05
7.16069e-05
6.96565e-05
6.97532e-05
6.50829e-05
7.14866e-05
6.5082e-05
7.16067e-05
2.27405e-05
2.27517e-05
2.2752e-05
2.33461e-05
2.3356e-05
2.33527e-05
2.335e-05
5.43358e-05
6.0657e-05
3.12116e-05
3.88718e-05
5.42815e-05
6.09582e-05
3.14046e-05
6.96597e-05
6.97524e-05
5.43231e-05
3.12219e-05
6.0684e-05
3.88782e-05
5.42832e-05
3.1409e-05
6.09083e-05
6.70834e-05
6.70964e-05
4.38024e-05
6.74996e-05
6.74937e-05
6.57406e-05
7.17191e-05
6.5684e-05
7.16461e-05
6.97388e-05
6.96698e-05
6.57419e-05
7.17216e-05
6.56826e-05
7.16506e-05
2.36104e-05
2.3607e-05
2.36071e-05
2.42059e-05
2.4196e-05
2.42105e-05
2.42138e-05
5.5173e-05
6.14045e-05
3.22605e-05
3.99506e-05
5.49822e-05
6.12871e-05
3.25843e-05
6.9741e-05
6.96732e-05
5.52023e-05
3.22498e-05
6.14087e-05
3.99616e-05
5.4967e-05
3.25854e-05
6.13609e-05
6.78265e-05
6.78308e-05
4.45063e-05
6.73959e-05
6.74337e-05
6.5354e-05
7.16115e-05
6.52877e-05
7.1879e-05
6.97818e-05
6.99856e-05
6.53494e-05
7.16122e-05
6.52894e-05
7.18763e-05
2.43064e-05
2.43186e-05
2.43197e-05
2.50535e-05
2.50599e-05
2.5055e-05
2.50525e-05
5.49993e-05
6.08907e-05
3.31008e-05
4.03707e-05
5.4981e-05
6.1408e-05
3.32293e-05
6.97803e-05
6.9984e-05
5.49976e-05
3.3127e-05
6.09104e-05
4.03715e-05
5.50102e-05
3.32403e-05
6.1272e-05
6.69466e-05
6.6957e-05
4.48873e-05
6.79709e-05
6.79418e-05
6.62122e-05
7.2003e-05
6.63309e-05
7.15684e-05
6.9888e-05
6.95481e-05
6.62139e-05
7.20039e-05
6.63253e-05
7.1575e-05
2.54112e-05
2.54096e-05
2.5408e-05
2.59802e-05
2.59756e-05
2.59899e-05
2.59904e-05
5.61477e-05
6.24232e-05
3.43718e-05
4.18921e-05
5.60709e-05
6.19851e-05
3.47511e-05
6.98965e-05
6.95537e-05
5.61671e-05
3.43579e-05
6.24332e-05
4.19091e-05
5.60486e-05
3.47513e-05
6.21173e-05
6.89755e-05
6.89826e-05
4.63903e-05
6.75485e-05
6.7615e-05
6.46208e-05
7.12931e-05
6.45027e-05
7.21133e-05
6.96225e-05
7.04018e-05
6.46213e-05
7.12964e-05
6.45098e-05
7.2111e-05
2.60095e-05
2.60246e-05
2.60254e-05
2.64606e-05
2.6462e-05
2.64631e-05
2.64655e-05
5.49238e-05
5.96805e-05
3.50483e-05
4.15949e-05
5.50121e-05
5.98027e-05
3.50895e-05
6.96157e-05
7.03937e-05
5.49253e-05
3.5071e-05
5.96905e-05
4.16151e-05
5.50495e-05
3.51101e-05
5.97372e-05
6.4468e-05
6.44749e-05
4.46733e-05
6.52553e-05
6.52061e-05
7.13075e-05
7.38533e-05
6.91634e-05
7.42025e-05
7.15822e-05
7.16767e-05
7.1304e-05
7.38524e-05
6.91579e-05
7.42035e-05
2.7338e-05
2.73183e-05
2.73224e-05
3.00974e-05
3.00985e-05
3.01054e-05
3.01033e-05
6.1347e-05
6.54016e-05
3.69357e-05
4.60882e-05
5.88261e-05
6.79759e-05
3.83973e-05
7.15885e-05
7.1684e-05
6.13506e-05
3.68886e-05
6.53652e-05
4.60669e-05
5.87652e-05
3.83731e-05
6.80115e-05
7.2318e-05
7.23155e-05
5.17161e-05
7.50578e-05
7.50803e-05
6.80558e-05
7.29206e-05
7.14222e-05
7.15764e-05
7.03177e-05
6.93459e-05
6.80556e-05
7.29247e-05
7.14194e-05
7.15796e-05
3.03323e-05
3.03435e-05
3.03402e-05
2.98729e-05
2.98719e-05
2.98861e-05
2.98815e-05
5.94456e-05
6.82204e-05
4.01151e-05
4.75969e-05
6.22397e-05
6.45649e-05
4.00699e-05
7.03197e-05
6.93437e-05
5.94834e-05
4.01332e-05
6.82933e-05
4.7622e-05
6.22909e-05
4.00889e-05
6.45858e-05
7.41046e-05
7.41363e-05
5.18546e-05
7.00237e-05
7.00341e-05
6.07986e-05
7.01432e-05
6.26985e-05
6.99323e-05
6.84685e-05
6.84291e-05
6.07994e-05
7.01448e-05
6.26998e-05
6.99337e-05
2.89011e-05
2.89145e-05
2.891e-05
2.65214e-05
2.65193e-05
2.65246e-05
2.65243e-05
5.11239e-05
5.87761e-05
3.73412e-05
4.14924e-05
5.35171e-05
5.66888e-05
3.60712e-05
6.84671e-05
6.84272e-05
5.10999e-05
3.73529e-05
5.87482e-05
4.14937e-05
5.34971e-05
3.60757e-05
5.66614e-05
6.42527e-05
6.42567e-05
4.32853e-05
6.24135e-05
6.242e-05
6.1329e-05
7.03807e-05
6.0167e-05
7.09716e-05
6.89169e-05
6.94247e-05
6.13293e-05
7.03823e-05
6.01676e-05
7.09732e-05
2.61872e-05
2.61913e-05
2.61918e-05
2.61947e-05
2.61916e-05
2.61948e-05
2.61961e-05
5.07369e-05
5.58274e-05
3.42283e-05
3.92957e-05
4.9909e-05
5.6831e-05
3.41727e-05
6.89172e-05
6.94221e-05
5.07456e-05
3.42275e-05
5.58167e-05
3.92942e-05
4.98984e-05
3.41723e-05
5.68388e-05
6.19327e-05
6.1942e-05
4.13611e-05
6.3002e-05
6.30114e-05
6.52796e-05
7.20168e-05
6.3725e-05
7.26446e-05
7.02227e-05
7.07269e-05
6.52795e-05
7.20182e-05
6.37241e-05
7.26459e-05
2.67984e-05
2.68006e-05
2.68027e-05
3.17134e-05
3.17122e-05
3.17181e-05
3.1717e-05
5.56407e-05
5.93513e-05
3.59477e-05
4.31219e-05
5.37028e-05
6.09999e-05
3.76894e-05
7.02248e-05
7.07272e-05
5.56531e-05
3.59544e-05
5.93647e-05
4.31314e-05
5.37163e-05
3.76977e-05
6.10151e-05
6.52364e-05
6.52444e-05
4.63894e-05
6.67002e-05
6.67073e-05
6.86994e-05
7.35199e-05
6.75367e-05
7.39426e-05
7.13611e-05
7.16831e-05
6.8698e-05
7.35209e-05
6.75356e-05
7.39435e-05
3.32425e-05
3.32484e-05
3.32468e-05
3.70586e-05
3.70621e-05
3.70653e-05
3.70638e-05
6.0004e-05
6.34847e-05
4.21363e-05
4.8713e-05
5.85417e-05
6.47344e-05
4.33545e-05
7.13625e-05
7.16824e-05
6.00005e-05
4.21422e-05
6.34882e-05
4.8717e-05
5.85439e-05
4.33577e-05
6.47297e-05
6.8929e-05
6.89356e-05
5.18068e-05
7.00409e-05
7.00476e-05
7.05357e-05
7.4386e-05
7.00351e-05
7.45296e-05
7.19746e-05
7.20772e-05
7.05346e-05
7.43872e-05
7.00334e-05
7.45311e-05
3.8028e-05
3.80305e-05
3.80293e-05
3.99696e-05
3.99713e-05
3.99741e-05
3.99733e-05
6.24238e-05
6.61959e-05
4.61174e-05
5.20512e-05
6.17564e-05
6.67251e-05
4.67387e-05
7.19759e-05
7.20784e-05
6.24159e-05
4.6115e-05
6.61859e-05
5.20491e-05
6.1747e-05
4.67359e-05
6.67168e-05
7.13382e-05
7.13449e-05
5.49334e-05
7.17898e-05
7.17971e-05
7.09158e-05
7.45995e-05
7.08752e-05
7.45938e-05
7.21104e-05
7.21057e-05
7.09152e-05
7.46013e-05
7.08744e-05
7.45956e-05
4.03388e-05
4.03423e-05
4.03415e-05
4.08697e-05
4.08683e-05
4.08733e-05
4.0873e-05
6.30133e-05
6.70973e-05
4.78193e-05
5.31906e-05
6.29294e-05
6.71375e-05
4.79765e-05
7.21121e-05
7.21069e-05
6.30135e-05
4.78198e-05
6.7094e-05
5.31933e-05
6.29263e-05
4.79784e-05
6.71371e-05
7.20975e-05
7.21059e-05
5.58633e-05
7.21171e-05
7.21261e-05
7.07636e-05
7.45414e-05
7.0827e-05
7.45202e-05
7.20649e-05
7.20532e-05
7.07628e-05
7.45433e-05
7.08262e-05
7.4522e-05
4.09199e-05
4.09253e-05
4.09251e-05
4.09329e-05
4.09308e-05
4.09367e-05
4.09364e-05
6.28916e-05
6.70436e-05
4.81137e-05
5.32723e-05
6.2964e-05
6.69735e-05
4.81127e-05
7.20665e-05
7.20547e-05
6.28953e-05
4.81185e-05
6.70473e-05
5.32774e-05
6.29677e-05
4.81176e-05
6.69769e-05
7.19925e-05
7.20022e-05
5.58293e-05
7.19187e-05
7.19283e-05
7.06587e-05
7.44972e-05
7.06753e-05
7.44957e-05
7.20373e-05
7.20399e-05
7.06579e-05
7.44989e-05
7.06744e-05
7.44973e-05
4.09055e-05
4.09115e-05
4.09112e-05
4.08215e-05
4.08205e-05
4.08256e-05
4.0825e-05
6.27514e-05
6.6875e-05
4.80283e-05
5.3117e-05
6.27812e-05
6.68564e-05
4.7996e-05
7.20392e-05
7.20413e-05
6.2753e-05
4.80338e-05
6.6877e-05
5.31219e-05
6.27837e-05
4.80008e-05
6.68575e-05
7.18356e-05
7.18443e-05
5.56647e-05
7.18192e-05
7.18276e-05
7.06581e-05
7.44974e-05
7.06493e-05
7.45038e-05
7.20414e-05
7.2049e-05
7.0657e-05
7.4499e-05
7.06484e-05
7.45054e-05
4.081e-05
4.08148e-05
4.08142e-05
4.08088e-05
4.08086e-05
4.08129e-05
4.08124e-05
6.27405e-05
6.68513e-05
4.79534e-05
5.30804e-05
6.27338e-05
6.68656e-05
4.79526e-05
7.20426e-05
7.20497e-05
6.27398e-05
4.79566e-05
6.6851e-05
5.30835e-05
6.2734e-05
4.79556e-05
6.6864e-05
7.1822e-05
7.18301e-05
5.56336e-05
7.18386e-05
7.18469e-05
7.06894e-05
7.45103e-05
7.0678e-05
7.45144e-05
7.2051e-05
7.20567e-05
7.06881e-05
7.45119e-05
7.06766e-05
7.4516e-05
4.08175e-05
4.08213e-05
4.08209e-05
4.08596e-05
4.08595e-05
4.08633e-05
4.08633e-05
6.27828e-05
6.68881e-05
4.79783e-05
5.31241e-05
6.27683e-05
6.69e-05
4.79928e-05
7.20521e-05
7.20575e-05
6.27828e-05
4.79806e-05
6.6887e-05
5.31263e-05
6.2768e-05
4.7995e-05
6.68992e-05
7.18582e-05
7.18669e-05
5.5691e-05
7.18681e-05
7.18768e-05
7.07057e-05
7.45173e-05
7.06985e-05
7.45198e-05
7.20556e-05
7.206e-05
7.07047e-05
7.4519e-05
7.06973e-05
7.45215e-05
4.08699e-05
4.08738e-05
4.08738e-05
4.08894e-05
4.08889e-05
4.08933e-05
4.08929e-05
6.28047e-05
6.69089e-05
4.80227e-05
5.31573e-05
6.27961e-05
6.69138e-05
4.80287e-05
7.2057e-05
7.2061e-05
6.28051e-05
4.80257e-05
6.69083e-05
5.316e-05
6.27965e-05
4.80316e-05
6.69134e-05
7.18758e-05
7.18844e-05
5.57217e-05
7.18785e-05
7.1887e-05
7.07122e-05
7.45205e-05
7.07084e-05
7.4522e-05
7.20575e-05
7.20615e-05
7.07114e-05
7.45222e-05
7.07076e-05
7.45237e-05
4.08917e-05
4.08962e-05
4.08956e-05
4.08963e-05
4.08956e-05
4.09003e-05
4.08995e-05
6.28126e-05
6.69163e-05
4.80378e-05
5.31653e-05
6.28084e-05
6.69189e-05
4.80392e-05
7.20588e-05
7.20624e-05
6.28127e-05
4.80407e-05
6.69159e-05
5.31683e-05
6.28087e-05
4.8042e-05
6.69186e-05
7.18798e-05
7.18883e-05
5.57284e-05
7.18809e-05
7.18894e-05
7.0714e-05
7.45217e-05
7.07111e-05
7.4523e-05
7.20588e-05
7.20624e-05
7.0713e-05
7.45234e-05
7.07102e-05
7.45247e-05
4.08967e-05
4.09014e-05
4.09007e-05
4.09005e-05
4.08996e-05
4.09045e-05
4.09041e-05
6.2814e-05
6.6919e-05
4.8041e-05
5.31667e-05
6.28128e-05
6.69209e-05
4.80406e-05
7.20599e-05
7.20632e-05
6.28147e-05
4.80441e-05
6.69189e-05
5.31701e-05
6.28131e-05
4.80438e-05
6.6921e-05
7.18834e-05
7.1892e-05
5.57243e-05
7.18851e-05
7.18937e-05
7.07155e-05
7.45223e-05
7.07133e-05
7.45231e-05
7.20587e-05
7.20621e-05
7.07146e-05
7.4524e-05
7.07123e-05
7.45248e-05
4.08997e-05
4.09046e-05
4.09043e-05
4.09003e-05
4.08993e-05
4.09042e-05
4.09039e-05
6.28176e-05
6.69211e-05
4.80417e-05
5.31698e-05
6.28133e-05
6.69223e-05
4.8043e-05
7.20601e-05
7.20631e-05
6.28183e-05
4.80454e-05
6.69213e-05
5.31733e-05
6.28141e-05
4.80466e-05
6.69225e-05
7.18855e-05
7.18941e-05
5.57359e-05
7.18852e-05
7.18939e-05
7.07145e-05
7.4522e-05
7.07121e-05
7.4523e-05
7.20586e-05
7.20621e-05
7.07136e-05
7.45237e-05
7.07111e-05
7.45247e-05
4.08989e-05
4.09039e-05
4.09036e-05
4.08998e-05
4.08987e-05
4.09034e-05
4.09032e-05
6.28136e-05
6.69194e-05
4.80408e-05
5.31676e-05
6.28124e-05
6.69208e-05
4.80402e-05
7.20599e-05
7.2063e-05
6.28143e-05
4.80444e-05
6.69196e-05
5.31712e-05
6.28128e-05
4.80438e-05
6.69211e-05
7.18842e-05
7.1893e-05
5.57324e-05
7.18845e-05
7.18934e-05
7.07142e-05
7.4522e-05
7.07126e-05
7.45227e-05
7.20586e-05
7.20619e-05
7.07135e-05
7.45237e-05
7.07117e-05
7.45245e-05
4.08986e-05
4.09033e-05
4.09031e-05
4.08995e-05
4.08985e-05
4.09032e-05
4.09029e-05
6.28156e-05
6.69202e-05
4.80417e-05
5.31681e-05
6.28138e-05
6.6921e-05
4.80417e-05
7.20599e-05
7.20629e-05
6.28157e-05
4.80452e-05
6.69204e-05
5.31712e-05
6.28143e-05
4.8045e-05
6.69212e-05
7.18844e-05
7.18933e-05
5.57228e-05
7.18845e-05
7.18934e-05
7.07127e-05
7.45214e-05
7.0711e-05
7.45222e-05
7.20581e-05
7.20615e-05
7.0712e-05
7.45231e-05
7.07104e-05
7.45238e-05
4.08982e-05
4.0903e-05
4.09026e-05
4.08983e-05
4.08978e-05
4.09024e-05
4.09018e-05
6.28147e-05
6.69189e-05
4.80403e-05
5.31667e-05
6.28113e-05
6.69199e-05
4.80407e-05
7.20596e-05
7.20626e-05
6.28147e-05
4.80438e-05
6.69191e-05
5.31704e-05
6.28117e-05
4.80441e-05
6.69199e-05
7.18831e-05
7.18918e-05
5.57282e-05
7.18825e-05
7.18911e-05
7.45214e-05
7.07098e-05
7.20583e-05
7.07112e-05
7.45229e-05
7.07087e-05
4.08977e-05
4.09024e-05
4.09018e-05
6.69181e-05
4.80402e-05
6.2811e-05
7.20596e-05
7.2063e-05
6.28135e-05
4.8043e-05
6.69178e-05
5.31703e-05
6.28104e-05
4.80431e-05
6.69196e-05
7.18816e-05
7.18899e-05
5.57315e-05
7.18819e-05
7.18902e-05
6.95561e-05
6.95813e-05
6.95593e-05
6.95836e-05
6.69998e-05
6.70114e-05
4.2378e-05
6.70802e-05
6.70892e-05
6.9603e-05
6.95844e-05
6.96059e-05
6.95864e-05
4.25672e-05
6.71952e-05
6.72006e-05
6.71108e-05
6.7115e-05
6.48571e-05
7.13729e-05
6.47317e-05
7.14164e-05
5.36038e-05
6.02649e-05
2.92507e-05
3.71481e-05
5.33792e-05
6.04311e-05
2.94965e-05
5.36022e-05
6.02632e-05
2.92488e-05
3.71413e-05
5.33779e-05
6.04177e-05
2.94943e-05
6.48836e-05
7.14827e-05
7.14309e-05
6.50389e-05
6.48821e-05
7.14802e-05
7.14273e-05
6.50375e-05
5.36528e-05
3.73916e-05
6.06134e-05
3.00019e-05
6.04622e-05
2.9744e-05
5.38969e-05
5.36512e-05
3.73864e-05
6.06199e-05
3.00004e-05
6.04538e-05
2.97418e-05
5.38953e-05
6.69864e-05
6.6975e-05
4.23739e-05
6.70716e-05
6.7075e-05
6.955e-05
6.95823e-05
6.96053e-05
6.95869e-05
4.25635e-05
6.72088e-05
6.72072e-05
6.71148e-05
6.71219e-05
6.96018e-05
6.95858e-05
5.36024e-05
6.02679e-05
2.92503e-05
3.7144e-05
5.33793e-05
6.0435e-05
2.94964e-05
6.48539e-05
7.14169e-05
5.36008e-05
3.7151e-05
2.94985e-05
6.04313e-05
6.48811e-05
7.14842e-05
7.14322e-05
6.50378e-05
5.36513e-05
3.7387e-05
6.06127e-05
3.00008e-05
6.04647e-05
2.97435e-05
5.38955e-05
6.4879e-05
7.14803e-05
7.14279e-05
6.50371e-05
5.36497e-05
3.73944e-05
3.00031e-05
6.0612e-05
2.97456e-05
6.04619e-05
5.38944e-05
6.48513e-05
7.13756e-05
6.47479e-05
7.14095e-05
5.36075e-05
2.9257e-05
6.02706e-05
3.7152e-05
5.33873e-05
2.9503e-05
6.0429e-05
6.48564e-05
7.13748e-05
6.47436e-05
7.14148e-05
5.3651e-05
3.73877e-05
6.06199e-05
3.00025e-05
6.04495e-05
2.97457e-05
5.38794e-05
6.4871e-05
7.14809e-05
7.14225e-05
6.50171e-05
5.36535e-05
3.73933e-05
3.00047e-05
6.06036e-05
2.9749e-05
6.04568e-05
5.3884e-05
6.48772e-05
7.14784e-05
7.14247e-05
6.502e-05
4.23843e-05
6.7087e-05
6.70886e-05
6.95818e-05
6.96042e-05
6.95866e-05
4.25736e-05
6.71955e-05
6.71863e-05
6.71179e-05
6.71141e-05
6.9602e-05
6.95843e-05
5.36034e-05
2.92547e-05
6.02683e-05
3.71469e-05
5.33793e-05
2.9501e-05
6.04328e-05
6.48569e-05
6.47327e-05
7.14208e-05
6.48557e-05
7.13756e-05
6.47314e-05
7.14181e-05
5.36536e-05
3.73965e-05
3.00074e-05
6.06101e-05
2.97509e-05
6.04675e-05
5.38949e-05
5.36522e-05
3.73884e-05
3.00044e-05
6.06065e-05
2.97481e-05
6.04613e-05
5.38925e-05
6.48815e-05
7.1482e-05
7.14308e-05
6.50324e-05
6.48802e-05
7.14802e-05
7.14279e-05
6.503e-05
6.95567e-05
6.95797e-05
6.95597e-05
6.95828e-05
4.25683e-05
6.71895e-05
6.71961e-05
6.70937e-05
6.71039e-05
6.96043e-05
6.9583e-05
6.96068e-05
6.95857e-05
6.96012e-05
6.96059e-05
6.96042e-05
6.96094e-05
6.71995e-05
6.72056e-05
4.3015e-05
6.71683e-05
6.7181e-05
6.96403e-05
6.9604e-05
6.96423e-05
6.96075e-05
4.31299e-05
6.70733e-05
6.70864e-05
6.71209e-05
6.71353e-05
6.51708e-05
7.14862e-05
6.5079e-05
7.14915e-05
5.41701e-05
6.06488e-05
3.02662e-05
3.80658e-05
5.39507e-05
6.07069e-05
3.05287e-05
5.41689e-05
6.06587e-05
3.02656e-05
3.8068e-05
5.39494e-05
6.07046e-05
3.05282e-05
6.51714e-05
7.14794e-05
7.14899e-05
6.51208e-05
6.51698e-05
7.14744e-05
7.14849e-05
6.51189e-05
5.42016e-05
3.82562e-05
6.06796e-05
3.10163e-05
6.07031e-05
3.07839e-05
5.42749e-05
5.42002e-05
3.82516e-05
6.06626e-05
3.10132e-05
6.06987e-05
3.07823e-05
5.42727e-05
6.72132e-05
6.72089e-05
4.30209e-05
6.71657e-05
6.71277e-05
6.95985e-05
6.95993e-05
6.96402e-05
6.96023e-05
4.31324e-05
6.70514e-05
6.70318e-05
6.71087e-05
6.70708e-05
6.96457e-05
6.95975e-05
5.41698e-05
6.06472e-05
3.02646e-05
3.80607e-05
5.39497e-05
6.07108e-05
3.0527e-05
6.51712e-05
7.14865e-05
6.50791e-05
7.14928e-05
5.41689e-05
3.02667e-05
6.06459e-05
3.80618e-05
5.39488e-05
3.05286e-05
6.07012e-05
6.51718e-05
7.14809e-05
7.14921e-05
6.51217e-05
5.42017e-05
3.82522e-05
6.06858e-05
3.10161e-05
6.07075e-05
3.07826e-05
5.4276e-05
6.51702e-05
7.14762e-05
7.14865e-05
6.51196e-05
5.42004e-05
3.82515e-05
3.1017e-05
6.0676e-05
3.07837e-05
6.0697e-05
5.42742e-05
6.51701e-05
7.14868e-05
6.50652e-05
7.14911e-05
5.41643e-05
3.02677e-05
6.06411e-05
3.80689e-05
5.39368e-05
3.053e-05
6.07087e-05
6.51714e-05
7.14856e-05
6.50657e-05
7.14936e-05
5.41976e-05
3.82438e-05
6.06521e-05
3.10117e-05
6.06836e-05
3.07799e-05
5.42771e-05
6.51701e-05
7.14792e-05
7.14841e-05
6.51227e-05
5.41984e-05
3.82606e-05
3.10193e-05
6.06807e-05
3.07859e-05
6.07057e-05
5.4279e-05
6.51714e-05
7.14767e-05
7.14879e-05
6.51251e-05
6.71984e-05
6.71889e-05
4.30103e-05
6.71613e-05
6.7156e-05
6.96004e-05
6.96061e-05
6.96439e-05
6.96054e-05
4.31237e-05
6.70736e-05
6.70775e-05
6.71152e-05
6.71139e-05
6.96436e-05
6.96049e-05
5.4167e-05
3.02672e-05
6.06416e-05
3.80635e-05
5.39464e-05
3.05293e-05
6.07127e-05
6.5172e-05
7.14884e-05
6.50748e-05
7.14964e-05
6.5171e-05
7.14872e-05
6.50726e-05
7.1496e-05
5.42008e-05
3.8252e-05
3.10212e-05
6.0683e-05
3.07864e-05
6.06983e-05
5.42799e-05
5.42003e-05
3.8257e-05
3.1021e-05
6.06886e-05
3.07862e-05
6.071e-05
5.42789e-05
6.51719e-05
7.14817e-05
7.14916e-05
6.51257e-05
6.51711e-05
7.14789e-05
7.14911e-05
6.51249e-05
6.96027e-05
6.96076e-05
6.96054e-05
6.96109e-05
4.31348e-05
6.70713e-05
6.70863e-05
6.7128e-05
6.71419e-05
6.96392e-05
6.96054e-05
6.96412e-05
6.96088e-05
6.96557e-05
6.97491e-05
6.96571e-05
6.97508e-05
6.70906e-05
6.71005e-05
4.38079e-05
6.75146e-05
6.7512e-05
6.97594e-05
6.97554e-05
6.9763e-05
6.97576e-05
4.40404e-05
6.782e-05
6.78259e-05
6.76419e-05
6.76407e-05
6.50823e-05
7.14811e-05
6.50798e-05
7.1605e-05
5.43185e-05
6.06792e-05
3.12139e-05
3.88703e-05
5.42766e-05
6.08943e-05
3.13999e-05
5.43162e-05
6.06626e-05
3.12096e-05
3.88611e-05
5.42742e-05
6.08964e-05
3.1396e-05
6.5155e-05
7.17191e-05
7.16487e-05
6.56113e-05
6.51531e-05
7.17163e-05
7.16469e-05
6.56102e-05
5.43824e-05
3.91454e-05
6.13786e-05
3.19107e-05
6.10392e-05
3.16226e-05
5.48408e-05
5.43804e-05
3.91468e-05
6.13861e-05
3.19108e-05
6.10475e-05
3.16206e-05
5.48401e-05
6.70719e-05
6.70791e-05
4.3801e-05
6.7529e-05
6.7582e-05
6.96644e-05
6.97552e-05
6.9761e-05
6.9759e-05
4.40472e-05
6.78367e-05
6.78326e-05
6.76614e-05
6.77002e-05
6.97515e-05
6.97583e-05
5.43184e-05
6.06846e-05
3.12144e-05
3.88654e-05
5.42777e-05
6.0887e-05
3.14002e-05
6.50818e-05
7.14827e-05
6.50801e-05
7.16052e-05
5.43176e-05
3.1216e-05
6.06764e-05
3.88746e-05
5.4276e-05
3.14028e-05
6.09038e-05
6.51516e-05
7.17214e-05
7.1649e-05
6.56088e-05
5.4381e-05
3.91387e-05
6.13788e-05
3.19081e-05
6.10323e-05
3.16215e-05
5.48374e-05
6.51515e-05
7.17169e-05
7.1647e-05
6.56084e-05
5.43809e-05
3.91502e-05
3.19118e-05
6.13794e-05
3.16249e-05
6.1045e-05
5.48377e-05
6.51021e-05
7.14908e-05
6.50886e-05
7.16232e-05
5.43296e-05
3.12179e-05
6.0679e-05
3.88682e-05
5.42827e-05
3.14053e-05
6.08796e-05
6.50957e-05
7.14825e-05
6.50883e-05
7.16044e-05
5.44072e-05
3.91639e-05
6.13895e-05
3.19277e-05
6.11025e-05
3.16351e-05
5.48593e-05
6.51879e-05
7.17109e-05
7.166e-05
6.56179e-05
5.43965e-05
3.91458e-05
3.19201e-05
6.13831e-05
3.16302e-05
6.10317e-05
5.48526e-05
6.51731e-05
7.1717e-05
7.16468e-05
6.56159e-05
6.70954e-05
6.71002e-05
4.38194e-05
6.75286e-05
6.7524e-05
6.9659e-05
6.975e-05
6.97616e-05
6.97585e-05
4.40537e-05
6.78261e-05
6.78167e-05
6.76528e-05
6.76449e-05
6.97598e-05
6.97559e-05
5.4319e-05
3.12202e-05
6.06862e-05
3.88634e-05
5.42819e-05
3.14051e-05
6.08688e-05
6.50838e-05
7.14875e-05
6.50865e-05
7.16058e-05
6.5081e-05
7.14835e-05
6.50851e-05
7.15996e-05
5.43829e-05
3.91516e-05
3.19147e-05
6.1377e-05
3.16299e-05
6.10443e-05
5.48334e-05
5.43788e-05
3.91361e-05
3.19097e-05
6.13785e-05
3.16247e-05
6.10171e-05
5.48304e-05
6.51462e-05
7.17204e-05
7.16475e-05
6.56037e-05
6.51424e-05
7.17206e-05
7.16431e-05
6.56016e-05
6.96542e-05
6.97499e-05
6.96555e-05
6.97506e-05
4.40358e-05
6.78274e-05
6.78297e-05
6.76344e-05
6.76281e-05
6.97621e-05
6.9757e-05
6.9766e-05
6.97583e-05
6.97393e-05
6.96725e-05
6.9744e-05
6.96771e-05
6.7818e-05
6.7825e-05
4.44929e-05
6.73867e-05
6.74103e-05
6.97325e-05
6.96612e-05
6.97333e-05
6.96651e-05
4.4528e-05
6.69414e-05
6.69541e-05
6.71858e-05
6.72068e-05
6.57398e-05
7.17161e-05
6.56831e-05
7.16414e-05
5.51954e-05
6.14099e-05
3.2248e-05
3.99602e-05
5.49723e-05
6.13566e-05
3.25825e-05
5.51943e-05
6.14145e-05
3.22487e-05
3.99586e-05
5.49718e-05
6.1348e-05
3.25823e-05
6.57044e-05
7.15865e-05
7.16072e-05
6.53537e-05
6.57036e-05
7.15819e-05
7.16024e-05
6.53521e-05
5.51963e-05
4.0061e-05
6.09279e-05
3.30236e-05
6.12193e-05
3.28541e-05
5.50648e-05
5.51951e-05
4.00522e-05
6.09132e-05
3.302e-05
6.12018e-05
3.28522e-05
5.50627e-05
6.78327e-05
6.78175e-05
4.44941e-05
6.73639e-05
6.72796e-05
6.97238e-05
6.96607e-05
6.97339e-05
6.96588e-05
4.45225e-05
6.69241e-05
6.69221e-05
6.71623e-05
6.71005e-05
6.97462e-05
6.96545e-05
5.51969e-05
6.14121e-05
3.2245e-05
3.99567e-05
5.49695e-05
6.13657e-05
3.25806e-05
6.57403e-05
7.17168e-05
6.56819e-05
7.16433e-05
5.51952e-05
3.22483e-05
6.14096e-05
3.99601e-05
5.49694e-05
3.25832e-05
6.13553e-05
6.57075e-05
7.15888e-05
7.16112e-05
6.53572e-05
5.51983e-05
4.00594e-05
6.09358e-05
3.30258e-05
6.12328e-05
3.28545e-05
5.50691e-05
6.57052e-05
7.15825e-05
7.16041e-05
6.53543e-05
5.51964e-05
4.006e-05
3.30264e-05
6.09225e-05
3.28561e-05
6.12168e-05
5.50663e-05
6.57174e-05
7.17086e-05
6.56805e-05
7.16202e-05
5.51821e-05
3.22572e-05
6.14158e-05
3.99689e-05
5.49794e-05
3.25889e-05
6.13627e-05
6.57266e-05
7.17168e-05
6.56822e-05
7.16405e-05
5.51712e-05
4.00364e-05
6.08962e-05
3.30062e-05
6.11386e-05
3.28433e-05
5.5032e-05
6.56674e-05