/*--------------------------------*- C++ -*----------------------------------*\
| =========                 |                                                 |
| \\      /  F ield         | OpenFOAM: The Open Source CFD Toolbox           |
|  \\    /   O peration     | Version:  2312                                  |
|   \\  /    A nd           | Website:  www.openfoam.com                      |
|    \\/     M anipulation  |                                                 |
\*---------------------------------------------------------------------------*/
FoamFile
{
    version     2.0;
    format      ascii;
    arch        "LSB;label=32;scalar=64";
    class       volScalarField;
    location    "250";
    object      nut;
}
// * * * * * * * * * * * * * * * * * * * * * * * * * * * * * * * * * * * * * //

dimensions      [0 2 -1 0 0 0 0];

internalField   nonuniform List<scalar> 
43008
(
0.000158399
0.000108733
0.000154248
0.000105
0.000105
8.3651e-05
8.53608e-05
8.40511e-05
0.000108708
0.000108688
0.000105835
0.000105819
8.40588e-05
0.000108729
0.000108692
0.000105855
0.00010582
0.00010586
0.000105835
8.53562e-05
8.40426e-05
0.000108717
0.000105859
0.00010585
8.40562e-05
8.3639e-05
0.000104974
0.000104957
8.36368e-05
0.000104995
0.00010496
0.000104975
8.36371e-05
0.000104989
6.5178e-05
4.95071e-05
6.3926e-05
4.95183e-05
2.36509e-05
6.5177e-05
4.95019e-05
6.39256e-05
4.95132e-05
0.000158394
0.00015839
0.000158388
0.000155278
0.000155273
0.000155269
0.000155268
6.17396e-05
0.000107741
6.24061e-05
0.000133504
2.36542e-05
2.36496e-05
6.17408e-05
0.000134575
6.16681e-05
0.000107735
6.09433e-05
0.000133498
6.24111e-05
8.48863e-05
5.94186e-05
5.94177e-05
6.77726e-05
4.95326e-05
6.66513e-05
4.95431e-05
2.36408e-05
2.36368e-05
6.77716e-05
4.9527e-05
6.66495e-05
4.95376e-05
0.000154243
0.000154239
0.000154238
6.43026e-05
6.37736e-05
0.00013029
0.000104131
6.34101e-05
6.44782e-05
0.000129249
2.36399e-05
2.36359e-05
6.43035e-05
0.000130281
6.37645e-05
0.000104133
6.34097e-05
0.000129242
6.45057e-05
6.00203e-05
6.00191e-05
8.33594e-05
6.05137e-05
6.05119e-05
2.36573e-05
2.36531e-05
2.3655e-05
2.36506e-05
5.88979e-05
5.89007e-05
8.49137e-05
5.94265e-05
5.94246e-05
2.36459e-05
2.365e-05
2.36436e-05
2.36475e-05
8.44643e-05
5.99594e-05
5.99619e-05
5.94719e-05
5.9471e-05
6.5176e-05
4.95014e-05
6.39238e-05
4.95124e-05
6.17403e-05
6.16639e-05
0.000134576
0.000107714
6.09427e-05
6.24212e-05
0.000133496
6.17389e-05
6.16614e-05
0.000134568
0.000107699
6.09419e-05
6.24096e-05
0.000133489
6.53367e-05
4.95308e-05
4.95202e-05
6.65125e-05
6.53353e-05
4.95242e-05
4.95142e-05
6.65107e-05
6.21397e-05
0.000106786
6.34518e-05
0.00013135
6.27516e-05
0.000132412
6.29907e-05
6.21387e-05
0.000106773
6.34507e-05
0.000131344
6.27527e-05
0.000132404
6.29902e-05
8.49041e-05
5.94267e-05
5.94364e-05
2.3652e-05
2.36435e-05
2.36477e-05
8.44659e-05
5.99499e-05
5.99638e-05
5.94715e-05
5.94743e-05
2.36451e-05
2.36488e-05
6.17405e-05
6.16626e-05
0.000134572
0.000107734
6.09414e-05
6.24187e-05
0.000133494
6.51754e-05
4.94979e-05
6.39245e-05
4.95092e-05
6.17399e-05
0.000134562
6.16619e-05
0.000107695
6.0941e-05
0.000133483
6.2415e-05
6.5334e-05
4.95252e-05
4.95149e-05
6.65086e-05
6.21394e-05
0.000106807
6.34498e-05
0.000131348
6.27486e-05
0.000132408
6.29886e-05
6.53323e-05
4.95212e-05
4.95109e-05
6.65074e-05
6.21387e-05
0.000106769
0.000131338
6.34484e-05
0.000132398
6.27417e-05
6.29878e-05
6.51796e-05
4.95144e-05
6.1739e-05
0.000107708
0.000133496
6.23947e-05
6.51722e-05
4.95101e-05
6.21368e-05
0.000106817
6.34472e-05
0.000131359
6.27578e-05
0.000132421
6.29894e-05
6.53215e-05
4.95265e-05
4.95161e-05
6.65233e-05
6.21363e-05
0.000106787
0.00013135
6.34544e-05
0.000132411
6.27416e-05
6.29889e-05
6.53285e-05
4.95222e-05
4.95119e-05
6.65146e-05
5.88956e-05
5.89021e-05
8.49035e-05
5.94151e-05
5.94198e-05
2.36564e-05
2.36518e-05
2.36427e-05
2.36465e-05
8.44508e-05
5.99599e-05
5.99668e-05
5.94613e-05
5.94655e-05
2.36449e-05
2.36487e-05
6.17392e-05
0.000134569
6.16637e-05
0.000107722
6.09424e-05
0.000133492
6.24068e-05
6.51768e-05
4.95031e-05
6.39278e-05
4.95143e-05
6.51746e-05
4.94972e-05
6.39258e-05
4.95084e-05
6.21388e-05
0.00010681
0.000131353
6.34471e-05
0.000132412
6.27496e-05
6.29896e-05
6.21368e-05
0.000106802
0.000131347
6.34646e-05
0.000132406
6.2733e-05
6.2989e-05
6.53316e-05
4.95263e-05
4.9516e-05
6.65148e-05
6.53302e-05
4.95206e-05
4.95102e-05
6.65132e-05
2.36507e-05
2.36494e-05
8.44373e-05
5.99688e-05
5.99664e-05
5.94722e-05
5.94717e-05
2.36435e-05
2.36476e-05
2.36423e-05
2.36464e-05
2.3643e-05
2.3639e-05
2.36408e-05
2.36368e-05
6.00221e-05
6.00242e-05
8.33823e-05
6.05309e-05
6.05308e-05
6.77701e-05
4.9526e-05
6.66493e-05
4.95368e-05
6.43024e-05
6.37586e-05
0.00013028
0.000104107
6.34095e-05
6.45143e-05
0.00012924
6.43008e-05
6.37578e-05
0.000130273
0.000104089
6.34088e-05
6.45017e-05
0.000129233
6.00093e-05
6.00127e-05
8.33607e-05
6.05251e-05
6.05379e-05
2.36423e-05
2.36384e-05
6.43024e-05
6.37581e-05
0.000130277
0.000104128
6.34075e-05
6.45112e-05
0.000129237
6.77701e-05
4.95231e-05
6.66483e-05
4.95336e-05
6.43019e-05
0.000130267
6.37566e-05
0.000104093
6.3407e-05
0.000129227
6.45085e-05
6.77773e-05
4.95284e-05
6.66463e-05
4.95389e-05
6.43019e-05
0.000130281
6.37696e-05
0.000104105
6.34098e-05
0.00012924
6.44879e-05
6.7769e-05
4.9524e-05
6.66521e-05
4.95345e-05
6.00219e-05
6.00286e-05
8.33816e-05
6.05221e-05
6.05272e-05
2.36421e-05
2.36381e-05
6.4302e-05
0.000130276
6.37591e-05
0.000104119
6.34089e-05
0.000129236
6.44995e-05
6.7774e-05
4.95282e-05
6.66506e-05
4.95386e-05
6.77715e-05
4.95224e-05
6.66489e-05
4.95328e-05
2.36406e-05
2.36368e-05
2.36394e-05
2.36355e-05
3.61673e-05
6.46361e-05
4.02999e-05
6.75356e-05
4.02978e-05
6.71611e-05
3.61699e-05
2.02407e-05
6.67675e-05
4.95119e-05
2.02408e-05
6.69347e-05
3.61668e-05
6.44747e-05
4.02961e-05
6.66379e-05
3.61644e-05
4.02976e-05
6.70228e-05
2.0238e-05
6.71604e-05
4.95138e-05
6.69971e-05
2.02379e-05
2.36547e-05
2.36516e-05
3.61672e-05
6.4637e-05
6.75339e-05
4.02994e-05
6.71598e-05
4.02973e-05
3.61697e-05
2.0241e-05
6.67638e-05
4.95067e-05
2.02411e-05
6.69311e-05
3.61667e-05
6.44759e-05
6.66348e-05
4.02956e-05
3.61643e-05
6.70208e-05
4.0297e-05
2.02384e-05
6.71568e-05
4.95086e-05
6.69938e-05
2.02382e-05
2.36535e-05
2.36503e-05
6.94091e-05
2.15778e-05
2.15746e-05
2.15785e-05
2.15753e-05
6.95835e-05
7.03409e-05
5.91209e-05
6.62522e-05
4.70352e-05
7.03811e-05
5.91195e-05
6.6257e-05
4.70257e-05
6.92291e-05
2.15802e-05
2.1577e-05
7.05525e-05
4.70522e-05
5.91808e-05
6.69914e-05
6.64757e-05
4.70407e-05
7.09631e-05
7.06019e-05
4.70429e-05
5.91799e-05
6.69959e-05
6.64891e-05
4.70313e-05
7.1003e-05
3.61806e-05
6.72874e-05
4.03177e-05
6.94209e-05
4.03136e-05
6.9095e-05
3.61835e-05
2.02294e-05
6.76195e-05
4.9537e-05
2.02295e-05
6.77644e-05
3.61799e-05
6.71467e-05
4.03085e-05
6.86332e-05
3.61771e-05
4.03122e-05
6.89669e-05
2.02267e-05
6.79619e-05
4.95388e-05
6.78204e-05
2.02266e-05
2.36402e-05
2.36373e-05
3.61805e-05
6.72881e-05
6.94191e-05
4.03172e-05
6.90927e-05
4.0313e-05
3.61833e-05
2.02296e-05
6.76157e-05
4.95315e-05
2.02298e-05
6.77608e-05
3.61798e-05
6.71463e-05
6.86291e-05
4.03079e-05
3.61769e-05
6.89637e-05
4.03117e-05
2.0227e-05
6.79588e-05
4.95333e-05
6.78167e-05
2.02268e-05
2.36394e-05
2.36364e-05
7.00866e-05
2.15635e-05
2.15603e-05
2.15637e-05
2.15606e-05
7.02977e-05
7.22094e-05
6.83192e-05
4.70855e-05
6.02422e-05
7.17831e-05
6.88222e-05
4.7097e-05
7.22486e-05
6.83331e-05
4.70762e-05
6.02402e-05
7.18314e-05
6.88258e-05
4.70877e-05
6.99525e-05
2.1565e-05
2.15618e-05
6.97431e-05
2.15654e-05
2.15622e-05
7.23628e-05
4.71127e-05
6.02941e-05
6.95247e-05
6.90186e-05
4.7102e-05
7.27762e-05
7.24106e-05
4.71034e-05
6.02933e-05
6.95282e-05
6.90324e-05
4.70927e-05
7.28152e-05
2.36569e-05
2.36538e-05
2.36543e-05
2.36512e-05
6.9506e-05
2.15761e-05
2.15729e-05
2.15783e-05
2.1575e-05
6.95339e-05
7.05997e-05
6.57846e-05
4.70275e-05
5.9148e-05
7.00831e-05
4.70405e-05
6.64062e-05
7.06431e-05
6.57939e-05
4.70165e-05
5.91497e-05
7.01283e-05
4.70296e-05
6.64154e-05
6.94289e-05
2.1582e-05
2.15787e-05
6.91488e-05
2.15821e-05
2.15788e-05
7.07511e-05
4.70532e-05
5.92045e-05
6.70562e-05
4.70445e-05
7.09426e-05
6.66263e-05
7.07977e-05
4.70422e-05
5.92037e-05
6.70643e-05
4.70338e-05
7.0988e-05
6.66343e-05
2.36464e-05
2.36494e-05
2.3644e-05
2.36469e-05
6.9456e-05
2.15705e-05
2.15673e-05
6.94885e-05
2.15699e-05
2.15664e-05
7.11037e-05
6.80625e-05
5.97313e-05
4.70839e-05
4.70707e-05
6.75563e-05
7.15931e-05
7.11479e-05
6.80736e-05
5.97327e-05
4.70729e-05
4.70596e-05
6.7565e-05
7.16367e-05
7.10095e-05
4.70565e-05
6.7095e-05
5.96816e-05
7.08745e-05
4.70652e-05
6.74433e-05
7.10545e-05
4.70456e-05
6.71023e-05
5.96814e-05
7.09232e-05
4.70542e-05
6.74528e-05
6.943e-05
2.15691e-05
2.15655e-05
2.1568e-05
2.15644e-05
6.95596e-05
3.61657e-05
6.46339e-05
4.02998e-05
6.75256e-05
4.02977e-05
6.71518e-05
3.61683e-05
2.02398e-05
6.67477e-05
4.9506e-05
2.024e-05
6.69118e-05
3.61652e-05
6.44723e-05
4.0296e-05
6.66296e-05
4.02974e-05
3.61628e-05
6.70125e-05
2.02371e-05
6.71355e-05
4.95079e-05
6.69738e-05
2.0237e-05
3.61731e-05
4.03005e-05
6.76711e-05
6.58624e-05
3.61704e-05
4.03032e-05
6.80302e-05
2.02323e-05
4.95264e-05
6.7564e-05
2.02322e-05
6.74207e-05
2.0235e-05
6.72177e-05
4.95246e-05
2.02351e-05
6.73682e-05
3.61737e-05
6.60074e-05
4.03073e-05
6.85046e-05
3.61764e-05
4.03041e-05
6.81613e-05
3.61715e-05
4.03004e-05
6.76629e-05
6.5861e-05
3.61689e-05
4.03031e-05
6.80219e-05
2.02314e-05
4.952e-05
6.75446e-05
6.73999e-05
2.02314e-05
2.02341e-05
6.71939e-05
4.95183e-05
2.02343e-05
6.73453e-05
3.61721e-05
6.60061e-05
4.03072e-05
6.84968e-05
4.03039e-05
6.81543e-05
3.61748e-05
6.95576e-05
2.15742e-05
2.15772e-05
2.15763e-05
2.15792e-05
6.96183e-05
7.06017e-05
5.91442e-05
4.70295e-05
6.6362e-05
7.05583e-05
5.915e-05
6.63536e-05
4.70394e-05
6.94209e-05
2.15789e-05
2.15818e-05
7.0847e-05
4.70434e-05
5.91984e-05
6.71194e-05
4.70343e-05
6.66325e-05
7.11107e-05
7.08044e-05
4.70535e-05
5.92025e-05
6.71126e-05
6.66244e-05
4.70444e-05
7.10662e-05
2.36558e-05
2.36526e-05
2.36441e-05
2.3647e-05
6.95402e-05
2.15681e-05
2.1571e-05
6.95958e-05
2.15666e-05
2.15695e-05
7.11563e-05
6.80347e-05
5.97286e-05
4.70707e-05
6.75878e-05
4.70585e-05
7.15034e-05
7.11144e-05
6.80273e-05
5.97324e-05
4.70805e-05
4.70688e-05
6.75811e-05
7.14604e-05
7.11729e-05
4.70463e-05
6.71918e-05
5.96805e-05
6.75292e-05
7.10746e-05
4.7054e-05
7.11282e-05
4.70566e-05
6.71854e-05
5.96951e-05
7.1031e-05
4.70642e-05
6.75223e-05
6.94911e-05
2.1564e-05
2.15667e-05
2.15633e-05
2.15662e-05
6.95018e-05
2.36455e-05
2.36485e-05
3.61654e-05
6.46355e-05
4.02992e-05
6.75263e-05
4.02971e-05
6.71523e-05
3.61679e-05
2.02399e-05
6.67428e-05
4.95027e-05
2.02401e-05
6.69108e-05
3.61649e-05
6.44747e-05
4.02954e-05
6.66277e-05
4.02969e-05
3.61625e-05
6.70136e-05
2.02373e-05
6.71361e-05
4.95047e-05
6.69729e-05
2.02371e-05
3.61729e-05
6.76691e-05
4.03e-05
6.58583e-05
3.61703e-05
6.80263e-05
4.03026e-05
2.02326e-05
4.95209e-05
6.75608e-05
2.02324e-05
6.74178e-05
2.02353e-05
6.72147e-05
4.95192e-05
2.02355e-05
6.7364e-05
3.61735e-05
6.6003e-05
6.84998e-05
4.03068e-05
3.61763e-05
6.81571e-05
4.03035e-05
3.61711e-05
4.02998e-05
6.7661e-05
6.58569e-05
3.61684e-05
4.03025e-05
6.80189e-05
2.02315e-05
4.95169e-05
6.75408e-05
6.73964e-05
2.02314e-05
2.02342e-05
6.71933e-05
4.95152e-05
2.02344e-05
6.73433e-05
3.61717e-05
6.60017e-05
4.03066e-05
6.84932e-05
4.03033e-05
6.81491e-05
3.61745e-05
3.61674e-05
6.46249e-05
6.75421e-05
4.0299e-05
6.71471e-05
4.0297e-05
3.61699e-05
2.02386e-05
6.71626e-05
4.95099e-05
6.69889e-05
2.02385e-05
3.61657e-05
6.46318e-05
4.02995e-05
6.75241e-05
4.02975e-05
6.71515e-05
3.61683e-05
2.02375e-05
6.71353e-05
4.95055e-05
6.69735e-05
2.02373e-05
3.61732e-05
6.76518e-05
4.02997e-05
6.58659e-05
3.61705e-05
6.80355e-05
4.03023e-05
2.02328e-05
4.95223e-05
6.75643e-05
6.74077e-05
2.02327e-05
2.02356e-05
6.7206e-05
4.95205e-05
2.02357e-05
6.7366e-05
3.61737e-05
6.59987e-05
6.8515e-05
4.03065e-05
6.81431e-05
4.03033e-05
3.61766e-05
3.61715e-05
4.03001e-05
6.76581e-05
6.5858e-05
3.61688e-05
4.03029e-05
6.80184e-05
2.02317e-05
4.95179e-05
6.75393e-05
6.73956e-05
2.02315e-05
2.02344e-05
6.7193e-05
4.95162e-05
2.02346e-05
6.73413e-05
3.61721e-05
6.6005e-05
4.0307e-05
6.84965e-05
4.03038e-05
6.81495e-05
3.61749e-05
6.9478e-05
2.15728e-05
2.15759e-05
2.15749e-05
2.1578e-05
6.95007e-05
7.06238e-05
6.58147e-05
4.70163e-05
5.91407e-05
4.7029e-05
7.01411e-05
6.64073e-05
7.05775e-05
6.58048e-05
4.70274e-05
5.91465e-05
6.64028e-05
7.00936e-05
4.70401e-05
6.94139e-05
2.1579e-05
2.15821e-05
2.15788e-05
6.91577e-05
2.1582e-05
7.07505e-05
4.70417e-05
5.91945e-05
6.70233e-05
4.70332e-05
6.66143e-05
7.09327e-05
7.07067e-05
4.70528e-05
5.91996e-05
6.70182e-05
6.66038e-05
4.70443e-05
7.08905e-05
2.36557e-05
2.36525e-05
2.36431e-05
2.3646e-05
6.94416e-05
2.15676e-05
2.15707e-05
6.94614e-05
2.1567e-05
2.15701e-05
7.12002e-05
6.81023e-05
5.97272e-05
4.70736e-05
6.75855e-05
4.70602e-05
7.1701e-05
7.11542e-05
6.80981e-05
5.97323e-05
4.70845e-05
4.70711e-05
6.75755e-05
7.16562e-05
7.10541e-05
4.70453e-05
6.70765e-05
5.96745e-05
6.74395e-05
7.0882e-05
4.70545e-05
7.101e-05
4.70562e-05
6.70654e-05
5.96793e-05
7.08397e-05
4.70654e-05
6.74344e-05
6.94297e-05
2.15663e-05
2.15695e-05
2.15652e-05
2.15684e-05
6.96326e-05
2.36453e-05
2.36482e-05
3.61676e-05
6.46352e-05
6.75337e-05
4.02992e-05
6.71595e-05
4.02972e-05
3.61701e-05
2.02416e-05
6.67636e-05
4.95078e-05
6.69312e-05
2.02417e-05
3.61671e-05
6.44776e-05
6.66365e-05
4.02955e-05
6.70233e-05
3.61647e-05
4.02969e-05
2.02389e-05
6.7155e-05
4.95097e-05
6.69925e-05
2.02388e-05
3.61647e-05
6.46329e-05
6.75228e-05
4.02986e-05
6.71503e-05
4.02966e-05
3.61673e-05
2.02396e-05
6.67453e-05
4.95019e-05
2.02397e-05
6.69101e-05
3.61642e-05
6.4475e-05
6.66292e-05
4.02949e-05
3.61618e-05
6.70124e-05
4.02963e-05
2.0237e-05
6.71325e-05
4.95038e-05
6.69719e-05
2.02368e-05
3.61733e-05
6.76669e-05
4.02998e-05
6.58606e-05
3.61707e-05
6.80269e-05
4.03025e-05
2.02332e-05
4.9522e-05
6.75613e-05
6.74163e-05
2.0233e-05
2.02359e-05
6.72121e-05
4.95203e-05
2.02361e-05
6.73627e-05
3.61739e-05
6.60042e-05
6.85034e-05
4.03067e-05
6.81567e-05
4.03034e-05
3.61767e-05
3.61705e-05
6.76586e-05
4.02992e-05
6.58591e-05
3.61679e-05
6.80182e-05
4.0302e-05
2.02312e-05
4.95163e-05
6.75424e-05
6.73971e-05
2.02311e-05
2.02339e-05
6.71908e-05
4.95146e-05
2.02341e-05
6.73415e-05
3.61711e-05
6.6003e-05
6.84955e-05
4.03061e-05
6.81505e-05
4.03028e-05
3.61739e-05
2.36543e-05
2.36512e-05
2.3653e-05
2.365e-05
6.9674e-05
2.15735e-05
2.15704e-05
6.96292e-05
2.1572e-05
2.15688e-05
7.13496e-05
6.81583e-05
5.9748e-05
4.70805e-05
7.16738e-05
6.77074e-05
4.70703e-05
7.13967e-05
6.81617e-05
5.97469e-05
4.70712e-05
7.17141e-05
6.77211e-05
4.70609e-05
7.13261e-05
4.70565e-05
6.71473e-05
5.96972e-05
7.10343e-05
6.75903e-05
4.7066e-05
7.13657e-05
4.70472e-05
6.71607e-05
5.96953e-05
7.10831e-05
6.75936e-05
4.70567e-05
6.96731e-05
2.15671e-05
2.1564e-05
6.96974e-05
2.15677e-05
2.15645e-05
2.3644e-05
2.3647e-05
2.36428e-05
2.36458e-05
2.36424e-05
2.36396e-05
2.36403e-05
2.36374e-05
7.03148e-05
2.15642e-05
2.15606e-05
2.15661e-05
2.15624e-05
7.03819e-05
7.24242e-05
6.83367e-05
4.70904e-05
6.02612e-05
7.192e-05
4.71032e-05
6.89223e-05
7.24664e-05
6.83452e-05
4.70794e-05
6.02624e-05
7.19635e-05
4.70922e-05
6.89331e-05
7.02036e-05
2.15686e-05
2.15649e-05
6.98992e-05
2.1569e-05
2.15653e-05
7.25999e-05
4.71159e-05
6.03149e-05
6.96368e-05
4.71075e-05
7.28971e-05
6.91569e-05
7.26449e-05
4.71049e-05
6.03156e-05
6.96486e-05
4.70964e-05
7.29426e-05
6.91648e-05
3.6179e-05
6.72849e-05
4.03176e-05
6.94103e-05
4.03134e-05
6.90857e-05
3.61818e-05
2.02285e-05
6.75996e-05
4.95306e-05
2.02287e-05
6.77431e-05
3.61783e-05
6.71441e-05
4.03083e-05
6.86257e-05
4.0312e-05
3.61754e-05
6.89573e-05
2.02259e-05
6.7938e-05
4.95325e-05
6.7798e-05
2.02257e-05
7.0284e-05
2.15621e-05
2.15647e-05
2.15631e-05
2.15658e-05
7.0416e-05
7.23447e-05
6.82598e-05
4.70776e-05
6.02482e-05
4.70915e-05
7.17985e-05
6.88481e-05
7.23009e-05
6.82538e-05
4.7087e-05
6.02616e-05
6.88412e-05
7.17574e-05
4.71008e-05
7.0083e-05
2.15635e-05
2.15662e-05
2.15647e-05
6.9677e-05
2.15673e-05
7.25935e-05
4.71064e-05
6.0304e-05
6.96448e-05
4.70966e-05
6.91091e-05
7.29746e-05
7.25516e-05
4.71157e-05
6.03093e-05
6.96381e-05
6.91039e-05
4.71059e-05
7.29306e-05
2.36418e-05
2.36389e-05
3.61787e-05
6.72866e-05
4.0317e-05
6.94123e-05
4.03128e-05
6.90853e-05
3.61815e-05
2.02286e-05
6.75948e-05
4.95276e-05
2.02287e-05
6.77412e-05
3.6178e-05
6.71452e-05
4.03077e-05
6.86216e-05
4.03115e-05
3.61751e-05
6.89575e-05
2.02259e-05
6.79388e-05
4.95293e-05
6.77961e-05
2.02257e-05
3.61807e-05
6.7278e-05
6.94313e-05
4.03168e-05
6.90827e-05
4.03127e-05
3.61835e-05
2.023e-05
6.76085e-05
4.95329e-05
6.77672e-05
2.023e-05
3.618e-05
6.71563e-05
6.86201e-05
4.03076e-05
6.898e-05
3.61772e-05
4.03113e-05
2.02273e-05
6.79641e-05
4.95347e-05
6.78116e-05
2.02271e-05
3.6179e-05
6.72837e-05
4.03173e-05
6.94113e-05
4.03132e-05
6.90863e-05
3.61819e-05
2.02287e-05
6.75951e-05
4.95284e-05
2.02289e-05
6.7741e-05
3.61783e-05
6.71478e-05
4.03081e-05
6.86248e-05
3.61755e-05
4.03118e-05
6.896e-05
2.02261e-05
6.79381e-05
4.95302e-05
6.7797e-05
2.02259e-05
7.0301e-05
2.15603e-05
2.15635e-05
2.15622e-05
2.15654e-05
7.03521e-05
7.24869e-05
6.8384e-05
4.70799e-05
6.02572e-05
4.7092e-05
7.20192e-05
6.89485e-05
7.2442e-05
6.83739e-05
4.70908e-05
6.02634e-05
6.8944e-05
7.19735e-05
4.71028e-05
7.02189e-05
2.15656e-05
2.15687e-05
2.15656e-05
6.99598e-05
2.15688e-05
7.26345e-05
4.71041e-05
6.03088e-05
6.96233e-05
4.7096e-05
6.91684e-05
7.29023e-05
7.25902e-05
4.71149e-05
6.03142e-05
6.9619e-05
6.91578e-05
4.71068e-05
7.28603e-05
2.36415e-05
2.36386e-05
3.61808e-05
6.72842e-05
6.94202e-05
4.0317e-05
6.90934e-05
4.03129e-05
3.61837e-05
2.02302e-05
6.76156e-05
4.95326e-05
6.77611e-05
2.02304e-05
3.61802e-05
6.71508e-05
6.8631e-05
4.03078e-05
6.89674e-05
3.61773e-05
4.03115e-05
2.02276e-05
6.79574e-05
4.95344e-05
6.78159e-05
2.02274e-05
3.6178e-05
6.7282e-05
6.94091e-05
4.03164e-05
6.90852e-05
4.03123e-05
3.61809e-05
2.02283e-05
6.75979e-05
4.95268e-05
2.02284e-05
6.77418e-05
3.61774e-05
6.71485e-05
6.86246e-05
4.03072e-05
3.61745e-05
6.89578e-05
4.03109e-05
2.02256e-05
6.7936e-05
4.95285e-05
6.77967e-05
2.02254e-05
2.36401e-05
2.36373e-05
2.36389e-05
2.3636e-05
0.000180074
0.000180083
0.000157353
0.000179209
0.000179219
0.000197173
0.000197873
6.89392e-05
8.53622e-05
7.05887e-05
7.05854e-05
0.000176629
0.000176638
0.00015321
0.000175768
0.000175778
0.00019437
0.000195071
7.15864e-05
7.14903e-05
7.14893e-05
8.36834e-05
7.13534e-05
7.16077e-05
7.1607e-05
6.91167e-05
7.04774e-05
7.04744e-05
8.53678e-05
6.87085e-05
7.06021e-05
7.05993e-05
7.05681e-05
8.40326e-05
7.12729e-05
7.12716e-05
7.11779e-05
7.11761e-05
7.07934e-05
6.9042e-05
8.53534e-05
7.05678e-05
7.05615e-05
7.06306e-05
8.4044e-05
7.12897e-05
7.12952e-05
7.12109e-05
7.12167e-05
7.08072e-05
6.91133e-05
7.0483e-05
7.04897e-05
8.53624e-05
7.06099e-05
6.87362e-05
7.06033e-05
7.05783e-05
8.40219e-05
7.12736e-05
7.12788e-05
7.11703e-05
7.11754e-05
7.08216e-05
7.07715e-05
8.40327e-05
7.13403e-05
7.13391e-05
7.09692e-05
7.12413e-05
7.12397e-05
7.16727e-05
7.14432e-05
7.14422e-05
8.3679e-05
7.12936e-05
7.15935e-05
7.1593e-05
7.15431e-05
7.14185e-05
7.14237e-05
8.36696e-05
7.15593e-05
7.11931e-05
7.1554e-05
7.17114e-05
7.14592e-05
7.14641e-05
8.36784e-05
7.16148e-05
7.13508e-05
7.16099e-05
0.000180071
0.000180084
0.000157348
0.000179207
0.000179218
0.000197172
0.000197872
0.000180068
0.000180079
0.000157343
0.000179203
0.000179215
0.000197168
0.000197868
0.00018007
0.000180076
0.000157343
0.000179205
0.000179212
0.000197168
0.000197868
0.00015632
0.000177486
0.000177495
0.000178349
0.000178358
0.000196473
0.000195772
0.000156316
0.000177484
0.000177495
0.000178346
0.000178359
0.000196472
0.000195771
0.000156311
0.000177479
0.000177491
0.000178342
0.000178353
0.000196468
0.000195767
0.00015631
0.000177481
0.000177489
0.000178344
0.000178351
0.000196467
0.000195766
7.32029e-05
6.15285e-05
6.32944e-05
7.70211e-05
6.30675e-05
7.70566e-05
7.32393e-05
6.71123e-05
6.38547e-05
6.2214e-05
6.53946e-05
6.52181e-05
6.36417e-05
6.72183e-05
7.3204e-05
6.15292e-05
7.70193e-05
6.32963e-05
7.70551e-05
6.30695e-05
7.324e-05
6.70821e-05
6.4759e-05
6.30046e-05
6.18608e-05
6.69878e-05
6.49297e-05
6.32137e-05
7.34368e-05
6.11473e-05
7.74379e-05
6.24211e-05
7.34099e-05
7.73918e-05
6.26432e-05
6.71175e-05
6.38577e-05
6.22186e-05
6.53949e-05
6.52295e-05
6.36456e-05
6.72217e-05
6.94494e-05
8.48734e-05
7.08339e-05
7.08316e-05
7.07222e-05
7.07199e-05
6.97254e-05
0.000176626
0.000176639
0.000153205
0.000175765
0.000175777
0.000194369
0.00019507
0.000176621
0.000176633
0.000153201
0.000175761
0.000175773
0.000194364
0.000195066
0.000176624
0.000176631
0.0001532
0.000175763
0.000175771
0.000194364
0.000195065
7.27441e-05
6.40692e-05
6.5986e-05
7.59048e-05
6.5749e-05
7.59007e-05
7.28122e-05
6.77951e-05
6.65452e-05
6.55356e-05
6.39559e-05
6.76735e-05
6.6729e-05
6.57415e-05
7.28658e-05
6.36376e-05
6.50672e-05
7.61339e-05
7.28061e-05
6.53003e-05
7.61281e-05
6.79157e-05
6.63764e-05
6.42937e-05
6.7269e-05
6.70712e-05
6.61661e-05
6.80489e-05
7.27459e-05
6.40698e-05
7.59037e-05
6.59877e-05
7.58993e-05
6.57507e-05
7.28139e-05
6.7798e-05
6.65614e-05
6.55356e-05
6.3978e-05
6.76744e-05
6.67521e-05
6.57435e-05
7.28665e-05
6.36374e-05
7.61328e-05
6.50675e-05
7.28071e-05
7.61263e-05
6.53006e-05
6.7923e-05
6.63813e-05
6.42902e-05
6.72901e-05
6.71e-05
6.61709e-05
6.80561e-05
7.20476e-05
8.33132e-05
7.19445e-05
7.19443e-05
7.18058e-05
7.18053e-05
7.23046e-05
6.9631e-05
8.48957e-05
7.09007e-05
7.0898e-05
6.98474e-05
7.07929e-05
7.07901e-05
7.02981e-05
8.44784e-05
7.10259e-05
7.10234e-05
7.01543e-05
7.10966e-05
7.10944e-05
7.32046e-05
6.15282e-05
6.32961e-05
7.70228e-05
6.30685e-05
7.70576e-05
7.32417e-05
6.70771e-05
6.47505e-05
6.30046e-05
6.18623e-05
6.32133e-05
6.69822e-05
6.49233e-05
7.34387e-05
6.11463e-05
6.24208e-05
7.74405e-05
6.26428e-05
7.34109e-05
7.73954e-05
6.71119e-05
6.38586e-05
6.22176e-05
6.53977e-05
6.36457e-05
6.52286e-05
6.72176e-05
7.32039e-05
6.15268e-05
6.32899e-05
7.70226e-05
6.30627e-05
7.70574e-05
7.32411e-05
6.70745e-05
6.47366e-05
6.29983e-05
6.18542e-05
6.69805e-05
6.32052e-05
6.49083e-05
7.3439e-05
6.11453e-05
6.2417e-05
7.74404e-05
7.34113e-05
6.26379e-05
7.73954e-05
6.71078e-05
6.38473e-05
6.22114e-05
6.53932e-05
6.36345e-05
6.7214e-05
6.52168e-05
7.30831e-05
6.37319e-05
7.67136e-05
6.23581e-05
7.30379e-05
6.39609e-05
7.66887e-05
6.74626e-05
6.62493e-05
6.32506e-05
6.51207e-05
6.60861e-05
6.49183e-05
6.75761e-05
6.73883e-05
6.42926e-05
6.56777e-05
6.29433e-05
6.58286e-05
6.72784e-05
6.44994e-05
7.29063e-05
6.27688e-05
6.46277e-05
7.63911e-05
6.43984e-05
7.64066e-05
7.29584e-05
7.30825e-05
6.37266e-05
7.67134e-05
6.23572e-05
7.3037e-05
6.39561e-05
7.66886e-05
6.74643e-05
6.6259e-05
6.32584e-05
6.51173e-05
6.49144e-05
6.6103e-05
6.75779e-05
6.73876e-05
6.42827e-05
6.56895e-05
6.29434e-05
6.72763e-05
6.44915e-05
6.58443e-05
7.2906e-05
6.27683e-05
6.46246e-05
7.63911e-05
6.43955e-05
7.64065e-05
7.29584e-05
6.96286e-05
8.48819e-05
7.08922e-05
7.08982e-05
7.07723e-05
7.07662e-05
6.98995e-05
7.03884e-05
8.44841e-05
7.10531e-05
7.10591e-05
7.11306e-05
7.02459e-05
7.11366e-05
7.32041e-05
6.15284e-05
6.32956e-05
7.7022e-05
6.30679e-05
7.70568e-05
7.32418e-05
6.7079e-05
6.4752e-05
6.30032e-05
6.18615e-05
6.32121e-05
6.69843e-05
6.49244e-05
7.34387e-05
6.11456e-05
6.24191e-05
7.74394e-05
6.26414e-05
7.34104e-05
7.73943e-05
6.7114e-05
6.38575e-05
6.22155e-05
6.53982e-05
6.36444e-05
6.52297e-05
6.72195e-05
7.32041e-05
6.15279e-05
7.70208e-05
6.32922e-05
7.70557e-05
6.30651e-05
7.32407e-05
6.70769e-05
6.47542e-05
6.29973e-05
6.1861e-05
6.69828e-05
6.32064e-05
6.49248e-05
7.34376e-05
6.11452e-05
7.74384e-05
6.24165e-05
7.34103e-05
7.73932e-05
6.26385e-05
6.71124e-05
6.3851e-05
6.22128e-05
6.53907e-05
6.36386e-05
6.72168e-05
6.52254e-05
7.30829e-05
6.37312e-05
7.67126e-05
6.23573e-05
7.30374e-05
6.39598e-05
7.66877e-05
6.74644e-05
6.62501e-05
6.3249e-05
6.51192e-05
6.60871e-05
6.49167e-05
6.75778e-05
6.73899e-05
6.42911e-05
6.56782e-05
6.29406e-05
6.58288e-05
6.72802e-05
6.4498e-05
7.29053e-05
6.27669e-05
6.46255e-05
7.63896e-05
6.43965e-05
7.64046e-05
7.29578e-05
7.30816e-05
7.67114e-05
6.37274e-05
6.23565e-05
7.30371e-05
7.66865e-05
6.39556e-05
6.74609e-05
6.62483e-05
6.32431e-05
6.51111e-05
6.49078e-05
6.60817e-05
6.75742e-05
6.73859e-05
6.42831e-05
6.56668e-05
6.29352e-05
6.72771e-05
6.44895e-05
6.58183e-05
7.29049e-05
6.2766e-05
7.63884e-05
6.46214e-05
7.64034e-05
6.43924e-05
7.29565e-05
7.32012e-05
6.1528e-05
7.702e-05
6.32899e-05
7.70553e-05
6.30639e-05
7.32375e-05
6.71094e-05
6.38449e-05
6.2205e-05
6.53645e-05
6.51958e-05
6.36344e-05
6.72126e-05
7.30805e-05
6.37283e-05
7.67115e-05
6.23551e-05
7.30357e-05
6.39575e-05
7.66864e-05
6.7469e-05
6.6261e-05
6.327e-05
6.51207e-05
6.75817e-05
6.61052e-05
6.49181e-05
6.73923e-05
6.42894e-05
6.56914e-05
6.29402e-05
6.72816e-05
6.58462e-05
6.44972e-05
7.29044e-05
6.27663e-05
6.46258e-05
7.63888e-05
7.29561e-05
6.43954e-05
7.64045e-05
7.30775e-05
7.67107e-05
6.37232e-05
6.23545e-05
7.30332e-05
7.66849e-05
6.39524e-05
6.74614e-05
6.6278e-05
6.32629e-05
6.51139e-05
6.49087e-05
6.61125e-05
6.7577e-05
6.73823e-05
6.42758e-05
6.56591e-05
6.29335e-05
6.72712e-05
6.44842e-05
6.58255e-05
7.29018e-05
6.27659e-05
7.63876e-05
6.46222e-05
7.64036e-05
6.43914e-05
7.29537e-05
6.96047e-05
8.48879e-05
7.08837e-05
7.08897e-05
7.07878e-05
7.07818e-05
6.98096e-05
7.02776e-05
8.44648e-05
7.10021e-05
7.10074e-05
7.10762e-05
7.01227e-05
7.10816e-05
7.32004e-05
6.15274e-05
7.70187e-05
6.32891e-05
7.70538e-05
6.30629e-05
7.32374e-05
6.70805e-05
6.47617e-05
6.30031e-05
6.18591e-05
6.49192e-05
6.6987e-05
6.32094e-05
7.34352e-05
6.11464e-05
7.74367e-05
6.24182e-05
7.73912e-05
7.34071e-05
6.26395e-05
6.71111e-05
6.38445e-05
6.21977e-05
6.53673e-05
6.51981e-05
6.36345e-05
6.72143e-05
7.3081e-05
7.67106e-05
6.37308e-05
6.23568e-05
7.3037e-05
7.66846e-05
6.39591e-05
6.74654e-05
6.62521e-05
6.32521e-05
6.5118e-05
6.75787e-05
6.60852e-05
6.49145e-05
6.73904e-05
6.42893e-05
6.56702e-05
6.29339e-05
6.72818e-05
6.58219e-05
6.44957e-05
7.2905e-05
6.27671e-05
7.63874e-05
6.46258e-05
7.29563e-05
7.64029e-05
6.43963e-05
7.30776e-05
7.67093e-05
6.37227e-05
6.23554e-05
7.30321e-05
7.6684e-05
6.39522e-05
6.74627e-05
6.62801e-05
6.32517e-05
6.51148e-05
6.49088e-05
6.61152e-05
6.75786e-05
6.73835e-05
6.42745e-05
6.56617e-05
6.29443e-05
6.72726e-05
6.44835e-05
6.5828e-05
7.29007e-05
6.2766e-05
7.6387e-05
6.46224e-05
7.64018e-05
6.43916e-05
7.29538e-05
7.03935e-05
8.44583e-05
7.09953e-05
7.0993e-05
7.0182e-05
7.10988e-05
7.10971e-05
7.2216e-05
8.33262e-05
7.20096e-05
7.20097e-05
7.24808e-05
7.18577e-05
7.18573e-05
7.27453e-05
6.40684e-05
6.59865e-05
7.59061e-05
6.57493e-05
7.59015e-05
7.28141e-05
6.77929e-05
6.6551e-05
6.55361e-05
6.39825e-05
6.57431e-05
6.76693e-05
6.6742e-05
7.28677e-05
6.36366e-05
6.50678e-05
7.61353e-05
6.53003e-05
7.28076e-05
7.61296e-05
6.79161e-05
6.63807e-05
6.42866e-05
6.72858e-05
6.61699e-05
6.70921e-05
6.80502e-05
7.2744e-05
6.40669e-05
6.59799e-05
7.59057e-05
6.57436e-05
7.59011e-05
7.28126e-05
6.77915e-05
6.65433e-05
6.5532e-05
6.39708e-05
6.76698e-05
6.57372e-05
6.67272e-05
7.28673e-05
6.36356e-05
6.50648e-05
7.61352e-05
7.28075e-05
6.52962e-05
7.61294e-05
6.79117e-05
6.63695e-05
6.42787e-05
6.72681e-05
6.61597e-05
6.80448e-05
6.70702e-05
7.21289e-05
8.33055e-05
7.19659e-05
7.19709e-05
7.18081e-05
7.18033e-05
7.24476e-05
7.27444e-05
6.40681e-05
6.59856e-05
7.59052e-05
6.57479e-05
7.58999e-05
7.28138e-05
6.77946e-05
6.65527e-05
6.55345e-05
6.39803e-05
6.57418e-05
6.76711e-05
6.67434e-05
7.28669e-05
6.36351e-05
6.50653e-05
7.61332e-05
6.52982e-05
7.28064e-05
7.61281e-05
6.79182e-05
6.63797e-05
6.4286e-05
6.72875e-05
6.61686e-05
6.70939e-05
6.80521e-05
7.27447e-05
6.40677e-05
7.59042e-05
6.59827e-05
7.58989e-05
6.57451e-05
7.28133e-05
6.77933e-05
6.65579e-05
6.55283e-05
6.39806e-05
6.76698e-05
6.57364e-05
6.67486e-05
7.28661e-05
6.36346e-05
7.61321e-05
6.50618e-05
7.28063e-05
7.6127e-05
6.52951e-05
6.79184e-05
6.63748e-05
6.42836e-05
6.72873e-05
6.6164e-05
6.80517e-05
6.70973e-05
7.27428e-05
6.40687e-05
7.59034e-05
6.59817e-05
7.58998e-05
6.57457e-05
7.28105e-05
6.77961e-05
6.65715e-05
6.55334e-05
6.39695e-05
6.67477e-05
6.76736e-05
6.57393e-05
7.28643e-05
6.36372e-05
7.61332e-05
6.50649e-05
7.61268e-05
7.28048e-05
6.52977e-05
6.79155e-05
6.63697e-05
6.42784e-05
6.7255e-05
6.70676e-05
6.61619e-05
6.80468e-05
7.22265e-05
8.33275e-05
7.20133e-05
7.20176e-05
7.18731e-05
7.18687e-05
7.24694e-05
7.27418e-05
6.40682e-05
7.59031e-05
6.59812e-05
7.58981e-05
6.57453e-05
7.28107e-05
6.77984e-05
6.65742e-05
6.5535e-05
6.3981e-05
6.675e-05
6.76757e-05
6.5741e-05
7.28645e-05
6.36367e-05
7.61318e-05
6.5065e-05
7.61258e-05
7.28038e-05
6.52976e-05
6.79181e-05
6.63702e-05
6.42692e-05
6.72577e-05
6.70708e-05
6.61627e-05
6.80492e-05
0.000233969
0.000233549
0.000233549
0.00023345
0.000232529
0.000227583
0.000227583
0.000223835
0.000230489
0.000220163
0.000220162
0.00020903
0.00022776
0.000211546
0.000211544
0.0001937
0.00022439
0.000202555
0.000202552
0.00017963
0.000220508
0.000193694
0.000193691
0.000167269
0.000216261
0.00018521
0.000185206
0.000156525
0.000211779
0.000177178
0.000177173
0.000147152
0.000207168
0.000169639
0.000169635
0.000138902
0.000202509
0.000162568
0.000162564
0.000131572
0.000197856
0.000155911
0.000155906
0.000124916
0.000193244
0.000149612
0.000149608
0.000118793
0.000188654
0.000143635
0.000143631
0.000113115
0.000184123
0.000137922
0.00013792
0.000107898
0.000179681
0.000132438
0.000132433
0.000103032
0.000175315
0.000127164
0.000127158
9.84258e-05
0.000171014
0.000122124
0.000122118
9.42314e-05
0.000166765
0.000117347
0.000117341
9.06327e-05
0.000162568
0.000112864
0.000112861
8.77067e-05
0.000108732
8.53639e-05
0.000234257
0.000234459
0.00023446
0.000234257
0.000234459
0.000234459
0.000234259
0.000234259
0.000234259
0.000234259
0.000234458
0.000234459
0.000234257
0.000234458
0.000234459
0.000234257
0.00023345
0.00022618
0.000233549