/*--------------------------------*- C++ -*----------------------------------*\
| =========                 |                                                 |
| \\      /  F ield         | OpenFOAM: The Open Source CFD Toolbox           |
|  \\    /   O peration     | Version:  2312                                  |
|   \\  /    A nd           | Website:  www.openfoam.com                      |
|    \\/     M anipulation  |                                                 |
\*---------------------------------------------------------------------------*/
FoamFile
{
    version     2.0;
    format      ascii;
    arch        "LSB;label=32;scalar=64";
    class       volScalarField;
    location    "250";
    object      nut;
}
// * * * * * * * * * * * * * * * * * * * * * * * * * * * * * * * * * * * * * //

dimensions      [0 2 -1 0 0 0 0];

internalField   nonuniform List<scalar> 
42973
(
0.000123771
0.000140125
0.000137662
0.000126751
0.000143728
0.000143668
0.000140595
0.000129526
0.00014592
0.00014606
0.000141999
0.000133179
0.000151231
0.000151121
0.000146581
0.00013529
0.000151076
0.000151247
0.000145247
0.000141447
0.000160633
0.000160586
0.000155588
0.000142525
0.000156615
0.000156795
0.000145228
0.000149046
0.000171075
0.000170606
0.000161153
0.000180918
0.000202021
0.000202174
0.000199693
0.000165567
0.000169334
0.000169394
0.000156865
0.000132145
0.000139531
0.000139497
0.000124609
0.000130162
0.000148101
0.000148136
0.000135157
0.000190014
0.000188368
0.000188407
0.000166556
0.000242961
0.000217904
0.000217869
0.000190167
0.00027182
0.000231124
0.000231109
0.000200383
0.000279736
0.000233203
0.000233218
0.00020167
0.000279699
0.000232195
0.000232219
0.000200542
0.000278341
0.000231574
0.000231581
0.000199915
0.000278333
0.000231785
0.000231781
0.000200142
0.000278999
0.000232118
0.000232117
0.000200387
0.000279291
0.000232226
0.000232228
0.000200499
0.000279358
0.000232233
0.000232238
0.000200435
0.000279401
0.000232265
0.000232272
0.000200559
0.000279394
0.000232248
0.000232256
0.000200449
0.000279388
0.000232247
0.000232252
0.000200483
0.000279381
0.000232246
0.000232256
0.000200558
0.000279367
0.000232235
0.000232238
0.000200424
0.000137654
0.00014032
0.000140111
0.000140083
0.000142843
0.000142843
0.000137644
0.000140335
0.000140114
0.000142836
0.000142846
0.000140134
0.000142873
0.000142829
0.000140331
0.000140125
0.000142869
0.000142821
0.000140305
0.000140602
0.000141482
0.000143674
0.00014371
0.000145427
0.000145347
0.000140644
0.000141383
0.000143664
0.000143658
0.000145436
0.000145397
0.000143668
0.000145297
0.000145438
0.000140592
0.000141445
0.000143655
0.000145426
0.000145458
0.00014149
0.000142018
0.000146136
0.000146021
0.000145915
0.000149614
0.000149686
0.000141868
0.00014627
0.000146029
0.000146019
0.000149592
0.000149634
0.000146004
0.000149818
0.000149631
0.000142012
0.000146185
0.000146027
0.000149641
0.000149572
0.000146145
0.000146535
0.000145572
0.000151108
0.000151173
0.000151541
0.000151469
0.000146657
0.000145413
0.000151095
0.000151115
0.000151566
0.000151526
0.000151152
0.000151357
0.000151577
0.000146559
0.000145528
0.000151108
0.000151566
0.00015163
0.000145594
0.000145246
0.000154325
0.000151232
0.000151156
0.0001582
0.000158238
0.000145072
0.00015447
0.000151254
0.000151209
0.000158168
0.000158162
0.000151238
0.00015836
0.000158132
0.000145199
0.000154324
0.000151286
0.000158141
0.000158057
0.000154272
0.000155589
0.000147305
0.00016058
0.000160592
0.000158702
0.000158646
0.000155684
0.000147159
0.000160564
0.000160583
0.00015872
0.000158754
0.000160579
0.000158596
0.000158765
0.000155616
0.000147382
0.000160546
0.000158817
0.000158819
0.000147399
0.000145152
0.000152168
0.000156696
0.000156639
0.000157937
0.000157927
0.000145023
0.000152346
0.000156717
0.000156729
0.000157931
0.000157846
0.000156747
0.000158047
0.000157904
0.000145209
0.000151962
0.000156798
0.000157849
0.000157849
0.000151989
0.000161326
0.00019873
0.000170847
0.000170871
0.000199872
0.000199856
0.000161483
0.000198692
0.00017081
0.000170667
0.000199859
0.000199912
0.00017075
0.00019984
0.000199891
0.000161135
0.000198832
0.000170605
0.000199945
0.000199904
0.000198809
0.000199606
0.000164444
0.000202067
0.000202053
0.000183626
0.000183632
0.000199566
0.000164448
0.000202059
0.00020213
0.00018366
0.000183711
0.000202097
0.000183649
0.000183658
0.00019972
0.00016452
0.000202126
0.000183806
0.000183727
0.00016445
0.000156869
0.000126419
0.000169284
0.000169274
0.000142822
0.000142781
0.000156875
0.000126392
0.000169313
0.000169315
0.000142838
0.000142775
0.000169292
0.000142846
0.000142796
0.000156908
0.000126359
0.000169335
0.00014281
0.000142804
0.000126366
0.000124657
0.000130545
0.000139519
0.000139477
0.000139181
0.000139146
0.000124628
0.000130515
0.000139532
0.000139468
0.000139185
0.000139133
0.00013949
0.00013914
0.000139151
0.000124597
0.000130512
0.000139496
0.000139139
0.000139149
0.00013053
0.000135164
0.000161952
0.000148178
0.000148154
0.000178982
0.000178964
0.000135138
0.000161943
0.000148177
0.000148143
0.000178987
0.000178985
0.000148152
0.000178967
0.000178985
0.000135139
0.000161974
0.000148148
0.000179021
0.000178988
0.000161962
0.000166555
0.00018737
0.00018836
0.000188345
0.000211917
0.000211907
0.000166553
0.000187388
0.000188367
0.000188365
0.000211927
0.000211908
0.000188368
0.00021199
0.000211921
0.000166578
0.000187376
0.000188371
0.000211966
0.000211922
0.000187349
0.000190195
0.000199687
0.000217828
0.000217816
0.000229186
0.000229163
0.000190213
0.000199686
0.000217839
0.000217815
0.000229203
0.000229167
0.000217827
0.000229242
0.000229172
0.000190197
0.000199682
0.000217828
0.000229217
0.000229182
0.000199655
0.000200413
0.00020189
0.000231082
0.000231056
0.000233127
0.000233096
0.000200407
0.000201873
0.000231101
0.000231062
0.000233151
0.000233104
0.000231066
0.000233141
0.000233111
0.000200407
0.000201878
0.000231081
0.000233153
0.000233136
0.000201871
0.000201686
0.000200813
0.000233191
0.000233159
0.000232541
0.000232508
0.000201668
0.000200795
0.000233216
0.000233168
0.000232568
0.000232522
0.000233176
0.000232549
0.00023253
0.000201674
0.000200807
0.000233202
0.000232575
0.000232559
0.0002008
0.000200553
0.000200137
0.000232183
0.000232151
0.000231596
0.000231569
0.000200536
0.000200127
0.00023221
0.000232166
0.000231621
0.00023158
0.000232173
0.000231621
0.000231586
0.000200549
0.000200137
0.0002322
0.000231633
0.000231608
0.000200121
0.00019993
0.000200278
0.000231546
0.00023152
0.000231623
0.000231602
0.00019992
0.000200274
0.00023157
0.000231529
0.000231645
0.000231603
0.000231535
0.000231659
0.000231612
0.00019993
0.000200271
0.000231556
0.000231655
0.000231631
0.000200258
0.00020016
0.000200557
0.000231748
0.000231728
0.000232024
0.000232004
0.000200157
0.000200551
0.000231771
0.000231727
0.000232047
0.000232001
0.000231738
0.000232057
0.000232013
0.000200153
0.000200547
0.000231758
0.000232055
0.000232037
0.000200539
0.000200404
0.000200689
0.000232086
0.000232064
0.000232186
0.000232161
0.000200399
0.000200682
0.000232109
0.000232063
0.000232211
0.000232167
0.000232075
0.000232217
0.000232174
0.000200395
0.000200681
0.000232099
0.000232218
0.000232196
0.00020067
0.000200517
0.000200643
0.000232197
0.000232171
0.000232203
0.000232177
0.00020051
0.000200633
0.000232222
0.000232178
0.000232228
0.000232186
0.000232185
0.000232232
0.00023219
0.00020051
0.000200638
0.000232206
0.000232236
0.00023221
0.00020062
0.000200457
0.00020074
0.000232204
0.000232179
0.000232235
0.000232209
0.000200447
0.000200733
0.00023223
0.000232188
0.000232259
0.000232215
0.000232191
0.00023226
0.000232223
0.000200453
0.000200736
0.000232213
0.000232267
0.000232247
0.000200721
0.000200577
0.000200644
0.000232241
0.000232214
0.000232228
0.000232199
0.000200569
0.000200631
0.000232265
0.00023222
0.000232252
0.000232209
0.000232229
0.000232252
0.000232217
0.000200571
0.000200634
0.000232253
0.00023226
0.00023224
0.000200628
0.000200467
0.000200703
0.000232225
0.000232196
0.000232225
0.000232197
0.000200456
0.000200686
0.000232249
0.000232205
0.000232249
0.000232201
0.000232212
0.000232247
0.00023221
0.000200463
0.000200676
0.000232237
0.000232252
0.000232235
0.000200687
0.000200498
0.000200746
0.000232225
0.000232197
0.000232226
0.0002322
0.000200482
0.000200738
0.000232249
0.000232201
0.000232251
0.000232206
0.00023221
0.000232252
0.000232213
0.000200472
0.00020074
0.000232235
0.000232258
0.000232237
0.000200723
0.000200575
0.000200611
0.000232221
0.000232195
0.000232202
0.000232177
0.000200565
0.000200604
0.000232246
0.000232204
0.000232226
0.000232185
0.000232211
0.000232232
0.000232192
0.000200569
0.000200607
0.000232235
0.000232237
0.000232213
0.000200593
0.000200448
0.000232203
0.000232179
0.000200443
0.000232226
0.000232186
0.000232192
0.00020044
0.000232212
9.23819e-05
5.0027e-05
9.21122e-05
5.00425e-05
2.36151e-05
2.362e-05
9.23738e-05
5.0022e-05
9.21095e-05
5.00374e-05
0.000123764
0.000123792
0.000125941
0.000125958
0.000125965
0.000125943
0.000122139
9.39901e-05
0.00013557
0.000141018
0.000121506
9.43109e-05
0.000136425
2.3619e-05
0.000122121
0.000135549
0.000141069
0.000121455
0.000136424
9.43765e-05
7.39218e-05
7.39126e-05
0.000138852
7.40248e-05
7.40303e-05
9.31437e-05
5.00668e-05
9.28912e-05
5.00696e-05
2.36235e-05
2.36239e-05
9.31425e-05
5.00618e-05
9.28873e-05
5.00648e-05
0.000126796
0.00012676
0.000126754
0.000128945
0.000128873
0.000128931
0.000128967
0.000123929
9.48877e-05
0.00013932
0.000144375
0.000123134
9.49729e-05
0.00014037
2.36223e-05
2.36231e-05
0.000123949
0.000139323
9.48351e-05
0.000144324
0.000123191
0.000140377
9.49891e-05
7.42559e-05
7.42468e-05
0.000140895
7.42142e-05
7.42115e-05
9.26993e-05
5.00652e-05
9.28552e-05
5.01061e-05
2.3632e-05
2.36487e-05
9.26952e-05
5.00601e-05
9.28547e-05
5.01005e-05
0.00012944
0.000129533
0.000129539
0.000131768
0.000131876
0.000131804
0.000131768
0.000123943
9.4622e-05
0.000142653
0.000146848
0.000124078
9.53408e-05
0.000143054
2.36315e-05
2.36475e-05
0.000123897
0.000142723
9.47217e-05
0.000146888
0.000124094
0.000143081
9.52026e-05
7.3866e-05
7.38755e-05
0.000143662
7.46122e-05
7.45804e-05
9.44515e-05
5.01478e-05
9.42098e-05
5.0124e-05
2.36472e-05
2.36352e-05
9.44514e-05
5.01431e-05
9.42032e-05
5.01201e-05
0.000133282
0.000133201
0.000133197
0.000135612
0.000135498
0.000135625
0.000135663
0.00012716
9.66363e-05
0.000146849
0.000151925
0.000126355
9.6389e-05
0.000148563
2.36464e-05
2.36346e-05
0.000127265
0.000146708
9.66252e-05
0.000151971
0.000126261
0.000148534
9.65881e-05
7.53811e-05
7.53599e-05
0.000146646
7.46119e-05
7.46642e-05
9.30407e-05
5.01077e-05
9.31583e-05
5.01995e-05
2.36523e-05
2.36876e-05
9.30307e-05
5.01025e-05
9.31639e-05
5.01931e-05
0.000135189
0.000135295
0.00013531
0.00013888
0.000138947
0.00013885
0.000138822
0.000125541
9.48602e-05
0.000149617
0.00015166
0.000125963
9.60378e-05
0.000149444
2.3651e-05
2.36862e-05
0.000125566
0.000149835
9.49591e-05
0.000151667
0.000126113
0.00014954
9.56434e-05
7.3322e-05
7.33343e-05
0.000146654
7.51543e-05
7.50751e-05
9.56812e-05
5.02494e-05
9.56466e-05
5.01024e-05
2.36743e-05
2.36162e-05
9.56784e-05
5.02441e-05
9.56276e-05
5.00992e-05
0.000141503
0.000141436
0.000141416
0.000143762
0.000143709
0.000143827
0.000143831
0.000130538
9.92138e-05
0.000155983
0.000160997
0.000129957
9.8477e-05
0.000158409
2.36746e-05
2.36161e-05
0.000130589
0.000155816
9.92009e-05
0.000161082
0.000129828
0.000158369
9.88468e-05
7.76884e-05
7.76647e-05
0.000156001
7.53894e-05
7.54991e-05
8.99666e-05
4.99931e-05
9.07355e-05
5.02661e-05
2.36222e-05
2.37515e-05
8.99704e-05
4.99889e-05
9.07542e-05
5.02598e-05
0.000142463
0.000142595
0.000142602
0.000141569
0.000141575
0.000141561
0.000141587
0.000123241
9.10483e-05
0.000157757
0.000155255
0.000124984
8.99671e-05
0.000156613
2.36198e-05
2.3749e-05
0.000123294
0.000157945
9.1123e-05
0.000155412
0.000125178
0.000156795
8.98242e-05
6.84529e-05
6.84613e-05
0.000141757
6.84899e-05
6.83844e-05
0.000107036
5.0879e-05
0.000100867
5.10111e-05
2.39552e-05
2.39754e-05
0.000107025
5.08731e-05
0.000100851
5.10059e-05
0.000149167
0.000148916
0.000148964
0.000178069
0.000178082
0.000178101
0.000178084
0.000150542
0.000104704
0.000168229
0.000185063
0.000138468
0.000113015
0.000180833
2.39551e-05
2.39755e-05
0.000150514
0.000167774
0.000104564
0.000184845
0.000138169
0.000180558
0.000113087
8.13334e-05
8.12973e-05
0.000183281
8.75486e-05
8.75605e-05
0.000102153
5.05915e-05
0.000109987
5.01194e-05
2.37542e-05
2.3587e-05
0.000102149
5.05874e-05
0.000109976
5.0115e-05
0.000180917
0.000180988
0.000180957
0.000176748
0.000176738
0.00017686
0.000176807
0.000148229
0.000117157
0.000198061
0.000202463
0.00015883
0.000107744
0.000198796
2.37534e-05
2.35855e-05
0.000148425
0.000198184
0.00011739
0.000202644
0.000159066
0.000198946
0.000107824
8.85224e-05
8.85661e-05
0.000193689
8.13747e-05
8.1375e-05
8.38708e-05
4.95999e-05
8.89291e-05
4.95177e-05
2.34313e-05
2.3422e-05
8.38709e-05
4.95951e-05
8.89303e-05
4.95127e-05
0.000165553
0.000165666
0.000165615
0.000137019
0.000137
0.000137024
0.000137019
0.000112624
9.17992e-05
0.000175028
0.000157499
0.000123125
8.5701e-05
0.000163294
2.343e-05
2.34206e-05
0.000112526
0.000175121
9.17298e-05
0.0001575
0.00012305
0.00016332
8.56275e-05
7.05846e-05
7.05729e-05
0.000139146
6.68235e-05
6.68168e-05
8.31159e-05
4.96665e-05
8.11032e-05
4.98731e-05
2.35024e-05
2.35886e-05
8.3115e-05
4.96616e-05
8.11034e-05
4.98682e-05
0.000132121
0.000132133
0.000132136
0.000126491
0.00012646
0.000126461
0.000126474
0.000107463
8.19636e-05
0.000144207
0.000137884
0.000105683
8.36967e-05
0.000142272
2.35014e-05
2.3587e-05
0.000107487
0.000144175
8.19281e-05
0.000137855
0.000105632
0.000142246
8.37101e-05
6.48979e-05
6.48973e-05
0.000122869
6.62215e-05
6.62202e-05
9.0951e-05
5.02393e-05
8.77397e-05
5.04589e-05
2.3724e-05
2.38095e-05
9.09491e-05
5.02342e-05
8.77364e-05
5.04538e-05
0.000130123
0.000130113
0.000130136
0.000174674
0.000174654
0.00017468
0.000174672
0.000123898
8.8906e-05
0.000151766
0.00015878
0.000117072
9.26487e-05
0.000165035
2.37232e-05
2.38084e-05
0.000123949
0.000151795
8.89394e-05
0.000158829
0.000117124
0.000165083
9.2689e-05
6.92886e-05
6.92857e-05
0.00014619
7.14805e-05
7.14743e-05
9.84059e-05
5.07648e-05
9.57831e-05
5.09127e-05
2.39172e-05
2.39719e-05
9.84008e-05
5.07596e-05
9.57793e-05
5.09074e-05
0.000190018
0.000190045
0.00019003
0.000231622
0.00023166
0.000231651
0.000231636
0.000140248
9.84562e-05
0.000201732
0.000197112
0.000134542
0.000101594
0.00021257
2.39163e-05
2.39706e-05
0.000140237
0.000201766
9.84722e-05
0.000197129
0.000134556
0.000212582
0.000101585
7.49682e-05
7.49611e-05
0.000176077
7.68194e-05
7.68112e-05
0.000102749
5.10685e-05
0.000101517
5.11194e-05
2.40218e-05
2.40395e-05
0.000102745
5.10633e-05
0.000101511
5.11143e-05
0.000243008
0.000242988
0.000242975
0.000267029
0.000267053
0.000267031
0.00026702
0.000150158
0.000105332
0.000238644
0.000222731
0.000147294
0.000106796
0.000244846
2.40208e-05
2.40385e-05
0.000150121
0.000238592
0.000105306
0.000222693
0.000147254
0.000244789
0.000106773
7.9052e-05
7.90436e-05
0.000195179
7.98883e-05
7.98799e-05
0.000103742
5.1145e-05
0.00010361
5.11435e-05
2.40455e-05
2.40449e-05
0.000103739
5.114e-05
0.000103606
5.11385e-05
0.000271834
0.000271819
0.000271809
0.000278978
0.000278962
0.000278966
0.000278961
0.000152809
0.000107837
0.000256091
0.00023228
0.000152368
0.000107994
0.000257815
2.40447e-05
2.4044e-05
0.000152805
0.000256058
0.000107826
0.000232277
0.00015235
0.000257798
0.000107991
8.04857e-05
8.04794e-05
0.000201441
8.056e-05
8.05545e-05
0.000103407
5.11257e-05
0.000103547
5.11183e-05
2.40381e-05
2.40361e-05
0.000103404
5.11207e-05
0.000103544
5.11133e-05
0.000279715
0.000279724
0.00027972
0.000280018
0.000279989
0.000280006
0.000280003
0.000152378
0.000107763
0.000259482
0.000233186
0.000152646
0.000107599
0.000259516
2.40372e-05
2.40352e-05
0.000152391
0.000259493
0.000107773
0.000233204
0.000152659
0.000259533
0.000107608
8.03535e-05
8.03497e-05
0.000201439
8.02315e-05
8.02277e-05
0.000103138
5.11101e-05
0.000103177
5.11095e-05
2.40334e-05
2.40338e-05
0.000103134
5.1105e-05
0.000103173
5.11044e-05
0.000279669
0.000279689
0.000279685
0.000278513
0.000278497
0.000278507
0.0002785
0.000151761
0.000107307
0.000258696
0.000231919
0.000151877
0.000107263
0.00025835
2.40325e-05
2.40329e-05
0.000151766
0.00025872
0.000107313
0.000231939
0.000151886
0.000258369
0.000107267
8.00678e-05
8.00626e-05
0.000200349
8.00375e-05
8.00315e-05
0.000103122
5.111e-05
0.000103101
5.11122e-05
2.4034e-05
2.40352e-05
0.000103118
5.11049e-05
0.000103097
5.11071e-05
0.000278331
0.000278337
0.00027833
0.00027824
0.000278235
0.000278235
0.000278228
0.000151679
0.000107225
0.000257854
0.00023156
0.00015164
0.00010727
0.000257824
2.4033e-05
2.40342e-05
0.000151674
0.000257855
0.000107225
0.000231566
0.000151639
0.000257827
0.000107266
8.00287e-05
8.0022e-05
0.000200071
8.00605e-05
8.00541e-05
0.000103192
5.11144e-05
0.000103161
5.11159e-05
2.40356e-05
2.40366e-05
0.000103187
5.11093e-05
0.000103156
5.11108e-05
0.000278331
0.000278325
0.00027832
0.000278862
0.00027886
0.000278851
0.000278851
0.000151848
0.000107314
0.000258051
0.000231892
0.000151765
0.000107357
0.000258195
2.40346e-05
2.40356e-05
0.000151845
0.000258042
0.000107312
0.000231889
0.000151762
0.000258188
0.000107355
8.00884e-05
8.00828e-05
0.000200424
8.01099e-05
8.01044e-05
0.000103229
5.11169e-05
0.000103207
5.11177e-05
2.40364e-05
2.40371e-05
0.000103224
5.11118e-05
0.000103202
5.11127e-05
0.000278995
0.000278988
0.000278988
0.000279253
0.000279246
0.000279244
0.00027924
0.000151936
0.000107367
0.000258503
0.000232164
0.000151877
0.000107392
0.000258566
2.40355e-05
2.40361e-05
0.000151934
0.000258502
0.000107366
0.000232164
0.000151878
0.000258565
0.00010739
8.01184e-05
8.01129e-05
0.000200622
8.01274e-05
8.01216e-05
0.000103244
5.1118e-05
0.00010323
5.11185e-05
2.40367e-05
2.40374e-05
0.00010324
5.11129e-05
0.000103226
5.11135e-05
0.000279285
0.000279285
0.000279278
0.000279343
0.000279334
0.000279336
0.000279327
0.000151967
0.000107385
0.000258664
0.00023223
0.000151929
0.000107404
0.000258679
2.40358e-05
2.40364e-05
0.000151965
0.000258662
0.000107384
0.000232233
0.000151929
0.000258677
0.000107403
8.01245e-05
8.01187e-05
0.000200667
8.01304e-05
8.01244e-05
0.000103247
5.11184e-05
0.000103236
5.11189e-05
2.40369e-05
2.40375e-05
0.000103243
5.11134e-05
0.000103232
5.11138e-05
0.000279349
0.000279352
0.000279343
0.000279398
0.000279386
0.000279391
0.000279387
0.000151972
0.000107392
0.000258699
0.000232238
0.000151949
0.000107409
0.000258694
2.4036e-05
2.40365e-05
0.000151973
0.000258698
0.000107392
0.000232245
0.000151948
0.000258696
0.000107409
8.01299e-05
8.01242e-05
0.000200628
8.01376e-05
8.01319e-05
0.000103252
5.11186e-05
0.000103242
5.11189e-05
2.40369e-05
2.40375e-05
0.000103248
5.11136e-05
0.000103238
5.11139e-05
0.00027939
0.000279395
0.000279392
0.000279397
0.000279383
0.000279389
0.000279386
0.000151991
0.000107398
0.000258704
0.000232265
0.00015195
0.000107414
0.000258717
2.4036e-05
2.40365e-05
0.000151992
0.000258709
0.000107398
0.000232272
0.00015195
0.000258723
0.000107414
8.01342e-05
8.01287e-05
0.000200717
8.01383e-05
8.01327e-05
0.000103249
5.11185e-05
0.000103239
5.11189e-05
2.40369e-05
2.40375e-05
0.000103245
5.11135e-05
0.000103235
5.11138e-05
0.00027938
0.000279385
0.000279383
0.000279389
0.000279374
0.000279377
0.000279375
0.000151972
0.000107393
0.000258698
0.000232247
0.000151947
0.000107409
0.00025869
2.4036e-05
2.40365e-05
0.000151973
0.000258703
0.000107394
0.000232255
0.000151945
0.000258696
0.000107409
8.01319e-05
8.01267e-05
0.000200688
8.01369e-05
8.01317e-05
0.000103249
5.11185e-05
0.00010324
5.11188e-05
2.40369e-05
2.40374e-05
0.000103245
5.11135e-05
0.000103236
5.11137e-05
0.000279374
0.000279377
0.000279375
0.000279386
0.000279371
0.000279374
0.000279372
0.000151982
0.000107396
0.000258704
0.00023225
0.000151953
0.00010741
0.000258704
2.4036e-05
2.40365e-05
0.000151981
0.000258708
0.000107396
0.000232254
0.000151952
0.000258708
0.00010741
8.01324e-05
8.01273e-05
0.00020062
8.01374e-05
8.01322e-05
0.000103245
5.11183e-05
0.000103237
5.11186e-05
2.40368e-05
2.40374e-05
0.000103242
5.11133e-05
0.000103233
5.11135e-05
0.000279368
0.000279372
0.000279369
0.000279368
0.000279359
0.000279361
0.000279357
0.000151978
0.000107392
0.00025869
0.000232238
0.000151941
0.000107407
0.000258692
2.40359e-05
2.40364e-05
0.000151976
0.000258695
0.000107393
0.000232247
0.000151941
0.000258698
0.000107407
8.01305e-05
8.01252e-05
0.000200667
8.01338e-05
8.0128e-05
5.11183e-05
0.000103233
2.40368e-05
0.000103238
5.11132e-05
0.000103228
0.000279359
0.000279361
0.000279354
0.000107389
0.000258687
0.000151937
2.40359e-05
2.40365e-05
0.000151965
0.000258683
0.000107388
0.000232243
0.000151934
0.000258684
0.000107405
8.0127e-05
8.0121e-05
0.000200679
8.01316e-05
8.01253e-05
2.36177e-05
2.3622e-05
2.36157e-05
2.36198e-05
7.39109e-05
7.39119e-05
0.000138852
7.40489e-05
7.40458e-05
2.36258e-05
2.36225e-05
2.36237e-05
2.36203e-05
0.000139449
7.42601e-05
7.42474e-05
7.40921e-05
7.40795e-05
9.23789e-05
5.00214e-05
9.21098e-05
5.00366e-05
0.000122121
9.39479e-05
0.000135525
0.000141025
0.000121456
9.43604e-05
0.000136388
0.000122117
9.39345e-05
0.000135515
0.000140981
0.000121453
9.43095e-05
0.000136375
9.24276e-05
5.00644e-05
5.0046e-05
9.27912e-05
9.24244e-05
5.00592e-05
5.00403e-05
9.27882e-05
0.000122255
0.000141938
9.47895e-05
0.000138257
9.43964e-05
0.000137269
0.000123041
0.000122251
0.000141905
9.47949e-05
0.00013825
9.4356e-05
0.000137256
0.000123037
7.3869e-05
7.38653e-05
0.000138825
7.40078e-05
7.40308e-05
2.3616e-05
2.36214e-05
2.36239e-05
2.36207e-05
0.000139423
7.42672e-05
7.42871e-05
7.40745e-05
7.41078e-05
2.36249e-05
2.36221e-05
0.000122114
9.39426e-05
0.000135525
0.000141028
0.000121454
9.43582e-05
0.00013639
9.23689e-05
5.00333e-05
0.000122109
0.000141037
0.000136392
9.4347e-05
9.24196e-05
5.00594e-05
5.0041e-05
9.27862e-05
0.000122246
0.000141937
9.4773e-05
0.000138251
9.43911e-05
0.000137269
0.000123033
9.24146e-05
5.00557e-05
5.0037e-05
9.27853e-05
0.000122242
0.000141952
0.000138255
9.4773e-05
0.000137271
9.43827e-05
0.000123031
9.23705e-05
5.00233e-05
9.21464e-05
5.00349e-05
0.000122142
0.000135561
9.39612e-05
0.00014104
0.000121488
0.000136427
9.4354e-05
9.23816e-05
5.00198e-05
9.21401e-05
5.00338e-05
0.000122252
0.000141935
9.48066e-05
0.000138261
9.43531e-05
0.000137291
0.000122964
9.23937e-05
5.00601e-05
5.00392e-05
9.27301e-05
0.000122263
0.000141937
0.000138263
9.47557e-05
0.000137296
9.43804e-05
0.000122985
9.24153e-05
5.00562e-05
5.00372e-05
9.27398e-05
0.000138882
7.40412e-05
7.40658e-05
2.36211e-05
2.36226e-05
2.36195e-05
0.000139482
7.42414e-05
7.42428e-05
7.4087e-05
7.41e-05
2.36247e-05
2.36216e-05
0.000122121
0.000135542
9.39418e-05
0.000141034
0.000121447
0.000136413
9.43513e-05
9.23771e-05
9.21023e-05
5.00386e-05
9.23755e-05
5.0018e-05
9.20993e-05
5.00328e-05
0.000122253
0.000141982
0.000138283
9.47785e-05
0.000137304
9.44099e-05
0.000123028
0.000122246
0.000141932
0.000138264
9.47518e-05
0.000137289
9.43806e-05
0.000123022
9.24148e-05
5.00602e-05
5.00421e-05
9.27712e-05
9.24122e-05
5.00547e-05
5.00362e-05
9.27661e-05
2.36155e-05
2.36194e-05
2.36145e-05
2.36185e-05
0.00013944
7.42445e-05
7.42359e-05
7.40569e-05
7.40568e-05
2.36237e-05
2.362e-05
2.36227e-05
2.3619e-05
2.36255e-05
2.36263e-05
2.36235e-05
2.36244e-05
7.42658e-05
7.42547e-05
0.000140886
7.42026e-05
7.42041e-05
2.36317e-05
2.36259e-05
2.36295e-05
2.3624e-05
0.000140975
7.39032e-05
7.39094e-05
7.40905e-05
7.40965e-05
9.31408e-05
5.00614e-05
9.28887e-05
5.00637e-05
0.000123966
9.48593e-05
0.000139321
0.000144352
0.000123209
9.50108e-05
0.000140387
0.000123964
9.48779e-05
0.000139323
0.000144384
0.000123206
9.49986e-05
0.000140391
9.31414e-05
5.00635e-05
5.00678e-05
9.29875e-05
9.31385e-05
5.00574e-05
5.00616e-05
9.29835e-05
0.00012405
0.000144899
9.48034e-05
0.000142207
9.49669e-05
0.000141399
0.000124153
0.000124047
0.000144881
9.47445e-05
0.000142188
9.49481e-05
0.000141394
0.000124147
7.42739e-05
7.42891e-05
0.000140932
7.41848e-05
7.41294e-05
2.36244e-05
2.36245e-05
2.36293e-05
2.36234e-05
0.000141001
7.38382e-05
7.3796e-05
7.40513e-05
7.39911e-05
2.36318e-05
2.36241e-05
0.000123963
9.48398e-05
0.00013931
0.000144347
0.000123202
9.50064e-05
0.000140375
9.31399e-05
5.0058e-05
9.28871e-05
5.00607e-05
0.000123961
0.000139313
9.48397e-05
0.000144315
0.000123201
0.000140373
9.4981e-05
9.31404e-05
5.00586e-05
5.0063e-05
9.29884e-05
0.000124047
0.000144902
9.48087e-05
0.000142208
9.49649e-05
0.000141391
0.000124156
9.31375e-05
5.00545e-05
5.00587e-05
9.29836e-05
0.000124045
0.000144854
0.000142199
9.47764e-05
0.000141383
9.49358e-05
0.00012415
9.3131e-05
5.00624e-05
9.28425e-05
5.00643e-05
0.000123933
0.000139314
9.48302e-05
0.000144361
0.000123146
0.000140376
9.50102e-05
9.31369e-05
5.00589e-05
9.2849e-05
5.00621e-05
0.000124023
0.000144837
9.47063e-05
0.000142153
9.49092e-05
0.000141363
0.00012415
9.31291e-05
5.00597e-05
5.0062e-05
9.29822e-05
0.000124028
0.000144918
0.000142209
9.48049e-05
0.000141394
9.49697e-05
0.000124162
9.31365e-05
5.00559e-05
5.00604e-05
9.29933e-05
7.4245e-05
7.42444e-05
0.000140846
7.41672e-05
7.41734e-05
2.36244e-05
2.36254e-05
2.36289e-05
2.36228e-05
0.000140923
7.38776e-05
7.39033e-05
7.4057e-05
7.40701e-05
2.36313e-05
2.36251e-05
0.000123948
0.000139311
9.48189e-05
0.000144351
0.000123183
0.000140375
9.50078e-05
9.31365e-05
5.00626e-05
9.28693e-05
5.00658e-05
9.31349e-05
5.00574e-05
9.28642e-05
5.00609e-05
0.000124037
0.00014487
0.000142222
9.48047e-05
0.00014139
9.49456e-05
0.000124166
0.000124035
0.000144923
0.000142232
9.48176e-05
0.000141399
9.49692e-05
0.000124168
9.31343e-05
5.00604e-05
5.00644e-05
9.29961e-05
9.31328e-05
5.00547e-05
5.00594e-05
9.29959e-05
2.36235e-05
2.36243e-05
2.36224e-05
2.36234e-05
0.000140992
7.39013e-05
7.39128e-05
7.41041e-05
7.41097e-05
2.36292e-05
2.36239e-05
2.36281e-05
2.3623e-05
2.36342e-05
2.36503e-05
2.36319e-05
2.3648e-05
7.38771e-05
7.38794e-05
0.000143718
7.46482e-05
7.46203e-05
2.36526e-05
2.36515e-05
2.36507e-05
2.36493e-05
0.000144656
7.53313e-05
7.5316e-05
7.49002e-05
7.48749e-05
9.26946e-05
5.00592e-05
9.28508e-05
5.0101e-05
0.000123879
9.4716e-05
0.000142682
0.000146827
0.000124073
9.51647e-05
0.000143025
0.000123871
9.46528e-05
0.000142652
0.000146761
0.000124066
9.51549e-05
0.000142998
9.28291e-05
5.01476e-05
5.01211e-05
9.40064e-05
9.28246e-05
5.01422e-05
5.01161e-05
9.40042e-05
0.000124028
0.000148038
9.65372e-05
0.000144954
9.55264e-05
0.000143685
0.000125762
0.000124021
0.000148053
9.65499e-05
0.000144961
9.55343e-05
0.000143673
0.000125762
7.38112e-05
7.3821e-05
0.00014366
7.46527e-05
7.47801e-05
2.36349e-05
2.36507e-05
2.36506e-05
2.36498e-05
0.000144687
7.53504e-05
7.53844e-05
7.49152e-05
7.502e-05
2.36507e-05
2.36514e-05
0.000123878
9.47212e-05
0.000142691
0.000146825
0.000124076
9.51295e-05
0.000143033
9.26928e-05
5.00563e-05
9.28503e-05
5.00976e-05
0.000123876
0.000142687
9.46908e-05
0.000146849
0.000124071
0.000143038
9.51775e-05
9.28194e-05
5.01428e-05
5.01157e-05
9.39971e-05
0.000124021
0.000148022
9.65203e-05
0.000144935
9.54925e-05
0.00014368
0.000125745
9.28199e-05
5.01389e-05
5.01126e-05
9.39974e-05
0.000124023
0.000148067
0.000144951
9.65263e-05
0.000143693
9.55306e-05
0.00012575
9.27385e-05
5.0063e-05
9.28565e-05
5.01084e-05
0.00012392
0.000142693
9.47147e-05
0.000146794
0.000124091
0.000143049
9.51151e-05
9.27254e-05
5.00575e-05
9.2866e-05
5.00985e-05
0.000124127
0.000148196
9.6587e-05
0.000145105
9.57104e-05
0.000143794
0.000125856
9.29086e-05
5.01412e-05
5.01217e-05
9.40326e-05
0.000124085
0.000148022
0.000145017
9.65434e-05
0.00014373
9.54973e-05
0.000125821
9.2875e-05
5.01402e-05
5.01137e-05
9.40249e-05
7.38616e-05
7.38894e-05
0.000143776
7.46544e-05
7.46665e-05
2.36338e-05
2.36495e-05
2.36496e-05
2.36486e-05
0.000144729
7.53234e-05
7.53222e-05
7.49018e-05
7.4906e-05
2.36517e-05
2.36506e-05
0.000123885
0.000142721
9.47281e-05
0.000146794
0.000124089
0.000143058
9.50746e-05
9.26998e-05
5.0062e-05
9.28597e-05
5.01018e-05
9.26947e-05
5.00558e-05
9.28574e-05
5.00947e-05
0.000124027
0.00014809
0.000144964
9.65275e-05
0.000143723
9.5539e-05
0.000125721
0.00012401
0.000147984
0.000144928
9.65116e-05
0.000143687
9.54434e-05
0.000125711
9.28012e-05
5.0144e-05
5.01167e-05
9.39788e-05
9.27921e-05
5.01393e-05
5.01102e-05
9.39738e-05
2.36317e-05
2.36481e-05
2.36304e-05
2.36467e-05
0.000144603
7.53398e-05
7.53164e-05
7.48789e-05
7.48448e-05
2.36508e-05
2.36495e-05
2.36499e-05
2.36482e-05
2.36495e-05
2.36379e-05
2.36477e-05
2.36362e-05
7.53684e-05
7.53558e-05
0.000146574
7.45904e-05
7.46141e-05
2.36465e-05
2.36357e-05
2.36442e-05
2.36338e-05
0.000146229
7.34429e-05
7.34505e-05
7.41561e-05
7.41764e-05
9.44504e-05
5.01423e-05
9.42081e-05
5.0118e-05
0.000127245
9.66338e-05
0.000146722
0.000151954
0.000126297
9.65816e-05
0.000148536
0.000127244
9.66382e-05
0.000146738
0.000151961
0.000126297
9.6553e-05
0.000148544
9.43869e-05
5.01005e-05
5.01097e-05
9.34039e-05
9.43861e-05
5.00945e-05
5.01036e-05
9.3401e-05
0.000127224
0.000151975
9.51496e-05
0.000150171
9.61609e-05
0.000149823
0.000126474
0.000127222
0.000151926
9.50961e-05
0.000150149
9.61023e-05
0.000149816
0.000126468
7.53848e-05
7.53997e-05
0.000146598
7.45303e-05
7.43746e-05
2.36463e-05
2.36351e-05
2.36445e-05
2.3633e-05
0.000146207
7.3385e-05
7.33696e-05
7.40914e-05
7.39769e-05
2.36481e-05
2.36338e-05
0.000127248
9.66234e-05
0.000146699
0.000151959
0.000126281
9.65909e-05
0.000148522
9.44487e-05
5.01391e-05
9.42027e-05
5.01152e-05
0.000127244
0.000146713
9.66207e-05
0.00015195
0.000126283
0.00014853
9.65657e-05
9.43923e-05
5.00958e-05
5.01056e-05
9.3413e-05
0.000127228
0.000151995
9.51611e-05
0.000150195
9.61859e-05
0.000149829
0.000126493
9.43878e-05
5.00912e-05
5.01007e-05
9.34062e-05
0.000127224
0.000151965
0.000150185
9.51226e-05
0.000149829
9.61427e-05
0.000126483
9.44009e-05
5.01406e-05
9.42074e-05
5.0111e-05
0.000127196
0.000146788
9.66454e-05
0.000152007
0.000126337
0.000148579
9.66001e-05
9.4423e-05
5.01403e-05
9.42117e-05
5.01154e-05
0.000127123
0.000151824
9.50312e-05