/*--------------------------------*- C++ -*----------------------------------*\
| =========                 |                                                 |
| \\      /  F ield         | OpenFOAM: The Open Source CFD Toolbox           |
|  \\    /   O peration     | Version:  2312                                  |
|   \\  /    A nd           | Website:  www.openfoam.com                      |
|    \\/     M anipulation  |                                                 |
\*---------------------------------------------------------------------------*/
FoamFile
{
    version     2.0;
    format      ascii;
    arch        "LSB;label=32;scalar=64";
    class       volScalarField;
    location    "250";
    object      p;
}
// * * * * * * * * * * * * * * * * * * * * * * * * * * * * * * * * * * * * * //

dimensions      [0 2 -2 0 0 0 0];

internalField   nonuniform List<scalar> 
42973
(
0.00168597
0.0016859
0.00168797
0.00164995
0.00164982
0.00164982
0.00165188
0.00161418
0.00161414
0.00161412
0.00161621
0.00157828
0.00157806
0.00157808
0.00158011
0.00154287
0.00154286
0.00154284
0.00154486
0.00150681
0.00150658
0.00150661
0.00150869
0.00147228
0.001472
0.00147196
0.00147363
0.00144125
0.00144096
0.00144099
0.0014429
0.00139995
0.00139978
0.00139978
0.00140214
0.00135892
0.00135943
0.00135942
0.00136179
0.00132725
0.00132734
0.00132735
0.00132918
0.00129983
0.001299
0.00129901
0.0013003
0.001271
0.00126996
0.00126996
0.00127126
0.00123901
0.00123835
0.00123836
0.00123998
0.00120416
0.0012039
0.0012039
0.00120582
0.00116791
0.00116784
0.00116784
0.0011699
0.00113128
0.00113128
0.00113128
0.00113338
0.00109469
0.00109467
0.00109467
0.00109676
0.00105815
0.00105811
0.00105811
0.00106019
0.0010216
0.00102157
0.00102157
0.00102365
0.000985042
0.000985013
0.000985013
0.000987099
0.000948472
0.000948445
0.000948445
0.000950531
0.000911895
0.000911868
0.000911868
0.000913955
0.000875313
0.000875285
0.000875285
0.000877374
0.00083873
0.000838703
0.000838703
0.00084079
0.000802146
0.000802118
0.000802119
0.000804206
0.000765564
0.000765537
0.000765536
0.000767625
0.00168797
0.00165671
0.0016859
0.0016859
0.00165884
0.00165884
0.00168797
0.00165671
0.0016859
0.00165884
0.00165884
0.0016859
0.00165884
0.00165884
0.00165671
0.0016859
0.00165884
0.00165884
0.00165671
0.00165188
0.00162099
0.00164982
0.00164982
0.00162301
0.00162301
0.00165188
0.00162099
0.00164982
0.00164982
0.00162301
0.00162301
0.00164982
0.00162301
0.00162301
0.00165188
0.00162099
0.00164983
0.00162301
0.00162301
0.00162098
0.00161621
0.00158497
0.00161412
0.00161413
0.00158716
0.00158716
0.00161622
0.00158496
0.00161412
0.00161413
0.00158717
0.00158716
0.00161412
0.00158715
0.00158717
0.00161621
0.00158497
0.00161412
0.00158716
0.00158717
0.00158498
0.00158011
0.00154951
0.00157808
0.00157807
0.00155147
0.00155148
0.00158009
0.00154952
0.00157808
0.00157808
0.00155147
0.00155147
0.00157807
0.00155149
0.00155146
0.0015801
0.0015495
0.00157808
0.00155146
0.00155146
0.0015495
0.00154487
0.00151377
0.00154284
0.00154286
0.00151603
0.00151602
0.00154489
0.00151376
0.00154284
0.00154284
0.00151603
0.00151604
0.00154284
0.00151601
0.00151604
0.00154487
0.00151378
0.00154283
0.00151604
0.00151605
0.00151378
0.00150868
0.0014778
0.0015066
0.00150659
0.00147976
0.00147977
0.00150867
0.00147782
0.0015066
0.0015066
0.00147976
0.00147975
0.0015066
0.00147978
0.00147975
0.00150869
0.00147778
0.00150661
0.00147974
0.00147974
0.00147778
0.00147365
0.00144765
0.00147198
0.00147199
0.00144968
0.00144967
0.00147366
0.00144764
0.00147198
0.00147197
0.00144969
0.00144969
0.00147198
0.00144966
0.00144968
0.00147362
0.00144765
0.00147196
0.00144967
0.00144967
0.00144765
0.00144289
0.00140813
0.00144097
0.00144097
0.00141078
0.00141078
0.00144288
0.00140814
0.00144098
0.00144099
0.00141078
0.00141079
0.00144098
0.00141078
0.00141078
0.0014429
0.00140814
0.00144098
0.00141079
0.00141078
0.00140813
0.00140214
0.00136673
0.00139978
0.00139978
0.00136854
0.00136854
0.00140214
0.00136673
0.00139978
0.00139978
0.00136854
0.00136853
0.00139978
0.00136854
0.00136854
0.00140214
0.00136672
0.00139978
0.00136853
0.00136853
0.00136672
0.00136179
0.00133323
0.00135943
0.00135943
0.00133483
0.00133483
0.00136179
0.00133323
0.00135943
0.00135942
0.00133483
0.00133483
0.00135943
0.00133483
0.00133483
0.00136179
0.00133323
0.00135942
0.00133483
0.00133483
0.00133323
0.00132919
0.00130419
0.00132735
0.00132735
0.00130614
0.00130614
0.00132918
0.00130419
0.00132735
0.00132735
0.00130614
0.00130614
0.00132735
0.00130614
0.00130614
0.00132919
0.00130419
0.00132735
0.00130614
0.00130614
0.00130419
0.0013003
0.00127526
0.001299
0.001299
0.00127738
0.00127738
0.00130029
0.00127526
0.001299
0.001299
0.00127738
0.00127738
0.001299
0.00127738
0.00127738
0.00130031
0.00127526
0.001299
0.00127737
0.00127738
0.00127526
0.00127126
0.00124442
0.00126996
0.00126996
0.00124655
0.00124655
0.00127126
0.00124442
0.00126996
0.00126996
0.00124656
0.00124656
0.00126996
0.00124655
0.00124655
0.00127126
0.00124443
0.00126996
0.00124655
0.00124655
0.00124442
0.00123998
0.00121062
0.00123836
0.00123836
0.00121272
0.00121272
0.00123998
0.00121061
0.00123836
0.00123836
0.00121272
0.00121272
0.00123835
0.00121272
0.00121272
0.00123998
0.00121062
0.00123835
0.00121272
0.00121272
0.00121061
0.00120582
0.00117486
0.0012039
0.0012039
0.00117694
0.00117694
0.00120582
0.00117486
0.0012039
0.0012039
0.00117694
0.00117694
0.0012039
0.00117694
0.00117694
0.00120582
0.00117486
0.0012039
0.00117694
0.00117694
0.00117486
0.0011699
0.00113836
0.00116784
0.00116784
0.00114043
0.00114043
0.0011699
0.00113836
0.00116784
0.00116784
0.00114043
0.00114043
0.00116784
0.00114043
0.00114043
0.0011699
0.00113836
0.00116784
0.00114043
0.00114043
0.00113836
0.00113338
0.00110175
0.00113128
0.00113128
0.00110382
0.00110382
0.00113338
0.00110175
0.00113128
0.00113128
0.00110382
0.00110382
0.00113128
0.00110382
0.00110382
0.00113338
0.00110175
0.00113128
0.00110382
0.00110382
0.00110175
0.00109676
0.00106517
0.00109467
0.00109467
0.00106725
0.00106725
0.00109676
0.00106517
0.00109467
0.00109467
0.00106725
0.00106725
0.00109467
0.00106725
0.00106725
0.00109676
0.00106517
0.00109467
0.00106725
0.00106725
0.00106517
0.00106019
0.00102863
0.00105811
0.00105811
0.0010307
0.0010307
0.00106019
0.00102863
0.00105811
0.00105811
0.0010307
0.0010307
0.00105811
0.0010307
0.0010307
0.00106019
0.00102863
0.00105811
0.0010307
0.0010307
0.00102863
0.00102365
0.00099208
0.00102157
0.00102157
0.000994154
0.000994154
0.00102365
0.00099208
0.00102157
0.00102157
0.000994154
0.000994154
0.00102157
0.000994154
0.000994154
0.00102365
0.00099208
0.00102157
0.000994154
0.000994154
0.00099208
0.000987099
0.000955513
0.000985013
0.000985013
0.000957588
0.000957588
0.000987099
0.000955513
0.000985013
0.000985013
0.000957588
0.000957588
0.000985013
0.000957588
0.000957588
0.000987099
0.000955513
0.000985013
0.000957588
0.000957588
0.000955513
0.000950531
0.000918938
0.000948445
0.000948445
0.000921013
0.000921013
0.000950531
0.000918938
0.000948444
0.000948445
0.000921013
0.000921013
0.000948445
0.000921013
0.000921013
0.000950531
0.000918938
0.000948445
0.000921013
0.000921013
0.000918937
0.000913954
0.000882356
0.000911868
0.000911868
0.00088443
0.00088443
0.000913954
0.000882357
0.000911868
0.000911868
0.00088443
0.00088443
0.000911868
0.00088443
0.00088443
0.000913954
0.000882357
0.000911868
0.00088443
0.00088443
0.000882356
0.000877373
0.000845774
0.000875285
0.000875285
0.000847849
0.000847849
0.000877373
0.000845774
0.000875285
0.000875285
0.000847849
0.000847849
0.000875285
0.000847849
0.000847849
0.000877373
0.000845774
0.000875285
0.000847849
0.000847849
0.000845773
0.00084079
0.000809189
0.000838703
0.000838703
0.000811264
0.000811264
0.00084079
0.000809189
0.000838703
0.000838703
0.000811264
0.000811265
0.000838703
0.000811264
0.000811265
0.00084079
0.00080919
0.000838703
0.000811265
0.000811265
0.000809189
0.000804205
0.000772607
0.000802118
0.000802118
0.000774681
0.000774681
0.000804205
0.000772608
0.000802118
0.000802119
0.000774681
0.000774681
0.000802119
0.000774681
0.000774681
0.000804205
0.000772607
0.000802119
0.000774681
0.000774681
0.000772607
0.000767624
0.000765536
0.000765537
0.000767624
0.000765536
0.000765536
0.000765537
0.000767624
0.000765537
0.00167449
0.00168794
0.00168795
0.00167447
0.00168793
0.00167446
0.00167449
0.00168794
0.00168795
0.00167447
0.00168597
0.00168597
0.00165895
0.00165895
0.00165895
0.00165895
0.0016746
0.00168792
0.00168594
0.00167689
0.00168794
0.00167453
0.00167695
0.00167446
0.0016746
0.00168595
0.00167689
0.00168795
0.00167695
0.00167453
0.00168793
0.00168793
0.00167478
0.00167446
0.00167446
0.0016385
0.00165193
0.00165195
0.0016385
0.00165194
0.00163854
0.0016385
0.00165193
0.00165195
0.0016385
0.00164994
0.00164995
0.00164995
0.00162308
0.00162308
0.00162308
0.00162308
0.00163859
0.00165192
0.00164992
0.00164084
0.00165196
0.00163854
0.00164092
0.00165195
0.00163854
0.00163859
0.00164992
0.00165193
0.00164084
0.00165196
0.00164093
0.00163854
0.00165199
0.00165199
0.00163875
0.00163853
0.00163853
0.00160281
0.00161618
0.00161615
0.00160273
0.00161613
0.00160267
0.00160281
0.00161617
0.00161615
0.00160273
0.00161419
0.00161418
0.00161418
0.00158733
0.00158732
0.00158733
0.00158733
0.00160294
0.00161614
0.00161413
0.00160522
0.0016161
0.00160282
0.00160522
0.00161612
0.00160268
0.00160293
0.00161412
0.00161612
0.0016052
0.00161609
0.00160521
0.00160283
0.0016161
0.0016161
0.00160312
0.0016027
0.0016027
0.00156682
0.00158022
0.00158024
0.00156687
0.00158025
0.00156697
0.00156682
0.00158022
0.00158024
0.00156687
0.00157826
0.00157828
0.00157828
0.00155154
0.00155155
0.00155154
0.00155154
0.00156685
0.00158022
0.00157823
0.00156905
0.00158025
0.00156685
0.00156919
0.00158026
0.00156696
0.00156686
0.00157825
0.00158023
0.00156906
0.00158027
0.00156921
0.00156684
0.00158031
0.00158031
0.00156694
0.00156694
0.00156693
0.00153166
0.00154485
0.0015448
0.00153148
0.00154482
0.00153134
0.00153166
0.00154485
0.0015448
0.00153148
0.00154289
0.00154287
0.00154287
0.00151619
0.00151617
0.0015162
0.0015162
0.00153186
0.0015448
0.0015428
0.00153423
0.00154474
0.00153163
0.00153412
0.00154481
0.00153134
0.00153184
0.00154278
0.00154478
0.00153421
0.00154471
0.0015341
0.00153165
0.00154478
0.00154477
0.00153226
0.00153135
0.00153135
0.00149531
0.00150891
0.00150892
0.00149558
0.00150887
0.00149581
0.00149531
0.00150891
0.00150893
0.00149557
0.0015068
0.00150682
0.00150682
0.00148019
0.0014802
0.00148017
0.00148018
0.00149512
0.00150889
0.00150679
0.00149717
0.00150888
0.00149533
0.00149745
0.00150887
0.00149581
0.00149513
0.00150682
0.0015089
0.00149719
0.0015089
0.00149746
0.00149531
0.00150895
0.00150894
0.00149479
0.00149577
0.00149576
0.00146198
0.00147412
0.00147394
0.00146177
0.00147423
0.00146161
0.00146198
0.00147412
0.00147394
0.00146177
0.00147229
0.00147227
0.00147227
0.00144956
0.00144957
0.00144957
0.00144957
0.0014624
0.00147395
0.00147212
0.00146453
0.00147378
0.00146215
0.00146457
0.00147423
0.00146162
0.00146236
0.00147208
0.00147393
0.00146448
0.00147374
0.00146453
0.00146214
0.00147414
0.00147413
0.00146291
0.00146177
0.00146176
0.00142745
0.00144034
0.00144086
0.00142709
0.00144016
0.00142693
0.00142745
0.00144034
0.00144087
0.00142709
0.00144125
0.00144126
0.00144126
0.00141085
0.00141085
0.00141086
0.00141085
0.0014282
0.00144083
0.00144109
0.00143146
0.00144168
0.00142758
0.00143164
0.00144009
0.00142692
0.00142821
0.00144111
0.00144082
0.00143149
0.0014417
0.00143166
0.00142757
0.00144026
0.00144024
0.00142905
0.00142708
0.00142707
0.00138852
0.00140358
0.00140328
0.00138895
0.00140373
0.00138911
0.00138853
0.00140357
0.00140328
0.00138895
0.00139996
0.00139995
0.00139995
0.0013682
0.00136821
0.0013682
0.0013682
0.0013875
0.00140312
0.00139984
0.00138866
0.00140271
0.00138836
0.00138875
0.00140374
0.00138911
0.00138748
0.00139984
0.00140311
0.00138865
0.0014027
0.00138874
0.00138836
0.00140357
0.00140356
0.0013862
0.00138896
0.00138896
0.00135028
0.00136439
0.00136401
0.00135052
0.00136451
0.0013506
0.00135029
0.00136439
0.00136402
0.00135053
0.00135892
0.00135892
0.00135892
0.00133462
0.00133462
0.00133462
0.00133462
0.00134979
0.00136385
0.00135913
0.00135081
0.00136305
0.00135022
0.00135058
0.00136451
0.00135061
0.00134979
0.00135912
0.00136385
0.00135081
0.00136305
0.00135058
0.0013502
0.00136438
0.00136438
0.00134916
0.00135051
0.00135053
0.00131788
0.00132947
0.00132941
0.00131787
0.00132949
0.0013179
0.00131789
0.00132947
0.00132942
0.00131787
0.00132724
0.00132725
0.00132724
0.0013065
0.0013065
0.0013065
0.0013065
0.00131821
0.00132941
0.00132735
0.00132017
0.00132933
0.00131799
0.00132021
0.0013295
0.0013179
0.00131821
0.00132736
0.00132941
0.00132017
0.00132932
0.00132021
0.00131799
0.00132949
0.00132949
0.0013186
0.00131789
0.00131789
0.00128876
0.00129944
0.0012995
0.00128869
0.00129944
0.00128867
0.00128876
0.00129944
0.0012995
0.00128869
0.00129983
0.00129983
0.00129983
0.00127847
0.00127847
0.00127847
0.00127847
0.00128918
0.00129958
0.00129935
0.00129183
0.00129982
0.00128887
0.00129221
0.00129944
0.00128867
0.00128918
0.00129935
0.00129958
0.00129183
0.00129982
0.00129221
0.00128887
0.00129945
0.00129945
0.00128975
0.00128866
0.00128866
0.00125952
0.00127062
0.00127071
0.00125943
0.00127057
0.00125938
0.00125952
0.00127062
0.00127071
0.00125943
0.001271
0.001271
0.001271
0.00124732
0.00124732
0.00124732
0.00124732
0.00125984
0.00127074
0.00127032
0.00126236
0.001271
0.00125957
0.0012627
0.00127057
0.00125938
0.00125984
0.00127031
0.00127074
0.00126236
0.001271
0.0012627
0.00125957
0.00127057
0.00127057
0.00126023
0.00125937
0.00125937
0.00122749
0.00123978
0.00123983
0.00122745
0.00123974
0.00122742
0.0012275
0.00123978
0.00123983
0.00122745
0.00123901
0.00123901
0.00123901
0.00121306
0.00121306
0.00121306
0.00121306
0.00122765
0.00123983
0.0012386
0.00122997
0.00123993
0.00122752
0.00123017
0.00123974
0.00122742
0.00122765
0.0012386
0.00123983
0.00122997
0.00123993
0.00123017
0.00122752
0.00123974
0.00123974
0.00122785
0.00122741
0.0012274
0.00119274
0.00120598
0.00120599
0.00119273
0.00120596
0.00119272
0.00119274
0.00120598
0.00120599
0.00119273
0.00120415
0.00120416
0.00120416
0.00117703
0.00117703
0.00117703
0.00117703
0.0011928
0.00120595
0.00120399
0.00119498
0.00120597
0.00119275
0.00119505
0.00120596
0.00119272
0.0011928
0.00120399
0.00120595
0.00119498
0.00120597
0.00119505
0.00119275
0.00120595
0.00120595
0.0011929
0.0011927
0.0011927
0.00115651
0.00117016
0.00117015
0.00115651
0.00117015
0.00115651
0.00115651
0.00117016
0.00117015
0.00115651
0.00116791
0.00116791
0.00116791
0.00114044
0.00114044
0.00114044
0.00114044
0.00115655
0.00117012
0.00116787
0.00115872
0.00117008
0.00115653
0.00115874
0.00117015
0.00115651
0.00115655
0.00116787
0.00117012
0.00115872
0.00117008
0.00115874
0.00115653
0.00117015
0.00117015
0.00115664
0.0011565
0.0011565
0.00111988
0.0011336
0.0011336
0.00111988
0.0011336
0.00111988
0.00111988
0.0011336
0.0011336
0.00111988
0.00113128
0.00113128
0.00113128
0.00110383
0.00110384
0.00110383
0.00110383
0.00111993
0.00113357
0.00113128
0.00112212
0.00113354
0.00111991
0.00112212
0.0011336
0.00111988
0.00111993
0.00113128
0.00113357
0.00112212
0.00113354
0.00112212
0.00111991
0.0011336
0.0011336
0.00112005
0.00111988
0.00111988
0.00108326
0.00109696
0.00109696
0.00108326
0.00109696
0.00108326
0.00108326
0.00109696
0.00109696
0.00108326
0.00109469
0.00109469
0.00109469
0.00106728
0.00106728
0.00106728
0.00106728
0.00108332
0.00109693
0.00109467
0.00108553
0.00109691
0.00108329
0.00108553
0.00109696
0.00108326
0.00108332
0.00109467
0.00109693
0.00108553
0.00109691
0.00108553
0.00108329
0.00109696
0.00109696
0.00108345
0.00108326
0.00108326
0.00104671
0.00106038
0.00106038
0.00104671
0.00106038
0.00104671
0.00104671
0.00106038
0.00106038
0.00104671
0.00105815
0.00105815
0.00105815
0.00103074
0.00103074
0.00103074
0.00103074
0.00104677
0.00106035
0.00105812
0.00104897
0.00106033
0.00104674
0.00104898
0.00106038
0.00104671
0.00104677
0.00105812
0.00106035
0.00104897
0.00106033
0.00104899
0.00104674
0.00106039
0.00106039
0.0010469
0.0010467
0.0010467
0.00101017
0.00102385
0.00102384
0.00101017
0.00102385
0.00101017
0.00101017
0.00102385
0.00102384
0.00101017
0.0010216
0.0010216
0.0010216
0.000994183
0.000994183
0.000994183
0.000994183
0.00101023
0.00102382
0.00102158
0.00101243
0.00102379
0.0010102
0.00101244
0.00102385
0.00101017
0.00101023
0.00102158
0.00102382
0.00101243
0.00102379
0.00101244
0.0010102
0.00102385
0.00102385
0.00101036
0.00101016
0.00101016
0.000973615
0.000987298
0.000987296
0.00097361
0.000987297
0.000973612
0.000973615
0.000987298
0.000987296
0.00097361
0.000985042
0.000985042
0.000985042
0.000957615
0.000957615
0.000957615
0.000957615
0.000973669
0.000987268
0.00098502
0.000975872
0.000987245
0.000973641
0.000975879
0.000987297
0.000973612
0.000973669
0.000985021
0.000987268
0.000975872
0.000987245
0.000975879
0.000973641
0.000987301
0.000987301
0.000973797
0.000973609
0.000973609
0.000937044
0.00095073
0.000950727
0.000937039
0.000950728
0.000937039
0.000937044
0.00095073
0.000950727
0.000937039
0.000948472
0.000948472
0.000948472
0.00092104
0.00092104
0.00092104
0.00092104
0.000937099
0.000950699
0.000948452
0.000939301
0.000950675
0.00093707
0.000939306
0.000950728
0.000937039
0.000937099
0.000948452
0.000950699
0.000939301
0.000950675
0.000939306
0.00093707
0.000950733
0.000950733
0.000937226
0.000937036
0.000937036
0.000900463
0.000914152
0.00091415
0.000900459
0.000914152
0.000900461
0.000900463
0.000914152
0.00091415
0.000900459
0.000911895
0.000911895
0.000911895
0.000884458
0.000884458
0.000884458
0.000884458
0.000900515
0.000914122
0.000911876
0.000902722
0.000914098
0.00090049
0.000902731
0.000914152
0.000900461
0.000900515
0.000911876
0.000914122
0.000902722
0.000914097
0.000902731
0.00090049
0.000914156
0.000914156
0.000900646
0.000900458
0.000900458
0.000863882
0.000877573
0.000877571
0.000863878
0.000877572
0.000863879
0.000863882
0.000877573
0.000877571
0.000863878
0.000875313
0.000875313
0.000875313
0.000847876
0.000847876
0.000847876
0.000847876
0.000863937
0.000877543
0.00087529
0.00086614
0.000877521
0.000863909
0.000866145
0.000877572
0.000863879
0.000863937
0.00087529
0.000877543
0.00086614
0.000877521
0.000866146
0.000863909
0.000877576
0.000877576
0.000864065
0.000863876
0.000863876
0.0008273
0.000840989
0.000840986
0.000827295
0.000840989
0.000827296
0.0008273
0.000840989
0.000840986
0.000827295
0.00083873
0.000838731
0.00083873
0.000811292
0.000811292
0.000811292
0.000811292
0.000827353
0.000840958
0.000838712
0.000829557
0.000840933
0.000827326
0.000829564
0.000840988
0.000827296
0.000827354
0.000838711
0.000840958
0.000829557
0.000840934
0.000829563
0.000827326
0.000840993
0.000840993
0.000827483
0.000827293
0.000827293
0.000790714
0.000804406
0.000804403
0.000790711
0.000804405
0.000790712
0.000790714
0.000804406
0.000804403
0.000790711
0.000802146
0.000802146
0.000802146
0.000774709
0.00077471
0.000774709
0.000774709
0.000790766
0.000804375
0.000802126
0.000792973
0.000804352
0.00079074
0.000792981
0.000804405
0.000790712
0.000790766
0.000802126
0.000804375
0.000792973
0.000804351
0.000792982
0.000790741
0.000804409
0.000804409
0.000790897
0.000790709
0.000790709
0.000767823
0.000767821
0.000767822
0.000754132
0.000767823
0.000767821
0.000765565
0.000765564
0.000765564
0.000767793
0.000765542
0.000767771
0.000767822
0.00075413
0.000754186
0.000765542
0.000767793
0.000756392
0.000767771
0.000756398
0.000754159
0.000767826
0.000767826
0.000754317
0.000754126
0.000754126
0.00168793
0.00167446
0.00168793
0.00167446
0.00168793
0.00168793
0.00167478
0.00167446
0.00167446
0.00165647
0.00166993
0.00165647
0.00166993
0.00166994
0.0016565
0.0016565
0.00166995
0.00166995
0.00167449
0.00168794
0.00168795
0.00167447
0.00167461
0.00168793
0.00168595
0.00167689
0.00168795
0.00167453
0.00167695
0.00167461
0.00168792
0.00168595
0.00167689
0.00168795
0.00167453
0.00167695
0.00166996
0.00165645
0.00166994
0.00165649
0.00166996
0.00165645
0.00166994
0.00165649
0.00166996
0.00166787
0.00165653
0.00165893
0.00166994
0.00166794
0.00165661
0.00166996
0.00166787
0.00165653
0.00165893
0.00166994
0.00166794
0.00165661
0.00168793
0.00168793
0.00167479
0.00167447
0.00167447
0.00168794
0.00167446
0.00165646
0.00166993
0.00166994
0.0016565
0.0016565
0.00166995
0.00166995
0.00165647
0.00166993
0.00167461
0.00168793
0.00168595
0.00167689
0.00168795
0.00167453
0.00167695
0.00167449
0.00167447
0.00167461
0.00167689
0.00167695
0.00167453
0.00166995
0.00165645
0.00166994
0.00165649
0.00166996
0.00166787
0.00165653
0.00165893
0.00166994
0.00166794
0.00165661
0.00166995
0.00165645
0.00166994
0.00165649
0.00166996
0.00166787
0.00165893
0.00165653
0.00166794
0.00166994
0.00165661
0.00167449
0.00168794
0.00168795
0.00167447
0.0016746
0.00168595
0.00168792
0.00167689
0.00168794
0.00167695
0.00167453
0.00167448
0.00168793
0.00168795
0.00167447
0.00166995
0.00166787
0.00165653
0.00165893
0.00166994
0.00166794
0.00165662
0.00166996
0.00165645
0.00166994
0.00165649
0.00166995
0.00166787
0.00165893
0.00165653
0.00166794
0.00166994
0.00165662
0.00166996
0.00165645
0.00166994
0.00165649
0.00167478
0.00167446
0.00167446
0.00167446
0.00165647
0.00166993
0.00166994
0.0016565
0.0016565
0.00166995
0.00166995
0.00165647
0.00166993
0.0016746
0.00168595
0.00168792
0.00167689
0.00168795
0.00167695
0.00167453
0.00167448
0.00168795
0.00167446
0.00167448
0.00168793
0.00168795
0.00167447
0.00166996
0.00166787
0.00165893
0.00165653
0.00166794
0.00166993
0.00165661
0.00166996
0.00166787
0.00165893
0.00165653
0.00166794
0.00166994
0.00165661
0.00166995
0.00165645
0.00166994
0.00165649
0.00166995
0.00165645
0.00166994
0.00165649
0.00168793
0.00167446
0.00168793
0.00167446
0.00166994
0.0016565
0.0016565
0.00166995
0.00166995
0.00165647
0.00166993
0.00165647
0.00166993
0.00165195
0.00163854
0.00165195
0.00163854
0.00165199
0.00165199
0.00163875
0.00163853
0.00163853
0.00162064
0.00163404
0.00162064
0.00163404
0.00163395
0.00162059
0.00162059
0.00163403
0.00163403
0.0016385
0.00165193
0.00165195
0.0016385
0.00163859
0.00165193
0.00164992
0.00164084
0.00165195
0.00163854
0.00164092
0.00163859
0.00165193
0.00164992
0.00164084
0.00165195
0.00163854
0.00164092
0.00163399
0.00162066
0.00163401
0.00162063
0.00163399
0.00162066
0.00163401
0.00162063
0.00163395
0.0016319
0.00162067
0.00162303
0.00163396
0.00163196
0.00162069
0.00163395
0.00163189
0.00162067
0.00162303
0.00163396
0.00163196
0.00162069
0.00165198
0.00165198
0.00163874
0.00163853
0.00163854
0.00165195
0.00163855
0.00162065
0.00163405
0.00163395
0.0016206
0.0016206
0.00163403
0.00163404
0.00162065
0.00163405
0.00163859
0.00165193
0.00164992
0.00164084
0.00165195
0.00163854
0.00164093
0.0016385
0.00165193
0.00165195
0.0016385
0.00163859
0.00164992
0.00165193
0.00164084
0.00165195
0.00164093
0.00163854
0.00163399
0.00162066
0.00163401
0.00162063
0.00163395
0.0016319
0.00162066
0.00162303
0.00163396
0.00163196
0.00162069
0.00163399
0.00162066
0.00163401
0.00162063
0.00163395
0.0016319
0.00162303
0.00162067
0.00163196
0.00163396
0.00162069
0.0016385
0.00165193
0.00165195
0.0016385
0.00163859
0.00164992
0.00165193
0.00164084
0.00165196
0.00164093
0.00163854
0.0016385
0.00165193
0.00165195
0.0016385
0.00163395
0.0016319
0.00162068
0.00162303
0.00163397
0.00163196
0.00162069
0.00163398
0.00162066
0.00163401
0.00162063
0.00163395
0.0016319
0.00162303
0.00162067
0.00163196
0.00163396
0.00162069
0.00163398
0.00162066
0.001634
0.00162063
0.00165199
0.00165199
0.00163875
0.00163853
0.00163854
0.00165195
0.00163854
0.00162064
0.00163404
0.00163396
0.00162059
0.00162059
0.00163403
0.00163403
0.00162064
0.00163404
0.00163859
0.00164992
0.00165193
0.00164084
0.00165196
0.00164093
0.00163854
0.0016385
0.00165193
0.00165195
0.0016385
0.0016385
0.00165193
0.00165195
0.0016385
0.00163395
0.0016319
0.00162303
0.00162066
0.00163196
0.00163397
0.00162069
0.00163395
0.0016319
0.00162303
0.00162066
0.00163196
0.00163396
0.00162069
0.00163399
0.00162066
0.00163401
0.00162063
0.00163399
0.00162066
0.001634
0.00162063
0.00165195
0.00163854
0.00165195
0.00163854
0.00163395
0.00162059
0.00162059
0.00163403
0.00163402
0.00162065
0.00163404
0.00162065
0.00163404
0.00161613
0.00160267
0.00161613
0.00160268
0.00161609
0.00161609
0.00160311
0.0016027
0.0016027
0.00158476
0.00159817
0.00158476
0.00159817
0.00159827
0.00158482
0.00158482
0.00159821
0.00159822
0.00160281
0.00161618
0.00161615
0.00160273
0.00160293
0.00161613
0.00161412
0.0016052
0.0016161
0.00160284
0.00160521
0.00160294
0.00161613
0.00161412
0.00160521
0.0016161
0.00160283
0.00160522
0.00159829
0.00158473
0.0015982
0.00158478
0.00159829
0.00158473
0.00159819
0.00158478
0.00159834
0.00159622
0.00158483
0.00158729
0.00159825
0.00159629
0.00158495
0.00159834
0.00159623
0.00158483
0.00158729
0.00159825
0.00159629
0.00158495
0.0016161
0.00161609
0.00160313
0.00160269
0.00160269
0.00161611
0.00160267
0.00158475
0.00159817
0.00159827
0.00158481
0.00158481
0.00159821
0.0015982
0.00158476
0.00159817
0.00160293
0.00161612
0.00161412
0.0016052
0.00161609
0.00160284
0.00160521
0.00160281
0.00161617
0.00161615
0.00160273
0.00160293
0.00161412
0.00161613
0.0016052
0.0016161
0.00160521
0.00160283
0.00159829
0.00158473
0.0015982
0.00158479
0.00159834
0.00159622
0.00158483
0.00158729
0.00159825
0.00159629
0.00158496
0.00159829
0.00158473
0.0015982
0.00158479
0.00159834
0.00159622
0.00158729
0.00158483
0.00159629
0.00159825
0.00158496
0.00160281
0.00161617
0.00161615
0.00160272
0.00160294
0.00161412
0.00161613
0.00160521
0.0016161
0.00160522
0.00160284
0.00160281
0.00161618
0.00161615
0.00160273
0.00159834
0.00159622
0.00158482
0.00158728
0.00159824
0.00159629
0.00158494
0.00159828
0.00158474
0.00159819
0.00158478
0.00159834
0.00159623
0.00158729
0.00158483
0.00159629
0.00159825
0.00158495
0.00159829
0.00158473
0.0015982
0.00158478
0.00161609
0.00161609
0.00160311
0.0016027
0.0016027
0.00161612
0.00160268
0.00158476
0.00159817
0.00159826
0.00158482
0.00158482
0.00159821
0.00159822
0.00158476
0.00159817
0.00160293
0.00161412
0.00161612
0.0016052
0.00161609
0.00160521
0.00160284
0.00160281
0.00161617
0.00161614
0.00160273
0.00160281
0.00161617
0.00161614
0.00160273
0.00159834
0.00159622
0.00158729
0.00158484
0.00159629
0.00159825
0.00158496
0.00159834
0.00159623
0.00158729
0.00158484
0.00159629
0.00159826
0.00158496
0.00159829
0.00158474
0.0015982
0.00158479
0.00159829
0.00158473
0.0015982
0.00158479
0.00161614
0.00160268
0.00161614
0.00160268
0.00159827
0.00158481
0.00158482
0.00159821
0.00159822
0.00158475
0.00159817
0.00158475
0.00159817
0.00158025
0.00156696
0.00158025
0.00156696
0.00158032
0.00158032
0.00156695
0.00156694
0.00156693
0.00154927
0.00156249
0.00154927
0.00156249
0.00156221
0.00154921
0.00154921
0.00156246
0.00156246
0.00156682
0.00158022
0.00158024
0.00156688
0.00156685
0.00158023
0.00157824
0.00156906
0.00158026
0.00156684
0.00156921
0.00156685
0.00158022
0.00157824
0.00156905
0.00158026
0.00156685
0.0015692
0.00156234
0.00154926
0.00156243
0.0015492
0.00156234
0.00154926
0.00156244
0.0015492
0.00156223
0.00156019
0.00154924
0.00155147
0.00156232
0.00156026
0.0015492
0.00156223
0.00156019
0.00154925
0.00155148
0.00156233
0.00156027
0.0015492
0.00158031
0.00158032
0.00156694
0.00156694
0.00156696
0.00158027
0.001567
0.00154928
0.00156251
0.00156221
0.00154922
0.00154922
0.00156248
0.00156248
0.00154927
0.00156251
0.00156686
0.00158023
0.00157824
0.00156906
0.00158026
0.00156685
0.00156921
0.00156682
0.00158022
0.00158024
0.00156687
0.00156686
0.00157824
0.00158023
0.00156906
0.00158026
0.00156921
0.00156684
0.00156234
0.00154926
0.00156242
0.00154919
0.00156223
0.00156019
0.00154924
0.00155147
0.00156232
0.00156027
0.0015492
0.00156234
0.00154925
0.00156243
0.00154919
0.00156223
0.00156019
0.00155147
0.00154923
0.00156026
0.00156232
0.0015492
0.00156682
0.00158023
0.00158024
0.00156687
0.00156685
0.00157824
0.00158022
0.00156905
0.00158025
0.0015692
0.00156683
0.00156682
0.00158022
0.00158024
0.00156687
0.00156223
0.00156019
0.00154925
0.00155148
0.00156233
0.00156026
0.00154921
0.00156234
0.00154926
0.00156244
0.0015492
0.00156223
0.00156018
0.00155147
0.00154924
0.00156026
0.00156232
0.00154921
0.00156234
0.00154926
0.00156243
0.0015492
0.00158032
0.00158032
0.00156695
0.00156694
0.00156694
0.00158026
0.00156696
0.00154927
0.00156249
0.00156221
0.00154921
0.00154921
0.00156247
0.00156246
0.00154927
0.00156249
0.00156686
0.00157825
0.00158023
0.00156906
0.00158027
0.00156921
0.00156684
0.00156682
0.00158022
0.00158025
0.00156687
0.00156682
0.00158022
0.00158025
0.00156687
0.00156223
0.00156019
0.00155146
0.00154923
0.00156026
0.00156231
0.00154918
0.00156223
0.00156018
0.00155146
0.00154923
0.00156026
0.00156231
0.00154918
0.00156233
0.00154925
0.00156242
0.00154919
0.00156233
0.00154925
0.00156243
0.00154919
0.00158025
0.00156696
0.00158025
0.00156696
0.0015622
0.00154921
0.00154921
0.00156247
0.00156247
0.00154928
0.0015625
0.00154927
0.0015625
0.00154481
0.00153134
0.00154482
0.00153135
0.00154477
0.00154477
0.00153225
0.00153135
0.00153135
0.00151341
0.00152681
0.00151341
0.00152684
0.00152739
0.00151346
0.00151346
0.00152685
0.00152686
0.00153166
0.00154486
0.0015448
0.00153148
0.00153185
0.00154479
0.00154279
0.00153421
0.00154473
0.00153165
0.00153411
0.00153185
0.00154479
0.00154279
0.00153422
0.00154473
0.00153165
0.00153411
0.00152714
0.00151347
0.00152697
0.00151352
0.00152713
0.00151346
0.00152696
0.00151352
0.00152729
0.0015253
0.00151356
0.00151614
0.00152706
0.00152527
0.00151369
0.00152729
0.0015253
0.00151356
0.00151613
0.00152706
0.00152527
0.00151369
0.00154477
0.00154477
0.00153226
0.00153135
0.00153134
0.00154479
0.00153134
0.00151341
0.00152682
0.00152739
0.00151346
0.00151346
0.00152685
0.00152685
0.00151342
0.00152683
0.00153185
0.00154478
0.00154279
0.00153421
0.00154472
0.00153165
0.00153411
0.00153166
0.00154484
0.0015448
0.00153148
0.00153185
0.00154279
0.00154478
0.00153421
0.00154472
0.00153411
0.00153165
0.00152713
0.00151347
0.00152695
0.00151352
0.00152729
0.0015253
0.00151356
0.00151614