/*--------------------------------*- C++ -*----------------------------------*\
| =========                 |                                                 |
| \\      /  F ield         | OpenFOAM: The Open Source CFD Toolbox           |
|  \\    /   O peration     | Version:  2312                                  |
|   \\  /    A nd           | Website:  www.openfoam.com                      |
|    \\/     M anipulation  |                                                 |
\*---------------------------------------------------------------------------*/
FoamFile
{
    version     2.0;
    format      ascii;
    arch        "LSB;label=32;scalar=64";
    class       surfaceScalarField;
    location    "250";
    object      phi;
}
// * * * * * * * * * * * * * * * * * * * * * * * * * * * * * * * * * * * * * //

dimensions      [0 3 -1 0 0 0 0];

oriented        oriented;

internalField   nonuniform List<scalar> 
124041
(
-2.26185e-07
-2.26418e-07
2.00261e-07
1.99734e-07
0.00119122
-1.25124e-06
2.22746e-07
8.02516e-08
0.00114025
-2.59011e-07
1.21563e-06
2.22588e-07
8.57407e-07
-2.43459e-07
-8.9648e-07
2.01479e-07
1.28039e-06
1.24306e-06
-2.37403e-07
-2.40371e-07
0.000269433
-1.81593e-07
-1.81487e-07
-0.00119135
1.64958e-07
1.65689e-07
0.00119138
-0.00113982
-1.23076e-06
1.79482e-07
1.84954e-08
0.0011397
-2.32897e-07
1.23316e-06
2.46565e-07
8.51092e-07
-2.45023e-07
-8.99637e-07
1.99354e-07
-0.00113968
-1.22729e-06
1.7892e-07
2.46047e-08
0.00113956
-2.29542e-07
1.23061e-06
2.43609e-07
8.51424e-07
-2.44508e-07
-8.99005e-07
1.99556e-07
-0.000271338
1.26033e-06
1.2232e-06
-2.2356e-07
-2.2617e-07
0.000269305
-1.74715e-07
-1.73274e-07
-0.0011914
1.74523e-07
1.75689e-07
0.0011914
-0.00113924
-1.25169e-06
1.84727e-07
1.0462e-07
0.00113907
-2.65903e-07
1.20543e-06
2.11471e-07
8.69589e-07
-2.25512e-07
-8.72877e-07
2.10445e-07
-0.00113911
-1.24919e-06
1.76155e-07
1.05514e-07
0.00113894
-2.62578e-07
1.203e-06
2.10054e-07
8.71696e-07
-2.2414e-07
-8.713e-07
2.12296e-07
-0.000271197
1.27875e-06
1.24265e-06
-2.35777e-07
-2.3774e-07
0.000269149
-1.27692e-07
-1.30043e-07
-0.00119145
1.32193e-07
1.29745e-07
0.00119144
-0.00113866
-1.20914e-06
1.13671e-07
-4.53238e-08
0.00113858
-2.10198e-07
1.24757e-06
2.64613e-07
8.52894e-07
-2.37634e-07
-8.92528e-07
2.02648e-07
-0.00113853
-1.20625e-06
1.28559e-07
-3.28953e-08
0.00113843
-2.08122e-07
1.24447e-06
2.60494e-07
8.48739e-07
-2.40497e-07
-8.95971e-07
1.99482e-07
-0.000271064
1.24071e-06
1.20161e-06
-2.0925e-07
-2.13593e-07
0.000269045
-9.29327e-08
-8.85165e-08
-0.00119123
1.24988e-07
1.29776e-07
0.00119115
-0.00113813
-1.23938e-06
1.06998e-07
1.11368e-07
0.00113792
-2.60692e-07
1.19959e-06
1.99007e-07
8.92761e-07
-1.92266e-07
-8.41679e-07
2.37075e-07
-0.001138
-1.23639e-06
8.65905e-08
1.08682e-07
0.00113779
-2.5676e-07
1.19711e-06
1.97569e-07
8.98248e-07
-1.87999e-07
-8.36969e-07
2.41906e-07
-0.000270975
1.26471e-06
1.23057e-06
-2.21242e-07
-2.21361e-07
0.000268922
-1.06906e-07
-1.11089e-07
-0.0011912
1.23102e-07
1.18085e-07
0.00119118
-0.00113752
-1.20798e-06
9.57447e-08
-7.69269e-08
0.00113751
-2.1098e-07
1.25388e-06
2.79008e-07
8.41615e-07
-2.5005e-07
-8.93395e-07
1.7828e-07
-0.00113738
-1.20587e-06
1.16104e-07
-6.15016e-08
0.00113736
-2.09662e-07
1.25032e-06
2.74623e-07
8.3643e-07
-2.53489e-07
-8.98169e-07
1.74286e-07
-0.000270782
1.24081e-06
1.20032e-06
-2.19753e-07
-2.25435e-07
0.000268786
3.51684e-07
3.56163e-07
-0.00119038
-1.64774e-07
-1.60298e-07
0.00118999
-0.00113718
-1.12064e-06
-3.43451e-07
-1.7883e-07
0.00113686
-1.33872e-07
1.30117e-06
3.10467e-07
9.86069e-07
-9.27946e-08
-7.46146e-07
3.44542e-07
-0.00113704
-1.11783e-06
-3.62189e-07
-1.81957e-07
0.00113672
-1.30853e-07
1.29844e-06
3.08081e-07
9.90318e-07
-8.99916e-08
-7.42263e-07
3.47538e-07
-0.000270921
1.14633e-06
1.11292e-06
-1.13465e-07
-1.12976e-07
0.000268888
-3.47449e-07
-3.48469e-07
-0.00118928
3.73133e-07
3.72531e-07
0.00118923
-0.00113526
-1.26462e-06
3.41323e-07
2.15805e-07
0.0011348
-2.69284e-07
1.16483e-06
1.85575e-07
8.70483e-07
-1.72721e-07
-8.36487e-07
2.31223e-07
-0.00113515
-1.26132e-06
3.51899e-07
2.26152e-07
0.00113467
-2.65884e-07
1.16276e-06
1.83478e-07
8.682e-07
-1.74013e-07
-8.38445e-07
2.29845e-07
-0.000270366
1.29529e-06
1.25575e-06
-2.21803e-07
-2.26698e-07
0.000268263
-2.17629e-07
-2.19775e-07
-0.00118959
1.3131e-07
1.28498e-07
0.00118977
-0.00113491
-1.26895e-06
2.20179e-07
4.60816e-08
0.00113547
-2.97942e-07
1.17421e-06
1.68793e-07
7.22837e-07
-3.70493e-07
-1.0078e-06
5.09615e-08
-0.00113475
-1.26673e-06
2.22134e-07
5.25277e-08
0.00113531
-2.95984e-07
1.17071e-06
1.65071e-07
7.23299e-07
-3.705e-07
-1.00762e-06
5.11233e-08
-0.000270242
1.2978e-06
1.26094e-06
-3.13101e-07
-3.15732e-07
0.000268312
1.50051e-07
1.5216e-07
-0.00119027
-1.96328e-07
-1.94311e-07
0.00119036
-0.00113756
-1.22481e-06
-1.49316e-07
-6.07296e-08
0.001138
-2.55222e-07
1.22318e-06
2.19839e-07
8.33483e-07
-2.81667e-07
-9.14293e-07
1.65824e-07
-0.00113742
-1.22219e-06
-1.55525e-07
-5.72579e-08
0.00113786
-2.52378e-07
1.22036e-06
2.17231e-07
8.34048e-07
-2.81194e-07
-9.13574e-07
1.66288e-07
-0.000271052
1.25314e-06
1.21741e-06
-2.6073e-07
-2.62602e-07
0.000269105
4.65189e-07
4.6587e-07
-0.00118993
-2.38377e-07
-2.38434e-07
0.00118947
-0.00113788
-1.09776e-06
-4.69686e-07
-2.58559e-07
0.00113743
-1.10839e-07
1.338e-06
3.49024e-07
1.03983e-06
-3.80526e-08
-6.87801e-07
3.86764e-07
-0.00113775
-1.0945e-06
-4.66764e-07
-2.53008e-07
0.00113729
-1.07502e-07
1.33584e-06
3.46892e-07
1.03918e-06
-3.84033e-08
-6.8829e-07
3.86367e-07
-0.00027117
1.12686e-06
1.0888e-06
-8.3507e-08
-8.67402e-08
0.000269124
1.07079e-06
1.07168e-06
-0.00118706
-5.54244e-07
-5.55882e-07
0.00118603
-0.00113565
-1.00043e-06
-1.07199e-06
-4.37123e-07
0.00113514
-2.47108e-08
1.41064e-06
4.12724e-07
1.15925e-06
9.43456e-08
-5.40818e-07
5.01654e-07
-0.0011355
-9.98088e-07
-1.07002e-06
-4.29922e-07
0.00113499
-2.20783e-08
1.40746e-06
4.09605e-07
1.15888e-06
9.4101e-08
-5.4108e-07
5.01354e-07
-0.000270788
1.02983e-06
9.92451e-07
6.8579e-09
3.8257e-09
0.000268755
1.12963e-06
1.13162e-06
-0.00118307
-7.19721e-07
-7.20187e-07
0.00118224
-0.00113416
-1.02455e-06
-1.12871e-06
-4.26092e-07
0.00113401
-5.27833e-08
1.37375e-06
3.77503e-07
1.10776e-06
5.59025e-08
-5.80526e-07
4.49492e-07
-0.00113402
-1.02206e-06
-1.13024e-06
-4.20876e-07
0.00113386
-5.01323e-08
1.37076e-06
3.74618e-07
1.10795e-06
5.59906e-08
-5.80265e-07
4.49603e-07
-0.00027065
1.05354e-06
1.01676e-06
-3.54691e-08
-3.77533e-08
0.000268653
7.15929e-07
7.17209e-07
-0.00118044
-5.19954e-07
-5.20438e-07
0.00118005
-0.00113391
-1.10197e-06
-7.16804e-07
-2.827e-07
0.00113397
-1.26051e-07
1.29904e-06
3.08318e-07
9.88764e-07
-6.1972e-08
-7.05158e-07
3.33607e-07
-0.00113377
-1.09917e-06
-7.17412e-07
-2.77443e-07
0.00113383
-1.23276e-07
1.29634e-06
3.05581e-07
9.88864e-07
-6.19036e-08
-7.04962e-07
3.33706e-07
-0.000270748
1.13085e-06
1.09384e-06
-1.19292e-07
-1.21847e-07
0.000268764
3.01128e-07
3.013e-07
-0.00117936
-2.45356e-07
-2.46358e-07
0.00117924
-0.00113426
-1.16703e-06
-3.0274e-07
-1.2505e-07
0.00113437
-1.88614e-07
1.24085e-06
2.52582e-07
8.98761e-07
-1.6011e-07
-8.04679e-07
2.45769e-07
-0.00113412
-1.16417e-06
-3.01797e-07
-1.19318e-07
0.00113423
-1.85713e-07
1.2382e-06
2.49952e-07
8.9855e-07
-1.60171e-07
-8.04768e-07
2.45667e-07
-0.000270912
1.196e-06
1.15885e-06
-1.81825e-07
-1.84578e-07
0.000268924
6.6781e-08
6.68089e-08
-0.00117912
-6.58539e-08
-6.6347e-08
0.00117912
-0.00113462
-1.19957e-06
-6.73426e-08
-3.15237e-08
0.00113468
-2.18484e-07
1.21318e-06
2.26786e-07
8.59339e-07
-2.03327e-07
-8.50232e-07
2.08013e-07
-0.00113448
-1.19687e-06
-6.67872e-08
-2.55373e-08
0.00113454
-2.15786e-07
1.21033e-06
2.2393e-07
8.59248e-07
-2.03352e-07
-8.50211e-07
2.07959e-07
-0.000271024
1.22853e-06
1.19152e-06
-2.09119e-07
-2.11813e-07
0.000269025
-1.15844e-08
-1.1313e-08
-0.00117916
3.84612e-09
3.979e-09
0.00117917
-0.00113476
-1.20897e-06
1.16554e-08
2.80175e-09
0.00113478
-2.26449e-07
1.20579e-06
2.20337e-07
8.52088e-07
-2.11527e-07
-8.5962e-07
2.01452e-07
-0.00113463
-1.20631e-06
1.15143e-08
8.4169e-09
0.00113463
-2.23765e-07
1.20292e-06
2.17493e-07
8.52053e-07
-2.11512e-07
-8.59555e-07
2.01443e-07
-0.000271059
1.2378e-06
1.20093e-06
-2.14473e-07
-2.17082e-07
0.000269052
-8.16079e-09
-7.82011e-09
-0.00117919
8.75466e-09
9.0632e-09
0.00117919
-0.00113475
-1.20729e-06
8.15232e-09
2.413e-09
0.00113475
-2.24798e-07
1.20749e-06
2.2196e-07
8.55619e-07
-2.07881e-07
-8.55941e-07
2.04971e-07
-0.00113462
-1.20453e-06
7.90323e-09
7.71052e-09
0.00113461
-2.2202e-07
1.20474e-06
2.19211e-07
8.55595e-07
-2.07886e-07
-8.55869e-07
2.04947e-07
-0.000271053
1.23614e-06
1.19922e-06
-2.12011e-07
-2.14662e-07
0.000269045
7.25796e-09
7.507e-09
-0.00117917
-3.26295e-09
-3.13242e-09
0.00117916
-0.00113472
-1.20512e-06
-7.53221e-09
-4.42382e-09
0.00113472
-2.22832e-07
1.20928e-06
2.23623e-07
8.57719e-07
-2.05516e-07
-8.53376e-07
2.06908e-07
-0.00113458
-1.20236e-06
-7.51948e-09
1.20355e-09
0.00113458
-2.20049e-07
1.20651e-06
2.2087e-07
8.57664e-07
-2.05513e-07
-8.53342e-07
2.06892e-07
-0.000271045
1.23401e-06
1.19702e-06
-2.10407e-07
-2.131e-07
0.000269038
9.04545e-09
9.14873e-09
-0.00117914
-6.67719e-09
-6.79471e-09
0.00117914
-0.00113471
-1.2051e-06
-9.15926e-09
-5.7251e-09
0.00113472
-2.22825e-07
1.20917e-06
2.23538e-07
8.57163e-07
-2.0599e-07
-8.53858e-07
2.06392e-07
-0.00113458
-1.20237e-06
-9.17797e-09
1.15646e-10
0.00113458
-2.20071e-07
1.20637e-06
2.20762e-07
8.57102e-07
-2.05992e-07
-8.53824e-07
2.06369e-07
-0.000271045
1.23399e-06
1.197e-06
-2.10668e-07
-2.13361e-07
0.000269038
4.97197e-09
5.15361e-09
-0.00117913
-4.47779e-09
-4.5311e-09
0.00117913
-0.00113472
-1.2058e-06
-5.18858e-09
-4.13622e-09
0.00113472
-2.23514e-07
1.20854e-06
2.229e-07
8.56343e-07
-2.06882e-07
-8.54746e-07
2.05551e-07
-0.00113458
-1.20304e-06
-5.16172e-09
1.52611e-09
0.00113458
-2.20735e-07
1.20577e-06
2.20146e-07
8.56278e-07
-2.0689e-07
-8.54715e-07
2.05525e-07
-0.000271047
1.23468e-06
1.19768e-06
-2.11293e-07
-2.1399e-07
0.00026904
2.3149e-09
2.53122e-09
-0.00117913
-2.18821e-09
-2.16145e-09
0.00117913
-0.00113472
-1.20623e-06
-2.63216e-09
-2.65788e-09
0.00113473
-2.23873e-07
1.20815e-06
2.22588e-07
8.56046e-07
-2.07276e-07
-8.5515e-07
2.052e-07
-0.00113458
-1.20348e-06
-2.50948e-09
2.88948e-09
0.00113459
-2.21111e-07
1.20538e-06
2.19819e-07
8.55974e-07
-2.07276e-07
-8.55123e-07
2.05182e-07
-0.000271049
1.23513e-06
1.19813e-06
-2.11648e-07
-2.1434e-07
0.000269041
1.49778e-09
1.64602e-09
-0.00117913
-1.52946e-09
-1.58113e-09
0.00117913
-0.00113472
-1.20613e-06
-1.73936e-09
-3.09068e-09
0.00113473
-2.23817e-07
1.20826e-06
2.22641e-07
8.55753e-07
-2.07378e-07
-8.55431e-07
2.05106e-07
-0.00113458
-1.20341e-06
-1.67667e-09
2.59227e-09
0.00113459
-2.21071e-07
1.20546e-06
2.1985e-07
8.55691e-07
-2.0738e-07
-8.55393e-07
2.05083e-07
-0.000271048
1.23505e-06
1.19807e-06
-2.11598e-07
-2.14286e-07
0.000269041
1.05571e-09
1.26284e-09
-0.00117913
-1.2347e-09
-1.18485e-09
0.00117913
-0.00113472
-1.20643e-06
-1.35066e-09
-2.11544e-09
0.00113473
-2.24046e-07
1.20801e-06
2.22456e-07
8.55783e-07
-2.07536e-07
-8.55409e-07
2.05002e-07
-0.00113459
-1.20369e-06
-1.28958e-09
3.39679e-09
0.00113459
-2.21279e-07
1.20524e-06
2.19697e-07
8.55708e-07
-2.07541e-07
-8.55378e-07
2.04974e-07
-0.000271049
1.23531e-06
1.19832e-06
-2.11811e-07
-2.14504e-07
0.000269042
9.80361e-10
1.15101e-09
-0.00117913
-1.10663e-09
-1.112e-09
0.00117913
-0.00113472
-1.20636e-06
-1.17287e-09
-2.23496e-09
0.00113473
-2.24035e-07
1.20802e-06
2.22436e-07
8.55795e-07
-2.07464e-07
-8.55416e-07
2.05026e-07
-0.00113459
-1.20362e-06
-1.14398e-09
3.40838e-09
0.00113459
-2.21282e-07
1.20523e-06
2.19653e-07
8.55749e-07
-2.07472e-07
-8.55369e-07
2.05005e-07
-0.000271049
1.23524e-06
1.19828e-06
-2.11774e-07
-2.14452e-07
0.000269042
1.3244e-09
1.49773e-09
-0.00117913
-1.43352e-09
-1.42856e-09
0.00117913
-0.00113472
-1.20618e-06
-1.3928e-09
-2.84278e-09
0.00113473
-2.23872e-07
1.20825e-06
2.22608e-07
8.55656e-07
-2.07518e-07
-8.55533e-07
2.0501e-07
-0.00113459
-1.20348e-06
-1.43411e-09
2.88995e-09
0.00113459
-2.21155e-07
1.20542e-06
2.1979e-07
8.55613e-07
-2.07498e-07
-8.55481e-07
2.04998e-07
-0.000271049
1.23509e-06
1.19812e-06
-2.11672e-07
-2.14339e-07
0.000269042
1.46811e-09
1.84833e-09
-0.00117913
-1.6009e-09
-1.48411e-09
-0.00113472
-1.2063e-06
-1.57766e-09
-2.46609e-09
-2.23901e-07
1.20813e-06
2.22588e-07
8.55881e-07
-2.07381e-07
-8.55275e-07
2.05145e-07
-0.00113459
-1.2035e-06
-1.53103e-09
2.95769e-09
0.00113459
-2.21089e-07
1.2054e-06
2.19878e-07
8.55803e-07
-2.0739e-07
-8.55255e-07
2.05119e-07
-0.000271049
1.23517e-06
1.19819e-06
-2.11667e-07
-2.14336e-07
0.000269042
1.29173e-06
1.2491e-06
-2.35279e-07
-2.43116e-07
0.000269487
-1.26952e-06
-1.22686e-06
0.00027141
-0.000269383
2.30642e-07
2.38518e-07
8.72816e-08
0.00113968
-2.6197e-07
1.25552e-06
2.25248e-07
8.58558e-07
-2.42081e-07
-9.00574e-07
1.9745e-07
-1.28822e-06
2.24728e-07
8.52823e-08
0.00113975
-2.64133e-07
1.25355e-06
2.28453e-07
8.64156e-07
-2.44209e-07
-9.05504e-07
2.00768e-07
0.00113926
1.97938e-07
-0.00113939
4.09061e-08
-1.27645e-06
2.45935e-07
-2.42085e-07
-9.03076e-07
1.92759e-07
-2.44414e-07
8.51993e-07
1.26603e-06
0.00113932
2.01291e-07
-0.00113946
4.4242e-08
-1.27506e-06
2.47846e-07
-2.46316e-07
-9.08597e-07
1.94716e-07
-2.47718e-07
8.56748e-07
-2.37491e-07
-2.39285e-07
0.000269473
-1.22837e-06
0.000271393
-0.000269367
2.32467e-07
2.35102e-07
8.6416e-08
0.00114069
-2.59292e-07
1.21296e-06
2.2273e-07
8.61304e-07
-2.44807e-07
-9.03044e-07
2.00355e-07
0.00114027
1.96738e-07
-0.0011404
4.154e-08
-1.23405e-06
2.43404e-07
-2.39491e-07
-9.05485e-07
1.95852e-07
-2.46878e-07
8.54827e-07
1.2621e-06
0.0011392
1.96629e-07
-0.00113933
3.8891e-08
-1.26771e-06
2.49614e-07
-2.44039e-07
-9.05878e-07
1.9277e-07
-2.44553e-07
8.54397e-07
2.24917e-07
8.64638e-08
0.00113925
-2.6148e-07
1.24473e-06
2.25641e-07
8.53195e-07
-2.39291e-07
1.95003e-07
-8.94923e-07
2.00293e-07
-0.00113995
4.96166e-08
-1.23782e-06
2.42246e-07
-2.40945e-07
-9.00822e-07
1.94797e-07
8.48518e-07
-2.47817e-07
1.25781e-06
0.00113882
1.98324e-07
-0.00113896
4.31395e-08
-1.26595e-06
2.45099e-07
-2.42865e-07
-8.97251e-07
1.90029e-07
-2.4156e-07
8.46446e-07
-1.22728e-06
0.000271369
-0.000269352
2.33872e-07
2.38973e-07
2.26323e-07
8.47088e-08
0.00114025
-2.58632e-07
1.2079e-06
2.23295e-07
8.58292e-07
-2.44903e-07
2.00263e-07
-9.00291e-07
1.94713e-07
-0.00113982
3.84353e-08
-1.23325e-06
2.41427e-07
-2.35871e-07
-8.99984e-07
1.96001e-07
8.49516e-07
-2.46708e-07
1.22063e-06
0.00113982
1.96755e-07
-0.00113996
4.34064e-08
-1.22894e-06
2.42534e-07
-2.40228e-07
-9.02205e-07
1.95994e-07
-2.46563e-07
8.52237e-07
-0.000269328
2.32564e-07
2.35473e-07
1.2708e-06
1.22822e-06
-2.20483e-07
-2.28246e-07
0.00026936
-1.24983e-06
-1.20727e-06
0.000271268
-0.000269256
2.18513e-07
2.26514e-07
2.83955e-08
0.00113913
-2.35964e-07
1.27259e-06
2.48082e-07
8.53873e-07
-2.42322e-07
-9.02159e-07
1.96254e-07
-1.26795e-06
1.8267e-07
2.57512e-08
0.00113919
-2.38362e-07
1.2709e-06
2.52023e-07
8.58636e-07
-2.45666e-07
-9.07793e-07
1.98363e-07
0.00113869
1.61295e-07
-0.00113885
8.71175e-08
-1.28598e-06
2.15217e-07
-2.6391e-07
-8.75854e-07
2.15714e-07
-2.19328e-07
8.78372e-07
1.24634e-06
0.00113875
1.56688e-07
-0.00113892
8.71278e-08
-1.28302e-06
2.17229e-07
-2.66306e-07
-8.80255e-07
2.19796e-07
-2.20808e-07
8.84673e-07
-2.23619e-07
-2.25414e-07
0.000269344
-1.21056e-06
0.000271254
-0.000269242
2.22221e-07
2.22414e-07
2.79868e-08
0.00114014
-2.33203e-07
1.23015e-06
2.45729e-07
8.56553e-07
-2.44967e-07
-9.04697e-07
1.99123e-07
-1.26197e-06
1.79638e-07
2.56073e-08
0.00113907
-2.37938e-07
1.26514e-06
2.51542e-07
8.5664e-07
-2.42118e-07
-9.04682e-07
1.96649e-07
0.0011397
1.61601e-07
-0.00113986
8.55652e-08
-1.24336e-06
2.12698e-07
-2.612e-07
-8.78368e-07
2.18739e-07
-2.2199e-07
8.81175e-07
1.2406e-06
0.00113862
1.62923e-07
-0.00113879
9.04998e-08
-1.27891e-06
2.17005e-07
-2.67784e-07
-8.78104e-07
2.15727e-07
-2.19174e-07
8.81145e-07
1.82839e-07
3.06682e-08
0.0011387
-2.36589e-07
1.26099e-06
2.4762e-07
8.47948e-07
-2.3988e-07
1.93121e-07
-8.96733e-07
1.62527e-07
-0.00113942
9.23546e-08
-1.24449e-06
2.12891e-07
-2.59778e-07
-8.729e-07
2.18198e-07
8.75398e-07
-2.2176e-07
1.24004e-06
0.00113825
1.59482e-07
-0.00113841
8.1785e-08
-1.27369e-06
2.1659e-07
-2.623e-07
-8.70249e-07
2.13464e-07
-2.16392e-07
8.72878e-07
-2.22718e-07
-2.2749e-07
0.00026933
-1.20612e-06
0.000271226
-0.000269225
2.20672e-07
2.25374e-07
1.82495e-07
2.97609e-08
0.00113969
-2.33806e-07
1.22404e-06
2.45257e-07
8.53549e-07
-2.44996e-07
1.98827e-07
-9.01692e-07
1.64351e-07
-0.00113927
9.04712e-08
-1.24396e-06
2.08846e-07
-2.59411e-07
-8.73158e-07
2.18159e-07
8.75448e-07
-2.22243e-07
1.20255e-06
0.00113925
1.59639e-07
-0.00113941
8.22599e-08
-1.23677e-06
2.13527e-07
-2.59943e-07
-8.75694e-07
2.19057e-07
-2.21925e-07
8.78313e-07
-0.000269202
2.21829e-07
2.24931e-07
1.29086e-06
1.24861e-06
-2.33742e-07
-2.4115e-07
0.000269203
-1.27658e-06
-1.23437e-06
0.000271137
-0.000269105
2.35734e-07
2.43181e-07
1.00718e-07
0.00113852
-2.67068e-07
1.24683e-06
2.16329e-07
8.74323e-07
-2.2133e-07
-8.74225e-07
2.09597e-07
-1.29087e-06
1.73923e-07
1.09848e-07
0.00113858
-2.72463e-07
1.24104e-06
2.16002e-07
8.80573e-07
-2.22964e-07
-8.78406e-07
2.13129e-07
0.00113811
1.69539e-07
-0.00113822
1.0369e-08
-1.26218e-06
2.5748e-07
-2.26661e-07
-9.018e-07
1.88461e-07
-2.43118e-07
8.44796e-07
1.27613e-06
0.00113817
1.73328e-07
-0.00113829
6.4985e-09
-1.25861e-06
2.62356e-07
-2.28425e-07
-9.08154e-07
1.89829e-07
-2.47096e-07
8.4868e-07
-2.36416e-07
-2.41045e-07
0.000269189
-1.23638e-06
0.00027112
-0.000269088
2.37572e-07
2.42873e-07
1.01103e-07
0.00113953
-2.64613e-07
1.20395e-06
2.13569e-07
8.77357e-07
-2.23663e-07
-8.76481e-07
2.12895e-07
-1.28373e-06
1.7682e-07
1.05092e-07
0.00113845
-2.7065e-07
1.23792e-06
2.18497e-07
8.76728e-07
-2.21575e-07
-8.76804e-07
2.09266e-07
0.00113912
1.69674e-07
-0.00113923
9.87369e-09
-1.21955e-06
2.55277e-07
-2.23823e-07
-9.04399e-07
1.91173e-07
-2.45871e-07
8.47367e-07
1.26903e-06
0.00113804
1.68245e-07
-0.00113815
8.29352e-09
-1.25353e-06
2.60841e-07
-2.2882e-07
-9.04522e-07
1.8843e-07
-2.43231e-07
8.47242e-07
1.74338e-07
9.58008e-08
0.00113808
-2.66125e-07
1.23662e-06
2.16875e-07
8.68912e-07
-2.18115e-07
2.07433e-07
-8.68491e-07
1.63991e-07
-0.00113878
1.08782e-08
-1.22301e-06
2.55217e-07
-2.24429e-07
-8.98108e-07
1.92746e-07
8.43614e-07
-2.44742e-07
1.26372e-06
0.00113767
1.71585e-07
-0.00113779
1.79046e-08
-1.25282e-06
2.55593e-07
-2.28742e-07
-8.96187e-07
1.85425e-07
-2.40577e-07
8.39178e-07
-2.37062e-07
-2.41817e-07
0.000269172
-1.23477e-06
0.000271095
-0.000269073
2.38866e-07
2.43427e-07
1.69759e-07
1.00094e-07
0.00113908
-2.64417e-07
1.19831e-06
2.13213e-07
8.75459e-07
-2.22775e-07
2.13935e-07
-8.72958e-07
1.68108e-07
-0.00113864
6.30414e-09
-1.21874e-06
2.53136e-07
-2.20256e-07
-8.99e-07
1.91177e-07
8.41809e-07
-2.45724e-07
1.22794e-06
0.00113867
1.73539e-07
-0.00113879
1.38045e-08
-1.21505e-06
2.54382e-07
-2.25141e-07
-9.01657e-07
1.90352e-07
-2.46187e-07
8.43879e-07
-0.000269049
2.37528e-07
2.39169e-07
1.25018e-06
1.20712e-06
-2.06543e-07
-2.14787e-07
0.000269101
-1.26597e-06
-1.22291e-06
0.000271045
-0.000269037
2.36388e-07
2.44872e-07
-2.66241e-08
0.00113801
-2.14717e-07
1.28594e-06
2.64753e-07
8.52328e-07
-2.37416e-07
-8.98192e-07
1.97225e-07
-1.24383e-06
1.28362e-07
-3.93487e-08
0.00113807
-2.14005e-07
1.2875e-06
2.71388e-07
8.56523e-07
-2.41111e-07
-9.04481e-07
1.9912e-07
0.00113757
3.22433e-08
-0.00113776
3.01393e-08
-1.25641e-06
2.31736e-07
-2.34814e-07
-8.4442e-07
2.44975e-07
-1.87943e-07
9.03711e-07
1.26027e-06
0.00113764
2.92753e-08
-0.00113782
3.58555e-08
-1.25578e-06
2.3176e-07
-2.39628e-07
-8.48373e-07
2.49152e-07
-1.89201e-07
9.10422e-07
-2.09399e-07
-2.08487e-07
0.000269085
-1.22545e-06
0.000271031
-0.000269023
2.39803e-07
2.38572e-07
-2.91725e-08
0.00113902
-2.11564e-07
1.24409e-06
2.6276e-07
8.54575e-07
-2.40515e-07
-9.0113e-07
1.99647e-07
-1.24147e-06
1.26463e-07
-3.06293e-08
0.00113794
-2.16974e-07
1.27837e-06
2.68039e-07
8.5486e-07
-2.37449e-07
-9.00819e-07
1.97245e-07
0.00113858
3.06293e-08
-0.00113877
3.14487e-08
-1.21428e-06
2.28721e-07
-2.3253e-07
-8.46807e-07
2.4831e-07
-1.90327e-07
9.06736e-07
1.25805e-06
0.00113751
3.19284e-08
-0.0011377
2.92939e-08
-1.24815e-06
2.34837e-07
-2.37313e-07
-8.46952e-07
2.45148e-07
-1.87899e-07
9.06393e-07
1.26849e-07
-1.90761e-08
0.00113757
-2.15947e-07
1.27353e-06
2.63928e-07
8.46824e-07
-2.34957e-07
1.94173e-07
-8.92465e-07
3.8646e-08
-0.00113833
4.39583e-08
-1.21647e-06
2.27866e-07
-2.3258e-07
-8.42704e-07
2.45923e-07
8.99147e-07
-1.91844e-07
1.2572e-06
0.00113714
2.96526e-08
-0.00113732
2.0875e-08
-1.24334e-06
2.34033e-07
-2.32463e-07
-8.39157e-07
2.42262e-07
-1.85393e-07
8.97757e-07
-2.08914e-07
-2.14328e-07
0.00026907
-1.22251e-06
0.000271005
-0.000269008
2.3918e-07
2.44852e-07
1.35547e-07
-2.86635e-08
0.00113857
-2.11352e-07
1.23884e-06
2.63393e-07
8.50104e-07
-2.41771e-07
1.98081e-07
-8.99438e-07
2.9423e-08
-0.00113818
3.28777e-08
-1.21417e-06
2.25714e-07
-2.29829e-07
-8.41138e-07
2.48432e-07
9.01762e-07
-1.90213e-07
1.2182e-06
0.00113814
2.49619e-08
-0.00113832
2.63608e-08
-1.20757e-06
2.29575e-07
-2.31241e-07
-8.43485e-07
2.49255e-07
-1.89769e-07
9.04735e-07
-0.000268983
2.39444e-07
2.44196e-07
1.27795e-06
1.23634e-06
-2.18919e-07
-2.25781e-07
0.000268975
-1.24627e-06
-1.20449e-06
0.000270854
-0.000268821
2.05241e-07
2.12347e-07
1.03273e-07
0.00113736
-2.61223e-07
1.24116e-06
2.04052e-07
8.99044e-07
-1.86724e-07
-8.41425e-07
2.37494e-07
-1.27954e-06
9.23751e-08
1.15627e-07
0.00113743
-2.67682e-07
1.23439e-06
2.033e-07
9.05462e-07
-1.88367e-07
-8.45302e-07
2.4085e-07
0.00113696
2.23226e-07
-0.00113703
7.28877e-08
-1.28781e-06
2.20835e-07
-2.64626e-07
-9.02518e-07
1.70424e-07
-2.4727e-07
8.32502e-07
1.24677e-06
0.00113703
2.24849e-07
-0.00113709
6.60059e-08
-1.28295e-06
2.26542e-07
-2.65259e-07
-9.08705e-07
1.71945e-07
-2.51039e-07
8.36555e-07
-2.21463e-07
-2.27266e-07
0.000268961
-1.20715e-06
0.000270837
-0.000268804
2.07422e-07
2.12851e-07
1.06416e-07
0.00113837
-2.59281e-07
1.19771e-06
2.00819e-07
9.02643e-07
-1.886e-07
-8.43249e-07
2.41294e-07
-1.26978e-06
9.22956e-08
1.04481e-07
0.0011373
-2.63897e-07
1.23306e-06
2.06825e-07
9.02042e-07
-1.86404e-07
-8.43694e-07
2.37965e-07
0.00113797
2.24605e-07
-0.00113804
6.96589e-08
-1.24494e-06
2.19044e-07
-2.61483e-07
-9.05144e-07
1.73003e-07
-2.50118e-07
8.34922e-07
1.23724e-06
0.00113689
2.24234e-07
-0.00113696
7.63463e-08
-1.28053e-06
2.22585e-07
-2.68346e-07
-9.04781e-07
1.70537e-07
-2.47067e-07
8.35218e-07
9.27155e-08
9.32669e-08
0.00113693
-2.5932e-07
1.23197e-06
2.05352e-07
8.93255e-07
-1.83907e-07
2.35187e-07
-8.36223e-07
2.15435e-07
-0.00113758
6.81479e-08
-1.24757e-06
2.19682e-07
-2.61104e-07
-8.97563e-07
1.75175e-07
8.32366e-07
-2.47991e-07
1.23321e-06
0.00113653
2.23863e-07
-0.0011366
8.13703e-08
-1.27853e-06
2.18834e-07
-2.66417e-07
-8.96078e-07
1.68363e-07
-2.43857e-07
8.27691e-07
-2.21658e-07
-2.25442e-07
0.000268946
-1.20406e-06
0.00027081
-0.000268788
2.07805e-07
2.11539e-07
8.00398e-08
1.04772e-07
0.00113793
-2.59226e-07
1.19178e-06
2.00192e-07
9.0187e-07
-1.86809e-07
2.43384e-07
-8.38674e-07
2.27204e-07
-0.00113745
7.09352e-08
-1.24493e-06
2.15921e-07
-2.58902e-07
-8.99965e-07
1.72698e-07
8.28836e-07
-2.50102e-07
1.19864e-06
0.00113753
2.29722e-07
-0.0011376
7.36254e-08
-1.23984e-06
2.18655e-07
-2.61961e-07
-9.0266e-07
1.72248e-07
-2.50529e-07
8.31066e-07
-0.000268766
2.07897e-07
2.08252e-07
1.24959e-06
1.20603e-06
-2.17528e-07
-2.26171e-07
0.000268842
-1.36888e-06
-1.32598e-06
0.000270992
-0.000268967
3.30497e-07
3.3904e-07
-5.63439e-08
0.00113694
-2.1603e-07
1.29177e-06
2.78905e-07
8.41569e-07
-2.49496e-07
-8.99079e-07
1.73262e-07
-1.24302e-06
1.06701e-07
-6.81101e-08
0.001137
-2.15168e-07
1.29324e-06
2.85316e-07
8.45729e-07
-2.53155e-07
-9.05398e-07
1.75288e-07
0.00113662
-3.67411e-07
-0.00113681
-2.71732e-07
-1.14353e-06
3.47211e-07
-1.12003e-07
-7.79657e-07
3.08181e-07
-1.29386e-07
9.65358e-07
1.36362e-06
0.00113669
-3.69265e-07
-0.00113688
-2.6579e-07
-1.1431e-06
3.47915e-07
-1.16684e-07
-7.83988e-07
3.11817e-07
-1.31191e-07
9.71612e-07
-2.2031e-07
-2.19626e-07
0.000268826
-1.32889e-06
0.000270979
-0.000268954
3.34284e-07
3.33466e-07
-6.19531e-08
0.00113795
-2.12353e-07
1.25057e-06
2.77486e-07
8.43456e-07
-2.52854e-07
-9.02336e-07
1.75347e-07
-1.24243e-06
1.08646e-07
-5.3664e-08
0.00113687
-2.19795e-07
1.28268e-06
2.80859e-07
8.43811e-07
-2.49677e-07
-9.01779e-07
1.72877e-07
0.00113763
-3.68469e-07
-0.00113782
-2.69235e-07
-1.10129e-06
3.4419e-07
-1.09643e-07
-7.82259e-07
3.11333e-07
-1.31949e-07
9.68192e-07
1.36161e-06
0.00113656
-3.68223e-07
-0.00113675
-2.75563e-07
-1.13479e-06
3.51063e-07
-1.13797e-07
-7.82677e-07
3.07897e-07
-1.29822e-07
9.67587e-07
1.06581e-07
-4.53728e-08
0.0011365
-2.1813e-07
1.27839e-06
2.76886e-07
8.36444e-07
-2.4628e-07
1.7077e-07
-8.92798e-07
-3.61822e-07
-0.00113738
-2.59312e-07
-1.10348e-06
3.44242e-07
-1.09385e-07
-7.78503e-07
3.09501e-07
9.60863e-07
-1.335e-07
1.35964e-06
0.00113619
-3.66534e-07
-0.00113637
-2.7846e-07
-1.13107e-06
3.49128e-07
-1.10247e-07
-7.75033e-07
3.0458e-07
-1.27623e-07
9.58784e-07
-2.2047e-07
-2.26897e-07
0.000268809
-1.32602e-06
0.000270951
-0.000268936
3.3348e-07
3.39217e-07
1.19909e-07
-5.98392e-08
0.0011375
-2.12296e-07
1.2452e-06
2.77558e-07
8.38445e-07
-2.54109e-07
1.73657e-07
-9.01148e-07
-3.69688e-07
-0.00113723
-2.71721e-07
-1.10073e-06
3.41631e-07
-1.06381e-07
-7.76972e-07
3.11129e-07
9.63058e-07
-1.32263e-07
1.32035e-06
0.00113718
-3.71458e-07
-0.00113736
-2.71745e-07
-1.09554e-06
3.44232e-07
-1.09294e-07
-7.79213e-07
3.11645e-07
-1.31855e-07
9.65909e-07
-0.000268911
3.32618e-07
3.37876e-07
1.15977e-06
1.11828e-06
-1.10564e-07
-1.17189e-07
0.000268942
-1.22153e-06
-1.1793e-06
0.000270435
-0.000268504
2.30975e-07
2.38514e-07
-1.8463e-07
0.0011363
-1.35548e-07
1.34202e-06
3.14415e-07
9.90614e-07
-8.85668e-08
-7.4701e-07
3.43189e-07
-1.16035e-06
-3.53084e-07
-1.75436e-07
0.00113637
-1.40969e-07
1.33623e-06
3.14714e-07
9.97026e-07
-9.03758e-08
-7.51073e-07
3.46699e-07
0.00113472
2.08919e-07
-0.0011353
1.89658e-07
-1.28518e-06
2.05374e-07
-2.56348e-07
-7.92726e-07
2.84171e-07
-1.21303e-07
9.25839e-07
1.2204e-06
0.00113478
2.0928e-07
-0.00113537
1.86617e-07
-1.28149e-06
2.09321e-07
-2.58131e-07
-7.98121e-07
2.86519e-07
-1.24276e-07
9.30639e-07
-1.12383e-07
-1.1756e-07
0.000268928
-1.18123e-06
0.000270417
-0.000268486
2.32816e-07
2.37325e-07
-1.79107e-07
0.00113731
-1.33834e-07
1.29847e-06
3.10856e-07
9.94087e-07
-9.0634e-08
-7.48935e-07
3.46789e-07
-1.1505e-06
-3.54163e-07
-1.90148e-07
0.00113624
-1.3713e-07
1.33529e-06
3.1845e-07
9.93375e-07
-8.86604e-08
-7.49554e-07
3.43346e-07
0.00113573
2.0692e-07
-0.00113631
1.89108e-07
-1.24289e-06
2.03093e-07
-2.53691e-07
-7.94871e-07
2.87152e-07
-1.23811e-07
9.28856e-07
1.21318e-06
0.00113466
2.07937e-07
-0.00113524
1.90657e-07
-1.27709e-06
2.07858e-07
-2.59367e-07
-7.94789e-07
2.8466e-07
-1.20873e-07
9.28886e-07
-3.50779e-07
-1.95761e-07
0.00113587
-1.33123e-07
1.33359e-06
3.16764e-07
9.8431e-07
-8.66136e-08
3.39953e-07
-7.42276e-07
2.05578e-07
-0.00113585
1.93181e-07
-1.24584e-06
2.02473e-07
-2.54038e-07
-7.88899e-07
2.87845e-07
9.24202e-07
-1.22999e-07
1.20933e-06
0.00113429
2.07943e-07
-0.00113487
1.92116e-07
-1.27486e-06
2.04115e-07
-2.5734e-07
-7.86514e-07
2.822e-07
-1.1788e-07
9.20944e-07
-1.13143e-07
-1.16484e-07
0.000268913
-1.17912e-06
0.000270395
-0.000268475
2.33866e-07
2.38336e-07
-3.65059e-07
-1.81048e-07
0.00113686
-1.33945e-07
1.29256e-06
3.10585e-07
9.93199e-07
-8.94708e-08
3.48119e-07
-7.44422e-07
2.05277e-07
-0.00113573
1.89646e-07
-1.24262e-06
2.00384e-07
-2.50864e-07
-7.89135e-07
2.87478e-07
9.23381e-07
-1.2323e-07
1.17375e-06
0.00113529
2.06251e-07
-0.00113587
1.90314e-07
-1.23738e-06
2.02972e-07
-2.53895e-07
-7.91771e-07
2.87168e-07
-1.23576e-07
9.25833e-07
-0.000268451
2.33775e-07
2.34937e-07
1.3045e-06
1.26154e-06
-2.19743e-07
-2.27949e-07
0.000268317
-1.20287e-06
-1.16106e-06
0.000270316
-0.000268219
1.30033e-07
1.37026e-07
2.27495e-07
0.00113424
-2.72058e-07
1.20461e-06
1.87966e-07
8.71974e-07
-1.71104e-07
-8.40544e-07
2.2749e-07
-1.30003e-06
3.48927e-07
2.22147e-07
0.00113431
-2.7353e-07
1.20386e-06
1.92114e-07
8.7638e-07
-1.74353e-07
-8.46431e-07
2.29622e-07
0.00113435
3.48249e-07
-0.00113402
1.11697e-07
-1.31777e-06
1.66569e-07
-3.03093e-07
-9.91924e-07
6.40872e-08
-3.43105e-07
7.34341e-07
1.20037e-06
0.00113441
3.50311e-07
-0.00113408
1.11512e-07
-1.3149e-06
1.69337e-07
-3.05689e-07
-9.97619e-07
6.65757e-08
-3.46134e-07
7.39163e-07
-2.23367e-07
-2.23695e-07
0.0002683
-1.16333e-06
0.000270301
-0.000268204
1.32529e-07
1.34442e-07
2.23861e-07
0.00113525
-2.68862e-07
1.16296e-06
1.86148e-07
8.74538e-07
-1.73966e-07
-8.43143e-07
2.30149e-07
-1.29719e-06
3.48286e-07
2.31899e-07
0.00113418
-2.75516e-07
1.1956e-06
1.90025e-07
8.74838e-07
-1.70766e-07
-8.42796e-07
2.27856e-07
0.00113535
3.51649e-07
-0.00113503
1.08427e-07
-1.2748e-06
1.64481e-07
-2.99965e-07
-9.94986e-07
6.66532e-08
-3.46233e-07
7.36575e-07
1.19393e-06
0.00113427
3.51241e-07
-0.00113395
1.16307e-07
-1.31064e-06
1.68539e-07
-3.06577e-07
-9.94737e-07
6.36976e-08
-3.43401e-07
7.36606e-07
3.45987e-07
2.35109e-07
0.00113381
-2.73738e-07
1.19163e-06
1.86207e-07
8.67167e-07
-1.67639e-07
2.25479e-07
-8.34187e-07
3.47959e-07
-0.00113459
1.15125e-07
-1.27769e-06
1.6437e-07
-2.99888e-07
-9.8889e-07
6.68497e-08
7.31667e-07
-3.45788e-07
1.19146e-06
0.00113391
3.47999e-07
-0.00113358
1.15657e-07
-1.30746e-06
1.66342e-07
-3.03393e-07
-9.86277e-07
6.10064e-08
-3.40533e-07
7.28612e-07
-2.22315e-07
-2.28088e-07
0.000268287
-1.16031e-06
0.000270271
-0.000268185
1.32184e-07
1.36539e-07
3.53775e-07
2.2493e-07
0.00113481
-2.68682e-07
1.1577e-06
1.8635e-07
8.70649e-07
-1.74468e-07
2.29474e-07
-8.41086e-07
3.56729e-07
-0.00113443
1.1205e-07
-1.27499e-06
1.61062e-07
-2.97425e-07
-9.90137e-07
6.60208e-08
7.30626e-07
-3.46616e-07
1.15564e-06
0.0011349
3.56146e-07
-0.00113457
1.07942e-07
-1.26892e-06
1.64559e-07
-2.99527e-07
-9.92656e-07
6.61763e-08
-3.46634e-07
7.33236e-07