/*--------------------------------*- C++ -*----------------------------------*\
| =========                 |                                                 |
| \\      /  F ield         | OpenFOAM: The Open Source CFD Toolbox           |
|  \\    /   O peration     | Version:  2312                                  |
|   \\  /    A nd           | Website:  www.openfoam.com                      |
|    \\/     M anipulation  |                                                 |
\*---------------------------------------------------------------------------*/
FoamFile
{
    version     2.0;
    format      ascii;
    arch        "LSB;label=32;scalar=64";
    class       surfaceScalarField;
    location    "250";
    object      phi;
}
// * * * * * * * * * * * * * * * * * * * * * * * * * * * * * * * * * * * * * //

dimensions      [0 3 -1 0 0 0 0];

oriented        oriented;

internalField   nonuniform List<scalar> 
124832
(
-8.87056e-07
-8.92991e-07
4.65713e-07
4.66742e-07
0.00114062
-0.00113977
-1.52229e-06
8.87215e-07
4.46428e-07
0.0011331
-5.25735e-07
1.10727e-06
1.14628e-07
7.11416e-07
-5.70911e-07
-1.27039e-06
4.41037e-08
-0.00113253
-8.67331e-07
-8.67855e-07
-0.0011431
4.51528e-07
4.52346e-07
0.00114393
-0.0011349
-1.51945e-06
8.68023e-07
4.23067e-07
0.00113545
-5.13303e-07
1.11631e-06
1.17247e-07
7.17936e-07
-5.54431e-07
-1.25541e-06
5.03944e-08
-0.00113477
-1.5169e-06
8.67217e-07
4.27466e-07
0.00113532
-5.13246e-07
1.11435e-06
1.19092e-07
7.18068e-07
-5.54266e-07
-1.2549e-06
5.03073e-08
-0.000276242
1.54705e-06
1.50981e-06
-5.05094e-07
-5.08134e-07
0.000274198
1.5656e-06
1.52569e-06
-5.17361e-07
-5.25539e-07
0.000274044
-0.000276092
-1.15846e-06
-1.11521e-06
0.000276315
-0.000274207
7.98204e-08
8.50913e-08
4.36823e-07
0.00113269
-5.29012e-07
1.15038e-06
1.16815e-07
7.16972e-07
-5.7101e-07
-1.27606e-06
4.39167e-08
-0.0011321
8.82645e-07
4.39068e-07
0.00113275
1.14658e-06
1.17261e-07
7.16874e-07
-5.71014e-07
-1.27599e-06
4.41698e-08
-0.00113216
-1.56081e-06
-5.30314e-07
0.00113435
8.72346e-07
-0.00113382
4.42451e-07
-1.55972e-06
1.24962e-07
-5.19062e-07
-1.26602e-06
4.83285e-08
-5.59613e-07
7.21096e-07
1.15426e-06
0.00113443
8.71353e-07
-0.00113388
4.2949e-07
-1.55582e-06
1.24051e-07
-5.13856e-07
-1.26607e-06
4.80897e-08
-5.59879e-07
7.20585e-07
-1.11621e-06
0.000276296
-0.000274191
8.12887e-08
8.38374e-08
4.35989e-07
0.00113367
-5.26452e-07
1.10985e-06
1.13952e-07
7.17041e-07
-5.70885e-07
-1.27584e-06
4.43144e-08
-0.00113309
-1.55724e-06
8.86543e-07
4.36702e-07
0.00113264
-5.31376e-07
1.14255e-06
1.2015e-07
7.16841e-07
-5.70935e-07
-1.27583e-06
4.11479e-08
-0.00113205
0.00113536
8.72947e-07
-0.0011348
4.30062e-07
-1.51966e-06
1.16484e-07
-5.13592e-07
-1.26577e-06
4.86633e-08
-5.59471e-07
7.2111e-07
1.14738e-06
0.00113432
8.72451e-07
-0.00113376
4.31589e-07
-1.55195e-06
1.21865e-07
-5.19809e-07
-1.26553e-06
4.57558e-08
-5.56521e-07
7.21178e-07
8.71721e-07
-0.00113435
4.34243e-07
-1.51811e-06
1.18554e-07
-5.10959e-07
-1.26056e-06
4.81139e-08
7.15098e-07
-5.59807e-07
1.14653e-06
0.00113394
8.7019e-07
-0.00113339
4.28162e-07
-1.54763e-06
1.23549e-07
-5.13689e-07
-1.25705e-06
4.21673e-08
-5.53988e-07
7.12464e-07
-5.20041e-07
-5.24823e-07
0.000274019
-0.000276054
-1.10934e-06
0.000276271
-0.000274179
7.97951e-08
8.48179e-08
7.87061e-07
2.5652e-07
0.00113317
1.0654e-06
1.02283e-07
7.13257e-07
-5.68863e-07
4.38658e-08
-1.27384e-06
-1.58946e-06
-0.00113217
-5.34575e-07
8.72875e-07
-0.00113422
4.30837e-07
-1.51418e-06
1.16347e-07
-5.14156e-07
-1.2601e-06
4.86439e-08
7.15709e-07
-5.59246e-07
1.10878e-06
0.00113492
8.70772e-07
-0.00113437
4.26749e-07
-1.51036e-06
1.2072e-07
-5.11105e-07
-1.26234e-06
4.82346e-08
-5.59409e-07
7.18106e-07
-0.000274153
8.19996e-08
8.47346e-08
1.56301e-06
1.5202e-06
-5.07794e-07
-5.13343e-07
0.000274253
4.17998e-07
0.00113491
-5.2209e-07
1.16015e-06
1.26715e-07
7.23621e-07
-5.54481e-07
-1.26077e-06
5.00815e-08
-1.55718e-06
8.67625e-07
4.29499e-07
0.00113498
-5.18987e-07
1.15436e-06
1.22709e-07
7.23459e-07
-5.54503e-07
-1.26084e-06
4.74904e-08
-5.07485e-07
-5.09622e-07
0.000274236
4.27962e-07
0.0011359
-5.13872e-07
1.11685e-06
1.18207e-07
7.23672e-07
-5.5433e-07
-1.2605e-06
5.04299e-08
-1.55185e-06
8.66815e-07
4.28326e-07
0.00113486
-5.18871e-07
1.14963e-06
1.24626e-07
7.2353e-07
-5.51555e-07
-1.2604e-06
4.73549e-08
8.66073e-07
4.27156e-07
0.00113448
-5.12707e-07
1.14745e-06
1.2296e-07
7.14504e-07
-5.49404e-07
4.40743e-08
-1.25279e-06
-5.07915e-07
-5.12725e-07
0.000274223
8.66533e-07
4.26134e-07
0.00113546
-5.10161e-07
1.10962e-06
1.20067e-07
7.20098e-07
-5.54799e-07
5.016e-08
-1.25805e-06
-2.68571e-10
1.26738e-07
0.000237577
-0.00023766
-3.4104e-08
-9.87141e-09
1.94133e-11
1.26339e-07
-1.26441e-08
0.000198066
-0.00019818
1.64122e-11
2.47403e-07
0.000237902
-7.5316e-08
-1.14359e-08
-0.000238063
9.45526e-09
5.08341e-08
0.000197842
-6.02445e-09
-0.000197896
-9.73708e-09
2.13793e-08
9.92681e-05
-9.92798e-05
1.26739e-07
-1.97044e-10
0.000237563
-0.000237646
-1.00007e-08
-3.41206e-08
-1.84268e-10
1.26293e-07
-1.2471e-08
0.000198046
-0.00019816
2.47462e-07
2.00785e-10
0.000237888
-1.17512e-08
-7.5347e-08
-0.000238049
9.81905e-09
5.07145e-08
0.000197824
-6.18379e-09
-0.000197878
4.72292e-07
4.44987e-07
0.00114038
-8.88726e-07
-0.00113953
4.65915e-07
4.94047e-07
0.00114019
-0.00113938
4.15952e-07
4.38571e-07
0.00114013
-1.05389e-06
-0.00113914
-0.00114228
4.64832e-07
4.59824e-07
0.00114288
-0.00114206
4.58547e-07
4.59291e-07
0.00114268
-0.00114185
4.59356e-07
4.60125e-07
0.00114264
-0.00114181
4.58229e-07
4.58739e-07
-1.26763e-07
-1.76182e-09
0.000261334
-0.000261212
-2.78383e-08
3.48811e-08
4.24574e-07
1.11423e-06
0.00113379
8.80202e-07
-1.26642e-06
4.47182e-08
-5.67153e-07
7.12514e-07
-1.52245e-06
1.20827e-07
-5.19047e-07
-0.00113321
-1.08301e-08
-5.08156e-08
0.000254119
3.17819e-08
-0.000254115
2.54992e-08
-1.85614e-08
0.00113398
9.18308e-07
-1.37459e-06
5.69568e-07
-1.20167e-06
7.67976e-07
-0.00113322
4.38203e-10
5.07099e-08
9.93395e-05
-9.93906e-05
-9.43605e-09
2.32181e-08
9.92606e-05
-9.92744e-05
-3.89599e-10
-1.26774e-07
0.000261321
-0.000261203
3.78954e-08
-2.84365e-08
0.00113309
5.31061e-08
9.22566e-07
7.68875e-07
-1.20387e-06
-1.37727e-06
5.67561e-07
-0.00113237
-4.50888e-08
-1.26421e-07
3.5157e-07
5.19409e-08
0.000254331
-0.000254563
4.40467e-07
1.1093e-06
0.00113367
8.79797e-07
-1.26699e-06
4.45033e-08
-5.67589e-07
7.12028e-07
-1.51844e-06
1.21884e-07
-5.16705e-07
1.89003e-09
-2.47474e-07
0.000261354
5.46125e-07
-2.94233e-08
-0.000261625
1.78303e-08
0.00113382
9.18285e-07
-1.37481e-06
5.72268e-07
-1.19911e-06
7.70694e-07
-1.09539e-08
-5.06465e-08
0.000254109
3.15456e-08
-0.000254107
2.8056e-08
-1.14777e-06
-1.09885e-06
0.000276142
-0.000274047
7.08975e-08
8.13596e-08
1.00959e-08
-2.36742e-08
0.000285567
1.37163e-08
-0.000285656
8.81704e-08
1.00323e-08
-2.3694e-08
0.000285485
1.43383e-08
-0.000285573
8.81187e-08
-1.92707e-10
1.09922e-07
-0.00023674
-2.87996e-08
-8.4195e-09
-0.000197528
1.14957e-10
1.15901e-07
-9.88306e-09
0.000197422
-0.000237111
1.24477e-10
2.28136e-07
0.000236962
-6.88318e-08
-9.79442e-09
8.96825e-09
4.17181e-08
-4.19764e-09
-0.000197271
-9.91448e-05
1.27687e-09
4.67539e-08
9.90968e-05
-9.12636e-09
2.04899e-08
-9.90368e-05
1.09943e-07
-8.66488e-11
-0.000236727
-8.56379e-09
-2.8816e-08
-0.000197507
-1.22356e-09
1.15801e-07
-1.01264e-08
0.000197402
-0.000237098
2.28156e-07
2.36089e-10
0.000236949
-1.00449e-08
-6.88656e-08
8.90139e-09
4.16009e-08
-4.08891e-09
-0.000197252
4.57324e-07
4.5797e-07
0.0011437
4.56964e-07
4.57667e-07
0.0011435
4.56347e-07
4.57142e-07
0.00114346
-1.09946e-07
-1.40891e-09
-0.000260579
-2.34628e-08
1.95504e-08
-0.000253679
-4.34588e-08
-1.1779e-07
3.35356e-07
4.55348e-08
0.000253459
0.00113617
-0.00113546
3.64369e-09
9.06888e-07
7.77535e-07
-1.19179e-06
-1.36287e-06
5.78924e-07
4.28837e-07
1.12002e-06
8.6123e-07
-1.25064e-06
5.14225e-08
-5.50129e-07
7.19661e-07
-1.5176e-06
1.22723e-07
-5.08667e-07
-0.000261019
-2.28115e-07
1.7176e-09
0.000260741
-2.38213e-08
5.28189e-07
-7.13967e-09
-3.9204e-08
2.59941e-08
-0.000253247
1.41072e-08
-4.21228e-09
9.02408e-07
-1.36238e-06
5.77986e-07
-1.19199e-06
7.76656e-07
-9.91383e-05
1.2385e-09
4.65478e-08
9.90905e-05
-8.91542e-09
2.00746e-08
-9.90316e-05
-7.32846e-10
-1.09992e-07
-0.000260569
1.97516e-08
-2.33406e-08
0.00113601
-0.00113529
5.18486e-09
9.06471e-07
7.77531e-07
-1.19463e-06
-1.36561e-06
5.76039e-07
-0.000253671
-4.38386e-08
-1.15909e-07
3.33361e-07
4.57973e-08
0.000253451
4.21292e-07
1.11868e-06
8.59896e-07
-1.25097e-06
5.10735e-08
-5.50579e-07
7.19089e-07
-1.51346e-06
1.22216e-07
-5.05998e-07
-0.000261009
1.10426e-09
-2.28221e-07
0.000260732
5.28269e-07
-2.41321e-08
-4.01568e-09
9.02071e-07
-1.36264e-06
5.80676e-07
-1.18939e-06
7.79289e-07
-7.63069e-09
-4.16288e-08
2.58685e-08
-0.000253239
1.74603e-08
-0.00028509
4.45563e-08
-4.61291e-08
1.58892e-07
-4.19169e-09
0.000284937
-0.000285007
4.45716e-08
-4.61607e-08
1.54092e-07
-4.65272e-09
0.000284859
-1.14929e-06
-1.11143e-06
-0.000274239
8.58162e-08
8.86093e-08
6.75733e-09
-2.02414e-08
1.36346e-08
-0.000284709
7.51388e-08
6.71021e-09
-2.02522e-08
1.42414e-08
-0.000284631
7.97678e-08
5.28161e-08
9.93673e-05
-9.94201e-05
2.33165e-08
9.92908e-05
-9.93046e-05
5.07266e-08
9.93562e-05
-9.94071e-05
2.29319e-08
9.92767e-05
-9.92898e-05
4.7228e-08
1.69344e-07
-1.56003e-09
0.000285961
-0.000286123
4.47616e-08
1.7154e-07
-1.32153e-09
0.000285883
-0.000286047
0.000276215
-1.1556e-06
-1.1151e-06
-0.000274104
7.61191e-08
8.3967e-08
0.000285622
1.33441e-08
1.35432e-08
-0.000285711
8.63141e-08
0.000285545
1.32333e-08
1.08965e-08
-0.000285633
8.61404e-08
2.21356e-08
-9.5553e-09
9.91663e-05
-9.91788e-05
4.7471e-08
2.09704e-09
9.92412e-05
2.19753e-08
-9.93941e-09
9.91546e-05
-9.91667e-05
4.72099e-08
1.75373e-09
9.92277e-05
1.55877e-06
1.51874e-06
0.000274156
-5.0533e-07
-5.13515e-07
7.48521e-09
0.000285144
7.83271e-08
-0.000285225
1.72921e-08
9.63962e-09
0.000285069
7.82563e-08
-0.000285152
1.73961e-08
4.58134e-08
-1.05258e-08
1.65341e-07
0.000285468
4.56684e-08
-7.91769e-09
1.64992e-07
0.00028539
1.2669e-07
0.000237534
-0.000237617
-3.40996e-08
-1.00075e-08
1.28235e-07
-1.2319e-08
0.000197999
-1.71234e-10
-0.000198114
2.47362e-07
0.00023786
-7.53034e-08
-1.1803e-08
-0.00023802
4.85147e-08
0.000197781
-5.8984e-09
-0.000197833
-1.04782e-09
0.00026135
-0.000261229
-2.79813e-08
3.49752e-08
3.54001e-07
5.18409e-08
0.000254344
-0.000254577
0.0011335
3.42067e-09
9.23006e-07
7.74799e-07
-1.20937e-06
-1.38299e-06
5.76231e-07
-0.00113275
4.30384e-07
0.00113325
8.79093e-07
-1.56166e-06
1.27832e-07
-5.19691e-07
-1.27259e-06
4.42322e-08
-5.67709e-07
7.17617e-07
9.50678e-10
0.000261379
-2.79777e-08
5.45803e-07
-0.00026165
0.00025412
3.15452e-08
-0.000254113
2.57321e-08
-3.52882e-09
0.00113426
9.12885e-07
-1.38048e-06
5.78005e-07
-1.20744e-06
7.7656e-07
0.00026132
-0.000261202
-2.70361e-08
3.48965e-08
3.53318e-07
5.18435e-08
0.000254235
-0.000254465
-4.70887e-08
0.00113345
9.17645e-07
7.74722e-07
-1.20932e-06
-1.38263e-06
5.76255e-07
-0.00113269
4.3154e-07
0.00113333
1.15219e-06
8.79634e-07
-1.27195e-06
4.4605e-08
7.17958e-07
-5.67265e-07
-1.5602e-06
1.26262e-07
-5.24779e-07
0.000261352
-2.93678e-08
5.45725e-07
-0.00026162
0.000254011
-1.08599e-08
3.17468e-08
-0.000254009
2.54815e-08
0.0011342
9.12794e-07
-1.38004e-06
5.78035e-07
-1.20734e-06
7.76464e-07
-1.8183e-11
2.38134e-07
-7.21627e-08
-1.01323e-08
0.000237421
4.41299e-08
-0.000197577
-4.43634e-09
1.22588e-07
-1.37224e-08
0.000197735
-4.95019e-12
1.17754e-07
-0.000237189
-3.11053e-08
-9.4599e-09
2.38105e-07
-7.21677e-08
-1.05546e-08
0.000237379
4.45685e-08
9.65962e-09
0.000197457
-0.000197507
-4.57352e-09
1.25045e-07
-2.00849e-09
-1.11784e-08
0.000197669
1.17775e-07
0.000237069
-0.000237146
-3.11478e-08
-9.30335e-09
7.36465e-10
-2.52526e-08
5.3793e-07
0.000261075
4.24105e-07
8.74718e-07
1.15693e-06
-5.16573e-07
1.27247e-07
7.18417e-07
-5.64588e-07
4.56545e-08
-1.27024e-06
0.000253682
1.67291e-08
-0.000253676
2.84392e-08
-0.00113499
-2.59888e-09
0.00113574
9.11354e-07
-1.37469e-06
5.79702e-07
-1.20015e-06
7.81288e-07
4.65671e-08
3.4803e-07
0.000253894
4.53712e-09
9.14892e-07
7.78648e-07
-1.20275e-06
-1.37801e-06
5.77235e-07
-7.60179e-10
0.000261035
-0.000260917
-2.59645e-08
2.67472e-08
-2.73442e-08
5.37895e-07
0.000261049
4.27789e-07
-1.55607e-06
8.73797e-07
7.18458e-07
-5.64341e-07
-1.26961e-06
4.55371e-08
1.15527e-06
-5.13487e-07
1.26273e-07
-9.96188e-09
0.000253573
1.72537e-08
-0.000253564
2.82653e-08
-0.00113494
0.00113567
9.11321e-07
-1.37452e-06
5.79645e-07
-1.20015e-06
7.81022e-07
-4.83302e-08
4.92699e-08
3.48368e-07
0.000253787
9.14633e-07
7.78455e-07
-1.20269e-06
-1.37766e-06
5.77194e-07
0.000261005
-0.00026089
-2.42138e-08
2.67874e-08
0.000276199
-0.00027409
7.78187e-08
8.03135e-08
0.000285482
1.15147e-08
-0.000285572
8.96298e-08
-2.38019e-08
0.000285634
1.10711e-08
-0.000285719
8.72891e-08
9.92839e-05
-9.59463e-09
-9.92981e-05
2.21581e-08
-9.91573e-05
4.99943e-08
9.92161e-05
1.51832e-06
0.000274143
-5.08402e-07
-5.10572e-07
0.000285011
7.80179e-08
-0.000285094
1.70498e-08
-1.95433e-08
7.65407e-09
0.000285155
7.79394e-08
-0.000285238
1.67586e-08
-8.78922e-09
1.66318e-07
0.000285326
-4.73132e-08
4.8255e-08
-8.77677e-09
1.66274e-07
0.000285475
-9.75492e-09
9.91639e-05
-9.91737e-05
1.81021e-09
9.92348e-05
-1.75524e-09
0.000261342
-0.000261221
-2.76254e-08
3.50386e-08
3.51282e-07
5.18003e-08
0.000254304
-0.000254536
0.00113335
3.14208e-09
9.28086e-07
7.74539e-07
-1.20659e-06
-1.38282e-06
5.73295e-07
-0.00113261
4.29323e-07
0.00113424
8.7959e-07
-1.52172e-06
1.22163e-07
-5.17095e-07
-1.27236e-06
4.46246e-08
-5.67544e-07
7.17704e-07
1.76097e-09
0.000261371
-2.89619e-08
5.45869e-07
-0.000261642
0.000254082
3.1488e-08
-0.000254078
2.81626e-08
-4.46044e-09
0.0011341
9.18035e-07
-1.38032e-06
5.75097e-07
-1.20466e-06
7.76308e-07
1.26728e-07
0.000237522
-0.000237604
-3.41161e-08
-1.02811e-08
1.26445e-07
-1.23456e-08
0.000197986
-0.0001981
2.47433e-07
0.000237847
-7.53301e-08
-1.15007e-08
-0.000238007
5.06722e-08
0.000197764
-5.86563e-09
-0.000197818
0.000261311
-0.000261194
3.50599e-08
-2.73892e-08
0.00113331
9.22675e-07
7.74659e-07
-1.20666e-06
-1.38269e-06
5.73262e-07
-0.00113255
-4.766e-08
3.49058e-07
5.18984e-08
0.000254222
-0.000254449
4.31075e-07
0.0011332
1.14727e-06
8.90111e-07
-1.2725e-06
4.15621e-08
7.17476e-07
-5.64916e-07
-1.55345e-06
1.27342e-07
-5.2236e-07
0.000261343
5.45939e-07
-2.937e-08
-0.000261611
0.00113405
9.23852e-07
-1.38022e-06
5.75091e-07
-1.20473e-06
7.76448e-07
0.000253995
-1.09599e-08
3.14966e-08
-0.000253996
3.07809e-08
2.38114e-07
1.47297e-10
-1.04147e-08
-7.21792e-08
0.000237408
4.41861e-08
-0.000197556
-4.6927e-09
1.22495e-07
-1.13243e-08
0.000197714
1.17762e-07
-1.80895e-10
-0.000237175
-9.43415e-09
-3.11469e-08
1.78007e-09
-2.63872e-08
5.37895e-07
0.000261067
4.28116e-07
8.75317e-07
1.11649e-06
-5.11123e-07
1.21631e-07
7.18495e-07
-5.64412e-07
4.60183e-08
-1.26994e-06
0.000253644
1.93148e-08
-0.000253638
2.81759e-08
-0.00113483
-4.32873e-09
0.00113557
9.11223e-07
-1.37451e-06
5.79638e-07
-1.20006e-06
7.81027e-07
4.90681e-08
3.45288e-07
0.000253856
2.61131e-09
9.20284e-07
7.7843e-07
-1.20271e-06
-1.37781e-06
5.77187e-07
-1.8253e-09
0.000261027
-0.000260907
-2.47838e-08
2.38802e-08
2.38096e-07
-7.21642e-08
-1.02758e-08
0.000237366
4.4264e-08
1.00059e-08
0.000197447
-0.000197497
-4.81765e-09
1.22351e-07
-1.88677e-09
-1.1106e-08
0.000197655
1.17746e-07
0.000237057
-0.000237134
-3.11492e-08
-9.67552e-09
5.37906e-07
-2.66574e-08
0.00026104
4.24998e-07
-1.55102e-06
8.75172e-07
7.18496e-07
-5.61565e-07
-1.26991e-06
4.31593e-08
1.14822e-06
-5.17484e-07
1.26059e-07
-0.00113478
0.00113551
9.11332e-07
-1.37433e-06
5.79646e-07
-1.2001e-06
7.812e-07
-7.28522e-09
0.000253557
2.2152e-08
-0.000253556
2.81352e-08
9.20519e-07
7.78634e-07
-1.20276e-06
-1.37765e-06
5.77198e-07
-4.80557e-08
4.9076e-08
3.42456e-07
0.000253774
0.000260996
-0.000260879
2.3894e-08
-2.46972e-08
-2.75791e-10
0.000237558
-0.000237642
-1.00968e-08
-3.20589e-08
0.000197828
-5.94601e-09
-0.000197883
-1.26608e-07
0.000261303
-0.000261185
3.47033e-08
-2.75231e-08
4.50342e-07
0.00113283
8.8662e-07
-1.55176e-06
1.23157e-07
-5.22845e-07
-1.26691e-06
4.20386e-08
-5.67297e-07
7.09529e-07
-0.00113228
0.0011339
9.18655e-07
-1.37445e-06
5.7247e-07
-1.20172e-06
7.71005e-07
-0.00113315
-4.98829e-08
0.000254037
3.15078e-08
-0.000254038
2.93823e-08
0.000237519
-0.000237601
-3.40899e-08
-1.06652e-08
0.00019777
9.9557e-09
-5.79259e-09
-0.000197824
-2.38022e-07
1.45511e-09
-2.61922e-08
5.3781e-07
0.000261059
4.21139e-07
8.74309e-07
1.11726e-06
-5.10556e-07
1.23666e-07
7.12988e-07
-5.64243e-07
-1.26409e-06
4.56091e-08
-4.23169e-08
1.73359e-08
-0.000253674
2.82398e-08
-0.00113471
-5.0233e-09
9.10962e-07
-1.3691e-06
5.73846e-07
7.7239e-07
-1.19736e-06
-1.22542e-07
4.91587e-08
3.48204e-07
0.000253892
-2.13805e-09
9.14511e-07
7.72668e-07
-1.197e-06
-1.36942e-06
5.743e-07
-1.1802e-07
-1.70474e-09
-0.000260901
-2.50942e-08
2.70711e-08
-8.50237e-11
-1.03487e-08
-7.41825e-08
0.000237405
0.000197512
-0.00019756
-4.67028e-09
-1.12676e-08
0.000197719
-8.77409e-11
0.000237093
-0.000237172
-9.6607e-09
-2.91744e-08
-2.38008e-07
5.37699e-07
-2.70129e-08
0.000261032
4.35575e-07
-1.55202e-06
8.7491e-07
7.10797e-07
-5.60829e-07
-1.26067e-06
4.03407e-08
1.14791e-06
-5.19724e-07
1.26515e-07
-0.00113464
0.00113537
9.10666e-07
-1.36886e-06
5.76691e-07
-1.19735e-06
7.7527e-07
-4.51496e-08
-8.26875e-09
0.000253599
1.84526e-08
-0.000253592
2.84515e-08
9.14445e-07
7.73006e-07
-1.19973e-06
-1.37181e-06
5.74411e-07
-1.22006e-07
-4.756e-08
4.91418e-08
3.44418e-07
0.000253813
-1.17952e-07
0.000260985
-0.000260874
2.9966e-08
-2.48039e-08
-7.21104e-08
-1.0719e-08
0.000237364
9.50175e-09
0.000197452
-0.000197501
-4.84962e-09
-1.51671e-09
-1.11563e-08
0.00019766
0.000237054
-0.000237131
-3.12511e-08
-9.27696e-09
1.67145e-07
-2.71476e-09
0.000285823
-0.000285984
-5.07448e-08
1.69501e-07
-2.5041e-09
0.000285965
-0.000286127
0.000276173
-0.000274079
7.8866e-08
8.38649e-08
0.000285482
1.16196e-08
-0.000285572
9.06273e-08
-2.33086e-08
0.000285624
1.16784e-08
-0.000285712
8.83694e-08
4.02691e-10
9.93629e-05
-9.9414e-05
9.9284e-05
-9.49564e-09
-9.92978e-05
2.2043e-08
-9.91504e-05
4.73794e-08
9.92114e-05
1.51324e-06
0.000274131
-5.08714e-07
-5.13567e-07
0.000285004
8.32834e-08
-0.00028509
1.75968e-08
-2.21003e-08
7.32683e-09
0.000285146
8.09787e-08
-0.000285233
2.02739e-08
-7.8854e-09
1.60196e-07
0.000285329
-4.74216e-08
4.78135e-08
-1.02401e-08
1.62624e-07
0.000285471
-1.00114e-08
9.91616e-05
-9.91737e-05
1.81015e-09
9.92347e-05
-1.24173e-07
0.000261289
-0.000261174
3.48628e-08
-2.58741e-08
0.00113301
9.51425e-07
7.71402e-07
-1.20395e-06
5.6748e-07
-1.38014e-06
-0.0011324
-1.26571e-07
3.54458e-07
5.19116e-08
0.00025422
-4.80776e-08
-0.000254452
3.94549e-07
0.0011338
8.76067e-07
-1.51739e-06
1.11719e-07
-5.22963e-07
-1.26953e-06
4.51726e-08
-5.64533e-07
7.15167e-07
-2.50003e-07
0.000261324
5.48748e-07
-2.8946e-08
-0.000261592
0.00113373
9.18689e-07
-1.37721e-06
5.72303e-07
-1.19901e-06
7.73458e-07
-4.97804e-08
0.000253999
3.15235e-08
-0.000253997
2.6459e-08
-1.20998e-10
0.000237552
-0.000237635
-9.92652e-09
-3.41565e-08
-1.23179e-08
0.000198046
-0.000198159
4.52674e-10
0.000237877
-1.19154e-08
-7.53369e-08
-0.000238038
0.000197823
-5.89849e-09
-0.000197878
0.000237512
-0.000237592
-1.00818e-08
-3.41175e-08
-1.22726e-08
0.000197982
-0.000198095
-7.20899e-10
0.000237835
-1.14877e-08
-7.53205e-08
-0.000237998
0.000197761
9.97173e-09
-5.75715e-09
-0.000197815
1.01165e-09
-2.38102e-07
5.35191e-07
-2.6127e-08
0.000261049
4.34769e-07
8.75775e-07
1.11025e-06
-5.11805e-07
1.20595e-07
7.13016e-07
-5.64271e-07
-1.26447e-06
4.60505e-08
-0.00113456
4.03107e-10
9.10976e-07
-1.36897e-06
5.76784e-07
7.75406e-07
-1.19448e-06
-4.42173e-08
1.94303e-08
-0.000253667
2.8225e-08
1.15271e-08
9.14827e-07
7.72862e-07
-1.19988e-06
-1.37227e-06
5.71564e-07
-1.22311e-07
4.8999e-08
3.44971e-07
0.000253885
-6.30369e-10
-1.17892e-07
-0.000260891
2.69004e-08
-2.55721e-08
-2.40463e-07
5.37686e-07
-2.73893e-08
0.00026102
4.23099e-07
-1.51207e-06
8.7556e-07
7.1643e-07
-5.63522e-07
-1.26596e-06
4.64118e-08
1.10739e-06
-5.14355e-07
1.2084e-07
-0.00113448
0.00113521
9.10553e-07
-1.37144e-06
5.76627e-07
-1.19447e-06
7.77811e-07
-4.50464e-08
-8.18107e-09
0.00025356
2.36517e-08
-0.000253559
2.82724e-08
9.1444e-07
7.7551e-07
-1.19973e-06
-1.37445e-06
5.71522e-07
-1.21964e-07
-4.74288e-08
4.91745e-08
3.44303e-07
0.000253775
-1.15428e-07
0.000260977
-0.000260863
2.41557e-08
-2.35813e-08
5.78135e-12
-1.04064e-08
-7.21098e-08
0.000237396
0.000197506
-0.000197556
-4.70315e-09
-1.1146e-08
0.000197714
1.54708e-10
0.000237087
-0.000237164
-9.58094e-09
-3.12811e-08
-1.07782e-08
-7.2072e-08
0.000237355
9.54525e-09
0.000197443
-0.000197492
-4.87068e-09
-1.49193e-09
-1.11405e-08
0.000197651
0.000237047
-0.000237122
-8.93688e-09
-3.1284e-08
9.9264e-05
-9.92777e-05
9.92592e-05
-9.92729e-05
0.000274102
-5.10442e-07
-5.1339e-07
-2.16943e-08
7.93204e-08
-0.00028517
1.41393e-08
-2.17257e-08
8.39527e-08
-0.000285092
1.47732e-08
-4.79079e-08
-6.6018e-09
1.63677e-07
0.000285411
-4.79182e-08
-7.02514e-09
1.63622e-07
0.000285328
9.91408e-05
-9.9153e-05
9.92145e-05
9.91361e-05
-9.91483e-05
9.92098e-05
4.67961e-08
9.91196e-05
2.01174e-08
-9.90602e-05
4.65191e-08
9.91069e-05
2.00511e-08
-9.9048e-05
4.3891e-08
1.59175e-07
-2.48219e-09
0.000284991
4.37451e-08
1.58937e-07
-2.44778e-09
0.000284915
-1.16175e-06
-1.12117e-06
-0.000274298
8.71922e-08
9.25681e-08
7.61667e-09
1.0912e-08
-0.000284762
7.8851e-08
7.6125e-09
1.09408e-08
-0.000284686
7.64224e-08
1.09857e-07
-0.000236698
-2.87825e-08
-8.63227e-09
1.1585e-07
-1.0064e-08
0.000197352
2.28139e-07
0.00023692
-6.885e-08
-9.9351e-09
4.13953e-08
-4.15188e-09
-0.000197205
-9.18507e-10
-0.000260595
-2.32312e-08
1.96652e-08
3.35781e-07
4.59166e-08
0.00025346
0.00113645
3.80865e-09
9.07089e-07
7.83466e-07
-1.20019e-06
-1.37128e-06
5.84671e-07
4.28639e-07
8.60068e-07
-1.5571e-06
1.30173e-07
-5.12411e-07
-1.25668e-06
5.0823e-08
-5.50749e-07
7.24695e-07
1.05968e-09
0.000260757
-2.34661e-08
5.28091e-07
2.59077e-08
-0.000253248
1.763e-08
-3.94905e-09
9.02604e-07
-1.36825e-06
5.86412e-07
-1.19777e-06
7.85169e-07
-0.000260569
-2.22675e-08
1.95503e-08
-4.10689e-08
3.35509e-07
4.55674e-08
0.000253348
0.0011364
9.07178e-07
7.83413e-07
-1.20016e-06
-1.37097e-06
5.84673e-07
4.24656e-07
1.15806e-06
8.6077e-07
-1.25615e-06
4.84923e-08
7.25069e-07
-5.47495e-07
-1.55536e-06
1.28158e-07
-5.14341e-07
0.000260731
-2.4604e-08
5.28067e-07
-9.53384e-09
2.57783e-08
-0.000253139
1.68124e-08
9.02592e-07
-1.36782e-06
5.86454e-07
-1.19768e-06
7.85184e-07
1.58089e-07
-1.21019e-09
0.00028486
-4.85799e-08
1.58039e-07
-1.57198e-09
0.000285003
-0.000274279
8.61111e-08
8.86621e-08
1.47394e-08
-0.000284629
7.65561e-08
-1.8238e-08
1.22666e-08
-0.000284774
7.64979e-08
1.23485e-09
9.91141e-05
-9.19793e-09
-9.90553e-05
-1.67408e-09
-0.000260585
-2.27707e-08
1.69e-08
3.3311e-07
4.57557e-08
0.000253425
0.00113629
3.37574e-09
9.06816e-07
7.83197e-07
-1.19739e-06
-1.3711e-06
5.81702e-07
4.2226e-07
8.60462e-07
-1.51706e-06
1.24502e-07
-5.07e-07
-1.25641e-06
5.11829e-08
-5.50561e-07
7.24782e-07
1.76322e-09
0.000260747
-2.43299e-08
5.30864e-07
2.59161e-08
-0.000253213
1.73842e-08
-3.78045e-09
9.0221e-07
-1.36813e-06
5.83452e-07
-1.19501e-06
7.84912e-07
1.09937e-07
-0.000236686
-2.88147e-08
-8.61808e-09
1.15969e-07
-1.02497e-08
0.000197343
2.28147e-07
0.000236908
-6.8857e-08
-9.72338e-09
4.16767e-08
-4.22009e-09
-0.000197192
-0.000260558
1.69346e-08
-2.24017e-08
0.00113624
9.0684e-07
7.83328e-07
-1.19744e-06
-1.37096e-06
5.81679e-07
-4.3986e-08
3.30876e-07
4.57627e-08
0.00025334
4.22575e-07
1.15388e-06
8.59379e-07
-1.2565e-06
4.81424e-08
7.24548e-07
-5.47886e-07
-1.54844e-06
1.30524e-07
-5.11633e-07
0.00026072
5.30906e-07
-2.46358e-08
9.02231e-07
-1.36803e-06
5.8344e-07
-1.19508e-06
7.85037e-07
-7.60365e-09
2.57297e-08
-0.000253128
2.02299e-08
-8.41284e-11
-0.000236724
-8.84012e-09
-2.67618e-08
-1.00641e-08
0.000197406
2.91645e-10
0.000236945
-9.82014e-09
-7.09261e-08
-4.1553e-09
-0.000197256
-1.09851e-07
-0.000260552
2.23963e-08
-2.2119e-08
0.0011361
9.06866e-07
7.7754e-07
-1.19469e-06
5.78893e-07
-1.36559e-06
-1.16403e-07
3.36763e-07
4.577e-08
0.000253377
4.25086e-07
8.60963e-07
-1.54595e-06
1.24619e-07
-5.10293e-07
-1.24841e-06
4.55521e-08
-5.45032e-07
7.16308e-07
-2.28257e-07
0.000260714
5.25651e-07
-2.47601e-08
9.02708e-07
-1.36235e-06
5.80848e-07
-1.19208e-06
7.79551e-07
-4.09375e-08
2.57912e-08
-0.000253165
1.34025e-08
-0.000236683
-2.88145e-08
-8.48849e-09
-1.62547e-09
-1.021e-08
0.000197347
0.000236905
-6.88979e-08
-9.75901e-09
9.26606e-09
-4.12096e-09
-0.000197197
1.54646e-07
-3.60043e-09
0.000284855
-4.65528e-08
1.57011e-07
-6.01423e-09
0.000284998
-0.000274265
8.78989e-08
9.28982e-08
1.14996e-08
-0.000284627
8.10421e-08
-2.01413e-08
1.42298e-08
-0.000284769
7.86958e-08
1.229e-09
9.91138e-05
-8.94601e-09
-9.90549e-05
-1.07434e-07
-0.00026054
1.67224e-08
-2.15363e-08
0.00113594
9.06511e-07
7.80047e-07
-1.19467e-06
5.75903e-07
-1.36818e-06
-1.16413e-07
3.31585e-07
4.57345e-08
0.000253344
4.24154e-07
8.61387e-07
-1.50874e-06
1.21696e-07
-5.07784e-07
-1.25361e-06
5.16433e-08
-5.50427e-07
7.2189e-07
-2.30709e-07
0.000260703
5.30993e-07
-2.51051e-08
9.02329e-07
-1.36499e-06
5.80641e-07
-1.18935e-06
7.82017e-07
-4.08266e-08
2.56177e-08
-0.000253132
1.86084e-08
-1.98237e-10
-0.000236716
-8.36961e-09
-2.89059e-08
-1.01334e-08
0.000197402
3.25188e-10
0.000236938
-1.01816e-08
-6.88566e-08
-4.19553e-09
-0.000197251
-0.000236674
-8.62326e-09
-2.88686e-08
-1.58651e-09
-1.02275e-08
0.000197338
0.000236896
-9.73551e-09
-6.88329e-08
9.2834e-09
-4.06843e-09
-0.000197188
9.9093e-05
-9.90345e-05
9.90883e-05
-9.90298e-05
7.04539e-10
6.64601e-08
0.00014558
-0.000145644
-3.4012e-09
-7.36898e-08
-1.08872e-08
-0.000237817
-2.63708e-10
2.42716e-07
-0.000173707
-2.95685e-09
-1.05567e-10
0.000173676
-0.000230511
-2.76631e-08
-1.14038e-08
0.000230439
1.00524e-07
-0.00017378
-1.31586e-10
-0.000230661
-1.4177e-08
2.19613e-07
-4.3318e-09
0.000145554
-8.03808e-05
3.16918e-09
4.10997e-09
8.03736e-05
-4.05067e-08
0.000270228
1.50639e-08
1.75748e-07
-0.000270391
-6.89425e-09
0.000198008
1.27903e-08
5.21795e-08
3.23037e-09
-8.04246e-05
1.22765e-08
0.000270143
6.95849e-08
-0.000145672
2.67021e-09
2.88497e-08
-3.55071e-08
-1.06423e-08
-8.56136e-11
1.30719e-07
-4.34937e-10
0.000173813
-1.15099e-10
-0.000173888
-6.77333e-08
0.000230734
2.23682e-07
-0.000230886
-0.000145736
-1.33038e-10
1.04001e-07
3.97881e-08
8.03304e-05
-0.000269983
-2.43128e-09
0.000269901
6.737e-08
-1.21145e-08
-1.06816e-09
1.25061e-07
1.73211e-07
8.03236e-05
9.93327e-05
-1.09915e-08
2.30362e-08
-9.93447e-05
1.0234e-09
5.18471e-08
6.64959e-08
7.77896e-10
0.000145578
-0.000145642
-3.47252e-09
-1.12804e-08
-7.37274e-08
-0.000237804
4.61572e-11
2.42741e-07
-0.0002305
-2.76904e-08
-1.14789e-08
0.000230428
1.00525e-07
-0.000173704
-2.98884e-09
-5.90818e-11
0.000173673
-0.00023065
-1.42947e-08
2.19636e-07
-0.000173777
-3.59954e-11
-4.35475e-09
0.000145552
-8.03821e-05
3.02938e-09
4.16062e-09
8.03749e-05
-4.04588e-08
0.000270222
1.51688e-08
1.75742e-07
-0.000270385
-6.63786e-09
0.00019799
1.08214e-08
5.20595e-08
3.32473e-09
-8.04259e-05
1.241e-08
0.000270137
6.95258e-08
-0.00014567
2.88568e-08
2.73872e-09
-1.05627e-08
-3.55342e-08
-1.53848e-11
1.30769e-07
-6.7743e-08
0.000230723
2.23719e-07
-0.000230876
-5.37636e-10
0.000173809
-9.71291e-12
-0.000173884
-0.000145735
1.04032e-07
-3.53989e-11
3.98046e-08
8.03317e-05
-0.000269977
-2.41921e-09
0.000269894
6.73042e-08
-1.21286e-08
-9.01603e-10
1.24972e-07
1.73189e-07
8.03249e-05
9.93248e-05
-1.04523e-08
2.50951e-08
1.36847e-09
4.90541e-08
-3.3437e-08
-3.34522e-08
0.000218955
-0.000219063
8.61871e-08
8.84727e-08
-8.19549e-05
1.77377e-08
-2.53468e-09
8.19397e-05
-8.19428e-05
1.77566e-08
-2.59418e-09
8.19276e-05
-8.19978e-05
9.46326e-09
-8.19857e-05
9.46753e-09
5.61784e-08
5.61711e-08
0.000218878
8.73666e-08
-6.03251e-08
-6.00433e-08
0.000228979
8.93236e-08
-0.000229036
8.9732e-08
1.68641e-08
0.000285819
-2.47352e-08
-0.000285911
1.01335e-08
0.000260145
1.1793e-07
-0.000260186
1.00908e-07
5.48671e-09
0.000187162
-0.000187211
8.98228e-08
-6.03167e-08
-5.79312e-08
0.000228903
8.94785e-08
-0.000228964
8.96711e-08
1.6949e-08
0.000285733
-2.47608e-08
1.00521e-08
-0.000285825
0.000260022
1.13244e-07
1.06008e-07
-0.000260062
5.53826e-09
0.000187106
-0.000187155
-1.97031e-08
-1.97119e-08
-0.000219141
-8.2012e-05
-8.19999e-05
1.3965e-07
-1.07166e-07
0.000228833
1.99994e-07
-0.00018706
5.74419e-08
0.000187013
1.68643e-07
-4.31741e-09
-4.91684e-08
4.76468e-08
-0.000259978
-8.42092e-08
0.000259941
1.11787e-07
9.77659e-08
2.96834e-07
1.78277e-07
0.000228775
8.75395e-08
1.39578e-07
-1.05212e-07
0.000228761
1.95661e-07
-0.000187006
5.9479e-08
0.000186958
1.66264e-07
-4.75772e-09
-4.9179e-08
4.75451e-08
-0.000259858
-8.65161e-08
0.000259823
1.0933e-07
1.00231e-07
2.91576e-07
1.78147e-07
0.000228705
8.54463e-08
1.91686e-09
6.11648e-08
0.000145241
-0.0001453
-4.35884e-09
-6.75458e-08
-9.47723e-09
-0.000236887
-1.51533e-10
2.23777e-07
-0.00017332
-3.9466e-09
-3.74654e-11
-0.000229673
-2.27748e-08
-9.92584e-09
8.53844e-08
-0.000173386
-5.40153e-11
-0.000229811
-1.27681e-08
2.02466e-07
-5.12368e-09
-8.0187e-05
-2.7543e-10
5.1344e-09
8.01821e-05
-3.66735e-08
0.000269288
1.3425e-08
-0.000269437
1.62099e-07
-4.33238e-09
0.000197374
9.61812e-09
4.27575e-08
4.13781e-09
-8.02278e-05
1.07044e-08
0.000269215
5.74276e-08
-0.000145322
3.82227e-09
2.36976e-08
-2.98752e-08
-9.03714e-09
3.73571e-11
1.13649e-07
-1.65873e-09
0.000173412
-0.000173479
-7.15433e-11
-6.22022e-08
0.000229874
-0.000230014
2.06243e-07
-0.000145382
-6.98119e-11
8.85068e-08
3.63402e-08
8.01414e-05
-0.000269069
6.52814e-10
5.54923e-08
-9.81678e-09
-1.82866e-09
1.14586e-07
1.59814e-07
9.90843e-05
-9.73723e-09
2.2188e-08
1.68238e-09
4.58264e-08
6.11779e-08
1.95069e-09
0.000145239
-0.000145298
-4.38513e-09
-9.83047e-09
-6.75805e-08
-0.000236874
1.38945e-10
2.23797e-07
-0.000229661
-2.2785e-08
-1.00271e-08
8.53939e-08
-0.000173317
-3.97644e-09
2.37309e-11
-0.000229799