/*--------------------------------*- C++ -*----------------------------------*\
| =========                 |                                                 |
| \\      /  F ield         | OpenFOAM: The Open Source CFD Toolbox           |
|  \\    /   O peration     | Version:  2312                                  |
|   \\  /    A nd           | Website:  www.openfoam.com                      |
|    \\/     M anipulation  |                                                 |
\*---------------------------------------------------------------------------*/
FoamFile
{
    version     2.0;
    format      ascii;
    arch        "LSB;label=32;scalar=64";
    class       volVectorField;
    location    "250";
    object      U;
}
// * * * * * * * * * * * * * * * * * * * * * * * * * * * * * * * * * * * * * //

dimensions      [0 1 -1 0 0 0 0];

internalField   nonuniform List<vector> 
43008
(
(6.39719e-05 6.40169e-05 0.108307)
(6.18289e-05 -0.000101459 0.107566)
(6.24848e-05 6.25096e-05 0.108622)
(-9.96971e-05 6.13022e-05 0.107779)
(6.10715e-05 -9.95746e-05 0.107779)
(-0.00016249 -0.000162497 0.106572)
(0.000166907 0.000166902 0.106496)
(-2.27713e-06 -2.22991e-06 0.106712)
(6.19498e-05 0.000101539 0.107565)
(-6.22958e-05 0.000101699 0.107565)
(6.17504e-05 0.000100399 0.107726)
(-6.15882e-05 0.000100384 0.107726)
(2.90923e-06 -2.81492e-06 0.106712)
(0.000101488 6.19108e-05 0.107566)
(0.000101535 -6.19253e-05 0.107565)
(0.000100354 6.16693e-05 0.107727)
(0.000100387 -6.17332e-05 0.107726)
(-0.000100279 6.14823e-05 0.107727)
(-0.000100136 -6.12355e-05 0.107726)
(0.000166757 -0.000166805 0.106496)
(-2.15322e-06 2.22292e-06 0.106712)
(-6.21683e-05 -0.000101697 0.107565)
(6.16478e-05 -0.000100302 0.107727)
(-6.11613e-05 -0.000100123 0.107727)
(3.1102e-06 3.16347e-06 0.106712)
(0.000163517 0.000163494 0.106572)
(6.12573e-05 9.97061e-05 0.107779)
(-6.14185e-05 9.98052e-05 0.107778)
(-0.000163217 0.000163185 0.106572)
(9.96539e-05 6.11957e-05 0.107779)
(9.96647e-05 -6.1149e-05 0.107778)
(-9.96803e-05 -6.11263e-05 0.107778)
(0.000163408 -0.000163473 0.106572)
(-6.10817e-05 -9.96716e-05 0.107778)
(2.52888e-06 3.21837e-05 0.0947129)
(-2.97567e-06 2.42019e-05 0.0841128)
(2.83428e-06 5.6141e-05 0.0947952)
(-4.69335e-06 3.59595e-06 0.0840706)
(3.51713e-06 -1.65173e-06 0.0725166)
(3.21697e-05 2.5859e-06 0.0947127)
(2.42093e-05 -2.88891e-06 0.0841127)
(5.61582e-05 2.8653e-06 0.0947949)
(3.58387e-06 -4.79788e-06 0.0840706)
(-6.40908e-05 6.40602e-05 0.108307)
(6.39571e-05 -6.39808e-05 0.108306)
(-6.39654e-05 -6.39296e-05 0.108306)
(6.27818e-05 6.27913e-05 0.108544)
(-6.26928e-05 6.26862e-05 0.108544)
(6.28224e-05 -6.28228e-05 0.108544)
(-6.26764e-05 -6.26684e-05 0.108544)
(-7.48236e-05 6.60846e-06 0.102977)
(-0.000100843 6.12127e-05 0.107621)
(-3.86181e-05 7.88909e-06 0.0963533)
(-0.000103133 1.98238e-05 0.10814)
(7.63134e-06 -1.35181e-06 0.0725224)
(-1.60757e-06 3.432e-06 0.0725155)
(6.52208e-06 -7.48583e-05 0.102977)
(2.0166e-05 -0.00010351 0.108068)
(1.97089e-05 -7.10612e-05 0.0963684)
(6.12612e-05 -0.000100921 0.107621)
(6.84408e-06 -0.000121167 0.102958)
(1.97318e-05 -0.000103157 0.10814)
(7.93289e-06 -3.84423e-05 0.0963517)
(1.18626e-06 1.30065e-06 0.106669)
(-2.37961e-05 -2.38146e-06 0.0899322)
(-2.34405e-06 -2.38012e-05 0.089929)
(2.11402e-06 2.62469e-05 0.0943482)
(-1.93626e-06 2.1632e-05 0.0838376)
(2.37593e-06 4.96532e-05 0.0944193)
(-4.09376e-06 1.50203e-06 0.0838057)
(-1.44319e-06 7.50136e-06 0.0723401)
(3.48949e-06 -1.72409e-06 0.0723393)
(2.62157e-05 2.1785e-06 0.094348)
(2.16656e-05 -2.04555e-06 0.0838376)
(4.96704e-05 2.37798e-06 0.0944191)
(1.48505e-06 -4.07563e-06 0.0838057)
(-6.2509e-05 6.24937e-05 0.108622)
(6.24749e-05 -6.24794e-05 0.108622)
(-6.2389e-05 -6.2357e-05 0.108622)
(-6.79757e-05 5.47066e-06 0.102727)
(-6.49976e-05 1.77698e-05 0.0960326)
(-0.000102268 1.9512e-05 0.108351)
(-9.89372e-05 6.05608e-05 0.10783)
(-0.000113028 5.68191e-06 0.102714)
(-3.33379e-05 6.13536e-06 0.0960236)
(-0.000101932 1.92413e-05 0.108419)
(7.22292e-06 -1.53321e-06 0.0723402)
(-1.82304e-06 3.39302e-06 0.0723384)
(5.38236e-06 -6.80305e-05 0.102726)
(1.94884e-05 -0.000102254 0.10835)
(1.78136e-05 -6.53476e-05 0.096034)
(6.03298e-05 -9.88791e-05 0.10783)
(5.77762e-06 -0.000113056 0.102714)
(1.91104e-05 -0.000101925 0.108419)
(6.26987e-06 -3.34916e-05 0.0960218)
(-3.13074e-05 -1.32944e-05 0.0896772)
(-1.32699e-05 -3.13006e-05 0.0896761)
(4.07539e-06 4.16134e-06 0.106749)
(-2.07735e-05 -1.41736e-06 0.0896358)
(-1.41648e-06 -2.07503e-05 0.0896325)
(1.08835e-06 7.54714e-06 0.0725228)
(-3.46691e-06 -1.66261e-06 0.0725163)
(7.64137e-06 1.19966e-06 0.0725216)
(-1.80702e-06 -3.61287e-06 0.0725154)
(1.38465e-05 3.45724e-05 0.0899841)
(3.46052e-05 1.38047e-05 0.0899812)
(-2.29165e-06 -2.23398e-06 0.106671)
(2.85401e-06 2.40842e-05 0.0899328)
(2.39683e-05 2.80167e-06 0.0899303)
(-3.77278e-06 -1.09131e-06 0.0724259)
(2.10205e-06 7.13878e-06 0.0724287)
(-1.16261e-06 -3.97741e-06 0.0724253)
(7.01378e-06 1.93603e-06 0.0724274)
(0.000162941 0.000162911 0.106538)
(1.27393e-06 2.13631e-05 0.0897816)
(2.12898e-05 1.19716e-06 0.0897792)
(1.45174e-05 3.31182e-05 0.0898275)
(3.30235e-05 1.4465e-05 0.0898245)
(-2.68232e-06 3.218e-05 0.0947127)
(2.85116e-06 2.41913e-05 0.0841123)
(-2.90535e-06 5.61431e-05 0.0947951)
(4.73521e-06 3.56811e-06 0.0840704)
(6.47346e-06 7.4848e-05 0.102978)
(1.96656e-05 7.10043e-05 0.0963677)
(2.02162e-05 0.00010352 0.108068)
(6.12688e-05 0.000100944 0.10762)
(6.76999e-06 0.000121071 0.102958)
(7.92541e-06 3.86117e-05 0.0963516)
(1.98006e-05 0.000103162 0.10814)
(-6.61654e-06 7.48282e-05 0.102978)
(-1.96867e-05 7.06636e-05 0.0963665)
(-2.03384e-05 0.000103546 0.108068)
(-6.13453e-05 0.000100935 0.10762)
(-6.75826e-06 0.000121057 0.102958)
(-7.88508e-06 3.85925e-05 0.0963502)
(-1.99066e-05 0.000103159 0.10814)
(2.4602e-06 5.29073e-05 0.0946032)
(-4.29589e-06 2.47888e-06 0.0839345)
(-2.03479e-06 2.29205e-05 0.0839712)
(2.43145e-06 2.89733e-05 0.094526)
(-2.55495e-06 5.29082e-05 0.0946031)
(4.29576e-06 2.61181e-06 0.083934)
(2.13201e-06 2.28701e-05 0.0839711)
(-2.38016e-06 2.89835e-05 0.0945258)
(6.09758e-06 0.000117319 0.102839)
(6.14863e-05 0.000100736 0.107674)
(6.7625e-06 3.43758e-05 0.0961843)
(1.95998e-05 0.000102618 0.108281)
(1.9412e-05 6.93445e-05 0.0961978)
(1.95686e-05 0.000102884 0.108211)
(5.93337e-06 7.12145e-05 0.102854)
(-6.24789e-06 0.000117321 0.102839)
(-6.12165e-05 0.000100614 0.107674)
(-6.83332e-06 3.45855e-05 0.0961826)
(-1.94538e-05 0.000102611 0.108281)
(-1.94068e-05 6.96322e-05 0.0961967)
(-1.94822e-05 0.00010286 0.108211)
(-5.85264e-06 7.12299e-05 0.102854)
(1.88981e-06 -1.82391e-06 0.106671)
(-2.80947e-06 2.44304e-05 0.0899303)
(-2.44281e-05 2.81443e-06 0.0899338)
(1.60113e-06 -3.44705e-06 0.0725186)
(3.8918e-06 -1.03375e-06 0.0724259)
(-2.08133e-06 6.99246e-06 0.0724284)
(-0.000163013 0.000162962 0.106539)
(-1.25758e-06 2.12749e-05 0.0897791)
(-2.11818e-05 1.32466e-06 0.0897829)
(-1.46319e-05 3.35923e-05 0.0898241)
(-3.3531e-05 1.46291e-05 0.0898256)
(1.08876e-06 -3.83867e-06 0.0724283)
(-6.87668e-06 2.04538e-06 0.0724261)
(7.48627e-05 6.53009e-06 0.102978)
(7.0946e-05 1.9645e-05 0.0963674)
(0.000103508 2.02156e-05 0.108068)
(0.000100889 6.12227e-05 0.107621)
(0.000121095 6.74861e-06 0.102958)
(3.85248e-05 7.88971e-06 0.0963508)
(0.000103148 1.9752e-05 0.10814)
(3.21648e-05 -2.61192e-06 0.0947125)
(2.4223e-05 2.8041e-06 0.0841123)
(5.61544e-05 -2.8721e-06 0.0947947)
(3.6337e-06 4.6483e-06 0.0840699)
(7.487e-05 -6.5489e-06 0.102978)
(0.000103509 -2.02334e-05 0.108068)
(7.10874e-05 -1.97247e-05 0.0963669)
(0.000100988 -6.13779e-05 0.10762)
(0.000121113 -6.79057e-06 0.102958)
(0.000103157 -1.98357e-05 0.10814)
(3.84443e-05 -7.93841e-06 0.0963493)
(5.29076e-05 2.48562e-06 0.0946028)
(2.53109e-06 -4.41859e-06 0.0839346)
(2.29122e-05 -2.16706e-06 0.083971)
(2.89796e-05 2.41058e-06 0.0945259)
(0.000117301 6.14929e-06 0.102839)
(0.000100688 6.14102e-05 0.107674)
(3.43623e-05 6.68408e-06 0.0961836)
(0.000102614 1.9526e-05 0.108281)
(6.92849e-05 1.93598e-05 0.0961972)
(0.000102887 1.94733e-05 0.108211)
(7.12287e-05 5.87135e-06 0.102855)
(5.29069e-05 -2.52876e-06 0.0946026)
(2.53099e-06 4.47191e-06 0.083934)
(2.29454e-05 2.09492e-06 0.0839707)
(2.89755e-05 -2.422e-06 0.0945257)
(0.000117307 -6.17827e-06 0.102838)
(0.000100782 -6.16018e-05 0.107673)
(0.000102613 -1.96262e-05 0.108281)
(3.44347e-05 -6.64428e-06 0.096182)
(0.000102895 -1.96127e-05 0.108211)
(6.91432e-05 -1.93689e-05 0.096197)
(7.12324e-05 -5.94111e-06 0.102854)
(-3.22294e-05 2.61148e-06 0.0947135)
(-3.58291e-06 -4.74862e-06 0.084072)
(-7.4765e-05 -6.506e-06 0.102977)
(-0.000101104 -6.17117e-05 0.10762)
(-0.000103191 -2.0022e-05 0.10814)
(-3.78563e-05 -7.75292e-06 0.0963516)
(-3.21821e-05 -2.64829e-06 0.0947125)
(-3.57647e-06 4.75725e-06 0.0840705)
(-0.000117272 6.15685e-06 0.102839)
(-0.000100526 6.10894e-05 0.107674)
(-3.45963e-05 6.7963e-06 0.0961861)
(-0.000102572 1.94848e-05 0.108281)
(-6.95327e-05 1.93572e-05 0.0961969)
(-0.000102835 1.94651e-05 0.108211)
(-7.13339e-05 5.89579e-06 0.102854)
(-5.28803e-05 2.43644e-06 0.094602)
(-2.59609e-06 -4.3536e-06 0.0839359)
(-2.27856e-05 -2.17422e-06 0.0839701)
(-2.90584e-05 2.42381e-06 0.0945266)
(-0.000117247 -6.20414e-06 0.102839)
(-0.000100569 -6.13444e-05 0.107674)
(-0.000102553 -1.94798e-05 0.108281)
(-3.51642e-05 -6.92379e-06 0.096184)
(-0.000102851 -1.97087e-05 0.108211)
(-6.90153e-05 -1.92179e-05 0.0961971)
(-7.1322e-05 -5.93515e-06 0.102854)
(-5.29115e-05 -2.60496e-06 0.0946026)
(-2.5498e-06 4.36311e-06 0.0839342)
(-2.28623e-05 2.24227e-06 0.0839711)
(-2.90292e-05 -2.36209e-06 0.0945256)
(3.46964e-05 -1.40004e-05 0.0899815)
(1.3937e-05 -3.46762e-05 0.0899838)
(-2.25043e-06 2.30367e-06 0.10667)
(2.39209e-05 -2.84376e-06 0.0899285)
(2.82841e-06 -2.39742e-05 0.0899326)
(1.32082e-06 -7.64665e-06 0.0725224)
(-3.46195e-06 1.59886e-06 0.0725162)
(-1.19705e-06 3.97456e-06 0.0724253)
(7.16155e-06 -2.00651e-06 0.0724285)
(0.000163044 -0.000163129 0.106538)
(2.14328e-05 -1.26989e-06 0.0897772)
(1.27933e-06 -2.14721e-05 0.0897813)
(3.29451e-05 -1.44224e-05 0.0898251)
(1.43383e-05 -3.29411e-05 0.0898272)
(-3.98963e-06 1.19096e-06 0.0724259)
(1.96314e-06 -7.16642e-06 0.0724285)
(-6.57528e-06 -7.4809e-05 0.102977)
(-2.01934e-05 -0.000103546 0.108068)
(-1.9902e-05 -7.114e-05 0.096367)
(-6.16415e-05 -0.000101066 0.10762)
(-6.64988e-06 -0.000121158 0.102957)
(-1.9985e-05 -0.00010319 0.10814)
(-7.71543e-06 -3.77998e-05 0.0963499)
(2.53842e-06 -3.21954e-05 0.0947123)
(-2.80584e-06 -2.4217e-05 0.0841131)
(2.93718e-06 -5.6158e-05 0.0947945)
(-4.6665e-06 -3.61425e-06 0.0840705)
(-2.70284e-06 -3.21791e-05 0.0947127)
(2.67442e-06 -2.4245e-05 0.0841123)
(-2.77017e-06 -5.61591e-05 0.0947938)
(4.7601e-06 -3.55178e-06 0.0840703)
(6.1248e-06 -0.000117287 0.102839)
(6.14949e-05 -0.000100709 0.107674)
(1.96401e-05 -0.000102591 0.108281)
(6.64855e-06 -3.44288e-05 0.0961843)
(1.95765e-05 -0.000102884 0.108211)
(1.93183e-05 -6.913e-05 0.0961984)
(5.94639e-06 -7.12754e-05 0.102854)
(-6.25482e-06 -0.00011723 0.102838)
(-6.1258e-05 -0.00010054 0.107674)
(-1.94165e-05 -0.00010256 0.108281)
(-6.89049e-06 -3.50648e-05 0.0961823)
(-1.9625e-05 -0.000102862 0.108211)
(-1.91809e-05 -6.89981e-05 0.0961973)
(-5.89837e-06 -7.13245e-05 0.102854)
(2.45996e-06 -5.29078e-05 0.0946024)
(-4.45723e-06 -2.50035e-06 0.0839345)
(-2.11726e-06 -2.29231e-05 0.0839715)
(2.46964e-06 -2.90276e-05 0.0945256)
(-2.61384e-06 -5.2886e-05 0.0946018)
(4.37887e-06 -2.54319e-06 0.083934)
(2.24724e-06 -2.28325e-05 0.0839711)
(-2.3257e-06 -2.90155e-05 0.094526)
(1.44453e-06 3.72482e-06 0.0725168)
(3.73567e-06 1.44685e-06 0.0725158)
(-0.000163974 -0.000163952 0.106538)
(-2.17822e-05 -1.72386e-06 0.0897807)
(-1.69868e-06 -2.17677e-05 0.0897773)
(-3.34144e-05 -1.4268e-05 0.0898262)
(-1.42214e-05 -3.34137e-05 0.0898249)
(1.40982e-06 3.68724e-06 0.072426)
(-7.12868e-06 -1.85598e-06 0.0724289)
(3.70897e-06 1.39769e-06 0.0724249)
(-1.83887e-06 -7.12126e-06 0.0724287)
(1.634e-06 7.36677e-06 0.0723404)
(-3.41601e-06 -1.8401e-06 0.0723393)
(7.26754e-06 1.49228e-06 0.0723393)
(-1.8625e-06 -3.38957e-06 0.0723386)
(1.30367e-05 3.14515e-05 0.0896786)
(3.13458e-05 1.29846e-05 0.0896754)
(-4.68231e-06 -4.60333e-06 0.10675)
(1.91962e-06 2.13199e-05 0.0896361)
(2.12925e-05 1.9002e-06 0.0896339)
(-2.21292e-06 2.62406e-05 0.094348)
(1.97018e-06 2.17536e-05 0.0838375)
(-2.35684e-06 4.96673e-05 0.0944192)
(4.14006e-06 1.4946e-06 0.0838052)
(5.35777e-06 6.8006e-05 0.102727)
(1.78876e-05 6.52593e-05 0.0960335)
(1.95132e-05 0.000102289 0.108351)
(6.05094e-05 9.89964e-05 0.107829)
(5.7239e-06 0.000112991 0.102714)
(6.28513e-06 3.35493e-05 0.0960217)
(1.91924e-05 0.000101965 0.108419)
(-5.40821e-06 6.79741e-05 0.102727)
(-1.78363e-05 6.51296e-05 0.0960327)
(-1.95163e-05 0.0001023 0.10835)
(-6.06918e-05 9.90418e-05 0.107829)
(-5.61643e-06 0.000112997 0.102714)
(-6.13669e-06 3.33051e-05 0.0960201)
(-1.92996e-05 0.000101969 0.108419)
(-1.27498e-05 3.10231e-05 0.0896754)
(-3.09083e-05 1.28224e-05 0.089677)
(4.18828e-06 -4.10609e-06 0.10675)
(-1.73428e-06 2.13593e-05 0.0896339)
(-2.13407e-05 1.66791e-06 0.0896375)
(-7.29219e-06 1.38989e-06 0.0723378)
(1.67611e-06 -3.47005e-06 0.0723417)
(6.80685e-05 5.39649e-06 0.102727)
(6.52232e-05 1.7812e-05 0.0960328)
(0.000102276 1.94937e-05 0.108351)
(9.8925e-05 6.04563e-05 0.10783)
(0.000113021 5.66379e-06 0.102714)
(3.34775e-05 6.26834e-06 0.0960211)
(0.00010193 1.91834e-05 0.108419)
(2.62151e-05 -2.11678e-06 0.0943478)
(2.16727e-05 2.07354e-06 0.0838373)
(4.967e-05 -2.35241e-06 0.0944189)
(1.52789e-06 4.09101e-06 0.0838049)
(6.80746e-05 -5.3503e-06 0.102727)
(0.000102268 -1.95065e-05 0.10835)
(6.53788e-05 -1.78297e-05 0.0960325)
(9.89581e-05 -6.04264e-05 0.107829)
(0.000113036 -5.70267e-06 0.102714)
(0.000101926 -1.9184e-05 0.108419)
(3.34949e-05 -6.2607e-06 0.0960195)
(-2.62969e-05 2.1935e-06 0.0943486)
(-2.16265e-05 -2.01143e-06 0.0838366)
(-4.96117e-05 2.38008e-06 0.094418)
(-1.4868e-06 -4.1639e-06 0.083807)
(-6.79375e-05 -5.30505e-06 0.102727)
(-0.000102265 -1.93837e-05 0.10835)
(-6.56735e-05 -1.80333e-05 0.0960325)
(-9.91043e-05 -6.08162e-05 0.107829)
(-0.00011308 -5.6586e-06 0.102714)
(-0.000101965 -1.92909e-05 0.108419)
(-3.29403e-05 -6.08614e-06 0.0960218)
(-2.62664e-05 -2.1396e-06 0.0943477)
(-2.17334e-05 1.93036e-06 0.0838371)
(-4.96767e-05 -2.29353e-06 0.0944187)
(-1.48059e-06 4.14283e-06 0.0838053)
(3.15161e-05 -1.31078e-05 0.0896758)
(1.30444e-05 -3.14814e-05 0.0896779)
(-4.84235e-06 4.88053e-06 0.106749)
(2.12489e-05 -1.92185e-06 0.0896319)
(1.91416e-06 -2.12839e-05 0.089636)
(1.50877e-06 -7.23066e-06 0.0723402)
(-3.41187e-06 1.81335e-06 0.072339)
(-5.35812e-06 -6.80119e-05 0.102727)
(-1.93663e-05 -0.000102267 0.10835)
(-1.80098e-05 -6.56265e-05 0.0960329)
(-6.07844e-05 -9.90939e-05 0.107829)
(-5.58865e-06 -0.000113074 0.102713)
(-1.9275e-05 -0.000101965 0.108419)
(-6.06343e-06 -3.28105e-05 0.0960201)
(2.09403e-06 -2.62797e-05 0.0943477)
(-2.05492e-06 -2.16488e-05 0.083838)
(2.43347e-06 -4.9669e-05 0.0944186)
(-4.09671e-06 -1.4931e-06 0.0838054)
(-2.20855e-06 -2.6256e-05 0.094348)
(1.94858e-06 -2.17258e-05 0.0838373)
(-2.26763e-06 -4.96607e-05 0.094418)
(4.14239e-06 -1.50777e-06 0.0838052)
(-7.20058e-06 -1.7151e-06 0.07234)
(1.60944e-06 3.62298e-06 0.0723395)
(-1.6973e-06 -7.20927e-06 0.0723398)
(3.63776e-06 1.59655e-06 0.0723385)
(-4.82843e-07 9.09157e-06 0.0780519)
(2.6061e-06 5.45085e-05 0.0946984)
(1.13336e-06 -4.08121e-06 0.0798803)
(4.85034e-06 2.36977e-05 0.0927876)
(7.74869e-07 5.07729e-06 0.0798565)
(5.16208e-06 4.5415e-05 0.0927633)
(1.50499e-06 -5.90746e-07 0.078081)
(3.6119e-06 -2.06126e-06 0.0694024)
(5.44593e-06 2.79122e-05 0.0880937)
(-5.2571e-06 4.16157e-06 0.0841418)
(1.44735e-06 6.35775e-06 0.0693532)
(4.41761e-06 1.03561e-05 0.0881263)
(1.31968e-06 -7.44949e-07 0.0781298)
(2.75024e-06 3.36956e-05 0.0948093)
(7.33703e-07 4.82597e-06 0.0799052)
(5.50784e-06 4.67448e-05 0.0928536)
(-6.54719e-07 8.92128e-06 0.0781009)
(1.079e-06 -4.34564e-06 0.0799286)
(5.20332e-06 2.4918e-05 0.0928772)
(1.44443e-06 6.36903e-06 0.0693097)
(4.08224e-06 9.60004e-06 0.0880467)
(-2.58901e-06 2.34484e-05 0.0840412)
(5.09327e-06 2.70903e-05 0.0880134)
(3.6542e-06 -2.06481e-06 0.0693588)
(4.15492e-06 -1.18341e-06 0.0725644)
(-1.64333e-06 7.16221e-06 0.0724746)
(9.10677e-06 -4.48213e-07 0.0780521)
(5.45024e-05 2.67701e-06 0.0946981)
(2.36999e-05 4.89693e-06 0.0927874)
(-4.06376e-06 1.15239e-06 0.0798802)
(4.5423e-05 5.22471e-06 0.0927631)
(5.10355e-06 8.01972e-07 0.0798564)
(-5.79444e-07 1.51608e-06 0.0780812)
(-2.08796e-06 3.64164e-06 0.0694027)
(2.78932e-05 5.48409e-06 0.0880937)
(4.17123e-06 -5.16192e-06 0.0841418)
(6.36738e-06 1.5e-06 0.0693538)
(1.03185e-05 4.46084e-06 0.0881262)
(-7.3978e-07 1.34789e-06 0.07813)
(3.3693e-05 2.8102e-06 0.0948091)
(4.67575e-05 5.55017e-06 0.0928534)
(4.83618e-06 7.70043e-07 0.0799052)
(8.92668e-06 -6.05664e-07 0.0781011)
(2.49222e-05 5.26321e-06 0.0928771)
(-4.32605e-06 1.11279e-06 0.0799286)
(6.3897e-06 1.48245e-06 0.0693102)
(9.57227e-06 4.09106e-06 0.0880465)
(2.34409e-05 -2.64329e-06 0.0840411)
(2.70867e-05 5.11714e-06 0.0880134)
(-2.08129e-06 3.65915e-06 0.0693591)
(-1.34497e-06 3.86514e-06 0.0725629)
(7.10871e-06 -1.91266e-06 0.0724748)
(-2.1924e-05 -2.19136e-05 0.0856588)
(-2.93684e-06 4.15797e-07 0.0695531)
(4.322e-07 -2.95217e-06 0.0695463)
(-7.15123e-06 -4.75937e-06 0.0695233)
(-4.75174e-06 -7.17037e-06 0.0695169)
(-1.30662e-05 -1.30645e-05 0.0856748)
(-2.69607e-05 -2.87328e-05 0.0946547)
(-2.40241e-05 -2.16017e-06 0.0900113)
(-4.63811e-05 -4.13239e-05 0.0999712)
(-1.8427e-05 3.71328e-06 0.0834453)
(-2.86723e-05 -2.69218e-05 0.0946459)
(-2.12709e-06 -2.40453e-05 0.0900081)
(-4.12544e-05 -4.63672e-05 0.0999668)
(3.7492e-06 -1.84409e-05 0.0834389)
(-1.4842e-05 -1.48296e-05 0.085747)
(-3.03513e-06 1.30729e-06 0.0696024)
(1.31937e-06 -3.04691e-06 0.0695956)
(-5.40429e-05 -3.91219e-05 0.0945423)
(-1.8872e-05 2.22429e-06 0.0833786)
(-3.39611e-05 -1.41851e-05 0.0899037)
(-4.52193e-05 -3.88626e-05 0.0998922)
(-8.62777e-05 -6.18336e-05 0.0998458)
(-2.80629e-05 -2.41298e-06 0.0833532)
(-2.574e-05 -2.72627e-05 0.0945709)
(-3.91182e-05 -5.4026e-05 0.0945345)
(2.26149e-06 -1.88794e-05 0.0833723)
(-1.41445e-05 -3.39799e-05 0.0899023)
(-3.87835e-05 -4.52238e-05 0.0998879)
(-6.17843e-05 -8.62738e-05 0.0998425)
(-2.4217e-06 -2.81417e-05 0.0833488)
(-2.71988e-05 -2.57043e-05 0.0945621)
(3.10105e-07 9.39486e-06 0.0778694)
(2.20513e-06 4.82465e-05 0.0943308)
(1.31535e-06 -3.04687e-06 0.0797032)
(4.20653e-06 1.90975e-05 0.0924514)
(9.87333e-07 6.08692e-06 0.0796778)
(4.53919e-06 4.04616e-05 0.0924242)
(2.17159e-06 -2.4725e-07 0.0778996)
(3.81614e-06 -2.26384e-06 0.0692347)
(4.96269e-06 2.47777e-05 0.0877856)
(-4.29859e-06 1.91097e-06 0.0838695)
(1.66372e-06 6.05231e-06 0.0691853)
(3.9666e-06 7.49939e-06 0.0878211)
(2.08822e-06 -3.84634e-07 0.0779431)
(2.29889e-06 2.75693e-05 0.0944361)
(9.56658e-07 5.80432e-06 0.0797201)
(4.77406e-06 4.1555e-05 0.0925055)
(1.33162e-07 9.25719e-06 0.077913)
(1.30419e-06 -3.37046e-06 0.0797452)
(4.48795e-06 2.00803e-05 0.0925322)
(1.71915e-06 6.17116e-06 0.0691461)
(3.64047e-06 6.95687e-06 0.08775)
(-1.82866e-06 2.10873e-05 0.0837734)
(4.6832e-06 2.42047e-05 0.087714)
(3.80519e-06 -2.22447e-06 0.0691956)
(3.8813e-06 -1.25754e-06 0.0723823)
(-1.75262e-06 7.054e-06 0.0722972)
(9.3979e-06 3.14489e-07 0.0778695)
(4.82343e-05 2.26321e-06 0.0943305)
(1.90923e-05 4.25147e-06 0.0924513)
(-3.02401e-06 1.33196e-06 0.0797032)
(4.0462e-05 4.57829e-06 0.092424)
(6.11228e-06 1.00956e-06 0.0796778)
(-2.40657e-07 2.17807e-06 0.0778998)
(-2.24836e-06 3.87909e-06 0.0692353)
(2.4829e-05 4.97579e-06 0.0877857)
(1.91124e-06 -4.36448e-06 0.0838695)
(6.15089e-06 1.78504e-06 0.0691858)
(7.48854e-06 3.98529e-06 0.0878211)
(-3.82235e-07 2.12017e-06 0.0779433)
(2.75665e-05 2.33367e-06 0.094436)
(4.15747e-05 4.79127e-06 0.0925053)
(5.81008e-06 9.93345e-07 0.0797201)
(9.27009e-06 2.18184e-07 0.0779132)
(2.00856e-05 4.51779e-06 0.0925321)
(-3.35361e-06 1.33604e-06 0.0797452)
(6.16226e-06 1.75023e-06 0.0691466)
(6.92194e-06 3.68174e-06 0.08775)
(2.10805e-05 -1.8422e-06 0.0837734)
(2.41764e-05 4.71278e-06 0.087714)
(-2.23049e-06 3.83091e-06 0.069196)
(-1.58343e-06 3.7336e-06 0.0723815)
(6.8044e-06 -1.90813e-06 0.0722971)
(-2.0159e-05 -2.01668e-05 0.0853854)
(-2.36718e-06 9.04191e-07 0.0693703)
(9.19357e-07 -2.37434e-06 0.0693636)
(-6.48142e-06 -4.39124e-06 0.0693386)
(-4.38131e-06 -6.4933e-06 0.0693323)
(-1.18069e-05 -1.18146e-05 0.0854035)
(-2.31871e-05 -2.5155e-05 0.0943332)
(-8.18847e-05 -5.77454e-05 0.099616)
(-2.56291e-05 -2.16898e-06 0.0831636)
(-2.11244e-05 -1.40153e-06 0.0897075)
(-5.06904e-05 -3.66856e-05 0.094304)
(-4.15884e-05 -3.61486e-05 0.0996626)
(-1.62874e-05 3.2071e-06 0.083191)
(-2.50413e-05 -2.31521e-05 0.0943243)
(-5.76368e-05 -8.18375e-05 0.099613)
(-2.174e-06 -2.56825e-05 0.0831592)
(-1.39146e-06 -2.11053e-05 0.0897041)
(-3.66237e-05 -5.06805e-05 0.0942962)
(-3.60041e-05 -4.15452e-05 0.0996582)
(3.24761e-06 -1.6274e-05 0.0831847)
(-1.26687e-05 -1.26796e-05 0.0854688)
(-6.5161e-06 -4.31543e-06 0.0693814)
(-4.30215e-06 -6.52947e-06 0.0693751)
(-2.04825e-05 -2.04941e-05 0.0854517)
(-2.38133e-06 1.3204e-06 0.0694139)
(1.33738e-06 -2.38901e-06 0.0694072)
(-5.00578e-05 -3.56299e-05 0.0942261)
(-1.63931e-05 2.51564e-06 0.0831308)
(-3.0851e-05 -1.31328e-05 0.0896051)
(-4.05104e-05 -3.4657e-05 0.0995868)
(-8.0505e-05 -5.66284e-05 0.0995401)
(-2.55773e-05 -2.39893e-06 0.0831035)
(-2.24608e-05 -2.40785e-05 0.0942562)
(-3.55721e-05 -5.0043e-05 0.0942184)
(2.55674e-06 -1.63799e-05 0.0831245)
(-1.31202e-05 -3.0838e-05 0.0896041)
(-3.45177e-05 -4.04644e-05 0.0995823)
(-5.65179e-05 -8.04504e-05 0.099537)
(-2.40395e-06 -2.56274e-05 0.0830991)
(-2.3969e-05 -2.2422e-05 0.0942473)
(-4.15184e-06 -1.46794e-06 0.0725639)
(1.75873e-06 7.04125e-06 0.0724751)
(-1.35013e-06 -4.02237e-06 0.0725633)
(6.96247e-06 1.69354e-06 0.0724739)
(2.03901e-05 2.04402e-05 0.0856604)
(3.80342e-07 2.3747e-06 0.0695502)
(2.35473e-06 4.80265e-07 0.0695433)
(5.7505e-06 6.71124e-06 0.0695208)
(6.69312e-06 5.80538e-06 0.0695141)
(1.14786e-05 1.15213e-05 0.0856775)
(2.77621e-05 2.73086e-05 0.0946541)
(6.4622e-05 8.79653e-05 0.0999248)
(1.33277e-06 2.87252e-05 0.0834212)
(2.26355e-06 2.47861e-05 0.0900115)
(4.01736e-05 5.58807e-05 0.0946257)
(-2.42312e-06 2.0141e-05 0.0834456)
(4.07829e-05 4.67652e-05 0.0999703)
(2.73194e-05 2.77045e-05 0.094646)
(8.78919e-05 6.45027e-05 0.0999205)
(2.87472e-05 1.22846e-06 0.0834151)
(2.48345e-05 2.22809e-06 0.0900091)
(5.58402e-05 4.01341e-05 0.094617)
(2.015e-05 -2.527e-06 0.0834397)
(4.67383e-05 4.06826e-05 0.0999669)
(1.38552e-05 1.39106e-05 0.0857489)
(4.22669e-06 7.59327e-06 0.0695723)
(7.48192e-06 4.12636e-06 0.0695655)
(2.335e-05 2.34403e-05 0.085732)
(-4.78883e-07 3.05435e-06 0.0696018)
(2.98324e-06 -5.53922e-07 0.0695948)
(3.81672e-05 5.36001e-05 0.0945425)
(-8.4236e-07 1.91274e-05 0.0833782)
(1.45795e-05 3.46988e-05 0.0899043)
(3.69125e-05 4.52388e-05 0.0998929)
(4.11967e-06 2.92954e-05 0.0833527)
(2.67516e-05 2.46621e-05 0.0945739)
(6.01987e-05 8.65482e-05 0.0998454)
(5.35309e-05 3.81294e-05 0.094534)
(1.90964e-05 -8.57298e-07 0.0833723)
(3.46179e-05 1.45474e-05 0.0899014)
(4.5173e-05 3.68164e-05 0.0998895)
(2.93012e-05 4.10414e-06 0.0833469)
(2.45979e-05 2.66734e-05 0.0945657)
(8.64388e-05 6.00919e-05 0.0998411)
(1.82205e-06 7.49878e-06 0.072384)
(-3.5256e-06 -1.31146e-06 0.0724704)
(7.4378e-06 1.62229e-06 0.0723828)
(-1.36078e-06 -3.65722e-06 0.0724696)
(1.19782e-05 1.20349e-05 0.0856062)
(5.54494e-06 6.50531e-06 0.0694711)
(6.48333e-06 5.66308e-06 0.0694644)
(1.9164e-05 1.92301e-05 0.0855893)
(-8.32808e-07 2.55791e-06 0.0695028)
(2.51873e-06 -7.68892e-07 0.0694958)
(3.82173e-05 5.14876e-05 0.0943841)
(3.84584e-05 4.26321e-05 0.0997401)
(1.34214e-05 3.14876e-05 0.0897526)
(-4.45165e-06 1.60853e-05 0.0832542)
(1.34451e-06 2.51666e-05 0.083227)
(5.94073e-05 8.3078e-05 0.0996943)
(2.65979e-05 2.44066e-05 0.0944122)
(5.13969e-05 3.81698e-05 0.0943754)
(4.25875e-05 3.8336e-05 0.0997367)
(3.14194e-05 1.33491e-05 0.0897494)
(1.60555e-05 -4.47464e-06 0.0832483)
(2.51387e-05 1.34139e-06 0.0832207)
(8.29586e-05 5.92801e-05 0.0996899)
(2.43583e-05 2.65217e-05 0.0944041)
(2.7155e-05 2.37357e-05 0.0944947)
(3.8854e-06 2.70542e-05 0.0832878)
(5.79717e-05 8.46231e-05 0.0997701)
(2.13834e-06 2.21315e-05 0.0898565)
(3.80256e-05 5.13757e-05 0.0944644)
(-2.73195e-06 1.65483e-05 0.0833151)
(3.70184e-05 4.36963e-05 0.0998176)
(2.36779e-05 2.7079e-05 0.0944866)
(2.70332e-05 3.89915e-06 0.0832818)
(8.44938e-05 5.78611e-05 0.0997657)
(2.20938e-05 2.07392e-06 0.0898541)
(5.12644e-05 3.79759e-05 0.0944558)
(1.65276e-05 -2.74755e-06 0.0833093)
(4.36376e-05 3.69131e-05 0.0998142)
(2.12234e-05 2.12775e-05 0.0855189)
(-2.12742e-06 2.68072e-06 0.0694601)
(2.65914e-06 -2.07131e-06 0.069453)
(3.82008e-06 6.75134e-06 0.0694268)
(6.73191e-06 3.89473e-06 0.0694199)
(1.41834e-05 1.42182e-05 0.0855361)
(3.3165e-07 9.08094e-06 0.0780515)
(-2.77606e-06 5.45091e-05 0.0946983)
(-1.21706e-06 -4.07972e-06 0.0798802)
(-4.99741e-06 2.36714e-05 0.0927868)
(-8.8208e-07 5.07655e-06 0.0798564)
(-5.33563e-06 4.54022e-05 0.0927637)
(-1.59359e-06 -5.99405e-07 0.0780802)
(-3.74451e-06 -2.06765e-06 0.0694038)
(-5.53447e-06 2.78932e-05 0.0880946)
(5.12406e-06 4.19645e-06 0.0841416)
(-1.56677e-06 6.36044e-06 0.0693556)
(-4.57519e-06 1.03212e-05 0.0881259)
(-1.46999e-06 -7.71728e-07 0.078129)
(-2.88351e-06 3.36931e-05 0.0948091)
(-8.3607e-07 4.82351e-06 0.0799051)
(-5.58045e-06 4.67423e-05 0.0928538)
(-1.19539e-06 -4.3512e-06 0.0799285)
(5.28368e-07 8.90175e-06 0.0781005)
(-5.3368e-06 2.48919e-05 0.0928763)
(-1.57897e-06 6.4103e-06 0.069312)
(-4.20036e-06 9.57149e-06 0.0880463)
(2.57554e-06 2.34409e-05 0.084041)
(-5.26258e-06 2.70927e-05 0.0880144)
(-3.71908e-06 -2.06982e-06 0.0693603)
(1.69163e-06 -5.39855e-07 0.0780335)
(8.3478e-07 5.36183e-06 0.0798093)
(4.91311e-06 4.41395e-05 0.092675)
(2.45956e-06 3.05678e-05 0.0946183)
(-2.83158e-07 9.18533e-06 0.0780042)
(1.19158e-06 -3.81136e-06 0.0798335)
(4.71108e-06 2.24551e-05 0.0927)
(1.57355e-06 6.00966e-06 0.0692256)
(-1.87273e-06 2.23153e-05 0.0839034)
(4.12526e-06 8.03055e-06 0.087894)
(3.71002e-06 -2.4515e-06 0.0692748)
(4.9861e-06 2.54438e-05 0.0878592)
(3.74493e-06 -2.21093e-06 0.0693164)
(4.90595e-06 2.62963e-05 0.0879351)
(-4.32212e-06 3.12785e-06 0.0840015)
(1.53817e-06 6.2771e-06 0.069267)
(4.0604e-06 8.8502e-06 0.0879693)
(-1.26438e-07 9.18685e-06 0.0779578)
(2.44588e-06 5.12033e-05 0.09451)
(1.25423e-06 -3.60763e-06 0.0797885)
(4.65569e-06 2.11969e-05 0.0926148)
(1.83487e-06 -5.17951e-07 0.0779876)
(8.92676e-07 5.60195e-06 0.0797638)
(4.86222e-06 4.2813e-05 0.092589)
(-1.72543e-06 -5.19457e-07 0.0780327)
(-8.89302e-07 5.36951e-06 0.0798093)
(-5.00382e-06 4.41468e-05 0.0926754)
(-2.47559e-06 3.0568e-05 0.0946181)
(2.20106e-07 9.20262e-06 0.0780038)
(-1.23129e-06 -3.80245e-06 0.0798334)
(-4.7217e-06 2.2466e-05 0.0926991)
(-1.69348e-06 6.21389e-06 0.0692278)
(1.90971e-06 2.23845e-05 0.0839032)
(-4.09677e-06 8.19065e-06 0.0878936)
(-4.91914e-06 2.56168e-05 0.0878602)
(-3.87745e-06 -2.25395e-06 0.0692765)
(-3.76805e-06 -2.16229e-06 0.0693178)
(-4.93091e-06 2.6335e-05 0.0879362)
(4.36887e-06 3.12214e-06 0.0840009)
(-1.5852e-06 6.33146e-06 0.0692694)
(-4.01659e-06 8.89085e-06 0.0879688)
(2.36922e-08 9.23029e-06 0.0779574)
(-2.4057e-06 5.1212e-05 0.09451)
(-1.31049e-06 -3.59855e-06 0.0797884)
(-4.60444e-06 2.12279e-05 0.092614)
(-9.33476e-07 5.61322e-06 0.0797637)
(-4.82422e-06 4.28601e-05 0.0925893)
(-1.96234e-06 -4.92097e-07 0.0779868)
(-2.11033e-05 2.10287e-05 0.0856603)
(-4.76073e-07 2.48719e-06 0.0695448)
(-2.52848e-06 4.16248e-07 0.0695502)
(-5.56182e-06 6.99445e-06 0.0695161)
(-7.03196e-06 5.50983e-06 0.0695216)
(-1.1888e-05 1.18056e-05 0.085677)
(-2.81045e-05 2.76293e-05 0.0946449)
(-2.03105e-06 2.4598e-05 0.0900093)
(3.14158e-06 1.98754e-05 0.0834405)
(-4.16093e-05 4.66684e-05 0.0999664)
(-2.76839e-05 2.81161e-05 0.0946537)
(-2.46083e-05 2.03819e-06 0.0900126)
(-4.6714e-05 4.1607e-05 0.0999712)
(-1.98328e-05 -3.19655e-06 0.0834462)
(-1.46821e-05 1.45958e-05 0.085748)
(8.72932e-07 3.31354e-06 0.0695968)
(-3.36777e-06 -9.26623e-07 0.0696021)
(-3.8309e-05 5.41297e-05 0.0945327)
(7.58399e-07 1.98011e-05 0.0833727)
(-1.43368e-05 3.47012e-05 0.0899012)
(-3.73072e-05 4.54309e-05 0.099888)
(-3.6907e-06 2.95095e-05 0.0833473)
(-6.09776e-05 8.65688e-05 0.0998405)
(-2.65639e-05 2.52058e-05 0.0945638)
(-5.41927e-05 3.82915e-05 0.0945415)
(-1.97478e-05 -8.14265e-07 0.0833783)
(-3.46774e-05 1.43642e-05 0.089903)
(-4.54484e-05 3.72938e-05 0.0998929)
(-8.65893e-05 6.09867e-05 0.0998445)
(-2.94812e-05 3.66104e-06 0.0833528)
(-2.52278e-05 2.65628e-05 0.0945725)
(1.11265e-06 -4.04259e-06 0.0725658)
(-7.10888e-06 1.66682e-06 0.0724729)
(-1.77345e-06 7.42364e-06 0.0723836)
(3.47843e-06 -1.46187e-06 0.0724702)
(-1.12256e-05 1.11218e-05 0.0856063)
(-5.96958e-06 6.4188e-06 0.0694653)
(-6.43454e-06 5.9182e-06 0.0694707)
(-1.90541e-05 1.89828e-05 0.08559)
(1.87474e-07 2.3572e-06 0.0694958)
(-2.41777e-06 -2.21784e-07 0.0695011)
(-3.78897e-05 5.07992e-05 0.0943762)
(-3.77186e-05 4.25405e-05 0.0997367)
(-1.35739e-05 3.16749e-05 0.0897493)
(4.31508e-06 1.57057e-05 0.0832482)
(-5.8256e-05 8.30665e-05 0.0996898)
(-2.15083e-06 2.53304e-05 0.0832196)
(-2.65891e-05 2.37706e-05 0.0944053)
(-5.08976e-05 3.78948e-05 0.0943852)
(-4.25631e-05 3.77169e-05 0.0997416)
(-3.15534e-05 1.36033e-05 0.0897507)
(-1.56578e-05 -4.24637e-06 0.0832536)
(-2.53275e-05 2.19449e-06 0.0832253)
(-8.3075e-05 5.82532e-05 0.0996939)
(-2.38436e-05 2.661e-05 0.0944139)
(-2.66087e-05 2.33822e-05 0.094486)
(-4.50418e-06 2.78907e-05 0.0832812)
(-5.76345e-05 8.4778e-05 0.0997646)
(-2.43268e-06 2.26382e-05 0.0898538)
(-3.6081e-05 4.38459e-05 0.099813)
(-3.76005e-05 5.15058e-05 0.0944546)
(1.73815e-06 1.72959e-05 0.0833088)
(-2.34265e-05 2.66178e-05 0.0944947)
(-2.78682e-05 4.48635e-06 0.0832869)
(-8.47764e-05 5.76273e-05 0.0997687)
(-2.26176e-05 2.44446e-06 0.0898576)
(-5.15732e-05 3.75928e-05 0.0944635)
(-1.72328e-05 -1.77159e-06 0.0833143)
(-4.38537e-05 3.60585e-05 0.0998179)