/*--------------------------------*- C++ -*----------------------------------*\
| =========                 |                                                 |
| \\      /  F ield         | OpenFOAM: The Open Source CFD Toolbox           |
|  \\    /   O peration     | Version:  2312                                  |
|   \\  /    A nd           | Website:  www.openfoam.com                      |
|    \\/     M anipulation  |                                                 |
\*---------------------------------------------------------------------------*/
FoamFile
{
    version     2.0;
    format      ascii;
    arch        "LSB;label=32;scalar=64";
    class       volVectorField;
    location    "250";
    object      U;
}
// * * * * * * * * * * * * * * * * * * * * * * * * * * * * * * * * * * * * * //

dimensions      [0 1 -1 0 0 0 0];

internalField   nonuniform List<vector> 
42973
(
(2.50142e-05 2.49808e-05 0.113151)
(-1.66631e-05 1.21116e-05 0.108267)
(-4.90613e-05 -4.91464e-05 0.104718)
(2.01386e-05 2.0169e-05 0.113168)
(-1.37067e-05 3.77503e-06 0.108214)
(3.87879e-06 -1.37989e-05 0.108213)
(-4.22227e-05 -4.22052e-05 0.104668)
(2.14145e-05 2.15172e-05 0.113171)
(-1.22069e-05 1.45477e-05 0.108157)
(1.41557e-05 -1.1118e-05 0.108156)
(-4.87861e-05 -4.84789e-05 0.104612)
(1.52357e-05 1.50133e-05 0.113176)
(-7.7779e-06 -3.92485e-06 0.108106)
(-3.50494e-06 -9.54202e-06 0.108105)
(-3.47691e-05 -3.54723e-05 0.104568)
(1.43098e-05 1.46977e-05 0.11315)
(-4.20192e-06 1.5003e-05 0.10805)
(1.45233e-05 -2.00906e-06 0.108049)
(-4.31031e-05 -4.2062e-05 0.10453)
(1.44207e-05 1.39991e-05 0.113153)
(-4.92064e-06 -8.62394e-06 0.108)
(-8.04193e-06 -7.06454e-06 0.107999)
(-3.68773e-05 -3.81165e-05 0.104467)
(-2.55625e-05 -2.51849e-05 0.113056)
(3.76641e-05 -2.21225e-05 0.107959)
(-2.25361e-05 3.94999e-05 0.107958)
(1.71936e-06 3.00819e-06 0.104518)
(4.43745e-05 4.43285e-05 0.112962)
(-1.74311e-05 2.75444e-05 0.107759)
(2.76138e-05 -1.84728e-05 0.10776)
(-4.87536e-05 -4.9675e-05 0.104294)
(1.35114e-05 1.32827e-05 0.113007)
(-2.90063e-05 8.76848e-06 0.107774)
(8.95062e-06 -2.8989e-05 0.107771)
(-6.41471e-05 -6.41917e-05 0.104276)
(-2.44718e-05 -2.42992e-05 0.113072)
(2.23628e-06 -5.04576e-06 0.108032)
(-5.10769e-06 2.69696e-06 0.108031)
(-4.77441e-05 -4.72961e-05 0.10458)
(-3.31025e-05 -3.30906e-05 0.113014)
(5.42987e-05 -3.26401e-05 0.108019)
(-3.28074e-05 5.40167e-05 0.108018)
(1.06444e-05 1.03518e-05 0.10461)
(-8.06489e-05 -8.06944e-05 0.112711)
(0.000114492 -5.8898e-05 0.107797)
(-5.87581e-05 0.000114347 0.107796)
(4.97459e-05 4.97152e-05 0.104474)
(-9.73305e-05 -9.72732e-05 0.112338)
(0.000108727 -5.65121e-05 0.107673)
(-5.6468e-05 0.000108864 0.107672)
(3.66228e-05 3.67398e-05 0.104435)
(-6.78719e-05 -6.78493e-05 0.112109)
(6.2781e-05 -3.55158e-05 0.10766)
(-3.55375e-05 6.28411e-05 0.107659)
(5.03171e-06 5.05051e-06 0.104479)
(-3.12487e-05 -3.12913e-05 0.112021)
(2.37176e-05 -1.4587e-05 0.107697)
(-1.46134e-05 2.36407e-05 0.107696)
(-1.95309e-05 -1.95731e-05 0.104542)
(-8.41471e-06 -8.43274e-06 0.112004)
(3.66324e-06 -2.68751e-06 0.107729)
(-2.66529e-06 3.62931e-06 0.107728)
(-3.10035e-05 -3.10073e-05 0.104583)
(3.02899e-07 3.19988e-07 0.112009)
(-1.94072e-06 1.444e-06 0.10774)
(1.47315e-06 -1.92648e-06 0.107739)
(-3.38758e-05 -3.38345e-05 0.104595)
(6.74436e-07 7.00748e-07 0.112012)
(-9.02572e-07 1.26438e-06 0.107739)
(1.25949e-06 -8.91896e-07 0.107737)
(-3.30261e-05 -3.30026e-05 0.104592)
(-8.93282e-07 -8.78294e-07 0.112009)
(3.85254e-07 4.20527e-07 0.107735)
(4.09275e-07 3.79869e-07 0.107734)
(-3.22798e-05 -3.228e-05 0.104589)
(-1.26657e-06 -1.27049e-06 0.112007)
(3.07926e-07 2.97388e-07 0.107735)
(2.96503e-07 3.08799e-07 0.107734)
(-3.2342e-05 -3.23411e-05 0.10459)
(-9.49829e-07 -9.47498e-07 0.112006)
(-8.38586e-08 5.18905e-07 0.107735)
(5.13556e-07 -8.81515e-08 0.107734)
(-3.26013e-05 -3.26012e-05 0.104591)
(-6.68555e-07 -6.58523e-07 0.112005)
(-2.5739e-07 6.9118e-07 0.107736)
(6.85296e-07 -2.66249e-07 0.107735)
(-3.27471e-05 -3.27476e-05 0.104591)
(-5.72375e-07 -5.71327e-07 0.112005)
(-3.13778e-07 6.49581e-07 0.107736)
(6.57842e-07 -3.17715e-07 0.107735)
(-3.27305e-05 -3.27263e-05 0.104591)
(-5.4831e-07 -5.38698e-07 0.112005)
(-3.55294e-07 7.42427e-07 0.107736)
(7.37335e-07 -3.61635e-07 0.107735)
(-3.28211e-05 -3.28203e-05 0.104591)
(-5.26588e-07 -5.22397e-07 0.112005)
(-3.50343e-07 7.41383e-07 0.107736)
(7.51013e-07 -3.54686e-07 0.107735)
(-3.27977e-05 -3.27866e-05 0.104591)
(-5.66322e-07 -5.60428e-07 0.112005)
(-3.43544e-07 6.76549e-07 0.107736)
(6.9308e-07 -3.41132e-07 0.107735)
(-3.27527e-05 -3.27419e-05 0.104591)
(-5.8271e-07 -5.62442e-07 0.112005)
(-3.16842e-07 6.97673e-07 0.107736)
(6.77624e-07 -3.20174e-07 0.107735)
(-3.27706e-05 -3.27624e-05 0.104591)
(4.92268e-05 4.91949e-05 0.104718)
(-4.62108e-05 -4.61655e-05 0.104835)
(1.21915e-05 1.70848e-05 0.108265)
(-1.19916e-05 1.6948e-05 0.108265)
(5.82459e-06 1.54408e-05 0.108224)
(-6.17784e-06 1.57433e-05 0.108223)
(-4.88479e-05 4.89922e-05 0.104719)
(4.59203e-05 -4.57737e-05 0.104835)
(1.70499e-05 1.21396e-05 0.108267)
(1.53012e-05 5.84736e-06 0.108226)
(1.53693e-05 -5.53492e-06 0.108222)
(-1.69347e-05 -1.20475e-05 0.108264)
(-1.56322e-05 6.19094e-06 0.108226)
(-1.54922e-05 -6.08648e-06 0.108223)
(-4.63526e-05 4.64726e-05 0.104834)
(-1.19253e-05 -1.7043e-05 0.108266)
(5.5137e-06 -1.5099e-05 0.108225)
(-6.06711e-06 -1.52824e-05 0.108225)
(4.59377e-05 4.59961e-05 0.104834)
(4.19949e-05 4.19821e-05 0.104668)
(-3.91366e-05 -3.9075e-05 0.104781)
(4.26207e-06 1.40547e-05 0.108211)
(-3.92493e-06 1.4176e-05 0.108211)
(1.24226e-05 1.00291e-05 0.108171)
(-1.25483e-05 9.61428e-06 0.108171)
(-4.20076e-05 4.21664e-05 0.104668)
(3.8716e-05 -3.94735e-05 0.104782)
(1.40219e-05 4.22479e-06 0.108213)
(1.39157e-05 -3.97122e-06 0.10821)
(9.96943e-06 1.23223e-05 0.108173)
(1.01212e-05 -1.27994e-05 0.10817)
(-1.41866e-05 -4.49331e-06 0.10821)
(-1.03133e-05 1.23134e-05 0.108174)
(-9.85685e-06 -1.1844e-05 0.10817)
(4.17602e-05 -4.17598e-05 0.104668)
(-3.87882e-05 3.87344e-05 0.10478)
(-4.3968e-06 -1.41087e-05 0.108212)
(1.27546e-05 -1.02489e-05 0.108172)
(-1.19665e-05 -9.8135e-06 0.108172)
(3.93917e-05 3.95485e-05 0.10478)
(4.88319e-05 4.8942e-05 0.104612)
(-4.86042e-05 -4.87316e-05 0.104724)
(1.37706e-05 1.11048e-05 0.108155)
(-1.47982e-05 1.09393e-05 0.108155)
(1.47863e-06 1.33383e-05 0.108113)
(-9.17375e-07 1.37794e-05 0.108112)
(-4.97933e-05 4.88981e-05 0.104613)
(4.95267e-05 -4.83382e-05 0.104723)
(1.09038e-05 1.37985e-05 0.108157)
(1.12396e-05 -1.41129e-05 0.108153)
(1.33529e-05 1.41946e-06 0.108115)
(1.32763e-05 -1.25494e-06 0.108111)
(-1.10728e-05 -1.33411e-05 0.108154)
(-1.24871e-05 1.16564e-06 0.108114)
(-1.34506e-05 -2.24153e-06 0.108112)
(4.91914e-05 -4.92053e-05 0.104612)
(-4.89066e-05 4.88207e-05 0.104723)
(-1.37567e-05 -1.05719e-05 0.108156)
(1.06871e-06 -1.32254e-05 0.108114)
(-1.78784e-06 -1.36911e-05 0.108114)
(4.84498e-05 4.79891e-05 0.104722)
(3.49034e-05 3.46864e-05 0.104569)
(-4.49856e-05 -4.47253e-05 0.104692)
(-2.97103e-06 9.38483e-06 0.108103)
(4.32632e-06 9.56821e-06 0.108103)
(4.75442e-06 -2.71024e-06 0.108067)
(-5.53528e-06 -3.12575e-06 0.108067)
(-3.34994e-05 3.47573e-05 0.104569)
(4.3681e-05 -4.49565e-05 0.104693)
(9.57491e-06 -3.16142e-06 0.108105)
(9.32221e-06 3.26199e-06 0.108102)
(-2.93214e-06 4.85775e-06 0.108069)
(-2.75761e-06 -4.64246e-06 0.108066)
(-9.24338e-06 2.37997e-06 0.108102)
(1.76159e-06 5.35687e-06 0.10807)
(2.7986e-06 -3.8399e-06 0.108066)
(3.44929e-05 -3.47349e-05 0.104568)
(-4.46809e-05 4.50447e-05 0.104692)
(3.22672e-06 -1.00905e-05 0.108104)
(4.97829e-06 3.03025e-06 0.108069)
(-4.41348e-06 3.45204e-06 0.108068)
(4.49949e-05 4.57846e-05 0.104691)
(4.28294e-05 4.31644e-05 0.104529)
(-3.63782e-05 -3.66339e-05 0.104608)
(1.40574e-05 2.71099e-06 0.108047)
(-1.54212e-05 2.48705e-06 0.108047)
(9.79823e-06 1.73356e-05 0.108)
(-8.91822e-06 1.76064e-05 0.107999)
(-4.44808e-05 4.31082e-05 0.10453)
(3.76432e-05 -3.64451e-05 0.104608)
(2.26471e-06 1.43104e-05 0.108049)
(2.61962e-06 -1.40859e-05 0.108046)
(1.74321e-05 9.54035e-06 0.108002)
(1.74021e-05 -1.01956e-05 0.107998)
(-2.79858e-06 -1.32164e-05 0.108047)
(-1.62299e-05 9.00381e-06 0.108002)
(-1.72495e-05 -1.06151e-05 0.107999)
(4.32084e-05 -4.27963e-05 0.104529)
(-3.65599e-05 3.60896e-05 0.104607)
(-1.42949e-05 -1.48468e-06 0.108049)
(9.60777e-06 -1.76776e-05 0.108001)
(-9.82625e-06 -1.79408e-05 0.108001)
(3.66432e-05 3.56894e-05 0.104607)
(3.73346e-05 3.69628e-05 0.104468)
(-8.32463e-05 -8.29972e-05 0.104665)
(-7.52975e-06 6.19298e-06 0.107998)
(8.82207e-06 6.3556e-06 0.107997)
(-3.40941e-05 -3.81299e-05 0.107981)
(3.33766e-05 -3.83933e-05 0.10798)
(-3.58046e-05 3.69457e-05 0.104468)
(8.21531e-05 -8.33228e-05 0.104667)
(6.55268e-06 -7.98745e-06 0.108)
(6.33457e-06 7.20978e-06 0.107996)
(-3.82222e-05 -3.39655e-05 0.107982)
(-3.81665e-05 3.45234e-05 0.107979)
(-6.044e-06 6.59286e-06 0.107997)
(3.74033e-05 -3.37058e-05 0.107984)
(3.79558e-05 3.4807e-05 0.107979)
(3.70121e-05 -3.77124e-05 0.104467)
(-8.3076e-05 8.3489e-05 0.104665)
(7.95061e-06 -7.39091e-06 0.107998)
(-3.40996e-05 3.83477e-05 0.107981)
(3.41134e-05 3.85616e-05 0.107981)
(8.29175e-05 8.38828e-05 0.104664)
(-2.23356e-06 -1.84585e-06 0.104519)
(-3.36822e-05 -3.374e-05 0.104457)
(-2.28458e-05 -3.8538e-05 0.107956)
(2.18169e-05 -3.88369e-05 0.107956)
(2.26918e-05 4.27658e-06 0.107811)
(-2.23482e-05 4.34959e-06 0.10781)
(9.9154e-07 -2.13476e-06 0.10452)
(3.4314e-05 -3.34047e-05 0.104457)
(-3.89149e-05 -2.24539e-05 0.107958)
(-3.87196e-05 2.34368e-05 0.107955)
(4.09265e-06 2.26851e-05 0.107813)
(4.17708e-06 -2.27927e-05 0.10781)
(3.83602e-05 2.38988e-05 0.107955)
(-3.87353e-06 2.26561e-05 0.107812)
(-4.12293e-06 -2.29972e-05 0.10781)
(-1.92622e-06 2.5474e-06 0.104519)
(-3.37363e-05 3.36092e-05 0.104457)
(2.24689e-05 3.97617e-05 0.107957)
(2.26486e-05 -3.99264e-06 0.107813)
(-2.27362e-05 -4.13306e-06 0.107813)
(3.37836e-05 3.31998e-05 0.104457)
(4.90478e-05 4.88454e-05 0.104294)
(-1.43325e-05 -1.4614e-05 0.104378)
(2.78235e-05 1.80863e-05 0.107758)
(-2.72342e-05 1.83173e-05 0.107757)
(1.4416e-05 3.30629e-05 0.107727)
(-1.43615e-05 3.32831e-05 0.107726)
(-4.83479e-05 4.91894e-05 0.104293)
(1.43999e-05 -1.45103e-05 0.104379)
(1.81302e-05 2.75894e-05 0.10776)
(1.81209e-05 -2.82496e-05 0.107756)
(3.3285e-05 1.41464e-05 0.107729)
(3.32753e-05 -1.4806e-05 0.107725)
(-1.78737e-05 -2.85625e-05 0.107757)
(-3.30469e-05 1.42567e-05 0.10773)
(-3.30482e-05 -1.46693e-05 0.107726)
(4.88205e-05 -4.92621e-05 0.104294)
(-1.44169e-05 1.41243e-05 0.104376)
(-2.75579e-05 -1.86602e-05 0.107759)
(1.43496e-05 -3.36322e-05 0.107727)
(-1.40216e-05 -3.3579e-05 0.107727)
(1.46601e-05 1.42849e-05 0.104376)
(6.43255e-05 6.41333e-05 0.104278)
(-2.60529e-05 -2.58561e-05 0.104702)
(8.92824e-06 2.87389e-05 0.107771)
(-9.12847e-06 2.88055e-05 0.107771)
(-1.71163e-06 4.35303e-06 0.107978)
(1.53388e-06 4.14317e-06 0.107977)
(-6.44273e-05 6.40942e-05 0.104278)
(2.58377e-05 -2.6147e-05 0.104702)
(2.88789e-05 8.79712e-06 0.107773)
(2.89578e-05 -9.0317e-06 0.107769)
(4.20329e-06 -1.58014e-06 0.10798)
(4.29198e-06 2.1224e-06 0.107976)
(-2.88566e-05 -8.74214e-06 0.10777)
(-4.60786e-06 -1.86371e-06 0.10798)
(-4.48807e-06 2.23468e-06 0.107977)
(6.42712e-05 -6.44579e-05 0.104276)
(-2.59271e-05 2.62677e-05 0.104701)
(-8.74565e-06 -2.88793e-05 0.107771)
(-1.84391e-06 -3.9509e-06 0.107978)
(1.5611e-06 -3.95386e-06 0.107978)
(2.57407e-05 2.63203e-05 0.104702)
(4.74647e-05 4.76537e-05 0.10458)
(-7.66848e-05 -7.67201e-05 0.104769)
(-4.97483e-06 -2.31733e-06 0.10803)
(4.93964e-06 -2.47697e-06 0.10803)
(-2.35644e-05 -3.7071e-05 0.108052)
(2.37973e-05 -3.69663e-05 0.108052)
(-4.7619e-05 4.74211e-05 0.10458)
(7.69231e-05 -7.64128e-05 0.104769)
(-2.48112e-06 -4.8583e-06 0.108032)
(-2.42595e-06 5.34292e-06 0.108029)
(-3.71188e-05 -2.36267e-05 0.108054)
(-3.70757e-05 2.35781e-05 0.108052)
(2.26566e-06 5.30883e-06 0.10803)
(3.74212e-05 -2.33639e-05 0.108055)
(3.72024e-05 2.32784e-05 0.108052)
(4.75481e-05 -4.73122e-05 0.10458)
(-7.65904e-05 7.66458e-05 0.104769)
(4.85289e-06 2.64497e-06 0.108031)
(-2.34791e-05 3.72004e-05 0.108054)
(2.35739e-05 3.70922e-05 0.108054)
(7.66999e-05 7.64314e-05 0.104768)
(-1.06255e-05 -1.06653e-05 0.10461)
(-0.000116592 -0.00011665 0.104612)
(-3.28616e-05 -5.3924e-05 0.108016)
(3.30738e-05 -5.377e-05 0.108016)
(-5.53783e-05 -0.00010334 0.107847)
(5.54133e-05 -0.00010329 0.107847)
(1.08365e-05 -1.03519e-05 0.10461)
(0.000116634 -0.000116739 0.104612)
(-5.39453e-05 -3.29662e-05 0.108018)
(-5.39365e-05 3.28313e-05 0.108015)
(-0.000103342 -5.54992e-05 0.107849)
(-0.000103351 5.53008e-05 0.107846)
(5.40734e-05 3.25318e-05 0.108016)
(0.000103491 -5.54605e-05 0.10785)
(0.000103405 5.53233e-05 0.107846)
(-1.05436e-05 1.05403e-05 0.10461)
(-0.000116713 0.000116541 0.104611)
(3.29344e-05 5.39196e-05 0.108018)
(-5.54326e-05 0.000103286 0.107848)
(5.55452e-05 0.000103321 0.107848)
(0.000116747 0.000116626 0.104611)
(-4.97219e-05 -4.96695e-05 0.104475)
(-0.000105646 -0.000105644 0.104543)
(-5.86992e-05 -0.000114454 0.107795)
(5.87222e-05 -0.000114494 0.107794)
(-5.95012e-05 -0.000116948 0.107689)
(5.94056e-05 -0.000117061 0.107689)
(4.96546e-05 -4.98307e-05 0.104475)
(0.000105535 -0.00010582 0.104543)
(-0.000114462 -5.88253e-05 0.107796)
(-0.000114456 5.86043e-05 0.107793)
(-0.000117003 -5.9511e-05 0.107691)
(-0.000116978 5.9467e-05 0.107688)
(0.000114473 5.87479e-05 0.107794)
(0.000116793 -5.96435e-05 0.107691)
(0.000116914 5.96634e-05 0.107688)
(-4.9744e-05 4.96151e-05 0.104474)
(-0.000105653 0.000105572 0.104542)
(5.88647e-05 0.000114447 0.107795)
(-5.95375e-05 0.000116881 0.10769)
(5.95358e-05 0.00011702 0.10769)
(0.000105648 0.000105751 0.104542)
(-3.6651e-05 -3.66202e-05 0.104436)
(-7.45683e-05 -7.45474e-05 0.104573)
(-5.64324e-05 -0.000108874 0.107671)
(5.63216e-05 -0.00010896 0.10767)
(-4.1372e-05 -7.46557e-05 0.107655)
(4.13521e-05 -7.46587e-05 0.107654)
(3.6519e-05 -3.67844e-05 0.104436)
(7.45452e-05 -7.45275e-05 0.104573)
(-0.000108954 -5.64236e-05 0.107673)
(-0.000108916 5.64267e-05 0.107669)
(-7.47398e-05 -4.13748e-05 0.107656)
(-7.4652e-05 4.14077e-05 0.107653)
(0.00010885 5.65817e-05 0.10767)
(7.46476e-05 -4.13411e-05 0.107656)
(7.46346e-05 4.13927e-05 0.107654)
(-3.66515e-05 3.65662e-05 0.104435)
(-7.45326e-05 7.45697e-05 0.104572)
(5.64374e-05 0.000108972 0.107672)
(-4.13643e-05 7.47471e-05 0.107655)
(4.13529e-05 7.47387e-05 0.107655)
(7.45211e-05 7.45521e-05 0.104572)
(-5.06869e-06 -5.06939e-06 0.104479)
(-4.91127e-05 -4.91261e-05 0.104635)
(-3.55501e-05 -6.27506e-05 0.107659)
(3.557e-05 -6.27253e-05 0.107658)
(-1.90669e-05 -3.16501e-05 0.107685)
(1.91477e-05 -3.15934e-05 0.107684)
(5.05478e-06 -5.04479e-06 0.104479)
(4.91684e-05 -4.90795e-05 0.104636)
(-6.28142e-05 -3.55635e-05 0.10766)
(-6.27297e-05 3.5588e-05 0.107657)
(-3.16628e-05 -1.91156e-05 0.107686)
(-3.16186e-05 1.91136e-05 0.107683)
(6.27334e-05 3.55345e-05 0.107658)
(3.17608e-05 -1.90714e-05 0.107687)
(3.16626e-05 1.90068e-05 0.107684)
(-5.06175e-06 5.05917e-06 0.104479)
(-4.91139e-05 4.91379e-05 0.104634)
(3.55443e-05 6.28071e-05 0.107659)
(-1.90943e-05 3.17024e-05 0.107686)
(1.91052e-05 3.16435e-05 0.107686)
(4.91139e-05 4.90701e-05 0.104635)
(1.95282e-05 1.95131e-05 0.104543)
(-3.65982e-05 -3.66029e-05 0.104681)
(-1.45704e-05 -2.36002e-05 0.107695)
(1.46437e-05 -2.35537e-05 0.107695)
(-4.805e-06 -6.94399e-06 0.107721)
(4.83555e-06 -6.94414e-06 0.10772)
(-1.94937e-05 1.95453e-05 0.104543)
(3.66172e-05 -3.66176e-05 0.104681)
(-2.36062e-05 -1.46196e-05 0.107696)
(-2.35857e-05 1.46115e-05 0.107694)
(-6.94135e-06 -4.83937e-06 0.107722)
(-6.94654e-06 4.80307e-06 0.107719)
(2.36199e-05 1.4505e-05 0.107694)
(7.00198e-06 -4.84524e-06 0.107723)
(6.95843e-06 4.77622e-06 0.10772)
(1.95018e-05 -1.95294e-05 0.104542)
(-3.6601e-05 3.65944e-05 0.10468)
(1.46066e-05 2.35882e-05 0.107696)
(-4.84e-06 6.95377e-06 0.107721)
(4.83238e-06 6.92662e-06 0.107721)
(3.65942e-05 3.65773e-05 0.10468)
(3.09968e-05 3.09939e-05 0.104584)
(-3.30767e-05 -3.30608e-05 0.104696)
(-2.64293e-06 -3.62277e-06 0.107727)
(2.65569e-06 -3.63283e-06 0.107726)
(1.01585e-06 1.42611e-06 0.107737)
(-1.04064e-06 1.40713e-06 0.107737)
(-3.10041e-05 3.0962e-05 0.104584)
(3.30649e-05 -3.30905e-05 0.104697)
(-3.62798e-06 -2.67138e-06 0.107728)
(-3.62389e-06 2.6275e-06 0.107725)
(1.3981e-06 1.00265e-06 0.107739)
(1.43818e-06 -1.04587e-06 0.107736)
(3.6329e-06 2.63817e-06 0.107726)
(-1.41589e-06 9.92805e-07 0.107739)
(-1.42445e-06 -9.82107e-07 0.107736)
(3.09852e-05 -3.10304e-05 0.104583)
(-3.30404e-05 3.30629e-05 0.104695)
(2.66878e-06 3.61989e-06 0.107727)
(1.021e-06 -1.40882e-06 0.107738)
(-1.00137e-06 -1.38384e-06 0.107738)
(3.30546e-05 3.30951e-05 0.104695)
(3.38514e-05 3.38647e-05 0.104595)
(-3.37009e-05 -3.36752e-05 0.104694)
(1.46924e-06 1.94968e-06 0.107738)
(-1.49735e-06 1.93086e-06 0.107738)
(1.53358e-06 1.38655e-06 0.107738)
(-1.55792e-06 1.3795e-06 0.107737)
(-3.38777e-05 3.38281e-05 0.104596)
(3.3694e-05 -3.36907e-05 0.104695)
(1.91396e-06 1.45714e-06 0.10774)
(1.96098e-06 -1.4931e-06 0.107737)
(1.34474e-06 1.53046e-06 0.107739)
(1.38411e-06 -1.53816e-06 0.107736)
(-1.94762e-06 -1.43068e-06 0.107738)
(-1.37044e-06 1.51495e-06 0.107739)
(-1.38229e-06 -1.50859e-06 0.107737)
(3.38704e-05 -3.38884e-05 0.104595)
(-3.3683e-05 3.36942e-05 0.104693)
(-1.45806e-06 -1.89792e-06 0.107739)
(1.50966e-06 -1.35476e-06 0.107738)
(-1.52308e-06 -1.33907e-06 0.107738)
(3.36776e-05 3.37049e-05 0.104694)
(3.30002e-05 3.30214e-05 0.104593)
(-3.44869e-05 -3.44794e-05 0.104691)
(1.28486e-06 9.22798e-07 0.107737)
(-1.30409e-06 9.20634e-07 0.107736)
(5.7798e-07 -1.74165e-07 0.107734)
(-5.76024e-07 -1.70134e-07 0.107734)
(-3.30201e-05 3.29951e-05 0.104593)
(3.44943e-05 -3.44793e-05 0.104691)
(8.82187e-07 1.28073e-06 0.107738)
(9.16134e-07 -1.28575e-06 0.107735)
(-2.04915e-07 5.60079e-07 0.107735)
(-1.8159e-07 -5.73649e-07 0.107733)
(-9.16104e-07 -1.27044e-06 0.107736)
(2.10521e-07 5.619e-07 0.107736)
(1.86539e-07 -5.78848e-07 0.107733)
(3.29974e-05 -3.30292e-05 0.104592)
(-3.44817e-05 3.44919e-05 0.10469)
(-1.28065e-06 -8.83438e-07 0.107737)
(5.40679e-07 2.0479e-07 0.107735)
(-5.51752e-07 1.98379e-07 0.107735)
(3.44811e-05 3.44793e-05 0.10469)
(3.22714e-05 3.22737e-05 0.10459)
(-3.44653e-05 -3.44646e-05 0.104691)
(4.39423e-07 -3.5077e-07 0.107733)
(-4.35323e-07 -3.47408e-07 0.107733)
(2.93548e-07 -3.73839e-07 0.107733)
(-2.87839e-07 -3.70841e-07 0.107733)
(-3.22785e-05 3.22597e-05 0.10459)
(3.44697e-05 -3.44687e-05 0.104691)
(-3.78165e-07 4.17396e-07 0.107735)
(-3.54646e-07 -4.35797e-07 0.107732)
(-3.92733e-07 2.6407e-07 0.107734)
(-3.64613e-07 -2.96145e-07 0.107732)
(3.61797e-07 -4.40089e-07 0.107733)
(3.98353e-07 2.71387e-07 0.107735)
(3.76876e-07 -2.86469e-07 0.107732)
(3.22611e-05 -3.22909e-05 0.104589)
(-3.44506e-05 3.44647e-05 0.10469)
(-4.16045e-07 3.72224e-07 0.107734)
(2.67113e-07 3.97641e-07 0.107734)
(-2.58105e-07 3.94371e-07 0.107734)
(3.44612e-05 3.44606e-05 0.10469)
(3.23336e-05 3.23329e-05 0.10459)
(-3.42143e-05 -3.42062e-05 0.104692)
(3.17122e-07 -2.85862e-07 0.107733)
(-3.13642e-07 -2.82963e-07 0.107733)
(4.86196e-07 3.1077e-08 0.107733)
(-4.82453e-07 3.86129e-08 0.107733)
(-3.23446e-05 3.23164e-05 0.10459)
(3.42196e-05 -3.42082e-05 0.104692)
(-3.0537e-07 2.89864e-07 0.107735)
(-2.74579e-07 -3.24231e-07 0.107732)
(5.85637e-09 4.60784e-07 0.107735)
(3.61455e-08 -4.86e-07 0.107732)
(2.87412e-07 -3.11318e-07 0.107732)
(-2.15019e-09 4.64851e-07 0.107735)
(-2.41097e-08 -4.7649e-07 0.107733)
(3.23329e-05 -3.23612e-05 0.10459)
(-3.4201e-05 3.4213e-05 0.104691)
(-2.85625e-07 3.07523e-07 0.107734)
(4.62576e-07 -5.5624e-09 0.107734)
(-4.53246e-07 -5.97583e-09 0.107734)
(3.42078e-05 3.42078e-05 0.104691)
(3.25928e-05 3.25979e-05 0.104591)
(-3.40657e-05 -3.40584e-05 0.104692)
(5.39186e-07 1.15895e-07 0.107734)
(-5.3519e-07 1.22947e-07 0.107733)
(6.73958e-07 2.57657e-07 0.107734)
(-6.69002e-07 2.64534e-07 0.107733)
(-3.26017e-05 3.25842e-05 0.104591)
(3.40733e-05 -3.40604e-05 0.104692)
(8.79036e-08 5.16492e-07 0.107735)
(1.17541e-07 -5.41374e-07 0.107732)
(2.31333e-07 6.54252e-07 0.107735)
(2.5789e-07 -6.78647e-07 0.107732)
(-1.05147e-07 -5.30329e-07 0.107733)
(-2.22505e-07 6.54195e-07 0.107736)
(-2.44606e-07 -6.76244e-07 0.107733)
(3.25877e-05 -3.26183e-05 0.10459)
(-3.4052e-05 3.40619e-05 0.104691)
(-5.0573e-07 -8.97699e-08 0.107734)
(6.48965e-07 -2.33008e-07 0.107735)
(-6.48297e-07 -2.3562e-07 0.107734)
(3.40576e-05 3.40564e-05 0.104691)
(3.27351e-05 3.27379e-05 0.104591)
(-3.40745e-05 -3.40703e-05 0.104692)
(7.16877e-07 2.91289e-07 0.107734)
(-7.09937e-07 2.9685e-07 0.107734)
(6.73157e-07 3.26035e-07 0.107734)
(-6.6229e-07 3.26471e-07 0.107734)
(-3.27431e-05 3.27242e-05 0.104592)
(3.40849e-05 -3.4082e-05 0.104692)
(2.65021e-07 6.94476e-07 0.107735)
(2.9225e-07 -7.1948e-07 0.107732)
(3.04246e-07 6.49106e-07 0.107735)
(3.27791e-07 -6.6909e-07 0.107732)
(-2.79747e-07 -7.19667e-07 0.107733)
(-2.98033e-07 6.40324e-07 0.107736)
(-3.19739e-07 -6.7136e-07 0.107733)
(3.27311e-05 -3.27632e-05 0.104591)
(-3.4067e-05 3.40799e-05 0.104691)
(-6.88962e-07 -2.69481e-07 0.107734)
(6.44698e-07 -3.02147e-07 0.107735)
(-6.51274e-07 -3.06632e-07 0.107734)
(3.40656e-05 3.40688e-05 0.104691)
(3.2721e-05 3.27215e-05 0.104591)
(-3.39662e-05 -3.39607e-05 0.104692)
(6.88582e-07 3.42872e-07 0.107734)
(-6.77773e-07 3.41845e-07 0.107734)
(7.93865e-07 3.96689e-07 0.107734)
(-7.8688e-07 3.98596e-07 0.107734)
(-3.27257e-05 3.26969e-05 0.104592)
(3.39756e-05 -3.39655e-05 0.104693)
(3.19493e-07 6.61692e-07 0.107735)
(3.43222e-07 -6.8466e-07 0.107732)
(3.72983e-07 7.74144e-07 0.107735)
(3.9782e-07 -7.95019e-07 0.107733)
(-3.3407e-07 -6.77276e-07 0.107733)
(-3.6275e-07 7.68094e-07 0.107736)
(-3.86433e-07 -7.84708e-07 0.107733)
(3.27105e-05 -3.274e-05 0.104591)
(-3.39508e-05 3.39615e-05 0.104691)
(-6.58919e-07 -3.21558e-07 0.107734)
(7.68752e-07 -3.70741e-07 0.107735)
(-7.64066e-07 -3.74052e-07 0.107735)
(3.39637e-05 3.39654e-05 0.104691)
(3.28137e-05 3.2816e-05 0.104591)
(-3.40287e-05 -3.40232e-05 0.104692)
(7.6227e-07 3.86776e-07 0.107734)
(-7.57963e-07 3.88878e-07 0.107734)
(7.49771e-07 3.71733e-07 0.107734)
(-7.55318e-07 3.7534e-07 0.107734)
(-3.28201e-05 3.28022e-05 0.104592)
(3.40317e-05 -3.40267e-05 0.104693)
(3.62595e-07 7.44103e-07 0.107735)
(3.88733e-07 -7.66099e-07 0.107733)
(3.49087e-07 7.28612e-07 0.107735)
(3.73118e-07 -7.52934e-07 0.107733)
(-3.77658e-07 -7.58955e-07 0.107733)
(-3.40274e-07 7.28289e-07 0.107736)
(-3.63163e-07 -7.42702e-07 0.107733)
(3.2812e-05 -3.28436e-05 0.104591)
(-3.40174e-05 3.4031e-05 0.104691)
(-7.3485e-07 -3.6306e-07 0.107735)
(7.29474e-07 -3.47295e-07 0.107735)
(-7.32553e-07 -3.49049e-07 0.107735)
(3.40177e-05 3.40267e-05 0.104691)
(3.27846e-05 3.27863e-05 0.104591)
(-3.40309e-05 -3.40299e-05 0.104692)
(7.72345e-07 3.8183e-07 0.107734)
(-7.77348e-07 3.83829e-07 0.107734)
(7.2983e-07 3.7598e-07 0.107734)
(-7.29068e-07 3.69134e-07 0.107734)
(-3.27977e-05 3.27694e-05 0.104592)
(3.4037e-05 -3.40432e-05 0.104693)
(3.58349e-07 7.50303e-07 0.107735)
(3.82109e-07 -7.77488e-07 0.107733)
(3.54611e-07 6.9937e-07 0.107735)
(3.81296e-07 -7.34942e-07 0.107732)
(-3.72261e-07 -7.63544e-07 0.107733)
(-3.55342e-07 6.96648e-07 0.107736)
(-3.74158e-07 -7.17613e-07 0.107733)
(3.27798e-05 -3.2808e-05 0.104591)
(-3.40185e-05 3.40297e-05 0.104691)
(-7.55133e-07 -3.56537e-07 0.107735)
(7.0379e-07 -3.51788e-07 0.107735)
(-6.96487e-07 -3.46179e-07 0.107735)
(3.40256e-05 3.40335e-05 0.104691)
(3.27435e-05 3.27426e-05 0.104591)
(-3.4032e-05 -3.40138e-05 0.104692)
(7.17418e-07 3.63034e-07 0.107734)
(-7.20517e-07 3.54251e-07 0.107734)
(7.42209e-07 3.55718e-07 0.107734)
(-7.63726e-07 3.51314e-07 0.107734)
(-3.27536e-05 3.27139e-05 0.104592)
(3.40157e-05 -3.40156e-05 0.104693)
(3.40414e-07 6.89943e-07 0.107735)
(3.68677e-07 -7.26784e-07 0.107733)
(3.20064e-07 7.27382e-07 0.107736)
(3.53247e-07 -7.68709e-07 0.107733)
(-3.60957e-07 -6.97323e-07 0.107733)
(-3.32558e-07 7.32069e-07 0.107736)
(-3.56016e-07 -7.47839e-07 0.107733)
(3.27402e-05 -3.27722e-05 0.104591)
(-3.40176e-05 3.40154e-05 0.104691)
(-6.86579e-07 -3.33973e-07 0.107735)
(7.25403e-07 -3.39145e-07 0.107735)
(-7.3075e-07 -3.31368e-07 0.107735)
(3.40105e-05 3.40208e-05 0.104692)
(3.27416e-05 3.2759e-05 0.104592)
(6.98621e-07 3.40837e-07 0.107734)
(-7.25339e-07 3.38163e-07 0.107734)
(-3.27736e-05 3.27481e-05 0.104592)
(2.97459e-07 6.91415e-07 0.107735)
(3.29935e-07 -7.26966e-07 0.107733)
(-3.37464e-07 -7.10595e-07 0.107733)
(3.27397e-05 -3.27853e-05 0.104591)
(-6.89667e-07 -3.12435e-07 0.107735)
(-6.05573e-07 -9.46184e-06 0.0910062)
(-1.65964e-07 6.18502e-06 0.0815688)
(-5.97846e-07 4.96162e-06 0.0909765)
(-1.83675e-06 -7.70642e-06 0.0816116)
(-3.07085e-06 2.53797e-06 0.0708725)
(3.94621e-07 -4.34932e-06 0.0709201)
(-9.46386e-06 -5.47321e-07 0.0910063)
(6.17029e-06 -1.78265e-07 0.0815695)
(4.96549e-06 -6.03969e-07 0.0909765)
(-7.7273e-06 -1.7436e-06 0.0816122)
(-2.47504e-05 2.48725e-05 0.11315)
(-2.4892e-05 -2.49985e-05 0.113149)
(2.17138e-05 2.18451e-05 0.113164)
(-2.20436e-05 2.21424e-05 0.113164)
(2.16804e-05 -2.15497e-05 0.113163)
(-2.18791e-05 -2.17433e-05 0.113163)
(1.10962e-05 -2.46188e-07 0.0985708)
(-1.24901e-05 2.43622e-06 0.0926085)
(-2.4367e-05 4.15682e-06 0.11083)
(-1.65213e-05 1.15629e-05 0.108252)
(-1.52311e-05 -6.38713e-07 0.0985213)
(7.38038e-06 -4.71002e-06 0.0926602)
(-2.36058e-05 4.15893e-06 0.11082)
(-4.476e-06 1.48997e-07 0.0709175)
(-3.09145e-07 1.07956e-05 0.0985699)
(4.3963e-06 -2.46253e-05 0.110829)
(1.10959e-05 -1.66026e-05 0.108252)
(-2.76389e-07 -1.52212e-05 0.0985217)
(4.09026e-06 -2.3955e-05 0.110819)
(-4.76174e-06 7.25516e-06 0.0926584)
(-2.60549e-06 -3.84895e-06 0.0869837)
(-3.78255e-06 -2.71882e-06 0.0869828)
(4.22309e-05 4.21691e-05 0.104858)
(3.02435e-06 2.98674e-06 0.0870209)
(3.00579e-06 3.12229e-06 0.0870191)
(-5.8031e-07 -6.96979e-06 0.0909873)
(1.63119e-06 6.20446e-06 0.0815738)
(-7.38817e-07 6.4613e-06 0.090959)
(-6.8323e-07 -6.67087e-06 0.0816138)
(-5.38837e-06 1.69598e-06 0.07088)
(7.88839e-07 -2.1097e-06 0.0709204)
(-6.99245e-06 -6.09768e-07 0.0909874)
(6.12932e-06 1.62332e-06 0.0815746)
(6.45487e-06 -7.29318e-07 0.0909589)
(-6.69417e-06 -6.90913e-07 0.0816145)
(-2.0059e-05 2.0217e-05 0.113167)
(1.99537e-05 -1.98951e-05 0.113166)
(-2.02793e-05 -2.02473e-05 0.113166)
(2.00255e-05 1.99425e-05 0.113171)
(-1.98914e-05 1.96027e-05 0.113171)
(2.01523e-05 -2.02541e-05 0.11317)
(-1.97576e-05 -1.98225e-05 0.11317)
(9.25062e-06 -9.71378e-07 0.0985277)
(-1.56109e-05 3.57511e-06 0.0925936)
(-2.3723e-05 9.31398e-07 0.110786)
(-1.13224e-05 4.03888e-06 0.108202)
(-1.7127e-05 -6.78927e-07 0.0984803)
(9.9355e-06 -1.96676e-06 0.0926483)
(-2.18939e-05 4.88995e-07 0.110773)
(1.78813e-06 -5.40487e-06 0.0708818)
(-1.97605e-06 1.32878e-06 0.0709189)
(-6.57024e-07 9.32716e-06 0.0985272)
(9.60049e-07 -2.35612e-05 0.110784)
(3.82256e-06 -1.54063e-05 0.0925948)
(4.94166e-06 -1.2103e-05 0.108201)
(-6.84164e-07 -1.69392e-05 0.0984795)
(1.03618e-06 -2.20811e-05 0.110772)
(-2.21482e-06 9.79767e-06 0.0926465)
(-3.92295e-06 -6.55312e-06 0.0869803)
(-6.4988e-06 -3.96803e-06 0.0869793)
(4.62682e-05 4.61304e-05 0.104814)
(7.61729e-06 3.05412e-06 0.0870191)
(3.09385e-06 7.50834e-06 0.0870173)
(-9.99903e-07 -1.35449e-05 0.090988)
(-4.35117e-06 5.37577e-06 0.08158)
(-4.737e-07 1.20834e-06 0.0909546)
(-2.77713e-06 -9.78122e-06 0.0816312)
(1.33897e-06 2.43319e-06 0.0709013)
(-1.91861e-07 -6.12474e-06 0.0709631)
(-1.35455e-05 -9.08566e-07 0.090988)
(5.41712e-06 -4.2607e-06 0.0815807)
(1.25584e-06 -3.62039e-07 0.0909546)
(-9.84204e-06 -2.8196e-06 0.0816316)
(-2.22308e-05 2.15731e-05 0.113171)
(2.17725e-05 -2.1737e-05 0.11317)
(-2.14617e-05 -2.10937e-05 0.113169)
(1.8881e-05 1.89062e-05 0.113174)
(-1.86756e-05 1.91415e-05 0.113174)
(1.87371e-05 -1.87339e-05 0.113173)
(-1.91764e-05 -1.92608e-05 0.113173)
(1.55796e-05 1.90885e-07 0.0985071)
(-7.46319e-06 -7.80962e-07 0.092591)
(-1.50071e-05 5.84782e-06 0.110739)
(-1.41924e-05 1.26095e-05 0.10814)
(-8.04762e-06 8.44202e-07 0.0984537)
(7.75923e-06 -8.77347e-06 0.0926391)
(-1.68207e-05 5.78298e-06 0.110729)
(2.34619e-06 9.86917e-07 0.0709035)
(-6.41617e-06 -6.0424e-07 0.0709603)
(-2.86212e-08 1.60676e-05 0.0985073)
(5.38349e-06 -1.44432e-05 0.110738)
(-4.92854e-07 -7.60684e-06 0.092592)
(1.17794e-05 -1.28157e-05 0.10814)
(3.56663e-07 -8.29648e-06 0.0984537)
(5.03512e-06 -1.58146e-05 0.110728)
(-8.74901e-06 8.07363e-06 0.0926389)
(-2.1333e-06 3.49542e-07 0.0869897)
(2.44678e-07 -1.96312e-06 0.0869888)
(3.99838e-05 4.04724e-05 0.10474)
(1.74034e-06 4.42749e-06 0.0870291)
(4.58926e-06 1.72716e-06 0.0870274)
(-2.59753e-07 -4.45473e-06 0.0909714)
(5.39045e-06 6.81269e-06 0.0815991)
(-6.49569e-07 8.51174e-06 0.0909411)
(1.27528e-06 -5.04982e-06 0.0816317)
(-8.66741e-06 1.72342e-06 0.070912)
(-6.50797e-08 -1.10567e-06 0.0709361)
(-4.40708e-06 -2.53755e-07 0.0909716)
(6.74941e-06 5.32315e-06 0.0816001)
(8.4443e-06 -7.88122e-07 0.0909412)
(-5.06767e-06 1.41056e-06 0.0816326)
(-1.3963e-05 1.49355e-05 0.113175)
(1.48521e-05 -1.49995e-05 0.113174)
(-1.50092e-05 -1.57548e-05 0.113174)
(8.79985e-06 8.8895e-06 0.113159)
(-9.1326e-06 8.78991e-06 0.113159)
(8.87122e-06 -8.67514e-06 0.113158)
(-8.49333e-06 -8.27014e-06 0.113158)
(9.5719e-06 -1.01064e-06 0.0984645)
(-1.76297e-05 6.72298e-06 0.0925816)
(-2.01951e-05 -3.02411e-06 0.110694)
(-1.99057e-06 -5.51836e-06 0.108097)
(-1.85514e-05 -2.13265e-06 0.0984151)
(1.02089e-05 2.16023e-06 0.0926411)
(-1.51773e-05 -3.96133e-06 0.110677)
(1.92348e-06 -8.36429e-06 0.0709147)
(-1.01182e-06 2.38473e-07 0.0709345)
(-9.83519e-07 8.74506e-06 0.0984623)
(-2.22672e-06 -2.13495e-05 0.110692)
(6.22781e-06 -1.7515e-05 0.0925818)
(-5.0696e-06 -3.65352e-06 0.108096)
(-1.45725e-06 -1.85042e-05 0.0984149)
(-3.18169e-06 -1.68311e-05 0.110676)
(2.23966e-06 9.58628e-06 0.0926382)
(-5.28748e-06 -1.04976e-05 0.0869924)
(-1.03358e-05 -5.51861e-06 0.0869916)
(5.30726e-05 5.23944e-05 0.104718)
(8.7333e-06 9.63528e-07 0.0870313)
(7.49966e-07 8.84349e-06 0.0870295)
(-1.34846e-06 -1.88727e-05 0.090992)
(-8.29391e-06 2.87401e-06 0.0816106)
(-6.34397e-07 -5.69856e-06 0.0909545)