/*--------------------------------*- C++ -*----------------------------------*\
| =========                 |                                                 |
| \\      /  F ield         | OpenFOAM: The Open Source CFD Toolbox           |
|  \\    /   O peration     | Version:  2312                                  |
|   \\  /    A nd           | Website:  www.openfoam.com                      |
|    \\/     M anipulation  |                                                 |
\*---------------------------------------------------------------------------*/
FoamFile
{
    version     2.0;
    format      ascii;
    arch        "LSB;label=32;scalar=64";
    class       volScalarField;
    location    "1000";
    object      k;
}
// * * * * * * * * * * * * * * * * * * * * * * * * * * * * * * * * * * * * * //

dimensions      [0 2 -2 0 0 0 0];

internalField   nonuniform List<scalar> 
43168
(
3.91949e-05
5.15795e-05
5.1583e-05
5.36622e-05
5.36146e-05
5.15258e-05
5.1521e-05
5.36172e-05
5.15232e-05
5.1524e-05
5.15251e-05
5.15252e-05
5.3626e-05
5.15286e-05
5.15231e-05
5.36229e-05
5.36688e-05
5.15801e-05
5.15754e-05
5.36618e-05
5.15776e-05
5.15784e-05
5.15795e-05
5.36645e-05
5.15773e-05
7.34429e-05
7.34452e-05
3.90995e-05
3.9099e-05
3.91037e-05
3.91024e-05
6.86278e-05
7.34761e-05
6.86072e-05
7.34984e-05
7.12226e-05
7.12474e-05
6.86271e-05
7.34767e-05
6.86065e-05
7.3501e-05
3.91942e-05
3.91992e-05
3.91974e-05
6.07208e-05
6.48333e-05
4.69231e-05
5.16314e-05
6.0686e-05
6.48572e-05
4.69893e-05
7.12238e-05
7.12485e-05
6.07208e-05
4.69262e-05
6.48337e-05
5.1635e-05
6.06859e-05
4.69924e-05
6.4858e-05
6.9967e-05
6.99755e-05
5.37036e-05
6.99829e-05
6.99913e-05
7.11934e-05
7.11964e-05
5.3527e-05
6.99373e-05
6.99458e-05
7.122e-05
7.1195e-05
7.1223e-05
7.11979e-05
5.3586e-05
6.99623e-05
6.99707e-05
6.9947e-05
6.99548e-05
5.14142e-05
6.4795e-05
6.85801e-05
7.3471e-05
7.34478e-05
6.86022e-05
6.85785e-05
7.34676e-05
7.34447e-05
6.86004e-05
6.0639e-05
5.1471e-05
6.48267e-05
4.68533e-05
6.48004e-05
4.67838e-05
6.06761e-05
6.06374e-05
5.14645e-05
6.48228e-05
4.68509e-05
6.47967e-05
4.67811e-05
6.06745e-05
7.12213e-05
7.11961e-05
5.35743e-05
6.99621e-05
6.99643e-05
6.99471e-05
7.12212e-05
5.14114e-05
6.47969e-05
6.85795e-05
7.34735e-05
7.34486e-05
6.86014e-05
6.06389e-05
5.14685e-05
6.48285e-05
4.68527e-05
6.48024e-05
4.67831e-05
6.06757e-05
6.85779e-05
7.34691e-05
7.34442e-05
6.85997e-05
6.06375e-05
5.14691e-05
4.68535e-05
6.48246e-05
4.67838e-05
6.47981e-05
6.06743e-05
6.48277e-05
4.68538e-05
6.06758e-05
7.34711e-05
6.85996e-05
4.68543e-05
6.48236e-05
6.06757e-05
7.34687e-05
6.86004e-05
7.12223e-05
7.11973e-05
5.3579e-05
6.99657e-05
6.99633e-05
6.99493e-05
6.99463e-05
7.12211e-05
7.11959e-05
6.06391e-05
5.14737e-05
4.68573e-05
6.48282e-05
4.67878e-05
6.48022e-05
6.06756e-05
6.06364e-05
5.14683e-05
4.68548e-05
6.48261e-05
4.67853e-05
6.48001e-05
6.06731e-05
6.85774e-05
7.34729e-05
7.34479e-05
6.85992e-05
6.85738e-05
7.34704e-05
7.34455e-05
6.85956e-05
5.3575e-05
6.99591e-05
6.99676e-05
6.99508e-05
7.12208e-05
7.12236e-05
7.11985e-05
7.12215e-05
7.12461e-05
7.12244e-05
7.12491e-05
6.99714e-05
6.99794e-05
5.37019e-05
6.99861e-05
6.99944e-05
7.12476e-05
7.12505e-05
5.37502e-05
6.99948e-05
7.00028e-05
6.86263e-05
7.34727e-05
6.86056e-05
7.34952e-05
6.07212e-05
6.48318e-05
4.69223e-05
5.16321e-05
6.06861e-05
6.48566e-05
4.69884e-05
6.07196e-05
6.48282e-05
4.692e-05
5.16273e-05
6.06845e-05
6.48526e-05
4.69862e-05
6.86325e-05
7.35035e-05
6.86309e-05
7.35002e-05
6.07304e-05
5.16839e-05
6.48613e-05
4.70543e-05
6.07288e-05
5.1679e-05
6.48577e-05
4.70521e-05
6.99716e-05
6.9972e-05
5.37013e-05
6.99858e-05
6.99877e-05
7.12226e-05
7.12473e-05
7.12487e-05
5.3745e-05
6.99949e-05
6.99951e-05
7.12487e-05
6.07212e-05
6.48339e-05
4.69217e-05
5.16296e-05
6.06861e-05
6.48584e-05
4.6988e-05
6.86257e-05
7.34723e-05
6.86049e-05
7.34967e-05
6.07198e-05
4.69225e-05
6.48296e-05
5.16303e-05
6.06847e-05
4.69887e-05
6.48544e-05
6.86318e-05
7.35041e-05
6.07305e-05
5.16814e-05
6.48634e-05
4.70539e-05
6.86303e-05
7.34997e-05
6.07291e-05
5.16821e-05
4.70547e-05
6.4859e-05
6.86254e-05
7.34761e-05
6.86045e-05
7.34985e-05
6.07208e-05
4.69233e-05
6.4829e-05
5.16315e-05
6.06857e-05
4.69896e-05
6.48533e-05
6.86262e-05
7.3472e-05
6.86053e-05
7.34963e-05
6.07302e-05
5.16831e-05
6.48627e-05
4.70551e-05
6.863e-05
7.35036e-05
6.07301e-05
5.16832e-05
4.70556e-05
6.48584e-05
6.86308e-05
7.34994e-05
6.99738e-05
6.99713e-05
5.37053e-05
6.99896e-05
6.99872e-05
7.12225e-05
7.12472e-05
7.12499e-05
5.37477e-05
6.99971e-05
6.99948e-05
7.12486e-05
6.07185e-05
4.69238e-05
6.48315e-05
5.16293e-05
6.06834e-05
4.69899e-05
6.48557e-05
6.86251e-05
7.34759e-05
6.86043e-05
7.34995e-05
6.86216e-05
7.34736e-05
6.86008e-05
7.3498e-05
6.07302e-05
5.16867e-05
4.70582e-05
6.48632e-05
6.07277e-05
5.1681e-05
4.70558e-05
6.48611e-05
6.86297e-05
7.35045e-05
6.86263e-05
7.35011e-05
7.12222e-05
7.1247e-05
7.1225e-05
7.12497e-05
5.37452e-05
6.99904e-05
6.99989e-05
7.12483e-05
7.12511e-05
7.1683e-05
7.97898e-05
7.34338e-05
7.9782e-05
7.16973e-05
7.34338e-05
7.1906e-05
6.86201e-05
7.16857e-05
7.16519e-05
7.1677e-05
7.16415e-05
7.19149e-05
7.17361e-05
7.98175e-05
7.34848e-05
7.1722e-05
7.98249e-05
7.19013e-05
6.86154e-05
7.1663e-05
7.16299e-05
7.18922e-05
7.1672e-05
7.16403e-05
7.17348e-05
7.98361e-05
7.34898e-05
7.98288e-05
7.17489e-05
7.12344e-05
7.12357e-05
7.1906e-05
6.86194e-05
7.16488e-05
7.16858e-05
7.16417e-05
7.1677e-05
7.19149e-05
7.17363e-05
7.98156e-05
7.34874e-05
7.17222e-05
7.98227e-05
7.19015e-05
6.86146e-05
7.16299e-05
7.16631e-05
7.18924e-05
7.16373e-05
7.1672e-05
7.1735e-05
7.98338e-05
7.34905e-05
7.98269e-05
7.1749e-05
7.12355e-05
7.12369e-05
9.50346e-05
7.3552e-05
7.35454e-05
7.35387e-05
7.35321e-05
9.50363e-05
7.41985e-05
6.52885e-05
7.33027e-05
6.99711e-05
7.41951e-05
6.52995e-05
7.33112e-05
7.42462e-05
6.52965e-05
7.33125e-05
6.99795e-05
7.42429e-05
6.53082e-05
7.3321e-05
9.50235e-05
7.35266e-05
7.352e-05
9.50217e-05
7.35399e-05
7.35333e-05
7.42089e-05
7.33243e-05
6.99789e-05
6.53176e-05
6.5307e-05
7.33158e-05
7.42122e-05
7.42566e-05
7.3334e-05
6.99874e-05
6.53262e-05
6.5315e-05
7.33256e-05
7.42598e-05
7.11816e-05
7.11845e-05
9.49856e-05
7.35031e-05
7.34963e-05
7.34896e-05
7.34828e-05
9.49878e-05
7.41533e-05
7.32715e-05
6.99342e-05
6.52431e-05
7.3263e-05
7.41564e-05
6.52323e-05
7.4199e-05
7.3281e-05
6.99421e-05
6.52509e-05
7.32723e-05
7.42026e-05
6.52386e-05
7.12083e-05
7.12068e-05
7.12112e-05
7.12097e-05
9.50012e-05
7.3502e-05
7.34952e-05
9.49992e-05
7.35155e-05
7.35087e-05
7.41829e-05
6.52821e-05
6.99594e-05
7.32987e-05
7.32902e-05
6.5272e-05
7.41858e-05
7.42287e-05
6.529e-05
6.99672e-05
7.33079e-05
7.32993e-05
6.52785e-05
7.4232e-05
7.41712e-05
7.32766e-05
6.52524e-05
6.99501e-05
7.41682e-05
7.32855e-05
6.52627e-05
7.42175e-05
7.32855e-05
6.52588e-05
6.99584e-05
7.4214e-05
7.32946e-05
6.52707e-05
9.50125e-05
7.35277e-05
7.35209e-05
7.35143e-05
7.35075e-05
9.50144e-05
7.18735e-05
7.16345e-05
7.16047e-05
6.85887e-05
7.18645e-05
7.16436e-05
7.16156e-05
7.17091e-05
7.34621e-05
7.98135e-05
7.17233e-05
7.9806e-05
7.17103e-05
7.97941e-05
7.34571e-05
7.16961e-05
7.98017e-05
7.18783e-05
6.85937e-05
7.16578e-05
7.16284e-05
7.18877e-05
7.16486e-05
7.16175e-05
7.18746e-05
7.16341e-05
7.15998e-05
6.85871e-05
7.18612e-05
7.16433e-05
7.16108e-05
7.17085e-05
7.34588e-05
7.97953e-05
7.97877e-05
7.17227e-05
7.17097e-05
7.97758e-05
7.34537e-05
7.16955e-05
7.97836e-05
7.18756e-05
6.85921e-05
7.16574e-05
7.16233e-05
7.16483e-05
7.16124e-05
7.18887e-05
7.12094e-05
7.1208e-05
7.42288e-05
6.52864e-05
6.99596e-05
7.33063e-05
6.52753e-05
7.32977e-05
7.42332e-05
7.41819e-05
6.52834e-05
6.99599e-05
7.33009e-05
7.32889e-05
6.52722e-05
7.41864e-05
6.52559e-05
6.99499e-05
6.5267e-05
9.50102e-05
7.35215e-05
7.35282e-05
7.35081e-05
7.35143e-05
9.50122e-05
7.12095e-05
7.18741e-05
7.16049e-05
7.16348e-05
6.8588e-05
7.18652e-05
7.16127e-05
7.16437e-05
7.17093e-05
7.34626e-05
7.98113e-05
7.17235e-05
7.9804e-05
7.17105e-05
7.97921e-05
7.34593e-05
7.16963e-05
7.97997e-05
7.18783e-05
6.85929e-05
7.16252e-05
7.16579e-05
7.1888e-05
7.16172e-05
7.16486e-05
7.18748e-05
7.16342e-05
7.15998e-05
6.85864e-05
7.18612e-05
7.16431e-05
7.16077e-05
7.17075e-05
7.34582e-05
7.97921e-05
7.97847e-05
7.17217e-05
7.17087e-05
7.97729e-05
7.3455e-05
7.16945e-05
7.97804e-05
7.18754e-05
6.85914e-05
7.16572e-05
7.162e-05
7.16481e-05
7.16122e-05
7.18884e-05
7.17075e-05
7.34622e-05
7.98038e-05
7.98014e-05
7.17222e-05
7.18773e-05
6.85913e-05
7.1621e-05
7.16566e-05
7.16135e-05
7.16477e-05
7.18863e-05
7.17078e-05
7.34579e-05
7.97911e-05
7.9784e-05
7.1722e-05
7.18776e-05
6.85921e-05
7.16569e-05
7.16206e-05
7.1648e-05
7.1613e-05
7.18866e-05
7.12106e-05
7.12091e-05
9.49966e-05
7.34953e-05
7.35015e-05
9.49945e-05
7.35087e-05
7.35149e-05
7.42292e-05
6.52883e-05
6.99616e-05
7.33078e-05
6.52761e-05
7.32959e-05
7.42325e-05
7.41816e-05
6.52836e-05
6.99591e-05
7.32998e-05
7.32879e-05
6.52721e-05
7.41851e-05
7.42178e-05
7.32824e-05
6.52563e-05
6.99533e-05
6.52688e-05
7.42144e-05
7.32942e-05
7.41704e-05
7.32744e-05
6.52521e-05
6.99509e-05
7.41667e-05
7.32863e-05
6.52642e-05
9.50079e-05
7.3521e-05
7.35272e-05
7.35076e-05
7.35138e-05
9.50098e-05
7.12093e-05
7.12078e-05
7.18734e-05
7.16054e-05
7.16336e-05
6.85859e-05
7.18644e-05
7.16131e-05
7.16425e-05
7.17094e-05
7.3462e-05
7.98095e-05
7.98024e-05
7.17235e-05
7.17106e-05
7.97907e-05
7.34588e-05
7.16964e-05
7.9798e-05
7.18787e-05
6.85909e-05
7.16254e-05
7.16565e-05
7.16177e-05
7.16475e-05
7.18876e-05
7.1872e-05
7.15973e-05
7.16325e-05
6.85823e-05
7.18631e-05
7.1605e-05
7.16414e-05
7.17084e-05
7.34596e-05
7.97927e-05
7.97855e-05
7.17226e-05
7.17097e-05
7.97737e-05
7.34564e-05
7.16954e-05
7.97811e-05
7.18764e-05
6.85873e-05
7.16173e-05
7.16555e-05
7.16097e-05
7.16465e-05
7.18859e-05
9.49971e-05
7.35156e-05
7.35089e-05
7.41809e-05
6.52809e-05
6.99549e-05
7.32979e-05
7.41845e-05
6.52695e-05
7.32891e-05
7.42288e-05
6.52895e-05
6.99633e-05
7.33076e-05
7.42323e-05
6.52774e-05
7.32989e-05
7.41698e-05
6.99468e-05
6.52616e-05
7.32843e-05
7.42174e-05
6.52576e-05
6.99551e-05
6.52701e-05
7.3294e-05
9.50087e-05
7.35278e-05
7.35212e-05
9.50105e-05
7.35144e-05
7.35078e-05
7.1209e-05
7.12076e-05
7.12118e-05
7.12103e-05
7.12331e-05
7.12346e-05
7.12361e-05
7.12375e-05
9.50384e-05
7.3552e-05
7.35452e-05
7.35386e-05
7.35318e-05
9.50402e-05
7.41999e-05
6.5291e-05
7.33035e-05
6.99744e-05
7.41972e-05
7.33122e-05
6.53007e-05
7.42461e-05
6.52974e-05
7.33126e-05
6.99827e-05
7.42429e-05
7.33214e-05
6.53086e-05
9.50274e-05
7.35265e-05
7.35197e-05
9.50256e-05
7.35399e-05
7.35331e-05
7.4211e-05
7.33253e-05
6.99833e-05
6.53188e-05
7.33169e-05
7.42135e-05
6.53094e-05
7.42567e-05
7.33345e-05
6.99912e-05
6.53267e-05
7.3326e-05
7.42597e-05
6.53159e-05
7.12591e-05
7.1262e-05
9.50526e-05
7.35507e-05
7.35439e-05
9.5051e-05
7.3564e-05
7.35571e-05
7.42267e-05
7.33301e-05
6.53271e-05
6.99975e-05
7.42244e-05
7.33385e-05
6.53362e-05
7.4273e-05
7.33393e-05
6.53336e-05
7.00058e-05
7.42701e-05
7.33477e-05
6.53441e-05
7.19034e-05
6.86186e-05
7.16854e-05
7.1647e-05
7.16766e-05
7.16364e-05
7.19163e-05
7.17355e-05
7.97992e-05
7.34815e-05
7.17214e-05
7.98068e-05
7.19029e-05
6.86138e-05
7.16626e-05
7.16248e-05
7.16717e-05
7.18894e-05
7.16354e-05
7.17342e-05
7.9818e-05
7.34866e-05
7.98105e-05
7.17483e-05
7.19284e-05
7.16908e-05
7.16533e-05
6.86402e-05
7.19195e-05
7.16997e-05
7.16633e-05
7.17615e-05
7.98399e-05
7.35121e-05
7.17475e-05
7.9847e-05
7.19298e-05
7.16904e-05
7.16482e-05
6.86386e-05
7.19168e-05
7.16994e-05
7.16584e-05
7.17609e-05
7.98215e-05
7.35088e-05
7.17469e-05
7.98288e-05
9.50355e-05
7.35456e-05
7.35519e-05
7.35323e-05
7.35387e-05
9.50376e-05
7.42472e-05
6.52943e-05
7.33111e-05
6.99741e-05
7.33198e-05
7.42427e-05
6.5305e-05
7.42006e-05
6.52912e-05
7.33026e-05
6.9976e-05
6.5302e-05
7.41961e-05
7.33144e-05
9.5025e-05
7.35202e-05
7.35268e-05
7.35336e-05
9.50227e-05
7.35401e-05
7.42563e-05
7.33329e-05
6.99834e-05
6.5323e-05
7.33244e-05
6.53128e-05
7.42606e-05
7.42098e-05
7.33276e-05
6.99837e-05
6.532e-05
6.53096e-05
7.33159e-05
7.42141e-05
7.12343e-05
7.12357e-05
7.12603e-05
9.50502e-05
7.35443e-05
7.35506e-05
9.50481e-05
7.35575e-05
7.35638e-05
7.42737e-05
7.33376e-05
6.53306e-05
6.99972e-05
6.53405e-05
7.42695e-05
7.3346e-05
7.42273e-05
7.3329e-05
6.53273e-05
6.99989e-05
7.42231e-05
7.33407e-05
6.53375e-05
7.12602e-05
7.19031e-05
6.86179e-05
7.16853e-05
7.1644e-05
7.16765e-05
7.16367e-05
7.19159e-05
7.17345e-05
7.97963e-05
7.3483e-05
7.17204e-05
7.98035e-05
7.19026e-05
6.86131e-05
7.16625e-05
7.16248e-05
7.16716e-05
7.18893e-05
7.16324e-05
7.17332e-05
7.98147e-05
7.34861e-05
7.98076e-05
7.17473e-05
7.19283e-05
7.16531e-05
7.16908e-05
6.86395e-05
7.19196e-05
7.16603e-05
7.16998e-05
7.17617e-05
7.98379e-05
7.35146e-05
7.17477e-05
7.98447e-05
7.19294e-05
7.16903e-05
7.16482e-05
6.8638e-05
7.19165e-05
7.16993e-05
7.16555e-05
7.17599e-05
7.98187e-05
7.35102e-05
7.17459e-05
7.98256e-05
7.19041e-05
6.86177e-05
7.16447e-05
7.16847e-05
7.16377e-05
7.1676e-05
7.19134e-05
7.17351e-05
7.98129e-05
7.34849e-05
7.98153e-05
7.17204e-05
7.19013e-05
6.86128e-05
7.16256e-05
7.16617e-05
7.16331e-05
7.18905e-05
7.1671e-05
7.17332e-05
7.98264e-05
7.34899e-05
7.98241e-05
7.17478e-05
7.19051e-05
6.86184e-05
7.1685e-05
7.16444e-05
7.16762e-05
7.16373e-05
7.19139e-05
7.17348e-05
7.97955e-05
7.34827e-05
7.17207e-05
7.98025e-05
7.19004e-05
6.86136e-05
7.1662e-05
7.16252e-05
7.1891e-05
7.16713e-05
7.16329e-05
7.17335e-05
7.98136e-05
7.34858e-05
7.98068e-05
7.17475e-05
7.19269e-05
7.16491e-05
7.16897e-05
6.86377e-05
7.19179e-05
7.16561e-05
7.16987e-05
7.17604e-05
7.98351e-05
7.35122e-05
7.17459e-05
7.98374e-05
7.19272e-05
7.169e-05
7.16487e-05
6.86385e-05
7.19184e-05
7.1699e-05
7.16559e-05
7.17602e-05
7.98179e-05
7.35099e-05
7.17462e-05
7.98245e-05
9.50337e-05
7.35452e-05
7.35514e-05
7.35319e-05
7.35381e-05
9.50355e-05
7.42465e-05
6.52952e-05
7.33096e-05
6.99778e-05
7.33213e-05
7.42434e-05
6.53069e-05
7.41991e-05
6.52912e-05
7.33016e-05
6.99753e-05
6.53022e-05
7.41959e-05
7.33134e-05
9.50228e-05
7.35198e-05
7.3526e-05
7.35331e-05
9.50209e-05
7.35393e-05
7.42573e-05
7.33345e-05
6.99856e-05
6.53249e-05
7.33229e-05
6.53137e-05
7.42602e-05
7.42098e-05
7.33266e-05
6.99833e-05
6.53204e-05
6.53097e-05
7.3315e-05
7.42128e-05
7.12342e-05
7.12356e-05
7.12614e-05
9.5048e-05
7.35439e-05
7.35501e-05
9.50463e-05
7.35572e-05
7.35634e-05
7.42734e-05
7.33361e-05
6.53315e-05
7.0001e-05
6.53425e-05
7.42706e-05
7.33476e-05
7.42261e-05
7.33282e-05
6.53275e-05
6.99986e-05
7.42232e-05
7.33397e-05
6.53379e-05
7.12601e-05
7.19061e-05
6.86174e-05
7.16492e-05
7.16846e-05
7.1642e-05
7.16758e-05
7.19149e-05
7.17364e-05
7.98138e-05
7.34866e-05
7.9821e-05
7.17223e-05
7.19014e-05
6.86125e-05
7.16301e-05
7.16618e-05
7.16378e-05
7.18921e-05
7.16709e-05
7.17351e-05
7.9832e-05
7.34906e-05
7.98252e-05
7.17491e-05
7.19041e-05
6.86139e-05
7.16412e-05
7.16835e-05
7.16341e-05
7.16748e-05
7.1913e-05
7.17355e-05
7.9797e-05
7.34843e-05
7.17213e-05
7.98042e-05
7.18995e-05
6.8609e-05
7.16221e-05
7.16607e-05
7.18899e-05
7.16297e-05
7.16698e-05
7.17341e-05
7.98153e-05
7.34874e-05
7.98084e-05
7.17482e-05
7.19283e-05
7.16534e-05
7.16896e-05
6.86374e-05
7.19195e-05
7.16606e-05
7.16986e-05
7.17617e-05
7.98362e-05
7.35131e-05
7.17478e-05
7.98429e-05
7.19263e-05
7.16456e-05
7.16885e-05
6.86339e-05
7.19174e-05
7.16527e-05
7.16975e-05
7.17608e-05
7.98195e-05
7.35116e-05
7.17468e-05
7.98262e-05
7.1234e-05
7.12353e-05
7.12367e-05
7.12381e-05
9.50489e-05
7.35508e-05
7.35442e-05
9.50471e-05
7.3564e-05
7.35574e-05
7.42254e-05
7.33291e-05
6.53247e-05
6.99942e-05
7.42223e-05
6.5335e-05
7.33375e-05
7.4273e-05
7.33388e-05
6.53327e-05
7.00026e-05
7.427e-05
6.53436e-05
7.33472e-05
7.12599e-05
7.12627e-05
3.89046e-05
3.22686e-05
3.22662e-05
3.92876e-05
3.23849e-05
3.23827e-05
2.34441e-05
2.33004e-05
6.59956e-05
5.95653e-05
5.95668e-05
5.3662e-05
6.59896e-05
5.9569e-05
5.95706e-05
6.59714e-05
5.36303e-05
5.95384e-05
5.95387e-05
5.95405e-05
5.95414e-05
6.59753e-05
6.597e-05
5.36187e-05
5.95371e-05
5.95408e-05
5.95337e-05
5.9537e-05
6.59757e-05
6.597e-05
5.36233e-05
5.95413e-05
5.95437e-05
5.95369e-05
5.95394e-05
6.59759e-05
6.59696e-05
5.36203e-05
5.95398e-05
5.95413e-05
6.5975e-05
5.95354e-05
5.9537e-05
6.59958e-05
5.95697e-05
5.95706e-05
5.36599e-05
6.5992e-05
5.95687e-05
5.95689e-05
6.5996e-05
5.95635e-05
5.95673e-05
5.36599e-05
5.95702e-05
6.59905e-05
5.95666e-05
6.59965e-05
5.95662e-05
5.95688e-05
5.36667e-05
5.95729e-05
6.59902e-05
5.95704e-05
3.90033e-05
3.21495e-05
3.2147e-05
3.20297e-05
3.2027e-05
2.30091e-05
2.31549e-05
3.90031e-05
3.2149e-05
3.21485e-05
3.20292e-05
3.20287e-05
2.30095e-05
2.31554e-05
3.90075e-05
3.21526e-05
3.21526e-05
3.20324e-05
3.20328e-05
2.30132e-05
2.3159e-05
3.90062e-05
3.21536e-05
3.21516e-05
3.20332e-05
3.20321e-05
2.30138e-05
2.31596e-05
3.2268e-05
3.22674e-05
3.92866e-05
3.23843e-05
3.23839e-05
2.34446e-05
2.33009e-05
3.22718e-05
3.22716e-05
3.92919e-05
3.23882e-05
3.2388e-05
2.34481e-05
2.33045e-05
3.22724e-05
3.22707e-05
3.92902e-05
3.2389e-05
3.2387e-05
2.34487e-05
2.3305e-05
3.93796e-05
3.25006e-05
3.24985e-05
2.35874e-05
3.93786e-05
3.25e-05
3.24993e-05
2.35879e-05
3.93838e-05
3.2504e-05
3.25036e-05
2.35914e-05
3.93822e-05
3.25045e-05
3.25027e-05
2.35919e-05
5.64404e-05
6.07086e-05
6.24047e-05
5.51637e-05
6.2394e-05
5.51784e-05
5.6429e-05
5.74783e-05
6.04495e-05
6.42519e-05
6.48427e-05
5.74904e-05
6.04498e-05
6.42609e-05
5.63956e-05
6.06987e-05
6.23737e-05
5.51417e-05
5.6407e-05
6.23848e-05
5.51272e-05
5.75189e-05
6.42784e-05
6.48482e-05
6.04736e-05
6.04733e-05
6.42696e-05
5.75079e-05
5.64422e-05
6.07086e-05
5.51637e-05
6.24074e-05
5.51785e-05
6.23966e-05
5.64303e-05
5.74825e-05
6.04513e-05
6.42537e-05
6.48434e-05
5.74875e-05
6.04514e-05
6.42632e-05
5.63977e-05
6.06988e-05
5.51409e-05
6.23765e-05
5.64093e-05
5.51272e-05
6.23877e-05
5.75174e-05
6.42806e-05
6.48487e-05
6.04748e-05
6.04749e-05
6.42715e-05
5.75124e-05
6.60098e-05
5.37045e-05
5.95977e-05
5.95991e-05
5.95945e-05
5.95957e-05
6.60152e-05
6.59286e-05
5.35433e-05
5.94767e-05
5.94766e-05
6.59329e-05
5.94794e-05
5.94797e-05
6.59544e-05
5.35704e-05
5.951e-05
5.95107e-05
6.59503e-05
5.9508e-05
5.95084e-05
5.73881e-05
6.42073e-05
6.47839e-05
6.03775e-05
6.41947e-05
6.03713e-05
5.7391e-05
5.63283e-05
6.23305e-05
5.50551e-05
6.06527e-05
5.63348e-05
6.23473e-05
5.50534e-05
5.74521e-05
6.04273e-05
6.48165e-05
6.42454e-05
6.04228e-05
6.42336e-05
5.74537e-05
5.74229e-05
6.42144e-05
6.03958e-05
6.48109e-05
6.04016e-05
5.74209e-05
6.42264e-05
5.63703e-05
6.06626e-05
6.23688e-05
5.50937e-05
6.23522e-05
5.50949e-05
5.63635e-05
5.63239e-05
6.23257e-05
5.50532e-05
6.06511e-05
5.63305e-05
6.23429e-05
5.50517e-05
5.74468e-05
6.04236e-05
6.48126e-05
6.42377e-05
6.42256e-05
6.04192e-05
5.74483e-05
5.74174e-05
6.42069e-05
6.03925e-05
6.48071e-05
5.74153e-05
6.42188e-05
6.03983e-05
5.6366e-05
6.0661e-05
6.23644e-05
5.50919e-05
6.23474e-05
5.5093e-05
5.6359e-05
5.35715e-05
5.95033e-05
5.95062e-05
6.47861e-05
6.03746e-05
6.03738e-05
5.63244e-05
6.23318e-05
5.50664e-05
6.06524e-05
5.63371e-05
6.23436e-05
5.5052e-05
5.74539e-05
6.04252e-05
6.48186e-05
6.42436e-05
6.04259e-05
6.42338e-05
5.7448e-05
5.74143e-05
6.42149e-05
6.03985e-05
6.48129e-05
6.03992e-05
5.74256e-05
6.4225e-05
5.63727e-05
6.06626e-05
6.23649e-05
5.50895e-05
6.23532e-05
5.5104e-05
5.63601e-05
5.63222e-05
5.50655e-05
6.2328e-05
6.0651e-05
5.63348e-05
5.5051e-05
6.23399e-05
5.74503e-05
6.0425e-05
6.4814e-05
6.42363e-05
6.42263e-05
6.04198e-05
5.74449e-05
5.74107e-05
6.42075e-05
6.03945e-05
6.48088e-05
5.7422e-05
6.42177e-05
6.04001e-05
5.63704e-05
6.06612e-05
5.50885e-05
6.23612e-05
5.5103e-05
6.23494e-05
5.63579e-05
5.74588e-05
6.04258e-05
6.48176e-05
6.42429e-05
5.74474e-05
6.04249e-05
6.42334e-05
5.6373e-05
6.06626e-05
6.23642e-05
5.50898e-05
5.63616e-05
6.23524e-05
5.5105e-05
5.74528e-05
6.04225e-05
6.48135e-05
6.42369e-05
6.42271e-05
6.04227e-05
5.74481e-05
5.63718e-05
6.06625e-05
5.5091e-05
6.23624e-05
5.51054e-05
6.23507e-05
5.63608e-05
6.59552e-05
5.3582e-05
5.95057e-05
5.95084e-05
5.95103e-05
6.59485e-05
5.95129e-05
5.63275e-05
5.50671e-05
6.23338e-05
6.06525e-05
5.634e-05
5.50531e-05
6.23455e-05
5.74586e-05
6.04272e-05
6.48182e-05
6.42452e-05
5.74535e-05
6.04274e-05
6.42353e-05
5.7419e-05
6.42165e-05
6.04025e-05
6.48126e-05
5.74299e-05
6.04024e-05
6.42267e-05
5.63755e-05
6.06625e-05
5.50889e-05
6.2367e-05
5.63634e-05
5.5104e-05
6.23549e-05
5.63222e-05
5.50657e-05
6.2327e-05
6.06499e-05
5.63348e-05
5.50513e-05
6.23388e-05
5.74519e-05
6.0426e-05
6.4816e-05
6.4237e-05
6.42271e-05
6.04247e-05
5.74471e-05
5.7412e-05
6.42079e-05
6.03999e-05
6.48103e-05
5.74229e-05
6.42185e-05
6.04001e-05
5.63705e-05
6.066e-05
5.50886e-05
6.23601e-05
5.51031e-05
6.23484e-05
5.6358e-05
6.59548e-05
5.35787e-05
5.95055e-05
5.95095e-05
5.95104e-05
6.60119e-05
5.37098e-05
5.95974e-05
5.95975e-05
6.60154e-05
5.95983e-05
5.95994e-05
6.60345e-05
5.37429e-05
5.96265e-05
5.96277e-05
6.60312e-05
5.96257e-05
5.96257e-05
5.64385e-05
6.07087e-05
6.24095e-05
5.5167e-05
6.23936e-05
5.51695e-05
5.64311e-05
5.74843e-05
6.04471e-05
6.42523e-05
6.48419e-05
6.42635e-05
5.74828e-05
6.04512e-05
5.63976e-05
6.06994e-05
6.23735e-05
5.51326e-05
6.23895e-05
5.64049e-05
5.51309e-05
5.75121e-05
6.42811e-05
6.48469e-05
6.04748e-05
6.42702e-05
6.04709e-05
5.75135e-05
5.64343e-05
6.0707e-05
6.2405e-05
5.51652e-05
6.23888e-05
5.51676e-05
5.64267e-05
5.74783e-05
6.04424e-05
6.42443e-05
6.48379e-05
5.7477e-05
6.42559e-05
6.04483e-05
5.63932e-05
6.06978e-05
6.23687e-05
5.51307e-05
5.64006e-05
6.23851e-05
5.5129e-05
5.75064e-05
6.42735e-05
6.48431e-05
6.04718e-05
6.42622e-05
5.75075e-05
6.04671e-05
5.64631e-05
6.24136e-05
5.52053e-05
6.07426e-05
5.64711e-05
6.24289e-05
5.5202e-05
5.75403e-05
6.42876e-05
6.04929e-05
6.48708e-05
6.04982e-05
5.75406e-05
6.4298e-05
5.64587e-05
6.24087e-05
5.52034e-05
6.0741e-05
5.64669e-05
6.24244e-05
5.52002e-05
5.75343e-05
6.42796e-05
6.04902e-05
6.48668e-05
5.75348e-05
6.42905e-05
6.04941e-05
6.60103e-05
5.3704e-05
5.95951e-05
5.95989e-05
5.95966e-05
5.95932e-05
6.60155e-05
6.60348e-05
5.37418e-05
5.9622e-05
5.96249e-05
5.96234e-05
6.60296e-05
5.96268e-05
5.64399e-05
6.0709e-05
6.24059e-05
5.51642e-05
6.2395e-05
5.51781e-05
5.64278e-05
5.74779e-05
6.045e-05
6.42522e-05
6.48437e-05
6.42617e-05
5.74834e-05
6.04505e-05
5.63949e-05
6.06992e-05
6.23746e-05
5.51405e-05
6.23861e-05
5.64068e-05
5.51272e-05
5.75136e-05
6.42792e-05
6.4849e-05
6.04735e-05
6.42701e-05
6.04734e-05
5.75081e-05
5.64376e-05
6.07075e-05
5.51632e-05
6.24022e-05
5.5177e-05
6.23912e-05
5.64256e-05
5.74746e-05
6.04442e-05
6.42446e-05
6.48397e-05
5.74797e-05
6.42544e-05
6.0449e-05
5.63927e-05
6.06978e-05
5.51396e-05
6.23708e-05
5.64044e-05
5.51264e-05
6.23824e-05
5.75098e-05
6.42718e-05
6.48445e-05
6.0472e-05
6.42626e-05
5.75048e-05
6.04688e-05
5.64607e-05
6.24147e-05
5.52094e-05
6.07425e-05
5.64723e-05
6.24253e-05
5.52015e-05
5.75373e-05
6.42875e-05
6.04964e-05
6.48726e-05
6.04968e-05
5.75425e-05
6.42962e-05
5.64585e-05
5.52084e-05
6.24109e-05
6.07412e-05
5.64699e-05
5.52005e-05
6.24216e-05
5.75339e-05
6.42799e-05
6.04904e-05
6.48686e-05
5.75386e-05
6.42888e-05
6.04959e-05
5.64388e-05
6.07086e-05
5.51644e-05
6.24033e-05
5.51782e-05
6.23925e-05
5.64277e-05
5.74769e-05
6.04465e-05
6.42456e-05
6.48387e-05
6.04467e-05
5.74817e-05
6.4255e-05
5.63945e-05
6.06988e-05
5.51407e-05
6.23719e-05
5.51276e-05
5.64054e-05
6.23835e-05
5.75119e-05
6.42725e-05
6.4844e-05
6.04699e-05
6.04701e-05
6.42635e-05
5.75069e-05
5.64614e-05
6.24137e-05
5.52122e-05
6.07422e-05
5.64727e-05
6.24242e-05
5.51989e-05
5.75384e-05
6.42869e-05
6.04961e-05
6.48714e-05
5.75452e-05
6.04966e-05
6.42954e-05
5.64604e-05
5.52098e-05
6.2412e-05
6.07422e-05
5.64712e-05
5.52018e-05
6.24228e-05
5.7536e-05
6.42809e-05
6.0493e-05
6.48675e-05
5.75408e-05
6.42896e-05
6.04929e-05
6.60104e-05
5.37054e-05
5.9599e-05
5.96016e-05
5.9598e-05
5.95953e-05
6.60161e-05
6.60353e-05
5.37463e-05
5.96238e-05
5.96264e-05
5.96271e-05
6.60298e-05
5.96297e-05
5.64375e-05
6.07062e-05
5.51631e-05
6.2401e-05
5.5177e-05
6.23903e-05
5.64255e-05
5.74759e-05
6.04483e-05
6.42454e-05
6.48412e-05
6.04497e-05
5.74808e-05
6.42552e-05
5.63927e-05
6.06965e-05
5.51397e-05
6.23698e-05
5.51265e-05
5.64045e-05
6.23813e-05
5.75109e-05
6.42726e-05
6.48466e-05
6.04727e-05
6.04717e-05
6.42635e-05
5.75059e-05
5.6463e-05
5.52122e-05
6.24162e-05
6.07422e-05
5.64745e-05
5.51989e-05
6.24269e-05
5.75414e-05
6.42888e-05
6.0498e-05
6.48723e-05
5.75462e-05
6.0498e-05
6.42977e-05
5.64584e-05
5.52084e-05
6.24098e-05
6.07398e-05
5.64699e-05
5.52004e-05
6.24205e-05
5.75349e-05
6.42808e-05
6.04946e-05
6.487e-05
5.75397e-05
6.42896e-05
6.04952e-05
6.60343e-05
5.3744e-05
5.96224e-05
5.96236e-05
6.60289e-05
5.96256e-05
5.96269e-05
3.95574e-05
5.17815e-05
5.17852e-05
5.38244e-05
3.98927e-05
5.19627e-05
5.19664e-05
5.39687e-05
4.02013e-05
5.21235e-05
5.21273e-05
5.40963e-05
4.04837e-05
5.22644e-05
5.22683e-05
5.42082e-05
4.07407e-05
5.23862e-05
5.23901e-05
5.43043e-05
4.0973e-05
5.24894e-05
5.24932e-05
5.43854e-05
4.11813e-05
5.25747e-05
5.25785e-05
5.4452e-05
4.13665e-05
5.26429e-05
5.26467e-05
5.45045e-05
4.15294e-05
5.26945e-05
5.26983e-05
5.45435e-05
4.1671e-05
5.27302e-05
5.2734e-05
5.45701e-05
4.17921e-05
5.27508e-05
5.27546e-05
5.45844e-05
4.18936e-05
5.2757e-05
5.27607e-05
5.45875e-05
4.1976e-05
5.2751e-05
5.27546e-05
5.45767e-05
4.20407e-05
5.27325e-05
5.27361e-05
5.45552e-05
4.20889e-05
5.27022e-05
5.27059e-05
5.45256e-05
4.21221e-05
5.26609e-05
5.26648e-05
5.44872e-05
4.21409e-05
5.26098e-05
5.26138e-05
5.44403e-05
4.21453e-05
5.25499e-05
5.25538e-05
5.43849e-05
4.21116e-05
5.2474e-05
5.24774e-05
5.43105e-05
4.37925e-05
5.05505e-05
5.05536e-05
5.3958e-05
5.37824e-05
5.17331e-05
5.17282e-05
5.3781e-05
5.17306e-05
5.17314e-05
5.17323e-05
5.17324e-05
5.37855e-05
5.1736e-05
5.17302e-05
5.37832e-05
5.38275e-05
5.39297e-05
5.17823e-05
5.17774e-05
5.19193e-05
5.19142e-05
5.38235e-05
5.39276e-05
5.17798e-05
5.17806e-05
5.19169e-05
5.19176e-05
5.17816e-05
5.19184e-05
5.19185e-05
5.38268e-05
5.39321e-05
5.17795e-05
5.19222e-05
5.19164e-05
5.393e-05
5.39706e-05
5.40605e-05
5.19635e-05
5.19585e-05
5.20848e-05
5.20798e-05
5.39679e-05
5.40583e-05
5.19612e-05
5.19619e-05
5.20826e-05
5.20833e-05
5.19628e-05
5.20839e-05
5.2084e-05
5.3971e-05
5.4062e-05
5.19608e-05
5.20877e-05
5.2082e-05
5.40598e-05
5.40981e-05
5.41753e-05
5.21244e-05
5.21193e-05
5.22304e-05
5.22253e-05
5.40959e-05
5.41735e-05
5.21221e-05
5.21229e-05
5.22283e-05
5.2229e-05
5.21236e-05
5.22295e-05
5.22295e-05
5.40986e-05
5.41762e-05
5.21216e-05
5.22334e-05
5.22276e-05
5.41741e-05
5.42095e-05
5.42746e-05
5.22654e-05
5.22603e-05
5.23567e-05
5.23515e-05
5.42069e-05
5.42728e-05
5.22633e-05
5.2264e-05
5.23546e-05
5.23553e-05
5.22645e-05
5.23557e-05
5.23557e-05
5.42104e-05
5.42754e-05
5.22626e-05
5.23596e-05
5.23539e-05
5.42733e-05
5.43054e-05
5.43586e-05
5.23872e-05
5.2382e-05
5.24643e-05
5.24591e-05
5.4303e-05
5.43569e-05
5.23851e-05
5.23858e-05
5.24623e-05
5.24629e-05
5.23862e-05
5.24634e-05
5.24633e-05
5.43063e-05
5.43595e-05
5.23844e-05
5.24672e-05
5.24615e-05
5.43575e-05
5.43864e-05
5.4428e-05
5.24904e-05
5.24852e-05
5.25538e-05
5.25486e-05
5.43842e-05
5.44262e-05
5.24883e-05
5.2489e-05
5.25518e-05
5.25524e-05
5.24894e-05
5.25529e-05
5.25528e-05
5.43872e-05
5.44288e-05
5.24876e-05
5.25566e-05
5.25511e-05
5.4427e-05
5.44529e-05
5.44831e-05
5.25757e-05
5.25705e-05
5.26258e-05
5.26207e-05
5.44507e-05
5.44813e-05
5.25737e-05
5.25743e-05
5.26239e-05
5.26246e-05
5.25747e-05
5.26249e-05
5.26249e-05
5.44537e-05
5.44841e-05
5.2573e-05
5.26287e-05
5.26232e-05
5.44823e-05
5.45053e-05
5.45247e-05
5.26438e-05
5.26386e-05
5.26813e-05
5.26761e-05
5.45031e-05
5.45228e-05
5.26419e-05
5.26425e-05
5.26794e-05
5.268e-05
5.26429e-05
5.26804e-05
5.26804e-05
5.45062e-05
5.45258e-05
5.26412e-05
5.26842e-05
5.26788e-05
5.45239e-05
5.45442e-05
5.4553e-05
5.26953e-05
5.26902e-05
5.2721e-05
5.27158e-05
5.45421e-05
5.45516e-05
5.26935e-05
5.26941e-05
5.27192e-05
5.27198e-05
5.26945e-05
5.27202e-05
5.27202e-05
5.4545e-05
5.45546e-05
5.26929e-05
5.2724e-05
5.27186e-05
5.45524e-05
5.45707e-05
5.45692e-05
5.27311e-05
5.27259e-05
5.2746e-05
5.27409e-05
5.45682e-05
5.45705e-05
5.27293e-05
5.27298e-05
5.27442e-05
5.27448e-05
5.27302e-05
5.27452e-05
5.27452e-05
5.45711e-05
5.45731e-05
5.27287e-05
5.2749e-05
5.27437e-05
5.45711e-05
5.45896e-05
5.45748e-05
5.27517e-05
5.27465e-05
5.2757e-05
5.27518e-05
5.45833e-05
5.45752e-05
5.27499e-05
5.27504e-05
5.27553e-05
5.27557e-05
5.27508e-05
5.27562e-05
5.27562e-05
5.45869e-05
5.45779e-05
5.27493e-05
5.276e-05
5.27547e-05
5.45754e-05
5.4591e-05
5.4565e-05
5.27578e-05
5.27526e-05
5.27535e-05
5.27483e-05
5.45861e-05
5.45665e-05
5.2756e-05
5.27564e-05
5.27518e-05
5.27521e-05
5.27569e-05
5.27528e-05
5.27526e-05
5.45897e-05
5.457e-05
5.27554e-05
5.27565e-05
5.27511e-05
5.4567e-05
5.45815e-05
5.45434e-05
5.27517e-05
5.27465e-05
5.2737e-05
5.27318e-05
5.45762e-05
5.4546e-05
5.27499e-05
5.27503e-05
5.27353e-05
5.27355e-05
5.27509e-05
5.27363e-05
5.27361e-05
5.45834e-05
5.45438e-05
5.27494e-05
5.27399e-05
5.27346e-05
5.45466e-05
5.45598e-05
5.45154e-05
5.27331e-05
5.2728e-05
5.27086e-05
5.27033e-05
5.45546e-05
5.45164e-05
5.27314e-05
5.27317e-05
5.27069e-05
5.27068e-05
5.27325e-05
5.27079e-05
5.27074e-05
5.45602e-05
5.45161e-05
5.2731e-05
5.27112e-05
5.27058e-05
5.4517e-05
5.45281e-05
5.44787e-05
5.27027e-05
5.26977e-05
5.26692e-05
5.26638e-05
5.45254e-05
5.44775e-05
5.27009e-05
5.27014e-05
5.26674e-05
5.2667e-05
5.27024e-05
5.26683e-05
5.26675e-05
5.45286e-05
5.44792e-05
5.27009e-05
5.26714e-05
5.2666e-05
5.44781e-05
5.4489e-05
5.44325e-05
5.26614e-05
5.26565e-05
5.26195e-05
5.26141e-05
5.44871e-05
5.44308e-05
5.26596e-05
5.26604e-05
5.26178e-05
5.2617e-05
5.26615e-05
5.26186e-05
5.26175e-05
5.44895e-05
5.44329e-05
5.266e-05
5.26214e-05
5.26159e-05
5.44316e-05
5.44416e-05
5.43784e-05
5.26102e-05
5.26053e-05
5.25604e-05
5.25551e-05
5.44398e-05
5.43767e-05
5.26084e-05
5.26094e-05
5.25589e-05
5.25579e-05
5.26106e-05
5.25596e-05
5.25584e-05
5.44421e-05
5.43789e-05
5.26091e-05
5.25624e-05
5.25569e-05
5.43776e-05
5.43861e-05
5.43141e-05