/*--------------------------------*- C++ -*----------------------------------*\
| =========                 |                                                 |
| \\      /  F ield         | OpenFOAM: The Open Source CFD Toolbox           |
|  \\    /   O peration     | Version:  2312                                  |
|   \\  /    A nd           | Website:  www.openfoam.com                      |
|    \\/     M anipulation  |                                                 |
\*---------------------------------------------------------------------------*/
FoamFile
{
    version     2.0;
    format      ascii;
    arch        "LSB;label=32;scalar=64";
    class       volVectorField;
    location    "1000";
    object      U;
}
// * * * * * * * * * * * * * * * * * * * * * * * * * * * * * * * * * * * * * //

dimensions      [0 1 -1 0 0 0 0];

internalField   nonuniform List<vector> 
43168
(
(-1.02779e-05 -1.02661e-05 0.112443)
(1.14031e-05 -6.21203e-06 0.107483)
(-6.20077e-06 1.14026e-05 0.107482)
(-2.3758e-05 -2.37623e-05 0.104205)
(-4.15609e-05 -4.15594e-05 0.104319)
(-6.15593e-06 -1.13377e-05 0.107483)
(6.14902e-06 -1.13514e-05 0.107483)
(4.15639e-05 -4.15721e-05 0.10432)
(-1.13693e-05 -6.17065e-06 0.107485)
(-1.13411e-05 6.16002e-06 0.107482)
(1.13673e-05 -6.18075e-06 0.107485)
(1.13564e-05 6.14164e-06 0.107483)
(-4.15517e-05 4.15645e-05 0.104318)
(-6.17306e-06 1.13742e-05 0.107484)
(6.18336e-06 1.13704e-05 0.107484)
(4.15676e-05 4.1565e-05 0.104318)
(2.37504e-05 2.37629e-05 0.104205)
(-6.1804e-06 -1.13666e-05 0.107481)
(6.17552e-06 -1.13843e-05 0.107481)
(-2.37656e-05 2.37177e-05 0.104206)
(-1.13985e-05 -6.19627e-06 0.107483)
(-1.13695e-05 6.18492e-06 0.10748)
(1.13855e-05 6.17196e-06 0.107481)
(2.37561e-05 -2.37736e-05 0.104205)
(6.20681e-06 1.13999e-05 0.107482)
(-1.20997e-06 -1.20445e-05 0.082286)
(-1.20538e-05 -1.2139e-06 0.0822866)
(-1.02038e-05 -1.01914e-05 0.112452)
(1.0216e-05 -1.01812e-05 0.112452)
(-1.01956e-05 1.02096e-05 0.112451)
(1.02129e-05 1.01766e-05 0.112451)
(-3.05826e-07 -1.65414e-05 0.0914582)
(5.7875e-07 7.21327e-06 0.0822599)
(-2.68858e-07 5.0086e-06 0.0914069)
(-1.24164e-06 -1.19865e-05 0.0823193)
(-2.48783e-06 4.31579e-06 0.071571)
(3.33304e-06 -5.78512e-06 0.0716358)
(-1.65497e-05 -2.8065e-07 0.0914584)
(7.19912e-06 5.988e-07 0.0822607)
(5.02053e-06 -2.51799e-07 0.091407)
(-1.19869e-05 -1.2412e-06 0.0823199)
(1.02841e-05 -1.0274e-05 0.112443)
(-1.0271e-05 1.02822e-05 0.112442)
(1.02895e-05 1.02601e-05 0.112442)
(2.72166e-05 -6.72701e-07 0.0986028)
(-8.8174e-06 3.08653e-06 0.0930333)
(1.46381e-05 -2.65978e-06 0.109894)
(1.14127e-05 -6.22758e-06 0.107481)
(-7.97486e-06 -4.56089e-07 0.0985414)
(2.03455e-05 -7.80174e-06 0.0930974)
(1.47002e-05 -2.6799e-06 0.109889)
(4.35085e-06 -2.53264e-06 0.0715732)
(-5.80201e-06 3.40495e-06 0.0716336)
(-7.10658e-07 2.72237e-05 0.0986024)
(-2.64889e-06 1.46462e-05 0.109893)
(3.07748e-06 -8.79832e-06 0.0930335)
(-6.2144e-06 1.14146e-05 0.10748)
(-4.01965e-07 -7.98693e-06 0.098541)
(-2.66183e-06 1.47011e-05 0.109888)
(-7.76904e-06 2.03504e-05 0.0930966)
(-3.6346e-06 -3.45599e-06 0.087582)
(-3.44495e-06 -3.63172e-06 0.087581)
(4.14932e-05 4.14924e-05 0.10432)
(9.81166e-06 6.94447e-06 0.0876395)
(6.97113e-06 9.80225e-06 0.0876379)
(-3.33948e-06 -5.88861e-06 0.0716039)
(-5.87099e-06 -3.35231e-06 0.0716035)
(-4.1623e-05 -4.16196e-05 0.104318)
(-6.91443e-06 -9.86627e-06 0.0876083)
(-9.89758e-06 -6.94194e-06 0.0876061)
(-3.36318e-06 -5.86082e-06 0.0716189)
(2.53242e-06 4.37361e-06 0.0715574)
(-5.84475e-06 -3.37627e-06 0.0716186)
(4.34991e-06 2.55282e-06 0.0715575)
(2.37914e-05 2.38018e-05 0.104203)
(-6.92209e-06 -9.82514e-06 0.0876241)
(-9.8597e-06 -6.9496e-06 0.087622)
(3.43468e-06 3.59849e-06 0.0875657)
(3.61785e-06 3.45527e-06 0.0875647)
(-6.10759e-06 -1.12832e-05 0.107487)
(-7.77915e-06 -2.0396e-05 0.0930673)
(-2.69495e-07 5.00794e-06 0.0913912)
(-1.22684e-06 -1.20178e-05 0.0823027)
(5.97725e-07 7.19714e-06 0.0822432)
(-3.09197e-07 -1.65752e-05 0.0914426)
(2.34998e-07 5.00743e-06 0.0913914)
(1.17463e-06 -1.20054e-05 0.0823038)
(-5.85468e-07 7.15905e-06 0.0822428)
(2.77179e-07 -1.65805e-05 0.0914427)
(-4.40415e-07 8.03754e-06 0.09853)
(-6.13118e-06 -1.13162e-05 0.107485)
(-7.77881e-06 -2.03655e-05 0.0930817)
(-2.64113e-06 -1.45507e-05 0.109898)
(3.09376e-06 8.79427e-06 0.0930178)
(-2.62234e-06 -1.44789e-05 0.109903)
(-7.11488e-07 -2.72758e-05 0.0985914)
(4.08305e-07 8.03889e-06 0.0985302)
(6.12329e-06 -1.12805e-05 0.107486)
(7.72966e-06 -2.0368e-05 0.0930823)
(2.63e-06 -1.45574e-05 0.109898)
(-3.09548e-06 8.77547e-06 0.0930175)
(2.62951e-06 -1.44794e-05 0.109903)
(6.73673e-07 -2.72839e-05 0.0985916)
(3.31364e-06 -5.81018e-06 0.0716209)
(-2.51853e-06 4.30012e-06 0.071556)
(-2.38418e-05 2.37811e-05 0.104203)
(6.91806e-06 -9.83322e-06 0.0876231)
(9.84527e-06 -6.97603e-06 0.0876242)
(-3.47717e-06 3.57922e-06 0.0875642)
(5.84049e-06 -3.40908e-06 0.0716193)
(-1.13143e-05 -6.12077e-06 0.107489)
(-2.04305e-05 -7.79379e-06 0.0930673)
(5.01694e-06 -2.51966e-07 0.0913913)
(-1.20201e-05 -1.22658e-06 0.0823033)
(7.18149e-06 6.17025e-07 0.082244)
(-1.6581e-05 -2.83445e-07 0.0914428)
(8.0444e-06 -4.27035e-07 0.0985301)
(-1.13487e-05 -6.14824e-06 0.107487)
(-2.04002e-05 -7.79295e-06 0.0930818)
(-1.45588e-05 -2.63878e-06 0.109898)
(8.79833e-06 3.10989e-06 0.0930184)
(-1.44906e-05 -2.62094e-06 0.109903)
(-2.72889e-05 -6.86711e-07 0.0985917)
(5.01767e-06 2.44276e-07 0.0913913)
(-1.19997e-05 1.24379e-06 0.0823029)
(7.18109e-06 -6.20845e-07 0.0822439)
(-1.65773e-05 3.04056e-07 0.0914427)
(8.04674e-06 4.05455e-07 0.09853)
(-1.13127e-05 6.13863e-06 0.107484)
(-1.45525e-05 2.63563e-06 0.109897)
(-2.03507e-05 7.78953e-06 0.0930808)
(-1.44831e-05 2.61958e-06 0.109902)
(8.78385e-06 -3.10839e-06 0.0930181)
(-2.72837e-05 7.09294e-07 0.0985916)
(2.03719e-05 -7.80859e-06 0.0930829)
(1.4552e-05 -2.64543e-06 0.109898)
(2.72309e-05 -6.73338e-07 0.098592)
(1.19969e-05 -1.27759e-06 0.0823038)
(1.65248e-05 -2.47878e-07 0.0914435)
(1.45453e-05 2.61168e-06 0.109898)
(2.03592e-05 7.77423e-06 0.0930821)
(2.7243e-05 7.05058e-07 0.0985918)
(1.20196e-05 1.21935e-06 0.0823033)
(1.65466e-05 3.21108e-07 0.0914428)
(-5.8268e-06 3.38409e-06 0.0716186)
(4.34065e-06 -2.55703e-06 0.0715581)
(2.38018e-05 -2.38198e-05 0.104203)
(-9.82723e-06 6.93772e-06 0.0876209)
(-6.92998e-06 9.82748e-06 0.0876238)
(3.59636e-06 -3.46095e-06 0.0875648)
(3.44203e-06 -3.60131e-06 0.0875664)
(-3.37306e-06 5.85308e-06 0.0716191)
(2.54353e-06 -4.35644e-06 0.071558)
(-4.01972e-07 -8.01881e-06 0.0985301)
(-6.14923e-06 1.13504e-05 0.107486)
(-2.63105e-06 1.45701e-05 0.109897)
(-7.77364e-06 2.0385e-05 0.0930822)
(-2.61698e-06 1.44977e-05 0.109902)
(3.0912e-06 -8.78742e-06 0.093019)
(-7.13524e-07 2.72459e-05 0.0985916)
(4.26364e-07 -8.00587e-06 0.0985303)
(6.16704e-06 1.13479e-05 0.107486)
(2.63433e-06 1.45731e-05 0.109897)
(7.80227e-06 2.03903e-05 0.0930821)
(2.61475e-06 1.44952e-05 0.109902)
(-3.10632e-06 -8.78786e-06 0.0930188)
(6.91319e-07 2.72351e-05 0.098592)
(-2.04153e-07 -4.982e-06 0.0913907)
(-1.22472e-06 1.20243e-05 0.0823033)
(6.07621e-07 -7.18461e-06 0.0822442)
(-3.37829e-07 1.65314e-05 0.0914432)
(2.59241e-07 -4.95967e-06 0.0913903)
(1.2494e-06 1.2014e-05 0.0823038)
(-6.26471e-07 -7.18033e-06 0.0822445)
(2.85973e-07 1.65077e-05 0.0914439)
(-2.37669e-05 -2.37735e-05 0.104203)
(9.85263e-06 6.94246e-06 0.0876236)
(6.9657e-06 9.84034e-06 0.0876221)
(-3.45734e-06 -3.6139e-06 0.0875651)
(5.85087e-06 3.36696e-06 0.0716194)
(3.39959e-06 5.83412e-06 0.0716193)
(-2.55995e-06 -4.34789e-06 0.0715584)
(2.50536e-06 4.38665e-06 0.0715725)
(-3.38554e-06 -5.83508e-06 0.0716339)
(4.36256e-06 2.52633e-06 0.0715726)
(-5.81873e-06 -3.39846e-06 0.0716335)
(3.42129e-06 3.62622e-06 0.0875816)
(3.64324e-06 3.44043e-06 0.0875806)
(-4.14953e-05 -4.14925e-05 0.104321)
(-6.92656e-06 -9.78671e-06 0.0876399)
(-9.82029e-06 -6.95473e-06 0.0876377)
(2.47915e-06 4.39954e-06 0.0715874)
(4.37543e-06 2.50027e-06 0.0715875)
(2.3722e-05 2.37351e-05 0.104208)
(3.40745e-06 3.65303e-06 0.0875975)
(3.67073e-06 3.4264e-06 0.0875964)
(2.73999e-07 -1.65447e-05 0.0914583)
(-5.63531e-07 7.18129e-06 0.0822596)
(2.38005e-07 5.00823e-06 0.0914071)
(1.18786e-06 -1.19751e-05 0.0823204)
(-7.09846e-07 -2.72541e-05 0.0986022)
(3.08333e-06 8.8116e-06 0.0930324)
(-2.65711e-06 -1.46239e-05 0.109894)
(-6.19679e-06 -1.138e-05 0.107479)
(-4.42822e-07 8.01192e-06 0.0985409)
(-7.77194e-06 -2.03302e-05 0.0930962)
(-2.67011e-06 -1.46818e-05 0.109889)
(6.72096e-07 -2.7262e-05 0.0986024)
(-3.08367e-06 8.80866e-06 0.0930321)
(2.65095e-06 -1.4633e-05 0.109894)
(6.18388e-06 -1.13959e-05 0.107479)
(4.09917e-07 8.01385e-06 0.0985411)
(7.72382e-06 -2.03381e-05 0.0930967)
(2.66748e-06 -1.46878e-05 0.109889)
(-2.66197e-07 5.01633e-06 0.0914226)
(5.60254e-07 7.22908e-06 0.0822765)
(2.36054e-07 5.01627e-06 0.0914227)
(-5.4588e-07 7.19762e-06 0.0822762)
(-4.41969e-07 7.99561e-06 0.0985518)
(-6.22097e-06 -1.14043e-05 0.107478)
(3.0742e-06 8.83179e-06 0.0930469)
(-2.68849e-06 -1.4748e-05 0.109885)
(4.11336e-07 7.99791e-06 0.098552)
(6.2097e-06 -1.14189e-05 0.107477)
(-3.07513e-06 8.82483e-06 0.0930466)
(2.68119e-06 -1.47538e-05 0.109885)
(-3.46116e-06 3.60501e-06 0.0875801)
(-3.65586e-06 3.43028e-06 0.0875822)
(4.14828e-05 -4.15006e-05 0.104321)
(6.92333e-06 -9.7928e-06 0.0876389)
(9.80884e-06 -6.98115e-06 0.08764)
(-4.37324e-06 2.51986e-06 0.0715729)
(5.81255e-06 -3.42496e-06 0.0716343)
(-2.46293e-06 4.32805e-06 0.071586)
(-2.37437e-05 2.36923e-05 0.104208)
(-3.44682e-06 3.63202e-06 0.0875959)
(-3.67929e-06 3.4196e-06 0.0875981)
(-4.3845e-06 2.4982e-06 0.0715878)
(-2.72682e-05 -6.85985e-07 0.0986026)
(8.81343e-06 3.09884e-06 0.093033)
(-1.46332e-05 -2.65746e-06 0.109894)
(-1.1412e-05 -6.21083e-06 0.107481)
(8.02072e-06 -4.27625e-07 0.0985409)
(-2.03658e-05 -7.7868e-06 0.0930962)
(-1.46909e-05 -2.67081e-06 0.109889)
(-1.65464e-05 3.00583e-07 0.0914583)
(7.1937e-06 -6.04444e-07 0.0822606)
(5.02147e-06 2.48252e-07 0.0914069)
(-1.19683e-05 1.25918e-06 0.0823195)
(-2.72642e-05 7.05304e-07 0.0986025)
(-1.46262e-05 2.65212e-06 0.109893)
(8.79137e-06 -3.10322e-06 0.0930327)
(-1.13802e-05 6.20061e-06 0.107478)
(8.02297e-06 4.11449e-07 0.0985408)
(-1.46821e-05 2.66817e-06 0.109888)
(-2.03225e-05 7.78731e-06 0.0930952)
(5.02361e-06 -2.50408e-07 0.0914226)
(7.21795e-06 5.80595e-07 0.0822773)
(8.00588e-06 -4.28765e-07 0.0985518)
(-1.14362e-05 -6.23482e-06 0.107479)
(8.83389e-06 3.08957e-06 0.0930475)
(-1.47567e-05 -2.68619e-06 0.109885)
(5.02475e-06 2.48951e-07 0.0914226)
(7.2142e-06 -5.87664e-07 0.0822772)
(8.01039e-06 4.15454e-07 0.0985517)
(-1.14021e-05 6.22304e-06 0.107476)
(-1.47478e-05 2.68343e-06 0.109884)
(8.80996e-06 -3.09732e-06 0.0930472)
(1.64938e-05 -2.42195e-07 0.0914591)
(-7.19491e-06 6.20981e-07 0.0822604)
(-4.97532e-06 -3.1368e-07 0.0914065)
(1.1971e-05 -1.28844e-06 0.0823203)
(2.72277e-05 7.07387e-07 0.0986025)
(1.46285e-05 2.63474e-06 0.109893)
(-8.79243e-06 -3.10735e-06 0.093033)
(1.1398e-05 6.19467e-06 0.107479)
(-7.99111e-06 4.01202e-07 0.0985413)
(1.46891e-05 2.65402e-06 0.109888)
(2.03265e-05 7.76842e-06 0.0930966)
(1.65165e-05 3.20957e-07 0.0914584)
(-7.19794e-06 -6.01971e-07 0.0822606)
(-4.99949e-06 2.08295e-07 0.091407)
(1.19844e-05 1.23485e-06 0.0823199)
(-7.95463e-06 -4.5792e-07 0.0985523)
(1.14368e-05 -6.2532e-06 0.10748)
(-8.83154e-06 3.07801e-06 0.0930478)
(1.4764e-05 -2.69695e-06 0.109885)
(-4.97673e-06 -3.10392e-07 0.0914222)
(-7.20838e-06 6.04888e-07 0.082277)
(-7.96817e-06 4.04047e-07 0.0985523)
(1.14188e-05 6.22109e-06 0.107477)
(1.47575e-05 2.67358e-06 0.109884)
(-8.80859e-06 -3.09848e-06 0.0930474)
(-4.99903e-06 2.09182e-07 0.0914227)
(-7.21281e-06 -5.8293e-07 0.0822772)
(3.61898e-06 -3.44804e-06 0.0875807)
(3.41807e-06 -3.61316e-06 0.0875821)
(-4.14886e-05 4.15028e-05 0.10432)
(-9.79189e-06 6.94336e-06 0.0876367)
(-6.93242e-06 9.78579e-06 0.0876396)
(2.51376e-06 -4.37017e-06 0.0715731)
(-3.39399e-06 5.82493e-06 0.071634)
(4.36415e-06 -2.50801e-06 0.0715881)
(2.37244e-05 -2.37454e-05 0.104207)
(3.64568e-06 -3.43688e-06 0.0875966)
(3.40664e-06 -3.63895e-06 0.087598)
(2.48973e-06 -4.38388e-06 0.071588)
(6.90317e-07 2.72109e-05 0.0986028)
(2.65553e-06 1.4649e-05 0.109893)
(-3.09614e-06 -8.80246e-06 0.0930333)
(6.22152e-06 1.14148e-05 0.10748)
(4.33532e-07 -7.97734e-06 0.0985411)
(2.67279e-06 1.47031e-05 0.109888)
(7.79544e-06 2.03564e-05 0.0930966)
(-3.33692e-07 1.64977e-05 0.0914588)
(5.89757e-07 -7.19968e-06 0.0822609)
(-2.02217e-07 -4.98099e-06 0.0914063)
(-1.23715e-06 1.19881e-05 0.0823199)
(2.83909e-07 1.64728e-05 0.0914594)
(-6.05376e-07 -7.19139e-06 0.0822612)
(2.64413e-07 -4.96051e-06 0.0914059)
(1.26188e-06 1.19816e-05 0.0823204)
(-4.04138e-07 -7.9721e-06 0.0985519)
(-6.2355e-06 1.14372e-05 0.107479)
(-2.67951e-06 1.47654e-05 0.109884)
(3.07034e-06 -8.81871e-06 0.093048)
(4.34109e-07 -7.96173e-06 0.0985521)
(6.2431e-06 1.14365e-05 0.107478)
(2.68921e-06 1.47673e-05 0.109884)
(-3.08833e-06 -8.8233e-06 0.0930479)
(-1.99307e-07 -4.9856e-06 0.091422)
(5.70691e-07 -7.21372e-06 0.0822775)
(2.64068e-07 -4.96435e-06 0.0914216)
(-5.87868e-07 -7.21013e-06 0.0822778)
(-4.3685e-06 -2.52635e-06 0.0715732)
(5.82667e-06 3.38761e-06 0.0716343)
(-2.53268e-06 -4.35829e-06 0.0715734)
(3.42126e-06 5.80783e-06 0.0716342)
(-2.37331e-05 -2.37308e-05 0.104207)
(-3.66171e-06 -3.44049e-06 0.0875977)
(-3.43178e-06 -3.65833e-06 0.0875968)
(-4.37821e-06 -2.50136e-06 0.0715882)
(-2.50643e-06 -4.37191e-06 0.0715884)
(-9.26461e-07 4.92595e-06 0.0684131)
(-1.40076e-06 -1.22913e-05 0.0858852)
(6.0746e-07 7.19208e-06 0.0822348)
(-7.89421e-07 5.88043e-06 0.0858291)
(1.49061e-07 -6.07709e-06 0.0684739)
(7.17408e-06 6.2552e-07 0.0822356)
(-7.64679e-07 4.26064e-06 0.0769182)
(-2.67977e-07 5.01089e-06 0.0914147)
(1.24201e-07 -7.40363e-06 0.0787361)
(-1.16789e-06 -1.59363e-05 0.0899817)
(-2.0095e-07 3.86901e-06 0.0786959)
(-5.93906e-07 5.53096e-06 0.0899323)
(4.90756e-07 -7.41605e-06 0.0769647)
(1.15141e-07 -6.04764e-06 0.0684961)
(-8.14914e-07 5.90826e-06 0.0858544)
(-1.23329e-06 -1.20013e-05 0.082311)
(-9.67281e-07 4.93043e-06 0.0684355)
(-1.41697e-06 -1.22346e-05 0.0859103)
(4.95981e-07 -7.42289e-06 0.0769565)
(-3.08217e-07 -1.65586e-05 0.0914504)
(-2.01002e-07 3.86808e-06 0.0786875)
(-5.89804e-07 5.52869e-06 0.0899242)
(-7.57206e-07 4.26065e-06 0.0769099)
(1.22707e-07 -7.41495e-06 0.0787278)
(-1.16614e-06 -1.59518e-05 0.0899737)
(-9.80214e-07 4.93296e-06 0.0684429)
(-1.42215e-06 -1.22152e-05 0.0859187)
(5.70284e-07 7.22134e-06 0.0822682)
(-8.22146e-07 5.91968e-06 0.0858628)
(1.0473e-07 -6.03937e-06 0.0685035)
(3.32186e-06 -5.79806e-06 0.0716284)
(-2.47603e-06 4.32134e-06 0.0715785)
(4.26712e-06 -7.44854e-07 0.0769186)
(5.02189e-06 -2.5098e-07 0.0914148)
(-1.59435e-05 -1.14716e-06 0.089982)
(-7.40875e-06 1.46378e-07 0.0787363)
(5.53955e-06 -5.70671e-07 0.0899325)
(3.87325e-06 -1.8758e-07 0.0786961)
(-7.42007e-06 5.10069e-07 0.0769652)
(-6.05288e-06 1.29779e-07 0.0684968)
(5.89673e-06 -7.89286e-07 0.0858548)
(-1.20038e-05 -1.23327e-06 0.0823116)
(4.92499e-06 -9.40854e-07 0.0684361)
(-1.22445e-05 -1.40308e-06 0.0859108)
(-7.4307e-06 5.14719e-07 0.076957)
(-1.65687e-05 -2.83171e-07 0.0914506)
(5.53854e-06 -5.66615e-07 0.0899245)
(3.872e-06 -1.88151e-07 0.0786877)
(4.26652e-06 -7.37077e-07 0.0769103)
(-1.59586e-05 -1.14598e-06 0.089974)
(-7.42086e-06 1.4539e-07 0.078728)
(4.92771e-06 -9.54957e-07 0.0684435)
(-1.22259e-05 -1.40911e-06 0.0859191)
(7.20653e-06 5.8908e-07 0.082269)
(5.90762e-06 -7.96872e-07 0.0858632)
(-6.04423e-06 1.18806e-07 0.0685042)
(-5.81562e-06 3.39361e-06 0.0716261)
(4.35697e-06 -2.52035e-06 0.0715807)
(-3.14094e-06 -3.17237e-06 0.0836478)
(3.5485e-06 5.12864e-06 0.0684074)
(5.13878e-06 3.53983e-06 0.0684011)
(-2.63815e-06 -4.07788e-06 0.0683518)
(-4.04771e-06 -2.66094e-06 0.0683458)
(7.19497e-06 7.18259e-06 0.0836934)
(1.66875e-05 1.02332e-05 0.0917483)
(-1.10436e-05 -5.53065e-06 0.0962971)
(-3.88812e-06 -2.99959e-06 0.0815857)
(9.8323e-06 6.94145e-06 0.0876316)
(-7.84077e-06 -3.82559e-06 0.0917007)
(2.39038e-05 1.41802e-05 0.096346)
(7.99901e-06 4.02986e-06 0.0816377)
(1.02699e-05 1.66899e-05 0.0917415)
(-5.53307e-06 -1.10422e-05 0.0962947)
(-2.99161e-06 -3.91503e-06 0.0815814)
(6.96808e-06 9.82116e-06 0.08763)
(-3.82518e-06 -7.86563e-06 0.0916945)
(1.4224e-05 2.38951e-05 0.0963434)
(4.06223e-06 8.00777e-06 0.0816321)
(7.20741e-06 7.19519e-06 0.0836859)
(-2.63572e-06 -4.08067e-06 0.0683452)
(-4.05118e-06 -2.65938e-06 0.0683392)
(-3.13472e-06 -3.16609e-06 0.0836404)
(3.5573e-06 5.13089e-06 0.0684007)
(5.14064e-06 3.54748e-06 0.0683945)
(-7.85496e-06 -3.83113e-06 0.0917077)
(7.98077e-06 4.03307e-06 0.0816453)
(-3.64792e-06 -3.44617e-06 0.0875898)
(2.38741e-05 1.41768e-05 0.0963519)
(-1.10591e-05 -5.52878e-06 0.096303)
(-3.90116e-06 -2.99056e-06 0.0815935)
(1.666e-05 1.02194e-05 0.0917553)
(-3.83017e-06 -7.87947e-06 0.0917015)
(4.0655e-06 7.9913e-06 0.0816398)
(-3.43787e-06 -3.64478e-06 0.0875889)
(1.42177e-05 2.38698e-05 0.0963494)
(-5.53405e-06 -1.10511e-05 0.0963007)
(-2.98518e-06 -3.92636e-06 0.0815891)
(1.02583e-05 1.66631e-05 0.0917485)
(2.54562e-06 4.36922e-06 0.0715498)
(4.34413e-06 2.56746e-06 0.0715499)
(3.154e-06 3.13923e-06 0.0836172)
(-5.13162e-06 -3.59412e-06 0.0683807)
(-3.58583e-06 -5.15335e-06 0.0683743)
(4.07724e-06 2.64701e-06 0.0683244)
(2.66381e-06 4.06379e-06 0.0683182)
(-7.23309e-06 -7.25074e-06 0.0836638)
(3.80592e-06 7.80969e-06 0.0916791)
(-3.99927e-06 -8.02054e-06 0.0816153)
(3.44558e-06 3.59049e-06 0.0875578)
(-1.41969e-05 -2.3956e-05 0.0963281)
(2.98475e-06 3.83642e-06 0.0815622)
(-1.02586e-05 -1.67487e-05 0.0917274)
(5.53913e-06 1.1028e-05 0.096279)
(7.81179e-06 3.80325e-06 0.0916727)
(-8.05204e-06 -4.02519e-06 0.0816093)
(3.60677e-06 3.46441e-06 0.0875567)
(-2.39755e-05 -1.42218e-05 0.0963257)
(3.88168e-06 2.98984e-06 0.0815572)
(-1.6749e-05 -1.0291e-05 0.0917209)
(1.10049e-05 5.53258e-06 0.0962764)
(2.51905e-06 4.38051e-06 0.071565)
(-3.35068e-06 -5.8745e-06 0.0716114)
(4.35584e-06 2.53853e-06 0.0715651)
(-5.85884e-06 -3.36493e-06 0.0716111)
(-7.22213e-06 -7.23961e-06 0.0836713)
(4.07481e-06 2.64875e-06 0.0683311)
(2.66366e-06 4.06186e-06 0.0683249)
(3.15574e-06 3.14298e-06 0.0836247)
(-5.12833e-06 -3.58592e-06 0.0683874)
(-3.57715e-06 -5.14945e-06 0.0683809)
(3.81245e-06 7.83246e-06 0.0916932)
(-1.41888e-05 -2.39002e-05 0.0963399)
(3.42735e-06 3.61293e-06 0.0875737)
(-4.0037e-06 -7.98575e-06 0.0816308)
(2.97184e-06 3.85902e-06 0.0815778)
(5.52398e-06 1.10414e-05 0.096291)
(-1.02335e-05 -1.66965e-05 0.0917415)
(7.83341e-06 3.80989e-06 0.0916868)
(-2.39227e-05 -1.42132e-05 0.0963375)
(3.63031e-06 3.44685e-06 0.0875726)
(-8.0244e-06 -4.03518e-06 0.0816248)
(3.90092e-06 2.97463e-06 0.0815728)
(1.10193e-05 5.52602e-06 0.0962883)
(-1.66968e-05 -1.02682e-05 0.091735)
(-1.02489e-05 -1.67248e-05 0.0917345)
(2.97822e-06 3.84706e-06 0.08157)
(5.5269e-06 1.10345e-05 0.096285)
(-6.91902e-06 -9.84824e-06 0.0876162)
(3.80672e-06 7.82052e-06 0.0916861)
(-4.00322e-06 -8.0064e-06 0.0816231)
(-1.4193e-05 -2.39341e-05 0.096334)
(-1.67254e-05 -1.02807e-05 0.0917279)
(3.89297e-06 2.9844e-06 0.081565)
(1.10111e-05 5.5293e-06 0.0962824)
(-9.88033e-06 -6.94615e-06 0.087614)
(7.82074e-06 3.80711e-06 0.0916797)
(-8.04465e-06 -4.03451e-06 0.0816171)
(-2.39517e-05 -1.42181e-05 0.0963316)
(3.16299e-06 3.1482e-06 0.0836322)
(-5.12617e-06 -3.57829e-06 0.068394)
(-3.56893e-06 -5.14777e-06 0.0683876)
(4.07172e-06 2.65105e-06 0.0683378)
(2.66754e-06 4.05846e-06 0.0683316)
(-7.20994e-06 -7.22865e-06 0.0836788)
(5.08928e-07 -7.43653e-06 0.07694)
(-1.995e-07 3.86663e-06 0.0786706)
(-5.79721e-07 5.52521e-06 0.089908)
(-3.09364e-07 -1.65886e-05 0.0914348)
(-7.40922e-07 4.25914e-06 0.0768933)
(1.22998e-07 -7.42947e-06 0.078711)
(-1.16095e-06 -1.59825e-05 0.0899576)
(-9.53719e-07 4.92872e-06 0.068428)
(5.88372e-07 7.20498e-06 0.0822516)
(-1.41197e-06 -1.22548e-05 0.085902)
(1.25747e-07 -6.05807e-06 0.0684888)
(-8.0702e-07 5.89637e-06 0.0858459)
(1.37802e-07 -6.06693e-06 0.0684813)
(-7.98452e-07 5.88636e-06 0.0858375)
(-1.21951e-06 -1.20369e-05 0.0822943)
(-9.40116e-07 4.92621e-06 0.0684206)
(-1.4057e-06 -1.22747e-05 0.0858936)
(-7.48818e-07 4.26058e-06 0.0769016)
(-2.69497e-07 5.00499e-06 0.0913991)
(1.23201e-07 -7.41992e-06 0.0787194)
(-1.16422e-06 -1.59673e-05 0.0899656)
(5.00939e-07 -7.43501e-06 0.0769483)
(-1.99729e-07 3.86926e-06 0.0786791)
(-5.85585e-07 5.52388e-06 0.0899161)
(-5.3441e-07 -7.44085e-06 0.0769398)
(1.77466e-07 3.86566e-06 0.0786707)
(5.47926e-07 5.52344e-06 0.0899086)
(2.77194e-07 -1.65923e-05 0.0914349)
(7.16008e-07 4.24956e-06 0.0768934)
(-1.48408e-07 -7.43092e-06 0.078711)
(1.125e-06 -1.59876e-05 0.0899576)
(9.43485e-07 4.92109e-06 0.0684308)
(-5.72014e-07 7.17064e-06 0.0822512)
(1.35738e-06 -1.22686e-05 0.0859027)
(8.06466e-07 5.893e-06 0.0858473)
(-1.6041e-07 -6.06082e-06 0.0684912)
(-1.74503e-07 -6.06824e-06 0.0684838)
(7.97518e-07 5.88177e-06 0.0858388)
(1.1672e-06 -1.20237e-05 0.0822955)
(9.27455e-07 4.92115e-06 0.0684233)
(1.35156e-06 -1.22842e-05 0.0858943)
(7.26638e-07 4.25217e-06 0.0769017)
(2.37608e-07 5.00471e-06 0.0913992)
(-1.47279e-07 -7.42396e-06 0.0787195)
(1.12889e-06 -1.59763e-05 0.0899657)
(1.79789e-07 3.86727e-06 0.0786792)
(5.55246e-07 5.52304e-06 0.0899167)
(-5.26714e-07 -7.42816e-06 0.0769481)
(-2.50013e-06 4.30832e-06 0.0715635)
(3.30034e-06 -5.82317e-06 0.0716134)
(-3.86034e-06 7.84591e-06 0.0916871)
(1.41907e-05 -2.3936e-05 0.0963377)
(-3.47083e-06 3.5879e-06 0.0875721)
(4.05311e-06 -8.04543e-06 0.0816248)
(-5.57953e-06 1.10323e-05 0.0962886)
(-3.05156e-06 3.88148e-06 0.0815732)
(1.0261e-05 -1.67313e-05 0.0917349)
(-7.86373e-06 3.79757e-06 0.0916936)
(2.39108e-05 -1.42354e-05 0.0963408)
(-3.63223e-06 3.43581e-06 0.0875744)
(8.01344e-06 -4.0579e-06 0.0816305)
(-3.92131e-06 2.97971e-06 0.0815784)
(-1.10412e-05 5.50421e-06 0.0962914)
(1.66932e-05 -1.02745e-05 0.091742)
(-5.57141e-06 1.10376e-05 0.0962826)
(6.91356e-06 -9.84668e-06 0.0876152)
(1.42046e-05 -2.39408e-05 0.0963318)
(-3.15355e-06 3.13634e-06 0.0836323)
(5.11937e-06 -3.5759e-06 0.0683884)
(3.54667e-06 -5.15061e-06 0.0683938)
(-4.08181e-06 2.64206e-06 0.0683322)
(-2.66056e-06 4.05564e-06 0.0683375)
(7.19488e-06 -7.23053e-06 0.0836792)
(-4.35667e-06 2.52758e-06 0.0715654)
(-7.46091e-06 5.24308e-07 0.0769405)
(5.53142e-06 -5.56343e-07 0.0899083)
(3.86896e-06 -1.89055e-07 0.0786708)
(-1.65938e-05 -2.84412e-07 0.091435)
(4.2687e-06 -7.20872e-07 0.0768937)
(-1.59856e-05 -1.13966e-06 0.0899579)
(-7.43104e-06 1.47012e-07 0.0787112)
(4.92457e-06 -9.26583e-07 0.0684287)
(7.18933e-06 6.06648e-07 0.0822523)
(-1.2266e-05 -1.39828e-06 0.0859024)
(-6.06318e-06 1.42491e-07 0.0684894)
(5.88774e-06 -7.80691e-07 0.0858464)
(-6.07061e-06 1.52592e-07 0.068482)
(5.8754e-06 -7.72095e-07 0.0858379)
(-1.20341e-05 -1.21751e-06 0.082295)
(4.92166e-06 -9.11116e-07 0.0684213)
(-1.22813e-05 -1.39034e-06 0.085894)
(4.26864e-06 -7.28045e-07 0.0769021)
(5.01838e-06 -2.53549e-07 0.0913991)
(-1.5973e-05 -1.14348e-06 0.089966)
(-7.42481e-06 1.43014e-07 0.0787196)
(-7.43234e-06 5.21275e-07 0.0769488)
(5.53548e-06 -5.62046e-07 0.0899164)
(3.87433e-06 -1.87157e-07 0.0786792)
(-7.43878e-06 -5.00047e-07 0.0769399)
(3.87019e-06 1.84641e-07 0.0786707)
(5.51561e-06 5.4886e-07 0.0899084)
(-1.65901e-05 3.06024e-07 0.0914349)
(4.26281e-06 7.18289e-07 0.0768932)
(-7.42925e-06 -1.19423e-07 0.0787111)
(-1.59753e-05 1.16268e-06 0.0899575)
(4.91416e-06 9.32206e-07 0.0684306)
(7.1868e-06 -6.11338e-07 0.0822522)
(-1.22419e-05 1.41996e-06 0.0859025)
(5.87772e-06 7.83545e-07 0.0858472)
(-6.04801e-06 -1.10326e-07 0.0684911)
(-6.05473e-06 -1.27203e-07 0.0684837)
(5.86572e-06 7.76551e-07 0.0858388)
(-1.20121e-05 1.2337e-06 0.0822946)
(4.91083e-06 9.19828e-07 0.0684232)
(-1.22572e-05 1.41189e-06 0.0858941)
(4.25766e-06 7.2709e-07 0.0769015)
(5.01994e-06 2.45983e-07 0.0913991)
(-7.42441e-06 -1.24079e-07 0.0787195)
(-1.59611e-05 1.1655e-06 0.0899656)
(3.87354e-06 1.85487e-07 0.0786791)
(5.52147e-06 5.55012e-07 0.0899165)
(-7.42996e-06 -4.93191e-07 0.0769481)
(-4.86913e-06 -9.67289e-07 0.068426)
(-7.18507e-06 6.24977e-07 0.0822521)
(1.22121e-05 -1.41845e-06 0.0859038)
(-5.85721e-06 -7.83794e-07 0.0858454)
(6.00849e-06 1.58922e-07 0.0684916)
(-4.18597e-06 -7.7149e-07 0.0768987)
(-4.97309e-06 -3.1391e-07 0.0913987)
(1.5889e-05 -1.13121e-06 0.0899673)
(7.37995e-06 1.77774e-07 0.0787204)
(-5.46306e-06 -5.97256e-07 0.0899152)
(-3.83074e-06 -2.45838e-07 0.0786775)
(7.36519e-06 5.36824e-07 0.0769507)
(-4.91769e-06 9.20382e-07 0.068431)
(-7.19219e-06 -6.10254e-07 0.0822523)
(1.22543e-05 1.3974e-06 0.0859031)
(-5.88603e-06 7.72898e-07 0.0858472)
(6.05638e-06 -1.37988e-07 0.0684917)
(-4.25557e-06 7.09916e-07 0.0769014)
(-5.00073e-06 2.06523e-07 0.0913992)
(7.41105e-06 -1.13169e-07 0.0787195)
(1.59522e-05 1.15317e-06 0.0899659)
(-3.86496e-06 1.50604e-07 0.0786788)
(-5.51648e-06 5.42177e-07 0.0899165)
(7.44078e-06 -5.06625e-07 0.0769481)
(4.34624e-06 -2.54396e-06 0.0715657)
(-5.83996e-06 3.37171e-06 0.0716111)
(-7.2305e-06 7.20845e-06 0.0836714)
(2.64656e-06 -4.06139e-06 0.0683262)
(4.06348e-06 -2.64844e-06 0.0683317)
(3.13827e-06 -3.13198e-06 0.0836252)
(-3.58643e-06 5.11884e-06 0.0683817)
(-5.13901e-06 3.571e-06 0.0683874)
(7.85142e-06 -3.81467e-06 0.0916871)
(-2.3933e-05 1.41874e-05 0.0963363)
(3.60925e-06 -3.45451e-06 0.0875728)
(-8.03637e-06 4.02707e-06 0.0816239)
(1.10658e-05 -5.52786e-06 0.0962886)
(3.89186e-06 -2.99798e-06 0.0815734)
(-1.67164e-05 1.02385e-05 0.0917341)
(3.81031e-06 -7.84475e-06 0.0916938)
(-1.42196e-05 2.39194e-05 0.09634)
(3.42744e-06 -3.60787e-06 0.0875743)
(-4.02957e-06 8.00536e-06 0.0816302)
(2.98126e-06 -3.87538e-06 0.0815785)
(5.52042e-06 -1.10311e-05 0.0962913)
(-1.0268e-05 1.67139e-05 0.0917412)
(-1.67404e-05 1.02495e-05 0.0917271)
(3.88547e-06 -3.00763e-06 0.0815657)
(1.10593e-05 -5.53414e-06 0.0962825)
(-9.84713e-06 6.93192e-06 0.087613)
(-2.39582e-05 1.41987e-05 0.0963304)
(7.83979e-06 -3.81063e-06 0.0916801)
(-8.05251e-06 4.02343e-06 0.0816162)
(-1.02788e-05 1.6737e-05 0.0917342)
(2.99539e-06 -3.87494e-06 0.0815708)
(5.52772e-06 -1.1026e-05 0.0962854)
(-6.92873e-06 9.85024e-06 0.0876158)
(3.80777e-06 -7.83293e-06 0.0916868)
(-4.0325e-06 8.02688e-06 0.0816224)
(-1.42253e-05 2.39429e-05 0.0963341)
(3.14457e-06 -3.13921e-06 0.0836327)
(-3.57808e-06 5.11543e-06 0.0683883)
(-5.13269e-06 3.5622e-06 0.0683941)
(2.65014e-06 -4.06031e-06 0.0683329)
(4.06083e-06 -2.65215e-06 0.0683383)
(-7.21883e-06 7.19708e-06 0.0836789)
(2.52749e-06 -4.36386e-06 0.0715655)
(-3.35991e-06 5.86645e-06 0.0716116)
(4.88632e-07 7.41125e-06 0.0769403)
(-5.1598e-07 -5.51556e-06 0.0899085)
(-1.53596e-07 -3.83094e-06 0.0786689)
(-3.38189e-07 1.65422e-05 0.0914354)
(-6.8614e-07 -4.2473e-06 0.0768934)
(-1.18254e-06 1.59637e-05 0.0899575)
(9.69854e-08 7.38506e-06 0.0787118)
(-9.13639e-07 -4.90921e-06 0.0684297)
(5.96175e-07 -7.18653e-06 0.0822525)
(-1.40223e-06 1.22457e-05 0.0859021)
(-7.80106e-07 -5.87303e-06 0.0858471)
(1.29081e-07 6.04471e-06 0.0684899)
(1.42144e-07 6.05543e-06 0.0684825)
(-7.72002e-07 -5.86823e-06 0.0858387)
(-1.21447e-06 1.2035e-05 0.0822949)
(-9.01461e-07 -4.90945e-06 0.0684222)
(-1.39793e-06 1.22658e-05 0.0858937)
(-6.92827e-07 -4.24494e-06 0.0769017)
(-2.01662e-07 -4.9812e-06 0.0913985)
(-1.18469e-06 1.59497e-05 0.0899656)
(1.00697e-07 7.38051e-06 0.0787202)
(-5.19844e-07 -5.51409e-06 0.0899166)
(-1.53494e-07 -3.83406e-06 0.0786774)
(4.80259e-07 7.42704e-06 0.0769485)
(-5.09802e-07 7.39669e-06 0.076941)
(5.19346e-07 -5.49852e-06 0.0899077)
(2.00236e-07 -3.79942e-06 0.0786677)
(2.82871e-07 1.65202e-05 0.0914361)
(7.02529e-07 -4.23019e-06 0.0768913)
(1.17345e-06 1.59405e-05 0.0899587)
(-1.46781e-07 7.3555e-06 0.0787126)
(9.03224e-07 -4.92009e-06 0.0684307)
(-6.12757e-07 -7.18263e-06 0.0822528)
(1.42779e-06 1.22525e-05 0.0859036)
(7.53802e-07 -5.87456e-06 0.0858474)
(-1.17669e-07 6.05603e-06 0.0684919)
(-1.32003e-07 6.06618e-06 0.0684845)
(7.45159e-07 -5.86756e-06 0.085839)
(1.24017e-06 1.20285e-05 0.0822955)
(8.88577e-07 -4.91894e-06 0.0684233)
(1.42251e-06 1.22706e-05 0.0858952)
(7.11706e-07 -4.22752e-06 0.0768996)
(2.61512e-07 -4.95949e-06 0.0913981)
(1.17766e-06 1.59271e-05 0.0899668)
(-1.47717e-07 7.35043e-06 0.078721)
(5.2553e-07 -5.49939e-06 0.0899158)
(2.02058e-07 -3.80263e-06 0.0786762)
(-4.98676e-07 7.41229e-06 0.0769493)
(7.2222e-06 7.22343e-06 0.083671)
(3.57224e-06 5.13889e-06 0.0683875)
(5.1422e-06 3.56184e-06 0.0683812)
(-7.83067e-06 -3.8162e-06 0.0916937)
(2.3935e-05 1.41865e-05 0.09634)
(-3.61826e-06 -3.46166e-06 0.0875741)
(8.0167e-06 4.02708e-06 0.0816299)
(1.6715e-05 1.02475e-05 0.0917412)
(-1.10335e-05 -5.53592e-06 0.0962912)
(-3.87281e-06 -3.00487e-06 0.081578)
(-3.82688e-06 -7.85536e-06 0.0916874)
(1.42327e-05 2.39198e-05 0.0963375)
(-3.44943e-06 -3.6235e-06 0.0875731)
(4.05744e-06 8.02235e-06 0.0816244)
(1.02813e-05 1.67169e-05 0.0917345)
(-5.52976e-06 -1.10432e-05 0.0962887)
(-2.99996e-06 -3.90798e-06 0.0815737)
(1.67312e-05 1.02595e-05 0.0917342)
(9.87116e-06 6.93878e-06 0.0876157)
(2.39538e-05 1.41895e-05 0.0963341)
(8.03681e-06 4.02426e-06 0.0816222)
(1.02863e-05 1.67366e-05 0.0917275)
(-5.52972e-06 -1.10315e-05 0.0962827)
(6.96558e-06 9.8515e-06 0.0876141)
(1.4245e-05 2.39339e-05 0.0963315)
(4.05581e-06 8.03298e-06 0.0816166)
(-3.12974e-06 -3.15401e-06 0.0836329)
(3.56411e-06 5.13333e-06 0.0683941)
(5.14043e-06 3.55361e-06 0.0683878)
(7.21745e-06 7.20797e-06 0.0836785)
(-2.63137e-06 -4.08191e-06 0.0683385)
(-4.05659e-06 -2.65669e-06 0.0683325)
(-4.36386e-06 -2.53651e-06 0.0715657)
(5.86199e-06 3.36039e-06 0.0716119)
(-2.54374e-06 -4.35312e-06 0.0715659)
(3.38841e-06 5.84566e-06 0.0716118)
(-3.37365e-06 -5.84814e-06 0.0716264)
(2.49267e-06 4.39294e-06 0.07158)
(-5.83182e-06 -3.38696e-06 0.0716261)
(4.36878e-06 2.51332e-06 0.0715801)
(3.17332e-06 3.1592e-06 0.0836472)
(-5.12133e-06 -3.56236e-06 0.0684073)
(-3.55278e-06 -5.14291e-06 0.0684008)
(4.06601e-06 2.65621e-06 0.0683511)
(2.67276e-06 4.05272e-06 0.0683449)
(-7.18771e-06 -7.20602e-06 0.0836937)
(-1.02223e-05 -1.66713e-05 0.0917485)
(5.52482e-06 1.10511e-05 0.096297)
(2.96613e-06 3.86974e-06 0.0815855)
(-6.92372e-06 -9.80704e-06 0.087632)