/*--------------------------------*- C++ -*----------------------------------*\
| =========                 |                                                 |
| \\      /  F ield         | OpenFOAM: The Open Source CFD Toolbox           |
|  \\    /   O peration     | Version:  2312                                  |
|   \\  /    A nd           | Website:  www.openfoam.com                      |
|    \\/     M anipulation  |                                                 |
\*---------------------------------------------------------------------------*/
FoamFile
{
    version     2.0;
    format      ascii;
    arch        "LSB;label=32;scalar=64";
    class       volScalarField;
    location    "150";
    object      nut;
}
// * * * * * * * * * * * * * * * * * * * * * * * * * * * * * * * * * * * * * //

dimensions      [0 2 -1 0 0 0 0];

internalField   nonuniform List<scalar> 
172512
(
0.000109488
9.65593e-05
9.64155e-05
9.70783e-05
9.70513e-05
9.65167e-05
9.64993e-05
9.66844e-05
9.63331e-05
9.64023e-05
9.65579e-05
9.64655e-05
9.6004e-05
9.64133e-05
9.64001e-05
9.70711e-05
9.71465e-05
9.65198e-05
9.65234e-05
9.67796e-05
9.63625e-05
9.63956e-05
9.64623e-05
9.60557e-05
9.63851e-05
4.95729e-05
8.1819e-05
4.95575e-05
0.000109481
0.000109531
0.000109491
0.000109481
2.34774e-05
9.64185e-05
8.08216e-05
8.1713e-05
4.95718e-05
8.18327e-05
4.95706e-05
2.34761e-05
2.34774e-05
8.17712e-05
4.95578e-05
8.17922e-05
4.95583e-05
0.000109536
0.000109486
0.00010948
9.21924e-05
8.10108e-05
0.000100146
9.65598e-05
9.20769e-05
8.08962e-05
0.00010015
2.34761e-05
2.34777e-05
9.23305e-05
9.99413e-05
8.08211e-05
9.63779e-05
9.22911e-05
9.99557e-05
8.08055e-05
6.78974e-05
6.78795e-05
9.70932e-05
6.79139e-05
6.78944e-05
2.34805e-05
2.3477e-05
9.65767e-05
6.7925e-05
6.78977e-05
2.34804e-05
2.34793e-05
2.34774e-05
2.34759e-05
9.68675e-05
6.78592e-05
6.79064e-05
6.79261e-05
6.79144e-05
9.65244e-05
8.0934e-05
8.19078e-05
4.95725e-05
4.95722e-05
8.18958e-05
8.18837e-05
4.95596e-05
4.95595e-05
8.1785e-05
9.34592e-05
9.65267e-05
8.08926e-05
0.00010035
8.0893e-05
0.000100353
9.32171e-05
9.3154e-05
9.64994e-05
8.08463e-05
0.000100311
8.09351e-05
0.000100309
9.31101e-05
2.34774e-05
2.34763e-05
9.65654e-05
6.78882e-05
6.7941e-05
6.78978e-05
2.34807e-05
9.23709e-05
9.62831e-05
8.08616e-05
0.000100013
8.18546e-05
4.95551e-05
9.26002e-05
9.64178e-05
0.000100026
8.09114e-05
8.17635e-05
4.95586e-05
4.95574e-05
8.18161e-05
9.22633e-05
9.63125e-05
8.08192e-05
9.9984e-05
8.08778e-05
9.99802e-05
9.25763e-05
8.18334e-05
4.95561e-05
4.95551e-05
8.18725e-05
9.27408e-05
9.63999e-05
0.000100044
8.08987e-05
0.00010003
8.08926e-05
9.26831e-05
8.09882e-05
0.000100132
9.21358e-05
4.95614e-05
8.16347e-05
0.00010014
8.08491e-05
9.25733e-05
4.95571e-05
8.17863e-05
9.63787e-05
6.79172e-05
6.7891e-05
2.34779e-05
2.34773e-05
2.34761e-05
9.58817e-05
6.79015e-05
6.78838e-05
6.78914e-05
6.78883e-05
2.3478e-05
2.34767e-05
4.95559e-05
9.20866e-05
9.64084e-05
9.99387e-05
8.08702e-05
9.99457e-05
8.07972e-05
9.23351e-05
9.21348e-05
9.64031e-05
9.99332e-05
8.07881e-05
9.99126e-05
8.07529e-05
9.2266e-05
8.16555e-05
4.95564e-05
4.95553e-05
8.16859e-05
8.16089e-05
4.95478e-05
4.95471e-05
8.16228e-05
9.71423e-05
6.7901e-05
6.78825e-05
6.78689e-05
2.34777e-05
2.3474e-05
2.34727e-05
2.34789e-05
2.34795e-05
2.34763e-05
2.34778e-05
6.78566e-05
6.79247e-05
9.71585e-05
6.78555e-05
6.79168e-05
2.34781e-05
2.34765e-05
9.72068e-05
6.78589e-05
6.79083e-05
8.17469e-05
4.95587e-05
8.1779e-05
4.95584e-05
9.33163e-05
8.08693e-05
0.000100336
9.65282e-05
9.34385e-05
8.08427e-05
0.000100329
9.31711e-05
8.08294e-05
0.000100307
9.65305e-05
9.31708e-05
8.08344e-05
0.000100301
8.16519e-05
4.95696e-05
8.17134e-05
4.95574e-05
9.3125e-05
9.65305e-05
8.08341e-05
0.000100312
9.32161e-05
9.65337e-05
8.07863e-05
0.000100282
6.78865e-05
6.79391e-05
9.68386e-05
6.7897e-05
6.79448e-05
2.34796e-05
2.34812e-05
2.34762e-05
9.69169e-05
6.78908e-05
6.79382e-05
2.34801e-05
9.23703e-05
8.07971e-05
9.99703e-05
9.63807e-05
9.25853e-05
8.08076e-05
9.99711e-05
8.18559e-05
4.95555e-05
8.18537e-05
4.95569e-05
9.27562e-05
0.000100025
8.0853e-05
9.63949e-05
9.28042e-05
0.000100031
8.09562e-05
8.17801e-05
4.95579e-05
9.23697e-05
9.6385e-05
8.07696e-05
9.99749e-05
8.18374e-05
4.95566e-05
9.28817e-05
9.63958e-05
0.000100013
8.09104e-05
8.16865e-05
4.9561e-05
8.1629e-05
4.95616e-05
9.25591e-05
0.00010012
8.09157e-05
9.6477e-05
9.25905e-05
0.000100126
8.0959e-05
8.1769e-05
4.95567e-05
8.17377e-05
4.95576e-05
9.21974e-05
9.65902e-05
8.09144e-05
0.00010017
8.16552e-05
4.95608e-05
9.24248e-05
9.64713e-05
0.000100116
8.09032e-05
8.17433e-05
4.95568e-05
6.78945e-05
6.78845e-05
9.62903e-05
6.78958e-05
6.79149e-05
2.34768e-05
2.34784e-05
2.34765e-05
9.63314e-05
6.78911e-05
6.79123e-05
2.34774e-05
9.2085e-05
9.99655e-05
8.08056e-05
9.63868e-05
9.22898e-05
9.99666e-05
8.08186e-05
8.16642e-05
4.95559e-05
8.16378e-05
4.95571e-05
8.16644e-05
4.95473e-05
8.16489e-05
4.95482e-05
9.21815e-05
9.64006e-05
9.99742e-05
8.08436e-05
9.22202e-05
9.63788e-05
9.99663e-05
8.07924e-05
8.16619e-05
4.95568e-05
8.16573e-05
4.95477e-05
2.34764e-05
2.34777e-05
2.34727e-05
2.34742e-05
9.70843e-05
6.79187e-05
6.78913e-05
2.34765e-05
2.3473e-05
2.00499e-05
7.25528e-05
4.95723e-05
7.25393e-05
2.00515e-05
3.60637e-05
8.18194e-05
8.01366e-05
4.02779e-05
8.01044e-05
4.02767e-05
3.60651e-05
2.00428e-05
7.2518e-05
4.95564e-05
7.25029e-05
2.00447e-05
2.34761e-05
3.60832e-05
8.17362e-05
4.02976e-05
8.02074e-05
4.02981e-05
8.01951e-05
3.60835e-05
2.00502e-05
7.25169e-05
4.95719e-05
2.00486e-05
7.25302e-05
3.60849e-05
8.18152e-05
4.03007e-05
8.02093e-05
3.60846e-05
4.03001e-05
8.0223e-05
2.00482e-05
7.25264e-05
4.95697e-05
7.25129e-05
2.00497e-05
2.34774e-05
2.3476e-05
3.60668e-05
8.17483e-05
8.02066e-05
4.02795e-05
8.01906e-05
4.02786e-05
3.60681e-05
2.00448e-05
7.25025e-05
4.95581e-05
2.00431e-05
7.25165e-05
3.60675e-05
8.18038e-05
8.01801e-05
4.02786e-05
3.60661e-05
8.02017e-05
4.02795e-05
2.00431e-05
7.25164e-05
4.95577e-05
7.2502e-05
2.00449e-05
2.34774e-05
2.34763e-05
7.51106e-05
2.14081e-05
2.14044e-05
2.14063e-05
2.14027e-05
7.51209e-05
8.6291e-05
9.21033e-05
4.73657e-05
6.79067e-05
8.62837e-05
9.20585e-05
4.73666e-05
8.63266e-05
9.21398e-05
4.73525e-05
6.78911e-05
8.62545e-05
9.21728e-05
4.73535e-05
7.5119e-05
2.14063e-05
2.14026e-05
7.51075e-05
2.1408e-05
2.14043e-05
8.62884e-05
4.73667e-05
6.79047e-05
9.22099e-05
9.21582e-05
4.73657e-05
8.62988e-05
8.63189e-05
4.73539e-05
6.78858e-05
9.2056e-05
9.21538e-05
4.73528e-05
8.63526e-05
2.34792e-05
2.34757e-05
7.51311e-05
2.14095e-05
2.14066e-05
2.14077e-05
2.14048e-05
7.51432e-05
8.62898e-05
4.73711e-05
6.79044e-05
9.20835e-05
4.737e-05
8.63153e-05
9.21557e-05
8.63325e-05
4.736e-05
6.79015e-05
9.21261e-05
4.73588e-05
8.63605e-05
9.20965e-05
2.34793e-05
2.34807e-05
2.34761e-05
2.34773e-05
7.51365e-05
2.14079e-05
2.1405e-05
7.51344e-05
2.14096e-05
2.14067e-05
8.6283e-05
9.21479e-05
6.78852e-05
4.73712e-05
4.73708e-05
9.20949e-05
8.62292e-05
8.63567e-05
9.23295e-05
6.79126e-05
4.73605e-05
4.73599e-05
9.22157e-05
8.63366e-05
8.63266e-05
4.73702e-05
9.21944e-05
6.79304e-05
8.62705e-05
4.73715e-05
9.22904e-05
8.6381e-05
4.73596e-05
9.23193e-05
6.79267e-05
8.63597e-05
4.73608e-05
9.2315e-05
7.5118e-05
2.14093e-05
2.14065e-05
2.14078e-05
2.14049e-05
7.5118e-05
3.60876e-05
4.03046e-05
8.02537e-05
8.1939e-05
3.60872e-05
4.03046e-05
8.02649e-05
2.00491e-05
4.95721e-05
7.2535e-05
2.00506e-05
7.25205e-05
2.0051e-05
7.25289e-05
4.95728e-05
2.00495e-05
7.25438e-05
3.6086e-05
8.1877e-05
4.03027e-05
8.02399e-05
3.60863e-05
4.03031e-05
8.02294e-05
3.60798e-05
4.03017e-05
8.02341e-05
8.19255e-05
3.60788e-05
4.03021e-05
8.0245e-05
2.00444e-05
4.95592e-05
7.2475e-05
7.24587e-05
2.00461e-05
2.00462e-05
7.24696e-05
4.95601e-05
2.00445e-05
7.24822e-05
3.60787e-05
8.18055e-05
4.03006e-05
8.02111e-05
4.03009e-05
8.01938e-05
3.60795e-05
2.34761e-05
2.34775e-05
8.63161e-05
9.21238e-05
6.78683e-05
4.73574e-05
9.21912e-05
4.73565e-05
8.63267e-05
8.63918e-05
9.23136e-05
6.79142e-05
4.73736e-05
4.73722e-05
9.23267e-05
8.64165e-05
9.22088e-05
6.78966e-05
9.21829e-05
7.51234e-05
2.14058e-05
2.14101e-05
2.14041e-05
2.14084e-05
7.51238e-05
2.34795e-05
3.60688e-05
8.18447e-05
4.02831e-05
8.01644e-05
4.02822e-05
8.01353e-05
3.60699e-05
2.00428e-05
7.24839e-05
4.95542e-05
7.24668e-05
2.00447e-05
3.60656e-05
8.01144e-05
4.02773e-05
8.18131e-05
3.60643e-05
8.01351e-05
4.02784e-05
2.00431e-05
4.95579e-05
7.25174e-05
2.00448e-05
7.25036e-05
2.00448e-05
7.25034e-05
4.95584e-05
2.0043e-05
7.25179e-05
3.60652e-05
8.17948e-05
8.01847e-05
4.02791e-05
3.60667e-05
8.01571e-05
4.0278e-05
3.60703e-05
4.02824e-05
8.01636e-05
8.18652e-05
3.6069e-05
4.02833e-05
8.01768e-05
2.00434e-05
4.95552e-05
7.24878e-05
7.24731e-05
2.00452e-05
2.0045e-05
7.24709e-05
4.95558e-05
2.00432e-05
7.24869e-05
3.60696e-05
8.18529e-05
4.02838e-05
8.01887e-05
4.02828e-05
8.01667e-05
3.60709e-05
2.0044e-05
4.9561e-05
7.24884e-05
7.24724e-05
2.00459e-05
3.60683e-05
8.1666e-05
8.01249e-05
4.02793e-05
8.01103e-05
4.02786e-05
3.60693e-05
2.00438e-05
4.95568e-05
7.24802e-05
7.2467e-05
2.00455e-05
3.60689e-05
8.17726e-05
4.02844e-05
8.01175e-05
4.02835e-05
8.00937e-05
3.607e-05
7.51283e-05
2.14071e-05
2.14102e-05
2.14054e-05
2.14085e-05
7.51297e-05
8.63509e-05
4.73614e-05
6.79282e-05
9.22164e-05
4.73609e-05
9.21771e-05
8.63229e-05
8.6269e-05
4.73702e-05
6.78917e-05
9.21026e-05
9.2259e-05
4.73695e-05
8.62353e-05
2.34766e-05
2.34761e-05
2.34774e-05
7.51349e-05
2.14055e-05
2.14086e-05
7.51253e-05
2.14073e-05
2.14104e-05
8.63646e-05
9.22162e-05
6.78903e-05
4.73613e-05
9.21478e-05
4.73603e-05
8.63881e-05
8.62889e-05
9.1985e-05
6.78928e-05
4.73699e-05
4.73694e-05
9.2022e-05
8.62812e-05
8.63363e-05
4.73605e-05
9.21679e-05
6.79013e-05
9.22786e-05
8.63543e-05
4.73611e-05
8.62928e-05
4.73692e-05
9.20716e-05
6.78982e-05
8.62417e-05
4.73701e-05
9.20295e-05
7.51266e-05
2.14073e-05
2.14103e-05
2.14056e-05
2.14086e-05
7.51358e-05
2.34768e-05
2.3478e-05
4.95551e-05
3.60666e-05
8.00967e-05
4.02731e-05
8.16772e-05
3.60656e-05
8.01128e-05
4.0274e-05
2.00432e-05
4.95555e-05
7.24808e-05
7.24666e-05
2.0045e-05
2.00449e-05
7.24668e-05
4.95557e-05
2.00431e-05
7.24812e-05
3.60657e-05
8.16667e-05
8.0115e-05
4.02741e-05
8.01e-05
4.02733e-05
3.60667e-05
3.60618e-05
8.00361e-05
4.0272e-05
8.16025e-05
3.60608e-05
8.00487e-05
4.02727e-05
2.00403e-05
4.9547e-05
7.24432e-05
7.24296e-05
2.0042e-05
2.0042e-05
7.24318e-05
4.95474e-05
2.00402e-05
7.24454e-05
3.60607e-05
8.16343e-05
8.00403e-05
4.02729e-05
8.00296e-05
4.02721e-05
3.60617e-05
7.51143e-05
2.1408e-05
2.14043e-05
8.62686e-05
9.21241e-05
6.78946e-05
4.73667e-05
8.62796e-05
9.20457e-05
4.73659e-05
8.629e-05
9.21202e-05
6.78722e-05
4.73539e-05
8.62944e-05
9.21252e-05
4.73532e-05
8.62744e-05
6.78828e-05
9.22203e-05
4.7367e-05
8.63021e-05
9.20817e-05
6.78625e-05
9.21018e-05
4.73544e-05
7.51049e-05
2.1408e-05
2.14043e-05
7.51157e-05
2.14063e-05
2.14026e-05
2.34764e-05
2.34777e-05
2.34727e-05
2.34739e-05
2.34799e-05
2.34784e-05
2.34777e-05
2.34766e-05
7.51112e-05
2.14088e-05
2.14062e-05
2.14072e-05
2.14045e-05
7.51219e-05
8.62336e-05
9.22571e-05
4.737e-05
6.78544e-05
8.62661e-05
4.73702e-05
9.2199e-05
8.63744e-05
9.23204e-05
4.73599e-05
6.79364e-05
8.63626e-05
4.73611e-05
9.23591e-05
7.51204e-05
2.14075e-05
2.14047e-05
7.51096e-05
2.1409e-05
2.14063e-05
8.6217e-05
4.7369e-05
6.78627e-05
9.21004e-05
4.73688e-05
8.62351e-05
9.20057e-05
8.63819e-05
4.73614e-05
6.79309e-05
9.22438e-05
4.73603e-05
8.63895e-05
9.23481e-05
2.34792e-05
2.34777e-05
7.51227e-05
2.1407e-05
2.14044e-05
7.51124e-05
2.14086e-05
2.14061e-05
8.62316e-05
4.73675e-05
9.21243e-05
6.78624e-05
8.6225e-05
4.73678e-05
9.2134e-05
8.64006e-05
4.73605e-05
9.2299e-05
6.79078e-05
8.63858e-05
4.73614e-05
9.22186e-05
3.60777e-05
8.17397e-05
4.02972e-05
8.01959e-05
4.0297e-05
8.01809e-05
3.60783e-05
2.00459e-05
7.24575e-05
4.9559e-05
2.00443e-05
7.24704e-05
3.6079e-05
8.18263e-05
4.02987e-05
8.01839e-05
4.02988e-05
3.60783e-05
8.01961e-05
2.00441e-05
7.24655e-05
4.9558e-05
7.24527e-05
2.00457e-05
3.60821e-05
4.02954e-05
8.01905e-05
8.17037e-05
3.60818e-05
4.02952e-05
8.02035e-05
2.00493e-05
7.25091e-05
4.95697e-05
2.00478e-05
7.25234e-05
3.60777e-05
4.02948e-05
8.01811e-05
8.17074e-05
3.6077e-05
4.02944e-05
8.0195e-05
2.00454e-05
7.24479e-05
4.95574e-05
2.00439e-05
7.24609e-05
7.51166e-05
2.14059e-05
2.14104e-05
2.14042e-05
2.14086e-05
7.51246e-05
8.63276e-05
9.22507e-05
4.73566e-05
6.78882e-05
4.73575e-05
8.6341e-05
9.21464e-05
8.64351e-05
9.24695e-05
4.73734e-05
6.79391e-05
9.24399e-05
8.64159e-05
4.73749e-05
7.51255e-05
2.14043e-05
2.14087e-05
2.14059e-05
7.51167e-05
2.14104e-05
8.63001e-05
4.73578e-05
6.78842e-05
9.22545e-05
4.73566e-05
9.21726e-05
8.63449e-05
8.64278e-05
4.73756e-05
6.79352e-05
9.23711e-05
9.22929e-05
4.73744e-05
8.64224e-05
2.3481e-05
2.34798e-05
2.34776e-05
7.5124e-05
2.14043e-05
2.14087e-05
7.51149e-05
2.1406e-05
2.14105e-05
8.63531e-05
4.73572e-05
9.2182e-05
6.7918e-05
9.20954e-05
8.63445e-05
4.73583e-05
8.64244e-05
4.73749e-05
9.23875e-05
6.79441e-05
8.64062e-05
4.73759e-05
9.23937e-05
2.34814e-05
3.60705e-05
8.18743e-05
4.02848e-05
8.02075e-05
4.02837e-05
8.01899e-05
3.60716e-05
2.00454e-05
7.24731e-05
4.95565e-05
2.00436e-05
7.24875e-05
3.60714e-05
8.18853e-05
4.02833e-05
8.01799e-05
4.02842e-05
3.60702e-05
8.01986e-05
2.00437e-05
7.24867e-05
4.9556e-05
7.24733e-05
2.00454e-05
3.60684e-05
8.0189e-05
4.02787e-05
8.18069e-05
3.60673e-05
8.02022e-05
4.02798e-05
2.00449e-05
7.25016e-05
4.9558e-05
2.00431e-05
7.25156e-05
3.60718e-05
4.02842e-05
8.01959e-05
8.18496e-05
3.60707e-05
4.02851e-05
8.0214e-05
2.00455e-05
7.24716e-05
4.95571e-05
2.00437e-05
7.24855e-05
3.60683e-05
8.16111e-05
8.00956e-05
4.02798e-05
8.00747e-05
4.02785e-05
3.60694e-05
2.0046e-05
7.24737e-05
4.95619e-05
7.2489e-05
2.00441e-05
3.60694e-05
8.1645e-05
8.01077e-05
4.02786e-05
8.01197e-05
3.60683e-05
4.02794e-05
2.00442e-05
7.24898e-05
4.95615e-05
7.24748e-05
2.00461e-05
3.60696e-05
8.17341e-05
4.02849e-05
8.01537e-05
4.02839e-05
8.01261e-05
3.6071e-05
2.00454e-05
7.24644e-05
4.95575e-05
2.00437e-05
7.2478e-05
3.60702e-05
8.17643e-05
4.02836e-05
8.00952e-05
3.60691e-05
4.02846e-05
8.01063e-05
2.00436e-05
7.24776e-05
4.9557e-05
7.24631e-05
2.00453e-05
3.60696e-05
8.0063e-05
4.02791e-05
8.17261e-05
3.60683e-05
8.01157e-05
4.02805e-05
2.00462e-05
7.24753e-05
4.95614e-05
2.00443e-05
7.24912e-05
3.60714e-05
4.02844e-05
8.01306e-05
8.18178e-05
3.60703e-05
4.02858e-05
8.01209e-05
2.00453e-05
7.24629e-05
4.95574e-05
2.00436e-05
7.24772e-05
7.5124e-05
2.14073e-05
2.14103e-05
2.14056e-05
2.14086e-05
7.51312e-05
8.63669e-05
9.22001e-05
4.73605e-05
6.79123e-05
4.73615e-05
8.63865e-05
9.22081e-05
8.63612e-05
9.21332e-05
4.7369e-05
6.78862e-05
9.21524e-05
8.6331e-05
4.737e-05
7.51349e-05
2.14056e-05
2.14086e-05
2.14073e-05
7.51265e-05
2.14103e-05
8.62823e-05
4.73615e-05
6.78844e-05
9.2034e-05
4.73605e-05
9.21475e-05
8.63192e-05
8.63619e-05
4.73707e-05
6.78933e-05
9.22229e-05
9.21876e-05
4.73694e-05
8.63792e-05
2.34781e-05
2.3477e-05
2.34778e-05
7.51252e-05
2.14055e-05
2.14085e-05
7.51195e-05
2.14072e-05
2.14102e-05
8.62854e-05
4.73607e-05
9.20966e-05
6.7884e-05
9.2138e-05
8.63227e-05
4.73614e-05
8.63049e-05
4.737e-05
9.21559e-05
6.79127e-05
8.63055e-05
4.73708e-05
9.21543e-05
2.34788e-05
3.6066e-05
8.16079e-05
8.01225e-05
4.02742e-05
8.01045e-05
4.02733e-05
3.60671e-05
2.00451e-05
7.24663e-05
4.95568e-05
7.24798e-05
2.00433e-05
3.60669e-05
8.16529e-05
8.01016e-05
4.02733e-05
8.01174e-05
3.60658e-05
4.02742e-05
2.00434e-05
7.24741e-05
4.95566e-05
7.24621e-05
2.00451e-05
3.60607e-05
8.16436e-05
8.00213e-05
4.02737e-05
8.00076e-05
4.02728e-05
3.60618e-05
2.0042e-05
7.24276e-05
4.95482e-05
2.00403e-05
7.24413e-05
3.60617e-05
8.16728e-05
8.00213e-05
4.02723e-05
3.60607e-05
8.00347e-05
4.02735e-05
2.00403e-05
7.24409e-05
4.95476e-05
7.24265e-05
2.00421e-05
3.60673e-05
8.01107e-05
4.02736e-05
8.16811e-05
3.60662e-05
8.01271e-05
4.02746e-05
2.00451e-05
7.2457e-05
4.95575e-05
2.00434e-05
7.24692e-05
3.60626e-05
8.00417e-05
4.0273e-05
8.16756e-05
3.60612e-05
8.007e-05
4.0274e-05
2.00421e-05
7.24259e-05
4.95487e-05
2.00403e-05
7.24402e-05
2.34777e-05
2.34764e-05
2.3474e-05
2.34728e-05
7.51209e-05
2.14065e-05
2.14028e-05
7.51117e-05
2.14082e-05
2.14046e-05
8.62757e-05
4.73658e-05
9.21748e-05
6.79286e-05
8.62721e-05
9.21223e-05
4.73669e-05
8.63175e-05
4.73533e-05
9.2139e-05
6.78831e-05
8.63345e-05
9.21556e-05
4.7354e-05
2.34779e-05
2.34743e-05
0.000109495
0.000130888
0.000130779
0.000130849
0.00010947
0.00013077
0.000130831
0.000155984
0.000155992
9.73976e-05
9.75816e-05
9.75676e-05
9.70882e-05
9.7389e-05
9.75949e-05
9.75833e-05
9.7194e-05
9.70686e-05
9.76148e-05
9.76429e-05
9.76108e-05
9.76385e-05
9.71441e-05
9.74471e-05
9.66627e-05
9.76203e-05
9.77214e-05
9.76203e-05
9.77207e-05
9.74628e-05
9.7416e-05
9.59013e-05
9.75589e-05
9.7523e-05
9.75608e-05
9.75316e-05
9.74413e-05
9.73872e-05
9.70893e-05
9.75875e-05
9.75735e-05
9.73987e-05
9.75841e-05
9.75687e-05
9.73559e-05
9.76277e-05
9.76576e-05
9.71201e-05
9.73047e-05
9.76371e-05
9.76649e-05
9.74664e-05
9.76292e-05
9.77356e-05
9.67735e-05
9.77383e-05
9.74569e-05
9.7635e-05
9.7438e-05
9.75597e-05
9.75244e-05
9.616e-05
9.75221e-05
9.74312e-05
9.75567e-05
0.000109493
0.000130815
0.000109488
0.000130785
0.000130852
0.00013079
0.000130848
0.000156005
0.000155998
0.000109545
0.000130802
0.000130814
0.00013081
0.000130817
0.00015599
0.000155984
0.000109493
0.000130803
0.000130815
0.000130808
0.000130821
0.000155993
0.000155987
0.000109489
0.0001308
0.000130802
0.000130806
0.000130807
0.000156002
0.000155991
8.07924e-05
9.41759e-05
9.41674e-05
0.000130799
0.000130812
0.000109528
0.00013079
0.000130802
0.000155983
0.000155985
0.000130797
0.000130789
0.000109469
0.00013078
0.000130786
0.000155975
0.000155983
0.000130788
0.000130797
0.000109461
0.000130776
0.00013079
0.000155971
0.000155983
0.000109494
0.000130764
0.000130828
0.000155966
0.000109526
0.000130785
0.000130795
0.00015598
0.00010944
0.000130759
0.000130778
0.000155969
0.000109455
0.000130767
0.000130783
0.000155969
9.41546e-05
9.21541e-05
9.24467e-05
9.35579e-05
9.22683e-05
9.35674e-05
9.4145e-05
9.43712e-05
9.46381e-05
8.84049e-05
8.10336e-05
9.43748e-05
9.46394e-05
8.84495e-05
9.41382e-05
9.19667e-05
9.23026e-05
9.35474e-05
9.41592e-05
9.22974e-05
9.35398e-05
9.43949e-05
8.84177e-05
8.09549e-05
9.46112e-05
9.4616e-05
8.8427e-05
9.43844e-05
9.40912e-05
9.22504e-05
9.32057e-05
9.2264e-05
9.32177e-05
9.19646e-05
9.4072e-05
9.41466e-05
9.41739e-05
8.82992e-05
8.08927e-05
9.41455e-05
9.41924e-05
8.82246e-05
9.40851e-05
9.23061e-05
9.32039e-05
9.19366e-05
9.41117e-05
9.3203e-05
9.1977e-05
9.41578e-05
8.82126e-05
8.08504e-05
9.41989e-05
9.41869e-05
8.82905e-05
9.41689e-05
9.74004e-05
9.70927e-05
9.75998e-05
9.7578e-05
9.75937e-05
9.75767e-05
9.74088e-05
9.71383e-05
9.67172e-05
9.75728e-05
9.75875e-05
9.71554e-05
9.75709e-05
9.75854e-05
9.71646e-05
9.69824e-05
9.75973e-05
9.76251e-05
9.71169e-05
9.7611e-05
9.76391e-05
9.4528e-05
8.86514e-05
8.08977e-05
9.42968e-05
8.87084e-05
9.42878e-05
9.4516e-05
9.47155e-05
9.27719e-05
9.45474e-05
9.35896e-05
9.47504e-05
9.28622e-05
9.45358e-05
9.45506e-05
9.43172e-05
8.08637e-05
8.86316e-05
9.43108e-05
8.87052e-05
9.45372e-05
9.45201e-05
8.87587e-05
9.43114e-05
8.09495e-05
9.43231e-05
9.45456e-05
8.87795e-05
9.47371e-05
9.34889e-05
9.28658e-05
9.44936e-05
9.28005e-05
9.4544e-05
9.4707e-05
9.44455e-05
9.26655e-05
9.43938e-05
9.30271e-05
9.44654e-05
9.2639e-05
9.43828e-05
9.43296e-05
9.42422e-05
8.08608e-05
8.84341e-05
8.83951e-05
9.42361e-05
9.4336e-05
9.43135e-05
8.83911e-05
9.42263e-05
8.08815e-05
9.43408e-05
8.83642e-05
9.42475e-05
9.4465e-05
9.29186e-05
9.25396e-05
9.43441e-05
9.24832e-05
9.43857e-05
9.44378e-05
9.65989e-05
9.76108e-05
9.76299e-05
9.38008e-05
9.2322e-05
9.2122e-05
9.33447e-05
9.2283e-05
9.33525e-05
9.37903e-05
9.41008e-05
8.84047e-05
8.0829e-05
9.41788e-05
8.83822e-05
9.41638e-05
9.40922e-05
9.40379e-05
9.27088e-05
9.35651e-05
9.24036e-05
9.35801e-05
9.23659e-05
9.40313e-05
9.42078e-05
8.83726e-05
8.08273e-05
9.4213e-05
8.82801e-05
9.41961e-05
9.41998e-05
9.41201e-05
9.22724e-05
9.33702e-05
9.25105e-05
9.38434e-05
9.23102e-05
9.33698e-05
9.41363e-05
9.42216e-05
8.08181e-05
8.8338e-05
9.42095e-05
8.83888e-05
9.41694e-05
9.41283e-05
8.83771e-05
9.42013e-05
8.09081e-05
9.42163e-05
9.41098e-05
8.83983e-05
9.44057e-05
9.25405e-05
9.21439e-05
9.34134e-05
9.2263e-05
9.34156e-05
9.4419e-05
9.43473e-05
9.35921e-05
9.24262e-05
9.27204e-05
9.40737e-05
9.35883e-05
9.23898e-05
9.42297e-05
9.42336e-05
8.08206e-05
8.8328e-05
8.83028e-05
9.42209e-05
9.42551e-05
9.42232e-05
8.82729e-05
9.4213e-05
8.08779e-05
9.42264e-05
8.83716e-05
9.4228e-05
9.4632e-05
9.28007e-05
9.36223e-05
9.25152e-05
9.36288e-05
9.24711e-05
9.46464e-05
9.43464e-05
9.46512e-05
8.10309e-05
8.85119e-05
9.43483e-05
9.46524e-05
8.84811e-05
9.41094e-05
9.21344e-05
9.24657e-05
9.35336e-05
9.41452e-05
9.23688e-05
9.35482e-05
9.42811e-05
9.42215e-05
8.08647e-05
8.84116e-05
8.83817e-05
9.42118e-05
9.42863e-05
9.41069e-05
9.2521e-05
9.36287e-05
9.22339e-05
9.36394e-05
9.21709e-05
9.41423e-05
9.74072e-05
9.67914e-05
9.75779e-05
9.75644e-05
9.75668e-05
9.7576e-05
9.74138e-05
9.74225e-05
9.58929e-05
9.75738e-05
9.75593e-05
9.75715e-05
9.74183e-05
9.75441e-05
9.37317e-05
9.31788e-05
9.19559e-05
9.21581e-05
9.37486e-05
9.31728e-05
9.20145e-05
9.41353e-05
9.41799e-05
8.08386e-05
8.82745e-05
9.41395e-05
9.41701e-05
8.82093e-05
9.41229e-05
8.82911e-05
9.41709e-05
8.07789e-05
9.41379e-05
9.41784e-05
8.83054e-05
9.40158e-05
9.22947e-05
9.31841e-05
9.19627e-05
9.40903e-05
9.31915e-05
9.20596e-05
9.38037e-05
9.3207e-05
9.21208e-05
9.22081e-05
9.38238e-05
9.31991e-05
9.20967e-05
9.41182e-05
9.41325e-05
8.07668e-05
8.81703e-05
8.81267e-05
9.41212e-05
9.41257e-05
9.41024e-05
8.81984e-05
9.41162e-05
8.07212e-05
9.41159e-05
8.81511e-05
9.41271e-05
9.40845e-05
9.22204e-05
9.32119e-05
9.19629e-05
9.32186e-05
9.19852e-05
9.41439e-05
9.73971e-05
9.70459e-05
9.75681e-05
9.75907e-05
9.75737e-05
9.73818e-05
9.71899e-05
9.76346e-05
9.7665e-05
9.74059e-05
9.76294e-05
9.76618e-05
9.74195e-05
9.71742e-05
9.76292e-05
9.76608e-05
9.7406e-05
9.76313e-05
9.76631e-05
9.47011e-05
9.32204e-05
9.29442e-05
9.44406e-05
9.29386e-05
9.44866e-05
9.46732e-05
9.45388e-05
9.43156e-05
8.8611e-05
8.08912e-05
8.87153e-05
9.4546e-05
9.43216e-05
9.46867e-05
9.34248e-05
9.28855e-05
9.45143e-05
9.30198e-05
9.4722e-05
9.44846e-05
9.45497e-05
8.86484e-05
8.08598e-05
9.43081e-05
8.8627e-05
9.4305e-05
9.45328e-05
9.44332e-05
9.31324e-05
9.26531e-05
9.42951e-05
9.25627e-05
9.43391e-05
9.44125e-05
9.43337e-05
9.42423e-05
8.84306e-05
8.08297e-05
9.43367e-05
8.84537e-05
9.42486e-05
9.44177e-05
9.30944e-05
9.25188e-05
9.4365e-05
9.4452e-05
9.24972e-05
9.43349e-05
9.43411e-05
8.83716e-05
8.08293e-05
9.42449e-05
8.83434e-05
9.43319e-05
9.42371e-05
9.46414e-05
9.28469e-05
9.44436e-05
9.28287e-05
9.46854e-05
9.27892e-05
9.43833e-05
9.45244e-05
8.85665e-05
9.42931e-05
8.08501e-05
9.4297e-05
9.45393e-05
8.86658e-05
9.4394e-05
9.2594e-05
9.43022e-05
9.30055e-05
9.44283e-05
9.25676e-05
9.42516e-05
9.43296e-05
8.83598e-05
9.42339e-05
8.07635e-05
9.43449e-05
8.82942e-05
9.42386e-05
9.74642e-05
9.68509e-05
9.76313e-05
9.77359e-05
9.77344e-05
9.76281e-05
9.74709e-05
9.7469e-05
9.69039e-05
9.76296e-05
9.77331e-05
9.76274e-05
9.7462e-05
9.77356e-05
9.43792e-05
9.2413e-05
9.22027e-05
9.34721e-05
9.22324e-05
9.34834e-05
9.4349e-05
9.41811e-05
9.42221e-05
8.83821e-05
8.07788e-05
8.83922e-05
9.41868e-05
9.42324e-05
9.43997e-05
9.25156e-05
9.22716e-05
9.34584e-05
9.23128e-05
9.44333e-05
9.34586e-05
9.41997e-05
8.84142e-05
8.08414e-05
9.42329e-05
8.84005e-05
9.42253e-05
9.41926e-05
9.46179e-05
9.26813e-05
9.36895e-05
9.25915e-05
9.36997e-05
9.26203e-05
9.45912e-05
9.42674e-05
9.42309e-05
8.82958e-05
8.09359e-05
9.42727e-05
8.83376e-05
9.42427e-05
9.46271e-05
9.29003e-05
9.36707e-05
9.24731e-05
9.46632e-05
9.3671e-05
9.24126e-05
9.42859e-05
8.82248e-05
8.08829e-05
9.42434e-05
8.83644e-05
9.4278e-05
9.42342e-05
9.43122e-05
9.21937e-05
9.35032e-05
9.27314e-05
9.43395e-05
9.24368e-05
9.35022e-05
9.42075e-05
8.84738e-05
9.42214e-05
8.0737e-05
9.42278e-05
9.4218e-05
8.84577e-05
9.45545e-05
9.37186e-05
9.25331e-05
9.27439e-05
9.45835e-05
9.37106e-05
9.26721e-05
9.42905e-05
8.82461e-05
9.42406e-05
8.08556e-05
9.43001e-05
8.82501e-05
9.42489e-05
9.41768e-05
9.236e-05
9.36644e-05
9.23524e-05
9.36736e-05
9.22777e-05
9.41682e-05
9.42803e-05
9.42202e-05
8.84542e-05
8.09341e-05
9.4231e-05
9.42911e-05
8.84266e-05
9.41476e-05
9.25329e-05
9.36657e-05
9.21853e-05
9.36541e-05
9.41672e-05
9.21441e-05
9.42974e-05
8.84391e-05
8.09384e-05
9.42378e-05
9.42252e-05
8.84223e-05
9.43015e-05
9.41501e-05
9.24671e-05
9.35962e-05
9.26067e-05
9.4168e-05
9.25321e-05
9.35928e-05
9.43989e-05
8.83636e-05
9.45852e-05
8.09455e-05
9.44082e-05
9.45825e-05
8.84973e-05
9.41804e-05
9.37075e-05
9.23223e-05
9.26878e-05
9.41975e-05
9.37004e-05
9.22885e-05
9.43024e-05
8.84287e-05
9.4235e-05
8.09581e-05
9.43064e-05
8.83664e-05
9.42441e-05
9.72867e-05
9.62042e-05
9.7538e-05
9.7513e-05
9.75126e-05
9.75471e-05
9.72824e-05
9.72853e-05
9.6431e-05
9.75398e-05
9.7516e-05
9.75354e-05
9.72771e-05
9.75132e-05
9.41223e-05
9.22071e-05
9.323e-05
9.21966e-05
9.32441e-05
9.21462e-05
9.40972e-05
9.4127e-05
9.4132e-05
8.81522e-05
8.08262e-05
9.41442e-05
9.41254e-05
8.81143e-05
9.41308e-05
9.23135e-05
9.32353e-05
9.20795e-05
9.32305e-05
9.41596e-05
9.20908e-05
9.41408e-05
8.82799e-05
8.0794e-05
9.4147e-05
9.41367e-05
8.82289e-05
9.41449e-05
9.40585e-05
9.32252e-05
9.22079e-05
9.21747e-05
9.40809e-05
9.32135e-05
9.22523e-05
9.41753e-05
8.80963e-05
9.41969e-05
8.08756e-05
9.41738e-05
9.42072e-05
8.82286e-05
9.40637e-05
9.32508e-05
9.21485e-05
9.2106e-05
9.40928e-05
9.32384e-05
9.21001e-05
9.41502e-05
8.83139e-05
9.41465e-05
8.08778e-05
9.41488e-05
8.83449e-05
9.4159e-05
9.74116e-05
9.71374e-05
9.76066e-05
9.75826e-05
9.74043e-05
9.76105e-05
9.75875e-05
0.000109436
9.65705e-05
9.63768e-05
9.70928e-05
0.000109465
9.66161e-05
9.64201e-05
9.67016e-05
0.000109455
9.66156e-05
9.64518e-05
9.6924e-05
0.00010946
9.66041e-05
9.64792e-05
9.66773e-05
0.000109456
9.65948e-05
9.64922e-05
9.55797e-05
0.000109463
9.65868e-05
9.65351e-05
9.5791e-05
0.000109459
9.6567e-05
9.6564e-05
9.63118e-05
0.000109492
9.65637e-05
9.66222e-05
9.5939e-05
0.000109498
9.65684e-05
9.66671e-05
9.64925e-05
0.000109536
9.65754e-05
9.67053e-05
9.59167e-05
0.000109564
9.65995e-05
9.66604e-05
9.64485e-05
0.000109556
9.65644e-05
9.65814e-05
9.63184e-05
0.000109547
9.65804e-05
9.65447e-05
9.63054e-05
0.000109543
9.65801e-05
9.65483e-05
9.56772e-05
0.000109544
9.6535e-05
9.65534e-05
9.62802e-05
0.000109544
9.65185e-05
9.65434e-05
9.66366e-05
0.000109542
9.65202e-05
9.65243e-05
9.5983e-05
0.000109545
9.65481e-05
9.65348e-05
9.60078e-05
0.00010963
9.68848e-05
9.68583e-05
9.62305e-05
0.000108362
9.47392e-05
9.46992e-05
9.57575e-05
9.71892e-05
9.65455e-05
9.65381e-05
9.6956e-05
9.63973e-05
9.64129e-05
9.65695e-05
9.64723e-05
9.65291e-05
9.63883e-05
9.63859e-05
9.7145e-05
9.72364e-05
9.62913e-05
9.65373e-05
9.65334e-05
9.65247e-05
9.65119e-05
9.70265e-05
9.7102e-05
9.63919e-05
9.63924e-05
9.63947e-05
9.63694e-05
9.64731e-05
9.66155e-05
9.64546e-05
9.65392e-05
9.68255e-05
9.6368e-05
9.6424e-05
9.63631e-05
9.6709e-05
9.59345e-05
9.63339e-05
9.65549e-05
9.65306e-05
9.65384e-05
9.65096e-05
9.71721e-05
9.63802e-05
9.64193e-05
9.6427e-05
9.64248e-05
9.64535e-05
9.64671e-05
9.66224e-05
9.64719e-05
9.68106e-05
9.61214e-05
9.64189e-05
9.64591e-05
9.64135e-05
9.68666e-05
9.63631e-05
9.62993e-05
9.65335e-05
9.65037e-05
9.6514e-05
9.64796e-05
9.59859e-05
9.59425e-05
9.64506e-05
9.64584e-05
9.64472e-05
9.64557e-05
9.64881e-05
9.66137e-05
9.64845e-05
9.57395e-05
9.6235e-05
9.64183e-05
9.64836e-05
9.64401e-05
9.70722e-05
9.58789e-05
9.63812e-05
9.65185e-05
9.64752e-05
9.65006e-05
9.64681e-05
9.56384e-05
9.56954e-05
9.64675e-05
9.64759e-05
9.64702e-05
9.64757e-05
9.65079e-05
9.65973e-05
9.64927e-05
9.62768e-05
9.62952e-05
9.64501e-05
9.65005e-05
9.64526e-05
9.59598e-05
9.59697e-05
9.59184e-05
9.65072e-05
9.64643e-05
9.64763e-05
9.64651e-05
9.57974e-05
9.58612e-05
9.64665e-05
9.64903e-05
9.6473e-05
9.65082e-05
9.65004e-05
9.65985e-05
9.65015e-05
9.63288e-05
9.67229e-05
9.64608e-05
9.65429e-05
9.64472e-05
9.61752e-05
9.59787e-05
9.60283e-05
9.64754e-05
9.64894e-05
9.64705e-05
9.64753e-05
9.5562e-05
9.56289e-05
9.64901e-05
9.65253e-05
9.64945e-05
9.65453e-05
9.65049e-05
9.65656e-05
9.65077e-05
9.67222e-05
9.6534e-05
9.64748e-05
9.65761e-05
9.64657e-05
9.62575e-05
9.60831e-05
9.65462e-05
9.64713e-05
9.64834e-05
9.64742e-05
9.64857e-05
9.56657e-05
9.5855e-05
9.65067e-05
9.65543e-05
9.65279e-05
9.65682e-05
9.6521e-05
9.65776e-05
9.65346e-05
9.65528e-05
9.68907e-05
9.64783e-05
9.66409e-05
9.65026e-05
9.58511e-05
9.65553e-05
9.59574e-05
9.64773e-05
9.65151e-05
9.64881e-05
9.65058e-05
9.59165e-05
9.60114e-05
9.65458e-05
9.66095e-05
9.65681e-05
9.66245e-05
9.65716e-05
9.65723e-05
9.6592e-05
9.68846e-05
9.6268e-05
9.64977e-05
9.66835e-05
9.65264e-05
9.64535e-05
9.59522e-05
9.6463e-05
9.6497e-05
9.65063e-05
9.64981e-05
9.65031e-05
9.60538e-05
9.64875e-05
9.65934e-05
9.66288e-05
9.65977e-05
9.66e-05
9.65995e-05
9.6575e-05
9.66287e-05
9.63055e-05
9.67714e-05
9.65754e-05
9.67128e-05
9.65915e-05
9.59118e-05
9.64676e-05
9.6731e-05
9.65055e-05
9.64992e-05
9.65068e-05
9.64804e-05
9.64891e-05
9.67671e-05
9.66135e-05
9.66045e-05
9.66074e-05
9.65466e-05
9.66758e-05
9.65969e-05
9.66476e-05
9.63466e-05
9.6239e-05
9.66012e-05
9.66891e-05
9.65879e-05
9.64228e-05
9.68051e-05
9.64627e-05
9.65435e-05
9.64797e-05
9.6529e-05
9.64777e-05
9.67608e-05
9.60304e-05
9.66011e-05
9.65186e-05
9.65863e-05
9.64728e-05
9.66318e-05
9.65765e-05
9.66049e-05
9.62882e-05
9.59342e-05
9.65716e-05
9.66148e-05
9.65381e-05
9.62881e-05
9.65143e-05
9.67173e-05
9.65189e-05
9.64987e-05
9.65097e-05
9.64839e-05
9.61564e-05
9.64885e-05
9.65858e-05
9.64804e-05
9.65704e-05
9.64179e-05
9.65977e-05
9.6583e-05
9.65815e-05
9.56119e-05
9.57187e-05
9.65346e-05
9.65745e-05
9.64961e-05
9.62004e-05
9.67895e-05
9.60483e-05
9.65038e-05
9.64875e-05
9.64761e-05