/*--------------------------------*- C++ -*----------------------------------*\
| =========                 |                                                 |
| \\      /  F ield         | OpenFOAM: The Open Source CFD Toolbox           |
|  \\    /   O peration     | Version:  2312                                  |
|   \\  /    A nd           | Website:  www.openfoam.com                      |
|    \\/     M anipulation  |                                                 |
\*---------------------------------------------------------------------------*/
FoamFile
{
    version     2.0;
    format      ascii;
    arch        "LSB;label=32;scalar=64";
    class       volScalarField;
    location    "350";
    object      p;
}
// * * * * * * * * * * * * * * * * * * * * * * * * * * * * * * * * * * * * * //

dimensions      [0 2 -2 0 0 0 0];

internalField   nonuniform List<scalar> 
43168
(
0.000716163
0.000716108
0.000716109
0.000717691
0.000723366
0.000724985
0.000724985
0.000723365
0.000724985
0.000724986
0.000724984
0.000724984
0.000723366
0.000724986
0.000724985
0.000723365
0.000717692
0.000716109
0.000716108
0.00071769
0.000716109
0.000716109
0.000716108
0.000717692
0.000716108
0.000740549
0.000740549
0.00072504
0.00072504
0.000725042
0.000725041
0.000705049
0.000718251
0.000718242
0.000705048
0.000718257
0.000705046
0.000705049
0.000718251
0.000718242
0.000705049
0.000716162
0.000716164
0.000716163
0.000705133
0.000718206
0.000716129
0.000707229
0.00071816
0.000705085
0.000707249
0.000718257
0.000705046
0.000705134
0.00071613
0.000718207
0.00070723
0.000718161
0.00070725
0.000705087
0.000718251
0.000718252
0.000705609
0.000705042
0.000705042
0.000740547
0.000740547
0.000741111
0.000740544
0.000740544
0.000722802
0.000736005
0.000722802
0.000736006
0.00073544
0.000722799
0.000722799
0.000736
0.000736
0.00074273
0.000740587
0.000735989
0.000722804
0.000735999
0.000722804
0.000735989
0.000722803
0.000735998
0.000722804
0.000735908
0.000733858
0.000722843
0.000725006
0.000735955
0.00073388
0.00072289
0.000735908
0.000733859
0.000722842
0.000725006
0.000735954
0.00073388
0.00072289
0.000722801
0.000736004
0.000735438
0.000722799
0.000722797
0.000735999
0.000722801
0.00074273
0.000740588
0.00073599
0.000722804
0.000735999
0.000722804
0.000735909
0.000733859
0.000722843
0.000725007
0.000735955
0.000733881
0.000722891
0.00073599
0.000722804
0.000735999
0.000722804
0.000735909
0.000733859
0.000725007
0.000722842
0.000733881
0.000735955
0.000722891
0.000722841
0.000725004
0.000722889
0.000722803
0.000722803
0.000725005
0.000722841
0.000722889
0.000722802
0.000722803
0.000722801
0.000736005
0.00073544
0.000722798
0.000722798
0.000736
0.000736
0.000722801
0.000736005
0.000735909
0.00073386
0.000725007
0.000722842
0.000733881
0.000735955
0.00072289
0.000735909
0.000733859
0.000725006
0.000722842
0.00073388
0.000735954
0.00072289
0.000735989
0.000722803
0.000735999
0.000722804
0.000735989
0.000722803
0.000735998
0.000722805
0.000735439
0.000722797
0.000722798
0.000735999
0.0007228
0.000722801
0.000736004
0.000718257
0.000705046
0.000718257
0.000705046
0.000718252
0.000718252
0.00070561
0.000705043
0.000705043
0.000700499
0.000700499
0.000699932
0.000700494
0.000700494
0.000705049
0.00071825
0.000718242
0.000705048
0.000705134
0.000718207
0.000716129
0.000707229
0.000718161
0.000705087
0.000707249
0.000705134
0.000718206
0.000716129
0.000707229
0.000718161
0.000705086
0.000707249
0.000700484
0.000700493
0.000700483
0.000700492
0.000700403
0.000698347
0.000700449
0.000698367
0.000700402
0.000698347
0.000700448
0.000698366
0.000718251
0.000718251
0.000705609
0.000705043
0.000705042
0.000718255
0.000705044
0.000700498
0.000699931
0.000700493
0.000700492
0.000700497
0.000705135
0.000718207
0.00071613
0.00070723
0.000718162
0.000705087
0.00070725
0.000705049
0.000718251
0.000718242
0.000705048
0.000705135
0.00071613
0.000718208
0.00070723
0.000718162
0.00070725
0.000705087
0.000700484
0.000700493
0.000700403
0.000698348
0.000700449
0.000698368
0.000700484
0.000700493
0.000700403
0.000698348
0.000698368
0.000700449
0.000705048
0.000718249
0.00071824
0.000705047
0.000705133
0.000716129
0.000718206
0.000707229
0.00071816
0.000707249
0.000705086
0.000705048
0.00071825
0.000718241
0.000705047
0.000700402
0.000698347
0.000700447
0.000698367
0.000700482
0.000700491
0.000700402
0.000698347
0.000698367
0.000700448
0.000700482
0.000700492
0.000718253
0.000718252
0.00070561
0.000705043
0.000705043
0.000718257
0.000705046
0.000700499
0.000699932
0.000700494
0.000700494
0.000700499
0.000705134
0.00071613
0.000718207
0.000707229
0.000718161
0.00070725
0.000705086
0.000705049
0.000718251
0.000718241
0.000705048
0.000705049
0.000718251
0.000718241
0.000705048
0.000700403
0.000698348
0.000698368
0.000700449
0.000700402
0.000698347
0.000698367
0.000700448
0.000700483
0.000700493
0.000700482
0.000700492
0.000718256
0.000705045
0.000718257
0.000705046
0.000699932
0.000700493
0.000700493
0.000700498
0.000700498
0.000744878
0.000740537
0.000744868
0.000744874
0.000740544
0.000744868
0.000709382
0.000709364
0.000705039
0.000705047
0.000709381
0.000709366
0.000705039
0.000713921
0.000718257
0.000713927
0.000718261
0.000713915
0.000713918
0.000713928
0.000718258
0.000718244
0.00071826
0.000713918
0.000713926
0.000709383
0.000705037
0.000709373
0.000709379
0.000705043
0.000713924
0.000709379
0.000709383
0.000709364
0.000705047
0.00070504
0.000709367
0.000709381
0.00070504
0.000713922
0.000718256
0.000713927
0.000718261
0.000713915
0.000713919
0.000713928
0.000718245
0.000718259
0.000718261
0.000713926
0.000713919
0.000709383
0.000705036
0.000709374
0.000709379
0.000705043
0.000713925
0.00070938
0.000709387
0.00070504
0.00070504
0.000709388
0.000709388
0.000705033
0.000713946
0.000718197
0.000718253
0.000713921
0.000718229
0.000713977
0.000713928
0.000713946
0.000718198
0.000718253
0.000713921
0.00071823
0.000713978
0.000713928
0.000713912
0.000718266
0.000718266
0.000718265
0.000713919
0.000713919
0.000709352
0.000705048
0.000709374
0.000705098
0.000709319
0.000709375
0.000705067
0.000709352
0.000705049
0.000709374
0.000705099
0.00070932
0.000709375
0.000705067
0.000744874
0.000744875
0.000744883
0.000740541
0.000740542
0.000744884
0.000744884
0.000740534
0.000744847
0.00074055
0.000744869
0.000740601
0.000744871
0.000740569
0.000744815
0.000744847
0.00074055
0.00074487
0.000740601
0.000744871
0.000740569
0.000744816
0.000727133
0.000731676
0.000727133
0.000731676
0.000731664
0.000736015
0.000736015
0.000736013
0.000731671
0.000731671
0.000727105
0.000722855
0.000727128
0.000722805
0.000727129
0.000727073
0.000722824
0.000727106
0.000722855
0.000727128
0.000722805
0.00072713
0.000727074
0.000722824
0.000731698
0.000736002
0.000735945
0.000731673
0.000735978
0.000731679
0.000731729
0.000731698
0.000736002
0.000735946
0.000731673
0.000735978
0.00073168
0.000731729
0.000727141
0.000722796
0.000722797
0.000727142
0.000727142
0.00072279
0.000731669
0.000736006
0.000735991
0.000731678
0.000736008
0.000731669
0.000731676
0.000727137
0.000727127
0.000722792
0.000722798
0.000727132
0.000731673
0.000736004
0.000731678
0.000736009
0.000731666
0.000727135
0.000727117
0.000722795
0.000722802
0.000722795
0.000727134
0.000727119
0.000731668
0.000736006
0.000735991
0.000731678
0.000736008
0.000731668
0.000731676
0.000727136
0.000727126
0.000722792
0.000727131
0.000722798
0.000731672
0.000736004
0.000731677
0.000736009
0.000731665
0.000727135
0.000727117
0.000722795
0.000722802
0.000727134
0.000727119
0.000722795
0.000727132
0.000731675
0.000727104
0.000722854
0.000727127
0.000722804
0.000727073
0.000727128
0.000722822
0.000727104
0.000722854
0.000727126
0.000722804
0.000727128
0.000727071
0.000722822
0.000735944
0.000731672
0.000731728
0.00072714
0.000722796
0.000722795
0.000727141
0.000727141
0.000722789
0.000727132
0.000731669
0.000735993
0.000736007
0.000731678
0.000736008
0.000731676
0.000731669
0.000727136
0.000727127
0.000722792
0.000722798
0.000727131
0.000731672
0.000736004
0.000731678
0.000736009
0.000731666
0.000727136
0.000727117
0.000722802
0.000722795
0.000722795
0.00072712
0.000727134
0.000731669
0.000736006
0.000735992
0.000731678
0.000736008
0.000731669
0.000731676
0.000727137
0.000727126
0.000722792
0.000727132
0.000722798
0.000731672
0.000736005
0.000731677
0.000736009
0.000731666
0.000727135
0.000727117
0.000722796
0.000722802
0.000727134
0.000727119
0.000722795
0.000727135
0.000727125
0.000722791
0.00072713
0.000722797
0.000727134
0.000727115
0.000722802
0.000722794
0.000727118
0.000727132
0.000722794
0.000727135
0.000727125
0.000722791
0.00072713
0.000722797
0.000727134
0.000727116
0.000722794
0.000722801
0.000727132
0.000727118
0.000722793
0.000727132
0.000731675
0.000731663
0.000736014
0.000736014
0.000736013
0.00073167
0.00073167
0.000727105
0.000722855
0.000727127
0.000722805
0.000727073
0.000727129
0.000722823
0.000727105
0.000722855
0.000727127
0.000722805
0.000727128
0.000727073
0.000722823
0.000731697
0.000736001
0.000735946
0.000731672
0.000731728
0.000735978
0.000731678
0.000731697
0.000736001
0.000735946
0.000731672
0.000735978
0.000731678
0.000731728
0.00072714
0.000722797
0.000722796
0.000727142
0.000727142
0.000722789
0.000727132
0.000731675
0.000731668
0.000735992
0.000736006
0.000731678
0.000736008
0.000731676
0.000731668
0.000727136
0.000727126
0.000722792
0.000727131
0.000722798
0.000731672
0.000736004
0.000731677
0.000736009
0.000731665
0.000727135
0.000727116
0.000722802
0.000722795
0.000727119
0.000727133
0.000722795
0.000731669
0.000735992
0.000736006
0.000731678
0.000736008
0.000731676
0.000731669
0.000727136
0.000727125
0.000722791
0.000727131
0.000722798
0.000731672
0.000736003
0.000731677
0.000736009
0.000731665
0.000727135
0.000727116
0.000722802
0.000722795
0.000727119
0.000727133
0.000722795
0.000731662
0.000731669
0.000731669
0.000727104
0.000722854
0.000727126
0.000722804
0.000722822
0.000727072
0.000727127
0.000727104
0.000722855
0.000727126
0.000722804
0.000722822
0.000727073
0.000727128
0.000731695
0.000731671
0.000731728
0.000731677
0.000731696
0.000735944
0.000731671
0.000731728
0.000731678
0.00072714
0.000722796
0.000722796
0.000722789
0.00072714
0.000727141
0.000727131
0.000731674
0.000727132
0.000731675
0.000713925
0.000709379
0.000713925
0.00070938
0.000709388
0.000705041
0.000705041
0.000709389
0.000709389
0.000705034
0.000713947
0.000718198
0.000718253
0.000713922
0.00071823
0.000713928
0.000713978
0.000713947
0.000718198
0.000718254
0.000713922
0.00071823
0.000713928
0.000713979
0.000713913
0.000718267
0.000718267
0.000718265
0.00071392
0.00071392
0.000709352
0.000705049
0.000709374
0.000705099
0.000709376
0.000705068
0.00070932
0.000709352
0.000705049
0.000709375
0.000705099
0.000709376
0.000705068
0.00070932
0.000696164
0.000696164
0.000696152
0.000700508
0.000700508
0.000700507
0.000696159
0.000696159
0.000696186
0.000700495
0.000700439
0.000696161
0.000700471
0.000696167
0.000696217
0.000696186
0.000700495
0.000700439
0.000696161
0.000700472
0.000696167
0.000696217
0.000709382
0.000709364
0.000705039
0.000705047
0.000709381
0.000709367
0.000705039
0.000713921
0.000718256
0.000713926
0.000718261
0.000713915
0.000713918
0.000713928
0.000718258
0.000718245
0.000713918
0.00071826
0.000713925
0.000709383
0.000705036
0.000709373
0.000709378
0.000705042
0.000696158
0.0007005
0.000700486
0.000696167
0.000700502
0.000696158
0.000696165
0.000696161
0.000700498
0.000696166
0.000700503
0.000696155
0.000696158
0.0007005
0.000700486
0.000696167
0.000700502
0.000696158
0.000696165
0.000696161
0.000700498
0.000696166
0.000700503
0.000696154
0.000709386
0.00070504
0.000705039
0.000709388
0.000709387
0.000705033
0.000713945
0.000718197
0.000718252
0.000713922
0.000713927
0.000718229
0.000713978
0.000713946
0.000718196
0.000718252
0.000713921
0.000713977
0.000718229
0.000713927
0.000713912
0.000718265
0.000718265
0.000713919
0.000718264
0.000713919
0.000709351
0.000705048
0.000709373
0.000705098
0.000709375
0.000709319
0.000705066
0.000709351
0.000705048
0.000709373
0.000705098
0.000709318
0.000709375
0.000705067
0.000713924
0.000709378
0.000696164
0.000696151
0.000700507
0.000700507
0.000700506
0.000696158
0.000696157
0.000696185
0.000700494
0.000700438
0.000696161
0.000696216
0.000700471
0.000696166
0.000696185
0.000700494
0.000700438
0.00069616
0.00070047
0.000696166
0.000696216
0.000696162
0.000709383
0.000709365
0.00070504
0.000705047
0.000709381
0.000709367
0.00070504
0.000713922
0.000718257
0.000713927
0.000718262
0.000713916
0.000713919
0.000713928
0.000718259
0.000718245
0.000713919
0.000718261
0.000713926
0.000709384
0.000705037
0.000709374
0.000709379
0.000705043
0.000696158
0.000700487
0.000700501
0.000696167
0.000700502
0.000696165
0.000696158
0.000696161
0.000700498
0.000696166
0.000700503
0.000696154
0.000696158
0.000700501
0.000700486
0.000696167
0.000700502
0.000696158
0.000696165
0.000696161
0.000700499
0.000696166
0.000700503
0.000696155
0.000709381
0.000709363
0.000705046
0.000705038
0.000709365
0.00070938
0.000705038
0.00071392
0.000718254
0.000713926
0.000713914
0.00071826
0.000713917
0.000713927
0.000718242
0.000718257
0.000713925
0.000718259
0.000713917
0.000709382
0.000705035
0.000709372
0.000709376
0.000705041
0.000709381
0.000709363
0.000705038
0.000705046
0.00070938
0.000709365
0.000705038
0.000713921
0.000718255
0.000713926
0.00071826
0.000713915
0.000713917
0.000713927
0.000718257
0.000718243
0.000718259
0.000713917
0.000713925
0.000709383
0.000705036
0.000709373
0.000709378
0.000705042
0.000696157
0.000700484
0.000700499
0.000696166
0.000700501
0.000696165
0.000696156
0.000696159
0.000700496
0.000696165
0.000700501
0.000696154
0.000696156
0.000700499
0.000700485
0.000696166
0.000700501
0.000696156
0.000696164
0.00069616
0.000700497
0.000696165
0.000700502
0.000696154
0.000709388
0.000705041
0.000705041
0.000709389
0.000709389
0.000705034
0.000713947
0.000718199
0.000718254
0.000713922
0.000713928
0.000718231
0.000713978
0.000713947
0.000718198
0.000718254
0.000713922
0.000713979
0.00071823
0.000713928
0.000713913
0.000718267
0.000718267
0.00071392
0.000718266
0.00071392
0.000709353
0.000705049
0.000709375
0.000705099
0.000709376
0.000709321
0.000705067
0.000709353
0.000705049
0.000709374
0.000705099
0.00070932
0.000709376
0.000705067
0.000713925
0.000709379
0.000696164
0.000696152
0.000700508
0.000700508
0.000700507
0.000696159
0.000696159
0.000696185
0.000700495
0.00070044
0.000696161
0.000696217
0.000700472
0.000696167
0.000696186
0.000700495
0.000700439
0.000696161
0.000700472
0.000696167
0.000696217
0.000696164
0.000709382
0.000709364
0.000705046
0.000705039
0.000709366
0.000709381
0.000705039
0.000713922
0.000718257
0.000713927
0.000713915
0.000718261
0.000713918
0.000713928
0.000718244
0.000718258
0.000713925
0.00071826
0.000713918
0.000709383
0.000705036
0.000709373
0.000709379
0.000705042
0.000709383
0.000709363
0.000705047
0.000705039
0.000709366
0.000709381
0.000705039
0.000713922
0.000718256
0.000713927
0.000718261
0.000713915
0.000713919
0.000713928
0.000718244
0.000718258
0.00071826
0.000713926
0.000713919
0.000709383
0.000705036
0.000709373
0.000709378
0.000705042
0.000696157
0.000700486
0.0007005
0.000696167
0.000700502
0.000696164
0.000696157
0.00069616
0.000700498
0.000696166
0.000700503
0.000696154
0.000696157
0.000700486
0.0007005
0.000696167
0.000700502
0.000696165
0.000696157
0.00069616
0.000700497
0.000696166
0.000700502
0.000696154
0.000713924
0.000709378
0.000713925
0.000709379
0.000696151
0.000700507
0.000700508
0.000700507
0.000696158
0.000696158
0.000696185
0.000700495
0.000700439
0.00069616
0.000700471
0.000696217
0.000696167
0.000696185
0.000700495
0.000700439
0.00069616
0.000700472
0.000696217
0.000696167
0.000696163
0.000696164
0.000742787
0.000716195
0.000716196
0.000707283
0.000707314
0.000707315
0.000707359
0.00071624
0.00071405
0.000717967
0.000717968
0.000714488
0.00071813
0.000714225
0.000714225
0.000727006
0.000726567
0.000723102
0.000723102
0.000726843
0.000726845
0.000722927
0.000727004
0.000726565
0.000723102
0.0007231
0.000726844
0.000726841
0.000722926
0.000727006
0.000726567
0.000723102
0.000723102
0.000726844
0.000726844
0.000722927
0.000727005
0.000726567
0.000723102
0.000723101
0.000722926
0.000726843
0.000726844
0.00071405
0.000717969
0.000717969
0.000714489
0.000718131
0.000714226
0.000714225
0.000714049
0.000717967
0.000717967
0.000714489
0.000714225
0.00071813
0.000714225
0.00071405
0.000717969
0.000717969
0.00071449
0.000714226
0.000718131
0.000714226
0.000733915
0.000725073
0.000725074
0.000733948
0.000733949
0.000733996
0.000725119
0.000733915
0.000725073
0.000725073
0.000733948
0.000733947
0.000733995
0.000725119
0.000733916
0.000725074
0.000725075
0.000733949
0.00073395
0.000733997
0.00072512
0.000733915
0.000725074
0.000725074
0.000733948
0.00073395
0.000733996
0.00072512
0.000716195
0.000716195
0.000707282
0.000707313
0.000707313
0.000707358
0.00071624
0.000716196
0.000716196
0.000707283
0.000707315
0.000707314
0.000707359
0.000716241
0.000716195
0.000716195
0.000707282
0.000707314
0.000707314
0.000707358
0.00071624
0.0006984
0.00069843
0.000698431
0.000698475
0.000698399
0.00069843
0.00069843
0.000698474
0.0006984
0.000698431
0.000698431
0.000698475
0.000698399
0.00069843
0.00069843
0.000698474
0.000709051
0.000709282
0.00070513
0.000705373
0.000709286
0.000709054
0.000705378
0.000714217
0.000718057
0.000718177
0.000713964
0.000717956
0.000714128
0.000713992
0.000714257
0.000714013
0.000718163
0.000717932
0.000717929
0.000714009
0.000714253
0.000709079
0.000705113
0.000709328
0.000705249
0.000709179
0.000709299
0.000705338
0.000709052
0.000709283
0.000705375
0.00070513
0.000709055
0.000709287
0.000705379
0.000714218
0.000718059
0.000718179
0.000713966
0.000717958
0.000714129
0.000713993
0.000714259
0.000714014
0.000717933
0.000718165
0.00071793
0.000714254
0.00071401
0.00070908
0.000705114
0.00070933
0.00070525
0.000709181
0.000709301
0.000705339
0.000709252
0.000708813
0.000705345
0.000705345
0.000709089
0.00070909
0.00070517
0.000744748
0.000744311
0.000740848
0.000740848
0.000740673
0.000744587
0.000744588
0.000731801
0.000732239
0.000735717
0.000735717
0.000735879
0.000731976
0.000731976
0.000744575
0.000740615
0.000744824
0.000740751
0.000744796
0.000744676
0.000740839
0.000732008
0.000735912
0.00073568
0.000731764
0.000735677
0.00073176
0.000732004
0.000726833
0.000723006
0.000727083
0.00072287
0.000726934
0.000727054
0.000723095
0.000731968
0.000735926
0.000735806
0.000731716
0.000731879
0.000735705
0.000731744
0.000726805
0.000727036
0.000722886
0.00072313
0.00072704
0.000726808
0.000723135
0.000732008
0.000735912
0.00073568
0.000731764
0.000735677
0.00073176
0.000732004
0.000726832
0.000723004
0.000727082
0.00072287
0.000727054
0.000726932
0.000723094
0.000731968
0.000735925
0.000735806
0.000731716
0.000735704
0.000731744
0.000731879
0.000726804
0.000727036
0.000722886
0.00072313
0.00072704
0.000726807
0.000723134
0.00073224
0.000735713
0.000731976
0.000744825
0.000740751
0.000744677
0.00073201
0.000735913
0.000735681
0.000731764
0.000735678
0.000731761
0.000732005
0.000726833
0.000723006
0.000727083
0.000722871
0.000726934
0.000727054
0.000723096
0.000731969
0.000735926
0.000735806
0.000731717
0.00073188
0.000735705
0.000731744
0.000726805
0.000727037
0.000722887
0.000723131
0.000727041
0.000726808
0.000723136
0.000732009
0.000735681
0.000735913
0.000731764
0.000735678
0.000732005
0.00073176
0.000726833
0.000723005
0.000727082
0.00072287
0.000727054
0.000726934
0.000723095
0.000731969
0.000735927
0.000735807
0.000731716
0.000735706
0.000731744
0.000731879
0.000726805
0.000727037
0.000723131
0.000722886
0.000726809
0.000727041
0.000723135
0.000726831
0.000723004
0.000727081
0.000722869
0.000723093
0.000726932
0.000727052
0.000726804
0.000727035
0.000722885
0.000723129
0.000723133
0.000727039
0.000726807
0.000726832
0.000723004
0.000727081
0.000722869
0.000727052
0.000726932
0.000723093
0.000726804
0.000727035
0.000723129
0.000722885
0.000726807
0.000727039
0.000723133
0.000731801
0.00073224
0.000735716
0.000735716
0.000731977
0.000735878
0.000731976
0.000732009
0.000735681
0.000735913
0.000731764
0.000735678
0.000732005
0.00073176
0.000726833
0.000723006
0.000727082
0.00072287
0.000723095
0.000726934
0.000727054
0.000731969
0.000735927
0.000735806
0.000731716
0.000735706
0.000731879
0.000731744
0.000726806
0.000727036
0.000723131
0.000722886
0.000723135
0.000726809
0.00072704
0.000732009
0.000735681
0.000735912
0.000731764
0.000735677
0.000732004
0.00073176
0.000726832
0.000723005
0.000727082
0.00072287
0.000727053
0.000726933
0.000723094
0.000731968
0.000735926
0.000735806
0.000731715
0.000735705
0.000731743
0.000731879
0.000726805
0.000727036
0.000723131
0.000722886
0.000726808
0.00072704
0.000723135
0.0007318
0.000732239
0.000735713
0.000731978
0.000731974
0.000709253
0.000708813
0.000705346
0.000705346
0.000705171
0.00070909
0.000709091
0.000696289
0.000696728
0.000700209
0.00070021
0.000700372
0.000696464
0.000696464
0.000709051
0.000709283
0.000705131
0.000705374
0.000709287
0.000709054
0.000705378
0.000714218
0.000718059
0.000718179
0.000713966
0.000713994
0.000717958
0.000714129
0.000714258
0.000714014
0.000718165
0.000717932
0.00071401
0.00071793
0.000714253
0.000709079
0.000705115
0.000709329
0.00070525
0.000709301
0.000709181
0.000705339
0.000709051
0.000709283
0.00070513
0.000705374
0.000709287
0.000709054
0.000705379
0.000714218
0.000718057
0.000718178
0.000713966
0.000717956
0.000713993
0.000714129
0.000714258
0.000714013
0.000718165
0.000717932
0.000717929
0.000714009
0.000714253
0.000709078
0.000705114
0.000709328
0.000705249
0.0007093
0.000705339
0.000709179
0.000696496
0.000700406
0.000700173
0.000696253
0.000700171
0.000696249
0.000696492
0.000696457
0.00070042
0.0007003
0.000696204
0.000696368
0.000700199
0.000696233
0.000696497
0.000700406
0.000700173
0.000696252
0.00070017
0.000696248
0.000696492
0.000696457
0.00070042
0.000700299
0.000696204
0.000700198
0.000696232
0.000696368
0.000709251
0.000708812
0.000705345
0.000705345
0.00070909
0.00070909
0.00070517
0.000696288
0.000696727
0.000700208
0.000700208
0.000696463
0.000700371
0.000696463
0.000709052
0.000709284
0.000705131
0.000705375
0.000709287
0.000709055
0.00070538
0.000714219
0.000718059
0.000718179
0.000713966
0.000713994
0.000717958
0.00071413
0.000714259
0.000714014
0.000718165
0.000717933
0.00071401
0.00071793
0.000714255
0.000709079
0.000705114
0.00070933
0.00070525
0.000709301
0.000709181
0.000705339
0.000709052
0.000709284
0.000705375
0.000705131
0.000709055
0.000709288
0.000705379
0.000714219
0.00071806
0.000718179
0.000713966
0.000717959
0.000713994
0.000714129
0.000714259
0.000714014
0.000717933
0.000718166
0.000717931
0.000714255
0.00071401
0.00070908
0.000705114
0.00070933
0.00070525
0.000709302
0.000705339
0.000709182
0.000696498
0.000700407
0.000700174
0.000696253
0.000700171
0.000696249
0.000696493
0.000696457
0.00070042
0.0007003
0.000696205
0.000696368
0.000700199
0.000696233
0.000696497
0.000700174
0.000700407
0.000696253
0.000700171
0.000696493
0.000696249
0.000696457
0.000700421
0.000700301
0.000696204
0.0007002
0.000696232
0.000696368
0.000709051
0.000709283
0.000705374
0.00070513
0.000709054
0.000709286
0.000705378
0.000714217
0.000718058
0.000718178
0.000713965
0.000714128
0.000717957
0.000713993
0.000714257
0.000714013
0.000717932
0.000718164
0.000714253
0.000717929
0.000714009
0.000709079
0.000705113
0.000709329
0.000705249
0.000709181
0.0007093
0.000705338
0.000696495
0.000700405
0.000700173
0.000696251
0.00070017
0.000696248
0.000696491
0.000696456
0.000700419
0.000700298
0.000696203
0.000700197
0.000696367
0.000696231
0.000696495
0.000700173
0.000700406
0.000696251
0.00070017
0.000696491
0.000696247
0.000696456
0.000700419
0.0007003
0.000696203
0.000700198
0.000696232
0.000696367
0.000709253
0.000708814
0.000705347
0.000705346
0.000709091
0.000709091
0.000705171
0.000696289
0.000696728
0.00070021
0.00070021
0.000696464
0.000700373
0.000696464
0.000709052
0.000709283
0.000705375
0.00070513
0.000709055
0.000709287
0.000705379
0.000714218
0.000718058
0.000718178
0.000713965
0.000714129
0.000717958
0.000713993
0.000714259
0.000714014
0.000717933
0.000718165
0.000714254
0.00071793
0.00071401
0.000709079
0.000705114
0.000709329
0.00070525
0.00070918
0.0007093
0.000705339
0.000696497
0.000700174
0.000700406
0.000696252
0.000700171
0.000696492
0.000696248
0.000696457
0.000700421
0.0007003
0.000696204
0.000700199
0.000696368
0.000696232
0.000696497
0.000700174
0.000700406
0.000696252
0.000700171
0.000696492
0.000696248
0.000696457
0.00070042
0.000700299
0.000696204
0.000700198
0.000696232
0.000696368
0.000696288
0.000696727
0.000700209
0.000700209
0.000700371
0.000696463
0.000696463
0.000680626
0.000680575
0.000680576
0.000682161
0.000645048
0.000645
0.000645
0.00064659
0.000609432
0.000609388
0.000609388
0.000610981
0.000573782
0.000573741
0.00057374
0.000575337
0.000538097
0.000538061
0.000538059
0.000539659
0.000502378
0.000502345
0.000502343
0.000503947
0.000466621
0.000466592
0.00046659
0.000468197
0.000430824
0.000430798
0.000430796
0.000432407
0.000394982
0.000394959
0.000394958
0.000396572
0.000359089
0.000359068
0.000359068
0.000360685
0.000323142
0.000323123
0.000323123
0.000324744
0.000287137
0.000287121
0.000287121
0.000288746
0.000251076
0.000251061
0.000251061
0.000252689
0.000214959
0.000214945
0.000214945
0.000216577
0.000178795
0.000178781
0.000178782
0.000180417
0.000142594
0.000142581
0.000142582
0.000144218
0.000106362
0.000106348
0.000106348
0.00010799
7.01125e-05
7.00864e-05
7.00865e-05
7.17273e-05
3.44891e-05
3.39537e-05
3.39508e-05
3.54228e-05
1.1364e-05
7.47662e-06
7.47215e-06
5.92673e-06
0.000687843
0.000689462
0.000689462
0.000687842
0.000689463
0.000689463
0.000689462
0.000689462
0.000687843
0.000689463
0.000689462
0.000687841
0.000682162
0.000652277
0.000680575
0.000680575
0.000653898
0.000653897
0.000682161
0.000652276
0.000680576
0.000680576
0.000653898
0.000653898
0.000680575
0.000653897
0.000653897
0.000682162
0.000652277
0.000680575
0.000653898
0.000653897
0.000652276
0.00064659
0.000616673
0.000645
0.000645
0.000618295
0.000618294
0.00064659
0.000616673
0.000645001
0.000645
0.000618295
0.000618294
0.000645
0.000618294
0.000618294
0.00064659
0.000616673
0.000645
0.000618294
0.000618294
0.000616672
0.000610981
0.000581034
0.000609388
0.000609388
0.000582656
0.000582656
0.000610981
0.000581035
0.000609388
0.000609388
0.000582656
0.000582655
0.000609387
0.000582656
0.000582656
0.000610981
0.000581033
0.000609387
0.000582655
0.000582655
0.000581033
0.000575337
0.000545361
0.000573741
0.000573741
0.000546983
0.000546984
0.000575337
0.000545362
0.000573741
0.00057374
0.000546983
0.000546982
0.000573741
0.000546984
0.000546983
0.000575336
0.00054536
0.00057374
0.000546982
0.000546983
0.00054536
0.000539659
0.000509653
0.00053806
0.00053806
0.000511276
0.000511277
0.000539659
0.000509654
0.00053806
0.000538059
0.000511276
0.000511276
0.00053806
0.000511277
0.000511277
0.000539658
0.000509653
0.00053806
0.000511275
0.000511276
0.000509653
0.000503946
0.000473909
0.000502344
0.000502345
0.000475533
0.000475533
0.000503947
0.00047391
0.000502344
0.000502343
0.000475532
0.000475532
0.000502345
0.000475534
0.000475533
0.000503946
0.000473908
0.000502344
0.000475532
0.000475533
0.000473909
0.000468196
0.000438125
0.000466591
0.000466592
0.000439749
0.00043975
0.000468197
0.000438126
0.00046659
0.00046659
0.000439749
0.000439749
0.000466591
0.00043975
0.00043975
0.000468196
0.000438124
0.000466591
0.000439748
0.000439749
0.000438125
0.000432406
0.000402296
0.000430797
0.000430798
0.000403921
0.000403922
0.000432407
0.000402298
0.000430796
0.000430796
0.000403921
0.000403921
0.000430798
0.000403922
0.000403923
0.000432405
0.000402296
0.000430797
0.000403922
0.000403922
0.000402297
0.00039657
0.000366418
0.000394958
0.000394958
0.000368045
0.000368045
0.000396571
0.000366419
0.000394957
0.000394957
0.000368044
0.000368044
0.000394959
0.000368045
0.000368045
0.000396571
0.000366418
0.000394959
0.000368045
0.000368045
0.000366419
0.000360684
0.000330486
0.000359068
0.000359068
0.000332114
0.000332114
0.000360684
0.000330486
0.000359067
0.000359067
0.000332113
0.000332114
0.000359068
0.000332114
0.000332114
0.000360685
0.000330486
0.000359068
0.000332114
0.000332114
0.000330486
0.000324743
0.000294497
0.000323123
0.000323123
0.000296126
0.000296126
0.000324743
0.000294497
0.000323122
0.000323123
0.000296125
0.000296126
0.000323123
0.000296126
0.000296126
0.000324744
0.000294497
0.000323123
0.000296126
0.000296126
0.000294497
0.000288745
0.00025845
0.000287121
0.000287121
0.00026008
0.00026008
0.000288745
0.00025845
0.00028712
0.000287121
0.00026008
0.00026008
0.000287121
0.00026008
0.00026008
0.000288745
0.000258449
0.000287121
0.00026008
0.00026008
0.00025845
0.000252689
0.000222347
0.000251061
0.000251061
0.000223978
0.000223978
0.000252689
0.000222347
0.000251061
0.000251061
0.000223978
0.000223978
0.000251061
0.000223978
0.000223978
0.000252689
0.000222346
0.000251061
0.000223977
0.000223978
0.000222346
0.000216576
0.000186194
0.000214945
0.000214945
0.000187825
0.000187825
0.000216576
0.000186193
0.000214945
0.000214945
0.000187825
0.000187825
0.000214946
0.000187825
0.000187826
0.000216576
0.000186194
0.000214945
0.000187826
0.000187825
0.000186194
0.000180416
0.000150003
0.000178781
0.000178781
0.000151634
0.000151634
0.000180415
0.000150002
0.000178782
0.000178782
0.000151635
0.000151635
0.000178782
0.000151634
0.000151634
0.000180416
0.000150003
0.000178782
0.000151635
0.000151634
0.000150002
0.000144219
0.000113781
0.000142582
0.000142581
0.000115413
0.000115412
0.000144218
0.00011378
0.000142582
0.000142582
0.000115413
0.000115413
0.000142581
0.000115411
0.000115411
0.000144219
0.00011378
0.000142581
0.000115412
0.000115411
0.000113779
0.000107991
7.75261e-05
0.00010635
0.000106349
7.91622e-05
7.91625e-05
0.00010799
7.75253e-05
0.00010635
0.00010635
7.91642e-05
7.91612e-05
0.000106348
7.91611e-05
7.91613e-05
0.00010799
7.75247e-05
0.000106348
7.91612e-05
7.9161e-05
7.7524e-05
7.17276e-05
4.12305e-05