/*--------------------------------*- C++ -*----------------------------------*\
| =========                 |                                                 |
| \\      /  F ield         | OpenFOAM: The Open Source CFD Toolbox           |
|  \\    /   O peration     | Version:  2312                                  |
|   \\  /    A nd           | Website:  www.openfoam.com                      |
|    \\/     M anipulation  |                                                 |
\*---------------------------------------------------------------------------*/
FoamFile
{
    version     2.0;
    format      ascii;
    arch        "LSB;label=32;scalar=64";
    class       surfaceScalarField;
    location    "350";
    object      phi;
}
// * * * * * * * * * * * * * * * * * * * * * * * * * * * * * * * * * * * * * //

dimensions      [0 3 -1 0 0 0 0];

oriented        oriented;

internalField   nonuniform List<scalar> 
125280
(
9.99203e-08
9.11577e-08
-0.00118403
-6.01077e-08
-6.25021e-08
0.00118396
-0.00113198
-1.20347e-06
-8.60005e-08
-7.94196e-08
0.001132
-2.43615e-07
1.23366e-06
2.70653e-07
9.04488e-07
-2.21483e-07
-8.61783e-07
2.62763e-07
-0.00113191
-1.19844e-06
-9.74858e-08
-3.21583e-08
0.00113189
-2.41299e-07
1.23063e-06
2.70261e-07
9.04744e-07
-2.21347e-07
-8.58969e-07
2.6292e-07
-0.00027004
1.23012e-06
1.19253e-06
-2.02022e-07
-2.0585e-07
0.000268026
-1.27514e-06
-1.23455e-06
0.000270115
-0.000268082
2.35011e-07
2.41505e-07
0.00113149
-1.00106e-07
-0.00113151
-3.19451e-08
-1.24095e-06
2.725e-07
-2.47181e-07
-8.61116e-07
2.60951e-07
-2.17859e-07
9.08181e-07
1.27302e-06
0.00113155
8.16943e-08
-0.00113172
-5.53141e-08
-1.23563e-06
2.75938e-07
-2.44049e-07
-8.66579e-07
2.57808e-07
-2.20992e-07
9.07598e-07
-1.21229e-06
0.00027009
-0.000268076
2.29426e-07
2.41808e-07
0.00113251
-9.75471e-08
-0.00113252
-4.1788e-08
-1.19778e-06
2.71589e-07
-2.40282e-07
-8.64433e-07
2.62809e-07
-2.21619e-07
9.09997e-07
1.26754e-06
0.00113145
-9.29139e-08
-0.00113147
-4.28641e-08
-1.23268e-06
2.75859e-07
-2.46822e-07
-8.6394e-07
2.60564e-07
-2.21006e-07
9.10416e-07
-4.01432e-08
-2.12409e-07
-1.26215e-06
2.68175e-07
-2.49e-07
-8.64452e-07
2.6029e-07
9.02096e-07
-2.24001e-07
-0.00113177
1.26704e-06
0.00113105
-7.59725e-08
-3.74109e-08
-1.22725e-06
2.75411e-07
-2.44312e-07
-8.61127e-07
2.60712e-07
-2.20738e-07
9.02401e-07
-0.00113109
-1.23356e-06
0.000270078
-0.000268056
2.37093e-07
2.41878e-07
-9.79565e-08
-0.00113195
-2.12303e-08
-1.19829e-06
2.70503e-07
-2.41131e-07
-8.58752e-07
2.6317e-07
9.05007e-07
-2.2116e-07
1.22611e-06
0.00113202
-9.74852e-08
-0.00113199
-7.41888e-08
-1.19785e-06
2.71364e-07
-2.43225e-07
-8.61622e-07
2.62708e-07
-2.21571e-07
9.07123e-07
-0.000268024
2.34757e-07
2.41625e-07
1.24115e-06
1.19786e-06
-1.99359e-07
-2.08567e-07
0.000268084
-3.71395e-08
0.00113148
-2.4463e-07
1.27488e-06
2.72262e-07
9.07919e-07
-2.18025e-07
-8.61271e-07
2.60725e-07
-1.238e-06
-8.74981e-08
-3.86226e-08
0.00113152
-2.46789e-07
1.27281e-06
2.75877e-07
9.10016e-07
-2.21265e-07
-8.641e-07
2.62884e-07
-2.07772e-07
-2.05335e-07
0.000268062
-4.17722e-08
0.00113249
-2.40408e-07
1.23439e-06
2.71425e-07
9.09725e-07
-2.21869e-07
-8.64661e-07
2.62522e-07
-1.23277e-06
-9.25815e-08
-3.70523e-08
0.00113143
-2.46914e-07
1.26736e-06
2.757e-07
9.10155e-07
-2.18524e-07
-8.64164e-07
2.60299e-07
-9.91318e-08
-3.7193e-08
0.00113104
-2.44429e-07
1.26412e-06
2.72446e-07
9.02209e-07
-2.18195e-07
2.57816e-07
-8.55914e-07
-2.02852e-07
-2.07877e-07
0.000268057
-9.70865e-08
-5.77071e-08
0.00113203
-2.40496e-07
1.22867e-06
2.71249e-07
9.0682e-07
-2.21814e-07
2.62432e-07
-8.61823e-07
6.08013e-09
-4.19074e-08
0.000193691
4.20695e-09
-0.00019366
7.75513e-09
-4.1009e-08
0.000193682
-0.00019365
-0.00118411
-5.43804e-08
-6.2182e-08
0.00118368
-0.00118326
-1.41074e-07
-2.41671e-07
0.0011836
-0.00118368
-7.10253e-08
-3.73491e-08
0.00118351
-0.00118352
-8.32119e-08
-8.42943e-08
9.11314e-10
-6.56489e-08
0.000229423
-0.000229387
2.79951e-08
7.70169e-10
-0.000193723
-5.71086e-09
2.4646e-08
-3.13034e-09
0.000193707
-0.000229393
1.04389e-09
3.27815e-08
0.000229372
-1.29187e-08
1.78652e-11
6.14039e-09
-4.13504e-08
0.000193754
4.09825e-09
-0.000193723
-9.80706e-05
4.30682e-09
1.52806e-08
9.8051e-05
-7.61938e-09
-2.02384e-08
9.80872e-05
-9.80593e-05
-6.548e-08
-8.44284e-10
0.00022942
-0.000229384
2.73242e-09
2.78746e-08
-0.000193713
-4.245e-09
2.55232e-08
-5.33959e-09
0.000193697
-0.000229391
3.29604e-08
-5.88336e-10
0.00022937
1.6372e-09
-1.30377e-08
7.55974e-09
-4.05149e-08
0.000193743
1.95989e-09
-0.000193712
-7.15888e-08
-1.08312e-07
0.00118369
-5.94802e-08
-4.90053e-08
0.00118351
-6.59561e-08
-7.89764e-08
0.00118346
6.53018e-08
-2.29239e-09
0.000250224
-0.000250105
3.9611e-09
-1.86114e-07
-0.000245546
-1.28878e-08
-2.52187e-08
7.09568e-08
4.79927e-09
0.000245509
0.00115203
-0.00115211
-1.41873e-08
-1.00952e-07
9.98164e-07
-7.61588e-07
-9.43397e-07
8.20326e-07
-4.57204e-08
1.23618e-06
0.001132
-9.69905e-08
-8.59219e-07
2.62554e-07
-2.21645e-07
9.04348e-07
-1.2009e-06
2.70469e-07
-2.41017e-07
-0.000250205
-3.28871e-08
3.55238e-10
0.000250097
2.73208e-09
1.38398e-07
2.22121e-08
4.07835e-08
0.000245576
-1.576e-08
-0.000245524
-9.99267e-08
-1.11671e-08
0.001152
-1.18404e-07
-9.4071e-07
8.17454e-07
-7.61641e-07
9.95302e-07
-9.80644e-05
5.02724e-09
1.23753e-08
9.8047e-05
-6.94738e-09
-1.84737e-08
9.80804e-05
-9.8055e-05
3.1201e-10
6.52692e-08
0.000250213
-0.000250094
-1.86063e-07
2.41532e-09
0.00115187
-0.00115191
1.50633e-08
-1.18251e-07
9.98312e-07
-7.64307e-07
-9.40587e-07
8.20348e-07
-0.000245537
-1.35418e-08
-2.49138e-08
6.83165e-08
5.70656e-09
0.000245501
-3.73263e-08
1.2304e-06
0.00113188
-9.69603e-08
-8.59154e-07
2.62714e-07
-2.2152e-07
9.04522e-07
-1.1959e-06
2.70048e-07
-2.41474e-07
-0.000250192
2.13876e-09
-3.29048e-08
0.000250084
1.38413e-07
5.44995e-10
1.80133e-09
0.00115184
-1.18078e-07
-9.40737e-07
8.20125e-07
-7.61712e-07
9.98078e-07
2.14767e-08
4.10626e-08
0.000245565
-1.48183e-08
-0.000245515
-9.77316e-08
-0.000278292
1.39728e-08
-1.17345e-08
2.51231e-08
-8.1484e-09
0.000278272
-0.000278214
1.17421e-08
-1.34164e-08
2.63871e-08
-5.8785e-09
0.000278196
-1.2639e-06
-1.22854e-06
0.000270045
-0.000268028
2.36993e-07
2.38484e-07
-2.123e-08
1.92918e-08
0.000278331
8.74552e-09
-0.00027829
-4.80644e-08
-2.3495e-08
1.75452e-08
0.000278253
1.20151e-08
-0.000278215
-4.4433e-08
-1.98172e-08
9.80748e-05
-9.80489e-05
-1.81048e-08
9.80653e-05
-9.80394e-05
0.000270111
-1.27569e-06
-1.23758e-06
-0.000268076
2.35407e-07
2.42111e-07
0.000278306
-2.12438e-08
1.10895e-08
-0.000278267
-4.87952e-08
0.000278243
-2.11502e-08
1.12899e-08
-0.000278204
-4.75184e-08
-1.96136e-08
-6.08186e-09
9.80918e-05
-9.80661e-05
1.14958e-08
5.72942e-09
9.80576e-05
-1.80143e-08
-7.63928e-09
9.80821e-05
-9.80565e-05
1.30881e-08
4.15237e-09
9.8048e-05
1.24076e-06
1.20039e-06
0.000268077
-1.99119e-07
-2.08132e-07
-2.10777e-08
0.000278346
-4.84708e-08
-0.000278307
1.11408e-08
-2.09693e-08
0.000278283
-4.71649e-08
-0.000278244
1.11932e-08
1.39819e-08
-1.08518e-08
2.70277e-08
0.000278287
9.43953e-09
-5.53907e-09
2.82547e-08
0.000278224
0.00113152
-1.00331e-07
-1.24061e-06
2.73051e-07
-2.44063e-07
-8.60822e-07
2.6406e-07
-2.20287e-07
9.0863e-07
-3.28696e-08
0.000245517
-1.47798e-08
-0.000245464
-1.01374e-07
8.8396e-10
3.24571e-08
-1.27794e-08
-8.64599e-11
0.000229341
-0.000229362
-4.16406e-08
-0.000193692
4.21011e-09
2.4388e-08
-3.10218e-09
0.000193676
8.4412e-10
-6.60217e-08
-0.000229357
2.81801e-08
8.1366e-10
3.25418e-08
-1.28524e-08
1.55222e-09
0.000229301
-0.000229322
-4.30591e-08
7.50536e-09
0.000193662
-0.000193629
2.0323e-09
2.7287e-08
-4.45369e-09
-5.29825e-09
0.000193613
-0.00019363
-6.59344e-08
0.000229353
-0.000229317
2.81071e-08
2.80476e-09
1.38006e-09
1.50737e-09
1.3785e-07
0.000250085
-0.000250193
-4.37318e-08
-1.00265e-07
1.27541e-06
-2.44235e-07
2.75506e-07
9.08373e-07
-2.1769e-07
2.61189e-07
-8.60996e-07
0.000245548
-1.00957e-07
-0.000245495
-1.45468e-08
-0.00115239
1.59582e-09
0.00115236
-1.19839e-07
-9.42952e-07
8.23783e-07
-7.63871e-07
1.00183e-06
5.97667e-09
6.9934e-08
0.00024548
4.2416e-10
-1.25435e-07
1.00199e-06
-7.63808e-07
-9.42915e-07
8.23965e-07
-0.00115243
-1.40123e-10
0.000250215
-0.000250095
1.80162e-09
-1.8695e-07
1.43164e-09
1.37932e-07
0.00025006
-0.000250165
-2.13679e-08
-1.24331e-06
-2.87126e-07
9.13238e-07
-2.15448e-07
-8.61051e-07
2.63419e-07
1.27618e-06
-2.49285e-07
2.76221e-07
-0.00113157
2.27165e-08
0.000245443
-1.00299e-07
-0.00024539
-1.85081e-08
-0.00115236
0.00115229
-9.62949e-08
-9.51051e-07
8.23679e-07
-7.66643e-07
1.00414e-06
-1.24423e-08
6.94938e-09
7.04391e-08
0.000245374
-0.000245412
-1.54295e-07
1.00984e-06
-7.6383e-07
-9.45468e-07
8.26627e-07
-0.00115235
0.000250187
-0.000250071
4.8186e-09
-1.86879e-07
-2.05114e-08
-9.80426e-05
1.50062e-08
9.8034e-05
-9.80535e-05
0.000268074
-1.92019e-07
-0.000270091
1.17617e-06
-2.10296e-07
0.000278216
-4.52895e-08
-0.00027818
1.12324e-08
1.87007e-08
-2.24639e-08
0.000278359
-4.54221e-08
-0.000278321
1.04061e-08
2.54394e-08
0.00027816
-0.000278176
-6.96099e-09
-7.07888e-09
9.80874e-05
-9.80616e-05
0.00113254
-9.8656e-08
-1.20038e-06
2.71897e-07
-2.4013e-07
2.63404e-07
-2.21153e-07
0.000245491
-0.000245435
-9.81546e-08
3.25771e-08
-6.75258e-10
1.75808e-09
-1.28384e-08
0.00022934
-4.07339e-08
-0.000193681
1.85237e-09
2.52937e-08
-5.4593e-09
0.000193666
-6.58935e-08
-9.38533e-10
-0.000229355
2.85287e-09
2.81034e-08
8.15686e-10
2.40093e-09
1.37996e-07
0.000250089
-4.18161e-08
-9.81864e-08
1.23743e-06
-2.40189e-07
2.71757e-07
9.10292e-07
-2.21374e-07
2.63109e-07
-8.64196e-07
0.000245521
-9.76529e-08
-0.000245465
-1.91733e-08
-0.00115226
-6.25144e-09
0.00115223
-1.18689e-07
-9.45919e-07
8.23468e-07
-7.64117e-07
1.00394e-06
6.38386e-09
6.84892e-08
0.00024545
1.50506e-09
-1.13101e-07
1.00423e-06
-7.63969e-07
-9.45759e-07
8.23751e-07
-2.51189e-09
0.000250218
-0.000250099
4.46157e-09
-1.86741e-07
3.24919e-08
-1.27808e-08
7.78112e-11
0.0002293
-4.12047e-08
6.8529e-09
0.000193652
-0.000193621
3.21722e-09
2.4663e-08
-5.11833e-09
-3.84603e-09
0.000193606
-6.59729e-08
0.00022935
-0.000229315
2.8161e-08
1.37236e-09
1.37911e-07
4.38474e-10
0.000250062
-3.75703e-08
-1.23258e-06
-9.34907e-08
9.10706e-07
-2.2077e-07
-8.63717e-07
2.63572e-07
1.26775e-06
-2.4669e-07
2.76079e-07
-0.00115221
0.00115215
-1.13324e-07
-9.45667e-07
8.23613e-07
-7.64022e-07
1.00423e-06
2.20813e-08
0.000245433
-9.57264e-08
-0.000245385
-1.52903e-08
-1.07614e-07
1.00451e-06
-7.63885e-07
-9.45508e-07
8.23881e-07
-1.32576e-08
5.43956e-09
6.78617e-08
0.000245371
0.000250188
-0.000250072
-1.86848e-07
3.12099e-09
4.09878e-08
-9.785e-08
-0.000245496
-1.59905e-08
-4.09314e-08
-4.75519e-08
-9.48844e-07
8.20532e-07
9.98377e-07
-7.66946e-07
-0.00115233
6.56476e-08
-2.60883e-09
-0.000250086
4.50437e-09
-1.86527e-07
0.000193712
-0.00019368
2.49565e-09
-8.00197e-10
0.00022938
-0.000229346
2.4089e-09
3.00979e-08
0.001152
-9.55769e-08
-9.42966e-07
8.17942e-07
-7.64096e-07
9.95878e-07
-0.00115209
4.14752e-08
2.13952e-08
0.000245464
-9.59228e-08
-0.000245416
-1.48562e-08
6.57838e-08
0.000250176
-0.000250058
-1.89234e-07
2.91213e-09
6.27636e-09
0.000193651
-0.000193619
3.84101e-09
0.000229342
-0.000229306
2.80604e-08
1.15701e-09
-1.87018e-08
-9.80388e-05
1.21642e-08
9.80305e-05
1.20082e-06
0.000268054
-2.02469e-07
-2.07626e-07
0.000278218
-4.31896e-08
-0.000278182
1.04083e-08
1.90762e-08
-2.1669e-08
0.000278352
-4.55716e-08
-0.000278313
9.83163e-09
-7.49205e-09
2.30394e-08
0.000278163
-1.19728e-08
1.10196e-08
-7.89984e-09
2.52288e-08
0.000278296
-6.51196e-09
9.80866e-05
-9.8061e-05
5.31145e-09
9.80527e-05
2.4187e-09
-3.2556e-08
1.38069e-07
7.08509e-10
0.000250064
-3.30997e-08
-9.83806e-08
1.23382e-06
-2.43694e-07
2.70744e-07
9.05268e-07
-2.20931e-07
-8.58587e-07
2.63429e-07
-0.00115196
2.37553e-08
-1.18421e-07
-9.40407e-07
8.20619e-07
9.98588e-07
-7.58691e-07
4.13289e-08
-9.81502e-08
-0.000245486
-1.50342e-08
5.87932e-08
-1.12763e-07
9.98788e-07
-7.61309e-07
-9.40313e-07
8.1811e-07
-2.46562e-08
5.53849e-09
6.7968e-08
0.000245469
5.94997e-10
6.56894e-08
-0.000250074
-1.86572e-07
2.08942e-09
-3.25905e-08
1.38144e-07
2.52632e-09
0.000250039
-2.39919e-07
-1.27257e-06
-7.55842e-08
9.04657e-07
-2.21311e-07
-8.61476e-07
2.63063e-07
1.1992e-06
-2.56911e-07
2.68721e-07
-0.00115188
0.00115182
-1.12426e-07
-9.43117e-07
8.20435e-07
-7.5878e-07
1.00081e-06
4.05167e-08
2.35804e-08
0.000245431
-9.75277e-08
-0.00024538
-1.68859e-08
-7.10595e-08
9.98328e-07
-7.61411e-07
-9.43104e-07
8.17936e-07
-2.54008e-08
-1.17504e-08
3.95271e-09
6.85037e-08
0.000245365
6.5515e-08
0.000250165
-0.000250049
-1.8643e-07
6.18758e-09
1.26142e-09
-1.64414e-10
-1.49235e-08
0.000229321
0.000193706
-0.000193675
3.69044e-09
-3.58172e-09
0.000193659
1.03713e-09
0.00022937
-0.000229336
7.65715e-10
3.01308e-08
2.01289e-09
-1.70924e-08
0.000229284
8.01699e-09
0.000193644
-0.000193613
1.20912e-09
-3.96938e-09
-5.74374e-09
0.000193597
0.000229329
-0.000229298
3.36536e-09
3.21213e-08
0.000268036
-2.08088e-07
1.23028e-06
-2.14811e-07
1.9461e-08
-4.60374e-08
-0.000278252
8.73143e-09
1.76859e-08
-4.47838e-08
-0.000278176
1.20457e-08
-1.32473e-08
2.60138e-08
0.000278156
-5.90743e-09
9.80647e-05
-9.8039e-05
9.80604e-05
-9.80347e-05
9.80262e-05
1.16745e-08
9.80744e-05
-1.93844e-08
9.81081e-05
-9.80826e-05
1.31472e-08
9.80647e-05
-1.79377e-08
9.80984e-05
-9.80729e-05
1.41014e-08
2.7307e-08
-1.07728e-08
0.000278327
9.59467e-09
2.85677e-08
-5.64597e-09
0.000278263
0.00027012
-1.27464e-06
-1.23424e-06
-0.000268086
2.34619e-07
2.40953e-07
0.000278385
-2.09774e-08
1.12403e-08
-0.000278347
-4.81305e-08
0.000278321
-2.07602e-08
1.10328e-08
-0.000278283
-4.68301e-08
1.18838e-08
5.62326e-09
9.80906e-05
1.31864e-08
4.32334e-09
9.80809e-05
1.24147e-06
1.198e-06
0.000268089
-1.99571e-07
-2.08924e-07
1.4153e-08
-1.06463e-08
2.75986e-08
0.000278366
9.77696e-09
-5.79695e-09
2.88362e-08
0.000278302
-6.55532e-08
0.000229383
-0.000229347
2.79131e-08
2.90484e-09
2.75905e-08
-5.5097e-09
0.000193645
3.28711e-08
0.000229332
-1.30024e-08
1.65391e-09
-4.27267e-08
0.000193693
1.83918e-09
-0.00019366
-1.6036e-11
0.000250236
-0.000250117
1.65101e-09
-1.86508e-07
7.02537e-08
6.15995e-09
0.00024551
0.00115232
7.93532e-09
-1.20169e-07
1.0016e-06
-7.63994e-07
-9.431e-07
8.23576e-07
-3.08906e-08
0.00113146
-9.96403e-08
-1.24132e-06
2.72048e-07
-2.44789e-07
-8.61409e-07
2.60511e-07
-2.18183e-07
9.07722e-07
1.67363e-09
0.000250106
1.33892e-09
1.38148e-07
0.000245578
-1.44113e-08
-0.000245525
-1.00542e-07
-9.63434e-10
0.00115229
-1.20191e-07
-9.43193e-07
8.23399e-07
-7.64077e-07
1.0014e-06
0.000250208
-0.000250092
4.9398e-09
-1.86413e-07
-1.23505e-08
7.08761e-08
4.39363e-09
0.000245407
0.00115226
-1.14216e-07
1.0039e-06
-7.64046e-07
-9.4573e-07
8.23461e-07
-4.42204e-08
0.00113151
1.2727e-06
-9.84724e-08
-8.66951e-07
2.62623e-07
9.12429e-07
-2.21488e-07
-1.23539e-06
2.75754e-07
-2.44099e-07
0.000250081
1.5697e-09
1.38234e-07
0.000245473
2.27695e-08
-1.61332e-08
-0.000245423
-9.98398e-08
0.00115221
-1.19941e-07
-9.48586e-07
8.23258e-07
-7.64147e-07
1.00638e-06
1.09402e-09
3.30613e-08
-1.30634e-08
-8.26616e-12
0.000229402
2.48925e-08
-3.27698e-09
0.000193738
3.31566e-08
-1.3146e-08
1.76218e-09
0.000229362
2.78899e-08
-4.19927e-09
-5.68361e-09
0.000193675
1.7296e-09
1.45275e-09
1.38433e-07
0.000250128
-3.60684e-08
-9.93621e-08
1.27441e-06
-2.44958e-07
2.71835e-07
9.07513e-07
-2.18369e-07
2.60277e-07
-8.61567e-07
0.00113145
6.24346e-09
7.05683e-08
0.00024554
5.64642e-09
-1.2042e-07
1.00118e-06
-7.64208e-07
-9.43338e-07
8.23188e-07
0.00115225
1.45271e-09
1.38541e-07
0.000250103
-3.86114e-08
-1.23816e-06
-9.80714e-08
9.12186e-07
-2.2171e-07
-8.67155e-07
2.62365e-07
1.27257e-06
-2.46883e-07
2.7565e-07
0.0011315
-1.22708e-08
4.31574e-09
7.12687e-08
0.000245438
-1.20069e-07
1.00615e-06
-7.64286e-07
-9.48741e-07
8.23055e-07
0.00115218
2.58115e-08
-6.7269e-09
0.0002782
-1.24494e-08
2.57618e-08
-7.51197e-09
0.000278341
0.0002701
-0.000268067
2.36713e-07
2.38892e-07
0.000278256
1.14296e-08
-0.00027822
-4.48881e-08
1.86849e-08
0.000278402
9.6944e-09
-0.000278361
-4.75195e-08
4.90581e-09
9.80701e-05
9.8104e-05
-6.95999e-09
-9.80784e-05
1.55079e-08
9.80675e-05
1.20104e-06
0.000268069
-2.02921e-07
-2.05474e-07
-6.53089e-09
2.61661e-08
0.00027824
-1.2432e-08
1.31214e-08
-7.2111e-09
2.8201e-08
0.00027838
5.00155e-09
9.80866e-05
-2.47085e-09
0.000250238
-0.00025012
4.38167e-09
-1.86226e-07
6.88921e-08
6.51905e-09
0.00024548
0.00115218
8.49268e-10
-1.12824e-07
1.00367e-06
-7.64301e-07
-9.46119e-07
8.23203e-07
-4.16616e-08
0.00113247
-9.61693e-08
-1.19793e-06
2.71273e-07
-2.40501e-07
-8.64857e-07
2.62271e-07
-2.22081e-07
9.09475e-07
8.49514e-10
0.000250109
2.33736e-09
1.38395e-07
0.00024555
-1.89912e-08
-0.000245495
-9.72053e-08
-6.53011e-09
0.00115214
-1.12459e-07
-9.46277e-07
8.22955e-07
-7.64438e-07
1.00341e-06
-6.55589e-08
0.00022938
-0.000229344
2.79044e-08
1.45263e-09
2.4973e-08
-4.01869e-09
0.000193636
3.28668e-08
0.00022933
-1.29932e-08
1.50488e-10
-4.0897e-08
0.000193682
3.03403e-09
-0.000193651
0.000250208
-0.000250093
-1.86344e-07
3.12998e-09
0.00115212
-1.19241e-07
1.00397e-06
-7.64186e-07
-9.4584e-07
8.23362e-07
-1.32732e-08
6.58681e-08
5.49313e-09
0.0002454
-3.6777e-08
0.00113142
1.26718e-06
-9.75813e-08
-8.64362e-07
2.60032e-07
9.09885e-07
-2.18734e-07
-1.23285e-06
2.75542e-07
-2.47017e-07
0.000250083
1.3829e-07
4.48094e-10
0.00115207
-1.13015e-07
-9.45997e-07
8.23114e-07
-7.64317e-07
1.0037e-06
0.000245462
2.20472e-08
-1.5252e-08
-0.000245414
-9.52619e-08
3.32959e-08
-4.79252e-10
1.51365e-09
-1.32246e-08
0.000229399
2.57104e-08
-5.23145e-09
0.000193727
9.12197e-10
2.2488e-09
1.41342e-07
0.000250127
-4.16493e-08
-9.54934e-08
1.23409e-06
-2.40612e-07
2.71115e-07
9.09219e-07
-2.22294e-07
2.62008e-07
-8.6506e-07
0.00113246
6.68312e-09
6.92254e-08
0.000245509
8.05535e-10
-1.18132e-07
1.00314e-06
-7.64614e-07
-9.46463e-07
8.22674e-07
0.0011521
3.32062e-08
-1.3187e-08
2.4955e-10
0.000229359
2.52616e-08
-4.93284e-09
-4.19088e-09
0.000193666
1.41236e-07
4.81486e-10
0.0002501
-3.65903e-08
-1.23295e-06
-9.69833e-08
9.09621e-07
-2.18974e-07
-8.6458e-07
2.59755e-07
1.267e-06
-2.47132e-07
2.75385e-07
0.0011314
-1.18712e-07
1.00344e-06
-7.64491e-07
-9.46181e-07
8.22834e-07
0.00115204
-1.32824e-08
5.52115e-09
6.62526e-08
0.000245429
-6.56997e-10
0.00022941
-0.000229376
2.32459e-09
2.98968e-08
-4.47836e-09
0.000193696
-7.1135e-10
0.000229361
1.60074e-09
-1.51359e-08
0.000193742
2.60751e-09
-0.000193711
6.54344e-08
0.000250194
-0.000250078
-1.86241e-07
2.86202e-09
0.00115195
-1.13351e-07
9.95703e-07
-7.58721e-07
8.17765e-07
-9.37655e-07
-2.47333e-08
6.799e-08
5.8899e-09
0.000245429
-3.11925e-08
0.00113101
-9.30159e-08
-1.23027e-06
2.7224e-07
-2.44555e-07
-8.56045e-07
2.57621e-07
-2.15601e-07
9.02019e-07
-3.28731e-08
0.000250068
1.40895e-07
3.63938e-11
0.0011519
-1.13142e-07
-9.40453e-07
8.20326e-07
-7.6153e-07
9.98222e-07
4.1233e-08
0.000245494
-1.47014e-08
-0.000245442
-1.00386e-07
0.000229372
-0.000229336
2.78526e-08
1.17512e-09
-5.56131e-09
-3.43327e-09
0.000193635
0.000229321
-1.29977e-08
6.72186e-11
0.000193682
6.29621e-09
3.78134e-09
-0.000193651
-3.31366e-08
8.35843e-10
2.1682e-09
1.38626e-07
0.000250115
-4.5499e-08
-9.65787e-08
1.23596e-06
-2.41171e-07
2.70262e-07
9.04157e-07
-2.21813e-07
-8.59407e-07
2.62333e-07
0.00113199
-2.53544e-08
4.96587e-09
7.11997e-08
0.000245539
1.15773e-11
-1.18305e-07
9.9777e-07
-7.59011e-07
-9.38147e-07
8.19969e-07
0.00115195
-5.29626e-10
1.5206e-09
-1.52652e-08
0.000229391
-4.38181e-09
0.000193726
-3.31197e-08
1.38555e-07
4.85879e-10
0.000250089
-3.6575e-08
-1.2304e-06
-1.04248e-07
9.01826e-07
-2.15759e-07
-8.56193e-07
2.5742e-07
1.26369e-06
-2.44704e-07
2.72058e-07
0.001131
-1.24928e-07
9.9802e-07
-7.61637e-07
-9.40578e-07
8.20124e-07
0.00115187
-2.49349e-08
-1.40167e-08
5.99671e-09
7.0623e-08
0.000245457
-1.31358e-08
9.79613e-11
0.000229351
-5.52975e-09
-3.50053e-09
0.000193666
2.33914e-08
-7.40479e-09
0.000278202
-1.21059e-08
2.55711e-08
-1.05657e-08
0.000278335
0.000270079
-0.000268059
2.36549e-07
2.41472e-07
0.000278256
1.04966e-08
-0.000278221
-4.28141e-08
1.89427e-08
0.00027839
1.23872e-08
-0.000278354
-4.53102e-08
5.32187e-09
9.80692e-05
9.81026e-05
-6.4838e-09
-9.80772e-05
1.258e-08
9.80629e-05
1.19608e-06
0.000268061
-2.03229e-07
-2.08134e-07
-7.29231e-09
2.37185e-08
0.000278239
-1.22105e-08
1.3695e-08
-1.05929e-08
2.58059e-08
0.000278373
5.33718e-09
9.8085e-05
6.51071e-08
0.000250185
-0.00025007
-1.85942e-07
5.77709e-09
0.00115179
-1.18315e-07
1.00055e-06
-7.64376e-07
8.20213e-07
-9.43235e-07
-2.57013e-08
6.89411e-08
3.90751e-09
0.000245395
-4.09364e-08
0.00113201
-9.63959e-08
-1.19257e-06
2.71134e-07
-2.40551e-07
-8.61986e-07
2.62162e-07
-2.22037e-07
9.06565e-07
-3.29549e-08
0.00025006
1.38502e-07
1.68612e-09
0.00115175
-1.1797e-07
-9.43357e-07
8.1998e-07
-7.61759e-07
1.0003e-06
4.02474e-08
0.00024546
-1.68479e-08
-0.00024541
-9.7059e-08
9.45388e-10
0.000229399
-0.000229366
1.1421e-09
2.98789e-08
-3.59989e-09
0.00019369
1.32838e-09
0.000229351
-2.43291e-10
-1.51313e-08
0.000193735
3.69526e-09
-0.000193705
0.000229359
-0.000229328
3.37926e-09
3.18908e-08
-3.91849e-09
-5.87184e-09
0.000193628
0.000229313
1.8601e-09
-1.72912e-08
0.000193675
8.00699e-09
1.19838e-09
-0.000193644
1.8826e-09
-3.32287e-08
1.38749e-07
6.46413e-10
0.000250104
-3.67816e-08
-9.64242e-08
1.23015e-06
-2.41657e-07
2.69812e-07
9.04277e-07
-2.21706e-07
-8.59327e-07
2.6247e-07
0.00113186
7.21557e-09
-1.17884e-07
9.97802e-07
-7.61873e-07
-9.40904e-07
8.19854e-07
0.00115179
-2.5137e-08
5.89075e-09
6.86233e-08
0.00024553
-3.32693e-08
1.38822e-07
1.27086e-09
0.00025008
-4.10571e-08
-1.19262e-06
-9.58683e-08
9.06261e-07
-2.22271e-07
-8.62189e-07
2.61919e-07
1.22843e-06
-2.40626e-07
2.71014e-07
0.001132
-1.17896e-07
1.00004e-06
-7.61917e-07
-9.43533e-07
8.19725e-07
0.00115172
-2.59354e-08
-1.18181e-08
3.93275e-09
6.93148e-08
0.000245425
1.24455e-09
-2.93176e-10
-1.53156e-08
0.00022938
-3.6052e-09
0.000193719
1.64308e-09
-1.74698e-08
0.000229343
-3.94273e-09
-5.86101e-09
0.000193659
9.80474e-05
9.80813e-05
-9.80557e-05
9.80431e-05
9.80768e-05
-9.80513e-05
0.00026803
-2.02192e-07
-2.06204e-07
-1.18764e-08
-8.08848e-09
2.76411e-08
0.000278309
-1.35099e-08
-5.91934e-09
2.6673e-08
0.000278234
9.80639e-05
9.80594e-05
1.70699e-08
7.9299e-05
6.959e-10
-0.000263288
2.41902e-08
0.000263331
-5.92885e-08
-3.21246e-09
-3.11992e-09
-5.71978e-09
2.4268e-08
3.54171e-08
5.56388e-11
7.9324e-05
-8.4246e-10
-4.10177e-09
2.51826e-08
-1.10366e-10
1.39813e-08
0.000143456
-0.000143469
-6.35775e-10
-1.29814e-08
-1.88881e-10
-0.000229408
9.25338e-10
3.29042e-08
-0.000171164
-9.99742e-10
7.9954e-10
0.000171192
-0.000223447
2.72403e-08
3.10411e-09
0.000223486
-6.76106e-08
-0.000171177
8.15741e-10
-0.00022347
-1.87807e-10
3.68164e-08
8.88791e-10
0.000143481
-7.93202e-05
-2.39582e-08
-8.53538e-10
7.9345e-05
-1.72473e-08
0.00026335
2.01002e-10
-0.000263372
3.58669e-08
4.16437e-09
0.000193739
6.10634e-09
-4.15015e-08
6.73725e-10
-7.93381e-05
-3.10003e-09
0.000263392
-5.87601e-08
-0.000143444
1.03954e-09
-2.73132e-08
2.8082e-08
1.00478e-09
1.03479e-09
-6.58228e-08
7.94207e-11
0.000171149
-0.000171163
8.47484e-10
-1.3927e-08
0.000223432
-0.000223454
3.66851e-08
-0.000143457
8.29787e-10
-6.77733e-08
1.7313e-08
7.93271e-05
-0.00026337
2.38801e-08
0.000263412
-5.85944e-08
-3.19082e-09
-5.6722e-09
2.47535e-08
3.60049e-08
7.93519e-05
9.8079e-05
-7.5513e-09
-2.03694e-08
4.24861e-09
1.53901e-08
1.42833e-08
-1.33499e-09
0.000143461
-0.000143474
4.11337e-10
1.3629e-09
-1.31264e-08
-0.000229405
-6.86176e-10
3.31237e-08
-0.000223447
2.69415e-08
4.90084e-09
0.000223485
-6.71773e-08
-0.000171168
1.56693e-10
-3.61411e-10
0.000171196
-0.00022347
1.44202e-09
3.73309e-08
-0.000171182
-4.05948e-10
1.88765e-09
0.000143486
-7.93237e-05
-2.29013e-08
-1.93199e-09
7.93485e-05
-1.83675e-08
0.000263354
-1.49723e-09
-0.000263376
3.66053e-08
1.9003e-09
0.000193728
7.58738e-09
-4.05968e-08
-4.49117e-10
-7.93416e-05
-4.9731e-09
0.000263396
-5.80486e-08
-0.000143449
-2.70254e-08
-2.19794e-10
3.0158e-09
2.79886e-08
-7.48451e-10
-6.56812e-08
-1.42103e-08
0.000223432
-0.000223455
3.71817e-08
1.38741e-09
0.000171154
-0.000171168
-4.49176e-10
-0.000143462
-6.73576e-08
-4.12948e-10
1.83801e-08
7.93306e-05
-0.000263374
2.28859e-08
0.000263416
-5.78892e-08
-5.29163e-09
-4.28482e-09
2.56215e-08
3.67417e-08
7.93553e-05
9.80724e-05
-6.89576e-09
-1.85842e-08
4.97694e-09
1.24753e-08
-6.84297e-09
-8.48211e-09
0.000213818
-0.000213826
1.27327e-08
1.09134e-08
-8.05797e-05
-1.23458e-08
-1.10556e-08
8.06031e-05
-8.05686e-05
-1.07627e-08
-1.26236e-08
8.0592e-05
-8.05969e-05
1.04075e-08
-8.05859e-05
8.81221e-09
-2.2139e-08
-2.40132e-08
0.000213841
-0.000221946
-3.27049e-08
3.16019e-08
2.22297e-08
0.00022198
-5.45585e-08
-1.90403e-08
0.000250691
-0.000250747
6.49487e-08
3.54034e-08
1.77238e-08
0.000183106
-1.04165e-08
-0.000183121
-4.58961e-08
8.71983e-09
0.000278311
1.93807e-08
-2.13177e-08
-1.26533e-08
-0.000221966
3.13288e-08
0.000250757
-9.32744e-08
-5.14026e-08
1.10446e-08
0.000183135
-0.000221879
-3.47412e-08
2.83624e-08
2.40985e-08
0.000221917
-5.55162e-08
-1.7146e-08
0.000250579
-0.000250638
6.86014e-08
3.36452e-08
1.70265e-08
0.000183057
-8.78548e-09
-0.000183071
-4.45946e-08
1.20377e-08
0.000278234
1.75996e-08
-2.35476e-08
-1.08493e-08
-0.000221903
3.51614e-08
0.00025065
-9.69048e-08
-5.33274e-08
1.26573e-08
0.000183085
-0.000213803
1.24141e-08
1.07885e-08
6.7975e-09
8.05735e-05
-8.05907e-05
8.46528e-09
8.05625e-05
-8.05797e-05
-0.000213811
1.91464e-08
-1.78129e-08
0.000221957
3.37475e-08
-0.00018312
-3.14903e-08
0.000183149
2.75311e-08
-8.12491e-09
-1.1802e-08
1.39772e-08
-0.000250703
3.25817e-08
0.000250769
-9.55835e-08
-5.12829e-08
6.50691e-08
3.54916e-08
0.000221993
-5.67215e-08
1.72064e-08
-1.71364e-08
0.000221892
3.53337e-08
-0.000183071
-2.82361e-08
0.000183098
2.6537e-08
-5.88733e-09
-1.34747e-08
1.17667e-08
-0.000250592
3.46595e-08
0.000250662
-9.66819e-08
-5.32727e-08
6.87913e-08
3.36844e-08
0.00022193
-5.53123e-08
1.14082e-08
1.30399e-08
-6.70673e-09
-8.36422e-09
0.000213791
1.45898e-08
1.06997e-08
-8.05652e-05
-1.26132e-08
-1.09733e-08
8.05888e-05
-8.05525e-05
-1.09725e-08
-1.26148e-08
8.05761e-05
1.04201e-08
8.8171e-09
-2.46612e-08
-2.45185e-08
0.000213816
-1.7568e-08
0.000221944
2.11919e-08
3.09546e-08
-0.000183084
-3.22511e-08
0.000183117
-1.0866e-08
2.69072e-08
1.38946e-08
3.54142e-08
-0.000250709
0.00025077
-9.64189e-08
-4.91221e-08
0.000221978
-5.52765e-08
6.42904e-08
3.26176e-08
-1.86271e-08
0.00022188
1.67758e-08
3.69578e-08
-0.000183036
-3.07672e-08
0.000183065
-5.50722e-09
2.81044e-08
9.35961e-09
3.50296e-08
-0.000250605
0.000250671
-9.76707e-08
-5.10622e-08
0.000221918
-5.83463e-08
6.79577e-08
3.07945e-08
-9.80834e-05
1.15719e-08
5.72656e-09
-1.9721e-08
-6.07424e-09
-9.80738e-05
1.31183e-08
4.19549e-09
-1.80599e-08
-7.702e-09
-0.000213806
1.2547e-08
1.09458e-08
-2.45519e-08
-2.4409e-08
0.000213832
6.76121e-09
8.05716e-05
1.04155e-08
8.38606e-09
8.05588e-05
8.85221e-09
1.46881e-08
1.0786e-08
-1.09881e-08
8.05952e-05
-1.259e-08
8.05824e-05
-1.77761e-08
2.14889e-08
0.000221971
-0.000221991
-1.47782e-08
3.12171e-08
-0.000250736
3.51021e-08
0.000250795
-9.35434e-08
-4.87807e-08
-1.08198e-08
2.71608e-08
-0.000278326
1.40481e-08
-0.000183112
-3.19921e-08
1.10077e-08
0.000183145
-0.000183131
-1.03757e-08
-0.000250785
6.21776e-08
3.54818e-08
2.44479e-08
0.000222005
-5.49085e-08
-1.8857e-08
1.69943e-08
0.000221907
-0.000221932
-1.08806e-08
3.73269e-08
-0.000250629
3.4771e-08
0.000250695
-9.71399e-08
-5.08613e-08
-5.57903e-09
2.84139e-08
-0.000278263
9.50755e-09
-0.000183063
-3.05156e-08
1.25395e-08
0.000183092
-0.000183079
-8.86996e-09
-0.000250683
6.83877e-08
3.09695e-08
2.42814e-08
0.000221945
-5.78903e-08
-0.000221958
3.21398e-08
-3.52513e-08
-5.51039e-08
1.76713e-08
0.000183098
-2.13432e-08
0.000250724
6.19464e-08
3.2788e-08
1.11074e-08
-4.86408e-08
-2.11491e-08
3.108e-08
-9.38283e-08
-5.14827e-08
-0.000221894
3.06559e-08
-3.49074e-08
-5.81196e-08
1.87484e-08
0.00018305
-1.68836e-08
0.000250617
6.81625e-08
3.08898e-08
1.1255e-08
-4.7348e-08
-2.1062e-08
3.71488e-08
-9.7409e-08
-5.09652e-08
-6.82392e-09
-8.39317e-09
0.000213821
-8.0578e-05
-1.24582e-08
8.06014e-05
-8.05651e-05
-1.09243e-08
8.05886e-05
0.000213847
-0.000143419
1.07076e-09
-2.75027e-08
8.2591e-10
0.000143445
6.36158e-11
0.00017112
8.45345e-10
-0.000171134
-1.38161e-08
0.0002234
-1.25502e-10
3.64039e-08
-0.000223423
2.82676e-08
1.08402e-09
0.000229377
8.99091e-10
-6.62191e-08
-7.09116e-10
-0.000143432
0.000171148
8.43239e-10
3.13877e-09
0.000223439
-6.81361e-08
7.93133e-05
1.7175e-08
-7.93311e-05
7.02592e-10
-3.1026e-09
-0.000193707
2.45095e-08
2.40616e-08
-0.00026333
-3.10953e-09
-5.89415e-08
-8.30121e-10
-0.000263352
1.77974e-10
3.57195e-08
-7.93062e-05
-2.4123e-08
-1.71342e-08
0.000263309
3.55728e-08
4.22284e-09
-4.17802e-08
-5.91142e-08
0.000143431
-5.92948e-11
1.38554e-08
-1.28441e-08
-1.39834e-10
8.3284e-10
3.26078e-08
-1.05641e-09
-0.000171135
8.32744e-10
2.74159e-08
-0.000223416
-6.79649e-08
8.44244e-10
3.65389e-08
-0.00014335
-4.98938e-10
-2.71379e-08
1.98372e-09
0.000143376
1.61692e-09
0.000171086
-0.000171099
-1.40608e-08
0.000223302
-6.11987e-10
3.42204e-08
-0.00022332
2.81992e-08
2.74905e-09
0.000229337
-6.61337e-08
5.24735e-10
-0.000143363
0.000171114
6.90177e-09
0.000223336
-6.53587e-08
1.838e-08
7.92705e-05
-7.92883e-05
-5.62251e-10
-5.41299e-09
-0.000193647
-4.36695e-09
2.74236e-08
-0.000263195
2.28866e-08
-6.97265e-09
0.000263237
-5.5819e-08
-0.000263217
5.31222e-10
3.38133e-08
-2.02071e-09
7.92954e-05
-7.92633e-05
-2.29806e-08
-1.83083e-08
0.000263175
3.36446e-08
-0.000263196
2.13904e-09
7.4449e-09
-4.32426e-08
-7.92811e-05
-5.60108e-08
-1.65338e-09
1.41356e-08
0.000143363
-1.29163e-08
1.6204e-09
3.26888e-08
-0.000171101
5.24674e-10
0.000171129
-0.000223318
2.70499e-08
0.000223352
-6.51573e-08
3.43876e-08
0.000143389
-9.80621e-05
1.51375e-08
-2.06613e-08
1.79285e-08
-1.66588e-08
0.000221879
-1.59773e-08
3.67349e-08
-0.000221901
-0.00025057
3.64484e-08
0.000250634
-9.29979e-08
-5.25303e-08
2.5626e-08
-6.84238e-09
-0.000278196
1.23926e-08
-0.000183043
-2.92469e-08
1.38946e-08