/*--------------------------------*- C++ -*----------------------------------*\
| =========                 |                                                 |
| \\      /  F ield         | OpenFOAM: The Open Source CFD Toolbox           |
|  \\    /   O peration     | Version:                                        |
|   \\  /    A nd           | Website:  www.openfoam.com                      |
|    \\/     M anipulation  |                                                 |
\*---------------------------------------------------------------------------*/
FoamFile
{
    version     2.0;
    format      ascii;
    class       volScalarField;
    location    "6350.5";
    object      p;
}
// * * * * * * * * * * * * * * * * * * * * * * * * * * * * * * * * * * * * * //

dimensions      [0 2 -2 0 0 0 0];


internalField   nonuniform List<scalar> 
247096
(
1.53657e-07
1.5366e-07
1.53803e-07
1.53889e-07
1.53922e-07
1.5388e-07
1.53789e-07
1.53636e-07
1.5366e-07
1.53858e-07
1.54036e-07
1.5413e-07
1.54153e-07
1.54123e-07
1.54017e-07
1.53834e-07
1.53803e-07
1.54036e-07
1.54178e-07
1.54221e-07
1.54228e-07
1.54219e-07
1.54168e-07
1.54008e-07
1.53775e-07
1.53889e-07
1.5413e-07
1.54221e-07
1.54234e-07
1.54232e-07
1.54234e-07
1.54216e-07
1.54107e-07
1.53856e-07
1.53657e-07
1.53922e-07
1.54153e-07
1.54228e-07
1.54232e-07
1.54229e-07
1.54233e-07
1.54225e-07
1.54133e-07
1.53887e-07
1.5388e-07
1.54123e-07
1.54219e-07
1.54234e-07
1.54233e-07
1.54234e-07
1.54213e-07
1.541e-07
1.53847e-07
1.53789e-07
1.54017e-07
1.54168e-07
1.54216e-07
1.54225e-07
1.54213e-07
1.54156e-07
1.53989e-07
1.53763e-07
1.53636e-07
1.53834e-07
1.54008e-07
1.54107e-07
1.54133e-07
1.541e-07
1.53989e-07
1.53811e-07
1.53775e-07
1.53856e-07
1.53887e-07
1.53847e-07
1.53763e-07
1.50966e-07
1.50938e-07
1.50949e-07
1.50794e-07
1.50801e-07
1.50816e-07
1.508e-07
1.50989e-07
1.50941e-07
1.50949e-07
1.5081e-07
1.50636e-07
1.50652e-07
1.50652e-07
1.50636e-07
1.50878e-07
1.50823e-07
1.50794e-07
1.50636e-07
1.50666e-07
1.50682e-07
1.50682e-07
1.50666e-07
1.50636e-07
1.5095e-07
1.50987e-07
1.50966e-07
1.50801e-07
1.50652e-07
1.50682e-07
1.50698e-07
1.50698e-07
1.50682e-07
1.50652e-07
1.50978e-07
1.50999e-07
1.50938e-07
1.50816e-07
1.50652e-07
1.50682e-07
1.50698e-07
1.50698e-07
1.50682e-07
1.50652e-07
1.50981e-07
1.50826e-07
1.508e-07
1.50636e-07
1.50666e-07
1.50682e-07
1.50682e-07
1.50666e-07
1.50636e-07
1.5097e-07
1.51006e-07
1.50989e-07
1.50878e-07
1.50636e-07
1.50652e-07
1.50652e-07
1.50636e-07
1.50972e-07
1.50882e-07
1.50991e-07
1.50941e-07
1.50823e-07
1.5095e-07
1.50978e-07
1.50981e-07
1.5097e-07
1.50882e-07
1.51007e-07
1.50987e-07
1.50998e-07
1.50826e-07
1.51006e-07
1.50991e-07
1.49292e-07
1.4928e-07
1.49291e-07
1.49153e-07
1.4915e-07
1.49159e-07
1.49153e-07
1.49316e-07
1.49285e-07
1.49291e-07
1.49151e-07
1.48934e-07
1.48939e-07
1.48939e-07
1.48934e-07
1.49182e-07
1.49174e-07
1.49153e-07
1.48934e-07
1.48951e-07
1.48953e-07
1.48953e-07
1.48951e-07
1.48934e-07
1.49235e-07
1.49316e-07
1.49292e-07
1.4915e-07
1.48939e-07
1.48953e-07
1.48956e-07
1.48956e-07
1.48953e-07
1.48939e-07
1.49238e-07
1.49307e-07
1.4928e-07
1.49159e-07
1.48939e-07
1.48953e-07
1.48956e-07
1.48956e-07
1.48953e-07
1.48939e-07
1.49236e-07
1.49179e-07
1.49153e-07
1.48934e-07
1.48951e-07
1.48953e-07
1.48953e-07
1.48951e-07
1.48934e-07
1.49237e-07
1.49314e-07
1.49316e-07
1.49182e-07
1.48934e-07
1.48939e-07
1.48939e-07
1.48934e-07
1.49218e-07
1.49204e-07
1.49322e-07
1.49285e-07
1.49174e-07
1.49235e-07
1.49238e-07
1.49236e-07
1.49237e-07
1.49204e-07
1.4933e-07
1.49316e-07
1.49307e-07
1.49179e-07
1.49314e-07
1.49322e-07
1.47679e-07
1.47667e-07
1.47678e-07
1.4754e-07
1.47537e-07
1.47545e-07
1.4754e-07
1.47703e-07
1.47672e-07
1.47678e-07
1.4754e-07
1.47331e-07
1.47333e-07
1.47333e-07
1.47331e-07
1.47573e-07
1.47562e-07
1.4754e-07
1.47331e-07
1.47339e-07
1.47337e-07
1.47337e-07
1.47339e-07
1.47331e-07
1.47627e-07
1.47704e-07
1.47679e-07
1.47537e-07
1.47333e-07
1.47337e-07
1.47337e-07
1.47337e-07
1.47337e-07
1.47333e-07
1.47628e-07
1.47696e-07
1.47667e-07
1.47545e-07
1.47333e-07
1.47337e-07
1.47337e-07
1.47337e-07
1.47337e-07
1.47333e-07
1.47625e-07
1.47568e-07
1.4754e-07
1.47331e-07
1.47339e-07
1.47337e-07
1.47337e-07
1.47339e-07
1.47331e-07
1.47627e-07
1.47703e-07
1.47703e-07
1.47573e-07
1.47331e-07
1.47333e-07
1.47333e-07
1.47331e-07
1.4761e-07
1.47593e-07
1.4771e-07
1.47672e-07
1.47562e-07
1.47627e-07
1.47628e-07
1.47625e-07
1.47627e-07
1.47593e-07
1.47718e-07
1.47704e-07
1.47696e-07
1.47568e-07
1.47703e-07
1.4771e-07
1.46071e-07
1.46059e-07
1.4607e-07
1.45932e-07
1.45928e-07
1.45936e-07
1.45931e-07
1.46095e-07
1.46064e-07
1.4607e-07
1.45931e-07
1.45722e-07
1.45723e-07
1.45723e-07
1.45722e-07
1.45965e-07
1.45954e-07
1.45932e-07
1.45722e-07
1.45728e-07
1.45726e-07
1.45726e-07
1.45728e-07
1.45722e-07
1.46019e-07
1.46096e-07
1.46071e-07
1.45928e-07
1.45723e-07
1.45726e-07
1.45725e-07
1.45725e-07
1.45726e-07
1.45723e-07
1.4602e-07
1.46088e-07
1.46059e-07
1.45936e-07
1.45723e-07
1.45726e-07
1.45725e-07
1.45725e-07
1.45726e-07
1.45723e-07
1.46016e-07
1.45959e-07
1.45931e-07
1.45722e-07
1.45728e-07
1.45726e-07
1.45726e-07
1.45728e-07
1.45722e-07
1.46018e-07
1.46095e-07
1.46095e-07
1.45965e-07
1.45722e-07
1.45723e-07
1.45723e-07
1.45722e-07
1.46001e-07
1.45984e-07
1.46102e-07
1.46064e-07
1.45954e-07
1.46019e-07
1.4602e-07
1.46016e-07
1.46018e-07
1.45984e-07
1.4611e-07
1.46096e-07
1.46088e-07
1.45959e-07
1.46095e-07
1.46102e-07
1.44457e-07
1.44446e-07
1.44456e-07
1.44318e-07
1.44315e-07
1.44323e-07
1.44317e-07
1.44482e-07
1.44451e-07
1.44456e-07
1.44317e-07
1.44107e-07
1.44108e-07
1.44108e-07
1.44107e-07
1.44351e-07
1.4434e-07
1.44318e-07
1.44107e-07
1.44113e-07
1.4411e-07
1.4411e-07
1.44113e-07
1.44107e-07
1.44405e-07
1.44483e-07
1.44457e-07
1.44315e-07
1.44108e-07
1.4411e-07
1.4411e-07
1.44109e-07
1.4411e-07
1.44108e-07
1.44406e-07
1.44475e-07
1.44446e-07
1.44323e-07
1.44108e-07
1.4411e-07
1.4411e-07
1.4411e-07
1.4411e-07
1.44108e-07
1.44403e-07
1.44346e-07
1.44317e-07
1.44107e-07
1.44113e-07
1.4411e-07
1.4411e-07
1.44113e-07
1.44107e-07
1.44405e-07
1.44482e-07
1.44482e-07
1.44351e-07
1.44107e-07
1.44108e-07
1.44108e-07
1.44107e-07
1.44387e-07
1.44371e-07
1.44489e-07
1.44451e-07
1.4434e-07
1.44405e-07
1.44406e-07
1.44403e-07
1.44405e-07
1.44371e-07
1.44496e-07
1.44483e-07
1.44475e-07
1.44346e-07
1.44482e-07
1.44489e-07
1.42842e-07
1.42831e-07
1.42842e-07
1.42703e-07
1.427e-07
1.42708e-07
1.42702e-07
1.42867e-07
1.42836e-07
1.42842e-07
1.42702e-07
1.42492e-07
1.42493e-07
1.42493e-07
1.42492e-07
1.42736e-07
1.42725e-07
1.42703e-07
1.42492e-07
1.42498e-07
1.42495e-07
1.42495e-07
1.42498e-07
1.42492e-07
1.4279e-07
1.42868e-07
1.42842e-07
1.427e-07
1.42493e-07
1.42495e-07
1.42494e-07
1.42494e-07
1.42495e-07
1.42493e-07
1.42791e-07
1.4286e-07
1.42831e-07
1.42708e-07
1.42493e-07
1.42495e-07
1.42494e-07
1.42494e-07
1.42495e-07
1.42493e-07
1.42788e-07
1.42731e-07
1.42702e-07
1.42492e-07
1.42498e-07
1.42495e-07
1.42495e-07
1.42498e-07
1.42492e-07
1.4279e-07
1.42867e-07
1.42867e-07
1.42736e-07
1.42492e-07
1.42493e-07
1.42493e-07
1.42492e-07
1.42773e-07
1.42756e-07
1.42874e-07
1.42836e-07
1.42725e-07
1.4279e-07
1.42791e-07
1.42788e-07
1.4279e-07
1.42756e-07
1.42882e-07
1.42868e-07
1.4286e-07
1.42731e-07
1.42867e-07
1.42874e-07
1.41227e-07
1.41216e-07
1.41226e-07
1.41088e-07
1.41085e-07
1.41093e-07
1.41087e-07
1.41252e-07
1.41221e-07
1.41226e-07
1.41087e-07
1.40877e-07
1.40878e-07
1.40878e-07
1.40877e-07
1.41121e-07
1.4111e-07
1.41088e-07
1.40877e-07
1.40883e-07
1.4088e-07
1.4088e-07
1.40883e-07
1.40877e-07
1.41175e-07
1.41253e-07
1.41227e-07
1.41085e-07
1.40878e-07
1.4088e-07
1.40879e-07
1.40879e-07
1.4088e-07
1.40878e-07
1.41176e-07
1.41245e-07
1.41216e-07
1.41093e-07
1.40878e-07
1.4088e-07
1.40879e-07
1.40879e-07
1.4088e-07
1.40878e-07
1.41173e-07
1.41116e-07
1.41087e-07
1.40877e-07
1.40883e-07
1.4088e-07
1.4088e-07
1.40883e-07
1.40877e-07
1.41175e-07
1.41252e-07
1.41252e-07
1.41121e-07
1.40877e-07
1.40878e-07
1.40878e-07
1.40877e-07
1.41157e-07
1.41141e-07
1.41259e-07
1.41221e-07
1.4111e-07
1.41175e-07
1.41176e-07
1.41173e-07
1.41175e-07
1.41141e-07
1.41267e-07
1.41253e-07
1.41245e-07
1.41116e-07
1.41252e-07
1.41259e-07
1.39612e-07
1.39601e-07
1.39611e-07
1.39473e-07
1.39469e-07
1.39478e-07
1.39472e-07
1.39637e-07
1.39606e-07
1.39611e-07
1.39472e-07
1.39262e-07
1.39263e-07
1.39263e-07
1.39262e-07
1.39506e-07
1.39495e-07
1.39473e-07
1.39262e-07
1.39268e-07
1.39265e-07
1.39265e-07
1.39268e-07
1.39262e-07
1.3956e-07
1.39638e-07
1.39612e-07
1.39469e-07
1.39263e-07
1.39265e-07
1.39264e-07
1.39264e-07
1.39265e-07
1.39263e-07
1.39561e-07
1.3963e-07
1.39601e-07
1.39478e-07
1.39263e-07
1.39265e-07
1.39264e-07
1.39264e-07
1.39265e-07
1.39263e-07
1.39558e-07
1.39501e-07
1.39472e-07
1.39262e-07
1.39268e-07
1.39265e-07
1.39265e-07
1.39268e-07
1.39262e-07
1.3956e-07
1.39636e-07
1.39637e-07
1.39506e-07
1.39262e-07
1.39263e-07
1.39263e-07
1.39262e-07
1.39542e-07
1.39526e-07
1.39644e-07
1.39606e-07
1.39495e-07
1.3956e-07
1.39561e-07
1.39558e-07
1.3956e-07
1.39526e-07
1.39651e-07
1.39638e-07
1.3963e-07
1.39501e-07
1.39637e-07
1.39644e-07
1.37997e-07
1.37986e-07
1.37996e-07
1.37858e-07
1.37854e-07
1.37863e-07
1.37857e-07
1.38022e-07
1.37991e-07
1.37996e-07
1.37857e-07
1.37647e-07
1.37648e-07
1.37648e-07
1.37647e-07
1.37891e-07
1.3788e-07
1.37858e-07
1.37647e-07
1.37653e-07
1.3765e-07
1.3765e-07
1.37653e-07
1.37647e-07
1.37945e-07
1.38023e-07
1.37997e-07
1.37854e-07
1.37648e-07
1.3765e-07
1.37649e-07
1.37649e-07
1.3765e-07
1.37648e-07
1.37946e-07
1.38015e-07
1.37986e-07
1.37863e-07
1.37648e-07
1.3765e-07
1.37649e-07
1.37649e-07
1.3765e-07
1.37648e-07
1.37943e-07
1.37886e-07
1.37857e-07
1.37647e-07
1.37653e-07
1.3765e-07
1.3765e-07
1.37653e-07
1.37647e-07
1.37945e-07
1.38021e-07
1.38022e-07
1.37891e-07
1.37647e-07
1.37648e-07
1.37648e-07
1.37647e-07
1.37927e-07
1.3791e-07
1.38029e-07
1.37991e-07
1.3788e-07
1.37945e-07
1.37946e-07
1.37943e-07
1.37945e-07
1.37911e-07
1.38036e-07
1.38023e-07
1.38015e-07
1.37886e-07
1.38021e-07
1.38029e-07
1.36382e-07
1.36371e-07
1.36381e-07
1.36243e-07
1.36239e-07
1.36248e-07
1.36242e-07
1.36407e-07
1.36376e-07
1.36381e-07
1.36242e-07
1.36032e-07
1.36033e-07
1.36033e-07
1.36032e-07
1.36276e-07
1.36265e-07
1.36243e-07
1.36032e-07
1.36038e-07
1.36035e-07
1.36035e-07
1.36038e-07
1.36032e-07
1.3633e-07
1.36408e-07
1.36382e-07
1.36239e-07
1.36033e-07
1.36035e-07
1.36034e-07
1.36034e-07
1.36035e-07
1.36033e-07
1.36331e-07
1.364e-07
1.36371e-07
1.36248e-07
1.36033e-07
1.36035e-07
1.36034e-07
1.36034e-07
1.36035e-07
1.36033e-07
1.36328e-07
1.36271e-07
1.36242e-07
1.36032e-07
1.36038e-07
1.36035e-07
1.36035e-07
1.36038e-07
1.36032e-07
1.36329e-07
1.36406e-07
1.36407e-07
1.36276e-07
1.36032e-07
1.36033e-07
1.36033e-07
1.36032e-07
1.36312e-07
1.36295e-07
1.36413e-07
1.36376e-07
1.36265e-07
1.3633e-07
1.36331e-07
1.36328e-07
1.36329e-07
1.36295e-07
1.36421e-07
1.36408e-07
1.364e-07
1.36271e-07
1.36406e-07
1.36414e-07
1.34767e-07
1.34756e-07
1.34766e-07
1.34628e-07
1.34624e-07
1.34632e-07
1.34627e-07
1.34792e-07
1.34761e-07
1.34766e-07
1.34627e-07
1.34417e-07
1.34418e-07
1.34418e-07
1.34417e-07
1.34661e-07
1.3465e-07
1.34628e-07
1.34417e-07
1.34422e-07
1.3442e-07
1.3442e-07
1.34422e-07
1.34417e-07
1.34715e-07
1.34793e-07
1.34767e-07
1.34624e-07
1.34418e-07
1.3442e-07
1.34419e-07
1.34419e-07
1.3442e-07
1.34418e-07
1.34716e-07
1.34785e-07
1.34756e-07
1.34632e-07
1.34418e-07
1.3442e-07
1.34419e-07
1.34419e-07
1.3442e-07
1.34418e-07
1.34713e-07
1.34655e-07
1.34627e-07
1.34417e-07
1.34422e-07
1.3442e-07
1.3442e-07
1.34422e-07
1.34417e-07
1.34714e-07
1.34791e-07
1.34792e-07
1.34661e-07
1.34417e-07
1.34418e-07
1.34418e-07
1.34417e-07
1.34697e-07
1.3468e-07
1.34798e-07
1.34761e-07
1.3465e-07
1.34715e-07
1.34716e-07
1.34713e-07
1.34714e-07
1.3468e-07
1.34806e-07
1.34793e-07
1.34785e-07
1.34655e-07
1.34791e-07
1.34798e-07
1.33152e-07
1.33141e-07
1.33151e-07
1.33013e-07
1.33009e-07
1.33017e-07
1.33012e-07
1.33177e-07
1.33146e-07
1.33151e-07
1.33012e-07
1.32802e-07
1.32803e-07
1.32803e-07
1.32802e-07
1.33046e-07
1.33035e-07
1.33013e-07
1.32802e-07
1.32807e-07
1.32805e-07
1.32805e-07
1.32807e-07
1.32802e-07
1.331e-07
1.33178e-07
1.33152e-07
1.33009e-07
1.32803e-07
1.32805e-07
1.32804e-07
1.32804e-07
1.32805e-07
1.32803e-07
1.33101e-07
1.33169e-07
1.33141e-07
1.33017e-07
1.32803e-07
1.32805e-07
1.32804e-07
1.32804e-07
1.32805e-07
1.32803e-07
1.33097e-07
1.3304e-07
1.33012e-07
1.32802e-07
1.32807e-07
1.32805e-07
1.32805e-07
1.32807e-07
1.32802e-07
1.33099e-07
1.33176e-07
1.33177e-07
1.33046e-07
1.32802e-07
1.32803e-07
1.32803e-07
1.32802e-07
1.33082e-07
1.33065e-07
1.33183e-07
1.33146e-07
1.33035e-07
1.331e-07
1.33101e-07
1.33097e-07
1.33099e-07
1.33065e-07
1.33191e-07
1.33178e-07
1.33169e-07
1.3304e-07
1.33176e-07
1.33183e-07
1.31537e-07
1.31526e-07
1.31536e-07
1.31398e-07
1.31394e-07
1.31402e-07
1.31397e-07
1.31562e-07
1.3153e-07
1.31536e-07
1.31397e-07
1.31187e-07
1.31188e-07
1.31188e-07
1.31187e-07
1.31431e-07
1.3142e-07
1.31398e-07
1.31187e-07
1.31192e-07
1.3119e-07
1.3119e-07
1.31192e-07
1.31187e-07
1.31485e-07
1.31563e-07
1.31537e-07
1.31394e-07
1.31188e-07
1.3119e-07
1.31189e-07
1.31189e-07
1.3119e-07
1.31188e-07
1.31486e-07
1.31554e-07
1.31526e-07
1.31402e-07
1.31188e-07
1.3119e-07
1.31189e-07
1.31189e-07
1.3119e-07
1.31188e-07
1.31482e-07
1.31425e-07
1.31397e-07
1.31187e-07
1.31192e-07
1.3119e-07
1.3119e-07
1.31192e-07
1.31187e-07
1.31484e-07
1.31561e-07
1.31562e-07
1.3143e-07
1.31187e-07
1.31188e-07
1.31188e-07
1.31187e-07
1.31467e-07
1.3145e-07
1.31568e-07
1.3153e-07
1.3142e-07
1.31485e-07
1.31486e-07
1.31482e-07
1.31484e-07
1.3145e-07
1.31576e-07
1.31563e-07
1.31554e-07
1.31425e-07
1.31561e-07
1.31568e-07
1.29922e-07
1.2991e-07
1.29921e-07
1.29783e-07
1.29779e-07
1.29787e-07
1.29782e-07
1.29947e-07
1.29915e-07
1.29921e-07
1.29782e-07
1.29572e-07
1.29573e-07
1.29573e-07
1.29572e-07
1.29815e-07
1.29805e-07
1.29783e-07
1.29572e-07
1.29577e-07
1.29575e-07
1.29575e-07
1.29577e-07
1.29572e-07
1.2987e-07
1.29948e-07
1.29922e-07
1.29779e-07
1.29573e-07
1.29575e-07
1.29574e-07
1.29574e-07
1.29575e-07
1.29573e-07
1.2987e-07
1.29939e-07
1.2991e-07
1.29787e-07
1.29573e-07
1.29575e-07
1.29574e-07
1.29574e-07
1.29575e-07
1.29573e-07
1.29867e-07
1.2981e-07
1.29782e-07
1.29572e-07
1.29577e-07
1.29575e-07
1.29575e-07
1.29577e-07
1.29572e-07
1.29869e-07
1.29946e-07
1.29947e-07
1.29815e-07
1.29572e-07
1.29573e-07
1.29573e-07
1.29572e-07
1.29852e-07
1.29835e-07
1.29953e-07
1.29915e-07
1.29805e-07
1.2987e-07
1.2987e-07
1.29867e-07
1.29869e-07
1.29835e-07
1.29961e-07
1.29948e-07
1.29939e-07
1.2981e-07
1.29946e-07
1.29953e-07
1.28307e-07
1.28295e-07
1.28306e-07
1.28168e-07
1.28164e-07
1.28172e-07
1.28167e-07
1.28331e-07
1.283e-07
1.28306e-07
1.28167e-07
1.27957e-07
1.27958e-07
1.27958e-07
1.27957e-07
1.282e-07
1.2819e-07
1.28168e-07
1.27957e-07
1.27962e-07
1.2796e-07
1.2796e-07
1.27962e-07
1.27957e-07
1.28255e-07
1.28333e-07
1.28307e-07
1.28164e-07
1.27958e-07
1.2796e-07
1.27959e-07
1.27959e-07
1.2796e-07
1.27958e-07
1.28255e-07
1.28324e-07
1.28295e-07
1.28172e-07
1.27958e-07
1.2796e-07
1.27959e-07
1.27959e-07
1.2796e-07
1.27958e-07
1.28252e-07
1.28195e-07
1.28167e-07
1.27957e-07
1.27962e-07
1.2796e-07
1.2796e-07
1.27962e-07
1.27957e-07
1.28254e-07
1.28331e-07
1.28331e-07
1.282e-07
1.27957e-07
1.27958e-07
1.27958e-07
1.27957e-07
1.28237e-07
1.2822e-07
1.28338e-07
1.283e-07
1.2819e-07
1.28255e-07
1.28255e-07
1.28252e-07
1.28254e-07
1.2822e-07
1.28346e-07
1.28333e-07
1.28324e-07
1.28195e-07
1.28331e-07
1.28338e-07
1.26692e-07
1.2668e-07
1.26691e-07
1.26553e-07
1.26549e-07
1.26557e-07
1.26552e-07
1.26716e-07
1.26685e-07
1.26691e-07
1.26552e-07
1.26342e-07
1.26342e-07
1.26342e-07
1.26342e-07
1.26585e-07
1.26575e-07
1.26553e-07
1.26342e-07
1.26347e-07
1.26345e-07
1.26345e-07
1.26347e-07
1.26342e-07
1.2664e-07
1.26718e-07
1.26692e-07
1.26549e-07
1.26342e-07
1.26345e-07
1.26344e-07
1.26344e-07
1.26345e-07
1.26342e-07
1.2664e-07
1.26709e-07
1.2668e-07
1.26557e-07
1.26342e-07
1.26345e-07
1.26344e-07
1.26344e-07
1.26345e-07
1.26342e-07
1.26637e-07
1.2658e-07
1.26552e-07
1.26342e-07
1.26347e-07
1.26345e-07
1.26345e-07
1.26347e-07
1.26342e-07
1.26639e-07
1.26716e-07
1.26716e-07
1.26585e-07
1.26342e-07
1.26342e-07
1.26342e-07
1.26342e-07
1.26622e-07
1.26605e-07
1.26723e-07
1.26685e-07
1.26575e-07
1.2664e-07
1.2664e-07
1.26637e-07
1.26639e-07
1.26605e-07
1.26731e-07
1.26718e-07
1.26709e-07
1.2658e-07
1.26716e-07
1.26723e-07
1.25077e-07
1.25065e-07
1.25076e-07
1.24938e-07
1.24934e-07
1.24942e-07
1.24937e-07
1.25101e-07
1.2507e-07
1.25076e-07
1.24937e-07
1.24727e-07
1.24727e-07
1.24727e-07
1.24727e-07
1.2497e-07
1.2496e-07
1.24938e-07
1.24727e-07
1.24732e-07
1.2473e-07
1.2473e-07
1.24732e-07
1.24727e-07
1.25025e-07
1.25102e-07
1.25077e-07
1.24934e-07
1.24727e-07
1.2473e-07
1.24729e-07
1.24729e-07
1.2473e-07
1.24727e-07
1.25025e-07
1.25094e-07
1.25065e-07
1.24942e-07
1.24727e-07
1.2473e-07
1.24729e-07
1.24729e-07
1.2473e-07
1.24727e-07
1.25022e-07
1.24965e-07
1.24937e-07
1.24727e-07
1.24732e-07
1.2473e-07
1.2473e-07
1.24732e-07
1.24727e-07
1.25024e-07
1.25101e-07
1.25101e-07
1.2497e-07
1.24727e-07
1.24727e-07
1.24727e-07
1.24727e-07
1.25007e-07
1.2499e-07
1.25108e-07
1.2507e-07
1.2496e-07
1.25025e-07
1.25025e-07
1.25022e-07
1.25024e-07
1.2499e-07
1.25116e-07
1.25102e-07
1.25094e-07
1.24965e-07
1.25101e-07
1.25108e-07
1.23462e-07
1.2345e-07
1.23461e-07
1.23323e-07
1.23319e-07
1.23327e-07
1.23322e-07
1.23486e-07
1.23455e-07
1.23461e-07
1.23322e-07
1.23111e-07
1.23112e-07
1.23112e-07
1.23111e-07
1.23355e-07
1.23345e-07
1.23323e-07
1.23111e-07
1.23117e-07
1.23115e-07
1.23115e-07
1.23117e-07
1.23111e-07
1.2341e-07
1.23487e-07
1.23462e-07
1.23319e-07
1.23112e-07
1.23115e-07
1.23113e-07
1.23113e-07
1.23115e-07
1.23112e-07
1.2341e-07
1.23479e-07
1.2345e-07
1.23327e-07
1.23112e-07
1.23115e-07
1.23113e-07
1.23113e-07
1.23115e-07
1.23112e-07
1.23407e-07
1.2335e-07
1.23322e-07
1.23111e-07
1.23117e-07
1.23115e-07
1.23115e-07
1.23117e-07
1.23111e-07
1.23409e-07
1.23486e-07
1.23486e-07
1.23355e-07
1.23111e-07
1.23112e-07
1.23112e-07
1.23111e-07
1.23392e-07
1.23375e-07
1.23493e-07
1.23455e-07
1.23345e-07
1.2341e-07
1.2341e-07
1.23407e-07
1.23409e-07
1.23375e-07
1.23501e-07
1.23487e-07
1.23479e-07
1.2335e-07
1.23486e-07
1.23493e-07
1.21847e-07
1.21835e-07
1.21846e-07
1.21708e-07
1.21704e-07
1.21712e-07
1.21707e-07
1.21871e-07
1.2184e-07
1.21846e-07
1.21707e-07
1.21496e-07
1.21497e-07
1.21497e-07
1.21496e-07
1.2174e-07
1.2173e-07
1.21708e-07
1.21496e-07
1.21502e-07
1.215e-07
1.215e-07
1.21502e-07
1.21496e-07
1.21794e-07
1.21872e-07
1.21847e-07
1.21704e-07
1.21497e-07
1.215e-07
1.21498e-07
1.21498e-07
1.215e-07
1.21497e-07
1.21795e-07
1.21864e-07
1.21835e-07
1.21712e-07
1.21497e-07
1.215e-07
1.21498e-07
1.21498e-07
1.215e-07
1.21497e-07
1.21792e-07
1.21735e-07
1.21707e-07
1.21496e-07
1.21502e-07
1.215e-07
1.215e-07
1.21502e-07
1.21496e-07
1.21794e-07
1.21871e-07
1.21871e-07
1.2174e-07
1.21496e-07
1.21497e-07
1.21497e-07
1.21496e-07
1.21777e-07
1.2176e-07
1.21878e-07
1.2184e-07
1.2173e-07
1.21794e-07
1.21795e-07
1.21792e-07
1.21794e-07
1.2176e-07
1.21886e-07
1.21872e-07
1.21864e-07
1.21735e-07
1.21871e-07
1.21878e-07
1.20232e-07
1.2022e-07
1.20231e-07
1.20092e-07
1.20089e-07
1.20097e-07
1.20092e-07
1.20256e-07
1.20225e-07
1.20231e-07
1.20092e-07
1.19881e-07
1.19882e-07
1.19882e-07
1.19881e-07
1.20125e-07
1.20114e-07
1.20092e-07
1.19881e-07
1.19887e-07
1.19884e-07
1.19884e-07
1.19887e-07
1.19881e-07
1.20179e-07
1.20257e-07
1.20232e-07
1.20089e-07
1.19882e-07
1.19884e-07
1.19883e-07
1.19883e-07
1.19884e-07
1.19882e-07
1.2018e-07
1.20249e-07
1.2022e-07
1.20097e-07
1.19882e-07
1.19884e-07
1.19883e-07
1.19883e-07
1.19884e-07
1.19882e-07
1.20177e-07
1.2012e-07
1.20092e-07
1.19881e-07
1.19887e-07
1.19884e-07
1.19884e-07
1.19887e-07
1.19881e-07
1.20179e-07
1.20256e-07
1.20256e-07
1.20125e-07
1.19881e-07
1.19882e-07
1.19882e-07
1.19881e-07
1.20162e-07
1.20145e-07
1.20263e-07
1.20225e-07
1.20114e-07
1.20179e-07
1.2018e-07
1.20177e-07
1.20179e-07
1.20145e-07
1.20271e-07
1.20257e-07
1.20249e-07
1.2012e-07
1.20256e-07
1.20263e-07
1.18617e-07
1.18605e-07
1.18616e-07
1.18477e-07
1.18474e-07
1.18482e-07
1.18477e-07
1.18641e-07
1.1861e-07
1.18616e-07
1.18476e-07
1.18266e-07
1.18267e-07
1.18267e-07
1.18266e-07
1.1851e-07
1.18499e-07
1.18477e-07
1.18266e-07
1.18272e-07
1.18269e-07
1.18269e-07
1.18272e-07
1.18266e-07
1.18564e-07
1.18642e-07
1.18617e-07
1.18474e-07
1.18267e-07
1.18269e-07
1.18268e-07
1.18268e-07
1.18269e-07
1.18267e-07
1.18565e-07
1.18634e-07
1.18605e-07
1.18482e-07
1.18267e-07
1.18269e-07
1.18268e-07
1.18268e-07
1.18269e-07
1.18267e-07
1.18562e-07
1.18505e-07
1.18477e-07
1.18266e-07
1.18272e-07
1.18269e-07
1.18269e-07
1.18272e-07
1.18266e-07
1.18564e-07
1.18641e-07
1.18641e-07
1.1851e-07
1.18266e-07
1.18267e-07
1.18267e-07
1.18266e-07
1.18547e-07
1.1853e-07
1.18648e-07
1.1861e-07
1.18499e-07
1.18564e-07
1.18565e-07
1.18562e-07
1.18564e-07
1.1853e-07
1.18656e-07
1.18642e-07
1.18634e-07
1.18505e-07
1.18641e-07
1.18648e-07
1.17002e-07
1.1699e-07
1.17001e-07
1.16862e-07
1.16859e-07
1.16867e-07
1.16861e-07
1.17026e-07
1.16995e-07
1.17001e-07
1.16861e-07
1.16651e-07
1.16652e-07
1.16652e-07
1.16651e-07
1.16895e-07
1.16884e-07
1.16862e-07
1.16651e-07
1.16657e-07
1.16654e-07
1.16654e-07
1.16657e-07
1.16651e-07
1.16949e-07
1.17027e-07
1.17002e-07
1.16859e-07
1.16652e-07
1.16654e-07
1.16653e-07
1.16653e-07
1.16654e-07
1.16652e-07
1.1695e-07
1.17019e-07
1.1699e-07
1.16867e-07
1.16652e-07
1.16654e-07
1.16653e-07
1.16653e-07
1.16654e-07
1.16652e-07
1.16947e-07
1.1689e-07
1.16861e-07
1.16651e-07
1.16657e-07
1.16654e-07
1.16654e-07
1.16657e-07
1.16651e-07
1.16949e-07
1.17026e-07
1.17026e-07
1.16895e-07
1.16651e-07
1.16652e-07
1.16652e-07
1.16651e-07
1.16932e-07
1.16915e-07
1.17033e-07
1.16995e-07
1.16884e-07
1.16949e-07
1.1695e-07
1.16947e-07
1.16949e-07
1.16915e-07
1.17041e-07
1.17027e-07
1.17019e-07
1.1689e-07
1.17026e-07
1.17033e-07
1.15386e-07
1.15375e-07
1.15386e-07
1.15247e-07
1.15244e-07
1.15252e-07
1.15246e-07
1.15411e-07
1.1538e-07
1.15386e-07
1.15246e-07
1.15036e-07
1.15037e-07
1.15037e-07
1.15036e-07
1.1528e-07
1.15269e-07
1.15247e-07
1.15036e-07
1.15042e-07
1.15039e-07
1.15039e-07
1.15042e-07
1.15036e-07
1.15334e-07
1.15412e-07
1.15386e-07
1.15244e-07
1.15037e-07
1.15039e-07
1.15038e-07
1.15038e-07
1.15039e-07
1.15037e-07
1.15335e-07
1.15404e-07
1.15375e-07
1.15252e-07
1.15037e-07
1.15039e-07
1.15038e-07
1.15038e-07
1.15039e-07
1.15037e-07
1.15332e-07
1.15275e-07
1.15246e-07
1.15036e-07
1.15042e-07
1.15039e-07
1.15039e-07
1.15042e-07
1.15036e-07
1.15334e-07
1.15411e-07
1.15411e-07
1.1528e-07
1.15036e-07
1.15037e-07
1.15037e-07
1.15036e-07
1.15317e-07
1.153e-07
1.15418e-07
1.1538e-07
1.15269e-07
1.15334e-07
1.15335e-07
1.15332e-07
1.15334e-07
1.153e-07
1.15426e-07
1.15412e-07
1.15404e-07
1.15275e-07
1.15411e-07
1.15418e-07
1.13771e-07
1.1376e-07
1.1377e-07
1.13632e-07
1.13629e-07
1.13637e-07
1.13631e-07
1.13796e-07
1.13765e-07
1.1377e-07
1.13631e-07
1.13421e-07
1.13422e-07
1.13422e-07
1.13421e-07
1.13665e-07
1.13654e-07
1.13632e-07
1.13421e-07
1.13427e-07
1.13424e-07
1.13424e-07
1.13427e-07
1.13421e-07
1.13719e-07
1.13797e-07
1.13771e-07
1.13629e-07
1.13422e-07
1.13424e-07
1.13423e-07
1.13423e-07
1.13424e-07
1.13422e-07
1.1372e-07
1.13789e-07
1.1376e-07
1.13637e-07
1.13422e-07
1.13424e-07
1.13423e-07
1.13423e-07
1.13424e-07
1.13422e-07
1.13717e-07
1.1366e-07
1.13631e-07
1.13421e-07
1.13427e-07
1.13424e-07
1.13424e-07
1.13427e-07
1.13421e-07
1.13719e-07
1.13796e-07
1.13796e-07
1.13665e-07
1.13421e-07
1.13422e-07
1.13422e-07
1.13421e-07
1.13702e-07
1.13685e-07
1.13803e-07
1.13765e-07
1.13654e-07
1.13719e-07
1.1372e-07
1.13717e-07
1.13719e-07
1.13685e-07
1.13811e-07
1.13797e-07
1.13789e-07
1.1366e-07
1.13796e-07
1.13803e-07
1.12156e-07
1.12145e-07
1.12155e-07
1.12017e-07
1.12014e-07
1.12022e-07
1.12016e-07
1.12181e-07
1.1215e-07
1.12155e-07
1.12016e-07
1.11806e-07
1.11807e-07
1.11807e-07
1.11806e-07
1.1205e-07
1.12039e-07
1.12017e-07
1.11806e-07
1.11812e-07
1.11809e-07
1.11809e-07
1.11812e-07
1.11806e-07
1.12104e-07
1.12182e-07
1.12156e-07
1.12014e-07
1.11807e-07
1.11809e-07
1.11808e-07
1.11808e-07
1.11809e-07
1.11807e-07
1.12105e-07
1.12174e-07
1.12145e-07
1.12022e-07
1.11807e-07
1.11809e-07
1.11808e-07
1.11808e-07
1.11809e-07
1.11807e-07
1.12102e-07
1.12045e-07
1.12016e-07
1.11806e-07
1.11812e-07
1.11809e-07
1.11809e-07
1.11812e-07
1.11806e-07
1.12104e-07
1.12181e-07
1.12181e-07
1.1205e-07
1.11806e-07
1.11807e-07
1.11807e-07
1.11806e-07
1.12086e-07
1.1207e-07
1.12188e-07
1.1215e-07
1.12039e-07
1.12104e-07
1.12105e-07
1.12102e-07
1.12104e-07
1.1207e-07
1.12196e-07
1.12182e-07
1.12174e-07
1.12045e-07
1.12181e-07
1.12188e-07
1.10541e-07
1.1053e-07
1.1054e-07
1.10402e-07
1.10398e-07
1.10407e-07
1.10401e-07
1.10566e-07
1.10535e-07
1.1054e-07
1.10401e-07
1.10191e-07
1.10192e-07
1.10192e-07
1.10191e-07
1.10435e-07
1.10424e-07
1.10402e-07
1.10191e-07
1.10197e-07
1.10194e-07
1.10194e-07
1.10197e-07
1.10191e-07
1.10489e-07
1.10567e-07
1.10541e-07
1.10398e-07
1.10192e-07
1.10194e-07
1.10193e-07
1.10193e-07
1.10194e-07
1.10192e-07
1.1049e-07
1.10559e-07
1.1053e-07
1.10407e-07
1.10192e-07
1.10194e-07
1.10193e-07
1.10193e-07
1.10194e-07
1.10192e-07
1.10487e-07
1.1043e-07
1.10401e-07
1.10191e-07
1.10197e-07
1.10194e-07
1.10194e-07
1.10197e-07
1.10191e-07
1.10489e-07
1.10565e-07
1.10566e-07
1.10435e-07
1.10191e-07
1.10192e-07
1.10192e-07
1.10191e-07
1.10471e-07
1.10455e-07
1.10573e-07
1.10535e-07
1.10424e-07
1.10489e-07
1.1049e-07
1.10487e-07
1.10489e-07
1.10455e-07
1.1058e-07
1.10567e-07
1.10559e-07
1.1043e-07
1.10565e-07
1.10573e-07
1.08926e-07
1.08915e-07
1.08925e-07
1.08787e-07
1.08783e-07
1.08792e-07
1.08786e-07
1.08951e-07
1.0892e-07
1.08925e-07
1.08786e-07
1.08576e-07
1.08577e-07
1.08577e-07
1.08576e-07
1.0882e-07
1.08809e-07
1.08787e-07
1.08576e-07
1.08582e-07
1.08579e-07
1.08579e-07
1.08582e-07
1.08576e-07
1.08874e-07
1.08952e-07
1.08926e-07
1.08783e-07
1.08577e-07
1.08579e-07
1.08578e-07
1.08578e-07
1.08579e-07
1.08577e-07
1.08875e-07
1.08944e-07
1.08915e-07
1.08792e-07
1.08577e-07
1.08579e-07
1.08578e-07
1.08578e-07
1.08579e-07
1.08577e-07
1.08872e-07
1.08815e-07
1.08786e-07
1.08576e-07
1.08582e-07
1.08579e-07
1.08579e-07
1.08582e-07
1.08576e-07
1.08873e-07
1.0895e-07
1.08951e-07
1.0882e-07
1.08576e-07
1.08577e-07
1.08577e-07
1.08576e-07
1.08856e-07
1.08839e-07
1.08958e-07
1.0892e-07
1.08809e-07
1.08874e-07
1.08875e-07
1.08872e-07
1.08873e-07
1.08839e-07
1.08965e-07
1.08952e-07
1.08944e-07
1.08815e-07
1.0895e-07
1.08958e-07
1.07311e-07
1.073e-07
1.0731e-07
1.07172e-07
1.07168e-07
1.07176e-07
1.07171e-07
1.07336e-07
1.07305e-07
1.0731e-07
1.07171e-07
1.06961e-07
1.06962e-07
1.06962e-07
1.06961e-07
1.07205e-07
1.07194e-07
1.07172e-07
1.06961e-07
1.06966e-07
1.06964e-07
1.06964e-07
1.06966e-07
1.06961e-07
1.07259e-07
1.07337e-07
1.07311e-07
1.07168e-07
1.06962e-07
1.06964e-07
1.06963e-07
1.06963e-07
1.06964e-07
1.06962e-07
1.0726e-07
1.07329e-07
1.073e-07
1.07176e-07
1.06962e-07
1.06964e-07
1.06963e-07
1.06963e-07
1.06964e-07
1.06962e-07
1.07257e-07
1.07199e-07
1.07171e-07
1.06961e-07
1.06966e-07
1.06964e-07
1.06964e-07
1.06966e-07
1.06961e-07
1.07258e-07
1.07335e-07
1.07336e-07
1.07205e-07
1.06961e-07
1.06962e-07
1.06962e-07
1.06961e-07
1.07241e-07
1.07224e-07
1.07342e-07
1.07305e-07
1.07194e-07
1.07259e-07
1.0726e-07
1.07257e-07
1.07258e-07
1.07224e-07
1.0735e-07
1.07337e-07
1.07329e-07
1.07199e-07
1.07335e-07
1.07342e-07
1.05696e-07
1.05685e-07
1.05695e-07
1.05557e-07
1.05553e-07
1.05561e-07
1.05556e-07
1.05721e-07
1.0569e-07
1.05695e-07
1.05556e-07
1.05346e-07
1.05347e-07
1.05347e-07
1.05346e-07
1.0559e-07
1.05579e-07
1.05557e-07
1.05346e-07
1.05351e-07
1.05349e-07
1.05349e-07
1.05351e-07
1.05346e-07
1.05644e-07
1.05722e-07
1.05696e-07
1.05553e-07
1.05347e-07
1.05349e-07
1.05348e-07
1.05348e-07
1.05349e-07
1.05347e-07
1.05645e-07
1.05713e-07
1.05685e-07
1.05561e-07
1.05347e-07
1.05349e-07
1.05348e-07
1.05348e-07
1.05349e-07
1.05347e-07
1.05641e-07
1.05584e-07
1.05556e-07
1.05346e-07
1.05351e-07
1.05349e-07
1.05349e-07
1.05351e-07
1.05346e-07
1.05643e-07
1.0572e-07
1.05721e-07
1.0559e-07
1.05346e-07
1.05347e-07
1.05347e-07
1.05346e-07
1.05626e-07
1.05609e-07
1.05727e-07
1.0569e-07
1.05579e-07
1.05644e-07
1.05645e-07
1.05641e-07
1.05643e-07
1.05609e-07
1.05735e-07
1.05722e-07
1.05714e-07
1.05584e-07
1.0572e-07
1.05727e-07
1.04081e-07
1.0407e-07
1.0408e-07
1.03942e-07
1.03938e-07
1.03946e-07
1.03941e-07
1.04106e-07
1.04075e-07
1.0408e-07
1.03941e-07
1.03731e-07
1.03732e-07
1.03732e-07
1.03731e-07
1.03975e-07
1.03964e-07
1.03942e-07
1.03731e-07
1.03736e-07
1.03734e-07
1.03734e-07
1.03736e-07
1.03731e-07
1.04029e-07
1.04107e-07
1.04081e-07
1.03938e-07
1.03732e-07
1.03734e-07
1.03733e-07
1.03733e-07
1.03734e-07
1.03732e-07
1.0403e-07
1.04098e-07
1.0407e-07
1.03946e-07
1.03732e-07
1.03734e-07
1.03733e-07
1.03733e-07
1.03734e-07
1.03732e-07
1.04026e-07
1.03969e-07
1.03941e-07
1.03731e-07
1.03736e-07
1.03734e-07
1.03734e-07
1.03736e-07
1.03731e-07
1.04028e-07
1.04105e-07
1.04106e-07
1.03975e-07
1.03731e-07
1.03732e-07
1.03732e-07
1.03731e-07
1.04011e-07
1.03994e-07
1.04112e-07
1.04075e-07
1.03964e-07
1.04029e-07
1.0403e-07
1.04026e-07
1.04028e-07
1.03994e-07
1.0412e-07
1.04107e-07
1.04098e-07
1.03969e-07
1.04105e-07
1.04112e-07
1.02466e-07
1.02454e-07
1.02465e-07
1.02327e-07
1.02323e-07
1.02331e-07
1.02326e-07
1.02491e-07
1.02459e-07
1.02465e-07
1.02326e-07
1.02116e-07
1.02117e-07
1.02117e-07
1.02116e-07
1.02359e-07
1.02349e-07
1.02327e-07
1.02116e-07
1.02121e-07
1.02119e-07
1.02119e-07
1.02121e-07
1.02116e-07
1.02414e-07
1.02492e-07
1.02466e-07
1.02323e-07
1.02117e-07
1.02119e-07
1.02118e-07
1.02118e-07
1.02119e-07
1.02117e-07
1.02414e-07
1.02483e-07
1.02454e-07
1.02331e-07
1.02117e-07
1.02119e-07
1.02118e-07
1.02118e-07
1.02119e-07
1.02117e-07
1.02411e-07
1.02354e-07
1.02326e-07
1.02116e-07
1.02121e-07
1.02119e-07
1.02119e-07
1.02121e-07
1.02116e-07
1.02413e-07
1.0249e-07
1.02491e-07
1.02359e-07
1.02116e-07
1.02117e-07
1.02117e-07
1.02116e-07
1.02396e-07
1.02379e-07
1.02497e-07
1.02459e-07
1.02349e-07
1.02414e-07