/*--------------------------------*- C++ -*----------------------------------*\
| =========                 |                                                 |
| \\      /  F ield         | OpenFOAM: The Open Source CFD Toolbox           |
|  \\    /   O peration     | Version:                                        |
|   \\  /    A nd           | Website:  www.openfoam.com                      |
|    \\/     M anipulation  |                                                 |
\*---------------------------------------------------------------------------*/
FoamFile
{
    version     2.0;
    format      ascii;
    class       volScalarField;
    location    "400";
    object      epsilon;
}
// * * * * * * * * * * * * * * * * * * * * * * * * * * * * * * * * * * * * * //

dimensions      [0 2 -3 0 0 0 0];


internalField   nonuniform List<scalar> 
172512
(
4.9917e-07
4.99976e-07
4.99976e-07
4.99864e-07
4.45574e-07
4.54114e-07
4.54114e-07
4.63753e-07
4.03788e-07
4.18749e-07
4.18751e-07
4.3954e-07
3.68406e-07
3.88705e-07
3.88708e-07
4.17791e-07
3.38054e-07
3.62205e-07
3.62208e-07
3.9618e-07
3.11679e-07
3.38343e-07
3.38346e-07
3.74653e-07
2.88499e-07
3.16686e-07
3.1669e-07
3.53759e-07
2.67942e-07
2.97056e-07
2.9706e-07
3.34179e-07
2.49594e-07
2.79396e-07
2.794e-07
3.16504e-07
2.33147e-07
2.63701e-07
2.63704e-07
3.01174e-07
2.18372e-07
2.49975e-07
2.49979e-07
2.88501e-07
2.05095e-07
2.38219e-07
2.38223e-07
2.78702e-07
1.93175e-07
2.28434e-07
2.28438e-07
2.71884e-07
1.825e-07
2.20627e-07
2.20631e-07
2.68172e-07
1.7298e-07
2.14805e-07
2.14809e-07
2.67656e-07
1.64542e-07
2.1098e-07
2.10985e-07
2.70509e-07
1.57123e-07
2.09159e-07
2.09164e-07
2.76716e-07
1.5067e-07
2.09358e-07
2.09364e-07
2.86302e-07
1.45139e-07
2.11621e-07
2.11628e-07
2.99251e-07
1.40495e-07
2.15965e-07
2.15973e-07
3.15625e-07
1.36707e-07
2.22411e-07
2.22421e-07
3.35369e-07
1.33753e-07
2.30975e-07
2.30987e-07
3.58383e-07
1.3161e-07
2.41646e-07
2.41659e-07
3.84503e-07
1.30265e-07
2.54402e-07
2.54417e-07
4.13476e-07
1.29704e-07
2.69198e-07
2.69216e-07
4.44965e-07
1.29929e-07
2.85969e-07
2.8599e-07
4.78581e-07
1.30919e-07
3.04629e-07
3.04654e-07
5.13898e-07
1.32675e-07
3.25073e-07
3.25102e-07
5.50468e-07
1.35196e-07
3.47181e-07
3.47215e-07
5.87844e-07
1.38486e-07
3.70817e-07
3.70857e-07
6.25608e-07
1.42545e-07
3.95836e-07
3.95881e-07
6.63375e-07
1.4738e-07
4.2208e-07
4.2213e-07
7.00817e-07
1.52995e-07
4.49383e-07
4.4944e-07
7.37665e-07
1.59396e-07
4.77575e-07
4.77636e-07
7.73697e-07
1.66587e-07
5.0648e-07
5.0655e-07
8.08766e-07
1.74573e-07
5.35924e-07
5.35996e-07
8.42717e-07
1.83352e-07
5.65723e-07
5.65806e-07
8.75523e-07
1.9292e-07
5.95714e-07
5.95802e-07
9.07147e-07
2.03268e-07
6.25722e-07
6.25816e-07
9.37567e-07
2.14383e-07
6.55587e-07
6.5569e-07
9.66779e-07
2.26239e-07
6.85162e-07
6.8527e-07
9.94784e-07
2.38812e-07
7.14311e-07
7.14426e-07
1.02161e-06
2.52065e-07
7.42909e-07
7.43032e-07
1.04727e-06
2.65956e-07
7.70857e-07
7.70979e-07
1.07181e-06
2.80435e-07
7.98041e-07
7.98174e-07
1.09526e-06
2.95441e-07
8.24399e-07
8.24529e-07
1.11766e-06
3.10911e-07
8.49852e-07
8.49989e-07
1.13903e-06
3.26771e-07
8.74359e-07
8.74495e-07
1.1594e-06
3.42947e-07
8.97878e-07
8.98016e-07
1.1788e-06
3.59356e-07
9.20386e-07
9.20525e-07
1.19727e-06
3.75922e-07
9.41873e-07
9.42012e-07
1.21483e-06
3.92558e-07
9.62334e-07
9.62472e-07
1.2315e-06
4.09185e-07
9.81787e-07
9.81929e-07
1.24732e-06
4.25726e-07
1.00024e-06
1.00038e-06
1.26232e-06
4.42104e-07
1.0177e-06
1.01784e-06
1.27651e-06
4.58248e-07
1.03418e-06
1.03432e-06
1.28994e-06
4.74092e-07
1.0497e-06
1.04984e-06
1.30261e-06
4.89575e-07
1.06429e-06
1.06443e-06
1.31456e-06
5.04648e-07
1.07797e-06
1.07811e-06
1.3258e-06
5.19262e-07
1.09076e-06
1.09089e-06
1.33636e-06
5.33379e-07
1.10269e-06
1.10282e-06
1.34626e-06
5.46959e-07
1.11378e-06
1.1139e-06
1.35551e-06
5.59971e-07
1.12406e-06
1.12418e-06
1.36415e-06
5.7239e-07
1.13356e-06
1.13368e-06
1.37218e-06
5.84196e-07
1.1423e-06
1.14242e-06
1.37962e-06
5.95379e-07
1.15031e-06
1.15042e-06
1.38649e-06
6.05925e-07
1.1576e-06
1.15772e-06
1.39281e-06
6.15826e-07
1.16421e-06
1.16432e-06
1.39859e-06
6.25086e-07
1.17016e-06
1.17027e-06
1.40385e-06
6.33698e-07
1.17546e-06
1.17557e-06
1.40859e-06
6.41662e-07
1.18013e-06
1.18024e-06
1.41283e-06
6.48997e-07
1.18422e-06
1.18433e-06
1.41659e-06
6.557e-07
1.18772e-06
1.18783e-06
1.41988e-06
6.61783e-07
1.19067e-06
1.19078e-06
1.42271e-06
6.67266e-07
1.19309e-06
1.1932e-06
1.4251e-06
6.72156e-07
1.19498e-06
1.19509e-06
1.42705e-06
6.7648e-07
1.1964e-06
1.19651e-06
1.42861e-06
6.8025e-07
1.19732e-06
1.19745e-06
1.42976e-06
6.83491e-07
1.19782e-06
1.19791e-06
1.43059e-06
6.86148e-07
1.19777e-06
1.19788e-06
1.43063e-06
6.88653e-07
1.19788e-06
1.19801e-06
1.43169e-06
6.90029e-07
1.19637e-06
1.19646e-06
1.42981e-06
6.91783e-07
1.19624e-06
1.19635e-06
1.43087e-06
6.92715e-07
1.19439e-06
1.19451e-06
1.42964e-06
6.92999e-07
1.19251e-06
1.19259e-06
1.4273e-06
6.93361e-07
1.19132e-06
1.19152e-06
1.42857e-06
6.92867e-07
1.18709e-06
1.18718e-06
1.4202e-06
6.97519e-07
1.19606e-06
1.19605e-06
1.43782e-06
6.93453e-07
1.1844e-06
1.18476e-06
1.43219e-06
6.73039e-07
1.14432e-06
1.14444e-06
1.37104e-06
6.74505e-07
1.15129e-06
1.15118e-06
1.36819e-06
7.19444e-07
1.23269e-06
1.23275e-06
1.47895e-06
7.51978e-07
1.28273e-06
1.28294e-06
1.56113e-06
7.22743e-07
1.2424e-06
1.24254e-06
1.52997e-06
7.41487e-07
1.07608e-06
1.07601e-06
1.37069e-06
5.06203e-07
5.05586e-07
5.05585e-07
5.06203e-07
5.05585e-07
5.05585e-07
5.05986e-07
5.05986e-07
5.05986e-07
5.05987e-07
5.05587e-07
5.05586e-07
5.06203e-07
5.05587e-07
5.05585e-07
5.06203e-07
4.99865e-07
4.67264e-07
4.99977e-07
4.99979e-07
4.6414e-07
4.64148e-07
4.99865e-07
4.67263e-07
4.99979e-07
4.99979e-07
4.64144e-07
4.64149e-07
4.99977e-07
4.64135e-07
4.6414e-07
4.99864e-07
4.67266e-07
4.99978e-07
4.64135e-07
4.64144e-07
4.67268e-07
4.63753e-07
4.41544e-07
4.54119e-07
4.54127e-07
4.27004e-07
4.27013e-07
4.63753e-07
4.41543e-07
4.54123e-07
4.54129e-07
4.27004e-07
4.27015e-07
4.5412e-07
4.26996e-07
4.27006e-07
4.63753e-07
4.41549e-07
4.54123e-07
4.26998e-07
4.27007e-07
4.41555e-07
4.39534e-07
4.19396e-07
4.18757e-07
4.18766e-07
3.95844e-07
3.95853e-07
4.39537e-07
4.19399e-07
4.18757e-07
4.18769e-07
3.95839e-07
3.95856e-07
4.18761e-07
3.95834e-07
3.9585e-07
4.39538e-07
4.19404e-07
4.1876e-07
3.95836e-07
3.95845e-07
4.19413e-07
4.17775e-07
3.9773e-07
3.88717e-07
3.88725e-07
3.68571e-07
3.68579e-07
4.17779e-07
3.97735e-07
3.88711e-07
3.88729e-07
3.68561e-07
3.68583e-07
3.88723e-07
3.68558e-07
3.68578e-07
4.17783e-07
3.97741e-07
3.88717e-07
3.68561e-07
3.68569e-07
3.97751e-07
3.96161e-07
3.76141e-07
3.62219e-07
3.62226e-07
3.44105e-07
3.44112e-07
3.96166e-07
3.76146e-07
3.62208e-07
3.6223e-07
3.44092e-07
3.44116e-07
3.62226e-07
3.44091e-07
3.44113e-07
3.96172e-07
3.76153e-07
3.62216e-07
3.44094e-07
3.441e-07
3.76164e-07
3.74632e-07
3.55142e-07
3.38358e-07
3.38364e-07
3.21922e-07
3.21928e-07
3.74637e-07
3.55148e-07
3.38344e-07
3.38368e-07
3.21906e-07
3.21932e-07
3.38366e-07
3.21907e-07
3.2193e-07
3.74644e-07
3.55155e-07
3.38353e-07
3.2191e-07
3.21915e-07
3.55166e-07
3.53736e-07
3.35407e-07
3.16703e-07
3.16708e-07
3.01795e-07
3.018e-07
3.53743e-07
3.35414e-07
3.16686e-07
3.16712e-07
3.01776e-07
3.01804e-07
3.16711e-07
3.01778e-07
3.01803e-07
3.53749e-07
3.35421e-07
3.16695e-07
3.01782e-07
3.01787e-07
3.35432e-07
3.34155e-07
3.17533e-07
2.97074e-07
2.97079e-07
2.83645e-07
2.8365e-07
3.34163e-07
3.1754e-07
2.97054e-07
2.97082e-07
2.83625e-07
2.83654e-07
2.97082e-07
2.83628e-07
2.83654e-07
3.3417e-07
3.17548e-07
2.97065e-07
2.83631e-07
2.83636e-07
3.17559e-07
3.1648e-07
3.01967e-07
2.79415e-07
2.7942e-07
2.67459e-07
2.67463e-07
3.16488e-07
3.01973e-07
2.79394e-07
2.79422e-07
2.67437e-07
2.67467e-07
2.79423e-07
2.6744e-07
2.67467e-07
3.16494e-07
3.01982e-07
2.79405e-07
2.67444e-07
2.67448e-07
3.01993e-07
3.01148e-07
2.89028e-07
2.6372e-07
2.63725e-07
2.53241e-07
2.53246e-07
3.01157e-07
2.89033e-07
2.63698e-07
2.63727e-07
2.53218e-07
2.53249e-07
2.63728e-07
2.53221e-07
2.53249e-07
3.01164e-07
2.89043e-07
2.63709e-07
2.53225e-07
2.53229e-07
2.89054e-07
2.88475e-07
2.78935e-07
2.49995e-07
2.5e-07
2.40994e-07
2.40999e-07
2.88484e-07
2.7894e-07
2.49972e-07
2.50003e-07
2.4097e-07
2.41003e-07
2.50003e-07
2.40973e-07
2.41001e-07
2.88491e-07
2.7895e-07
2.49983e-07
2.40976e-07
2.40981e-07
2.78962e-07
2.78675e-07
2.71813e-07
2.38242e-07
2.38247e-07
2.30716e-07
2.30723e-07
2.78684e-07
2.71821e-07
2.38217e-07
2.38249e-07
2.30691e-07
2.30726e-07
2.38249e-07
2.30694e-07
2.30724e-07
2.78691e-07
2.7183e-07
2.38229e-07
2.30697e-07
2.30703e-07
2.71843e-07
2.71854e-07
2.67846e-07
2.28458e-07
2.28465e-07
2.22415e-07
2.22423e-07
2.71865e-07
2.67856e-07
2.28432e-07
2.28467e-07
2.22388e-07
2.22427e-07
2.28465e-07
2.2239e-07
2.22423e-07
2.71872e-07
2.67865e-07
2.28444e-07
2.22394e-07
2.22402e-07
2.67879e-07
2.68139e-07
2.66965e-07
2.20653e-07
2.20661e-07
2.16097e-07
2.16107e-07
2.68152e-07
2.66976e-07
2.20626e-07
2.20664e-07
2.16069e-07
2.16111e-07
2.2066e-07
2.16069e-07
2.16104e-07
2.6816e-07
2.66987e-07
2.20639e-07
2.16073e-07
2.16083e-07
2.67002e-07
2.67618e-07
2.69137e-07
2.14833e-07
2.14845e-07
2.1177e-07
2.11787e-07
2.67633e-07
2.69152e-07
2.14805e-07
2.14847e-07
2.11744e-07
2.11789e-07
2.14841e-07
2.11742e-07
2.11778e-07
2.67642e-07
2.69163e-07
2.14819e-07
2.11747e-07
2.11759e-07
2.6918e-07
2.70466e-07
2.74644e-07
2.11006e-07
2.11026e-07
2.09443e-07
2.09468e-07
2.70484e-07
2.74662e-07
2.10982e-07
2.11027e-07
2.09419e-07
2.09468e-07
2.11016e-07
2.09415e-07
2.09452e-07
2.70494e-07
2.74674e-07
2.10998e-07
2.0942e-07
2.09437e-07
2.74693e-07
2.76667e-07
2.83526e-07
2.09186e-07
2.09212e-07
2.09161e-07
2.09191e-07
2.7669e-07
2.83547e-07
2.09163e-07
2.09212e-07
2.09137e-07
2.09191e-07
2.09196e-07
2.09131e-07
2.0917e-07
2.76699e-07
2.83559e-07
2.09181e-07
2.09137e-07
2.09157e-07
2.83581e-07
2.86249e-07
2.95788e-07
2.0939e-07
2.09421e-07
2.1089e-07
2.10925e-07
2.86278e-07
2.95813e-07
2.09366e-07
2.09421e-07
2.10864e-07
2.10925e-07
2.09399e-07
2.10855e-07
2.10898e-07
2.86285e-07
2.95825e-07
2.09386e-07
2.10861e-07
2.10886e-07
2.95848e-07
2.99191e-07
3.11465e-07
2.11658e-07
2.11693e-07
2.14715e-07
2.14759e-07
2.99221e-07
3.11492e-07
2.11632e-07
2.11693e-07
2.1469e-07
2.14757e-07
2.11666e-07
2.14678e-07
2.14725e-07
2.99231e-07
3.11507e-07
2.11654e-07
2.14685e-07
2.14715e-07
3.11533e-07
3.1556e-07
3.30518e-07
2.16005e-07
2.16047e-07
2.20646e-07
2.20691e-07
3.15586e-07
3.3054e-07
2.15979e-07
2.16048e-07
2.20617e-07
2.20692e-07
2.16015e-07
2.20602e-07
2.20655e-07
3.15603e-07
3.30562e-07
2.16005e-07
2.2061e-07
2.20646e-07
3.30591e-07
3.35304e-07
3.52854e-07
2.22461e-07
2.22503e-07
2.28694e-07
2.28736e-07
3.35321e-07
3.52873e-07
2.22429e-07
2.22506e-07
2.28658e-07
2.28741e-07
2.22468e-07
2.28639e-07
2.28699e-07
3.35344e-07
3.52899e-07
2.22458e-07
2.28648e-07
2.2869e-07
3.52933e-07
3.58313e-07
3.78321e-07
2.31035e-07
2.31077e-07
2.38849e-07
2.38889e-07
3.58327e-07
3.78337e-07
2.30998e-07
2.31083e-07
2.38807e-07
2.38899e-07
2.3104e-07
2.38784e-07
2.38852e-07
3.58355e-07
3.7837e-07
2.31029e-07
2.38796e-07
2.38842e-07
3.78407e-07
3.84427e-07
4.06685e-07
2.41716e-07
2.41755e-07
2.51096e-07
2.51136e-07
3.84438e-07
4.067e-07
2.41672e-07
2.41766e-07
2.51048e-07
2.51151e-07
2.41719e-07
2.51022e-07
2.511e-07
3.84472e-07
4.06739e-07
2.41707e-07
2.51036e-07
2.51087e-07
4.06779e-07
4.13392e-07
4.37624e-07
2.54481e-07
2.5452e-07
2.65397e-07
2.65436e-07
4.13402e-07
4.37639e-07
2.5443e-07
2.54536e-07
2.65342e-07
2.65456e-07
2.54484e-07
2.65314e-07
2.65401e-07
4.13442e-07
4.37683e-07
2.54469e-07
2.6533e-07
2.65385e-07
4.37727e-07
4.44873e-07
4.7076e-07
2.69286e-07
2.69326e-07
2.81691e-07
2.81731e-07
4.44882e-07
4.70774e-07
2.69229e-07
2.69347e-07
2.81628e-07
2.81755e-07
2.69291e-07
2.81598e-07
2.81697e-07
4.44928e-07
4.70823e-07
2.69272e-07
2.81617e-07
2.81676e-07
4.70872e-07
4.78481e-07
5.05674e-07
2.86067e-07
2.86107e-07
2.99898e-07
2.99937e-07
4.7849e-07
5.05687e-07
2.86002e-07
2.86132e-07
2.99826e-07
2.99966e-07
2.86074e-07
2.99795e-07
2.99905e-07
4.7854e-07
5.05742e-07
2.8605e-07
2.99818e-07
2.99879e-07
5.05795e-07
5.1379e-07
5.41922e-07
3.04737e-07
3.04777e-07
3.19916e-07
3.19956e-07
5.13797e-07
5.41936e-07
3.04663e-07
3.04807e-07
3.19835e-07
3.1999e-07
3.04746e-07
3.19803e-07
3.19927e-07
5.13853e-07
5.41997e-07
3.04715e-07
3.19831e-07
3.19893e-07
5.42053e-07
5.50351e-07
5.79062e-07
3.2519e-07
3.2523e-07
3.41631e-07
3.41669e-07
5.50357e-07
5.79076e-07
3.25108e-07
3.25265e-07
3.41539e-07
3.41707e-07
3.25203e-07
3.41507e-07
3.41645e-07
5.50419e-07
5.79141e-07
3.25164e-07
3.4154e-07
3.41601e-07
5.79201e-07
5.8772e-07
6.1667e-07
3.47307e-07
3.47348e-07
3.64909e-07
3.64945e-07
5.87727e-07
6.16681e-07
3.47215e-07
3.47386e-07
3.64806e-07
3.64988e-07
3.47325e-07
3.64775e-07
3.64927e-07
5.87793e-07
6.16752e-07
3.47276e-07
3.64813e-07
3.64873e-07
6.16816e-07
6.25478e-07
6.54355e-07
3.70953e-07
3.70992e-07
3.89607e-07
3.8964e-07
6.25482e-07
6.54368e-07
3.70851e-07
3.71036e-07
3.89491e-07
3.89687e-07
3.70976e-07
3.89463e-07
3.89628e-07
6.25554e-07
6.54442e-07
3.70916e-07
3.89506e-07
3.89563e-07
6.54508e-07
6.63238e-07
6.91782e-07
3.95979e-07
3.96018e-07
4.15569e-07
4.15599e-07
6.63244e-07
6.91793e-07
3.95867e-07
3.96066e-07
4.15441e-07
4.1565e-07
3.96009e-07
4.15415e-07
4.15594e-07
6.63319e-07
6.91874e-07
3.95937e-07
4.15464e-07
4.15517e-07
6.91941e-07
7.00677e-07
7.28669e-07
4.2223e-07
4.22267e-07
4.4263e-07
4.42657e-07
7.0068e-07
7.2868e-07
4.22107e-07
4.22319e-07
4.42491e-07
4.42713e-07
4.22266e-07
4.42469e-07
4.42663e-07
7.0076e-07
7.28762e-07
4.22181e-07
4.42524e-07
4.42573e-07
7.28835e-07
7.37517e-07
7.64795e-07
4.4954e-07
4.49575e-07
4.70624e-07
4.70647e-07
7.37521e-07
7.64806e-07
4.49406e-07
4.49632e-07
4.70473e-07
4.70707e-07
4.49583e-07
4.70456e-07
4.70661e-07
7.37603e-07
7.6489e-07
4.49486e-07
4.70516e-07
4.70557e-07
7.64961e-07
7.73551e-07
7.99986e-07
4.7774e-07
4.7777e-07
4.99371e-07
4.99391e-07
7.73553e-07
7.99997e-07
4.77595e-07
4.77829e-07
4.9921e-07
4.99458e-07
4.77787e-07
4.99198e-07
4.99418e-07
7.73636e-07
8.00086e-07
4.77676e-07
4.99267e-07
4.99301e-07
8.00161e-07
8.08611e-07
8.34124e-07
5.06648e-07
5.06676e-07
5.28704e-07
5.28718e-07
8.08614e-07
8.34134e-07
5.06493e-07
5.06742e-07
5.28533e-07
5.28787e-07
5.06705e-07
5.28524e-07
5.28753e-07
8.08704e-07
8.34221e-07
5.06581e-07
5.28597e-07
5.28624e-07
8.34296e-07
8.42562e-07
8.67133e-07
5.36098e-07
5.3612e-07
5.58433e-07
5.58443e-07
8.42565e-07
8.67141e-07
5.35933e-07
5.36184e-07
5.58253e-07
5.5852e-07
5.36158e-07
5.5825e-07
5.58492e-07
8.4265e-07
8.67232e-07
5.36021e-07
5.58332e-07
5.5835e-07
8.67308e-07
8.75363e-07
8.98984e-07
5.65902e-07
5.65918e-07
5.88399e-07
5.88402e-07
8.75366e-07
8.98989e-07
5.65728e-07
5.6599e-07
5.88211e-07
5.88483e-07
5.65971e-07
5.8821e-07
5.88461e-07
8.75458e-07
8.99082e-07
5.65822e-07
5.88298e-07
5.88308e-07
8.99154e-07
9.06994e-07
9.29632e-07
5.95897e-07
5.95907e-07
6.18416e-07
6.18417e-07
9.06992e-07
9.29639e-07
5.95715e-07
5.9598e-07
6.18222e-07
6.18501e-07
5.95969e-07
6.18228e-07
6.18487e-07
9.07084e-07
9.29732e-07
5.95808e-07
6.18322e-07
6.18323e-07
9.29804e-07
9.3741e-07
9.59087e-07
6.25906e-07
6.25911e-07
6.48337e-07
6.48329e-07
9.37411e-07
9.59086e-07
6.25716e-07
6.25989e-07
6.48137e-07
6.48418e-07
6.25986e-07
6.48144e-07
6.48411e-07
9.37504e-07
9.59185e-07
6.25816e-07
6.48248e-07
6.48239e-07
9.59256e-07
9.66628e-07
9.87334e-07
6.55778e-07
6.5577e-07
6.77998e-07
6.77983e-07
9.6662e-07
9.87332e-07
6.55581e-07
6.55857e-07
6.77791e-07
6.78074e-07
6.55858e-07
6.77804e-07
6.78075e-07
9.66719e-07
9.87432e-07
6.55678e-07
6.77914e-07
6.77895e-07
9.87499e-07
9.94627e-07
1.0144e-06
6.85355e-07
6.85343e-07
7.07264e-07
7.07246e-07
9.94626e-07
1.0144e-06
6.85149e-07
6.8543e-07
7.07055e-07
7.07338e-07
6.85438e-07
7.07072e-07
7.07349e-07
9.94725e-07
1.0145e-06
6.85251e-07
7.07188e-07
7.07161e-07
1.01456e-06
1.02145e-06
1.0403e-06
7.14504e-07
7.14486e-07
7.36007e-07
7.35987e-07
1.02145e-06
1.04029e-06
7.14295e-07
7.14578e-07
7.35799e-07
7.36084e-07
7.1459e-07
7.35818e-07
7.36097e-07
1.02155e-06
1.0404e-06
7.14396e-07
7.35942e-07
7.35904e-07
1.04046e-06
1.04711e-06
1.06508e-06
7.43099e-07
7.43078e-07
7.64121e-07
7.64099e-07
1.04711e-06
1.06507e-06
7.4289e-07
7.43175e-07
7.63912e-07
7.64195e-07
7.43192e-07
7.63938e-07
7.64217e-07
1.04721e-06
1.06517e-06
7.42993e-07
7.64063e-07
7.6402e-07
1.06524e-06
1.07166e-06
1.08876e-06
7.71039e-07
7.71017e-07
7.91505e-07
7.91473e-07
1.07166e-06
1.08875e-06
7.70829e-07
7.71112e-07
7.91294e-07
7.91577e-07
7.71137e-07
7.91322e-07
7.91601e-07
1.07176e-06
1.08886e-06
7.70933e-07
7.91455e-07
7.91401e-07
1.08892e-06
1.09511e-06
1.11138e-06
7.98226e-07
7.98191e-07
8.18071e-07
8.18032e-07
1.0951e-06
1.11137e-06
7.98015e-07
7.98297e-07
8.17859e-07
8.18138e-07
7.98323e-07
8.17891e-07
8.18168e-07
1.09521e-06
1.11148e-06
7.98118e-07
8.18026e-07
8.17967e-07
1.11154e-06
1.11751e-06
1.13297e-06
8.24576e-07
8.24539e-07
8.43754e-07
8.43707e-07
1.1175e-06
1.13296e-06
8.24364e-07
8.24642e-07
8.43541e-07
8.43817e-07
8.24676e-07
8.43578e-07
8.43851e-07
1.11761e-06
1.13306e-06
8.24468e-07
8.43715e-07
8.43647e-07
1.13312e-06
1.13888e-06
1.15355e-06
8.5003e-07
8.4998e-07
8.68498e-07
8.68441e-07
1.13887e-06
1.15354e-06
8.49817e-07
8.50092e-07
8.68284e-07
8.68556e-07
8.50128e-07
8.68323e-07
8.68594e-07
1.13898e-06
1.15365e-06
8.49919e-07
8.68463e-07
8.68391e-07
1.15371e-06
1.15925e-06
1.17316e-06
8.74532e-07
8.74476e-07
8.92265e-07
8.922e-07
1.15924e-06
1.17315e-06
8.74318e-07
8.74589e-07
8.9205e-07
8.92317e-07
8.74629e-07
8.92093e-07
8.92357e-07
1.15935e-06
1.17326e-06
8.74421e-07
8.92233e-07
8.92154e-07
1.17331e-06
1.17866e-06
1.19183e-06
8.9805e-07
8.97983e-07
9.15022e-07
9.14951e-07
1.17865e-06
1.19181e-06
8.97835e-07
8.98101e-07
9.14808e-07
9.15072e-07
8.98143e-07
9.14854e-07
9.15115e-07
1.17876e-06
1.19193e-06
8.97935e-07
9.14997e-07
9.14912e-07
1.19198e-06
1.19712e-06
1.20958e-06
9.20553e-07
9.20481e-07
9.36764e-07
9.36684e-07
1.19711e-06
1.20956e-06
9.20339e-07
9.20602e-07
9.3655e-07
9.36807e-07
9.20647e-07
9.36598e-07
9.36853e-07
1.19722e-06
1.20968e-06
9.2044e-07
9.3674e-07
9.36651e-07
1.20973e-06
1.21469e-06
1.22644e-06
9.42039e-07
9.41958e-07
9.57477e-07
9.57392e-07
1.21467e-06
1.22643e-06
9.41825e-07
9.4208e-07
9.57262e-07
9.57514e-07
9.42128e-07
9.57314e-07
9.57563e-07
1.21478e-06
1.22653e-06
9.41922e-07
9.57454e-07
9.57361e-07
1.22658e-06
1.23136e-06
1.24244e-06
9.62496e-07
9.6241e-07
9.77179e-07
9.77086e-07
1.23135e-06
1.24242e-06
9.62281e-07
9.62533e-07
9.76965e-07
9.77214e-07
9.62583e-07
9.77018e-07
9.77263e-07
1.23145e-06
1.24253e-06
9.62378e-07
9.77161e-07
9.77063e-07
1.24258e-06
1.24718e-06
1.25761e-06
9.81948e-07
9.81854e-07
9.9588e-07
9.95783e-07
1.24717e-06
1.25759e-06
9.81735e-07
9.81983e-07
9.95667e-07
9.95912e-07
9.82033e-07
9.95722e-07
9.95962e-07
1.24728e-06
1.25771e-06
9.8183e-07
9.95865e-07
9.95763e-07
1.25775e-06
1.26218e-06
1.27198e-06
1.0004e-06
1.0003e-06
1.01358e-06
1.01348e-06
1.26217e-06
1.27196e-06
1.00019e-06
1.00043e-06
1.01337e-06
1.01361e-06
1.00048e-06
1.01343e-06
1.01366e-06
1.26228e-06
1.27207e-06
1.00028e-06
1.01357e-06
1.01346e-06
1.27211e-06
1.27639e-06
1.28556e-06
1.01786e-06
1.01776e-06
1.03031e-06
1.0302e-06
1.27637e-06
1.28555e-06
1.01764e-06
1.01788e-06
1.03009e-06
1.03033e-06
1.01793e-06
1.03015e-06
1.03038e-06
1.27647e-06
1.28565e-06
1.01773e-06
1.03029e-06
1.03019e-06
1.2857e-06
1.28981e-06
1.2984e-06
1.03434e-06
1.03423e-06
1.04607e-06
1.04596e-06
1.28979e-06
1.29838e-06
1.03412e-06
1.03436e-06
1.04586e-06
1.04609e-06
1.03441e-06
1.04592e-06
1.04614e-06
1.2899e-06
1.29848e-06
1.03421e-06
1.04605e-06
1.04594e-06
1.29853e-06
1.30249e-06
1.3105e-06
1.04986e-06
1.04975e-06
1.06088e-06
1.06077e-06
1.30247e-06
1.31048e-06
1.04965e-06
1.04988e-06
1.06067e-06
1.0609e-06
1.04993e-06
1.06074e-06
1.06095e-06
1.30258e-06
1.31058e-06
1.04973e-06
1.06087e-06
1.06076e-06
1.31062e-06
1.31444e-06
1.32189e-06
1.06444e-06
1.06433e-06
1.07479e-06
1.07467e-06
1.31442e-06
1.32187e-06
1.06423e-06
1.06446e-06
1.07458e-06
1.0748e-06
1.06451e-06
1.07464e-06
1.07485e-06
1.31452e-06
1.32197e-06
1.06432e-06
1.07477e-06
1.07466e-06
1.32201e-06
1.32569e-06
1.33259e-06
1.07812e-06
1.07801e-06
1.08779e-06
1.08768e-06
1.32567e-06
1.33257e-06
1.07791e-06
1.07813e-06
1.08758e-06
1.0878e-06
1.07818e-06
1.08765e-06
1.08785e-06
1.32577e-06
1.33267e-06
1.07799e-06
1.08778e-06
1.08766e-06
1.33271e-06
1.33625e-06
1.34262e-06
1.0909e-06
1.09079e-06
1.09993e-06
1.09981e-06
1.33623e-06
1.3426e-06
1.0907e-06
1.09092e-06
1.09972e-06
1.09993e-06
1.09097e-06
1.09979e-06
1.09998e-06
1.33633e-06
1.3427e-06
1.09078e-06
1.09991e-06
1.0998e-06
1.34274e-06
1.34615e-06
1.35201e-06
1.10283e-06
1.10271e-06
1.11122e-06
1.1111e-06
1.34613e-06
1.35199e-06
1.10262e-06
1.10283e-06
1.11102e-06
1.11123e-06
1.10289e-06
1.11109e-06
1.11128e-06
1.34623e-06
1.35208e-06
1.1027e-06
1.11121e-06
1.11109e-06
1.35212e-06
1.35541e-06
1.36077e-06
1.11392e-06
1.1138e-06
1.1217e-06
1.12158e-06
1.35539e-06
1.36075e-06
1.11371e-06
1.11392e-06
1.1215e-06
1.1217e-06
1.11397e-06
1.12157e-06
1.12175e-06
1.35548e-06
1.36084e-06
1.11379e-06
1.12169e-06
1.12157e-06
1.36088e-06
1.36404e-06
1.36892e-06
1.12419e-06
1.12408e-06
1.13139e-06
1.13127e-06
1.36402e-06
1.3689e-06
1.12399e-06
1.1242e-06
1.13119e-06
1.13139e-06
1.12425e-06
1.13126e-06
1.13144e-06
1.36412e-06
1.36899e-06
1.12407e-06
1.13138e-06
1.13126e-06
1.36903e-06
1.37207e-06
1.37648e-06
1.13369e-06
1.13357e-06
1.14031e-06
1.1402e-06
1.37206e-06
1.37646e-06
1.13349e-06
1.13369e-06
1.14011e-06
1.14032e-06
1.13374e-06
1.14019e-06
1.14036e-06
1.37215e-06
1.37655e-06
1.13356e-06
1.1403e-06
1.14018e-06
1.37659e-06
1.37952e-06
1.38346e-06
1.14243e-06
1.14231e-06
1.1485e-06
1.14838e-06
1.3795e-06
1.38345e-06
1.14223e-06
1.14243e-06
1.1483e-06
1.1485e-06
1.14248e-06
1.14838e-06
1.14855e-06
1.37959e-06
1.38354e-06
1.1423e-06
1.14849e-06
1.14837e-06
1.38357e-06
1.38639e-06
1.38989e-06
1.15043e-06
1.15032e-06
1.15597e-06
1.15585e-06
1.38638e-06
1.38988e-06
1.15024e-06
1.15044e-06
1.15577e-06
1.15597e-06
1.15048e-06
1.15585e-06
1.15602e-06
1.38647e-06
1.38997e-06
1.1503e-06
1.15596e-06
1.15584e-06
1.39e-06
1.39271e-06
1.39577e-06
1.15773e-06
1.15761e-06
1.16274e-06
1.16263e-06
1.3927e-06
1.39576e-06
1.15753e-06
1.15773e-06
1.16255e-06
1.16274e-06
1.15777e-06
1.16263e-06
1.16279e-06
1.39278e-06
1.39584e-06
1.1576e-06
1.16273e-06
1.16261e-06
1.39588e-06
1.39849e-06
1.40113e-06
1.16433e-06
1.16421e-06
1.16885e-06
1.16873e-06
1.39847e-06
1.40111e-06
1.16414e-06
1.16433e-06
1.16866e-06
1.16885e-06
1.16438e-06
1.16874e-06
1.16889e-06
1.39856e-06
1.4012e-06
1.1642e-06
1.16884e-06
1.16872e-06
1.40124e-06
1.40375e-06
1.40598e-06
1.17028e-06
1.17016e-06
1.17431e-06
1.1742e-06
1.40373e-06
1.40596e-06
1.17008e-06
1.17028e-06
1.17412e-06
1.17431e-06
1.17032e-06
1.1742e-06
1.17435e-06
1.40382e-06
1.40605e-06
1.17015e-06
1.1743e-06
1.17418e-06
1.40608e-06
1.4085e-06
1.41031e-06
1.17558e-06
1.17546e-06
1.17914e-06
1.17902e-06
1.40848e-06
1.41029e-06
1.17539e-06
1.17558e-06
1.17895e-06
1.17914e-06
1.17562e-06
1.17903e-06
1.17918e-06
1.40856e-06
1.41038e-06
1.17545e-06
1.17913e-06
1.17901e-06
1.41041e-06
1.41273e-06
1.41417e-06
1.18025e-06
1.18014e-06
1.18337e-06
1.18326e-06
1.41271e-06
1.41415e-06
1.18006e-06
1.18025e-06
1.18318e-06
1.18337e-06
1.18029e-06
1.18326e-06
1.18341e-06
1.4128e-06
1.41424e-06
1.18012e-06
1.18336e-06
1.18324e-06
1.41427e-06
1.4165e-06
1.41755e-06
1.18434e-06
1.18423e-06
1.18702e-06
1.1869e-06
1.41648e-06
1.41753e-06
1.18415e-06
1.18434e-06
1.18683e-06
1.18702e-06
1.18438e-06
1.18691e-06
1.18706e-06
1.41657e-06
1.41762e-06
1.18421e-06
1.18701e-06
1.18689e-06
1.41765e-06
1.41979e-06
1.42046e-06
1.18784e-06
1.18773e-06
1.1901e-06
1.18999e-06
1.41977e-06
1.42044e-06
1.18765e-06
1.18784e-06
1.18991e-06
1.1901e-06
1.18788e-06
1.18999e-06
1.19014e-06
1.41986e-06
1.42053e-06
1.18772e-06
1.19009e-06
1.18997e-06
1.42056e-06
1.42262e-06
1.42294e-06
1.19079e-06
1.19068e-06
1.19265e-06
1.19254e-06
1.4226e-06
1.42292e-06
1.1906e-06
1.19079e-06
1.19246e-06
1.19265e-06
1.19083e-06
1.19254e-06
1.19269e-06
1.42269e-06
1.42301e-06
1.19066e-06
1.19264e-06
1.19252e-06
1.42304e-06
1.42501e-06
1.42498e-06
1.1932e-06
1.19309e-06
1.19467e-06
1.19456e-06
1.42499e-06
1.42495e-06
1.19302e-06
1.19321e-06
1.19449e-06
1.19467e-06
1.19324e-06
1.19456e-06
1.19471e-06
1.42508e-06
1.42504e-06
1.19308e-06
1.19466e-06
1.19454e-06
1.42507e-06
1.42696e-06
1.42659e-06
1.1951e-06
1.19499e-06
1.1962e-06
1.19609e-06
1.42694e-06
1.42659e-06
1.19492e-06
1.1951e-06
1.19602e-06
1.1962e-06
1.19514e-06
1.1961e-06
1.19624e-06
1.42703e-06
1.42666e-06
1.19497e-06
1.19619e-06
1.19608e-06
1.4267e-06
1.42852e-06
1.42782e-06
1.19651e-06
1.19641e-06
1.19725e-06
1.19713e-06
1.42851e-06
1.42777e-06
1.19633e-06
1.19651e-06
1.19707e-06
1.19725e-06
1.19656e-06
1.19712e-06
1.19728e-06
1.42858e-06
1.42789e-06
1.19639e-06
1.19724e-06
1.19712e-06
1.4279e-06
1.42969e-06
1.42871e-06
1.19745e-06
1.19733e-06
1.19788e-06
1.19777e-06
1.42964e-06
1.4287e-06
1.19728e-06
1.19746e-06
1.1977e-06
1.19788e-06
1.19748e-06
1.19777e-06
1.19792e-06
1.42976e-06
1.42877e-06
1.19733e-06
1.19787e-06
1.19775e-06
1.4288e-06
1.43049e-06
1.42871e-06
1.19791e-06
1.19782e-06
1.19786e-06
1.19776e-06
1.4305e-06
1.42871e-06
1.19774e-06
1.19792e-06
1.19769e-06
1.19787e-06
1.19796e-06
1.19777e-06
1.19792e-06
1.43055e-06
1.42879e-06
1.1978e-06
1.19787e-06
1.19775e-06
1.42883e-06
1.43053e-06
1.42982e-06
1.19787e-06
1.19777e-06
1.19804e-06
1.19792e-06
1.43052e-06
1.42976e-06
1.1977e-06
1.19789e-06
1.19786e-06
1.19805e-06
1.19792e-06
1.19791e-06
1.19806e-06
1.43062e-06
1.42988e-06
1.19776e-06
1.19803e-06
1.19791e-06
1.42988e-06
1.43163e-06
1.42822e-06
1.19802e-06
1.1979e-06
1.19686e-06
1.19676e-06
1.43157e-06
1.42821e-06
1.19784e-06
1.19802e-06
1.19669e-06
1.19686e-06
1.19804e-06
1.19675e-06
1.1969e-06
1.43169e-06
1.42827e-06
1.19788e-06
1.19685e-06
1.19674e-06
1.42831e-06
1.42972e-06
1.42858e-06
1.19647e-06
1.19638e-06
1.1962e-06
1.19611e-06
1.42972e-06
1.42858e-06
1.1963e-06
1.19647e-06
1.19603e-06
1.19622e-06
1.19652e-06
1.19611e-06
1.19626e-06
1.42977e-06
1.42866e-06
1.19636e-06
1.19621e-06
1.1961e-06
1.42869e-06
1.43076e-06
1.4282e-06
1.19634e-06
1.19624e-06
1.19556e-06
1.19544e-06
1.43076e-06
1.42816e-06
1.19617e-06
1.19637e-06
1.19539e-06
1.19559e-06
1.1964e-06
1.19544e-06
1.19561e-06
1.43086e-06
1.4283e-06
1.19624e-06
1.19557e-06
1.19546e-06
1.42832e-06
1.42953e-06
1.42492e-06
1.19451e-06
1.19441e-06
1.19264e-06
1.19255e-06
1.42949e-06
1.42492e-06
1.19434e-06
1.19453e-06
1.19247e-06
1.19263e-06
1.19455e-06
1.19254e-06
1.19266e-06
1.42962e-06
1.42493e-06
1.1944e-06
1.19261e-06
1.1925e-06
1.42497e-06
1.42727e-06
1.42728e-06
1.19262e-06
1.19253e-06
1.19252e-06
1.1924e-06
1.42728e-06
1.42719e-06
1.19244e-06
1.19261e-06
1.19235e-06
1.19254e-06
1.19264e-06
1.19239e-06
1.19256e-06
1.42728e-06
1.42738e-06
1.19248e-06
1.19253e-06
1.19241e-06
1.42738e-06
1.42848e-06
1.4184e-06
1.19148e-06
1.19134e-06
1.18733e-06
1.18723e-06
1.42838e-06
1.41836e-06
1.19132e-06
1.19153e-06
1.18716e-06
1.18737e-06
1.19153e-06
1.18722e-06
1.18739e-06
1.42858e-06
1.41853e-06
1.1914e-06
1.18735e-06
1.18723e-06
1.41854e-06
1.42007e-06
1.43163e-06
1.18718e-06
1.18709e-06
1.19356e-06
1.19353e-06
1.42006e-06
1.43182e-06
1.187e-06
1.1872e-06
1.19335e-06
1.19351e-06
1.18724e-06
1.19355e-06
1.19363e-06
1.42018e-06
1.43163e-06
1.18707e-06
1.1935e-06
1.19342e-06
1.43175e-06
1.43773e-06
1.43349e-06
1.19611e-06
1.19606e-06
1.19309e-06
1.19291e-06
1.43791e-06
1.43331e-06
1.1959e-06
1.19606e-06
1.19295e-06
1.19317e-06
1.19617e-06
1.19285e-06
1.19309e-06
1.43772e-06
1.43363e-06
1.19597e-06
1.19316e-06
1.19299e-06
1.43358e-06
1.43211e-06
1.37357e-06
1.18465e-06
1.18446e-06
1.15315e-06
1.153e-06
1.4319e-06
1.37341e-06
1.18453e-06
1.18477e-06
1.15302e-06
1.15322e-06
1.18465e-06
1.15297e-06
1.15317e-06
1.43227e-06
1.37372e-06
1.18457e-06
1.1532e-06
1.15307e-06
1.37368e-06
1.37093e-06
1.35789e-06
1.14444e-06
1.14433e-06
1.14057e-06
1.14054e-06
1.37081e-06
1.35797e-06
1.14428e-06
1.14445e-06
1.14036e-06
1.14046e-06
1.14447e-06
1.1405e-06
1.14057e-06
1.37105e-06
1.35775e-06
1.14433e-06
1.14042e-06
1.14038e-06
1.35785e-06
1.36828e-06
1.45432e-06
1.15137e-06
1.15136e-06
1.20916e-06
1.20914e-06
1.36836e-06
1.45442e-06
1.15115e-06
1.15123e-06
1.20896e-06
1.20915e-06
1.15135e-06
1.2091e-06
1.2092e-06
1.36812e-06
1.45433e-06
1.15114e-06
1.20912e-06
1.20902e-06
1.45434e-06
1.47893e-06
1.55297e-06
1.2328e-06
1.23277e-06
1.27898e-06
1.27889e-06
1.47904e-06
1.55294e-06
1.2326e-06
1.23283e-06
1.27883e-06
1.27909e-06
1.23288e-06
1.27888e-06
1.27914e-06
1.479e-06
1.55314e-06
1.2327e-06
1.27908e-06
1.279e-06
1.55327e-06
1.56088e-06
1.53448e-06
1.28287e-06
1.28275e-06
1.26221e-06
1.26208e-06
1.56081e-06
1.53433e-06
1.28271e-06
1.28296e-06
1.26202e-06
1.26227e-06
1.28302e-06
1.26205e-06
1.26227e-06
1.56105e-06
1.53462e-06
1.28286e-06
1.26222e-06
1.26208e-06
1.53465e-06
1.52982e-06
1.40893e-06
1.2425e-06
1.24239e-06
1.11112e-06
1.11113e-06
1.52969e-06
1.40904e-06
1.24235e-06
1.24252e-06
1.11105e-06
1.11108e-06
1.24251e-06
1.11123e-06
1.1111e-06
1.52996e-06
1.40895e-06
1.24237e-06
1.11117e-06
1.11104e-06
1.40892e-06
1.37061e-06
1.07586e-06
1.07588e-06
1.37077e-06
1.07579e-06
1.07581e-06
7.41549e-07
7.41532e-07
7.41486e-07
1.07584e-06
1.37065e-06
1.0758e-06
5.35653e-07
5.35523e-07
5.35636e-07
5.35636e-07
5.34569e-07
5.35437e-07
5.33636e-07
5.35608e-07
5.34569e-07
5.35437e-07
5.35608e-07
5.33635e-07
5.35196e-07
5.35984e-07
5.35983e-07
1.10752e-06
3.87706e-06
9.31517e-07
4.60281e-06
1.25997e-05
1.65964e-05
1.10795e-06
3.87738e-06
9.31279e-07
4.60373e-06
4.9917e-07
4.9917e-07
4.9917e-07
4.57218e-07
4.57218e-07
4.57218e-07
4.57218e-07
5.43021e-07
1.21905e-06
4.99137e-07
4.86017e-07
5.24982e-07
1.20925e-06
4.82349e-07
1.26009e-05
1.65978e-05
5.43028e-07
4.99137e-07
1.21903e-06
4.86017e-07
5.2498e-07
4.82349e-07
1.20923e-06
2.51859e-06
2.51919e-06
4.84044e-07
2.37583e-06
2.37655e-06
1.43236e-06
5.59145e-06
1.33113e-06
6.13443e-06
2.12857e-05
2.31129e-05
1.43272e-06
5.59222e-06
1.33093e-06
6.13568e-06
4.45574e-07
4.45575e-07
4.45575e-07
4.13574e-07