/*--------------------------------*- C++ -*----------------------------------*\
| =========                 |                                                 |
| \\      /  F ield         | OpenFOAM: The Open Source CFD Toolbox           |
|  \\    /   O peration     | Version:                                        |
|   \\  /    A nd           | Website:  www.openfoam.com                      |
|    \\/     M anipulation  |                                                 |
\*---------------------------------------------------------------------------*/
FoamFile
{
    version     2.0;
    format      ascii;
    class       volScalarField;
    location    "400";
    object      k;
}
// * * * * * * * * * * * * * * * * * * * * * * * * * * * * * * * * * * * * * //

dimensions      [0 2 -2 0 0 0 0];


internalField   nonuniform List<scalar> 
172512
(
3.60232e-05
3.60198e-05
3.60198e-05
3.60083e-05
3.39295e-05
3.38866e-05
3.38866e-05
3.39613e-05
3.21573e-05
3.20054e-05
3.20054e-05
3.19506e-05
3.05337e-05
3.02265e-05
3.02264e-05
2.99865e-05
2.90316e-05
2.85512e-05
2.85511e-05
2.81205e-05
2.76339e-05
2.69845e-05
2.69844e-05
2.63886e-05
2.63292e-05
2.55284e-05
2.55283e-05
2.48054e-05
2.51095e-05
2.41824e-05
2.41823e-05
2.33766e-05
2.39692e-05
2.29482e-05
2.29481e-05
2.21035e-05
2.2904e-05
2.18246e-05
2.18245e-05
2.09852e-05
2.19103e-05
2.08093e-05
2.08091e-05
2.0013e-05
2.09848e-05
1.98994e-05
1.98992e-05
1.91813e-05
2.01224e-05
1.90929e-05
1.90928e-05
1.84898e-05
1.93222e-05
1.83869e-05
1.83868e-05
1.79337e-05
1.85831e-05
1.77779e-05
1.77778e-05
1.75073e-05
1.79026e-05
1.72644e-05
1.72644e-05
1.72015e-05
1.72783e-05
1.68456e-05
1.68455e-05
1.7024e-05
1.67082e-05
1.65204e-05
1.65203e-05
1.69835e-05
1.61909e-05
1.62889e-05
1.62889e-05
1.70807e-05
1.5724e-05
1.61512e-05
1.61513e-05
1.73056e-05
1.53059e-05
1.61069e-05
1.61071e-05
1.76586e-05
1.4936e-05
1.61532e-05
1.61533e-05
1.81355e-05
1.46132e-05
1.62917e-05
1.62919e-05
1.87297e-05
1.43368e-05
1.65198e-05
1.65202e-05
1.94286e-05
1.41066e-05
1.68352e-05
1.68356e-05
2.02207e-05
1.3922e-05
1.72348e-05
1.72354e-05
2.10937e-05
1.37829e-05
1.7715e-05
1.77158e-05
2.20343e-05
1.36891e-05
1.82718e-05
1.82727e-05
2.30282e-05
1.36406e-05
1.89007e-05
1.89018e-05
2.40618e-05
1.36373e-05
1.95965e-05
1.95979e-05
2.51221e-05
1.36795e-05
2.03541e-05
2.03554e-05
2.61975e-05
1.37678e-05
2.11673e-05
2.1169e-05
2.72781e-05
1.39023e-05
2.20303e-05
2.2032e-05
2.83558e-05
1.40832e-05
2.29367e-05
2.29387e-05
2.94242e-05
1.43106e-05
2.38796e-05
2.38819e-05
3.04787e-05
1.45848e-05
2.48537e-05
2.48561e-05
3.15153e-05
1.49053e-05
2.58514e-05
2.5854e-05
3.25316e-05
1.52723e-05
2.68673e-05
2.68703e-05
3.35265e-05
1.56847e-05
2.78947e-05
2.78978e-05
3.44972e-05
1.6142e-05
2.89285e-05
2.89318e-05
3.54449e-05
1.66426e-05
2.99629e-05
2.99666e-05
3.63661e-05
1.71853e-05
3.09951e-05
3.09986e-05
3.72635e-05
1.77682e-05
3.2019e-05
3.2023e-05
3.81348e-05
1.8389e-05
3.30311e-05
3.30352e-05
3.8982e-05
1.90451e-05
3.4028e-05
3.40319e-05
3.98038e-05
1.97334e-05
3.50053e-05
3.50098e-05
4.0601e-05
2.04506e-05
3.59622e-05
3.59662e-05
4.13732e-05
2.11935e-05
3.68949e-05
3.68994e-05
4.21207e-05
2.19579e-05
3.7803e-05
3.78073e-05
4.28435e-05
2.27403e-05
3.86843e-05
3.86887e-05
4.35416e-05
2.35366e-05
3.95384e-05
3.95429e-05
4.42157e-05
2.43432e-05
4.03646e-05
4.03688e-05
4.48654e-05
2.51558e-05
4.11618e-05
4.11661e-05
4.54912e-05
2.59711e-05
4.19303e-05
4.19351e-05
4.60937e-05
2.67855e-05
4.26701e-05
4.26742e-05
4.66726e-05
2.75953e-05
4.33805e-05
4.33849e-05
4.72287e-05
2.8398e-05
4.40622e-05
4.40668e-05
4.7762e-05
2.91902e-05
4.47153e-05
4.47196e-05
4.82728e-05
2.99695e-05
4.534e-05
4.53442e-05
4.87618e-05
3.07337e-05
4.59367e-05
4.59409e-05
4.9229e-05
3.14801e-05
4.65055e-05
4.65096e-05
4.96748e-05
3.22075e-05
4.70471e-05
4.7051e-05
5.00993e-05
3.29137e-05
4.75615e-05
4.75654e-05
5.05034e-05
3.35974e-05
4.80494e-05
4.80532e-05
5.0887e-05
3.42572e-05
4.85108e-05
4.85146e-05
5.12502e-05
3.48922e-05
4.89464e-05
4.89501e-05
5.15936e-05
3.55016e-05
4.93568e-05
4.93604e-05
5.19175e-05
3.60845e-05
4.97417e-05
4.97452e-05
5.22216e-05
3.66397e-05
5.01018e-05
5.01053e-05
5.25068e-05
3.71684e-05
5.04386e-05
5.04422e-05
5.27737e-05
3.76683e-05
5.07503e-05
5.07537e-05
5.30205e-05
3.81397e-05
5.10388e-05
5.10424e-05
5.32496e-05
3.85843e-05
5.13055e-05
5.13089e-05
5.34614e-05
3.89994e-05
5.1548e-05
5.15517e-05
5.36544e-05
3.9387e-05
5.17696e-05
5.17728e-05
5.38304e-05
3.97476e-05
5.19689e-05
5.19729e-05
5.39894e-05
4.00793e-05
5.21484e-05
5.21511e-05
5.41313e-05
4.03856e-05
5.2304e-05
5.23075e-05
5.42562e-05
4.06678e-05
5.24503e-05
5.24553e-05
5.43704e-05
4.0916e-05
5.25482e-05
5.25487e-05
5.44462e-05
4.11359e-05
5.26726e-05
5.26784e-05
5.455e-05
4.1399e-05
5.2768e-05
5.27719e-05
5.46345e-05
4.14585e-05
5.27384e-05
5.27401e-05
5.45548e-05
4.17621e-05
5.29471e-05
5.29522e-05
5.48324e-05
4.18378e-05
5.28273e-05
5.28293e-05
5.45811e-05
4.19155e-05
5.29628e-05
5.29655e-05
5.4882e-05
4.20166e-05
5.27625e-05
5.2776e-05
5.45089e-05
4.20155e-05
5.2765e-05
5.27606e-05
5.44686e-05
4.31519e-05
5.43526e-05
5.43506e-05
5.65948e-05
4.28629e-05
5.29556e-05
5.30006e-05
5.46637e-05
3.94203e-05
4.87179e-05
4.87162e-05
4.99808e-05
3.89105e-05
4.91031e-05
4.90877e-05
5.1205e-05
4.53724e-05
5.72601e-05
5.7263e-05
5.92295e-05
4.9574e-05
6.06788e-05
6.06964e-05
6.27537e-05
5.05916e-05
5.64344e-05
5.64446e-05
5.95874e-05
3.62983e-05
3.62919e-05
3.62919e-05
3.62984e-05
3.62919e-05
3.62919e-05
3.62908e-05
3.62908e-05
3.62908e-05
3.62908e-05
3.62919e-05
3.62919e-05
3.62984e-05
3.62919e-05
3.62919e-05
3.62984e-05
3.60083e-05
3.42678e-05
3.60198e-05
3.60198e-05
3.43746e-05
3.43745e-05
3.60083e-05
3.42678e-05
3.60198e-05
3.60198e-05
3.43746e-05
3.43745e-05
3.60198e-05
3.43746e-05
3.43746e-05
3.60083e-05
3.42678e-05
3.60198e-05
3.43746e-05
3.43746e-05
3.42678e-05
3.39613e-05
3.2262e-05
3.38865e-05
3.38865e-05
3.24657e-05
3.24656e-05
3.39613e-05
3.2262e-05
3.38866e-05
3.38865e-05
3.24658e-05
3.24656e-05
3.38865e-05
3.24658e-05
3.24657e-05
3.39613e-05
3.2262e-05
3.38866e-05
3.24658e-05
3.24657e-05
3.22619e-05
3.19507e-05
3.02976e-05
3.20052e-05
3.20051e-05
3.06615e-05
3.06613e-05
3.19507e-05
3.02975e-05
3.20053e-05
3.20051e-05
3.06616e-05
3.06613e-05
3.20052e-05
3.06617e-05
3.06614e-05
3.19506e-05
3.02975e-05
3.20053e-05
3.06617e-05
3.06616e-05
3.02974e-05
2.99866e-05
2.84235e-05
3.02261e-05
3.0226e-05
2.89596e-05
2.89594e-05
2.99866e-05
2.84235e-05
3.02263e-05
3.02259e-05
2.89598e-05
2.89593e-05
3.02261e-05
2.89599e-05
2.89595e-05
2.99865e-05
2.84233e-05
3.02263e-05
2.89599e-05
2.89597e-05
2.84232e-05
2.81207e-05
2.66722e-05
2.85508e-05
2.85506e-05
2.73652e-05
2.7365e-05
2.81207e-05
2.66721e-05
2.8551e-05
2.85505e-05
2.73656e-05
2.73649e-05
2.85507e-05
2.73657e-05
2.73651e-05
2.81206e-05
2.66719e-05
2.85509e-05
2.73657e-05
2.73655e-05
2.66718e-05
2.6389e-05
2.50647e-05
2.69839e-05
2.69836e-05
2.58814e-05
2.58812e-05
2.63889e-05
2.50646e-05
2.69842e-05
2.69835e-05
2.58819e-05
2.5881e-05
2.69838e-05
2.5882e-05
2.58813e-05
2.63888e-05
2.50644e-05
2.69841e-05
2.5882e-05
2.58817e-05
2.50642e-05
2.48059e-05
2.36112e-05
2.55277e-05
2.55274e-05
2.45077e-05
2.45074e-05
2.48058e-05
2.36111e-05
2.55282e-05
2.55273e-05
2.45082e-05
2.45072e-05
2.55276e-05
2.45084e-05
2.45075e-05
2.48056e-05
2.36109e-05
2.5528e-05
2.45083e-05
2.4508e-05
2.36106e-05
2.33771e-05
2.23115e-05
2.41816e-05
2.41813e-05
2.32454e-05
2.32451e-05
2.3377e-05
2.23114e-05
2.41822e-05
2.41812e-05
2.3246e-05
2.32449e-05
2.41815e-05
2.32462e-05
2.32453e-05
2.33768e-05
2.23112e-05
2.4182e-05
2.32461e-05
2.32459e-05
2.23109e-05
2.2104e-05
2.11676e-05
2.29473e-05
2.2947e-05
2.20942e-05
2.20939e-05
2.21039e-05
2.11675e-05
2.29479e-05
2.29468e-05
2.2095e-05
2.20937e-05
2.29472e-05
2.20952e-05
2.20941e-05
2.21037e-05
2.11672e-05
2.29478e-05
2.20951e-05
2.20948e-05
2.1167e-05
2.09859e-05
2.01706e-05
2.18236e-05
2.18233e-05
2.1052e-05
2.10517e-05
2.09858e-05
2.01705e-05
2.18243e-05
2.18231e-05
2.10528e-05
2.10515e-05
2.18235e-05
2.1053e-05
2.10519e-05
2.09855e-05
2.01702e-05
2.18242e-05
2.10529e-05
2.10526e-05
2.017e-05
2.00136e-05
1.93149e-05
2.08082e-05
2.08079e-05
2.01159e-05
2.01157e-05
2.00135e-05
1.93148e-05
2.0809e-05
2.08077e-05
2.01168e-05
2.01155e-05
2.08081e-05
2.0117e-05
2.01159e-05
2.00132e-05
1.93145e-05
2.08088e-05
2.01169e-05
2.01167e-05
1.93142e-05
1.91817e-05
1.85913e-05
1.98982e-05
1.98979e-05
1.92837e-05
1.92834e-05
1.91818e-05
1.85911e-05
1.98991e-05
1.98978e-05
1.92846e-05
1.92833e-05
1.98982e-05
1.92848e-05
1.92836e-05
1.91814e-05
1.85908e-05
1.9899e-05
1.92847e-05
1.92844e-05
1.85905e-05
1.84902e-05
1.79989e-05
1.90918e-05
1.90916e-05
1.85528e-05
1.85526e-05
1.84903e-05
1.79987e-05
1.90927e-05
1.90914e-05
1.85537e-05
1.85524e-05
1.90918e-05
1.85539e-05
1.85528e-05
1.84899e-05
1.79985e-05
1.90926e-05
1.85538e-05
1.85536e-05
1.79983e-05
1.7934e-05
1.75405e-05
1.83858e-05
1.83856e-05
1.79198e-05
1.79197e-05
1.79341e-05
1.75404e-05
1.83867e-05
1.83855e-05
1.79207e-05
1.79195e-05
1.83858e-05
1.79208e-05
1.79198e-05
1.79338e-05
1.75402e-05
1.83866e-05
1.79208e-05
1.79207e-05
1.754e-05
1.75076e-05
1.7219e-05
1.77769e-05
1.77767e-05
1.73824e-05
1.73824e-05
1.75077e-05
1.7219e-05
1.77778e-05
1.77766e-05
1.73833e-05
1.73823e-05
1.77769e-05
1.73834e-05
1.73825e-05
1.75074e-05
1.72188e-05
1.77777e-05
1.73834e-05
1.73833e-05
1.72187e-05
1.72016e-05
1.70274e-05
1.72634e-05
1.72634e-05
1.69399e-05
1.69399e-05
1.72018e-05
1.70275e-05
1.72643e-05
1.72633e-05
1.69407e-05
1.69398e-05
1.72635e-05
1.69408e-05
1.694e-05
1.72015e-05
1.70273e-05
1.72643e-05
1.69407e-05
1.69408e-05
1.70274e-05
1.7024e-05
1.69739e-05
1.68447e-05
1.68447e-05
1.65911e-05
1.65912e-05
1.70242e-05
1.69741e-05
1.68455e-05
1.68446e-05
1.65918e-05
1.65911e-05
1.68448e-05
1.65918e-05
1.65912e-05
1.7024e-05
1.6974e-05
1.68455e-05
1.65918e-05
1.65919e-05
1.69741e-05
1.69833e-05
1.70448e-05
1.65196e-05
1.65197e-05
1.6336e-05
1.63361e-05
1.69835e-05
1.70451e-05
1.65203e-05
1.65196e-05
1.63366e-05
1.63361e-05
1.65197e-05
1.63366e-05
1.63361e-05
1.69834e-05
1.7045e-05
1.65205e-05
1.63366e-05
1.63368e-05
1.70452e-05
1.70803e-05
1.72448e-05
1.62883e-05
1.62885e-05
1.61745e-05
1.61748e-05
1.70806e-05
1.72451e-05
1.62889e-05
1.62884e-05
1.61751e-05
1.61748e-05
1.62885e-05
1.6175e-05
1.61748e-05
1.70805e-05
1.72451e-05
1.62891e-05
1.61751e-05
1.61754e-05
1.72453e-05
1.73051e-05
1.75732e-05
1.61507e-05
1.6151e-05
1.61065e-05
1.61068e-05
1.73054e-05
1.75734e-05
1.61513e-05
1.6151e-05
1.61069e-05
1.61069e-05
1.6151e-05
1.61068e-05
1.61068e-05
1.73054e-05
1.75735e-05
1.61516e-05
1.61069e-05
1.61074e-05
1.75739e-05
1.7658e-05
1.80262e-05
1.61066e-05
1.6107e-05
1.61324e-05
1.61327e-05
1.76581e-05
1.80263e-05
1.61071e-05
1.61071e-05
1.61327e-05
1.61329e-05
1.61069e-05
1.61325e-05
1.61327e-05
1.76583e-05
1.80266e-05
1.61075e-05
1.61328e-05
1.61333e-05
1.8027e-05
1.81347e-05
1.85977e-05
1.6153e-05
1.61533e-05
1.62484e-05
1.62488e-05
1.81348e-05
1.85978e-05
1.61533e-05
1.61536e-05
1.62486e-05
1.62491e-05
1.61533e-05
1.62484e-05
1.62488e-05
1.81351e-05
1.85982e-05
1.61539e-05
1.62487e-05
1.62494e-05
1.85987e-05
1.87288e-05
1.92757e-05
1.62917e-05
1.6292e-05
1.64545e-05
1.64549e-05
1.87288e-05
1.92758e-05
1.62919e-05
1.62924e-05
1.64547e-05
1.64554e-05
1.62921e-05
1.64543e-05
1.64551e-05
1.87293e-05
1.92763e-05
1.62926e-05
1.64548e-05
1.64555e-05
1.9277e-05
1.94275e-05
2.00488e-05
1.652e-05
1.65204e-05
1.67486e-05
1.67491e-05
1.94275e-05
2.00489e-05
1.65201e-05
1.65209e-05
1.67486e-05
1.67497e-05
1.65206e-05
1.67482e-05
1.67493e-05
1.94281e-05
2.00495e-05
1.65209e-05
1.67488e-05
1.67496e-05
2.00503e-05
2.02194e-05
2.0905e-05
1.68356e-05
1.6836e-05
1.71277e-05
1.71282e-05
2.02194e-05
2.09051e-05
1.68355e-05
1.68367e-05
1.71275e-05
1.71289e-05
1.68363e-05
1.71271e-05
1.71285e-05
2.022e-05
2.0906e-05
1.68364e-05
1.71278e-05
1.71286e-05
2.09068e-05
2.10922e-05
2.18312e-05
1.72354e-05
1.72359e-05
1.75883e-05
1.75889e-05
2.10921e-05
2.18313e-05
1.72351e-05
1.72367e-05
1.75879e-05
1.75898e-05
1.72363e-05
1.75875e-05
1.75894e-05
2.1093e-05
2.18324e-05
1.72362e-05
1.75884e-05
1.75892e-05
2.18333e-05
2.20324e-05
2.28134e-05
1.77159e-05
1.77164e-05
1.81266e-05
1.81272e-05
2.20324e-05
2.28136e-05
1.77154e-05
1.77173e-05
1.81259e-05
1.81282e-05
1.77169e-05
1.81256e-05
1.81278e-05
2.20335e-05
2.28147e-05
1.77166e-05
1.81266e-05
1.81274e-05
2.28158e-05
2.30261e-05
2.38379e-05
1.82729e-05
1.82734e-05
1.87382e-05
1.87387e-05
2.30261e-05
2.3838e-05
1.82721e-05
1.82745e-05
1.87372e-05
1.87399e-05
1.82742e-05
1.87369e-05
1.87396e-05
2.30273e-05
2.38393e-05
1.82735e-05
1.87381e-05
1.87388e-05
2.38405e-05
2.40595e-05
2.48915e-05
1.8902e-05
1.89025e-05
1.94181e-05
1.94186e-05
2.40595e-05
2.48916e-05
1.89009e-05
1.89037e-05
1.94167e-05
1.94198e-05
1.89034e-05
1.94165e-05
1.94196e-05
2.40608e-05
2.48931e-05
1.89024e-05
1.94179e-05
1.94185e-05
2.48943e-05
2.51196e-05
2.59626e-05
1.95981e-05
1.95986e-05
2.0161e-05
2.01614e-05
2.51195e-05
2.59626e-05
1.95967e-05
1.95999e-05
2.01593e-05
2.01627e-05
1.95998e-05
2.01592e-05
2.01627e-05
2.5121e-05
2.59642e-05
1.95984e-05
2.01607e-05
2.01611e-05
2.59655e-05
2.61949e-05
2.70407e-05
2.03557e-05
2.03563e-05
2.0961e-05
2.09614e-05
2.61948e-05
2.70408e-05
2.03541e-05
2.03576e-05
2.0959e-05
2.0963e-05
2.03577e-05
2.0959e-05
2.0963e-05
2.61963e-05
2.70426e-05
2.03558e-05
2.09609e-05
2.0961e-05
2.70439e-05
2.72753e-05
2.81178e-05
2.11692e-05
2.11697e-05
2.18124e-05
2.18126e-05
2.72752e-05
2.81179e-05
2.11672e-05
2.11713e-05
2.18101e-05
2.18142e-05
2.11713e-05
2.18102e-05
2.18146e-05
2.72771e-05
2.81196e-05
2.11691e-05
2.1812e-05
2.18121e-05
2.8121e-05
2.83529e-05
2.9187e-05
2.20323e-05
2.20327e-05
2.27086e-05
2.27088e-05
2.83528e-05
2.91872e-05
2.203e-05
2.20343e-05
2.27059e-05
2.27107e-05
2.20348e-05
2.27063e-05
2.2711e-05
2.83545e-05
2.91892e-05
2.20321e-05
2.27086e-05
2.27082e-05
2.91904e-05
2.94214e-05
3.02435e-05
2.29389e-05
2.29392e-05
2.36435e-05
2.36433e-05
2.94213e-05
3.02433e-05
2.29363e-05
2.2941e-05
2.36405e-05
2.36452e-05
2.29414e-05
2.36408e-05
2.3646e-05
2.94233e-05
3.02451e-05
2.29383e-05
2.3643e-05
2.36427e-05
3.02467e-05
3.04756e-05
3.12827e-05
2.3882e-05
2.38822e-05
2.46101e-05
2.461e-05
3.04753e-05
3.12828e-05
2.38791e-05
2.38841e-05
2.46068e-05
2.46124e-05
2.38851e-05
2.46075e-05
2.46131e-05
3.04772e-05
3.12853e-05
2.38815e-05
2.46103e-05
2.46093e-05
3.12863e-05
3.15123e-05
3.23032e-05
2.48562e-05
2.48562e-05
2.56029e-05
2.56025e-05
3.15122e-05
3.2303e-05
2.4853e-05
2.48582e-05
2.55993e-05
2.56045e-05
2.48591e-05
2.56e-05
2.56057e-05
3.15144e-05
3.23047e-05
2.48552e-05
2.56025e-05
2.56016e-05
3.23063e-05
3.25288e-05
3.33017e-05
2.58539e-05
2.58538e-05
2.66149e-05
2.66143e-05
3.25285e-05
3.33015e-05
2.58505e-05
2.58559e-05
2.66111e-05
2.66169e-05
2.58572e-05
2.66119e-05
2.66182e-05
3.25303e-05
3.33041e-05
2.58529e-05
2.66151e-05
2.66138e-05
3.33053e-05
3.35235e-05
3.42777e-05
2.68702e-05
2.68696e-05
2.764e-05
2.76392e-05
3.3523e-05
3.42774e-05
2.68666e-05
2.6872e-05
2.76361e-05
2.76417e-05
2.68736e-05
2.7637e-05
2.7643e-05
3.35255e-05
3.42796e-05
2.68689e-05
2.76402e-05
2.76383e-05
3.42807e-05
3.44945e-05
3.52297e-05
2.78974e-05
2.78969e-05
2.86726e-05
2.86719e-05
3.44943e-05
3.52296e-05
2.78936e-05
2.78992e-05
2.86685e-05
2.86744e-05
2.79008e-05
2.86698e-05
2.86763e-05
3.44964e-05
3.52319e-05
2.78959e-05
2.86731e-05
2.86714e-05
3.52334e-05
3.54418e-05
3.61572e-05
2.89314e-05
2.89305e-05
2.97076e-05
2.97062e-05
3.54414e-05
3.61565e-05
2.89274e-05
2.8933e-05
2.97034e-05
2.97091e-05
2.89351e-05
2.97042e-05
2.97107e-05
3.54437e-05
3.61593e-05
2.89299e-05
2.97081e-05
2.97056e-05
3.616e-05
3.63636e-05
3.70592e-05
2.99661e-05
2.99648e-05
3.07405e-05
3.07392e-05
3.6363e-05
3.7059e-05
2.99618e-05
2.99676e-05
3.07361e-05
3.0742e-05
2.99694e-05
3.07375e-05
3.07442e-05
3.63656e-05
3.70615e-05
2.99641e-05
3.07413e-05
3.0739e-05
3.70627e-05
3.72603e-05
3.79369e-05
3.0998e-05
3.09966e-05
3.17671e-05
3.17654e-05
3.72601e-05
3.79361e-05
3.09936e-05
3.09994e-05
3.17626e-05
3.17684e-05
3.10017e-05
3.1764e-05
3.17704e-05
3.72625e-05
3.79389e-05
3.09963e-05
3.1768e-05
3.17651e-05
3.79396e-05
3.81323e-05
3.87893e-05
3.20221e-05
3.20203e-05
3.27826e-05
3.27803e-05
3.81316e-05
3.87884e-05
3.20176e-05
3.20234e-05
3.2778e-05
3.27838e-05
3.20254e-05
3.27792e-05
3.2786e-05
3.81344e-05
3.87914e-05
3.20199e-05
3.27836e-05
3.27806e-05
3.87923e-05
3.89792e-05
3.96171e-05
3.30343e-05
3.30322e-05
3.37834e-05
3.37815e-05
3.89784e-05
3.96167e-05
3.30297e-05
3.30354e-05
3.37787e-05
3.37843e-05
3.30378e-05
3.37806e-05
3.37866e-05
3.89812e-05
3.96191e-05
3.30323e-05
3.37844e-05
3.37813e-05
3.96199e-05
3.98013e-05
4.042e-05
3.40309e-05
3.40287e-05
3.47662e-05
3.4763e-05
3.98009e-05
4.04186e-05
3.40262e-05
3.40318e-05
3.47615e-05
3.47671e-05
3.40341e-05
3.47625e-05
3.47692e-05
3.98034e-05
4.04222e-05
3.40286e-05
3.47675e-05
3.47639e-05
4.04226e-05
4.05985e-05
4.11977e-05
3.50086e-05
3.50057e-05
3.5728e-05
3.57255e-05
4.05973e-05
4.11973e-05
3.5004e-05
3.50094e-05
3.57232e-05
3.57285e-05
3.50117e-05
3.57252e-05
3.5731e-05
4.06007e-05
4.11998e-05
3.50063e-05
3.57293e-05
3.57258e-05
4.12004e-05
4.13707e-05
4.19511e-05
3.59651e-05
3.59623e-05
3.66672e-05
3.66636e-05
4.13703e-05
4.19498e-05
3.59603e-05
3.59656e-05
3.66625e-05
3.66677e-05
3.5968e-05
3.66638e-05
3.66699e-05
4.13728e-05
4.19533e-05
3.59626e-05
3.66686e-05
3.66647e-05
4.19535e-05
4.21184e-05
4.26794e-05
3.68981e-05
3.68946e-05
3.75813e-05
3.7578e-05
4.21172e-05
4.26786e-05
3.68933e-05
3.68985e-05
3.75766e-05
3.75816e-05
3.69008e-05
3.75784e-05
3.7584e-05
4.21205e-05
4.26815e-05
3.68956e-05
3.75828e-05
3.7579e-05
4.26819e-05
4.28412e-05
4.33834e-05
3.7806e-05
3.78024e-05
3.84696e-05
3.84657e-05
4.28405e-05
4.33821e-05
3.78012e-05
3.78061e-05
3.84649e-05
3.84696e-05
3.78085e-05
3.84664e-05
3.84718e-05
4.28432e-05
4.33853e-05
3.78034e-05
3.8471e-05
3.84669e-05
4.33855e-05
4.35396e-05
4.40625e-05
3.86873e-05
3.86834e-05
3.93302e-05
3.93263e-05
4.35384e-05
4.40615e-05
3.86825e-05
3.86873e-05
3.93256e-05
3.93304e-05
3.86896e-05
3.93273e-05
3.93326e-05
4.35416e-05
4.40648e-05
3.86846e-05
3.9332e-05
3.93279e-05
4.4065e-05
4.42135e-05
4.47182e-05
3.95412e-05
3.95372e-05
4.01636e-05
4.01593e-05
4.42124e-05
4.47169e-05
3.95366e-05
3.95413e-05
4.0159e-05
4.01632e-05
3.95435e-05
4.01605e-05
4.01655e-05
4.42156e-05
4.47199e-05
3.95387e-05
4.01651e-05
4.01609e-05
4.47201e-05
4.48637e-05
4.53492e-05
4.03673e-05
4.03632e-05
4.09679e-05
4.09637e-05
4.48625e-05
4.5348e-05
4.03627e-05
4.0367e-05
4.09634e-05
4.09675e-05
4.03693e-05
4.09651e-05
4.09697e-05
4.48654e-05
4.5351e-05
4.03646e-05
4.09695e-05
4.09652e-05
4.53511e-05
4.54895e-05
4.59569e-05
4.11646e-05
4.11602e-05
4.17436e-05
4.1739e-05
4.54882e-05
4.59554e-05
4.116e-05
4.11641e-05
4.17392e-05
4.17434e-05
4.11663e-05
4.17407e-05
4.17454e-05
4.54913e-05
4.59589e-05
4.11617e-05
4.17457e-05
4.17411e-05
4.59588e-05
4.6092e-05
4.65413e-05
4.1933e-05
4.19284e-05
4.24906e-05
4.24859e-05
4.60906e-05
4.65399e-05
4.19286e-05
4.19328e-05
4.24862e-05
4.24899e-05
4.19348e-05
4.24877e-05
4.24919e-05
4.60941e-05
4.65429e-05
4.19304e-05
4.24922e-05
4.24877e-05
4.65428e-05
4.66713e-05
4.71022e-05
4.26727e-05
4.26681e-05
4.32081e-05
4.32035e-05
4.667e-05
4.71009e-05
4.26683e-05
4.26719e-05
4.32038e-05
4.32073e-05
4.2674e-05
4.32055e-05
4.32095e-05
4.66727e-05
4.71038e-05
4.26697e-05
4.32099e-05
4.32054e-05
4.71038e-05
4.72272e-05
4.76407e-05
4.3383e-05
4.33783e-05
4.38971e-05
4.38921e-05
4.72259e-05
4.7639e-05
4.33787e-05
4.33823e-05
4.38929e-05
4.38964e-05
4.33844e-05
4.38943e-05
4.38982e-05
4.72289e-05
4.76424e-05
4.33803e-05
4.38991e-05
4.38943e-05
4.7642e-05
4.77609e-05
4.81565e-05
4.40649e-05
4.40599e-05
4.45572e-05
4.45523e-05
4.77592e-05
4.8155e-05
4.40607e-05
4.40641e-05
4.45531e-05
4.45563e-05
4.40659e-05
4.45547e-05
4.45581e-05
4.77625e-05
4.81579e-05
4.40619e-05
4.4559e-05
4.45543e-05
4.81576e-05
4.82718e-05
4.86502e-05
4.47177e-05
4.47129e-05
4.51888e-05
4.51839e-05
4.82704e-05
4.86486e-05
4.47136e-05
4.47168e-05
4.51848e-05
4.51878e-05
4.47187e-05
4.51865e-05
4.51897e-05
4.82732e-05
4.86515e-05
4.47148e-05
4.51907e-05
4.51859e-05
4.86513e-05
4.87609e-05
4.91222e-05
4.53424e-05
4.53374e-05
4.57925e-05
4.57873e-05
4.87593e-05
4.91205e-05
4.53384e-05
4.53413e-05
4.57886e-05
4.57914e-05
4.53432e-05
4.57901e-05
4.57931e-05
4.87622e-05
4.91235e-05
4.53395e-05
4.57944e-05
4.57895e-05
4.9123e-05
4.92282e-05
4.95723e-05
4.59389e-05
4.59338e-05
4.63679e-05
4.63629e-05
4.92266e-05
4.95709e-05
4.5935e-05
4.59379e-05
4.63641e-05
4.63669e-05
4.59396e-05
4.63659e-05
4.63687e-05
4.92295e-05
4.95738e-05
4.5936e-05
4.637e-05
4.63652e-05
4.95734e-05
4.96739e-05
5.00018e-05
4.65075e-05
4.65025e-05
4.69162e-05
4.69111e-05
4.96725e-05
5.00002e-05
4.65037e-05
4.65065e-05
4.69125e-05
4.6915e-05
4.65083e-05
4.69142e-05
4.69166e-05
4.96753e-05
5.00029e-05
4.65048e-05
4.69182e-05
4.69132e-05
5.00023e-05
5.00989e-05
5.04101e-05
4.70491e-05
4.70439e-05
4.74373e-05
4.74321e-05
5.00974e-05
5.04086e-05
4.70453e-05
4.70477e-05
4.74337e-05
4.7436e-05
4.70494e-05
4.74354e-05
4.74376e-05
5.01001e-05
5.04113e-05
4.7046e-05
4.74393e-05
4.74343e-05
5.04107e-05
5.05029e-05
5.0798e-05
4.75633e-05
4.75582e-05
4.79316e-05
4.79264e-05
5.05014e-05
5.07964e-05
4.75597e-05
4.7562e-05
4.79281e-05
4.79303e-05
4.75637e-05
4.79298e-05
4.79319e-05
5.05041e-05
5.07991e-05
4.75604e-05
4.79337e-05
4.79287e-05
5.07985e-05
5.08866e-05
5.11656e-05
4.80511e-05
4.80459e-05
4.83996e-05
4.83944e-05
5.0885e-05
5.1164e-05
4.80476e-05
4.80498e-05
4.83962e-05
4.83982e-05
4.80514e-05
4.83979e-05
4.83997e-05
5.08877e-05
5.11667e-05
4.80482e-05
4.84017e-05
4.83967e-05
5.11659e-05
5.125e-05
5.1513e-05
4.85125e-05
4.85073e-05
4.88415e-05
4.88362e-05
5.12484e-05
5.15115e-05
4.85091e-05
4.85111e-05
4.88381e-05
4.88401e-05
4.85126e-05
4.88398e-05
4.88415e-05
5.1251e-05
5.15141e-05
4.85095e-05
4.88436e-05
4.88386e-05
5.15133e-05
5.15934e-05
5.18411e-05
4.8948e-05
4.89427e-05
4.9258e-05
4.92528e-05
5.15918e-05
5.18396e-05
4.89446e-05
4.89466e-05
4.92548e-05
4.92566e-05
4.8948e-05
4.92566e-05
4.9258e-05
5.15944e-05
5.18421e-05
4.89451e-05
4.92602e-05
4.92552e-05
5.18413e-05
5.19175e-05
5.21494e-05
4.93583e-05
4.9353e-05
4.96493e-05
4.9644e-05
5.1916e-05
5.21478e-05
4.9355e-05
4.93568e-05
4.96462e-05
4.96478e-05
4.93582e-05
4.96479e-05
4.96491e-05
5.19185e-05
5.21503e-05
4.93554e-05
4.96514e-05
4.96463e-05
5.21494e-05
5.22217e-05
5.2438e-05
4.97431e-05
4.97378e-05
5.00151e-05
5.00099e-05
5.22202e-05
5.24365e-05
4.974e-05
4.97416e-05
5.00121e-05
5.00136e-05
4.97429e-05
5.00138e-05
5.00151e-05
5.22226e-05
5.24389e-05
4.97402e-05
5.00174e-05
5.00124e-05
5.24382e-05
5.25067e-05
5.27092e-05
5.0103e-05
5.00978e-05
5.03581e-05
5.03527e-05
5.25051e-05
5.27075e-05
5.01e-05
5.01015e-05
5.03551e-05
5.03566e-05
5.0103e-05
5.03567e-05
5.03577e-05
5.25076e-05
5.27101e-05
5.01003e-05
5.03604e-05
5.03552e-05
5.2709e-05
5.2774e-05
5.296e-05
5.044e-05
5.04346e-05
5.06758e-05
5.06705e-05
5.27723e-05
5.29584e-05
5.0437e-05
5.04384e-05
5.0673e-05
5.06742e-05
5.04395e-05
5.06746e-05
5.06755e-05
5.27749e-05
5.29608e-05
5.0437e-05
5.06781e-05
5.0673e-05
5.29598e-05
5.30207e-05
5.31926e-05
5.07514e-05
5.07462e-05
5.09697e-05
5.09645e-05
5.30191e-05
5.3191e-05
5.07486e-05
5.07499e-05
5.09669e-05
5.09682e-05
5.07512e-05
5.09686e-05
5.09695e-05
5.30215e-05
5.31935e-05
5.07487e-05
5.09722e-05
5.09671e-05
5.31925e-05
5.32498e-05
5.34085e-05
5.10399e-05
5.10347e-05
5.12422e-05
5.12369e-05
5.32482e-05
5.34068e-05
5.10371e-05
5.10385e-05
5.12395e-05
5.12406e-05
5.10396e-05
5.1241e-05
5.12416e-05
5.32507e-05
5.34092e-05
5.10372e-05
5.12445e-05
5.12392e-05
5.3408e-05
5.34619e-05
5.3605e-05
5.13067e-05
5.13014e-05
5.14904e-05
5.1485e-05
5.34602e-05
5.36033e-05
5.1304e-05
5.1305e-05
5.14878e-05
5.14889e-05
5.13061e-05
5.14893e-05
5.14901e-05
5.34626e-05
5.36058e-05
5.13037e-05
5.14929e-05
5.14878e-05
5.36049e-05
5.36546e-05
5.37846e-05
5.15491e-05
5.15437e-05
5.17169e-05
5.17118e-05
5.36529e-05
5.37831e-05
5.15465e-05
5.15476e-05
5.17144e-05
5.17153e-05
5.15488e-05
5.1716e-05
5.17164e-05
5.36555e-05
5.37854e-05
5.15466e-05
5.17194e-05
5.17142e-05
5.37842e-05
5.38309e-05
5.39476e-05
5.17703e-05
5.17653e-05
5.19225e-05
5.19171e-05
5.38294e-05
5.39457e-05
5.17678e-05
5.17687e-05
5.19201e-05
5.1921e-05
5.17699e-05
5.19214e-05
5.19219e-05
5.38316e-05
5.39484e-05
5.17677e-05
5.1925e-05
5.19197e-05
5.3947e-05
5.39902e-05
5.40921e-05
5.19703e-05
5.19647e-05
5.21051e-05
5.20998e-05
5.39881e-05
5.40905e-05
5.1968e-05
5.19688e-05
5.21027e-05
5.21035e-05
5.19695e-05
5.21041e-05
5.21045e-05
5.3991e-05
5.40927e-05
5.19674e-05
5.21076e-05
5.21024e-05
5.40917e-05
5.41316e-05
5.42211e-05
5.21486e-05
5.21439e-05
5.22691e-05
5.22645e-05
5.41305e-05
5.42201e-05
5.21462e-05
5.2147e-05
5.22666e-05
5.22673e-05
5.21485e-05
5.22692e-05
5.22692e-05
5.41321e-05
5.42219e-05
5.21463e-05
5.22716e-05
5.22668e-05
5.42211e-05
5.42565e-05
5.43369e-05
5.23048e-05
5.22995e-05
5.24131e-05
5.24062e-05
5.42549e-05
5.43331e-05
5.23024e-05
5.23033e-05
5.24111e-05
5.24121e-05
5.23045e-05
5.24099e-05
5.24112e-05
5.42574e-05
5.43377e-05
5.23023e-05
5.2416e-05
5.24097e-05
5.43352e-05
5.4372e-05
5.44241e-05
5.24529e-05
5.24466e-05
5.25347e-05
5.25312e-05
5.43687e-05
5.44247e-05
5.24509e-05
5.24515e-05
5.25323e-05
5.25323e-05
5.24511e-05
5.25362e-05
5.25351e-05
5.43726e-05
5.44244e-05
5.24495e-05
5.25366e-05
5.25327e-05
5.44247e-05
5.44452e-05
5.45056e-05
5.25461e-05
5.2543e-05
5.26226e-05
5.26169e-05
5.44463e-05
5.45032e-05
5.25437e-05
5.25441e-05
5.26204e-05
5.26222e-05
5.25473e-05
5.26217e-05
5.26227e-05
5.44457e-05
5.45077e-05
5.25447e-05
5.26266e-05
5.26206e-05
5.45053e-05
5.45513e-05
5.46266e-05
5.26748e-05
5.26682e-05
5.2771e-05
5.27647e-05
5.45478e-05
5.46225e-05
5.26727e-05
5.26743e-05
5.27691e-05
5.27688e-05
5.26738e-05
5.27684e-05
5.27687e-05
5.4553e-05
5.4626e-05
5.26721e-05
5.27726e-05
5.27673e-05
5.46239e-05
5.4637e-05
5.4531e-05
5.27705e-05
5.27644e-05
5.27343e-05
5.27301e-05
5.46335e-05
5.45311e-05
5.27686e-05
5.27681e-05
5.27322e-05
5.27317e-05
5.27682e-05
5.27341e-05
5.27332e-05
5.46361e-05
5.45304e-05
5.27668e-05
5.27359e-05
5.27314e-05
5.45304e-05
5.45551e-05
5.48006e-05
5.27382e-05
5.27342e-05
5.29227e-05
5.29179e-05
5.45559e-05
5.47989e-05
5.2736e-05
5.27358e-05
5.29207e-05
5.29232e-05
5.27375e-05
5.29237e-05
5.29244e-05
5.4555e-05
5.48042e-05
5.27355e-05
5.29277e-05
5.29224e-05
5.48021e-05
5.48309e-05
5.45846e-05
5.29472e-05
5.29418e-05
5.28652e-05
5.28595e-05
5.48287e-05
5.4583e-05
5.29455e-05
5.29479e-05
5.28636e-05
5.28639e-05
5.29487e-05
5.28637e-05
5.28645e-05
5.48347e-05
5.45841e-05
5.29469e-05
5.2868e-05
5.28629e-05
5.45836e-05
5.45824e-05
5.47909e-05
5.28281e-05
5.28232e-05
5.28905e-05
5.28863e-05
5.45811e-05
5.47906e-05
5.28261e-05
5.28253e-05
5.28878e-05
5.28856e-05
5.28262e-05
5.28904e-05
5.28868e-05
5.45814e-05
5.47874e-05
5.28243e-05
5.28895e-05
5.28846e-05
5.47859e-05
5.48864e-05
5.46081e-05
5.29647e-05
5.2959e-05
5.29204e-05
5.29114e-05
5.48845e-05
5.45971e-05
5.29623e-05
5.29614e-05
5.29193e-05
5.29211e-05
5.29618e-05
5.29146e-05
5.29194e-05
5.48843e-05
5.46135e-05
5.29602e-05
5.29258e-05
5.29195e-05
5.46097e-05
5.45062e-05
5.4243e-05
5.27684e-05
5.27592e-05
5.26397e-05
5.26351e-05
5.44955e-05
5.42471e-05
5.27681e-05
5.27715e-05
5.26384e-05
5.2641e-05
5.27686e-05
5.26402e-05
5.26411e-05
5.45125e-05
5.42457e-05
5.27693e-05
5.26447e-05
5.26394e-05
5.42437e-05
5.44681e-05
5.64132e-05
5.27587e-05
5.27582e-05
5.4133e-05
5.41347e-05
5.44801e-05
5.64227e-05
5.27561e-05
5.27571e-05
5.4128e-05
5.41256e-05
5.27614e-05
5.41421e-05
5.41357e-05
5.44674e-05
5.64078e-05
5.27572e-05
5.41313e-05
5.41298e-05
5.64149e-05
5.65949e-05
5.53173e-05
5.43499e-05
5.43475e-05
5.40028e-05
5.39889e-05
5.65999e-05
5.529e-05
5.43461e-05
5.43451e-05
5.4004e-05
5.40086e-05
5.43507e-05
5.3991e-05
5.39992e-05
5.65912e-05
5.53328e-05
5.43475e-05
5.40144e-05
5.40032e-05
5.53133e-05
5.46632e-05
5.03482e-05
5.29784e-05
5.29544e-05
4.94073e-05
4.9399e-05
5.46369e-05
5.03462e-05
5.29846e-05
5.29946e-05
4.94074e-05
4.94066e-05
5.29716e-05
4.94033e-05
4.94049e-05
5.46793e-05
5.03463e-05
5.2982e-05
4.94102e-05
4.94045e-05
5.03473e-05
4.99813e-05
5.02861e-05
4.8718e-05
4.87131e-05
4.84385e-05
4.84376e-05
4.99818e-05
5.02919e-05
4.8716e-05
4.8712e-05
4.84335e-05
4.84269e-05
4.87145e-05
4.84393e-05
4.84319e-05
4.99757e-05
5.02712e-05
4.87117e-05
4.84288e-05
4.84266e-05
5.02706e-05
5.12185e-05
5.81946e-05
4.91016e-05
4.91041e-05
5.54098e-05
5.54126e-05
5.12255e-05
5.82017e-05
4.90944e-05
4.90879e-05
5.5406e-05
5.54087e-05
4.90933e-05
5.54159e-05
5.54133e-05
5.12057e-05
5.81985e-05
4.90865e-05
5.54129e-05
5.54104e-05
5.82004e-05
5.92271e-05
6.2633e-05
5.72587e-05
5.72582e-05
6.0412e-05
6.04011e-05
5.92324e-05
6.26217e-05
5.72562e-05
5.72608e-05
6.04122e-05
6.04177e-05
5.72663e-05
6.04088e-05
6.04224e-05
5.92321e-05
6.26402e-05
5.72644e-05
6.04248e-05
6.04226e-05
6.26448e-05
6.27434e-05
6.0617e-05
6.06843e-05
6.06716e-05
5.77635e-05
5.77529e-05
6.27305e-05
6.06078e-05
6.06847e-05
6.06902e-05
5.77656e-05
5.7768e-05
6.06933e-05
5.77615e-05
5.77616e-05
6.27507e-05
6.06229e-05
6.06936e-05
5.77753e-05
5.77632e-05
6.06134e-05
5.95913e-05
5.64296e-05
5.64222e-05
5.9587e-05
5.64312e-05
5.64333e-05
5.05852e-05
5.05987e-05
5.05915e-05
5.64257e-05
5.95965e-05
5.64269e-05
3.73769e-05
3.73764e-05
3.73767e-05
3.73767e-05
3.73694e-05
3.73755e-05
3.73043e-05
3.73764e-05
3.73694e-05
3.73755e-05
3.73764e-05
3.73043e-05
3.73714e-05
3.72959e-05
3.72959e-05
3.58864e-05
4.08615e-05
3.66006e-05
4.51355e-05
5.51055e-05
6.48938e-05
3.5887e-05
4.08611e-05
3.66005e-05
4.51382e-05
3.60232e-05
3.60232e-05
3.60232e-05
3.44005e-05
3.44005e-05
3.44005e-05
3.44005e-05
3.52763e-05
3.56369e-05
3.60241e-05
3.53762e-05
3.60477e-05
3.42377e-05
3.53827e-05
5.51074e-05
6.48955e-05
3.52764e-05
3.60241e-05
3.56365e-05
3.53762e-05
3.60476e-05
3.53827e-05
3.42382e-05
3.65914e-05
3.65921e-05
3.52783e-05
3.40716e-05
3.40707e-05
3.39708e-05
5.13445e-05
3.46832e-05
5.46148e-05
7.65468e-05
8.08644e-05
3.39718e-05
5.1345e-05
3.46825e-05
5.46181e-05
3.39295e-05
3.39295e-05
3.39295e-05
3.2585e-05
3.2585e-05