/*--------------------------------*- C++ -*----------------------------------*\
| =========                 |                                                 |
| \\      /  F ield         | OpenFOAM: The Open Source CFD Toolbox           |
|  \\    /   O peration     | Version:                                        |
|   \\  /    A nd           | Website:  www.openfoam.com                      |
|    \\/     M anipulation  |                                                 |
\*---------------------------------------------------------------------------*/
FoamFile
{
    version     2.0;
    format      ascii;
    class       volScalarField;
    location    "400";
    object      nut;
}
// * * * * * * * * * * * * * * * * * * * * * * * * * * * * * * * * * * * * * //

dimensions      [0 2 -1 0 0 0 0];


internalField   nonuniform List<scalar> 
172512
(
0.000233969
0.000233548
0.000233548
0.000233451
0.000232529
0.00022758
0.00022758
0.000223833
0.000230487
0.000220158
0.000220157
0.000209027
0.000227758
0.000211542
0.00021154
0.000193702
0.000224387
0.000202552
0.000202549
0.000179637
0.000220505
0.000193693
0.000193689
0.000167281
0.000216258
0.000185208
0.000185204
0.000156542
0.000211776
0.000177176
0.000177171
0.000147172
0.000207165
0.000169637
0.000169632
0.000138926
0.000202506
0.000162564
0.000162559
0.000131599
0.000197852
0.000155905
0.0001559
0.000124945
0.00019324
0.000149604
0.000149599
0.000118811
0.000188648
0.000143624
0.00014362
0.000113168
0.000184117
0.000137912
0.000137907
0.000107937
0.000179673
0.000132422
0.000132418
0.000103063
0.000175306
0.000127147
0.000127143
9.84445e-05
0.000171004
0.000122106
0.000122102
9.42614e-05
0.000166753
0.000117325
0.000117321
9.06713e-05
0.000162554
0.000112841
0.000112838
8.7744e-05
0.000158382
0.00010871
0.000108707
8.53976e-05
0.00015423
0.000104981
0.000104978
8.36817e-05
0.000150109
0.00010167
0.000101666
8.25948e-05
0.000146029
9.88542e-05
9.88515e-05
8.21116e-05
0.000142011
9.65459e-05
9.65439e-05
8.21632e-05
0.000138081
9.47561e-05
9.47547e-05
8.27006e-05
0.000134258
9.3484e-05
9.34829e-05
8.36747e-05
0.000130594
9.27162e-05
9.27162e-05
8.50281e-05
0.000127117
9.2433e-05
9.24337e-05
8.67024e-05
0.000123864
9.2607e-05
9.2608e-05
8.86415e-05
0.000120864
9.32055e-05
9.32081e-05
9.07927e-05
0.000118149
9.41955e-05
9.41974e-05
9.31111e-05
0.000115753
9.55387e-05
9.55429e-05
9.55577e-05
0.000113694
9.71997e-05
9.72033e-05
9.80999e-05
0.000111987
9.91433e-05
9.91481e-05
0.000100712
0.00011064
0.00010133
0.000101335
0.000103374
0.000109664
0.000103734
0.00010374
0.000106072
0.000109054
0.000106318
0.000106324
0.000108789
0.000108811
0.000109057
0.000109065
0.000111517
0.000108924
0.000111919
0.000111927
0.000114237
0.000109387
0.000114885
0.000114893
0.000116956
0.000110184
0.000117928
0.000117938
0.000119649
0.000111302
0.000121043
0.000121051
0.000122328
0.000112724
0.0001242
0.00012421
0.000124976
0.000114432
0.000127384
0.000127395
0.0001276
0.000116406
0.000130584
0.000130592
0.000130189
0.000118625
0.000133774
0.000133788
0.000132741
0.000121066
0.00013696
0.000136968
0.000135253
0.00012371
0.000140115
0.000140128
0.000137721
0.000126531
0.000143245
0.000143255
0.000140143
0.000129512
0.000146333
0.000146344
0.000142514
0.000132626
0.000149378
0.00014939
0.000144837
0.00013586
0.000152376
0.000152386
0.000147106
0.000139187
0.000155315
0.000155325
0.00014932
0.000142591
0.000158195
0.000158209
0.000151481
0.000146056
0.000161016
0.000161025
0.000153582
0.000149559
0.00016377
0.000163781
0.000155627
0.000153093
0.000166459
0.000166472
0.000157613
0.000156638
0.000169081
0.000169091
0.000159539
0.000160182
0.000171632
0.000171642
0.000161407
0.000163713
0.000174114
0.000174124
0.000163215
0.000167217
0.000176522
0.000176533
0.000164963
0.000170687
0.000178858
0.000178868
0.000166649
0.000174113
0.000181119
0.000181128
0.000168276
0.000177485
0.000183305
0.000183314
0.000169842
0.000180796
0.000185413
0.000185422
0.000171346
0.000184037
0.000187444
0.000187453
0.000172789
0.000187206
0.000189399
0.000189408
0.000174172
0.000190294
0.000191273
0.000191281
0.000175491
0.000193288
0.000193066
0.000193074
0.000176748
0.000196204
0.000194788
0.000194797
0.000177948
0.000199016
0.000196422
0.00019643
0.000179078
0.000201722
0.000197976
0.000197985
0.000180149
0.000204343
0.00019946
0.000199467
0.000181163
0.000206844
0.000200851
0.000200861
0.000182112
0.000209242
0.000202172
0.000202178
0.000183001
0.00021154
0.000203408
0.00020342
0.000183832
0.000213711
0.000204572
0.000204576
0.000184597
0.000215788
0.000205637
0.000205643
0.0001853
0.000217777
0.000206703
0.000206728
0.000185974
0.000219589
0.000207485
0.000207469
0.000186487
0.000221149
0.000208448
0.000208472
0.000187062
0.00022354
0.000209468
0.000209483
0.000187887
0.000223615
0.000209255
0.000209249
0.000187201
0.000226596
0.000211242
0.000211262
0.000189274
0.000227325
0.000210618
0.000210621
0.00018785
0.000228051
0.000211913
0.000211898
0.000189758
0.000229316
0.000211062
0.000211153
0.00018829
0.000227775
0.000209498
0.000209466
0.000185708
0.000241672
0.000224483
0.000224399
0.000201278
0.000245678
0.000220556
0.000220907
0.000196151
0.000207347
0.000185538
0.000185544
0.000164325
0.0001894
0.000176038
0.000175919
0.000159557
0.000246389
0.000230045
0.00023003
0.000202245
0.000306032
0.000266719
0.000266845
0.000231653
0.000310668
0.000266371
0.000266485
0.000233137
0.000234256
0.000234459
0.00023446
0.000234257
0.00023446
0.00023446
0.000234259
0.000234259
0.000234259
0.000234259
0.000234459
0.000234459
0.000234256
0.000234459
0.00023446
0.000234256
0.000233451
0.000226179
0.000233548
0.000233547
0.000229123
0.000229118
0.000233451
0.00022618
0.000233547
0.000233547
0.00022912
0.000229117
0.000233548
0.000229126
0.000229123
0.000233451
0.000226178
0.000233547
0.000229126
0.00022912
0.000226177
0.000223834
0.000212154
0.000227577
0.000227572
0.000222157
0.000222151
0.000223833
0.000212155
0.000227575
0.000227571
0.000222158
0.00022215
0.000227576
0.000222163
0.000222156
0.000223834
0.000212152
0.000227575
0.000222162
0.000222156
0.000212148
0.000209031
0.000196985
0.000220151
0.000220146
0.000213749
0.000213742
0.000209029
0.000196983
0.000220153
0.000220143
0.000213753
0.00021374
0.000220149
0.000213758
0.000213745
0.000209029
0.00019698
0.000220151
0.000213757
0.00021375
0.000196975
0.000193711
0.000182814
0.000211531
0.000211525
0.000204788
0.000204781
0.000193709
0.000182811
0.000211537
0.000211522
0.000204797
0.000204778
0.000211527
0.000204801
0.000204784
0.000193706
0.000182807
0.000211533
0.000204799
0.000204792
0.0001828
0.000179648
0.000170219
0.000202538
0.000202531
0.000195862
0.000195855
0.000179645
0.000170216
0.000202548
0.000202528
0.000195874
0.000195851
0.000202533
0.000195877
0.000195856
0.000179642
0.000170211
0.000202542
0.000195875
0.000195868
0.000170204
0.000167295
0.000159208
0.000193675
0.000193669
0.00018727
0.000187263
0.000167292
0.000159204
0.000193689
0.000193665
0.000187286
0.000187258
0.000193669
0.000187288
0.000187263
0.000167287
0.000159199
0.000193682
0.000187285
0.000187278
0.000159191
0.000156557
0.000149591
0.000185188
0.000185181
0.000179116
0.000179109
0.000156553
0.000149587
0.000185205
0.000185177
0.000179135
0.000179104
0.000185182
0.000179137
0.000179109
0.000156548
0.000149581
0.000185197
0.000179134
0.000179127
0.000149573
0.000147189
0.000141095
0.000177153
0.000177146
0.000171451
0.000171444
0.000147185
0.000141091
0.000177173
0.000177142
0.000171473
0.000171439
0.000177146
0.000171474
0.000171444
0.000147179
0.000141084
0.000177164
0.000171471
0.000171464
0.000141076
0.000138944
0.000133545
0.000169611
0.000169604
0.000164264
0.000164257
0.000138939
0.000133541
0.000169634
0.0001696
0.000164288
0.000164252
0.000169605
0.00016429
0.000164258
0.000138933
0.000133533
0.000169625
0.000164286
0.000164279
0.000133525
0.000131618
0.00012669
0.000162536
0.000162529
0.000157505
0.000157498
0.000131613
0.000126686
0.000162561
0.000162525
0.000157532
0.000157493
0.00016253
0.000157533
0.000157499
0.000131606
0.000126678
0.000162552
0.000157529
0.000157522
0.00012667
0.000124964
0.000120371
0.000155875
0.000155868
0.000151118
0.000151111
0.000124959
0.000120368
0.000155903
0.000155864
0.000151147
0.000151106
0.000155869
0.000151148
0.000151113
0.000124952
0.00012036
0.000155893
0.000151144
0.000151137
0.000120352
0.000118828
0.000114443
0.000149573
0.000149566
0.000145058
0.000145051
0.000118825
0.000114437
0.000149602
0.000149562
0.000145088
0.000145046
0.000149568
0.000145089
0.000145053
0.000118818
0.00011443
0.000149592
0.000145086
0.000145079
0.000114421
0.000113185
0.000108856
0.000143592
0.000143584
0.000139282
0.000139274
0.000113182
0.000108849
0.000143622
0.000143581
0.000139313
0.00013927
0.000143587
0.000139314
0.000139278
0.000113175
0.000108842
0.000143612
0.000139311
0.000139303
0.000108834
0.000107954
0.000103722
0.000137879
0.00013787
0.00013374
0.000133731
0.00010795
0.000103717
0.000137909
0.000137867
0.000133771
0.000133727
0.000137874
0.000133772
0.000133735
0.000107943
0.00010371
0.0001379
0.000133769
0.000133761
0.000103702
0.000103081
9.91477e-05
0.000132389
0.00013238
0.00012841
0.000128399
0.000103076
9.91429e-05
0.00013242
0.000132377
0.000128439
0.000128396
0.000132384
0.000128441
0.000128406
0.000103069
9.91362e-05
0.00013241
0.000128438
0.00012843
9.91293e-05
9.84623e-05
9.50096e-05
0.000127116
0.000127104
0.00012331
0.000123295
9.8457e-05
9.5005e-05
0.000127144
0.000127102
0.000123336
0.000123294
0.000127112
0.000123339
0.000123306
9.84507e-05
9.49988e-05
0.000127135
0.000123336
0.000123326
9.49926e-05
9.42778e-05
9.14562e-05
0.000122077
0.000122063
0.000118443
0.000118428
9.42725e-05
9.14515e-05
0.000122102
0.000122061
0.000118467
0.000118427
0.000122073
0.000118471
0.00011844
9.4267e-05
9.1446e-05
0.000122093
0.000118468
0.000118458
9.14403e-05
9.06861e-05
8.8399e-05
0.000117296
0.000117281
0.000113888
0.000113871
9.06796e-05
8.83942e-05
0.00011732
0.00011728
0.00011391
0.000113871
0.000117294
0.000113915
0.000113886
9.06756e-05
8.83895e-05
0.000117311
0.000113912
0.000113902
8.83845e-05
8.77577e-05
8.59307e-05
0.000112813
0.000112797
0.000109659
0.00010964
8.77524e-05
8.59262e-05
0.000112835
0.000112796
0.000109679
0.000109641
0.000112811
0.000109684
0.000109657
8.77482e-05
8.5922e-05
0.000112827
0.000109682
0.000109671
8.59174e-05
8.54099e-05
8.40906e-05
0.000108683
0.000108666
0.000105815
0.000105798
8.54056e-05
8.40869e-05
0.000108704
0.000108666
0.000105835
0.000105799
0.000108682
0.00010584
0.000105815
8.54015e-05
8.40827e-05
0.000108696
0.000105838
0.000105827
8.40787e-05
8.36923e-05
8.28809e-05
0.000104954
0.000104938
0.00010242
0.000102405
8.36892e-05
8.28778e-05
0.000104974
0.000104938
0.00010244
0.000102406
0.000104954
0.000102446
0.000102422
8.3685e-05
8.28742e-05
0.000104967
0.000102445
0.000102434
8.28705e-05
8.2604e-05
8.22809e-05
0.000101641
0.000101627
9.94812e-05
9.94688e-05
8.26014e-05
8.22782e-05
0.000101662
0.000101628
9.95016e-05
9.9469e-05
0.000101644
9.95076e-05
9.94849e-05
8.25978e-05
8.22748e-05
0.000101655
9.95073e-05
9.94958e-05
8.22715e-05
8.212e-05
8.22252e-05
9.88259e-05
9.88138e-05
9.70452e-05
9.70347e-05
8.21177e-05
8.22229e-05
9.88461e-05
9.88138e-05
9.70652e-05
9.70347e-05
9.88298e-05
9.70713e-05
9.70504e-05
8.21144e-05
8.22198e-05
9.884e-05
9.70716e-05
9.70603e-05
8.22172e-05
8.21701e-05
8.26642e-05
9.65182e-05
9.65078e-05
9.51271e-05
9.51181e-05
8.21683e-05
8.26622e-05
9.65379e-05
9.65079e-05
9.51464e-05
9.51179e-05
9.65236e-05
9.51526e-05
9.51333e-05
8.21652e-05
8.26594e-05
9.65327e-05
9.51531e-05
9.51421e-05
8.26572e-05
8.27069e-05
8.35496e-05
9.47293e-05
9.47204e-05
9.37276e-05
9.37198e-05
8.27051e-05
8.35477e-05
9.47482e-05
9.47204e-05
9.37461e-05
9.37197e-05
9.47357e-05
9.3752e-05
9.37348e-05
8.27022e-05
8.35458e-05
9.47437e-05
9.3753e-05
9.37424e-05
8.35441e-05
8.36797e-05
8.48254e-05
9.34584e-05
9.34506e-05
9.28367e-05
9.28298e-05
8.3678e-05
8.4824e-05
9.34762e-05
9.34504e-05
9.2854e-05
9.28304e-05
9.34656e-05
9.28598e-05
9.28449e-05
8.36758e-05
8.48231e-05
9.34724e-05
9.28619e-05
9.28513e-05
8.48216e-05
8.50317e-05
8.64344e-05
9.26923e-05
9.26852e-05
9.2436e-05
9.24305e-05
8.50301e-05
8.64334e-05
9.2709e-05
9.26857e-05
9.24521e-05
9.24309e-05
9.27002e-05
9.24584e-05
9.2445e-05
8.50294e-05
8.6432e-05
9.27058e-05
9.24604e-05
9.24501e-05
8.64313e-05
8.67049e-05
8.83191e-05
9.24103e-05
9.24042e-05
9.25002e-05
9.24949e-05
8.67042e-05
8.83172e-05
9.24256e-05
9.24051e-05
9.25151e-05
9.24959e-05
9.24192e-05
9.25208e-05
9.25099e-05
8.67031e-05
8.83172e-05
9.24235e-05
9.25237e-05
9.25137e-05
8.8317e-05
8.86434e-05
9.04257e-05
9.25855e-05
9.25804e-05
9.29973e-05
9.29928e-05
8.8642e-05
9.04248e-05
9.25996e-05
9.25812e-05
9.30108e-05
9.29942e-05
9.2595e-05
9.30168e-05
9.30078e-05
8.86417e-05
9.04249e-05
9.25979e-05
9.30202e-05
9.30102e-05
9.04245e-05
9.07938e-05
9.27098e-05
9.31861e-05
9.31808e-05
9.38944e-05
9.389e-05
9.07926e-05
9.2708e-05
9.31988e-05
9.31829e-05
9.39065e-05
9.38914e-05
9.31964e-05
9.39123e-05
9.3905e-05
9.07929e-05
9.27089e-05
9.31979e-05
9.39159e-05
9.39059e-05
9.27089e-05
9.3112e-05
9.51282e-05
9.41769e-05
9.41726e-05
9.51537e-05
9.51499e-05
9.31108e-05
9.51273e-05
9.41882e-05
9.41737e-05
9.51645e-05
9.51527e-05
9.41877e-05
9.51706e-05
9.51658e-05
9.31109e-05
9.51291e-05
9.41877e-05
9.51758e-05
9.51652e-05
9.51289e-05
9.55574e-05
9.76509e-05
9.55217e-05
9.55174e-05
9.67408e-05
9.67365e-05
9.55561e-05
9.76495e-05
9.55317e-05
9.55206e-05
9.67502e-05
9.67384e-05
9.5533e-05
9.67559e-05
9.67526e-05
9.55582e-05
9.76507e-05
9.55316e-05
9.67604e-05
9.67506e-05
9.76509e-05
9.80995e-05
0.000100248
9.7184e-05
9.71797e-05
9.86168e-05
9.86137e-05
9.80982e-05
0.000100248
9.71928e-05
9.71821e-05
9.86248e-05
9.86176e-05
9.71969e-05
9.8632e-05
9.86299e-05
9.80991e-05
0.000100251
9.7194e-05
9.86386e-05
9.86265e-05
0.00010025
0.000100712
0.000102902
9.91283e-05
9.91246e-05
0.000100749
0.000100744
0.000100711
0.000102899
9.91358e-05
9.91278e-05
0.000100756
0.000100746
9.91398e-05
0.000100761
0.000100762
0.000100714
0.0001029
9.91357e-05
0.000100766
0.000100757
0.000102901
0.000103373
0.000105589
0.000101316
0.000101312
0.0001031
0.000103096
0.000103371
0.000105589
0.000101323
0.000101315
0.000103106
0.000103102
0.00010133
0.000103113
0.000103115
0.000103372
0.000105594
0.000101325
0.000103122
0.000103109
0.000105592
0.000106072
0.000108305
0.000103721
0.000103717
0.000105645
0.00010564
0.000106071
0.000108303
0.000103727
0.000103721
0.00010565
0.000105642
0.000103734
0.000105656
0.000105657
0.000106075
0.000108302
0.000103728
0.000105661
0.00010565
0.000108304
0.00010879
0.000111025
0.000106305
0.000106301
0.000108348
0.000108342
0.000108788
0.000111024
0.00010631
0.000106305
0.000108351
0.000108349
0.000106319
0.000108358
0.000108364
0.000108789
0.000111029
0.000106311
0.000108368
0.000108356
0.000111029
0.000111516
0.000113751
0.000109047
0.000109041
0.000111183
0.000111177
0.000111513
0.000113748
0.00010905
0.000109046
0.000111186
0.000111182
0.000109061
0.000111192
0.000111194
0.000111518
0.000113752
0.000109053
0.000111201
0.000111186
0.00011375
0.000114239
0.000116467
0.000111908
0.000111903
0.000114124
0.000114119
0.000114237
0.000116466
0.000111911
0.000111908
0.000114126
0.000114124
0.000111921
0.000114135
0.00011414
0.00011424
0.00011647
0.000111912
0.000114143
0.000114131
0.000116471
0.000116954
0.00011917
0.000114875
0.000114869
0.000117152
0.000117143
0.000116952
0.000119166
0.000114877
0.000114874
0.000117154
0.000117151
0.00011489
0.000117159
0.000117163
0.000116956
0.000119172
0.000114881
0.00011717
0.000117154
0.000119169
0.000119651
0.000121851
0.00011792
0.000117912
0.000120249
0.000120242
0.000119647
0.000121849
0.000117922
0.000117919
0.00012025
0.000120248
0.000117931
0.000120259
0.000120264
0.000119653
0.000121853
0.000117922
0.000120268
0.000120255
0.000121853
0.000122326
0.000124511
0.000121034
0.000121026
0.0001234
0.000123391
0.000122325
0.000124507
0.000121034
0.000121032
0.0001234
0.000123397
0.000121048
0.000123408
0.000123411
0.000122328
0.000124512
0.000121038
0.000123418
0.000123401
0.00012451
0.000124978
0.000127141
0.000124193
0.000124182
0.00012658
0.000126567
0.000124974
0.000127136
0.000124193
0.00012419
0.00012658
0.000126577
0.000124203
0.000126584
0.000126591
0.00012498
0.000127143
0.000124193
0.000126598
0.000126582
0.000127141
0.0001276
0.00012974
0.000127379
0.000127366
0.000129776
0.000129767
0.000127596
0.000129739
0.000127378
0.000127375
0.000129775
0.000129771
0.000127389
0.000129785
0.000129786
0.000127602
0.000129742
0.00012738
0.000129792
0.000129777
0.00012974
0.00013019
0.000132304
0.000130576
0.000130565
0.000132974
0.000132956
0.000130188
0.000132296
0.000130575
0.000130571
0.000132972
0.00013297
0.000130585
0.000132975
0.000132981
0.000130192
0.000132307
0.000130576
0.000132991
0.000132973
0.000132302
0.000132743
0.000134826
0.000133771
0.000133754
0.000136158
0.000136146
0.000132736
0.000134824
0.00013377
0.000133767
0.000136156
0.000136152
0.000133779
0.000136166
0.000136166
0.000132746
0.000134827
0.000133771
0.000136174
0.000136158
0.000134825
0.000135254
0.000137307
0.000136953
0.00013694
0.000139325
0.000139307
0.000135253
0.0001373
0.00013695
0.000136946
0.000139323
0.000139319
0.000136959
0.000139327
0.00013933
0.000135256
0.000137309
0.000136951
0.000139341
0.000139324
0.000137305
0.000137724
0.00013974
0.000140112
0.000140094
0.00014246
0.000142445
0.000137717
0.000139736
0.00014011
0.000140106
0.000142458
0.000142454
0.000140117
0.000142465
0.000142466
0.000137726
0.000139742
0.00014011
0.000142476
0.00014246
0.000139738
0.000140145
0.000142127
0.000143239
0.000143223
0.000145561
0.000145543
0.000140141
0.00014212
0.000143238
0.000143232
0.00014556
0.000145553
0.000143244
0.000145564
0.000145563
0.000140147
0.000142128
0.000143238
0.000145576
0.000145558
0.000142123
0.000142519
0.00014446
0.000146329
0.000146311
0.000148616
0.000148599
0.000142512
0.000144455
0.000146327
0.000146322
0.000148615
0.00014861
0.000146331
0.00014862
0.00014862
0.00014252
0.000144463
0.000146326
0.000148633
0.000148616
0.000144458
0.00014484
0.000146746
0.000149374
0.000149356
0.000151628
0.000151609
0.000144834
0.000146739
0.000149373
0.000149367
0.000151627
0.000151619
0.000149377
0.000151631
0.000151629
0.000144842
0.000146746
0.000149373
0.000151643
0.000151626
0.000146741
0.000147112
0.000148972
0.000152372
0.000152354
0.000154581
0.000154564
0.000147105
0.000148967
0.000152371
0.000152363
0.00015458
0.000154572
0.000152373
0.000154585
0.000154581
0.000147111
0.000148973
0.000152369
0.000154596
0.000154579
0.000148968
0.000149325
0.000151146
0.000155311
0.000155292
0.000157476
0.000157457
0.000149319
0.000151139
0.00015531
0.000155302
0.000157477
0.00015747
0.000155311
0.000157479
0.000157477
0.000149326
0.000151148
0.000155308
0.000157494
0.000157476
0.000151142
0.000151485
0.000153264
0.000158191
0.000158172
0.000160312
0.000160293
0.000151478
0.000153257
0.000158191
0.000158185
0.000160313
0.000160303
0.000158192
0.000160316
0.000160311
0.000151488
0.000153264
0.00015819
0.000160328
0.00016031
0.000153257
0.000153589
0.000155321
0.000161011
0.000160993
0.000163082
0.000163064
0.000153582
0.000155315
0.000161012
0.000161001
0.000163083
0.000163073
0.000161009
0.000163087
0.000163081
0.000153588
0.000155321
0.000161008
0.000163098
0.000163081
0.000155315
0.000155633
0.000157322
0.000163764
0.000163746
0.000165789
0.000165768
0.000155626
0.000157314
0.000163766
0.000163756
0.00016579
0.00016578
0.000163764
0.000165792
0.000165786
0.000155633
0.000157323
0.000163764
0.000165806
0.000165787
0.000157316
0.000157621
0.000159263
0.000166455
0.000166434
0.000168426
0.000168407
0.000157612
0.000159256
0.000166457
0.000166446
0.000168429
0.000168417
0.000166452
0.000168431
0.000168423
0.000157621
0.000159263
0.000166453
0.000168443
0.000168424
0.000159256
0.000159547
0.000161145
0.000169075
0.000169056
0.000170995
0.000170975
0.00015954
0.000161138
0.000169077
0.000169065
0.000170997
0.000170985
0.000169071
0.000171
0.000170991
0.000159546
0.000161144
0.000169073
0.000171011
0.000170993
0.000161137
0.000161415
0.000162968
0.000171627
0.000171607
0.000173494
0.000173474
0.000161407
0.000162959
0.000171629
0.000171616
0.000173498
0.000173484
0.000171622
0.000173499
0.000173489
0.000161414
0.000162967
0.000171624
0.000173511
0.000173492
0.000162959
0.000163224
0.000164728
0.000174108
0.000174087
0.00017592
0.0001759
0.000163215
0.000164721
0.000174111
0.000174098
0.000175924
0.000175911
0.000174103
0.000175925
0.000175916
0.000163223
0.000164728
0.000174106
0.000175937
0.00017592
0.000164721
0.00016497
0.000166431
0.000176515
0.000176495
0.000178274
0.000178254
0.000164963
0.000166423
0.000176519
0.000176506
0.000178279
0.000178264
0.000176511
0.00017828
0.000178268
0.00016497
0.00016643
0.000176515
0.000178291
0.000178272
0.000166421
0.000166659
0.000168072
0.000178851
0.000178831
0.000180554
0.000180533
0.000166651
0.000168064
0.000178856
0.000178841
0.000180559
0.000180543
0.000178845
0.00018056
0.000180547
0.000166658
0.00016807
0.000178849
0.000180571
0.000180552
0.000168062
0.000168286
0.000169652
0.000181111
0.000181091
0.000182757
0.000182737
0.000168278
0.000169644
0.000181117
0.000181101
0.000182763
0.000182747
0.000181105
0.000182764
0.000182751
0.000168284
0.00016965
0.00018111
0.000182775
0.000182756
0.000169641
0.000169852
0.000171171
0.000183297
0.000183276
0.000184885
0.000184864
0.000169844
0.000171163
0.000183302
0.000183286
0.000184891
0.000184874
0.00018329
0.000184892
0.000184878
0.000169851
0.000171169
0.000183295
0.000184903
0.000184884
0.00017116
0.000171357
0.000172627
0.000185405
0.000185384
0.000186934
0.000186913
0.000171349
0.000172619
0.000185411
0.000185393
0.000186941
0.000186923
0.000185397
0.000186941
0.000186927
0.000171355
0.000172625
0.000185403
0.000186952
0.000186933
0.000172615
0.0001728
0.000174024
0.000187435
0.000187414
0.000188908
0.000188887
0.000172792
0.000174016
0.000187442
0.000187424
0.000188915
0.000188897
0.000187427
0.000188916
0.0001889
0.000172798
0.000174022
0.000187434
0.000188927
0.000188907
0.000174012
0.000174184
0.000175358
0.000189389
0.000189368
0.000190803
0.000190782
0.000174176
0.00017535
0.000189397
0.000189378
0.000190811
0.000190791
0.000189382
0.000190811
0.000190794
0.000174182
0.000175355
0.000189389
0.000190821
0.000190801
0.000175345
0.000175504
0.000176626
0.000191264
0.000191242
0.000192613
0.000192592
0.000175495
0.000176618
0.000191271
0.000191252
0.000192622
0.000192602
0.000191254
0.000192622
0.000192606
0.000175501
0.000176624
0.000191262
0.000192632
0.000192614
0.000176615
0.000176759
0.000177842
0.000193055
0.000193034
0.000194356
0.000194334
0.000176751
0.000177833
0.000193063
0.000193044
0.000194364
0.000194344
0.000193048
0.000194364
0.000194346
0.000176756
0.00017784
0.000193056
0.000194375
0.000194355
0.000177829
0.000177962
0.000178988
0.000194778
0.000194756
0.000196011
0.000195989
0.000177953
0.000178979
0.000194787
0.000194767
0.00019602
0.000195998
0.000194768
0.00019602
0.000196001
0.000177959
0.000178985
0.000194777
0.000196029
0.00019601
0.000178974
0.000179091
0.000180071
0.000196411
0.000196389
0.000197581
0.00019756
0.000179082
0.000180063
0.00019642
0.000196398
0.000197591
0.00019757
0.000196402
0.000197592
0.000197573
0.000179088
0.000180068
0.000196411
0.000197602
0.000197583
0.000180058
0.000180161
0.000181103
0.000197964
0.000197943
0.000199086
0.000199064
0.000180153
0.000181094
0.000197974
0.000197953
0.000199096
0.000199073
0.000197955
0.000199096
0.000199074
0.000180159
0.000181099
0.000197965
0.000199105
0.000199084
0.000181087
0.000181179
0.000182064
0.000199449
0.000199427
0.000200499
0.000200476
0.00018117
0.000182055
0.000199459
0.000199435
0.00020051
0.000200487
0.000199437
0.000200509
0.00020049
0.000181175
0.00018206
0.000199447
0.000200519
0.0002005
0.00018205
0.000182125
0.000182967
0.00020084
0.000200817
0.000201835
0.000201813
0.000182115
0.000182959
0.000200851
0.000200828
0.000201846
0.000201822
0.000200831
0.000201846
0.000201824
0.000182122
0.000182963
0.000200841
0.000201855
0.000201835
0.000182952
0.000183015
0.000183814
0.000202157
0.000202137
0.000203098
0.000203076
0.000183008
0.000183804
0.000202169
0.000202144
0.00020311
0.000203086
0.000202147
0.000203108
0.000203087
0.000183011
0.000183811
0.000202158
0.000203119
0.000203098
0.000183798
0.000183848
0.000184591
0.000203399
0.000203374
0.000204268
0.000204244
0.000183837
0.000184581
0.000203412
0.000203387
0.00020428
0.000204255
0.000203387
0.000204277
0.000204255
0.000183845
0.000184586
0.000203398
0.000204288
0.000204267
0.000184575
0.000184611
0.000185313
0.000204556
0.000204537
0.000205376
0.00020536
0.000184605
0.000185312
0.000204568
0.000204542
0.000205386
0.00020536
0.000204547
0.000205398
0.000205371
0.000184607
0.00018531
0.000204558
0.000205396
0.000205379
0.000185302
0.000185312
0.00018599
0.000205621
0.0002056
0.0002064
0.000206364
0.000185308
0.000185965
0.000205632
0.000205607
0.000206415
0.000206392
0.000205613
0.000206392
0.000206378
0.000185309
0.000185987
0.000205623
0.000206425
0.000206395
0.000185966
0.000185998
0.000186587
0.000206707
0.000206674
0.000207361
0.000207351
0.000185974
0.000186591
0.000206722
0.000206696
0.000207373
0.000207341
0.000206684
0.00020739
0.000207355
0.000185994
0.000186578
0.0002067
0.000207376
0.000207365
0.000186575
0.000186493
0.000187001
0.000207449
0.000207443
0.000208025
0.000208002
0.000186503
0.000186993
0.000207461
0.000207432
0.000208038
0.000208021
0.000207451
0.000208041
0.000208022
0.000186486
0.000187006
0.000207458
0.000208059
0.000208033
0.00018699
0.000187077
0.000188043
0.000208442
0.000208411
0.000209406
0.000209373
0.000187061
0.000188016
0.000208456
0.000208437
0.000209422
0.000209389
0.000208431
0.000209404
0.000209382
0.000187082
0.000188032
0.000208444
0.000209421
0.000209398
0.000188012
0.000187916
0.000187338
0.00020947
0.000209438
0.00020923
0.000209213
0.000187893
0.000187338
0.000209486
0.000209451
0.000209244
0.000209207
0.000209444
0.000209244
0.000209212
0.000187904
0.000187323
0.000209461
0.000209242
0.000209226
0.000187319
0.000187217
0.000189245
0.000209237
0.000209223
0.000210841
0.000210824
0.000187222
0.000189238
0.00020925
0.000209213
0.000210855
0.00021084
0.000209221
0.000210871
0.000210846
0.000187204
0.000189257
0.000209233
0.000210879
0.000210857
0.00018924
0.000189278
0.000188189
0.000211222
0.000211197
0.000210897
0.000210868
0.000189268
0.000188177
0.000211238
0.000211224
0.000210916
0.000210889
0.000211226
0.000210904
0.000210889
0.000189292
0.000188183
0.000211239
0.000210926
0.000210904
0.000188175
0.000187863
0.000189299
0.000210606
0.000210583
0.000211121
0.000211109
0.000187854
0.00018931
0.000210621
0.000210586
0.000211129
0.000211079
0.000210588
0.000211144
0.000211086
0.000187854
0.000189262
0.0002106
0.000211112
0.000211094
0.000189252
0.000189801
0.000189216
0.000211899
0.000211879
0.000212284
0.00021223
0.000189801
0.000189145
0.000211909
0.000211863
0.000212306
0.000212283
0.000211866
0.000212258
0.000212266
0.000189772
0.000189236
0.000211878
0.000212324
0.000212294
0.000189208
0.00018829
0.000184969
0.000211093
0.000211035
0.000208941
0.000208911
0.000188216
0.000184973
0.000211122
0.000211113
0.000208967
0.00020896
0.000211085
0.000208948
0.000208942
0.000188317
0.000184987
0.000211119
0.000208992
0.000208964
0.000184958
0.000185716
0.000199807
0.000209441
0.000209444
0.000221051
0.000221099
0.000185775
0.0001999
0.000209455
0.000209435
0.000221037
0.000220977
0.000209452
0.000221171
0.000221074
0.000185713
0.000199749
0.000209453
0.000221025
0.000221044
0.000199806
0.000201289
0.0002005
0.000224413
0.000224431
0.000227608
0.00022752
0.000201355
0.000200325
0.000224405
0.000224352
0.000227644
0.000227643
0.000224421
0.000227544
0.000227573
0.00020124
0.00020059
0.000224408
0.000227696
0.000227629
0.000200455
0.000196163
0.000168015
0.000220724
0.000220544
0.000192621
0.000192562
0.000195992
0.000167991
0.000220804
0.000220855
0.000192656
0.000192634
0.000220661
0.000192601
0.000192601
0.000196261
0.000168019
0.000220775
0.000192668
0.000192632
0.000168013
0.000164318
0.000156487
0.000185526
0.000185491
0.000174638
0.000174634
0.00016431
0.000156512
0.000185547
0.000185503
0.000174632
0.000174556
0.000185503
0.000174654
0.000174585
0.000164299
0.000156393
0.000185515
0.000174575
0.000174573
0.000156389
0.000159642
0.000196265
0.000176012
0.000176034
0.000216048
0.000216085
0.000159674
0.000196317
0.000175988
0.000175909
0.000216045
0.000216022
0.000175941
0.000216114
0.000216049
0.000159555
0.00019627
0.000175917
0.000216056
0.000216051
0.000196268
0.000202262
0.000230085
0.000230008
0.000230026
0.00026023
0.000260162
0.000202307
0.000230024
0.000230017
0.000230008
0.000260271
0.000260268
0.000230042
0.000260236
0.000260308
0.000202274
0.000230117
0.000230056
0.000260339
0.000260348
0.000230146
0.0002316
0.000234715
0.000266746
0.000266659
0.000270263
0.000270162
0.000231524
0.000234626
0.000266782
0.000266794
0.000270301
0.000270317
0.000266824
0.000270219
0.000270251
0.000231633
0.000234757
0.000266856
0.000270362
0.000270281
0.00023469
0.000233181
0.00026638
0.000266305
0.000233121
0.000266411
0.000266427
0.000310563
0.000310736
0.000310667
0.000266347
0.000233215
0.000266369
0.000234728
0.000234779
0.000234733
0.000234733
0.00023511
0.000234806
0.000234702
0.000234742
0.00023511
0.000234806
0.000234742
0.000234702
0.00023486
0.000233567
0.000233568
0.000104653
3.87587e-05
0.000129428
3.98342e-05
2.16907e-05
2.28368e-05
0.000104616
3.87547e-05
0.00012946
3.98309e-05
0.000233969
0.000233969
0.000233969
0.000232942
0.000232942
0.000232942
0.000232942
0.000206249
9.37608e-05
0.000233996
0.000231746
0.000222768
8.72446e-05
0.000233595
2.169e-05
2.28361e-05
0.000206248
0.000233996
9.37597e-05
0.000231747
0.000222768
0.000233595
8.72484e-05
4.78455e-05
4.78363e-05
0.000231405
4.39757e-05
4.39601e-05
7.25106e-05
4.24332e-05
8.13316e-05
4.37612e-05
2.47747e-05
2.54626e-05
7.24964e-05
4.24283e-05
8.13406e-05
4.37576e-05
0.000232529
0.000232529
0.000232529
0.000231061
0.000231061