/*--------------------------------*- C++ -*----------------------------------*\
| =========                 |                                                 |
| \\      /  F ield         | OpenFOAM: The Open Source CFD Toolbox           |
|  \\    /   O peration     | Version:                                        |
|   \\  /    A nd           | Website:  www.openfoam.com                      |
|    \\/     M anipulation  |                                                 |
\*---------------------------------------------------------------------------*/
FoamFile
{
    version     2.0;
    format      ascii;
    class       volScalarField;
    location    "400";
    object      p;
}
// * * * * * * * * * * * * * * * * * * * * * * * * * * * * * * * * * * * * * //

dimensions      [0 2 -2 0 0 0 0];


internalField   nonuniform List<scalar> 
172512
(
0.0036089
0.00360935
0.00360935
0.00360926
0.00355053
0.00355085
0.00355085
0.00355366
0.00349922
0.00349923
0.00349923
0.00350198
0.00344697
0.00344697
0.00344697
0.00344969
0.00339561
0.00339561
0.00339561
0.00339831
0.00334564
0.00334565
0.00334565
0.00334831
0.00329712
0.00329714
0.00329714
0.00329976
0.00324989
0.00324993
0.00324993
0.00325252
0.00320377
0.00320381
0.00320381
0.00320637
0.00315855
0.00315859
0.00315859
0.00316112
0.00311405
0.00311409
0.00311409
0.00311659
0.00307014
0.00307018
0.00307018
0.00307266
0.00302676
0.00302679
0.00302679
0.00302924
0.00298384
0.00298387
0.00298387
0.00298632
0.00294135
0.00294137
0.00294137
0.00294382
0.00289927
0.00289929
0.00289929
0.00290172
0.00285758
0.00285759
0.00285759
0.00286001
0.00281624
0.00281625
0.00281625
0.00281866
0.00277524
0.00277524
0.00277524
0.00277765
0.00273455
0.00273454
0.00273454
0.00273695
0.00269414
0.00269414
0.00269414
0.00269654
0.00265401
0.002654
0.002654
0.00265639
0.00261413
0.00261412
0.00261412
0.0026165
0.00257449
0.00257447
0.00257447
0.00257685
0.00253508
0.00253506
0.00253506
0.00253742
0.00249589
0.00249586
0.00249586
0.00249821
0.0024569
0.00245687
0.00245687
0.00245921
0.00241812
0.00241809
0.00241809
0.00242041
0.00237953
0.0023795
0.0023795
0.0023818
0.00234113
0.0023411
0.0023411
0.00234338
0.00230291
0.00230288
0.00230288
0.00230514
0.00226486
0.00226483
0.00226483
0.00226707
0.00222698
0.00222696
0.00222696
0.00222918
0.00218926
0.00218925
0.00218925
0.00219144
0.0021517
0.00215169
0.00215169
0.00215387
0.00211429
0.00211428
0.00211428
0.00211644
0.00207703
0.00207702
0.00207702
0.00207916
0.00203991
0.0020399
0.0020399
0.00204203
0.00200293
0.00200291
0.00200291
0.00200502
0.00196607
0.00196605
0.00196605
0.00196815
0.00192934
0.00192931
0.00192931
0.0019314
0.00189272
0.00189268
0.00189268
0.00189476
0.00185622
0.00185617
0.00185617
0.00185824
0.00181982
0.00181976
0.00181976
0.00182183
0.00178352
0.00178345
0.00178345
0.00178551
0.00174731
0.00174724
0.00174724
0.00174929
0.00171118
0.00171111
0.00171111
0.00171315
0.00167514
0.00167506
0.00167506
0.0016771
0.00163918
0.00163909
0.00163909
0.00164112
0.00160329
0.00160319
0.00160319
0.00160521
0.00156746
0.00156736
0.00156736
0.00156937
0.00153169
0.00153159
0.00153159
0.0015336
0.00149598
0.00149587
0.00149587
0.00149787
0.00146032
0.0014602
0.0014602
0.0014622
0.00142471
0.00142459
0.00142459
0.00142658
0.00138914
0.00138901
0.00138901
0.001391
0.0013536
0.00135347
0.00135347
0.00135546
0.0013181
0.00131797
0.00131797
0.00131996
0.00128263
0.0012825
0.0012825
0.00128448
0.00124718
0.00124706
0.00124706
0.00124903
0.00121175
0.00121163
0.00121163
0.00121361
0.00117634
0.00117623
0.00117623
0.0011782
0.00114094
0.00114083
0.00114083
0.00114281
0.00110556
0.00110545
0.00110545
0.00110742
0.00107018
0.00107008
0.00107008
0.00107205
0.00103481
0.00103471
0.0010347
0.00103667
0.00099943
0.000999332
0.000999332
0.0010013
0.00096405
0.000963955
0.000963955
0.000965924
0.000928664
0.000928572
0.000928572
0.000930541
0.000893266
0.000893178
0.000893177
0.000895148
0.000857855
0.00085777
0.00085777
0.000859741
0.000822429
0.000822347
0.000822346
0.000824319
0.000786982
0.000786904
0.000786904
0.000788877
0.000751515
0.00075144
0.00075144
0.000753415
0.000716024
0.000715952
0.000715952
0.000717929
0.000680506
0.000680437
0.000680437
0.000682416
0.000644961
0.000644895
0.000644895
0.000646875
0.000609385
0.000609323
0.000609323
0.000611306
0.000573778
0.000573714
0.000573713
0.000575699
0.000538125
0.000538076
0.000538077
0.000540066
0.000502483
0.000502415
0.000502414
0.000504404
0.000466702
0.000466656
0.000466655
0.000468646
0.00043104
0.000431006
0.000431007
0.000433009
0.00039517
0.000395103
0.000395103
0.000397101
0.00035941
0.000359379
0.000359377
0.000361374
0.000323532
0.000323489
0.000323494
0.000325519
0.000287635
0.000287563
0.000287557
0.000289527
0.00025281
0.000252765
0.000252761
0.000254715
0.000216003
0.000215903
0.000215909
0.000217957
0.000176834
0.000177238
0.000177223
0.000179563
0.000141029
0.000141371
0.000141367
0.000143508
0.000109278
0.000108975
0.00010898
0.00011065
7.62279e-05
7.50401e-05
7.50383e-05
7.65343e-05
3.92937e-05
3.81339e-05
3.81281e-05
3.99662e-05
1.08231e-05
7.74825e-06
7.74121e-06
6.29221e-06
0.00361907
0.00361813
0.00361813
0.00361907
0.00361813
0.00361813
0.00361703
0.00361703
0.00361703
0.00361703
0.00361813
0.00361813
0.00361907
0.00361813
0.00361813
0.00361907
0.00360927
0.0035601
0.00360935
0.00360935
0.00356225
0.00356225
0.00360926
0.0035601
0.00360935
0.00360935
0.00356225
0.00356224
0.00360935
0.00356225
0.00356225
0.00360926
0.0035601
0.00360935
0.00356225
0.00356225
0.0035601
0.00355366
0.00350906
0.00355085
0.00355085
0.00351242
0.00351243
0.00355366
0.00350905
0.00355085
0.00355085
0.00351242
0.00351243
0.00355085
0.00351242
0.00351242
0.00355366
0.00350906
0.00355085
0.00351242
0.00351242
0.00350906
0.00350198
0.00345668
0.00349923
0.00349923
0.00345996
0.00345996
0.00350198
0.00345668
0.00349922
0.00349923
0.00345996
0.00345996
0.00349922
0.00345996
0.00345996
0.00350198
0.00345668
0.00349922
0.00345996
0.00345996
0.00345668
0.00344969
0.00340513
0.00344697
0.00344697
0.00340834
0.00340834
0.00344969
0.00340513
0.00344697
0.00344697
0.00340834
0.00340834
0.00344697
0.00340834
0.00340834
0.00344969
0.00340513
0.00344697
0.00340834
0.00340834
0.00340513
0.00339831
0.00335491
0.00339562
0.00339561
0.00335801
0.00335801
0.00339831
0.00335491
0.00339561
0.00339561
0.00335801
0.00335801
0.00339561
0.003358
0.00335801
0.00339831
0.00335491
0.00339561
0.003358
0.003358
0.00335491
0.00334831
0.00330616
0.00334566
0.00334566
0.00330914
0.00330915
0.00334831
0.00330615
0.00334566
0.00334566
0.00330914
0.00330914
0.00334566
0.00330914
0.00330914
0.00334831
0.00330615
0.00334565
0.00330914
0.00330914
0.00330615
0.00329976
0.00325874
0.00329714
0.00329715
0.00326162
0.00326162
0.00329976
0.00325873
0.00329714
0.00329714
0.00326162
0.00326162
0.00329715
0.00326162
0.00326162
0.00329976
0.00325873
0.00329714
0.00326163
0.00326162
0.00325873
0.00325252
0.00321244
0.00324993
0.00324992
0.00321525
0.00321525
0.00325252
0.00321244
0.00324993
0.00324993
0.00321525
0.00321525
0.00324993
0.00321525
0.00321525
0.00325252
0.00321244
0.00324993
0.00321525
0.00321525
0.00321244
0.00320637
0.00316707
0.00320381
0.00320381
0.00316982
0.00316982
0.00320637
0.00316706
0.00320381
0.00320381
0.00316982
0.00316982
0.00320381
0.00316982
0.00316982
0.00320637
0.00316707
0.00320381
0.00316982
0.00316982
0.00316707
0.00316112
0.00312244
0.00315859
0.00315859
0.00312515
0.00312515
0.00316112
0.00312244
0.00315859
0.00315859
0.00312515
0.00312515
0.00315859
0.00312515
0.00312515
0.00316112
0.00312244
0.00315859
0.00312515
0.00312515
0.00312244
0.00311659
0.00307843
0.00311409
0.00311409
0.00308111
0.00308111
0.00311659
0.00307843
0.00311409
0.00311409
0.00308111
0.00308111
0.00311409
0.00308111
0.00308111
0.00311659
0.00307843
0.00311409
0.00308111
0.00308111
0.00307843
0.00307266
0.00303494
0.00307018
0.00307018
0.00303759
0.0030376
0.00307266
0.00303493
0.00307018
0.00307018
0.00303759
0.0030376
0.00307018
0.0030376
0.00303759
0.00307266
0.00303493
0.00307018
0.0030376
0.00303759
0.00303494
0.00302924
0.00299194
0.00302679
0.0030268
0.00299456
0.00299456
0.00302924
0.00299195
0.00302679
0.00302679
0.00299456
0.00299456
0.00302679
0.00299456
0.00299456
0.00302924
0.00299195
0.00302679
0.00299456
0.00299456
0.00299194
0.00298632
0.00294939
0.00298387
0.00298387
0.00295196
0.00295196
0.00298632
0.00294939
0.00298387
0.00298387
0.00295196
0.00295196
0.00298387
0.00295196
0.00295194
0.00298632
0.00294939
0.00298387
0.00295196
0.00295196
0.00294939
0.00294382
0.00290724
0.00294138
0.00294137
0.00290977
0.00290977
0.00294382
0.00290724
0.00294137
0.00294138
0.00290977
0.00290977
0.00294138
0.00290977
0.00290977
0.00294382
0.00290724
0.00294137
0.00290977
0.00290977
0.00290724
0.00290172
0.00286548
0.00289929
0.00289929
0.00286798
0.00286798
0.00290172
0.00286548
0.00289929
0.00289929
0.00286798
0.00286798
0.00289929
0.00286798
0.00286798
0.00290172
0.00286548
0.00289929
0.00286798
0.00286798
0.00286548
0.00286001
0.00282409
0.00285759
0.00285759
0.00282655
0.00282655
0.00286001
0.00282409
0.00285759
0.00285759
0.00282655
0.00282655
0.00285759
0.00282655
0.00282655
0.00286001
0.00282409
0.00285759
0.00282655
0.00282655
0.00282409
0.00281866
0.00278303
0.00281625
0.00281625
0.00278546
0.00278546
0.00281866
0.00278303
0.00281625
0.00281625
0.00278546
0.00278546
0.00281625
0.00278546
0.00278546
0.00281866
0.00278303
0.00281625
0.00278546
0.00278546
0.00278303
0.00277765
0.00274229
0.00277524
0.00277524
0.00274469
0.00274469
0.00277765
0.00274229
0.00277524
0.00277524
0.00274469
0.00274469
0.00277524
0.00274469
0.00274469
0.00277765
0.00274229
0.00277524
0.00274469
0.00274469
0.00274229
0.00273695
0.00270185
0.00273454
0.00273454
0.00270421
0.00270421
0.00273695
0.00270184
0.00273454
0.00273454
0.00270421
0.00270421
0.00273454
0.00270421
0.00270421
0.00273695
0.00270184
0.00273454
0.00270421
0.00270421
0.00270184
0.00269654
0.00266167
0.00269414
0.00269414
0.00266401
0.00266401
0.00269654
0.00266167
0.00269414
0.00269414
0.00266401
0.00266401
0.00269414
0.00266401
0.00266401
0.00269654
0.00266167
0.00269414
0.00266401
0.00266401
0.00266167
0.00265639
0.00262175
0.002654
0.002654
0.00262407
0.00262407
0.00265639
0.00262175
0.002654
0.002654
0.00262407
0.00262407
0.002654
0.00262407
0.00262407
0.0026564
0.00262175
0.002654
0.00262407
0.00262407
0.00262175
0.0026165
0.00258207
0.00261412
0.00261412
0.00258436
0.00258436
0.0026165
0.00258207
0.00261412
0.00261412
0.00258436
0.00258436
0.00261412
0.00258436
0.00258436
0.0026165
0.00258207
0.00261412
0.00258436
0.00258436
0.00258207
0.00257685
0.00254262
0.00257447
0.00257447
0.00254489
0.00254489
0.00257685
0.00254262
0.00257447
0.00257447
0.00254489
0.00254489
0.00257447
0.00254489
0.00254489
0.00257685
0.00254262
0.00257447
0.00254489
0.00254489
0.00254262
0.00253742
0.00250339
0.00253506
0.00253506
0.00250564
0.00250564
0.00253742
0.00250339
0.00253506
0.00253506
0.00250564
0.00250564
0.00253506
0.00250564
0.00250564
0.00253742
0.00250339
0.00253506
0.00250564
0.00250564
0.00250339
0.00249821
0.00246436
0.00249586
0.00249586
0.0024666
0.0024666
0.00249821
0.00246436
0.00249586
0.00249586
0.0024666
0.0024666
0.00249586
0.0024666
0.0024666
0.00249821
0.00246436
0.00249586
0.0024666
0.0024666
0.00246436
0.00245921
0.00242554
0.00245687
0.00245687
0.00242777
0.00242777
0.00245921
0.00242554
0.00245687
0.00245687
0.00242777
0.00242777
0.00245687
0.00242777
0.00242777
0.00245921
0.00242554
0.00245687
0.00242777
0.00242777
0.00242554
0.00242041
0.00238691
0.00241809
0.00241809
0.00238913
0.00238913
0.00242041
0.00238691
0.00241809
0.00241809
0.00238913
0.00238913
0.00241809
0.00238913
0.00238913
0.00242041
0.00238691
0.00241809
0.00238913
0.00238913
0.00238691
0.0023818
0.00234847
0.0023795
0.0023795
0.00235068
0.00235068
0.0023818
0.00234847
0.0023795
0.0023795
0.00235068
0.00235068
0.0023795
0.00235068
0.00235068
0.0023818
0.00234847
0.0023795
0.00235068
0.00235068
0.00234847
0.00234338
0.00231022
0.0023411
0.0023411
0.00231242
0.00231242
0.00234338
0.00231022
0.0023411
0.0023411
0.00231242
0.00231242
0.0023411
0.00231242
0.00231242
0.00234338
0.00231022
0.0023411
0.00231242
0.00231242
0.00231022
0.00230514
0.00227213
0.00230288
0.00230288
0.00227433
0.00227433
0.00230514
0.00227213
0.00230288
0.00230288
0.00227433
0.00227433
0.00230288
0.00227433
0.00227433
0.00230514
0.00227213
0.00230288
0.00227433
0.00227433
0.00227213
0.00226707
0.00223422
0.00226483
0.00226483
0.00223641
0.00223641
0.00226707
0.00223422
0.00226483
0.00226483
0.00223641
0.00223641
0.00226483
0.00223641
0.00223641
0.00226707
0.00223422
0.00226483
0.00223641
0.00223641
0.00223422
0.00222918
0.00219648
0.00222696
0.00222696
0.00219866
0.00219866
0.00222918
0.00219648
0.00222696
0.00222696
0.00219866
0.00219866
0.00222696
0.00219866
0.00219866
0.00222918
0.00219648
0.00222696
0.00219866
0.00219866
0.00219648
0.00219144
0.00215889
0.00218925
0.00218925
0.00216106
0.00216106
0.00219144
0.00215889
0.00218925
0.00218925
0.00216106
0.00216106
0.00218925
0.00216106
0.00216106
0.00219144
0.00215889
0.00218925
0.00216106
0.00216106
0.00215889
0.00215387
0.00212145
0.00215169
0.00215169
0.00212362
0.00212362
0.00215387
0.00212145
0.00215169
0.00215169
0.00212362
0.00212362
0.00215169
0.00212362
0.00212362
0.00215387
0.00212145
0.00215169
0.00212362
0.00212362
0.00212145
0.00211644
0.00208416
0.00211428
0.00211428
0.00208632
0.00208632
0.00211644
0.00208416
0.00211428
0.00211428
0.00208632
0.00208632
0.00211428
0.00208632
0.00208632
0.00211644
0.00208416
0.00211428
0.00208632
0.00208632
0.00208416
0.00207916
0.00204701
0.00207702
0.00207702
0.00204916
0.00204916
0.00207916
0.00204701
0.00207702
0.00207702
0.00204916
0.00204916
0.00207702
0.00204916
0.00204916
0.00207916
0.00204701
0.00207702
0.00204916
0.00204916
0.00204701
0.00204203
0.00200999
0.0020399
0.0020399
0.00201214
0.00201214
0.00204203
0.00200999
0.0020399
0.0020399
0.00201214
0.00201214
0.0020399
0.00201214
0.00201214
0.00204203
0.00200999
0.0020399
0.00201214
0.00201214
0.00200999
0.00200502
0.00197311
0.00200291
0.00200291
0.00197525
0.00197525
0.00200502
0.00197311
0.00200291
0.00200291
0.00197525
0.00197525
0.00200291
0.00197525
0.00197525
0.00200502
0.00197311
0.00200291
0.00197525
0.00197525
0.00197311
0.00196815
0.00193635
0.00196605
0.00196605
0.00193848
0.00193848
0.00196815
0.00193635
0.00196605
0.00196605
0.00193848
0.00193848
0.00196605
0.00193848
0.00193848
0.00196815
0.00193635
0.00196605
0.00193848
0.00193848
0.00193635
0.0019314
0.0018997
0.00192931
0.00192931
0.00190183
0.00190183
0.0019314
0.0018997
0.00192931
0.00192931
0.00190183
0.00190183
0.00192931
0.00190183
0.00190183
0.0019314
0.0018997
0.00192931
0.00190183
0.00190183
0.0018997
0.00189476
0.00186317
0.00189268
0.00189268
0.00186529
0.00186529
0.00189476
0.00186317
0.00189268
0.00189268
0.00186529
0.00186529
0.00189268
0.00186529
0.00186529
0.00189476
0.00186317
0.00189268
0.00186529
0.00186529
0.00186317
0.00185824
0.00182675
0.00185617
0.00185617
0.00182885
0.00182885
0.00185824
0.00182675
0.00185617
0.00185617
0.00182885
0.00182885
0.00185617
0.00182885
0.00182885
0.00185824
0.00182675
0.00185617
0.00182885
0.00182885
0.00182675
0.00182183
0.00179042
0.00181976
0.00181976
0.00179252
0.00179252
0.00182183
0.00179042
0.00181976
0.00181976
0.00179252
0.00179252
0.00181976
0.00179252
0.00179252
0.00182183
0.00179042
0.00181976
0.00179252
0.00179252
0.00179042
0.00178551
0.00175419
0.00178345
0.00178345
0.00175628
0.00175628
0.00178551
0.00175419
0.00178345
0.00178345
0.00175628
0.00175628
0.00178345
0.00175628
0.00175628
0.00178551
0.00175419
0.00178345
0.00175628
0.00175628
0.00175419
0.00174928
0.00171805
0.00174724
0.00174724
0.00172013
0.00172013
0.00174929
0.00171805
0.00174724
0.00174724
0.00172013
0.00172013
0.00174724
0.00172013
0.00172013
0.00174928
0.00171805
0.00174724
0.00172013
0.00172013
0.00171805
0.00171315
0.00168199
0.00171111
0.00171111
0.00168407
0.00168407
0.00171315
0.00168199
0.00171111
0.00171111
0.00168407
0.00168407
0.00171111
0.00168407
0.00168407
0.00171315
0.00168199
0.00171111
0.00168407
0.00168407
0.00168199
0.0016771
0.00164601
0.00167506
0.00167506
0.00164808
0.00164808
0.0016771
0.00164601
0.00167506
0.00167506
0.00164808
0.00164808
0.00167506
0.00164808
0.00164808
0.0016771
0.00164601
0.00167506
0.00164808
0.00164808
0.00164601
0.00164112
0.0016101
0.00163909
0.00163909
0.00161216
0.00161216
0.00164112
0.0016101
0.00163909
0.00163909
0.00161216
0.00161216
0.00163909
0.00161216
0.00161216
0.00164112
0.0016101
0.00163909
0.00161216
0.00161216
0.0016101
0.00160521
0.00157425
0.00160319
0.00160319
0.00157631
0.00157631
0.00160521
0.00157425
0.00160319
0.00160319
0.00157631
0.00157631
0.00160319
0.00157631
0.00157631
0.00160521
0.00157425
0.00160319
0.00157631
0.00157631
0.00157425
0.00156937
0.00153847
0.00156736
0.00156736
0.00154052
0.00154052
0.00156937
0.00153847
0.00156736
0.00156736
0.00154052
0.00154052
0.00156736
0.00154052
0.00154052
0.00156937
0.00153847
0.00156736
0.00154052
0.00154052
0.00153847
0.0015336
0.00150275
0.00153159
0.00153159
0.00150479
0.00150479
0.0015336
0.00150275
0.00153159
0.00153159
0.00150479
0.00150479
0.00153159
0.00150479
0.00150479
0.0015336
0.00150275
0.00153159
0.00150479
0.00150479
0.00150275
0.00149787
0.00146708
0.00149587
0.00149587
0.00146912
0.00146912
0.00149787
0.00146708
0.00149587
0.00149587
0.00146912
0.00146912
0.00149587
0.00146912
0.00146912
0.00149787
0.00146707
0.00149587
0.00146912
0.00146912
0.00146707
0.0014622
0.00143145
0.0014602
0.0014602
0.00143349
0.00143349
0.0014622
0.00143145
0.0014602
0.0014602
0.00143349
0.00143349
0.0014602
0.00143349
0.00143349
0.0014622
0.00143145
0.0014602
0.00143349
0.00143349
0.00143145
0.00142658
0.00139587
0.00142459
0.00142459
0.0013979
0.0013979
0.00142658
0.00139587
0.00142459
0.00142459
0.0013979
0.0013979
0.00142459
0.0013979
0.0013979
0.00142658
0.00139587
0.00142459
0.0013979
0.0013979
0.00139587
0.001391
0.00136033
0.00138901
0.00138901
0.00136235
0.00136235
0.001391
0.00136033
0.00138901
0.00138901
0.00136235
0.00136235
0.00138901
0.00136235
0.00136235
0.001391
0.00136033
0.00138901
0.00136235
0.00136235
0.00136033
0.00135546
0.00132482
0.00135347
0.00135347
0.00132684
0.00132684
0.00135546
0.00132482
0.00135347
0.00135347
0.00132684
0.00132684
0.00135347
0.00132684
0.00132684
0.00135546
0.00132482
0.00135347
0.00132684
0.00132684
0.00132482
0.00131996
0.00128934
0.00131797
0.00131797
0.00129136
0.00129136
0.00131996
0.00128934
0.00131797
0.00131797
0.00129136
0.00129136
0.00131797
0.00129136
0.00129136
0.00131996
0.00128934
0.00131797
0.00129136
0.00129136
0.00128934
0.00128448
0.0012539
0.0012825
0.0012825
0.00125591
0.00125591
0.00128448
0.0012539
0.0012825
0.0012825
0.00125591
0.00125591
0.0012825
0.00125591
0.00125591
0.00128448
0.0012539
0.0012825
0.00125591
0.00125591
0.0012539
0.00124903
0.00121847
0.00124706
0.00124706
0.00122049
0.00122049
0.00124903
0.00121847
0.00124706
0.00124706
0.00122049
0.00122049
0.00124706
0.00122049
0.00122049
0.00124903
0.00121847
0.00124706
0.00122049
0.00122049
0.00121847
0.00121361
0.00118306
0.00121163
0.00121163
0.00118508
0.00118508
0.00121361
0.00118306
0.00121163
0.00121163
0.00118508
0.00118508
0.00121163
0.00118508
0.00118508
0.00121361
0.00118306
0.00121163
0.00118508
0.00118508
0.00118306
0.0011782
0.00114767
0.00117623
0.00117623
0.00114968
0.00114968
0.0011782
0.00114767
0.00117623
0.00117623
0.00114968
0.00114968
0.00117623
0.00114968
0.00114968
0.0011782
0.00114767
0.00117623
0.00114968
0.00114968
0.00114767
0.0011428
0.00111229
0.00114083
0.00114083
0.0011143
0.0011143
0.0011428
0.00111229
0.00114083
0.00114083
0.0011143
0.0011143
0.00114083
0.0011143
0.0011143
0.0011428
0.00111229
0.00114083
0.0011143
0.0011143
0.00111229
0.00110742
0.00107691
0.00110545
0.00110545
0.00107892
0.00107892
0.00110742
0.00107691
0.00110545
0.00110545
0.00107892
0.00107892
0.00110545
0.00107892
0.00107892
0.00110742
0.00107691
0.00110545
0.00107892
0.00107892
0.00107691
0.00107205
0.00104154
0.00107008
0.00107008
0.00104355
0.00104355
0.00107205
0.00104154
0.00107008
0.00107008
0.00104355
0.00104355
0.00107008
0.00104355
0.00104355
0.00107205
0.00104154
0.00107008
0.00104355
0.00104355
0.00104154
0.00103667
0.00100617
0.0010347
0.0010347
0.00100818
0.00100818
0.00103667
0.00100617
0.0010347
0.0010347
0.00100818
0.00100818
0.00103471
0.00100818
0.00100818
0.00103667
0.00100617
0.0010347
0.00100818
0.00100818
0.00100617
0.0010013
0.000970797
0.000999332
0.000999332
0.0009728
0.0009728
0.0010013
0.000970797
0.000999332
0.000999332
0.0009728
0.0009728
0.000999332
0.0009728
0.0009728
0.0010013
0.000970797
0.000999332
0.0009728
0.0009728
0.000970797
0.000965924
0.000935417
0.000963955
0.000963955
0.000937419
0.000937418
0.000965924
0.000935417
0.000963955
0.000963955
0.000937418
0.000937418
0.000963955
0.000937418
0.000937419
0.000965924
0.000935417
0.000963955
0.000937418
0.000937418
0.000935416
0.000930541
0.000900026
0.000928572
0.000928572
0.000902027
0.000902027
0.000930541
0.000900026
0.000928572
0.000928572
0.000902027
0.000902027
0.000928572
0.000902027
0.000902027
0.000930541
0.000900026
0.000928572
0.000902027
0.000902027
0.000900026
0.000895147
0.000864623
0.000893178
0.000893178
0.000866623
0.000866623
0.000895147
0.000864623
0.000893177
0.000893177
0.000866623
0.000866623
0.000893178
0.000866623
0.000866623
0.000895147
0.000864623
0.000893178
0.000866623
0.000866623
0.000864623
0.00085974
0.000829204
0.00085777
0.00085777
0.000831204
0.000831204
0.000859741
0.000829205
0.00085777
0.00085777
0.000831204
0.000831204
0.00085777
0.000831204
0.000831204
0.000859741
0.000829204
0.00085777
0.000831204
0.000831204
0.000829204
0.000824318
0.000793767
0.000822347
0.000822347
0.000795766
0.000795766
0.000824318
0.000793767
0.000822346
0.000822346
0.000795766
0.000795766
0.000822347
0.000795766
0.000795766
0.000824318
0.000793767
0.000822346
0.000795766
0.000795766
0.000793767
0.000788877
0.000758309
0.000786904
0.000786904
0.000760308
0.000760308
0.000788877
0.000758309
0.000786904
0.000786904
0.000760308
0.000760308
0.000786904
0.000760308
0.000760308
0.000788877
0.000758309
0.000786904
0.000760308
0.000760308
0.000758308
0.000753414
0.000722827
0.00075144
0.00075144
0.000724826
0.000724826
0.000753414
0.000722827
0.00075144
0.00075144
0.000724826
0.000724826
0.00075144
0.000724826
0.000724826
0.000753414
0.000722827
0.00075144
0.000724826
0.000724826
0.000722827
0.000717928
0.000687319
0.000715952
0.000715952
0.000689318
0.000689318
0.000717928
0.000687319
0.000715952
0.000715952
0.000689318
0.000689318
0.000715952
0.000689318
0.000689318
0.000717928
0.000687319
0.000715952
0.000689318
0.000689318
0.000687319
0.000682416
0.000651784
0.000680437
0.000680437
0.000653783
0.000653784
0.000682416
0.000651784
0.000680437
0.000680437
0.000653783
0.000653783
0.000680437
0.000653784
0.000653784
0.000682416
0.000651783
0.000680437
0.000653783
0.000653783
0.000651783
0.000646875
0.000616219
0.000644895
0.000644895
0.000618218
0.000618217
0.000646875
0.000616218
0.000644895
0.000644895
0.000618218
0.000618218
0.000644895
0.000618217
0.000618218
0.000646875
0.000616218
0.000644895
0.000618218
0.000618218
0.000616218
0.000611306
0.000580619
0.000609323
0.000609323
0.000582622
0.000582622
0.000611306
0.00058062
0.000609323
0.000609323
0.000582621
0.000582621
0.000609323
0.000582622
0.000582622
0.000611306
0.000580618
0.000609323
0.000582621
0.000582622
0.000580619
0.000575698
0.000544986
0.000573713
0.000573714
0.000546983
0.000546983
0.000575698
0.000544985
0.000573713
0.000573713
0.000546983
0.000546984
0.000573714
0.000546983
0.000546984
0.000575698
0.000544986
0.000573713
0.000546984
0.000546984
0.000544985
0.000540066
0.000509339
0.000538077
0.000538076
0.000511345
0.000511345
0.000540065
0.000509338
0.000538077
0.000538077
0.000511345
0.000511345
0.000538077
0.000511345
0.000511345
0.000540066
0.000509338
0.000538077
0.000511345
0.000511345
0.000509338
0.000504404
0.000473581
0.000502415
0.000502415
0.000475589
0.00047559
0.000504404
0.000473582
0.000502415
0.000502415
0.000475589
0.000475589
0.000502415
0.00047559
0.00047559
0.000504404
0.000473581
0.000502415
0.000475589
0.00047559
0.000473581
0.000468645
0.000437933
0.000466655
0.000466656
0.000439919
0.000439918
0.000468646
0.000437933
0.000466655
0.000466655
0.000439918
0.000439919
0.000466656
0.000439918
0.000439918
0.000468645
0.000437933
0.000466655
0.000439918
0.000439918
0.000437932
0.000433009
0.000402069
0.000431007
0.000431006
0.000404096
0.000404096
0.000433008
0.000402069
0.000431007
0.000431007
0.000404096
0.000404096
0.000431007
0.000404095
0.000404096
0.000433009
0.000402069
0.000431007
0.000404096
0.000404096
0.000402069
0.000397101
0.000366288
0.000395104
0.000395104
0.000368272
0.000368273
0.000397101
0.000366289
0.000395104
0.000395104
0.000368272
0.000368271
0.000395104
0.000368274
0.000368272
0.000397101
0.000366286
0.000395103
0.00036827
0.000368271
0.000366286
0.000361374
0.000330522
0.000359378
0.000359378
0.000332543
0.000332541
0.000361375
0.00033052
0.000359377
0.000359377
0.000332544
0.000332545
0.000359378
0.000332541
0.000332544
0.000361373
0.000330524
0.000359377
0.000332546
0.000332545
0.000330523
0.000325517
0.000294407
0.000323491
0.000323489
0.0002964
0.0002964
0.000325515
0.000294409
0.000323492
0.000323494
0.000296399
0.000296399
0.000323492
0.0002964
0.000296399
0.000325519
0.000294406
0.000323493
0.000296398
0.000296398
0.000294406
0.000289527
0.000259548
0.00028756
0.000287563
0.000261485
0.000261489
0.00028953
0.000259553
0.000287559
0.000287558
0.000261482
0.000261478
0.00028756
0.00026149
0.000261485
0.000289525
0.000259543
0.000287558
0.000261479
0.000261483
0.000259548
0.000254715
0.000223195
0.000252765
0.000252766
0.000225382
0.000225379
0.000254716
0.00022319
0.000252763
0.00025276
0.000225385
0.000225386
0.000252764
0.000225378
0.000225384
0.00025471
0.000223197
0.000252765
0.000225385
0.000225385
0.000223194
0.000217957
0.000184759
0.000215905
0.000215902
0.000186722
0.000186729
0.000217952
0.000184774
0.000215907
0.000215909
0.000186721
0.000186719
0.000215906
0.000186731
0.000186726
0.00021796
0.000184752
0.000215907
0.000186719
0.000186725
0.000184763
0.000179557
0.000148257
0.000177228
0.000177236
0.00014996
0.000149969
0.000179569
0.000148261
0.000177226
0.000177222
0.000149966
0.000149956
0.000177234
0.000149969
0.00014996
0.000179552
0.000148252
0.00017723
0.000149955
0.000149965
0.000148256
0.000143509
0.000115141
0.00014137
0.000141372
0.000116992
0.000116992
0.000143511
0.00011514
0.000141371
0.000141368
0.000116995
0.000116997
0.000141368
0.000116991
0.000116992
0.000143506
0.000115145
0.000141369
0.000116996
0.000116994
0.000115142
0.000110647
8.13235e-05
0.000108973
0.000108974
8.37529e-05
8.37536e-05
0.000110646
8.13239e-05
0.000108977
0.00010898
8.37561e-05
8.3755e-05
0.000108976
8.37536e-05
8.37568e-05
0.000110652
8.13233e-05
0.00010898
8.37544e-05
8.37561e-05
8.13251e-05
7.65325e-05
4.51004e-05
7.50407e-05
7.50392e-05
4.75768e-05
4.75762e-05
7.6533e-05
4.50981e-05
7.50404e-05
7.5039e-05
4.75755e-05
4.75654e-05
7.50424e-05
4.75702e-05
4.7566e-05
7.65321e-05
4.509e-05
7.50395e-05
4.75647e-05
4.75701e-05
4.50927e-05
3.99729e-05
8.15446e-06
3.81356e-05
3.81355e-05
9.97251e-06
9.97497e-06
3.99706e-05
8.15631e-06
3.81354e-05
3.81278e-05
9.97573e-06
9.96695e-06
3.81273e-05
9.97886e-06
9.97091e-06
3.9964e-05
8.14941e-06
3.81305e-05
9.97143e-06
9.9745e-06
8.15612e-06
6.29157e-06
7.74303e-06
7.74641e-06
6.29394e-06
7.74494e-06
7.73885e-06
1.08271e-05
1.082e-05
1.08205e-05
7.74104e-06
6.28771e-06
7.74336e-06
0.00362694
0.00363712
0.00363166
0.00363166
0.0036542
0.00364112
0.00366936
0.00363507
0.0036542
0.00364113
0.00363507
0.00366936
0.00364565
0.00367308
0.00367309
0.00358112
0.00360508
0.00360997
0.00357153
0.00358181
0.00357368
0.0035811
0.00360511
0.00360996
0.00357151
0.0036089
0.0036089
0.0036089
0.00356193
0.00356193
0.00356193
0.00356193
0.0035789
0.00360605
0.00360869
0.00358647
0.00360868
0.00357639
0.00358737
0.00358188
0.00357366
0.0035789
0.0036087
0.00360605
0.00358647
0.00360868
0.00358737
0.00357638
0.00361074
0.00361075
0.0035816
0.00357677
0.00357676
0.00353615
0.00355569
0.00355667
0.00353463
0.00355438
0.00353416
0.00353615
0.00355571
0.00355667
0.00353463
0.00355053
0.00355053
0.00355053
0.00351249
0.00351249
0.00351249
0.00351249
0.00353475
0.00355542
0.00355068
0.00353856
0.00355419
0.0035351
0.00353846
0.00355439
0.00353416
0.00353475
0.00355068
0.00355542
0.00353856
0.00355419
0.00353846
0.0035351
0.00355659
0.0035566
0.00353511
0.00353555
0.00353555
0.00348368
0.00350249
0.00350355
0.00348266
0.00350212
0.00348237
0.00348368
0.00350249
0.00350355
0.00348266
0.00349922
0.00349922
0.00349922
0.00345995
0.00345995
0.00345995
0.00345995
0.00348277
0.00350283
0.00349915
0.00348608
0.00350234
0.00348308
0.00348601
0.00350212
0.00348237
0.00348277
0.00349915
0.00350283
0.00348608
0.00350234
0.00348601
0.00348308
0.00350311
0.00350311
0.00348281
0.00348319
0.00348319
0.00343117
0.00344982
0.00345067
0.00343041
0.00344961
0.00343022
0.00343117
0.00344982
0.00345067
0.00343041
0.00344697
0.00344697
0.00344697
0.00340834
0.00340834
0.00340834
0.00340834
0.00343066
0.0034502
0.00344694
0.00343402
0.00344995
0.00343082
0.003434
0.00344961
0.00343022
0.00343066
0.00344694
0.0034502
0.00343402
0.00344995
0.003434
0.00343082
0.00345025
0.00345025
0.00343077
0.00343077
0.00343077
0.00337997
0.00339834
0.00339896
0.00337943
0.00339818
0.00337928
0.00337997
0.00339834
0.00339896
0.00337943
0.00339561
0.00339561
0.00339561
0.00335799
0.00335799
0.00335799
0.00335799
0.0033797
0.00339867
0.00339559
0.00338298
0.00339852
0.0033798
0.00338296
0.00339818
0.00337928
0.0033797
0.00339559
0.00339867
0.00338298
0.00339852
0.00338296
0.0033798
0.00339866
0.00339866
0.00337983
0.00337971
0.00337971
0.00333034
0.00334829
0.00334874
0.00332995
0.00334817
0.00332983
0.00333034
0.00334829
0.00334874
0.00332995
0.00334564
0.00334564
0.00334564
0.00330912
0.00330912
0.00330912
0.00330912
0.00333022
0.00334858
0.00334563
0.0033334