/*--------------------------------*- C++ -*----------------------------------*\
| =========                 |                                                 |
| \\      /  F ield         | OpenFOAM: The Open Source CFD Toolbox           |
|  \\    /   O peration     | Version:  2312                                  |
|   \\  /    A nd           | Website:  www.openfoam.com                      |
|    \\/     M anipulation  |                                                 |
\*---------------------------------------------------------------------------*/
FoamFile
{
    version     2.0;
    format      ascii;
    arch        "LSB;label=32;scalar=64";
    class       volScalarField;
    location    "200";
    object      nut;
}
// * * * * * * * * * * * * * * * * * * * * * * * * * * * * * * * * * * * * * //

dimensions      [0 2 -1 0 0 0 0];

internalField   nonuniform List<scalar> 
43496
(
9.05919e-05
2.35398e-05
0.00013103
9.18277e-05
0.000116959
0.000125974
9.06186e-05
4.98632e-05
0.000117038
0.00013104
0.000126029
9.18222e-05
0.000129819
7.28556e-05
7.28627e-05
2.35417e-05
4.98691e-05
3.61689e-05
9.05742e-05
8.70349e-05
4.04184e-05
8.70444e-05
4.04179e-05
3.61694e-05
2.00535e-05
7.55629e-05
7.5551e-05
2.00548e-05
2.35387e-05
3.61668e-05
9.06036e-05
4.04193e-05
8.70563e-05
4.04188e-05
8.70412e-05
3.61677e-05
2.00516e-05
7.55125e-05
4.98627e-05
7.55022e-05
2.0053e-05
7.82964e-05
2.14378e-05
2.14412e-05
2.14364e-05
2.14397e-05
7.83055e-05
9.5592e-05
4.77761e-05
7.28434e-05
0.000109523
4.77753e-05
0.000109512
9.55773e-05
9.56301e-05
4.77886e-05
7.28654e-05
0.000109422
0.000109442
4.77876e-05
9.56559e-05
2.35406e-05
4.98686e-05
0.000115838
0.000115927
0.000115633
9.1794e-05
0.000117946
0.000117939
0.000126942
0.000116919
0.000113736
0.000128503
0.000113636
0.000128587
0.000126741
0.000123382
0.000104667
0.000104725
0.000123416
0.000126807
0.000117022
0.000128444
0.000113866
0.000128573
0.000113859
0.000126725
0.000123197
0.000104652
9.17989e-05
0.00011792
0.000104644
0.00012325
0.000117907
0.000115935
0.000130049
0.000124785
0.000124785
0.000124805
0.000124792
0.000116
0.000115968
0.000131218
0.000131152
0.000130412
0.000115785
0.000131156
0.000131141
0.000130514
0.000130102
0.000130184
0.000130995
0.000131156
0.00013099
0.000131145
0.000130316
0.000130364
0.000130978
0.000131155
0.000131033
0.000131172
0.000131183
0.000131204
0.000131219
0.000130271
0.000130053
0.00013116
0.000131142
0.000131199
0.000130469
0.000130121
0.000130959
0.000131166
0.000130393
0.000130977
0.000131175
0.000131203
0.000130026
0.000131205
9.0625e-05
4.98733e-05
4.9874e-05
9.0615e-05
2.35406e-05
2.3542e-05
9.06365e-05
4.98683e-05
4.98689e-05
9.06339e-05
0.000116133
0.000116181
0.000116127
0.000115973
0.000116149
0.000116133
0.000116089
0.000116952
9.17681e-05
0.000126089
0.000131174
9.17825e-05
0.000126054
0.000116816
2.35385e-05
2.35394e-05
0.000116947
0.00012602
9.18054e-05
0.000131149
0.000126001
9.18249e-05
0.00011696
7.28697e-05
7.28386e-05
0.000130399
7.28703e-05
7.28608e-05
4.98729e-05
9.06034e-05
2.3541e-05
4.9869e-05
9.05699e-05
0.000116041
0.000116145
0.000116126
0.000116921
9.18085e-05
0.000126051
0.000116976
0.00012605
2.35385e-05
0.000116995
0.000125999
9.17684e-05
0.000117028
0.000125936
7.28856e-05
7.28648e-05
0.000130413
7.28805e-05
7.28865e-05
2.35417e-05
2.35426e-05
2.35388e-05
2.35397e-05
7.28415e-05
7.28513e-05
0.000130126
7.2839e-05
7.28387e-05
2.35427e-05
2.35417e-05
2.35397e-05
2.35387e-05
0.000130094
7.28404e-05
7.28495e-05
7.28513e-05
7.28479e-05
9.06584e-05
4.98691e-05
4.98704e-05
9.06226e-05
0.000117053
9.17991e-05
0.000125983
0.000130979
9.1782e-05
0.000125933
0.000117059
0.000116846
9.17551e-05
0.000126022
0.000131115
9.1837e-05
0.000126008
0.000117081
9.06147e-05
4.98734e-05
4.98734e-05
9.06201e-05
9.0648e-05
4.98708e-05
4.98701e-05
9.06628e-05
0.000117047
0.000130992
9.17776e-05
0.000125963
9.17709e-05
0.000125986
0.000116975
0.000116743
0.00013114
9.18077e-05
0.000126042
9.18145e-05
0.000126025
0.00011688
7.28462e-05
7.28627e-05
0.000130252
7.28579e-05
7.28699e-05
2.35407e-05
2.35418e-05
2.35422e-05
2.35409e-05
0.000130373
7.28583e-05
7.28567e-05
7.28539e-05
7.28636e-05
2.35418e-05
2.35408e-05
0.000117029
9.18054e-05
0.000125979
0.000130986
9.18427e-05
0.000126
0.000117045
9.05789e-05
4.98625e-05
4.98632e-05
9.05857e-05
0.00011698
0.000126045
9.17596e-05
0.000131163
0.000126023
9.17654e-05
0.000117008
9.0619e-05
4.98696e-05
4.98687e-05
9.0599e-05
0.000116941
0.000131021
9.18532e-05
0.000125981
9.18328e-05
0.000125985
0.000116814
9.05976e-05
4.98634e-05
4.98626e-05
9.06314e-05
0.000116983
0.000131194
0.000126014
9.17999e-05
0.000126015
9.1789e-05
0.000117089
9.06298e-05
4.98655e-05
4.98659e-05
9.06016e-05
0.000116863
0.000126063
9.18138e-05
0.000131186
0.000126019
9.18331e-05
0.000116818
9.05471e-05
4.98642e-05
4.98648e-05
9.05608e-05
0.000116921
0.000131198
9.17728e-05
0.000126066
9.17934e-05
0.000126074
0.000116908
9.05914e-05
4.98654e-05
4.98652e-05
9.06016e-05
0.000116776
0.000131213
0.000126004
9.18487e-05
0.000126006
9.18287e-05
0.000116969
9.05282e-05
4.9866e-05
4.98646e-05
9.05503e-05
7.28169e-05
7.28692e-05
0.000129904
7.28166e-05
7.28765e-05
2.35406e-05
2.35416e-05
2.35394e-05
2.35384e-05
0.00012997
7.28236e-05
7.28576e-05
7.28252e-05
7.28704e-05
2.35415e-05
2.35406e-05
0.000116731
0.000126021
9.17705e-05
0.000131176
0.00012596
9.1767e-05
0.000116721
9.05911e-05
4.98681e-05
4.98684e-05
9.05862e-05
9.05462e-05
4.98594e-05
4.98603e-05
9.05097e-05
0.000116944
0.000131141
0.000125997
9.18183e-05
0.00012599
9.18152e-05
0.000117077
0.000116906
0.000131183
0.000125974
9.18349e-05
0.000125964
9.18048e-05
0.000117024
9.05803e-05
4.98689e-05
4.98681e-05
9.05955e-05
9.05374e-05
4.9862e-05
4.98602e-05
9.05432e-05
2.35399e-05
2.35412e-05
2.3538e-05
2.35393e-05
0.000130433
7.28765e-05
7.28749e-05
7.28823e-05
7.28617e-05
2.35416e-05
2.35404e-05
2.35396e-05
2.35384e-05
2.35417e-05
2.35387e-05
7.28423e-05
7.28438e-05
4.987e-05
9.06405e-05
9.17638e-05
0.000125888
0.000116872
9.17655e-05
0.000126051
0.000116872
7.28485e-05
7.28654e-05
2.35408e-05
9.18423e-05
0.000126
0.000116844
4.98628e-05
9.06182e-05
0.000125979
9.1778e-05
0.000116985
9.06109e-05
4.9865e-05
9.05838e-05
0.000117042
0.000125997
9.18284e-05
0.000131184
0.000117003
0.000125817
9.18586e-05
9.06446e-05
4.98658e-05
9.05563e-05
4.98671e-05
7.28337e-05
7.2865e-05
2.35405e-05
0.000117017
0.000126006
9.18016e-05
0.000131127
0.000116996
0.000125857
9.1844e-05
9.06034e-05
4.98684e-05
9.05803e-05
9.05744e-05
4.98617e-05
9.05154e-05
4.98634e-05
2.35407e-05
2.35418e-05
2.35387e-05
2.35399e-05
3.61738e-05
4.04243e-05
8.71428e-05
9.06177e-05
4.04235e-05
8.71242e-05
3.61749e-05
2.00567e-05
4.9874e-05
7.557e-05
7.5583e-05
2.00552e-05
2.00552e-05
7.5583e-05
4.98735e-05
7.55705e-05
2.00567e-05
3.61744e-05
9.06111e-05
4.04234e-05
8.71063e-05
4.0424e-05
8.71327e-05
3.61732e-05
2.35418e-05
2.35408e-05
3.61706e-05
8.71156e-05
4.04207e-05
9.06264e-05
8.71047e-05
4.04203e-05
3.61713e-05
2.00553e-05
4.98688e-05
7.55532e-05
7.55638e-05
2.0054e-05
2.00538e-05
7.55732e-05
4.98683e-05
7.55466e-05
2.00552e-05
3.61715e-05
9.06453e-05
8.71087e-05
4.04208e-05
8.71229e-05
4.04212e-05
3.61708e-05
2.35396e-05
2.35385e-05
7.82941e-05
2.14403e-05
2.14369e-05
2.14388e-05
2.14354e-05
7.83037e-05
9.56397e-05
0.000109418
7.28785e-05
4.7785e-05
0.000109535
4.7786e-05
9.56135e-05
9.56664e-05
0.000109477
7.28437e-05
4.7774e-05
0.000109484
4.77751e-05
9.56223e-05
9.56337e-05
4.77865e-05
7.28692e-05
0.000109525
0.000109505
4.77855e-05
9.56514e-05
9.56642e-05
4.77759e-05
7.28518e-05
0.000109481
0.000109405
4.77748e-05
9.56724e-05
7.83018e-05
2.14387e-05
2.14353e-05
2.14402e-05
2.14368e-05
7.82926e-05
2.00566e-05
7.55731e-05
4.98731e-05
2.00552e-05
7.55862e-05
3.61754e-05
9.05821e-05
4.04237e-05
8.7138e-05
3.61746e-05
4.04242e-05
8.7153e-05
2.35421e-05
2.00551e-05
7.55593e-05
4.98694e-05
2.00537e-05
7.55726e-05
3.617e-05
9.05878e-05
8.70643e-05
4.04185e-05
3.61694e-05
8.70746e-05
4.04188e-05
2.35396e-05
7.82995e-05
2.14406e-05
2.14373e-05
2.14392e-05
2.14359e-05
7.83017e-05
9.56136e-05
0.000109599
4.77874e-05
7.28973e-05
9.56431e-05
0.000109562
4.77883e-05
9.56538e-05
0.000109418
4.77764e-05
7.28674e-05
9.5634e-05
0.00010948
4.77772e-05
7.83082e-05
2.14392e-05
2.14358e-05
7.83e-05
2.14406e-05
2.14373e-05
9.56132e-05
4.77886e-05
7.28912e-05
0.000109629
0.000109592
4.77878e-05
9.5635e-05
9.56408e-05
4.77774e-05
7.28695e-05
0.000109529
0.000109439
4.77766e-05
9.56376e-05
2.35427e-05
2.35416e-05
2.35398e-05
2.35387e-05
7.82947e-05
2.14388e-05
2.14351e-05
2.14374e-05
2.14337e-05
7.83043e-05
9.55704e-05
0.00010942
7.28487e-05
4.7783e-05
4.77837e-05
0.000109401
9.55611e-05
9.56097e-05
0.000109348
7.28418e-05
4.77706e-05
4.77713e-05
0.000109398
9.55937e-05
9.55465e-05
4.77835e-05
7.28401e-05
0.000109305
4.77827e-05
9.5588e-05
0.000109347
9.56005e-05
4.77712e-05
7.28367e-05
0.000109381
4.77705e-05
9.56084e-05
0.000109326
7.83033e-05
2.14374e-05
2.14337e-05
2.14388e-05
2.14351e-05
7.82949e-05
2.35418e-05
2.35428e-05
2.35387e-05
2.35398e-05
7.83049e-05
2.14374e-05
2.14337e-05
7.82959e-05
2.14389e-05
2.14351e-05
9.55603e-05
0.000109404
7.28513e-05
4.7784e-05
4.77831e-05
0.000109424
9.55988e-05
9.55809e-05
0.000109422
7.28434e-05
4.77713e-05
4.77705e-05
0.000109341
9.5585e-05
9.5547e-05
4.77829e-05
0.000109401
7.28642e-05
9.55623e-05
4.77837e-05
0.000109445
9.55935e-05
4.77704e-05
0.000109355
7.28554e-05
9.55615e-05
4.77712e-05
0.000109399
7.82983e-05
2.14389e-05
2.14352e-05
2.14374e-05
2.14337e-05
7.8308e-05
3.6173e-05
4.0425e-05
8.71539e-05
9.06424e-05
4.04242e-05
8.71384e-05
3.61738e-05
2.00553e-05
4.98698e-05
7.55501e-05
7.55636e-05
2.00539e-05
2.00539e-05
7.55644e-05
4.98697e-05
7.5551e-05
2.00554e-05
3.61737e-05
9.06604e-05
4.04234e-05
8.71336e-05
4.04245e-05
8.71514e-05
3.61729e-05
3.61752e-05
4.04237e-05
8.71328e-05
9.06268e-05
3.61742e-05
4.04244e-05
8.71495e-05
2.00552e-05
4.98729e-05
7.55853e-05
2.00566e-05
7.55723e-05
2.00566e-05
7.55715e-05
4.98738e-05
2.00552e-05
7.55845e-05
3.61744e-05
9.061e-05
4.04243e-05
8.71528e-05
3.61753e-05
4.04237e-05
8.71361e-05
3.61739e-05
4.04244e-05
8.71425e-05
9.06639e-05
3.61731e-05
4.04252e-05
8.71572e-05
2.00541e-05
4.98702e-05
7.55674e-05
7.55537e-05
2.00555e-05
2.00555e-05
7.55526e-05
4.98707e-05
2.0054e-05
7.55663e-05
3.61731e-05
9.06497e-05
4.04252e-05
8.71564e-05
4.04245e-05
8.71424e-05
3.6174e-05
7.82825e-05
2.14371e-05
2.14401e-05
2.14356e-05
2.14386e-05
7.82881e-05
9.56375e-05
0.000109436
7.28544e-05
4.77755e-05
4.77764e-05
0.000109443
9.56501e-05
9.56342e-05
0.000109524
7.2869e-05
4.77853e-05
0.000109541
4.77862e-05
9.5613e-05
9.56188e-05
4.77764e-05
7.28513e-05
0.000109433
4.77757e-05
0.000109442
9.56034e-05
9.55909e-05
4.77861e-05
7.28623e-05
0.000109509
0.00010951
4.77854e-05
9.56012e-05
7.82931e-05
2.14355e-05
2.14385e-05
2.1437e-05
2.144e-05
7.8287e-05
2.35418e-05
2.35407e-05
2.3541e-05
2.35421e-05
7.82864e-05
2.14356e-05
2.14387e-05
7.82783e-05
2.1437e-05
2.14401e-05
9.56231e-05
0.000109464
7.28553e-05
4.77767e-05
0.000109448
4.77758e-05
9.56435e-05
9.56096e-05
0.000109609
7.28568e-05
4.7786e-05
4.77852e-05
0.000109589
9.56303e-05
9.56308e-05
4.77757e-05
0.000109394
7.28638e-05
0.00010946
9.56111e-05
4.77765e-05
9.56163e-05
4.77852e-05
0.000109524
7.28679e-05
9.56014e-05
4.7786e-05
0.000109594
7.82795e-05
2.1437e-05
2.14401e-05
2.14356e-05
2.14386e-05
7.82888e-05
2.35407e-05
2.35418e-05
3.61682e-05
4.042e-05
8.7048e-05
9.05695e-05
4.04196e-05
8.70557e-05
3.61687e-05
2.00533e-05
4.98631e-05
7.55089e-05
7.55225e-05
2.0052e-05
2.00518e-05
7.55244e-05
4.98628e-05
7.55103e-05
2.00532e-05
3.61693e-05
9.05982e-05
4.04203e-05
8.70743e-05
4.04206e-05
8.70842e-05
3.61687e-05
3.6171e-05
8.70978e-05
4.04198e-05
9.06271e-05
3.61703e-05
8.71076e-05
4.04201e-05
2.00538e-05
4.98691e-05
7.55809e-05
2.00552e-05
7.55679e-05
2.00553e-05
7.55644e-05
4.98694e-05
2.00538e-05
7.55802e-05
3.61699e-05
9.05967e-05
8.70921e-05
4.04195e-05
3.61705e-05
8.70848e-05
4.04192e-05
3.61682e-05
4.04193e-05
8.70422e-05
9.06231e-05
3.61675e-05
4.04199e-05
8.70593e-05
2.00518e-05
4.98628e-05
7.55249e-05
7.55115e-05
2.00532e-05
2.00532e-05
7.55034e-05
4.98632e-05
2.00517e-05
7.55258e-05
3.61672e-05
9.06146e-05
4.04198e-05
8.70543e-05
4.04192e-05
8.7042e-05
3.61679e-05
3.61666e-05
8.70885e-05
4.04156e-05
9.06128e-05
8.70628e-05
4.04148e-05
3.61676e-05
2.00537e-05
4.98661e-05
7.55323e-05
7.55458e-05
2.00522e-05
2.00521e-05
7.55457e-05
4.98654e-05
7.55327e-05
2.00536e-05
3.61675e-05
9.06236e-05
8.70781e-05
4.04144e-05
8.70979e-05
4.04153e-05
3.61664e-05
3.61643e-05
4.04145e-05
8.70468e-05
9.05272e-05
4.04138e-05
8.70473e-05
3.61652e-05
2.00532e-05
4.98646e-05
7.55327e-05
7.55399e-05
2.00519e-05
2.00517e-05
7.55382e-05
4.98642e-05
7.55247e-05
2.00532e-05
3.61651e-05
9.05722e-05
4.04141e-05
8.70495e-05
4.04147e-05
8.70511e-05
3.61643e-05
3.61676e-05
8.70728e-05
4.04149e-05
9.06167e-05
3.61667e-05
8.70875e-05
4.04157e-05
2.00519e-05
4.98651e-05
7.55387e-05
7.55226e-05
2.00535e-05
2.00535e-05
7.55262e-05
4.98658e-05
2.0052e-05
7.55424e-05
3.61666e-05
9.0591e-05
8.70872e-05
4.04157e-05
8.70714e-05
4.04151e-05
3.61675e-05
3.61656e-05
4.04138e-05
8.7046e-05
9.0529e-05
3.61646e-05
4.04145e-05
8.7056e-05
2.0052e-05
4.98652e-05
7.55575e-05
7.5539e-05
2.00536e-05
2.00534e-05
7.5535e-05
4.98654e-05
2.00518e-05
7.55484e-05
3.61649e-05
9.05398e-05
4.04149e-05
8.7078e-05
4.04141e-05
8.70479e-05
3.61661e-05
7.82882e-05
2.14374e-05
2.14408e-05
2.1436e-05
2.14393e-05
7.82983e-05
9.56222e-05
0.000109403
7.28275e-05
4.77738e-05
4.77748e-05
0.000109435
9.55768e-05
9.561e-05
0.000109471
7.28777e-05
4.77868e-05
0.000109486
4.77875e-05
9.56063e-05
9.5616e-05
4.77748e-05
7.28178e-05
0.000109382
4.77742e-05
0.00010943
9.56112e-05
9.56092e-05
4.77874e-05
7.28693e-05
0.000109493
0.000109482
4.77867e-05
9.56199e-05
7.8296e-05
2.1436e-05
2.14392e-05
2.14374e-05
2.14407e-05
7.82867e-05
2.35416e-05
2.35406e-05
2.35384e-05
2.35394e-05
7.83012e-05
2.14361e-05
2.14394e-05
7.82912e-05
2.14375e-05
2.14409e-05
9.5618e-05
0.000109498
7.28217e-05
4.77756e-05
0.000109476
4.77749e-05
9.56138e-05
9.56121e-05
0.000109497
7.28636e-05
4.77874e-05
4.77868e-05
0.000109417
9.56215e-05
9.56542e-05
4.77743e-05
0.000109484
7.28221e-05
0.00010944
9.56343e-05
4.77754e-05
9.56309e-05
4.77866e-05
0.000109449
7.28775e-05
9.56134e-05
4.77875e-05
0.000109475
7.82944e-05
2.14376e-05
2.1441e-05
2.14362e-05
2.14395e-05
7.83035e-05
2.35406e-05
2.35416e-05
3.61678e-05
8.71547e-05
4.04135e-05
9.0578e-05
8.71392e-05
4.0413e-05
3.61686e-05
2.00551e-05
4.98685e-05
7.55847e-05
7.55982e-05
2.00536e-05
2.00537e-05
7.56011e-05
4.98677e-05
7.55871e-05
2.00551e-05
3.61687e-05
9.05987e-05
8.71363e-05
4.04133e-05
8.71528e-05
4.04138e-05
3.61679e-05
3.61616e-05
8.70158e-05
4.04119e-05
9.05276e-05
8.70045e-05
4.04112e-05
3.61625e-05
2.00511e-05
4.98599e-05
7.54864e-05
7.55031e-05
2.00496e-05
2.00498e-05
7.55109e-05
4.98596e-05
7.5497e-05
2.00513e-05
3.61625e-05
9.05388e-05
8.70031e-05
4.04112e-05
8.70197e-05
4.04119e-05
3.61618e-05
3.61687e-05
8.71443e-05
4.04127e-05
9.05715e-05
3.61678e-05
8.71593e-05
4.04132e-05
2.00538e-05
4.98682e-05
7.56031e-05
7.55909e-05
2.00553e-05
2.00552e-05
7.55904e-05
4.98687e-05
2.00537e-05
7.56036e-05
3.61678e-05
9.05748e-05
8.71564e-05
4.04132e-05
8.71434e-05
4.04125e-05
3.61686e-05
3.61625e-05
8.69957e-05
4.04112e-05
9.055e-05
3.61616e-05
8.70057e-05
4.04119e-05
2.00503e-05
4.98609e-05
7.55326e-05
7.55101e-05
2.00519e-05
2.00516e-05
7.5502e-05
4.9861e-05
2.005e-05
7.55205e-05
3.61617e-05
9.05304e-05
8.7028e-05
4.04119e-05
8.70035e-05
4.04113e-05
3.61629e-05
2.35411e-05
2.35402e-05
2.35391e-05
2.35382e-05
7.83052e-05
2.14389e-05
2.14355e-05
7.82961e-05
2.14404e-05
2.1437e-05
9.56478e-05
0.00010961
7.28796e-05
4.77879e-05
9.56755e-05
0.000109571
4.77868e-05
9.56724e-05
0.000109499
7.28667e-05
4.7777e-05
9.56754e-05
0.000109532
4.7776e-05
9.56321e-05
4.77862e-05
0.000109507
7.28923e-05
9.56329e-05
0.000109586
4.77872e-05
9.56494e-05
4.77753e-05
0.000109463
7.28742e-05
9.56507e-05
0.000109612
4.77763e-05
7.82991e-05
2.14406e-05
2.14372e-05
7.83083e-05
2.14391e-05
2.14357e-05
2.35406e-05
2.35415e-05
2.35385e-05
2.35395e-05
2.35427e-05
2.35398e-05
9.55899e-05
0.000109463
4.77834e-05
7.28583e-05
9.5592e-05
4.77843e-05
0.000109441
9.56296e-05
0.000109401
4.77708e-05
7.28492e-05
9.56087e-05
4.77719e-05
0.000109364
7.83108e-05
2.14375e-05
2.14338e-05
7.83009e-05
2.1439e-05
2.14353e-05
2.00556e-05
7.5555e-05
4.98705e-05
2.00541e-05
7.55684e-05
3.6174e-05
9.0656e-05
4.04245e-05
8.71428e-05
4.04251e-05
3.61731e-05
8.71574e-05
9.56447e-05
0.000109442
4.7776e-05
7.28521e-05
4.77768e-05
9.56321e-05
0.000109388
9.56381e-05
0.000109595
4.77853e-05
7.28724e-05
0.000109563
9.56229e-05
4.77861e-05
7.82913e-05
2.14356e-05
2.14387e-05
2.14371e-05
7.82815e-05
2.14401e-05
2.00531e-05
7.55072e-05
4.98632e-05
2.00517e-05
7.55124e-05
3.61676e-05
9.06315e-05
4.04191e-05
8.70282e-05
4.04196e-05
3.61668e-05
8.70364e-05
3.61666e-05
9.0593e-05
4.04158e-05
8.70586e-05
4.0415e-05
2.00534e-05
7.55239e-05
4.98658e-05
7.55351e-05
2.00519e-05
3.61675e-05
9.06084e-05
8.70675e-05
4.04149e-05
8.70811e-05
3.61666e-05
4.04156e-05
2.00518e-05
3.61663e-05
9.06157e-05
4.04165e-05
8.71326e-05
4.04154e-05
8.71137e-05
3.61674e-05
2.00539e-05
7.55558e-05
4.98665e-05
2.00523e-05
7.55725e-05
3.61669e-05
9.0591e-05
4.04146e-05
8.70945e-05
3.61656e-05
4.04156e-05
8.71213e-05
2.00526e-05
7.55763e-05
4.98663e-05
7.55621e-05
2.00541e-05
9.56186e-05
0.000109456
4.77749e-05
7.28439e-05
4.77759e-05
9.55751e-05
0.000109487
9.5638e-05
0.00010942
4.77869e-05
7.28758e-05
0.000109472
9.55923e-05
4.77881e-05
7.83046e-05
2.14363e-05
2.14396e-05
2.14377e-05
7.82952e-05
2.14411e-05
2.35416e-05
3.61677e-05
9.05603e-05
8.7149e-05
4.04136e-05
8.71355e-05
4.04126e-05
3.61684e-05
2.00553e-05
7.55902e-05
4.9869e-05
7.56018e-05
2.00538e-05
3.61686e-05
9.05975e-05
8.71408e-05
4.04126e-05
8.71528e-05
3.61678e-05
4.04134e-05
2.00538e-05
7.56009e-05
7.55889e-05
2.00552e-05
3.61629e-05
9.05591e-05
8.70731e-05
4.04129e-05
8.70355e-05
4.04119e-05
3.61643e-05
2.00523e-05
7.55219e-05
4.98626e-05
2.00507e-05
7.55462e-05
3.61635e-05
9.05686e-05
8.70099e-05
4.04113e-05
3.61623e-05
8.70486e-05
4.04123e-05
2.00511e-05
7.55563e-05
4.98623e-05
7.55368e-05
2.00528e-05
2.35418e-05
2.35408e-05
2.35397e-05
2.35387e-05
0.000115809
0.000115856
0.000115939
0.000115792
0.000115814
0.00012926
0.000129258
0.000115956
0.000124896
0.000124894
0.000130416
0.000124907
0.000124907
0.000115982
0.000115656
0.000115834
0.000129179
0.000129227
0.000116104
0.000124991
0.000124959
0.000130574
0.000116057
0.000125007
0.00012497
0.000115742
0.000124587
0.000124573
0.00013011
0.00012461
0.000124593
0.000115791
0.000115923
0.000130138
0.000124692
0.00012472
0.000124676
0.000124711
0.000115956
0.000116094
0.000124781
0.000124789
0.000130273
0.000124784
0.000124776
0.000116071
0.000115954
0.00013043
0.000124849
0.000124878
0.000124859
0.000124871
0.000116022
0.000115978
0.000124717
0.000124727
0.000130277
0.000124744
0.000124733
0.000115974
0.000116013
0.000129971
0.000124827
0.000124839
0.00012482
0.000124836
0.000115972
0.000116136
0.000130494
0.000125011
0.000124971
0.000116057
0.000125
0.00012496
0.00011594
0.000124704
0.000124697
0.000130182
0.000115951
0.000124735
0.000124727
0.000115938
0.000124828
0.000124859
0.000130341
0.000124881
0.000115993
0.000124829
0.000116013
0.000124795
0.000124813
0.00013007
0.000124817
0.000116037
0.000124803
0.000115879
0.000115911
0.000116042
0.000115825
0.000115848
0.000129209
0.00012921
0.000115889
0.000115907
0.000116105
0.000115823
0.000115829
0.000129214
0.000129212
0.000115907
0.000115911
0.000116086
0.000115841
0.000115834
0.00012922
0.000129212
0.000115937
0.000115801
0.000115842
0.000115784
0.000115827
0.000129229
0.000129228
0.000116144
0.000115835
0.000115877
0.000115831
0.000115858
0.000129204
0.000129213
0.000116107
0.000115856
0.000115838
0.000115899
0.000115835
0.0001292
0.000129197
0.000116089
0.000115865
0.000115843
0.000115846
0.000115837
0.000129196
0.000129222
0.000126945
0.000113842
0.00012858
0.00011689
0.000113768
0.000128718
0.000126984
0.000123235
0.000117927
9.18083e-05
0.000104628
0.00011795
0.000104663
0.000123213
0.000123244
0.00010463
9.17599e-05
0.000117944
0.000117934
0.000104619
0.0001233
0.000126991
0.000116832
0.000113755
0.000128767
0.000113719
0.000128723
0.000126988
0.00012691
0.000128656
0.000113709
0.000116931
0.000128722
0.0001137
0.000126937
0.000123287
0.000117926
9.18033e-05
0.000104708
0.000117947
0.000104673
0.000123222
0.000123315
0.000104777
9.17548e-05
0.000117941
0.000117931
0.000104726
0.000123381
0.000126914
0.000116999
0.00012872
0.000113739
0.00012867
0.00011375
0.000126951
0.000116091
0.000130354
0.000124927
0.000124923
0.000124892
0.000124909
0.000116063
0.000115889
0.000115874
0.000115875
0.000129206
0.000129219
0.000115781
0.000115847
0.000115678
0.000129072
0.000129217
0.000115877
0.000115871
0.00011593
0.000115883
0.000115719
0.000129212
0.000129228
0.000127013
0.000117004
0.000113831
0.000128447
0.000113839
0.00012872
0.000126987
0.000123324
0.000117956
0.000104622
9.18222e-05
0.000123348
0.000117987
0.000104584
0.000126811
0.000117019
0.000113845
0.000128727
0.000127053
0.000113875
0.000128718
0.000126908
0.000117042
0.000128648
0.000113741
0.000128683
0.00011368
0.000126891
0.000123149
0.000117938
0.0001047
9.1812e-05
0.000123153
0.00011796
0.000104658
0.000126962
0.000117055
0.000128751
0.00011378
0.000126964
0.00012874
0.000113784
0.000122921
0.000104691
0.000104683
0.000122974
0.000116069
0.000130464
0.00012499
0.000124964
0.000124977
0.000124971
0.000116104
0.000115868
0.000130106
0.000124619
0.000124672
0.000115894
0.000124603
0.000124594
0.000115833
0.000130243
0.000124631
0.000124695
0.000115863
0.000124663
0.000124723
0.000126475
0.000113778
0.000128524
0.000117025
0.000113771
0.000128568
0.000126503
0.000123021
0.000117876
9.17986e-05
0.000104653
0.00010468
0.000117894
0.000122999
0.000123025
0.000104629
9.17758e-05
0.000117877
0.000104646
0.000117872
0.000123079
0.000126442
0.000116955
0.000113811
0.000128585
0.00011382
0.000128526
0.000126389
0.0001268
0.000113821
0.000128558
0.000116938
0.000113802
0.000128577
0.00012684
0.000123071
0.000117919
9.18279e-05
0.000104694
0.000104728
0.000117939
0.000123038
0.000123093
0.000104665
9.18119e-05
0.000117927
0.0001047
0.000123146
0.00011792
0.000126639
0.000117014
0.000113762
0.00012859
0.0001138
0.000128581
0.000126729
0.000126556
0.000113752
0.000128531
0.000117114
0.000126504
0.000113757
0.000128511
0.000123163
0.000117888
9.1732e-05
0.000104706
0.000117878
0.000104685
0.00012317
0.000123162
0.000104658
0.000117885
9.17839e-05
0.000117895
0.000123102
0.000104688
0.000126598
0.000117036
0.000113814
0.000128563
0.000113664
0.00012855
0.000126691
0.000126882
0.000113826
0.00012869
0.000116882
0.000126883
0.000113836
0.00012867
0.000123252
0.000117931
9.18057e-05
0.000104734
0.000104699
0.000117925
0.000123257
0.000123237
0.000104696
0.000117933
9.18302e-05
0.000123187
0.000104724
0.000117943
0.000127037
0.000116798
0.00011382
0.000128672
0.000113819
0.000128717
0.000126845
0.000116033
0.000130305
0.000124778
0.000124796
0.000124805
0.000124785
0.000116031
0.00011604
0.00013036
0.000124859
0.000124877
0.00012486
0.00011604
0.000124887
0.000126972
0.000113802
0.000128543
0.000116965
0.000113807
0.000128569
0.000126915
0.000123198
0.000117874
9.18301e-05
0.000104632
0.000104677
0.0001179
0.000123161
0.000123206
0.000104655
9.18094e-05
0.000117898
0.000104652
0.000117886
0.000123259
0.000126847
0.000116991
0.00011387
0.000128595
0.000113881
0.000128588
0.000126986
0.000126428
0.000128528
0.000113776
0.00011693
0.000128532
0.000113783
0.00012645
0.00012304
0.000117871
9.18148e-05
0.00010463
0.000104638
0.000117896
0.000123006
0.000123134
0.000104717
9.17904e-05
0.000117892
0.000104666
0.000123094
0.000117884
0.000126385
0.000117016
0.000128547
0.000113786
0.00012854
0.000113808
0.000126375
0.000126798
0.000113745
0.000128596
0.000116999
0.000126986
0.000113772
0.000128531
0.000123354
0.000117923
9.18342e-05
0.000104776
0.000117911
0.000104754
0.000123352
0.000123353
0.000104722
0.000117912
9.18599e-05
0.000117925
0.000123302
0.000104775
0.000126991
0.000116963
0.000113701
0.000128532
0.000113771
0.000128586
0.000126911
0.000126572
0.000128554
0.000113751
0.000117022
0.000126552
0.000128592
0.000113756
0.000123184
0.00011791
9.17875e-05
0.00010471
0.000104683
0.000117902
0.000123188
0.00012321
0.000104679
0.000117907
9.18122e-05
0.000123177
0.000104717
0.000117917
0.000126658
0.000117005
0.000128565
0.000113748
0.000128555
0.000113712
0.000126727
0.000126916
0.000128531
0.000113755
0.000116768
0.000128589
0.000113661
0.000126833
0.000123401
0.000117961
9.17973e-05
0.000104697
0.000117988
0.000104715
0.00012335
0.000123215
0.000104749
9.1793e-05
0.000117988
0.000117977
0.000104692
0.000123255
0.000126921
0.000116831
0.000128593
0.000113764
0.000128553
0.000113748
0.000126946
0.000126942
0.000113779
0.00012877
0.000116945
0.000126983
0.00011378
0.000128748
0.000123357
0.000117968
9.17771e-05
0.000104649
0.000123349
0.000117957
0.000104631
0.000123348
0.000104652
0.000117957
9.18087e-05
0.000123318
0.000117971
0.000104703
0.000127055
0.000116839
0.000113809
0.000128757
0.000126856
0.000113781
0.000128759
0.00012663
0.000128698
0.000113682
0.000116911
0.00012689
0.000128685
0.000113687
0.000123268
0.000118008
9.18339e-05
0.000104721
0.000104713
0.000117998
0.000123266
0.00012329
0.000104707
0.000118002
9.18489e-05
0.000123242
0.000104744
0.000118013
0.000126365
0.000116808
0.000128632
0.000113839
0.000128698
0.00011381
0.000126394
0.000115976
0.000130006
0.000124742
0.000124758
0.000124741
0.000124734
0.000116078
0.000116038
0.000129947
0.000124816
0.000124841
0.000124848
0.000115984
0.000124853
0.000126907
0.000128482
0.000113651
0.00011679
0.000128548
0.000113632
0.000126643
0.000123327
0.000117922
9.17769e-05
0.000104547
0.000117949
0.000104651
0.000123306
0.000123333
0.000104693
9.17645e-05
0.000117954
0.00011794
0.00010465
0.000123421
0.000126849
0.000116798
0.000128525
0.000113645
0.000128497
0.000113695
0.000126841
0.000126916
0.000128813
0.000113823
0.000116878
0.00012693
0.000128846
0.000113841
0.000123374
0.000117958
9.17859e-05
0.00010475
0.000123363
0.000117947
0.000104689
0.000123381
0.000104759
0.000117954
9.18013e-05
0.000123363
0.000117963
0.000104799
0.000127036
0.000116968
0.000128821
0.000113823
0.000126851
0.000128822
0.00011377
0.000126812
0.000128719
0.000113614
0.000116871
0.000126862
0.000128726
0.00011358
0.00012343
0.000117988
9.18211e-05
0.000104759
0.000104716
0.000117978
0.000123374
0.000123382
0.000104679
0.000117974
9.17984e-05
0.000123375
0.000104671
0.000117987
0.000126923
0.000117007
0.000128741
0.000113759
0.000128788
0.000113665
0.000126949
0.000116076
0.000130488
0.000124951
0.000124935
0.000116116
0.000124986
0.000124959
0.000123175
0.000117892
0.000104698
9.17575e-05
0.000104715
0.000123178
0.000117905
0.000126709
0.00011696
0.00011381
0.000128543
0.000113822
0.000126689
0.00012854
0.00012327
0.000117931
0.000104697
9.18102e-05
0.000123259
0.000104651
0.000117942
0.000126854
0.00011687
0.000113815
0.000128744
0.000126961
0.00011383
0.000128745
0.000123361
0.000117927
0.000104733
9.18618e-05
0.00010476
0.000123355
0.000117939
0.000126982
0.000116903
0.000113745
0.000128606
0.000113748
0.000126975
0.000128555
0.00012317
0.000117911
0.000104621
9.18086e-05
0.000123192
0.00010464
0.00011792
0.000126752
0.000117009
0.000128562
0.000113797
0.000126729
0.000128526
0.000113773
0.000126493
0.000117083
0.000128547
0.000113849
0.000128643
0.000113827
0.000126558
0.000123283
0.000118011
0.00010466
9.18606e-05
0.000118019
0.00012325
0.000104742
0.000126398
0.000117049
0.000128663
0.000113813
0.000128621
0.000126403
0.000113831
0.000123147
0.000104768
9.1853e-05
0.000118011
0.000118002
0.000104743
0.000123191
0.000126756
0.000117009
0.000128623
0.000113769
0.000128716
0.00011376
0.000126823
0.000123416
0.000117991
0.00010476
9.18179e-05
0.000118001
0.000123399
0.000104781
0.000126999
0.000117056
0.000128759
0.000113792
0.00012872
0.000126986
0.0001138
0.000123233
0.000104758
9.17767e-05
0.000117993
0.000117982
0.000104704
0.000123227
0.00012599
0.000126057
0.000126059
4.97806e-05
9.04757e-05
2.35108e-05
7.2329e-05
7.2328e-05
2.35115e-05
9.04524e-05
4.97799e-05
2.00306e-05
4.97825e-05
7.51904e-05
7.5164e-05
2.00325e-05
2.35095e-05
9.46334e-05
0.000107552
7.23263e-05
4.7693e-05
0.000107569
4.7692e-05
9.46361e-05
9.45242e-05
0.000107421
7.23118e-05
4.76997e-05
4.77011e-05
0.000107336
9.4554e-05
7.79493e-05
2.14134e-05
2.14165e-05
2.14116e-05
2.14147e-05
7.7966e-05
2.35098e-05
2.00304e-05
4.97739e-05
7.51947e-05
7.51748e-05
2.00324e-05
0.00011349
0.000125825
0.000120946
0.000120946
0.000120802
0.000120811
0.000113638
0.000119344
0.000114688
9.04802e-05
0.000102672
0.000102632
0.0001146
0.000119489
0.000119299
0.000114625
9.03784e-05
0.000102633
0.000114502
0.000102549
0.000119442
0.000112545
0.000126489
0.000126474
0.000125994
0.000113727
0.00012772
0.000127792
0.000126966
0.000113994
0.000128531
0.000128514
0.000127676
0.000114327
0.000129106
0.000129113
0.000128271
0.000114648
0.000129553
0.000129599
0.000128732
0.000114974
0.000129906
0.000129949
0.000128441
0.000115168
0.000130149
0.000130244
0.000128664
0.000115307
0.000130305
0.000130425
0.00012884
0.000115384
0.000130385
0.000130477
0.000129038
0.000115447
0.000130431
0.000130466
0.000129496
0.000115529
0.000130428
0.000130482
0.000129687
0.000115619
0.000130489
0.000130559
0.00012938
0.000115745
0.000130606
0.000130673
0.000129685
0.0001158
0.000130682
0.000130774
0.000129895
0.000115865
0.000130697
0.000130845
0.00013002
0.000115838
0.000130724
0.000130865
0.000130112
0.000115867
0.000130796
0.0001309
0.00013013
0.000115861
0.000130858
0.000130958
0.000130165
0.000115855
0.000130918
0.000131028
0.000129855
0.00011586
0.000131002
0.000131082
0.00013002
0.000115892
0.00013107
0.000131113
0.000130174
0.000115914
0.000131091
0.000131136
0.000130201
0.000115933
0.000131142
0.000131162
0.00013031
0.00011596
0.000131167
0.000131145
0.000130321