/*--------------------------------*- C++ -*----------------------------------*\
| =========                 |                                                 |
| \\      /  F ield         | OpenFOAM: The Open Source CFD Toolbox           |
|  \\    /   O peration     | Version:  2312                                  |
|   \\  /    A nd           | Website:  www.openfoam.com                      |
|    \\/     M anipulation  |                                                 |
\*---------------------------------------------------------------------------*/
FoamFile
{
    version     2.0;
    format      ascii;
    arch        "LSB;label=32;scalar=64";
    class       volScalarField;
    location    "800";
    object      epsilon;
}
// * * * * * * * * * * * * * * * * * * * * * * * * * * * * * * * * * * * * * //

dimensions      [0 2 -3 0 0 0 0];

internalField   nonuniform List<scalar> 
42840
(
1.3133e-07
2.40752e-07
2.40757e-07
3.84071e-07
1.2995e-07
2.53394e-07
2.53404e-07
4.12797e-07
1.2935e-07
2.68067e-07
2.68084e-07
4.44201e-07
1.29534e-07
2.84703e-07
2.84725e-07
4.78228e-07
1.30474e-07
3.03216e-07
3.03244e-07
5.13117e-07
1.32177e-07
3.23504e-07
3.2354e-07
5.49345e-07
1.34639e-07
3.45445e-07
3.45487e-07
5.86713e-07
1.37862e-07
3.68905e-07
3.68953e-07
6.24381e-07
1.41847e-07
3.93734e-07
3.93788e-07
6.62417e-07
1.466e-07
4.19777e-07
4.1984e-07
7.00103e-07
1.52124e-07
4.46871e-07
4.46941e-07
7.36826e-07
1.58427e-07
4.74846e-07
4.74926e-07
7.72678e-07
1.65511e-07
5.03531e-07
5.03618e-07
8.07545e-07
1.7338e-07
5.32751e-07
5.32841e-07
8.41303e-07
1.82034e-07
5.62331e-07
5.62425e-07
8.73887e-07
1.9147e-07
5.92099e-07
5.92197e-07
9.05274e-07
2.01679e-07
6.2189e-07
6.21993e-07
9.35454e-07
2.12645e-07
6.51541e-07
6.51654e-07
9.64425e-07
2.24348e-07
6.80913e-07
6.81032e-07
9.92228e-07
2.36762e-07
7.09871e-07
7.09992e-07
1.01884e-06
2.49854e-07
7.3829e-07
7.38412e-07
1.04425e-06
2.63583e-07
7.66061e-07
7.66184e-07
1.0686e-06
2.779e-07
7.93094e-07
7.93219e-07
1.09188e-06
2.92748e-07
8.19316e-07
8.19431e-07
1.11413e-06
3.08063e-07
8.44645e-07
8.44762e-07
1.13529e-06
3.83178e-07
4.0588e-07
2.40823e-07
2.40857e-07
2.50119e-07
2.50155e-07
3.8325e-07
4.05854e-07
2.40771e-07
2.40854e-07
2.50061e-07
2.50156e-07
2.40807e-07
2.50047e-07
2.50107e-07
3.83309e-07
4.0594e-07
2.40796e-07
2.50055e-07
2.50099e-07
4.04979e-07
4.12152e-07
4.36796e-07
2.5348e-07
2.53512e-07
2.64302e-07
2.64339e-07
4.12233e-07
4.37187e-07
2.53421e-07
2.53516e-07
2.64237e-07
2.64345e-07
2.53461e-07
2.64218e-07
2.6429e-07
4.12248e-07
4.37252e-07
2.5345e-07
2.64231e-07
2.6428e-07
4.36256e-07
4.43656e-07
4.7e-07
2.68165e-07
2.68197e-07
2.80467e-07
2.80504e-07
4.43503e-07
4.70007e-07
2.68098e-07
2.68208e-07
2.80392e-07
2.80517e-07
2.68146e-07
2.8037e-07
2.80454e-07
4.4355e-07
4.70143e-07
2.68133e-07
2.80388e-07
2.80442e-07
4.68664e-07
4.76747e-07
5.04831e-07
2.84816e-07
2.84846e-07
2.98535e-07
2.98571e-07
4.77139e-07
5.04751e-07
2.84738e-07
2.84861e-07
2.9845e-07
2.98589e-07
2.84793e-07
2.98422e-07
2.98519e-07
4.77233e-07
5.04913e-07
2.84779e-07
2.98447e-07
2.98506e-07
5.03747e-07
5.12098e-07
5.40971e-07
3.03343e-07
3.03374e-07
3.18404e-07
3.18438e-07
5.12409e-07
5.40782e-07
3.03256e-07
3.03393e-07
3.18309e-07
3.18461e-07
3.03319e-07
3.18275e-07
3.18391e-07
5.12472e-07
5.41004e-07
3.03302e-07
3.18309e-07
3.1837e-07
5.40406e-07
5.48597e-07
5.78032e-07
3.23641e-07
3.23674e-07
3.39957e-07
3.39991e-07
5.48877e-07
5.78066e-07
3.23547e-07
3.23698e-07
3.39856e-07
3.40015e-07
3.23623e-07
3.39814e-07
3.39947e-07
5.4865e-07
5.77873e-07
3.23599e-07
3.39853e-07
3.39918e-07
5.76971e-07
5.8613e-07
6.15313e-07
3.45594e-07
3.45627e-07
3.63062e-07
3.63097e-07
5.85911e-07
6.15402e-07
3.45494e-07
3.45653e-07
3.62956e-07
3.63123e-07
3.45583e-07
3.62909e-07
3.6306e-07
5.86079e-07
6.15335e-07
3.45549e-07
3.62953e-07
3.63019e-07
6.14416e-07
6.23508e-07
6.52756e-07
3.69063e-07
3.69096e-07
3.87573e-07
3.87604e-07
6.23664e-07
6.52872e-07
3.68958e-07
3.69129e-07
3.87461e-07
3.87642e-07
3.69062e-07
3.8741e-07
3.87582e-07
6.23502e-07
6.52956e-07
3.69015e-07
3.87457e-07
3.87527e-07
6.51744e-07
6.61325e-07
6.90216e-07
3.93897e-07
3.93935e-07
4.13332e-07
4.13366e-07
6.61437e-07
6.90034e-07
3.9379e-07
3.93974e-07
4.13218e-07
4.13409e-07
3.93912e-07
4.1316e-07
4.13359e-07
6.61388e-07
6.90273e-07
3.93851e-07
4.13221e-07
4.13291e-07
6.88959e-07
6.98653e-07
7.2682e-07
4.19943e-07
4.19982e-07
4.40184e-07
4.40218e-07
6.98597e-07
7.27106e-07
4.19835e-07
4.20026e-07
4.4006e-07
4.40266e-07
4.19976e-07
4.40005e-07
4.40224e-07
6.98579e-07
7.27372e-07
4.19904e-07
4.40074e-07
4.40144e-07
7.25705e-07
7.35457e-07
7.63044e-07
4.47044e-07
4.47078e-07
4.67962e-07
4.67994e-07
7.35126e-07
7.63395e-07
4.46925e-07
4.47129e-07
4.67826e-07
4.68047e-07
4.47086e-07
4.67776e-07
4.68009e-07
7.3512e-07
7.63567e-07
4.47002e-07
4.67854e-07
4.67914e-07
7.61648e-07
7.70927e-07
7.98279e-07
4.75026e-07
4.7506e-07
4.96491e-07
4.96523e-07
7.7087e-07
7.98543e-07
4.74894e-07
4.75112e-07
4.96343e-07
4.96581e-07
4.75077e-07
4.96302e-07
4.96543e-07
7.71026e-07
7.98656e-07
4.74975e-07
4.96386e-07
4.96437e-07
7.96647e-07
8.05659e-07
8.32378e-07
5.03714e-07
5.03748e-07
5.25598e-07
5.2563e-07
8.05835e-07
8.32558e-07
5.03572e-07
5.03804e-07
5.25437e-07
5.25686e-07
5.0377e-07
5.25406e-07
5.25651e-07
8.05926e-07
8.32609e-07
5.0366e-07
5.25494e-07
5.25533e-07
8.30552e-07
8.39518e-07
8.65249e-07
5.32939e-07
5.32971e-07
5.55113e-07
5.55139e-07
8.39642e-07
8.65367e-07
5.32784e-07
5.33022e-07
5.5494e-07
5.55192e-07
5.32993e-07
5.54912e-07
5.55165e-07
8.39702e-07
8.65384e-07
5.3287e-07
5.55005e-07
5.55034e-07
8.63335e-07
8.72171e-07
8.96862e-07
5.62527e-07
5.62552e-07
5.84856e-07
5.84875e-07
8.72274e-07
8.96928e-07
5.62361e-07
5.62598e-07
5.84673e-07
5.84928e-07
5.6258e-07
5.84648e-07
5.84904e-07
8.72288e-07
8.96958e-07
5.62444e-07
5.84746e-07
5.84763e-07
8.94916e-07
9.03607e-07
9.27259e-07
5.92301e-07
5.92316e-07
6.14658e-07
6.14669e-07
9.03666e-07
9.27304e-07
5.92124e-07
5.92363e-07
6.14467e-07
6.14721e-07
5.92352e-07
6.14448e-07
6.14704e-07
9.03699e-07
9.27337e-07
5.92204e-07
6.1455e-07
6.14554e-07
9.25308e-07
9.33833e-07
9.56451e-07
6.22094e-07
6.22099e-07
6.44359e-07
6.44357e-07
9.33865e-07
9.56415e-07
6.21908e-07
6.22149e-07
6.44161e-07
6.44419e-07
6.22142e-07
6.44146e-07
6.44406e-07
9.33896e-07
9.56535e-07
6.21984e-07
6.44258e-07
6.44249e-07
9.54545e-07
9.62841e-07
9.84412e-07
6.51749e-07
6.51738e-07
6.73808e-07
6.73797e-07
9.62808e-07
9.84427e-07
6.51556e-07
6.518e-07
6.73609e-07
6.73867e-07
6.51792e-07
6.73598e-07
6.73856e-07
9.62919e-07
9.84528e-07
6.51631e-07
6.73721e-07
6.73694e-07
9.8256e-07
9.90603e-07
1.0112e-06
6.81118e-07
6.81101e-07
7.02868e-07
7.02858e-07
9.90629e-07
1.01126e-06
6.80919e-07
6.81165e-07
7.02671e-07
7.02929e-07
6.81161e-07
7.02671e-07
7.02925e-07
9.90723e-07
1.01134e-06
6.80995e-07
7.02796e-07
7.0276e-07
1.00944e-06
1.0172e-06
1.03686e-06
7.10059e-07
7.10042e-07
7.31416e-07
7.31406e-07
1.01726e-06
1.03692e-06
7.09863e-07
7.10113e-07
7.31221e-07
7.31483e-07
7.10117e-07
7.31236e-07
7.31484e-07
1.01734e-06
1.037e-06
7.09945e-07
7.31361e-07
7.31315e-07
1.03517e-06
1.04268e-06
1.06143e-06
7.38468e-07
7.3845e-07
7.59354e-07
7.59338e-07
1.04273e-06
1.06148e-06
7.38272e-07
7.38524e-07
7.59155e-07
7.59417e-07
7.38531e-07
7.59178e-07
7.59422e-07
1.04281e-06
1.06155e-06
7.38353e-07
7.59306e-07
7.59244e-07
1.05974e-06
1.06705e-06
1.08493e-06
7.66231e-07
7.66208e-07
7.86576e-07
7.86551e-07
1.06709e-06
1.08495e-06
7.66032e-07
7.66291e-07
7.86377e-07
7.86637e-07
7.663e-07
7.86404e-07
7.86644e-07
1.06716e-06
1.08501e-06
7.66115e-07
7.86532e-07
7.86461e-07
1.08332e-06
1.09038e-06
1.10744e-06
7.93261e-07
7.93229e-07
8.13003e-07
8.12966e-07
1.09039e-06
1.1074e-06
7.93063e-07
7.93315e-07
8.12802e-07
8.13053e-07
7.93329e-07
8.12839e-07
8.13069e-07
1.09046e-06
1.10745e-06
7.93138e-07
8.12958e-07
8.12877e-07
1.10583e-06
1.11249e-06
1.12822e-06
8.19475e-07
8.19437e-07
8.38554e-07
8.38513e-07
1.11265e-06
1.12839e-06
8.19273e-07
8.19522e-07
8.38349e-07
8.38598e-07
8.19546e-07
8.38396e-07
8.38627e-07
1.1127e-06
1.12848e-06
8.19347e-07
8.38513e-07
8.38428e-07
1.12737e-06
1.13401e-06
8.44802e-07
8.44758e-07
1.13392e-06
8.44597e-07
8.44844e-07
8.44878e-07
1.13401e-06
8.44674e-07
3.75809e-06
8.92088e-06
8.92504e-06
3.73567e-06
1.84403e-05
1.84331e-05
3.75825e-06
8.92213e-06
8.92633e-06
3.73561e-06
1.31335e-07
1.31334e-07
1.31335e-07
1.30231e-07
1.30236e-07
1.30236e-07
1.30237e-07
1.24126e-06
2.86934e-06
1.59579e-07
2.4373e-07
2.88859e-06
1.60134e-07
1.21456e-06
1.84411e-05
1.84338e-05
1.24162e-06
1.59601e-07
2.86806e-06
2.43731e-07
1.60132e-07
2.8901e-06
1.21464e-06
5.1699e-06
5.17289e-06
3.90775e-07
5.1801e-06
5.18051e-06
3.81799e-06
8.93077e-06
3.80074e-06
8.93441e-06
1.84136e-05
1.84071e-05
3.81805e-06
8.93204e-06
3.80081e-06
8.93572e-06
1.29955e-07
1.29955e-07
1.29956e-07
1.29443e-07
1.29448e-07
1.29449e-07
1.2945e-07
1.32189e-06
2.93106e-06
1.6223e-07
2.56884e-07
1.29661e-06
2.94785e-06
1.63121e-07
1.84143e-05
1.84078e-05
1.32213e-06
1.62258e-07
2.92986e-06
2.56889e-07
1.29672e-06
1.63123e-07
2.94931e-06
5.19837e-06
5.20084e-06
4.20116e-07
5.20652e-06
5.20698e-06
3.86455e-06
8.93937e-06
3.85043e-06
8.94256e-06
1.83892e-05
1.83835e-05
3.86394e-06
8.94067e-06
3.85098e-06
8.94388e-06
1.29355e-07
1.29357e-07
1.29357e-07
1.29418e-07
1.29423e-07
1.29426e-07
1.29427e-07
1.39849e-06
2.98548e-06
1.66226e-07
2.72054e-07
1.37385e-06
3.00006e-06
1.6746e-07
1.83899e-05
1.83842e-05
1.39824e-06
1.66258e-07
2.98432e-06
2.72066e-07
1.37443e-06
1.67464e-07
3.00144e-06
5.22265e-06
5.22473e-06
4.52293e-07
5.22891e-06
5.23052e-06
3.89934e-06
8.94681e-06
3.88853e-06
8.94964e-06
1.83672e-05
1.83623e-05
3.89875e-06
8.94814e-06
3.88915e-06
8.95099e-06
1.29537e-07
1.29541e-07
1.29541e-07
1.30167e-07
1.30172e-07
1.30177e-07
1.30177e-07
1.46898e-06
3.03338e-06
1.71584e-07
2.89168e-07
1.44639e-06
3.04608e-06
1.73161e-07
1.83679e-05
1.83629e-05
1.4687e-06
1.71619e-07
3.03229e-06
2.89188e-07
1.44684e-06
1.73166e-07
3.04737e-06
5.24232e-06
5.24461e-06
4.86305e-07
5.24773e-06
5.24904e-06
3.92573e-06
8.95329e-06
3.91746e-06
8.95582e-06
1.83474e-05
1.83432e-05
3.92517e-06
8.95465e-06
3.91808e-06
8.95722e-06
1.30478e-07
1.30484e-07
1.30484e-07
1.3168e-07
1.31684e-07
1.31691e-07
1.31691e-07
1.53353e-06
3.07569e-06
1.78309e-07
3.08134e-07
1.51285e-06
3.08669e-06
1.80231e-07
1.8348e-05
1.83438e-05
1.53361e-06
1.78348e-07
3.0746e-06
3.08162e-07
1.51295e-06
1.80236e-07
3.08795e-06
5.25938e-06
5.26141e-06
5.21816e-07
5.26393e-06
5.26528e-06
3.94588e-06
8.9591e-06
3.93952e-06
8.96147e-06
1.83297e-05
1.83263e-05
3.94535e-06
8.96049e-06
3.94014e-06
8.96291e-06
1.3218e-07
1.32188e-07
1.32189e-07
1.33953e-07
1.33956e-07
1.33965e-07
1.33966e-07
1.5913e-06
3.11311e-06
1.86403e-07
3.28844e-07
1.57335e-06
3.12269e-06
1.88669e-07
1.83303e-05
1.83269e-05
1.59151e-06
1.86448e-07
3.11207e-06
3.28883e-07
1.57345e-06
1.88679e-07
3.12388e-06
5.27409e-06
5.27595e-06
5.58539e-07
5.27787e-06
5.27936e-06
3.9615e-06
8.96457e-06
3.95655e-06
8.96687e-06
1.83143e-05
1.83116e-05
3.96101e-06
8.96595e-06
3.95716e-06
8.96833e-06
1.34642e-07
1.34652e-07
1.34654e-07
1.36986e-07
1.36988e-07
1.36999e-07
1.37002e-07
1.64359e-06
3.14639e-06
1.95859e-07
3.51179e-07
1.62765e-06
3.15476e-06
1.98467e-07
1.83148e-05
1.83122e-05
1.64383e-06
1.95912e-07
3.14539e-06
3.5122e-07
1.62765e-06
1.98482e-07
3.15591e-06
5.28692e-06
5.28865e-06
5.95717e-07
5.2901e-06
5.29167e-06
3.97366e-06
8.96993e-06
3.96996e-06
8.97224e-06
1.8301e-05
1.82991e-05
3.97347e-06
8.97128e-06
3.97033e-06
8.9737e-06
1.37865e-07
1.37877e-07
1.3788e-07
1.40782e-07
1.40783e-07
1.40797e-07
1.408e-07
1.69051e-06
3.17617e-06
2.06656e-07
3.74996e-07
1.67618e-06
3.18353e-06
2.09597e-07
1.83016e-05
1.82997e-05
1.69058e-06
2.06716e-07
3.17522e-06
3.75043e-07
1.6762e-06
2.09617e-07
3.18466e-06
5.2983e-06
5.29997e-06
6.33098e-07
5.30109e-06
5.30273e-06
3.9836e-06
8.97539e-06
3.98074e-06
8.97777e-06
1.829e-05
1.8289e-05
3.98347e-06
8.97666e-06
3.98095e-06
8.97926e-06
1.4185e-07
1.41865e-07
1.41869e-07
1.45343e-07
1.45343e-07
1.4536e-07
1.45365e-07
1.73253e-06
3.20302e-06
2.18767e-07
4.00141e-07
1.71936e-06
3.20957e-06
2.22034e-07
1.82906e-05
1.82896e-05
1.73247e-06
2.18833e-07
3.20213e-06
4.00196e-07
1.7196e-06
2.2206e-07
3.21068e-06
5.30866e-06
5.31032e-06
6.70472e-07
5.31121e-06
5.31287e-06
3.99199e-06
8.98113e-06
3.98966e-06
8.98363e-06
1.82813e-05
1.82812e-05
3.99194e-06
8.9823e-06
3.98991e-06
8.98514e-06
1.46603e-07
1.4662e-07
1.46627e-07
1.50674e-07
1.50674e-07
1.50694e-07
1.50701e-07
1.77021e-06
3.22723e-06
2.32158e-07
4.2646e-07
1.7582e-06
3.2334e-06
2.35744e-07
1.8282e-05
1.82818e-05
1.77003e-06
2.32233e-07
3.22665e-06
4.26524e-07
1.75847e-06
2.35773e-07
3.23445e-06
5.31831e-06
5.31998e-06
7.07559e-07
5.3207e-06
5.32239e-06
3.99922e-06
8.98732e-06
3.99729e-06
8.98999e-06
1.8275e-05
1.82757e-05
3.99924e-06
8.98854e-06
3.99744e-06
8.9913e-06
1.52128e-07
1.52148e-07
1.52156e-07
1.56781e-07
1.56782e-07
1.56805e-07
1.56813e-07
1.80404e-06
3.24959e-06
2.46788e-07
4.53787e-07
1.79319e-06
3.25532e-06
2.50676e-07
1.82758e-05
1.82765e-05
1.8039e-06
2.46872e-07
3.24918e-06
4.5386e-07
1.79346e-06
2.50715e-07
3.25637e-06
5.3275e-06
5.32919e-06
7.43883e-07
5.32982e-06
5.33151e-06
4.0057e-06
8.99404e-06
4.00396e-06
8.99694e-06
1.82711e-05
1.82727e-05
4.00565e-06
8.9953e-06
4.00409e-06
8.99821e-06
1.5843e-07
1.58453e-07
1.58463e-07
1.63669e-07
1.63671e-07
1.63697e-07
1.63706e-07
1.83469e-06
3.27071e-06
2.62607e-07
4.81957e-07
1.82495e-06
3.2756e-06
2.66784e-07
1.82719e-05
1.82735e-05
1.83458e-06
2.62697e-07
3.27022e-06
4.82039e-07
1.82517e-06
2.66827e-07
3.27656e-06
5.33644e-06
5.33814e-06
7.79349e-07
5.33872e-06
5.34042e-06
4.01161e-06
9.00139e-06
4.01004e-06
9.00457e-06
1.82696e-05
1.8272e-05
4.01158e-06
9.00267e-06
4.01013e-06
9.00585e-06
1.65515e-07
1.6554e-07
1.65552e-07
1.71342e-07
1.71344e-07
1.71374e-07
1.71383e-07
1.86287e-06
3.28998e-06
2.79551e-07
5.10793e-07
1.85386e-06
3.29497e-06
2.84002e-07
1.82704e-05
1.82728e-05
1.86274e-06
2.79648e-07
3.28974e-06
5.10881e-07
1.85412e-06
2.84049e-07
3.29548e-06
5.34526e-06
5.34696e-06
8.13797e-07
5.34754e-06
5.34924e-06
4.01724e-06
9.00947e-06
4.01573e-06
9.01295e-06
1.82705e-05
1.82737e-05
4.01721e-06
9.01075e-06
4.01581e-06
9.01423e-06
1.73384e-07
1.73412e-07
1.73425e-07
1.798e-07
1.79802e-07
1.79836e-07
1.79846e-07
1.88885e-06
3.30845e-06
2.97552e-07
5.40119e-07
1.88055e-06
3.31278e-06
3.02258e-07
1.82713e-05
1.82745e-05
1.88878e-06
2.97658e-07
3.30818e-06
5.40211e-07
1.88077e-06
3.02313e-07
3.31359e-06
5.35406e-06
5.35575e-06
8.47135e-07
5.35637e-06
5.35807e-06
4.02276e-06
9.01831e-06
4.02127e-06
9.02211e-06
1.82736e-05
1.82777e-05
4.02275e-06
9.01961e-06
4.02133e-06
9.02341e-06
1.82038e-07
1.82069e-07
1.82084e-07
1.89041e-07
1.89042e-07
1.89079e-07
1.89091e-07
1.91307e-06
3.32621e-06
3.16539e-07
5.69761e-07
1.90534e-06
3.3302e-06
3.21479e-07
1.82744e-05
1.82785e-05
1.91306e-06
3.16653e-07
3.32563e-06
5.69858e-07
1.90554e-06
3.21543e-07
3.3308e-06
5.3629e-06
5.36459e-06
8.79341e-07
5.36524e-06
5.36695e-06
4.02833e-06
9.02795e-06
4.02679e-06
9.03206e-06
1.8279e-05
1.82838e-05
4.02834e-06
9.02926e-06
4.02689e-06
9.03339e-06
1.91472e-07
1.91507e-07
1.91523e-07
1.99056e-07
1.99057e-07
1.99097e-07
1.9911e-07
1.93576e-06
3.34257e-06
3.36432e-07
5.9955e-07
1.92867e-06
3.34678e-06
3.41586e-07
1.82798e-05
1.82846e-05
1.93584e-06
3.36552e-07
3.34227e-06
5.99652e-07
1.92877e-06
3.41656e-07
3.34742e-06
5.3718e-06
5.37351e-06
9.10336e-07
5.37419e-06
5.37589e-06
4.03411e-06
9.03838e-06
4.03242e-06
9.04282e-06
1.82864e-05
1.8292e-05
4.03414e-06
9.03972e-06
4.03257e-06
9.04418e-06
2.01679e-07
2.01718e-07
2.01735e-07
2.09833e-07
2.09834e-07
2.09878e-07
2.09892e-07
1.95736e-06
3.3587e-06
3.57143e-07
6.29319e-07
1.95047e-06
3.36251e-06
3.6249e-07
1.82872e-05
1.82927e-05
1.95741e-06
3.57274e-07
3.35827e-06
6.29426e-07
1.95068e-06
3.62569e-07
3.36318e-06
5.38079e-06
5.38251e-06
9.40103e-07
5.38322e-06
5.38492e-06
4.04015e-06
9.04959e-06
4.03836e-06
9.05452e-06
1.82959e-05
1.83022e-05
4.04017e-06
9.05099e-06
4.03851e-06
9.05576e-06
2.12644e-07
2.12688e-07
2.12704e-07
2.21353e-07
2.21353e-07
2.21403e-07
2.21417e-07
1.97784e-06
3.37404e-06
3.78588e-07
6.58912e-07
1.97138e-06
3.3775e-06
3.84104e-07
1.82967e-05
1.83029e-05
1.97794e-06
3.78725e-07
3.37351e-06
6.59029e-07
1.9715e-06
3.84187e-07
3.37805e-06
5.38987e-06
5.39161e-06
9.68717e-07
5.39236e-06
5.39402e-06
4.04651e-06
9.06139e-06
4.04455e-06
9.06701e-06
1.83071e-05
1.8314e-05
4.04638e-06
9.06301e-06
4.04479e-06
9.06818e-06
2.24346e-07
2.24397e-07
2.24412e-07
2.33593e-07
2.33592e-07
2.33647e-07
2.33662e-07
1.99744e-06
3.3885e-06
4.00671e-07
6.8819e-07
1.99124e-06
3.39193e-06
4.06327e-07
1.8308e-05
1.83149e-05
1.99755e-06
4.00816e-07
3.38817e-06
6.88315e-07
1.9914e-06
4.06421e-07
3.39272e-06
5.39904e-06
5.40079e-06
9.96164e-07
5.40157e-06
5.40318e-06
4.05314e-06
9.07419e-06
4.05107e-06
9.08005e-06
1.83201e-05
1.83277e-05
4.05305e-06
9.0755e-06
4.05133e-06
9.08137e-06
2.3676e-07
2.36817e-07
2.36831e-07
2.46519e-07
2.46519e-07
2.46578e-07
2.46594e-07
2.01628e-06
3.40282e-06
4.23288e-07
7.17024e-07
2.01034e-06
3.40614e-06
4.29059e-07
1.83211e-05
1.83286e-05
2.01635e-06
4.23439e-07
3.40232e-06
7.17149e-07
2.01045e-06
4.2916e-07
3.40673e-06
5.40823e-06
5.41006e-06
1.02243e-06
5.41091e-06
5.41239e-06
4.06008e-06
9.08763e-06
4.05783e-06
9.09375e-06
1.83348e-05
1.8343e-05
4.06002e-06
9.08894e-06
4.05813e-06
9.09506e-06
2.49853e-07
2.49914e-07
2.49929e-07
2.60093e-07
2.60093e-07
2.60157e-07
2.60172e-07
2.03437e-06
3.41641e-06
4.46338e-07
7.45291e-07
2.02871e-06
3.41962e-06
4.52198e-07
1.83359e-05
1.8344e-05
2.03442e-06
4.46491e-07
3.41603e-06
7.45419e-07
2.02876e-06
4.52302e-07
3.42008e-06
5.41748e-06
5.41935e-06
1.04754e-06
5.42026e-06
5.42173e-06
4.06741e-06
9.10169e-06
4.06505e-06
9.10804e-06
1.83511e-05
1.83598e-05
4.06721e-06
9.103e-06
4.06529e-06
9.10935e-06
2.63582e-07
2.63647e-07
2.63663e-07
2.74268e-07
2.74268e-07
2.74336e-07
2.74351e-07
2.05174e-06
3.42943e-06
4.69702e-07
7.72887e-07
2.0463e-06
3.43273e-06
4.75625e-07
1.83523e-05
1.83609e-05
2.05179e-06
4.69864e-07
3.42916e-06
7.73013e-07
2.04635e-06
4.75738e-07
3.43322e-06
5.42684e-06
5.42861e-06
1.07161e-06
5.42964e-06
5.43124e-06
4.07476e-06
9.1163e-06
4.0725e-06
9.12286e-06
1.83687e-05
1.83779e-05
4.07467e-06
9.11762e-06
4.07266e-06
9.12418e-06
2.77898e-07
2.77968e-07
2.77983e-07
2.88989e-07
2.8899e-07
2.89061e-07
2.89076e-07
2.06841e-06
3.44215e-06
4.93286e-07
7.99726e-07
2.06321e-06
3.44509e-06
4.99247e-07
1.837e-05
1.83792e-05
2.06847e-06
4.93451e-07
3.44189e-06
7.99849e-07
2.06325e-06
4.99362e-07
3.44581e-06
5.43617e-06
5.43799e-06
1.09461e-06
5.43901e-06
5.44061e-06
4.08218e-06
9.13141e-06
4.08028e-06
9.13816e-06
1.83877e-05
1.83974e-05
4.0823e-06
9.13274e-06
4.08034e-06
9.13948e-06
2.92747e-07
2.9282e-07
2.92836e-07
3.04194e-07
3.04196e-07
3.04269e-07
3.04285e-07
2.08439e-06
3.45453e-06
5.16983e-07
8.25732e-07
2.07945e-06
3.45747e-06
5.22954e-07
1.8389e-05
1.83987e-05
2.08446e-06
5.17141e-07
3.45415e-06
8.25849e-07
2.07945e-06
5.23063e-07
3.45793e-06
5.44555e-06
5.44741e-06
1.11661e-06
5.44838e-06
5.44974e-06
4.08983e-06
9.14696e-06
4.08794e-06
9.15378e-06
1.84079e-05
1.8418e-05
4.08998e-06
9.14828e-06
4.08785e-06
9.15519e-06
3.08063e-07
3.08139e-07
3.08155e-07
2.09968e-06
3.46628e-06
5.40672e-07
8.50833e-07
2.09493e-06
3.46885e-06
5.4662e-07
1.84093e-05
1.84194e-05
2.09977e-06
5.40825e-07
3.46593e-06
8.50949e-07
2.09496e-06
5.46725e-07
3.46954e-06
5.45487e-06
5.45671e-06
1.1382e-06
5.45769e-06
5.45911e-06
1.84377e-05
1.84304e-05
1.84405e-05
1.84333e-05
5.16986e-06
5.17178e-06
3.91353e-07
5.18001e-06
5.1819e-06
1.84172e-05
1.8424e-05
1.842e-05
1.84269e-05
3.96818e-07
5.19396e-06
5.19579e-06
5.18482e-06
5.18669e-06
3.75852e-06
8.92113e-06
8.92529e-06
3.73509e-06
1.2415e-06
2.86795e-06
1.59604e-07
2.43795e-07
2.88998e-06
1.6014e-07
1.21457e-06
1.24122e-06
2.86844e-06
1.59607e-07
2.43833e-07
2.89056e-06
1.60142e-07
1.2146e-06
3.7702e-06
8.92992e-06
8.92599e-06
3.78987e-06
3.76976e-06
8.93015e-06
8.92626e-06
3.79054e-06
1.25594e-06
2.46893e-07
2.92041e-06
1.61469e-07
2.89991e-06
1.60767e-07
1.28229e-06
1.25604e-06
2.46927e-07
2.92101e-06
1.61471e-07
2.9004e-06
1.60769e-07
1.28211e-06
5.17209e-06
5.17105e-06
3.91714e-07
5.18159e-06
5.17834e-06
1.84383e-05
1.8431e-05
1.84198e-05
1.84266e-05
3.97145e-07
5.19521e-06
5.19282e-06
5.18616e-06
5.18597e-06
1.84177e-05
1.84246e-05
1.24126e-06
2.86846e-06
1.59604e-07
2.43744e-07
2.89059e-06
1.60139e-07
1.21472e-06
3.75816e-06
8.92179e-06
8.92595e-06
3.73566e-06
1.24143e-06
1.5961e-07
2.86984e-06
2.43833e-07
1.60146e-07
2.88927e-06
1.21463e-06
3.77029e-06
8.93121e-06
8.92725e-06
3.78998e-06
1.25609e-06
2.46837e-07
2.92099e-06
1.61469e-07
2.90042e-06
1.60766e-07
1.28219e-06
3.77025e-06
8.93079e-06
8.92691e-06
3.78999e-06
1.25599e-06
2.46927e-07
1.61476e-07
2.91978e-06
1.60774e-07
2.90172e-06
1.28221e-06
3.75812e-06
8.9214e-06
8.92553e-06
3.73576e-06
1.24132e-06
1.59593e-07
2.86816e-06
2.43784e-07
1.6013e-07
2.89022e-06
1.21446e-06
3.75874e-06
8.92128e-06
8.92545e-06
3.73523e-06
1.25606e-06
2.46816e-07
2.91902e-06
1.6146e-07
2.90117e-06
1.60739e-07
1.28195e-06
3.77049e-06
8.93037e-06
8.92652e-06
3.78992e-06
1.256e-06
2.46879e-07
1.61458e-07
2.92063e-06
1.60754e-07
2.90012e-06
1.28205e-06
3.76975e-06
8.93031e-06
8.92641e-06
3.79062e-06
5.17288e-06
5.17149e-06
3.91616e-07
5.18118e-06
5.17891e-06
1.84388e-05
1.84315e-05
1.84205e-05
1.84274e-05
3.97207e-07
5.19453e-06
5.19325e-06
5.1871e-06
5.18602e-06
1.84182e-05
1.84251e-05
1.24158e-06
1.59608e-07
2.86985e-06
2.43775e-07
1.60139e-07
2.88934e-06
1.21467e-06
3.75831e-06
8.92172e-06
8.92588e-06
3.73588e-06
3.75831e-06
8.92195e-06
8.92614e-06
3.73588e-06
1.25612e-06
2.46825e-07
1.61461e-07
2.92052e-06
1.60763e-07
2.90004e-06
1.2822e-06
1.25603e-06
2.46869e-07
1.61469e-07
2.91988e-06
1.60772e-07
2.90174e-06
1.28242e-06
3.77061e-06
8.93071e-06
8.92684e-06
3.79011e-06
3.77059e-06
8.93099e-06
8.92707e-06
3.79011e-06
1.84393e-05
1.84321e-05
1.84413e-05
1.8434e-05
3.97727e-07
5.19397e-06
5.19549e-06
5.1847e-06
5.18758e-06
1.84188e-05
1.84257e-05
1.84207e-05
1.84276e-05
1.8411e-05
1.84045e-05
1.84138e-05
1.84074e-05
5.19901e-06
5.2004e-06
4.20944e-07
5.20629e-06
5.20838e-06
1.83924e-05
1.83985e-05
1.83953e-05
1.84014e-05
4.27236e-07
5.2183e-06
5.21992e-06
5.21059e-06
5.2127e-06
3.81852e-06
8.93099e-06
3.80022e-06
8.93469e-06
1.32214e-06
2.9299e-06
1.62262e-07
2.56962e-07
1.29654e-06
2.94912e-06
1.63131e-07
1.32203e-06
2.93038e-06
1.62264e-07
2.56998e-07
1.29655e-06
2.94968e-06
1.63134e-07
3.82756e-06
8.93866e-06
8.93523e-06
3.84308e-06
3.82698e-06
8.9389e-06
8.9355e-06
3.84309e-06
1.336e-06
2.6057e-07
2.97604e-06
1.65135e-07
2.95798e-06
1.64094e-07
1.36082e-06
1.33596e-06
2.60605e-07
2.97659e-06
1.65136e-07
2.95847e-06
1.64095e-07
1.36069e-06
5.19979e-06
5.19946e-06
4.20975e-07
5.20809e-06
5.20589e-06
1.84115e-05
1.8405e-05
1.8395e-05
1.84011e-05
4.27436e-07
5.21993e-06
5.2179e-06
5.21247e-06
5.2116e-06
1.83929e-05
1.8399e-05
1.32218e-06
2.93041e-06
1.62263e-07
2.56901e-07
1.29656e-06
2.94968e-06
1.63133e-07
3.81799e-06
8.93164e-06
3.80078e-06
8.93533e-06
1.3222e-06
1.62271e-07
2.93156e-06
2.57001e-07
1.29655e-06
1.6314e-07
2.94846e-06
3.82759e-06
8.93998e-06
8.93652e-06
3.84244e-06
1.33603e-06
2.60507e-07
2.9766e-06
1.65137e-07
2.95849e-06
1.64096e-07
1.36071e-06
3.82752e-06
8.93952e-06
8.93613e-06
3.84248e-06
1.33596e-06
2.6061e-07
1.65143e-07
2.97545e-06
1.64104e-07
2.95963e-06
1.36083e-06
3.81791e-06
8.93124e-06
3.80102e-06
8.9349e-06
1.32208e-06
1.62249e-07
2.93009e-06
2.5695e-07
1.2966e-06
1.6312e-07
2.94932e-06
3.81859e-06
8.93115e-06
3.80025e-06
8.93486e-06
1.33608e-06
2.60481e-07
2.97471e-06
1.65121e-07
2.95913e-06
1.6406e-07
1.36114e-06
3.82777e-06
8.93912e-06
8.93575e-06
3.84321e-06
1.33594e-06
2.60555e-07
1.65122e-07
2.97621e-06
1.6408e-07
2.95815e-06
1.36067e-06
3.82699e-06
8.93908e-06
8.93567e-06
3.84313e-06
5.20098e-06
5.19934e-06
4.21006e-07
5.20715e-06
5.20601e-06
1.8412e-05
1.84054e-05
1.83957e-05
1.84018e-05
4.27451e-07
5.21963e-06
5.21817e-06
5.21321e-06
5.21155e-06
1.83933e-05
1.83995e-05
1.32226e-06
1.62268e-07
2.93158e-06
2.56942e-07
1.29661e-06
1.63133e-07
2.94853e-06
3.81808e-06
8.93155e-06
3.80115e-06
8.93524e-06
3.81808e-06
8.93182e-06
3.80112e-06
8.93552e-06
1.33619e-06
2.60495e-07
1.65124e-07
2.97612e-06
1.6409e-07
2.95804e-06
1.36075e-06
1.33603e-06
2.60545e-07
1.65135e-07
2.97549e-06
1.64101e-07
2.95965e-06
1.36095e-06
3.82786e-06
8.93941e-06
8.93604e-06
3.84254e-06
3.82783e-06
8.93973e-06
8.93632e-06
3.84254e-06
1.84126e-05
1.84061e-05
1.84146e-05
1.8408e-05
4.28324e-07
5.21819e-06
5.21912e-06
5.21075e-06
5.21329e-06
1.8394e-05
1.84001e-05
1.83959e-05
1.84021e-05
1.83867e-05
1.83809e-05
1.83895e-05
1.83838e-05
5.22241e-06
5.22391e-06
4.53079e-07
5.22888e-06
5.23078e-06
1.837e-05
1.83754e-05
1.83729e-05
1.83783e-05
4.59918e-07
5.23882e-06
5.24054e-06
5.23281e-06
5.23448e-06
3.86444e-06
8.93962e-06
3.85037e-06
8.94287e-06
1.39829e-06
2.98437e-06
1.66264e-07
2.72144e-07
1.37428e-06
3.00127e-06
1.67474e-07
1.39802e-06
2.98486e-06
1.66265e-07
2.72181e-07
1.37427e-06
3.00179e-06
1.67475e-07
3.87084e-06
8.94625e-06
8.94326e-06
3.88312e-06
3.87076e-06
8.94655e-06
8.94355e-06
3.88306e-06
1.41116e-06
2.76249e-07
3.02498e-06
1.70156e-07
3.00907e-06
1.68775e-07
1.43421e-06
1.41123e-06
2.76281e-07
3.0255e-06
1.70157e-07
3.00955e-06
1.68776e-07
1.43403e-06
5.22381e-06
5.22281e-06
4.53158e-07
5.2305e-06
5.22846e-06
1.8387e-05
1.83814e-05
1.83726e-05
1.8378e-05
4.59852e-07
5.24031e-06
5.23827e-06
5.23424e-06
5.23324e-06
1.83705e-05
1.83757e-05
1.3982e-06
2.98485e-06
1.66266e-07
2.72075e-07
1.37431e-06
3.00181e-06
1.67477e-07
3.86384e-06
8.94025e-06
3.85097e-06
8.94347e-06
1.39819e-06
1.66275e-07
2.98595e-06
2.7219e-07
1.37427e-06
1.67484e-07
3.00065e-06
3.8714e-06
8.94757e-06
8.94457e-06
3.88239e-06
1.41118e-06
2.76177e-07
3.02551e-06
1.7016e-07
3.00953e-06
1.68778e-07
1.43417e-06
3.87136e-06
8.94709e-06
8.94416e-06
3.88244e-06
1.41121e-06
2.76294e-07
1.70167e-07
3.02442e-06
1.68787e-07
3.01065e-06
1.43406e-06
3.86463e-06
8.93986e-06
3.85062e-06
8.94306e-06
1.39816e-06
1.66248e-07
2.98452e-06
2.72132e-07
1.37425e-06
1.6746e-07
3.00141e-06
3.86448e-06
8.9398e-06
3.85038e-06
8.94305e-06
1.41086e-06
2.76146e-07
3.02372e-06
1.7014e-07
3.01013e-06
1.68736e-07
1.43438e-06
3.87093e-06
8.94667e-06
8.94372e-06
3.8832e-06
1.41111e-06
2.76232e-07
1.70141e-07
3.02514e-06
1.68759e-07
3.00921e-06
1.43413e-06
3.87078e-06
8.94675e-06
8.94375e-06
3.88309e-06
5.22429e-06
5.22282e-06
4.53287e-07
5.22966e-06
5.22865e-06
1.83876e-05
1.83818e-05
1.83732e-05
1.83786e-05
4.5987e-07
5.23993e-06
5.23851e-06
5.23494e-06
5.23312e-06
1.83708e-05
1.83762e-05
1.39827e-06
1.6627e-07
2.98599e-06
2.7212e-07
1.37437e-06
1.67474e-07
3.00069e-06
3.86391e-06
8.94012e-06
3.85127e-06
8.94335e-06
3.86389e-06
8.94046e-06
3.85125e-06
8.9437e-06
1.41135e-06
2.76165e-07
1.70144e-07
3.02504e-06
1.6877e-07
3.00912e-06
1.43415e-06
1.41128e-06
2.76219e-07
1.70157e-07
3.02444e-06
1.68782e-07
3.01068e-06
1.43421e-06
3.87163e-06
8.94698e-06
8.94403e-06
3.88248e-06
3.87161e-06
8.94736e-06
8.94436e-06
3.88246e-06
1.83883e-05
1.83826e-05
1.83902e-05
1.83844e-05
4.60609e-07
5.2388e-06
5.23975e-06
5.23262e-06
5.23466e-06
1.83717e-05
1.8377e-05
1.83735e-05
1.83789e-05
1.83646e-05
1.83597e-05
1.83675e-05
1.83626e-05
5.24239e-06
5.24421e-06
4.87243e-07
5.24788e-06
5.24967e-06
1.83498e-05
1.83544e-05
1.83528e-05
1.83573e-05
4.94273e-07
5.25621e-06
5.25803e-06
5.25119e-06
5.25296e-06
3.89924e-06
8.94711e-06
3.88853e-06
8.94996e-06
1.46861e-06
3.03231e-06
1.71626e-07
2.89274e-07
1.44674e-06
3.0472e-06
1.73177e-07
1.46854e-06
3.03279e-06
1.71627e-07
2.89309e-07
1.44676e-06
3.04769e-06
1.73178e-07
3.90406e-06
8.95282e-06
8.95019e-06
3.91338e-06
3.90402e-06
8.95316e-06
8.95052e-06
3.91333e-06
1.48076e-06
2.93849e-07
3.06814e-06
1.76545e-07
3.05408e-06
1.7482e-07
1.50163e-06
1.48071e-06
2.93881e-07
3.06865e-06
1.76544e-07
3.05455e-06
1.7482e-07
1.50153e-06
5.24396e-06
5.24284e-06
4.87016e-07
5.24922e-06
5.2474e-06
1.83649e-05
1.83601e-05
1.83525e-05
1.8357e-05
4.94163e-07
5.25779e-06
5.25586e-06
5.2526e-06
5.25163e-06
1.83502e-05
1.83547e-05
1.46857e-06
3.03277e-06
1.7163e-07
2.89194e-07
1.44675e-06
3.04772e-06
1.73182e-07
3.89866e-06
8.94772e-06
3.88915e-06
8.95058e-06
1.46851e-06
1.71638e-07
3.03384e-06
2.89323e-07
1.44677e-06
1.73188e-07
3.0466e-06
3.90465e-06
8.95419e-06
8.95153e-06
3.91268e-06
1.48077e-06
2.93766e-07
3.06866e-06
1.76548e-07
3.05454e-06
1.74824e-07
1.50151e-06
3.90461e-06
8.95376e-06
8.95111e-06
3.91274e-06
1.48075e-06
2.93897e-07
1.76556e-07
3.0676e-06
1.74833e-07
3.05561e-06
1.50154e-06
3.8994e-06
8.94728e-06
3.8887e-06
8.95009e-06
1.46861e-06
1.71608e-07
3.03246e-06
2.89259e-07
1.44665e-06
1.7316e-07
3.04734e-06
3.89928e-06
8.94732e-06
3.88856e-06
8.95025e-06
1.48038e-06
2.93731e-07
3.06695e-06
1.76524e-07
3.05514e-06
1.74777e-07
1.50193e-06
3.9042e-06
8.95323e-06
8.95064e-06
3.91348e-06
1.48064e-06
2.93829e-07
1.76526e-07
3.06831e-06
1.74801e-07
3.05423e-06
1.50159e-06
3.90406e-06
8.95339e-06
8.95077e-06
3.91338e-06
5.24431e-06
5.24286e-06
4.87083e-07
5.24895e-06
5.24754e-06
1.83654e-05
1.83605e-05
1.83531e-05
1.83577e-05
4.94205e-07
5.25745e-06
5.25619e-06
5.25311e-06
5.25165e-06
1.83506e-05
1.83552e-05
1.46873e-06
1.71635e-07
3.03385e-06
2.89247e-07
1.44681e-06
1.7318e-07
3.04662e-06
3.89872e-06
8.94755e-06
3.8894e-06
8.9504e-06
3.89869e-06
8.94794e-06
3.88938e-06
8.95081e-06
1.48082e-06
2.93756e-07
1.7653e-07
3.06823e-06
1.74813e-07
3.05413e-06
1.50204e-06
1.48074e-06
2.93815e-07
1.76548e-07
3.06763e-06
1.74831e-07
3.05562e-06
1.50177e-06
3.90485e-06
8.95357e-06
8.95095e-06
3.91278e-06
3.90484e-06
8.954e-06
8.95134e-06
3.91276e-06
1.83663e-05
1.83614e-05
1.83682e-05
1.83632e-05
4.9512e-07
5.25623e-06
5.25745e-06
5.25124e-06
5.25322e-06
1.83516e-05
1.83562e-05
1.83534e-05
1.8358e-05
1.83448e-05
1.83405e-05
1.83477e-05
1.83435e-05
5.25945e-06
5.26122e-06
5.22684e-07
5.26395e-06
5.26576e-06
1.83318e-05
1.83356e-05
1.83348e-05
1.83386e-05
5.30466e-07
5.27115e-06
5.27298e-06
5.26702e-06