/*--------------------------------*- C++ -*----------------------------------*\
| =========                 |                                                 |
| \\      /  F ield         | OpenFOAM: The Open Source CFD Toolbox           |
|  \\    /   O peration     | Version:  2312                                  |
|   \\  /    A nd           | Website:  www.openfoam.com                      |
|    \\/     M anipulation  |                                                 |
\*---------------------------------------------------------------------------*/
FoamFile
{
    version     2.0;
    format      ascii;
    arch        "LSB;label=32;scalar=64";
    class       volScalarField;
    location    "800";
    object      k;
}
// * * * * * * * * * * * * * * * * * * * * * * * * * * * * * * * * * * * * * //

dimensions      [0 2 -2 0 0 0 0];

internalField   nonuniform List<scalar> 
42840
(
1.45938e-05
1.62414e-05
1.62411e-05
1.8672e-05
1.43151e-05
1.6464e-05
1.6464e-05
1.93696e-05
1.40823e-05
1.67735e-05
1.67737e-05
2.01611e-05
1.38949e-05
1.7167e-05
1.71673e-05
2.10331e-05
1.37527e-05
1.76408e-05
1.76415e-05
2.19735e-05
1.36555e-05
1.81911e-05
1.81921e-05
2.29679e-05
1.36033e-05
1.88133e-05
1.88146e-05
2.40024e-05
1.35969e-05
1.95025e-05
1.9504e-05
2.50643e-05
1.36346e-05
2.02532e-05
2.0255e-05
2.61566e-05
1.37185e-05
2.10599e-05
2.1062e-05
2.72164e-05
1.38482e-05
2.19161e-05
2.19185e-05
2.82872e-05
1.4024e-05
2.28155e-05
2.28181e-05
2.93406e-05
1.42461e-05
2.37518e-05
2.37544e-05
3.03825e-05
1.45145e-05
2.47183e-05
2.4721e-05
3.1412e-05
1.48292e-05
2.57092e-05
2.57119e-05
3.24159e-05
1.51898e-05
2.67179e-05
2.67207e-05
3.34008e-05
1.55958e-05
2.77385e-05
2.77415e-05
3.43605e-05
1.60462e-05
2.8765e-05
2.87686e-05
3.52998e-05
1.65399e-05
2.97933e-05
2.9797e-05
3.6216e-05
1.70754e-05
3.08191e-05
3.08228e-05
3.71049e-05
1.7651e-05
3.18376e-05
3.18414e-05
3.79729e-05
1.82645e-05
3.28447e-05
3.28486e-05
3.88105e-05
1.89135e-05
3.38369e-05
3.38406e-05
3.96383e-05
1.95948e-05
3.48111e-05
3.48146e-05
4.04252e-05
2.03054e-05
3.57642e-05
3.57679e-05
4.12032e-05
1.86862e-05
1.92206e-05
1.62415e-05
1.62418e-05
1.64003e-05
1.64006e-05
1.86863e-05
1.92176e-05
1.62416e-05
1.62416e-05
1.64002e-05
1.64005e-05
1.62411e-05
1.64e-05
1.64001e-05
1.86871e-05
1.92196e-05
1.62415e-05
1.64001e-05
1.64005e-05
1.92408e-05
1.93857e-05
1.99921e-05
1.64644e-05
1.64647e-05
1.66887e-05
1.6689e-05
1.93853e-05
1.99904e-05
1.64643e-05
1.64647e-05
1.66885e-05
1.66891e-05
1.64642e-05
1.66881e-05
1.66887e-05
1.93864e-05
1.99915e-05
1.64645e-05
1.66884e-05
1.6689e-05
2.00147e-05
2.01786e-05
2.08469e-05
1.67743e-05
1.67746e-05
1.70619e-05
1.70622e-05
2.01777e-05
2.08458e-05
1.6774e-05
1.67747e-05
1.70614e-05
1.70625e-05
1.67742e-05
1.70609e-05
1.7062e-05
2.01784e-05
2.0847e-05
1.67744e-05
1.70614e-05
1.70622e-05
2.08735e-05
2.10529e-05
2.17724e-05
1.71682e-05
1.71684e-05
1.75164e-05
1.75168e-05
2.10521e-05
2.17723e-05
1.71676e-05
1.71687e-05
1.75156e-05
1.75172e-05
1.71682e-05
1.7515e-05
1.75167e-05
2.1053e-05
2.17719e-05
1.71683e-05
1.75158e-05
1.75169e-05
2.18019e-05
2.1995e-05
2.27563e-05
1.76425e-05
1.76427e-05
1.80485e-05
1.80488e-05
2.19943e-05
2.27543e-05
1.76417e-05
1.76432e-05
1.80475e-05
1.80494e-05
1.76427e-05
1.80466e-05
1.80489e-05
2.19959e-05
2.27541e-05
1.76427e-05
1.80477e-05
1.80489e-05
2.27867e-05
2.29916e-05
2.37801e-05
1.81933e-05
1.81935e-05
1.86536e-05
1.8654e-05
2.29906e-05
2.37792e-05
1.81923e-05
1.81941e-05
1.86525e-05
1.86546e-05
1.81937e-05
1.86514e-05
1.86544e-05
2.29918e-05
2.37793e-05
1.81935e-05
1.86528e-05
1.86542e-05
2.38147e-05
2.40275e-05
2.4835e-05
1.88159e-05
1.88161e-05
1.9327e-05
1.93273e-05
2.40266e-05
2.48331e-05
1.88148e-05
1.88169e-05
1.93258e-05
1.93281e-05
1.88167e-05
1.93245e-05
1.93281e-05
2.4028e-05
2.48339e-05
1.88163e-05
1.93259e-05
1.93276e-05
2.48701e-05
2.50906e-05
2.59063e-05
1.95055e-05
1.95057e-05
2.00633e-05
2.00634e-05
2.50899e-05
2.59043e-05
1.95043e-05
1.95067e-05
2.0062e-05
2.00645e-05
1.95067e-05
2.00603e-05
2.00647e-05
2.50906e-05
2.5906e-05
1.9506e-05
2.00622e-05
2.00638e-05
2.59418e-05
2.6168e-05
2.69827e-05
2.02565e-05
2.02566e-05
2.08566e-05
2.08568e-05
2.6167e-05
2.69827e-05
2.02552e-05
2.02579e-05
2.08552e-05
2.08582e-05
2.02582e-05
2.08535e-05
2.08586e-05
2.61684e-05
2.69985e-05
2.0257e-05
2.08556e-05
2.08572e-05
2.70184e-05
2.72537e-05
2.80586e-05
2.10631e-05
2.10636e-05
2.17011e-05
2.17015e-05
2.72533e-05
2.80585e-05
2.10618e-05
2.10651e-05
2.16993e-05
2.17029e-05
2.10655e-05
2.16979e-05
2.17035e-05
2.7243e-05
2.80457e-05
2.10638e-05
2.17002e-05
2.17016e-05
2.80728e-05
2.83082e-05
2.91068e-05
2.19196e-05
2.19202e-05
2.25908e-05
2.2591e-05
2.83069e-05
2.9105e-05
2.19178e-05
2.19217e-05
2.25884e-05
2.25924e-05
2.19221e-05
2.25872e-05
2.25928e-05
2.83185e-05
2.90993e-05
2.19199e-05
2.25897e-05
2.25906e-05
2.9135e-05
2.93616e-05
3.01414e-05
2.28193e-05
2.28196e-05
2.35186e-05
2.35186e-05
2.9359e-05
3.01558e-05
2.2817e-05
2.28212e-05
2.35158e-05
2.352e-05
2.28218e-05
2.35148e-05
2.35208e-05
2.93692e-05
3.0148e-05
2.28194e-05
2.35175e-05
2.35181e-05
3.01784e-05
3.04124e-05
3.11777e-05
2.37556e-05
2.37558e-05
2.44783e-05
2.44782e-05
3.04055e-05
3.11749e-05
2.37529e-05
2.37572e-05
2.44752e-05
2.44795e-05
2.37583e-05
2.44744e-05
2.44807e-05
3.03981e-05
3.1168e-05
2.37554e-05
2.44771e-05
2.44776e-05
3.12037e-05
3.14279e-05
3.21837e-05
2.47224e-05
2.47224e-05
2.5464e-05
2.54636e-05
3.14282e-05
3.21801e-05
2.47194e-05
2.47237e-05
2.54606e-05
2.54648e-05
2.47252e-05
2.54597e-05
2.54665e-05
3.14328e-05
3.21818e-05
2.47219e-05
2.54625e-05
2.54631e-05
3.2209e-05
3.24322e-05
3.31845e-05
2.57135e-05
2.57134e-05
2.64691e-05
2.64685e-05
3.24447e-05
3.31851e-05
2.57102e-05
2.57142e-05
2.64654e-05
2.64694e-05
2.57164e-05
2.64647e-05
2.64717e-05
3.24289e-05
3.31666e-05
2.57127e-05
2.64675e-05
2.6468e-05
3.31976e-05
3.34125e-05
3.41376e-05
2.67225e-05
2.67219e-05
2.74874e-05
2.74864e-05
3.34116e-05
3.41386e-05
2.67189e-05
2.67228e-05
2.74834e-05
2.74874e-05
2.67254e-05
2.74828e-05
2.74899e-05
3.34219e-05
3.41358e-05
2.67215e-05
2.74858e-05
2.7486e-05
3.41628e-05
3.43883e-05
3.50787e-05
2.77432e-05
2.77423e-05
2.85132e-05
2.85115e-05
3.43791e-05
3.50978e-05
2.77394e-05
2.77432e-05
2.85091e-05
2.85131e-05
2.7746e-05
2.85083e-05
2.85157e-05
3.43735e-05
3.50938e-05
2.77419e-05
2.85119e-05
2.85116e-05
3.51071e-05
3.53262e-05
3.59996e-05
2.87701e-05
2.87684e-05
2.95412e-05
2.95392e-05
3.53031e-05
3.60217e-05
2.87662e-05
2.87701e-05
2.95372e-05
2.95411e-05
2.87728e-05
2.95363e-05
2.95437e-05
3.53094e-05
3.59974e-05
2.87685e-05
2.95403e-05
2.95394e-05
3.60191e-05
3.62268e-05
3.69096e-05
2.9798e-05
2.97963e-05
3.05677e-05
3.05657e-05
3.62166e-05
3.69074e-05
2.97942e-05
2.97981e-05
3.05637e-05
3.05678e-05
2.98008e-05
3.05632e-05
3.05704e-05
3.62309e-05
3.68998e-05
2.97963e-05
3.05672e-05
3.0566e-05
3.69178e-05
3.7114e-05
3.77708e-05
3.08235e-05
3.08216e-05
3.15881e-05
3.1586e-05
3.71178e-05
3.7769e-05
3.08196e-05
3.08237e-05
3.1584e-05
3.15883e-05
3.08264e-05
3.1584e-05
3.1591e-05
3.71236e-05
3.77815e-05
3.08218e-05
3.1588e-05
3.15866e-05
3.77949e-05
3.79887e-05
3.86155e-05
3.18419e-05
3.18397e-05
3.25983e-05
3.2596e-05
3.79878e-05
3.86099e-05
3.18378e-05
3.1842e-05
3.25941e-05
3.25985e-05
3.18448e-05
3.25942e-05
3.26011e-05
3.79832e-05
3.86209e-05
3.18401e-05
3.25983e-05
3.25964e-05
3.86382e-05
3.88317e-05
3.94522e-05
3.28489e-05
3.28464e-05
3.35944e-05
3.35917e-05
3.88342e-05
3.94408e-05
3.28447e-05
3.28489e-05
3.35902e-05
3.35942e-05
3.28516e-05
3.35903e-05
3.35971e-05
3.88229e-05
3.94639e-05
3.28468e-05
3.35943e-05
3.35923e-05
3.94623e-05
3.96458e-05
4.02365e-05
3.3841e-05
3.38381e-05
3.45731e-05
3.45702e-05
3.96521e-05
4.0235e-05
3.38367e-05
3.38406e-05
3.45689e-05
3.45727e-05
3.38435e-05
3.45692e-05
3.45757e-05
3.96373e-05
4.0248e-05
3.38386e-05
3.45731e-05
3.45708e-05
4.0264e-05
4.04492e-05
4.10272e-05
3.48149e-05
3.48118e-05
3.55317e-05
3.55285e-05
4.04449e-05
4.10142e-05
3.48106e-05
3.48142e-05
3.55274e-05
3.5531e-05
3.48175e-05
3.55279e-05
3.55343e-05
4.04365e-05
4.10159e-05
3.48124e-05
3.55318e-05
3.55293e-05
4.10379e-05
4.12083e-05
3.57679e-05
3.57647e-05
4.12135e-05
3.57636e-05
3.57672e-05
3.57706e-05
4.12174e-05
3.57654e-05
5.48452e-05
7.01002e-05
7.01257e-05
5.43659e-05
6.95611e-05
6.95428e-05
5.48457e-05
7.01013e-05
7.01268e-05
5.4365e-05
1.45939e-05
1.45935e-05
1.45934e-05
1.43804e-05
1.43805e-05
1.43802e-05
1.43802e-05
3.10574e-05
4.64249e-05
1.47093e-05
1.62886e-05
4.68094e-05
1.46753e-05
3.04967e-05
6.95613e-05
6.9543e-05
3.10579e-05
1.4709e-05
4.64281e-05
1.62887e-05
1.4675e-05
4.68092e-05
3.05004e-05
5.97062e-05
5.97155e-05
1.88911e-05
5.99063e-05
5.99157e-05
5.59474e-05
7.01521e-05
5.55434e-05
7.01747e-05
6.94938e-05
6.94775e-05
5.59474e-05
7.01533e-05
5.55419e-05
7.0176e-05
1.43152e-05
1.43149e-05
1.43149e-05
1.41363e-05
1.41364e-05
1.41361e-05
1.41361e-05
3.27282e-05
4.75425e-05
1.46027e-05
1.65332e-05
3.21826e-05
4.78953e-05
1.45856e-05
6.9494e-05
6.94777e-05
3.27308e-05
1.46024e-05
4.75452e-05
1.65335e-05
3.2186e-05
1.45854e-05
4.78957e-05
6.02894e-05
6.02973e-05
1.962e-05
6.04681e-05
6.04767e-05
5.68648e-05
7.01971e-05
5.65227e-05
7.02173e-05
6.94326e-05
6.94182e-05
5.68649e-05
7.01985e-05
5.65211e-05
7.02187e-05
1.40824e-05
1.40822e-05
1.40821e-05
1.39376e-05
1.39377e-05
1.39375e-05
1.39375e-05
3.43386e-05
4.85654e-05
1.45652e-05
1.68641e-05
3.38111e-05
4.88866e-05
1.4567e-05
6.94326e-05
6.94182e-05
3.4338e-05
1.45652e-05
4.85662e-05
1.68645e-05
3.38181e-05
1.45668e-05
4.88888e-05
6.08105e-05
6.08189e-05
2.04385e-05
6.09722e-05
6.09794e-05
5.7634e-05
7.02364e-05
5.73406e-05
7.0254e-05
6.93771e-05
6.93646e-05
5.76339e-05
7.02379e-05
5.73391e-05
7.02555e-05
1.3895e-05
1.38948e-05
1.38948e-05
1.37842e-05
1.37842e-05
1.37842e-05
1.37842e-05
3.58614e-05
4.95025e-05
1.45959e-05
1.7278e-05
3.53665e-05
4.97943e-05
1.46144e-05
6.93771e-05
6.93646e-05
3.58635e-05
1.4596e-05
4.95025e-05
1.72787e-05
3.53711e-05
1.46145e-05
4.97973e-05
6.128e-05
6.1288e-05
2.13335e-05
6.14258e-05
6.14343e-05
5.82866e-05
7.02706e-05
5.80317e-05
7.02862e-05
6.93272e-05
6.93166e-05
5.82863e-05
7.02724e-05
5.80305e-05
7.02877e-05
1.37527e-05
1.37527e-05
1.37527e-05
1.36758e-05
1.36758e-05
1.36758e-05
1.36759e-05
3.72911e-05
5.03599e-05
1.46957e-05
1.77714e-05
3.68281e-05
5.0627e-05
1.47314e-05
6.93271e-05
6.93165e-05
3.72909e-05
1.46962e-05
5.03606e-05
1.77723e-05
3.68327e-05
1.47317e-05
5.06302e-05
6.17053e-05
6.17135e-05
2.22921e-05
6.18378e-05
6.18461e-05
5.88483e-05
7.03013e-05
5.86248e-05
7.03155e-05
6.92827e-05
6.92741e-05
5.88478e-05
7.03034e-05
5.8624e-05
7.03171e-05
1.36555e-05
1.36556e-05
1.36557e-05
1.36124e-05
1.36124e-05
1.36125e-05
1.36127e-05
3.86184e-05
5.11461e-05
1.48638e-05
1.83402e-05
3.81898e-05
5.13929e-05
1.49164e-05
6.92826e-05
6.92739e-05
3.86196e-05
1.48646e-05
5.11481e-05
1.83414e-05
3.81936e-05
1.4917e-05
5.1397e-05
6.20925e-05
6.21008e-05
2.33001e-05
6.22143e-05
6.22224e-05
5.93398e-05
7.033e-05
5.91429e-05
7.03436e-05
6.92437e-05
6.9237e-05
5.93398e-05
7.03323e-05
5.91423e-05
7.03451e-05
1.36033e-05
1.36035e-05
1.36037e-05
1.35946e-05
1.35946e-05
1.35949e-05
1.35951e-05
3.98476e-05
5.18729e-05
1.50994e-05
1.89797e-05
3.94527e-05
5.21007e-05
1.51687e-05
6.92435e-05
6.92368e-05
3.98484e-05
1.51005e-05
5.18751e-05
1.89812e-05
3.9455e-05
1.51697e-05
5.21044e-05
6.24484e-05
6.24567e-05
2.43434e-05
6.25609e-05
6.2569e-05
5.97785e-05
7.03581e-05
5.96015e-05
7.03717e-05
6.92102e-05
6.92056e-05
5.97784e-05
7.03605e-05
5.96013e-05
7.0373e-05
1.35968e-05
1.35971e-05
1.35974e-05
1.36209e-05
1.36208e-05
1.36212e-05
1.36216e-05
4.09851e-05
5.25441e-05
1.54013e-05
1.96849e-05
4.06201e-05
5.2757e-05
1.54871e-05
6.92101e-05
6.92054e-05
4.0989e-05
1.54029e-05
5.25473e-05
1.96865e-05
4.06198e-05
1.54884e-05
5.27611e-05
6.27784e-05
6.27863e-05
2.5409e-05
6.28831e-05
6.28916e-05
6.01758e-05
7.03865e-05
6.00153e-05
7.04007e-05
6.91825e-05
6.918e-05
6.01758e-05
7.0389e-05
6.00145e-05
7.04016e-05
1.36345e-05
1.3635e-05
1.36354e-05
1.36934e-05
1.36932e-05
1.36938e-05
1.36942e-05
4.20422e-05
5.31703e-05
1.57683e-05
2.045e-05
4.1695e-05
5.33682e-05
1.58701e-05
6.91825e-05
6.91799e-05
4.20462e-05
1.57702e-05
5.31738e-05
2.04521e-05
4.16947e-05
1.58716e-05
5.33732e-05
6.30869e-05
6.30952e-05
2.64879e-05
6.31854e-05
6.31941e-05
6.05398e-05
7.04162e-05
6.03928e-05
7.04316e-05
6.91606e-05
6.91602e-05
6.05398e-05
7.04189e-05
6.03913e-05
7.0432e-05
1.37184e-05
1.3719e-05
1.37195e-05
1.38116e-05
1.38114e-05
1.38122e-05
1.38127e-05
4.30233e-05
5.37566e-05
1.61984e-05
2.12697e-05
4.26921e-05
5.39416e-05
1.63158e-05
6.91607e-05
6.91603e-05
4.30275e-05
1.62007e-05
5.37599e-05
2.1272e-05
4.26922e-05
1.63175e-05
5.39471e-05
6.33777e-05
6.33864e-05
2.75484e-05
6.34713e-05
6.34801e-05
6.08777e-05
7.04483e-05
6.07402e-05
7.0465e-05
6.91448e-05
6.91465e-05
6.08773e-05
7.04504e-05
6.07393e-05
7.04658e-05
1.38481e-05
1.38489e-05
1.38495e-05
1.39759e-05
1.39757e-05
1.39766e-05
1.39772e-05
4.39379e-05
5.43085e-05
1.66896e-05
2.21373e-05
4.36204e-05
5.44842e-05
1.68218e-05
6.9145e-05
6.91468e-05
4.39422e-05
1.6692e-05
5.43109e-05
2.21398e-05
4.36207e-05
1.68237e-05
5.44876e-05
6.36543e-05
6.36631e-05
2.85982e-05
6.37435e-05
6.37525e-05
6.11936e-05
7.04835e-05
6.10647e-05
7.05014e-05
6.91349e-05
6.91389e-05
6.11933e-05
7.04845e-05
6.10631e-05
7.05024e-05
1.4024e-05
1.40248e-05
1.40256e-05
1.41864e-05
1.41863e-05
1.41873e-05
1.41879e-05
4.47951e-05
5.48306e-05
1.72392e-05
2.30467e-05
4.44891e-05
5.49982e-05
1.73858e-05
6.91353e-05
6.91392e-05
4.47994e-05
1.7242e-05
5.48321e-05
2.30492e-05
4.44895e-05
1.73879e-05
5.50001e-05
6.39189e-05
6.39278e-05
2.96633e-05
6.40046e-05
6.40137e-05
6.14927e-05
7.05219e-05
6.13706e-05
7.05412e-05
6.91311e-05
6.91373e-05
6.14924e-05
7.0523e-05
6.13685e-05
7.05423e-05
1.42461e-05
1.42471e-05
1.42479e-05
1.44432e-05
1.44431e-05
1.44443e-05
1.4445e-05
4.56028e-05
5.53273e-05
1.78445e-05
2.3991e-05
4.53065e-05
5.54862e-05
1.80044e-05
6.91316e-05
6.91376e-05
4.56072e-05
1.78475e-05
5.5326e-05
2.39936e-05
4.53072e-05
1.80068e-05
5.54912e-05
6.41737e-05
6.41825e-05
3.0698e-05
6.42564e-05
6.42655e-05
6.17788e-05
7.05641e-05
6.16611e-05
7.0585e-05
6.91333e-05
6.91416e-05
6.17785e-05
7.05652e-05
6.16591e-05
7.05861e-05
1.45145e-05
1.45157e-05
1.45165e-05
1.47463e-05
1.47462e-05
1.47476e-05
1.47483e-05
4.63683e-05
5.57995e-05
1.85021e-05
2.49642e-05
4.60803e-05
5.59527e-05
1.86746e-05
6.91337e-05
6.91419e-05
4.63726e-05
1.85054e-05
5.57966e-05
2.4967e-05
4.60812e-05
1.86771e-05
5.5958e-05
6.44201e-05
6.44281e-05
3.17082e-05
6.45004e-05
6.45101e-05
6.20545e-05
7.06103e-05
6.19411e-05
7.06328e-05
6.91413e-05
6.91515e-05
6.20545e-05
7.06114e-05
6.1939e-05
7.0634e-05
1.48291e-05
1.48304e-05
1.48314e-05
1.50955e-05
1.50953e-05
1.50968e-05
1.50977e-05
4.70976e-05
5.62497e-05
1.92086e-05
2.59602e-05
4.68168e-05
5.63998e-05
1.93928e-05
6.91416e-05
6.91518e-05
4.71017e-05
1.92121e-05
5.62474e-05
2.5963e-05
4.6818e-05
1.93956e-05
5.64057e-05
6.4659e-05
6.46665e-05
3.27167e-05
6.47376e-05
6.47474e-05
6.23231e-05
7.06605e-05
6.22128e-05
7.06847e-05
6.91548e-05
6.9167e-05
6.23234e-05
7.06618e-05
6.22105e-05
7.06861e-05
1.51897e-05
1.51911e-05
1.51923e-05
1.54901e-05
1.54899e-05
1.54916e-05
1.54926e-05
4.77954e-05
5.66813e-05
1.99604e-05
2.69724e-05
4.75211e-05
5.68285e-05
2.01556e-05
6.91551e-05
6.91672e-05
4.77993e-05
1.99643e-05
5.6679e-05
2.69753e-05
4.75226e-05
2.01585e-05
5.68344e-05
6.48909e-05
6.48984e-05
3.36793e-05
6.49685e-05
6.49781e-05
6.25861e-05
7.0715e-05
6.24785e-05
7.07408e-05
6.91736e-05
6.91877e-05
6.25875e-05
7.07164e-05
6.24761e-05
7.07423e-05
1.55955e-05
1.55971e-05
1.55984e-05
1.59295e-05
1.59292e-05
1.5931e-05
1.59322e-05
4.84657e-05
5.70958e-05
2.0754e-05
2.7995e-05
4.81976e-05
5.72401e-05
2.09589e-05
6.91738e-05
6.91878e-05
4.84692e-05
2.07581e-05
5.70933e-05
2.79982e-05
4.81995e-05
2.09622e-05
5.72455e-05
6.51169e-05
6.51244e-05
3.4636e-05
6.51934e-05
6.52029e-05
6.28465e-05
7.07735e-05
6.27398e-05
7.08002e-05
6.91974e-05
6.92134e-05
6.28478e-05
7.07751e-05
6.27377e-05
7.08027e-05
1.60458e-05
1.60477e-05
1.6049e-05
1.64124e-05
1.64121e-05
1.64142e-05
1.64154e-05
4.91114e-05
5.74947e-05
2.15849e-05
2.90222e-05
4.88497e-05
5.7636e-05
2.17986e-05
6.91977e-05
6.92134e-05
4.9114e-05
2.15893e-05
5.74927e-05
2.9026e-05
4.88518e-05
2.18021e-05
5.76418e-05
6.53374e-05
6.53448e-05
3.55725e-05
6.54127e-05
6.5422e-05
6.3104e-05
7.08375e-05
6.29988e-05
7.08639e-05
6.92259e-05
6.92437e-05
6.31057e-05
7.08379e-05
6.29963e-05
7.08669e-05
1.65394e-05
1.65415e-05
1.65428e-05
1.69377e-05
1.69373e-05
1.69396e-05
1.69408e-05
4.97345e-05
5.78793e-05
2.24491e-05
3.00502e-05
4.94804e-05
5.80176e-05
2.26705e-05
6.92263e-05
6.92437e-05
4.97362e-05
2.24536e-05
5.78772e-05
3.00541e-05
4.94831e-05
2.26741e-05
5.8023e-05
6.55526e-05
6.556e-05
3.64719e-05
6.56266e-05
6.56358e-05
6.33604e-05
7.0904e-05
6.32545e-05
7.09319e-05
6.9259e-05
6.92782e-05
6.33614e-05
7.09056e-05
6.32529e-05
7.09336e-05
1.70749e-05
1.70773e-05
1.70786e-05
1.75034e-05
1.7503e-05
1.75055e-05
1.75068e-05
5.03368e-05
5.82502e-05
2.3342e-05
3.10746e-05
5.00907e-05
5.83854e-05
2.35698e-05
6.92594e-05
6.92783e-05
5.03379e-05
2.33468e-05
5.82485e-05
3.10786e-05
5.00937e-05
2.35737e-05
5.83911e-05
6.57626e-05
6.57701e-05
3.73661e-05
6.58353e-05
6.58442e-05
6.36136e-05
7.0974e-05
6.35093e-05
7.10033e-05
6.92961e-05
6.93167e-05
6.36148e-05
7.09756e-05
6.35082e-05
7.10049e-05
1.76506e-05
1.76531e-05
1.76544e-05
1.81077e-05
1.81073e-05
1.811e-05
1.81113e-05
5.09175e-05
5.86085e-05
2.42591e-05
3.20905e-05
5.06819e-05
5.87402e-05
2.44924e-05
6.92967e-05
6.9317e-05
5.09202e-05
2.42642e-05
5.86069e-05
3.20946e-05
5.06837e-05
2.44967e-05
5.87461e-05
6.59678e-05
6.59753e-05
3.82241e-05
6.6039e-05
6.60477e-05
6.38651e-05
7.10472e-05
6.37618e-05
7.10776e-05
6.9337e-05
6.93589e-05
6.38661e-05
7.10487e-05
6.37604e-05
7.10793e-05
1.8264e-05
1.82668e-05
1.82681e-05
1.8748e-05
1.87475e-05
1.87504e-05
1.87517e-05
5.14807e-05
5.8954e-05
2.51973e-05
3.30942e-05
5.12522e-05
5.90824e-05
2.54353e-05
6.93378e-05
6.93595e-05
5.14835e-05
2.52028e-05
5.89528e-05
3.30983e-05
5.12548e-05
2.54401e-05
5.90883e-05
6.61684e-05
6.61757e-05
3.90594e-05
6.6238e-05
6.62464e-05
6.41147e-05
7.11232e-05
6.40095e-05
7.11548e-05
6.93814e-05
6.94045e-05
6.41144e-05
7.11248e-05
6.40101e-05
7.11564e-05
1.89129e-05
1.89158e-05
1.89171e-05
1.94216e-05
1.94211e-05
1.94241e-05
1.94254e-05
5.20259e-05
5.92874e-05
2.61535e-05
3.40821e-05
5.18037e-05
5.94129e-05
2.63953e-05
6.93825e-05
6.94055e-05
5.20271e-05
2.61592e-05
5.92866e-05
3.40862e-05
5.18071e-05
2.64002e-05
5.94182e-05
6.63643e-05
6.63713e-05
3.98663e-05
6.64318e-05
6.64405e-05
6.43593e-05
7.12017e-05
6.42558e-05
7.12343e-05
6.94291e-05
6.94536e-05
6.43587e-05
7.12034e-05
6.4256e-05
7.1236e-05
1.95943e-05
1.95973e-05
1.95986e-05
2.01252e-05
2.01247e-05
2.01279e-05
2.01292e-05
5.25503e-05
5.96093e-05
2.71231e-05
3.50512e-05
5.23362e-05
5.97312e-05
2.73674e-05
6.94304e-05
6.94547e-05
5.25511e-05
2.71285e-05
5.96085e-05
3.50551e-05
5.23388e-05
2.73721e-05
5.97366e-05
6.65554e-05
6.65623e-05
4.06602e-05
6.66211e-05
6.663e-05
6.45978e-05
7.12824e-05
6.44979e-05
7.13165e-05
6.948e-05
6.95056e-05
6.45974e-05
7.12841e-05
6.44968e-05
7.13175e-05
2.03049e-05
2.03081e-05
2.03094e-05
5.30539e-05
5.99196e-05
2.81005e-05
3.59989e-05
5.28479e-05
6.00384e-05
2.83458e-05
6.94814e-05
6.95067e-05
5.30551e-05
2.81057e-05
5.99195e-05
3.60028e-05
5.2851e-05
2.83503e-05
6.00438e-05
6.67417e-05
6.67486e-05
4.14171e-05
6.68053e-05
6.68142e-05
6.95594e-05
6.95412e-05
6.95615e-05
6.95434e-05
5.97097e-05
5.972e-05
1.88714e-05
5.99104e-05
5.99199e-05
6.95079e-05
6.95251e-05
6.951e-05
6.95272e-05
1.90251e-05
6.0199e-05
6.02078e-05
6.00093e-05
6.00188e-05
5.48442e-05
7.00969e-05
7.01223e-05
5.43652e-05
3.10571e-05
4.6428e-05
1.47093e-05
1.62888e-05
4.68104e-05
1.46753e-05
3.05005e-05
3.10574e-05
4.64285e-05
1.47093e-05
1.62892e-05
4.68124e-05
1.46752e-05
3.0499e-05
5.49816e-05
7.01512e-05
7.01271e-05
5.54218e-05
5.49806e-05
7.01476e-05
7.01238e-05
5.54206e-05
3.13481e-05
1.63419e-05
4.73645e-05
1.46219e-05
4.69988e-05
1.46474e-05
3.18993e-05
3.13472e-05
1.63422e-05
4.7368e-05
1.46218e-05
4.70005e-05
1.46474e-05
3.18981e-05
5.97149e-05
5.97088e-05
1.88686e-05
5.99147e-05
5.99104e-05
6.95594e-05
6.95414e-05
6.95094e-05
6.95267e-05
1.90245e-05
6.02044e-05
6.01983e-05
6.00146e-05
6.00089e-05
6.9508e-05
6.9525e-05
3.10599e-05
4.64329e-05
1.47098e-05
1.62889e-05
4.68107e-05
1.46758e-05
3.04959e-05
5.48448e-05
7.00972e-05
7.01227e-05
5.4364e-05
3.10584e-05
1.47092e-05
4.6433e-05
1.6289e-05
1.46751e-05
4.68091e-05
3.04965e-05
5.49805e-05
7.01523e-05
7.01283e-05
5.5422e-05
3.13451e-05
1.63419e-05
4.73658e-05
1.46225e-05
4.7004e-05
1.4648e-05
3.19022e-05
5.49795e-05
7.0148e-05
7.01241e-05
5.5421e-05
3.13449e-05
1.63421e-05
1.46217e-05
4.73635e-05
1.46473e-05
4.70039e-05
3.19011e-05
5.48358e-05
7.0099e-05
7.01247e-05
5.43697e-05
3.10593e-05
1.47094e-05
4.64259e-05
1.62886e-05
1.46753e-05
4.68087e-05
3.04962e-05
5.48407e-05
7.00957e-05
7.01213e-05
5.43671e-05
3.13434e-05
1.63417e-05
4.73638e-05
1.46218e-05
4.69965e-05
1.46474e-05
3.18975e-05
5.49845e-05
7.01499e-05
7.01259e-05
5.54123e-05
3.13432e-05
1.63416e-05
1.46219e-05
4.73643e-05
1.46474e-05
4.6998e-05
3.18995e-05
5.49823e-05
7.01466e-05
7.01226e-05
5.5417e-05
5.97154e-05
5.97106e-05
1.88692e-05
5.9915e-05
5.99106e-05
6.95602e-05
6.9542e-05
6.95096e-05
6.95269e-05
1.90255e-05
6.02043e-05
6.01992e-05
6.00152e-05
6.00105e-05
6.95085e-05
6.95258e-05
3.10564e-05
1.47092e-05
4.6434e-05
1.6289e-05
1.46752e-05
4.68092e-05
3.05007e-05
5.48392e-05
7.01006e-05
7.0126e-05
5.43722e-05
5.48382e-05
7.00973e-05
7.01228e-05
5.43715e-05
3.1348e-05
1.63415e-05
1.46216e-05
4.73643e-05
1.46471e-05
4.69997e-05
3.18999e-05
3.13488e-05
1.6342e-05
1.46219e-05
4.73643e-05
1.46474e-05
4.70044e-05
3.18985e-05
5.49869e-05
7.01512e-05
7.01275e-05
5.54152e-05
5.49861e-05
7.01481e-05
7.01243e-05
5.54142e-05
6.9559e-05
6.95408e-05
6.95609e-05
6.95428e-05
1.90114e-05
6.01958e-05
6.02038e-05
6.00057e-05
6.0015e-05
6.95075e-05
6.95247e-05
6.95094e-05
6.95266e-05
6.94923e-05
6.9476e-05
6.94944e-05
6.94782e-05
6.02925e-05
6.03018e-05
1.9595e-05
6.04729e-05
6.04811e-05
6.94456e-05
6.94609e-05
6.94479e-05
6.94631e-05
1.97721e-05
6.0731e-05
6.07406e-05
6.05612e-05
6.05701e-05
5.59461e-05
7.01488e-05
5.55421e-05
7.01715e-05
3.27296e-05
4.75459e-05
1.46028e-05
1.65338e-05
3.21859e-05
4.78952e-05
1.45857e-05
3.27286e-05
4.75466e-05
1.46027e-05
1.65341e-05
3.21853e-05
4.7898e-05
1.45856e-05
5.60552e-05
7.01969e-05
7.01756e-05
5.64269e-05
5.60541e-05
7.01934e-05
7.01723e-05
5.64257e-05
3.30098e-05
1.66087e-05
4.84028e-05
1.45669e-05
4.80688e-05
1.45754e-05
3.35439e-05
3.30093e-05
1.6609e-05
4.84047e-05
1.45669e-05
4.807e-05
1.45753e-05
3.35421e-05
6.02981e-05
6.02917e-05
1.9594e-05
6.04774e-05
6.04704e-05
6.94921e-05
6.9476e-05
6.94471e-05
6.94624e-05
1.97713e-05
6.07359e-05
6.07283e-05
6.05656e-05
6.05595e-05
6.94455e-05
6.94607e-05
3.27297e-05
4.75504e-05
1.46034e-05
1.65336e-05
3.21828e-05
4.78965e-05
1.45864e-05
5.59465e-05
7.01491e-05
5.55409e-05
7.01718e-05
3.27315e-05
1.46026e-05
4.755e-05
1.65341e-05
3.21828e-05
1.45856e-05
4.78945e-05
5.60538e-05
7.01981e-05
7.01769e-05
5.6427e-05
3.3009e-05
1.66085e-05
4.8404e-05
1.45676e-05
4.80734e-05
1.45761e-05
3.3545e-05
5.60528e-05
7.01937e-05
7.01725e-05
5.64259e-05
3.30062e-05
1.6609e-05
1.45669e-05
4.84025e-05
1.45754e-05
4.80726e-05
3.35448e-05
5.59379e-05
7.01509e-05
5.55453e-05
7.01737e-05
3.27299e-05
1.46028e-05
4.75435e-05
1.65337e-05
3.21826e-05
1.45857e-05
4.78938e-05
5.59425e-05
7.01477e-05
5.55434e-05
7.01705e-05
3.30061e-05
1.66081e-05
4.84012e-05
1.45668e-05
4.8065e-05
1.45753e-05
3.35449e-05
5.60567e-05
7.01954e-05
7.01743e-05
5.64173e-05
3.30061e-05
1.66085e-05
1.45669e-05
4.84003e-05
1.45754e-05
4.80666e-05
3.35447e-05
5.6055e-05
7.01924e-05
7.01712e-05
5.6422e-05
6.02975e-05
6.02932e-05
1.95957e-05
6.04775e-05
6.04721e-05
6.94929e-05
6.94765e-05
6.94472e-05
6.94626e-05
1.97724e-05
6.07352e-05
6.07308e-05
6.05656e-05
6.05614e-05
6.9446e-05
6.94614e-05
3.27279e-05
1.46028e-05
4.75503e-05
1.65341e-05
3.21868e-05
1.45858e-05
4.78957e-05
5.59405e-05
7.01524e-05
5.55475e-05
7.0175e-05
5.59394e-05
7.01492e-05
5.55466e-05
7.01719e-05
3.30103e-05
1.66082e-05
1.45666e-05
4.84043e-05
1.45751e-05
4.80678e-05
3.35424e-05
3.30107e-05
1.66088e-05
1.45671e-05
4.84044e-05
1.45755e-05
4.80717e-05
3.35415e-05
5.60586e-05
7.01968e-05
7.01758e-05
5.64197e-05
5.60576e-05
7.01939e-05
7.01727e-05
5.64186e-05
6.94919e-05
6.94756e-05
6.94938e-05
6.94775e-05
1.97572e-05
6.07271e-05
6.07348e-05
6.05569e-05
6.05655e-05
6.94452e-05
6.94605e-05
6.9447e-05
6.94623e-05
6.9431e-05
6.94166e-05
6.94333e-05
6.94189e-05
6.08147e-05
6.08242e-05
2.04104e-05
6.09764e-05
6.09846e-05
6.93892e-05
6.94026e-05
6.93915e-05
6.94049e-05
2.06069e-05
6.12096e-05
6.12167e-05
6.10559e-05
6.10649e-05
5.68636e-05
7.0194e-05
5.65211e-05
7.02142e-05
3.43384e-05
4.85685e-05
1.45655e-05
1.68649e-05
3.38179e-05
4.88879e-05
1.45672e-05
3.43366e-05
4.85704e-05
1.45654e-05
1.68652e-05
3.38174e-05
4.88912e-05
1.45671e-05
5.69493e-05
7.02362e-05
7.02177e-05
5.72659e-05
5.6948e-05
7.02331e-05
7.02146e-05
5.72646e-05
3.46064e-05
1.6961e-05
4.93524e-05
1.45818e-05
4.90471e-05
1.45721e-05
3.51116e-05
3.46057e-05
1.69612e-05
4.93539e-05
1.45817e-05
4.90478e-05
1.45719e-05
3.51104e-05
6.08195e-05
6.08134e-05
2.04082e-05
6.0981e-05
6.09728e-05
6.94307e-05
6.94165e-05
6.93907e-05
6.94042e-05
2.06064e-05
6.12133e-05
6.12051e-05
6.10605e-05
6.10533e-05
6.93889e-05
6.94021e-05
3.43401e-05
4.85725e-05
1.45662e-05
1.68646e-05
3.38157e-05
4.88886e-05
1.45679e-05
5.68638e-05
7.01942e-05
5.65198e-05
7.02144e-05
3.43383e-05
1.45655e-05
4.85715e-05
1.68654e-05
3.38144e-05
1.45672e-05
4.88883e-05
5.69479e-05
7.02376e-05
7.0219e-05
5.72659e-05
3.46034e-05
1.69606e-05
4.93529e-05
1.45826e-05
4.90505e-05
1.45727e-05
3.51126e-05
5.69468e-05
7.02326e-05
7.02146e-05
5.72647e-05
3.46035e-05
1.69615e-05
1.45819e-05
4.93528e-05
1.45721e-05
4.90494e-05
3.51128e-05
5.68554e-05
7.0196e-05
5.65236e-05
7.02164e-05
3.43385e-05
1.45654e-05
4.85671e-05
1.68651e-05
3.38128e-05
1.45671e-05
4.88873e-05
5.68601e-05
7.0193e-05
5.65218e-05
7.02133e-05
3.46e-05
1.696e-05
4.93494e-05
1.45816e-05
4.90437e-05
1.45717e-05
3.51118e-05
5.69499e-05
7.02346e-05
7.02164e-05
5.72567e-05
3.46017e-05
1.6961e-05
1.45817e-05
4.93506e-05
1.45719e-05
4.9044e-05
3.51115e-05
5.69485e-05
7.02322e-05
7.02136e-05
5.72614e-05
6.08196e-05
6.08153e-05
2.04095e-05
6.09807e-05
6.09756e-05
6.94314e-05
6.94169e-05
6.93907e-05
6.94041e-05
2.06072e-05
6.12129e-05
6.1208e-05
6.10603e-05
6.1056e-05
6.93893e-05
6.94028e-05
3.43375e-05
1.45657e-05
4.85701e-05
1.68653e-05
3.38178e-05
1.45674e-05
4.88873e-05
5.68576e-05
7.01973e-05
5.65249e-05
7.02174e-05
5.68565e-05
7.01944e-05
5.65239e-05
7.02146e-05
3.46057e-05
1.69602e-05
1.45816e-05
4.93533e-05
1.45718e-05
4.90455e-05
3.5113e-05
3.46051e-05
1.69611e-05
1.45822e-05
4.93527e-05
1.45723e-05
4.90488e-05
3.51109e-05
5.69511e-05
7.02361e-05
7.02177e-05
5.72587e-05
5.69501e-05
7.02335e-05
7.02149e-05
5.72577e-05
6.94306e-05
6.94163e-05
6.94324e-05
6.9418e-05
2.05912e-05
6.12049e-05
6.12131e-05
6.10512e-05
6.10602e-05
6.93889e-05
6.94023e-05
6.93906e-05
6.9404e-05
6.93756e-05
6.93631e-05
6.93779e-05
6.93654e-05
6.12845e-05
6.1293e-05
2.13011e-05
6.14309e-05
6.14385e-05
6.93383e-05
6.93499e-05
6.93407e-05
6.93522e-05
2.15171e-05
6.16412e-05
6.16489e-05
6.15024e-05
6.15111e-05
5.76327e-05
7.02338e-05
5.7339e-05
7.02508e-05
3.58623e-05
4.95044e-05
1.45964e-05
1.72792e-05
3.53732e-05
4.97968e-05
1.46147e-05
3.58622e-05
4.95061e-05
1.45962e-05
1.72796e-05
3.53718e-05
4.97989e-05
1.46146e-05
5.76999e-05
7.02704e-05
7.02542e-05
5.79731e-05
5.76984e-05
7.02674e-05
7.02512e-05
5.79717e-05
3.61158e-05
1.73956e-05
5.02224e-05
1.46648e-05
4.99426e-05
1.46379e-05
3.65895e-05
3.61139e-05
1.73958e-05
5.02252e-05
1.46646e-05
4.99438e-05
1.46377e-05
3.65886e-05
6.12886e-05
6.12818e-05
2.13004e-05
6.14345e-05
6.14258e-05
6.93749e-05
6.93627e-05
6.934e-05
6.93514e-05
2.15163e-05
6.16451e-05
6.16359e-05
6.1506e-05
6.14989e-05
6.93378e-05
6.93491e-05
3.58642e-05
4.95075e-05
1.45971e-05
1.72786e-05
3.53702e-05
4.97978e-05
1.46154e-05
5.76327e-05
7.02331e-05
5.73379e-05
7.02514e-05
3.58622e-05
1.45964e-05
4.95065e-05
1.72799e-05
3.5369e-05
1.46148e-05
4.97969e-05
5.76986e-05
7.02719e-05
7.02557e-05
5.7973e-05
3.61125e-05
1.73948e-05
5.02234e-05
1.46655e-05
4.99456e-05
1.46386e-05
3.6591e-05
5.76974e-05
7.02676e-05
7.02514e-05
5.79717e-05
3.61128e-05
1.73962e-05
1.46649e-05
5.02217e-05
1.4638e-05
4.9945e-05
3.659e-05
5.76252e-05
7.02352e-05
5.73407e-05
7.02525e-05
3.58638e-05
1.45962e-05
4.95022e-05
1.72795e-05
3.53684e-05
1.46145e-05
4.97961e-05
5.76298e-05
7.02329e-05
5.73394e-05
7.025e-05
3.61106e-05
1.73941e-05
5.02187e-05
1.46643e-05
4.99401e-05
1.46373e-05
3.65893e-05
5.76998e-05
7.02687e-05
7.02528e-05
5.79649e-05
3.61105e-05
1.73956e-05
1.46645e-05
5.02224e-05
1.46376e-05
4.99401e-05
3.65905e-05
5.76988e-05
7.02666e-05
7.02507e-05
5.79694e-05
6.12883e-05
6.12841e-05
2.13015e-05
6.1434e-05
6.14295e-05
6.93757e-05
6.93632e-05
6.93399e-05
6.93514e-05
2.15177e-05
6.16447e-05
6.16398e-05
6.15059e-05
6.15015e-05
6.93384e-05
6.935e-05
3.58609e-05
1.45966e-05
4.95064e-05
1.72797e-05
3.53717e-05
1.46151e-05
4.97966e-05
5.76271e-05
7.02366e-05
5.73416e-05
7.0254e-05
5.76261e-05
7.0234e-05
5.73406e-05
7.02514e-05
3.61141e-05
1.73946e-05
1.46645e-05
5.02227e-05
1.46375e-05
4.99409e-05
3.65891e-05
3.61147e-05
1.73957e-05
1.46653e-05
5.02228e-05
1.46382e-05
4.99444e-05
3.6588e-05
5.77005e-05
7.02702e-05
7.02541e-05
5.79665e-05
5.76995e-05
7.02678e-05
7.02518e-05
5.79655e-05
6.93753e-05
6.9363e-05
6.93771e-05
6.93646e-05
2.14993e-05
6.1637e-05
6.16448e-05
6.14974e-05
6.15057e-05
6.93384e-05
6.93498e-05
6.93399e-05
6.93514e-05
6.93255e-05
6.93149e-05
6.93279e-05
6.93174e-05
6.17093e-05
6.17181e-05
2.22573e-05
6.18422e-05
6.18499e-05
6.92928e-05
6.93025e-05
6.92953e-05
6.93049e-05
2.2488e-05
6.20343e-05
6.20421e-05
6.19073e-05
6.1916e-05
5.82851e-05