/*--------------------------------*- C++ -*----------------------------------*\
| =========                 |                                                 |
| \\      /  F ield         | OpenFOAM: The Open Source CFD Toolbox           |
|  \\    /   O peration     | Version:  2312                                  |
|   \\  /    A nd           | Website:  www.openfoam.com                      |
|    \\/     M anipulation  |                                                 |
\*---------------------------------------------------------------------------*/
FoamFile
{
    version     2.0;
    format      ascii;
    arch        "LSB;label=32;scalar=64";
    class       surfaceScalarField;
    location    "800";
    object      phi;
}
// * * * * * * * * * * * * * * * * * * * * * * * * * * * * * * * * * * * * * //

dimensions      [0 3 -1 0 0 0 0];

oriented        oriented;

internalField   nonuniform List<scalar> 
123680
(
-8.18548e-07
-8.19418e-07
4.33474e-07
4.34057e-07
0.00115006
-0.00114929
-1.5028e-06
8.19015e-07
3.99383e-07
0.00113925
-4.98922e-07
1.12938e-06
1.47114e-07
7.47284e-07
-5.44769e-07
8.46548e-08
-1.22936e-06
-0.0011388
-1.50003e-06
8.19379e-07
4.05049e-07
0.00113912
-4.96143e-07
1.12669e-06
1.44175e-07
7.47218e-07
-5.44902e-07
8.47408e-08
-1.22955e-06
-0.00113868
1.5318e-06
1.49472e-06
-4.76252e-07
-4.79355e-07
0.000274438
-0.000276509
-7.98933e-07
-7.99702e-07
-0.00115233
4.25799e-07
4.26413e-07
0.00115308
-0.0011405
-1.49428e-06
7.99195e-07
3.90125e-07
0.0011409
-4.87366e-07
1.13508e-06
1.53578e-07
7.54599e-07
-5.30008e-07
-1.21359e-06
9.28279e-08
-0.00114038
-1.49148e-06
7.99501e-07
3.95794e-07
0.00114077
-4.84569e-07
1.13233e-06
1.50707e-07
7.54577e-07
-5.30119e-07
-1.21377e-06
9.29498e-08
-0.000276524
1.52321e-06
1.48613e-06
-4.63559e-07
-4.66584e-07
0.000274445
-7.79221e-07
-7.79783e-07
-0.00115528
4.1832e-07
4.18915e-07
0.00115601
-0.00114201
-1.4848e-06
7.79429e-07
3.80396e-07
0.00114236
-4.75823e-07
1.14047e-06
1.5996e-07
7.61847e-07
-5.15383e-07
-1.19758e-06
1.00969e-07
-0.00114188
-1.48209e-06
7.79594e-07
3.86095e-07
0.00114222
-4.7302e-07
1.13769e-06
1.57098e-07
7.6184e-07
-5.15444e-07
-1.19768e-06
1.01079e-07
-0.000276478
1.51377e-06
1.47662e-06
-4.5046e-07
-4.53542e-07
0.000274392
-7.58477e-07
-7.58904e-07
-0.00115813
4.10135e-07
4.10783e-07
0.00115883
-0.00114331
-1.47458e-06
7.58503e-07
3.71246e-07
0.00114361
-4.64226e-07
1.14567e-06
1.66147e-07
7.69122e-07
-5.01071e-07
-1.18138e-06
1.09081e-07
-0.00114318
-1.47186e-06
7.58672e-07
3.77011e-07
0.00114348
-4.61399e-07
1.14293e-06
1.63305e-07
7.69112e-07
-5.01142e-07
-1.1815e-06
1.09152e-07
-0.000276378
1.50356e-06
1.46641e-06
-4.37349e-07
-4.40411e-07
0.000274286
-7.37141e-07
-7.37548e-07
-0.00116088
4.01804e-07
4.02493e-07
0.00116155
-0.00114442
-1.46373e-06
7.37267e-07
3.61796e-07
0.00114468
-4.52806e-07
1.15084e-06
1.72044e-07
7.76329e-07
-4.8685e-07
-1.16513e-06
1.1709e-07
-0.00114429
-1.46091e-06
7.37231e-07
3.67531e-07
0.00114454
-4.49978e-07
1.14812e-06
1.69268e-07
7.76366e-07
-4.86936e-07
-1.16519e-06
1.17176e-07
-0.000276232
1.49263e-06
1.45544e-06
-4.24195e-07
-4.27261e-07
0.000274135
-7.1506e-07
-7.15327e-07
-0.00116352
3.93081e-07
3.93808e-07
0.00116417
-0.00114534
-1.4522e-06
7.15193e-07
3.52185e-07
0.00114555
-4.41591e-07
1.15612e-06
1.77925e-07
7.83418e-07
-4.72983e-07
-1.14905e-06
1.24926e-07
-0.00114521
-1.4494e-06
7.15084e-07
3.57788e-07
0.00114541
-4.38798e-07
1.15338e-06
1.75067e-07
7.83513e-07
-4.73009e-07
-1.14905e-06
1.25075e-07
-0.000276047
1.4811e-06
1.44394e-06
-4.11169e-07
-4.14169e-07
0.000273947
-6.92332e-07
-6.92676e-07
-0.00116605
3.84229e-07
3.84969e-07
0.00116667
-0.00114608
-1.4401e-06
6.92546e-07
3.41491e-07
0.00114624
-4.30591e-07
1.16153e-06
1.83824e-07
7.90397e-07
-4.59488e-07
-1.13324e-06
1.32585e-07
-0.00114595
-1.4374e-06
6.92347e-07
3.47198e-07
0.0011461
-4.27856e-07
1.15875e-06
1.80916e-07
7.9055e-07
-4.59435e-07
-1.13321e-06
1.32803e-07
-0.000275831
1.46905e-06
1.43192e-06
-3.98278e-07
-4.01242e-07
0.000273729
-6.68933e-07
-6.69307e-07
-0.00116848
3.75129e-07
3.75826e-07
0.00116906
-0.00114663
-1.42781e-06
6.69339e-07
3.29929e-07
0.00114675
-4.19724e-07
1.16688e-06
1.89596e-07
7.97287e-07
-4.46293e-07
-1.11772e-06
1.4015e-07
-0.0011465
-1.42513e-06
6.69013e-07
3.35759e-07
0.00114662
-4.17036e-07
1.16411e-06
1.86688e-07
7.97461e-07
-4.46193e-07
-1.11766e-06
1.40438e-07
-0.000275592
1.45679e-06
1.41971e-06
-3.85758e-07
-3.8869e-07
0.00027349
-6.44936e-07
-6.45346e-07
-0.00117078
3.65775e-07
3.66495e-07
0.00117134
-0.00114702
-1.41543e-06
6.4549e-07
3.17832e-07
0.0011471
-4.0915e-07
1.17221e-06
1.95283e-07
8.03896e-07
-4.33451e-07
-1.10266e-06
1.47616e-07
-0.00114689
-1.41274e-06
6.45087e-07
3.23659e-07
0.00114697
-4.06484e-07
1.16942e-06
1.92339e-07
8.04075e-07
-4.33394e-07
-1.10246e-06
1.47862e-07
-0.000275336
1.44443e-06
1.40734e-06
-3.73619e-07
-3.76507e-07
0.000273235
-6.20373e-07
-6.20757e-07
-0.00117297
3.50553e-07
3.56884e-07
0.0011735
-0.00114726
-1.40311e-06
6.21037e-07
3.04948e-07
0.0011473
-3.98889e-07
1.17752e-06
2.00798e-07
8.10327e-07
-4.20974e-07
-1.08807e-06
1.54903e-07
-0.00114713
-1.40046e-06
6.20586e-07
3.10808e-07
0.00114716
-3.96176e-07
1.17472e-06
1.97883e-07
8.10504e-07
-4.20913e-07
-1.08791e-06
1.55167e-07
-0.000275071
1.4321e-06
1.39502e-06
-3.61902e-07
-3.64801e-07
0.000272971
-5.9549e-07
-5.95852e-07
-0.00117503
3.41018e-07
3.4738e-07
0.00117554
-0.00114735
-1.39101e-06
5.96173e-07
2.91373e-07
0.00114736
-3.88935e-07
1.18262e-06
2.06162e-07
8.16554e-07
-4.08947e-07
-1.07398e-06
1.61994e-07
-0.00114722
-1.38832e-06
5.95685e-07
2.97184e-07
0.00114722
-3.86229e-07
1.17986e-06
2.03269e-07
8.16741e-07
-4.08892e-07
-1.0738e-06
1.62225e-07
-0.000274801
1.42004e-06
1.38293e-06
-3.50734e-07
-3.53646e-07
0.000272703
-5.70353e-07
-5.70696e-07
-0.00117698
3.31549e-07
3.37969e-07
0.00117745
-0.00114731
-1.37917e-06
5.70886e-07
2.76939e-07
0.00114729
-3.79299e-07
1.18756e-06
2.11356e-07
8.22585e-07
-3.97331e-07
-1.06041e-06
1.68854e-07
-0.00114718
-1.37645e-06
5.70458e-07
2.82791e-07
0.00114715
-3.76584e-07
1.18476e-06
2.08513e-07
8.22738e-07
-3.97311e-07
-1.06032e-06
1.6906e-07
-0.000274531
1.40814e-06
1.37107e-06
-3.40048e-07
-3.42941e-07
0.000272434
-5.45029e-07
-5.45336e-07
-0.00117879
3.22152e-07
3.28565e-07
0.00117923
-0.00114716
-1.36773e-06
5.45426e-07
2.61993e-07
0.00114711
-3.70031e-07
1.19218e-06
2.16385e-07
8.28319e-07
-3.86205e-07
-1.04746e-06
1.75448e-07
-0.00114703
-1.36499e-06
5.45046e-07
2.67762e-07
0.00114698
-3.67266e-07
1.18949e-06
2.13562e-07
8.28479e-07
-3.86183e-07
-1.04741e-06
1.75632e-07
-0.000274262
1.39662e-06
1.35955e-06
-3.29892e-07
-3.32774e-07
0.000272169
-5.19562e-07
-5.19793e-07
-0.00118048
3.12793e-07
3.19228e-07
0.00118089
-0.00114691
-1.35661e-06
5.19724e-07
2.46346e-07
0.00114684
-3.6109e-07
1.19657e-06
2.2124e-07
8.33793e-07
-3.75567e-07
-1.03507e-06
1.81738e-07
-0.00114678
-1.35386e-06
5.1946e-07
2.52078e-07
0.0011467
-3.58333e-07
1.19392e-06
2.18427e-07
8.33967e-07
-3.75583e-07
-1.035e-06
1.81885e-07
-0.000273999
1.38546e-06
1.34843e-06
-3.20251e-07
-3.23124e-07
0.000271908
-4.9391e-07
-4.9415e-07
-0.00118204
3.03364e-07
3.09816e-07
0.00118241
-0.00114657
-1.34591e-06
4.9395e-07
2.30239e-07
0.00114648
-3.52506e-07
1.20078e-06
2.25883e-07
8.3907e-07
-3.65407e-07
-1.02332e-06
1.87734e-07
-0.00114644
-1.3432e-06
4.93741e-07
2.35935e-07
0.00114634
-3.49724e-07
1.19812e-06
2.23094e-07
8.39213e-07
-3.65456e-07
-1.02328e-06
1.87907e-07
-0.000273742
1.37474e-06
1.33774e-06
-3.11127e-07
-3.13985e-07
0.000271654
-4.68089e-07
-4.68316e-07
-0.00118346
2.93785e-07
3.00212e-07
0.00118381
-0.00114616
-1.33566e-06
4.68125e-07
2.13826e-07
0.00114606
-3.44285e-07
1.20474e-06
2.30314e-07
8.44154e-07
-3.55767e-07
-1.01208e-06
1.9338e-07
-0.00114603
-1.33292e-06
4.67951e-07
2.19534e-07
0.00114592
-3.41484e-07
1.2021e-06
2.27548e-07
8.44182e-07
-3.5578e-07
-1.0121e-06
1.93541e-07
-0.000273493
1.36451e-06
1.3275e-06
-3.0252e-07
-3.05389e-07
0.000271409
-4.42095e-07
-4.4242e-07
-0.00118476
2.84009e-07
2.90382e-07
0.00118507
-0.00114569
-1.32586e-06
4.42191e-07
1.97315e-07
0.00114557
-3.36429e-07
1.2084e-06
2.3451e-07
8.48861e-07
-3.46546e-07
-1.00145e-06
1.98771e-07
-0.00114556
-1.32313e-06
4.4211e-07
2.03009e-07
0.00114543
-3.33611e-07
1.20569e-06
2.31792e-07
8.48869e-07
-3.46565e-07
-1.00148e-06
1.98923e-07
-0.000273252
1.35473e-06
1.31772e-06
-2.94374e-07
-2.97276e-07
0.000271171
-4.16051e-07
-4.16438e-07
-0.00118593
2.79856e-07
2.80234e-07
0.0011862
-0.00114517
-1.31653e-06
4.16205e-07
1.80872e-07
0.00114504
-3.28887e-07
1.21176e-06
2.38463e-07
8.53304e-07
-3.3774e-07
-9.91373e-07
2.03922e-07
-0.00114504
-1.31381e-06
4.16222e-07
1.86688e-07
0.0011449
-3.26184e-07
1.20913e-06
2.35734e-07
8.53249e-07
-3.37804e-07
-9.91436e-07
2.04018e-07
-0.000273021
1.34538e-06
1.30839e-06
-2.86697e-07
-2.89611e-07
0.000270943
-3.90191e-07
-3.90377e-07
-0.00118697
2.69543e-07
2.69877e-07
0.00118721
-0.00114462
-1.30767e-06
3.90243e-07
1.64722e-07
0.00114448
-3.21886e-07
1.21498e-06
2.42157e-07
8.57511e-07
-3.29373e-07
-9.81816e-07
2.08808e-07
-0.00114448
-1.30496e-06
3.9035e-07
1.70496e-07
0.00114434
-3.19089e-07
1.21226e-06
2.39406e-07
8.57459e-07
-3.29447e-07
-9.81878e-07
2.08885e-07
-0.000272799
1.33661e-06
1.29961e-06
-2.79575e-07
-2.82467e-07
0.000270725
-3.64097e-07
-3.64421e-07
-0.00118789
2.58835e-07
2.5909e-07
0.0011881
-0.00114404
-1.29932e-06
3.64254e-07
1.49026e-07
0.00114389
-3.15205e-07
1.21788e-06
2.45582e-07
8.61499e-07
-3.21395e-07
-9.7274e-07
2.13432e-07
-0.0011439
-1.29662e-06
3.64432e-07
1.54766e-07
0.00114375
-3.12442e-07
1.21517e-06
2.42826e-07
8.61457e-07
-3.21489e-07
-9.72813e-07
2.13488e-07
-0.000272586
1.3282e-06
1.29123e-06
-2.7282e-07
-2.75699e-07
0.000270516
-3.38287e-07
-3.38608e-07
-0.00118869
2.47763e-07
2.47986e-07
0.00118887
-0.00114344
-1.29146e-06
3.38468e-07
1.33865e-07
0.00114329
-3.08931e-07
1.22048e-06
2.48739e-07
8.65292e-07
-3.13853e-07
-9.64182e-07
2.17787e-07
-0.0011433
-1.28875e-06
3.38615e-07
1.3957e-07
0.00114315
-3.06167e-07
1.21782e-06
2.4598e-07
8.65238e-07
-3.13921e-07
-9.64222e-07
2.17851e-07
-0.000272384
1.32028e-06
1.28338e-06
-2.66562e-07
-2.69394e-07
0.000270316
-3.12643e-07
-3.12906e-07
-0.00118937
2.36205e-07
2.36473e-07
0.00118952
-0.00114283
-1.28403e-06
3.12863e-07
1.19406e-07
0.00114268
-3.03037e-07
1.22289e-06
2.51665e-07
8.68811e-07
-3.06653e-07
-9.56038e-07
2.21893e-07
-0.00114269
-1.2813e-06
3.12923e-07
1.25041e-07
0.00114254
-3.00299e-07
1.22017e-06
2.48894e-07
8.68808e-07
-3.06741e-07
-9.56088e-07
2.21972e-07
-0.000272191
1.31291e-06
1.27607e-06
-2.60804e-07
-2.63571e-07
0.000270127
-2.87279e-07
-2.87474e-07
-0.00118994
2.24235e-07
2.24521e-07
0.00119007
-0.00114221
-1.27707e-06
2.87428e-07
1.05553e-07
0.00114207
-2.97529e-07
1.22509e-06
2.5431e-07
8.72226e-07
-2.99853e-07
-9.48323e-07
2.25799e-07
-0.00114208
-1.27441e-06
2.87454e-07
1.11196e-07
0.00114192
-2.94803e-07
1.22236e-06
2.51561e-07
8.72233e-07
-2.99862e-07
-9.48331e-07
2.25886e-07
-0.000272008
1.30584e-06
1.26908e-06
-2.55358e-07
-2.58044e-07
0.000269947
-2.62211e-07
-2.6231e-07
-0.00119041
2.11788e-07
2.12103e-07
0.00119051
-0.0011416
-1.27054e-06
2.62308e-07
9.26482e-08
0.00114146
-2.92417e-07
1.227e-06
2.5671e-07
8.75387e-07
-2.93333e-07
-9.41033e-07
2.29471e-07
-0.00114147
-1.26783e-06
2.62241e-07
9.82495e-08
0.00114131
-2.89667e-07
1.22428e-06
2.53946e-07
8.75424e-07
-2.93391e-07
-9.41034e-07
2.29568e-07
-0.000271835
1.29929e-06
1.26258e-06
-2.50319e-07
-2.52993e-07
0.000269776
-2.37474e-07
-2.37477e-07
-0.00119077
1.98836e-07
1.99207e-07
0.00119085
-0.001141
-1.26444e-06
2.37502e-07
8.06615e-08
0.00114085
-2.87652e-07
1.22873e-06
2.58891e-07
8.78403e-07
-2.8724e-07
-9.34158e-07
2.32918e-07
-0.00114086
-1.26171e-06
2.37383e-07
8.61082e-08
0.00114071
-2.84895e-07
1.22607e-06
2.56132e-07
8.78446e-07
-2.8728e-07
-9.34133e-07
2.33041e-07
-0.000271672
1.29312e-06
1.25644e-06
-2.45622e-07
-2.48275e-07
0.000269616
1.54297e-06
1.50313e-06
-4.76462e-07
-4.82012e-07
0.000274496
-0.000276584
-1.1739e-06
-1.1338e-06
0.000276599
-0.000274507
1.05225e-07
1.10662e-07
4.06446e-07
0.0011387
-5.04595e-07
1.16958e-06
1.52816e-07
7.52701e-07
-5.4506e-07
8.45321e-08
-1.23514e-06
-0.00113826
-1.54031e-06
8.18722e-07
4.06346e-07
0.00113877
-5.04656e-07
1.16695e-06
1.52736e-07
7.5274e-07
-5.4219e-07
8.14385e-08
-1.23488e-06
-0.00113833
0.00113996
8.03883e-07
-0.00113955
3.99412e-07
-1.53667e-06
1.57668e-07
-4.95881e-07
-1.2234e-06
9.07244e-08
-5.34002e-07
7.58183e-07
1.17123e-06
0.00114003
8.04039e-07
-0.00113962
3.99254e-07
-1.53406e-06
1.57571e-07
-4.95937e-07
-1.22313e-06
8.76384e-08
-5.31111e-07
7.58232e-07
-4.76745e-07
-4.78938e-07
0.000274477
-0.000276565
-1.13366e-06
0.00027658
-0.000274488
1.05361e-07
1.07862e-07
4.05122e-07
0.0011397
-4.99122e-07
1.12947e-06
1.47012e-07
7.52699e-07
-5.45024e-07
8.47895e-08
-1.23495e-06
-0.00113926
-1.53483e-06
8.1811e-07
4.06508e-07
0.00113866
-5.04639e-07
1.16154e-06
1.52885e-07
7.52785e-07
-5.4217e-07
8.15722e-08
-1.23482e-06
-0.00113822
0.00114096
8.04652e-07
-0.00114055
3.98121e-07
-1.4968e-06
1.5189e-07
-4.9044e-07
-1.2232e-06
9.09714e-08
-5.3389e-07
7.58192e-07
1.16581e-06
0.00113991
8.03728e-07
-0.00113951
3.99376e-07
-1.52857e-06
1.57749e-07
-4.95916e-07
-1.22307e-06
8.76992e-08
-5.31034e-07
7.58239e-07
8.18105e-07
4.06585e-07
0.00113828
-5.01592e-07
1.15855e-06
1.49954e-07
7.44606e-07
-5.39192e-07
7.83752e-08
-1.22632e-06
-0.00113783
8.04115e-07
-0.0011401
4.03454e-07
-1.4965e-06
1.51967e-07
-4.90178e-07
-1.21757e-06
9.07695e-08
7.52773e-07
-5.33671e-07
1.16288e-06
0.00113953
8.03092e-07
-0.00113913
3.99448e-07
-1.52546e-06
1.54813e-07
-4.92906e-07
-1.21456e-06
8.46109e-08
-5.2811e-07
7.50097e-07
-4.76783e-07
-4.81634e-07
0.000274463
-0.00027654
-1.13093e-06
0.000276555
-0.000274474
1.05431e-07
1.10697e-07
8.19404e-07
4.05097e-07
0.00113926
-4.99035e-07
1.12116e-06
1.47028e-07
7.49744e-07
-5.44963e-07
8.48438e-08
-1.23195e-06
-0.00113882
8.04506e-07
-0.00113997
3.98026e-07
-1.49374e-06
1.49043e-07
-4.8745e-07
-1.21777e-06
9.09317e-08
7.52745e-07
-5.33829e-07
1.12546e-06
0.00114052
8.0492e-07
-0.00114011
3.97813e-07
-1.48839e-06
1.51891e-07
-4.90352e-07
-1.22018e-06
9.0932e-08
-5.33782e-07
7.55195e-07
-0.000274449
1.05221e-07
1.08031e-07
1.53443e-06
1.49455e-06
-4.63734e-07
-4.69289e-07
0.000274503
-1.17936e-06
-1.13926e-06
0.000276554
-0.000274469
1.14223e-07
1.19671e-07
3.97066e-07
0.00114035
-4.92926e-07
1.17531e-06
1.59311e-07
7.59985e-07
-5.30298e-07
-1.21939e-06
9.27288e-08
-1.53183e-06
7.99059e-07
3.97001e-07
0.00114042
-4.93048e-07
1.17265e-06
1.5918e-07
7.60057e-07
-5.2742e-07
-1.21912e-06
8.96896e-08
0.00114146
7.84274e-07
-0.0011411
3.89638e-07
-1.5274e-06
1.64037e-07
-4.84367e-07
-1.20741e-06
9.87828e-08
-5.19313e-07
7.65441e-07
1.17673e-06
0.00114153
7.84204e-07
-0.00114118
3.89506e-07
-1.52475e-06
1.63975e-07
-4.84451e-07
-1.20708e-06
9.58116e-08
-5.16357e-07
7.6549e-07
-4.63996e-07
-4.66281e-07
0.000274484
-1.13913e-06
0.000276534
-0.00027445
1.14381e-07
1.16868e-07
3.95703e-07
0.00114135
-4.87463e-07
1.13521e-06
1.53565e-07
7.6001e-07
-5.30199e-07
-1.21917e-06
9.2984e-08
-1.52632e-06
7.9882e-07
3.96899e-07
0.00114031
-4.93096e-07
1.16723e-06
1.5934e-07
7.60078e-07
-5.27353e-07
-1.21908e-06
8.97779e-08
0.00114246
7.84884e-07
-0.0011421
3.88375e-07
-1.48751e-06
1.58305e-07
-4.78937e-07
-1.20717e-06
9.90557e-08
-5.19188e-07
7.65485e-07
1.1713e-06
0.00114142
7.8392e-07
-0.00114106
3.89596e-07
-1.51926e-06
1.6415e-07
-4.84404e-07
-1.20707e-06
9.58628e-08
-5.1637e-07
7.65488e-07
7.98126e-07
3.97241e-07
0.00113993
-4.90046e-07
1.16428e-06
1.56398e-07
7.51901e-07
-5.24428e-07
8.66758e-08
-1.21061e-06
7.84421e-07
-0.00114165
3.93795e-07
-1.4872e-06
1.58354e-07
-4.78738e-07
-1.2016e-06
9.89258e-08
7.60037e-07
-5.18971e-07
1.16833e-06
0.00114103
7.8331e-07
-0.00114068
3.89664e-07
-1.51619e-06
1.61208e-07
-4.8139e-07
-1.19856e-06
9.29006e-08
-5.13401e-07
7.57366e-07
-4.64091e-07
-4.68903e-07
0.00027447
-1.13636e-06
0.000276509
-0.000274436
1.14332e-07
1.19738e-07
7.99937e-07
3.95655e-07
0.00114091
-4.87454e-07
1.12685e-06
1.53519e-07
7.57034e-07
-5.3018e-07
9.29389e-08
-1.21622e-06
7.84668e-07
-0.00114152
3.88402e-07
-1.4845e-06
1.55511e-07
-4.76013e-07
-1.20173e-06
9.90763e-08
7.60032e-07
-5.19093e-07
1.13093e-06
0.00114202
7.85049e-07
-0.00114166
3.88103e-07
-1.47907e-06
1.58358e-07
-4.78818e-07
-1.20415e-06
9.90514e-08
-5.19117e-07
7.62476e-07
-0.00027441
1.14247e-07
1.1704e-07
1.52495e-06
1.48506e-06
-4.50693e-07
-4.56226e-07
0.00027445
-1.18461e-06
-1.14449e-06
0.000276454
-0.000274376
1.22792e-07
1.28268e-07
3.87271e-07
0.0011418
-4.81454e-07
1.18072e-06
1.65634e-07
7.67231e-07
-5.1565e-07
-1.20337e-06
1.00789e-07
-1.52235e-06
7.79127e-07
3.87188e-07
0.00114188
-4.81514e-07
1.17806e-06
1.65554e-07
7.67297e-07
-5.12722e-07
-1.20303e-06
9.7828e-08
0.00114276
7.63768e-07
-0.00114246
3.80403e-07
-1.5174e-06
1.70269e-07
-4.72747e-07
-1.19125e-06
1.06844e-07
-5.04922e-07
7.72701e-07
1.18197e-06
0.00114284
7.63747e-07
-0.00114253
3.80298e-07
-1.51475e-06
1.70216e-07
-4.72794e-07
-1.19096e-06
1.03907e-07
-5.02005e-07
7.72744e-07
-4.5096e-07
-4.532e-07
0.000274431
-1.14436e-06
0.000276435
-0.000274357
1.22954e-07
1.25467e-07
3.86009e-07
0.00114281
-4.76006e-07
1.14061e-06
1.59921e-07
7.67292e-07
-5.15543e-07
-1.20311e-06
1.01069e-07
-1.51686e-06
7.78873e-07
3.87264e-07
0.00114176
-4.81454e-07
1.17262e-06
1.65746e-07
7.67318e-07
-5.12721e-07
-1.20305e-06
9.78829e-08
0.00114377
7.64213e-07
-0.00114346
3.79197e-07
-1.47753e-06
1.64565e-07
-4.67299e-07
-1.19098e-06
1.07125e-07
-5.04793e-07
7.72776e-07
1.1765e-06
0.00114272
7.63406e-07
-0.00114241
3.8033e-07
-1.50927e-06
1.70396e-07
-4.72749e-07
-1.19088e-06
1.03956e-07
-5.01919e-07
7.72782e-07
7.78295e-07
3.87369e-07
0.00114138
-4.78486e-07
1.16967e-06
1.62758e-07
7.59183e-07
-5.09763e-07
9.49207e-08
-1.19456e-06
7.63708e-07
-0.00114301
3.84656e-07
-1.47722e-06
1.64618e-07
-4.67106e-07
-1.18542e-06
1.07023e-07
7.67392e-07
-5.04628e-07
1.17365e-06
0.00114234
7.62574e-07
-0.00114203
3.80414e-07
-1.50617e-06
1.67449e-07
-4.69757e-07
-1.18242e-06
1.01048e-07
-4.99007e-07
7.64657e-07
-4.51088e-07
-4.55879e-07
0.000274417
-1.1416e-06
0.00027641
-0.000274343
1.22959e-07
1.28271e-07
7.7995e-07
3.85829e-07
0.00114237
-4.759e-07
1.13228e-06
1.59946e-07
7.64293e-07
-5.15478e-07
1.0105e-07
-1.20011e-06
7.64003e-07
-0.00114288
3.79235e-07
-1.47448e-06
1.61769e-07
-4.64315e-07
-1.18559e-06
1.0715e-07
7.67303e-07
-5.04686e-07
1.13627e-06
0.00114333
7.6461e-07
-0.00114302
3.78777e-07
-1.46902e-06
1.64633e-07
-4.67168e-07
-1.18801e-06
1.0708e-07
-5.047e-07
7.69725e-07
-0.000274317
1.22872e-07
1.25672e-07
1.51471e-06
1.47484e-06
-4.37571e-07
-4.43098e-07
0.000274345
-1.1898e-06
-1.14968e-06
0.000276308
-0.000274236
1.31091e-07
1.3653e-07
3.78103e-07
0.00114306
-4.69837e-07
1.18595e-06
1.71824e-07
7.74497e-07
-5.01387e-07
-1.18715e-06
1.08816e-07
-1.51211e-06
7.58399e-07
3.78045e-07
0.00114313
-4.69896e-07
1.1833e-06
1.71748e-07
7.74542e-07
-4.98455e-07
-1.18688e-06
1.05905e-07
0.00114387
7.42533e-07
-0.00114361
3.71038e-07
-1.5066e-06
1.76265e-07
-4.61274e-07
-1.17496e-06
1.14836e-07
-4.90717e-07
7.7993e-07
1.18716e-06
0.00114395
7.42397e-07
-0.00114369
3.70991e-07
-1.504e-06
1.76244e-07
-4.61294e-07
-1.17467e-06
1.11978e-07
-4.87797e-07
7.79981e-07
-4.37838e-07
-4.4006e-07
0.000274326
-1.14953e-06
0.000276289
-0.000274217
1.31246e-07
1.33735e-07
3.76905e-07
0.00114406
-4.64428e-07
1.14583e-06
1.66118e-07
7.74587e-07
-5.01232e-07
-1.18688e-06
1.09126e-07
-1.50666e-06
7.58112e-07
3.78041e-07
0.00114301
-4.69832e-07
1.17782e-06
1.71929e-07
7.74605e-07
-4.98378e-07
-1.18681e-06
1.05965e-07
0.00114488
7.42926e-07
-0.00114462
3.69926e-07
-1.46673e-06
1.70549e-07
-4.55859e-07
-1.17467e-06
1.15163e-07
-4.9055e-07
7.80028e-07
1.18173e-06
0.00114383
7.41992e-07
-0.00114357
3.71029e-07
-1.49852e-06
1.7642e-07
-4.61259e-07
-1.17458e-06
1.12e-07
-4.87772e-07
7.80053e-07
7.5731e-07
3.78183e-07
0.00114263
-4.66861e-07
1.17486e-06
1.68986e-07
7.66464e-07
-4.95444e-07
1.03069e-07
-1.17836e-06
7.42596e-07
-0.00114417
3.75357e-07
-1.4665e-06
1.70589e-07
-4.55678e-07
-1.16916e-06
1.15079e-07
7.74578e-07
-4.90339e-07
1.17881e-06
0.00114345
7.41405e-07
-0.00114319
3.70969e-07
-1.49538e-06
1.73454e-07
-4.58292e-07
-1.16616e-06
1.09128e-07
-4.84791e-07
7.71881e-07
-4.37941e-07
-4.42768e-07
0.000274312
-1.14683e-06
0.000276263
-0.000274203
1.31287e-07
1.3657e-07
7.5925e-07
3.76588e-07
0.00114362
-4.64272e-07
1.13749e-06
1.66175e-07
7.71555e-07
-5.01128e-07
1.09091e-07
-1.18394e-06
7.4263e-07
-0.00114404
3.69843e-07
-1.46373e-06
1.67796e-07
-4.52834e-07
-1.16928e-06
1.15201e-07
7.74579e-07
-4.90439e-07
1.14147e-06
0.00114444
7.43079e-07
-0.00114418
3.69418e-07
-1.4582e-06
1.70674e-07
-4.55676e-07
-1.17173e-06
1.15135e-07
-4.90513e-07
7.77067e-07
-0.000274177
1.31167e-07
1.33939e-07
1.50383e-06
1.46395e-06
-4.24461e-07
-4.29971e-07
0.000274195
-1.19503e-06
-1.15493e-06
0.000276123
-0.000274057
1.39072e-07
1.44589e-07
3.68656e-07
0.00114412
-4.58427e-07
1.19111e-06
1.7774e-07
7.81712e-07
-4.87154e-07
-1.17088e-06
1.16819e-07
-1.50124e-06
7.36967e-07
3.6861e-07
0.00114419
-4.58462e-07
1.18848e-06
1.77717e-07
7.81762e-07
-4.84284e-07
-1.1706e-06
1.13963e-07
0.00114479
7.20712e-07
-0.00114458
3.6141e-07
-1.49531e-06
1.82046e-07
-4.50048e-07
-1.15877e-06
1.22806e-07
-4.76691e-07
7.87082e-07
1.19238e-06
0.00114486
7.20514e-07
-0.00114465
3.61323e-07
-1.4926e-06
1.81983e-07
-4.50024e-07
-1.15849e-06
1.1995e-07
-4.73801e-07
7.87116e-07
-4.24745e-07
-4.26951e-07
0.000274175
-1.15477e-06
0.000276104
-0.000274037
1.39206e-07
1.41778e-07
3.67469e-07
0.00114513
-4.53002e-07
1.15099e-06
1.72024e-07
7.81822e-07
-4.87031e-07
-1.1706e-06
1.17177e-07
-1.4957e-06
7.36552e-07
3.68613e-07
0.00114407
-4.58397e-07
1.18303e-06
1.77895e-07
7.81847e-07
-4.84246e-07
-1.17051e-06
1.14009e-07
0.0011458
7.20936e-07
-0.00114559
3.60452e-07
-1.45542e-06
1.76426e-07
-4.44597e-07
-1.15849e-06
1.23042e-07
-4.76517e-07
7.87148e-07
1.18694e-06
0.00114474
7.20157e-07
-0.00114453
3.61125e-07
-1.48714e-06
1.82173e-07
-4.49996e-07
-1.15839e-06
1.20001e-07
-4.73748e-07
7.8721e-07
7.36018e-07
3.68632e-07
0.00114369
-4.55451e-07
1.18008e-06
1.74931e-07
7.73658e-07
-4.81276e-07
1.11134e-07
-1.16211e-06
7.20695e-07
-0.00114514
3.6581e-07
-1.45508e-06
1.76436e-07
-4.44408e-07
-1.15303e-06
1.22934e-07
7.81683e-07
-4.76391e-07
1.18401e-06
0.00114436
7.19648e-07
-0.00114415
3.61228e-07
-1.48405e-06
1.79276e-07
-4.46998e-07
-1.15003e-06
1.17109e-07
-4.70802e-07
7.79007e-07
-4.24786e-07
-4.29606e-07
0.000274161
-1.15204e-06
0.000276078
-0.000274023
1.3922e-07
1.44579e-07
7.37643e-07
3.67076e-07
0.00114468
-4.52846e-07
1.14274e-06
1.72109e-07
7.78875e-07
-4.86951e-07
1.17141e-07
-1.16767e-06
7.20685e-07
-0.001145
3.60203e-07
-1.45232e-06
1.73587e-07
-4.41587e-07
-1.15308e-06
1.23136e-07
7.81748e-07
-4.76425e-07
1.14667e-06
0.00114535
7.20959e-07
-0.00114514
3.59916e-07
-1.44687e-06
1.76515e-07
-4.44388e-07
-1.15553e-06
1.23103e-07
-4.76475e-07
7.84243e-07
-0.000273997
1.39127e-07
1.4197e-07
1.49228e-06
1.45239e-06
-4.11389e-07
-4.16881e-07
0.000274006
-1.20029e-06
-1.16024e-06
0.000275907
-0.000273845
1.469e-07
1.52303e-07
3.58923e-07
0.00114499
-4.4728e-07
1.19638e-06
1.8353e-07
7.88828e-07
-4.73258e-07
-1.15477e-06
1.24733e-07
-1.48971e-06
7.14862e-07
3.58943e-07
0.00114506
-4.4726e-07
1.19373e-06
1.83485e-07
7.88883e-07
-4.70374e-07
-1.15447e-06
1.21895e-07
0.00114552
6.98118e-07
-0.00114536
3.51066e-07
-1.48337e-06
1.8789e-07
-4.39011e-07
-1.14282e-06
1.30586e-07
-4.63026e-07
7.9413e-07
1.19772e-06
0.00114559
6.97863e-07
-0.00114543
3.51087e-07
-1.48069e-06
1.87854e-07
-4.39082e-07
-1.14256e-06
1.27727e-07
-4.60155e-07
7.94155e-07
-4.11677e-07
-4.13901e-07
0.000273987
-1.16019e-06
0.000275887
-0.000273826
1.47113e-07
1.49531e-07
3.57928e-07
0.001146
-4.41826e-07
1.15629e-06
1.77912e-07
7.889e-07
-4.73144e-07
-1.15449e-06
1.25002e-07
-1.4842e-06
7.14513e-07
3.58722e-07
0.00114494
-4.47215e-07
1.18828e-06
1.83625e-07
7.88977e-07
-4.70314e-07
-1.15439e-06
1.21957e-07
0.00114653
6.98431e-07
-0.00114637
3.50051e-07
-1.44347e-06
1.82278e-07
-4.33515e-07
-1.14256e-06
1.30836e-07
-4.62901e-07
7.94196e-07
1.19228e-06
0.00114548
6.97454e-07
-0.00114531
3.50936e-07
-1.47515e-06
1.88037e-07
-4.38957e-07
-1.14245e-06
1.2778e-07
-4.60104e-07
7.94229e-07
7.14006e-07
3.5881e-07
0.00114456
-4.4424e-07
1.18536e-06
1.80778e-07
7.80766e-07
-4.67381e-07
1.19056e-07
-1.14601e-06
6.9824e-07
-0.00114591
3.55403e-07
-1.44313e-06
1.82337e-07
-4.33391e-07
-1.13714e-06
1.30663e-07
7.88698e-07
-4.62795e-07
1.18942e-06
0.00114509
6.97084e-07
-0.00114493
3.50806e-07
-1.47206e-06
1.85184e-07
-4.35996e-07
-1.13413e-06
1.24885e-07
-4.57191e-07
7.86015e-07
-4.11748e-07
-4.16536e-07
0.000273973
-1.1574e-06
0.000275862
-0.000273812
1.47071e-07
1.5237e-07
7.15341e-07
3.57495e-07
0.00114555
-4.41648e-07
1.14801e-06
1.77966e-07
7.86022e-07
-4.73023e-07
1.25057e-07
-1.15152e-06
6.98076e-07
-0.00114578
3.49889e-07
-1.44038e-06
1.7945e-07
-4.30582e-07
-1.13715e-06
1.30893e-07
7.88801e-07
-4.62771e-07
1.15207e-06
0.00114609
6.98326e-07
-0.00114592
3.49562e-07
-1.43493e-06
1.82362e-07
-4.33436e-07
-1.13956e-06
1.30871e-07
-4.62813e-07
7.91323e-07
-0.000273786
1.46988e-07
1.49787e-07
1.48031e-06
1.4404e-06
-3.98489e-07
-4.04013e-07
0.000273789
-1.20563e-06
-1.16564e-06
0.000275667
-0.00027361
1.54399e-07
1.59759e-07
3.48287e-07
0.00114568
-4.36274e-07
1.20168e-06
1.8935e-07
7.95883e-07
-4.59663e-07
-1.13888e-06
1.32508e-07
-1.47767e-06
6.92116e-07
3.48314e-07
0.00114575
-4.36296e-07
1.19905e-06
1.89302e-07
7.95925e-07
-4.56794e-07
-1.13861e-06
1.29667e-07
0.00114608
6.74883e-07
-0.00114596
3.39817e-07
-1.47112e-06
1.9366e-07
-4.28145e-07
-1.12719e-06
1.38265e-07
-4.4969e-07
8.01079e-07
1.20297e-06
0.00114615
6.74623e-07
-0.00114603
3.39904e-07
-1.46852e-06
1.9361e-07
-4.28193e-07
-1.12687e-06
1.35462e-07
-4.46792e-07
8.00989e-07
-3.98702e-07
-4.01037e-07
0.000273769
-1.16552e-06
0.000275648
-0.000273591
1.54583e-07
1.56905e-07
3.47316e-07
0.00114669
-4.30799e-07
1.16164e-06
1.8377e-07
7.95932e-07
-4.59556e-07
-1.13863e-06
1.32746e-07
-1.47216e-06
6.91724e-07
3.48191e-07
0.00114563
-4.36245e-07
1.19363e-06
1.89496e-07
7.95998e-07
-4.56771e-07
-1.13852e-06
1.29708e-07
0.00114709
6.7523e-07
-0.00114697
3.38817e-07
-1.4312e-06
1.88128e-07
-4.22656e-07
-1.12695e-06
1.3849e-07
-4.49595e-07
8.01107e-07
1.19762e-06
0.00114603
6.74229e-07
-0.00114591
3.39723e-07
-1.4629e-06
1.93799e-07
-4.28087e-07
-1.12684e-06
1.35466e-07
-4.46787e-07
8.0117e-07
6.91402e-07
3.48185e-07
0.00114525
-4.3325e-07
1.19072e-06
1.86655e-07
7.87746e-07
-4.53855e-07
1.26799e-07
-1.13021e-06
6.75203e-07
-0.00114651
3.44058e-07
-1.43091e-06
1.88184e-07
-4.2243e-07
-1.12154e-06
1.38274e-07
7.95592e-07
-4.49536e-07
1.19473e-06
0.00114565
6.74025e-07
-0.00114553
3.3957e-07
-1.45985e-06
1.90942e-07
-4.25095e-07
-1.11853e-06
1.32563e-07
-4.439e-07
7.92879e-07
-3.98843e-07
-4.03653e-07
0.000273755
-1.16274e-06
0.000275623
-0.000273577
1.54517e-07
1.59843e-07
6.92557e-07
3.46932e-07
0.00114624
-4.30694e-07
1.15338e-06
1.83821e-07
7.93062e-07
-4.59464e-07
1.32808e-07
-1.13564e-06
6.74932e-07
-0.00114638
3.38608e-07
-1.42817e-06
1.85248e-07
-4.19709e-07
-1.12153e-06
1.38551e-07
7.95669e-07
-4.49438e-07
1.15735e-06
0.00114664
6.75061e-07
-0.00114652
3.38478e-07
-1.42276e-06
1.88145e-07
-4.22552e-07
-1.12392e-06
1.38548e-07
-4.49451e-07
7.9828e-07
-0.000273551
1.54361e-07
1.57254e-07
1.46802e-06
1.4281e-06
-3.85893e-07
-3.91436e-07
0.000273549
-1.21093e-06
-1.17098e-06
0.000275412
-0.000273358
1.61503e-07
1.66854e-07
3.3695e-07
0.00114619
-4.25446e-07
1.20698e-06
1.95092e-07
8.02755e-07
-4.46427e-07
-1.12334e-06
1.40142e-07
-1.46543e-06
6.68673e-07
3.37005e-07
0.00114626
-4.25535e-07
1.20431e-06
1.94999e-07
8.02827e-07
-4.43529e-07
-1.12299e-06
1.37353e-07
0.00114647
6.51024e-07
-0.00114638
3.27997e-07
-1.45872e-06
1.99284e-07
-4.17537e-07
-1.11195e-06
1.45785e-07
-4.36718e-07
8.07703e-07
1.2082e-06
0.00114654
6.50713e-07
-0.00114646
3.2813e-07
-1.45621e-06
1.99206e-07
-4.17614e-07
-1.11165e-06
1.43013e-07
-4.3384e-07
8.07824e-07
-3.86102e-07
-3.88505e-07
0.00027353
-1.17085e-06
0.000275393
-0.00027334
1.61691e-07
1.63953e-07
3.35872e-07
0.0011472
-4.19948e-07
1.167e-06
1.89564e-07
8.02833e-07
-4.46334e-07
-1.12313e-06
1.40361e-07
-1.45987e-06
6.68273e-07
3.36826e-07
0.00114614
-4.25399e-07
1.19897e-06
1.95238e-07
8.02838e-07
-4.43542e-07
-1.12302e-06
1.37349e-07
0.00114748
6.51429e-07
-0.0011474
3.26917e-07
-1.41881e-06
1.93812e-07
-4.12018e-07
-1.11181e-06
1.4598e-07
-4.36643e-07
8.07816e-07
1.20287e-06
0.00114642
6.50422e-07
-0.00114634
3.27928e-07
-1.4506e-06
1.9943e-07
-4.17484e-07
-1.11157e-06
1.43012e-07
-4.3384e-07
8.07845e-07
6.68122e-07
3.36799e-07
0.00114576
-4.22428e-07
1.19604e-06
1.92381e-07
7.9461e-07
-4.40656e-07
1.34457e-07
-1.11466e-06
6.51506e-07
-0.00114695
3.32172e-07
-1.41854e-06
1.93849e-07
-4.11806e-07
-1.1064e-06
1.45749e-07
8.02339e-07
-4.36612e-07
1.19999e-06
0.00114604
6.50304e-07
-0.00114596
3.27859e-07
-1.44752e-06
1.96565e-07
-4.14505e-07
-1.10332e-06
1.40104e-07
-4.31016e-07
7.99669e-07
-3.86285e-07
-3.91061e-07
0.000273515
-1.16808e-06
0.000275368
-0.000273325
1.61679e-07
1.6686e-07
6.69048e-07
3.35675e-07
0.00114675
-4.19916e-07
1.15867e-06
1.89545e-07
7.99978e-07
-4.46179e-07
1.40429e-07
-1.12009e-06
6.51133e-07
-0.00114681
3.26702e-07
-1.41583e-06
1.90952e-07
-4.0905e-07
-1.10638e-06
1.46015e-07
8.02439e-07
-4.36529e-07
1.16268e-06
0.00114703
6.51266e-07
-0.00114695
3.26781e-07
-1.41042e-06
1.9379e-07
-4.11947e-07
-1.1088e-06
1.46043e-07
-4.36519e-07
8.04905e-07
-0.0002733
1.61456e-07
1.6434e-07
1.45565e-06
1.41573e-06
-3.73743e-07
-3.79265e-07
0.000273294
-1.21611e-06
-1.17619e-06
0.000275147
-0.000273096
1.6822e-07
1.73587e-07
3.2485e-07
0.00114654
-4.14907e-07
1.21224e-06
2.00681e-07
8.09483e-07
-4.33563e-07
-1.10818e-06
1.47605e-07
-1.45311e-06
6.44611e-07
3.25085e-07
0.00114661
-4.15014e-07
1.20953e-06
2.00596e-07
8.09465e-07
-4.30647e-07
-1.10781e-06
1.44892e-07
0.0011467
6.2658e-07
-0.00114666
3.20879e-07
-1.44643e-06