/*--------------------------------*- C++ -*----------------------------------*\
| =========                 |                                                 |
| \\      /  F ield         | OpenFOAM: The Open Source CFD Toolbox           |
|  \\    /   O peration     | Version:  2312                                  |
|   \\  /    A nd           | Website:  www.openfoam.com                      |
|    \\/     M anipulation  |                                                 |
\*---------------------------------------------------------------------------*/
FoamFile
{
    version     2.0;
    format      ascii;
    arch        "LSB;label=32;scalar=64";
    class       volVectorField;
    location    "800";
    object      U;
}
// * * * * * * * * * * * * * * * * * * * * * * * * * * * * * * * * * * * * * //

dimensions      [0 1 -1 0 0 0 0];

internalField   nonuniform List<vector> 
42840
(
(5.98064e-05 5.97919e-05 0.109207)
(-8.96209e-05 5.57907e-05 0.108145)
(5.57503e-05 -8.9701e-05 0.108144)
(-0.000142272 -0.000142304 0.106657)
(5.85517e-05 5.8538e-05 0.109495)
(-8.73735e-05 5.45624e-05 0.108304)
(5.45265e-05 -8.74164e-05 0.108304)
(-0.000137975 -0.000137996 0.106656)
(5.73065e-05 5.72997e-05 0.109774)
(-8.49936e-05 5.32986e-05 0.108444)
(5.32699e-05 -8.50199e-05 0.108444)
(-0.000133335 -0.000133374 0.106632)
(5.59921e-05 5.59936e-05 0.110044)
(-8.24648e-05 5.19873e-05 0.108566)
(5.19517e-05 -8.24644e-05 0.108565)
(-0.000128477 -0.000128519 0.106589)
(5.46313e-05 5.46394e-05 0.110303)
(-7.98e-05 5.05767e-05 0.108669)
(5.05258e-05 -7.97846e-05 0.108669)
(-0.000123383 -0.000123441 0.106528)
(5.3217e-05 5.32278e-05 0.110553)
(-7.69705e-05 4.90285e-05 0.108754)
(4.90002e-05 -7.69462e-05 0.108754)
(-0.00011819 -0.000118225 0.106454)
(5.17843e-05 5.1793e-05 0.110792)
(-7.40133e-05 4.73186e-05 0.108822)
(4.72878e-05 -7.39743e-05 0.108821)
(-0.000112867 -0.000112895 0.106368)
(5.03315e-05 5.03366e-05 0.111021)
(-7.09342e-05 4.55052e-05 0.108872)
(4.54788e-05 -7.08783e-05 0.108872)
(-0.000107596 -0.000107603 0.106274)
(4.88528e-05 4.88534e-05 0.111239)
(-6.77602e-05 4.35738e-05 0.108908)
(4.35599e-05 -6.77087e-05 0.108907)
(-0.000102375 -0.000102393 0.106175)
(4.73683e-05 4.7364e-05 0.111445)
(-6.45106e-05 4.15598e-05 0.108928)
(4.15442e-05 -6.44549e-05 0.108927)
(-9.7273e-05 -9.72889e-05 0.106073)
(4.58822e-05 4.58752e-05 0.11164)
(-6.12215e-05 3.94758e-05 0.108935)
(3.94659e-05 -6.11647e-05 0.108934)
(-9.23781e-05 -9.24049e-05 0.105969)
(4.44056e-05 4.44119e-05 0.111823)
(-5.79149e-05 3.73232e-05 0.10893)
(3.73099e-05 -5.78624e-05 0.10893)
(-8.76506e-05 -8.76756e-05 0.105865)
(4.2946e-05 4.2948e-05 0.111993)
(-5.4617e-05 3.5116e-05 0.108915)
(3.51063e-05 -5.4568e-05 0.108914)
(-8.31507e-05 -8.31793e-05 0.105763)
(4.14964e-05 4.14991e-05 0.112152)
(-5.13448e-05 3.28863e-05 0.10889)
(3.28659e-05 -5.1305e-05 0.108889)
(-7.88812e-05 -7.88994e-05 0.105663)
(4.00357e-05 4.0041e-05 0.112299)
(-4.81038e-05 3.06433e-05 0.108857)
(3.06211e-05 -4.80757e-05 0.108856)
(-7.48377e-05 -7.48567e-05 0.105565)
(3.85646e-05 3.85709e-05 0.112433)
(-4.49201e-05 2.84089e-05 0.108817)
(2.83773e-05 -4.48972e-05 0.108816)
(-7.10287e-05 -7.10573e-05 0.105471)
(3.70785e-05 3.70788e-05 0.112554)
(-4.17989e-05 2.61898e-05 0.108772)
(2.61604e-05 -4.17818e-05 0.108771)
(-6.74353e-05 -6.74747e-05 0.10538)
(3.55707e-05 3.55588e-05 0.112664)
(-3.87343e-05 2.40215e-05 0.108722)
(2.40064e-05 -3.87351e-05 0.108721)
(-6.40442e-05 -6.40828e-05 0.105293)
(3.40284e-05 3.40181e-05 0.112761)
(-3.57392e-05 2.19253e-05 0.108669)
(2.19079e-05 -3.57501e-05 0.108668)
(-6.09129e-05 -6.09631e-05 0.10521)
(3.24523e-05 3.24366e-05 0.112847)
(-3.28153e-05 1.99035e-05 0.108613)
(1.9894e-05 -3.28343e-05 0.108612)
(-5.79445e-05 -5.79913e-05 0.10513)
(3.08465e-05 3.08313e-05 0.112922)
(-2.99848e-05 1.79803e-05 0.108556)
(1.79663e-05 -2.99949e-05 0.108555)
(-5.51915e-05 -5.52198e-05 0.105054)
(2.91988e-05 2.91868e-05 0.112985)
(-2.72239e-05 1.61528e-05 0.108498)
(1.6139e-05 -2.72381e-05 0.108497)
(-5.26812e-05 -5.26885e-05 0.104982)
(2.75206e-05 2.75126e-05 0.113038)
(-2.45603e-05 1.4419e-05 0.10844)
(1.43995e-05 -2.45605e-05 0.108439)
(-5.02672e-05 -5.02519e-05 0.104913)
(2.58073e-05 2.58069e-05 0.113081)
(-2.19883e-05 1.27938e-05 0.108382)
(1.27786e-05 -2.19832e-05 0.108381)
(-4.80586e-05 -4.80303e-05 0.104849)
(2.40569e-05 2.40663e-05 0.113115)
(-1.95194e-05 1.12658e-05 0.108325)
(1.12506e-05 -1.95087e-05 0.108324)
(-4.59673e-05 -4.59313e-05 0.104788)
(0.000142285 0.000142257 0.106657)
(4.34704e-06 4.3979e-06 0.106843)
(5.59684e-05 8.97593e-05 0.108144)
(-5.59687e-05 8.9742e-05 0.108144)
(5.50482e-05 8.8058e-05 0.108265)
(-5.50561e-05 8.80278e-05 0.108265)
(-0.000142265 0.000142237 0.106657)
(-4.35707e-06 4.39454e-06 0.106843)
(8.97288e-05 5.58402e-05 0.108144)
(8.96982e-05 -5.59543e-05 0.108144)
(8.8018e-05 5.49145e-05 0.108265)
(8.79993e-05 -5.50335e-05 0.108265)
(-8.95115e-05 -5.58891e-05 0.108144)
(-8.79394e-05 5.4878e-05 0.108266)
(-8.78248e-05 -5.4976e-05 0.108265)
(0.000142254 -0.000142303 0.106657)
(4.39222e-06 -4.29824e-06 0.106842)
(-5.57903e-05 -8.97527e-05 0.108144)
(5.48362e-05 -8.79908e-05 0.108266)
(-5.48784e-05 -8.80518e-05 0.108265)
(-4.39336e-06 -4.33597e-06 0.106842)
(0.00013801 0.000137982 0.106656)
(1.80989e-06 1.85936e-06 0.106831)
(5.47267e-05 8.74819e-05 0.108303)
(-5.47448e-05 8.74515e-05 0.108303)
(5.37814e-05 8.57214e-05 0.10841)
(-5.37877e-05 8.56731e-05 0.10841)
(-0.000138004 0.000137969 0.106656)
(-1.80568e-06 1.84749e-06 0.106831)
(8.7439e-05 5.45899e-05 0.108303)
(8.74207e-05 -5.47197e-05 0.108303)
(8.56708e-05 5.36478e-05 0.108411)
(8.56434e-05 -5.37847e-05 0.10841)
(-8.7254e-05 -5.46639e-05 0.108303)
(-8.56029e-05 5.36196e-05 0.108411)
(-8.54766e-05 -5.3707e-05 0.10841)
(0.000137975 -0.000138032 0.106656)
(1.88061e-06 -1.74076e-06 0.106831)
(-5.45682e-05 -8.74765e-05 0.108303)
(5.3588e-05 -8.56304e-05 0.108411)
(-5.361e-05 -8.56853e-05 0.10841)
(-1.84316e-06 -1.80593e-06 0.10683)
(0.000133364 0.000133343 0.106633)
(-6.68341e-07 -6.12982e-07 0.106798)
(5.34636e-05 8.51079e-05 0.108443)
(-5.34706e-05 8.50612e-05 0.108443)
(5.24828e-05 8.32084e-05 0.108536)
(-5.24886e-05 8.31603e-05 0.108536)
(-0.000133369 0.000133343 0.106633)
(6.74759e-07 -6.27296e-07 0.106798)
(8.50541e-05 5.33312e-05 0.108444)
(8.50315e-05 -5.34656e-05 0.108443)
(8.31457e-05 5.23601e-05 0.108537)
(8.31216e-05 -5.24839e-05 0.108536)
(-8.48668e-05 -5.33934e-05 0.108443)
(-8.31029e-05 5.23282e-05 0.108537)
(-8.29768e-05 -5.24064e-05 0.108536)
(0.00013339 -0.000133404 0.106633)
(-6.07107e-07 7.2195e-07 0.106797)
(-5.32933e-05 -8.50751e-05 0.108443)
(5.22875e-05 -8.31106e-05 0.108537)
(-5.23125e-05 -8.31677e-05 0.108536)
(6.82373e-07 7.09377e-07 0.106797)
(0.000128495 0.000128483 0.106589)
(-3.15286e-06 -3.10613e-06 0.106746)
(5.21413e-05 8.25646e-05 0.108565)
(-5.21518e-05 8.25139e-05 0.108564)
(5.10853e-05 8.05796e-05 0.108644)
(-5.10905e-05 8.05225e-05 0.108643)
(-0.000128494 0.000128483 0.106589)
(3.15982e-06 -3.10653e-06 0.106745)
(8.24998e-05 5.20193e-05 0.108565)
(8.2465e-05 -5.21449e-05 0.108564)
(8.05039e-05 5.09758e-05 0.108645)
(8.04617e-05 -5.10807e-05 0.108643)
(-8.23355e-05 -5.20673e-05 0.108565)
(-8.04792e-05 5.09419e-05 0.108645)
(-8.03526e-05 -5.10061e-05 0.108644)
(0.000128526 -0.00012855 0.106589)
(-3.11126e-06 3.22056e-06 0.106745)
(-5.19766e-05 -8.25096e-05 0.108565)
(5.08884e-05 -8.04657e-05 0.108645)
(-5.09175e-05 -8.04975e-05 0.108644)
(3.17083e-06 3.17585e-06 0.106744)
(0.000123441 0.000123422 0.106529)
(-5.67658e-06 -5.61361e-06 0.106677)
(5.07203e-05 7.98949e-05 0.108668)
(-5.07291e-05 7.98396e-05 0.108667)
(4.95841e-05 7.77836e-05 0.108733)
(-4.95917e-05 7.77228e-05 0.108733)
(-0.000123446 0.000123441 0.106529)
(5.68076e-06 -5.61502e-06 0.106677)
(7.9818e-05 5.06114e-05 0.108669)
(7.97779e-05 -5.07119e-05 0.108667)
(7.7703e-05 4.94747e-05 0.108734)
(7.76612e-05 -4.95737e-05 0.108733)
(-7.9673e-05 -5.06454e-05 0.108668)
(-7.76889e-05 4.94423e-05 0.108734)
(-7.75656e-05 -4.94995e-05 0.108733)
(0.000123443 -0.000123461 0.106529)
(-5.60354e-06 5.72246e-06 0.106676)
(-5.05576e-05 -7.9814e-05 0.108668)
(4.94029e-05 -7.76663e-05 0.108734)
(-4.94144e-05 -7.76915e-05 0.108733)
(5.65546e-06 5.68403e-06 0.106676)
(0.000118214 0.000118197 0.106454)
(-8.20693e-06 -8.16527e-06 0.106596)
(4.91759e-05 7.70622e-05 0.108753)
(-4.91871e-05 7.70009e-05 0.108752)
(4.79152e-05 7.48421e-05 0.108805)
(-4.79245e-05 7.4782e-05 0.108804)
(-0.000118235 0.000118235 0.106454)
(8.23906e-06 -8.21142e-06 0.106596)
(7.69845e-05 4.90648e-05 0.108754)
(7.6935e-05 -4.91795e-05 0.108752)
(7.47692e-05 4.77989e-05 0.108806)
(7.47214e-05 -4.79065e-05 0.108804)
(-7.68465e-05 -4.90926e-05 0.108752)
(-7.47619e-05 4.77596e-05 0.108806)
(-7.4642e-05 -4.78161e-05 0.108805)
(0.000118232 -0.000118254 0.106454)
(-8.17561e-06 8.29144e-06 0.106595)
(-4.9006e-05 -7.69682e-05 0.108753)
(4.77245e-05 -7.47263e-05 0.108806)
(-4.77402e-05 -7.47458e-05 0.108805)
(8.2477e-06 8.27585e-06 0.106595)
(0.000112923 0.000112898 0.106368)
(-1.07334e-05 -1.07158e-05 0.106505)
(4.74765e-05 7.40818e-05 0.10882)
(-4.7485e-05 7.40244e-05 0.10882)
(4.61289e-05 7.17668e-05 0.10886)
(-4.61393e-05 7.17082e-05 0.108859)
(-0.000112912 0.000112877 0.106369)
(1.07226e-05 -1.07304e-05 0.106505)
(7.40144e-05 4.73608e-05 0.108821)
(7.3964e-05 -4.7465e-05 0.108819)
(7.17078e-05 4.60149e-05 0.108861)
(7.16586e-05 -4.61178e-05 0.108859)
(-7.38962e-05 -4.739e-05 0.10882)
(-7.17095e-05 4.59707e-05 0.108861)
(-7.15926e-05 -4.6029e-05 0.108859)
(0.000112926 -0.000112934 0.106368)
(-1.07063e-05 1.08241e-05 0.106504)
(-4.73113e-05 -7.39952e-05 0.10882)
(4.59438e-05 -7.16577e-05 0.108861)
(-4.59777e-05 -7.16747e-05 0.10886)
(1.07459e-05 1.07924e-05 0.106504)
(0.000107629 0.000107589 0.106275)
(-1.32208e-05 -1.32072e-05 0.106407)
(4.56607e-05 7.09843e-05 0.108871)
(-4.56818e-05 7.09242e-05 0.10887)
(4.42389e-05 6.86014e-05 0.108899)
(-4.42625e-05 6.85374e-05 0.108898)
(-0.000107639 0.000107572 0.106275)
(1.31873e-05 -1.32212e-05 0.106407)
(7.09272e-05 4.55497e-05 0.108872)
(7.08768e-05 -4.56457e-05 0.10887)
(6.85508e-05 4.41177e-05 0.1089)
(6.84985e-05 -4.42161e-05 0.108898)
(-7.0819e-05 -4.55759e-05 0.108871)
(-6.85611e-05 4.40707e-05 0.1089)
(-6.84484e-05 -4.41535e-05 0.108898)
(0.000107628 -0.00010763 0.106275)
(-1.3203e-05 1.32745e-05 0.106407)
(-4.55216e-05 -7.0894e-05 0.108871)
(4.40467e-05 -6.85081e-05 0.1089)
(-4.40879e-05 -6.85165e-05 0.108899)
(1.3234e-05 1.32671e-05 0.106406)
(0.000102411 0.000102371 0.106175)
(-1.56243e-05 -1.56176e-05 0.106305)
(4.37452e-05 6.77982e-05 0.108906)
(-4.3771e-05 6.77253e-05 0.108905)
(4.22306e-05 6.53469e-05 0.108923)
(-4.22684e-05 6.52822e-05 0.108922)
(-0.00010244 0.000102346 0.106176)
(1.56119e-05 -1.56618e-05 0.106305)
(6.77464e-05 4.36231e-05 0.108907)
(6.76911e-05 -4.37278e-05 0.108905)
(6.53058e-05 4.21201e-05 0.108924)
(6.5259e-05 -4.22254e-05 0.108922)
(-6.76447e-05 -4.36583e-05 0.108905)
(-6.53251e-05 4.20769e-05 0.108924)
(-6.52115e-05 -4.21706e-05 0.108922)
(0.000102394 -0.000102426 0.106175)
(-1.56566e-05 1.57094e-05 0.106304)
(-4.36008e-05 -6.77179e-05 0.108906)
(4.20552e-05 -6.52737e-05 0.108924)
(-4.21013e-05 -6.5278e-05 0.108923)
(1.56949e-05 1.57234e-05 0.106304)
(9.73285e-05 9.72833e-05 0.106073)
(-1.80095e-05 -1.79993e-05 0.106201)
(4.17143e-05 6.45298e-05 0.108926)
(-4.17568e-05 6.4462e-05 0.108926)
(4.01637e-05 6.2066e-05 0.108933)
(-4.02051e-05 6.19973e-05 0.108932)
(-9.73505e-05 9.72494e-05 0.106073)
(1.79993e-05 -1.80367e-05 0.1062)
(6.44897e-05 4.16054e-05 0.108927)
(6.44364e-05 -4.17138e-05 0.108925)
(6.20223e-05 4.00587e-05 0.108934)
(6.19739e-05 -4.01579e-05 0.108932)
(-6.43927e-05 -4.16544e-05 0.108926)
(-6.20411e-05 4.00076e-05 0.108934)
(-6.19329e-05 -4.01054e-05 0.108932)
(9.73145e-05 -9.73642e-05 0.106073)
(-1.80115e-05 1.80687e-05 0.1062)
(-4.15904e-05 -6.44609e-05 0.108927)
(4.00006e-05 -6.19874e-05 0.108934)
(-4.00341e-05 -6.20005e-05 0.108933)
(1.80536e-05 1.80753e-05 0.106199)
(9.24093e-05 9.23726e-05 0.105969)
(-2.02666e-05 -2.02474e-05 0.106095)
(3.96348e-05 6.12413e-05 0.108933)
(-3.96706e-05 6.11743e-05 0.108933)
(3.80133e-05 5.87663e-05 0.108931)
(-3.8055e-05 5.871e-05 0.10893)
(-9.24322e-05 9.23468e-05 0.105969)
(2.02544e-05 -2.02805e-05 0.106095)
(6.11949e-05 3.9519e-05 0.108935)
(6.11504e-05 -3.96241e-05 0.108932)
(5.87238e-05 3.7916e-05 0.108932)
(5.868e-05 -3.80086e-05 0.10893)
(-6.11108e-05 -3.95729e-05 0.108933)
(-5.87355e-05 3.78713e-05 0.108932)
(-5.86297e-05 -3.7949e-05 0.10893)
(9.23861e-05 -9.24302e-05 0.105969)
(-2.02614e-05 2.03168e-05 0.106095)
(-3.94955e-05 -6.11751e-05 0.108934)
(3.78597e-05 -5.86883e-05 0.108932)
(-3.78737e-05 -5.87015e-05 0.108931)
(2.02585e-05 2.0275e-05 0.106094)
(8.76802e-05 8.76581e-05 0.105865)
(-2.23555e-05 -2.2334e-05 0.105991)
(3.74625e-05 5.79409e-05 0.108928)
(-3.75027e-05 5.78856e-05 0.108928)
(3.58054e-05 5.54741e-05 0.108918)
(-3.58362e-05 5.54269e-05 0.108917)
(-8.77021e-05 8.76344e-05 0.105866)
(2.23503e-05 -2.23408e-05 0.105991)
(5.78989e-05 3.73701e-05 0.10893)
(5.78584e-05 -3.74587e-05 0.108927)
(5.5423e-05 3.57091e-05 0.108919)
(5.53884e-05 -3.57923e-05 0.108917)
(-5.78022e-05 -3.73969e-05 0.108928)
(-5.54325e-05 3.56804e-05 0.108919)
(-5.5336e-05 -3.57459e-05 0.108917)
(8.76585e-05 -8.77016e-05 0.105865)
(-2.23737e-05 2.24436e-05 0.10599)
(-3.73269e-05 -5.78808e-05 0.108929)
(3.56633e-05 -5.53874e-05 0.108919)
(-3.56647e-05 -5.54133e-05 0.108918)
(2.23781e-05 2.23884e-05 0.105989)
(8.31608e-05 8.31404e-05 0.105763)
(-2.43315e-05 -2.4304e-05 0.105888)
(3.5243e-05 5.46539e-05 0.108913)
(-3.52702e-05 5.4609e-05 0.108912)
(3.35536e-05 5.22036e-05 0.108895)
(-3.35707e-05 5.21605e-05 0.108894)
(-8.3199e-05 8.31678e-05 0.105763)
(2.4344e-05 -2.43125e-05 0.105887)
(5.46023e-05 3.51504e-05 0.108914)
(5.45679e-05 -3.52258e-05 0.108912)
(5.21567e-05 3.34743e-05 0.108896)
(5.21278e-05 -3.35437e-05 0.108894)
(-5.45145e-05 -3.51839e-05 0.108912)
(-5.21537e-05 3.34514e-05 0.108896)
(-5.20565e-05 -3.34825e-05 0.108894)
(8.31833e-05 -8.32064e-05 0.105763)
(-2.4299e-05 2.43649e-05 0.105887)
(-3.51015e-05 -5.45928e-05 0.108913)
(3.34299e-05 -5.2116e-05 0.108896)
(-3.34178e-05 -5.21401e-05 0.108895)
(2.43292e-05 2.43505e-05 0.105886)
(7.89096e-05 7.88955e-05 0.105663)
(-2.61762e-05 -2.61471e-05 0.105787)
(3.29913e-05 5.13947e-05 0.108888)
(-3.29978e-05 5.13514e-05 0.108887)
(3.12954e-05 4.89677e-05 0.108863)
(-3.12941e-05 4.89307e-05 0.108863)
(-7.89011e-05 7.88901e-05 0.105663)
(2.6146e-05 -2.60976e-05 0.105787)
(5.13486e-05 3.2911e-05 0.108889)
(5.13165e-05 -3.29776e-05 0.108887)
(4.89309e-05 3.12187e-05 0.108865)
(4.88888e-05 -3.12778e-05 0.108862)
(-5.12467e-05 -3.29163e-05 0.108887)
(-4.89164e-05 3.11993e-05 0.108865)
(-4.8821e-05 -3.1227e-05 0.108863)
(7.89016e-05 -7.89277e-05 0.105663)
(-2.61566e-05 2.62212e-05 0.105786)
(-3.28546e-05 -5.13257e-05 0.108888)
(3.11823e-05 -4.88776e-05 0.108865)
(-3.11659e-05 -4.88932e-05 0.108864)
(2.61681e-05 2.61859e-05 0.105785)
(7.48603e-05 7.48487e-05 0.105565)
(-2.78708e-05 -2.78465e-05 0.105689)
(3.07319e-05 4.8167e-05 0.108855)
(-3.07313e-05 4.81298e-05 0.108854)
(2.90546e-05 4.57746e-05 0.108825)
(-2.90336e-05 4.57395e-05 0.108825)
(-7.48378e-05 7.48417e-05 0.105566)
(2.78702e-05 -2.7823e-05 0.105689)
(4.8128e-05 3.06519e-05 0.108856)
(4.80873e-05 -3.07158e-05 0.108854)
(4.57355e-05 2.89806e-05 0.108827)
(4.5695e-05 -2.90274e-05 0.108824)
(-4.80195e-05 -3.06581e-05 0.108854)
(-4.57277e-05 2.89645e-05 0.108827)
(-4.56313e-05 -2.89833e-05 0.108824)
(7.4876e-05 -7.49017e-05 0.105565)
(-2.78112e-05 2.78651e-05 0.105688)
(-3.05992e-05 -4.809e-05 0.108855)
(2.89343e-05 -4.56856e-05 0.108827)
(-2.89212e-05 -4.56956e-05 0.108826)
(2.78507e-05 2.78563e-05 0.105687)
(7.10336e-05 7.10197e-05 0.105471)
(-2.93966e-05 -2.93843e-05 0.105594)
(2.84931e-05 4.49829e-05 0.108815)
(-2.84766e-05 4.49496e-05 0.108814)
(2.68224e-05 4.26224e-05 0.108781)
(-2.68184e-05 4.25977e-05 0.10878)
(-7.10274e-05 7.10272e-05 0.105471)
(2.94133e-05 -2.93738e-05 0.105594)
(4.49421e-05 2.84129e-05 0.108816)
(4.49029e-05 -2.84765e-05 0.108814)
(4.25876e-05 2.67453e-05 0.108783)
(4.25521e-05 -2.68121e-05 0.10878)
(-4.48388e-05 -2.84187e-05 0.108814)
(-4.25831e-05 2.67352e-05 0.108783)
(-4.24885e-05 -2.67655e-05 0.10878)
(7.1046e-05 -7.10818e-05 0.105471)
(-2.941e-05 2.94408e-05 0.105593)
(-2.83585e-05 -4.49035e-05 0.108815)
(2.67115e-05 -4.25546e-05 0.108783)
(-2.67015e-05 -4.25556e-05 0.108782)
(2.94198e-05 2.94135e-05 0.105592)
(6.74533e-05 6.74276e-05 0.10538)
(-3.07985e-05 -3.0807e-05 0.105502)
(2.62767e-05 4.1846e-05 0.108769)
(-2.62706e-05 4.18217e-05 0.108769)
(2.46544e-05 3.95319e-05 0.108732)
(-2.46389e-05 3.95106e-05 0.108732)
(-6.74483e-05 6.74337e-05 0.105381)
(3.0825e-05 -3.07996e-05 0.105502)
(4.18091e-05 2.61905e-05 0.108771)
(4.1774e-05 -2.62642e-05 0.108768)
(3.95063e-05 2.45644e-05 0.108734)
(3.94683e-05 -2.46484e-05 0.108731)
(-4.17121e-05 -2.62222e-05 0.108769)
(-3.95007e-05 2.4566e-05 0.108735)
(-3.9406e-05 -2.45985e-05 0.108732)
(6.74524e-05 -6.75072e-05 0.10538)
(-3.08488e-05 3.08613e-05 0.105502)
(-2.61539e-05 -4.17824e-05 0.10877)
(2.45413e-05 -3.94896e-05 0.108734)
(-2.45312e-05 -3.94804e-05 0.108733)
(3.08576e-05 3.0846e-05 0.105501)
(6.40956e-05 6.40541e-05 0.105293)
(-3.21526e-05 -3.21693e-05 0.105414)
(2.41224e-05 3.87688e-05 0.10872)
(-2.41045e-05 3.87487e-05 0.108719)
(2.25459e-05 3.65159e-05 0.10868)
(-2.25276e-05 3.6488e-05 0.108679)
(-6.41021e-05 6.40648e-05 0.105293)
(3.21512e-05 -3.21641e-05 0.105415)
(3.87419e-05 2.40248e-05 0.108721)
(3.87077e-05 -2.41122e-05 0.108719)
(3.64905e-05 2.24478e-05 0.108682)
(3.64506e-05 -2.25425e-05 0.108679)
(-3.86494e-05 -2.40647e-05 0.108719)
(-3.64824e-05 2.24363e-05 0.108682)
(-3.63998e-05 -2.24923e-05 0.108679)
(6.40768e-05 -6.41466e-05 0.105293)
(-3.21442e-05 3.21403e-05 0.105414)
(-2.39991e-05 -3.87243e-05 0.10872)
(2.24282e-05 -3.64899e-05 0.108681)
(-2.2424e-05 -3.64713e-05 0.108681)
(3.21553e-05 3.21327e-05 0.105413)
(6.09409e-05 6.09119e-05 0.10521)
(-3.33378e-05 -3.33701e-05 0.10533)
(2.20162e-05 3.57732e-05 0.108666)
(-2.20107e-05 3.5753e-05 0.108666)
(2.05059e-05 3.35659e-05 0.108625)
(-2.04962e-05 3.35536e-05 0.108624)
(-6.09483e-05 6.08778e-05 0.10521)
(3.33332e-05 -3.33352e-05 0.105331)
(3.57373e-05 2.19215e-05 0.108668)
(3.5709e-05 -2.20266e-05 0.108665)
(3.35455e-05 2.04071e-05 0.108627)
(3.35142e-05 -2.05083e-05 0.108624)
(-3.56584e-05 -2.19811e-05 0.108666)
(-3.35401e-05 2.04019e-05 0.108627)
(-3.34642e-05 -2.04632e-05 0.108624)
(6.09096e-05 -6.09927e-05 0.105209)
(-3.33481e-05 3.33419e-05 0.10533)
(-2.19067e-05 -3.57302e-05 0.108667)
(2.03878e-05 -3.35541e-05 0.108626)
(-2.03892e-05 -3.35301e-05 0.108626)
(3.33664e-05 3.33401e-05 0.105329)
(5.79913e-05 5.79538e-05 0.10513)
(-3.44022e-05 -3.44213e-05 0.10525)
(2.00068e-05 3.28398e-05 0.108611)
(-2.00023e-05 3.28321e-05 0.10861)
(1.85442e-05 3.07018e-05 0.108568)
(-1.85456e-05 3.07033e-05 0.108568)
(-5.79888e-05 5.7929e-05 0.10513)
(3.43927e-05 -3.43985e-05 0.10525)
(3.28215e-05 1.99109e-05 0.108612)
(3.27949e-05 -2.00091e-05 0.10861)
(3.06867e-05 1.84572e-05 0.10857)
(3.06567e-05 -1.85526e-05 0.108567)
(-3.27428e-05 -1.99627e-05 0.10861)
(-3.0686e-05 1.84551e-05 0.10857)
(-3.06138e-05 -1.85142e-05 0.108567)
(5.79572e-05 -5.8039e-05 0.10513)
(-3.44327e-05 3.44254e-05 0.105249)
(-1.98951e-05 -3.28083e-05 0.108612)
(1.84396e-05 -3.06948e-05 0.108569)
(-1.84448e-05 -3.067e-05 0.108569)
(3.44265e-05 3.44135e-05 0.105249)
(5.52343e-05 5.5213e-05 0.105054)
(-3.53814e-05 -3.53937e-05 0.105174)
(1.80735e-05 2.99995e-05 0.108554)
(-1.80785e-05 3.00058e-05 0.108553)
(1.66809e-05 2.79241e-05 0.10851)
(-1.66921e-05 2.7927e-05 0.10851)
(-5.52414e-05 5.5178e-05 0.105054)
(3.5362e-05 -3.53781e-05 0.105174)
(2.99818e-05 1.79822e-05 0.108555)
(2.99608e-05 -1.808e-05 0.108552)
(2.79035e-05 1.65989e-05 0.108512)
(2.78901e-05 -1.66931e-05 0.108509)
(-2.99153e-05 -1.80355e-05 0.108553)
(-2.79097e-05 1.66047e-05 0.108513)
(-2.78498e-05 -1.66459e-05 0.10851)
(5.52076e-05 -5.52864e-05 0.105054)
(-3.54169e-05 3.54173e-05 0.105173)
(-1.79815e-05 -2.99702e-05 0.108554)
(1.65877e-05 -2.79181e-05 0.108512)
(-1.65991e-05 -2.78886e-05 0.108511)
(3.53797e-05 3.53891e-05 0.105173)
(5.26684e-05 5.26547e-05 0.104982)
(-3.62786e-05 -3.62841e-05 0.105101)
(1.62299e-05 2.72451e-05 0.108496)
(-1.62438e-05 2.72442e-05 0.108495)
(1.49185e-05 2.52392e-05 0.108452)
(-1.4932e-05 2.5238e-05 0.108451)
(-5.26705e-05 5.26002e-05 0.104982)
(3.62203e-05 -3.62438e-05 0.105101)
(2.72249e-05 1.61484e-05 0.108497)
(2.7211e-05 -1.62443e-05 0.108494)
(2.52163e-05 1.48565e-05 0.108454)
(2.52083e-05 -1.49187e-05 0.108451)
(-2.71738e-05 -1.61914e-05 0.108495)
(-2.52198e-05 1.48432e-05 0.108454)
(-2.51776e-05 -1.48831e-05 0.108451)
(5.26144e-05 -5.26844e-05 0.104982)
(-3.62705e-05 3.62718e-05 0.1051)
(-1.61518e-05 -2.7206e-05 0.108496)
(1.4823e-05 -2.52211e-05 0.108453)
(-1.48522e-05 -2.51908e-05 0.108453)
(3.6256e-05 3.62856e-05 0.1051)
(5.02607e-05 5.02553e-05 0.104914)
(-3.70232e-05 -3.70168e-05 0.105032)
(1.44903e-05 2.45813e-05 0.108437)
(-1.45085e-05 2.45815e-05 0.108437)
(1.3252e-05 2.26487e-05 0.108394)
(-1.32768e-05 2.26515e-05 0.108393)
(-5.02838e-05 5.02108e-05 0.104914)
(3.70223e-05 -3.7041e-05 0.105032)
(2.45555e-05 1.4428e-05 0.108439)
(2.45502e-05 -1.44955e-05 0.108436)
(2.26174e-05 1.32018e-05 0.108396)
(2.26165e-05 -1.3258e-05 0.108393)
(-2.45198e-05 -1.44543e-05 0.108437)
(-2.26264e-05 1.31913e-05 0.108396)
(-2.25875e-05 -1.32092e-05 0.108393)
(5.02598e-05 -5.03273e-05 0.104913)
(-3.70504e-05 3.70657e-05 0.105031)
(-1.44332e-05 -2.45286e-05 0.108438)
(1.3181e-05 -2.26196e-05 0.108395)
(-1.32074e-05 -2.2587e-05 0.108395)
(3.70456e-05 3.70866e-05 0.105031)
(4.80201e-05 4.80278e-05 0.104849)
(-3.77668e-05 -3.77535e-05 0.104967)
(1.28523e-05 2.2016e-05 0.108379)
(-1.28802e-05 2.20146e-05 0.108379)
(1.16918e-05 2.01624e-05 0.108336)
(-1.17148e-05 2.01565e-05 0.108336)
(-4.80507e-05 4.79828e-05 0.104849)
(3.77398e-05 -3.77447e-05 0.104967)
(2.19806e-05 1.28057e-05 0.108381)
(2.19825e-05 -1.28549e-05 0.108378)
(2.01238e-05 1.16585e-05 0.108338)
(2.01246e-05 -1.16884e-05 0.108335)
(-2.19575e-05 -1.28096e-05 0.108379)
(-2.01283e-05 1.16373e-05 0.108339)
(-2.01033e-05 -1.1648e-05 0.108336)
(4.80131e-05 -4.8066e-05 0.104848)
(-3.77411e-05 3.77571e-05 0.104966)
(-1.28039e-05 -2.19507e-05 0.10838)
(1.16174e-05 -2.01189e-05 0.108338)
(-1.16577e-05 -2.00905e-05 0.108337)
(3.7737e-05 3.77864e-05 0.104966)
(4.59504e-05 4.59643e-05 0.104788)
(1.13166e-05 1.95514e-05 0.108322)
(-1.13389e-05 1.95499e-05 0.108322)
(-4.59746e-05 4.59224e-05 0.104788)
(1.95121e-05 1.12888e-05 0.108324)
(1.95165e-05 -1.13187e-05 0.108321)
(-1.94966e-05 -1.12793e-05 0.108322)
(4.59369e-05 -4.59867e-05 0.104787)
(-1.12736e-05 -1.94775e-05 0.108323)
(8.69739e-07 6.99297e-06 0.0937511)
(-1.26557e-06 3.0702e-05 0.083354)
(-3.99813e-06 -6.01392e-06 0.0833634)
(1.56119e-06 5.28727e-05 0.0937676)
(-3.50102e-06 1.42229e-05 0.0720083)
(5.39131e-06 -5.75206e-06 0.0720491)
(6.9577e-06 8.68367e-07 0.0937513)
(3.06987e-05 -1.26967e-06 0.0833541)
(-6.03316e-06 -3.9952e-06 0.0833635)
(5.28363e-05 1.56106e-06 0.0937677)
(-5.97929e-05 5.97871e-05 0.109207)
(5.9764e-05 -5.98293e-05 0.109207)
(-5.97742e-05 -5.98342e-05 0.109207)
(5.88629e-05 5.88484e-05 0.109424)
(-5.88619e-05 5.88484e-05 0.109424)
(5.88237e-05 -5.88903e-05 0.109424)
(-5.88367e-05 -5.88874e-05 0.109424)
(-4.27484e-05 2.93413e-06 0.102218)
(-6.06403e-05 2.42124e-05 0.0954236)
(-0.000100168 1.95151e-05 0.108864)
(-8.90615e-05 5.54932e-05 0.108186)
(-1.79447e-05 -1.50047e-06 0.0954473)
(-9.97704e-05 1.93847e-05 0.108926)
(-0.000103761 4.77088e-06 0.102196)
(1.42158e-05 -3.50684e-06 0.0720086)
(-5.71167e-06 5.44392e-06 0.0720485)
(2.91331e-06 -4.27686e-05 0.102216)
(1.95488e-05 -0.000100249 0.108863)
(2.42877e-05 -6.065e-05 0.095425)
(5.54497e-05 -8.91326e-05 0.108186)
(1.94108e-05 -9.98575e-05 0.108926)
(-1.41085e-06 -1.78656e-05 0.0954455)
(4.85333e-06 -0.000103846 0.102196)
(-2.98136e-05 -1.63191e-05 0.0891387)
(-1.62981e-05 -2.98131e-05 0.089138)
(-5.71639e-06 -5.66353e-06 0.106839)
(-8.86745e-06 3.63467e-06 0.0891499)
(3.61742e-06 -8.85491e-06 0.0891468)
(5.94319e-07 4.22837e-06 0.0934791)
(-1.14874e-06 2.89303e-05 0.0831545)
(1.28244e-06 4.86948e-05 0.093488)
(-3.84878e-06 -6.76175e-06 0.0831693)
(-3.48915e-06 1.36569e-05 0.0718717)
(5.17675e-06 -5.74171e-06 0.0719152)
(4.23933e-06 5.98779e-07 0.0934793)
(2.89136e-05 -1.13704e-06 0.0831547)
(4.86634e-05 1.27609e-06 0.0934881)
(-6.77974e-06 -3.83483e-06 0.0831695)
(-5.85527e-05 5.85386e-05 0.109495)
(5.85162e-05 -5.85788e-05 0.109495)
(-5.8527e-05 -5.85769e-05 0.109495)
(5.76208e-05 5.76111e-05 0.109705)
(-5.76141e-05 5.76074e-05 0.109705)
(5.7585e-05 -5.7638e-05 0.109705)
(-5.75857e-05 -5.76394e-05 0.109705)
(-3.66108e-05 2.25983e-06 0.101946)
(-5.68189e-05 2.24395e-05 0.0951545)
(-9.86081e-05 1.89954e-05 0.109108)
(-8.67942e-05 5.42488e-05 0.10834)
(-9.67944e-05 4.01343e-06 0.101925)
(-1.46543e-05 -2.3463e-06 0.0951815)
(-9.82018e-05 1.88633e-05 0.109166)
(1.3634e-05 -3.48839e-06 0.0718719)
(-5.70592e-06 5.22724e-06 0.0719145)
(2.27975e-06 -3.66778e-05 0.101944)
(1.90227e-05 -9.86791e-05 0.109107)
(2.25207e-05 -5.6861e-05 0.0951557)
(5.42137e-05 -8.68287e-05 0.10834)
(4.15045e-06 -9.68713e-05 0.101925)
(1.88898e-05 -9.82684e-05 0.109167)
(-2.25295e-06 -1.46221e-05 0.0951798)
(-2.78757e-05 -1.54123e-05 0.0889098)
(-1.53728e-05 -2.78906e-05 0.088909)
(-3.09423e-06 -3.04965e-06 0.106839)
(-7.11753e-06 3.98117e-06 0.088926)
(4.01844e-06 -7.13705e-06 0.088923)
(3.77745e-07 2.23605e-06 0.0932333)
(-1.04497e-06 2.74851e-05 0.0829743)
(1.03916e-06 4.52651e-05 0.0932355)
(-3.76543e-06 -7.22498e-06 0.0829938)
(-3.49559e-06 1.31877e-05 0.0717478)
(4.97582e-06 -5.7184e-06 0.0717936)
(2.24232e-06 3.85213e-07 0.0932335)
(2.74715e-05 -1.0258e-06 0.0829746)
(4.52685e-05 1.03894e-06 0.0932357)
(-7.24516e-06 -3.74807e-06 0.0829942)
(-5.73003e-05 5.72937e-05 0.109774)
(5.72713e-05 -5.73212e-05 0.109774)
(-5.7272e-05 -5.73249e-05 0.109774)
(5.63241e-05 5.63234e-05 0.109977)
(-5.63242e-05 5.63205e-05 0.109977)
(5.62907e-05 -5.6336e-05 0.109977)
(-5.6291e-05 -5.634e-05 0.109977)
(-3.0717e-05 1.86638e-06 0.101679)
(-5.33607e-05 2.08386e-05 0.0949054)
(-9.70185e-05 1.84844e-05 0.109338)
(-8.43642e-05 5.29831e-05 0.108476)
(-9.00228e-05 3.46216e-06 0.101657)
(-1.1768e-05 -3.01398e-06 0.0949357)
(-9.65911e-05 1.83548e-05 0.109393)
(1.31531e-05 -3.51538e-06 0.0717479)
(-5.6867e-06 5.03791e-06 0.0717929)
(1.89192e-06 -3.07705e-05 0.101677)
(1.85041e-05 -9.70637e-05 0.109338)
(2.09386e-05 -5.34061e-05 0.0949065)
(5.29447e-05 -8.43952e-05 0.108476)
(3.62054e-06 -9.01193e-05 0.101657)
(1.83763e-05 -9.66458e-05 0.109393)
(-2.94941e-06 -1.17304e-05 0.0949339)
(-2.61011e-05 -1.46189e-05 0.0887015)
(-1.4569e-05 -2.61026e-05 0.0887007)
(-5.95595e-07 -5.6997e-07 0.106816)
(-5.51707e-06 4.26457e-06 0.0887222)
(4.30908e-06 -5.55393e-06 0.0887191)
(1.63906e-07 6.71626e-07 0.0930107)
(-1.08072e-06 2.6269e-05 0.0828114)
(8.04541e-07 4.24418e-05 0.0930073)
(-3.82056e-06 -7.31289e-06 0.0828349)
(-3.52286e-06 1.27409e-05 0.0716353)
(4.8522e-06 -5.65353e-06 0.0716831)
(6.68886e-07 1.85494e-07 0.093011)
(2.62462e-05 -1.05685e-06 0.0828117)
(4.24477e-05 8.13644e-07 0.0930074)
(-7.33525e-06 -3.79432e-06 0.0828354)
(-5.59931e-05 5.59904e-05 0.110044)
(5.5959e-05 -5.60045e-05 0.110044)
(-5.59633e-05 -5.60083e-05 0.110044)
(5.49741e-05 5.49797e-05 0.110239)
(-5.49753e-05 5.49809e-05 0.110239)
(5.49423e-05 -5.49814e-05 0.110239)
(-5.49429e-05 -5.49914e-05 0.110239)
(-2.54032e-05 1.51377e-06 0.10142)
(-5.03045e-05 1.94224e-05 0.0946754)
(-9.52578e-05 1.79756e-05 0.109554)
(-8.18127e-05 5.16462e-05 0.108593)
(-8.36725e-05 3.03341e-06 0.101398)
(-9.22693e-06 -3.50739e-06 0.0947088)
(-9.47769e-05 1.78472e-05 0.109606)
(1.27346e-05 -3.52675e-06 0.0716354)
(-5.61508e-06 4.92865e-06 0.0716824)
(1.52466e-06 -2.54419e-05 0.101419)
(1.80016e-05 -9.52967e-05 0.109554)
(1.94927e-05 -5.03524e-05 0.0946763)
(5.15993e-05 -8.18086e-05 0.108593)
(3.19241e-06 -8.37543e-05 0.101398)
(1.78713e-05 -9.48214e-05 0.109606)
(-3.45239e-06 -9.18234e-06 0.0947069)
(-2.44348e-05 -1.38617e-05 0.088512)
(-1.38244e-05 -2.44556e-05 0.0885111)
(1.89817e-06 1.91048e-06 0.106772)
(-4.10083e-06 4.40455e-06 0.0885365)
(4.4852e-06 -4.12581e-06 0.0885335)
(-5.45885e-08 -6.27409e-07 0.0928087)
(-1.14564e-06 2.53304e-05 0.0826638)
(5.88917e-07 4.0001e-05 0.0928004)
(-3.86917e-06 -7.20783e-06 0.082691)
(-3.50927e-06 1.23832e-05 0.0715332)
(4.79232e-06 -5.55869e-06 0.0715828)
(-6.31518e-07 -1.73933e-08 0.092809)
(2.53095e-05 -1.11979e-06 0.0826643)
(3.99978e-05 6.0868e-07 0.0928005)
(-7.22768e-06 -3.83718e-06 0.0826916)
(-5.46304e-05 5.46349e-05 0.110303)
(5.46008e-05 -5.46358e-05 0.110303)
(-5.45976e-05 -5.46456e-05 0.110303)
(5.35759e-05 5.35866e-05 0.110492)
(-5.35746e-05 5.35808e-05 0.110492)
(5.35464e-05 -5.35756e-05 0.110491)
(-5.35434e-05 -5.35863e-05 0.110491)
(-2.06087e-05 1.22406e-06 0.101174)
(-4.75537e-05 1.816e-05 0.0944633)
(-9.32717e-05 1.74661e-05 0.109756)
(-7.91035e-05 5.02179e-05 0.108692)
(-7.78221e-05 2.65656e-06 0.101149)
(-7.0216e-06 -3.98016e-06 0.0944995)
(-9.27293e-05 1.73354e-05 0.109803)
(1.23633e-05 -3.50992e-06 0.0715333)
(-5.51081e-06 4.87822e-06 0.071582)
(1.20978e-06 -2.06452e-05 0.101172)
(1.74893e-05 -9.3301e-05 0.109755)
(1.82365e-05 -4.75935e-05 0.0944641)
(5.01533e-05 -7.90882e-05 0.108692)
(2.79183e-06 -7.78866e-05 0.101149)
(1.73576e-05 -9.27653e-05 0.109803)
(-3.90094e-06 -6.97487e-06 0.0944976)
(-2.29382e-05 -1.32023e-05 0.0883395)
(-1.31733e-05 -2.29471e-05 0.0883385)
(4.38806e-06 4.38989e-06 0.106712)
(-2.89174e-06 4.497e-06 0.0883673)
(4.54982e-06 -2.89656e-06 0.0883643)
(-1.96005e-07 -1.70528e-06 0.0926247)
(-1.22547e-06 2.45153e-05 0.0825303)
(3.73239e-07 3.78102e-05 0.0926122)
(-3.93595e-06 -7.15282e-06 0.0825606)
(-3.49044e-06 1.20221e-05 0.0714407)
(4.67968e-06 -5.52319e-06 0.0714917)
(-1.71454e-06 -1.55306e-07 0.092625)
(2.45008e-05 -1.20458e-06 0.0825309)
(3.7812e-05 4.03152e-07 0.0926124)