/*--------------------------------*- C++ -*----------------------------------*\
| =========                 |                                                 |
| \\      /  F ield         | OpenFOAM: The Open Source CFD Toolbox           |
|  \\    /   O peration     | Version:                                        |
|   \\  /    A nd           | Website:  www.openfoam.com                      |
|    \\/     M anipulation  |                                                 |
\*---------------------------------------------------------------------------*/
FoamFile
{
    version     2.0;
    format      ascii;
    class       volScalarField;
    location    "10850.5";
    object      p;
}
// * * * * * * * * * * * * * * * * * * * * * * * * * * * * * * * * * * * * * //

dimensions      [0 2 -2 0 0 0 0];


internalField   nonuniform List<scalar> 
247096
(
1.31903e-07
1.31905e-07
1.32049e-07
1.32136e-07
1.32168e-07
1.32126e-07
1.32036e-07
1.31881e-07
1.31905e-07
1.32104e-07
1.32281e-07
1.32373e-07
1.32396e-07
1.32366e-07
1.32262e-07
1.3208e-07
1.32049e-07
1.32281e-07
1.32421e-07
1.32462e-07
1.32468e-07
1.3246e-07
1.3241e-07
1.32253e-07
1.32022e-07
1.32136e-07
1.32373e-07
1.32462e-07
1.32473e-07
1.32472e-07
1.32473e-07
1.32457e-07
1.32351e-07
1.32102e-07
1.31903e-07
1.32168e-07
1.32396e-07
1.32468e-07
1.32472e-07
1.32468e-07
1.32472e-07
1.32465e-07
1.32377e-07
1.32133e-07
1.32126e-07
1.32366e-07
1.3246e-07
1.32473e-07
1.32472e-07
1.32473e-07
1.32454e-07
1.32343e-07
1.32094e-07
1.32036e-07
1.32262e-07
1.3241e-07
1.32457e-07
1.32465e-07
1.32454e-07
1.32399e-07
1.32235e-07
1.32009e-07
1.31881e-07
1.3208e-07
1.32253e-07
1.32351e-07
1.32377e-07
1.32343e-07
1.32235e-07
1.32057e-07
1.32022e-07
1.32102e-07
1.32133e-07
1.32094e-07
1.32009e-07
1.29094e-07
1.2907e-07
1.29078e-07
1.28927e-07
1.28938e-07
1.28956e-07
1.28937e-07
1.29126e-07
1.29066e-07
1.29078e-07
1.28944e-07
1.28742e-07
1.28759e-07
1.28759e-07
1.28742e-07
1.29001e-07
1.28951e-07
1.28927e-07
1.28742e-07
1.28778e-07
1.288e-07
1.288e-07
1.28778e-07
1.28742e-07
1.29067e-07
1.29117e-07
1.29094e-07
1.28938e-07
1.28759e-07
1.288e-07
1.28823e-07
1.28823e-07
1.288e-07
1.28759e-07
1.29095e-07
1.29134e-07
1.2907e-07
1.28956e-07
1.28759e-07
1.288e-07
1.28823e-07
1.28823e-07
1.288e-07
1.28759e-07
1.29097e-07
1.28956e-07
1.28937e-07
1.28742e-07
1.28778e-07
1.288e-07
1.288e-07
1.28778e-07
1.28742e-07
1.2909e-07
1.29143e-07
1.29126e-07
1.29001e-07
1.28742e-07
1.28759e-07
1.28759e-07
1.28742e-07
1.29084e-07
1.29008e-07
1.29125e-07
1.29066e-07
1.28951e-07
1.29067e-07
1.29095e-07
1.29097e-07
1.2909e-07
1.29008e-07
1.29137e-07
1.29117e-07
1.29134e-07
1.28956e-07
1.29143e-07
1.29125e-07
1.274e-07
1.2739e-07
1.27399e-07
1.27268e-07
1.27265e-07
1.27273e-07
1.27267e-07
1.27429e-07
1.27393e-07
1.27399e-07
1.27261e-07
1.27045e-07
1.27054e-07
1.27054e-07
1.27045e-07
1.27285e-07
1.27282e-07
1.27268e-07
1.27045e-07
1.27068e-07
1.27078e-07
1.27078e-07
1.27068e-07
1.27045e-07
1.27331e-07
1.27424e-07
1.274e-07
1.27265e-07
1.27054e-07
1.27078e-07
1.27088e-07
1.27088e-07
1.27078e-07
1.27054e-07
1.27338e-07
1.2742e-07
1.2739e-07
1.27273e-07
1.27054e-07
1.27078e-07
1.27088e-07
1.27088e-07
1.27078e-07
1.27054e-07
1.27337e-07
1.27287e-07
1.27267e-07
1.27045e-07
1.27068e-07
1.27078e-07
1.27078e-07
1.27068e-07
1.27045e-07
1.27338e-07
1.27427e-07
1.27429e-07
1.27285e-07
1.27045e-07
1.27054e-07
1.27054e-07
1.27045e-07
1.27315e-07
1.27308e-07
1.27431e-07
1.27393e-07
1.27282e-07
1.27331e-07
1.27338e-07
1.27337e-07
1.27338e-07
1.27308e-07
1.27436e-07
1.27424e-07
1.2742e-07
1.27287e-07
1.27427e-07
1.27431e-07
1.25928e-07
1.25918e-07
1.25927e-07
1.25802e-07
1.25798e-07
1.25805e-07
1.258e-07
1.25953e-07
1.25923e-07
1.25927e-07
1.25796e-07
1.25609e-07
1.25612e-07
1.25612e-07
1.25609e-07
1.25824e-07
1.25819e-07
1.25802e-07
1.25609e-07
1.2562e-07
1.25621e-07
1.25621e-07
1.2562e-07
1.25609e-07
1.25868e-07
1.25952e-07
1.25928e-07
1.25798e-07
1.25612e-07
1.25621e-07
1.25624e-07
1.25624e-07
1.25621e-07
1.25612e-07
1.2587e-07
1.25949e-07
1.25918e-07
1.25805e-07
1.25612e-07
1.25621e-07
1.25624e-07
1.25624e-07
1.25621e-07
1.25612e-07
1.25868e-07
1.25824e-07
1.258e-07
1.25609e-07
1.2562e-07
1.25621e-07
1.25621e-07
1.2562e-07
1.25609e-07
1.2587e-07
1.25954e-07
1.25953e-07
1.25824e-07
1.25609e-07
1.25612e-07
1.25612e-07
1.25609e-07
1.25853e-07
1.25843e-07
1.25957e-07
1.25923e-07
1.25819e-07
1.25868e-07
1.2587e-07
1.25868e-07
1.2587e-07
1.25843e-07
1.25965e-07
1.25952e-07
1.25949e-07
1.25824e-07
1.25954e-07
1.25957e-07
1.24541e-07
1.2453e-07
1.2454e-07
1.24416e-07
1.24412e-07
1.24417e-07
1.24414e-07
1.24565e-07
1.24536e-07
1.2454e-07
1.24411e-07
1.2423e-07
1.24231e-07
1.24231e-07
1.2423e-07
1.24439e-07
1.24434e-07
1.24416e-07
1.2423e-07
1.24236e-07
1.24235e-07
1.24235e-07
1.24236e-07
1.2423e-07
1.24484e-07
1.24566e-07
1.24541e-07
1.24412e-07
1.24231e-07
1.24235e-07
1.24235e-07
1.24235e-07
1.24235e-07
1.24231e-07
1.24485e-07
1.24561e-07
1.2453e-07
1.24417e-07
1.24231e-07
1.24235e-07
1.24235e-07
1.24235e-07
1.24235e-07
1.24231e-07
1.24482e-07
1.24439e-07
1.24414e-07
1.2423e-07
1.24236e-07
1.24235e-07
1.24235e-07
1.24236e-07
1.2423e-07
1.24484e-07
1.24567e-07
1.24565e-07
1.24439e-07
1.2423e-07
1.24231e-07
1.24231e-07
1.2423e-07
1.24469e-07
1.24458e-07
1.24569e-07
1.24536e-07
1.24434e-07
1.24484e-07
1.24485e-07
1.24482e-07
1.24484e-07
1.24458e-07
1.24578e-07
1.24566e-07
1.24561e-07
1.24439e-07
1.24567e-07
1.24569e-07
1.23167e-07
1.23156e-07
1.23166e-07
1.23042e-07
1.23038e-07
1.23043e-07
1.2304e-07
1.23191e-07
1.23162e-07
1.23166e-07
1.23037e-07
1.22855e-07
1.22856e-07
1.22856e-07
1.22855e-07
1.23065e-07
1.2306e-07
1.23042e-07
1.22855e-07
1.2286e-07
1.22858e-07
1.22858e-07
1.2286e-07
1.22855e-07
1.2311e-07
1.23192e-07
1.23167e-07
1.23038e-07
1.22856e-07
1.22858e-07
1.22858e-07
1.22858e-07
1.22858e-07
1.22856e-07
1.2311e-07
1.23187e-07
1.23156e-07
1.23043e-07
1.22856e-07
1.22858e-07
1.22858e-07
1.22858e-07
1.22858e-07
1.22856e-07
1.23108e-07
1.23065e-07
1.2304e-07
1.22855e-07
1.2286e-07
1.22858e-07
1.22858e-07
1.2286e-07
1.22855e-07
1.2311e-07
1.23193e-07
1.23191e-07
1.23065e-07
1.22855e-07
1.22856e-07
1.22856e-07
1.22855e-07
1.23094e-07
1.23084e-07
1.23195e-07
1.23162e-07
1.2306e-07
1.2311e-07
1.2311e-07
1.23108e-07
1.2311e-07
1.23084e-07
1.23204e-07
1.23192e-07
1.23187e-07
1.23065e-07
1.23193e-07
1.23195e-07
1.21791e-07
1.21781e-07
1.2179e-07
1.21666e-07
1.21662e-07
1.21667e-07
1.21664e-07
1.21815e-07
1.21787e-07
1.2179e-07
1.21661e-07
1.21479e-07
1.2148e-07
1.2148e-07
1.21479e-07
1.21689e-07
1.21684e-07
1.21666e-07
1.21479e-07
1.21483e-07
1.21482e-07
1.21482e-07
1.21483e-07
1.21479e-07
1.21735e-07
1.21816e-07
1.21791e-07
1.21662e-07
1.2148e-07
1.21482e-07
1.21481e-07
1.21481e-07
1.21482e-07
1.2148e-07
1.21735e-07
1.21812e-07
1.21781e-07
1.21667e-07
1.2148e-07
1.21482e-07
1.21481e-07
1.21481e-07
1.21482e-07
1.2148e-07
1.21732e-07
1.21689e-07
1.21664e-07
1.21479e-07
1.21483e-07
1.21482e-07
1.21482e-07
1.21483e-07
1.21479e-07
1.21734e-07
1.21817e-07
1.21815e-07
1.21689e-07
1.21479e-07
1.2148e-07
1.2148e-07
1.21479e-07
1.21718e-07
1.21708e-07
1.2182e-07
1.21787e-07
1.21684e-07
1.21735e-07
1.21735e-07
1.21732e-07
1.21734e-07
1.21708e-07
1.21829e-07
1.21816e-07
1.21812e-07
1.21689e-07
1.21817e-07
1.2182e-07
1.20414e-07
1.20404e-07
1.20413e-07
1.20289e-07
1.20285e-07
1.2029e-07
1.20287e-07
1.20438e-07
1.2041e-07
1.20413e-07
1.20284e-07
1.20102e-07
1.20103e-07
1.20103e-07
1.20102e-07
1.20312e-07
1.20307e-07
1.20289e-07
1.20102e-07
1.20106e-07
1.20104e-07
1.20104e-07
1.20106e-07
1.20102e-07
1.20358e-07
1.20439e-07
1.20414e-07
1.20285e-07
1.20103e-07
1.20104e-07
1.20103e-07
1.20103e-07
1.20104e-07
1.20103e-07
1.20358e-07
1.20435e-07
1.20404e-07
1.2029e-07
1.20103e-07
1.20104e-07
1.20103e-07
1.20103e-07
1.20104e-07
1.20103e-07
1.20355e-07
1.20312e-07
1.20287e-07
1.20102e-07
1.20106e-07
1.20104e-07
1.20104e-07
1.20106e-07
1.20102e-07
1.20357e-07
1.2044e-07
1.20438e-07
1.20312e-07
1.20102e-07
1.20103e-07
1.20103e-07
1.20102e-07
1.20341e-07
1.20331e-07
1.20443e-07
1.2041e-07
1.20307e-07
1.20358e-07
1.20358e-07
1.20355e-07
1.20357e-07
1.20331e-07
1.20452e-07
1.20439e-07
1.20435e-07
1.20312e-07
1.2044e-07
1.20443e-07
1.19037e-07
1.19026e-07
1.19036e-07
1.18912e-07
1.18907e-07
1.18913e-07
1.18909e-07
1.19061e-07
1.19032e-07
1.19036e-07
1.18907e-07
1.18724e-07
1.18725e-07
1.18725e-07
1.18724e-07
1.18934e-07
1.1893e-07
1.18912e-07
1.18724e-07
1.18729e-07
1.18727e-07
1.18727e-07
1.18729e-07
1.18724e-07
1.1898e-07
1.19062e-07
1.19037e-07
1.18907e-07
1.18725e-07
1.18727e-07
1.18726e-07
1.18726e-07
1.18727e-07
1.18725e-07
1.1898e-07
1.19057e-07
1.19026e-07
1.18913e-07
1.18725e-07
1.18727e-07
1.18726e-07
1.18726e-07
1.18727e-07
1.18725e-07
1.18978e-07
1.18935e-07
1.18909e-07
1.18724e-07
1.18729e-07
1.18727e-07
1.18727e-07
1.18729e-07
1.18724e-07
1.18979e-07
1.19063e-07
1.19061e-07
1.18934e-07
1.18724e-07
1.18725e-07
1.18725e-07
1.18724e-07
1.18964e-07
1.18954e-07
1.19065e-07
1.19032e-07
1.1893e-07
1.1898e-07
1.1898e-07
1.18978e-07
1.18979e-07
1.18954e-07
1.19074e-07
1.19062e-07
1.19057e-07
1.18935e-07
1.19063e-07
1.19065e-07
1.1766e-07
1.17649e-07
1.17658e-07
1.17534e-07
1.1753e-07
1.17535e-07
1.17532e-07
1.17683e-07
1.17655e-07
1.17658e-07
1.17529e-07
1.17347e-07
1.17348e-07
1.17348e-07
1.17347e-07
1.17557e-07
1.17553e-07
1.17534e-07
1.17347e-07
1.17351e-07
1.17349e-07
1.17349e-07
1.17351e-07
1.17347e-07
1.17603e-07
1.17684e-07
1.1766e-07
1.1753e-07
1.17348e-07
1.17349e-07
1.17349e-07
1.17349e-07
1.17349e-07
1.17348e-07
1.17603e-07
1.1768e-07
1.17649e-07
1.17535e-07
1.17348e-07
1.17349e-07
1.17349e-07
1.17349e-07
1.17349e-07
1.17348e-07
1.176e-07
1.17557e-07
1.17532e-07
1.17347e-07
1.17351e-07
1.17349e-07
1.17349e-07
1.17351e-07
1.17347e-07
1.17602e-07
1.17685e-07
1.17683e-07
1.17557e-07
1.17347e-07
1.17348e-07
1.17348e-07
1.17347e-07
1.17586e-07
1.17576e-07
1.17688e-07
1.17655e-07
1.17553e-07
1.17603e-07
1.17603e-07
1.176e-07
1.17602e-07
1.17576e-07
1.17697e-07
1.17684e-07
1.1768e-07
1.17557e-07
1.17685e-07
1.17688e-07
1.16282e-07
1.16271e-07
1.16281e-07
1.16157e-07
1.16152e-07
1.16158e-07
1.16154e-07
1.16306e-07
1.16277e-07
1.16281e-07
1.16152e-07
1.15969e-07
1.1597e-07
1.1597e-07
1.15969e-07
1.16179e-07
1.16175e-07
1.16157e-07
1.15969e-07
1.15974e-07
1.15972e-07
1.15972e-07
1.15974e-07
1.15969e-07
1.16225e-07
1.16307e-07
1.16282e-07
1.16152e-07
1.1597e-07
1.15972e-07
1.15971e-07
1.15971e-07
1.15972e-07
1.1597e-07
1.16225e-07
1.16303e-07
1.16271e-07
1.16158e-07
1.1597e-07
1.15972e-07
1.15971e-07
1.15971e-07
1.15972e-07
1.1597e-07
1.16223e-07
1.1618e-07
1.16154e-07
1.15969e-07
1.15974e-07
1.15972e-07
1.15972e-07
1.15974e-07
1.15969e-07
1.16225e-07
1.16308e-07
1.16306e-07
1.16179e-07
1.15969e-07
1.1597e-07
1.1597e-07
1.15969e-07
1.16209e-07
1.16199e-07
1.1631e-07
1.16277e-07
1.16175e-07
1.16225e-07
1.16225e-07
1.16223e-07
1.16225e-07
1.16199e-07
1.16319e-07
1.16307e-07
1.16303e-07
1.1618e-07
1.16308e-07
1.1631e-07
1.14905e-07
1.14894e-07
1.14903e-07
1.14779e-07
1.14775e-07
1.1478e-07
1.14777e-07
1.14928e-07
1.149e-07
1.14903e-07
1.14774e-07
1.14592e-07
1.14593e-07
1.14593e-07
1.14592e-07
1.14802e-07
1.14798e-07
1.14779e-07
1.14592e-07
1.14596e-07
1.14594e-07
1.14594e-07
1.14596e-07
1.14592e-07
1.14848e-07
1.14929e-07
1.14905e-07
1.14775e-07
1.14593e-07
1.14594e-07
1.14594e-07
1.14594e-07
1.14594e-07
1.14593e-07
1.14848e-07
1.14925e-07
1.14894e-07
1.1478e-07
1.14593e-07
1.14594e-07
1.14594e-07
1.14594e-07
1.14594e-07
1.14593e-07
1.14845e-07
1.14802e-07
1.14777e-07
1.14592e-07
1.14596e-07
1.14594e-07
1.14594e-07
1.14596e-07
1.14592e-07
1.14847e-07
1.1493e-07
1.14928e-07
1.14802e-07
1.14592e-07
1.14593e-07
1.14593e-07
1.14592e-07
1.14831e-07
1.14821e-07
1.14933e-07
1.149e-07
1.14798e-07
1.14848e-07
1.14848e-07
1.14845e-07
1.14847e-07
1.14822e-07
1.14942e-07
1.14929e-07
1.14925e-07
1.14802e-07
1.1493e-07
1.14933e-07
1.13527e-07
1.13516e-07
1.13526e-07
1.13402e-07
1.13397e-07
1.13403e-07
1.13399e-07
1.13551e-07
1.13522e-07
1.13526e-07
1.13397e-07
1.13214e-07
1.13215e-07
1.13215e-07
1.13214e-07
1.13424e-07
1.1342e-07
1.13402e-07
1.13214e-07
1.13219e-07
1.13217e-07
1.13217e-07
1.13219e-07
1.13214e-07
1.1347e-07
1.13552e-07
1.13527e-07
1.13397e-07
1.13215e-07
1.13217e-07
1.13216e-07
1.13216e-07
1.13217e-07
1.13215e-07
1.1347e-07
1.13548e-07
1.13516e-07
1.13403e-07
1.13215e-07
1.13217e-07
1.13216e-07
1.13216e-07
1.13217e-07
1.13215e-07
1.13468e-07
1.13425e-07
1.13399e-07
1.13214e-07
1.13219e-07
1.13217e-07
1.13217e-07
1.13219e-07
1.13214e-07
1.1347e-07
1.13553e-07
1.13551e-07
1.13424e-07
1.13214e-07
1.13215e-07
1.13215e-07
1.13214e-07
1.13454e-07
1.13444e-07
1.13555e-07
1.13522e-07
1.1342e-07
1.1347e-07
1.1347e-07
1.13468e-07
1.1347e-07
1.13444e-07
1.13564e-07
1.13552e-07
1.13548e-07
1.13425e-07
1.13553e-07
1.13555e-07
1.1215e-07
1.12139e-07
1.12148e-07
1.12024e-07
1.1202e-07
1.12025e-07
1.12022e-07
1.12173e-07
1.12145e-07
1.12148e-07
1.12019e-07
1.11837e-07
1.11838e-07
1.11838e-07
1.11837e-07
1.12047e-07
1.12043e-07
1.12024e-07
1.11837e-07
1.11841e-07
1.11839e-07
1.11839e-07
1.11841e-07
1.11837e-07
1.12093e-07
1.12174e-07
1.1215e-07
1.1202e-07
1.11838e-07
1.11839e-07
1.11839e-07
1.11839e-07
1.11839e-07
1.11838e-07
1.12093e-07
1.1217e-07
1.12139e-07
1.12025e-07
1.11838e-07
1.11839e-07
1.11839e-07
1.11839e-07
1.11839e-07
1.11838e-07
1.1209e-07
1.12047e-07
1.12022e-07
1.11837e-07
1.11841e-07
1.11839e-07
1.11839e-07
1.11841e-07
1.11837e-07
1.12092e-07
1.12175e-07
1.12173e-07
1.12047e-07
1.11837e-07
1.11838e-07
1.11838e-07
1.11837e-07
1.12076e-07
1.12067e-07
1.12178e-07
1.12145e-07
1.12043e-07
1.12093e-07
1.12093e-07
1.1209e-07
1.12092e-07
1.12067e-07
1.12187e-07
1.12174e-07
1.1217e-07
1.12047e-07
1.12175e-07
1.12178e-07
1.10772e-07
1.10761e-07
1.10771e-07
1.10647e-07
1.10642e-07
1.10648e-07
1.10644e-07
1.10796e-07
1.10767e-07
1.10771e-07
1.10642e-07
1.1046e-07
1.1046e-07
1.1046e-07
1.1046e-07
1.10669e-07
1.10665e-07
1.10647e-07
1.1046e-07
1.10464e-07
1.10462e-07
1.10462e-07
1.10464e-07
1.1046e-07
1.10715e-07
1.10797e-07
1.10772e-07
1.10642e-07
1.1046e-07
1.10462e-07
1.10461e-07
1.10461e-07
1.10462e-07
1.1046e-07
1.10715e-07
1.10793e-07
1.10761e-07
1.10648e-07
1.1046e-07
1.10462e-07
1.10461e-07
1.10461e-07
1.10462e-07
1.1046e-07
1.10713e-07
1.1067e-07
1.10644e-07
1.1046e-07
1.10464e-07
1.10462e-07
1.10462e-07
1.10464e-07
1.1046e-07
1.10715e-07
1.10798e-07
1.10796e-07
1.10669e-07
1.1046e-07
1.1046e-07
1.1046e-07
1.1046e-07
1.10699e-07
1.10689e-07
1.108e-07
1.10767e-07
1.10665e-07
1.10715e-07
1.10715e-07
1.10713e-07
1.10715e-07
1.10689e-07
1.10809e-07
1.10797e-07
1.10793e-07
1.1067e-07
1.10798e-07
1.108e-07
1.09395e-07
1.09384e-07
1.09393e-07
1.09269e-07
1.09265e-07
1.09271e-07
1.09267e-07
1.09418e-07
1.0939e-07
1.09393e-07
1.09264e-07
1.09082e-07
1.09083e-07
1.09083e-07
1.09082e-07
1.09292e-07
1.09288e-07
1.09269e-07
1.09082e-07
1.09086e-07
1.09085e-07
1.09085e-07
1.09086e-07
1.09082e-07
1.09338e-07
1.09419e-07
1.09395e-07
1.09265e-07
1.09083e-07
1.09085e-07
1.09084e-07
1.09084e-07
1.09085e-07
1.09083e-07
1.09338e-07
1.09415e-07
1.09384e-07
1.09271e-07
1.09083e-07
1.09085e-07
1.09084e-07
1.09084e-07
1.09085e-07
1.09083e-07
1.09335e-07
1.09292e-07
1.09267e-07
1.09082e-07
1.09086e-07
1.09085e-07
1.09085e-07
1.09086e-07
1.09082e-07
1.09337e-07
1.0942e-07
1.09418e-07
1.09292e-07
1.09082e-07
1.09083e-07
1.09083e-07
1.09082e-07
1.09321e-07
1.09312e-07
1.09423e-07
1.0939e-07
1.09288e-07
1.09338e-07
1.09338e-07
1.09335e-07
1.09337e-07
1.09312e-07
1.09432e-07
1.09419e-07
1.09415e-07
1.09292e-07
1.0942e-07
1.09423e-07
1.08017e-07
1.08007e-07
1.08016e-07
1.07892e-07
1.07888e-07
1.07893e-07
1.0789e-07
1.08041e-07
1.08013e-07
1.08016e-07
1.07887e-07
1.07705e-07
1.07705e-07
1.07705e-07
1.07705e-07
1.07915e-07
1.0791e-07
1.07892e-07
1.07705e-07
1.07709e-07
1.07707e-07
1.07707e-07
1.07709e-07
1.07705e-07
1.0796e-07
1.08042e-07
1.08017e-07
1.07888e-07
1.07705e-07
1.07707e-07
1.07706e-07
1.07706e-07
1.07707e-07
1.07705e-07
1.07961e-07
1.08038e-07
1.08007e-07
1.07893e-07
1.07705e-07
1.07707e-07
1.07706e-07
1.07706e-07
1.07707e-07
1.07705e-07
1.07958e-07
1.07915e-07
1.0789e-07
1.07705e-07
1.07709e-07
1.07707e-07
1.07707e-07
1.07709e-07
1.07705e-07
1.0796e-07
1.08043e-07
1.08041e-07
1.07915e-07
1.07705e-07
1.07705e-07
1.07705e-07
1.07705e-07
1.07944e-07
1.07934e-07
1.08045e-07
1.08013e-07
1.0791e-07
1.0796e-07
1.07961e-07
1.07958e-07
1.0796e-07
1.07934e-07
1.08054e-07
1.08042e-07
1.08038e-07
1.07915e-07
1.08043e-07
1.08045e-07
1.0664e-07
1.06629e-07
1.06639e-07
1.06515e-07
1.0651e-07
1.06516e-07
1.06512e-07
1.06664e-07
1.06635e-07
1.06639e-07
1.06509e-07
1.06327e-07
1.06328e-07
1.06328e-07
1.06327e-07
1.06537e-07
1.06533e-07
1.06515e-07
1.06327e-07
1.06331e-07
1.0633e-07
1.0633e-07
1.06331e-07
1.06327e-07
1.06583e-07
1.06665e-07
1.0664e-07
1.0651e-07
1.06328e-07
1.0633e-07
1.06329e-07
1.06329e-07
1.0633e-07
1.06328e-07
1.06583e-07
1.0666e-07
1.06629e-07
1.06516e-07
1.06328e-07
1.0633e-07
1.06329e-07
1.06329e-07
1.0633e-07
1.06328e-07
1.0658e-07
1.06537e-07
1.06512e-07
1.06327e-07
1.06331e-07
1.0633e-07
1.0633e-07
1.06331e-07
1.06327e-07
1.06582e-07
1.06665e-07
1.06664e-07
1.06537e-07
1.06327e-07
1.06328e-07
1.06328e-07
1.06327e-07
1.06566e-07
1.06557e-07
1.06668e-07
1.06635e-07
1.06533e-07
1.06583e-07
1.06583e-07
1.0658e-07
1.06582e-07
1.06557e-07
1.06677e-07
1.06665e-07
1.0666e-07
1.06537e-07
1.06665e-07
1.06668e-07
1.05262e-07
1.05252e-07
1.05261e-07
1.05137e-07
1.05133e-07
1.05138e-07
1.05135e-07
1.05286e-07
1.05258e-07
1.05261e-07
1.05132e-07
1.0495e-07
1.0495e-07
1.0495e-07
1.0495e-07
1.0516e-07
1.05155e-07
1.05137e-07
1.0495e-07
1.04954e-07
1.04952e-07
1.04952e-07
1.04954e-07
1.0495e-07
1.05206e-07
1.05287e-07
1.05262e-07
1.05133e-07
1.0495e-07
1.04952e-07
1.04951e-07
1.04951e-07
1.04952e-07
1.0495e-07
1.05206e-07
1.05283e-07
1.05252e-07
1.05138e-07
1.0495e-07
1.04952e-07
1.04951e-07
1.04951e-07
1.04952e-07
1.0495e-07
1.05203e-07
1.0516e-07
1.05135e-07
1.0495e-07
1.04954e-07
1.04952e-07
1.04952e-07
1.04954e-07
1.0495e-07
1.05205e-07
1.05288e-07
1.05286e-07
1.0516e-07
1.0495e-07
1.0495e-07
1.0495e-07
1.0495e-07
1.05189e-07
1.05179e-07
1.0529e-07
1.05258e-07
1.05155e-07
1.05206e-07
1.05206e-07
1.05203e-07
1.05205e-07
1.05179e-07
1.05299e-07
1.05287e-07
1.05283e-07
1.0516e-07
1.05288e-07
1.0529e-07
1.03885e-07
1.03874e-07
1.03884e-07
1.0376e-07
1.03755e-07
1.03761e-07
1.03757e-07
1.03909e-07
1.0388e-07
1.03884e-07
1.03755e-07
1.03572e-07
1.03573e-07
1.03573e-07
1.03572e-07
1.03782e-07
1.03778e-07
1.0376e-07
1.03572e-07
1.03577e-07
1.03575e-07
1.03575e-07
1.03577e-07
1.03572e-07
1.03828e-07
1.0391e-07
1.03885e-07
1.03755e-07
1.03573e-07
1.03575e-07
1.03574e-07
1.03574e-07
1.03575e-07
1.03573e-07
1.03828e-07
1.03905e-07
1.03874e-07
1.03761e-07
1.03573e-07
1.03575e-07
1.03574e-07
1.03574e-07
1.03575e-07
1.03573e-07
1.03826e-07
1.03782e-07
1.03757e-07
1.03572e-07
1.03577e-07
1.03575e-07
1.03575e-07
1.03577e-07
1.03572e-07
1.03827e-07
1.03911e-07
1.03909e-07
1.03782e-07
1.03572e-07
1.03573e-07
1.03573e-07
1.03572e-07
1.03812e-07
1.03802e-07
1.03913e-07
1.0388e-07
1.03778e-07
1.03828e-07
1.03828e-07
1.03826e-07
1.03827e-07
1.03802e-07
1.03922e-07
1.0391e-07
1.03905e-07
1.03782e-07
1.03911e-07
1.03913e-07
1.02507e-07
1.02497e-07
1.02506e-07
1.02382e-07
1.02378e-07
1.02383e-07
1.0238e-07
1.02531e-07
1.02503e-07
1.02506e-07
1.02377e-07
1.02195e-07
1.02196e-07
1.02196e-07
1.02195e-07
1.02405e-07
1.024e-07
1.02382e-07
1.02195e-07
1.02199e-07
1.02197e-07
1.02197e-07
1.02199e-07
1.02195e-07
1.02451e-07
1.02532e-07
1.02507e-07
1.02378e-07
1.02196e-07
1.02197e-07
1.02196e-07
1.02196e-07
1.02197e-07
1.02196e-07
1.02451e-07
1.02528e-07
1.02497e-07
1.02383e-07
1.02196e-07
1.02197e-07
1.02196e-07
1.02196e-07
1.02197e-07
1.02196e-07
1.02448e-07
1.02405e-07
1.0238e-07
1.02195e-07
1.02199e-07
1.02197e-07
1.02197e-07
1.02199e-07
1.02195e-07
1.0245e-07
1.02533e-07
1.02531e-07
1.02405e-07
1.02195e-07
1.02196e-07
1.02196e-07
1.02195e-07
1.02434e-07
1.02424e-07
1.02536e-07
1.02503e-07
1.024e-07
1.02451e-07
1.02451e-07
1.02448e-07
1.0245e-07
1.02424e-07
1.02545e-07
1.02532e-07
1.02528e-07
1.02405e-07
1.02533e-07
1.02536e-07
1.0113e-07
1.01119e-07
1.01129e-07
1.01005e-07
1.01e-07
1.01006e-07
1.01002e-07
1.01154e-07
1.01125e-07
1.01129e-07
1.01e-07
1.00817e-07
1.00818e-07
1.00818e-07
1.00817e-07
1.01027e-07
1.01023e-07
1.01005e-07
1.00817e-07
1.00822e-07
1.0082e-07
1.0082e-07
1.00822e-07
1.00817e-07
1.01073e-07
1.01155e-07
1.0113e-07
1.01e-07
1.00818e-07
1.0082e-07
1.00819e-07
1.00819e-07
1.0082e-07
1.00818e-07
1.01073e-07
1.01151e-07
1.01119e-07
1.01006e-07
1.00818e-07
1.0082e-07
1.00819e-07
1.00819e-07
1.0082e-07
1.00818e-07
1.01071e-07
1.01028e-07
1.01002e-07
1.00817e-07
1.00822e-07
1.0082e-07
1.0082e-07
1.00822e-07
1.00817e-07
1.01073e-07
1.01156e-07
1.01154e-07
1.01027e-07
1.00817e-07
1.00818e-07
1.00818e-07
1.00817e-07
1.01057e-07
1.01047e-07
1.01158e-07
1.01125e-07
1.01023e-07
1.01073e-07
1.01073e-07
1.01071e-07
1.01073e-07
1.01047e-07
1.01167e-07
1.01155e-07
1.01151e-07
1.01028e-07
1.01156e-07
1.01158e-07
9.97526e-08
9.97419e-08
9.97514e-08
9.96274e-08
9.9623e-08
9.96285e-08
9.9625e-08
9.97764e-08
9.97479e-08
9.97514e-08
9.96223e-08
9.94401e-08
9.94407e-08
9.94407e-08
9.94401e-08
9.965e-08
9.96456e-08
9.96274e-08
9.94401e-08
9.94443e-08
9.94425e-08
9.94425e-08
9.94443e-08
9.94401e-08
9.96959e-08
9.97774e-08
9.97526e-08
9.9623e-08
9.94407e-08
9.94425e-08
9.94416e-08
9.94416e-08
9.94425e-08
9.94407e-08
9.96959e-08
9.97731e-08
9.97419e-08
9.96285e-08
9.94407e-08
9.94425e-08
9.94416e-08
9.94416e-08
9.94425e-08
9.94407e-08
9.96933e-08
9.96501e-08
9.9625e-08
9.94401e-08
9.94443e-08
9.94425e-08
9.94425e-08
9.94443e-08
9.94401e-08
9.96951e-08
9.97783e-08
9.97764e-08
9.965e-08
9.94401e-08
9.94407e-08
9.94407e-08
9.94401e-08
9.96792e-08
9.96696e-08
9.97808e-08
9.97479e-08
9.96457e-08
9.96959e-08
9.96959e-08
9.96933e-08
9.96951e-08
9.96696e-08
9.97898e-08
9.97774e-08
9.97731e-08
9.96501e-08
9.97783e-08
9.97808e-08
9.83752e-08
9.83645e-08
9.83739e-08
9.825e-08
9.82455e-08
9.8251e-08
9.82476e-08
9.83989e-08
9.83705e-08
9.83739e-08
9.82449e-08
9.80626e-08
9.80633e-08
9.80633e-08
9.80626e-08
9.82725e-08
9.82682e-08
9.825e-08
9.80626e-08
9.80669e-08
9.80651e-08
9.80651e-08
9.80669e-08
9.80626e-08
9.83184e-08
9.83999e-08
9.83752e-08
9.82455e-08
9.80633e-08
9.80651e-08
9.80642e-08
9.80642e-08
9.80651e-08
9.80633e-08
9.83185e-08
9.83957e-08
9.83645e-08
9.8251e-08
9.80633e-08
9.80651e-08
9.80642e-08
9.80642e-08
9.80651e-08
9.80633e-08
9.83158e-08
9.82727e-08
9.82476e-08
9.80626e-08
9.80669e-08
9.80651e-08
9.80651e-08
9.80669e-08
9.80626e-08
9.83177e-08
9.84008e-08
9.83989e-08
9.82725e-08
9.80626e-08
9.80633e-08
9.80633e-08
9.80626e-08
9.83018e-08
9.82921e-08
9.84033e-08
9.83705e-08
9.82682e-08
9.83184e-08
9.83185e-08
9.83159e-08
9.83177e-08
9.82922e-08
9.84123e-08
9.83999e-08
9.83957e-08
9.82727e-08
9.84009e-08
9.84033e-08
9.69978e-08
9.69871e-08
9.69965e-08
9.68726e-08
9.68681e-08
9.68736e-08
9.68701e-08
9.70215e-08
9.69931e-08
9.69965e-08
9.68675e-08
9.66852e-08
9.66859e-08
9.66859e-08
9.66852e-08
9.68951e-08
9.68908e-08
9.68726e-08
9.66852e-08
9.66894e-08
9.66877e-08
9.66877e-08
9.66894e-08
9.66852e-08
9.6941e-08
9.70225e-08
9.69978e-08
9.68681e-08
9.66859e-08
9.66877e-08
9.66868e-08
9.66868e-08
9.66877e-08
9.66859e-08
9.69411e-08
9.70183e-08
9.69871e-08
9.68736e-08
9.66859e-08
9.66877e-08
9.66868e-08
9.66868e-08
9.66877e-08
9.66859e-08
9.69384e-08
9.68953e-08
9.68701e-08
9.66852e-08
9.66894e-08
9.66877e-08
9.66877e-08
9.66894e-08
9.66852e-08
9.69403e-08
9.70234e-08
9.70215e-08
9.68951e-08
9.66852e-08
9.66859e-08
9.66859e-08
9.66852e-08
9.69244e-08
9.69147e-08
9.70259e-08
9.69931e-08
9.68908e-08
9.6941e-08
9.69411e-08
9.69384e-08
9.69403e-08
9.69148e-08
9.70349e-08
9.70225e-08
9.70183e-08
9.68953e-08
9.70234e-08
9.70259e-08
9.56204e-08
9.56097e-08
9.56191e-08
9.54952e-08
9.54907e-08
9.54962e-08
9.54928e-08
9.56441e-08
9.56157e-08
9.56191e-08
9.54901e-08
9.53078e-08
9.53085e-08
9.53085e-08
9.53078e-08
9.55177e-08
9.55134e-08
9.54952e-08
9.53078e-08
9.5312e-08
9.53103e-08
9.53103e-08
9.5312e-08
9.53078e-08
9.55636e-08
9.56451e-08
9.56204e-08
9.54907e-08
9.53085e-08
9.53103e-08
9.53094e-08
9.53094e-08
9.53103e-08
9.53085e-08
9.55637e-08
9.56409e-08
9.56097e-08
9.54962e-08
9.53085e-08
9.53103e-08
9.53094e-08
9.53094e-08
9.53103e-08
9.53085e-08
9.5561e-08
9.55179e-08
9.54927e-08
9.53078e-08
9.5312e-08
9.53103e-08
9.53103e-08
9.5312e-08
9.53078e-08
9.55629e-08
9.5646e-08
9.56441e-08
9.55177e-08
9.53078e-08
9.53085e-08
9.53085e-08
9.53078e-08
9.5547e-08
9.55373e-08
9.56485e-08
9.56157e-08
9.55134e-08
9.55636e-08
9.55637e-08
9.5561e-08
9.55629e-08
9.55374e-08
9.56575e-08
9.56451e-08
9.56409e-08
9.55179e-08
9.5646e-08
9.56485e-08
9.4243e-08
9.42323e-08
9.42417e-08
9.41178e-08
9.41133e-08
9.41188e-08
9.41154e-08
9.42667e-08
9.42383e-08
9.42417e-08
9.41127e-08
9.39304e-08
9.39311e-08
9.39311e-08
9.39304e-08
9.41403e-08
9.4136e-08
9.41178e-08
9.39304e-08
9.39347e-08
9.39329e-08
9.39329e-08
9.39347e-08
9.39304e-08
9.41862e-08
9.42677e-08
9.4243e-08
9.41133e-08
9.39311e-08
9.39329e-08
9.3932e-08
9.3932e-08
9.39329e-08
9.39311e-08
9.41863e-08
9.42635e-08
9.42323e-08
9.41188e-08
9.39311e-08
9.39329e-08
9.3932e-08
9.3932e-08
9.39329e-08
9.39311e-08
9.41836e-08
9.41405e-08
9.41154e-08
9.39304e-08
9.39347e-08
9.39329e-08
9.39329e-08
9.39347e-08
9.39304e-08
9.41855e-08
9.42686e-08
9.42667e-08
9.41403e-08
9.39304e-08
9.39311e-08
9.39311e-08
9.39304e-08
9.41696e-08
9.41599e-08
9.42711e-08
9.42383e-08
9.4136e-08
9.41862e-08
9.41863e-08
9.41837e-08
9.41855e-08
9.416e-08
9.42801e-08
9.42677e-08
9.42635e-08
9.41405e-08
9.42687e-08
9.42711e-08
9.28656e-08
9.28549e-08
9.28644e-08
9.27404e-08
9.2736e-08
9.27414e-08
9.2738e-08
9.28894e-08
9.28609e-08
9.28644e-08
9.27353e-08
9.25531e-08
9.25537e-08
9.25537e-08
9.25531e-08
9.2763e-08
9.27586e-08
9.27404e-08
9.25531e-08
9.25573e-08
9.25555e-08
9.25555e-08
9.25573e-08
9.25531e-08
9.28088e-08
9.28903e-08
9.28656e-08
9.2736e-08
9.25537e-08
9.25555e-08
9.25546e-08
9.25546e-08
9.25555e-08
9.25537e-08
9.28089e-08
9.28861e-08
9.28549e-08
9.27414e-08
9.25537e-08
9.25555e-08
9.25546e-08
9.25546e-08
9.25555e-08
9.25537e-08
9.28063e-08
9.27631e-08
9.2738e-08
9.25531e-08
9.25573e-08
9.25555e-08
9.25555e-08
9.25573e-08
9.25531e-08
9.28081e-08
9.28913e-08
9.28893e-08
9.2763e-08
9.25531e-08
9.25537e-08
9.25537e-08
9.25531e-08
9.27922e-08
9.27826e-08
9.28937e-08
9.28609e-08
9.27586e-08
9.28088e-08
9.28089e-08
9.28063e-08
9.28081e-08
9.27826e-08
9.29027e-08
9.28904e-08
9.28861e-08
9.27631e-08
9.28913e-08
9.28938e-08
9.14882e-08
9.14775e-08
9.1487e-08
9.1363e-08
9.13586e-08
9.13641e-08
9.13606e-08
9.1512e-08
9.14835e-08
9.1487e-08
9.13579e-08
9.11757e-08
9.11763e-08
9.11763e-08
9.11757e-08
9.13856e-08
9.13813e-08
9.1363e-08
9.11757e-08
9.11799e-08
9.11781e-08
9.11781e-08
9.11799e-08
9.11757e-08
9.14315e-08
9.1513e-08
9.14882e-08
9.13586e-08
9.11763e-08
9.11781e-08
9.11772e-08
9.11772e-08
9.11781e-08
9.11763e-08
9.14315e-08
9.15087e-08
9.14775e-08
9.13641e-08
9.11763e-08
9.11781e-08
9.11772e-08
9.11772e-08
9.11781e-08
9.11763e-08
9.14289e-08
9.13857e-08
9.13606e-08
9.11757e-08
9.11799e-08
9.11781e-08
9.11781e-08
9.11799e-08
9.11757e-08
9.14307e-08
9.15139e-08
9.1512e-08
9.13856e-08
9.11757e-08
9.11763e-08
9.11763e-08
9.11757e-08
9.14148e-08
9.14052e-08
9.15164e-08
9.14835e-08
9.13813e-08
9.14315e-08
9.14315e-08
9.14289e-08
9.14307e-08
9.14052e-08
9.15254e-08
9.1513e-08
9.15087e-08
9.13857e-08
9.15139e-08
9.15164e-08
9.01108e-08
9.01001e-08
9.01096e-08
8.99856e-08
8.99812e-08
8.99866e-08
8.99832e-08
9.01346e-08
9.01061e-08
9.01096e-08
8.99805e-08
8.97983e-08
8.97989e-08
8.97989e-08
8.97983e-08
9.00082e-08
9.00038e-08
8.99856e-08
8.97983e-08
8.98025e-08
8.98007e-08
8.98007e-08
8.98025e-08
8.97983e-08
9.0054e-08
9.01356e-08
9.01108e-08
8.99812e-08
8.97989e-08
8.98007e-08
8.97998e-08
8.97998e-08
8.98007e-08
8.97989e-08
9.00541e-08
9.01313e-08
9.01001e-08
8.99866e-08
8.97989e-08
8.98007e-08
8.97998e-08
8.97998e-08
8.98007e-08
8.97989e-08
9.00515e-08
9.00083e-08
8.99832e-08
8.97983e-08
8.98025e-08
8.98007e-08
8.98007e-08
8.98025e-08
8.97983e-08
9.00533e-08
9.01365e-08
9.01345e-08
9.00082e-08
8.97983e-08
8.97989e-08
8.97989e-08
8.97983e-08
9.00374e-08
9.00278e-08
9.0139e-08
9.01061e-08
9.00038e-08
9.0054e-08
9.00541e-08
9.00515e-08
9.00533e-08
9.00278e-08
9.01479e-08
9.01356e-08
9.01313e-08
9.00083e-08
9.01365e-08
9.0139e-08
8.87334e-08
8.87227e-08
8.87321e-08
8.86082e-08
8.86037e-08
8.86092e-08
8.86058e-08
8.87571e-08
8.87287e-08
8.87321e-08
8.86031e-08
8.84208e-08
8.84215e-08
8.84215e-08
8.84208e-08
8.86308e-08
8.86264e-08
8.86082e-08
8.84208e-08
8.84251e-08
8.84233e-08
8.84233e-08
8.84251e-08
8.84208e-08
8.86766e-08
8.87581e-08
8.87334e-08
8.86037e-08
8.84215e-08
8.84233e-08
8.84224e-08
8.84224e-08
8.84233e-08
8.84215e-08
8.86767e-08
8.87539e-08
8.87227e-08
8.86092e-08
8.84215e-08
8.84233e-08
8.84224e-08
8.84224e-08
8.84233e-08
8.84215e-08
8.86741e-08
8.86309e-08
8.86058e-08
8.84208e-08
8.84251e-08
8.84233e-08
8.84233e-08
8.84251e-08
8.84208e-08
8.86759e-08
8.87591e-08
8.87571e-08
8.86308e-08
8.84208e-08
8.84215e-08
8.84215e-08
8.84208e-08
8.866e-08
8.86503e-08
8.87615e-08
8.87287e-08
8.86264e-08
8.86766e-08
8.86767e-08
8.86741e-08
8.86759e-08
8.86504e-08
8.87705e-08
8.87581e-08
8.87539e-08
8.86309e-08
8.87591e-08
8.87616e-08
8.7356e-08
8.73453e-08
8.73548e-08
8.72308e-08
8.72264e-08
8.72318e-08
8.72284e-08
8.73797e-08
8.73513e-08
8.73548e-08
8.72257e-08
8.70435e-08
8.70441e-08
8.70441e-08
8.70435e-08
8.72534e-08
8.7249e-08
8.72308e-08
8.70435e-08
8.70477e-08
8.70459e-08
8.70459e-08
8.70477e-08
8.70435e-08
8.72992e-08
8.73807e-08
8.7356e-08
8.72264e-08
8.70441e-08
8.70459e-08
8.7045e-08
8.7045e-08
8.70459e-08
8.70441e-08
8.72993e-08
8.73765e-08
8.73453e-08
8.72318e-08
8.70441e-08
8.70459e-08
8.7045e-08
8.7045e-08
8.70459e-08
8.70441e-08
8.72967e-08
8.72535e-08
8.72284e-08
8.70435e-08
8.70477e-08
8.70459e-08
8.70459e-08
8.70477e-08
8.70435e-08
8.72985e-08
8.73817e-08
8.73797e-08
8.72534e-08
8.70435e-08
8.70441e-08
8.70441e-08
8.70435e-08
8.72826e-08
8.7273e-08
8.73841e-08
8.73513e-08
8.7249e-08
8.72992e-08
8.72993e-08
8.72967e-08