/*--------------------------------*- C++ -*----------------------------------*\
| =========                 |                                                 |
| \\      /  F ield         | OpenFOAM: The Open Source CFD Toolbox           |
|  \\    /   O peration     | Version:  2312                                  |
|   \\  /    A nd           | Website:  www.openfoam.com                      |
|    \\/     M anipulation  |                                                 |
\*---------------------------------------------------------------------------*/
FoamFile
{
    version     2.0;
    format      ascii;
    arch        "LSB;label=32;scalar=64";
    class       surfaceScalarField;
    location    "750";
    object      phi;
}
// * * * * * * * * * * * * * * * * * * * * * * * * * * * * * * * * * * * * * //

dimensions      [0 3 -1 0 0 0 0];

oriented        oriented;

internalField   nonuniform List<scalar> 
125280
(
1.24137e-07
1.18796e-07
-0.00118379
-7.70935e-08
-7.70579e-08
0.0011837
-0.00113203
-1.19882e-06
-1.13262e-07
-8.98718e-08
0.00113205
-2.39361e-07
1.23826e-06
2.74663e-07
9.11173e-07
-2.14947e-07
-8.55064e-07
2.69018e-07
-0.00113194
-1.1935e-06
-1.24634e-07
-4.48945e-08
0.00113192
-2.36702e-07
1.23549e-06
2.74607e-07
9.11268e-07
-2.1496e-07
-8.52393e-07
2.69029e-07
-0.000270074
1.22482e-06
1.18815e-06
-1.97872e-07
-2.00666e-07
0.00026806
-1.28036e-06
-1.23847e-06
0.000270144
-0.000268111
2.38943e-07
2.468e-07
0.00113153
-1.23622e-07
-0.00113155
-4.46821e-08
-1.23571e-06
2.77269e-07
-2.42195e-07
-8.55279e-07
2.66213e-07
-2.12343e-07
9.13978e-07
1.2778e-06
0.0011316
5.8424e-08
-0.00113178
-6.73265e-08
-1.23081e-06
2.80043e-07
-2.3969e-07
-8.60432e-07
2.63568e-07
-2.15005e-07
9.13724e-07
-1.21671e-06
0.000270124
-0.00026811
2.33927e-07
2.46598e-07
0.00113253
-1.23993e-07
-0.00113255
-5.03243e-08
-1.1938e-06
2.74783e-07
-2.36844e-07
-8.5778e-07
2.6911e-07
-2.15069e-07
9.16596e-07
1.27241e-06
0.00113147
-1.17827e-07
-0.00113149
-5.60193e-08
-1.22774e-06
2.80143e-07
-2.42283e-07
-8.57807e-07
2.6625e-07
-2.15078e-07
9.16484e-07
-6.70623e-08
-2.22366e-07
-1.25772e-06
2.7198e-07
-2.4499e-07
-8.57941e-07
2.66343e-07
9.08572e-07
-2.17695e-07
-0.00113182
1.27211e-06
0.0011311
-1.0101e-07
-5.01522e-08
-1.22219e-06
2.79956e-07
-2.39535e-07
-8.55029e-07
2.66269e-07
-2.14946e-07
9.08452e-07
-0.00113114
-1.2382e-06
0.000270106
-0.000268083
2.41708e-07
2.46658e-07
-1.24163e-07
-0.00113198
-3.33708e-08
-1.19358e-06
2.74646e-07
-2.36741e-07
-8.52391e-07
2.69057e-07
9.11286e-07
-2.15005e-07
1.23033e-06
0.00113206
-1.23799e-07
-0.00113204
-8.41811e-08
-1.19358e-06
2.74825e-07
-2.39483e-07
-8.54953e-07
2.69009e-07
-2.15015e-07
9.13774e-07
-0.000268058
2.38937e-07
2.46764e-07
1.23565e-06
1.19373e-06
-1.95431e-07
-2.03215e-07
0.000268113
-5.05481e-08
0.00113151
-2.39407e-07
1.28032e-06
2.77232e-07
9.13893e-07
-2.12281e-07
-8.55232e-07
2.66177e-07
-1.23305e-06
-1.12917e-07
-5.06551e-08
0.00113157
-2.42322e-07
1.27769e-06
2.80059e-07
9.164e-07
-2.14992e-07
-8.57683e-07
2.689e-07
-2.03239e-07
-2.00562e-07
0.000268096
-5.05572e-08
0.0011325
-2.36816e-07
1.23842e-06
2.74745e-07
9.16561e-07
-2.15041e-07
-8.57726e-07
2.69081e-07
-1.22767e-06
-1.18396e-07
-5.06524e-08
0.00113144
-2.4223e-07
1.27236e-06
2.80099e-07
9.16461e-07
-2.12321e-07
-8.57771e-07
2.66222e-07
-1.24515e-07
-5.03953e-08
0.00113108
-2.3945e-07
1.26939e-06
2.77174e-07
9.0841e-07
-2.12184e-07
2.63532e-07
-8.49644e-07
-1.98181e-07
-2.03092e-07
0.000268086
-1.24341e-07
-6.77026e-08
0.00113206
-2.36693e-07
1.23297e-06
2.74757e-07
9.13682e-07
-2.14981e-07
2.68988e-07
-8.54904e-07
6.86201e-09
-4.35982e-08
0.000193706
3.31533e-09
-0.000193672
6.879e-09
-4.36312e-08
0.000193689
-0.000193655
-0.00118389
-7.05926e-08
-7.63976e-08
0.00118346
-0.00118305
-1.57975e-07
-2.56338e-07
0.00118335
-0.00118345
-8.81722e-08
-5.31468e-08
0.00118328
-0.00118331
-9.95298e-08
-1.00077e-07
-1.06772e-10
-7.00547e-08
0.000229498
-0.000229459
2.98511e-08
1.97624e-09
-0.000193745
-4.8757e-09
2.26469e-08
-4.02193e-09
0.000193731
-0.000229458
8.79172e-11
2.85844e-08
0.00022944
-1.11136e-08
1.2232e-09
6.94869e-09
-4.34112e-08
0.000193784
3.18109e-09
-0.000193751
-9.80694e-05
4.94097e-09
1.36804e-08
9.80508e-05
-6.91813e-09
-2.19173e-08
9.80899e-05
-9.80611e-05
-7.00936e-08
-1.43276e-10
0.000229485
-0.000229447
2.13904e-09
2.98714e-08
-0.000193728
-4.92543e-09
2.26303e-08
-3.9543e-09
0.000193714
-0.000229446
2.86137e-08
1.85907e-10
0.000229427
9.57631e-10
-1.11368e-08
6.95647e-09
-4.34525e-08
0.000193767
3.21418e-09
-0.000193734
-8.87454e-08
-1.23695e-07
0.00118344
-7.71944e-08
-6.54145e-08
0.00118325
-8.29376e-08
-9.4882e-08
0.00118321
6.99387e-08
-1.7293e-09
0.000250298
-0.000250177
4.04506e-09
-1.93052e-07
-0.000245595
-1.20339e-08
-2.26189e-08
6.64064e-08
3.94658e-09
0.000245559
0.00115197
-0.00115206
-1.28668e-08
-1.3366e-07
1.00605e-06
-7.53329e-07
-9.35419e-07
8.28463e-07
-5.65855e-08
1.24092e-06
0.00113203
-1.24977e-07
-8.52301e-07
2.68947e-07
-2.14933e-07
9.11178e-07
-1.19609e-06
2.74623e-07
-2.36585e-07
-0.000250274
-2.84619e-08
9.17185e-10
0.000250167
2.76417e-09
1.31787e-07
2.32875e-08
4.3403e-08
0.000245633
-1.67631e-08
-0.000245578
-1.04719e-07
-9.7944e-09
0.00115193
-1.52039e-07
-9.32486e-07
8.25784e-07
-7.53149e-07
1.00338e-06
-9.80626e-05
4.92158e-09
1.13818e-08
9.80463e-05
-7.00311e-09
-1.95162e-08
9.80831e-05
-9.80565e-05
-6.51107e-10
6.99413e-08
0.000250288
-0.000250168
-1.93056e-07
3.83633e-09
0.0011518
-0.00115185
1.36225e-08
-1.50988e-07
1.00612e-06
-7.56045e-07
-9.32671e-07
8.28491e-07
-0.000245584
-1.20404e-08
-2.25959e-08
6.39886e-08
3.99125e-09
0.000245551
-5.06171e-08
1.23544e-06
0.0011319
-1.24967e-07
-8.52349e-07
2.68984e-07
-2.14938e-07
9.11224e-07
-1.19076e-06
2.74561e-07
-2.36679e-07
-0.000250261
1.26437e-09
-2.84904e-08
0.000250154
1.31807e-07
1.84135e-09
1.10717e-10
0.00115175
-1.51919e-07
-9.32536e-07
8.2851e-07
-7.53186e-07
1.00613e-06
2.31439e-08
4.34412e-08
0.000245623
-1.66823e-08
-0.00024557
-1.02336e-07
-0.000278333
1.21738e-08
-1.13928e-08
2.26853e-08
-6.82757e-09
0.000278316
-0.000278255
1.2043e-08
-1.14201e-08
2.27379e-08
-7.21383e-09
0.000278239
-1.26935e-06
-1.23291e-06
0.000270079
-0.000268062
2.41346e-07
2.44012e-07
-2.31461e-08
1.96294e-08
0.000278383
1.00859e-08
-0.000278339
-5.05814e-08
-2.32858e-08
1.95183e-08
0.000278305
1.07403e-08
-0.000278264
-4.82291e-08
-1.98365e-08
9.80692e-05
-9.80426e-05
-1.9803e-08
9.80582e-05
-9.80316e-05
0.00027014
-1.28042e-06
-1.24124e-06
-0.000268104
2.39069e-07
2.46939e-07
0.000278329
-2.31431e-08
1.2583e-08
-0.000278287
-5.07835e-08
0.000278261
-2.08439e-08
1.00542e-08
-0.000278219
-5.07896e-08
-1.9725e-08
-6.90573e-09
9.80899e-05
-9.80632e-05
1.14124e-08
4.93207e-09
9.80529e-05
-1.96999e-08
-6.91745e-09
9.80788e-05
-9.80522e-05
1.13523e-08
4.97576e-09
9.80419e-05
1.23577e-06
1.19656e-06
0.000268106
-1.95475e-07
-2.03256e-07
-2.31485e-08
0.000278379
-5.0653e-08
-0.000278338
1.26318e-08
-2.08417e-08
0.000278312
-5.06699e-08
-0.00027827
1.00931e-08
1.20668e-08
-9.36601e-09
2.49789e-08
0.000278313
9.7378e-09
-6.7605e-09
2.49159e-08
0.000278245
0.00113157
-1.22557e-07
-1.23586e-06
2.77375e-07
-2.3955e-07
-8.55407e-07
2.68981e-07
-2.15136e-07
9.13997e-07
-4.4246e-08
0.000245558
-1.66954e-08
-0.000245503
-1.04893e-07
4.74567e-11
2.86023e-08
-1.11049e-08
9.91608e-10
0.000229401
-0.000229419
-4.35095e-08
-0.000193712
3.25139e-09
2.26017e-08
-3.95344e-09
0.000193692
-8.93335e-11
-7.01321e-08
-0.00022942
2.99127e-08
1.96927e-09
2.86006e-08
-1.10998e-08
9.50224e-10
0.00022936
-0.000229379
-4.57245e-08
6.88705e-09
0.000193683
-0.000193648
3.41985e-09
2.47699e-08
-4.98825e-09
-4.00415e-09
0.000193628
-0.000193644
-7.01403e-08
0.000229418
-0.00022938
2.99172e-08
2.13253e-09
8.1261e-10
2.69159e-09
1.32013e-07
0.00025015
-0.000250257
-5.57212e-08
-1.23144e-07
1.28039e-06
-2.39479e-07
2.80058e-07
9.13966e-07
-2.12352e-07
2.66271e-07
-8.55393e-07
0.000245596
-1.04768e-07
-0.000245541
-1.67096e-08
-0.00115235
1.30543e-09
0.00115231
-1.49615e-07
-9.35711e-07
8.31239e-07
-7.56293e-07
1.00899e-06
3.99299e-09
6.64124e-08
0.000245522
4.19716e-10
-1.54265e-07
1.00891e-06
-7.56461e-07
-9.35922e-07
8.31186e-07
-0.0011524
-8.2475e-10
0.000250285
-0.000250164
3.10804e-09
-1.93159e-07
1.45119e-09
1.3202e-07
0.000250126
-0.00025023
-3.3118e-08
-1.23858e-06
-3.10632e-07
9.19137e-07
-2.09674e-07
-8.55133e-07
2.68935e-07
1.28087e-06
-2.45018e-07
2.80228e-07
-0.00113164
2.30593e-08
0.000245492
-1.04741e-07
-0.000245437
-1.90164e-08
-0.00115232
0.00115224
-1.26452e-07
-9.43665e-07
8.31211e-07
-7.58999e-07
1.01144e-06
-1.20811e-08
6.38506e-09
6.63668e-08
0.000245418
-0.000245454
-1.83373e-07
1.01689e-06
-7.56431e-07
-9.3836e-07
8.33906e-07
-0.00115233
0.000250257
-0.000250139
4.74059e-09
-1.93173e-07
-2.20125e-08
-9.80405e-05
1.36176e-08
9.80302e-05
-9.80488e-05
0.000268108
-1.87871e-07
-0.000270125
1.17192e-06
-2.05746e-07
0.000278251
-4.83427e-08
-0.000278212
1.06035e-08
1.96421e-08
-2.32884e-08
0.000278394
-4.83748e-08
-0.000278353
1.06879e-08
2.26052e-08
0.000278187
-0.000278201
-7.45063e-09
-7.01196e-09
9.80856e-05
-9.80589e-05
0.00113257
-1.22915e-07
-1.19666e-06
2.74864e-07
-2.36926e-07
2.69186e-07
-2.15148e-07
0.000245524
-0.000245467
-1.02594e-07
2.86456e-08
1.78678e-10
9.46796e-10
-1.11319e-08
0.000229388
-4.35408e-08
-0.000193695
3.27005e-09
2.25809e-08
-3.88607e-09
0.000193675
-7.01606e-08
-1.42827e-10
-0.000229408
2.13982e-09
2.99294e-08
1.68449e-09
1.92211e-09
1.32039e-07
0.000250144
-5.01386e-08
-1.23521e-07
1.24121e-06
-2.36883e-07
2.74825e-07
9.1663e-07
-2.15087e-07
2.69147e-07
-8.57842e-07
0.000245562
-1.02485e-07
-0.000245505
-1.9192e-08
-0.00115219
-3.85601e-09
0.00115215
-1.49663e-07
-9.38246e-07
8.31222e-07
-7.56253e-07
1.01151e-06
6.50216e-09
6.40266e-08
0.000245486
3.72401e-09
-1.42678e-07
1.01146e-06
-7.56457e-07
-9.38406e-07
8.31157e-07
-1.66059e-09
0.000250278
-0.000250157
4.03369e-09
-1.93186e-07
2.86407e-08
-1.11257e-08
9.49297e-10
0.000229349
-4.34414e-08
6.96433e-09
0.00019367
-0.000193637
3.17174e-09
2.25599e-08
-4.96476e-09
-3.92252e-09
0.000193617
-7.01393e-08
0.000229406
-0.000229368
2.99166e-08
2.21198e-09
1.32053e-07
1.65173e-09
0.000250117
-5.02056e-08
-1.22782e-06
-1.17303e-07
9.16494e-07
-2.15127e-07
-8.57869e-07
2.68983e-07
1.27244e-06
-2.42324e-07
2.80207e-07
-0.00115214
0.00115207
-1.4375e-07
-9.38263e-07
8.31215e-07
-7.56293e-07
1.0115e-06
2.32593e-08
0.000245476
-9.99262e-08
-0.000245426
-1.67787e-08
-1.36735e-07
1.01146e-06
-7.56487e-07
-9.38408e-07
8.31153e-07
-1.21408e-08
3.98358e-09
6.40457e-08
0.000245407
0.000250248
-0.000250131
-1.93168e-07
4.3554e-09
4.34926e-08
-1.02398e-07
-0.000245542
-1.68008e-08
-3.95722e-08
-7.95645e-08
-9.4113e-07
8.2839e-07
1.006e-06
-7.58983e-07
-0.00115229
7.0001e-08
-2.04879e-09
-0.000250153
4.51917e-09
-1.93069e-07
0.000193732
-0.000193698
3.08409e-09
-2.3406e-10
0.000229441
-0.000229405
2.10675e-09
3.19683e-08
0.00115195
-1.26681e-07
-9.35483e-07
8.25697e-07
-7.56231e-07
1.0033e-06
-0.00115205
4.35144e-08
2.31853e-08
0.000245516
-9.99578e-08
-0.000245466
-1.66807e-08
7.00579e-08
0.000250244
-0.000250124
-1.95685e-07
4.02317e-09
6.87558e-09
0.000193675
-0.000193642
3.30442e-09
0.000229404
-0.000229366
2.98729e-08
1.9473e-09
-1.96143e-08
-9.8036e-05
1.1321e-08
9.80257e-05
1.19635e-06
0.000268081
-1.98239e-07
-2.03169e-07
0.00027825
-4.60404e-08
-0.000278211
1.05839e-08
1.9702e-08
-2.3149e-08
0.000278386
-4.83631e-08
-0.000278345
1.05499e-08
-7.29266e-09
2.04052e-08
0.000278186
-1.13376e-08
9.70838e-09
-7.29235e-09
2.2593e-08
0.000278322
-6.90759e-09
9.80855e-05
-9.80589e-05
4.96659e-09
9.80485e-05
1.6939e-09
-2.85367e-08
1.31977e-07
1.82983e-09
0.000250128
-4.44364e-08
-1.23679e-07
1.23824e-06
-2.39543e-07
2.74688e-07
9.1133e-07
-2.15024e-07
-8.52532e-07
2.69108e-07
-0.00115191
2.26609e-08
-1.49933e-07
-9.3277e-07
8.28465e-07
1.0061e-06
-7.5074e-07
4.35352e-08
-1.02455e-07
-0.000245532
-1.66955e-08
5.79548e-08
-1.43111e-07
1.00604e-06
-7.53666e-07
-9.32999e-07
8.25658e-07
-2.25579e-08
4.03749e-09
6.40064e-08
0.00024551
-2.47267e-10
7.00234e-08
-0.000250141
-1.93105e-07
3.35109e-09
-2.84812e-08
1.31976e-07
2.21101e-09
0.000250103
-2.49726e-07
-1.26843e-06
-1.00973e-07
9.11017e-07
-2.15043e-07
-8.55112e-07
2.69098e-07
1.20331e-06
-2.53275e-07
2.72118e-07
-0.00115183
0.00115177
-1.43968e-07
-9.35336e-07
8.28372e-07
-7.50754e-07
1.0085e-06
4.34899e-08
2.33006e-08
0.000245481
-1.02422e-07
-0.000245429
-1.68309e-08
-1.01532e-07
1.00572e-06
-7.53706e-07
-9.35647e-07
8.25558e-07
-2.25734e-08
-1.20627e-08
3.9948e-09
6.40182e-08
0.00024541
6.9948e-08
0.000250234
-0.000250116
-1.93057e-07
5.79295e-09
3.51967e-10
7.93584e-10
-1.31879e-08
0.000229378
0.000193727
-0.000193694
3.28732e-09
-3.88487e-09
0.000193674
5.30354e-11
0.000229434
-0.000229398
1.80686e-09
3.19666e-08
1.16566e-09
-1.52741e-08
0.000229341
7.00052e-09
0.000193667
-0.000193634
3.13472e-09
-4.95443e-09
-3.8988e-09
0.000193614
0.000229394
-0.00022936
2.47404e-09
3.40479e-08
0.000268069
-2.03376e-07
1.22547e-06
-2.10896e-07
1.97401e-08
-4.84055e-08
-0.000278291
1.00369e-08
1.96159e-08
-4.83402e-08
-0.000278213
1.0705e-08
-1.13617e-08
2.26823e-08
0.000278188
-7.25137e-09
9.80653e-05
-9.80387e-05
9.80615e-05
-9.80348e-05
9.80245e-05
1.14798e-08
9.80735e-05
-1.96179e-08
9.81103e-05
-9.80837e-05
1.14148e-08
9.80625e-05
-1.95969e-08
9.80993e-05
-9.80727e-05
1.20267e-08
2.50359e-08
-9.30144e-09
0.000278363
9.70306e-09
2.49769e-08
-6.70506e-09
0.000278295
0.000270149
-1.28027e-06
-1.23837e-06
-0.000268116
2.38784e-07
2.46646e-07
0.00027843
-2.31455e-08
1.26752e-08
-0.000278388
-5.05278e-08
0.000278362
-2.08374e-08
1.01314e-08
-0.00027832
-5.0546e-08
1.15505e-08
4.82117e-09
9.80939e-05
1.14806e-08
4.87525e-09
9.80829e-05
1.23554e-06
1.19362e-06
0.000268119
-1.95403e-07
-2.03186e-07
1.19969e-08
-9.24332e-09
2.51057e-08
0.000278413
9.67555e-09
-6.65048e-09
2.50428e-08
0.000278345
-7.00619e-08
0.000229457
-0.000229419
2.98567e-08
2.12155e-09
2.48139e-08
-4.06426e-09
0.000193668
2.85847e-08
0.0002294
-1.11129e-08
9.55128e-10
-4.56324e-08
0.000193722
3.37148e-09
-0.000193687
-8.538e-10
0.000250312
-0.000250192
3.11667e-09
-1.93117e-07
6.64185e-08
3.95251e-09
0.000245561
0.00115225
7.41758e-09
-1.50754e-07
1.00898e-06
-7.56144e-07
-9.35606e-07
8.31258e-07
-4.50532e-08
0.00113148
-1.24509e-07
-1.23559e-06
2.77186e-07
-2.39375e-07
-8.55174e-07
2.66134e-07
-2.12272e-07
9.13856e-07
9.46674e-10
0.000250178
2.69829e-09
1.31864e-07
0.000245634
-1.6699e-08
-0.00024558
-1.04648e-07
-1.73092e-09
0.00115221
-1.51703e-07
-9.3546e-07
8.31295e-07
-7.5599e-07
1.009e-06
0.000250284
-0.000250167
4.73008e-09
-1.93127e-07
-1.20555e-08
6.64044e-08
3.91255e-09
0.000245458
0.0011522
-1.45096e-07
1.01147e-06
-7.56113e-07
-9.38068e-07
8.31236e-07
-5.63393e-08
0.00113155
1.27768e-06
-1.24606e-07
-8.60286e-07
2.68869e-07
9.19048e-07
-2.14974e-07
-1.23033e-06
2.80011e-07
-2.39546e-07
0.000250153
1.46417e-09
1.31864e-07
0.00024553
2.30552e-08
-1.65636e-08
-0.000245477
-1.0467e-07
0.00115214
-1.51767e-07
-9.40651e-07
8.31271e-07
-7.55958e-07
1.01421e-06
6.10222e-11
2.85741e-08
-1.11267e-08
1.23965e-09
0.000229479
2.27044e-08
-4.09695e-09
0.00019377
2.85735e-08
-1.11225e-08
9.5565e-10
0.000229439
2.48568e-08
-4.89365e-09
-4.12083e-09
0.000193707
8.60048e-10
2.9565e-09
1.3174e-07
0.000250205
-5.0883e-08
-1.24955e-07
1.28023e-06
-2.39351e-07
2.77145e-07
9.13834e-07
-2.12247e-07
2.66096e-07
-8.5515e-07
0.00113146
3.92163e-09
6.64453e-08
0.000245599
4.5107e-09
-1.52738e-07
1.009e-06
-7.55866e-07
-9.35362e-07
8.31308e-07
0.00115216
1.2227e-09
1.3174e-07
0.000250181
-5.08753e-08
-1.23298e-06
-1.25027e-07
9.19023e-07
-2.14947e-07
-8.60233e-07
2.68826e-07
1.27765e-06
-2.42242e-07
2.79976e-07
0.00113153
-1.20287e-08
3.89045e-09
6.64162e-08
0.000245497
-1.52788e-07
1.01422e-06
-7.55829e-07
-9.40538e-07
8.31292e-07
0.0011521
2.26586e-08
-7.41316e-09
0.000278238
-1.14789e-08
2.27556e-08
-7.17937e-09
0.000278378
0.000270134
-0.000268101
2.41568e-07
2.43887e-07
0.000278301
1.06364e-08
-0.000278263
-4.82325e-08
1.95453e-08
0.000278447
1.02342e-08
-0.000278403
-5.05596e-08
4.92047e-09
9.80692e-05
9.8106e-05
-7.04607e-09
-9.80794e-05
1.37406e-08
9.80713e-05
1.19605e-06
0.000268104
-1.98027e-07
-2.00498e-07
-7.35999e-09
2.27201e-08
0.000278288
-1.15288e-08
1.20078e-08
-6.61755e-09
2.51059e-08
0.000278428
4.87305e-09
9.80896e-05
-1.6688e-09
0.000250305
-0.000250185
4.0402e-09
-1.93143e-07
6.4042e-08
6.45861e-09
0.000245524
0.00115209
3.36375e-09
-1.45005e-07
1.01152e-06
-7.56105e-07
-9.38118e-07
8.3125e-07
-5.06827e-08
0.00113248
-1.24893e-07
-1.19367e-06
2.74696e-07
-2.3679e-07
-8.57681e-07
2.69038e-07
-2.15004e-07
9.16532e-07
1.68913e-09
0.000250171
1.92987e-09
1.31875e-07
0.0002456
-1.91747e-08
-0.000245543
-1.02369e-07
-3.90741e-09
0.00115204
-1.45973e-07
-9.3797e-07
8.31277e-07
-7.55941e-07
1.01154e-06
-7.00718e-08
0.000229445
-0.000229408
2.98576e-08
2.20665e-09
2.261e-08
-3.97623e-09
0.000193656
2.86131e-08
0.000229388
-1.11343e-08
9.7332e-10
-4.33576e-08
0.000193709
3.11148e-09
-0.000193676
0.000250275
-0.000250158
-1.93129e-07
4.3547e-09
0.00115203
-1.50747e-07
1.01152e-06
-7.56134e-07
-9.38146e-07
8.31242e-07
-1.21168e-08
6.16335e-08
3.99891e-09
0.000245445
-5.08195e-08
0.00113142
1.27231e-06
-1.24481e-07
-8.57728e-07
2.66168e-07
9.16424e-07
-2.12302e-07
-1.2276e-06
2.80053e-07
-2.42209e-07
0.000250145
1.31888e-07
1.68168e-09
0.00115197
-1.45877e-07
-9.38008e-07
8.31275e-07
-7.55993e-07
1.01154e-06
0.000245514
2.32557e-08
-1.67756e-08
-0.000245464
-9.98206e-08
2.85972e-08
1.89077e-10
9.66368e-10
-1.11419e-08
0.000229467
2.26763e-08
-4.01269e-09
0.000193753
1.69839e-09
1.94632e-09
1.34334e-07
0.000250196
-5.08845e-08
-1.25335e-07
1.23833e-06
-2.36766e-07
2.74655e-07
9.16506e-07
-2.14986e-07
2.68997e-07
-8.57655e-07
0.00113246
6.4429e-09
6.40563e-08
0.000245562
3.50829e-09
-1.5284e-07
1.01154e-06
-7.55803e-07
-9.37876e-07
8.31281e-07
0.00115199
2.86067e-08
-1.11431e-08
9.8589e-10
0.000229427
2.26555e-08
-4.87238e-09
-4.02808e-09
0.000193695
1.34369e-07
1.69819e-09
0.00025017
-5.09923e-08
-1.22755e-06
-1.24917e-07
9.16387e-07
-2.12281e-07
-8.57683e-07
2.66129e-07
1.27226e-06
-2.42187e-07
2.80009e-07
0.0011314
-1.52752e-07
1.01154e-06
-7.55857e-07
-9.37892e-07
8.31284e-07
0.00115193
-1.20929e-08
3.98033e-09
6.16534e-08
0.000245484
-1.35135e-10
0.000229481
-0.000229445
2.10576e-09
3.19101e-08
-3.90686e-09
0.000193718
-1.5732e-10
0.000229425
1.32356e-09
-1.31763e-08
0.000193771
3.03294e-09
-0.000193737
6.99921e-08
0.000250269
-0.000250151
-1.93075e-07
4.03372e-09
0.00115189
-1.45333e-07
1.00332e-06
-7.50583e-07
8.25761e-07
-9.29908e-07
-2.25841e-08
6.39522e-08
4.03575e-09
0.000245483
-4.49684e-08
0.00113105
-1.19145e-07
-1.22475e-06
2.77136e-07
-2.39384e-07
-8.49596e-07
2.63472e-07
-2.09448e-07
9.08379e-07
-2.85226e-08
0.000250138
1.34388e-07
1.16757e-09
0.00115183
-1.46187e-07
-9.32464e-07
8.28532e-07
-7.53169e-07
1.00608e-06
4.34123e-08
0.000245554
-1.66548e-08
-0.0002455
-1.04657e-07
0.000229443
-0.000229405
2.9817e-08
1.95951e-09
-4.9452e-09
-3.90659e-09
0.000193661
0.000229386
-1.10926e-08
8.76893e-10
0.000193714
6.92056e-09
3.2332e-09
-0.000193681
-2.84372e-08
1.38626e-09
2.28627e-09
1.31636e-07
0.000250191
-5.68295e-08
-1.25398e-07
1.24087e-06
-2.36564e-07
2.74575e-07
9.11158e-07
-2.14918e-07
-8.52311e-07
2.68912e-07
0.00113202
-2.26614e-08
3.90931e-09
6.64192e-08
0.000245597
1.42949e-09
-1.53003e-07
1.00607e-06
-7.50273e-07
-9.29701e-07
8.2853e-07
0.00115187
-3.0994e-11
1.33131e-09
-1.31786e-08
0.000229464
-3.96441e-09
0.000193757
-2.84881e-08
1.31656e-07
1.67677e-09
0.000250165
-5.07579e-08
-1.2247e-06
-1.30951e-07
9.08349e-07
-2.09431e-07
-8.49567e-07
2.63429e-07
1.26931e-06
-2.39358e-07
2.77102e-07
0.00113103
-1.58819e-07
1.00609e-06
-7.53015e-07
-9.32351e-07
8.28553e-07
0.00115179
-2.263e-08
-1.21032e-08
4.00174e-09
6.63508e-08
0.000245519
-1.10955e-08
8.93527e-10
0.000229425
-4.88781e-09
-3.98143e-09
0.0001937
2.04457e-08
-7.24248e-09
0.000278236
-1.14199e-08
2.27049e-08
-9.83302e-09
0.000278372
0.000270108
-0.000268088
2.4156e-07
2.4652e-07
0.0002783
1.06193e-08
-0.000278261
-4.59204e-08
1.95959e-08
0.000278436
1.32042e-08
-0.000278398
-4.82693e-08
4.90635e-09
9.80691e-05
9.81059e-05
-6.94678e-09
-9.80794e-05
1.14467e-08
9.80667e-05
1.19072e-06
0.000268091
-1.98157e-07
-2.03073e-07
-7.19006e-09
2.05115e-08
0.000278286
-1.1486e-08
1.20122e-08
-9.76622e-09
2.27653e-08
0.000278423
4.85628e-09
9.80896e-05
6.9866e-08
0.000250261
-0.000250144
-1.93014e-07
5.30684e-09
0.00115172
-1.50934e-07
1.00851e-06
-7.56038e-07
8.28415e-07
-9.35169e-07
-2.2615e-08
6.40141e-08
3.97647e-09
0.000245448
-5.10441e-08
0.00113204
-1.24791e-07
-1.1881e-06
2.74703e-07
-2.36677e-07
-8.54819e-07
2.68935e-07
-2.14974e-07
9.13645e-07
-2.84407e-08
0.00025013
1.31806e-07
1.26452e-09
0.00115167
-1.51871e-07
-9.34998e-07
8.28445e-07
-7.53159e-07
1.00853e-06
4.34045e-08
0.00024552
-1.68015e-08
-0.000245467
-1.02309e-07
-8.19913e-11
0.000229473
-0.000229437
2.25017e-09
3.19047e-08
-3.95514e-09
0.000193714
3.27225e-10
0.000229417
8.07149e-10
-1.31895e-08
0.000193766
3.2277e-09
-0.000193733
0.000229433
-0.000229399
2.47185e-09
3.39825e-08
-4.91298e-09
-3.95226e-09
0.000193654
0.00022938
9.58481e-10
-1.52796e-08
0.000193706
7.03203e-09
3.09069e-09
-0.000193673
8.95277e-10
-2.84796e-08
1.31689e-07
2.1076e-09
0.000250182
-5.07825e-08
-1.2541e-07
1.23539e-06
-2.36655e-07
2.7452e-07
9.11191e-07
-2.14923e-07
-8.52323e-07
2.68939e-07
0.00113188
5.17323e-09
-1.52975e-07
1.00612e-06
-7.53049e-07
-9.32444e-07
8.28523e-07
0.0011517
-2.26504e-08
3.96723e-09
6.40145e-08
0.000245589
-2.84245e-08
1.3167e-07
7.98744e-10
0.000250158
-5.11931e-08
-1.18806e-06
-1.25247e-07
9.13561e-07
-2.14956e-07
-8.54796e-07
2.68907e-07
1.23286e-06
-2.36661e-07
2.74657e-07
0.00113202
-1.52921e-07
1.00853e-06
-7.53005e-07
-9.34892e-07
8.28464e-07
0.00115163
-2.2665e-08
-1.20279e-08
3.95544e-09
6.40466e-08
0.000245486
2.16173e-10
8.2215e-10
-1.3201e-08
0.000229457
-4.02051e-09
0.000193753
7.4289e-10
-1.52886e-08
0.000229419
-4.86826e-09
-4.00709e-09
0.000193693
9.8049e-05
9.80857e-05
-9.80592e-05
9.80451e-05
9.80819e-05
-9.80554e-05
0.000268065
-1.9786e-07
-2.00633e-07
-1.14618e-08
-6.76156e-09
2.50517e-08
0.000278364
-1.14825e-08
-7.16503e-09
2.27956e-08
0.000278289
9.80694e-05
9.80656e-05
1.70461e-08
7.92964e-05
2.23994e-11
-0.000263321
2.42379e-08
0.000263366
-6.15523e-08
-4.3939e-09
-3.91975e-09
-4.96313e-09
2.25902e-08
3.322e-08
-9.23662e-10
7.93221e-05
-1.48678e-09
-5.0001e-09
2.25647e-08
-8.61847e-10
1.2397e-08
0.000143482
-0.000143493
7.26378e-11
-1.11159e-08
1.00735e-09
-0.000229478
-7.35563e-11
2.85738e-08
-0.0001712
-2.70737e-10
-3.54209e-11
0.00017123
-0.000223511
2.87625e-08
4.43926e-09
0.000223551
-7.15563e-08
-0.000171212
-2.39404e-11
-0.000223532
9.9027e-10
3.29533e-08
1.54789e-09
0.000143509
-7.93223e-05
-2.40931e-08
-1.53314e-09
7.93479e-05
-1.7121e-08
0.000263398
-9.72298e-10
-0.000263418
3.32952e-08
3.21707e-09
0.000193765
6.92513e-09
-4.34602e-08
-4.60471e-11
-7.93393e-05
-4.42787e-09
0.000263443
-6.13797e-08
-0.000143466
2.80687e-10
-2.87892e-08
2.98839e-08
2.19154e-09
5.22905e-11
-7.00943e-08
8.50184e-10
0.000171182
-0.000171194
-1.0363e-11
-1.2397e-08
0.000223491
-0.000223511
3.29689e-08
-0.000143478
-2.07395e-11
-7.15918e-08
1.71485e-08
7.93308e-05
-0.000263424
2.40481e-08
0.000263469
-6.13184e-08
-4.06112e-09
-4.84836e-09
2.26726e-08
3.33174e-08
7.93564e-05
9.80797e-05
-6.89809e-09
-2.19674e-08
4.91726e-09
1.37074e-08
1.24152e-08
-8.1496e-10
0.00014348
-0.000143492
1.45415e-11
7.36056e-10
-1.11373e-08
-0.000229465
4.08746e-11
2.86033e-08
-0.000223502
2.87791e-08
4.39162e-09
0.000223542
-7.15839e-08
-0.000171197
-3.22924e-10
2.72086e-11
0.000171227
-0.000223522
9.35697e-10
3.29752e-08
-0.000171209
1.50484e-11
1.51444e-09
0.000143507
-7.9324e-05
-2.413e-08
-1.5026e-09
7.93496e-05
-1.70742e-08
0.000263394
-9.22362e-10
-0.000263413
3.32699e-08
3.24212e-09
0.000193747
6.93537e-09
-4.34966e-08
7.07408e-12
-7.9341e-05
-4.38546e-09
0.000263439
-6.14354e-08
-0.000143465
-2.88048e-08
3.30262e-10
2.36173e-09
2.98965e-08
5.04333e-12
-7.0129e-08
-1.24172e-08
0.000223482
-0.000223502
3.29941e-08
8.08021e-10
0.000171179
-0.000171191
2.15548e-11
-0.000143477
-7.16164e-08
3.27735e-11
1.70998e-08
7.93325e-05
-0.00026342
2.40879e-08
0.000263465
-6.13758e-08
-3.98228e-09
-4.90058e-09
2.26471e-08
3.32964e-08
7.93581e-05
9.80729e-05
-6.98215e-09
-1.95673e-08
4.89823e-09
1.14129e-08
-6.99398e-09
-7.09198e-09
0.000213851
-0.000213858
1.01808e-08
1.00914e-08
-8.05861e-05
-1.21724e-08
-1.20149e-08
8.06103e-05
-8.05746e-05
-1.21082e-08
-1.20928e-08
8.05988e-05
-8.06025e-05
9.40527e-09
-8.0591e-05
9.32458e-09
-2.46912e-08
-2.48324e-08
0.000213877
-0.000221985
-3.59185e-08
3.30026e-08
2.47251e-08
0.000222021
-5.70726e-08
-1.58374e-08
0.000250743
-0.000250798
6.11602e-08
3.19472e-08
1.63169e-08
0.000183126
-9.42084e-09
-0.000183139
-4.83441e-08
1.00604e-08
0.000278358
1.96891e-08
-2.31777e-08
-1.01672e-08
-0.000222004
2.88809e-08
0.000250811
-9.70918e-08
-5.48176e-08
1.20127e-08
0.000183157
-0.000221917
-3.60884e-08
3.09838e-08
2.48691e-08
0.000221957
-5.94306e-08
-1.57695e-08
0.00025063
-0.000250687
6.36533e-08
3.18722e-08
1.44176e-08
0.000183074
-9.33217e-09
-0.000183086
-4.82864e-08
1.0724e-08
0.00027828
1.95659e-08
-2.32951e-08
-1.00722e-08
-0.00022194
3.13501e-08
0.000250703
-1.01919e-07
-5.50175e-08
1.20953e-08
0.000183103
-0.000213832
1.22011e-08
1.21323e-08
6.98059e-09
8.05783e-05
-8.05947e-05
7.08482e-09
8.05668e-05
-8.05832e-05
-0.000213839
1.58405e-08
-1.63493e-08
0.000222
3.12246e-08
-0.000183143
-3.29467e-08
0.000183174
2.50153e-08
-6.79179e-09
-1.1425e-08
1.21194e-08
-0.000250758
3.58863e-08
0.000250826
-9.94866e-08
-5.48115e-08
6.1177e-08
3.19174e-08
0.000222038
-5.93126e-08
1.57801e-08
-1.44451e-08
0.000221934
3.13823e-08
-0.000183091
-3.09321e-08
0.000183121
2.27648e-08
-7.18969e-09
-1.14517e-08
1.20344e-08
-0.000250646
3.60608e-08
0.000250718
-1.01851e-07
-5.50009e-08
6.36675e-08
3.1872e-08
0.000221974
-5.93598e-08
1.13764e-08
1.13216e-08
-7.02318e-09
-7.0674e-09
0.0002138
1.2272e-08
1.01869e-08
-8.05624e-05
-1.22789e-08
-1.19981e-08
8.05866e-05
-8.05489e-05
-1.22353e-08
-1.20711e-08
8.05732e-05
9.37822e-09
9.3701e-09
-2.70055e-08
-2.5041e-08
0.000213827
-1.64935e-08
0.000221965
1.82173e-08
2.89748e-08
-0.000183087
-3.33503e-08
0.000183121
-9.3978e-09
2.49591e-08
1.20886e-08
3.84351e-08
-0.000250746
0.000250808
-9.96435e-08
-5.23408e-08
0.000222001
-5.73531e-08
6.11266e-08
2.94114e-08
-1.62985e-08
0.000221899
1.57553e-08
3.35145e-08
-0.000183034
-3.31498e-08
0.000183065
-6.78521e-09
2.48973e-08
9.75129e-09
3.60591e-08
-0.000250638
0.000250705
-1.02161e-07
-5.24134e-08
0.000221939
-6.19266e-08
6.35706e-08
2.94056e-08
-9.80796e-05
1.14432e-08
4.9033e-09
-1.97842e-08
-6.88065e-09
-9.80686e-05
1.13829e-08
4.95037e-09
-1.97527e-08
-6.89975e-09
-0.000213819
1.22631e-08
1.22242e-08
-2.69829e-08
-2.50145e-08
0.000213846
7.03654e-09
8.05702e-05
9.36745e-09
7.07497e-09
8.05568e-05
9.36301e-09
1.22821e-08
1.02007e-08
-1.1992e-08
8.05945e-05
-1.20634e-08
8.0581e-05
-1.65466e-08
1.82164e-08
0.000221999
-0.000222018
-1.22925e-08
2.90199e-08
-0.000250779
3.83944e-08
0.000250839
-9.70318e-08
-5.23317e-08
-9.33312e-09
2.50045e-08
-0.000278354
1.20462e-08
-0.000183122
-3.3244e-08
1.19963e-08
0.000183156
-0.000183139
-9.35301e-09
-0.000250826
5.87402e-08
3.19096e-08
2.69467e-08
0.000222035
-5.72089e-08
-1.63471e-08
1.57628e-08
0.000221933
-0.000221956
-1.021e-08
3.35524e-08
-0.000250669
3.60122e-08
0.000250736
-1.02026e-07
-5.23987e-08
-6.73099e-09
2.49454e-08
-0.000278286
9.71949e-09
-0.000183069
-3.3046e-08
1.20648e-08
0.0001831
-0.000183083
-9.34955e-09
-0.000250721
6.35811e-08
2.93834e-08
2.49774e-08
0.000221973
-6.17855e-08
-0.000221982
3.32964e-08
-3.84159e-08
-5.7286e-08
1.65164e-08
0.000183105
-1.82099e-08
0.000250763
5.86522e-08
2.93841e-08
1.2604e-08
-5.07219e-08
-2.31429e-08
2.89947e-08
-9.71817e-08
-5.48781e-08
-0.000221916
3.30976e-08
-3.60352e-08
-6.18609e-08
1.63199e-08
0.000183052
-1.57587e-08
0.000250653
6.35683e-08
2.93956e-08
1.00698e-08
-5.07328e-08
-2.08394e-08
3.35343e-08
-1.02097e-07
-5.24068e-08
-7.04411e-09
-7.08169e-09
0.000213838
-8.05781e-05
-1.2234e-08
8.06023e-05
-8.05646e-05
-1.21964e-08
8.05889e-05
0.000213865
-0.000143436
2.96036e-10
-2.88418e-08
1.50217e-09
0.000143463
8.27067e-10
0.000171145
-1.5007e-11
-0.000171157
-1.23945e-08
0.000223451
9.41879e-10
3.2977e-08
-0.000223471
2.99434e-08
2.18604e-09
0.000229439
2.92042e-11
-7.0169e-08
-5.41368e-12
-0.000143447
0.000171176
-2.16033e-11
4.40502e-09
0.000223492
-7.16658e-08
7.93137e-05
1.70907e-08
-7.93307e-05
-1.83488e-11
-3.98846e-09
-0.000193725
2.26205e-08
2.41459e-08
-0.000263373
-4.41444e-09
-6.14442e-08
-1.5185e-09
-0.000263392
-9.56302e-10
3.32594e-08
-7.9305e-05
-2.41909e-08
-1.70714e-08
0.000263347
3.32428e-08
3.28567e-09
-4.35542e-08
-6.15017e-08
0.000143451
-8.38205e-10
1.23932e-08
-1.11084e-08
9.95163e-10
-6.6547e-11
2.85926e-08
-2.88252e-10
-0.000171164
-2.87859e-11
2.88258e-08
-0.000223471
-7.16398e-08
-2.06435e-11
3.29637e-08
-0.000143366
3.3921e-10
-2.88262e-08
1.45414e-09
0.000143393
7.95795e-10
0.000171111
-0.000171123
-1.2373e-08
0.000223352
-1.1472e-09
3.04924e-08
-0.000223368
2.99457e-08
2.13295e-09
0.000229399
-7.01736e-08
-1.71276e-11
-0.000143377
0.000171141
6.4041e-09
0.000223388
-6.91949e-08
1.70587e-08
7.92718e-05
-7.92888e-05
-1.19435e-12
-4.03833e-09
-0.000193664
-4.95497e-09
2.47786e-08
-0.00026324
2.41833e-08
-6.40745e-09
0.000263284
-5.89567e-08
-0.000263259
1.1307e-09
3.07336e-08
-1.46842e-09
7.92974e-05
-7.92632e-05
-2.42248e-08
-1.70408e-08
0.000263214
3.07108e-08
-0.000263233
3.44037e-09
6.87241e-09
-4.57617e-08
-7.92802e-05
-5.90086e-08
-8.06031e-10
1.23731e-08
0.000143381
-1.1104e-08
9.53518e-10
2.85894e-08
-0.000171129
-3.33725e-10
0.000171159
-0.000223372
2.88069e-08
0.000223409
-6.9162e-08
3.04784e-08
0.000143408
-9.80592e-05
1.36516e-08
-2.20522e-08
1.58826e-08
-1.45981e-08
0.00022191
-1.45987e-08
3.37131e-08
-0.00022193
-0.000250615
3.84617e-08
0.00025068
-9.72024e-08
-5.48553e-08
2.26357e-08
-7.43417e-09
-0.000278226