/*--------------------------------*- C++ -*----------------------------------*\
| =========                 |                                                 |
| \\      /  F ield         | OpenFOAM: The Open Source CFD Toolbox           |
|  \\    /   O peration     | Version:  2312                                  |
|   \\  /    A nd           | Website:  www.openfoam.com                      |
|    \\/     M anipulation  |                                                 |
\*---------------------------------------------------------------------------*/
FoamFile
{
    version     2.0;
    format      ascii;
    arch        "LSB;label=32;scalar=64";
    class       volVectorField;
    location    "750";
    object      U;
}
// * * * * * * * * * * * * * * * * * * * * * * * * * * * * * * * * * * * * * //

dimensions      [0 1 -1 0 0 0 0];

internalField   nonuniform List<vector> 
43168
(
(-1.02762e-05 -1.02642e-05 0.112443)
(1.14085e-05 -6.21204e-06 0.107483)
(-6.19128e-06 1.14097e-05 0.107482)
(-2.37421e-05 -2.37742e-05 0.104205)
(-4.15632e-05 -4.15636e-05 0.104319)
(-6.1524e-06 -1.13372e-05 0.107483)
(6.15668e-06 -1.13478e-05 0.107483)
(4.15684e-05 -4.1568e-05 0.10432)
(-1.13682e-05 -6.16676e-06 0.107485)
(-1.13372e-05 6.16705e-06 0.107482)
(1.13723e-05 -6.17986e-06 0.107485)
(1.13683e-05 6.12988e-06 0.107483)
(-4.15446e-05 4.15722e-05 0.104318)
(-6.16367e-06 1.1382e-05 0.107484)
(6.20074e-06 1.13623e-05 0.107484)
(4.15836e-05 4.15531e-05 0.104318)
(2.37575e-05 2.37681e-05 0.104205)
(-6.1765e-06 -1.13664e-05 0.107481)
(6.18329e-06 -1.13815e-05 0.107481)
(-2.37597e-05 2.37193e-05 0.104206)
(-1.13968e-05 -6.19307e-06 0.107483)
(-1.13655e-05 6.19206e-06 0.10748)
(1.13976e-05 6.16037e-06 0.107481)
(2.37627e-05 -2.37655e-05 0.104205)
(6.22408e-06 1.13921e-05 0.107482)
(-1.20832e-06 -1.20545e-05 0.0822859)
(-1.205e-05 -1.21067e-06 0.0822866)
(-1.02024e-05 -1.01888e-05 0.112452)
(1.02211e-05 -1.01794e-05 0.112452)
(-1.01899e-05 1.02173e-05 0.112451)
(1.02249e-05 1.01696e-05 0.112451)
(-3.02049e-07 -1.65419e-05 0.0914581)
(5.814e-07 7.21126e-06 0.0822598)
(-2.62407e-07 5.00847e-06 0.0914068)
(-1.24104e-06 -1.19843e-05 0.0823191)
(-2.4911e-06 4.31348e-06 0.071571)
(3.32771e-06 -5.7878e-06 0.0716358)
(-1.6551e-05 -2.76143e-07 0.0914583)
(7.19922e-06 6.00798e-07 0.0822607)
(5.0213e-06 -2.47005e-07 0.0914069)
(-1.1989e-05 -1.23806e-06 0.0823199)
(1.02894e-05 -1.02738e-05 0.112443)
(-1.02645e-05 1.02893e-05 0.112442)
(1.03022e-05 1.02529e-05 0.112442)
(2.72214e-05 -6.79465e-07 0.0986028)
(-8.81568e-06 3.08391e-06 0.0930334)
(1.46443e-05 -2.66358e-06 0.109894)
(1.14184e-05 -6.22791e-06 0.107481)
(-7.96979e-06 -4.6277e-07 0.0985414)
(2.0347e-05 -7.80574e-06 0.0930974)
(1.47059e-05 -2.68351e-06 0.109889)
(4.35282e-06 -2.52773e-06 0.0715732)
(-5.79998e-06 3.40985e-06 0.0716336)
(-6.96621e-07 2.72253e-05 0.0986024)
(-2.63581e-06 1.46502e-05 0.109893)
(3.0865e-06 -8.79316e-06 0.0930335)
(-6.20531e-06 1.14215e-05 0.10748)
(-3.8574e-07 -7.98554e-06 0.098541)
(-2.64963e-06 1.47047e-05 0.109888)
(-7.76059e-06 2.03553e-05 0.0930967)
(-3.62519e-06 -3.46573e-06 0.087582)
(-3.43307e-06 -3.63929e-06 0.087581)
(4.15084e-05 4.14815e-05 0.10432)
(9.81929e-06 6.93415e-06 0.0876395)
(6.97994e-06 9.79532e-06 0.0876379)
(-3.3372e-06 -5.89052e-06 0.0716038)
(-5.87193e-06 -3.35103e-06 0.0716035)
(-4.1619e-05 -4.16167e-05 0.104318)
(-6.9104e-06 -9.86706e-06 0.0876082)
(-9.89761e-06 -6.94005e-06 0.0876061)
(-3.36181e-06 -5.86145e-06 0.0716189)
(2.53454e-06 4.37258e-06 0.0715573)
(-5.84563e-06 -3.37423e-06 0.0716186)
(4.34904e-06 2.55359e-06 0.0715575)
(2.37956e-05 2.38046e-05 0.104203)
(-6.91915e-06 -9.82641e-06 0.087624)
(-9.86091e-06 -6.94724e-06 0.0876219)
(3.43894e-06 3.59867e-06 0.0875657)
(3.61814e-06 3.45747e-06 0.0875646)
(-6.10431e-06 -1.1283e-05 0.107487)
(-7.77329e-06 -2.03977e-05 0.0930672)
(-2.61941e-07 5.00519e-06 0.0913912)
(-1.22403e-06 -1.202e-05 0.0823026)
(6.01813e-07 7.19445e-06 0.0822431)
(-3.01582e-07 -1.65744e-05 0.0914425)
(2.43919e-07 5.00506e-06 0.0913913)
(1.17376e-06 -1.20083e-05 0.0823038)
(-5.83315e-07 7.16055e-06 0.0822428)
(2.83591e-07 -1.65789e-05 0.0914426)
(-4.33834e-07 8.03559e-06 0.0985299)
(-6.12757e-06 -1.13162e-05 0.107485)
(-7.7744e-06 -2.03662e-05 0.0930816)
(-2.63576e-06 -1.45496e-05 0.109898)
(3.10077e-06 8.79364e-06 0.0930177)
(-2.61647e-06 -1.44771e-05 0.109903)
(-7.00682e-07 -2.72745e-05 0.0985913)
(4.18921e-07 8.0378e-06 0.0985301)
(6.12941e-06 -1.12764e-05 0.107486)
(7.73241e-06 -2.03669e-05 0.0930823)
(2.63673e-06 -1.45547e-05 0.109898)
(-3.08803e-06 8.77748e-06 0.0930175)
(2.63571e-06 -1.44763e-05 0.109903)
(6.8228e-07 -2.72824e-05 0.0985915)
(3.31093e-06 -5.81208e-06 0.0716209)
(-2.51859e-06 4.30009e-06 0.071556)
(-2.38248e-05 2.37732e-05 0.104203)
(6.91742e-06 -9.8342e-06 0.0876231)
(9.84417e-06 -6.97977e-06 0.0876242)
(-3.47517e-06 3.57958e-06 0.0875642)
(5.83866e-06 -3.41296e-06 0.0716194)
(-1.13141e-05 -6.11757e-06 0.107489)
(-2.04311e-05 -7.79227e-06 0.0930673)
(5.01811e-06 -2.49113e-07 0.0913913)
(-1.20193e-05 -1.22358e-06 0.0823033)
(7.18042e-06 6.20177e-07 0.0822439)
(-1.65805e-05 -2.79387e-07 0.0914427)
(8.04704e-06 -4.23536e-07 0.09853)
(-1.13483e-05 -6.14482e-06 0.107487)
(-2.04007e-05 -7.79003e-06 0.0930817)
(-1.45584e-05 -2.632e-06 0.109898)
(8.79845e-06 3.11445e-06 0.0930184)
(-1.44902e-05 -2.61414e-06 0.109903)
(-2.72886e-05 -6.80728e-07 0.0985916)
(5.01746e-06 2.49147e-07 0.0913912)
(-1.19955e-05 1.24885e-06 0.0823029)
(7.17969e-06 -6.13273e-07 0.0822438)
(-1.65764e-05 3.09518e-07 0.0914426)
(8.04742e-06 4.11497e-07 0.09853)
(-1.13091e-05 6.14633e-06 0.107484)
(-1.45511e-05 2.64339e-06 0.109897)
(-2.0348e-05 7.7958e-06 0.0930808)
(-1.44818e-05 2.62786e-06 0.109902)
(8.7872e-06 -3.10234e-06 0.0930181)
(-2.72831e-05 7.16181e-07 0.0985915)
(2.03729e-05 -7.81051e-06 0.0930829)
(1.45579e-05 -2.64963e-06 0.109898)
(2.72353e-05 -6.79713e-07 0.098592)
(1.19993e-05 -1.2826e-06 0.0823038)
(1.65275e-05 -2.51793e-07 0.0914435)
(1.4553e-05 2.60268e-06 0.109898)
(2.03675e-05 7.7615e-06 0.0930822)
(2.72481e-05 6.96276e-07 0.0985918)
(1.20217e-05 1.20771e-06 0.0823034)
(1.65487e-05 3.11853e-07 0.0914429)
(-5.82466e-06 3.38919e-06 0.0716186)
(4.34277e-06 -2.55207e-06 0.0715581)
(2.38089e-05 -2.38117e-05 0.104203)
(-9.82449e-06 6.9435e-06 0.0876209)
(-6.9227e-06 9.83187e-06 0.0876238)
(3.6003e-06 -3.45601e-06 0.0875649)
(3.44928e-06 -3.59462e-06 0.0875665)
(-3.36773e-06 5.85568e-06 0.0716191)
(2.54974e-06 -4.35306e-06 0.071558)
(-3.85414e-07 -8.01662e-06 0.0985301)
(-6.14004e-06 1.13586e-05 0.107486)
(-2.61822e-06 1.45742e-05 0.109897)
(-7.76423e-06 2.03908e-05 0.0930822)
(-2.60509e-06 1.45022e-05 0.109902)
(3.10241e-06 -8.78116e-06 0.093019)
(-6.9713e-07 2.72472e-05 0.0985916)
(4.45954e-07 -8.00634e-06 0.0985303)
(6.1846e-06 1.134e-05 0.107486)
(2.65049e-06 1.45715e-05 0.109897)
(7.81975e-06 2.03828e-05 0.0930822)
(2.6306e-06 1.44936e-05 0.109902)
(-3.08782e-06 -8.796e-06 0.0930188)
(7.08425e-07 2.72338e-05 0.098592)
(-1.87674e-07 -4.98147e-06 0.0913907)
(-1.21704e-06 1.20242e-05 0.0823033)
(6.16244e-07 -7.1797e-06 0.0822442)
(-3.23422e-07 1.65323e-05 0.0914432)
(2.77298e-07 -4.96093e-06 0.0913903)
(1.2595e-06 1.20061e-05 0.0823039)
(-6.10546e-07 -7.18093e-06 0.0822445)
(2.99219e-07 1.65064e-05 0.0914439)
(-2.37507e-05 -2.37865e-05 0.104204)
(9.8619e-06 6.93014e-06 0.0876237)
(6.9783e-06 9.83217e-06 0.0876221)
(-3.44132e-06 -3.6233e-06 0.0875651)
(5.85633e-06 3.35652e-06 0.0716194)
(3.40992e-06 5.82987e-06 0.0716193)
(-2.54715e-06 -4.35371e-06 0.0715584)
(2.50633e-06 4.38623e-06 0.0715724)
(-3.38532e-06 -5.83429e-06 0.0716338)
(4.36171e-06 2.52856e-06 0.0715726)
(-5.82005e-06 -3.39545e-06 0.0716335)
(3.42275e-06 3.62539e-06 0.0875816)
(3.6436e-06 3.44384e-06 0.0875805)
(-4.14935e-05 -4.1492e-05 0.104321)
(-6.92456e-06 -9.7866e-06 0.0876398)
(-9.82108e-06 -6.95204e-06 0.0876377)
(2.47907e-06 4.4004e-06 0.0715873)
(4.37406e-06 2.50346e-06 0.0715875)
(2.37244e-05 2.37365e-05 0.104207)
(3.40917e-06 3.65353e-06 0.0875974)
(3.67086e-06 3.43069e-06 0.0875964)
(2.7728e-07 -1.65452e-05 0.0914582)
(-5.66091e-07 7.17788e-06 0.0822595)
(2.43514e-07 5.00848e-06 0.091407)
(1.18395e-06 -1.19782e-05 0.0823204)
(-7.03213e-07 -2.72544e-05 0.0986021)
(3.08672e-06 8.81033e-06 0.0930323)
(-2.65204e-06 -1.46229e-05 0.109894)
(-6.19255e-06 -1.13801e-05 0.107479)
(-4.33397e-07 8.01314e-06 0.0985408)
(-7.76899e-06 -2.03306e-05 0.0930961)
(-2.665e-06 -1.4681e-05 0.109889)
(6.78437e-07 -2.72621e-05 0.0986023)
(-3.08197e-06 8.80916e-06 0.093032)
(2.65889e-06 -1.46306e-05 0.109894)
(6.1919e-06 -1.13937e-05 0.107479)
(4.18632e-07 8.0155e-06 0.098541)
(7.72459e-06 -2.03388e-05 0.0930967)
(2.67475e-06 -1.46859e-05 0.109889)
(-2.63583e-07 5.01639e-06 0.0914225)
(5.61056e-07 7.23367e-06 0.0822764)
(2.38179e-07 5.01623e-06 0.0914227)
(-5.50494e-07 7.19487e-06 0.0822761)
(-4.36291e-07 7.99555e-06 0.0985517)
(-6.21662e-06 -1.14043e-05 0.107478)
(3.07752e-06 8.83168e-06 0.0930468)
(-2.68254e-06 -1.47469e-05 0.109885)
(4.16397e-07 7.99825e-06 0.0985519)
(6.21737e-06 -1.14171e-05 0.107477)
(-3.07409e-06 8.82331e-06 0.0930466)
(2.68731e-06 -1.4752e-05 0.109885)
(-3.46137e-06 3.60199e-06 0.08758)
(-3.65616e-06 3.42545e-06 0.0875823)
(4.14884e-05 -4.14992e-05 0.104321)
(6.92029e-06 -9.79562e-06 0.0876389)
(9.80729e-06 -6.98559e-06 0.0876401)
(-4.37517e-06 2.51544e-06 0.0715729)
(5.81023e-06 -3.42979e-06 0.0716343)
(-2.46849e-06 4.32468e-06 0.071586)
(-2.37367e-05 2.3692e-05 0.104208)
(-3.45011e-06 3.62897e-06 0.0875959)
(-3.67999e-06 3.41425e-06 0.0875981)
(-4.38656e-06 2.49326e-06 0.0715879)
(-2.72695e-05 -6.8123e-07 0.0986025)
(8.81366e-06 3.10026e-06 0.093033)
(-1.4632e-05 -2.65111e-06 0.109894)
(-1.14105e-05 -6.20798e-06 0.107481)
(8.02249e-06 -4.2068e-07 0.0985409)
(-2.03661e-05 -7.78338e-06 0.0930962)
(-1.46898e-05 -2.6646e-06 0.109889)
(-1.65459e-05 3.06757e-07 0.0914582)
(7.19665e-06 -5.98635e-07 0.0822605)
(5.02226e-06 2.54002e-07 0.0914069)
(-1.19651e-05 1.26426e-06 0.0823195)
(-2.72643e-05 7.14352e-07 0.0986024)
(-1.46246e-05 2.65924e-06 0.109893)
(8.794e-06 -3.09751e-06 0.0930327)
(-1.13758e-05 6.20787e-06 0.107478)
(8.02394e-06 4.1823e-07 0.0985408)
(-1.46802e-05 2.67513e-06 0.109888)
(-2.03197e-05 7.79225e-06 0.0930952)
(5.02539e-06 -2.45376e-07 0.0914226)
(7.21502e-06 5.83249e-07 0.0822773)
(8.00594e-06 -4.22252e-07 0.0985517)
(-1.14349e-05 -6.23186e-06 0.107479)
(8.834e-06 3.09436e-06 0.0930475)
(-1.47556e-05 -2.68022e-06 0.109885)
(5.02832e-06 2.5467e-07 0.0914225)
(7.21374e-06 -5.82668e-07 0.0822771)
(8.01186e-06 4.22303e-07 0.0985517)
(-1.13979e-05 6.23051e-06 0.107476)
(-1.47459e-05 2.6908e-06 0.109884)
(8.81199e-06 -3.09187e-06 0.0930472)
(1.64968e-05 -2.4867e-07 0.0914591)
(-7.19407e-06 6.167e-07 0.0822604)
(-4.97256e-06 -3.19486e-07 0.0914065)
(1.19686e-05 -1.29277e-06 0.0823204)
(2.72335e-05 6.99304e-07 0.0986025)
(1.46369e-05 2.62636e-06 0.109893)
(-8.78386e-06 -3.11922e-06 0.093033)
(1.14096e-05 6.18399e-06 0.107479)
(-7.98577e-06 3.92174e-07 0.0985413)
(1.46973e-05 2.64575e-06 0.109888)
(2.03344e-05 7.75801e-06 0.0930967)
(1.65204e-05 3.13294e-07 0.0914585)
(-7.19176e-06 -6.12468e-07 0.0822607)
(-4.99475e-06 2.00576e-07 0.091407)
(1.19886e-05 1.22559e-06 0.08232)
(-7.94944e-06 -4.64979e-07 0.0985523)
(1.14428e-05 -6.2539e-06 0.10748)
(-8.82947e-06 3.07338e-06 0.0930479)
(1.47702e-05 -2.70152e-06 0.109885)
(-4.974e-06 -3.18494e-07 0.0914222)
(-7.21134e-06 6.00678e-07 0.0822771)
(-7.962e-06 3.95984e-07 0.0985524)
(1.14302e-05 6.21094e-06 0.107477)
(1.47662e-05 2.66534e-06 0.109884)
(-8.80126e-06 -3.10877e-06 0.0930475)
(-4.99592e-06 2.01269e-07 0.0914227)
(-7.20829e-06 -5.91007e-07 0.0822773)
(3.62232e-06 -3.4431e-06 0.0875807)
(3.42548e-06 -3.60932e-06 0.0875822)
(-4.14812e-05 4.15101e-05 0.10432)
(-9.78845e-06 6.9483e-06 0.0876367)
(-6.9274e-06 9.7896e-06 0.0876396)
(2.51881e-06 -4.36845e-06 0.0715731)
(-3.39037e-06 5.82672e-06 0.0716341)
(4.36589e-06 -2.50293e-06 0.0715881)
(2.37311e-05 -2.3738e-05 0.104207)
(3.64843e-06 -3.42994e-06 0.0875966)
(3.4118e-06 -3.63517e-06 0.087598)
(2.49314e-06 -4.38234e-06 0.071588)
(7.06366e-07 2.72101e-05 0.0986028)
(2.67109e-06 1.46475e-05 0.109893)
(-3.07984e-06 -8.80883e-06 0.0930333)
(6.23867e-06 1.14073e-05 0.10748)
(4.50512e-07 -7.97829e-06 0.0985412)
(2.68837e-06 1.47012e-05 0.109888)
(7.8079e-06 2.03501e-05 0.0930966)
(-3.22013e-07 1.64978e-05 0.0914588)
(5.93469e-07 -7.19209e-06 0.0822609)
(-1.88332e-07 -4.98015e-06 0.0914063)
(-1.23132e-06 1.19892e-05 0.0823199)
(2.97212e-07 1.64716e-05 0.0914595)
(-5.95364e-07 -7.19721e-06 0.0822612)
(2.78732e-07 -4.96161e-06 0.0914059)
(1.26974e-06 1.19768e-05 0.0823205)
(-3.90747e-07 -7.97049e-06 0.0985519)
(-6.22699e-06 1.14438e-05 0.107479)
(-2.66737e-06 1.47688e-05 0.109884)
(3.07866e-06 -8.81457e-06 0.093048)
(4.49355e-07 -7.96245e-06 0.0985521)
(6.25989e-06 1.14294e-05 0.107478)
(2.70494e-06 1.47653e-05 0.109884)
(-3.07703e-06 -8.8295e-06 0.0930479)
(-1.88479e-07 -4.98559e-06 0.091422)
(5.75776e-07 -7.2125e-06 0.0822775)
(2.76288e-07 -4.96559e-06 0.0914216)
(-5.80559e-07 -7.21284e-06 0.0822778)
(-4.36334e-06 -2.53601e-06 0.0715732)
(5.83108e-06 3.37874e-06 0.0716344)
(-2.52349e-06 -4.36249e-06 0.0715734)
(3.42813e-06 5.80488e-06 0.0716342)
(-2.37182e-05 -2.37413e-05 0.104207)
(-3.65458e-06 -3.45034e-06 0.0875977)
(-3.42284e-06 -3.66436e-06 0.0875969)
(-4.37448e-06 -2.50969e-06 0.0715882)
(-2.50023e-06 -4.37458e-06 0.0715884)
(-9.202e-07 4.9249e-06 0.068413)
(-1.39332e-06 -1.22922e-05 0.0858851)
(6.13566e-07 7.19155e-06 0.0822347)
(-7.82195e-07 5.87653e-06 0.085829)
(1.54223e-07 -6.07733e-06 0.0684738)
(7.17216e-06 6.25918e-07 0.0822356)
(-7.63699e-07 4.26171e-06 0.0769181)
(-2.63255e-07 5.01057e-06 0.0914147)
(1.22051e-07 -7.40312e-06 0.078736)
(-1.16384e-06 -1.59364e-05 0.0899816)
(-2.01558e-07 3.86924e-06 0.0786958)
(-5.8859e-07 5.52966e-06 0.0899322)
(4.90062e-07 -7.41507e-06 0.0769647)
(1.16649e-07 -6.04707e-06 0.0684961)
(-8.09737e-07 5.90615e-06 0.0858542)
(-1.23199e-06 -1.20028e-05 0.0823109)
(-9.64804e-07 4.93038e-06 0.0684354)
(-1.41327e-06 -1.22349e-05 0.0859102)
(4.97975e-07 -7.42152e-06 0.0769565)
(-3.02631e-07 -1.65585e-05 0.0914503)
(-1.9946e-07 3.86829e-06 0.0786874)
(-5.82647e-07 5.52727e-06 0.0899241)
(-7.54244e-07 4.26104e-06 0.0769098)
(1.23427e-07 -7.41455e-06 0.0787277)
(-1.16028e-06 -1.59532e-05 0.0899736)
(-9.79601e-07 4.93367e-06 0.0684428)
(-1.42067e-06 -1.2215e-05 0.0859186)
(5.70596e-07 7.22105e-06 0.0822681)
(-8.19626e-07 5.91785e-06 0.0858626)
(1.04351e-07 -6.0382e-06 0.0685034)
(3.31794e-06 -5.8007e-06 0.0716284)
(-2.48069e-06 4.31853e-06 0.0715785)
(4.26326e-06 -7.41685e-07 0.0769186)
(5.02237e-06 -2.46257e-07 0.0914148)
(-1.59428e-05 -1.14344e-06 0.089982)
(-7.41284e-06 1.50764e-07 0.0787363)
(5.54032e-06 -5.66987e-07 0.0899325)
(3.87345e-06 -1.82833e-07 0.078696)
(-7.42232e-06 5.1285e-07 0.0769652)
(-6.05335e-06 1.33941e-07 0.0684968)
(5.89531e-06 -7.86441e-07 0.0858548)
(-1.20034e-05 -1.23028e-06 0.0823116)
(4.92414e-06 -9.37246e-07 0.0684361)
(-1.22452e-05 -1.39999e-06 0.0859108)
(-7.42981e-06 5.18858e-07 0.076957)
(-1.65673e-05 -2.78855e-07 0.0914505)
(5.53826e-06 -5.62639e-07 0.0899244)
(3.87504e-06 -1.83597e-07 0.0786876)
(4.26473e-06 -7.33801e-07 0.0769103)
(-1.59584e-05 -1.14217e-06 0.089974)
(-7.41672e-06 1.49565e-07 0.0787279)
(4.92673e-06 -9.5152e-07 0.0684435)
(-1.22262e-05 -1.40478e-06 0.0859191)
(7.20594e-06 5.92317e-07 0.082269)
(5.90734e-06 -7.93265e-07 0.0858632)
(-6.04503e-06 1.22001e-07 0.0685042)
(-5.81308e-06 3.3986e-06 0.0716261)
(4.35941e-06 -2.51577e-06 0.0715807)
(-3.13219e-06 -3.18172e-06 0.0836479)
(3.55329e-06 5.1224e-06 0.0684074)
(5.14405e-06 3.53535e-06 0.0684011)
(-2.63297e-06 -4.08458e-06 0.0683518)
(-4.04171e-06 -2.66583e-06 0.0683458)
(7.20343e-06 7.17411e-06 0.0836934)
(1.66992e-05 1.0222e-05 0.0917483)
(-1.10317e-05 -5.54298e-06 0.0962972)
(-3.88012e-06 -3.0092e-06 0.0815857)
(9.84084e-06 6.93122e-06 0.0876316)
(-7.82857e-06 -3.83687e-06 0.0917008)
(2.39151e-05 1.41677e-05 0.096346)
(8.00723e-06 4.02095e-06 0.0816377)
(1.0282e-05 1.66783e-05 0.0917415)
(-5.51731e-06 -1.10528e-05 0.0962947)
(-2.983e-06 -3.92353e-06 0.0815814)
(6.97961e-06 9.81398e-06 0.08763)
(-3.81275e-06 -7.87778e-06 0.0916945)
(1.42389e-05 2.38849e-05 0.0963435)
(4.07018e-06 7.99964e-06 0.0816321)
(7.21691e-06 7.18558e-06 0.0836859)
(-2.62979e-06 -4.08777e-06 0.0683452)
(-4.04413e-06 -2.6651e-06 0.0683392)
(-3.12438e-06 -3.17579e-06 0.0836404)
(3.5628e-06 5.1241e-06 0.0684008)
(5.14705e-06 3.5422e-06 0.0683945)
(-7.84356e-06 -3.84255e-06 0.0917078)
(7.98836e-06 4.02493e-06 0.0816454)
(-3.64016e-06 -3.45738e-06 0.0875898)
(2.38851e-05 1.41657e-05 0.096352)
(-1.1048e-05 -5.54049e-06 0.0963031)
(-3.89225e-06 -2.99853e-06 0.0815935)
(1.66708e-05 1.02085e-05 0.0917553)
(-3.81832e-06 -7.88992e-06 0.0917015)
(4.07221e-06 7.98443e-06 0.0816398)
(-3.42778e-06 -3.65162e-06 0.0875889)
(1.42312e-05 2.38606e-05 0.0963494)
(-5.5196e-06 -1.10611e-05 0.0963007)
(-2.97781e-06 -3.93378e-06 0.0815891)
(1.02691e-05 1.66529e-05 0.0917485)
(2.54929e-06 4.36674e-06 0.0715498)
(4.34356e-06 2.56846e-06 0.0715499)
(3.15414e-06 3.13687e-06 0.0836171)
(-5.13041e-06 -3.5936e-06 0.0683807)
(-3.58348e-06 -5.15221e-06 0.0683742)
(4.07797e-06 2.6456e-06 0.0683244)
(2.66324e-06 4.06368e-06 0.0683182)
(-7.22825e-06 -7.24924e-06 0.0836638)
(3.80886e-06 7.80878e-06 0.091679)
(-4.00226e-06 -8.02866e-06 0.0816153)
(3.44759e-06 3.58926e-06 0.0875577)
(-1.41931e-05 -2.39577e-05 0.0963281)
(2.9865e-06 3.83608e-06 0.0815622)
(-1.02546e-05 -1.67486e-05 0.0917274)
(5.54267e-06 1.10265e-05 0.0962789)
(7.81369e-06 3.80376e-06 0.0916726)
(-8.06549e-06 -4.03486e-06 0.0816093)
(3.60854e-06 3.46403e-06 0.0875567)
(-2.39745e-05 -1.42214e-05 0.0963257)
(3.88009e-06 2.98729e-06 0.0815572)
(-1.67452e-05 -1.02898e-05 0.0917209)
(1.10067e-05 5.53347e-06 0.0962764)
(2.52033e-06 4.37961e-06 0.0715649)
(-3.3491e-06 -5.876e-06 0.0716113)
(4.35504e-06 2.54051e-06 0.071565)
(-5.85955e-06 -3.36379e-06 0.0716111)
(-7.22087e-06 -7.23977e-06 0.0836713)
(4.07523e-06 2.64908e-06 0.068331)
(2.66497e-06 4.06264e-06 0.0683248)
(3.15942e-06 3.1442e-06 0.0836246)
(-5.12861e-06 -3.58626e-06 0.0683873)
(-3.57781e-06 -5.14907e-06 0.0683809)
(3.81477e-06 7.83211e-06 0.0916932)
(-1.41854e-05 -2.39019e-05 0.0963399)
(3.42946e-06 3.61203e-06 0.0875736)
(-4.00625e-06 -7.99019e-06 0.0816308)
(2.97202e-06 3.85776e-06 0.0815777)
(5.52782e-06 1.10408e-05 0.0962909)
(-1.02314e-05 -1.66975e-05 0.0917414)
(7.83539e-06 3.81126e-06 0.0916867)
(-2.39224e-05 -1.4211e-05 0.0963375)
(3.62965e-06 3.44892e-06 0.0875726)
(-8.02894e-06 -4.03655e-06 0.0816247)
(3.89986e-06 2.97542e-06 0.0815728)
(1.10208e-05 5.52826e-06 0.0962883)
(-1.66956e-05 -1.0267e-05 0.0917349)
(-1.02463e-05 -1.67254e-05 0.0917344)
(2.97856e-06 3.84404e-06 0.08157)
(5.53133e-06 1.10338e-05 0.0962849)
(-6.91622e-06 -9.84877e-06 0.0876161)
(3.8107e-06 7.82095e-06 0.0916861)
(-3.99964e-06 -8.00417e-06 0.081623)
(-1.41884e-05 -2.39355e-05 0.096334)
(-1.67232e-05 -1.02804e-05 0.0917279)
(3.88769e-06 2.98141e-06 0.081565)
(1.10121e-05 5.53096e-06 0.0962823)
(-9.87995e-06 -6.94458e-06 0.087614)
(7.82437e-06 3.80777e-06 0.0916797)
(-8.04138e-06 -4.03095e-06 0.081617)
(-2.39501e-05 -1.42167e-05 0.0963316)
(3.16387e-06 3.1485e-06 0.0836321)
(-5.12665e-06 -3.5769e-06 0.068394)
(-3.56919e-06 -5.14615e-06 0.0683875)
(4.07125e-06 2.65142e-06 0.0683377)
(2.66678e-06 4.05948e-06 0.0683315)
(-7.20864e-06 -7.22734e-06 0.0836788)
(5.11964e-07 -7.43627e-06 0.0769399)
(-1.97065e-07 3.86597e-06 0.0786706)
(-5.72842e-07 5.52504e-06 0.0899079)
(-3.01471e-07 -1.65899e-05 0.0914347)
(-7.37424e-07 4.25899e-06 0.0768932)
(1.25303e-07 -7.42971e-06 0.0787109)
(-1.15387e-06 -1.5983e-05 0.0899575)
(-9.50228e-07 4.92746e-06 0.0684279)
(5.91086e-07 7.2006e-06 0.0822515)
(-1.40631e-06 -1.22566e-05 0.0859019)
(1.28708e-07 -6.05836e-06 0.0684887)
(-8.00273e-07 5.89451e-06 0.0858458)
(1.41485e-07 -6.06734e-06 0.0684813)
(-7.91792e-07 5.8864e-06 0.0858374)
(-1.21423e-06 -1.20367e-05 0.0822942)
(-9.35736e-07 4.92599e-06 0.0684205)
(-1.39954e-06 -1.22743e-05 0.0858935)
(-7.45768e-07 4.26114e-06 0.0769016)
(-2.61754e-07 5.0057e-06 0.091399)
(1.25355e-07 -7.4195e-06 0.0787193)
(-1.15655e-06 -1.59681e-05 0.0899655)
(5.03921e-07 -7.43561e-06 0.0769482)
(-1.97811e-07 3.86943e-06 0.078679)
(-5.77552e-07 5.52429e-06 0.089916)
(-5.30931e-07 -7.4348e-06 0.0769397)
(1.81152e-07 3.86254e-06 0.0786707)
(5.5708e-07 5.5225e-06 0.0899085)
(2.852e-07 -1.65932e-05 0.0914348)
(7.21263e-07 4.25076e-06 0.0768933)
(-1.44732e-07 -7.4329e-06 0.078711)
(1.13316e-06 -1.59872e-05 0.0899575)
(9.44141e-07 4.91983e-06 0.0684307)
(-5.7188e-07 7.17049e-06 0.0822511)
(1.35849e-06 -1.22686e-05 0.0859026)
(8.09543e-07 5.89258e-06 0.0858472)
(-1.60823e-07 -6.0617e-06 0.0684911)
(-1.72726e-07 -6.06872e-06 0.0684837)
(8.03369e-07 5.88102e-06 0.0858387)
(1.16747e-06 -1.20201e-05 0.0822954)
(9.30787e-07 4.92093e-06 0.0684233)
(1.35651e-06 -1.22838e-05 0.0858943)
(7.29815e-07 4.25275e-06 0.0769016)
(2.44164e-07 5.00623e-06 0.0913992)
(-1.45859e-07 -7.42392e-06 0.0787194)
(1.13456e-06 -1.59746e-05 0.0899656)
(1.82202e-07 3.86584e-06 0.0786791)
(5.61517e-07 5.52289e-06 0.0899167)
(-5.24352e-07 -7.43025e-06 0.076948)
(-2.502e-06 4.3069e-06 0.0715635)
(3.29921e-06 -5.8244e-06 0.0716134)
(-3.8583e-06 7.8467e-06 0.0916871)
(1.41949e-05 -2.39341e-05 0.0963377)
(-3.47088e-06 3.58788e-06 0.0875721)
(4.05375e-06 -8.05101e-06 0.0816248)
(-5.57468e-06 1.10344e-05 0.0962886)
(-3.05228e-06 3.87898e-06 0.0815732)
(1.02624e-05 -1.67298e-05 0.0917349)
(-7.86065e-06 3.79643e-06 0.0916936)
(2.39132e-05 -1.42359e-05 0.0963408)
(-3.63183e-06 3.43309e-06 0.0875744)
(8.00793e-06 -4.05831e-06 0.0816306)
(-3.92307e-06 2.9771e-06 0.0815784)
(-1.10377e-05 5.50357e-06 0.0962914)
(1.66955e-05 -1.02757e-05 0.091742)
(-5.56578e-06 1.10389e-05 0.0962826)
(6.91384e-06 -9.84622e-06 0.0876152)
(1.4209e-05 -2.39391e-05 0.0963318)
(-3.15334e-06 3.13433e-06 0.0836323)
(5.11566e-06 -3.57842e-06 0.0683884)
(3.54428e-06 -5.15436e-06 0.0683939)
(-4.08462e-06 2.63907e-06 0.0683323)
(-2.66321e-06 4.05231e-06 0.0683375)
(7.19457e-06 -7.23216e-06 0.0836792)
(-4.35839e-06 2.52496e-06 0.0715654)
(-7.44572e-06 5.29217e-07 0.0769405)
(5.53329e-06 -5.54171e-07 0.0899082)
(3.87682e-06 -1.86878e-07 0.0786707)
(-1.65931e-05 -2.7894e-07 0.0914349)
(4.28604e-06 -7.15559e-07 0.0768937)
(-1.59889e-05 -1.13664e-06 0.0899579)
(-7.43483e-06 1.46883e-07 0.0787111)
(4.92477e-06 -9.24188e-07 0.0684287)
(7.1907e-06 6.09829e-07 0.0822523)
(-1.22653e-05 -1.39492e-06 0.0859024)
(-6.06343e-06 1.45288e-07 0.0684894)
(5.88833e-06 -7.77339e-07 0.0858464)
(-6.07198e-06 1.57729e-07 0.068482)
(5.87582e-06 -7.68522e-07 0.0858379)
(-1.20384e-05 -1.21673e-06 0.0822949)
(4.92092e-06 -9.07773e-07 0.0684213)
(-1.22837e-05 -1.38844e-06 0.085894)
(4.25937e-06 -7.27656e-07 0.076902)
(5.01936e-06 -2.5e-07 0.0913991)
(-1.59729e-05 -1.13974e-06 0.0899659)
(-7.42581e-06 1.46891e-07 0.0787195)
(-7.43179e-06 5.24275e-07 0.0769487)
(5.53821e-06 -5.587e-07 0.0899163)
(3.86954e-06 -1.84034e-07 0.0786792)
(-7.43821e-06 -4.94652e-07 0.0769398)
(3.87578e-06 1.86973e-07 0.0786706)
(5.51699e-06 5.55705e-07 0.0899084)
(-1.65893e-05 3.10841e-07 0.0914348)
(4.2672e-06 7.2252e-07 0.0768932)
(-7.43294e-06 -1.1541e-07 0.078711)
(-1.59736e-05 1.16889e-06 0.0899574)
(4.91615e-06 9.3805e-07 0.0684306)
(7.18961e-06 -6.05942e-07 0.0822522)
(-1.22394e-05 1.42623e-06 0.0859025)
(5.88071e-06 7.90256e-07 0.0858471)
(-6.0469e-06 -1.03787e-07 0.0684911)
(-6.05382e-06 -1.21094e-07 0.0684837)
(5.86796e-06 7.83555e-07 0.0858387)
(-1.20102e-05 1.24007e-06 0.0822946)
(4.91181e-06 9.26353e-07 0.0684232)
(-1.22563e-05 1.41874e-06 0.0858941)
(4.26155e-06 7.32089e-07 0.0769014)
(5.02092e-06 2.50642e-07 0.091399)
(-7.42455e-06 -1.19686e-07 0.0787194)
(-1.59594e-05 1.17172e-06 0.0899655)
(3.87163e-06 1.90707e-07 0.0786791)
(5.52307e-06 5.61336e-07 0.0899164)
(-7.43365e-06 -4.86651e-07 0.0769481)
(-4.86925e-06 -9.73531e-07 0.068426)
(-7.18576e-06 6.20966e-07 0.0822521)
(1.22144e-05 -1.4248e-06 0.0859038)
(-5.85664e-06 -7.88216e-07 0.0858454)
(6.00851e-06 1.55964e-07 0.0684916)
(-4.19469e-06 -7.74432e-07 0.0768987)
(-4.97019e-06 -3.20177e-07 0.0913987)
(1.58933e-05 -1.13565e-06 0.0899674)
(7.38609e-06 1.69987e-07 0.0787204)
(-5.46126e-06 -6.01642e-07 0.0899153)
(-3.82936e-06 -2.50394e-07 0.0786775)
(7.34646e-06 5.35372e-07 0.0769507)
(-4.91502e-06 9.10082e-07 0.0684311)
(-7.18894e-06 -6.21003e-07 0.0822523)
(1.22603e-05 1.3882e-06 0.0859032)
(-5.88064e-06 7.62401e-07 0.0858472)
(6.05973e-06 -1.49029e-07 0.0684918)
(-4.26697e-06 6.99786e-07 0.0769014)
(-4.99755e-06 1.99099e-07 0.0913992)
(7.41881e-06 -1.16303e-07 0.0787195)
(1.59577e-05 1.14246e-06 0.089966)
(-3.86058e-06 1.45484e-07 0.0786789)
(-5.51273e-06 5.31474e-07 0.0899165)
(7.42978e-06 -5.16606e-07 0.0769481)
(4.3484e-06 -2.53898e-06 0.0715657)
(-5.83743e-06 3.37682e-06 0.0716111)
(-7.22709e-06 7.21411e-06 0.0836714)
(2.65062e-06 -4.05737e-06 0.0683262)
(4.06691e-06 -2.64591e-06 0.0683317)
(3.14358e-06 -3.12718e-06 0.0836252)
(-3.58493e-06 5.12296e-06 0.0683817)
(-5.13562e-06 3.57398e-06 0.0683874)
(7.85583e-06 -3.8079e-06 0.0916871)
(-2.3929e-05 1.41942e-05 0.0963363)
(3.61173e-06 -3.4483e-06 0.0875728)
(-8.034e-06 4.03244e-06 0.0816239)
(1.10695e-05 -5.52138e-06 0.0962886)
(3.89249e-06 -2.99094e-06 0.0815735)
(-1.67117e-05 1.0245e-05 0.0917342)
(3.81677e-06 -7.83814e-06 0.0916938)
(-1.42115e-05 2.39261e-05 0.0963401)
(3.43389e-06 -3.60315e-06 0.0875743)
(-4.02291e-06 8.00741e-06 0.0816302)
(2.98716e-06 -3.87184e-06 0.0815786)
(5.52916e-06 -1.10238e-05 0.0962913)
(-1.02612e-05 1.67207e-05 0.0917413)
(-1.6736e-05 1.02567e-05 0.0917271)
(3.88052e-06 -2.99611e-06 0.0815657)
(1.10631e-05 -5.52714e-06 0.0962826)
(-9.84442e-06 6.93913e-06 0.087613)
(-2.39538e-05 1.42059e-05 0.0963304)
(7.84479e-06 -3.80391e-06 0.0916801)
(-8.03956e-06 4.02169e-06 0.0816162)
(-1.02729e-05 1.67437e-05 0.0917342)
(2.9963e-06 -3.86479e-06 0.0815709)
(5.53594e-06 -1.10181e-05 0.0962854)
(-6.92391e-06 9.85545e-06 0.0876159)
(3.8148e-06 -7.8263e-06 0.0916868)
(-4.02764e-06 8.03084e-06 0.0816224)
(-1.42171e-05 2.39507e-05 0.0963341)
(3.14861e-06 -3.13355e-06 0.0836327)
(-3.57491e-06 5.11871e-06 0.0683883)
(-5.12953e-06 3.56558e-06 0.0683941)
(2.65251e-06 -4.05698e-06 0.0683329)
(4.06418e-06 -2.64912e-06 0.0683383)
(-7.2143e-06 7.20255e-06 0.0836789)
(2.53261e-06 -4.36144e-06 0.0715656)
(-3.35408e-06 5.86893e-06 0.0716116)
(4.99588e-07 7.41279e-06 0.0769403)
(-5.00389e-07 -5.51486e-06 0.0899085)
(-1.41632e-07 -3.83039e-06 0.0786689)
(-3.22089e-07 1.6543e-05 0.0914354)
(-6.73829e-07 -4.24676e-06 0.0768934)
(-1.16761e-06 1.59669e-05 0.0899575)
(1.07612e-07 7.3854e-06 0.0787118)
(-9.04168e-07 -4.90775e-06 0.0684297)
(6.03335e-07 -7.18077e-06 0.0822526)
(-1.39263e-06 1.22486e-05 0.0859021)
(-7.69057e-07 -5.87068e-06 0.0858471)
(1.37455e-07 6.04627e-06 0.0684899)
(1.52137e-07 6.05739e-06 0.0684825)
(-7.59231e-07 -5.86551e-06 0.0858387)
(-1.2055e-06 1.2042e-05 0.0822949)
(-8.90624e-07 -4.90786e-06 0.0684222)
(-1.38562e-06 1.22695e-05 0.0858937)
(-6.82214e-07 -4.24378e-06 0.0769017)
(-1.86723e-07 -4.9805e-06 0.0913985)
(-1.17117e-06 1.59517e-05 0.0899656)
(1.10269e-07 7.38127e-06 0.0787202)
(-5.05638e-07 -5.5117e-06 0.0899166)
(-1.43328e-07 -3.8336e-06 0.0786774)
(4.90353e-07 7.42784e-06 0.0769485)
(-4.94284e-07 7.40294e-06 0.076941)
(5.37302e-07 -5.5036e-06 0.0899077)
(2.10811e-07 -3.79988e-06 0.0786677)
(3.01063e-07 1.6519e-05 0.0914361)
(7.18381e-07 -4.21802e-06 0.0768913)
(1.19154e-06 1.59364e-05 0.0899587)
(-1.37125e-07 7.35465e-06 0.0787126)
(9.15451e-07 -4.92107e-06 0.0684307)
(-6.0242e-07 -7.18812e-06 0.0822529)
(1.44342e-06 1.22518e-05 0.0859036)
(7.69188e-07 -5.87839e-06 0.0858474)
(-1.0864e-07 6.05509e-06 0.0684919)
(-1.16785e-07 6.06329e-06 0.0684845)
(7.60035e-07 -5.87286e-06 0.085839)
(1.25196e-06 1.20222e-05 0.0822955)
(9.03459e-07 -4.92274e-06 0.0684233)
(1.43642e-06 1.22649e-05 0.0858952)
(7.22824e-07 -4.24281e-06 0.0768996)
(2.76299e-07 -4.96068e-06 0.0913981)
(1.19385e-06 1.59271e-05 0.0899668)
(-1.35648e-07 7.34987e-06 0.078721)
(5.43338e-07 -5.50118e-06 0.0899158)
(2.13582e-07 -3.80375e-06 0.0786762)
(-4.89167e-07 7.39677e-06 0.0769493)
(7.23457e-06 7.21158e-06 0.0836711)
(3.57949e-06 5.12968e-06 0.0683875)
(5.15117e-06 3.55437e-06 0.0683812)
(-7.81789e-06 -3.83026e-06 0.0916937)
(2.39473e-05 1.41735e-05 0.09634)
(-3.60878e-06 -3.47496e-06 0.0875741)
(8.02751e-06 4.01821e-06 0.0816299)
(1.67275e-05 1.02344e-05 0.0917413)
(-1.1021e-05 -5.54943e-06 0.0962912)
(-3.8612e-06 -3.01409e-06 0.081578)
(-3.81258e-06 -7.86888e-06 0.0916874)
(1.42493e-05 2.39086e-05 0.0963375)
(-3.43473e-06 -3.63083e-06 0.0875731)
(4.0664e-06 8.01326e-06 0.0816244)
(1.02946e-05 1.67045e-05 0.0917345)
(-5.51311e-06 -1.10543e-05 0.0962887)
(-2.98998e-06 -3.91786e-06 0.0815737)
(1.67451e-05 1.02456e-05 0.0917342)
(9.88093e-06 6.92539e-06 0.0876158)
(2.39667e-05 1.41755e-05 0.0963341)
(8.04981e-06 4.01563e-06 0.0816222)
(1.03018e-05 1.6723e-05 0.0917275)
(-5.51162e-06 -1.10439e-05 0.0962828)
(6.9807e-06 9.84307e-06 0.0876142)
(1.42625e-05 2.39217e-05 0.0963315)
(4.06687e-06 8.02239e-06 0.0816167)
(-3.11858e-06 -3.16551e-06 0.0836329)
(3.57033e-06 5.12513e-06 0.0683941)
(5.14812e-06 3.54745e-06 0.0683878)
(7.22825e-06 7.19742e-06 0.0836785)
(-2.62491e-06 -4.09081e-06 0.0683385)
(-4.04806e-06 -2.66346e-06 0.0683325)
(-4.35861e-06 -2.54737e-06 0.0715657)
(5.86689e-06 3.34865e-06 0.0716119)
(-2.53277e-06 -4.35781e-06 0.0715659)
(3.39947e-06 5.83986e-06 0.0716118)
(-3.37297e-06 -5.84802e-06 0.0716263)
(2.49294e-06 4.39323e-06 0.0715799)
(-5.83318e-06 -3.38424e-06 0.071626)
(4.36749e-06 2.51596e-06 0.07158)
(3.17327e-06 3.16043e-06 0.0836471)
(-5.12308e-06 -3.56065e-06 0.0684072)
(-3.55443e-06 -5.14086e-06 0.0684008)
(4.06455e-06 2.65768e-06 0.068351)
(2.67127e-06 4.05462e-06 0.0683448)
(-7.18803e-06 -7.20463e-06 0.0836937)
(-1.02207e-05 -1.66715e-05 0.0917484)
(5.5277e-06 1.10506e-05 0.0962969)
(2.96471e-06 3.8683e-06 0.0815855)
(-6.92178e-06 -9.80717e-06 0.0876319)
(3.81914e-06 7.8444e-06 0.0917002)