/*--------------------------------*- C++ -*----------------------------------*\
| =========                 |                                                 |
| \\      /  F ield         | OpenFOAM: The Open Source CFD Toolbox           |
|  \\    /   O peration     | Version:                                        |
|   \\  /    A nd           | Website:  www.openfoam.com                      |
|    \\/     M anipulation  |                                                 |
\*---------------------------------------------------------------------------*/
FoamFile
{
    version     2.0;
    format      ascii;
    class       volScalarField;
    location    "800";
    object      epsilon;
}
// * * * * * * * * * * * * * * * * * * * * * * * * * * * * * * * * * * * * * //

dimensions      [0 2 -3 0 0 0 0];


internalField   nonuniform List<scalar> 
172512
(
4.9917e-07
4.99976e-07
4.99976e-07
4.99864e-07
4.45574e-07
4.54114e-07
4.54114e-07
4.63753e-07
4.03788e-07
4.18749e-07
4.18751e-07
4.3954e-07
3.68406e-07
3.88705e-07
3.88708e-07
4.17791e-07
3.38054e-07
3.62205e-07
3.62208e-07
3.9618e-07
3.11679e-07
3.38343e-07
3.38346e-07
3.74653e-07
2.88499e-07
3.16686e-07
3.1669e-07
3.53759e-07
2.67942e-07
2.97056e-07
2.9706e-07
3.34179e-07
2.49594e-07
2.79396e-07
2.794e-07
3.16504e-07
2.33147e-07
2.63701e-07
2.63704e-07
3.01174e-07
2.18372e-07
2.49975e-07
2.49979e-07
2.88501e-07
2.05095e-07
2.38219e-07
2.38223e-07
2.78702e-07
1.93175e-07
2.28434e-07
2.28438e-07
2.71884e-07
1.825e-07
2.20627e-07
2.20631e-07
2.68172e-07
1.7298e-07
2.14805e-07
2.14809e-07
2.67656e-07
1.64542e-07
2.1098e-07
2.10985e-07
2.70509e-07
1.57123e-07
2.09159e-07
2.09164e-07
2.76716e-07
1.5067e-07
2.09358e-07
2.09364e-07
2.86302e-07
1.45139e-07
2.11621e-07
2.11628e-07
2.99251e-07
1.40495e-07
2.15965e-07
2.15973e-07
3.15625e-07
1.36707e-07
2.22411e-07
2.22421e-07
3.35369e-07
1.33753e-07
2.30975e-07
2.30987e-07
3.58383e-07
1.3161e-07
2.41646e-07
2.41659e-07
3.84503e-07
1.30265e-07
2.54402e-07
2.54417e-07
4.13476e-07
1.29704e-07
2.69198e-07
2.69216e-07
4.44965e-07
1.29929e-07
2.85969e-07
2.8599e-07
4.78581e-07
1.30919e-07
3.04629e-07
3.04654e-07
5.13898e-07
1.32675e-07
3.25073e-07
3.25102e-07
5.50467e-07
1.35196e-07
3.47181e-07
3.47215e-07
5.87844e-07
1.38486e-07
3.70817e-07
3.70856e-07
6.25607e-07
1.42545e-07
3.95836e-07
3.95881e-07
6.63376e-07
1.4738e-07
4.2208e-07
4.2213e-07
7.00818e-07
1.52995e-07
4.49383e-07
4.49439e-07
7.37663e-07
1.59396e-07
4.77575e-07
4.77637e-07
7.73699e-07
1.66588e-07
5.06481e-07
5.06549e-07
8.08765e-07
1.74573e-07
5.35922e-07
5.35997e-07
8.42717e-07
1.83352e-07
5.65725e-07
5.65806e-07
8.75523e-07
1.9292e-07
5.95714e-07
5.95802e-07
9.07147e-07
2.03269e-07
6.25722e-07
6.25817e-07
9.37568e-07
2.14382e-07
6.55588e-07
6.5569e-07
9.66779e-07
2.26239e-07
6.85162e-07
6.85271e-07
9.94785e-07
2.38812e-07
7.14311e-07
7.14425e-07
1.0216e-06
2.52065e-07
7.42911e-07
7.43032e-07
1.04727e-06
2.65956e-07
7.70854e-07
7.70979e-07
1.07181e-06
2.80434e-07
7.98043e-07
7.98172e-07
1.09526e-06
2.95441e-07
8.24398e-07
8.2453e-07
1.11766e-06
3.10911e-07
8.49853e-07
8.49988e-07
1.13903e-06
3.26771e-07
8.74359e-07
8.74495e-07
1.1594e-06
3.42947e-07
8.97878e-07
8.98016e-07
1.1788e-06
3.59357e-07
9.20386e-07
9.20525e-07
1.19727e-06
3.75922e-07
9.41873e-07
9.42012e-07
1.21482e-06
3.92558e-07
9.62334e-07
9.62473e-07
1.2315e-06
4.09185e-07
9.81788e-07
9.81928e-07
1.24732e-06
4.25726e-07
1.00024e-06
1.00038e-06
1.26232e-06
4.42104e-07
1.0177e-06
1.01784e-06
1.27651e-06
4.58248e-07
1.03418e-06
1.03432e-06
1.28994e-06
4.74093e-07
1.04971e-06
1.04985e-06
1.30262e-06
4.89575e-07
1.06429e-06
1.06443e-06
1.31456e-06
5.04645e-07
1.07797e-06
1.0781e-06
1.3258e-06
5.19265e-07
1.09076e-06
1.0909e-06
1.33637e-06
5.3338e-07
1.10269e-06
1.10282e-06
1.34626e-06
5.46961e-07
1.11378e-06
1.11391e-06
1.35552e-06
5.59961e-07
1.12405e-06
1.12417e-06
1.36414e-06
5.72392e-07
1.13357e-06
1.13369e-06
1.37218e-06
5.8421e-07
1.14232e-06
1.14244e-06
1.37965e-06
5.95379e-07
1.15029e-06
1.15042e-06
1.38649e-06
6.05892e-07
1.15758e-06
1.15768e-06
1.39278e-06
6.15859e-07
1.16423e-06
1.16435e-06
1.39862e-06
6.25051e-07
1.17012e-06
1.17027e-06
1.40388e-06
6.33735e-07
1.17554e-06
1.17558e-06
1.40852e-06
6.41609e-07
1.18001e-06
1.18026e-06
1.41295e-06
6.49082e-07
1.18417e-06
1.18409e-06
1.41655e-06
6.55606e-07
1.188e-06
1.18845e-06
1.42021e-06
6.61871e-07
1.19073e-06
1.19002e-06
1.42204e-06
6.66395e-07
1.19111e-06
1.19287e-06
1.42534e-06
6.73938e-07
1.19778e-06
1.19787e-06
1.42954e-06
6.76503e-07
1.19749e-06
1.19474e-06
1.42647e-06
6.76286e-07
1.19108e-06
1.19328e-06
1.42661e-06
6.8544e-07
1.1984e-06
1.20261e-06
1.43292e-06
6.90348e-07
1.20126e-06
1.20165e-06
1.43124e-06
6.86047e-07
1.19356e-06
1.19536e-06
1.4346e-06
6.91986e-07
1.20669e-06
1.20405e-06
1.44631e-06
6.96244e-07
1.20496e-06
1.20156e-06
1.42626e-06
6.82887e-07
1.15755e-06
1.17356e-06
1.38868e-06
6.82324e-07
1.16342e-06
1.18319e-06
1.41834e-06
7.07661e-07
1.23177e-06
1.22251e-06
1.47786e-06
7.0736e-07
1.22726e-06
1.2021e-06
1.45713e-06
6.69597e-07
1.14447e-06
1.13778e-06
1.37109e-06
6.58485e-07
1.11894e-06
1.13027e-06
1.3513e-06
6.92985e-07
1.1766e-06
1.19293e-06
1.42127e-06
7.24373e-07
1.22928e-06
1.22849e-06
1.47808e-06
7.14663e-07
1.21733e-06
1.20685e-06
1.46741e-06
6.80418e-07
1.1653e-06
1.15909e-06
1.40857e-06
6.61434e-07
1.13665e-06
1.13828e-06
1.37275e-06
7.1841e-07
1.05468e-06
1.05924e-06
1.3262e-06
5.06203e-07
5.05586e-07
5.05585e-07
5.06203e-07
5.05585e-07
5.05585e-07
5.05986e-07
5.05986e-07
5.05986e-07
5.05987e-07
5.05587e-07
5.05586e-07
5.06203e-07
5.05587e-07
5.05585e-07
5.06203e-07
4.99865e-07
4.67264e-07
4.99977e-07
4.99979e-07
4.6414e-07
4.64148e-07
4.99865e-07
4.67263e-07
4.99979e-07
4.99979e-07
4.64144e-07
4.64149e-07
4.99977e-07
4.64135e-07
4.6414e-07
4.99864e-07
4.67266e-07
4.99978e-07
4.64135e-07
4.64144e-07
4.67268e-07
4.63753e-07
4.41544e-07
4.54119e-07
4.54127e-07
4.27004e-07
4.27013e-07
4.63753e-07
4.41543e-07
4.54123e-07
4.54129e-07
4.27004e-07
4.27015e-07
4.5412e-07
4.26996e-07
4.27006e-07
4.63753e-07
4.41549e-07
4.54123e-07
4.26998e-07
4.27007e-07
4.41555e-07
4.39534e-07
4.19396e-07
4.18757e-07
4.18766e-07
3.95844e-07
3.95853e-07
4.39537e-07
4.19399e-07
4.18757e-07
4.18769e-07
3.95839e-07
3.95856e-07
4.18761e-07
3.95834e-07
3.9585e-07
4.39538e-07
4.19404e-07
4.1876e-07
3.95836e-07
3.95845e-07
4.19413e-07
4.17775e-07
3.9773e-07
3.88717e-07
3.88725e-07
3.68571e-07
3.68579e-07
4.17779e-07
3.97735e-07
3.88711e-07
3.88729e-07
3.68561e-07
3.68583e-07
3.88723e-07
3.68558e-07
3.68578e-07
4.17783e-07
3.97741e-07
3.88717e-07
3.68561e-07
3.68569e-07
3.97751e-07
3.96161e-07
3.76141e-07
3.62219e-07
3.62226e-07
3.44105e-07
3.44112e-07
3.96166e-07
3.76146e-07
3.62208e-07
3.6223e-07
3.44092e-07
3.44116e-07
3.62226e-07
3.44091e-07
3.44113e-07
3.96172e-07
3.76153e-07
3.62216e-07
3.44094e-07
3.441e-07
3.76164e-07
3.74632e-07
3.55142e-07
3.38358e-07
3.38364e-07
3.21922e-07
3.21928e-07
3.74637e-07
3.55148e-07
3.38344e-07
3.38368e-07
3.21906e-07
3.21932e-07
3.38366e-07
3.21907e-07
3.2193e-07
3.74644e-07
3.55155e-07
3.38353e-07
3.2191e-07
3.21915e-07
3.55166e-07
3.53736e-07
3.35407e-07
3.16703e-07
3.16708e-07
3.01795e-07
3.018e-07
3.53743e-07
3.35414e-07
3.16686e-07
3.16712e-07
3.01776e-07
3.01804e-07
3.16711e-07
3.01778e-07
3.01803e-07
3.53749e-07
3.35421e-07
3.16695e-07
3.01782e-07
3.01787e-07
3.35432e-07
3.34155e-07
3.17533e-07
2.97074e-07
2.97079e-07
2.83645e-07
2.8365e-07
3.34163e-07
3.1754e-07
2.97054e-07
2.97082e-07
2.83625e-07
2.83654e-07
2.97082e-07
2.83628e-07
2.83654e-07
3.3417e-07
3.17548e-07
2.97065e-07
2.83631e-07
2.83636e-07
3.17559e-07
3.1648e-07
3.01967e-07
2.79415e-07
2.7942e-07
2.67459e-07
2.67463e-07
3.16488e-07
3.01973e-07
2.79394e-07
2.79422e-07
2.67437e-07
2.67467e-07
2.79423e-07
2.6744e-07
2.67467e-07
3.16494e-07
3.01982e-07
2.79405e-07
2.67444e-07
2.67448e-07
3.01993e-07
3.01148e-07
2.89028e-07
2.6372e-07
2.63724e-07
2.53241e-07
2.53246e-07
3.01157e-07
2.89033e-07
2.63698e-07
2.63727e-07
2.53218e-07
2.53249e-07
2.63728e-07
2.53221e-07
2.53249e-07
3.01164e-07
2.89043e-07
2.63709e-07
2.53225e-07
2.53229e-07
2.89054e-07
2.88475e-07
2.78935e-07
2.49995e-07
2.5e-07
2.40994e-07
2.40999e-07
2.88484e-07
2.7894e-07
2.49972e-07
2.50003e-07
2.4097e-07
2.41003e-07
2.50003e-07
2.40973e-07
2.41001e-07
2.88491e-07
2.7895e-07
2.49983e-07
2.40976e-07
2.40981e-07
2.78962e-07
2.78675e-07
2.71813e-07
2.38242e-07
2.38247e-07
2.30716e-07
2.30723e-07
2.78684e-07
2.71821e-07
2.38217e-07
2.38249e-07
2.30691e-07
2.30726e-07
2.38249e-07
2.30694e-07
2.30723e-07
2.78691e-07
2.7183e-07
2.38229e-07
2.30697e-07
2.30703e-07
2.71843e-07
2.71854e-07
2.67846e-07
2.28458e-07
2.28465e-07
2.22415e-07
2.22423e-07
2.71865e-07
2.67856e-07
2.28432e-07
2.28467e-07
2.22388e-07
2.22427e-07
2.28465e-07
2.2239e-07
2.22423e-07
2.71872e-07
2.67865e-07
2.28444e-07
2.22394e-07
2.22402e-07
2.67879e-07
2.68139e-07
2.66965e-07
2.20653e-07
2.20661e-07
2.16097e-07
2.16107e-07
2.68152e-07
2.66976e-07
2.20626e-07
2.20664e-07
2.16069e-07
2.16111e-07
2.2066e-07
2.16069e-07
2.16104e-07
2.6816e-07
2.66987e-07
2.20639e-07
2.16073e-07
2.16083e-07
2.67002e-07
2.67618e-07
2.69137e-07
2.14833e-07
2.14845e-07
2.1177e-07
2.11787e-07
2.67633e-07
2.69152e-07
2.14805e-07
2.14847e-07
2.11744e-07
2.11789e-07
2.14841e-07
2.11742e-07
2.11778e-07
2.67642e-07
2.69163e-07
2.14819e-07
2.11747e-07
2.11759e-07
2.6918e-07
2.70466e-07
2.74644e-07
2.11006e-07
2.11026e-07
2.09443e-07
2.09468e-07
2.70484e-07
2.74662e-07
2.10982e-07
2.11027e-07
2.09419e-07
2.09468e-07
2.11016e-07
2.09415e-07
2.09452e-07
2.70494e-07
2.74674e-07
2.10998e-07
2.0942e-07
2.09437e-07
2.74693e-07
2.76667e-07
2.83526e-07
2.09186e-07
2.09212e-07
2.09161e-07
2.09191e-07
2.7669e-07
2.83547e-07
2.09163e-07
2.09212e-07
2.09137e-07
2.09191e-07
2.09196e-07
2.09131e-07
2.0917e-07
2.76699e-07
2.83559e-07
2.09181e-07
2.09137e-07
2.09157e-07
2.83581e-07
2.86249e-07
2.95788e-07
2.0939e-07
2.09421e-07
2.1089e-07
2.10925e-07
2.86278e-07
2.95813e-07
2.09366e-07
2.09421e-07
2.10864e-07
2.10925e-07
2.09399e-07
2.10855e-07
2.10898e-07
2.86285e-07
2.95825e-07
2.09386e-07
2.10861e-07
2.10886e-07
2.95848e-07
2.99191e-07
3.11465e-07
2.11658e-07
2.11693e-07
2.14715e-07
2.14759e-07
2.99221e-07
3.11492e-07
2.11632e-07
2.11693e-07
2.1469e-07
2.14757e-07
2.11666e-07
2.14678e-07
2.14725e-07
2.99231e-07
3.11507e-07
2.11654e-07
2.14685e-07
2.14715e-07
3.11533e-07
3.1556e-07
3.30518e-07
2.16005e-07
2.16047e-07
2.20646e-07
2.20691e-07
3.15586e-07
3.3054e-07
2.15979e-07
2.16048e-07
2.20617e-07
2.20692e-07
2.16015e-07
2.20602e-07
2.20655e-07
3.15603e-07
3.30562e-07
2.16005e-07
2.2061e-07
2.20646e-07
3.30591e-07
3.35304e-07
3.52854e-07
2.22461e-07
2.22503e-07
2.28694e-07
2.28736e-07
3.35321e-07
3.52873e-07
2.22429e-07
2.22506e-07
2.28658e-07
2.28741e-07
2.22468e-07
2.28639e-07
2.28699e-07
3.35344e-07
3.52899e-07
2.22458e-07
2.28648e-07
2.2869e-07
3.52933e-07
3.58313e-07
3.78321e-07
2.31035e-07
2.31077e-07
2.38849e-07
2.38889e-07
3.58327e-07
3.78337e-07
2.30998e-07
2.31083e-07
2.38807e-07
2.38899e-07
2.3104e-07
2.38784e-07
2.38852e-07
3.58355e-07
3.7837e-07
2.31029e-07
2.38796e-07
2.38842e-07
3.78407e-07
3.84427e-07
4.06685e-07
2.41716e-07
2.41755e-07
2.51096e-07
2.51136e-07
3.84438e-07
4.067e-07
2.41672e-07
2.41766e-07
2.51048e-07
2.51151e-07
2.41719e-07
2.51022e-07
2.511e-07
3.84472e-07
4.06739e-07
2.41707e-07
2.51036e-07
2.51087e-07
4.06779e-07
4.13392e-07
4.37624e-07
2.54481e-07
2.5452e-07
2.65397e-07
2.65436e-07
4.13402e-07
4.37639e-07
2.5443e-07
2.54536e-07
2.65342e-07
2.65456e-07
2.54484e-07
2.65314e-07
2.65401e-07
4.13442e-07
4.37683e-07
2.54469e-07
2.6533e-07
2.65385e-07
4.37727e-07
4.44873e-07
4.7076e-07
2.69286e-07
2.69326e-07
2.81691e-07
2.81731e-07
4.44882e-07
4.70774e-07
2.69229e-07
2.69347e-07
2.81628e-07
2.81755e-07
2.69291e-07
2.81598e-07
2.81697e-07
4.44927e-07
4.70824e-07
2.69272e-07
2.81617e-07
2.81676e-07
4.70872e-07
4.78481e-07
5.05673e-07
2.86067e-07
2.86107e-07
2.99898e-07
2.99937e-07
4.7849e-07
5.05687e-07
2.86002e-07
2.86132e-07
2.99826e-07
2.99966e-07
2.86074e-07
2.99795e-07
2.99905e-07
4.7854e-07
5.05742e-07
2.8605e-07
2.99818e-07
2.99879e-07
5.05795e-07
5.13789e-07
5.41923e-07
3.04736e-07
3.04777e-07
3.19916e-07
3.19956e-07
5.13797e-07
5.41936e-07
3.04663e-07
3.04807e-07
3.19836e-07
3.19989e-07
3.04746e-07
3.19803e-07
3.19927e-07
5.13853e-07
5.41996e-07
3.04715e-07
3.19831e-07
3.19893e-07
5.42053e-07
5.50351e-07
5.79063e-07
3.2519e-07
3.25231e-07
3.41631e-07
3.41669e-07
5.50358e-07
5.79075e-07
3.25108e-07
3.25265e-07
3.41539e-07
3.41707e-07
3.25203e-07
3.41507e-07
3.41645e-07
5.50419e-07
5.79141e-07
3.25164e-07
3.4154e-07
3.41602e-07
5.79202e-07
5.87721e-07
6.16669e-07
3.47307e-07
3.47347e-07
3.64909e-07
3.64945e-07
5.87726e-07
6.16681e-07
3.47215e-07
3.47386e-07
3.64806e-07
3.64988e-07
3.47325e-07
3.64775e-07
3.64927e-07
5.87793e-07
6.16752e-07
3.47276e-07
3.64813e-07
3.64873e-07
6.16816e-07
6.25477e-07
6.54355e-07
3.70953e-07
3.70992e-07
3.89607e-07
3.8964e-07
6.25482e-07
6.54367e-07
3.7085e-07
3.71036e-07
3.89491e-07
3.89687e-07
3.70976e-07
3.89462e-07
3.89628e-07
6.25553e-07
6.54442e-07
3.70916e-07
3.89506e-07
3.89563e-07
6.54509e-07
6.63239e-07
6.91782e-07
3.95979e-07
3.96018e-07
4.15569e-07
4.15599e-07
6.63244e-07
6.91793e-07
3.95867e-07
3.96066e-07
4.15441e-07
4.1565e-07
3.96008e-07
4.15415e-07
4.15595e-07
6.63319e-07
6.91873e-07
3.95937e-07
4.15464e-07
4.15517e-07
6.91942e-07
7.00676e-07
7.28669e-07
4.2223e-07
4.22268e-07
4.4263e-07
4.42657e-07
7.0068e-07
7.2868e-07
4.22107e-07
4.2232e-07
4.42491e-07
4.42713e-07
4.22266e-07
4.42469e-07
4.42662e-07
7.0076e-07
7.28763e-07
4.22182e-07
4.42524e-07
4.42572e-07
7.28834e-07
7.37518e-07
7.64794e-07
4.49541e-07
4.49575e-07
4.70623e-07
4.70647e-07
7.37521e-07
7.64805e-07
4.49407e-07
4.49631e-07
4.70473e-07
4.70707e-07
4.49583e-07
4.70455e-07
4.70661e-07
7.37603e-07
7.6489e-07
4.49485e-07
4.70516e-07
4.70558e-07
7.64962e-07
7.7355e-07
7.99989e-07
4.77739e-07
4.7777e-07
4.99373e-07
4.99392e-07
7.73553e-07
7.99999e-07
4.77594e-07
4.7783e-07
4.99212e-07
4.99458e-07
4.77788e-07
4.99199e-07
4.99417e-07
7.73637e-07
8.00086e-07
4.77677e-07
4.99266e-07
4.99301e-07
8.0016e-07
8.08614e-07
8.34122e-07
5.0665e-07
5.06677e-07
5.28702e-07
5.28717e-07
8.08616e-07
8.34132e-07
5.06495e-07
5.0674e-07
5.28531e-07
5.28787e-07
5.06705e-07
5.28523e-07
5.28753e-07
8.08702e-07
8.34221e-07
5.06581e-07
5.28597e-07
5.28624e-07
8.34297e-07
8.42559e-07
8.67135e-07
5.36096e-07
5.36118e-07
5.58435e-07
5.58444e-07
8.42563e-07
8.67143e-07
5.35932e-07
5.36185e-07
5.58255e-07
5.5852e-07
5.36158e-07
5.58251e-07
5.58492e-07
8.42651e-07
8.67234e-07
5.36021e-07
5.58332e-07
5.58351e-07
8.67308e-07
8.75366e-07
8.98982e-07
5.65903e-07
5.65919e-07
5.88397e-07
5.88401e-07
8.75368e-07
8.98988e-07
5.65729e-07
5.65989e-07
5.88209e-07
5.88482e-07
5.65971e-07
5.88209e-07
5.8846e-07
8.75458e-07
8.9908e-07
5.65822e-07
5.88298e-07
5.88307e-07
8.99153e-07
9.06992e-07
9.29635e-07
5.95896e-07
5.95906e-07
6.18418e-07
6.18417e-07
9.06991e-07
9.29638e-07
5.95714e-07
5.9598e-07
6.18223e-07
6.18502e-07
5.9597e-07
6.18228e-07
6.18487e-07
9.07083e-07
9.29733e-07
5.95809e-07
6.18323e-07
6.18324e-07
9.29805e-07
9.37413e-07
9.59085e-07
6.25907e-07
6.2591e-07
6.48335e-07
6.4833e-07
9.37411e-07
9.59086e-07
6.25718e-07
6.25989e-07
6.48136e-07
6.48417e-07
6.25985e-07
6.48144e-07
6.4841e-07
9.37505e-07
9.59184e-07
6.25815e-07
6.48247e-07
6.48238e-07
9.59254e-07
9.66625e-07
9.87335e-07
6.55776e-07
6.55771e-07
6.77999e-07
6.77983e-07
9.66621e-07
9.87332e-07
6.5558e-07
6.55856e-07
6.77792e-07
6.78075e-07
6.55858e-07
6.77804e-07
6.78077e-07
9.66717e-07
9.87433e-07
6.55679e-07
6.77914e-07
6.77896e-07
9.87501e-07
9.94629e-07
1.0144e-06
6.85356e-07
6.85342e-07
7.07264e-07
7.07245e-07
9.94626e-07
1.01439e-06
6.8515e-07
6.8543e-07
7.07055e-07
7.07338e-07
6.85438e-07
7.07071e-07
7.07347e-07
9.94726e-07
1.0145e-06
6.8525e-07
7.07187e-07
7.0716e-07
1.01456e-06
1.02145e-06
1.0403e-06
7.14503e-07
7.14485e-07
7.36008e-07
7.35988e-07
1.02145e-06
1.04029e-06
7.14294e-07
7.14578e-07
7.35799e-07
7.36083e-07
7.1459e-07
7.3582e-07
7.36098e-07
1.02155e-06
1.0404e-06
7.14396e-07
7.35942e-07
7.35905e-07
1.04046e-06
1.04711e-06
1.06508e-06
7.43099e-07
7.4308e-07
7.64121e-07
7.64097e-07
1.04711e-06
1.06507e-06
7.4289e-07
7.43175e-07
7.63912e-07
7.64196e-07
7.43193e-07
7.63937e-07
7.64216e-07
1.04721e-06
1.06518e-06
7.42993e-07
7.64064e-07
7.64019e-07
1.06524e-06
1.07166e-06
1.08876e-06
7.71039e-07
7.71015e-07
7.91504e-07
7.91474e-07
1.07165e-06
1.08875e-06
7.70829e-07
7.71113e-07
7.91293e-07
7.91576e-07
7.71136e-07
7.91322e-07
7.91601e-07
1.07176e-06
1.08886e-06
7.70933e-07
7.91453e-07
7.91401e-07
1.08892e-06
1.09511e-06
1.11138e-06
7.98226e-07
7.98194e-07
8.18072e-07
8.18033e-07
1.0951e-06
1.11137e-06
7.98014e-07
7.98296e-07
8.1786e-07
8.18139e-07
7.98324e-07
8.17892e-07
8.18169e-07
1.09521e-06
1.11148e-06
7.98118e-07
8.18027e-07
8.17967e-07
1.11154e-06
1.11751e-06
1.13297e-06
8.24577e-07
8.24537e-07
8.43754e-07
8.43707e-07
1.1175e-06
1.13296e-06
8.24365e-07
8.24644e-07
8.43541e-07
8.43817e-07
8.24676e-07
8.43577e-07
8.43851e-07
1.11761e-06
1.13307e-06
8.24469e-07
8.43715e-07
8.43648e-07
1.13312e-06
1.13888e-06
1.15355e-06
8.5003e-07
8.49981e-07
8.68498e-07
8.68442e-07
1.13887e-06
1.15354e-06
8.49817e-07
8.50091e-07
8.68284e-07
8.68556e-07
8.50128e-07
8.68324e-07
8.68593e-07
1.13898e-06
1.15365e-06
8.4992e-07
8.68463e-07
8.6839e-07
1.1537e-06
1.15925e-06
1.17316e-06
8.74532e-07
8.74475e-07
8.92264e-07
8.92199e-07
1.15924e-06
1.17315e-06
8.74318e-07
8.74589e-07
8.92049e-07
8.92317e-07
8.74629e-07
8.92092e-07
8.92357e-07
1.15935e-06
1.17326e-06
8.74421e-07
8.92233e-07
8.92154e-07
1.17331e-06
1.17866e-06
1.19183e-06
8.98049e-07
8.97983e-07
9.15024e-07
9.14951e-07
1.17865e-06
1.19182e-06
8.97834e-07
8.98101e-07
9.14809e-07
9.15072e-07
8.98143e-07
9.14855e-07
9.15115e-07
1.17876e-06
1.19193e-06
8.97935e-07
9.14996e-07
9.14912e-07
1.19198e-06
1.19713e-06
1.20958e-06
9.20554e-07
9.20481e-07
9.36763e-07
9.36683e-07
1.19712e-06
1.20956e-06
9.2034e-07
9.20601e-07
9.36549e-07
9.36807e-07
9.20647e-07
9.36597e-07
9.36852e-07
1.19722e-06
1.20967e-06
9.2044e-07
9.36739e-07
9.3665e-07
1.20973e-06
1.21468e-06
1.22644e-06
9.42038e-07
9.41957e-07
9.57476e-07
9.57391e-07
1.21467e-06
1.22642e-06
9.41823e-07
9.4208e-07
9.57262e-07
9.57515e-07
9.42127e-07
9.57314e-07
9.57563e-07
1.21478e-06
1.22653e-06
9.41921e-07
9.57455e-07
9.57362e-07
1.22658e-06
1.23136e-06
1.24244e-06
9.62496e-07
9.6241e-07
9.7718e-07
9.77087e-07
1.23135e-06
1.24242e-06
9.62282e-07
9.62534e-07
9.76966e-07
9.77214e-07
9.62584e-07
9.77019e-07
9.77263e-07
1.23146e-06
1.24253e-06
9.62379e-07
9.77161e-07
9.77063e-07
1.24258e-06
1.24718e-06
1.25761e-06
9.81949e-07
9.81856e-07
9.9588e-07
9.95783e-07
1.24717e-06
1.25759e-06
9.81735e-07
9.81982e-07
9.95666e-07
9.9591e-07
9.82033e-07
9.95721e-07
9.95961e-07
1.24728e-06
1.2577e-06
9.81829e-07
9.95863e-07
9.95762e-07
1.25775e-06
1.26218e-06
1.27198e-06
1.0004e-06
1.0003e-06
1.01358e-06
1.01348e-06
1.26217e-06
1.27196e-06
1.00019e-06
1.00043e-06
1.01337e-06
1.01361e-06
1.00048e-06
1.01343e-06
1.01366e-06
1.26228e-06
1.27207e-06
1.00028e-06
1.01357e-06
1.01347e-06
1.27212e-06
1.27639e-06
1.28557e-06
1.01786e-06
1.01776e-06
1.03031e-06
1.0302e-06
1.27637e-06
1.28555e-06
1.01764e-06
1.01788e-06
1.03009e-06
1.03033e-06
1.01793e-06
1.03015e-06
1.03038e-06
1.27648e-06
1.28565e-06
1.01773e-06
1.03029e-06
1.03018e-06
1.2857e-06
1.28981e-06
1.2984e-06
1.03434e-06
1.03423e-06
1.04607e-06
1.04596e-06
1.28979e-06
1.29838e-06
1.03412e-06
1.03436e-06
1.04586e-06
1.04609e-06
1.03441e-06
1.04592e-06
1.04614e-06
1.2899e-06
1.29848e-06
1.03421e-06
1.04605e-06
1.04594e-06
1.29853e-06
1.30249e-06
1.3105e-06
1.04986e-06
1.04975e-06
1.06088e-06
1.06077e-06
1.30247e-06
1.31048e-06
1.04965e-06
1.04988e-06
1.06067e-06
1.0609e-06
1.04993e-06
1.06074e-06
1.06095e-06
1.30258e-06
1.31058e-06
1.04974e-06
1.06087e-06
1.06076e-06
1.31062e-06
1.31444e-06
1.32188e-06
1.06444e-06
1.06433e-06
1.07478e-06
1.07467e-06
1.31442e-06
1.32186e-06
1.06423e-06
1.06446e-06
1.07457e-06
1.07479e-06
1.06451e-06
1.07464e-06
1.07485e-06
1.31452e-06
1.32196e-06
1.06432e-06
1.07477e-06
1.07466e-06
1.32201e-06
1.32568e-06
1.33259e-06
1.07812e-06
1.078e-06
1.08779e-06
1.08768e-06
1.32566e-06
1.33257e-06
1.07791e-06
1.07813e-06
1.08759e-06
1.0878e-06
1.07818e-06
1.08765e-06
1.08785e-06
1.32576e-06
1.33267e-06
1.07799e-06
1.08778e-06
1.08767e-06
1.33271e-06
1.33625e-06
1.34262e-06
1.09091e-06
1.09079e-06
1.09993e-06
1.09981e-06
1.33623e-06
1.3426e-06
1.0907e-06
1.09092e-06
1.09972e-06
1.09994e-06
1.09097e-06
1.09979e-06
1.09999e-06
1.33633e-06
1.3427e-06
1.09078e-06
1.09992e-06
1.0998e-06
1.34274e-06
1.34615e-06
1.35201e-06
1.10283e-06
1.10271e-06
1.11122e-06
1.1111e-06
1.34613e-06
1.35199e-06
1.10262e-06
1.10284e-06
1.11102e-06
1.11123e-06
1.10289e-06
1.11109e-06
1.11128e-06
1.34623e-06
1.35208e-06
1.1027e-06
1.11121e-06
1.11109e-06
1.35212e-06
1.35541e-06
1.36075e-06
1.11392e-06
1.1138e-06
1.12169e-06
1.12157e-06
1.35539e-06
1.36073e-06
1.11371e-06
1.11392e-06
1.12148e-06
1.12169e-06
1.11397e-06
1.12156e-06
1.12174e-06
1.35548e-06
1.36083e-06
1.11379e-06
1.12168e-06
1.12156e-06
1.36087e-06
1.36402e-06
1.36891e-06
1.12418e-06
1.12406e-06
1.13139e-06
1.13127e-06
1.36401e-06
1.3689e-06
1.12397e-06
1.12418e-06
1.13119e-06
1.13139e-06
1.12424e-06
1.13126e-06
1.13143e-06
1.3641e-06
1.36899e-06
1.12405e-06
1.13138e-06
1.13125e-06
1.36902e-06
1.37208e-06
1.37651e-06
1.1337e-06
1.13358e-06
1.14034e-06
1.14022e-06
1.37206e-06
1.37649e-06
1.1335e-06
1.1337e-06
1.14014e-06
1.14034e-06
1.13375e-06
1.14021e-06
1.14039e-06
1.37215e-06
1.37658e-06
1.13356e-06
1.14033e-06
1.1402e-06
1.37661e-06
1.37954e-06
1.38345e-06
1.14244e-06
1.14233e-06
1.14849e-06
1.14837e-06
1.37952e-06
1.38343e-06
1.14224e-06
1.14245e-06
1.1483e-06
1.1485e-06
1.1425e-06
1.14837e-06
1.14855e-06
1.37962e-06
1.38354e-06
1.14232e-06
1.14849e-06
1.14838e-06
1.38358e-06
1.38638e-06
1.38986e-06
1.15043e-06
1.1503e-06
1.15594e-06
1.15584e-06
1.38635e-06
1.38986e-06
1.15023e-06
1.15043e-06
1.15573e-06
1.15592e-06
1.15048e-06
1.15584e-06
1.15599e-06
1.38646e-06
1.38992e-06
1.1503e-06
1.15592e-06
1.1558e-06
1.38996e-06
1.39267e-06
1.39578e-06
1.15768e-06
1.15758e-06
1.16276e-06
1.16262e-06
1.39268e-06
1.39574e-06
1.15748e-06
1.15768e-06
1.16258e-06
1.16278e-06
1.15774e-06
1.16262e-06
1.16279e-06
1.39274e-06
1.39587e-06
1.15756e-06
1.16276e-06
1.16262e-06
1.39589e-06
1.39852e-06
1.40114e-06
1.16438e-06
1.16425e-06
1.16883e-06
1.16872e-06
1.39847e-06
1.40113e-06
1.16419e-06
1.16437e-06
1.16863e-06
1.16881e-06
1.16441e-06
1.16874e-06
1.16895e-06
1.3986e-06
1.40119e-06
1.16423e-06
1.16882e-06
1.16877e-06
1.40129e-06
1.40373e-06
1.40598e-06
1.17022e-06
1.1701e-06
1.17435e-06
1.17426e-06
1.40372e-06
1.40596e-06
1.17004e-06
1.17026e-06
1.17416e-06
1.1744e-06
1.17034e-06
1.17422e-06
1.17428e-06
1.4038e-06
1.40612e-06
1.17018e-06
1.17435e-06
1.17411e-06
1.40601e-06
1.40851e-06
1.41024e-06
1.17562e-06
1.17557e-06
1.17902e-06
1.17891e-06
1.40851e-06
1.41026e-06
1.1754e-06
1.17561e-06
1.17886e-06
1.17908e-06
1.17558e-06
1.17897e-06
1.1793e-06
1.40864e-06
1.41032e-06
1.17538e-06
1.17913e-06
1.17915e-06
1.41051e-06
1.41266e-06
1.41433e-06
1.18019e-06
1.17997e-06
1.18355e-06
1.18326e-06
1.41262e-06
1.414e-06
1.18004e-06
1.18023e-06
1.18331e-06
1.18325e-06
1.1804e-06
1.18319e-06
1.18335e-06
1.41272e-06
1.4141e-06
1.18028e-06
1.18317e-06
1.18313e-06
1.41425e-06
1.41665e-06
1.41748e-06
1.18443e-06
1.18421e-06
1.18683e-06
1.18687e-06
1.41639e-06
1.41767e-06
1.18417e-06
1.18414e-06
1.18675e-06
1.18729e-06
1.18432e-06
1.18698e-06
1.1873e-06
1.41642e-06
1.41793e-06
1.18407e-06
1.18739e-06
1.18722e-06
1.41791e-06
1.41976e-06
1.42041e-06
1.18783e-06
1.1879e-06
1.19031e-06
1.19053e-06
1.42001e-06
1.42089e-06
1.1878e-06
1.18837e-06
1.19003e-06
1.19006e-06
1.18818e-06
1.19044e-06
1.18998e-06
1.42035e-06
1.42044e-06
1.18816e-06
1.18993e-06
1.18971e-06
1.42017e-06
1.42232e-06
1.42137e-06
1.19061e-06
1.19084e-06
1.19115e-06
1.19084e-06
1.42284e-06
1.4205e-06
1.19024e-06
1.19016e-06
1.19095e-06
1.19121e-06
1.1904e-06
1.19084e-06
1.19228e-06
1.42217e-06
1.42163e-06
1.19e-06
1.19137e-06
1.19213e-06
1.42273e-06
1.42387e-06
1.42863e-06
1.19196e-06
1.19101e-06
1.1971e-06
1.19588e-06
1.42235e-06
1.42642e-06
1.19207e-06
1.19265e-06
1.19726e-06
1.19749e-06
1.1933e-06
1.196e-06
1.19625e-06
1.42437e-06
1.42894e-06
1.19339e-06
1.19741e-06
1.19638e-06
1.42755e-06
1.43151e-06
1.42686e-06
1.19825e-06
1.1978e-06
1.19758e-06
1.19899e-06
1.42993e-06
1.42992e-06
1.1982e-06
1.19809e-06
1.19699e-06
1.19647e-06
1.19668e-06
1.19882e-06
1.19621e-06
1.43134e-06
1.4258e-06
1.19662e-06
1.19609e-06
1.19555e-06
1.42511e-06
1.42778e-06
1.41802e-06
1.19539e-06
1.19756e-06
1.1909e-06
1.19133e-06
1.43101e-06
1.41952e-06
1.19482e-06
1.1949e-06
1.19082e-06
1.19258e-06
1.19548e-06
1.19172e-06
1.19433e-06
1.42689e-06
1.42098e-06
1.19486e-06
1.19292e-06
1.19412e-06
1.42405e-06
1.41999e-06
1.43151e-06
1.19089e-06
1.19068e-06
1.19931e-06
1.19546e-06
1.42076e-06
1.42534e-06
1.19091e-06
1.19286e-06
1.19989e-06
1.20048e-06
1.19445e-06
1.19524e-06
1.19797e-06
1.4237e-06
1.43269e-06
1.19451e-06
1.20039e-06
1.19863e-06
1.43041e-06
1.43715e-06
1.43993e-06
1.20298e-06
1.19883e-06
1.20593e-06
1.20255e-06
1.43023e-06
1.43556e-06
1.20352e-06
1.20305e-06
1.20629e-06
1.20437e-06
1.19918e-06
1.20218e-06
1.19999e-06
1.43687e-06
1.43599e-06
1.19966e-06
1.20357e-06
1.19998e-06
1.42985e-06
1.44066e-06
1.42226e-06
1.20371e-06
1.20132e-06
1.19305e-06
1.19288e-06
1.4366e-06
1.42261e-06
1.20402e-06
1.20226e-06
1.19335e-06
1.19507e-06
1.19946e-06
1.19406e-06
1.19877e-06
1.43692e-06
1.42474e-06
1.19932e-06
1.19573e-06
1.19868e-06
1.43099e-06
1.4233e-06
1.43021e-06
1.19199e-06
1.19225e-06
1.19843e-06
1.20095e-06
1.42389e-06
1.4357e-06
1.19219e-06
1.19452e-06
1.19791e-06
1.20029e-06
1.1995e-06
1.20191e-06
1.20588e-06
1.42617e-06
1.43386e-06
1.19934e-06
1.20106e-06
1.20497e-06
1.44362e-06
1.43605e-06
1.43987e-06
1.20265e-06
1.20604e-06
1.20614e-06
1.20984e-06
1.44329e-06
1.4491e-06
1.20199e-06
1.20356e-06
1.20557e-06
1.20566e-06
1.20673e-06
1.20995e-06
1.20014e-06
1.4389e-06
1.43848e-06
1.20565e-06
1.20548e-06
1.19896e-06
1.42802e-06
1.44024e-06
1.40511e-06
1.20303e-06
1.20518e-06
1.17876e-06
1.16803e-06
1.44845e-06
1.38665e-06
1.20287e-06
1.20225e-06
1.18059e-06
1.18005e-06
1.19204e-06
1.16721e-06
1.16828e-06
1.43865e-06
1.40343e-06
1.19144e-06
1.1786e-06
1.16973e-06
1.38819e-06
1.4049e-06
1.40466e-06
1.17301e-06
1.15842e-06
1.17211e-06
1.15413e-06
1.38376e-06
1.37241e-06
1.17538e-06
1.17507e-06
1.17491e-06
1.17518e-06
1.16476e-06
1.15349e-06
1.17142e-06
1.40337e-06
1.40561e-06
1.1667e-06
1.17409e-06
1.17421e-06
1.40539e-06
1.41377e-06
1.45788e-06
1.18014e-06
1.16356e-06
1.21344e-06
1.21683e-06
1.38394e-06
1.4647e-06
1.18268e-06
1.18352e-06
1.21325e-06
1.21517e-06
1.18421e-06
1.21847e-06
1.22208e-06
1.41547e-06
1.46151e-06
1.18656e-06
1.21677e-06
1.22167e-06
1.47044e-06
1.46555e-06
1.4532e-06
1.21987e-06
1.22981e-06
1.21721e-06
1.23581e-06
1.48068e-06
1.49024e-06
1.2187e-06
1.22061e-06
1.21392e-06
1.21498e-06
1.22829e-06
1.23791e-06
1.2235e-06
1.469e-06
1.45287e-06
1.2269e-06
1.21699e-06
1.2198e-06
1.46111e-06
1.44976e-06
1.37224e-06
1.2044e-06
1.22546e-06
1.15561e-06
1.16354e-06
1.48699e-06
1.38656e-06
1.20028e-06
1.20041e-06
1.15217e-06
1.15005e-06
1.2091e-06
1.16401e-06
1.1571e-06
1.44878e-06
1.36696e-06
1.20487e-06
1.15053e-06
1.15365e-06
1.37492e-06
1.36875e-06
1.34755e-06
1.14255e-06
1.14437e-06
1.1297e-06
1.11929e-06
1.37924e-06
1.32852e-06
1.14e-06
1.13763e-06
1.12941e-06
1.12721e-06
1.14306e-06
1.11857e-06
1.12791e-06
1.3635e-06
1.34454e-06
1.14059e-06
1.1268e-06
1.128e-06
1.34612e-06
1.35403e-06
1.41367e-06
1.13197e-06
1.11975e-06
1.17271e-06
1.15803e-06
1.331e-06
1.38711e-06
1.13273e-06
1.13093e-06
1.17606e-06
1.17645e-06
1.12933e-06
1.15657e-06
1.16593e-06
1.35199e-06
1.41567e-06
1.13025e-06
1.17509e-06
1.16947e-06
1.40444e-06
1.43127e-06
1.47961e-06
1.19023e-06
1.17816e-06
1.22446e-06
1.22411e-06
1.40762e-06
1.47769e-06
1.19348e-06
1.19441e-06
1.2255e-06
1.2269e-06
1.18293e-06
1.22292e-06
1.21889e-06
1.43366e-06
1.48155e-06
1.18635e-06
1.22564e-06
1.2199e-06
1.47139e-06
1.48556e-06
1.46956e-06
1.22795e-06
1.23031e-06
1.21966e-06
1.22759e-06
1.48711e-06
1.48317e-06
1.22832e-06
1.22963e-06
1.2177e-06
1.21801e-06
1.22333e-06
1.2272e-06
1.21899e-06
1.48723e-06
1.46855e-06
1.22357e-06
1.21759e-06
1.21699e-06
1.46903e-06
1.46718e-06
1.40615e-06
1.20941e-06
1.21735e-06
1.1718e-06
1.1767e-06
1.48125e-06
1.41529e-06
1.2072e-06
1.20702e-06
1.16948e-06
1.16831e-06
1.20992e-06
1.1773e-06
1.17494e-06
1.46587e-06
1.40347e-06
1.20757e-06
1.16884e-06
1.17252e-06
1.41118e-06
1.40344e-06
1.36775e-06
1.16154e-06
1.16455e-06
1.14087e-06
1.13967e-06
1.41151e-06
1.36633e-06
1.15959e-06
1.15841e-06
1.14029e-06
1.13994e-06
1.16496e-06
1.14059e-06
1.14446e-06
1.40083e-06
1.36739e-06
1.16293e-06
1.14085e-06
1.14388e-06
1.37254e-06
1.36802e-06
1.34072e-06
1.13743e-06
1.13569e-06
1.07834e-06
1.07596e-06
1.36627e-06
1.33685e-06
1.13731e-06
1.13733e-06
1.07906e-06
1.08034e-06
1.14087e-06
1.07675e-06
1.08118e-06
1.36785e-06
1.3431e-06
1.14077e-06
1.08114e-06
1.08193e-06
1.34413e-06
1.32305e-06
1.05626e-06
1.05398e-06
1.3194e-06
1.05701e-06
1.05852e-06
7.1658e-07
7.19672e-07
7.20597e-07
1.05887e-06
1.32575e-06
1.05967e-06
5.35653e-07
5.35523e-07
5.35636e-07
5.35636e-07
5.34569e-07
5.35437e-07
5.33636e-07
5.35608e-07
5.34569e-07
5.35437e-07
5.35608e-07
5.33635e-07
5.35196e-07
5.35984e-07
5.35983e-07
1.10752e-06
3.87706e-06
9.31517e-07
4.60281e-06
1.25997e-05
1.65964e-05
1.10795e-06
3.87738e-06
9.31279e-07
4.60373e-06
4.9917e-07
4.9917e-07
4.9917e-07
4.57218e-07
4.57218e-07
4.57218e-07
4.57218e-07
5.43021e-07
1.21905e-06
4.99137e-07
4.86017e-07
5.24982e-07
1.20925e-06
4.82349e-07
1.26009e-05
1.65978e-05
5.43028e-07
4.99137e-07
1.21903e-06
4.86017e-07
5.2498e-07
4.82349e-07
1.20923e-06
2.51859e-06
2.51919e-06
4.84044e-07
2.37583e-06
2.37655e-06
1.43236e-06
5.59145e-06
1.33113e-06
6.13443e-06
2.12857e-05
2.31129e-05
1.43272e-06
5.59222e-06
1.33093e-06
6.13568e-06
4.45574e-07
4.45575e-07
4.45575e-07
4.13574e-07