/*--------------------------------*- C++ -*----------------------------------*\
| =========                 |                                                 |
| \\      /  F ield         | OpenFOAM: The Open Source CFD Toolbox           |
|  \\    /   O peration     | Version:                                        |
|   \\  /    A nd           | Website:  www.openfoam.com                      |
|    \\/     M anipulation  |                                                 |
\*---------------------------------------------------------------------------*/
FoamFile
{
    version     2.0;
    format      ascii;
    class       volScalarField;
    location    "800";
    object      nut;
}
// * * * * * * * * * * * * * * * * * * * * * * * * * * * * * * * * * * * * * //

dimensions      [0 2 -1 0 0 0 0];


internalField   nonuniform List<scalar> 
172512
(
0.000233969
0.000233548
0.000233548
0.000233451
0.000232529
0.00022758
0.00022758
0.000223833
0.000230487
0.000220158
0.000220157
0.000209027
0.000227758
0.000211542
0.00021154
0.000193702
0.000224387
0.000202552
0.000202549
0.000179637
0.000220505
0.000193693
0.000193689
0.000167281
0.000216258
0.000185208
0.000185204
0.000156542
0.000211776
0.000177176
0.000177171
0.000147172
0.000207165
0.000169637
0.000169632
0.000138926
0.000202506
0.000162564
0.000162559
0.000131599
0.000197852
0.000155905
0.0001559
0.000124945
0.00019324
0.000149604
0.000149599
0.000118811
0.000188648
0.000143624
0.00014362
0.000113168
0.000184117
0.000137912
0.000137907
0.000107937
0.000179673
0.000132422
0.000132418
0.000103063
0.000175306
0.000127147
0.000127143
9.84445e-05
0.000171004
0.000122106
0.000122102
9.42614e-05
0.000166753
0.000117325
0.000117321
9.06713e-05
0.000162554
0.000112841
0.000112838
8.7744e-05
0.000158382
0.00010871
0.000108707
8.53976e-05
0.00015423
0.000104981
0.000104978
8.36817e-05
0.000150109
0.00010167
0.000101666
8.25947e-05
0.000146029
9.88542e-05
9.88515e-05
8.21117e-05
0.000142011
9.6546e-05
9.65439e-05
8.2163e-05
0.000138082
9.47561e-05
9.47547e-05
8.27008e-05
0.000134258
9.34838e-05
9.3483e-05
8.36747e-05
0.000130594
9.27163e-05
9.27162e-05
8.50281e-05
0.000127117
9.24331e-05
9.24336e-05
8.67025e-05
0.000123864
9.26068e-05
9.26081e-05
8.86414e-05
0.000120864
9.32058e-05
9.32078e-05
9.07929e-05
0.000118149
9.41952e-05
9.41979e-05
9.31112e-05
0.000115753
9.55388e-05
9.55422e-05
9.55575e-05
0.000113694
9.72e-05
9.72041e-05
9.80999e-05
0.000111986
9.91425e-05
9.91472e-05
0.000100712
0.000110641
0.000101331
0.000101336
0.000103374
0.000109663
0.000103733
0.000103739
0.000106072
0.000109054
0.000106318
0.000106325
0.00010879
0.00010881
0.000109057
0.000109064
0.000111516
0.000108925
0.00011192
0.000111928
0.00011424
0.000109387
0.000114884
0.000114893
0.000116954
0.000110184
0.000117929
0.000117939
0.000119651
0.000111302
0.000121042
0.000121052
0.000122327
0.000112724
0.0001242
0.00012421
0.000124978
0.000114432
0.000127385
0.000127396
0.0001276
0.000116406
0.000130582
0.000130592
0.000130189
0.000118625
0.000133776
0.000133787
0.000132741
0.000121066
0.000136958
0.000136969
0.000135253
0.000123709
0.000140116
0.000140127
0.000137721
0.000126532
0.000143244
0.000143255
0.000140143
0.000129512
0.000146333
0.000146344
0.000142515
0.000132627
0.000149379
0.00014939
0.000144837
0.00013586
0.000152375
0.000152386
0.000147106
0.000139187
0.000155315
0.000155327
0.000149321
0.000142591
0.000158196
0.000158207
0.00015148
0.000146055
0.000161015
0.000161027
0.000153583
0.000149561
0.000163771
0.000163781
0.000155627
0.000153092
0.000166459
0.00016647
0.000157613
0.00015664
0.000169082
0.000169093
0.00015954
0.000160181
0.000171632
0.000171641
0.000161406
0.000163712
0.000174113
0.000174123
0.000163214
0.000167219
0.000176523
0.000176534
0.000164964
0.000170689
0.000178862
0.000178869
0.00016665
0.000174117
0.000181118
0.000181128
0.000168276
0.000177468
0.000183295
0.000183307
0.000169837
0.000180805
0.000185426
0.000185428
0.00017135
0.000184044
0.000187442
0.000187463
0.000172797
0.00018722
0.000189404
0.000189391
0.000174164
0.000190244
0.000191245
0.00019129
0.000175478
0.000193329
0.000193105
0.000193051
0.000176774
0.000196215
0.000194752
0.000194836
0.000177926
0.000198949
0.000196465
0.000196415
0.000179082
0.000201836
0.000197963
0.000197986
0.000180148
0.000204186
0.000199301
0.00019933
0.000181171
0.000207147
0.000201284
0.000201404
0.000182219
0.00020899
0.000202038
0.000201207
0.000182455
0.000210555
0.000202265
0.000203943
0.000184372
0.000216083
0.000206332
0.000206003
0.000185215
0.000216455
0.000205831
0.000204388
0.000184149
0.000212953
0.000203376
0.000204371
0.000185687
0.000221796
0.000209183
0.000209949
0.000187275
0.000225079
0.000209314
0.000208904
0.000185889
0.000220756
0.000206416
0.000207024
0.000189491
0.000226853
0.00021638
0.00021364
0.000194363
0.000231971
0.000215896
0.000211895
0.000184823
0.000219673
0.00019585
0.000201715
0.000175905
0.000217596
0.000203264
0.000211558
0.000191323
0.000244989
0.000232545
0.000228988
0.000205839
0.000252337
0.000233062
0.00021902
0.000194755
0.000215488
0.000195294
0.000194722
0.000174448
0.000199987
0.000184178
0.000191447
0.000173662
0.00023576
0.000217986
0.000222853
0.000195416
0.000264865
0.000236527
0.00023635
0.000206066
0.000265243
0.000231385
0.000225252
0.000198851
0.000231926
0.000209596
0.000207337
0.000185587
0.000219078
0.000202252
0.000202437
0.000185763
0.000234256
0.000234459
0.00023446
0.000234257
0.00023446
0.00023446
0.000234259
0.000234259
0.000234259
0.000234259
0.000234459
0.000234459
0.000234256
0.000234459
0.00023446
0.000234256
0.000233451
0.000226179
0.000233548
0.000233547
0.000229123
0.000229118
0.000233451
0.00022618
0.000233547
0.000233547
0.00022912
0.000229117
0.000233548
0.000229126
0.000229123
0.000233451
0.000226178
0.000233547
0.000229126
0.00022912
0.000226177
0.000223834
0.000212154
0.000227577
0.000227572
0.000222157
0.000222151
0.000223833
0.000212155
0.000227575
0.000227571
0.000222158
0.00022215
0.000227576
0.000222163
0.000222156
0.000223834
0.000212152
0.000227575
0.000222162
0.000222156
0.000212148
0.000209031
0.000196985
0.000220151
0.000220146
0.000213749
0.000213742
0.000209029
0.000196983
0.000220153
0.000220143
0.000213753
0.00021374
0.000220149
0.000213758
0.000213745
0.000209029
0.00019698
0.000220151
0.000213757
0.00021375
0.000196975
0.000193711
0.000182814
0.000211531
0.000211525
0.000204788
0.000204781
0.000193709
0.000182811
0.000211537
0.000211522
0.000204797
0.000204778
0.000211527
0.000204801
0.000204784
0.000193706
0.000182807
0.000211533
0.000204799
0.000204792
0.0001828
0.000179648
0.000170219
0.000202538
0.000202531
0.000195862
0.000195855
0.000179645
0.000170216
0.000202548
0.000202528
0.000195874
0.000195851
0.000202533
0.000195877
0.000195856
0.000179642
0.000170211
0.000202542
0.000195875
0.000195868
0.000170204
0.000167295
0.000159208
0.000193675
0.000193669
0.00018727
0.000187263
0.000167292
0.000159204
0.000193689
0.000193665
0.000187286
0.000187258
0.000193669
0.000187288
0.000187263
0.000167287
0.000159199
0.000193682
0.000187285
0.000187278
0.000159191
0.000156557
0.000149591
0.000185188
0.000185181
0.000179116
0.000179109
0.000156553
0.000149587
0.000185205
0.000185177
0.000179135
0.000179104
0.000185182
0.000179137
0.000179109
0.000156548
0.000149581
0.000185197
0.000179134
0.000179127
0.000149573
0.000147189
0.000141095
0.000177153
0.000177146
0.000171451
0.000171444
0.000147185
0.000141091
0.000177173
0.000177142
0.000171473
0.000171439
0.000177146
0.000171474
0.000171444
0.000147179
0.000141084
0.000177164
0.000171471
0.000171464
0.000141076
0.000138944
0.000133545
0.000169611
0.000169604
0.000164264
0.000164257
0.000138939
0.000133541
0.000169634
0.0001696
0.000164288
0.000164252
0.000169605
0.00016429
0.000164258
0.000138933
0.000133533
0.000169625
0.000164286
0.000164279
0.000133525
0.000131618
0.00012669
0.000162536
0.000162529
0.000157505
0.000157498
0.000131613
0.000126686
0.000162561
0.000162525
0.000157532
0.000157493
0.00016253
0.000157533
0.000157499
0.000131606
0.000126678
0.000162552
0.000157529
0.000157522
0.00012667
0.000124964
0.000120371
0.000155875
0.000155868
0.000151118
0.000151111
0.000124959
0.000120368
0.000155903
0.000155864
0.000151147
0.000151106
0.000155869
0.000151148
0.000151113
0.000124952
0.00012036
0.000155893
0.000151144
0.000151137
0.000120352
0.000118828
0.000114443
0.000149573
0.000149566
0.000145058
0.000145051
0.000118825
0.000114437
0.000149602
0.000149562
0.000145088
0.000145046
0.000149568
0.000145089
0.000145053
0.000118818
0.00011443
0.000149592
0.000145086
0.000145079
0.000114421
0.000113185
0.000108855
0.000143592
0.000143584
0.000139282
0.000139274
0.000113182
0.000108849
0.000143622
0.000143581
0.000139313
0.00013927
0.000143587
0.000139314
0.000139278
0.000113175
0.000108842
0.000143612
0.000139311
0.000139303
0.000108834
0.000107954
0.000103722
0.000137879
0.00013787
0.00013374
0.000133731
0.00010795
0.000103717
0.000137909
0.000137867
0.000133771
0.000133727
0.000137874
0.000133772
0.000133735
0.000107943
0.00010371
0.0001379
0.000133769
0.000133761
0.000103702
0.000103081
9.91477e-05
0.000132389
0.00013238
0.00012841
0.000128399
0.000103076
9.91429e-05
0.00013242
0.000132377
0.000128439
0.000128396
0.000132384
0.000128441
0.000128406
0.000103069
9.91362e-05
0.00013241
0.000128438
0.00012843
9.91293e-05
9.84623e-05
9.50096e-05
0.000127116
0.000127104
0.00012331
0.000123295
9.8457e-05
9.5005e-05
0.000127144
0.000127102
0.000123336
0.000123294
0.000127112
0.000123339
0.000123306
9.84507e-05
9.49988e-05
0.000127135
0.000123336
0.000123326
9.49925e-05
9.42778e-05
9.14562e-05
0.000122077
0.000122063
0.000118443
0.000118428
9.42725e-05
9.14515e-05
0.000122102
0.000122061
0.000118467
0.000118427
0.000122073
0.000118471
0.00011844
9.4267e-05
9.1446e-05
0.000122093
0.000118468
0.000118458
9.14403e-05
9.06861e-05
8.8399e-05
0.000117296
0.000117281
0.000113888
0.000113871
9.06796e-05
8.83942e-05
0.00011732
0.00011728
0.00011391
0.000113871
0.000117294
0.000113915
0.000113886
9.06756e-05
8.83895e-05
0.000117311
0.000113912
0.000113902
8.83845e-05
8.77577e-05
8.59307e-05
0.000112813
0.000112797
0.000109659
0.00010964
8.77524e-05
8.59262e-05
0.000112835
0.000112796
0.000109679
0.000109641
0.000112811
0.000109684
0.000109657
8.77482e-05
8.5922e-05
0.000112827
0.000109682
0.000109671
8.59174e-05
8.54099e-05
8.40905e-05
0.000108683
0.000108666
0.000105815
0.000105798
8.54056e-05
8.40868e-05
0.000108704
0.000108666
0.000105835
0.000105799
0.000108682
0.00010584
0.000105815
8.54014e-05
8.40828e-05
0.000108696
0.000105838
0.000105827
8.40786e-05
8.36922e-05
8.2881e-05
0.000104954
0.000104938
0.00010242
0.000102405
8.36891e-05
8.28778e-05
0.000104974
0.000104938
0.00010244
0.000102406
0.000104954
0.000102446
0.000102422
8.36851e-05
8.28742e-05
0.000104967
0.000102445
0.000102434
8.28704e-05
8.26041e-05
8.22809e-05
0.000101641
0.000101627
9.94812e-05
9.94688e-05
8.26014e-05
8.22782e-05
0.000101662
0.000101628
9.95016e-05
9.94689e-05
0.000101644
9.95076e-05
9.94849e-05
8.25978e-05
8.22749e-05
0.000101655
9.95073e-05
9.94958e-05
8.22715e-05
8.212e-05
8.22252e-05
9.88259e-05
9.88138e-05
9.70453e-05
9.70347e-05
8.21177e-05
8.22229e-05
9.8846e-05
9.88138e-05
9.70653e-05
9.70346e-05
9.88299e-05
9.70714e-05
9.70504e-05
8.21144e-05
8.22199e-05
9.884e-05
9.70715e-05
9.70603e-05
8.22171e-05
8.21702e-05
8.26641e-05
9.65183e-05
9.65079e-05
9.51271e-05
9.5118e-05
8.21682e-05
8.26621e-05
9.65379e-05
9.65078e-05
9.51464e-05
9.51179e-05
9.65235e-05
9.51525e-05
9.51334e-05
8.21652e-05
8.26595e-05
9.65326e-05
9.51532e-05
9.51421e-05
8.26574e-05
8.27068e-05
8.35495e-05
9.47294e-05
9.47204e-05
9.37275e-05
9.37198e-05
8.2705e-05
8.35477e-05
9.47482e-05
9.47203e-05
9.37459e-05
9.37198e-05
9.47357e-05
9.3752e-05
9.37348e-05
8.27025e-05
8.35457e-05
9.47437e-05
9.37531e-05
9.37424e-05
8.35441e-05
8.36795e-05
8.48258e-05
9.34583e-05
9.34505e-05
9.28367e-05
9.283e-05
8.36779e-05
8.48242e-05
9.34761e-05
9.34506e-05
9.28541e-05
9.28303e-05
9.34656e-05
9.286e-05
9.28449e-05
8.36759e-05
8.48228e-05
9.34724e-05
9.28617e-05
9.28513e-05
8.48216e-05
8.50318e-05
8.64345e-05
9.26922e-05
9.26853e-05
9.24361e-05
9.24303e-05
8.50305e-05
8.64331e-05
9.27088e-05
9.26857e-05
9.24523e-05
9.24309e-05
9.27002e-05
9.24582e-05
9.24451e-05
8.5029e-05
8.64322e-05
9.27058e-05
9.24605e-05
9.24502e-05
8.64314e-05
8.67052e-05
8.83188e-05
9.24104e-05
9.24043e-05
9.25e-05
9.24949e-05
8.6704e-05
8.83175e-05
9.24258e-05
9.2405e-05
9.25149e-05
9.24959e-05
9.24192e-05
9.25208e-05
9.25098e-05
8.67031e-05
8.83172e-05
9.24234e-05
9.25236e-05
9.25135e-05
8.83167e-05
8.86432e-05
9.0426e-05
9.25856e-05
9.25801e-05
9.29975e-05
9.29929e-05
8.8642e-05
9.04247e-05
9.25996e-05
9.25812e-05
9.3011e-05
9.29942e-05
9.25951e-05
9.30169e-05
9.30079e-05
8.86417e-05
9.04251e-05
9.2598e-05
9.30203e-05
9.30102e-05
9.04248e-05
9.0794e-05
9.27093e-05
9.31861e-05
9.31811e-05
9.38941e-05
9.38899e-05
9.07928e-05
9.2708e-05
9.31988e-05
9.31827e-05
9.39062e-05
9.38916e-05
9.31962e-05
9.39122e-05
9.39051e-05
9.0793e-05
9.27089e-05
9.31978e-05
9.39161e-05
9.3906e-05
9.27088e-05
9.31117e-05
9.51286e-05
9.41768e-05
9.41723e-05
9.5154e-05
9.515e-05
9.31105e-05
9.51274e-05
9.41882e-05
9.41742e-05
9.51647e-05
9.51522e-05
9.41877e-05
9.51707e-05
9.51656e-05
9.31112e-05
9.51287e-05
9.41878e-05
9.51753e-05
9.5165e-05
9.51287e-05
9.55575e-05
9.76508e-05
9.55218e-05
9.55175e-05
9.67405e-05
9.67366e-05
9.55564e-05
9.76496e-05
9.55318e-05
9.55199e-05
9.67499e-05
9.67392e-05
9.55333e-05
9.67561e-05
9.67527e-05
9.55576e-05
9.76513e-05
9.55319e-05
9.67612e-05
9.67507e-05
9.76513e-05
9.80996e-05
0.000100249
9.71842e-05
9.718e-05
9.86172e-05
9.86133e-05
9.80984e-05
0.000100247
9.71929e-05
9.71829e-05
9.86253e-05
9.86163e-05
9.71963e-05
9.86316e-05
9.86299e-05
9.80999e-05
0.00010025
9.71935e-05
9.86373e-05
9.86265e-05
0.00010025
0.000100712
0.000102901
9.91277e-05
9.91236e-05
0.000100748
0.000100744
0.00010071
0.000102899
9.91353e-05
9.91269e-05
0.000100755
0.000100748
9.91404e-05
0.000100762
0.000100762
0.000100712
0.000102902
9.91362e-05
0.000100768
0.000100757
0.000102902
0.000103373
0.000105591
0.000101317
0.000101313
0.000103101
0.000103096
0.000103372
0.000105589
0.000101323
0.000101317
0.000103106
0.0001031
0.00010133
0.000103113
0.000103114
0.000103374
0.000105592
0.000101325
0.00010312
0.000103108
0.000105592
0.000106072
0.000108303
0.00010372
0.000103716
0.000105644
0.00010564
0.000106071
0.000108302
0.000103726
0.00010372
0.000105649
0.000105644
0.000103734
0.000105656
0.000105658
0.000106073
0.000108305
0.000103727
0.000105663
0.000105651
0.000108304
0.00010879
0.000111026
0.000106306
0.000106302
0.000108348
0.000108343
0.000108788
0.000111024
0.000106311
0.000106306
0.000108352
0.000108347
0.00010632
0.000108359
0.000108362
0.000108791
0.000111028
0.000106313
0.000108367
0.000108354
0.000111027
0.000111515
0.00011375
0.000109045
0.00010904
0.000111183
0.000111177
0.000111513
0.000113748
0.000109049
0.000109045
0.000111186
0.000111182
0.000109059
0.000111193
0.000111196
0.000111516
0.000113752
0.000109051
0.000111201
0.000111188
0.000113752
0.000114239
0.000116468
0.000111909
0.000111904
0.000114124
0.000114118
0.000114237
0.000116465
0.000111912
0.000111909
0.000114127
0.000114124
0.000111923
0.000114134
0.000114138
0.000114241
0.00011647
0.000111914
0.000114143
0.000114129
0.000116469
0.000116954
0.000119169
0.000114874
0.000114868
0.000117151
0.000117144
0.000116951
0.000119167
0.000114876
0.000114873
0.000117153
0.00011715
0.000114888
0.00011716
0.000117165
0.000116955
0.000119172
0.000114878
0.00011717
0.000117156
0.00011917
0.00011965
0.000121852
0.00011792
0.000117913
0.00012025
0.000120242
0.000119648
0.000121849
0.000117922
0.000117919
0.000120251
0.000120248
0.000117933
0.000120258
0.000120263
0.000119652
0.000121854
0.000117924
0.000120269
0.000120254
0.000121852
0.000122327
0.00012451
0.000121034
0.000121025
0.0001234
0.00012339
0.000122324
0.000124507
0.000121034
0.000121032
0.0001234
0.000123397
0.000121046
0.000123407
0.000123411
0.000122329
0.000124512
0.000121036
0.000123418
0.000123402
0.00012451
0.000124978
0.000127141
0.000124193
0.000124182
0.000126581
0.000126569
0.000124975
0.000127137
0.000124193
0.00012419
0.00012658
0.000126577
0.000124204
0.000126587
0.000126591
0.00012498
0.000127143
0.000124195
0.000126598
0.000126582
0.000127141
0.000127601
0.00012974
0.000127379
0.000127367
0.000129776
0.000129763
0.000127597
0.000129736
0.000127378
0.000127375
0.000129775
0.000129772
0.000127389
0.000129782
0.000129785
0.000127602
0.000129742
0.00012738
0.000129793
0.000129777
0.00012974
0.00013019
0.000132303
0.000130576
0.000130563
0.000132973
0.000132959
0.000130186
0.000132299
0.000130575
0.000130571
0.000132971
0.000132968
0.000130585
0.000132978
0.000132981
0.000130192
0.000132305
0.000130576
0.00013299
0.000132973
0.000132302
0.000132743
0.000134827
0.000133771
0.000133757
0.000136159
0.000136144
0.000132738
0.000134822
0.000133769
0.000133766
0.000136157
0.000136154
0.000133779
0.000136163
0.000136166
0.000132745
0.000134828
0.000133771
0.000136175
0.000136159
0.000134825
0.000135255
0.000137307
0.000136953
0.000136938
0.000139324
0.000139309
0.00013525
0.000137301
0.000136951
0.000136947
0.000139323
0.000139318
0.000136959
0.000139328
0.00013933
0.000135257
0.000137308
0.000136952
0.000139341
0.000139324
0.000137305
0.000137723
0.000139741
0.000140112
0.000140096
0.000142461
0.000142444
0.000137718
0.000139735
0.00014011
0.000140105
0.000142459
0.000142454
0.000140117
0.000142464
0.000142465
0.000137725
0.000139742
0.00014011
0.000142477
0.000142459
0.000139738
0.000140145
0.000142126
0.000143239
0.000143223
0.00014556
0.000145543
0.00014014
0.000142121
0.000143237
0.000143233
0.000145559
0.000145553
0.000143244
0.000145564
0.000145564
0.000140147
0.000142128
0.000143238
0.000145576
0.000145559
0.000142123
0.000142519
0.000144461
0.000146329
0.000146312
0.000148617
0.0001486
0.000142513
0.000144455
0.000146327
0.000146322
0.000148616
0.00014861
0.000146332
0.000148621
0.00014862
0.00014252
0.000144463
0.000146327
0.000148633
0.000148616
0.000144458
0.000144841
0.000146744
0.000149374
0.000149356
0.000151627
0.000151609
0.000144835
0.000146738
0.000149373
0.000149367
0.000151626
0.000151619
0.000149377
0.00015163
0.000151628
0.000144842
0.000146746
0.000149372
0.000151643
0.000151625
0.00014674
0.000147111
0.000148973
0.000152371
0.000152353
0.000154581
0.000154563
0.000147104
0.000148967
0.00015237
0.000152363
0.000154581
0.000154574
0.000152372
0.000154585
0.000154582
0.000147112
0.000148974
0.000152369
0.000154597
0.00015458
0.000148968
0.000149326
0.000151146
0.000155311
0.000155293
0.000157477
0.000157458
0.000149319
0.000151139
0.000155311
0.000155303
0.000157477
0.000157469
0.000155311
0.00015748
0.000157476
0.000149327
0.000151147
0.000155309
0.000157493
0.000157475
0.000151141
0.000151486
0.000153263
0.000158191
0.000158172
0.000160312
0.000160292
0.000151479
0.000153256
0.000158192
0.000158183
0.000160312
0.000160303
0.000158191
0.000160315
0.000160311
0.000151486
0.000153264
0.000158189
0.000160328
0.00016031
0.000153258
0.000153589
0.000155322
0.00016101
0.000160992
0.000163083
0.000163064
0.000153582
0.000155315
0.000161011
0.000161002
0.000163084
0.000163074
0.00016101
0.000163087
0.000163081
0.000153589
0.000155322
0.000161009
0.000163099
0.000163081
0.000155315
0.000155633
0.000157322
0.000163765
0.000163746
0.000165788
0.000165768
0.000155627
0.000157314
0.000163767
0.000163756
0.000165789
0.000165778
0.000163763
0.000165792
0.000165786
0.000155633
0.000157321
0.000163763
0.000165804
0.000165786
0.000157315
0.00015762
0.000159265
0.000166454
0.000166434
0.000168428
0.000168408
0.000157612
0.000159256
0.000166456
0.000166445
0.00016843
0.000168419
0.000166452
0.000168431
0.000168424
0.000157619
0.000159265
0.000166453
0.000168444
0.000168426
0.000159257
0.000159548
0.000161144
0.000169076
0.000169057
0.000170994
0.000170975
0.00015954
0.000161137
0.000169079
0.000169067
0.000170996
0.000170984
0.000169073
0.000171
0.000170991
0.000159548
0.000161143
0.000169074
0.00017101
0.000170993
0.000161136
0.000161413
0.000162967
0.000171624
0.000171606
0.000173493
0.000173472
0.000161407
0.000162958
0.000171627
0.000171615
0.000173497
0.000173483
0.000171621
0.000173496
0.000173487
0.000161413
0.000162966
0.000171623
0.000173509
0.00017349
0.000162958
0.000163224
0.00016473
0.000174108
0.000174087
0.000175921
0.000175901
0.000163215
0.000164723
0.000174111
0.000174097
0.000175925
0.000175912
0.000174102
0.000175927
0.000175917
0.000163222
0.000164729
0.000174105
0.000175939
0.000175921
0.000164722
0.000164972
0.000166432
0.000176516
0.000176495
0.000178276
0.000178256
0.000164964
0.000166424
0.00017652
0.000176507
0.000178279
0.000178263
0.000176511
0.000178282
0.000178269
0.000164971
0.00016643
0.000176516
0.000178291
0.000178272
0.000166421
0.000166661
0.000168073
0.000178854
0.000178834
0.000180556
0.000180534
0.000166653
0.000168063
0.000178857
0.000178841
0.000180562
0.000180547
0.000178847
0.00018056
0.000180548
0.000166658
0.000168072
0.000178851
0.000180574
0.000180554
0.000168063
0.000168285
0.000169643
0.000181112
0.00018109
0.000182745
0.000182726
0.000168276
0.000169637
0.000181116
0.000181101
0.000182751
0.000182737
0.000181105
0.000182755
0.000182744
0.000168284
0.000169643
0.000181109
0.000182767
0.00018275
0.000169636
0.000169844
0.000171179
0.000183285
0.000183265
0.000184894
0.000184873
0.000169838
0.00017117
0.000183292
0.000183278
0.000184899
0.000184877
0.000183282
0.000184899
0.000184878
0.000169844
0.000171173
0.000183289
0.000184904
0.000184883
0.000171161
0.000171367
0.000172631
0.000185417
0.000185398
0.000186938
0.000186917
0.000171359
0.000172622
0.000185422
0.000185401
0.000186946
0.000186932
0.000185403
0.000186946
0.000186937
0.000171362
0.000172633
0.000185407
0.000186962
0.000186944
0.000172624
0.000172802
0.000174024
0.000187437
0.000187411
0.000188914
0.000188891
0.000172791
0.000174014
0.000187446
0.000187433
0.000188921
0.000188898
0.000187436
0.000188918
0.0001889
0.000172805
0.000174017
0.000187445
0.000188925
0.000188906
0.000174008
0.00017418
0.000175337
0.000189389
0.000189374
0.000190766
0.000190751
0.000174175
0.000175335
0.000189391
0.000189363
0.000190778
0.000190772
0.000189377
0.000190784
0.00019077
0.00017417
0.000175345
0.000189378
0.000190806
0.000190782
0.00017533
0.000175489
0.000176655
0.000191243
0.000191215
0.000192659
0.000192641
0.00017548
0.000176644
0.000191262
0.000191262
0.000192654
0.000192609
0.00019123
0.000192665
0.000192632
0.000175501
0.000176632
0.000191249
0.000192633
0.000192627
0.000176635
0.000176779
0.000177827
0.000193074
0.000193066
0.000194329
0.00019427
0.000176776
0.000177796
0.000193065
0.000193012
0.000194362
0.000194364
0.000193092
0.000194307
0.000194336
0.000176751
0.000177843
0.000193083
0.000194398
0.000194367
0.000177823
0.000177961
0.000178979
0.000194798
0.000194737
0.000196006
0.000196071
0.000177921
0.000179035
0.000194827
0.000194824
0.000195984
0.000195971
0.000194723
0.000196098
0.000195984
0.00017798
0.000178992
0.000194751
0.000196
0.000195961
0.000178952
0.000179059
0.000180091
0.000196337
0.000196404
0.000197609
0.000197515
0.000179126
0.000180015
0.000196331
0.000196356
0.000197661
0.000197647
0.000196431
0.00019755
0.000197611
0.000179086
0.000180076
0.000196425
0.000197684
0.000197663
0.000180089
0.00018022
0.000181076
0.000198085
0.000197966
0.000199031
0.000198976
0.00018011
0.000181041
0.000198108
0.000197986
0.000198971
0.000198829
0.000197932
0.000198995
0.00019899
0.000180145
0.000180959
0.000197956
0.000198844
0.000198929
0.000181036
0.000181117
0.000182216
0.000199278
0.000199237
0.000200674
0.000200656
0.000181101
0.000182243
0.000199263
0.000199268
0.000200793
0.000200985
0.000199434
0.000200726
0.000200731
0.000181087
0.000182382
0.000199409
0.00020106
0.000200869
0.000182216
0.000182314
0.000182681
0.00020121
0.000201249
0.000201792
0.000202115
0.000182383
0.000183098
0.000201284
0.000201376
0.000201666
0.000201471
0.000201024
0.000202081
0.00020141
0.000182419
0.000182409
0.000201126
0.000201398
0.000201211
0.000182474
0.000182453
0.00018341
0.000201684
0.000202083
0.000202087
0.000201445
0.000182932
0.000182579
0.000201512
0.000201266
0.000202346
0.000202641
0.000201577
0.000201534
0.000203063
0.000182167
0.000183814
0.000201387
0.000202863
0.000203275
0.000184106
0.000183936
0.000186455
0.000203287
0.000201991
0.000205954
0.000205718
0.000182873
0.000186107
0.000203553
0.000203786
0.000206003
0.000205818
0.000203794
0.000205701
0.000205214
0.000184308
0.000186114
0.000204049
0.000205779
0.000205271
0.000185368
0.000186445
0.000184475
0.000206433
0.00020639
0.000205598
0.000206848
0.000186301
0.000185913
0.000206428
0.000206091
0.000205328
0.00020496
0.000205376
0.0002068
0.000205052
0.00018599
0.00018423
0.00020538
0.000204884
0.000204792
0.000184407
0.000183984
0.000182473
0.000204636
0.000205768
0.000202558
0.000203521
0.000185438
0.000182937
0.000204438
0.00020437
0.000202445
0.000203086
0.00020485
0.000203764
0.000204551
0.000183842
0.000183809
0.000204586
0.000203362
0.000204606
0.000185242
0.000183008
0.000189513
0.000202637
0.000203132
0.000209347
0.000208067
0.000182824
0.000187958
0.000202707
0.000203865
0.000209535
0.000209302
0.000205349
0.00020787
0.000208017
0.000184467
0.00018891
0.000205775
0.000209175
0.000208232
0.000187414
0.000189956
0.000188839
0.000210712
0.000209447
0.000211634
0.000210677
0.000188526
0.000188318
0.000210848
0.00021021
0.00021173
0.000210364
0.000208372
0.000210392
0.000208348
0.000189063
0.000187757
0.000208504
0.000209964
0.000208353
0.000186248
0.000187934
0.000184274
0.000209732
0.000209319
0.0002063
0.000206257
0.000187615
0.000184044
0.000209811
0.00020903
0.000206363
0.000206747
0.000208184
0.000206666
0.000209065
0.000187207
0.000185199
0.000208189
0.000207048
0.000209097
0.00018853
0.000184209
0.000191046
0.000205847
0.000205903
0.0002119
0.000213919
0.000184074
0.000193467
0.000205877
0.000206555
0.000211461
0.000211947
0.000210833
0.000214131
0.000214935
0.00018547
0.000191455
0.00021076
0.000212267
0.000214557
0.000194326
0.000191744
0.000191776
0.00021367
0.000216273
0.000216775
0.000221242
0.000194646
0.000196143
0.00021314
0.000213395
0.000216105
0.000215662
0.000216369
0.000221099
0.000212075
0.000191931
0.000190921
0.000215858
0.000215492
0.000211463
0.000186769
0.000189957
0.000181085
0.000213522
0.000216424
0.000203717
0.000199682
0.000192904
0.000175694
0.000213279
0.00021243
0.000204625
0.000204318
0.000207714
0.000199167
0.000199423
0.000189144
0.000180794
0.00020754
0.000203644
0.000200138
0.000176905
0.000179906
0.000186241
0.000201699
0.000196397
0.000202696
0.000193498
0.000173549
0.000178079
0.000202785
0.000202485
0.000204418
0.000204877
0.000197208
0.000193244
0.000204574
0.000179574
0.000186962
0.000198075
0.000204684
0.000206252
0.000188223
0.000189051
0.000202231
0.000209662
0.000203094
0.000224428
0.000226868
0.000182285
0.000205391
0.000210842
0.00021142
0.000224194
0.0002248
0.00021223
0.000227591
0.000227674
0.000189828
0.000203264
0.000213349
0.000225506
0.000227465
0.000205074
0.000203041
0.000197623
0.000227863
0.000231716
0.000229616
0.000240347
0.000207402
0.000209114
0.000227487
0.000228183
0.000227476
0.000227381
0.000231306
0.000241367
0.000232115
0.000204074
0.000197073
0.000230913
0.000228263
0.000229716
0.00019904
0.000193505
0.000175535
0.000220802
0.000232237
0.000199265
0.000201138
0.000203876
0.000176583
0.000218749
0.000218357
0.000198604
0.000198017
0.000222731
0.000201326
0.000199931
0.000192785
0.000174708
0.000220502
0.000198161
0.000199218
0.000176149
0.00017379
0.000172185
0.000195601
0.000195236
0.000188439
0.00018511
0.00017391
0.00016615
0.000195219
0.000194629
0.000188597
0.000187976
0.000195998
0.000185046
0.000188574
0.00017294
0.000172022
0.000195659
0.000187965
0.000188739
0.000171786
0.000174622
0.000195002
0.000190432
0.00018437
0.000215167
0.000209954
0.000167532
0.000190287
0.000191926
0.000191746
0.000216517
0.000216734
0.00018934
0.000209441
0.000212546
0.00017476
0.000195457
0.000190646
0.00021629
0.000213985
0.00019277
0.000197657
0.000207795
0.00022204
0.000218482
0.000233931
0.00023389
0.00019376
0.000207916
0.000223072
0.000223306
0.000234332
0.000234578
0.000219452
0.00023351
0.000231629
0.000198078
0.000208138
0.000220544
0.000234124
0.00023195
0.000205655
0.000208144
0.000201096
0.000236243
0.000236919
0.000233059
0.000238017
0.000208642
0.000205392
0.000236535
0.000236824
0.000231707
0.000231337
0.000233993
0.000238002
0.000233334
0.000208459
0.000200448
0.000234171
0.000231302
0.000231923
0.000201345
0.000198395
0.000186264
0.000226963
0.000231291
0.000211194
0.00021283
0.000202348
0.000187644
0.000225734
0.000225214
0.000210478
0.000209811
0.000227498
0.000213019
0.000211993
0.00019769
0.00018553
0.000226184
0.000209982
0.000211259
0.000187034
0.000184843
0.000183804
0.000208439
0.000209384
0.000203094
0.000202574
0.000185747
0.00018322
0.000207821
0.00020714
0.000202984
0.000202565
0.000209291
0.000202761
0.000203823
0.000184205
0.000183548
0.000208659
0.000202759
0.00020373
0.000184417
0.00018515
0.000202701
0.000202072
0.000184429
0.000202625
0.000202249
0.000218831
0.000218597
0.000219966
0.000203439
0.000184947
0.000203379
0.000234728
0.000234779
0.000234733
0.000234733
0.00023511
0.000234806
0.000234702
0.000234742
0.00023511
0.000234806
0.000234742
0.000234702
0.00023486
0.000233567
0.000233568
0.000104653
3.87587e-05
0.000129428
3.98342e-05
2.16907e-05
2.28368e-05
0.000104616
3.87547e-05
0.00012946
3.98309e-05
0.000233969
0.000233969
0.000233969
0.000232942
0.000232942
0.000232942
0.000232942
0.000206249
9.37608e-05
0.000233996
0.000231746
0.000222768
8.72446e-05
0.000233595
2.169e-05
2.28361e-05
0.000206248
0.000233996
9.37597e-05
0.000231747
0.000222768
0.000233595
8.72484e-05
4.78455e-05
4.78363e-05
0.000231405
4.39757e-05
4.39601e-05
7.25106e-05
4.24332e-05
8.13316e-05
4.37612e-05
2.47747e-05
2.54626e-05
7.24964e-05
4.24283e-05
8.13406e-05
4.37576e-05
0.000232529
0.000232529
0.000232529
0.000231061
0.000231061
0.00023106