/*--------------------------------*- C++ -*----------------------------------*\
| =========                 |                                                 |
| \\      /  F ield         | OpenFOAM: The Open Source CFD Toolbox           |
|  \\    /   O peration     | Version:                                        |
|   \\  /    A nd           | Website:  www.openfoam.com                      |
|    \\/     M anipulation  |                                                 |
\*---------------------------------------------------------------------------*/
FoamFile
{
    version     2.0;
    format      ascii;
    class       volScalarField;
    location    "800";
    object      p;
}
// * * * * * * * * * * * * * * * * * * * * * * * * * * * * * * * * * * * * * //

dimensions      [0 2 -2 0 0 0 0];


internalField   nonuniform List<scalar> 
172512
(
0.00361121
0.00361165
0.00361165
0.00361157
0.00355283
0.00355315
0.00355315
0.00355596
0.00350151
0.00350152
0.00350152
0.00350427
0.00344925
0.00344924
0.00344924
0.00345197
0.00339788
0.00339788
0.00339788
0.00340058
0.00334789
0.00334791
0.00334791
0.00335057
0.00329936
0.00329938
0.00329938
0.003302
0.00325212
0.00325216
0.00325216
0.00325475
0.00320599
0.00320603
0.00320603
0.00320858
0.00316075
0.00316079
0.00316079
0.00316332
0.00311624
0.00311628
0.00311628
0.00311879
0.00307233
0.00307237
0.00307237
0.00307485
0.00302893
0.00302897
0.00302897
0.00303141
0.002986
0.00298604
0.00298604
0.00298848
0.0029435
0.00294352
0.00294352
0.00294597
0.00290141
0.00290142
0.00290142
0.00290386
0.0028597
0.00285971
0.00285971
0.00286213
0.00281835
0.00281835
0.00281835
0.00282077
0.00277732
0.00277732
0.00277732
0.00277974
0.00273661
0.00273661
0.00273661
0.00273901
0.00269619
0.00269618
0.00269618
0.00269858
0.00265604
0.00265602
0.00265602
0.00265842
0.00261613
0.00261612
0.00261612
0.00261851
0.00257647
0.00257645
0.00257645
0.00257883
0.00253703
0.002537
0.002537
0.00253937
0.00249781
0.00249778
0.00249778
0.00250013
0.00245879
0.00245876
0.00245876
0.0024611
0.00241998
0.00241995
0.00241995
0.00242227
0.00238135
0.00238132
0.00238132
0.00238362
0.00234292
0.00234289
0.00234289
0.00234517
0.00230466
0.00230463
0.00230463
0.00230689
0.00226658
0.00226655
0.00226656
0.00226879
0.00222866
0.00222865
0.00222865
0.00223086
0.00219091
0.0021909
0.0021909
0.00219309
0.00215331
0.0021533
0.0021533
0.00215548
0.00211587
0.00211586
0.00211586
0.00211802
0.00207858
0.00207856
0.00207856
0.00208071
0.00204142
0.0020414
0.00204141
0.00204354
0.0020044
0.00200438
0.00200438
0.0020065
0.00196751
0.00196749
0.00196749
0.00196959
0.00193074
0.00193071
0.00193071
0.00193281
0.00189409
0.00189405
0.00189405
0.00189614
0.00185755
0.00185751
0.00185751
0.00185958
0.00182112
0.00182106
0.00182107
0.00182313
0.00178479
0.00178472
0.00178472
0.00178678
0.00174855
0.00174848
0.00174848
0.00175053
0.0017124
0.00171232
0.00171232
0.00171436
0.00167632
0.00167624
0.00167624
0.00167828
0.00164033
0.00164024
0.00164024
0.00164227
0.00160441
0.00160432
0.00160432
0.00160634
0.00156856
0.00156846
0.00156846
0.00157048
0.00153277
0.00153266
0.00153266
0.00153467
0.00149703
0.00149692
0.00149692
0.00149893
0.00146135
0.00146123
0.00146123
0.00146323
0.00142571
0.00142559
0.00142559
0.00142759
0.00139011
0.00138999
0.00138999
0.00139198
0.00135456
0.00135443
0.00135443
0.00135642
0.00131904
0.0013189
0.0013189
0.00132089
0.00128353
0.00128341
0.00128341
0.00128539
0.00124806
0.00124794
0.00124794
0.00124992
0.00121261
0.00121249
0.00121249
0.00121447
0.00117717
0.00117706
0.00117706
0.00117903
0.00114175
0.00114164
0.00114164
0.00114361
0.00110634
0.00110623
0.00110623
0.00110821
0.00107094
0.00107083
0.00107083
0.0010728
0.00103553
0.00103543
0.00103543
0.0010374
0.00100013
0.00100003
0.00100003
0.001002
0.000964729
0.000964632
0.00096463
0.000966602
0.000929308
0.000929218
0.000929221
0.000931189
0.000893889
0.0008938
0.000893797
0.000895771
0.000858445
0.000858358
0.000858361
0.000860332
0.000822991
0.00082291
0.000822909
0.000824884
0.000787516
0.000787443
0.000787443
0.000789412
0.000752006
0.000751914
0.000751907
0.000753899
0.000716478
0.000716426
0.00071647
0.000718436
0.00068106
0.000680975
0.000680891
0.000682868
0.000645249
0.000645193
0.000645194
0.00064721
0.000609696
0.000609627
0.000609739
0.000611708
0.000574421
0.000574337
0.000574232
0.000576143
0.000538454
0.000538376
0.000538388
0.000540407
0.000502809
0.000502828
0.000502884
0.000504934
0.000467566
0.000467573
0.000467441
0.000469322
0.000430996
0.000430797
0.000430889
0.000432737
0.000394382
0.000394371
0.00039458
0.000396736
0.000359874
0.000360214
0.000359987
0.000362203
0.000325475
0.000325148
0.000324937
0.000326724
0.000288407
0.000287945
0.000288084
0.000289911
0.000250266
0.000250452
0.000250768
0.000253
0.000214804
0.000215224
0.000215105
0.00021729
0.000181143
0.000181114
0.000180912
0.000182794
0.000146735
0.000146083
0.000146128
0.00014787
0.000109936
0.000109625
0.00010967
0.000111638
7.10104e-05
7.13614e-05
7.14641e-05
7.37478e-05
3.38829e-05
3.36396e-05
3.36044e-05
3.58574e-05
8.26211e-06
5.68298e-06
5.6551e-06
4.41935e-06
0.00362138
0.00362043
0.00362043
0.00362137
0.00362043
0.00362043
0.00361933
0.00361933
0.00361933
0.00361933
0.00362043
0.00362043
0.00362138
0.00362043
0.00362043
0.00362137
0.00361157
0.0035624
0.00361165
0.00361165
0.00356455
0.00356455
0.00361157
0.0035624
0.00361165
0.00361165
0.00356455
0.00356455
0.00361165
0.00356455
0.00356455
0.00361157
0.0035624
0.00361165
0.00356455
0.00356455
0.0035624
0.00355596
0.00351135
0.00355315
0.00355315
0.00351472
0.00351472
0.00355596
0.00351135
0.00355315
0.00355315
0.00351472
0.00351472
0.00355315
0.00351472
0.00351472
0.00355596
0.00351135
0.00355315
0.00351472
0.00351472
0.00351135
0.00350427
0.00345896
0.00350152
0.00350152
0.00346224
0.00346224
0.00350427
0.00345896
0.00350152
0.00350152
0.00346224
0.00346224
0.00350152
0.00346224
0.00346224
0.00350427
0.00345896
0.00350152
0.00346224
0.00346224
0.00345896
0.00345197
0.0034074
0.00344925
0.00344924
0.00341061
0.0034106
0.00345197
0.0034074
0.00344924
0.00344925
0.0034106
0.00341061
0.00344924
0.0034106
0.0034106
0.00345197
0.0034074
0.00344924
0.0034106
0.0034106
0.0034074
0.00340058
0.00335717
0.00339788
0.00339788
0.00336026
0.00336026
0.00340058
0.00335717
0.00339788
0.00339788
0.00336026
0.00336026
0.00339788
0.00336026
0.00336026
0.00340058
0.00335716
0.00339788
0.00336026
0.00336026
0.00335716
0.00335057
0.0033084
0.00334791
0.00334791
0.00331139
0.00331139
0.00335057
0.0033084
0.00334791
0.00334791
0.00331139
0.00331139
0.00334791
0.00331139
0.00331139
0.00335057
0.0033084
0.00334791
0.00331139
0.00331139
0.0033084
0.003302
0.00326096
0.00329939
0.00329939
0.00326385
0.00326385
0.003302
0.00326096
0.00329938
0.00329938
0.00326385
0.00326385
0.00329939
0.00326385
0.00326385
0.003302
0.00326096
0.00329938
0.00326386
0.00326386
0.00326096
0.00325475
0.00321466
0.00325215
0.00325215
0.00321747
0.00321747
0.00325475
0.00321465
0.00325216
0.00325215
0.00321747
0.00321747
0.00325216
0.00321747
0.00321747
0.00325474
0.00321465
0.00325216
0.00321747
0.00321747
0.00321465
0.00320858
0.00316927
0.00320603
0.00320603
0.00317203
0.00317203
0.00320858
0.00316927
0.00320603
0.00320603
0.00317203
0.00317203
0.00320603
0.00317203
0.00317203
0.00320858
0.00316927
0.00320603
0.00317203
0.00317203
0.00316927
0.00316332
0.00312464
0.00316079
0.00316079
0.00312735
0.00312735
0.00316332
0.00312464
0.00316079
0.00316079
0.00312735
0.00312735
0.00316079
0.00312735
0.00312735
0.00316332
0.00312464
0.00316079
0.00312735
0.00312735
0.00312464
0.00311879
0.00308062
0.00311628
0.00311628
0.00308329
0.00308329
0.00311878
0.00308061
0.00311628
0.00311628
0.00308329
0.00308329
0.00311628
0.00308329
0.00308329
0.00311879
0.00308061
0.00311628
0.00308329
0.00308329
0.00308061
0.00307485
0.00303711
0.00307237
0.00307237
0.00303977
0.00303977
0.00307484
0.00303711
0.00307237
0.00307237
0.00303977
0.00303977
0.00307237
0.00303977
0.00303977
0.00307484
0.00303711
0.00307237
0.00303977
0.00303977
0.00303711
0.00303142
0.0029941
0.00302897
0.00302897
0.00299672
0.00299673
0.00303142
0.00299411
0.00302897
0.00302897
0.00299672
0.00299672
0.00302897
0.00299673
0.00299672
0.00303141
0.00299411
0.00302897
0.00299673
0.00299672
0.00299411
0.00298848
0.00295154
0.00298603
0.00298604
0.00295412
0.00295411
0.00298848
0.00295154
0.00298603
0.00298603
0.00295411
0.00295411
0.00298603
0.00295411
0.00295413
0.00298848
0.00295154
0.00298603
0.00295411
0.00295411
0.00295155
0.00294597
0.00290938
0.00294353
0.00294352
0.00291191
0.00291191
0.00294597
0.00290938
0.00294352
0.00294353
0.00291191
0.00291191
0.00294353
0.00291191
0.00291191
0.00294597
0.00290938
0.00294352
0.00291191
0.00291191
0.00290938
0.00290386
0.00286761
0.00290142
0.00290142
0.0028701
0.0028701
0.00290386
0.00286761
0.00290142
0.00290142
0.0028701
0.0028701
0.00290142
0.0028701
0.0028701
0.00290386
0.00286761
0.00290142
0.0028701
0.0028701
0.00286761
0.00286213
0.0028262
0.00285971
0.00285971
0.00282866
0.00282866
0.00286213
0.0028262
0.00285971
0.00285971
0.00282866
0.00282866
0.00285971
0.00282866
0.00282866
0.00286213
0.0028262
0.00285971
0.00282866
0.00282866
0.0028262
0.00282077
0.00278512
0.00281835
0.00281835
0.00278755
0.00278755
0.00282077
0.00278512
0.00281835
0.00281835
0.00278755
0.00278755
0.00281835
0.00278755
0.00278755
0.00282077
0.00278512
0.00281835
0.00278755
0.00278755
0.00278512
0.00277973
0.00274436
0.00277732
0.00277732
0.00274676
0.00274676
0.00277974
0.00274436
0.00277732
0.00277732
0.00274676
0.00274676
0.00277732
0.00274676
0.00274676
0.00277974
0.00274436
0.00277732
0.00274676
0.00274676
0.00274436
0.00273901
0.0027039
0.00273661
0.00273661
0.00270627
0.00270626
0.00273901
0.00270389
0.00273661
0.00273661
0.00270627
0.00270626
0.00273661
0.00270626
0.00270626
0.00273901
0.00270389
0.00273661
0.00270626
0.00270626
0.00270389
0.00269858
0.0026637
0.00269618
0.00269618
0.00266604
0.00266604
0.00269858
0.0026637
0.00269618
0.00269618
0.00266604
0.00266604
0.00269618
0.00266604
0.00266604
0.00269858
0.0026637
0.00269618
0.00266604
0.00266604
0.0026637
0.00265842
0.00262376
0.00265602
0.00265603
0.00262607
0.00262607
0.00265842
0.00262376
0.00265602
0.00265602
0.00262607
0.00262607
0.00265602
0.00262607
0.00262607
0.00265842
0.00262376
0.00265603
0.00262607
0.00262607
0.00262376
0.0026185
0.00258405
0.00261612
0.00261612
0.00258634
0.00258634
0.0026185
0.00258405
0.00261612
0.00261612
0.00258634
0.00258634
0.00261612
0.00258634
0.00258634
0.0026185
0.00258405
0.00261612
0.00258634
0.00258634
0.00258405
0.00257882
0.00254457
0.00257645
0.00257645
0.00254684
0.00254684
0.00257883
0.00254457
0.00257645
0.00257645
0.00254684
0.00254684
0.00257645
0.00254684
0.00254684
0.00257883
0.00254457
0.00257645
0.00254684
0.00254684
0.00254457
0.00253937
0.00250531
0.002537
0.002537
0.00250756
0.00250756
0.00253937
0.00250531
0.002537
0.002537
0.00250756
0.00250756
0.002537
0.00250756
0.00250756
0.00253937
0.00250531
0.002537
0.00250756
0.00250756
0.00250531
0.00250013
0.00246626
0.00249778
0.00249778
0.0024685
0.0024685
0.00250013
0.00246626
0.00249778
0.00249778
0.0024685
0.0024685
0.00249778
0.0024685
0.0024685
0.00250013
0.00246626
0.00249778
0.0024685
0.0024685
0.00246626
0.0024611
0.0024274
0.00245876
0.00245876
0.00242963
0.00242963
0.0024611
0.0024274
0.00245876
0.00245876
0.00242963
0.00242963
0.00245876
0.00242963
0.00242963
0.0024611
0.0024274
0.00245876
0.00242963
0.00242963
0.0024274
0.00242227
0.00238874
0.00241995
0.00241995
0.00239096
0.00239096
0.00242227
0.00238874
0.00241995
0.00241995
0.00239096
0.00239096
0.00241995
0.00239096
0.00239096
0.00242227
0.00238874
0.00241995
0.00239096
0.00239096
0.00238874
0.00238362
0.00235027
0.00238132
0.00238132
0.00235248
0.00235248
0.00238362
0.00235027
0.00238132
0.00238132
0.00235248
0.00235248
0.00238132
0.00235248
0.00235248
0.00238362
0.00235027
0.00238132
0.00235248
0.00235248
0.00235027
0.00234517
0.00231198
0.00234289
0.00234289
0.00231418
0.00231418
0.00234517
0.00231198
0.00234289
0.00234289
0.00231418
0.00231418
0.00234289
0.00231418
0.00231418
0.00234517
0.00231198
0.00234289
0.00231418
0.00231418
0.00231198
0.00230689
0.00227386
0.00230463
0.00230463
0.00227606
0.00227606
0.00230689
0.00227386
0.00230463
0.00230463
0.00227606
0.00227606
0.00230463
0.00227606
0.00227606
0.00230689
0.00227386
0.00230463
0.00227606
0.00227606
0.00227386
0.00226879
0.00223592
0.00226655
0.00226655
0.00223811
0.00223811
0.00226879
0.00223592
0.00226655
0.00226656
0.00223811
0.00223811
0.00226656
0.00223811
0.00223811
0.00226879
0.00223592
0.00226656
0.00223811
0.00223811
0.00223592
0.00223086
0.00219813
0.00222865
0.00222865
0.00220032
0.00220032
0.00223086
0.00219813
0.00222865
0.00222865
0.00220032
0.00220032
0.00222865
0.00220032
0.00220032
0.00223086
0.00219813
0.00222865
0.00220032
0.00220032
0.00219813
0.00219309
0.00216051
0.0021909
0.0021909
0.00216269
0.00216269
0.00219309
0.00216051
0.0021909
0.0021909
0.00216269
0.00216269
0.0021909
0.00216269
0.00216269
0.00219309
0.00216051
0.0021909
0.00216269
0.00216269
0.00216051
0.00215548
0.00212303
0.0021533
0.0021533
0.00212521
0.00212521
0.00215548
0.00212303
0.0021533
0.0021533
0.00212521
0.00212521
0.0021533
0.00212521
0.00212521
0.00215548
0.00212303
0.0021533
0.00212521
0.00212521
0.00212303
0.00211802
0.00208571
0.00211586
0.00211586
0.00208787
0.00208787
0.00211802
0.00208571
0.00211586
0.00211586
0.00208787
0.00208787
0.00211586
0.00208787
0.00208787
0.00211802
0.00208571
0.00211586
0.00208787
0.00208787
0.00208571
0.00208071
0.00204852
0.00207856
0.00207856
0.00205068
0.00205068
0.00208071
0.00204852
0.00207856
0.00207856
0.00205068
0.00205068
0.00207856
0.00205068
0.00205068
0.00208071
0.00204852
0.00207856
0.00205068
0.00205068
0.00204852
0.00204354
0.00201147
0.00204141
0.0020414
0.00201362
0.00201363
0.00204354
0.00201147
0.0020414
0.00204141
0.00201362
0.00201363
0.00204141
0.00201363
0.00201363
0.00204354
0.00201147
0.0020414
0.00201363
0.00201363
0.00201147
0.0020065
0.00197456
0.00200438
0.00200438
0.0019767
0.0019767
0.0020065
0.00197456
0.00200438
0.00200438
0.0019767
0.0019767
0.00200438
0.0019767
0.0019767
0.0020065
0.00197456
0.00200438
0.0019767
0.0019767
0.00197456
0.00196959
0.00193776
0.00196749
0.00196749
0.00193989
0.00193989
0.00196959
0.00193776
0.00196749
0.00196749
0.00193989
0.00193989
0.00196749
0.00193989
0.00193989
0.00196959
0.00193776
0.00196749
0.00193989
0.00193989
0.00193776
0.00193281
0.00190108
0.00193071
0.00193071
0.00190321
0.00190321
0.0019328
0.00190108
0.00193071
0.00193071
0.00190321
0.00190321
0.00193071
0.00190321
0.00190321
0.0019328
0.00190108
0.00193071
0.00190321
0.00190321
0.00190108
0.00189614
0.00186452
0.00189405
0.00189405
0.00186663
0.00186663
0.00189614
0.00186452
0.00189405
0.00189405
0.00186663
0.00186663
0.00189405
0.00186663
0.00186663
0.00189614
0.00186452
0.00189405
0.00186663
0.00186663
0.00186452
0.00185958
0.00182806
0.00185751
0.00185751
0.00183017
0.00183017
0.00185958
0.00182806
0.00185751
0.00185751
0.00183017
0.00183017
0.00185751
0.00183017
0.00183017
0.00185958
0.00182806
0.00185751
0.00183017
0.00183017
0.00182806
0.00182313
0.0017917
0.00182107
0.00182106
0.0017938
0.0017938
0.00182313
0.0017917
0.00182106
0.00182106
0.0017938
0.0017938
0.00182107
0.0017938
0.0017938
0.00182313
0.0017917
0.00182106
0.0017938
0.0017938
0.0017917
0.00178678
0.00175544
0.00178472
0.00178472
0.00175753
0.00175753
0.00178678
0.00175544
0.00178472
0.00178472
0.00175753
0.00175753
0.00178472
0.00175753
0.00175753
0.00178678
0.00175544
0.00178472
0.00175753
0.00175753
0.00175544
0.00175053
0.00171927
0.00174848
0.00174848
0.00172135
0.00172135
0.00175053
0.00171927
0.00174848
0.00174848
0.00172135
0.00172135
0.00174848
0.00172135
0.00172135
0.00175053
0.00171927
0.00174848
0.00172135
0.00172135
0.00171927
0.00171436
0.00168318
0.00171232
0.00171232
0.00168526
0.00168526
0.00171436
0.00168318
0.00171232
0.00171232
0.00168526
0.00168526
0.00171232
0.00168526
0.00168526
0.00171436
0.00168318
0.00171232
0.00168526
0.00168526
0.00168318
0.00167828
0.00164717
0.00167624
0.00167624
0.00164924
0.00164924
0.00167828
0.00164717
0.00167624
0.00167624
0.00164924
0.00164924
0.00167624
0.00164924
0.00164924
0.00167828
0.00164717
0.00167624
0.00164924
0.00164924
0.00164717
0.00164227
0.00161123
0.00164025
0.00164024
0.00161329
0.00161329
0.00164227
0.00161123
0.00164024
0.00164024
0.00161329
0.00161329
0.00164025
0.00161329
0.00161329
0.00164227
0.00161123
0.00164024
0.00161329
0.00161329
0.00161123
0.00160634
0.00157536
0.00160432
0.00160432
0.00157742
0.00157742
0.00160634
0.00157536
0.00160432
0.00160432
0.00157742
0.00157742
0.00160432
0.00157742
0.00157742
0.00160634
0.00157536
0.00160432
0.00157742
0.00157742
0.00157536
0.00157047
0.00153955
0.00156846
0.00156846
0.00154161
0.0015416
0.00157047
0.00153955
0.00156846
0.00156846
0.0015416
0.00154161
0.00156846
0.00154161
0.00154161
0.00157047
0.00153955
0.00156846
0.00154161
0.00154161
0.00153955
0.00153467
0.0015038
0.00153266
0.00153266
0.00150585
0.00150585
0.00153467
0.0015038
0.00153266
0.00153266
0.00150585
0.00150585
0.00153266
0.00150585
0.00150585
0.00153467
0.0015038
0.00153266
0.00150585
0.00150585
0.0015038
0.00149893
0.00146811
0.00149692
0.00149692
0.00147015
0.00147015
0.00149893
0.00146811
0.00149692
0.00149692
0.00147015
0.00147015
0.00149692
0.00147015
0.00147015
0.00149893
0.00146811
0.00149692
0.00147015
0.00147015
0.00146811
0.00146323
0.00143246
0.00146123
0.00146123
0.00143449
0.00143449
0.00146323
0.00143246
0.00146123
0.00146123
0.00143449
0.00143449
0.00146123
0.00143449
0.00143449
0.00146323
0.00143246
0.00146123
0.00143449
0.00143449
0.00143246
0.00142759
0.00139685
0.00142559
0.00142559
0.00139889
0.00139889
0.00142759
0.00139685
0.00142559
0.00142559
0.00139889
0.00139889
0.00142559
0.00139889
0.00139889
0.00142759
0.00139685
0.00142559
0.00139889
0.00139889
0.00139685
0.00139198
0.00136129
0.00138999
0.00138999
0.00136332
0.00136332
0.00139198
0.00136129
0.00138999
0.00138999
0.00136332
0.00136332
0.00138999
0.00136332
0.00136332
0.00139198
0.00136129
0.00138999
0.00136332
0.00136332
0.00136129
0.00135642
0.00132576
0.00135443
0.00135443
0.00132778
0.00132778
0.00135642
0.00132576
0.00135443
0.00135443
0.00132778
0.00132778
0.00135443
0.00132778
0.00132778
0.00135642
0.00132576
0.00135443
0.00132778
0.00132778
0.00132576
0.00132089
0.00129026
0.0013189
0.0013189
0.00129228
0.00129228
0.00132089
0.00129026
0.0013189
0.0013189
0.00129228
0.00129228
0.0013189
0.00129228
0.00129228
0.00132089
0.00129026
0.0013189
0.00129228
0.00129228
0.00129026
0.00128539
0.00125478
0.00128341
0.00128341
0.0012568
0.0012568
0.00128539
0.00125478
0.00128341
0.00128341
0.0012568
0.0012568
0.00128341
0.0012568
0.0012568
0.00128539
0.00125478
0.00128341
0.0012568
0.0012568
0.00125478
0.00124992
0.00121933
0.00124794
0.00124794
0.00122135
0.00122135
0.00124992
0.00121933
0.00124794
0.00124794
0.00122135
0.00122135
0.00124794
0.00122135
0.00122135
0.00124992
0.00121933
0.00124794
0.00122135
0.00122135
0.00121933
0.00121446
0.0011839
0.00121249
0.00121249
0.00118591
0.00118591
0.00121446
0.0011839
0.00121249
0.00121249
0.00118591
0.00118591
0.00121249
0.00118591
0.00118591
0.00121446
0.0011839
0.00121249
0.00118591
0.00118591
0.0011839
0.00117903
0.00114848
0.00117706
0.00117706
0.00115049
0.00115049
0.00117903
0.00114848
0.00117706
0.00117706
0.00115049
0.00115049
0.00117706
0.00115049
0.00115049
0.00117903
0.00114848
0.00117706
0.00115049
0.00115049
0.00114848
0.00114361
0.00111307
0.00114164
0.00114164
0.00111509
0.00111509
0.00114361
0.00111307
0.00114164
0.00114164
0.00111509
0.00111509
0.00114164
0.00111509
0.00111509
0.00114361
0.00111307
0.00114164
0.00111509
0.00111509
0.00111307
0.00110821
0.00107767
0.00110623
0.00110623
0.00107968
0.00107968
0.00110821
0.00107767
0.00110623
0.00110623
0.00107968
0.00107968
0.00110623
0.00107968
0.00107968
0.00110821
0.00107767
0.00110623
0.00107968
0.00107968
0.00107767
0.0010728
0.00104228
0.00107083
0.00107083
0.00104428
0.00104428
0.0010728
0.00104228
0.00107083
0.00107083
0.00104428
0.00104428
0.00107083
0.00104428
0.00104428
0.0010728
0.00104228
0.00107083
0.00104428
0.00104428
0.00104227
0.0010374
0.00100688
0.00103543
0.00103543
0.00100888
0.00100888
0.0010374
0.00100688
0.00103543
0.00103543
0.00100888
0.00100888
0.00103543
0.00100888
0.00100888
0.0010374
0.00100688
0.00103543
0.00100888
0.00100888
0.00100688
0.001002
0.000971478
0.00100003
0.00100003
0.000973483
0.000973483
0.001002
0.000971479
0.00100003
0.00100003
0.000973483
0.000973483
0.00100003
0.000973483
0.000973483
0.001002
0.000971478
0.00100003
0.000973483
0.000973483
0.000971478
0.000966601
0.00093607
0.000964632
0.000964632
0.000938072
0.000938072
0.000966601
0.000936069
0.000964631
0.00096463
0.000938072
0.000938073
0.000964632
0.000938072
0.000938073
0.0009666
0.000936071
0.000964631
0.000938074
0.000938074
0.000936069
0.00093119
0.000900652
0.000929219
0.000929218
0.000902657
0.000902657
0.000931189
0.000900654
0.00092922
0.000929221
0.000902655
0.000902654
0.000929218
0.000902657
0.000902655
0.000931191
0.000900652
0.000929219
0.000902654
0.000902653
0.000900652
0.000895768
0.000865221
0.000893798
0.000893799
0.00086722
0.000867218
0.000895769
0.000865219
0.000893797
0.000893796
0.000867222
0.000867222
0.0008938
0.000867219
0.000867222
0.000895768
0.00086522
0.000893799
0.000867223
0.000867225
0.00086522
0.000860335
0.000829771
0.000858362
0.00085836
0.000831775
0.000831775
0.000860333
0.000829773
0.000858363
0.000858362
0.000831772
0.000831771
0.00085836
0.000831775
0.000831772
0.000860333
0.000829771
0.000858361
0.00083177
0.000831769
0.000829771
0.000824879
0.000794311
0.000822906
0.000822908
0.000796307
0.00079631
0.000824882
0.000794312
0.000822905
0.000822907
0.00079631
0.000796317
0.00082291
0.000796311
0.000796312
0.000824883
0.000794315
0.000822909
0.000796319
0.000796316
0.00079431
0.000789417
0.000758791
0.000787442
0.000787445
0.000760804
0.000760806
0.000789418
0.000758795
0.000787443
0.000787445
0.000760796
0.000760785
0.000787437
0.000760803
0.000760801
0.000789416
0.000758782
0.000787438
0.000760783
0.000760793
0.000758795
0.000753887
0.000723313
0.000751915
0.000751912
0.00072529
0.000725278
0.000753889
0.000723294
0.000751911
0.000751905
0.000725303
0.000725316
0.000751924
0.000725284
0.000725311
0.000753884
0.00072334
0.00075192
0.000725323
0.000725325
0.00072333
0.000718428
0.000687833
0.000716436
0.000716423
0.000689868
0.000689882
0.000718407
0.000687867
0.000716449
0.000716467
0.000689853
0.000689834
0.000716446
0.000689867
0.000689807
0.000718453
0.000687794
0.00071646
0.000689818
0.000689791
0.000687783
0.000682908
0.000652081
0.000680955
0.000680988
0.000654108
0.000654126
0.000682945
0.000652113
0.000680932
0.000680905
0.000654101
0.000654095
0.000680903
0.000654138
0.000654152
0.000682867
0.000652086
0.000680882
0.000654106
0.000654141
0.000652132
0.000647134
0.000616554
0.000645153
0.000645172
0.000618487
0.000618448
0.000647173
0.000616498
0.000645156
0.000645172
0.000618519
0.000618569
0.000645235
0.000618461
0.000618555
0.00064716
0.000616618
0.000645238
0.000618586
0.000618588
0.000616602
0.000611686
0.000581302
0.00060968
0.000609629
0.000583288
0.000583227
0.000611626
0.000581241
0.000609706
0.000609737
0.00058328
0.000583219
0.000609686
0.000583182
0.000583085
0.000611735
0.000581177
0.000609717
0.000583164
0.000583064
0.000581068
0.000576371
0.000545245
0.000574406
0.000574381
0.000547306
0.000547345
0.000576346
0.000545308
0.000574378
0.000574287
0.000547295
0.000547302
0.000574184
0.000547373
0.00054739
0.00057623
0.000545278
0.000574143
0.000547329
0.000547377
0.000545344
0.00054027
0.00050963
0.000538291
0.000538328
0.000511555
0.000511578
0.000540338
0.000509645
0.000538296
0.000538339
0.000511575
0.000511664
0.000538453
0.000511621
0.000511772
0.000540331
0.000509733
0.000538458
0.00051171
0.000511792
0.000509813
0.000504796
0.000474536
0.000502804
0.00050281
0.000476511
0.00047653
0.000504799
0.000474534
0.000502814
0.000502864
0.000476486
0.000476432
0.000502927
0.000476471
0.000476318
0.000504864
0.000474424
0.000502939
0.000476376
0.000476293
0.00047428
0.000469617
0.000437988
0.000467627
0.000467642
0.000440107
0.000440074
0.000469604
0.000437946
0.000467598
0.00046751
0.000440113
0.000440106
0.000467335
0.000440068
0.000440008
0.000469479
0.000437984
0.000467309
0.000440086
0.000440017
0.000437854
0.000432866
0.000401381
0.000430831
0.000430767
0.000403269
0.000403111
0.00043281
0.000401256
0.000430868
0.000430885
0.000403321
0.000403404
0.000430766
0.000403162
0.000403484
0.000432887
0.000401518
0.000430793
0.00040345
0.000403516
0.000401624
0.000396512
0.000366761
0.00039443
0.000394321
0.000368595
0.000368673
0.000396435
0.000366898
0.000394458
0.000394533
0.000368528
0.000368508
0.000394657
0.000368691
0.000368677
0.000396632
0.000366711
0.000394679
0.000368525
0.000368625
0.000366887
0.000362069
0.000331871
0.000360104
0.000360208
0.000334107
0.00033435
0.000362219
0.000332069
0.000360006
0.000359974
0.000334042
0.000333973
0.000360177
0.000334317
0.000333973
0.000362006
0.000331754
0.000360097
0.000333941
0.000333908
0.000331711
0.000326873
0.000295181
0.000325059
0.000325214
0.000297421
0.000297332
0.00032699
0.000295067
0.000325037
0.000324972
0.000297479
0.00029749
0.000324918
0.000297318
0.000297376
0.000326776
0.000295206
0.000324892
0.000297476
0.000297431
0.000295119
0.000289978
0.000257987
0.000288038
0.000287955
0.000259774
0.000259554
0.000289881
0.000257694
0.000288081
0.000288094
0.000259842
0.000259885
0.000287998
0.000259547
0.00025978
0.00029
0.000258085
0.00028804
0.000259883
0.000259858
0.00025802
0.000252969
0.000222142
0.000250661
0.000250455
0.000223925
0.000223957
0.000252722
0.000222219
0.000250721
0.000250764
0.000223897
0.000223889
0.000250674
0.000223959
0.000223921
0.000253058
0.000222123
0.000250745
0.000223892
0.000223894
0.000222143
0.000217297
0.00018754
0.00021516
0.000215223
0.000189522
0.000189617
0.000217367
0.000187746
0.000215119
0.000215105
0.000189472
0.000189458
0.000215146
0.000189602
0.000189492
0.000217271
0.000187474
0.000215104
0.00018946
0.000189462
0.000187549
0.000182765
0.000152667
0.000180983
0.000181108
0.000154876
0.000154898
0.000183006
0.000152661
0.000180923
0.000180904
0.00015488
0.000154873
0.000180991
0.000154909
0.000154917
0.000182695
0.000152675
0.000180932
0.000154883
0.000154922
0.000152703
0.000147837
0.000116797
0.000146092
0.000146077
0.000119025
0.000118973
0.000147813
0.000116748
0.000146116
0.000146123
0.000119047
0.000119061
0.000146127
0.000118972
0.000119035
0.000147853
0.00011682
0.00014615
0.000119063
0.000119062
0.000116819
0.000111599
7.90431e-05
0.000109648
0.000109625
8.09883e-05
8.0907e-05
0.000111579
7.89301e-05
0.000109659
0.000109665
8.10181e-05
8.10286e-05
0.00010967
8.08916e-05
8.09426e-05
0.00011162
7.90638e-05
0.000109687
8.1011e-05
8.09754e-05
7.89869e-05
7.3797e-05
4.08843e-05
7.14545e-05
7.1379e-05
4.29127e-05
4.29289e-05
7.37028e-05
4.09112e-05
7.14758e-05
7.14788e-05
4.29084e-05
4.29119e-05
7.14041e-05
4.29286e-05
4.29154e-05
7.38123e-05
4.08807e-05
7.14301e-05
4.29168e-05
4.29049e-05
4.08748e-05
3.58595e-05
6.00299e-06
3.36075e-05
3.36329e-05
7.41144e-06
7.44803e-06
3.58946e-05
6.04535e-06
3.3591e-05
3.3596e-05
7.39307e-06
7.39784e-06
3.36187e-05
7.45952e-06
7.44473e-06
3.58541e-05
6.00541e-06
3.36044e-05
7.41004e-06
7.42677e-06
6.02165e-06
4.40551e-06
5.64964e-06
5.67654e-06
4.4427e-06
5.63881e-06
5.64804e-06
8.27461e-06
8.27967e-06
8.30132e-06
5.67413e-06
4.4098e-06
5.66375e-06
0.00362925
0.00363943
0.00363396
0.00363396
0.0036565
0.00364343
0.00367167
0.00363737
0.0036565
0.00364343
0.00363738
0.00367167
0.00364795
0.00367539
0.00367539
0.00358342
0.00360739
0.00361228
0.00357383
0.00358412
0.00357598
0.0035834
0.00360741
0.00361226
0.00357381
0.00361121
0.00361121
0.00361121
0.00356423
0.00356423
0.00356423
0.00356423
0.0035812
0.00360835
0.003611
0.00358877
0.00361098
0.00357869
0.00358967
0.00358418
0.00357596
0.00358121
0.003611
0.00360836
0.00358877
0.00361099
0.00358967
0.00357869
0.00361305
0.00361305
0.00358391
0.00357907
0.00357907
0.00353844
0.00355799
0.00355897
0.00353693
0.00355668
0.00353646
0.00353844
0.00355801
0.00355897
0.00353692
0.00355283
0.00355283
0.00355283
0.00351478
0.00351478
0.00351478
0.00351478
0.00353705
0.00355772
0.00355298
0.00354086
0.00355649
0.0035374
0.00354075
0.00355669
0.00353646
0.00353705
0.00355298
0.00355772
0.00354086
0.00355649
0.00354075
0.0035374
0.00355889
0.0035589
0.00353741
0.00353785
0.00353785
0.00348597
0.00350478
0.00350584
0.00348495
0.00350441
0.00348466
0.00348597
0.00350478
0.00350584
0.00348495
0.00350151
0.00350151
0.00350151
0.00346224
0.00346224
0.00346224
0.00346224
0.00348506
0.00350512
0.00350145
0.00348837
0.00350463
0.00348537
0.0034883
0.00350441
0.00348466
0.00348506
0.00350145
0.00350512
0.00348837
0.00350463
0.0034883
0.00348537
0.0035054
0.0035054
0.0034851
0.00348548
0.00348548
0.00343344
0.0034521
0.00345295
0.00343268
0.00345189
0.0034325
0.00343344
0.0034521
0.00345295
0.00343268
0.00344925
0.00344925
0.00344925
0.00341061
0.00341061
0.00341061
0.00341061
0.00343294
0.00345247
0.00344922
0.0034363
0.00345223
0.0034331
0.00343627
0.00345189
0.0034325
0.00343294
0.00344922
0.00345247
0.0034363
0.00345223
0.00343627
0.0034331
0.00345253
0.00345253
0.00343304
0.00343305
0.00343305
0.00338223
0.00340061
0.00340122
0.00338169
0.00340045
0.00338155
0.00338223
0.00340061
0.00340122
0.00338169
0.00339788
0.00339788
0.00339788
0.00336025
0.00336025
0.00336025
0.00336025
0.00338196
0.00340094
0.00339786
0.00338525
0.00340079
0.00338206
0.00338522
0.00340045
0.00338155
0.00338196
0.00339785
0.00340094
0.00338525
0.00340079
0.00338522
0.00338206
0.00340092
0.00340092
0.00338209
0.00338198
0.00338198
0.00333259
0.00335054
0.00335099
0.0033322
0.00335042
0.00333208
0.00333259
0.00335054
0.00335099
0.0033322
0.00334789
0.00334789
0.00334789
0.00331137
0.00331137
0.00331137
0.00331137
0.00333247
0.00335084
0.00334788
0.00333565
0.00335073
0.00333253