/*--------------------------------*- C++ -*----------------------------------*\
| =========                 |                                                 |
| \\      /  F ield         | OpenFOAM: The Open Source CFD Toolbox           |
|  \\    /   O peration     | Version:                                        |
|   \\  /    A nd           | Website:  www.openfoam.com                      |
|    \\/     M anipulation  |                                                 |
\*---------------------------------------------------------------------------*/
FoamFile
{
    version     2.0;
    format      ascii;
    class       volScalarField;
    location    "27600.5";
    object      p;
}
// * * * * * * * * * * * * * * * * * * * * * * * * * * * * * * * * * * * * * //

dimensions      [0 2 -2 0 0 0 0];


internalField   nonuniform List<scalar> 
247096
(
1.10861e-07
1.10863e-07
1.11007e-07
1.11093e-07
1.11126e-07
1.11084e-07
1.10994e-07
1.10839e-07
1.10863e-07
1.11062e-07
1.11239e-07
1.11331e-07
1.11354e-07
1.11324e-07
1.1122e-07
1.11038e-07
1.11007e-07
1.11239e-07
1.11379e-07
1.11421e-07
1.11427e-07
1.11419e-07
1.11369e-07
1.11212e-07
1.1098e-07
1.11094e-07
1.11332e-07
1.11421e-07
1.11433e-07
1.11431e-07
1.11433e-07
1.11416e-07
1.1131e-07
1.1106e-07
1.10861e-07
1.11126e-07
1.11355e-07
1.11428e-07
1.11431e-07
1.11428e-07
1.11432e-07
1.11424e-07
1.11335e-07
1.11091e-07
1.11085e-07
1.11325e-07
1.11419e-07
1.11433e-07
1.11432e-07
1.11433e-07
1.11414e-07
1.11302e-07
1.11052e-07
1.10994e-07
1.11221e-07
1.11369e-07
1.11416e-07
1.11425e-07
1.11414e-07
1.11357e-07
1.11193e-07
1.10968e-07
1.1084e-07
1.11038e-07
1.11212e-07
1.1131e-07
1.11335e-07
1.11302e-07
1.11193e-07
1.11016e-07
1.1098e-07
1.11061e-07
1.11092e-07
1.11052e-07
1.10968e-07
1.08047e-07
1.08022e-07
1.08032e-07
1.07882e-07
1.07895e-07
1.07914e-07
1.07894e-07
1.0808e-07
1.08018e-07
1.08032e-07
1.07903e-07
1.07697e-07
1.07716e-07
1.07716e-07
1.07697e-07
1.0796e-07
1.07906e-07
1.07883e-07
1.07701e-07
1.07737e-07
1.07757e-07
1.07757e-07
1.07737e-07
1.07701e-07
1.08024e-07
1.0807e-07
1.08048e-07
1.07895e-07
1.07717e-07
1.07758e-07
1.07781e-07
1.07781e-07
1.07758e-07
1.07717e-07
1.08052e-07
1.08087e-07
1.08023e-07
1.07914e-07
1.07716e-07
1.07758e-07
1.07781e-07
1.07781e-07
1.07758e-07
1.07716e-07
1.08054e-07
1.07911e-07
1.07894e-07
1.07698e-07
1.07737e-07
1.07758e-07
1.07758e-07
1.07737e-07
1.07698e-07
1.08047e-07
1.08097e-07
1.08081e-07
1.0796e-07
1.07702e-07
1.07718e-07
1.07718e-07
1.07702e-07
1.08042e-07
1.07965e-07
1.0808e-07
1.08019e-07
1.07907e-07
1.08025e-07
1.08053e-07
1.08055e-07
1.08049e-07
1.07966e-07
1.08091e-07
1.0807e-07
1.08088e-07
1.07912e-07
1.08097e-07
1.0808e-07
1.06271e-07
1.06263e-07
1.06271e-07
1.06141e-07
1.0614e-07
1.06151e-07
1.06143e-07
1.06305e-07
1.06262e-07
1.06271e-07
1.06136e-07
1.05903e-07
1.05911e-07
1.05911e-07
1.05902e-07
1.06159e-07
1.06153e-07
1.06141e-07
1.05903e-07
1.05922e-07
1.05934e-07
1.05934e-07
1.05922e-07
1.05903e-07
1.06204e-07
1.06295e-07
1.06272e-07
1.06141e-07
1.05911e-07
1.05934e-07
1.05947e-07
1.05947e-07
1.05934e-07
1.05911e-07
1.06208e-07
1.06293e-07
1.06263e-07
1.06151e-07
1.05911e-07
1.05934e-07
1.05947e-07
1.05947e-07
1.05934e-07
1.05911e-07
1.06207e-07
1.0616e-07
1.06143e-07
1.05903e-07
1.05923e-07
1.05934e-07
1.05934e-07
1.05923e-07
1.05903e-07
1.06211e-07
1.06301e-07
1.06306e-07
1.06159e-07
1.05903e-07
1.05911e-07
1.05911e-07
1.05903e-07
1.06192e-07
1.06183e-07
1.06306e-07
1.06263e-07
1.06153e-07
1.06204e-07
1.06209e-07
1.06207e-07
1.06211e-07
1.06182e-07
1.06309e-07
1.06296e-07
1.06293e-07
1.06161e-07
1.06301e-07
1.06306e-07
1.0467e-07
1.04661e-07
1.0467e-07
1.04546e-07
1.04545e-07
1.04554e-07
1.04548e-07
1.04701e-07
1.04663e-07
1.0467e-07
1.04542e-07
1.04333e-07
1.04339e-07
1.04339e-07
1.04333e-07
1.04566e-07
1.0456e-07
1.04547e-07
1.04334e-07
1.04345e-07
1.04351e-07
1.04351e-07
1.04345e-07
1.04333e-07
1.04607e-07
1.04693e-07
1.0467e-07
1.04545e-07
1.04339e-07
1.04351e-07
1.04358e-07
1.04358e-07
1.04351e-07
1.04339e-07
1.04611e-07
1.04691e-07
1.04661e-07
1.04554e-07
1.04339e-07
1.04351e-07
1.04358e-07
1.04358e-07
1.04351e-07
1.04339e-07
1.0461e-07
1.04565e-07
1.04548e-07
1.04334e-07
1.04345e-07
1.04351e-07
1.04351e-07
1.04345e-07
1.04334e-07
1.04613e-07
1.04698e-07
1.04701e-07
1.04566e-07
1.04334e-07
1.04339e-07
1.04339e-07
1.04334e-07
1.04595e-07
1.04587e-07
1.04702e-07
1.04663e-07
1.0456e-07
1.04607e-07
1.04611e-07
1.0461e-07
1.04613e-07
1.04587e-07
1.04706e-07
1.04693e-07
1.04692e-07
1.04566e-07
1.04698e-07
1.04702e-07
1.03201e-07
1.03192e-07
1.032e-07
1.03083e-07
1.03081e-07
1.03088e-07
1.03083e-07
1.03228e-07
1.03195e-07
1.032e-07
1.03078e-07
1.02885e-07
1.02888e-07
1.02888e-07
1.02885e-07
1.03101e-07
1.03097e-07
1.03083e-07
1.02885e-07
1.02893e-07
1.02896e-07
1.02896e-07
1.02893e-07
1.02885e-07
1.0314e-07
1.03224e-07
1.03201e-07
1.03081e-07
1.02888e-07
1.02896e-07
1.02901e-07
1.02901e-07
1.02896e-07
1.02888e-07
1.03142e-07
1.03222e-07
1.03192e-07
1.03088e-07
1.02888e-07
1.02896e-07
1.02901e-07
1.02901e-07
1.02896e-07
1.02888e-07
1.03141e-07
1.03102e-07
1.03083e-07
1.02885e-07
1.02893e-07
1.02896e-07
1.02896e-07
1.02893e-07
1.02885e-07
1.03144e-07
1.03228e-07
1.03228e-07
1.03101e-07
1.02885e-07
1.02889e-07
1.02889e-07
1.02885e-07
1.03127e-07
1.03121e-07
1.0323e-07
1.03195e-07
1.03097e-07
1.0314e-07
1.03142e-07
1.03141e-07
1.03144e-07
1.03121e-07
1.03234e-07
1.03224e-07
1.03222e-07
1.03102e-07
1.03228e-07
1.0323e-07
1.01832e-07
1.01824e-07
1.01831e-07
1.01719e-07
1.01716e-07
1.01722e-07
1.01718e-07
1.01857e-07
1.01827e-07
1.01831e-07
1.01713e-07
1.01533e-07
1.01535e-07
1.01535e-07
1.01533e-07
1.01735e-07
1.01733e-07
1.01718e-07
1.01533e-07
1.01538e-07
1.0154e-07
1.0154e-07
1.01538e-07
1.01533e-07
1.01773e-07
1.01854e-07
1.01832e-07
1.01716e-07
1.01535e-07
1.0154e-07
1.01543e-07
1.01543e-07
1.0154e-07
1.01535e-07
1.01774e-07
1.01852e-07
1.01824e-07
1.01722e-07
1.01535e-07
1.0154e-07
1.01543e-07
1.01543e-07
1.0154e-07
1.01535e-07
1.01772e-07
1.01737e-07
1.01718e-07
1.01533e-07
1.01538e-07
1.0154e-07
1.0154e-07
1.01538e-07
1.01533e-07
1.01775e-07
1.01857e-07
1.01857e-07
1.01735e-07
1.01533e-07
1.01535e-07
1.01535e-07
1.01533e-07
1.0176e-07
1.01755e-07
1.01859e-07
1.01827e-07
1.01733e-07
1.01773e-07
1.01774e-07
1.01772e-07
1.01775e-07
1.01755e-07
1.01864e-07
1.01854e-07
1.01852e-07
1.01737e-07
1.01857e-07
1.01859e-07
1.00548e-07
1.00539e-07
1.00547e-07
1.00438e-07
1.00435e-07
1.0044e-07
1.00437e-07
1.0057e-07
1.00543e-07
1.00547e-07
1.00432e-07
1.00263e-07
1.00264e-07
1.00264e-07
1.00263e-07
1.00454e-07
1.00452e-07
1.00438e-07
1.00263e-07
1.00267e-07
1.00268e-07
1.00268e-07
1.00267e-07
1.00263e-07
1.00491e-07
1.0057e-07
1.00548e-07
1.00435e-07
1.00264e-07
1.00268e-07
1.00269e-07
1.00269e-07
1.00268e-07
1.00264e-07
1.00491e-07
1.00568e-07
1.00539e-07
1.0044e-07
1.00264e-07
1.00268e-07
1.00269e-07
1.00269e-07
1.00268e-07
1.00264e-07
1.00489e-07
1.00456e-07
1.00436e-07
1.00263e-07
1.00267e-07
1.00268e-07
1.00268e-07
1.00267e-07
1.00263e-07
1.00492e-07
1.00572e-07
1.0057e-07
1.00454e-07
1.00263e-07
1.00264e-07
1.00264e-07
1.00263e-07
1.00477e-07
1.00473e-07
1.00573e-07
1.00543e-07
1.00452e-07
1.00491e-07
1.00491e-07
1.00489e-07
1.00492e-07
1.00473e-07
1.00579e-07
1.0057e-07
1.00568e-07
1.00456e-07
1.00572e-07
1.00573e-07
9.933e-08
9.93215e-08
9.93289e-08
9.92229e-08
9.92191e-08
9.92235e-08
9.92209e-08
9.93515e-08
9.93256e-08
9.93289e-08
9.92168e-08
9.9056e-08
9.9057e-08
9.9057e-08
9.9056e-08
9.92387e-08
9.92372e-08
9.92229e-08
9.9056e-08
9.90592e-08
9.90594e-08
9.90594e-08
9.90592e-08
9.9056e-08
9.92754e-08
9.93515e-08
9.933e-08
9.92191e-08
9.9057e-08
9.90594e-08
9.90603e-08
9.90603e-08
9.90594e-08
9.9057e-08
9.92753e-08
9.93495e-08
9.93215e-08
9.92235e-08
9.90569e-08
9.90594e-08
9.90603e-08
9.90603e-08
9.90594e-08
9.90569e-08
9.92735e-08
9.9241e-08
9.92209e-08
9.90559e-08
9.90591e-08
9.90594e-08
9.90594e-08
9.90591e-08
9.90559e-08
9.9276e-08
9.93539e-08
9.93515e-08
9.92387e-08
9.90559e-08
9.90569e-08
9.90569e-08
9.90559e-08
9.92618e-08
9.92568e-08
9.93544e-08
9.93256e-08
9.92372e-08
9.92754e-08
9.92753e-08
9.92735e-08
9.9276e-08
9.92568e-08
9.93608e-08
9.93515e-08
9.93495e-08
9.92409e-08
9.93539e-08
9.93544e-08
9.81558e-08
9.81472e-08
9.81545e-08
9.80503e-08
9.80463e-08
9.80503e-08
9.80479e-08
9.81765e-08
9.81517e-08
9.81545e-08
9.8044e-08
9.78885e-08
9.78892e-08
9.78892e-08
9.78885e-08
9.80662e-08
9.80647e-08
9.80503e-08
9.78885e-08
9.78914e-08
9.7891e-08
9.7891e-08
9.78914e-08
9.78885e-08
9.8103e-08
9.81772e-08
9.81557e-08
9.80463e-08
9.78892e-08
9.7891e-08
9.78912e-08
9.78912e-08
9.7891e-08
9.78892e-08
9.81027e-08
9.81752e-08
9.81472e-08
9.80503e-08
9.78892e-08
9.7891e-08
9.78912e-08
9.78912e-08
9.7891e-08
9.78892e-08
9.81008e-08
9.80683e-08
9.80479e-08
9.78885e-08
9.78913e-08
9.7891e-08
9.7891e-08
9.78913e-08
9.78885e-08
9.81029e-08
9.81793e-08
9.81764e-08
9.80661e-08
9.78884e-08
9.78892e-08
9.78892e-08
9.78884e-08
9.80892e-08
9.80838e-08
9.81796e-08
9.81516e-08
9.80647e-08
9.8103e-08
9.81027e-08
9.81008e-08
9.81028e-08
9.80838e-08
9.81864e-08
9.81772e-08
9.81751e-08
9.80682e-08
9.81792e-08
9.81795e-08
9.70044e-08
9.69958e-08
9.70032e-08
9.68998e-08
9.68956e-08
9.68995e-08
9.68972e-08
9.70249e-08
9.70005e-08
9.70029e-08
9.68933e-08
9.67404e-08
9.6741e-08
9.6741e-08
9.67404e-08
9.69157e-08
9.69136e-08
9.68996e-08
9.67403e-08
9.67432e-08
9.67424e-08
9.67424e-08
9.67432e-08
9.67404e-08
9.69527e-08
9.70257e-08
9.70043e-08
9.68955e-08
9.67409e-08
9.67424e-08
9.67421e-08
9.67421e-08
9.67424e-08
9.67409e-08
9.69524e-08
9.70237e-08
9.69957e-08
9.68994e-08
9.67409e-08
9.67423e-08
9.67421e-08
9.67421e-08
9.67424e-08
9.67409e-08
9.69504e-08
9.69177e-08
9.68971e-08
9.67404e-08
9.67432e-08
9.67423e-08
9.67423e-08
9.67432e-08
9.67404e-08
9.69522e-08
9.70277e-08
9.70248e-08
9.69156e-08
9.67403e-08
9.67409e-08
9.67409e-08
9.67403e-08
9.69387e-08
9.69333e-08
9.7028e-08
9.70004e-08
9.69135e-08
9.69526e-08
9.69523e-08
9.69502e-08
9.6952e-08
9.69328e-08
9.70349e-08
9.70256e-08
9.70236e-08
9.69175e-08
9.70276e-08
9.70277e-08
9.58626e-08
9.58539e-08
9.58614e-08
9.57583e-08
9.57541e-08
9.57578e-08
9.57555e-08
9.58827e-08
9.58585e-08
9.58611e-08
9.57518e-08
9.55999e-08
9.56004e-08
9.56003e-08
9.55998e-08
9.57741e-08
9.57733e-08
9.57581e-08
9.55998e-08
9.56027e-08
9.56016e-08
9.56016e-08
9.56028e-08
9.55999e-08
9.58116e-08
9.58841e-08
9.58625e-08
9.5754e-08
9.56003e-08
9.56016e-08
9.56012e-08
9.56012e-08
9.56016e-08
9.56003e-08
9.58111e-08
9.5882e-08
9.58539e-08
9.57578e-08
9.56003e-08
9.56016e-08
9.56012e-08
9.56012e-08
9.56016e-08
9.56003e-08
9.5809e-08
9.57762e-08
9.57555e-08
9.55998e-08
9.56027e-08
9.56016e-08
9.56016e-08
9.56027e-08
9.55998e-08
9.58108e-08
9.58859e-08
9.58829e-08
9.57742e-08
9.55997e-08
9.56002e-08
9.56002e-08
9.55997e-08
9.57973e-08
9.57918e-08
9.58861e-08
9.58586e-08
9.57721e-08
9.58113e-08
9.5811e-08
9.58089e-08
9.58106e-08
9.57913e-08
9.58931e-08
9.58838e-08
9.58818e-08
9.57761e-08
9.58857e-08
9.58858e-08
9.47241e-08
9.47154e-08
9.47229e-08
9.46199e-08
9.46157e-08
9.46194e-08
9.46172e-08
9.47444e-08
9.47202e-08
9.47226e-08
9.46134e-08
9.44617e-08
9.44622e-08
9.44622e-08
9.44617e-08
9.46358e-08
9.46338e-08
9.46197e-08
9.44616e-08
9.44649e-08
9.44634e-08
9.44634e-08
9.44649e-08
9.44616e-08
9.46731e-08
9.47454e-08
9.47239e-08
9.46155e-08
9.44621e-08
9.44634e-08
9.44628e-08
9.44628e-08
9.44634e-08
9.44621e-08
9.46727e-08
9.47434e-08
9.47153e-08
9.46193e-08
9.44621e-08
9.44634e-08
9.44628e-08
9.44628e-08
9.44634e-08
9.44621e-08
9.46706e-08
9.46378e-08
9.46171e-08
9.44616e-08
9.44649e-08
9.44634e-08
9.44634e-08
9.44649e-08
9.44616e-08
9.46724e-08
9.47473e-08
9.47443e-08
9.46357e-08
9.44615e-08
9.4462e-08
9.4462e-08
9.44615e-08
9.46588e-08
9.46533e-08
9.47475e-08
9.47201e-08
9.46337e-08
9.4673e-08
9.46726e-08
9.46705e-08
9.46722e-08
9.46529e-08
9.47545e-08
9.47453e-08
9.47433e-08
9.46376e-08
9.47472e-08
9.47473e-08
9.35865e-08
9.35778e-08
9.35852e-08
9.34823e-08
9.34781e-08
9.34818e-08
9.34796e-08
9.36068e-08
9.35826e-08
9.3585e-08
9.34758e-08
9.33242e-08
9.33246e-08
9.33246e-08
9.33242e-08
9.34983e-08
9.34962e-08
9.34821e-08
9.33241e-08
9.33271e-08
9.33259e-08
9.33259e-08
9.33271e-08
9.33242e-08
9.35356e-08
9.36078e-08
9.35863e-08
9.34779e-08
9.33246e-08
9.33259e-08
9.33253e-08
9.33253e-08
9.33259e-08
9.33246e-08
9.35351e-08
9.36058e-08
9.35777e-08
9.34817e-08
9.33246e-08
9.33259e-08
9.33253e-08
9.33253e-08
9.33259e-08
9.33246e-08
9.35331e-08
9.35002e-08
9.34795e-08
9.33241e-08
9.33271e-08
9.33259e-08
9.33259e-08
9.33271e-08
9.33242e-08
9.35348e-08
9.36097e-08
9.36067e-08
9.34982e-08
9.33241e-08
9.33245e-08
9.33245e-08
9.33241e-08
9.35213e-08
9.35158e-08
9.36099e-08
9.35825e-08
9.34961e-08
9.35354e-08
9.3535e-08
9.35329e-08
9.35346e-08
9.35153e-08
9.36169e-08
9.36077e-08
9.36057e-08
9.35001e-08
9.36096e-08
9.36097e-08
9.2449e-08
9.24404e-08
9.24479e-08
9.23449e-08
9.23407e-08
9.23444e-08
9.23421e-08
9.24692e-08
9.2445e-08
9.24476e-08
9.23384e-08
9.21868e-08
9.21873e-08
9.21873e-08
9.21868e-08
9.23607e-08
9.23599e-08
9.23447e-08
9.21868e-08
9.21897e-08
9.21886e-08
9.21886e-08
9.21898e-08
9.21868e-08
9.23984e-08
9.24705e-08
9.24489e-08
9.23406e-08
9.21872e-08
9.21886e-08
9.21879e-08
9.21879e-08
9.21886e-08
9.21873e-08
9.23978e-08
9.24685e-08
9.24403e-08
9.23443e-08
9.21872e-08
9.21885e-08
9.21879e-08
9.21879e-08
9.21886e-08
9.21872e-08
9.23957e-08
9.23629e-08
9.23421e-08
9.21868e-08
9.21897e-08
9.21885e-08
9.21885e-08
9.21897e-08
9.21868e-08
9.23974e-08
9.24724e-08
9.24693e-08
9.23608e-08
9.21867e-08
9.21872e-08
9.21872e-08
9.21867e-08
9.23839e-08
9.23784e-08
9.24725e-08
9.24451e-08
9.23588e-08
9.23981e-08
9.23977e-08
9.23956e-08
9.23972e-08
9.23779e-08
9.24796e-08
9.24703e-08
9.24683e-08
9.23627e-08
9.24722e-08
9.24723e-08
9.13117e-08
9.13031e-08
9.13105e-08
9.12076e-08
9.12034e-08
9.12071e-08
9.12049e-08
9.1332e-08
9.13079e-08
9.13102e-08
9.12011e-08
9.10495e-08
9.10499e-08
9.10499e-08
9.10495e-08
9.12235e-08
9.12215e-08
9.12074e-08
9.10495e-08
9.10524e-08
9.10513e-08
9.10513e-08
9.10524e-08
9.10495e-08
9.12608e-08
9.13331e-08
9.13116e-08
9.12032e-08
9.10499e-08
9.10512e-08
9.10506e-08
9.10506e-08
9.10513e-08
9.10499e-08
9.12604e-08
9.13311e-08
9.1303e-08
9.1207e-08
9.10499e-08
9.10512e-08
9.10506e-08
9.10506e-08
9.10512e-08
9.10499e-08
9.12584e-08
9.12255e-08
9.12048e-08
9.10495e-08
9.10524e-08
9.10512e-08
9.10512e-08
9.10524e-08
9.10495e-08
9.12601e-08
9.1335e-08
9.1332e-08
9.12235e-08
9.10494e-08
9.10499e-08
9.10499e-08
9.10494e-08
9.12466e-08
9.12411e-08
9.13352e-08
9.13078e-08
9.12214e-08
9.12608e-08
9.12604e-08
9.12583e-08
9.12599e-08
9.12406e-08
9.13422e-08
9.1333e-08
9.1331e-08
9.12254e-08
9.13349e-08
9.1335e-08
9.01744e-08
9.01658e-08
9.01732e-08
9.00703e-08
9.0066e-08
9.00698e-08
9.00675e-08
9.01947e-08
9.01706e-08
9.01729e-08
9.00638e-08
8.99122e-08
8.99126e-08
8.99126e-08
8.99122e-08
9.00862e-08
9.00842e-08
9.00701e-08
8.99121e-08
8.99151e-08
8.9914e-08
8.9914e-08
8.99151e-08
8.99122e-08
9.01235e-08
9.01957e-08
9.01743e-08
9.00659e-08
8.99126e-08
8.99139e-08
8.99133e-08
8.99133e-08
8.99139e-08
8.99126e-08
9.01231e-08
9.01938e-08
9.01657e-08
9.00697e-08
8.99126e-08
8.99139e-08
8.99133e-08
8.99133e-08
8.99139e-08
8.99126e-08
9.01211e-08
9.00882e-08
9.00675e-08
8.99122e-08
8.99151e-08
8.99139e-08
8.99139e-08
8.99151e-08
8.99122e-08
9.01228e-08
9.01977e-08
9.01947e-08
9.00862e-08
8.99121e-08
8.99126e-08
8.99126e-08
8.99121e-08
9.01093e-08
9.01038e-08
9.01979e-08
9.01705e-08
9.00841e-08
9.01235e-08
9.01231e-08
9.0121e-08
9.01226e-08
9.01033e-08
9.02049e-08
9.01957e-08
9.01937e-08
9.00881e-08
9.01976e-08
9.01977e-08
8.90371e-08
8.90284e-08
8.90359e-08
8.8933e-08
8.89287e-08
8.89324e-08
8.89301e-08
8.90572e-08
8.9033e-08
8.90356e-08
8.89264e-08
8.87749e-08
8.87753e-08
8.87753e-08
8.87749e-08
8.89488e-08
8.8948e-08
8.89327e-08
8.87748e-08
8.87778e-08
8.87766e-08
8.87766e-08
8.87778e-08
8.87749e-08
8.89864e-08
8.90586e-08
8.90369e-08
8.89286e-08
8.87752e-08
8.87766e-08
8.8776e-08
8.8776e-08
8.87766e-08
8.87753e-08
8.89859e-08
8.90565e-08
8.90283e-08
8.89323e-08
8.87752e-08
8.87766e-08
8.8776e-08
8.8776e-08
8.87766e-08
8.87753e-08
8.89838e-08
8.89509e-08
8.893e-08
8.87748e-08
8.87778e-08
8.87766e-08
8.87766e-08
8.87778e-08
8.87749e-08
8.89854e-08
8.90603e-08
8.90571e-08
8.89487e-08
8.87749e-08
8.87753e-08
8.87753e-08
8.87749e-08
8.8972e-08
8.8966e-08
8.90604e-08
8.9033e-08
8.89479e-08
8.89864e-08
8.89859e-08
8.89838e-08
8.89855e-08
8.89665e-08
8.90676e-08
8.90586e-08
8.90565e-08
8.89509e-08
8.90604e-08
8.90606e-08
8.78998e-08
8.78911e-08
8.78986e-08
8.77956e-08
8.77914e-08
8.77951e-08
8.77928e-08
8.79199e-08
8.78957e-08
8.78983e-08
8.77891e-08
8.76376e-08
8.7638e-08
8.7638e-08
8.76376e-08
8.78115e-08
8.78107e-08
8.77954e-08
8.76375e-08
8.76405e-08
8.76393e-08
8.76393e-08
8.76405e-08
8.76376e-08
8.78491e-08
8.79213e-08
8.78996e-08
8.77912e-08
8.76379e-08
8.76393e-08
8.76386e-08
8.76387e-08
8.76393e-08
8.7638e-08
8.78486e-08
8.79193e-08
8.7891e-08
8.7795e-08
8.76379e-08
8.76393e-08
8.76386e-08
8.76387e-08
8.76393e-08
8.7638e-08
8.78465e-08
8.78136e-08
8.77927e-08
8.76375e-08
8.76405e-08
8.76393e-08
8.76393e-08
8.76405e-08
8.76376e-08
8.78482e-08
8.79231e-08
8.79198e-08
8.78114e-08
8.76375e-08
8.7638e-08
8.7638e-08
8.76375e-08
8.78347e-08
8.78292e-08
8.79233e-08
8.78957e-08
8.78106e-08
8.78491e-08
8.78485e-08
8.78464e-08
8.7848e-08
8.78287e-08
8.79303e-08
8.79212e-08
8.79192e-08
8.78135e-08
8.7923e-08
8.79231e-08
8.67625e-08
8.67538e-08
8.67613e-08
8.66584e-08
8.66541e-08
8.66578e-08
8.66555e-08
8.67826e-08
8.67584e-08
8.6761e-08
8.66518e-08
8.65003e-08
8.65007e-08
8.65007e-08
8.65003e-08
8.66742e-08
8.66734e-08
8.66582e-08
8.65002e-08
8.65032e-08
8.6502e-08
8.6502e-08
8.65032e-08
8.65003e-08
8.67118e-08
8.6784e-08
8.67623e-08
8.6654e-08
8.65006e-08
8.6502e-08
8.65013e-08
8.65014e-08
8.6502e-08
8.65007e-08
8.67113e-08
8.6782e-08
8.67537e-08
8.66578e-08
8.65006e-08
8.6502e-08
8.65013e-08
8.65013e-08
8.6502e-08
8.65007e-08
8.67092e-08
8.66763e-08
8.66555e-08
8.65002e-08
8.65031e-08
8.6502e-08
8.6502e-08
8.65032e-08
8.65003e-08
8.67109e-08
8.67858e-08
8.67827e-08
8.66742e-08
8.65002e-08
8.65006e-08
8.65006e-08
8.65002e-08
8.66973e-08
8.66919e-08
8.6786e-08
8.67586e-08
8.66722e-08
8.67115e-08
8.67111e-08
8.6709e-08
8.67107e-08
8.66914e-08
8.6793e-08
8.67838e-08
8.67818e-08
8.66761e-08
8.67856e-08
8.67857e-08
8.56252e-08
8.56166e-08
8.5624e-08
8.55211e-08
8.55168e-08
8.55206e-08
8.55183e-08
8.56455e-08
8.56213e-08
8.56237e-08
8.55145e-08
8.5363e-08
8.53634e-08
8.53634e-08
8.5363e-08
8.5537e-08
8.5535e-08
8.55209e-08
8.53629e-08
8.53659e-08
8.53647e-08
8.53647e-08
8.53659e-08
8.5363e-08
8.55743e-08
8.56465e-08
8.56251e-08
8.55167e-08
8.53633e-08
8.53647e-08
8.5364e-08
8.5364e-08
8.53647e-08
8.53634e-08
8.55739e-08
8.56446e-08
8.56165e-08
8.55205e-08
8.53633e-08
8.53647e-08
8.5364e-08
8.5364e-08
8.53647e-08
8.53634e-08
8.55719e-08
8.5539e-08
8.55182e-08
8.53629e-08
8.53658e-08
8.53647e-08
8.53647e-08
8.53658e-08
8.5363e-08
8.55736e-08
8.56485e-08
8.56454e-08
8.55369e-08
8.53629e-08
8.53633e-08
8.53633e-08
8.53629e-08
8.556e-08
8.55545e-08
8.56487e-08
8.56212e-08
8.55349e-08
8.55742e-08
8.55738e-08
8.55717e-08
8.55734e-08
8.55541e-08
8.56557e-08
8.56464e-08
8.56444e-08
8.55388e-08
8.56483e-08
8.56484e-08
8.44878e-08
8.44792e-08
8.44867e-08
8.43837e-08
8.43795e-08
8.43832e-08
8.43809e-08
8.4508e-08
8.44838e-08
8.44864e-08
8.43772e-08
8.42256e-08
8.42261e-08
8.42261e-08
8.42256e-08
8.43995e-08
8.43988e-08
8.43835e-08
8.42256e-08
8.42285e-08
8.42274e-08
8.42274e-08
8.42286e-08
8.42257e-08
8.44372e-08
8.45094e-08
8.44877e-08
8.43794e-08
8.4226e-08
8.42274e-08
8.42267e-08
8.42267e-08
8.42274e-08
8.42261e-08
8.44367e-08
8.45073e-08
8.44791e-08
8.43831e-08
8.4226e-08
8.42274e-08
8.42267e-08
8.42267e-08
8.42274e-08
8.42261e-08
8.44346e-08
8.44017e-08
8.43809e-08
8.42256e-08
8.42285e-08
8.42274e-08
8.42274e-08
8.42285e-08
8.42257e-08
8.44363e-08
8.45112e-08
8.45081e-08
8.43996e-08
8.42256e-08
8.4226e-08
8.4226e-08
8.42256e-08
8.44227e-08
8.44172e-08
8.45114e-08
8.44839e-08
8.43976e-08
8.44369e-08
8.44365e-08
8.44344e-08
8.44361e-08
8.44167e-08
8.45184e-08
8.45091e-08
8.45071e-08
8.44015e-08
8.4511e-08
8.45111e-08
8.33505e-08
8.33419e-08
8.33493e-08
8.32464e-08
8.32421e-08
8.32458e-08
8.32435e-08
8.33706e-08
8.33465e-08
8.3349e-08
8.32399e-08
8.30883e-08
8.30887e-08
8.30887e-08
8.30883e-08
8.32622e-08
8.32614e-08
8.32462e-08
8.30883e-08
8.30912e-08
8.30901e-08
8.30901e-08
8.30912e-08
8.30884e-08
8.32999e-08
8.33721e-08
8.33504e-08
8.3242e-08
8.30887e-08
8.309e-08
8.30894e-08
8.30894e-08
8.30901e-08
8.30888e-08
8.32994e-08
8.337e-08
8.33418e-08
8.32458e-08
8.30887e-08
8.309e-08
8.30894e-08
8.30894e-08
8.30901e-08
8.30888e-08
8.32973e-08
8.32644e-08
8.32436e-08
8.30883e-08
8.30912e-08
8.309e-08
8.309e-08
8.30912e-08
8.30883e-08
8.32989e-08
8.33739e-08
8.33708e-08
8.32623e-08
8.30882e-08
8.30887e-08
8.30887e-08
8.30882e-08
8.32854e-08
8.32799e-08
8.33741e-08
8.33466e-08
8.32602e-08
8.32996e-08
8.32992e-08
8.32971e-08
8.32987e-08
8.32794e-08
8.33811e-08
8.33718e-08
8.33698e-08
8.32642e-08
8.33737e-08
8.33738e-08
8.22132e-08
8.22045e-08
8.2212e-08
8.2109e-08
8.21048e-08
8.21085e-08
8.21062e-08
8.22333e-08
8.22092e-08
8.22117e-08
8.21025e-08
8.1951e-08
8.19514e-08
8.19514e-08
8.1951e-08
8.21249e-08
8.21241e-08
8.21089e-08
8.19509e-08
8.19539e-08
8.19527e-08
8.19527e-08
8.19539e-08
8.1951e-08
8.21626e-08
8.22347e-08
8.22131e-08
8.21047e-08
8.19514e-08
8.19527e-08
8.19521e-08
8.19521e-08
8.19527e-08
8.19514e-08
8.2162e-08
8.22327e-08
8.22045e-08
8.21085e-08
8.19514e-08
8.19527e-08
8.1952e-08
8.19521e-08
8.19527e-08
8.19514e-08
8.21599e-08
8.21271e-08
8.21063e-08
8.1951e-08
8.19539e-08
8.19527e-08
8.19527e-08
8.19539e-08
8.1951e-08
8.21616e-08
8.22366e-08
8.22335e-08
8.2125e-08
8.19509e-08
8.19513e-08
8.19513e-08
8.19509e-08
8.21481e-08
8.21426e-08
8.22367e-08
8.22093e-08
8.21229e-08
8.21622e-08
8.21618e-08
8.21598e-08
8.21614e-08
8.21421e-08
8.22437e-08
8.22345e-08
8.22325e-08
8.21268e-08
8.22364e-08
8.22364e-08
8.10757e-08
8.10671e-08
8.10744e-08
8.09715e-08
8.09674e-08
8.09711e-08
8.09688e-08
8.10959e-08
8.10718e-08
8.10746e-08
8.09652e-08
8.08136e-08
8.0814e-08
8.0814e-08
8.08136e-08
8.09875e-08
8.09868e-08
8.09717e-08
8.08136e-08
8.08165e-08
8.08154e-08
8.08154e-08
8.08166e-08
8.08137e-08
8.10252e-08
8.10974e-08
8.10758e-08
8.09674e-08
8.0814e-08
8.08154e-08
8.08147e-08
8.08147e-08
8.08154e-08
8.08141e-08
8.10247e-08
8.10954e-08
8.10672e-08
8.09712e-08
8.0814e-08
8.08154e-08
8.08147e-08
8.08147e-08
8.08154e-08
8.08141e-08
8.10226e-08
8.09897e-08
8.09689e-08
8.08136e-08
8.08165e-08
8.08154e-08
8.08154e-08
8.08166e-08
8.08137e-08
8.10243e-08
8.10992e-08
8.10961e-08
8.09876e-08
8.08136e-08
8.0814e-08
8.0814e-08
8.08136e-08
8.10107e-08
8.10053e-08
8.10994e-08
8.1072e-08
8.09856e-08
8.10249e-08
8.10245e-08
8.10224e-08
8.10241e-08
8.10048e-08
8.11064e-08
8.10971e-08
8.10952e-08
8.09895e-08
8.1099e-08
8.10991e-08
7.99385e-08
7.99298e-08
7.99373e-08
7.98344e-08
7.98301e-08
7.98338e-08
7.98315e-08
7.99586e-08
7.99345e-08
7.9937e-08
7.98278e-08
7.96763e-08
7.96767e-08
7.96767e-08
7.96763e-08
7.98502e-08
7.98494e-08
7.98342e-08
7.96762e-08
7.96792e-08
7.96781e-08
7.96781e-08
7.96792e-08
7.96763e-08
7.98879e-08
7.996e-08
7.99384e-08
7.983e-08
7.96767e-08
7.9678e-08
7.96774e-08
7.96774e-08
7.96781e-08
7.96768e-08
7.98874e-08
7.9958e-08
7.99298e-08
7.98338e-08
7.96767e-08
7.9678e-08
7.96774e-08
7.96774e-08
7.96781e-08
7.96768e-08
7.98852e-08
7.98524e-08
7.98315e-08
7.96763e-08
7.96792e-08
7.96781e-08
7.96781e-08
7.96792e-08
7.96763e-08
7.98869e-08
7.99619e-08
7.99586e-08
7.98502e-08
7.96763e-08
7.96767e-08
7.96767e-08
7.96763e-08
7.98734e-08
7.98679e-08
7.99621e-08
7.99344e-08
7.98494e-08
7.98878e-08
7.98873e-08
7.98852e-08
7.98868e-08
7.98675e-08
7.99691e-08
7.996e-08
7.99579e-08
7.98523e-08
7.99618e-08
7.99618e-08
7.88012e-08
7.87925e-08
7.88e-08
7.86971e-08
7.86928e-08
7.86965e-08
7.86942e-08
7.88213e-08
7.87971e-08
7.87997e-08
7.86905e-08
7.8539e-08
7.85394e-08
7.85394e-08
7.8539e-08
7.87129e-08
7.87121e-08
7.86968e-08
7.85389e-08
7.85419e-08
7.85407e-08
7.85407e-08
7.85419e-08
7.8539e-08
7.87505e-08
7.88227e-08
7.8801e-08
7.86927e-08
7.85394e-08
7.85407e-08
7.85401e-08
7.85401e-08
7.85407e-08
7.85394e-08
7.875e-08
7.88206e-08
7.87924e-08
7.86964e-08
7.85394e-08
7.85407e-08
7.85401e-08
7.85401e-08
7.85407e-08
7.85394e-08
7.87478e-08
7.8715e-08
7.86941e-08
7.85389e-08
7.85419e-08
7.85407e-08
7.85407e-08
7.85419e-08
7.8539e-08
7.87495e-08
7.88244e-08
7.88212e-08
7.87128e-08
7.8539e-08
7.85394e-08
7.85394e-08
7.8539e-08
7.87361e-08
7.87301e-08
7.88245e-08
7.87971e-08
7.87121e-08
7.87505e-08
7.875e-08
7.87479e-08
7.87496e-08
7.87306e-08
7.88318e-08
7.88227e-08
7.88206e-08
7.8715e-08
7.88245e-08
7.88247e-08
7.76639e-08
7.76553e-08
7.76627e-08
7.75598e-08
7.75555e-08
7.75593e-08
7.7557e-08
7.76842e-08
7.766e-08
7.76624e-08
7.75532e-08
7.74017e-08
7.74021e-08
7.74021e-08
7.74017e-08
7.75757e-08
7.75736e-08
7.75596e-08
7.74016e-08
7.74046e-08
7.74034e-08
7.74034e-08
7.74046e-08
7.74016e-08
7.7613e-08
7.76852e-08
7.76638e-08
7.75554e-08
7.74021e-08
7.74034e-08
7.74027e-08
7.74027e-08
7.74034e-08
7.7402e-08
7.76126e-08
7.76832e-08
7.76552e-08
7.75592e-08
7.74021e-08
7.74034e-08
7.74027e-08
7.74027e-08
7.74034e-08
7.7402e-08
7.76105e-08
7.75776e-08
7.7557e-08
7.74017e-08
7.74046e-08
7.74034e-08
7.74034e-08
7.74046e-08
7.74016e-08
7.76121e-08
7.76871e-08
7.76842e-08
7.75757e-08
7.74016e-08
7.7402e-08
7.74021e-08
7.74017e-08
7.75988e-08
7.75928e-08
7.76872e-08
7.766e-08
7.75736e-08
7.7613e-08
7.76126e-08
7.76105e-08
7.76122e-08
7.75933e-08
7.76944e-08
7.76852e-08
7.76832e-08
7.75776e-08
7.76872e-08
7.76874e-08
7.65266e-08
7.6518e-08
7.65254e-08
7.64225e-08
7.64182e-08
7.64219e-08
7.64197e-08
7.65469e-08
7.65227e-08
7.65251e-08
7.64159e-08
7.62644e-08
7.62648e-08
7.62648e-08
7.62644e-08
7.64384e-08
7.64363e-08
7.64223e-08
7.62643e-08
7.62673e-08
7.62661e-08
7.62661e-08
7.62673e-08
7.62643e-08
7.64757e-08
7.65479e-08
7.65265e-08
7.64181e-08
7.62647e-08
7.62661e-08
7.62654e-08
7.62654e-08
7.62661e-08
7.62648e-08
7.64753e-08
7.65459e-08
7.65179e-08
7.64219e-08
7.62647e-08
7.62661e-08
7.62654e-08
7.62654e-08
7.62661e-08
7.62648e-08
7.64732e-08
7.64403e-08
7.64196e-08
7.62643e-08
7.62672e-08
7.62661e-08
7.62661e-08
7.62672e-08
7.62643e-08
7.64749e-08
7.65499e-08
7.65468e-08
7.64383e-08
7.62643e-08
7.62647e-08
7.62647e-08
7.62643e-08
7.64614e-08
7.64559e-08
7.655e-08
7.65227e-08
7.64363e-08
7.64756e-08
7.64752e-08
7.64731e-08
7.64748e-08
7.64555e-08
7.65571e-08
7.65478e-08
7.65459e-08
7.64402e-08
7.65497e-08
7.65498e-08
7.53892e-08
7.53806e-08
7.5388e-08
7.52851e-08
7.52808e-08
7.52845e-08
7.52822e-08
7.54093e-08
7.53852e-08
7.53878e-08
7.52786e-08
7.5127e-08
7.51274e-08
7.51274e-08
7.5127e-08
7.53009e-08
7.53001e-08
7.52849e-08
7.5127e-08
7.51299e-08
7.51288e-08
7.51288e-08
7.51299e-08
7.5127e-08
7.53386e-08
7.54107e-08
7.53891e-08
7.52808e-08
7.51274e-08
7.51288e-08
7.51281e-08
7.51281e-08
7.51288e-08
7.51274e-08
7.5338e-08
7.54087e-08
7.53805e-08
7.52845e-08
7.51274e-08
7.51288e-08
7.51281e-08
7.51281e-08
7.51288e-08
7.51274e-08
7.53359e-08
7.53031e-08
7.52823e-08
7.5127e-08
7.51299e-08
7.51288e-08
7.51288e-08
7.51299e-08
7.5127e-08
7.53376e-08
7.54126e-08
7.54095e-08
7.5301e-08
7.5127e-08
7.51274e-08
7.51274e-08
7.5127e-08
7.53241e-08
7.53186e-08
7.54127e-08
7.53853e-08
7.5299e-08
7.53383e-08
7.53379e-08
7.53358e-08
7.53375e-08
7.53182e-08
7.54198e-08
7.54105e-08
7.54085e-08
7.53029e-08
7.54124e-08
7.54125e-08
7.42518e-08
7.42432e-08
7.42504e-08
7.41476e-08
7.41434e-08
7.41471e-08
7.41449e-08
7.4272e-08
7.42478e-08
7.42507e-08
7.41412e-08
7.39896e-08
7.39901e-08
7.39901e-08
7.39896e-08
7.41636e-08
7.41628e-08
7.41478e-08
7.39897e-08
7.39926e-08
7.39914e-08
7.39914e-08
7.39926e-08
7.39897e-08
7.42012e-08
7.42734e-08
7.42518e-08
7.41435e-08
7.39901e-08
7.39914e-08
7.39908e-08
7.39908e-08
7.39914e-08
7.39901e-08
7.42007e-08
7.42713e-08
7.42432e-08
7.41472e-08
7.39901e-08
7.39914e-08
7.39908e-08
7.39908e-08
7.39914e-08
7.39901e-08
7.41986e-08
7.41657e-08
7.41449e-08
7.39897e-08
7.39926e-08
7.39914e-08
7.39914e-08
7.39926e-08
7.39897e-08
7.42002e-08
7.42752e-08
7.4272e-08
7.41636e-08
7.39897e-08
7.39901e-08
7.39901e-08
7.39897e-08
7.41868e-08
7.41808e-08
7.42752e-08
7.42478e-08
7.41628e-08
7.42012e-08
7.42007e-08
7.41986e-08
7.42003e-08
7.41813e-08
7.42825e-08
7.42734e-08
7.42713e-08
7.41657e-08
7.42752e-08
7.42754e-08
7.31144e-08
7.31058e-08
7.31131e-08
7.30102e-08
7.30061e-08
7.30098e-08
7.30075e-08
7.31346e-08
7.31105e-08
7.31133e-08
7.30039e-08
7.28523e-08
7.28527e-08
7.28527e-08
7.28523e-08
7.30262e-08
7.30254e-08
7.30104e-08
7.28523e-08
7.28552e-08
7.28541e-08
7.28541e-08
7.28553e-08
7.28523e-08
7.30639e-08
7.3136e-08
7.31145e-08
7.30061e-08
7.28527e-08
7.28541e-08
7.28534e-08
7.28534e-08
7.28541e-08
7.28528e-08
7.30633e-08
7.3134e-08
7.31059e-08
7.30099e-08
7.28527e-08
7.28541e-08
7.28534e-08
7.28534e-08
7.28541e-08
7.28528e-08
7.30612e-08
7.30283e-08
7.30076e-08
7.28523e-08
7.28553e-08
7.28541e-08
7.28541e-08
7.28553e-08
7.28523e-08
7.30628e-08
7.31378e-08
7.31346e-08
7.30262e-08
7.28524e-08
7.28528e-08
7.28528e-08
7.28524e-08
7.30495e-08
7.30435e-08
7.31379e-08
7.31105e-08
7.30254e-08
7.30639e-08
7.30634e-08
7.30613e-08
7.3063e-08
7.3044e-08
7.31451e-08
7.31361e-08
7.3134e-08
7.30284e-08
7.31379e-08
7.31381e-08
7.19772e-08
7.19686e-08
7.1976e-08
7.18731e-08
7.18688e-08
7.18726e-08
7.18703e-08
7.19975e-08
7.19734e-08
7.19758e-08
7.18666e-08
7.1715e-08
7.17154e-08
7.17154e-08
7.1715e-08
7.1889e-08
7.1887e-08
7.18729e-08
7.1715e-08
7.17179e-08
7.17168e-08
7.17168e-08
7.17179e-08
7.1715e-08
7.19264e-08
7.19986e-08
7.19771e-08
7.18687e-08
7.17154e-08
7.17168e-08
7.17161e-08
7.17161e-08
7.17168e-08
7.17154e-08
7.1926e-08
7.19966e-08
7.19685e-08
7.18725e-08
7.17154e-08
7.17167e-08
7.17161e-08
7.17161e-08
7.17168e-08
7.17154e-08
7.19239e-08
7.1891e-08
7.18703e-08
7.1715e-08
7.17179e-08
7.17167e-08
7.17167e-08
7.17179e-08
7.1715e-08
7.19256e-08
7.20005e-08
7.19975e-08
7.1889e-08
7.17149e-08
7.17154e-08
7.17154e-08
7.1715e-08
7.19121e-08
7.19066e-08
7.20007e-08