/*--------------------------------*- C++ -*----------------------------------*\
| =========                 |                                                 |
| \\      /  F ield         | OpenFOAM: The Open Source CFD Toolbox           |
|  \\    /   O peration     | Version:  2312                                  |
|   \\  /    A nd           | Website:  www.openfoam.com                      |
|    \\/     M anipulation  |                                                 |
\*---------------------------------------------------------------------------*/
FoamFile
{
    version     2.0;
    format      ascii;
    arch        "LSB;label=32;scalar=64";
    class       volScalarField;
    location    "550";
    object      k;
}
// * * * * * * * * * * * * * * * * * * * * * * * * * * * * * * * * * * * * * //

dimensions      [0 2 -2 0 0 0 0];

internalField   nonuniform List<scalar> 
42840
(
1.45936e-05
1.62411e-05
1.62418e-05
1.86872e-05
1.4315e-05
1.6464e-05
1.64646e-05
1.93857e-05
1.40822e-05
1.67738e-05
1.67744e-05
2.01777e-05
1.38949e-05
1.71675e-05
1.71682e-05
2.10522e-05
1.37527e-05
1.76416e-05
1.76424e-05
2.19951e-05
1.36556e-05
1.8192e-05
1.81931e-05
2.29913e-05
1.36034e-05
1.88143e-05
1.88155e-05
2.40279e-05
1.3597e-05
1.95033e-05
1.95049e-05
2.5091e-05
1.36348e-05
2.02535e-05
2.02559e-05
2.61704e-05
1.37187e-05
2.10599e-05
2.10628e-05
2.724e-05
1.38485e-05
2.19159e-05
2.19193e-05
2.83119e-05
1.40244e-05
2.28152e-05
2.28195e-05
2.93743e-05
1.42466e-05
2.37514e-05
2.37557e-05
3.04176e-05
1.45151e-05
2.47178e-05
2.47225e-05
3.14327e-05
1.48298e-05
2.57087e-05
2.57132e-05
3.24431e-05
1.51903e-05
2.67173e-05
2.6722e-05
3.34163e-05
1.55962e-05
2.77377e-05
2.77427e-05
3.43806e-05
1.60466e-05
2.87645e-05
2.87694e-05
3.53011e-05
1.65403e-05
2.97927e-05
2.97976e-05
3.62195e-05
1.70757e-05
3.08186e-05
3.08232e-05
3.71169e-05
1.76513e-05
3.18371e-05
3.18418e-05
3.79735e-05
1.82647e-05
3.2844e-05
3.28489e-05
3.88264e-05
1.89135e-05
3.3836e-05
3.38408e-05
3.96374e-05
1.95947e-05
3.481e-05
3.48146e-05
4.04256e-05
2.0305e-05
3.5763e-05
3.57678e-05
4.12049e-05
1.86724e-05
1.92401e-05
1.62413e-05
1.62414e-05
1.64002e-05
1.64004e-05
1.86723e-05
1.92389e-05
1.62416e-05
1.62421e-05
1.64004e-05
1.64011e-05
1.62409e-05
1.63999e-05
1.64e-05
1.86734e-05
1.92389e-05
1.62421e-05
1.64006e-05
1.64011e-05
1.92185e-05
1.93723e-05
2.00141e-05
1.64644e-05
1.64646e-05
1.66887e-05
1.66891e-05
1.93724e-05
2.00147e-05
1.64646e-05
1.64653e-05
1.66888e-05
1.66896e-05
1.64641e-05
1.66882e-05
1.66886e-05
1.9373e-05
2.00149e-05
1.64651e-05
1.6689e-05
1.66896e-05
1.99914e-05
2.01637e-05
2.08713e-05
1.67743e-05
1.67748e-05
1.70619e-05
1.70627e-05
2.01635e-05
2.08733e-05
1.67744e-05
1.67753e-05
1.70619e-05
1.7063e-05
1.67742e-05
1.70613e-05
1.70621e-05
2.01634e-05
2.08725e-05
1.6775e-05
1.70621e-05
1.70627e-05
2.08462e-05
2.10357e-05
2.18005e-05
1.71682e-05
1.71689e-05
1.75165e-05
1.75173e-05
2.10359e-05
2.18014e-05
1.71682e-05
1.71693e-05
1.75165e-05
1.75177e-05
1.71684e-05
1.75157e-05
1.7517e-05
2.10361e-05
2.18018e-05
1.71688e-05
1.75166e-05
1.75173e-05
2.17728e-05
2.1976e-05
2.27852e-05
1.76427e-05
1.76433e-05
1.80488e-05
1.80493e-05
2.19762e-05
2.27858e-05
1.76425e-05
1.76438e-05
1.80483e-05
1.805e-05
1.7643e-05
1.80475e-05
1.80494e-05
2.19767e-05
2.27868e-05
1.76431e-05
1.80486e-05
1.80494e-05
2.27551e-05
2.29701e-05
2.38124e-05
1.81936e-05
1.81941e-05
1.86539e-05
1.86545e-05
2.29705e-05
2.38129e-05
1.8193e-05
1.81948e-05
1.86532e-05
1.86552e-05
1.81941e-05
1.86523e-05
1.8655e-05
2.29715e-05
2.38135e-05
1.81939e-05
1.86536e-05
1.86545e-05
2.37798e-05
2.40044e-05
2.48697e-05
1.88163e-05
1.88169e-05
1.93275e-05
1.93281e-05
2.40051e-05
2.4843e-05
1.88154e-05
1.88176e-05
1.93264e-05
1.93287e-05
1.88171e-05
1.93254e-05
1.93286e-05
2.40051e-05
2.48696e-05
1.88166e-05
1.93268e-05
1.93279e-05
2.48336e-05
2.50666e-05
2.59426e-05
1.9506e-05
1.95065e-05
2.00639e-05
2.0064e-05
2.50754e-05
2.59134e-05
1.95049e-05
1.95073e-05
2.00625e-05
2.00651e-05
1.95069e-05
2.00607e-05
2.00649e-05
2.50668e-05
2.59424e-05
1.95061e-05
2.00629e-05
2.00641e-05
2.59027e-05
2.61425e-05
2.70101e-05
2.02572e-05
2.02572e-05
2.08577e-05
2.0857e-05
2.614e-05
2.69993e-05
2.02559e-05
2.02586e-05
2.08559e-05
2.08588e-05
2.02581e-05
2.08534e-05
2.08583e-05
2.61427e-05
2.70197e-05
2.0257e-05
2.08564e-05
2.08573e-05
2.69914e-05
2.72317e-05
2.80843e-05
2.10644e-05
2.10637e-05
2.17026e-05
2.17014e-05
2.72219e-05
2.80753e-05
2.10627e-05
2.10658e-05
2.17005e-05
2.17037e-05
2.10651e-05
2.16975e-05
2.17028e-05
2.72283e-05
2.80474e-05
2.10637e-05
2.17011e-05
2.17013e-05
2.80552e-05
2.82925e-05
2.91379e-05
2.19211e-05
2.19201e-05
2.25923e-05
2.25908e-05
2.8285e-05
2.91323e-05
2.19191e-05
2.19223e-05
2.25899e-05
2.25934e-05
2.19214e-05
2.25867e-05
2.25923e-05
2.831e-05
2.9107e-05
2.19196e-05
2.25909e-05
2.25904e-05
2.9098e-05
2.93444e-05
3.01732e-05
2.28208e-05
2.28195e-05
2.352e-05
2.35185e-05
2.93484e-05
3.01746e-05
2.28185e-05
2.28223e-05
2.35174e-05
2.35212e-05
2.28211e-05
2.35143e-05
2.35203e-05
2.93741e-05
3.01836e-05
2.2819e-05
2.35188e-05
2.3518e-05
3.01393e-05
3.03876e-05
3.12009e-05
2.37571e-05
2.37557e-05
2.44798e-05
2.44778e-05
3.03873e-05
3.12058e-05
2.37546e-05
2.37585e-05
2.44769e-05
2.4481e-05
2.37575e-05
2.44738e-05
2.44796e-05
3.03936e-05
3.12016e-05
2.37551e-05
2.44786e-05
2.44772e-05
3.11813e-05
3.14173e-05
3.22106e-05
2.47238e-05
2.47221e-05
2.54653e-05
2.5463e-05
3.14089e-05
3.22053e-05
2.4721e-05
2.47251e-05
2.5462e-05
2.54662e-05
2.47239e-05
2.5459e-05
2.5465e-05
3.14045e-05
3.22165e-05
2.47213e-05
2.5464e-05
2.54622e-05
3.21797e-05
3.24193e-05
3.3171e-05
2.57147e-05
2.57128e-05
2.647e-05
2.64677e-05
3.24131e-05
3.31912e-05
2.57115e-05
2.57156e-05
2.64664e-05
2.64707e-05
2.57148e-05
2.64639e-05
2.64701e-05
3.24157e-05
3.31903e-05
2.57118e-05
2.64688e-05
2.64669e-05
3.31843e-05
3.34276e-05
3.41564e-05
2.67233e-05
2.67213e-05
2.74879e-05
2.74856e-05
3.33898e-05
3.41576e-05
2.672e-05
2.6724e-05
2.74844e-05
2.74885e-05
2.67238e-05
2.74819e-05
2.74886e-05
3.33936e-05
3.41389e-05
2.67204e-05
2.7487e-05
2.74849e-05
3.41496e-05
3.43751e-05
3.50804e-05
2.77436e-05
2.77416e-05
2.85134e-05
2.85113e-05
3.4361e-05
3.50753e-05
2.77402e-05
2.77443e-05
2.85098e-05
2.8514e-05
2.77448e-05
2.85076e-05
2.85148e-05
3.43854e-05
3.50819e-05
2.77408e-05
2.85128e-05
2.85106e-05
3.51082e-05
3.53264e-05
3.60042e-05
2.87703e-05
2.87683e-05
2.95411e-05
2.95393e-05
3.53199e-05
3.60034e-05
2.87668e-05
2.87706e-05
2.95374e-05
2.95415e-05
2.87721e-05
2.95358e-05
2.95433e-05
3.53141e-05
3.60049e-05
2.87676e-05
2.95409e-05
2.95388e-05
3.60284e-05
3.62268e-05
3.68953e-05
2.9798e-05
2.97963e-05
3.05673e-05
3.05658e-05
3.62309e-05
3.68975e-05
2.97944e-05
2.97983e-05
3.05636e-05
3.05676e-05
2.98004e-05
3.05627e-05
3.05701e-05
3.62306e-05
3.69e-05
2.97958e-05
3.05676e-05
3.05657e-05
3.69263e-05
3.7125e-05
3.7773e-05
3.08233e-05
3.08217e-05
3.15878e-05
3.15861e-05
3.71268e-05
3.7772e-05
3.08196e-05
3.08234e-05
3.15839e-05
3.15879e-05
3.0826e-05
3.15834e-05
3.15906e-05
3.71216e-05
3.77817e-05
3.08215e-05
3.15883e-05
3.15862e-05
3.77957e-05
3.79838e-05
3.863e-05
3.18415e-05
3.18398e-05
3.25978e-05
3.2596e-05
3.79905e-05
3.86386e-05
3.18377e-05
3.18416e-05
3.25939e-05
3.25979e-05
3.18444e-05
3.25935e-05
3.26011e-05
3.79886e-05
3.86208e-05
3.18399e-05
3.25987e-05
3.25967e-05
3.86466e-05
3.88263e-05
3.9436e-05
3.28484e-05
3.28464e-05
3.35936e-05
3.35918e-05
3.88171e-05
3.94607e-05
3.28445e-05
3.28484e-05
3.35897e-05
3.35939e-05
3.28517e-05
3.35896e-05
3.35972e-05
3.8834e-05
3.94562e-05
3.28472e-05
3.35948e-05
3.35929e-05
3.94628e-05
3.96519e-05
4.02421e-05
3.38401e-05
3.38382e-05
3.45718e-05
3.45701e-05
3.96337e-05
4.02623e-05
3.38362e-05
3.38403e-05
3.45681e-05
3.45724e-05
3.38437e-05
3.45682e-05
3.45759e-05
3.96444e-05
4.02644e-05
3.38393e-05
3.45732e-05
3.45717e-05
4.02645e-05
4.0437e-05
4.10262e-05
3.48134e-05
3.48118e-05
3.55299e-05
3.55283e-05
4.04298e-05
4.10191e-05
3.48096e-05
3.48139e-05
3.55261e-05
3.55307e-05
3.48177e-05
3.55267e-05
3.55345e-05
4.04314e-05
4.10372e-05
3.48133e-05
3.55318e-05
3.55302e-05
4.10395e-05
4.12044e-05
3.57662e-05
3.57645e-05
4.12064e-05
3.57623e-05
3.57668e-05
3.57707e-05
4.12021e-05
3.57663e-05
5.48454e-05
7.01022e-05
7.01241e-05
5.43665e-05
6.95613e-05
6.9543e-05
5.48471e-05
7.01041e-05
7.01259e-05
5.43662e-05
1.45933e-05
1.45937e-05
1.45935e-05
1.43803e-05
1.438e-05
1.43804e-05
1.43802e-05
3.10561e-05
4.64301e-05
1.4709e-05
1.62885e-05
4.68048e-05
1.46749e-05
3.04977e-05
6.95611e-05
6.95428e-05
3.10609e-05
1.47095e-05
4.643e-05
1.62892e-05
1.46754e-05
4.68086e-05
3.0497e-05
5.97065e-05
5.97158e-05
1.88698e-05
5.99076e-05
5.99164e-05
5.59474e-05
7.01541e-05
5.55435e-05
7.01732e-05
6.94939e-05
6.94776e-05
5.59486e-05
7.01559e-05
5.55432e-05
7.01749e-05
1.43148e-05
1.43152e-05
1.43149e-05
1.41362e-05
1.4136e-05
1.41363e-05
1.41362e-05
3.27281e-05
4.75465e-05
1.46024e-05
1.65333e-05
3.21836e-05
4.78918e-05
1.45854e-05
6.94938e-05
6.94774e-05
3.27334e-05
1.4603e-05
4.75483e-05
1.6534e-05
3.21852e-05
1.45859e-05
4.78921e-05
6.02904e-05
6.02977e-05
1.95968e-05
6.04685e-05
6.04763e-05
5.68649e-05
7.01993e-05
5.65228e-05
7.0216e-05
6.94326e-05
6.94181e-05
5.68658e-05
7.02006e-05
5.65219e-05
7.02174e-05
1.40821e-05
1.40824e-05
1.40822e-05
1.39376e-05
1.39375e-05
1.39377e-05
1.39376e-05
3.43364e-05
4.85687e-05
1.45652e-05
1.68644e-05
3.38159e-05
4.88846e-05
1.45668e-05
6.94325e-05
6.9418e-05
3.43409e-05
1.45658e-05
4.85712e-05
1.68651e-05
3.38182e-05
1.45675e-05
4.88856e-05
6.08119e-05
6.08197e-05
2.04123e-05
6.09726e-05
6.09815e-05
5.76342e-05
7.02381e-05
5.73408e-05
7.02531e-05
6.93771e-05
6.93646e-05
5.76348e-05
7.02391e-05
5.734e-05
7.02552e-05
1.38948e-05
1.38951e-05
1.38949e-05
1.37842e-05
1.37841e-05
1.37844e-05
1.37843e-05
3.58617e-05
4.95045e-05
1.45959e-05
1.72786e-05
3.53708e-05
4.97932e-05
1.46145e-05
6.93771e-05
6.93646e-05
3.58645e-05
1.45967e-05
4.95064e-05
1.72794e-05
3.53717e-05
1.46152e-05
4.97944e-05
6.1281e-05
6.12885e-05
2.13054e-05
6.14265e-05
6.14341e-05
5.8287e-05
7.0272e-05
5.80321e-05
7.02859e-05
6.93271e-05
6.93165e-05
5.82872e-05
7.0273e-05
5.80315e-05
7.02876e-05
1.37527e-05
1.37529e-05
1.37529e-05
1.36758e-05
1.36758e-05
1.36761e-05
1.3676e-05
3.72902e-05
5.03614e-05
1.46959e-05
1.77723e-05
3.68313e-05
5.06274e-05
1.47316e-05
6.93272e-05
6.93165e-05
3.72934e-05
1.46969e-05
5.03627e-05
1.77732e-05
3.68331e-05
1.47325e-05
5.06287e-05
6.17058e-05
6.17136e-05
2.22619e-05
6.18377e-05
6.18458e-05
5.8849e-05
7.03022e-05
5.86254e-05
7.0316e-05
6.92825e-05
6.92739e-05
5.88488e-05
7.0303e-05
5.8625e-05
7.03175e-05
1.36555e-05
1.36558e-05
1.36558e-05
1.36125e-05
1.36125e-05
1.36128e-05
1.36128e-05
3.86186e-05
5.11484e-05
1.4864e-05
1.83411e-05
3.81929e-05
5.13947e-05
1.49167e-05
6.92826e-05
6.92739e-05
3.86215e-05
1.48655e-05
5.11501e-05
1.83423e-05
3.81924e-05
1.4918e-05
5.13953e-05
6.20931e-05
6.2101e-05
2.32666e-05
6.22137e-05
6.22218e-05
5.93408e-05
7.03305e-05
5.91435e-05
7.03443e-05
6.92434e-05
6.92367e-05
5.93409e-05
7.03319e-05
5.91435e-05
7.03457e-05
1.36034e-05
1.36037e-05
1.36038e-05
1.35947e-05
1.35947e-05
1.35951e-05
1.35953e-05
3.98479e-05
5.1872e-05
1.50996e-05
1.89807e-05
3.9455e-05
5.21017e-05
1.51691e-05
6.92435e-05
6.92368e-05
3.98512e-05
1.51013e-05
5.18764e-05
1.89821e-05
3.94546e-05
1.51704e-05
5.2103e-05
6.24487e-05
6.24568e-05
2.43076e-05
6.25601e-05
6.25687e-05
5.97799e-05
7.03584e-05
5.9603e-05
7.03722e-05
6.92099e-05
6.92053e-05
5.97791e-05
7.03598e-05
5.96027e-05
7.03737e-05
1.3597e-05
1.35974e-05
1.35975e-05
1.3621e-05
1.3621e-05
1.36215e-05
1.36217e-05
4.09853e-05
5.25447e-05
1.54015e-05
1.96856e-05
4.06213e-05
5.27571e-05
1.54873e-05
6.92101e-05
6.92054e-05
4.099e-05
1.54035e-05
5.25476e-05
1.96874e-05
4.06203e-05
1.54889e-05
5.27612e-05
6.27782e-05
6.27866e-05
2.53711e-05
6.28828e-05
6.2891e-05
6.01774e-05
7.03865e-05
6.00158e-05
7.04011e-05
6.91822e-05
6.91797e-05
6.01767e-05
7.03884e-05
6.00159e-05
7.04024e-05
1.36347e-05
1.36353e-05
1.36355e-05
1.36936e-05
1.36934e-05
1.36941e-05
1.36943e-05
4.2042e-05
5.31706e-05
1.57684e-05
2.04503e-05
4.16954e-05
5.33688e-05
1.58701e-05
6.91824e-05
6.91799e-05
4.20471e-05
1.57706e-05
5.3174e-05
2.04528e-05
4.1695e-05
1.5872e-05
5.33733e-05
6.30862e-05
6.30952e-05
2.64567e-05
6.31849e-05
6.31935e-05
6.05415e-05
7.04162e-05
6.0393e-05
7.04318e-05
6.91604e-05
6.916e-05
6.05407e-05
7.0418e-05
6.03931e-05
7.04333e-05
1.37185e-05
1.37193e-05
1.37196e-05
1.38119e-05
1.38115e-05
1.38125e-05
1.38127e-05
4.3023e-05
5.37556e-05
1.61983e-05
2.12696e-05
4.26925e-05
5.39431e-05
1.63156e-05
6.91607e-05
6.91603e-05
4.30282e-05
1.6201e-05
5.37605e-05
2.12728e-05
4.26922e-05
1.63179e-05
5.39472e-05
6.33771e-05
6.33862e-05
2.75112e-05
6.34707e-05
6.34794e-05
6.08785e-05
7.04483e-05
6.07407e-05
7.04651e-05
6.91446e-05
6.91464e-05
6.08778e-05
7.045e-05
6.07404e-05
7.04667e-05
1.38482e-05
1.38492e-05
1.38494e-05
1.39763e-05
1.39758e-05
1.3977e-05
1.39771e-05
4.39369e-05
5.43087e-05
1.66888e-05
2.2137e-05
4.362e-05
5.44846e-05
1.68209e-05
6.9145e-05
6.91468e-05
4.39427e-05
1.66924e-05
5.43116e-05
2.21409e-05
4.36206e-05
1.68241e-05
5.44881e-05
6.36539e-05
6.36627e-05
2.8575e-05
6.37431e-05
6.37518e-05
6.11939e-05
7.04835e-05
6.10656e-05
7.05015e-05
6.91349e-05
6.91389e-05
6.11937e-05
7.04852e-05
6.10645e-05
7.05032e-05
1.4024e-05
1.40252e-05
1.40254e-05
1.41869e-05
1.41862e-05
1.41877e-05
1.41877e-05
4.47935e-05
5.48314e-05
1.72379e-05
2.30462e-05
4.44879e-05
5.49979e-05
1.73843e-05
6.91353e-05
6.91393e-05
4.47996e-05
1.72423e-05
5.48331e-05
2.30505e-05
4.44892e-05
1.73883e-05
5.50008e-05
6.39188e-05
6.39274e-05
2.96429e-05
6.40046e-05
6.4013e-05
6.14927e-05
7.0522e-05
6.13712e-05
7.05414e-05
6.91311e-05
6.91372e-05
6.14928e-05
7.05237e-05
6.13702e-05
7.05431e-05
1.42461e-05
1.42475e-05
1.42477e-05
1.44438e-05
1.4443e-05
1.44448e-05
1.44447e-05
4.5601e-05
5.53275e-05
1.78425e-05
2.39905e-05
4.53049e-05
5.54856e-05
1.80023e-05
6.91317e-05
6.91377e-05
4.56071e-05
1.78479e-05
5.53261e-05
2.39951e-05
4.53066e-05
1.80071e-05
5.54906e-05
6.41734e-05
6.41821e-05
3.0662e-05
6.42563e-05
6.42649e-05
6.17785e-05
7.05643e-05
6.16623e-05
7.05852e-05
6.91333e-05
6.91415e-05
6.17781e-05
7.05658e-05
6.16616e-05
7.05867e-05
1.45144e-05
1.45162e-05
1.45162e-05
1.47469e-05
1.4746e-05
1.47481e-05
1.47479e-05
4.63665e-05
5.57993e-05
1.84999e-05
2.49635e-05
4.60784e-05
5.59514e-05
1.86724e-05
6.91338e-05
6.9142e-05
4.63723e-05
1.85057e-05
5.57974e-05
2.49684e-05
4.60804e-05
1.86775e-05
5.5958e-05
6.44196e-05
6.44274e-05
3.16738e-05
6.44997e-05
6.45092e-05
6.20545e-05
7.06118e-05
6.19416e-05
7.06317e-05
6.91412e-05
6.91514e-05
6.20542e-05
7.06119e-05
6.19406e-05
7.06345e-05
1.4829e-05
1.48309e-05
1.48309e-05
1.5096e-05
1.50951e-05
1.50973e-05
1.50971e-05
4.70952e-05
5.62492e-05
1.92065e-05
2.59594e-05
4.68152e-05
5.63989e-05
1.93906e-05
6.91418e-05
6.9152e-05
4.71011e-05
1.92123e-05
5.62475e-05
2.59644e-05
4.6817e-05
1.93959e-05
5.64054e-05
6.46582e-05
6.46656e-05
3.26719e-05
6.47368e-05
6.47463e-05
6.23228e-05
7.06621e-05
6.22135e-05
7.06836e-05
6.91546e-05
6.91668e-05
6.23231e-05
7.06622e-05
6.22122e-05
7.06864e-05
1.51895e-05
1.51916e-05
1.51916e-05
1.54906e-05
1.54897e-05
1.54921e-05
1.54919e-05
4.77932e-05
5.66802e-05
1.99581e-05
2.69718e-05
4.75194e-05
5.68267e-05
2.01532e-05
6.91553e-05
6.91674e-05
4.77985e-05
1.99644e-05
5.6679e-05
2.69765e-05
4.75215e-05
2.01587e-05
5.68338e-05
6.48902e-05
6.48973e-05
3.36609e-05
6.49679e-05
6.4977e-05
6.25867e-05
7.07165e-05
6.24787e-05
7.07397e-05
6.91733e-05
6.91875e-05
6.25872e-05
7.07165e-05
6.2476e-05
7.07424e-05
1.55953e-05
1.55977e-05
1.55977e-05
1.59299e-05
1.5929e-05
1.59315e-05
1.59315e-05
4.84631e-05
5.70942e-05
2.07516e-05
2.79941e-05
4.81956e-05
5.72378e-05
2.09564e-05
6.9174e-05
6.9188e-05
4.84685e-05
2.07581e-05
5.70942e-05
2.79993e-05
4.81982e-05
2.09622e-05
5.72459e-05
6.51164e-05
6.51233e-05
3.46232e-05
6.51929e-05
6.52017e-05
6.2848e-05
7.0775e-05
6.27382e-05
7.07998e-05
6.91972e-05
6.92131e-05
6.28473e-05
7.0775e-05
6.27373e-05
7.08024e-05
1.60456e-05
1.60481e-05
1.60483e-05
1.64128e-05
1.64119e-05
1.64145e-05
1.64147e-05
4.9108e-05
5.74927e-05
2.15821e-05
2.90217e-05
4.88472e-05
5.76331e-05
2.17956e-05
6.91979e-05
6.92136e-05
4.91136e-05
2.15893e-05
5.74934e-05
2.90269e-05
4.88508e-05
2.18022e-05
5.76415e-05
6.53369e-05
6.53438e-05
3.55787e-05
6.54121e-05
6.54209e-05
6.31039e-05
7.08375e-05
6.29966e-05
7.08639e-05
6.92257e-05
6.92434e-05
6.31047e-05
7.08378e-05
6.29955e-05
7.08664e-05
1.65393e-05
1.65419e-05
1.65422e-05
1.6938e-05
1.69371e-05
1.69398e-05
1.69402e-05
4.97305e-05
5.78771e-05
2.24461e-05
3.00496e-05
4.94772e-05
5.80151e-05
2.26673e-05
6.92265e-05
6.92438e-05
4.97363e-05
2.24537e-05
5.78773e-05
3.00548e-05
4.94815e-05
2.26741e-05
5.80225e-05
6.55521e-05
6.55591e-05
3.64863e-05
6.5626e-05
6.56348e-05
6.33585e-05
7.09021e-05
6.32544e-05
7.09327e-05
6.92588e-05
6.92779e-05
6.336e-05
7.09037e-05
6.32523e-05
7.09341e-05
1.70748e-05
1.70775e-05
1.7078e-05
1.75037e-05
1.75028e-05
1.75057e-05
1.75062e-05
5.03325e-05
5.82479e-05
2.3339e-05
3.10741e-05
5.00878e-05
5.8383e-05
2.35667e-05
6.92595e-05
6.92784e-05
5.03384e-05
2.33467e-05
5.82481e-05
3.1079e-05
5.00922e-05
2.35736e-05
5.83907e-05
6.57623e-05
6.57695e-05
3.73588e-05
6.58349e-05
6.58437e-05
6.36129e-05
7.0972e-05
6.35063e-05
7.10038e-05
6.92959e-05
6.93164e-05
6.36133e-05
7.09734e-05
6.35068e-05
7.10052e-05
1.76504e-05
1.76532e-05
1.76539e-05
1.81079e-05
1.81071e-05
1.81101e-05
1.81108e-05
5.09152e-05
5.8606e-05
2.42563e-05
3.20899e-05
5.06789e-05
5.87377e-05
2.44896e-05
6.92967e-05
6.93171e-05
5.092e-05
2.42639e-05
5.86063e-05
3.2095e-05
5.06825e-05
2.44964e-05
5.8745e-05
6.59677e-05
6.59752e-05
3.82206e-05
6.60388e-05
6.60477e-05
6.38638e-05
7.1045e-05
6.37585e-05
7.10779e-05
6.93368e-05
6.93587e-05
6.38646e-05
7.10465e-05
6.37583e-05
7.10796e-05
1.82639e-05
1.82669e-05
1.82677e-05
1.87481e-05
1.87473e-05
1.87505e-05
1.87514e-05
5.14784e-05
5.89511e-05
2.51951e-05
3.30936e-05
5.125e-05
5.90799e-05
2.54331e-05
6.93379e-05
6.93595e-05
5.14829e-05
2.52024e-05
5.89512e-05
3.30987e-05
5.12531e-05
2.54396e-05
5.90867e-05
6.61683e-05
6.6176e-05
3.90543e-05
6.62378e-05
6.62468e-05
6.41113e-05
7.11208e-05
6.40078e-05
7.11549e-05
6.93813e-05
6.94044e-05
6.41129e-05
7.11225e-05
6.40075e-05
7.11567e-05
1.89127e-05
1.89159e-05
1.89169e-05
1.94215e-05
1.94208e-05
1.94242e-05
1.94253e-05
5.2024e-05
5.92846e-05
2.61516e-05
3.40812e-05
5.18018e-05
5.94105e-05
2.63933e-05
6.93824e-05
6.94054e-05
5.20261e-05
2.61585e-05
5.92847e-05
3.40862e-05
5.18052e-05
2.63995e-05
5.94168e-05
6.63641e-05
6.63719e-05
3.98666e-05
6.64319e-05
6.64412e-05
6.43555e-05
7.11993e-05
6.42557e-05
7.12335e-05
6.9429e-05
6.94535e-05
6.43573e-05
7.12012e-05
6.42537e-05
7.12363e-05
1.9594e-05
1.95974e-05
1.95986e-05
2.01248e-05
2.01243e-05
2.01279e-05
2.01292e-05
5.25483e-05
5.96069e-05
2.71212e-05
3.50502e-05
5.23339e-05
5.97294e-05
2.73652e-05
6.94303e-05
6.94546e-05
5.25511e-05
2.71279e-05
5.96072e-05
3.50552e-05
5.23367e-05
2.73714e-05
5.97356e-05
6.65551e-05
6.6563e-05
4.06623e-05
6.6621e-05
6.66305e-05
6.45945e-05
7.12813e-05
6.44968e-05
7.13147e-05
6.948e-05
6.95056e-05
6.45968e-05
7.12821e-05
6.4496e-05
7.1318e-05
2.03045e-05
2.03081e-05
2.03095e-05
5.30518e-05
5.99179e-05
2.80983e-05
3.59976e-05
5.28461e-05
6.00371e-05
2.83436e-05
6.94813e-05
6.95066e-05
5.30538e-05
2.81052e-05
5.99183e-05
3.60028e-05
5.28491e-05
2.83498e-05
6.00425e-05
6.67416e-05
6.6749e-05
4.14185e-05
6.68055e-05
6.68147e-05
6.95594e-05
6.95413e-05
6.95622e-05
6.95441e-05
5.97097e-05
5.97211e-05
1.88899e-05
5.99099e-05
5.99211e-05
6.95079e-05
6.95252e-05
6.95107e-05
6.95279e-05
1.9011e-05
6.01987e-05
6.02102e-05
6.0009e-05
6.00203e-05
5.48451e-05
7.00993e-05
7.01211e-05
5.43663e-05
3.10599e-05
4.64301e-05
1.47089e-05
1.62887e-05
4.68063e-05
1.46748e-05
3.04964e-05
3.10623e-05
4.64342e-05
1.47088e-05
1.62888e-05
4.68107e-05
1.46748e-05
3.04963e-05
5.4982e-05
7.01497e-05
7.01291e-05
5.54219e-05
5.49816e-05
7.01464e-05
7.01261e-05
5.54213e-05
3.13461e-05
1.63418e-05
4.73612e-05
1.46215e-05
4.70012e-05
1.4647e-05
3.19021e-05
3.1344e-05
1.6342e-05
4.73654e-05
1.46215e-05
4.70047e-05
1.4647e-05
3.19037e-05
5.97153e-05
5.97091e-05
1.88887e-05
5.99161e-05
5.99094e-05
6.95591e-05
6.95409e-05
6.95095e-05
6.95269e-05
1.9011e-05
6.0204e-05
6.01981e-05
6.00151e-05
6.00091e-05
6.95075e-05
6.95247e-05
3.10587e-05
4.64346e-05
1.47095e-05
1.6289e-05
4.68113e-05
1.46755e-05
3.04996e-05
5.48461e-05
7.00988e-05
7.01206e-05
5.43651e-05
3.10578e-05
1.47091e-05
4.64285e-05
1.62895e-05
1.46751e-05
4.68146e-05
3.05004e-05
5.49817e-05
7.01514e-05
7.01309e-05
5.54233e-05
3.13474e-05
1.63421e-05
4.73668e-05
1.46221e-05
4.70057e-05
1.46477e-05
3.19001e-05
5.49804e-05
7.0146e-05
7.01256e-05
5.54223e-05
3.13479e-05
1.63427e-05
1.46217e-05
4.73672e-05
1.46473e-05
4.70001e-05
3.19001e-05
5.48361e-05
7.01008e-05
7.01225e-05
5.437e-05
3.10569e-05
1.4709e-05
4.64262e-05
1.62884e-05
1.46749e-05
4.68111e-05
3.04987e-05
5.48412e-05
7.00985e-05
7.01205e-05
5.43674e-05
3.13459e-05
1.63415e-05
4.73619e-05
1.46215e-05
4.70012e-05
1.4647e-05
3.18987e-05
5.4985e-05
7.01478e-05
7.01276e-05
5.54129e-05
3.13472e-05
1.63415e-05
1.46216e-05
4.73647e-05
1.46471e-05
4.69976e-05
3.18984e-05
5.4983e-05
7.01458e-05
7.01253e-05
5.54179e-05
5.97155e-05
5.9711e-05
1.88896e-05
5.99157e-05
5.99105e-05
6.95602e-05
6.95418e-05
6.95094e-05
6.95267e-05
1.90117e-05
6.02039e-05
6.02e-05
6.00145e-05
6.00103e-05
6.95084e-05
6.95258e-05
3.10625e-05
1.47098e-05
4.64308e-05
1.62897e-05
1.46757e-05
4.68111e-05
3.04984e-05
5.48393e-05
7.01022e-05
7.0124e-05
5.43723e-05
5.48383e-05
7.00994e-05
7.01214e-05
5.43714e-05
3.13468e-05
1.63422e-05
1.4622e-05
4.73624e-05
1.46476e-05
4.70016e-05
3.19027e-05
3.13449e-05
1.63426e-05
1.46224e-05
4.73653e-05
1.46479e-05
4.70037e-05
3.19042e-05
5.4987e-05
7.01494e-05
7.0129e-05
5.54153e-05
5.49861e-05
7.01469e-05
7.01264e-05
5.54143e-05
6.95597e-05
6.95415e-05
6.95614e-05
6.95431e-05
1.90261e-05
6.01961e-05
6.0205e-05
6.00064e-05
6.00154e-05
6.9508e-05
6.95253e-05
6.95097e-05
6.95271e-05
6.94924e-05
6.94761e-05
6.9495e-05
6.94787e-05
6.02921e-05
6.03027e-05
1.96165e-05
6.04721e-05
6.04835e-05
6.94457e-05
6.9461e-05
6.94481e-05
6.94636e-05
1.97571e-05
6.07306e-05
6.0741e-05
6.05605e-05
6.05708e-05
5.59467e-05
7.01507e-05
5.55428e-05
7.01701e-05
3.27332e-05
4.75477e-05
1.46024e-05
1.65337e-05
3.21846e-05
4.78922e-05
1.45854e-05
3.27318e-05
4.75508e-05
1.46024e-05
1.6534e-05
3.21825e-05
4.78965e-05
1.45854e-05
5.60553e-05
7.01955e-05
7.01775e-05
5.6427e-05
5.60546e-05
7.01921e-05
7.01743e-05
5.64261e-05
3.30075e-05
1.66086e-05
4.83997e-05
1.45667e-05
4.80702e-05
1.45751e-05
3.35459e-05
3.3008e-05
1.6609e-05
4.84045e-05
1.45667e-05
4.80735e-05
1.45752e-05
3.35453e-05
6.02984e-05
6.02923e-05
1.96165e-05
6.0477e-05
6.04713e-05
6.94918e-05
6.94756e-05
6.94471e-05
6.94625e-05
1.97571e-05
6.07358e-05
6.07292e-05
6.05663e-05
6.056e-05
6.94453e-05
6.94604e-05
3.27281e-05
4.75521e-05
1.46031e-05
1.65339e-05
3.21862e-05
4.78995e-05
1.45861e-05
5.59477e-05
7.01505e-05
5.55416e-05
7.01698e-05
3.27296e-05
1.46027e-05
4.75482e-05
1.65346e-05
3.21854e-05
1.45856e-05
4.78974e-05
5.60548e-05
7.0197e-05
7.01791e-05
5.64279e-05
3.30109e-05
1.66088e-05
4.84056e-05
1.45674e-05
4.80723e-05
1.45759e-05
3.35428e-05
5.60534e-05
7.01919e-05
7.01741e-05
5.64268e-05
3.30095e-05
1.66096e-05
1.45669e-05
4.84049e-05
1.45754e-05
4.80712e-05
3.35427e-05
5.59387e-05
7.01524e-05
5.5546e-05
7.01716e-05
3.27282e-05
1.46025e-05
4.75458e-05
1.65336e-05
3.21859e-05
1.45855e-05
4.78916e-05
5.59436e-05
7.01501e-05
5.55445e-05
7.01694e-05
3.30081e-05
1.66082e-05
4.84003e-05
1.45666e-05
4.80694e-05
1.45751e-05
3.35423e-05
5.60576e-05
7.01937e-05
7.01759e-05
5.64184e-05
3.30102e-05
1.66084e-05
1.45668e-05
4.83996e-05
1.45753e-05
4.80702e-05
3.35423e-05
5.60564e-05
7.01914e-05
7.01737e-05
5.64234e-05
6.02972e-05
6.02936e-05
1.96163e-05
6.04767e-05
6.04727e-05
6.94929e-05
6.94765e-05
6.9447e-05
6.94624e-05
1.97574e-05
6.0735e-05
6.07313e-05
6.05655e-05
6.05612e-05
6.9446e-05
6.94614e-05
3.27327e-05
1.46033e-05
4.7551e-05
1.65346e-05
3.21829e-05
1.45863e-05
4.78959e-05
5.59406e-05
7.01537e-05
5.55476e-05
7.01731e-05
5.59396e-05
7.01513e-05
5.55466e-05
7.01707e-05
3.30089e-05
1.66088e-05
1.45672e-05
4.83998e-05
1.45757e-05
4.80713e-05
3.35447e-05
3.30083e-05
1.66094e-05
1.45676e-05
4.84032e-05
1.45761e-05
4.80735e-05
3.35467e-05
5.60588e-05
7.01951e-05
7.01773e-05
5.64199e-05
5.60578e-05
7.01927e-05
7.01749e-05
5.6419e-05
6.94924e-05
6.9476e-05
6.94942e-05
6.94778e-05
1.97728e-05
6.07279e-05
6.0736e-05
6.05579e-05
6.0566e-05
6.94455e-05
6.94609e-05
6.94473e-05
6.94627e-05
6.94311e-05
6.94167e-05
6.94336e-05
6.94191e-05
6.08144e-05
6.08246e-05
2.04343e-05
6.0976e-05
6.09859e-05
6.93893e-05
6.94028e-05
6.93916e-05
6.9405e-05
2.05906e-05
6.12086e-05
6.12178e-05
6.1056e-05
6.10655e-05
5.68641e-05
7.01958e-05
5.65216e-05
7.02128e-05
3.43407e-05
4.85699e-05
1.45652e-05
1.6865e-05
3.38157e-05
4.88854e-05
1.45669e-05
3.43409e-05
4.85734e-05
1.45653e-05
1.68656e-05
3.38155e-05
4.8891e-05
1.4567e-05
5.69495e-05
7.02353e-05
7.02197e-05
5.72661e-05
5.69485e-05
7.02319e-05
7.02163e-05
5.72651e-05
3.46038e-05
1.6961e-05
4.93506e-05
1.45815e-05
4.90482e-05
1.45718e-05
3.51141e-05
3.46029e-05
1.69616e-05
4.93559e-05
1.45817e-05
4.90492e-05
1.45719e-05
3.51144e-05
6.08202e-05
6.08125e-05
2.04344e-05
6.09802e-05
6.09738e-05
6.94305e-05
6.94163e-05
6.93907e-05
6.94041e-05
2.05906e-05
6.1213e-05
6.12061e-05
6.10605e-05
6.10533e-05
6.93888e-05
6.9402e-05
3.43372e-05
4.85728e-05
1.45661e-05
1.6865e-05
3.38181e-05
4.88913e-05
1.45678e-05
5.68645e-05
7.01956e-05
5.65207e-05
7.02126e-05
3.43377e-05
1.45654e-05
4.85705e-05
1.6866e-05
3.38174e-05
1.45672e-05
4.88914e-05
5.69487e-05
7.02367e-05
7.0221e-05
5.72667e-05
3.46065e-05
1.6961e-05
4.93567e-05
1.45826e-05
4.9051e-05
1.45727e-05
3.51112e-05
5.69474e-05
7.02316e-05
7.02162e-05
5.72653e-05
3.4605e-05
1.6962e-05
1.45819e-05
4.93551e-05
1.4572e-05
4.90476e-05
3.51112e-05
5.68565e-05
7.01975e-05
5.65247e-05
7.02145e-05
3.43371e-05
1.45654e-05
4.85704e-05
1.6865e-05
3.38183e-05
1.45671e-05
4.88861e-05
5.68616e-05
7.01952e-05
5.65234e-05
7.02121e-05
3.46046e-05
1.69604e-05
4.93491e-05
1.45816e-05
4.90472e-05
1.45718e-05
3.51098e-05
5.69511e-05
7.02334e-05
7.02179e-05
5.72578e-05
3.46062e-05
1.6961e-05
1.45819e-05
4.93499e-05
1.45721e-05
4.90486e-05
3.51115e-05
5.69502e-05
7.02316e-05
7.02157e-05
5.72629e-05
6.08194e-05
6.08153e-05
2.04348e-05
6.09803e-05
6.0976e-05
6.94315e-05
6.9417e-05
6.93906e-05
6.94041e-05
2.05901e-05
6.12132e-05
6.12094e-05
6.10604e-05
6.10556e-05
6.93896e-05
6.9403e-05
3.43402e-05
1.45662e-05
4.85729e-05
1.68658e-05
3.38157e-05
1.4568e-05
4.88908e-05
5.68578e-05
7.01989e-05
5.65251e-05
7.02158e-05
5.6857e-05
7.01965e-05
5.65242e-05
7.02134e-05
3.46052e-05
1.6961e-05
1.45822e-05
4.935e-05
1.45723e-05
4.90489e-05
3.51137e-05
3.46045e-05
1.69616e-05
1.45827e-05
4.93538e-05
1.45728e-05
4.90489e-05
3.51145e-05
5.69514e-05
7.02349e-05
7.02194e-05
5.7259e-05
5.69504e-05
7.02325e-05
7.02169e-05
5.72581e-05
6.94309e-05
6.94164e-05
6.94328e-05
6.94183e-05
2.06073e-05
6.12048e-05
6.12125e-05
6.1053e-05
6.10607e-05
6.9389e-05
6.94024e-05
6.93907e-05
6.94043e-05
6.93758e-05
6.93633e-05
6.9378e-05
6.93655e-05
6.12848e-05
6.12944e-05
2.13283e-05
6.14298e-05
6.14393e-05
6.93385e-05
6.93501e-05
6.93407e-05
6.93522e-05
2.14982e-05
6.16405e-05
6.16499e-05
6.15027e-05
6.15113e-05
5.76332e-05
7.02349e-05
5.73395e-05
7.02499e-05
3.58639e-05
4.95056e-05
1.4596e-05
1.72793e-05
3.53705e-05
4.97957e-05
1.46143e-05
3.58615e-05
4.95056e-05
1.45962e-05
1.728e-05
3.53698e-05
4.98001e-05
1.46146e-05
5.77002e-05
7.02699e-05
7.02558e-05
5.79735e-05
5.7699e-05
7.02667e-05
7.02528e-05
5.79723e-05
3.61142e-05
1.73956e-05
5.02215e-05
1.46644e-05
4.99439e-05
1.46375e-05
3.65909e-05
3.61148e-05
1.73963e-05
5.02241e-05
1.46647e-05
4.99444e-05
1.46377e-05
3.65887e-05
6.12892e-05
6.12813e-05
2.13304e-05
6.14345e-05
6.14266e-05
6.93748e-05
6.93626e-05
6.93399e-05
6.93514e-05
2.14977e-05
6.16447e-05
6.1637e-05
6.15068e-05
6.14982e-05
6.93377e-05
6.9349e-05
3.58621e-05
4.95073e-05
1.45971e-05
1.72793e-05
3.53728e-05
4.98014e-05
1.46156e-05
5.76333e-05
7.02349e-05
5.73385e-05
7.02499e-05
3.58616e-05
1.45964e-05
4.9505e-05
1.72805e-05
3.53715e-05
1.46148e-05
4.97986e-05
5.76995e-05
7.02719e-05
7.0256e-05
5.79738e-05
3.61155e-05
1.73955e-05
5.02268e-05
1.46657e-05
4.99452e-05
1.46387e-05
3.65892e-05
5.7698e-05
7.02667e-05
7.02527e-05
5.79723e-05
3.61146e-05
1.73967e-05
1.46649e-05
5.0224e-05
1.46379e-05
4.99435e-05
3.65885e-05
5.76262e-05
7.02365e-05
5.73418e-05
7.02512e-05
3.58628e-05
1.45964e-05
4.95059e-05
1.72797e-05
3.53724e-05
1.46149e-05
4.97945e-05
5.76312e-05
7.0234e-05
5.73411e-05
7.02492e-05
3.61131e-05
1.73947e-05
5.02196e-05
1.46645e-05
4.99423e-05
1.46373e-05
3.65891e-05
5.77008e-05
7.02677e-05
7.02541e-05
5.79657e-05
3.61154e-05
1.73959e-05
1.4665e-05
5.02206e-05
1.4638e-05
4.99441e-05
3.65888e-05
5.77003e-05
7.02658e-05
7.02521e-05
5.79705e-05
6.1289e-05
6.12846e-05
2.13304e-05
6.14346e-05
6.143e-05
6.9376e-05
6.93635e-05
6.93399e-05
6.93515e-05
2.14983e-05
6.1645e-05
6.16401e-05
6.15064e-05
6.15016e-05
6.93387e-05
6.93503e-05
3.5865e-05
1.45973e-05
4.95067e-05
1.72801e-05
3.537e-05
1.46157e-05
4.97988e-05
5.76273e-05
7.0238e-05
5.73418e-05
7.0253e-05
5.76264e-05
7.02356e-05
5.73409e-05
7.02505e-05
3.61147e-05
1.73955e-05
1.46653e-05
5.02213e-05
1.46383e-05
4.9944e-05
3.65906e-05
3.61131e-05
1.73962e-05
1.46659e-05
5.02244e-05
1.46389e-05
4.99443e-05
3.65905e-05
5.77007e-05
7.02695e-05
7.02558e-05
5.79667e-05
5.76997e-05
7.02672e-05
7.02533e-05
5.79658e-05
6.93754e-05
6.93629e-05
6.93772e-05
6.93646e-05
2.15181e-05
6.1637e-05
6.16448e-05
6.1499e-05
6.15065e-05
6.93382e-05
6.93497e-05
6.93399e-05
6.93515e-05
6.93258e-05
6.93152e-05
6.93279e-05
6.93173e-05
6.17097e-05
6.17185e-05
2.22877e-05
6.18415e-05
6.18507e-05
6.92932e-05
6.93028e-05
6.92953e-05
6.93049e-05
2.24662e-05
6.20338e-05
6.20426e-05
6.19077e-05
6.19162e-05
5.82857e-05
7.02692e-05
5.80307e-05