/*--------------------------------*- C++ -*----------------------------------*\
| =========                 |                                                 |
| \\      /  F ield         | OpenFOAM: The Open Source CFD Toolbox           |
|  \\    /   O peration     | Version:  2312                                  |
|   \\  /    A nd           | Website:  www.openfoam.com                      |
|    \\/     M anipulation  |                                                 |
\*---------------------------------------------------------------------------*/
FoamFile
{
    version     2.0;
    format      ascii;
    arch        "LSB;label=32;scalar=64";
    class       volScalarField;
    location    "550";
    object      nut;
}
// * * * * * * * * * * * * * * * * * * * * * * * * * * * * * * * * * * * * * //

dimensions      [0 2 -1 0 0 0 0];

internalField   nonuniform List<scalar> 
42840
(
0.000145951
9.86052e-05
9.86061e-05
8.18626e-05
0.000141922
9.62719e-05
9.62719e-05
8.18609e-05
0.00013798
9.44568e-05
9.44571e-05
8.24113e-05
0.000134143
9.31611e-05
9.31607e-05
8.34918e-05
0.000130463
9.23692e-05
9.23705e-05
8.48842e-05
0.000126969
9.20634e-05
9.20655e-05
8.65182e-05
0.000123696
9.22148e-05
9.22175e-05
8.85594e-05
0.000120689
9.27933e-05
9.27966e-05
9.07943e-05
0.000117951
9.37608e-05
9.37686e-05
9.31913e-05
0.000115535
9.50873e-05
9.50974e-05
9.56115e-05
0.000113455
9.6732e-05
9.67444e-05
9.81354e-05
0.000111727
9.86575e-05
9.86752e-05
0.000100729
0.000110359
0.000100829
0.000100845
0.000103344
0.000109359
0.000103212
0.00010323
0.000105927
0.000108725
0.00010578
0.000105796
0.000108629
0.000108455
0.000108499
0.000108517
0.00011124
0.000108542
0.000111343
0.000111364
0.000113866
0.000108977
0.00011429
0.00011431
0.000116288
0.000109745
0.00011732
0.000117337
0.000118984
0.000110833
0.000120418
0.000120433
0.000121695
0.000112226
0.000123562
0.000123578
0.000124274
0.000113904
0.000126736
0.000126751
0.00012696
0.000115848
0.000129924
0.000129937
0.0001295
0.000118038
0.000133112
0.000133123
0.000132012
0.000120452
0.000136287
0.000136299
0.000134596
8.17745e-05
8.22829e-05
9.85802e-05
9.85671e-05
9.67819e-05
9.67683e-05
8.16687e-05
8.22147e-05
9.86032e-05
9.85698e-05
9.68036e-05
9.67703e-05
9.85804e-05
9.68021e-05
9.67814e-05
8.17915e-05
8.22163e-05
9.85943e-05
9.68066e-05
9.67945e-05
8.2026e-05
8.17982e-05
8.26068e-05
9.62467e-05
9.62367e-05
9.48386e-05
9.48274e-05
8.18683e-05
8.27096e-05
9.62691e-05
9.62377e-05
9.48589e-05
9.48267e-05
9.62486e-05
9.48588e-05
9.48388e-05
8.18292e-05
8.26583e-05
9.6261e-05
9.48611e-05
9.48504e-05
8.25356e-05
8.23955e-05
8.34919e-05
9.44338e-05
9.44239e-05
9.34139e-05
9.34054e-05
8.23287e-05
8.35585e-05
9.44544e-05
9.44243e-05
9.34339e-05
9.34026e-05
9.44352e-05
9.34343e-05
9.34151e-05
8.23806e-05
8.34969e-05
9.44458e-05
9.34357e-05
9.34247e-05
8.32693e-05
8.33642e-05
8.48979e-05
9.31377e-05
9.3131e-05
9.24993e-05
9.24917e-05
8.33844e-05
8.49233e-05
9.31575e-05
9.31292e-05
9.25191e-05
9.24902e-05
9.31403e-05
9.25192e-05
9.25023e-05
8.3365e-05
8.48123e-05
9.31495e-05
9.2521e-05
9.25106e-05
8.45784e-05
8.47134e-05
8.64596e-05
9.2349e-05
9.23409e-05
9.20763e-05
9.20686e-05
8.46997e-05
8.65113e-05
9.23679e-05
9.23413e-05
9.20949e-05
9.2069e-05
9.23518e-05
9.20945e-05
9.20807e-05
8.47403e-05
8.64792e-05
9.23597e-05
9.20978e-05
9.20872e-05
8.63345e-05
8.64211e-05
8.83504e-05
9.20452e-05
9.20379e-05
9.21179e-05
9.21123e-05
8.64356e-05
8.84836e-05
9.20623e-05
9.20398e-05
9.21348e-05
9.21122e-05
9.20494e-05
9.21362e-05
9.21246e-05
8.64523e-05
8.83604e-05
9.20553e-05
9.21393e-05
9.21295e-05
8.81536e-05
8.84158e-05
9.05196e-05
9.21987e-05
9.2193e-05
9.25975e-05
9.25916e-05
8.83613e-05
9.04134e-05
9.22146e-05
9.21946e-05
9.26125e-05
9.25907e-05
9.22047e-05
9.2613e-05
9.2603e-05
8.84158e-05
9.05211e-05
9.22096e-05
9.26158e-05
9.26068e-05
9.01662e-05
9.06116e-05
9.28552e-05
9.27806e-05
9.27749e-05
9.34759e-05
9.34669e-05
9.06482e-05
9.27073e-05
9.27953e-05
9.27767e-05
9.34881e-05
9.34697e-05
9.27862e-05
9.34855e-05
9.34808e-05
9.05917e-05
9.28535e-05
9.27905e-05
9.34917e-05
9.34845e-05
9.24294e-05
9.29611e-05
9.5176e-05
9.37543e-05
9.3746e-05
9.47202e-05
9.47088e-05
9.29086e-05
9.51381e-05
9.37671e-05
9.37502e-05
9.47313e-05
9.47143e-05
9.37592e-05
9.4725e-05
9.47242e-05
9.29411e-05
9.52792e-05
9.37629e-05
9.47362e-05
9.47273e-05
9.49243e-05
9.54748e-05
9.77391e-05
9.50853e-05
9.50737e-05
9.62931e-05
9.62796e-05
9.54249e-05
9.77177e-05
9.50957e-05
9.50815e-05
9.63029e-05
9.62879e-05
9.50886e-05
9.62932e-05
9.62943e-05
9.54443e-05
9.74618e-05
9.50913e-05
9.63063e-05
9.6295e-05
9.73631e-05
9.79368e-05
0.000100234
9.67338e-05
9.67225e-05
9.81557e-05
9.81419e-05
9.7844e-05
0.000100295
9.6743e-05
9.67297e-05
9.81641e-05
9.81509e-05
9.67354e-05
9.8152e-05
9.81558e-05
9.80632e-05
0.000100069
9.67349e-05
9.81696e-05
9.81544e-05
9.98023e-05
0.000100453
0.000102758
9.86616e-05
9.865e-05
0.000100271
0.000100256
0.000100365
0.000102846
9.86703e-05
9.86613e-05
0.000100279
0.000100266
9.86641e-05
0.000100266
0.000100271
0.000100599
0.000102905
9.86621e-05
0.000100284
0.00010027
0.000102381
0.000103094
0.000105282
0.000100835
0.000100823
0.000102607
0.000102589
0.000102926
0.000105491
0.000100843
0.000100833
0.000102613
0.000102601
0.000100836
0.000102599
0.000102604
0.000102965
0.000105455
0.000100835
0.000102618
0.000102604
0.000105121
0.000105829
0.000107926
0.00010322
0.000103207
0.000105132
0.000105114
0.000105543
0.00010809
0.000103227
0.000103217
0.000105137
0.000105124
0.00010322
0.000105122
0.000105129
0.000105506
0.000108158
0.000103219
0.000105141
0.000105127
0.000107725
0.000108459
0.000110414
0.000105788
0.000105774
0.000107816
0.000107798
0.000108204
0.000110758
0.000105793
0.000105783
0.00010782
0.000107809
0.000105789
0.000107807
0.000107817
0.000108216
0.000110699
0.000105786
0.000107826
0.000107813
0.000110526
0.000111291
0.00011323
0.000108508
0.000108493
0.000110631
0.000110615
0.000110842
0.000113448
0.000108513
0.000108503
0.000110636
0.000110626
0.000108511
0.000110622
0.000110636
0.000110966
0.000113126
0.000108507
0.000110645
0.00011063
0.000113334
0.000113878
0.000115793
0.000111352
0.000111338
0.000113553
0.000113539
0.000113603
0.000115971
0.000111357
0.000111349
0.000113558
0.000113549
0.00011136
0.000113546
0.000113562
0.00011396
0.000115807
0.000111354
0.000113568
0.000113555
0.000116217
0.000116643
0.000118506
0.000114298
0.000114286
0.00011656
0.000116549
0.00011643
0.000118706
0.000114303
0.000114293
0.000116565
0.000116556
0.000114309
0.000116556
0.000116572
0.000116566
0.000118507
0.000114301
0.000116576
0.000116565
0.000118891
0.000119227
0.000121149
0.000117323
0.000117315
0.000119639
0.000119631
0.000119087
0.00012136
0.000117329
0.00011732
0.000119644
0.000119635
0.000117336
0.00011964
0.000119653
0.000119246
0.000121173
0.00011733
0.000119656
0.000119648
0.000121566
0.000121938
0.000123839
0.000120419
0.000120411
0.000122774
0.000122764
0.000121788
0.000124024
0.000120424
0.000120416
0.000122778
0.000122769
0.000120433
0.000122774
0.000122787
0.000121909
0.000123897
0.000120428
0.00012279
0.000122783
0.000124196
0.000124527
0.000126526
0.000123564
0.000123555
0.000125942
0.000125932
0.000124411
0.000126773
0.000123567
0.00012356
0.000125945
0.000125936
0.000123577
0.000125941
0.000125957
0.000124581
0.000126645
0.000123573
0.000125958
0.000125952
0.000126834
0.000127141
0.000129008
0.000126737
0.000126727
0.000129126
0.000129117
0.000126921
0.000129347
0.000126741
0.000126733
0.000129129
0.000129121
0.000126752
0.000129126
0.000129141
0.000127026
0.000129307
0.000126748
0.000129143
0.000129138
0.000129377
0.000129774
0.000131618
0.000129924
0.000129915
0.000132313
0.000132305
0.000129499
0.000131835
0.000129927
0.000129919
0.000132316
0.000132309
0.000129939
0.000132314
0.00013233
0.000129557
0.000131923
0.000129935
0.000132329
0.000132328
0.000131946
0.00013227
0.000134252
0.000133109
0.000133102
0.000135491
0.000135484
0.000132165
0.000134202
0.000133113
0.000133105
0.000135494
0.000135488
0.000133126
0.000135495
0.00013551
0.000132061
0.000134354
0.000133123
0.000135508
0.000135507
0.000134454
0.000134762
0.000136284
0.000136277
0.000134773
0.000136287
0.00013628
0.000136301
0.000134664
0.000136299
7.20273e-05
4.9581e-05
4.95848e-05
7.12179e-05
2.36161e-05
2.3613e-05
7.20305e-05
4.95759e-05
4.95797e-05
7.12149e-05
0.000145945
0.000145943
0.000145941
0.000142912
0.000142904
0.000142903
0.000142901
6.99099e-05
6.7648e-05
0.000122021
9.79698e-05
6.82202e-05
0.000121036
6.89427e-05
2.36152e-05
2.3612e-05
6.99076e-05
0.000122005
6.76172e-05
9.79718e-05
0.000121038
6.82609e-05
6.89341e-05
6.20408e-05
6.20575e-05
8.19765e-05
6.23744e-05
6.23512e-05
7.37719e-05
4.95993e-05
7.30635e-05
4.96023e-05
2.36046e-05
2.36018e-05
7.37732e-05
4.95941e-05
7.30589e-05
4.95972e-05
0.000141915
0.000141913
0.000141912
0.00013894
0.000138933
0.000138931
0.00013893
7.28836e-05
6.94446e-05
0.000118292
9.57657e-05
7.19162e-05
6.99907e-05
0.000117371
2.36038e-05
2.3601e-05
7.28988e-05
0.000118276
6.94201e-05
9.57681e-05
7.19312e-05
0.000117373
7.00225e-05
6.29234e-05
6.29215e-05
8.21891e-05
6.32115e-05
6.31993e-05
7.5319e-05
4.96152e-05
7.46663e-05
4.96175e-05
2.35942e-05
2.35917e-05
7.5307e-05
4.96099e-05
7.46723e-05
4.96122e-05
0.000137973
0.000137971
0.00013797
0.000135087
0.000135081
0.000135078
0.000135078
7.58946e-05
7.11402e-05
0.000114859
9.40826e-05
7.48854e-05
7.16567e-05
0.000114039
2.35934e-05
2.35908e-05
7.58725e-05
0.000114842
7.11187e-05
9.40838e-05
7.49176e-05
0.000114042
7.16891e-05
6.37234e-05
6.37279e-05
8.28958e-05
6.39947e-05
6.39878e-05
7.668e-05
4.96283e-05
7.60884e-05
4.96313e-05
2.35848e-05
2.35826e-05
7.66671e-05
4.96217e-05
7.60956e-05
4.96278e-05
0.000134137
0.000134134
0.000134132
0.00013137
0.000131364
0.000131361
0.000131359
7.88122e-05
7.27387e-05
0.000111741
9.29142e-05
7.78273e-05
7.32251e-05
0.000111006
2.35839e-05
2.35818e-05
7.88196e-05
0.000111727
7.27169e-05
9.29159e-05
7.783e-05
0.00011101
7.32565e-05
6.44669e-05
6.44628e-05
8.40402e-05
6.47154e-05
6.47075e-05
7.78988e-05
4.96394e-05
7.73587e-05
4.96438e-05
2.35763e-05
2.35745e-05
7.78854e-05
4.9633e-05
7.73662e-05
4.9639e-05
0.000130457
0.000130454
0.000130452
0.000127827
0.000127821
0.000127818
0.000127816
8.16364e-05
7.42417e-05
0.000109004
9.2247e-05
8.06821e-05
7.47046e-05
0.000108366
2.35754e-05
2.35736e-05
8.16411e-05
0.000108992
7.42202e-05
9.22497e-05
8.06864e-05
0.000108373
7.47355e-05
6.51522e-05
6.51515e-05
8.54394e-05
6.53823e-05
6.53751e-05
7.90018e-05
4.9649e-05
7.85066e-05
4.96553e-05
2.35687e-05
2.35672e-05
7.89877e-05
4.96429e-05
7.85147e-05
4.96502e-05
0.000126963
0.00012696
0.000126958
0.000124495
0.000124491
0.000124488
0.000124486
8.43292e-05
7.56579e-05
0.00010667
9.20591e-05
8.34487e-05
7.61013e-05
0.000106138
2.35679e-05
2.35664e-05
8.43378e-05
0.000106661
7.56389e-05
9.20621e-05
8.34485e-05
0.000106146
7.61283e-05
6.57912e-05
6.57903e-05
8.71369e-05
6.60035e-05
6.5998e-05
8.00038e-05
4.96586e-05
7.95566e-05
4.96655e-05
2.3562e-05
2.35609e-05
7.99971e-05
4.96532e-05
7.95654e-05
4.96601e-05
0.000123691
0.000123688
0.000123686
0.000121422
0.000121418
0.000121415
0.000121414
8.69176e-05
7.69906e-05
0.000104762
9.23219e-05
8.6096e-05
7.74167e-05
0.000104342
2.35612e-05
2.35601e-05
8.69424e-05
0.000104756
7.69795e-05
9.23256e-05
8.60848e-05
0.000104349
7.7444e-05
6.63875e-05
6.63854e-05
8.9256e-05
6.65855e-05
6.65815e-05
8.09463e-05
4.96684e-05
8.05315e-05
4.96754e-05
2.35563e-05
2.35555e-05
8.09322e-05
4.96631e-05
8.05326e-05
4.967e-05
0.000120684
0.000120681
0.00012068
0.000118605
0.000118601
0.000118599
0.000118598
8.94107e-05
7.8259e-05
0.000103301
9.30011e-05
8.86143e-05
7.86605e-05
0.00010299
2.35555e-05
2.35547e-05
8.94237e-05
0.000103294
7.82432e-05
9.30062e-05
8.86072e-05
0.000102999
7.86947e-05
6.69465e-05
6.69441e-05
9.13181e-05
6.71348e-05
6.71299e-05
8.18164e-05
4.96781e-05
8.14289e-05
4.96857e-05
2.35516e-05
2.35512e-05
8.18096e-05
4.96734e-05
8.14316e-05
4.96799e-05
0.000117947
0.000117944
0.000117944
0.000116108
0.000116105
0.000116103
0.000116103
9.18317e-05
7.94609e-05
0.000102289
9.40611e-05
9.09908e-05
7.9843e-05
0.000102088
2.35508e-05
2.35504e-05
9.18303e-05
0.000102282
7.94473e-05
9.40696e-05
9.10004e-05
0.000102096
7.98774e-05
6.74732e-05
6.74717e-05
9.3724e-05
6.76525e-05
6.76482e-05
8.26357e-05
4.96885e-05
8.22743e-05
4.96968e-05
2.35479e-05
2.35478e-05
8.2629e-05
4.96835e-05
8.22751e-05
4.96913e-05
0.000115531
0.000115529
0.000115529
0.000113943
0.000113939
0.000113938
0.000113938
9.4124e-05
8.05978e-05
0.000101717
9.54715e-05
9.32855e-05
8.09766e-05
0.000101628
2.35471e-05
2.35471e-05
9.41317e-05
0.000101714
8.05937e-05
9.5483e-05
9.32881e-05
0.000101637
8.10032e-05
6.79735e-05
6.79719e-05
9.60461e-05
6.81438e-05
6.81398e-05
8.34061e-05
4.96996e-05
8.30661e-05
4.97085e-05
2.35452e-05
2.35455e-05
8.34012e-05
4.96944e-05
8.30647e-05
4.97033e-05
0.000113451
0.00011345
0.00011345
0.000112125
0.000112121
0.000112121
0.00011212
9.63224e-05
8.16973e-05
0.000101574
9.71891e-05
9.54804e-05
8.20556e-05
0.000101589
2.35445e-05
2.35447e-05
9.6332e-05
0.000101575
8.16849e-05
9.72049e-05
9.54942e-05
0.000101603
8.20783e-05
6.84501e-05
6.84477e-05
9.85602e-05
6.86122e-05
6.86084e-05
8.4136e-05
4.97121e-05
8.38178e-05
4.97214e-05
2.35436e-05
2.35442e-05
8.41332e-05
4.97068e-05
8.38145e-05
4.97162e-05
0.000111722
0.000111722
0.000111722
0.000110667
0.000110662
0.000110663
0.000110662
9.84357e-05
8.27446e-05
0.000101846
9.91803e-05
9.75954e-05
8.30941e-05
0.000101961
2.35428e-05
2.35435e-05
9.84467e-05
0.000101849
8.27365e-05
9.91977e-05
9.76087e-05
0.000101978
8.31066e-05
6.89051e-05
6.89024e-05
0.000101244
6.90604e-05
6.90564e-05
8.48339e-05
4.97257e-05
8.45316e-05
4.97355e-05
2.35429e-05
2.3544e-05
8.48324e-05
4.97204e-05
8.45274e-05
4.97302e-05
0.000110354
0.000110356
0.000110355
0.000109574
0.000109568
0.000109571
0.00010957
0.000100474
8.37496e-05
0.000102504
0.000101407
9.96369e-05
8.40773e-05
0.000102714
2.35422e-05
2.35432e-05
0.000100492
0.000102514
8.3727e-05
0.000101425
9.96454e-05
0.000102734
8.40964e-05
6.93404e-05
6.9338e-05
0.000103752
6.94899e-05
6.94862e-05
8.55046e-05
4.97406e-05
8.52149e-05
4.97509e-05
2.35433e-05
2.35447e-05
8.55017e-05
4.97353e-05
8.52115e-05
4.97456e-05
0.000109352
0.000109356
0.000109355
0.000108849
0.000108842
0.000108846
0.000108845
0.000102446
8.47157e-05
0.00010353
0.000103839
0.000101608
8.50293e-05
0.000103828
2.35425e-05
2.35439e-05
0.000102458
0.000103542
8.46858e-05
0.000103858
0.000101619
0.000103851
8.50615e-05
6.97589e-05
6.97546e-05
0.000106366
6.99024e-05
6.99004e-05
8.6152e-05
4.97605e-05
8.58702e-05
4.97646e-05
2.35446e-05
2.35464e-05
8.61496e-05
4.97515e-05
8.5866e-05
4.97624e-05
0.000108718
0.000108723
0.000108721
0.000108489
0.000108481
0.000108487
0.000108486
0.00010435
8.56276e-05
0.000104895
0.000106448
0.000103518
8.59515e-05
0.000105273
2.35439e-05
2.35456e-05
0.000104367
0.000104906
8.56134e-05
0.000106466
0.000103526
0.000105295
8.59759e-05
7.01613e-05
7.01557e-05
0.000109048
7.03006e-05
7.02989e-05
8.67781e-05
4.97781e-05
8.65074e-05
4.97828e-05
2.35469e-05
2.3549e-05
8.6778e-05
4.97692e-05
8.65024e-05
4.97807e-05
0.000108448
0.000108454
0.000108453
0.000108488
0.00010848
0.000108487
0.000108486
0.0001062
8.65068e-05
0.000106567
0.000109202
0.000105373
8.68324e-05
0.000107021
2.35462e-05
2.35483e-05
0.000106216
0.000106584
8.64998e-05
0.00010922
0.000105384
0.000107046
8.68611e-05
7.05483e-05
7.05425e-05
0.000111819
7.06858e-05
7.06828e-05
8.73898e-05
4.97972e-05
8.71234e-05
4.98025e-05
2.35501e-05
2.35525e-05
8.73918e-05
4.97884e-05
8.71138e-05
4.98004e-05
0.000108534
0.000108542
0.000108542
0.000108836
0.000108828
0.000108836
0.000108836
0.000107996
8.7363e-05
0.000108526
0.000112073
0.000107175
8.76781e-05
0.000109047
2.35494e-05
2.35518e-05
0.000108013
0.000108545
8.73546e-05
0.000112095
0.000107186
0.000109074
8.77159e-05
7.09217e-05
7.09158e-05
0.000114769
7.10569e-05
7.10536e-05
8.79919e-05
4.98178e-05
8.77197e-05
4.98238e-05
2.35542e-05
2.35569e-05
8.79892e-05
4.9809e-05
8.77156e-05
4.98209e-05
0.000108968
0.000108976
0.000108977
0.000109522
0.000109514
0.000109523
0.000109524
0.00010974
8.81871e-05
0.000110738
0.000115042
0.00010893
8.84985e-05
0.000111319
2.35534e-05
2.35561e-05
0.000109757
0.000110762
8.81814e-05
0.000115063
0.000108944
0.000111351
8.85318e-05
7.12824e-05
7.12764e-05
0.0001176
7.14147e-05
7.14111e-05
8.85686e-05
4.98395e-05
8.83074e-05
4.98458e-05
2.35592e-05
2.35623e-05
8.8574e-05
4.98319e-05
8.83027e-05
4.98438e-05
0.000109737
0.000109746
0.000109747
0.000110532
0.000110524
0.000110533
0.000110536
0.000111436
8.89875e-05
0.000113182
0.00011809
0.000110643
8.93049e-05
0.000113817
2.35583e-05
2.35613e-05
0.000111453
0.000113206
8.89692e-05
0.000118108
0.000110659
0.000113849
8.93152e-05
7.16309e-05
7.16254e-05
0.000120267
7.176e-05
7.17555e-05
8.91389e-05
4.98592e-05
8.88912e-05
4.98727e-05
2.35649e-05
2.35682e-05
8.91446e-05
4.98543e-05
8.88807e-05
4.98678e-05
0.000110826
0.000110835
0.000110837
0.00011185
0.000111842
0.000111852
0.000111855
0.000113087
8.97446e-05
0.000115827
0.000121202
0.000112316
9.00675e-05
0.00011651
2.35639e-05
2.35671e-05
0.000113103
0.000115851
8.97377e-05
0.000121218
0.000112331
0.000116539
9.00715e-05
7.19681e-05
7.19631e-05
0.000122855
7.20936e-05
7.20885e-05
8.97087e-05
4.98839e-05
8.94501e-05
4.98977e-05
2.35712e-05
2.35747e-05
8.97062e-05
4.98788e-05
8.94471e-05
4.98927e-05
0.000112218
0.000112228
0.000112231
0.000113458
0.000113451
0.000113461
0.000113466
0.000114691
9.04872e-05
0.000118651
0.000124354
0.000113945
9.08046e-05
0.000119376
2.35703e-05
2.35737e-05
0.000114704
0.000118673
9.04917e-05
0.000124371
0.000113953
0.000119404
9.08095e-05
7.2294e-05
7.22898e-05
0.0001255
7.24153e-05
7.24105e-05
9.02526e-05
4.99095e-05
9.00023e-05
4.99237e-05
2.35782e-05
2.35819e-05
9.02559e-05
4.99045e-05
8.99969e-05
4.99188e-05
0.000113897
0.000113907
0.000113911
0.000115338
0.000115332
0.000115342
0.000115348
0.000116251
9.11982e-05
0.000121643
0.000127533
0.000115525
9.15167e-05
0.000122408
2.35773e-05
2.35809e-05
0.000116262
0.000121662
9.12116e-05
0.000127549
0.000115532
0.000122433
9.15233e-05
7.26102e-05
7.26041e-05
0.000128095
7.27252e-05
7.27222e-05
9.07867e-05
4.99361e-05
9.05411e-05
4.99507e-05
2.35857e-05
2.35897e-05
9.07925e-05
4.99312e-05
9.05358e-05
4.99459e-05
0.000115842
0.000115852
0.000115858
0.000117469
0.000117463
0.000117473
0.00011748
0.000117769
9.18988e-05
0.000124788
0.00013072
0.000117059
9.22047e-05
0.000125588
2.35848e-05
2.35887e-05
0.000117772
0.000124804
9.19045e-05
0.000130736
0.000117068
0.00012561
9.22099e-05
7.29142e-05
7.29086e-05
0.000130675
7.30259e-05
7.30234e-05
9.13087e-05
4.99637e-05
9.10781e-05
4.99766e-05
2.35939e-05
2.3598e-05
9.13116e-05
4.99588e-05
9.10678e-05
4.99738e-05
0.000118033
0.000118043
0.00011805
0.000119828
0.000119824
0.000119834
0.000119843
0.000119233
9.2571e-05
0.000128063
0.000133906
0.000118543
9.28755e-05
0.000128889
2.3593e-05
2.35971e-05
0.00011924
0.000128076
9.25773e-05
0.000133921
0.000118552
0.000128911
9.28788e-05
7.32094e-05
7.32038e-05
0.000133268
7.33164e-05
7.33135e-05
9.18136e-05
4.99951e-05
9.15946e-05
5.00042e-05
2.36025e-05
2.36069e-05
9.18231e-05
4.99872e-05
9.15832e-05
5.00025e-05
0.000120448
0.000120458
0.000120467
0.000120643
9.32181e-05
0.000131434
0.000137077
0.000119979
9.35146e-05
0.000132282
2.36016e-05
2.36059e-05
0.000120648
0.00013145
9.32266e-05
0.000137092
0.000119989
0.000132305
9.35187e-05
7.34928e-05
7.34872e-05
0.000135646
7.35997e-05
7.35935e-05
2.36183e-05
2.36152e-05
2.36162e-05
2.36131e-05
6.2051e-05
6.20506e-05
8.22151e-05
6.23774e-05
6.23768e-05
2.36095e-05
2.36125e-05
2.36075e-05
2.36104e-05
8.17599e-05
6.28097e-05
6.28099e-05
6.2496e-05
6.24954e-05
7.20334e-05
4.9575e-05
4.95789e-05
7.1211e-05
6.99131e-05
6.7622e-05
0.000122003
9.79481e-05
6.82589e-05
0.000121032
6.89369e-05
6.99254e-05
6.76186e-05
0.000122003
9.79335e-05
6.82584e-05
0.000121032
6.89432e-05
7.2171e-05
4.9594e-05
4.95904e-05
7.29283e-05
7.21619e-05
4.9588e-05
4.95844e-05
7.29385e-05
7.043e-05
9.7348e-05
6.91564e-05
0.000119164
6.8534e-05
0.000120105
7.1413e-05
7.04205e-05
9.73367e-05
6.91547e-05
0.000119164
6.85294e-05
0.000120103
7.14235e-05
6.20401e-05
6.20607e-05
8.2188e-05
6.23739e-05
6.23624e-05
2.36176e-05
2.36144e-05
2.36073e-05
2.36102e-05
8.17534e-05
6.27925e-05
6.27955e-05
6.24908e-05
6.25102e-05
2.36087e-05
2.36118e-05
6.99094e-05
6.76208e-05
0.000122015
9.79718e-05
6.82601e-05
0.000121044
6.89431e-05
7.20264e-05
4.95716e-05
4.95755e-05
7.12179e-05
6.99109e-05
0.000121996
6.76302e-05
9.79359e-05
0.000121027
6.82344e-05
6.89568e-05
7.2166e-05
4.95887e-05
4.95852e-05
7.29295e-05
7.04308e-05
9.73703e-05
6.91588e-05
0.000119176
6.85326e-05
0.000120115
7.14048e-05
7.21668e-05
4.95845e-05
4.9581e-05
7.29261e-05
7.04308e-05
9.73381e-05
0.000119158
6.91278e-05
0.000120097
6.85419e-05
7.1394e-05
7.19957e-05
4.95766e-05
4.95802e-05
7.12288e-05
6.98908e-05
0.000122015
6.76045e-05
9.79459e-05
0.000121043
6.82675e-05
6.89489e-05
7.20254e-05
4.95726e-05
4.95767e-05
7.12103e-05
7.04212e-05
9.73729e-05
6.91252e-05
0.000119168
6.85582e-05
0.000120121
7.13983e-05
7.21792e-05
4.95892e-05
4.95861e-05
7.2901e-05
7.04421e-05
9.73494e-05
0.000119175
6.916e-05
0.000120115
6.85174e-05
7.1384e-05
7.21633e-05
4.95858e-05
4.9582e-05
7.29297e-05
6.20574e-05
6.20654e-05
8.21812e-05
6.2352e-05
6.23584e-05
2.36175e-05
2.36143e-05
2.36064e-05
2.36094e-05
8.17656e-05
6.27843e-05
6.27961e-05
6.25002e-05
6.25103e-05
2.36086e-05
2.36116e-05
6.99333e-05
0.000122005
6.76357e-05
9.79602e-05
0.000121039
6.82243e-05
6.89392e-05
7.19999e-05
4.95767e-05
4.95805e-05
7.12324e-05
7.19992e-05
4.95709e-05
4.95749e-05
7.12305e-05
7.04259e-05
9.73739e-05
0.000119171
6.91573e-05
0.000120106
6.85318e-05
7.13847e-05
7.04093e-05
9.73625e-05
0.000119171
6.91215e-05
0.000120106
6.85514e-05
7.14215e-05
7.21825e-05
4.95896e-05
4.95862e-05
7.29034e-05
7.21798e-05
4.9584e-05
4.95803e-05
7.29027e-05
2.36161e-05
2.3613e-05
2.36149e-05
2.36117e-05
8.18994e-05
6.27957e-05
6.27885e-05
6.24916e-05
6.25028e-05
2.36073e-05
2.36102e-05
2.3606e-05
2.36091e-05
2.36069e-05
2.36041e-05
2.36048e-05
2.36021e-05
6.29234e-05
6.29212e-05
8.23361e-05
6.32253e-05
6.3228e-05
2.35989e-05
2.36016e-05
2.35968e-05
2.35995e-05
8.20827e-05
6.36216e-05
6.362e-05
6.33363e-05
6.33326e-05
7.37835e-05
4.95929e-05
7.30509e-05
4.95963e-05
7.29202e-05
6.94229e-05
0.000118274
9.57445e-05
7.19232e-05
7.0028e-05
0.000117367
7.29156e-05
6.94175e-05
0.000118271
9.57328e-05
7.19121e-05
7.00259e-05
0.000117367
7.3895e-05
4.96102e-05
4.96074e-05
7.45815e-05
7.38836e-05
4.96041e-05
4.96014e-05
7.45754e-05
7.34115e-05
9.52747e-05
7.08707e-05
0.000115646
7.02829e-05
0.000116517
7.44106e-05
7.34121e-05
9.52648e-05
7.08705e-05
0.000115645
7.02789e-05
0.000116514
7.4411e-05
6.29223e-05
6.29341e-05
8.24351e-05
6.32155e-05
6.32119e-05
2.36061e-05
2.36033e-05
2.35966e-05
2.35993e-05
8.19988e-05
6.36057e-05
6.36087e-05
6.33287e-05
6.33445e-05
2.35982e-05
2.36008e-05
7.29057e-05
6.94214e-05
0.000118285
9.57663e-05
7.19254e-05
7.0035e-05
0.000117379
7.37714e-05
4.95896e-05
7.30566e-05
4.95928e-05
7.28838e-05
0.000118265
6.94323e-05
9.57329e-05
7.19269e-05
0.000117361
6.99964e-05
7.38906e-05
4.96052e-05
4.96022e-05
7.4564e-05
7.3415e-05
9.52956e-05
7.08737e-05
0.000115657
7.02755e-05
0.000116527
7.43984e-05
7.38879e-05
4.96007e-05
4.95981e-05
7.45785e-05
7.34272e-05
9.52651e-05
0.000115639
7.08411e-05
0.000116507
7.02948e-05
7.43809e-05
7.37467e-05
4.95947e-05
7.30669e-05
4.95976e-05
7.28803e-05
0.000118284
6.94102e-05
9.5744e-05
7.19364e-05
0.000117378
7.00199e-05
7.37748e-05
4.95907e-05
7.3053e-05
4.9594e-05
7.34177e-05
9.52984e-05
7.08414e-05
0.000115651
7.03041e-05
0.000116534
7.44224e-05
7.38974e-05
4.96055e-05
4.96031e-05
7.45582e-05
7.34314e-05
9.52765e-05
0.000115656
7.08653e-05
0.000116526
7.0276e-05
7.4376e-05
7.38858e-05
4.96019e-05
4.95991e-05
7.45671e-05
6.29242e-05
6.29344e-05
8.23766e-05
6.32017e-05
6.32107e-05
2.3606e-05
2.36032e-05
2.35958e-05
2.35985e-05
8.20604e-05
6.35992e-05
6.3609e-05
6.33349e-05
6.33447e-05
2.3598e-05
2.36007e-05
7.29136e-05
0.000118275
6.94395e-05
9.57567e-05
7.1903e-05
0.000117374
6.99909e-05
7.37493e-05
4.95946e-05
7.30699e-05
4.9598e-05
7.37482e-05
4.95891e-05
7.30666e-05
4.95923e-05
7.34184e-05
9.52995e-05
0.000115653
7.08702e-05
0.000116518
7.02827e-05
7.43801e-05
7.3406e-05
9.52882e-05
0.000115652
7.08347e-05
0.000116517
7.03008e-05
7.44039e-05
7.39005e-05
4.96059e-05
4.96031e-05
7.45407e-05
7.38976e-05
4.96002e-05
4.95974e-05
7.45393e-05
2.36046e-05
2.36018e-05
2.36035e-05
2.36006e-05
8.21863e-05
6.36157e-05
6.36005e-05
6.33317e-05
6.33368e-05
2.35966e-05
2.35993e-05
2.35954e-05
2.35981e-05
2.35965e-05
2.3594e-05
2.35944e-05
2.35919e-05
6.37302e-05
6.37278e-05
8.31078e-05
6.40059e-05
6.40026e-05
2.35894e-05
2.35917e-05
2.35872e-05
2.35895e-05
8.28582e-05
6.43696e-05
6.43615e-05
6.41107e-05
6.41078e-05
7.53185e-05
4.96088e-05
7.46625e-05
4.96114e-05
7.59005e-05
7.11192e-05
0.000114839
9.40626e-05
7.49021e-05
7.16929e-05
0.000114034
7.58963e-05
7.11154e-05
0.000114837
9.40524e-05
7.48996e-05
7.1696e-05
0.000114035
7.53974e-05
4.96249e-05
4.96222e-05
7.60226e-05
7.53955e-05
4.96186e-05
4.96161e-05
7.60189e-05
7.63772e-05
9.37221e-05
7.24889e-05
0.000112463
7.19307e-05
0.000113232
7.73601e-05
7.63776e-05
9.37131e-05
7.24928e-05
0.000112463
7.19205e-05
0.00011323
7.73609e-05
6.37263e-05
6.373e-05
8.30712e-05
6.39926e-05
6.39914e-05
2.35957e-05
2.35933e-05
2.35871e-05
2.35894e-05
8.28496e-05
6.43584e-05
6.43579e-05
6.41017e-05
6.41081e-05
2.35886e-05
2.35908e-05
7.58839e-05
7.1114e-05
0.000114851
9.4083e-05
7.4905e-05
7.16958e-05
0.000114047
7.53179e-05
4.96056e-05
7.46602e-05
4.9608e-05
7.58646e-05
0.00011483
7.11285e-05
9.40502e-05
7.49159e-05
0.000114028
7.16652e-05
7.54037e-05
4.962e-05
4.96168e-05
7.60073e-05
7.6386e-05
9.37418e-05
7.24934e-05
0.000112479
7.19253e-05
0.000113245
7.73492e-05
7.53909e-05
4.96147e-05
4.96128e-05
7.6018e-05
7.63949e-05
9.37119e-05
0.000112456
7.2459e-05
0.000113223
7.19379e-05
7.73328e-05
7.52969e-05
4.96105e-05
7.46667e-05
4.96129e-05
7.58646e-05
0.000114849
7.11133e-05
9.40618e-05
7.49218e-05
0.000114045
7.16894e-05
7.53107e-05
4.96066e-05
7.46649e-05
4.96092e-05
7.63656e-05
9.37442e-05
7.24553e-05
0.000112469
7.19511e-05
0.000113252
7.736e-05
7.53965e-05
4.962e-05
4.96177e-05
7.59982e-05
7.63959e-05
9.37237e-05
0.000112473
7.2482e-05
0.000113242
7.19254e-05
7.73378e-05
7.53975e-05
4.96175e-05
4.96139e-05
7.60114e-05
6.37275e-05
6.37374e-05
8.30744e-05
6.3985e-05
6.39942e-05
2.35956e-05
2.35931e-05
2.35862e-05
2.35885e-05
8.28438e-05
6.43522e-05
6.43639e-05
6.4106e-05
6.41124e-05
2.35885e-05
2.35908e-05
7.58871e-05
0.00011484
7.11348e-05
9.40726e-05
7.48988e-05
0.000114042
7.16622e-05
7.52851e-05
4.96105e-05
7.46789e-05
4.96131e-05
7.52835e-05
4.9605e-05
7.4676e-05
4.96076e-05
7.63891e-05
9.37443e-05
0.000112473
7.24868e-05
0.000113234
7.19295e-05
7.73742e-05
7.63784e-05
9.37331e-05
0.00011247
7.24547e-05
0.000113232
7.19411e-05
7.73583e-05
7.54097e-05
4.96203e-05
4.96179e-05
7.59856e-05
7.5407e-05
4.96147e-05
4.96122e-05
7.59837e-05
2.35942e-05
2.35917e-05
2.3593e-05
2.35905e-05
8.28795e-05
6.43587e-05
6.43509e-05
6.41046e-05
6.41094e-05
2.3587e-05
2.35893e-05
2.35858e-05
2.35882e-05
2.35871e-05
2.35849e-05
2.35849e-05
2.35828e-05
6.44748e-05
6.44737e-05
8.41881e-05
6.47238e-05
6.47218e-05
2.35807e-05
2.35827e-05
2.35786e-05
2.35805e-05
8.4014e-05
6.50629e-05
6.50602e-05
6.4825e-05
6.48205e-05
7.66788e-05
4.96222e-05
7.60849e-05
4.96248e-05
7.88064e-05
7.27181e-05
0.000111722
9.28941e-05
7.78426e-05
7.32644e-05
0.000111
7.87989e-05
7.27051e-05
0.000111721
9.28857e-05
7.78424e-05
7.32379e-05
0.000111
7.67393e-05
4.96377e-05
4.96346e-05
7.73092e-05
7.67369e-05
4.96311e-05
4.96288e-05
7.73047e-05
7.92827e-05
9.26804e-05
7.40121e-05
0.000109632
7.34835e-05
0.000110307
8.02424e-05
7.92888e-05
9.26737e-05
7.39805e-05
0.00010963
7.34936e-05
0.000110304
8.02226e-05
6.44652e-05
6.44707e-05
8.42652e-05
6.47122e-05
6.47115e-05
2.35862e-05
2.35841e-05
2.35784e-05
2.35804e-05
8.39471e-05
6.50534e-05
6.50517e-05
6.48171e-05
6.48183e-05
2.35799e-05
2.35818e-05
7.87962e-05
7.27094e-05
0.000111737
9.2914e-05
7.78485e-05
7.32684e-05
0.000111017
7.66777e-05
4.9619e-05
7.60811e-05
4.96219e-05
7.87791e-05
0.000111715
7.27245e-05
9.28837e-05
7.78576e-05
0.000110993
7.32301e-05
7.67462e-05
4.96336e-05
4.96263e-05
7.72935e-05
7.92927e-05
9.27001e-05
7.40146e-05
0.000109646
7.34739e-05
0.00011032
8.02165e-05
7.67332e-05
4.96282e-05
4.96252e-05
7.73034e-05
7.92995e-05
9.26727e-05
0.000109624
7.39785e-05
0.000110298
7.34919e-05
8.02063e-05
7.66589e-05
4.96238e-05
7.60853e-05
4.96263e-05
7.8794e-05
0.000111732
7.27126e-05
9.28952e-05
7.78549e-05
0.00011101
7.32562e-05
7.6672e-05
4.96202e-05
7.60867e-05
4.96226e-05
7.92636e-05
9.27025e-05
7.39781e-05
0.000109637
7.35009e-05
0.000110323
8.02423e-05
7.67359e-05
4.96324e-05
4.96301e-05
7.72862e-05
7.92916e-05
9.26848e-05
0.000109641
7.40048e-05
0.000110315
7.34782e-05
8.02171e-05
7.6738e-05
4.96288e-05
4.96266e-05
7.72984e-05
6.44692e-05
6.44785e-05
8.41978e-05
6.47088e-05
6.4716e-05
2.35862e-05
2.3584e-05
2.35776e-05
2.35796e-05
8.40277e-05
6.50487e-05
6.50557e-05
6.48196e-05
6.48252e-05
2.35798e-05
2.35818e-05
7.88088e-05
0.000111725
7.27285e-05
9.29039e-05
7.78353e-05
0.000111008
7.323e-05
7.66469e-05
4.9624e-05
7.60984e-05
4.96266e-05
7.66449e-05
4.96184e-05
7.60958e-05
4.96211e-05
7.92681e-05
9.27031e-05
0.000109642
7.40113e-05
0.00011031
7.34814e-05
8.02472e-05
7.92768e-05
9.26931e-05
0.000109639
7.39789e-05
0.000110308
7.34933e-05
8.02206e-05
7.67481e-05
4.96328e-05
4.96305e-05
7.72736e-05
7.67456e-05
4.96274e-05
4.96246e-05
7.72713e-05
2.35847e-05
2.35826e-05
2.35836e-05
2.35814e-05
8.4121e-05
6.50557e-05
6.50469e-05
6.48175e-05
6.48197e-05
2.35784e-05
2.35804e-05
2.35772e-05
2.35792e-05
2.35786e-05
2.35768e-05
2.35764e-05
2.35746e-05
6.51614e-05
6.51573e-05
8.57442e-05
6.53904e-05
6.53871e-05
2.3573e-05
2.35747e-05
2.35709e-05
2.35725e-05
8.54797e-05
6.57065e-05
6.57031e-05
6.54866e-05