/*--------------------------------*- C++ -*----------------------------------*\
| =========                 |                                                 |
| \\      /  F ield         | OpenFOAM: The Open Source CFD Toolbox           |
|  \\    /   O peration     | Version:  2312                                  |
|   \\  /    A nd           | Website:  www.openfoam.com                      |
|    \\/     M anipulation  |                                                 |
\*---------------------------------------------------------------------------*/
FoamFile
{
    version     2.0;
    format      ascii;
    arch        "LSB;label=32;scalar=64";
    class       volScalarField;
    location    "550";
    object      p;
}
// * * * * * * * * * * * * * * * * * * * * * * * * * * * * * * * * * * * * * //

dimensions      [0 2 -2 0 0 0 0];

internalField   nonuniform List<scalar> 
42840
(
0.0026006
0.0026006
0.0026006
0.00260246
0.00256116
0.00256116
0.00256116
0.002563
0.00252194
0.00252193
0.00252193
0.00252376
0.00248293
0.00248292
0.00248292
0.00248474
0.00244413
0.00244412
0.00244412
0.00244592
0.00240553
0.00240552
0.00240552
0.0024073
0.00236712
0.00236711
0.00236711
0.00236888
0.0023289
0.00232888
0.00232888
0.00233063
0.00229086
0.00229083
0.00229083
0.00229257
0.00225299
0.00225296
0.00225296
0.00225468
0.00221528
0.00221526
0.00221526
0.00221696
0.00217774
0.00217771
0.00217771
0.0021794
0.00214036
0.00214032
0.00214032
0.002142
0.00210312
0.00210309
0.00210309
0.00210475
0.00206603
0.00206599
0.00206599
0.00206764
0.00202908
0.00202904
0.00202904
0.00203067
0.00199226
0.00199221
0.00199221
0.00199384
0.00195556
0.00195552
0.00195552
0.00195713
0.00191899
0.00191894
0.00191894
0.00192055
0.00188254
0.00188248
0.00188248
0.00188408
0.00184619
0.00184613
0.00184613
0.00184773
0.00180995
0.00180988
0.00180989
0.00181147
0.00177381
0.00177374
0.00177374
0.00177532
0.00173775
0.00173768
0.00173768
0.00173926
0.00170179
0.00170171
0.00170171
0.00170329
0.00260246
0.00256923
0.0026006
0.0026006
0.00257099
0.002571
0.00260246
0.00256923
0.0026006
0.0026006
0.002571
0.002571
0.0026006
0.002571
0.002571
0.00260246
0.00256923
0.0026006
0.002571
0.002571
0.00256923
0.002563
0.00252997
0.00256116
0.00256116
0.00253172
0.00253172
0.002563
0.00252997
0.00256115
0.00256116
0.00253172
0.00253172
0.00256116
0.00253172
0.00253172
0.002563
0.00252997
0.00256116
0.00253172
0.00253172
0.00252997
0.00252376
0.00249093
0.00252193
0.00252193
0.00249266
0.00249266
0.00252376
0.00249093
0.00252193
0.00252193
0.00249266
0.00249266
0.00252193
0.00249266
0.00249266
0.00252376
0.00249093
0.00252193
0.00249266
0.00249266
0.00249093
0.00248474
0.00245209
0.00248292
0.00248292
0.0024538
0.0024538
0.00248474
0.00245209
0.00248292
0.00248292
0.0024538
0.0024538
0.00248292
0.0024538
0.0024538
0.00248474
0.00245208
0.00248292
0.0024538
0.0024538
0.00245209
0.00244592
0.00241344
0.00244412
0.00244412
0.00241515
0.00241515
0.00244592
0.00241344
0.00244412
0.00244412
0.00241515
0.00241515
0.00244412
0.00241515
0.00241515
0.00244592
0.00241344
0.00244412
0.00241515
0.00241515
0.00241344
0.0024073
0.00237499
0.00240552
0.00240552
0.00237669
0.00237669
0.0024073
0.00237499
0.00240552
0.00240552
0.00237669
0.00237669
0.00240552
0.00237669
0.00237669
0.0024073
0.00237499
0.00240552
0.00237669
0.00237669
0.00237499
0.00236888
0.00233672
0.00236711
0.00236711
0.00233842
0.00233842
0.00236888
0.00233672
0.00236711
0.00236711
0.00233842
0.00233842
0.00236711
0.00233842
0.00233842
0.00236888
0.00233672
0.00236711
0.00233842
0.00233842
0.00233672
0.00233063
0.00229863
0.00232888
0.00232888
0.00230033
0.00230033
0.00233063
0.00229864
0.00232888
0.00232888
0.00230033
0.00230033
0.00232888
0.00230033
0.00230033
0.00233063
0.00229863
0.00232888
0.00230033
0.00230033
0.00229863
0.00229257
0.00226072
0.00229083
0.00229083
0.00226241
0.00226241
0.00229257
0.00226072
0.00229083
0.00229083
0.00226241
0.00226241
0.00229084
0.00226241
0.00226241
0.00229257
0.00226072
0.00229084
0.00226241
0.00226241
0.00226072
0.00225468
0.00222298
0.00225296
0.00225296
0.00222467
0.00222467
0.00225468
0.00222298
0.00225296
0.00225296
0.00222467
0.00222467
0.00225296
0.00222467
0.00222467
0.00225468
0.00222298
0.00225296
0.00222467
0.00222467
0.00222298
0.00221696
0.00218539
0.00221526
0.00221526
0.00218708
0.00218708
0.00221696
0.00218539
0.00221526
0.00221526
0.00218708
0.00218708
0.00221526
0.00218708
0.00218708
0.00221696
0.00218539
0.00221526
0.00218708
0.00218708
0.00218539
0.0021794
0.00214797
0.00217771
0.00217771
0.00214966
0.00214966
0.0021794
0.00214797
0.00217771
0.00217771
0.00214966
0.00214966
0.00217771
0.00214966
0.00214966
0.0021794
0.00214797
0.00217771
0.00214966
0.00214966
0.00214797
0.002142
0.0021107
0.00214032
0.00214032
0.00211238
0.00211238
0.002142
0.0021107
0.00214032
0.00214032
0.00211238
0.00211238
0.00214033
0.00211238
0.00211238
0.002142
0.0021107
0.00214033
0.00211238
0.00211238
0.0021107
0.00210475
0.00207357
0.00210309
0.00210309
0.00207525
0.00207525
0.00210475
0.00207357
0.00210309
0.00210309
0.00207525
0.00207525
0.00210309
0.00207525
0.00207525
0.00210474
0.00207357
0.00210309
0.00207525
0.00207525
0.00207357
0.00206764
0.00203658
0.00206599
0.00206599
0.00203826
0.00203826
0.00206764
0.00203658
0.00206599
0.00206599
0.00203826
0.00203826
0.00206599
0.00203826
0.00203826
0.00206764
0.00203658
0.00206599
0.00203826
0.00203826
0.00203658
0.00203067
0.00199973
0.00202904
0.00202904
0.00200141
0.00200141
0.00203067
0.00199973
0.00202904
0.00202904
0.00200141
0.00200141
0.00202904
0.00200141
0.00200141
0.00203067
0.00199973
0.00202904
0.00200141
0.00200141
0.00199973
0.00199384
0.001963
0.00199221
0.00199221
0.00196468
0.00196468
0.00199384
0.001963
0.00199221
0.00199221
0.00196468
0.00196468
0.00199221
0.00196468
0.00196468
0.00199384
0.001963
0.00199221
0.00196468
0.00196468
0.001963
0.00195713
0.0019264
0.00195552
0.00195552
0.00192807
0.00192807
0.00195713
0.0019264
0.00195552
0.00195552
0.00192807
0.00192807
0.00195552
0.00192807
0.00192807
0.00195713
0.0019264
0.00195552
0.00192807
0.00192807
0.0019264
0.00192055
0.00188992
0.00191894
0.00191894
0.00189159
0.00189159
0.00192055
0.00188992
0.00191894
0.00191894
0.00189159
0.00189159
0.00191894
0.00189159
0.00189159
0.00192055
0.00188992
0.00191894
0.00189159
0.00189159
0.00188992
0.00188408
0.00185354
0.00188248
0.00188248
0.00185521
0.00185521
0.00188408
0.00185354
0.00188248
0.00188248
0.00185521
0.00185521
0.00188248
0.00185521
0.00185521
0.00188408
0.00185354
0.00188248
0.00185521
0.00185521
0.00185354
0.00184773
0.00181727
0.00184613
0.00184613
0.00181894
0.00181894
0.00184773
0.00181727
0.00184613
0.00184613
0.00181894
0.00181894
0.00184613
0.00181894
0.00181894
0.00184773
0.00181727
0.00184613
0.00181894
0.00181894
0.00181727
0.00181147
0.00178111
0.00180988
0.00180988
0.00178276
0.00178276
0.00181147
0.00178111
0.00180988
0.00180989
0.00178276
0.00178276
0.00180988
0.00178276
0.00178276
0.00181147
0.00178111
0.00180988
0.00178276
0.00178276
0.00178111
0.00177532
0.00174503
0.00177374
0.00177374
0.00174669
0.00174669
0.00177532
0.00174503
0.00177374
0.00177374
0.00174669
0.00174669
0.00177374
0.00174669
0.00174669
0.00177532
0.00174503
0.00177374
0.00174669
0.00174669
0.00174503
0.00173926
0.00170904
0.00173768
0.00173768
0.00171069
0.00171069
0.00173926
0.00170904
0.00173768
0.00173768
0.00171069
0.00171069
0.00173768
0.00171069
0.00171069
0.00173926
0.00170904
0.00173768
0.00171069
0.00171069
0.00170904
0.00170329
0.00170171
0.00170171
0.00170329
0.00170171
0.00170171
0.00170171
0.00170329
0.00170171
0.00258824
0.00260277
0.00258814
0.00260284
0.00260275
0.00258811
0.00258824
0.00260277
0.00258814
0.00260284
0.0026006
0.0026006
0.0026006
0.002571
0.002571
0.002571
0.002571
0.00258854
0.00260276
0.0026006
0.00259072
0.00258833
0.00259072
0.00260281
0.00260275
0.00258811
0.00258854
0.0026006
0.00260275
0.00259072
0.00259072
0.00258833
0.00260281
0.00260279
0.00260279
0.00258895
0.00258818
0.00258818
0.00254886
0.00256331
0.00256338
0.00254877
0.00256329
0.00254874
0.00254886
0.00256331
0.00256338
0.00254877
0.00256116
0.00256116
0.00256116
0.00253172
0.00253172
0.00253172
0.00253172
0.00254914
0.00256329
0.00256116
0.00255133
0.00256334
0.00254895
0.00255133
0.00256329
0.00254873
0.00254914
0.00256116
0.00256329
0.00255133
0.00256334
0.00255133
0.00254894
0.00256333
0.00256333
0.00254958
0.00254879
0.00254879
0.0025097
0.00252408
0.00252413
0.00250961
0.00252406
0.00250958
0.0025097
0.00252408
0.00252413
0.00250961
0.00252194
0.00252194
0.00252194
0.00249266
0.00249266
0.00249266
0.00249266
0.00250996
0.00252405
0.00252193
0.00251216
0.00252409
0.00250978
0.00251216
0.00252406
0.00250958
0.00250996
0.00252193
0.00252406
0.00251216
0.00252409
0.00251216
0.00250978
0.0025241
0.0025241
0.00251042
0.00250963
0.00250963
0.00247074
0.00248506
0.00248511
0.00247066
0.00248504
0.00247064
0.00247074
0.00248506
0.00248511
0.00247066
0.00248293
0.00248293
0.00248293
0.00245381
0.00245381
0.00245381
0.00245381
0.00247099
0.00248503
0.00248292
0.0024732
0.00248506
0.00247082
0.0024732
0.00248504
0.00247064
0.00247099
0.00248292
0.00248503
0.0024732
0.00248506
0.0024732
0.00247082
0.00248507
0.00248507
0.00247148
0.00247069
0.00247069
0.002432
0.00244624
0.00244629
0.00243192
0.00244623
0.0024319
0.002432
0.00244624
0.00244629
0.00243192
0.00244413
0.00244413
0.00244413
0.00241516
0.00241516
0.00241516
0.00241516
0.00243224
0.00244621
0.00244412
0.00243445
0.00244624
0.00243206
0.00243445
0.00244623
0.0024319
0.00243224
0.00244412
0.00244621
0.00243445
0.00244624
0.00243445
0.00243207
0.00244626
0.00244626
0.00243274
0.00243194
0.00243194
0.00239345
0.00240763
0.00240767
0.00239338
0.00240762
0.00239335
0.00239345
0.00240763
0.00240768
0.00239338
0.00240553
0.00240553
0.00240553
0.00237671
0.00237671
0.00237671
0.00237671
0.00239368
0.0024076
0.00240552
0.0023959
0.00240762
0.00239351
0.0023959
0.00240762
0.00239335
0.00239368
0.00240552
0.0024076
0.0023959
0.00240762
0.0023959
0.00239351
0.00240764
0.00240764
0.00239419
0.00239339
0.00239339
0.00235509
0.00236921
0.00236925
0.00235502
0.0023692
0.002355
0.00235509
0.00236921
0.00236925
0.00235502
0.00236712
0.00236712
0.00236712
0.00233844
0.00233844
0.00233844
0.00233844
0.00235531
0.00236917
0.00236711
0.00235753
0.00236919
0.00235515
0.00235754
0.0023692
0.002355
0.00235531
0.00236711
0.00236918
0.00235753
0.00236919
0.00235754
0.00235515
0.00236922
0.00236922
0.00235583
0.00235504
0.00235504
0.00231691
0.00233097
0.00233101
0.00231685
0.00233096
0.00231683
0.00231691
0.00233097
0.00233101
0.00231685
0.0023289
0.0023289
0.0023289
0.00230035
0.00230035
0.00230035
0.00230035
0.00231712
0.00233094
0.00232889
0.00231935
0.00233095
0.00231697
0.00231936
0.00233096
0.00231683
0.00231713
0.00232889
0.00233094
0.00231935
0.00233095
0.00231936
0.00231697
0.00233098
0.00233099
0.00231766
0.00231686
0.00231687
0.00227891
0.00229291
0.00229295
0.00227885
0.00229291
0.00227883
0.00227891
0.00229291
0.00229295
0.00227885
0.00229086
0.00229086
0.00229086
0.00226244
0.00226244
0.00226244
0.00226244
0.00227912
0.00229288
0.00229084
0.00228135
0.00229289
0.00227897
0.00228136
0.00229291
0.00227883
0.00227912
0.00229084
0.00229288
0.00228135
0.00229289
0.00228136
0.00227897
0.00229293
0.00229293
0.00227966
0.00227887
0.00227887
0.00224109
0.00225503
0.00225507
0.00224103
0.00225502
0.00224101
0.00224109
0.00225503
0.00225507
0.00224103
0.00225299
0.00225299
0.00225299
0.00222469
0.00222469
0.00222469
0.00222469
0.00224129
0.002255
0.00225297
0.00224352
0.002255
0.00224114
0.00224353
0.00225502
0.00224101
0.00224129
0.00225297
0.002255
0.00224352
0.002255
0.00224353
0.00224114
0.00225504
0.00225504
0.00224183
0.00224104
0.00224104
0.00220343
0.00221731
0.00221735
0.00220337
0.00221731
0.00220336
0.00220343
0.00221731
0.00221735
0.00220337
0.00221528
0.00221528
0.00221528
0.00218711
0.00218711
0.00218711
0.00218711
0.00220362
0.00221728
0.00221527
0.00220586
0.00221729
0.00220348
0.00220587
0.00221731
0.00220336
0.00220362
0.00221527
0.00221728
0.00220586
0.00221729
0.00220587
0.00220348
0.00221733
0.00221733
0.00220416
0.00220339
0.00220339
0.00216593
0.00217976
0.00217979
0.00216588
0.00217976
0.00216586
0.00216593
0.00217976
0.00217979
0.00216588
0.00217774
0.00217774
0.00217774
0.00214969
0.00214969
0.00214969
0.00214969
0.00216612
0.00217973
0.00217773
0.00216835
0.00217973
0.00216598
0.00216837
0.00217976
0.00216586
0.00216612
0.00217773
0.00217973
0.00216835
0.00217973
0.00216837
0.00216598
0.00217977
0.00217978
0.00216666
0.00216589
0.00216589
0.00212859
0.00214237
0.00214239
0.00212854
0.00214236
0.00212852
0.00212859
0.00214237
0.00214239
0.00212854
0.00214036
0.00214036
0.00214036
0.00211242
0.00211242
0.00211242
0.00211242
0.00212877
0.00214233
0.00214034
0.002131
0.00214233
0.00212864
0.00213102
0.00214236
0.00212852
0.00212877
0.00214034
0.00214233
0.002131
0.00214233
0.00213102
0.00212864
0.00214238
0.00214238
0.00212931
0.00212855
0.00212855
0.00209139
0.00210512
0.00210515
0.00209134
0.00210512
0.00209133
0.00209139
0.00210512
0.00210515
0.00209134
0.00210312
0.00210312
0.00210312
0.00207529
0.00207529
0.00207529
0.00207529
0.00209157
0.00210509
0.00210311
0.0020938
0.00210509
0.00209144
0.00209382
0.00210512
0.00209133
0.00209157
0.00210311
0.00210509
0.0020938
0.00210509
0.00209382
0.00209144
0.00210513
0.00210513
0.00209211
0.00209135
0.00209135
0.00205434
0.00206802
0.00206804
0.00205429
0.00206802
0.00205428
0.00205434
0.00206802
0.00206804
0.00205429
0.00206603
0.00206603
0.00206603
0.0020383
0.0020383
0.0020383
0.0020383
0.00205451
0.00206799
0.00206602
0.00205674
0.00206798
0.00205439
0.00205677
0.00206802
0.00205428
0.00205451
0.00206602
0.00206799
0.00205674
0.00206799
0.00205677
0.00205439
0.00206803
0.00206803
0.00205506
0.0020543
0.0020543
0.00201742
0.00203106
0.00203108
0.00201738
0.00203106
0.00201737
0.00201742
0.00203106
0.00203108
0.00201738
0.00202908
0.00202908
0.00202908
0.00200145
0.00200145
0.00200145
0.00200145
0.00201759
0.00203103
0.00202906
0.00201982
0.00203102
0.00201747
0.00201985
0.00203106
0.00201737
0.00201759
0.00202906
0.00203103
0.00201982
0.00203102
0.00201985
0.00201747
0.00203107
0.00203107
0.00201814
0.00201739
0.00201739
0.00198064
0.00199423
0.00199425
0.0019806
0.00199423
0.00198059
0.00198064
0.00199423
0.00199425
0.0019806
0.00199226
0.00199226
0.00199226
0.00196473
0.00196473
0.00196473
0.00196473
0.00198081
0.0019942
0.00199224
0.00198303
0.00199419
0.00198069
0.00198306
0.00199423
0.00198059
0.00198081
0.00199224
0.0019942
0.00198303
0.00199419
0.00198306
0.00198069
0.00199424
0.00199424
0.00198135
0.00198061
0.00198061
0.00194398
0.00195753
0.00195755
0.00194394
0.00195753
0.00194393
0.00194398
0.00195753
0.00195755
0.00194394
0.00195556
0.00195556
0.00195556
0.00192813
0.00192813
0.00192813
0.00192812
0.00194414
0.0019575
0.00195555
0.00194636
0.00195749
0.00194403
0.0019464
0.00195753
0.00194393
0.00194414
0.00195555
0.0019575
0.00194636
0.00195749
0.0019464
0.00194403
0.00195754
0.00195754
0.00194469
0.00194395
0.00194395
0.00190744
0.00192095
0.00192097
0.00190741
0.00192096
0.0019074
0.00190744
0.00192095
0.00192097
0.00190741
0.00191899
0.00191899
0.00191899
0.00189164
0.00189164
0.00189164
0.00189164
0.0019076
0.00192092
0.00191898
0.00190982
0.00192091
0.00190749
0.00190985
0.00192096
0.0019074
0.0019076
0.00191898
0.00192092
0.00190982
0.00192091
0.00190985
0.00190749
0.00192097
0.00192097
0.00190814
0.00190742
0.00190742
0.00187102
0.00188449
0.00188451
0.00187098
0.00188449
0.00187098
0.00187102
0.00188449
0.00188451
0.00187098
0.00188254
0.00188254
0.00188254
0.00185527
0.00185527
0.00185527
0.00185527
0.00187118
0.00188446
0.00188252
0.00187338
0.00188445
0.00187107
0.00187342
0.00188449
0.00187098
0.00187118
0.00188252
0.00188446
0.00187338
0.00188445
0.00187342
0.00187107
0.0018845
0.0018845
0.00187172
0.00187099
0.00187099
0.0018347
0.00184814
0.00184815
0.00183467
0.00184814
0.00183466
0.0018347
0.00184814
0.00184815
0.00183467
0.00184619
0.00184619
0.00184619
0.001819
0.001819
0.001819
0.001819
0.00183486
0.00184811
0.00184617
0.00183706
0.0018481
0.00183475
0.0018371
0.00184814
0.00183466
0.00183486
0.00184617
0.00184811
0.00183706
0.0018481
0.0018371
0.00183475
0.00184815
0.00184815
0.0018354
0.00183468
0.00183468
0.00179849
0.00181189
0.0018119
0.00179846
0.0018119
0.00179845
0.00179849
0.00181189
0.0018119
0.00179846
0.00180995
0.00180995
0.00180995
0.00178283
0.00178283
0.00178283
0.00178283
0.00179864
0.00181186
0.00180993
0.00180084
0.00181185
0.00179854
0.00180088
0.0018119
0.00179845
0.00179864
0.00180993
0.00181186
0.00180084
0.00181185
0.00180088
0.00179854
0.0018119
0.0018119
0.00179918
0.00179847
0.00179847
0.00176237
0.00177575
0.00177575
0.00176235
0.00177575
0.00176234
0.00176237
0.00177575
0.00177576
0.00176235
0.00177381
0.0017738
0.00177381
0.00174676
0.00174676
0.00174676
0.00174676
0.00176252
0.00177571
0.00177378
0.00176471
0.0017757
0.00176242
0.00176476
0.00177575
0.00176234
0.00176252
0.00177378
0.00177571
0.00176471
0.0017757
0.00176476
0.00176242
0.00177576
0.00177576
0.00176306
0.00176235
0.00176235
0.00172635
0.00173969
0.0017397
0.00172632
0.00173969
0.00172632
0.00172635
0.00173969
0.0017397
0.00172632
0.00173775
0.00173775
0.00173775
0.00171077
0.00171077
0.00171077
0.00171077
0.00172649
0.00173966
0.00173772
0.00172868
0.00173964
0.0017264
0.00172872
0.00173969
0.00172632
0.00172649
0.00173772
0.00173966
0.00172868
0.00173964
0.00172872
0.0017264
0.0017397
0.0017397
0.00172703
0.00172633
0.00172633
0.00169041
0.00170372
0.00170373
0.00169038
0.00170373
0.00169038
0.00169041
0.00170372
0.00170373
0.00169038
0.00170179
0.00170179
0.00170179
0.00169055
0.00170369
0.00170175
0.00169273
0.00170367
0.00169046
0.00169277
0.00170373
0.00169038
0.00169055
0.00170175
0.00170369
0.00169273
0.00170367
0.00169278
0.00169046
0.00170373
0.00170373
0.00169108
0.00169039
0.00169039
0.00260275
0.00258811
0.00260275
0.00258811
0.00260279
0.00260279
0.00258895
0.00258818
0.00258818
0.00256839
0.00258299
0.00256839
0.00258299
0.0025827
0.00256846
0.00256846
0.00258303
0.00258303
0.00258824
0.00260277
0.00258814
0.00260284
0.00258854
0.00260275
0.0026006
0.00259072
0.00258833
0.00259072
0.00260281
0.00258854
0.00260275
0.0026006
0.00259072
0.00258833
0.00259072
0.00260281
0.00258308
0.00256843
0.00258301
0.00256852
0.00258308
0.00256843
0.00258301
0.00256852
0.00258305
0.00258085
0.00256861
0.002571
0.00258299
0.00258085
0.00256881
0.00258305
0.00258085
0.00256861
0.002571
0.002583
0.00258085
0.00256881
0.00260279
0.00260279
0.00258895
0.00258818
0.00258818
0.00260275
0.00258811
0.00256839
0.00258299
0.0025827
0.00256846
0.00256846
0.00258303
0.00258303
0.0025684
0.00258299
0.00258854
0.00260275
0.0026006
0.00259072
0.00258833
0.00259072
0.00260281
0.00258824
0.00260277
0.00258814
0.00260284
0.00258854
0.0026006
0.00260275
0.00259072
0.00259072
0.00258833
0.00260281
0.00258308
0.00256843
0.00258301
0.00256852
0.00258305
0.00258085
0.00256861
0.002571
0.00258299
0.00258085
0.00256881
0.00258308
0.00256843
0.00258301
0.00256852
0.00258305
0.00258085
0.002571
0.00256861
0.00258085
0.00258299
0.00256881
0.00258824
0.00260277
0.00258814
0.00260284
0.00258854
0.0026006
0.00260275
0.00259072
0.00259072
0.00258833
0.00260281
0.00258824
0.00260277
0.00258814
0.00260284
0.00258305
0.00258085
0.00256861
0.002571
0.002583
0.00258085
0.00256881
0.00258308
0.00256843
0.00258301
0.00256852
0.00258305
0.00258085
0.002571
0.00256861
0.00258085
0.00258299
0.00256881
0.00258308
0.00256843
0.00258301
0.00256852
0.00260279
0.00260279
0.00258895
0.00258818
0.00258818
0.00260275
0.00258811
0.00256839
0.00258299
0.0025827
0.00256846
0.00256846
0.00258303
0.00258303
0.00256839
0.00258299
0.00258854
0.0026006
0.00260275
0.00259072
0.00259072
0.00258833
0.00260281
0.00258824
0.00260277
0.00258814
0.00260284
0.00258824
0.00260277
0.00258814
0.00260284
0.00258305
0.00258085
0.002571
0.00256861
0.00258085
0.00258299
0.00256881
0.00258305
0.00258085
0.002571
0.00256861
0.00258085
0.002583
0.00256881
0.00258308
0.00256843
0.00258301
0.00256852
0.00258308
0.00256843
0.00258301
0.00256852
0.00260275
0.00258811
0.00260275
0.00258811
0.0025827
0.00256846
0.00256846
0.00258303
0.00258303
0.00256839
0.00258299
0.00256839
0.00258299
0.00256329
0.00254874
0.00256329
0.00254874
0.00256333
0.00256333
0.00254958
0.0025488
0.0025488
0.00252913
0.00254365
0.00252913
0.00254365
0.00254336
0.00252919
0.00252919
0.00254369
0.00254369
0.00254886
0.00256331
0.00256338
0.00254877
0.00254914
0.00256329
0.00256116
0.00255133
0.00256334
0.00254895
0.00255133
0.00254914
0.00256329
0.00256116
0.00255133
0.00256334
0.00254894
0.00255133
0.00254373
0.00252916
0.00254367
0.00252925
0.00254373
0.00252916
0.00254367
0.00252925
0.00254369
0.00254152
0.00252933
0.00253172
0.00254365
0.00254152
0.00252952
0.00254369
0.00254152
0.00252933
0.00253172
0.00254365
0.00254152
0.00252952
0.00256333
0.00256333
0.00254958
0.00254879
0.0025488
0.00256329
0.00254874
0.00252913
0.00254365
0.00254335
0.00252919
0.00252919
0.00254369
0.00254369
0.00252913
0.00254365
0.00254914
0.00256329
0.00256116
0.00255133
0.00256334
0.00254894
0.00255133
0.00254886
0.00256331
0.00256338
0.00254877
0.00254914
0.00256116
0.00256329
0.00255133
0.00256334
0.00255133
0.00254894
0.00254373
0.00252916
0.00254367
0.00252925
0.00254369
0.00254152
0.00252933
0.00253172
0.00254365
0.00254152
0.00252952
0.00254373
0.00252916
0.00254367
0.00252925
0.00254369
0.00254152
0.00253172
0.00252933
0.00254152
0.00254365
0.00252952
0.00254886
0.00256331
0.00256338
0.00254877
0.00254914
0.00256116
0.00256329
0.00255133
0.00256334
0.00255133
0.00254894
0.00254886
0.00256331
0.00256338
0.00254876
0.00254369
0.00254152
0.00252934
0.00253172
0.00254365
0.00254152
0.00252952
0.00254373
0.00252916
0.00254367
0.00252925
0.00254369
0.00254152
0.00253172
0.00252933
0.00254152
0.00254365
0.00252952
0.00254373
0.00252916
0.00254367
0.00252925
0.00256333
0.00256333
0.00254958
0.00254879
0.00254879
0.00256329
0.00254874
0.00252913
0.00254365
0.00254335
0.00252919
0.00252919
0.00254369
0.00254369
0.00252913
0.00254365
0.00254914
0.00256116
0.00256329
0.00255133
0.00256334
0.00255133
0.00254894
0.00254886
0.00256331
0.00256338
0.00254877
0.00254886
0.00256331
0.00256338
0.00254877
0.00254369
0.00254152
0.00253172
0.00252933
0.00254152
0.00254365
0.00252952
0.00254369
0.00254152
0.00253172
0.00252933
0.00254152
0.00254365
0.00252952
0.00254373
0.00252916
0.00254367
0.00252925
0.00254373
0.00252916
0.00254367
0.00252925
0.00256329
0.00254873
0.00256329
0.00254874
0.00254335
0.00252919
0.00252919
0.00254369
0.00254369
0.00252913
0.00254365
0.00252913
0.00254365
0.00252406
0.00250958
0.00252406
0.00250958
0.0025241
0.0025241
0.00251042
0.00250964
0.00250963
0.00249008
0.00250453
0.00249008
0.00250453
0.00250423
0.00249013
0.00249014
0.00250456
0.00250456
0.0025097
0.00252408
0.00252413
0.00250961
0.00250996
0.00252406
0.00252193
0.00251216
0.00252409
0.00250978
0.00251216
0.00250996
0.00252406
0.00252193
0.00251216
0.00252409
0.00250978
0.00251216
0.0025046
0.00249011
0.00250454
0.00249019
0.0025046
0.00249011
0.00250454
0.00249019
0.00250455
0.0025024
0.00249027
0.00249266
0.00250452
0.0025024
0.00249045
0.00250455
0.0025024
0.00249027
0.00249266
0.00250452
0.0025024
0.00249045
0.0025241
0.0025241
0.00251042
0.00250963
0.00250964
0.00252406
0.00250958
0.00249008
0.00250453
0.00250423
0.00249013
0.00249013
0.00250456
0.00250456
0.00249008
0.00250453
0.00250996
0.00252406
0.00252193
0.00251216
0.00252409
0.00250978
0.00251216
0.00250969
0.00252408
0.00252413
0.00250961
0.00250996
0.00252193
0.00252405
0.00251216
0.00252409
0.00251216
0.00250978
0.0025046
0.00249011
0.00250454
0.00249019
0.00250455
0.0025024
0.00249027
0.00249266
0.00250452
0.0025024
0.00249045
0.0025046
0.00249011
0.00250454
0.00249019
0.00250455
0.0025024
0.00249266
0.00249027
0.0025024
0.00250452
0.00249045
0.0025097
0.00252408
0.00252413
0.00250961
0.00250996
0.00252193
0.00252405
0.00251216
0.00252409
0.00251216
0.00250978
0.0025097
0.00252408
0.00252414
0.00250961
0.00250455
0.0025024
0.00249027
0.00249266
0.00250452
0.0025024
0.00249045
0.0025046
0.00249011
0.00250454
0.00249019
0.00250455
0.0025024
0.00249266
0.00249027
0.0025024
0.00250452
0.00249045
0.0025046
0.00249011
0.00250454
0.00249019
0.0025241
0.0025241
0.00251042
0.00250963
0.00250963
0.00252406
0.00250958
0.00249008
0.00250453
0.00250423
0.00249013
0.00249013
0.00250456
0.00250456
0.00249008
0.00250453
0.00250996
0.00252193
0.00252406
0.00251216
0.00252409
0.00251216
0.00250978
0.0025097
0.00252408
0.00252414
0.00250961
0.0025097
0.00252408
0.00252414
0.00250961
0.00250455
0.0025024
0.00249266
0.00249027
0.0025024
0.00250452
0.00249045
0.00250455
0.0025024
0.00249266
0.00249027
0.0025024
0.00250452
0.00249045
0.0025046
0.00249011
0.00250454
0.00249019
0.0025046
0.00249011
0.00250454
0.00249019
0.00252406
0.00250958
0.00252406
0.00250958
0.00250423
0.00249013
0.00249013
0.00250456
0.00250456
0.00249008
0.00250453
0.00249008
0.00250453
0.00248504
0.00247064
0.00248504
0.00247064
0.00248507
0.00248507
0.00247148
0.00247069
0.00247069
0.00245124
0.00246561
0.00245124
0.00246561
0.00246531
0.00245129
0.00245129
0.00246564
0.00246564
0.00247074
0.00248506
0.00248511
0.00247066
0.00247099
0.00248503
0.00248292
0.0024732
0.00248506
0.00247082
0.0024732
0.00247099
0.00248503
0.00248292
0.0024732
0.00248506
0.00247082
0.0024732
0.00246568
0.00245127
0.00246562
0.00245135
0.00246568
0.00245127
0.00246562
0.00245135
0.00246563
0.0024635
0.00245142
0.0024538
0.0024656
0.0024635
0.00245159
0.00246563
0.0024635
0.00245142
0.0024538
0.0024656
0.0024635
0.00245159
0.00248507
0.00248507
0.00247148
0.00247069
0.00247069
0.00248504
0.00247064
0.00245124
0.00246561
0.00246531
0.00245129
0.00245129
0.00246564
0.00246564
0.00245124
0.00246561
0.00247099
0.00248503
0.00248292
0.0024732
0.00248506
0.00247082
0.0024732
0.00247074
0.00248506
0.00248511
0.00247066
0.00247099
0.00248292
0.00248503
0.0024732
0.00248506
0.0024732
0.00247082
0.00246568
0.00245127
0.00246562
0.00245135
0.00246563
0.0024635
0.00245142
0.0024538
0.0024656
0.0024635
0.00245159
0.00246568
0.00245127
0.00246563
0.00245135
0.00246563
0.0024635
0.0024538
0.00245142
0.0024635
0.0024656
0.00245159
0.00247074
0.00248506
0.00248511
0.00247066
0.00247099
0.00248292
0.00248503
0.0024732
0.00248506
0.0024732
0.00247082
0.00247074
0.00248506
0.00248511
0.00247066
0.00246562
0.0024635
0.00245142
0.0024538
0.0024656
0.0024635
0.00245159
0.00246568
0.00245127
0.00246563
0.00245135
0.00246562
0.0024635
0.0024538
0.00245141
0.0024635
0.0024656
0.00245159
0.00246568
0.00245127
0.00246562
0.00245135
0.00248507
0.00248507
0.00247148
0.00247069
0.00247069
0.00248504
0.00247064
0.00245124
0.00246561
0.00246531
0.00245129
0.00245129
0.00246564
0.00246564
0.00245124
0.00246561
0.00247099
0.00248292
0.00248503
0.0024732
0.00248506
0.0024732
0.00247082
0.00247075
0.00248506
0.00248511
0.00247066
0.00247075
0.00248506
0.00248511
0.00247066
0.00246563
0.0024635
0.0024538
0.00245142
0.0024635
0.0024656
0.00245159
0.00246563
0.0024635
0.0024538
0.00245142
0.0024635
0.0024656
0.00245159
0.00246568
0.00245127
0.00246562
0.00245135
0.00246568
0.00245127
0.00246563
0.00245135
0.00248504
0.00247064
0.00248504
0.00247064
0.00246531
0.00245129
0.00245129
0.00246564
0.00246564
0.00245124
0.00246561
0.00245124
0.00246561
0.00244623
0.0024319
0.00244623
0.0024319
0.00244626
0.00244626
0.00243274
0.00243194
0.00243194
0.0024126
0.0024269
0.0024126
0.0024269
0.00242659
0.00241264
0.00241264
0.00242693
0.00242693
0.002432
0.00244624
0.00244629
0.00243192
0.00243224
0.00244621
0.00244412
0.00243445
0.00244624
0.00243207
0.00243445
0.00243224
0.00244621
0.00244412
0.00243445
0.00244624
0.00243207
0.00243445
0.00242696
0.00241262
0.00242691
0.0024127
0.00242696
0.00241262
0.00242691
0.0024127
0.0024269
0.0024248
0.00241276
0.00241515
0.00242688
0.0024248
0.00241293
0.0024269
0.0024248
0.00241276
0.00241515
0.00242688
0.0024248
0.00241293
0.00244626
0.00244626
0.00243274
0.00243194
0.00243194
0.00244623
0.0024319
0.0024126
0.0024269
0.00242659
0.00241264
0.00241264
0.00242693
0.00242693
0.0024126
0.0024269
0.00243224
0.00244621
0.00244412
0.00243445
0.00244624
0.00243207
0.00243445
0.002432
0.00244624
0.00244629
0.00243192
0.00243224
0.00244412
0.00244621
0.00243445
0.00244624
0.00243445
0.00243207
0.00242696
0.00241262
0.00242691
0.0024127
0.0024269
0.0024248
0.00241276
0.00241515
0.00242688
0.0024248
0.00241293
0.00242696
0.00241262
0.00242691
0.0024127
0.0024269
0.0024248
0.00241515
0.00241276
0.0024248
0.00242688
0.00241293
0.002432
0.00244624
0.00244629
0.00243192
0.00243224
0.00244412
0.00244621
0.00243445
0.00244624
0.00243445
0.00243206
0.002432
0.00244624
0.00244629
0.00243192
0.0024269
0.0024248
0.00241276
0.00241515
0.00242688
0.0024248
0.00241293
0.00242696
0.00241262
0.00242691
0.0024127
0.0024269
0.0024248
0.00241515
0.00241276
0.0024248
0.00242688
0.00241293
0.00242696
0.00241262
0.00242691
0.0024127
0.00244626
0.00244626
0.00243274
0.00243194
0.00243194
0.00244623
0.0024319
0.0024126
0.0024269
0.00242659
0.00241264
0.00241264
0.00242693
0.00242693
0.0024126
0.0024269
0.00243224
0.00244412
0.00244621
0.00243445
0.00244624
0.00243445
0.00243207
0.002432
0.00244624
0.00244629
0.00243192
0.002432
0.00244624
0.00244629
0.00243192
0.0024269
0.0024248
0.00241515
0.00241276
0.0024248
0.00242688
0.00241293
0.0024269
0.0024248
0.00241515
0.00241276
0.0024248
0.00242688
0.00241293
0.00242696
0.00241262
0.00242691
0.0024127
0.00242696
0.00241262
0.00242691
0.0024127
0.00244623
0.0024319
0.00244623
0.0024319
0.00242659
0.00241264
0.00241264
0.00242693
0.00242693
0.0024126
0.0024269
0.0024126
0.0024269
0.00240762
0.00239335
0.00240762
0.00239335
0.00240764
0.00240764
0.00239419
0.00239339
0.00239339
0.00237415
0.00238838
0.00237415
0.00238838
0.00238807
0.00237419
0.00237419
0.00238841
0.00238841
0.00239345
0.00240763
0.00240767
0.00239337
0.00239368
0.0024076
0.00240552
0.0023959
0.00240762
0.00239351
0.0023959
0.00239368
0.0024076
0.00240552
0.0023959
0.00240762