/*--------------------------------*- C++ -*----------------------------------*\
| =========                 |                                                 |
| \\      /  F ield         | OpenFOAM: The Open Source CFD Toolbox           |
|  \\    /   O peration     | Version:  2312                                  |
|   \\  /    A nd           | Website:  www.openfoam.com                      |
|    \\/     M anipulation  |                                                 |
\*---------------------------------------------------------------------------*/
FoamFile
{
    version     2.0;
    format      ascii;
    arch        "LSB;label=32;scalar=64";
    class       surfaceScalarField;
    location    "550";
    object      phi;
}
// * * * * * * * * * * * * * * * * * * * * * * * * * * * * * * * * * * * * * //

dimensions      [0 3 -1 0 0 0 0];

oriented        oriented;

internalField   nonuniform List<scalar> 
123680
(
-8.18854e-07
-8.19337e-07
4.33319e-07
4.34337e-07
0.00115006
-0.00114929
-1.50288e-06
8.19545e-07
3.9983e-07
0.00113925
-4.98953e-07
1.12933e-06
1.47081e-07
7.47139e-07
-5.44876e-07
8.44886e-08
-1.22949e-06
-0.0011388
-1.50012e-06
8.19205e-07
4.05337e-07
0.00113912
-4.96237e-07
1.12661e-06
1.44077e-07
7.47266e-07
-5.44937e-07
8.47457e-08
-1.22952e-06
-0.00113867
1.53178e-06
1.49481e-06
-4.76352e-07
-4.79312e-07
0.000274438
-0.000276509
-7.99154e-07
-7.99609e-07
-0.00115234
4.25622e-07
4.26589e-07
0.00115308
-0.0011405
-1.49426e-06
7.99736e-07
3.90268e-07
0.0011409
-4.87294e-07
1.13506e-06
1.53569e-07
7.54448e-07
-5.30155e-07
-1.21373e-06
9.26725e-08
-0.00114038
-1.49154e-06
7.9941e-07
3.96044e-07
0.00114077
-4.84647e-07
1.13227e-06
1.50582e-07
7.54596e-07
-5.30124e-07
-1.21376e-06
9.28814e-08
-0.000276524
1.52325e-06
1.48626e-06
-4.63664e-07
-4.66608e-07
0.000274445
-7.79305e-07
-7.7969e-07
-0.00115528
4.18111e-07
4.18997e-07
0.00115601
-0.001142
-1.48473e-06
7.79961e-07
3.80312e-07
0.00114235
-4.75761e-07
1.14048e-06
1.60018e-07
7.61711e-07
-5.15506e-07
-1.19771e-06
1.00827e-07
-0.00114188
-1.48209e-06
7.79532e-07
3.86165e-07
0.00114222
-4.7303e-07
1.13764e-06
1.57064e-07
7.61877e-07
-5.15473e-07
-1.19766e-06
1.01081e-07
-0.000276478
1.51378e-06
1.47672e-06
-4.50565e-07
-4.53545e-07
0.000274392
-7.58541e-07
-7.58716e-07
-0.00115813
4.09884e-07
4.1083e-07
0.00115883
-0.00114331
-1.47452e-06
7.59005e-07
3.71021e-07
0.00114361
-4.64143e-07
1.14568e-06
1.66225e-07
7.69007e-07
-5.0118e-07
-1.1815e-06
1.08955e-07
-0.00114318
-1.47186e-06
7.58669e-07
3.76959e-07
0.00114348
-4.61382e-07
1.14289e-06
1.63318e-07
7.69157e-07
-5.01162e-07
-1.18149e-06
1.09147e-07
-0.000276379
1.50357e-06
1.46649e-06
-4.37423e-07
-4.40398e-07
0.000274286
-7.37169e-07
-7.37306e-07
-0.00116088
4.01568e-07
4.02514e-07
0.00116155
-0.00114442
-1.46363e-06
7.37652e-07
3.61513e-07
0.00114467
-4.52764e-07
1.15093e-06
1.72089e-07
7.76239e-07
-4.8692e-07
-1.16521e-06
1.16988e-07
-0.00114429
-1.4609e-06
7.37221e-07
3.67476e-07
0.00114454
-4.49969e-07
1.14811e-06
1.69279e-07
7.76399e-07
-4.86947e-07
-1.16519e-06
1.17177e-07
-0.000276232
1.49268e-06
1.45553e-06
-4.24259e-07
-4.27286e-07
0.000274136
-7.15087e-07
-7.15123e-07
-0.00116352
3.92871e-07
3.93821e-07
0.00116417
-0.00114534
-1.45218e-06
7.1543e-07
3.51989e-07
0.00114555
-4.41612e-07
1.15612e-06
1.77914e-07
7.83395e-07
-4.73028e-07
-1.14908e-06
1.24861e-07
-0.00114521
-1.44937e-06
7.15077e-07
3.57721e-07
0.00114541
-4.38781e-07
1.15342e-06
1.75056e-07
7.83515e-07
-4.73027e-07
-1.14908e-06
1.25056e-07
-0.000276047
1.48117e-06
1.44402e-06
-4.1122e-07
-4.14225e-07
0.000273947
-6.92439e-07
-6.92531e-07
-0.00116606
3.84137e-07
3.85016e-07
0.00116667
-0.00114607
-1.44018e-06
6.92607e-07
3.41431e-07
0.00114624
-4.30677e-07
1.16151e-06
1.83742e-07
7.90444e-07
-4.5943e-07
-1.13322e-06
1.32635e-07
-0.00114595
-1.43738e-06
6.92329e-07
3.47247e-07
0.0011461
-4.2786e-07
1.15872e-06
1.80885e-07
7.90562e-07
-4.59457e-07
-1.13319e-06
1.32809e-07
-0.000275831
1.46912e-06
1.43195e-06
-3.98292e-07
-4.01314e-07
0.000273729
-6.69058e-07
-6.6924e-07
-0.00116848
3.75119e-07
3.75909e-07
0.00116906
-0.00114663
-1.4279e-06
6.69132e-07
3.30083e-07
0.00114675
-4.19865e-07
1.16689e-06
1.8949e-07
7.97307e-07
-4.46219e-07
-1.11769e-06
1.40221e-07
-0.0011465
-1.42514e-06
6.68918e-07
3.35826e-07
0.00114662
-4.17076e-07
1.16406e-06
1.86628e-07
7.97537e-07
-4.46179e-07
-1.11766e-06
1.4044e-07
-0.000275592
1.45689e-06
1.41972e-06
-3.85745e-07
-3.88768e-07
0.000273489
-6.4509e-07
-6.45382e-07
-0.00117078
3.65911e-07
3.66564e-07
0.00117134
-0.00114702
-1.41549e-06
6.45124e-07
3.18063e-07
0.0011471
-4.09288e-07
1.17222e-06
1.95174e-07
8.03918e-07
-4.33344e-07
-1.1026e-06
1.47724e-07
-0.00114689
-1.41275e-06
6.44964e-07
3.23731e-07
0.00114697
-4.06487e-07
1.16938e-06
1.92285e-07
8.04183e-07
-4.33316e-07
-1.10255e-06
1.4794e-07
-0.000275336
1.44453e-06
1.40732e-06
-3.73574e-07
-3.76589e-07
0.000273235
-6.20519e-07
-6.2087e-07
-0.00117297
3.50714e-07
3.57035e-07
0.0011735
-0.00114726
-1.40324e-06
6.20557e-07
3.05258e-07
0.0011473
-3.98949e-07
1.17742e-06
2.0074e-07
8.1048e-07
-4.20927e-07
-1.08799e-06
1.54956e-07
-0.00114713
-1.40046e-06
6.20495e-07
3.11002e-07
0.00114716
-3.96248e-07
1.17467e-06
1.97802e-07
8.10494e-07
-4.20855e-07
-1.0879e-06
1.55205e-07
-0.000275071
1.43224e-06
1.39503e-06
-3.61883e-07
-3.64918e-07
0.000272971
-5.95542e-07
-5.95969e-07
-0.00117503
3.41197e-07
3.47442e-07
0.00117554
-0.00114735
-1.39105e-06
5.95787e-07
2.91493e-07
0.00114736
-3.88952e-07
1.18256e-06
2.06135e-07
8.16623e-07
-4.08921e-07
-1.07382e-06
1.6202e-07
-0.00114722
-1.38833e-06
5.95585e-07
2.97341e-07
0.00114722
-3.86205e-07
1.17986e-06
2.03258e-07
8.16844e-07
-4.08855e-07
-1.07379e-06
1.62233e-07
-0.000274801
1.42008e-06
1.3829e-06
-3.50681e-07
-3.537e-07
0.000272703
-5.70371e-07
-5.70807e-07
-0.00117698
3.31709e-07
3.37987e-07
0.00117745
-0.00114731
-1.37911e-06
5.70622e-07
2.77087e-07
0.00114729
-3.79287e-07
1.18751e-06
2.11409e-07
8.22587e-07
-3.97351e-07
-1.06036e-06
1.68846e-07
-0.00114718
-1.37637e-06
5.7038e-07
2.82866e-07
0.00114715
-3.76552e-07
1.18476e-06
2.08506e-07
8.22754e-07
-3.97302e-07
-1.06036e-06
1.69054e-07
-0.00027453
1.40818e-06
1.37101e-06
-3.39977e-07
-3.42976e-07
0.000272434
-5.44983e-07
-5.45411e-07
-0.00117879
3.22317e-07
3.2855e-07
0.00117923
-0.00114716
-1.36765e-06
5.45364e-07
2.61876e-07
0.00114711
-3.69971e-07
1.19221e-06
2.16461e-07
8.28326e-07
-3.86264e-07
-1.04744e-06
1.75413e-07
-0.00114703
-1.36491e-06
5.45063e-07
2.67741e-07
0.00114697
-3.67245e-07
1.18945e-06
2.13574e-07
8.28457e-07
-3.86191e-07
-1.0474e-06
1.75634e-07
-0.000274262
1.39667e-06
1.35952e-06
-3.29865e-07
-3.32826e-07
0.000272169
-5.19552e-07
-5.19818e-07
-0.00118048
3.12868e-07
3.19195e-07
0.00118089
-0.00114691
-1.35651e-06
5.19762e-07
2.46221e-07
0.00114684
-3.6101e-07
1.19668e-06
2.21325e-07
8.33734e-07
-3.75594e-07
-1.03517e-06
1.81647e-07
-0.00114678
-1.35385e-06
5.19489e-07
2.52041e-07
0.0011467
-3.5827e-07
1.19391e-06
2.18441e-07
8.33969e-07
-3.75597e-07
-1.03503e-06
1.81864e-07
-0.000273999
1.38552e-06
1.34844e-06
-3.20251e-07
-3.23183e-07
0.000271908
-4.93858e-07
-4.94181e-07
-0.00118204
3.03365e-07
3.09802e-07
0.00118241
-0.00114657
-1.34583e-06
4.94119e-07
2.30064e-07
0.00114648
-3.52384e-07
1.20087e-06
2.25999e-07
8.39038e-07
-3.65509e-07
-1.02341e-06
1.87634e-07
-0.00114644
-1.34313e-06
4.93739e-07
2.35845e-07
0.00114634
-3.49666e-07
1.19808e-06
2.23129e-07
8.39199e-07
-3.65444e-07
-1.02327e-06
1.87874e-07
-0.000273742
1.37477e-06
1.33776e-06
-3.11115e-07
-3.14013e-07
0.000271654
-4.68085e-07
-4.68321e-07
-0.00118346
2.93763e-07
3.0024e-07
0.00118381
-0.00114616
-1.33565e-06
4.68402e-07
2.13691e-07
0.00114606
-3.44177e-07
1.20477e-06
2.3038e-07
8.44084e-07
-3.55873e-07
-1.01216e-06
1.9329e-07
-0.00114603
-1.33296e-06
4.67913e-07
2.19505e-07
0.00114592
-3.41418e-07
1.20203e-06
2.27578e-07
8.44184e-07
-3.55764e-07
-1.01209e-06
1.93556e-07
-0.000273492
1.36449e-06
1.32751e-06
-3.02532e-07
-3.05366e-07
0.000271408
-4.42217e-07
-4.42316e-07
-0.00118476
2.83929e-07
2.90468e-07
0.00118507
-0.00114569
-1.32583e-06
4.42528e-07
1.97149e-07
0.00114557
-3.36346e-07
1.20845e-06
2.34614e-07
8.48769e-07
-3.46647e-07
-1.00158e-06
1.98702e-07
-0.00114556
-1.32307e-06
4.41951e-07
2.02819e-07
0.00114543
-3.33591e-07
1.20569e-06
2.3178e-07
8.48893e-07
-3.46545e-07
-1.00145e-06
1.98946e-07
-0.000273252
1.35466e-06
1.31773e-06
-2.94396e-07
-2.97218e-07
0.000271171
-4.16263e-07
-4.16319e-07
-0.00118593
2.79723e-07
2.80459e-07
0.0011862
-0.00114517
-1.31647e-06
4.16591e-07
1.80722e-07
0.00114504
-3.28886e-07
1.21183e-06
2.38505e-07
8.53214e-07
-3.37829e-07
-9.91481e-07
2.03861e-07
-0.00114504
-1.31379e-06
4.15993e-07
1.86515e-07
0.0011449
-3.26129e-07
1.20909e-06
2.35728e-07
8.53329e-07
-3.3776e-07
-9.91366e-07
2.0408e-07
-0.00027302
1.34539e-06
1.30846e-06
-2.8679e-07
-2.89587e-07
0.000270943
-3.9044e-07
-3.9025e-07
-0.00118697
2.69383e-07
2.70135e-07
0.00118721
-0.00114462
-1.30762e-06
3.9054e-07
1.64648e-07
0.00114448
-3.21847e-07
1.215e-06
2.42192e-07
8.57413e-07
-3.29423e-07
-9.81897e-07
2.08767e-07
-0.00114448
-1.30495e-06
3.90057e-07
1.70432e-07
0.00114434
-3.1907e-07
1.21226e-06
2.39422e-07
8.57527e-07
-3.29379e-07
-9.81861e-07
2.08961e-07
-0.000272799
1.33657e-06
1.29961e-06
-2.79571e-07
-2.8243e-07
0.000270724
-3.6437e-07
-3.64321e-07
-0.00118789
2.58712e-07
2.59398e-07
0.0011881
-0.00114404
-1.2993e-06
3.6445e-07
1.48916e-07
0.00114389
-3.15191e-07
1.21784e-06
2.45599e-07
8.61468e-07
-3.21427e-07
-9.72769e-07
2.13407e-07
-0.0011439
-1.2966e-06
3.64111e-07
1.54744e-07
0.00114375
-3.12415e-07
1.21517e-06
2.42819e-07
8.6154e-07
-3.21418e-07
-9.72776e-07
2.13571e-07
-0.000272586
1.32816e-06
1.29117e-06
-2.72776e-07
-2.75664e-07
0.000270515
-3.38555e-07
-3.38527e-07
-0.00118869
2.47666e-07
2.48291e-07
0.00118887
-0.00114344
-1.29144e-06
3.38517e-07
1.33721e-07
0.00114329
-3.08929e-07
1.2205e-06
2.4872e-07
8.65289e-07
-3.13842e-07
-9.64113e-07
2.17772e-07
-0.0011433
-1.28874e-06
3.38309e-07
1.39562e-07
0.00114315
-3.06183e-07
1.21778e-06
2.45968e-07
8.65315e-07
-3.1386e-07
-9.64159e-07
2.17941e-07
-0.000272384
1.32029e-06
1.28332e-06
-2.66486e-07
-2.69402e-07
0.000270316
-3.12826e-07
-3.12961e-07
-0.00118937
2.36221e-07
2.36718e-07
0.00118952
-0.00114283
-1.28404e-06
3.12794e-07
1.192e-07
0.00114268
-3.03027e-07
1.22288e-06
2.51677e-07
8.68865e-07
-3.06599e-07
-9.56013e-07
2.21947e-07
-0.00114269
-1.28134e-06
3.12631e-07
1.25196e-07
0.00114254
-3.00315e-07
1.22015e-06
2.48855e-07
8.68887e-07
-3.06679e-07
-9.56017e-07
2.22051e-07
-0.000272191
1.31285e-06
1.27588e-06
-2.60627e-07
-2.63537e-07
0.000270126
-2.87423e-07
-2.876e-07
-0.00118994
2.24304e-07
2.24712e-07
0.00119007
-0.00114221
-1.27704e-06
2.87293e-07
1.05357e-07
0.00114207
-2.97512e-07
1.22505e-06
2.54315e-07
8.72244e-07
-2.99782e-07
-9.48309e-07
2.25852e-07
-0.00114208
-1.27437e-06
2.87195e-07
1.11387e-07
0.00114192
-2.9484e-07
1.22235e-06
2.51494e-07
8.72258e-07
-2.99839e-07
-9.48308e-07
2.25922e-07
-0.000272008
1.3059e-06
1.26896e-06
-2.55231e-07
-2.58109e-07
0.000269946
-2.62223e-07
-2.62474e-07
-0.00119041
2.11905e-07
2.12165e-07
0.00119051
-0.0011416
-1.27051e-06
2.62171e-07
9.23737e-08
0.00114146
-2.92401e-07
1.22706e-06
2.5675e-07
8.75436e-07
-2.93299e-07
-9.40999e-07
2.29491e-07
-0.00114147
-1.26786e-06
2.62071e-07
9.83935e-08
0.00114131
-2.89677e-07
1.22426e-06
2.53923e-07
8.75466e-07
-2.93355e-07
-9.40999e-07
2.29606e-07
-0.000271835
1.29935e-06
1.26246e-06
-2.50206e-07
-2.53049e-07
0.000269776
-2.37431e-07
-2.37637e-07
-0.00119077
1.98986e-07
1.99212e-07
0.00119085
-0.001141
-1.26442e-06
2.37302e-07
8.03581e-08
0.00114086
-2.87624e-07
1.22877e-06
2.58917e-07
8.78461e-07
-2.87204e-07
-9.34107e-07
2.32955e-07
-0.00114086
-1.26174e-06
2.37234e-07
8.63581e-08
0.00114071
-2.84933e-07
1.22601e-06
2.56114e-07
8.7848e-07
-2.87222e-07
-9.34115e-07
2.33068e-07
-0.000271671
1.29316e-06
1.25631e-06
-2.45517e-07
-2.4831e-07
0.000269616
1.54294e-06
1.50318e-06
-4.7649e-07
-4.82018e-07
0.000274496
-0.000276584
-1.17399e-06
-1.13383e-06
0.000276599
-0.000274507
1.05232e-07
1.10718e-07
4.06201e-07
0.0011387
-5.0455e-07
1.16964e-06
1.52871e-07
7.52642e-07
-5.45168e-07
8.44768e-08
-1.23521e-06
-0.00113826
-1.54051e-06
8.18998e-07
4.06861e-07
0.00113878
-5.04815e-07
1.1668e-06
1.52569e-07
7.52691e-07
-5.42177e-07
8.14367e-08
-1.23489e-06
-0.00113833
0.00113996
8.04088e-07
-0.00113955
3.99099e-07
-1.5366e-06
1.57738e-07
-4.95847e-07
-1.22345e-06
9.06464e-08
-5.34005e-07
7.58123e-07
1.17107e-06
0.00114003
8.04235e-07
-0.00113962
3.99787e-07
-1.53417e-06
1.57399e-07
-4.96079e-07
-1.22314e-06
8.7599e-08
-5.31123e-07
7.58189e-07
-4.7673e-07
-4.79123e-07
0.000274477
-0.000276565
-1.13365e-06
0.000276579
-0.000274488
1.05378e-07
1.07682e-07
4.05298e-07
0.0011397
-4.99197e-07
1.12945e-06
1.46975e-07
7.52697e-07
-5.44979e-07
8.47905e-08
-1.23494e-06
-0.00113926
-1.53481e-06
8.18398e-07
4.06405e-07
0.00113866
-5.04622e-07
1.16158e-06
1.52904e-07
7.52725e-07
-5.4229e-07
8.14928e-08
-1.2349e-06
-0.00113821
0.00114096
8.04561e-07
-0.00114055
3.98216e-07
-1.49679e-06
1.51889e-07
-4.90457e-07
-1.2232e-06
9.09552e-08
-5.33905e-07
7.58172e-07
1.16585e-06
0.00113991
8.0395e-07
-0.00113951
3.99223e-07
-1.52852e-06
1.57776e-07
-4.95906e-07
-1.22316e-06
8.76622e-08
-5.31078e-07
7.58168e-07
8.1841e-07
4.06201e-07
0.00113828
-5.01584e-07
1.15869e-06
1.5002e-07
7.44525e-07
-5.39233e-07
7.83037e-08
-1.2264e-06
-0.00113783
8.04661e-07
-0.0011401
4.03696e-07
-1.49647e-06
1.51974e-07
-4.90204e-07
-1.21773e-06
9.05846e-08
7.52649e-07
-5.339e-07
1.16298e-06
0.00113953
8.03396e-07
-0.00113913
3.99221e-07
-1.52549e-06
1.54848e-07
-4.92867e-07
-1.21466e-06
8.45812e-08
-5.28175e-07
7.50003e-07
-4.7687e-07
-4.81608e-07
0.000274463
-0.000276539
-1.13089e-06
0.000276554
-0.000274474
1.05387e-07
1.10699e-07
8.19014e-07
4.05095e-07
0.00113926
-4.99041e-07
1.12117e-06
1.47027e-07
7.4981e-07
-5.44897e-07
8.49077e-08
-1.23185e-06
-0.00113882
8.04376e-07
-0.00113997
3.98274e-07
-1.49378e-06
1.48964e-07
-4.87487e-07
-1.21777e-06
9.08633e-08
7.52723e-07
-5.33773e-07
1.12545e-06
0.00114052
8.04634e-07
-0.00114011
3.97863e-07
-1.48852e-06
1.51842e-07
-4.90378e-07
-1.22012e-06
9.10084e-08
-5.33748e-07
7.55266e-07
-0.000274449
1.05216e-07
1.08105e-07
1.53438e-06
1.49458e-06
-4.63756e-07
-4.69259e-07
0.000274503
-1.17946e-06
-1.13928e-06
0.000276553
-0.000274469
1.14227e-07
1.19754e-07
3.96808e-07
0.00114035
-4.92911e-07
1.17535e-06
1.59325e-07
7.59958e-07
-5.30363e-07
-1.21945e-06
9.26553e-08
-1.53196e-06
7.99201e-07
3.97512e-07
0.00114042
-4.93213e-07
1.17249e-06
1.59007e-07
7.60027e-07
-5.27374e-07
-1.21911e-06
8.97092e-08
0.00114146
7.84374e-07
-0.0011411
3.89298e-07
-1.52731e-06
1.64124e-07
-4.84317e-07
-1.20743e-06
9.8718e-08
-5.19269e-07
7.65383e-07
1.17664e-06
0.00114153
7.84288e-07
-0.00114118
3.90076e-07
-1.52489e-06
1.63832e-07
-4.84571e-07
-1.20709e-06
9.57987e-08
-5.16396e-07
7.65469e-07
-4.63984e-07
-4.66393e-07
0.000274484
-1.1392e-06
0.000276534
-0.000274449
1.14444e-07
1.16777e-07
3.95844e-07
0.00114135
-4.87508e-07
1.13518e-06
1.53502e-07
7.60008e-07
-5.30155e-07
-1.21919e-06
9.29945e-08
-1.52631e-06
7.99062e-07
3.96823e-07
0.00114031
-4.93063e-07
1.16723e-06
1.59351e-07
7.59985e-07
-5.27463e-07
-1.21919e-06
8.96694e-08
0.00114246
7.84753e-07
-0.00114211
3.88471e-07
-1.4875e-06
1.5831e-07
-4.78961e-07
-1.20715e-06
9.91136e-08
-5.19152e-07
7.65457e-07
1.17134e-06
0.00114141
7.84105e-07
-0.00114106
3.89406e-07
-1.51922e-06
1.64171e-07
-4.84367e-07
-1.20713e-06
9.57804e-08
-5.16414e-07
7.65454e-07
7.9843e-07
3.97039e-07
0.00113993
-4.90031e-07
1.16436e-06
1.56458e-07
7.51831e-07
-5.24516e-07
8.66311e-08
-1.21069e-06
7.84934e-07
-0.00114165
3.93795e-07
-1.48718e-06
1.58414e-07
-4.7869e-07
-1.20174e-06
9.87563e-08
7.59921e-07
-5.19157e-07
1.16845e-06
0.00114103
7.8361e-07
-0.00114068
3.89653e-07
-1.51622e-06
1.61213e-07
-4.81431e-07
-1.19866e-06
9.27811e-08
-5.13501e-07
7.57276e-07
-4.64146e-07
-4.68926e-07
0.00027447
-1.13636e-06
0.000276509
-0.000274435
1.14323e-07
1.19743e-07
7.99647e-07
3.95705e-07
0.00114091
-4.87499e-07
1.12685e-06
1.53491e-07
7.5708e-07
-5.30111e-07
9.30307e-08
-1.21615e-06
7.84581e-07
-0.00114152
3.88462e-07
-1.4845e-06
1.55474e-07
-4.7598e-07
-1.20173e-06
9.9036e-08
7.60014e-07
-5.19045e-07
1.13097e-06
0.00114202
7.8482e-07
-0.00114166
3.88231e-07
-1.47917e-06
1.58295e-07
-4.78908e-07
-1.20408e-06
9.9101e-08
-5.1907e-07
7.62524e-07
-0.00027441
1.14244e-07
1.17137e-07
1.52489e-06
1.48509e-06
-4.50706e-07
-4.56184e-07
0.00027445
-1.18471e-06
-1.14452e-06
0.000276454
-0.000274376
1.22795e-07
1.28353e-07
3.86954e-07
0.0011418
-4.81395e-07
1.18075e-06
1.6569e-07
7.67218e-07
-5.15685e-07
-1.20339e-06
1.0076e-07
-1.52243e-06
7.79174e-07
3.87722e-07
0.00114188
-4.81624e-07
1.17792e-06
1.65435e-07
7.67283e-07
-5.127e-07
-1.20303e-06
9.7854e-08
0.00114276
7.63803e-07
-0.00114246
3.80011e-07
-1.51728e-06
1.70348e-07
-4.72684e-07
-1.19124e-06
1.06783e-07
-5.04936e-07
7.72678e-07
1.18189e-06
0.00114284
7.63637e-07
-0.00114253
3.80776e-07
-1.51483e-06
1.70132e-07
-4.72897e-07
-1.19088e-06
1.03898e-07
-5.02008e-07
7.72762e-07
-4.50891e-07
-4.53294e-07
0.000274431
-1.14446e-06
0.000276434
-0.000274356
1.23041e-07
1.25379e-07
3.86137e-07
0.00114281
-4.7604e-07
1.14055e-06
1.59867e-07
7.67291e-07
-5.15484e-07
-1.2031e-06
1.01116e-07
-1.51682e-06
7.79038e-07
3.87122e-07
0.00114176
-4.81429e-07
1.17262e-06
1.65758e-07
7.67265e-07
-5.12782e-07
-1.20311e-06
9.78253e-08
0.00114377
7.64025e-07
-0.00114346
3.79357e-07
-1.47748e-06
1.64566e-07
-4.6734e-07
-1.19093e-06
1.0716e-07
-5.04761e-07
7.72776e-07
1.17655e-06
0.00114272
7.63521e-07
-0.00114241
3.80195e-07
-1.50925e-06
1.70448e-07
-4.72718e-07
-1.19093e-06
1.03898e-07
-5.0198e-07
7.7276e-07
7.78581e-07
3.87371e-07
0.00114138
-4.78497e-07
1.16973e-06
1.62793e-07
7.59113e-07
-5.09852e-07
9.485e-08
-1.19463e-06
7.64236e-07
-0.00114301
3.84485e-07
-1.47711e-06
1.64723e-07
-4.67032e-07
-1.18556e-06
1.0689e-07
7.67227e-07
-5.04787e-07
1.17363e-06
0.00114234
7.62898e-07
-0.00114203
3.80549e-07
-1.50621e-06
1.67491e-07
-4.69776e-07
-1.18248e-06
1.0094e-07
-4.99097e-07
7.64562e-07
-4.51094e-07
-4.55855e-07
0.000274417
-1.14163e-06
0.000276409
-0.000274343
1.22983e-07
1.28291e-07
7.79754e-07
3.85971e-07
0.00114237
-4.75956e-07
1.13227e-06
1.59896e-07
7.64319e-07
-5.15434e-07
1.01071e-07
-1.20005e-06
7.63951e-07
-0.00114288
3.79224e-07
-1.47448e-06
1.61802e-07
-4.64298e-07
-1.18559e-06
1.07109e-07
7.67276e-07
-5.04646e-07
1.13617e-06
0.00114333
7.64447e-07
-0.00114302
3.78956e-07
-1.46914e-06
1.646e-07
-4.67232e-07
-1.18793e-06
1.07161e-07
-5.04619e-07
7.69742e-07
-0.000274317
1.22816e-07
1.25704e-07
1.51468e-06
1.47489e-06
-4.37609e-07
-4.43039e-07
0.000274345
-1.18989e-06
-1.14967e-06
0.000276308
-0.000274236
1.31087e-07
1.36631e-07
3.77716e-07
0.00114306
-4.6978e-07
1.18599e-06
1.7188e-07
7.74513e-07
-5.01367e-07
-1.18716e-06
1.088e-07
-1.51223e-06
7.58342e-07
3.78494e-07
0.00114313
-4.69988e-07
1.18312e-06
1.71648e-07
7.74574e-07
-4.98442e-07
-1.18686e-06
1.0594e-07
0.00114387
7.42557e-07
-0.00114361
3.70667e-07
-1.50653e-06
1.76364e-07
-4.61165e-07
-1.17496e-06
1.14854e-07
-4.90704e-07
7.79915e-07
1.18711e-06
0.00114394
7.42309e-07
-0.00114369
3.71346e-07
-1.50408e-06
1.76161e-07
-4.61397e-07
-1.1747e-06
1.11964e-07
-4.87807e-07
7.8005e-07
-4.37777e-07
-4.40169e-07
0.000274326
-1.14962e-06
0.000276288
-0.000274216
1.31319e-07
1.33691e-07
3.77088e-07
0.00114406
-4.64436e-07
1.14578e-06
1.66067e-07
7.74614e-07
-5.01159e-07
-1.18683e-06
1.09175e-07
-1.50665e-06
7.58219e-07
3.77931e-07
0.00114301
-4.69831e-07
1.1778e-06
1.71935e-07
7.74581e-07
-4.98392e-07
-1.18685e-06
1.05939e-07
0.00114488
7.42679e-07
-0.00114462
3.70089e-07
-1.46675e-06
1.70534e-07
-4.55902e-07
-1.17464e-06
1.15256e-07
-4.90481e-07
7.80133e-07
1.18173e-06
0.00114383
7.42051e-07
-0.00114357
3.70921e-07
-1.49848e-06
1.7643e-07
-4.61246e-07
-1.1746e-06
1.11996e-07
-4.87792e-07
7.80046e-07
7.57612e-07
3.78266e-07
0.00114263
-4.66858e-07
1.17489e-06
1.68996e-07
7.66392e-07
-4.95494e-07
1.03009e-07
-1.17841e-06
7.43028e-07
-0.00114417
3.7509e-07
-1.46643e-06
1.70661e-07
-4.5561e-07
-1.16925e-06
1.14974e-07
7.74487e-07
-4.90498e-07
1.1788e-06
0.00114345
7.41701e-07
-0.00114319
3.71184e-07
-1.49549e-06
1.73449e-07
-4.58342e-07
-1.16621e-06
1.09059e-07
-4.84852e-07
7.71808e-07
-4.37948e-07
-4.42757e-07
0.000274312
-1.14684e-06
0.000276263
-0.000274202
1.31306e-07
1.36571e-07
7.5908e-07
3.76744e-07
0.00114362
-4.64309e-07
1.13746e-06
1.66137e-07
7.71596e-07
-5.01076e-07
1.09128e-07
-1.18386e-06
7.42595e-07
-0.00114403
3.69801e-07
-1.46368e-06
1.6785e-07
-4.52804e-07
-1.16929e-06
1.1517e-07
7.74548e-07
-4.90422e-07
1.14141e-06
0.00114444
7.42978e-07
-0.00114418
3.69632e-07
-1.45835e-06
1.70622e-07
-4.55738e-07
-1.17169e-06
1.15186e-07
-4.90456e-07
7.77146e-07
-0.000274177
1.31143e-07
1.33954e-07
1.50373e-06
1.46396e-06
-4.24464e-07
-4.29881e-07
0.000274194
-1.19511e-06
-1.1549e-06
0.000276123
-0.000274056
1.3906e-07
1.4467e-07
3.68303e-07
0.00114412
-4.58334e-07
1.19119e-06
1.77837e-07
7.81713e-07
-4.87191e-07
-1.1709e-06
1.16855e-07
-1.50127e-06
7.36874e-07
3.68906e-07
0.00114419
-4.58529e-07
1.18843e-06
1.7761e-07
7.81787e-07
-4.843e-07
-1.17057e-06
1.13991e-07
0.00114479
7.20692e-07
-0.00114458
3.61112e-07
-1.49518e-06
1.82174e-07
-4.49951e-07
-1.15877e-06
1.22786e-07
-4.76683e-07
7.87073e-07
1.19237e-06
0.00114486
7.20471e-07
-0.00114465
3.61584e-07
-1.49265e-06
1.81993e-07
-4.5006e-07
-1.15851e-06
1.19914e-07
-4.73817e-07
7.87086e-07
-4.24672e-07
-4.27006e-07
0.000274175
-1.1548e-06
0.000276103
-0.000274037
1.39234e-07
1.41774e-07
3.67584e-07
0.00114513
-4.53034e-07
1.15096e-06
1.71977e-07
7.81943e-07
-4.86992e-07
-1.17056e-06
1.17252e-07
-1.49571e-06
7.36625e-07
3.68571e-07
0.00114407
-4.58404e-07
1.183e-06
1.7787e-07
7.81837e-07
-4.84256e-07
-1.17053e-06
1.14018e-07
0.0011458
7.20716e-07
-0.00114559
3.60557e-07
-1.4554e-06
1.7641e-07
-4.44617e-07
-1.15843e-06
1.23145e-07
-4.76496e-07
7.87227e-07
1.18696e-06
0.00114474
7.2019e-07
-0.00114453
3.61098e-07
-1.48709e-06
1.82167e-07
-4.50014e-07
-1.1584e-06
1.19942e-07
-4.73729e-07
7.87192e-07
7.36287e-07
3.68813e-07
0.00114369
-4.55464e-07
1.18009e-06
1.74909e-07
7.73609e-07
-4.81289e-07
1.11095e-07
-1.16215e-06
7.20949e-07
-0.00114513
3.65605e-07
-1.45507e-06
1.76462e-07
-4.44354e-07
-1.15307e-06
1.22892e-07
7.81643e-07
-4.76449e-07
1.18407e-06
0.00114436
7.19821e-07
-0.00114415
3.61479e-07
-1.48413e-06
1.79217e-07
-4.47097e-07
-1.15004e-06
1.1707e-07
-4.70843e-07
7.78963e-07
-4.2476e-07
-4.29624e-07
0.000274161
-1.15208e-06
0.000276078
-0.000274023
1.39249e-07
1.44587e-07
7.37565e-07
3.67258e-07
0.00114468
-4.52879e-07
1.14272e-06
1.72074e-07
7.78914e-07
-4.86935e-07
1.17167e-07
-1.16762e-06
7.20671e-07
-0.001145
3.6008e-07
-1.45226e-06
1.73635e-07
-4.41552e-07
-1.15311e-06
1.23105e-07
7.81708e-07
-4.76417e-07
1.14671e-06
0.00114535
7.20926e-07
-0.00114514
3.60065e-07
-1.44696e-06
1.7647e-07
-4.44464e-07
-1.15553e-06
1.23107e-07
-4.7647e-07
7.84278e-07
-0.000273997
1.39162e-07
1.42004e-07
1.49226e-06
1.45248e-06
-4.11432e-07
-4.16834e-07
0.000274006
-1.2004e-06
-1.16026e-06
0.000275907
-0.000273845
1.46882e-07
1.52414e-07
3.58617e-07
0.00114499
-4.47169e-07
1.19642e-06
1.83624e-07
7.88826e-07
-4.73276e-07
-1.15477e-06
1.24724e-07
-1.48972e-06
7.14824e-07
3.59103e-07
0.00114506
-4.47278e-07
1.19371e-06
1.83474e-07
7.88854e-07
-4.7039e-07
-1.1545e-06
1.21863e-07
0.00114552
6.98174e-07
-0.00114536
3.50777e-07
-1.48327e-06
1.87964e-07
-4.38956e-07
-1.14282e-06
1.30556e-07
-4.63025e-07
7.94111e-07
1.1978e-06
0.00114559
6.97896e-07
-0.00114543
3.51038e-07
-1.48066e-06
1.87909e-07
-4.39018e-07
-1.14259e-06
1.27678e-07
-4.60192e-07
7.94104e-07
-4.11678e-07
-4.13916e-07
0.000273987
-1.16018e-06
0.000275887
-0.000273826
1.47077e-07
1.4964e-07
3.57995e-07
0.001146
-4.41848e-07
1.15622e-06
1.77864e-07
7.88976e-07
-4.73057e-07
-1.15442e-06
1.25097e-07
-1.48418e-06
7.14536e-07
3.58673e-07
0.00114494
-4.47227e-07
1.1883e-06
1.83592e-07
7.88962e-07
-4.70311e-07
-1.15437e-06
1.21942e-07
0.00114653
6.98224e-07
-0.00114637
3.50059e-07
-1.44346e-06
1.82301e-07
-4.33561e-07
-1.1425e-06
1.30887e-07
-4.62848e-07
7.94221e-07
1.1923e-06
0.00114548
6.97487e-07
-0.00114531
3.5086e-07
-1.47516e-06
1.88056e-07
-4.38947e-07
-1.14248e-06
1.27781e-07
-4.6012e-07
7.94221e-07
7.1418e-07
3.59043e-07
0.00114456
-4.44283e-07
1.18536e-06
1.80706e-07
7.8073e-07
-4.67408e-07
1.19026e-07
-1.14605e-06
6.98311e-07
-0.00114591
3.55343e-07
-1.44316e-06
1.82306e-07
-4.33419e-07
-1.13712e-06
1.30699e-07
7.88716e-07
-4.62782e-07
1.18939e-06
0.00114509
6.9714e-07
-0.00114493
3.51103e-07
-1.47219e-06
1.85116e-07
-4.36094e-07
-1.13412e-06
1.24881e-07
-4.57195e-07
7.85997e-07
-4.11728e-07
-4.16544e-07
0.000273973
-1.15741e-06
0.000275862
-0.000273812
1.47071e-07
1.52382e-07
7.15329e-07
3.57647e-07
0.00114555
-4.41657e-07
1.14802e-06
1.77943e-07
7.86022e-07
-4.73045e-07
1.25026e-07
-1.15151e-06
6.98085e-07
-0.00114578
3.49917e-07
-1.44041e-06
1.79465e-07
-4.30577e-07
-1.13718e-06
1.30863e-07
7.88761e-07
-4.62759e-07
1.15208e-06
0.00114609
6.98365e-07
-0.00114592
3.49663e-07
-1.43502e-06
1.82359e-07
-4.33477e-07
-1.13959e-06
1.30812e-07
-4.62783e-07
7.9131e-07
-0.000273786
1.47014e-07
1.49758e-07
1.48025e-06
1.44043e-06
-3.98526e-07
-4.03952e-07
0.000273788
-1.20573e-06
-1.16565e-06
0.000275667
-0.00027361
1.5439e-07
1.59842e-07
3.48104e-07
0.00114568
-4.36202e-07
1.20172e-06
1.89413e-07
7.95854e-07
-4.59688e-07
-1.1389e-06
1.32486e-07
-1.47765e-06
6.92196e-07
3.48286e-07
0.00114575
-4.36253e-07
1.19913e-06
1.89407e-07
7.95855e-07
-4.5685e-07
-1.13867e-06
1.29609e-07
0.00114608
6.74965e-07
-0.00114596
3.39651e-07
-1.47102e-06
1.93708e-07
-4.28083e-07
-1.12718e-06
1.38218e-07
-4.49697e-07
8.01007e-07
1.2032e-06
0.00114615
6.74763e-07
-0.00114603
3.39612e-07
-1.46845e-06
1.9369e-07
-4.28111e-07
-1.12696e-06
1.35353e-07
-4.46881e-07
8.01035e-07
-3.98798e-07
-4.00994e-07
0.000273769
-1.16557e-06
0.000275648
-0.000273591
1.54566e-07
1.57101e-07
3.4736e-07
0.00114669
-4.30822e-07
1.16158e-06
1.83762e-07
7.95974e-07
-4.59507e-07
-1.13859e-06
1.32817e-07
-1.47213e-06
6.91784e-07
3.48174e-07
0.00114563
-4.36217e-07
1.19363e-06
1.89483e-07
7.95943e-07
-4.56765e-07
-1.13853e-06
1.29691e-07
0.00114709
6.75136e-07
-0.00114697
3.38866e-07
-1.4312e-06
1.88098e-07
-4.22677e-07
-1.12692e-06
1.38511e-07
-4.49559e-07
8.01111e-07
1.19768e-06
0.00114603
6.74339e-07
-0.00114591
3.39613e-07
-1.46289e-06
1.93851e-07
-4.28056e-07
-1.12689e-06
1.35449e-07
-4.46832e-07
8.01137e-07
6.91419e-07
3.48377e-07
0.00114525
-4.333e-07
1.19068e-06
1.86587e-07
7.87739e-07
-4.53861e-07
1.26802e-07
-1.13021e-06
6.75033e-07
-0.00114651
3.44113e-07
-1.43101e-06
1.88037e-07
-4.22543e-07
-1.12147e-06
1.38359e-07
7.95666e-07
-4.49462e-07
1.19469e-06
0.00114565
6.73997e-07
-0.00114553
3.39842e-07
-1.46002e-06
1.90898e-07
-4.25175e-07
-1.1185e-06
1.32589e-07
-4.43893e-07
7.92917e-07
-3.98832e-07
-4.03639e-07
0.000273755
-1.16275e-06
0.000275623
-0.000273577
1.5451e-07
1.59898e-07
6.92589e-07
3.46932e-07
0.00114624
-4.30674e-07
1.15338e-06
1.83832e-07
7.93058e-07
-4.59461e-07
1.3277e-07
-1.13564e-06
6.74829e-07
-0.00114638
3.38717e-07
-1.4282e-06
1.8525e-07
-4.1974e-07
-1.12151e-06
1.38539e-07
7.95728e-07
-4.49421e-07
1.15739e-06
0.00114664
6.75128e-07
-0.00114652
3.38446e-07
-1.42286e-06
1.88164e-07
-4.22535e-07
-1.12397e-06
1.38546e-07
-4.49474e-07
7.98318e-07
-0.000273551
1.54429e-07
1.5721e-07
1.46795e-06
1.42811e-06
-3.85919e-07
-3.9138e-07
0.000273548
-1.21097e-06
-1.17096e-06
0.000275412
-0.000273358
1.61495e-07
1.66899e-07
3.36867e-07
0.00114619
-4.25412e-07
1.20703e-06
1.95106e-07
8.02756e-07
-4.4647e-07
-1.12338e-06
1.40098e-07
-1.46535e-06
6.68835e-07
3.36759e-07
0.00114626
-4.25433e-07
1.2045e-06
1.95136e-07
8.02707e-07
-4.43652e-07
-1.12316e-06
1.37246e-07
0.00114647
6.5113e-07
-0.00114638
3.27968e-07
-1.4587e-06
1.99342e-07
-4.17468e-07
-1.11202e-06
1.45721e-07
-4.36738e-07
8.07785e-07
1.20841e-06
0.00114654
6.50925e-07
-0.00114646
3.27674e-07
-1.45606e-06
1.99324e-07
-4.17518e-07
-1.11168e-06
1.42913e-07
-4.33924e-07
8.07764e-07
-3.86215e-07
-3.88421e-07
0.000273529
-1.17083e-06
0.000275393
-0.000273339
1.61626e-07
1.6414e-07
3.35974e-07
0.0011472
-4.19996e-07
1.16697e-06
1.89525e-07
8.0277e-07
-4.46335e-07
-1.12313e-06
1.40386e-07
-1.45982e-06
6.68422e-07
3.36725e-07
0.00114614
-4.25368e-07
1.19898e-06
1.95263e-07
8.02847e-07
-4.43581e-07
-1.12307e-06
1.373e-07
0.00114748
6.51425e-07
-0.0011474
3.27029e-07
-1.41885e-06
1.93787e-07
-4.1202e-07
-1.11169e-06
1.45985e-07
-4.36656e-07
8.0779e-07
1.20295e-06
0.00114642
6.50531e-07
-0.00114634
3.27743e-07
-1.45053e-06
1.9952e-07
-4.17432e-07
-1.11173e-06
1.42965e-07
-4.33872e-07
8.07893e-07
6.68041e-07
3.36959e-07
0.00114576
-4.22487e-07
1.19604e-06
1.92304e-07
7.94681e-07
-4.4066e-07
1.34462e-07
-1.1147e-06
6.51167e-07
-0.00114695
3.32234e-07
-1.41861e-06
1.9373e-07
-4.11885e-07
-1.10629e-06
1.45874e-07
8.02372e-07
-4.3651e-07
1.19997e-06
0.00114604
6.50147e-07
-0.00114596
3.28056e-07
-1.44766e-06
1.96524e-07
-4.14571e-07
-1.10335e-06
1.40122e-07
-4.3095e-07
7.99729e-07
-3.86302e-07
-3.91029e-07
0.000273515
-1.16809e-06
0.000275367
-0.000273325
1.61681e-07
1.66918e-07
6.69118e-07
3.35551e-07
0.00114676
-4.19854e-07
1.15876e-06
1.89604e-07
7.9986e-07
-4.46194e-07
1.40414e-07
-1.12007e-06
6.51038e-07
-0.00114681
3.26811e-07
-1.41584e-06
1.90903e-07
-4.09109e-07
-1.10633e-06
1.46065e-07
8.02427e-07
-4.36477e-07
1.16276e-06
0.00114703
6.51355e-07
-0.00114695
3.26661e-07
-1.41047e-06
1.93869e-07
-4.11895e-07
-1.10884e-06
1.46052e-07
-4.36527e-07
8.04863e-07
-0.000273299
1.61537e-07
1.64301e-07
1.45563e-06
1.41575e-06
-3.73767e-07
-3.79231e-07
0.000273293
-1.21616e-06
-1.1762e-06
0.000275146
-0.000273096
1.68233e-07
1.73633e-07
3.24915e-07
0.00114654
-4.149e-07
1.21226e-06
2.0069e-07
8.09399e-07
-4.33593e-07
-1.10822e-06
1.47588e-07
-1.45296e-06
6.44839e-07
3.24738e-07
0.00114661
-4.14903e-07
1.20977e-06
2.00746e-07
8.09334e-07
-4.30722e-07
-1.10809e-06
1.44775e-07
0.0011467
6.26689e-07
-0.00114666
3.21123e-07