/*--------------------------------*- C++ -*----------------------------------*\
| =========                 |                                                 |
| \\      /  F ield         | OpenFOAM: The Open Source CFD Toolbox           |
|  \\    /   O peration     | Version:  2312                                  |
|   \\  /    A nd           | Website:  www.openfoam.com                      |
|    \\/     M anipulation  |                                                 |
\*---------------------------------------------------------------------------*/
FoamFile
{
    version     2.0;
    format      ascii;
    arch        "LSB;label=32;scalar=64";
    class       volVectorField;
    location    "550";
    object      U;
}
// * * * * * * * * * * * * * * * * * * * * * * * * * * * * * * * * * * * * * //

dimensions      [0 1 -1 0 0 0 0];

internalField   nonuniform List<vector> 
42840
(
(5.97958e-05 5.98209e-05 0.109207)
(-8.96766e-05 5.58291e-05 0.108145)
(5.57827e-05 -8.96849e-05 0.108144)
(-0.000142315 -0.000142303 0.106657)
(5.85402e-05 5.85557e-05 0.109495)
(-8.7427e-05 5.45763e-05 0.108304)
(5.45487e-05 -8.74067e-05 0.108303)
(-0.000138036 -0.000138021 0.106656)
(5.72903e-05 5.73099e-05 0.109774)
(-8.5045e-05 5.32905e-05 0.108444)
(5.32806e-05 -8.50155e-05 0.108444)
(-0.000133381 -0.000133383 0.106632)
(5.59741e-05 5.59952e-05 0.110044)
(-8.25071e-05 5.1963e-05 0.108566)
(5.19529e-05 -8.24622e-05 0.108565)
(-0.000128515 -0.000128524 0.106589)
(5.46132e-05 5.46402e-05 0.110304)
(-7.98379e-05 5.05573e-05 0.108669)
(5.05262e-05 -7.9786e-05 0.108669)
(-0.000123424 -0.000123466 0.106528)
(5.31979e-05 5.32299e-05 0.110553)
(-7.69924e-05 4.9016e-05 0.108754)
(4.89966e-05 -7.69514e-05 0.108754)
(-0.000118224 -0.000118258 0.106454)
(5.17752e-05 5.17994e-05 0.110792)
(-7.40117e-05 4.73225e-05 0.108821)
(4.72943e-05 -7.3978e-05 0.108821)
(-0.000112882 -0.000112932 0.106368)
(5.03278e-05 5.03424e-05 0.111021)
(-7.09176e-05 4.55304e-05 0.108872)
(4.54903e-05 -7.0877e-05 0.108872)
(-0.000107604 -0.00010765 0.106274)
(4.88591e-05 4.88615e-05 0.111239)
(-6.77232e-05 4.36071e-05 0.108908)
(4.35633e-05 -6.76943e-05 0.108907)
(-0.000102373 -0.000102439 0.106175)
(4.7373e-05 4.73786e-05 0.111445)
(-6.44782e-05 4.15831e-05 0.108928)
(4.15674e-05 -6.44437e-05 0.108927)
(-9.72837e-05 -9.73538e-05 0.106073)
(4.58927e-05 4.58829e-05 0.11164)
(-6.11933e-05 3.94956e-05 0.108935)
(3.94724e-05 -6.11557e-05 0.108934)
(-9.23644e-05 -9.24257e-05 0.105969)
(4.4421e-05 4.44107e-05 0.111823)
(-5.7898e-05 3.73303e-05 0.10893)
(3.73157e-05 -5.78601e-05 0.108929)
(-8.76253e-05 -8.76914e-05 0.105865)
(4.29559e-05 4.29515e-05 0.111994)
(-5.46169e-05 3.51177e-05 0.108915)
(3.51005e-05 -5.4567e-05 0.108914)
(-8.31427e-05 -8.3201e-05 0.105763)
(4.14988e-05 4.14904e-05 0.112152)
(-5.13526e-05 3.28736e-05 0.10889)
(3.28625e-05 -5.13086e-05 0.108889)
(-7.88824e-05 -7.8928e-05 0.105663)
(4.00362e-05 4.00387e-05 0.112299)
(-4.81309e-05 3.06172e-05 0.108857)
(3.0619e-05 -4.80762e-05 0.108856)
(-7.48403e-05 -7.48657e-05 0.105565)
(3.85654e-05 3.85723e-05 0.112433)
(-4.49546e-05 2.83842e-05 0.108817)
(2.83642e-05 -4.48936e-05 0.108816)
(-7.10272e-05 -7.10405e-05 0.105471)
(3.70712e-05 3.70857e-05 0.112554)
(-4.18339e-05 2.61581e-05 0.108772)
(2.61498e-05 -4.17716e-05 0.108771)
(-6.74361e-05 -6.74451e-05 0.10538)
(3.55584e-05 3.55769e-05 0.112664)
(-3.87602e-05 2.40056e-05 0.108722)
(2.39931e-05 -3.87164e-05 0.108721)
(-6.40877e-05 -6.41031e-05 0.105293)
(3.40135e-05 3.40361e-05 0.112761)
(-3.57564e-05 2.19126e-05 0.108669)
(2.18947e-05 -3.57238e-05 0.108668)
(-6.09165e-05 -6.09508e-05 0.105209)
(3.24412e-05 3.24673e-05 0.112847)
(-3.28295e-05 1.98997e-05 0.108613)
(1.9889e-05 -3.28051e-05 0.108612)
(-5.79147e-05 -5.79668e-05 0.10513)
(3.08382e-05 3.08557e-05 0.112922)
(-2.99839e-05 1.79732e-05 0.108556)
(1.79673e-05 -2.99679e-05 0.108555)
(-5.5169e-05 -5.52254e-05 0.105054)
(2.92013e-05 2.92107e-05 0.112985)
(-2.72173e-05 1.61303e-05 0.108498)
(1.61482e-05 -2.72095e-05 0.108497)
(-5.2591e-05 -5.26473e-05 0.104982)
(2.75281e-05 2.75283e-05 0.113038)
(-2.45465e-05 1.44057e-05 0.10844)
(1.44268e-05 -2.45426e-05 0.108439)
(-5.0223e-05 -5.02746e-05 0.104913)
(2.58196e-05 2.58087e-05 0.113081)
(-2.19747e-05 1.27765e-05 0.108382)
(1.2791e-05 -2.19661e-05 0.108381)
(-4.80125e-05 -4.80498e-05 0.104849)
(2.40753e-05 2.40614e-05 0.113115)
(-1.95023e-05 1.12503e-05 0.108325)
(1.12647e-05 -1.94962e-05 0.108324)
(-4.59168e-05 -4.59446e-05 0.104788)
(0.000142278 0.000142277 0.106657)
(4.31468e-06 4.38497e-06 0.106843)
(5.59519e-05 8.97917e-05 0.108144)
(-5.60176e-05 8.97551e-05 0.108144)
(5.50309e-05 8.80799e-05 0.108265)
(-5.51053e-05 8.80377e-05 0.108265)
(-0.000142343 0.000142255 0.106657)
(-4.42299e-06 4.3895e-06 0.106843)
(8.97274e-05 5.58611e-05 0.108144)
(8.9727e-05 -5.59444e-05 0.108143)
(8.8019e-05 5.49308e-05 0.108265)
(8.80275e-05 -5.50231e-05 0.108264)
(-8.95425e-05 -5.58567e-05 0.108144)
(-8.79961e-05 5.49006e-05 0.108266)
(-8.78567e-05 -5.49558e-05 0.108265)
(0.000142287 -0.000142293 0.106657)
(4.40311e-06 -4.27848e-06 0.106842)
(-5.57976e-05 -8.97223e-05 0.108144)
(5.48612e-05 -8.79804e-05 0.108265)
(-5.48869e-05 -8.80268e-05 0.108265)
(-4.38558e-06 -4.2904e-06 0.106842)
(0.000137992 0.000137983 0.106656)
(1.77541e-06 1.85489e-06 0.106831)
(5.47097e-05 8.75001e-05 0.108303)
(-5.47947e-05 8.74589e-05 0.108303)
(5.3758e-05 8.5733e-05 0.10841)
(-5.38373e-05 8.56745e-05 0.10841)
(-0.000138053 0.000137957 0.106656)
(-1.83308e-06 1.80828e-06 0.106831)
(8.74399e-05 5.46082e-05 0.108304)
(8.74479e-05 -5.47125e-05 0.108302)
(8.56658e-05 5.3658e-05 0.108411)
(8.56649e-05 -5.37725e-05 0.108409)
(-8.72845e-05 -5.46464e-05 0.108303)
(-8.56558e-05 5.36203e-05 0.108411)
(-8.55069e-05 -5.37047e-05 0.10841)
(0.000137997 -0.000138029 0.106656)
(1.87848e-06 -1.72324e-06 0.106831)
(-5.45784e-05 -8.74511e-05 0.108303)
(5.35989e-05 -8.56261e-05 0.108411)
(-5.36247e-05 -8.56662e-05 0.10841)
(-1.81767e-06 -1.74245e-06 0.10683)
(0.000133343 0.000133351 0.106632)
(-7.05564e-07 -6.26725e-07 0.106798)
(5.34411e-05 8.51191e-05 0.108443)
(-5.35154e-05 8.5061e-05 0.108443)
(5.24647e-05 8.32187e-05 0.108536)
(-5.25356e-05 8.31565e-05 0.108536)
(-0.000133396 0.000133308 0.106632)
(6.42547e-07 -6.66964e-07 0.106797)
(8.50493e-05 5.33441e-05 0.108444)
(8.5052e-05 -5.34573e-05 0.108443)
(8.31366e-05 5.23709e-05 0.108537)
(8.3134e-05 -5.2475e-05 0.108536)
(-8.48974e-05 -5.33893e-05 0.108443)
(-8.31491e-05 5.23114e-05 0.108537)
(-8.30051e-05 -5.24021e-05 0.108536)
(0.000133388 -0.000133386 0.106632)
(-6.12274e-07 7.33278e-07 0.106797)
(-5.33099e-05 -8.50586e-05 0.108443)
(5.22918e-05 -8.31062e-05 0.108537)
(-5.23248e-05 -8.31464e-05 0.108536)
(6.40373e-07 7.05444e-07 0.106797)
(0.000128482 0.000128498 0.106589)
(-3.18727e-06 -3.10297e-06 0.106746)
(5.21212e-05 8.25689e-05 0.108565)
(-5.21927e-05 8.2507e-05 0.108564)
(5.1058e-05 8.05812e-05 0.108644)
(-5.11281e-05 8.05169e-05 0.108643)
(-0.000128536 0.000128456 0.106589)
(3.15047e-06 -3.14865e-06 0.106745)
(8.24884e-05 5.20325e-05 0.108566)
(8.24775e-05 -5.21383e-05 0.108564)
(8.04897e-05 5.09888e-05 0.108645)
(8.04704e-05 -5.10788e-05 0.108643)
(-8.2364e-05 -5.20659e-05 0.108565)
(-8.05187e-05 5.0921e-05 0.108645)
(-8.03792e-05 -5.10112e-05 0.108644)
(0.000128527 -0.000128545 0.106589)
(-3.11504e-06 3.21697e-06 0.106745)
(-5.19881e-05 -8.24914e-05 0.108565)
(5.08862e-05 -8.0466e-05 0.108645)
(-5.09319e-05 -8.04884e-05 0.108644)
(3.15267e-06 3.17957e-06 0.106744)
(0.000123402 0.000123422 0.106528)
(-5.70664e-06 -5.6019e-06 0.106677)
(5.06939e-05 7.98961e-05 0.108668)
(-5.07649e-05 7.98338e-05 0.108667)
(4.95555e-05 7.77838e-05 0.108733)
(-4.96146e-05 7.77199e-05 0.108733)
(-0.000123453 0.000123401 0.106528)
(5.67974e-06 -5.6251e-06 0.106677)
(7.98032e-05 5.06266e-05 0.108669)
(7.9785e-05 -5.07148e-05 0.108667)
(7.76842e-05 4.94866e-05 0.108734)
(7.76651e-05 -4.95803e-05 0.108733)
(-7.96963e-05 -5.06513e-05 0.108668)
(-7.77185e-05 4.943e-05 0.108734)
(-7.75824e-05 -4.95187e-05 0.108733)
(0.000123436 -0.000123463 0.106528)
(-5.61534e-06 5.72832e-06 0.106676)
(-5.0571e-05 -7.9803e-05 0.108668)
(4.93961e-05 -7.76685e-05 0.108734)
(-4.94334e-05 -7.76884e-05 0.108733)
(5.68936e-06 5.72364e-06 0.106676)
(0.000118212 0.000118235 0.106454)
(-8.24704e-06 -8.17187e-06 0.106596)
(4.91494e-05 7.70617e-05 0.108753)
(-4.91997e-05 7.69974e-05 0.108752)
(4.78905e-05 7.48415e-05 0.108805)
(-4.79133e-05 7.47857e-05 0.108804)
(-0.000118233 0.000118225 0.106454)
(8.27937e-06 -8.21278e-06 0.106596)
(7.69618e-05 4.9076e-05 0.108754)
(7.69413e-05 -4.91837e-05 0.108752)
(7.47511e-05 4.78104e-05 0.108806)
(7.47262e-05 -4.78985e-05 0.108804)
(-7.6862e-05 -4.91115e-05 0.108752)
(-7.47702e-05 4.77608e-05 0.108806)
(-7.46498e-05 -4.78368e-05 0.108805)
(0.000118224 -0.000118249 0.106454)
(-8.17646e-06 8.29603e-06 0.106595)
(-4.90264e-05 -7.69675e-05 0.108753)
(4.77278e-05 -7.47307e-05 0.108806)
(-4.77509e-05 -7.47516e-05 0.108805)
(8.26165e-06 8.27248e-06 0.106594)
(0.000112901 0.000112911 0.106368)
(-1.07748e-05 -1.07235e-05 0.106505)
(4.74553e-05 7.40857e-05 0.10882)
(-4.74709e-05 7.4034e-05 0.10882)
(4.61092e-05 7.17751e-05 0.10886)
(-4.61195e-05 7.17271e-05 0.108859)
(-0.000112903 0.000112914 0.106368)
(1.08372e-05 -1.07696e-05 0.106505)
(7.39953e-05 4.73732e-05 0.108821)
(7.39758e-05 -4.74608e-05 0.10882)
(7.1696e-05 4.60265e-05 0.108861)
(7.16727e-05 -4.61056e-05 0.108859)
(-7.38983e-05 -4.73992e-05 0.10882)
(-7.16943e-05 4.59973e-05 0.108861)
(-7.15891e-05 -4.6048e-05 0.108859)
(0.00011292 -0.000112923 0.106368)
(-1.07084e-05 1.08459e-05 0.106504)
(-4.73186e-05 -7.39966e-05 0.10882)
(4.59524e-05 -7.16597e-05 0.108861)
(-4.59727e-05 -7.16773e-05 0.10886)
(1.07725e-05 1.07858e-05 0.106504)
(0.000107599 0.000107592 0.106274)
(-1.32379e-05 -1.31999e-05 0.106407)
(4.56528e-05 7.09958e-05 0.108871)
(-4.5664e-05 7.09486e-05 0.10887)
(4.42278e-05 6.86147e-05 0.108899)
(-4.42215e-05 6.8559e-05 0.108898)
(-0.000107606 0.000107617 0.106274)
(1.32827e-05 -1.3226e-05 0.106407)
(7.09199e-05 4.55612e-05 0.108872)
(7.08928e-05 -4.56411e-05 0.10887)
(6.85468e-05 4.41259e-05 0.1089)
(6.85103e-05 -4.42018e-05 0.108898)
(-7.08135e-05 -4.55978e-05 0.10887)
(-6.85252e-05 4.41038e-05 0.1089)
(-6.84338e-05 -4.41649e-05 0.108898)
(0.000107629 -0.00010761 0.106274)
(-1.32061e-05 1.33099e-05 0.106407)
(-4.55119e-05 -7.08964e-05 0.108871)
(4.40624e-05 -6.8491e-05 0.1089)
(-4.40684e-05 -6.85204e-05 0.108899)
(1.3269e-05 1.32596e-05 0.106406)
(0.000102395 0.000102374 0.106175)
(-1.56481e-05 -1.56187e-05 0.106305)
(4.37396e-05 6.78072e-05 0.108906)
(-4.37394e-05 6.77555e-05 0.108905)
(4.22321e-05 6.53645e-05 0.108922)
(-4.2229e-05 6.53144e-05 0.108922)
(-0.000102375 0.000102373 0.106175)
(1.56731e-05 -1.56468e-05 0.106305)
(6.77396e-05 4.36317e-05 0.108907)
(6.77045e-05 -4.37111e-05 0.108905)
(6.53058e-05 4.21258e-05 0.108924)
(6.52711e-05 -4.22057e-05 0.108922)
(-6.7629e-05 -4.36753e-05 0.108905)
(-6.52891e-05 4.20928e-05 0.108924)
(-6.51943e-05 -4.21859e-05 0.108922)
(0.000102397 -0.000102402 0.106175)
(-1.56432e-05 1.57376e-05 0.106304)
(-4.35727e-05 -6.77214e-05 0.108906)
(4.20696e-05 -6.5262e-05 0.108924)
(-4.20787e-05 -6.52937e-05 0.108923)
(1.57177e-05 1.56964e-05 0.106304)
(9.73156e-05 9.72937e-05 0.106073)
(-1.80163e-05 -1.80042e-05 0.1062)
(4.17209e-05 6.45432e-05 0.108926)
(-4.17133e-05 6.44926e-05 0.108926)
(4.017e-05 6.20744e-05 0.108933)
(-4.0166e-05 6.20178e-05 0.108932)
(-9.73374e-05 9.73076e-05 0.106073)
(1.80325e-05 -1.80238e-05 0.1062)
(6.44853e-05 4.16124e-05 0.108927)
(6.44476e-05 -4.16994e-05 0.108925)
(6.20204e-05 4.00536e-05 0.108934)
(6.19838e-05 -4.01436e-05 0.108932)
(-6.43743e-05 -4.16785e-05 0.108926)
(-6.20111e-05 4.00364e-05 0.108934)
(-6.19061e-05 -4.01067e-05 0.108932)
(9.73017e-05 -9.73097e-05 0.106073)
(-1.79973e-05 1.80614e-05 0.1062)
(-4.15729e-05 -6.44792e-05 0.108927)
(4.00045e-05 -6.19749e-05 0.108934)
(-4.00007e-05 -6.20089e-05 0.108933)
(1.80462e-05 1.80318e-05 0.106199)
(9.23821e-05 9.23485e-05 0.105969)
(-2.02561e-05 -2.02392e-05 0.106095)
(3.96361e-05 6.12497e-05 0.108933)
(-3.96334e-05 6.11902e-05 0.108933)
(3.80266e-05 5.87779e-05 0.10893)
(-3.80353e-05 5.87157e-05 0.10893)
(-9.24016e-05 9.23567e-05 0.105969)
(2.02659e-05 -2.02804e-05 0.106095)
(6.11965e-05 3.95231e-05 0.108934)
(6.11592e-05 -3.96144e-05 0.108932)
(5.87284e-05 3.79138e-05 0.108932)
(5.86831e-05 -3.79985e-05 0.10893)
(-6.1084e-05 -3.95761e-05 0.108933)
(-5.87175e-05 3.78854e-05 0.108932)
(-5.86111e-05 -3.79564e-05 0.10893)
(9.23896e-05 -9.24268e-05 0.105969)
(-2.02279e-05 2.02814e-05 0.106094)
(-3.94717e-05 -6.11858e-05 0.108934)
(3.78606e-05 -5.86814e-05 0.108932)
(-3.7862e-05 -5.87111e-05 0.108931)
(2.02716e-05 2.02479e-05 0.106094)
(8.76674e-05 8.76369e-05 0.105865)
(-2.23679e-05 -2.23472e-05 0.10599)
(3.74814e-05 5.79529e-05 0.108928)
(-3.74834e-05 5.78896e-05 0.108928)
(3.58025e-05 5.54766e-05 0.108917)
(-3.5821e-05 5.54186e-05 0.108917)
(-8.76653e-05 8.76011e-05 0.105865)
(2.23605e-05 -2.23752e-05 0.105991)
(5.79024e-05 3.73678e-05 0.108929)
(5.78596e-05 -3.74516e-05 0.108927)
(5.54355e-05 3.56998e-05 0.108919)
(5.53886e-05 -3.57932e-05 0.108916)
(-5.77856e-05 -3.7406e-05 0.108928)
(-5.54323e-05 3.56883e-05 0.108919)
(-5.53332e-05 -3.5749e-05 0.108917)
(8.7618e-05 -8.76607e-05 0.105865)
(-2.23598e-05 2.24146e-05 0.10599)
(-3.7307e-05 -5.78868e-05 0.108929)
(3.56609e-05 -5.53871e-05 0.108919)
(-3.5655e-05 -5.54349e-05 0.108918)
(2.23509e-05 2.23333e-05 0.105989)
(8.31803e-05 8.31611e-05 0.105763)
(-2.43278e-05 -2.43119e-05 0.105887)
(3.52434e-05 5.46606e-05 0.108913)
(-3.52672e-05 5.46e-05 0.108912)
(3.35691e-05 5.22076e-05 0.108894)
(-3.35855e-05 5.21409e-05 0.108894)
(-8.31905e-05 8.31261e-05 0.105763)
(2.43364e-05 -2.43569e-05 0.105887)
(5.46182e-05 3.51466e-05 0.108914)
(5.45681e-05 -3.52337e-05 0.108912)
(5.21675e-05 3.34704e-05 0.108896)
(5.212e-05 -3.35407e-05 0.108894)
(-5.45129e-05 -3.51874e-05 0.108912)
(-5.21583e-05 3.34398e-05 0.108897)
(-5.20628e-05 -3.35029e-05 0.108894)
(8.31425e-05 -8.31827e-05 0.105763)
(-2.43511e-05 2.44047e-05 0.105887)
(-3.50979e-05 -5.46148e-05 0.108913)
(3.34252e-05 -5.21173e-05 0.108896)
(-3.34175e-05 -5.21586e-05 0.108895)
(2.43357e-05 2.43273e-05 0.105886)
(7.88787e-05 7.88544e-05 0.105663)
(-2.61797e-05 -2.61488e-05 0.105786)
(3.30043e-05 5.13965e-05 0.108887)
(-3.30161e-05 5.13291e-05 0.108887)
(3.13083e-05 4.89682e-05 0.108863)
(-3.13217e-05 4.89111e-05 0.108863)
(-7.89161e-05 7.88491e-05 0.105663)
(2.6141e-05 -2.61741e-05 0.105787)
(5.13592e-05 3.29089e-05 0.108889)
(5.13112e-05 -3.29789e-05 0.108886)
(4.89382e-05 3.12282e-05 0.108865)
(4.88854e-05 -3.12852e-05 0.108862)
(-5.12492e-05 -3.29364e-05 0.108887)
(-4.89406e-05 3.11763e-05 0.108865)
(-4.88252e-05 -3.12291e-05 0.108863)
(7.88988e-05 -7.89365e-05 0.105663)
(-2.61692e-05 2.62177e-05 0.105786)
(-3.28582e-05 -5.1344e-05 0.108888)
(3.11759e-05 -4.88784e-05 0.108865)
(-3.1171e-05 -4.89068e-05 0.108864)
(2.61487e-05 2.61623e-05 0.105785)
(7.48583e-05 7.48504e-05 0.105565)
(-2.78374e-05 -2.78033e-05 0.105688)
(3.07365e-05 4.81683e-05 0.108854)
(-3.07583e-05 4.81078e-05 0.108854)
(2.90428e-05 4.57753e-05 0.108825)
(-2.90835e-05 4.57157e-05 0.108825)
(-7.48941e-05 7.48145e-05 0.105565)
(2.78385e-05 -2.78673e-05 0.105689)
(4.81346e-05 3.06607e-05 0.108856)
(4.80833e-05 -3.07207e-05 0.108853)
(4.57392e-05 2.89859e-05 0.108826)
(4.56929e-05 -2.90348e-05 0.108824)
(-4.80244e-05 -3.0671e-05 0.108854)
(-4.57609e-05 2.89345e-05 0.108827)
(-4.56438e-05 -2.89881e-05 0.108825)
(7.4842e-05 -7.48808e-05 0.105565)
(-2.78704e-05 2.79157e-05 0.105688)
(-3.06138e-05 -4.80989e-05 0.108855)
(2.8921e-05 -4.56844e-05 0.108826)
(-2.89366e-05 -4.57014e-05 0.108826)
(2.78411e-05 2.78637e-05 0.105687)
(7.10311e-05 7.10272e-05 0.105471)
(-2.94184e-05 -2.93794e-05 0.105594)
(2.84841e-05 4.49873e-05 0.108815)
(-2.85252e-05 4.49235e-05 0.108814)
(2.68184e-05 4.26376e-05 0.108781)
(-2.68555e-05 4.25719e-05 0.108781)
(-7.11099e-05 7.10355e-05 0.105471)
(2.93915e-05 -2.94203e-05 0.105594)
(4.49453e-05 2.84252e-05 0.108816)
(4.48999e-05 -2.8466e-05 0.108814)
(4.25894e-05 2.67678e-05 0.108783)
(4.25426e-05 -2.68044e-05 0.10878)
(-4.48546e-05 -2.84316e-05 0.108814)
(-4.2617e-05 2.67125e-05 0.108783)
(-4.25015e-05 -2.67541e-05 0.108781)
(7.10768e-05 -7.11186e-05 0.105471)
(-2.94021e-05 2.94373e-05 0.105593)
(-2.83745e-05 -4.49106e-05 0.108815)
(2.67003e-05 -4.25429e-05 0.108782)
(-2.67191e-05 -4.2548e-05 0.108782)
(2.94075e-05 2.94321e-05 0.105592)
(6.74455e-05 6.7449e-05 0.10538)
(-3.08251e-05 -3.07873e-05 0.105502)
(2.62726e-05 4.1862e-05 0.108769)
(-2.63016e-05 4.1799e-05 0.108769)
(2.46333e-05 3.95517e-05 0.108732)
(-2.46771e-05 3.94914e-05 0.108732)
(-6.75065e-05 6.74264e-05 0.10538)
(3.07974e-05 -3.08284e-05 0.105502)
(4.18105e-05 2.622e-05 0.108771)
(4.17688e-05 -2.62545e-05 0.108768)
(3.95058e-05 2.45927e-05 0.108734)
(3.94621e-05 -2.46299e-05 0.108731)
(-4.17322e-05 -2.62077e-05 0.108769)
(-3.95295e-05 2.45425e-05 0.108735)
(-3.94284e-05 -2.45913e-05 0.108732)
(6.74236e-05 -6.74705e-05 0.10538)
(-3.08488e-05 3.08711e-05 0.105502)
(-2.6174e-05 -4.17759e-05 0.10877)
(2.45273e-05 -3.94733e-05 0.108734)
(-2.45489e-05 -3.9465e-05 0.108733)
(3.08235e-05 3.08411e-05 0.105501)
(6.40831e-05 6.40864e-05 0.105293)
(-3.21653e-05 -3.21357e-05 0.105414)
(2.41037e-05 3.87921e-05 0.10872)
(-2.41489e-05 3.87308e-05 0.108719)
(2.25289e-05 3.65395e-05 0.10868)
(-2.25605e-05 3.64731e-05 0.108679)
(-6.41172e-05 6.40271e-05 0.105293)
(3.21054e-05 -3.21563e-05 0.105414)
(3.8741e-05 2.40576e-05 0.108721)
(3.86998e-05 -2.40941e-05 0.108718)
(3.64811e-05 2.24861e-05 0.108682)
(3.64405e-05 -2.25197e-05 0.108679)
(-3.86647e-05 -2.40561e-05 0.108719)
(-3.6502e-05 2.24225e-05 0.108682)
(-3.641e-05 -2.2488e-05 0.108679)
(6.40744e-05 -6.41324e-05 0.105293)
(-3.2152e-05 3.21609e-05 0.105414)
(-2.40135e-05 -3.86999e-05 0.10872)
(2.24115e-05 -3.64622e-05 0.108681)
(-2.24316e-05 -3.64438e-05 0.108681)
(3.21464e-05 3.21438e-05 0.105413)
(6.09282e-05 6.09427e-05 0.10521)
(-3.3327e-05 -3.33111e-05 0.10533)
(2.2003e-05 3.57979e-05 0.108666)
(-2.20418e-05 3.57401e-05 0.108666)
(2.04866e-05 3.35858e-05 0.108625)
(-2.0512e-05 3.35495e-05 0.108624)
(-6.09653e-05 6.08579e-05 0.10521)
(3.33183e-05 -3.33348e-05 0.10533)
(3.57281e-05 2.1963e-05 0.108668)
(3.5698e-05 -2.19966e-05 0.108665)
(3.35338e-05 2.04427e-05 0.108627)
(3.35034e-05 -2.04808e-05 0.108624)
(-3.56664e-05 -2.19648e-05 0.108666)
(-3.35565e-05 2.03995e-05 0.108627)
(-3.34708e-05 -2.04645e-05 0.108624)
(6.0909e-05 -6.09785e-05 0.105209)
(-3.33493e-05 3.33573e-05 0.10533)
(-2.1908e-05 -3.57021e-05 0.108667)
(2.03797e-05 -3.35265e-05 0.108626)
(-2.03853e-05 -3.3509e-05 0.108626)
(3.33586e-05 3.3333e-05 0.105329)
(5.79849e-05 5.79926e-05 0.10513)
(-3.44235e-05 -3.44231e-05 0.10525)
(1.99846e-05 3.28626e-05 0.108611)
(-2.00132e-05 3.28305e-05 0.10861)
(1.85427e-05 3.07238e-05 0.108568)
(-1.85543e-05 3.07036e-05 0.108568)
(-5.7989e-05 5.79189e-05 0.10513)
(3.44047e-05 -3.44069e-05 0.10525)
(3.2812e-05 1.99434e-05 0.108612)
(3.278e-05 -1.99876e-05 0.10861)
(3.06783e-05 1.8485e-05 0.10857)
(3.06492e-05 -1.85247e-05 0.108567)
(-3.27451e-05 -1.99631e-05 0.10861)
(-3.06903e-05 1.8444e-05 0.10857)
(-3.06026e-05 -1.85094e-05 0.108568)
(5.79526e-05 -5.80187e-05 0.10513)
(-3.4411e-05 3.44234e-05 0.105249)
(-1.98867e-05 -3.27881e-05 0.108612)
(1.84372e-05 -3.06718e-05 0.10857)
(-1.8434e-05 -3.06515e-05 0.108569)
(3.4445e-05 3.44125e-05 0.105249)
(5.52392e-05 5.5234e-05 0.105054)
(-3.53869e-05 -3.54e-05 0.105173)
(1.80689e-05 3.00202e-05 0.108554)
(-1.80764e-05 3.00061e-05 0.108553)
(1.6688e-05 2.79399e-05 0.10851)
(-1.66836e-05 2.79333e-05 0.10851)
(-5.52337e-05 5.51786e-05 0.105054)
(3.53822e-05 -3.5386e-05 0.105174)
(2.99763e-05 1.80085e-05 0.108555)
(2.99471e-05 -1.80521e-05 0.108553)
(2.79082e-05 1.66231e-05 0.108512)
(2.78838e-05 -1.66711e-05 0.108509)
(-2.98992e-05 -1.80351e-05 0.108553)
(-2.79039e-05 1.65863e-05 0.108513)
(-2.78266e-05 -1.66542e-05 0.10851)
(5.52019e-05 -5.5261e-05 0.105054)
(-3.53959e-05 3.5417e-05 0.105173)
(-1.79583e-05 -2.99498e-05 0.108554)
(1.6592e-05 -2.78907e-05 0.108512)
(-1.65706e-05 -2.78795e-05 0.108511)
(3.54263e-05 3.5389e-05 0.105172)
(5.2669e-05 5.26503e-05 0.104982)
(-3.62346e-05 -3.62612e-05 0.105101)
(1.62405e-05 2.72585e-05 0.108496)
(-1.62238e-05 2.72496e-05 0.108495)
(1.49368e-05 2.52468e-05 0.108452)
(-1.49114e-05 2.52455e-05 0.108451)
(-5.26697e-05 5.26139e-05 0.104982)
(3.62737e-05 -3.62751e-05 0.105101)
(2.72304e-05 1.61741e-05 0.108497)
(2.72043e-05 -1.62209e-05 0.108495)
(2.52286e-05 1.48562e-05 0.108454)
(2.5206e-05 -1.49104e-05 0.108451)
(-2.71488e-05 -1.62053e-05 0.108495)
(-2.52107e-05 1.48306e-05 0.108454)
(-2.51451e-05 -1.48968e-05 0.108451)
(5.2635e-05 -5.26824e-05 0.104982)
(-3.62815e-05 3.63107e-05 0.1051)
(-1.61262e-05 -2.72026e-05 0.108496)
(1.48483e-05 -2.51998e-05 0.108453)
(-1.48127e-05 -2.51964e-05 0.108453)
(3.63028e-05 3.62673e-05 0.1051)
(5.0279e-05 5.02496e-05 0.104913)
(-3.70426e-05 -3.70742e-05 0.105032)
(1.45152e-05 2.45877e-05 0.108437)
(-1.44879e-05 2.45851e-05 0.108437)
(1.3279e-05 2.26539e-05 0.108394)
(-1.32496e-05 2.2648e-05 0.108393)
(-5.02558e-05 5.02035e-05 0.104914)
(3.70626e-05 -3.70654e-05 0.105032)
(2.45714e-05 1.44378e-05 0.108439)
(2.45509e-05 -1.44877e-05 0.108436)
(2.26402e-05 1.32014e-05 0.108396)
(2.26209e-05 -1.32529e-05 0.108393)
(-2.44872e-05 -1.44692e-05 0.108437)
(-2.26122e-05 1.31728e-05 0.108396)
(-2.25542e-05 -1.32373e-05 0.108393)
(5.02375e-05 -5.02782e-05 0.104913)
(-3.70636e-05 3.70892e-05 0.105032)
(-1.43931e-05 -2.45373e-05 0.108438)
(1.31941e-05 -2.26024e-05 0.108395)
(-1.31589e-05 -2.26001e-05 0.108395)
(3.70905e-05 3.70644e-05 0.105031)
(4.80549e-05 4.80233e-05 0.104849)
(-3.77469e-05 -3.77805e-05 0.104967)
(1.28846e-05 2.20174e-05 0.108379)
(-1.28567e-05 2.20121e-05 0.108379)
(1.17268e-05 2.01541e-05 0.108336)
(-1.1693e-05 2.01547e-05 0.108336)
(-4.80277e-05 4.79761e-05 0.104849)
(3.77646e-05 -3.77626e-05 0.104967)
(2.20054e-05 1.28006e-05 0.108381)
(2.19856e-05 -1.28556e-05 0.108378)
(2.01421e-05 1.16399e-05 0.108338)
(2.01298e-05 -1.16874e-05 0.108335)
(-2.19244e-05 -1.28316e-05 0.108379)
(-2.01172e-05 1.16242e-05 0.108339)
(-2.00719e-05 -1.1673e-05 0.108336)
(4.80189e-05 -4.80594e-05 0.104848)
(-3.77611e-05 3.77911e-05 0.104966)
(-1.27624e-05 -2.19647e-05 0.10838)
(1.16399e-05 -2.01081e-05 0.108338)
(-1.16118e-05 -2.01033e-05 0.108337)
(3.77784e-05 3.77618e-05 0.104966)
(4.59797e-05 4.59488e-05 0.104788)
(1.13444e-05 1.95422e-05 0.108322)
(-1.13164e-05 1.95426e-05 0.108322)
(-4.59617e-05 4.59181e-05 0.104788)
(1.9536e-05 1.12627e-05 0.108324)
(1.95237e-05 -1.13167e-05 0.108321)
(-1.94639e-05 -1.13005e-05 0.108322)
(4.59411e-05 -4.59752e-05 0.104787)
(-1.12381e-05 -1.94931e-05 0.108323)
(7.88541e-07 6.99538e-06 0.0937513)
(-1.27277e-06 3.07165e-05 0.0833541)
(-4.00479e-06 -6.0035e-06 0.0833635)
(1.47407e-06 5.28773e-05 0.0937678)
(-3.54344e-06 1.42075e-05 0.0720084)
(5.35178e-06 -5.75744e-06 0.0720491)
(6.97399e-06 9.27261e-07 0.093751)
(3.06699e-05 -1.22974e-06 0.0833546)
(-6.05882e-06 -3.95557e-06 0.083364)
(5.28465e-05 1.60293e-06 0.0937674)
(-5.98348e-05 5.98209e-05 0.109207)
(5.97879e-05 -5.98112e-05 0.109207)
(-5.97981e-05 -5.97953e-05 0.109207)
(5.88522e-05 5.88657e-05 0.109424)
(-5.89046e-05 5.88715e-05 0.109424)
(5.88429e-05 -5.88736e-05 0.109424)
(-5.88591e-05 -5.88576e-05 0.109424)
(-4.27808e-05 2.92254e-06 0.102218)
(-6.06819e-05 2.4217e-05 0.0954233)
(-0.000100218 1.95565e-05 0.108864)
(-8.91175e-05 5.55287e-05 0.108186)
(-1.79934e-05 -1.52129e-06 0.0954469)
(-9.98202e-05 1.94217e-05 0.108926)
(-0.000103777 4.77266e-06 0.102195)
(1.42336e-05 -3.48432e-06 0.0720083)
(-5.69417e-06 5.46364e-06 0.0720483)
(2.9099e-06 -4.27637e-05 0.102216)
(1.95717e-05 -0.000100219 0.108863)
(2.42892e-05 -6.06573e-05 0.0954244)
(5.54785e-05 -8.91177e-05 0.108186)
(1.94325e-05 -9.98296e-05 0.108926)
(-1.41285e-06 -1.7883e-05 0.0954451)
(4.86243e-06 -0.000103838 0.102196)
(-2.98134e-05 -1.63386e-05 0.0891392)
(-1.62921e-05 -2.98107e-05 0.0891382)
(-5.72314e-06 -5.62843e-06 0.106839)
(-8.8483e-06 3.61814e-06 0.0891503)
(3.61551e-06 -8.85339e-06 0.0891471)
(5.33438e-07 4.22757e-06 0.0934794)
(-1.14772e-06 2.89432e-05 0.0831547)
(1.21233e-06 4.86947e-05 0.0934883)
(-3.85288e-06 -6.7534e-06 0.0831695)
(-3.50367e-06 1.36404e-05 0.0718717)
(5.15771e-06 -5.74863e-06 0.0719152)
(4.2566e-06 6.87976e-07 0.093479)
(2.88808e-05 -1.07362e-06 0.0831551)
(4.86738e-05 1.35979e-06 0.0934878)
(-6.81718e-06 -3.77553e-06 0.0831698)
(-5.85967e-05 5.85588e-05 0.109495)
(5.85332e-05 -5.85643e-05 0.109495)
(-5.8551e-05 -5.85502e-05 0.109495)
(5.76054e-05 5.76223e-05 0.109705)
(-5.76579e-05 5.76177e-05 0.109705)
(5.76012e-05 -5.76293e-05 0.109705)
(-5.76061e-05 -5.76181e-05 0.109705)
(-3.66436e-05 2.17449e-06 0.101946)
(-5.68679e-05 2.2396e-05 0.095154)
(-9.86556e-05 1.9014e-05 0.109108)
(-8.68461e-05 5.42561e-05 0.10834)
(-9.6832e-05 3.9508e-06 0.101924)
(-1.47048e-05 -2.39784e-06 0.095181)
(-9.82498e-05 1.8876e-05 0.109166)
(1.36349e-05 -3.47103e-06 0.0718717)
(-5.70416e-06 5.24061e-06 0.0719144)
(2.23786e-06 -3.6664e-05 0.101944)
(1.90363e-05 -9.86575e-05 0.109107)
(2.25049e-05 -5.68696e-05 0.0951552)
(5.4226e-05 -8.68223e-05 0.10834)
(4.12462e-06 -9.6851e-05 0.101925)
(1.88996e-05 -9.82502e-05 0.109167)
(-2.27357e-06 -1.46337e-05 0.0951795)
(-2.78836e-05 -1.54393e-05 0.0889101)
(-1.53793e-05 -2.78875e-05 0.0889092)
(-3.10953e-06 -3.02748e-06 0.106839)
(-7.11573e-06 3.95693e-06 0.0889262)
(4.00595e-06 -7.12901e-06 0.0889232)
(3.38758e-07 2.23519e-06 0.0932336)
(-1.0503e-06 2.75002e-05 0.0829747)
(9.86717e-07 4.5266e-05 0.0932358)
(-3.78081e-06 -7.21195e-06 0.0829941)
(-3.5059e-06 1.31839e-05 0.0717477)
(4.9646e-06 -5.71731e-06 0.0717935)
(2.25055e-06 4.7022e-07 0.0932332)
(2.74262e-05 -9.49554e-07 0.0829748)
(4.52692e-05 1.12501e-06 0.0932353)
(-7.28516e-06 -3.67777e-06 0.0829942)
(-5.73448e-05 5.73017e-05 0.109774)
(5.72862e-05 -5.7314e-05 0.109774)
(-5.72921e-05 -5.73041e-05 0.109774)
(5.63079e-05 5.63219e-05 0.109977)
(-5.63673e-05 5.63184e-05 0.109977)
(5.63006e-05 -5.63298e-05 0.109977)
(-5.63145e-05 -5.63253e-05 0.109977)
(-3.07469e-05 1.76474e-06 0.101678)
(-5.33949e-05 2.07722e-05 0.0949049)
(-9.70688e-05 1.84771e-05 0.109338)
(-8.44156e-05 5.29718e-05 0.108476)
(-9.00571e-05 3.35929e-06 0.101657)
(-1.18084e-05 -3.07236e-06 0.0949353)
(-9.66391e-05 1.83445e-05 0.109393)
(1.31628e-05 -3.52189e-06 0.0717477)
(-5.68992e-06 5.03212e-06 0.0717928)
(1.82461e-06 -3.07601e-05 0.101677)
(1.85108e-05 -9.70502e-05 0.109338)
(2.09067e-05 -5.34078e-05 0.0949063)
(5.2953e-05 -8.43919e-05 0.108476)
(3.56199e-06 -9.01037e-05 0.101657)
(1.83774e-05 -9.6632e-05 0.109393)
(-2.98103e-06 -1.17417e-05 0.0949338)
(-2.60865e-05 -1.46407e-05 0.0887016)
(-1.45884e-05 -2.60831e-05 0.0887008)
(-5.94804e-07 -5.26903e-07 0.106816)
(-5.5277e-06 4.2296e-06 0.0887222)
(4.29695e-06 -5.52471e-06 0.0887192)
(1.4661e-07 6.66757e-07 0.093011)
(-1.09433e-06 2.62735e-05 0.0828118)
(7.82522e-07 4.24354e-05 0.0930076)
(-3.83568e-06 -7.30716e-06 0.0828353)
(-3.52265e-06 1.27424e-05 0.0716352)
(4.85866e-06 -5.65067e-06 0.0716831)
(6.71289e-07 2.50458e-07 0.0930108)
(2.62073e-05 -9.98758e-07 0.0828118)
(4.2441e-05 8.8711e-07 0.0930072)
(-7.35486e-06 -3.73622e-06 0.0828354)
(-5.60385e-05 5.5986e-05 0.110044)
(5.59679e-05 -5.60011e-05 0.110044)
(-5.59848e-05 -5.59952e-05 0.110044)
(5.49545e-05 5.49815e-05 0.11024)
(-5.50147e-05 5.49738e-05 0.110239)
(5.49463e-05 -5.49814e-05 0.110239)
(-5.49617e-05 -5.49836e-05 0.110239)
(-2.54299e-05 1.42156e-06 0.10142)
(-5.03375e-05 1.93829e-05 0.094675)
(-9.53027e-05 1.79549e-05 0.109554)
(-8.18556e-05 5.16273e-05 0.108593)
(-8.37044e-05 2.93666e-06 0.101397)
(-9.25467e-06 -3.54384e-06 0.0947084)
(-9.48218e-05 1.78237e-05 0.109606)
(1.27286e-05 -3.53814e-06 0.0716353)
(-5.61801e-06 4.91546e-06 0.0716824)
(1.45183e-06 -2.54319e-05 0.101419)
(1.79947e-05 -9.52862e-05 0.109554)
(1.9461e-05 -5.03613e-05 0.0946763)
(5.16004e-05 -8.18043e-05 0.108593)
(3.1319e-06 -8.37481e-05 0.101398)
(1.78635e-05 -9.48123e-05 0.109606)
(-3.48217e-06 -9.19319e-06 0.0947069)
(-2.44387e-05 -1.38929e-05 0.0885119)
(-1.38384e-05 -2.44607e-05 0.0885112)
(1.90461e-06 1.94925e-06 0.106772)
(-4.10374e-06 4.36911e-06 0.0885363)
(4.47574e-06 -4.12107e-06 0.0885335)
(-5.50308e-08 -6.20118e-07 0.0928089)
(-1.15623e-06 2.53356e-05 0.0826643)
(5.80009e-07 3.99935e-05 0.0928006)
(-3.87863e-06 -7.20048e-06 0.0826914)
(-3.49105e-06 1.23956e-05 0.0715331)
(4.82082e-06 -5.54462e-06 0.0715827)
(-6.30761e-07 2.93254e-08 0.0928089)
(2.52895e-05 -1.07575e-06 0.0826643)
(3.99874e-05 6.6291e-07 0.0928004)
(-7.25151e-06 -3.79659e-06 0.0826916)
(-5.46656e-05 5.46256e-05 0.110303)
(5.46049e-05 -5.46376e-05 0.110303)
(-5.46181e-05 -5.46404e-05 0.110303)
(5.3552e-05 5.35863e-05 0.110492)
(-5.35976e-05 5.35746e-05 0.110492)
(5.35498e-05 -5.35768e-05 0.110492)
(-5.35597e-05 -5.3583e-05 0.110491)
(-2.06267e-05 1.15932e-06 0.101174)
(-4.75651e-05 1.81452e-05 0.0944629)
(-9.33104e-05 1.74396e-05 0.109756)
(-7.91382e-05 5.01934e-05 0.108692)
(-7.78357e-05 2.58711e-06 0.101149)
(-7.02469e-06 -3.98348e-06 0.0944992)
(-9.2766e-05 1.73125e-05 0.109803)
(1.23602e-05 -3.51916e-06 0.0715333)
(-5.50911e-06 4.87241e-06 0.071582)
(1.15394e-06 -2.06375e-05 0.101173)
(1.74811e-05 -9.32961e-05 0.109755)
(1.82051e-05 -4.75992e-05 0.0944642)
(5.01474e-05 -7.90898e-05 0.108692)
(2.73841e-06 -7.78832e-05 0.101149)
(1.73495e-05 -9.27604e-05 0.109803)
(-3.9294e-06 -6.98309e-06 0.0944977)
(-2.29332e-05 -1.323e-05 0.0883392)
(-1.31654e-05 -2.29584e-05 0.0883385)
(4.39729e-06 4.41266e-06 0.106712)
(-2.88479e-06 4.46556e-06 0.088367)
(4.56606e-06 -2.90945e-06 0.0883643)
(-1.75943e-07 -1.69843e-06 0.0926248)
(-1.23495e-06 2.45147e-05 0.0825307)
(3.8467e-07 3.78106e-05 0.0926124)
(-3.93901e-06 -7.15561e-06 0.082561)
(-3.44263e-06 1.20457e-05 0.0714406)
(4.73326e-06 -5.49629e-06 0.0714916)
(-1.70968e-06 -1.27766e-07 0.0926251)
(2.44832e-05 -1.17499e-06 0.0825308)
(3.78029e-05 4.3056e-07 0.0926124)