/*--------------------------------*- C++ -*----------------------------------*\
| =========                 |                                                 |
| \\      /  F ield         | OpenFOAM: The Open Source CFD Toolbox           |
|  \\    /   O peration     | Version:                                        |
|   \\  /    A nd           | Website:  www.openfoam.com                      |
|    \\/     M anipulation  |                                                 |
\*---------------------------------------------------------------------------*/
FoamFile
{
    version     2.0;
    format      ascii;
    class       volScalarField;
    location    "37500";
    object      p;
}
// * * * * * * * * * * * * * * * * * * * * * * * * * * * * * * * * * * * * * //

dimensions      [0 2 -2 0 0 0 0];


internalField   nonuniform List<scalar> 
172512
(
1.28232e-07
1.28201e-07
1.28201e-07
1.28156e-07
1.25134e-07
1.2505e-07
1.2505e-07
1.2518e-07
1.22965e-07
1.2294e-07
1.2294e-07
1.23048e-07
1.21137e-07
1.2113e-07
1.2113e-07
1.21225e-07
1.19482e-07
1.19481e-07
1.19481e-07
1.19571e-07
1.17929e-07
1.17932e-07
1.17932e-07
1.18016e-07
1.16445e-07
1.16448e-07
1.16448e-07
1.16529e-07
1.15008e-07
1.1501e-07
1.1501e-07
1.15089e-07
1.13604e-07
1.13605e-07
1.13605e-07
1.13684e-07
1.12225e-07
1.12226e-07
1.12226e-07
1.12303e-07
1.10865e-07
1.10866e-07
1.10866e-07
1.10942e-07
1.09522e-07
1.09522e-07
1.09522e-07
1.09598e-07
1.08193e-07
1.08193e-07
1.08193e-07
1.08268e-07
1.06874e-07
1.06874e-07
1.06874e-07
1.06948e-07
1.0556e-07
1.0556e-07
1.0556e-07
1.05635e-07
1.04249e-07
1.04248e-07
1.04248e-07
1.04323e-07
1.02937e-07
1.02937e-07
1.02937e-07
1.03011e-07
1.01625e-07
1.01625e-07
1.01625e-07
1.01699e-07
1.00314e-07
1.00314e-07
1.00314e-07
1.00388e-07
9.90023e-08
9.90021e-08
9.90021e-08
9.90762e-08
9.76907e-08
9.76904e-08
9.76904e-08
9.77646e-08
9.6379e-08
9.63788e-08
9.63788e-08
9.64529e-08
9.50674e-08
9.50672e-08
9.50672e-08
9.51413e-08
9.37558e-08
9.37555e-08
9.37555e-08
9.38297e-08
9.24442e-08
9.2444e-08
9.2444e-08
9.25181e-08
9.11326e-08
9.11324e-08
9.11324e-08
9.12065e-08
8.9821e-08
8.98208e-08
8.98208e-08
8.9895e-08
8.85094e-08
8.85092e-08
8.85092e-08
8.85834e-08
8.71978e-08
8.71976e-08
8.71976e-08
8.72718e-08
8.58862e-08
8.5886e-08
8.5886e-08
8.59602e-08
8.45746e-08
8.45744e-08
8.45744e-08
8.46486e-08
8.32631e-08
8.32628e-08
8.32628e-08
8.3337e-08
8.19515e-08
8.19513e-08
8.19513e-08
8.20254e-08
8.06399e-08
8.06397e-08
8.06397e-08
8.07139e-08
7.93284e-08
7.93281e-08
7.93281e-08
7.94023e-08
7.80168e-08
7.80166e-08
7.80166e-08
7.80907e-08
7.67052e-08
7.6705e-08
7.6705e-08
7.67792e-08
7.53937e-08
7.53934e-08
7.53934e-08
7.54676e-08
7.40821e-08
7.40819e-08
7.40819e-08
7.4156e-08
7.27705e-08
7.27703e-08
7.27703e-08
7.28445e-08
7.1459e-08
7.14588e-08
7.14588e-08
7.15329e-08
7.01474e-08
7.01472e-08
7.01472e-08
7.02214e-08
6.88359e-08
6.88356e-08
6.88356e-08
6.89098e-08
6.75243e-08
6.75241e-08
6.75241e-08
6.75982e-08
6.62127e-08
6.62125e-08
6.62125e-08
6.62867e-08
6.49012e-08
6.49009e-08
6.49009e-08
6.49751e-08
6.35896e-08
6.35894e-08
6.35894e-08
6.36635e-08
6.2278e-08
6.22778e-08
6.22778e-08
6.23519e-08
6.09664e-08
6.09662e-08
6.09662e-08
6.10404e-08
5.96549e-08
5.96546e-08
5.96546e-08
5.97288e-08
5.83433e-08
5.83431e-08
5.83431e-08
5.84172e-08
5.70317e-08
5.70315e-08
5.70315e-08
5.71057e-08
5.57202e-08
5.57199e-08
5.57199e-08
5.57941e-08
5.44086e-08
5.44084e-08
5.44084e-08
5.44825e-08
5.3097e-08
5.30968e-08
5.30968e-08
5.31709e-08
5.17854e-08
5.17852e-08
5.17852e-08
5.18593e-08
5.04738e-08
5.04736e-08
5.04736e-08
5.05477e-08
4.91622e-08
4.9162e-08
4.9162e-08
4.92362e-08
4.78507e-08
4.78504e-08
4.78504e-08
4.79246e-08
4.65391e-08
4.65389e-08
4.65389e-08
4.6613e-08
4.52275e-08
4.52273e-08
4.52273e-08
4.53015e-08
4.3916e-08
4.39157e-08
4.39157e-08
4.39899e-08
4.26044e-08
4.26041e-08
4.26041e-08
4.26783e-08
4.12928e-08
4.12925e-08
4.12925e-08
4.13667e-08
3.99811e-08
3.99809e-08
3.99809e-08
4.00551e-08
3.86695e-08
3.86693e-08
3.86693e-08
3.87434e-08
3.73579e-08
3.73577e-08
3.73577e-08
3.74318e-08
3.60463e-08
3.60461e-08
3.60461e-08
3.61203e-08
3.47348e-08
3.47345e-08
3.47345e-08
3.48087e-08
3.34232e-08
3.3423e-08
3.3423e-08
3.34972e-08
3.21117e-08
3.21115e-08
3.21115e-08
3.21856e-08
3.08001e-08
3.07999e-08
3.07999e-08
3.0874e-08
2.94885e-08
2.94882e-08
2.94882e-08
2.95624e-08
2.81768e-08
2.81766e-08
2.81766e-08
2.82508e-08
2.68652e-08
2.6865e-08
2.6865e-08
2.69391e-08
2.55536e-08
2.55534e-08
2.55534e-08
2.56276e-08
2.42421e-08
2.42418e-08
2.42418e-08
2.4316e-08
2.29305e-08
2.29303e-08
2.29303e-08
2.30045e-08
2.1619e-08
2.16188e-08
2.16188e-08
2.16929e-08
2.03074e-08
2.03072e-08
2.03072e-08
2.03813e-08
1.89958e-08
1.89956e-08
1.89956e-08
1.90698e-08
1.76842e-08
1.7684e-08
1.7684e-08
1.77582e-08
1.63726e-08
1.63724e-08
1.63724e-08
1.64466e-08
1.50611e-08
1.50608e-08
1.50608e-08
1.5135e-08
1.37495e-08
1.37493e-08
1.37493e-08
1.38234e-08
1.24379e-08
1.24377e-08
1.24377e-08
1.25118e-08
1.11264e-08
1.11261e-08
1.11261e-08
1.12003e-08
9.81479e-09
9.81457e-09
9.81457e-09
9.88872e-09
8.50322e-09
8.50299e-09
8.50299e-09
8.57714e-09
7.19164e-09
7.19142e-09
7.19142e-09
7.26555e-09
5.8801e-09
5.8799e-09
5.87989e-09
5.95398e-09
4.56863e-09
4.56846e-09
4.56846e-09
4.64239e-09
3.25749e-09
3.25716e-09
3.25716e-09
3.33074e-09
1.95257e-09
1.95048e-09
1.95045e-09
2.02332e-09
8.51887e-10
7.56612e-10
7.56584e-10
7.19649e-10
1.28635e-07
1.28658e-07
1.28658e-07
1.28635e-07
1.28658e-07
1.28658e-07
1.28664e-07
1.28664e-07
1.28664e-07
1.28664e-07
1.28658e-07
1.28658e-07
1.28635e-07
1.28658e-07
1.28658e-07
1.28635e-07
1.28156e-07
1.2552e-07
1.28201e-07
1.28201e-07
1.25665e-07
1.25665e-07
1.28156e-07
1.2552e-07
1.28201e-07
1.28201e-07
1.25665e-07
1.25665e-07
1.28201e-07
1.25665e-07
1.25665e-07
1.28156e-07
1.2552e-07
1.28201e-07
1.25665e-07
1.25665e-07
1.2552e-07
1.2518e-07
1.23319e-07
1.25051e-07
1.2505e-07
1.2343e-07
1.2343e-07
1.2518e-07
1.23319e-07
1.2505e-07
1.2505e-07
1.2343e-07
1.2343e-07
1.2505e-07
1.2343e-07
1.2343e-07
1.2518e-07
1.23319e-07
1.2505e-07
1.2343e-07
1.2343e-07
1.23319e-07
1.23048e-07
1.21461e-07
1.2294e-07
1.2294e-07
1.21564e-07
1.21564e-07
1.23048e-07
1.21461e-07
1.2294e-07
1.2294e-07
1.21564e-07
1.21564e-07
1.2294e-07
1.21564e-07
1.21564e-07
1.23048e-07
1.21461e-07
1.2294e-07
1.21564e-07
1.21564e-07
1.21461e-07
1.21225e-07
1.19789e-07
1.2113e-07
1.2113e-07
1.19882e-07
1.19882e-07
1.21225e-07
1.19789e-07
1.2113e-07
1.2113e-07
1.19882e-07
1.19882e-07
1.2113e-07
1.19882e-07
1.19882e-07
1.21225e-07
1.19789e-07
1.2113e-07
1.19882e-07
1.19882e-07
1.19789e-07
1.19571e-07
1.18223e-07
1.19481e-07
1.19481e-07
1.18312e-07
1.18312e-07
1.19571e-07
1.18223e-07
1.19481e-07
1.19481e-07
1.18312e-07
1.18312e-07
1.19481e-07
1.18312e-07
1.18312e-07
1.19571e-07
1.18223e-07
1.19481e-07
1.18312e-07
1.18312e-07
1.18223e-07
1.18016e-07
1.16729e-07
1.17932e-07
1.17932e-07
1.16814e-07
1.16814e-07
1.18016e-07
1.16729e-07
1.17932e-07
1.17932e-07
1.16813e-07
1.16814e-07
1.17932e-07
1.16814e-07
1.16814e-07
1.18016e-07
1.16729e-07
1.17932e-07
1.16814e-07
1.16814e-07
1.16729e-07
1.16529e-07
1.15284e-07
1.16448e-07
1.16448e-07
1.15366e-07
1.15366e-07
1.16529e-07
1.15284e-07
1.16448e-07
1.16448e-07
1.15366e-07
1.15366e-07
1.16448e-07
1.15366e-07
1.15366e-07
1.16529e-07
1.15284e-07
1.16448e-07
1.15366e-07
1.15366e-07
1.15284e-07
1.15089e-07
1.13874e-07
1.1501e-07
1.1501e-07
1.13954e-07
1.13954e-07
1.15089e-07
1.13874e-07
1.1501e-07
1.1501e-07
1.13954e-07
1.13954e-07
1.1501e-07
1.13954e-07
1.13954e-07
1.15089e-07
1.13874e-07
1.1501e-07
1.13954e-07
1.13954e-07
1.13874e-07
1.13684e-07
1.12491e-07
1.13605e-07
1.13605e-07
1.12569e-07
1.12569e-07
1.13684e-07
1.12491e-07
1.13605e-07
1.13605e-07
1.12569e-07
1.12569e-07
1.13605e-07
1.12569e-07
1.12569e-07
1.13684e-07
1.12491e-07
1.13605e-07
1.12569e-07
1.12569e-07
1.12491e-07
1.12303e-07
1.11128e-07
1.12226e-07
1.12226e-07
1.11205e-07
1.11205e-07
1.12303e-07
1.11128e-07
1.12226e-07
1.12226e-07
1.11205e-07
1.11205e-07
1.12226e-07
1.11205e-07
1.11205e-07
1.12303e-07
1.11128e-07
1.12226e-07
1.11205e-07
1.11205e-07
1.11128e-07
1.10942e-07
1.09781e-07
1.10866e-07
1.10866e-07
1.09857e-07
1.09857e-07
1.10942e-07
1.09781e-07
1.10866e-07
1.10866e-07
1.09857e-07
1.09857e-07
1.10866e-07
1.09857e-07
1.09857e-07
1.10942e-07
1.09781e-07
1.10866e-07
1.09857e-07
1.09857e-07
1.09781e-07
1.09598e-07
1.08449e-07
1.09522e-07
1.09522e-07
1.08524e-07
1.08524e-07
1.09598e-07
1.08449e-07
1.09522e-07
1.09522e-07
1.08524e-07
1.08524e-07
1.09522e-07
1.08524e-07
1.08524e-07
1.09598e-07
1.08449e-07
1.09522e-07
1.08524e-07
1.08524e-07
1.08449e-07
1.08268e-07
1.07129e-07
1.08193e-07
1.08193e-07
1.07203e-07
1.07203e-07
1.08268e-07
1.07129e-07
1.08193e-07
1.08193e-07
1.07203e-07
1.07203e-07
1.08193e-07
1.07203e-07
1.07203e-07
1.08268e-07
1.07129e-07
1.08193e-07
1.07203e-07
1.07203e-07
1.07129e-07
1.06948e-07
1.05814e-07
1.06874e-07
1.06874e-07
1.05889e-07
1.05889e-07
1.06948e-07
1.05814e-07
1.06874e-07
1.06874e-07
1.05889e-07
1.05889e-07
1.06874e-07
1.05889e-07
1.05889e-07
1.06948e-07
1.05814e-07
1.06874e-07
1.05889e-07
1.05889e-07
1.05814e-07
1.05635e-07
1.04502e-07
1.0556e-07
1.0556e-07
1.04576e-07
1.04576e-07
1.05635e-07
1.04502e-07
1.0556e-07
1.0556e-07
1.04576e-07
1.04576e-07
1.0556e-07
1.04576e-07
1.04576e-07
1.05635e-07
1.04502e-07
1.0556e-07
1.04576e-07
1.04576e-07
1.04502e-07
1.04323e-07
1.03191e-07
1.04248e-07
1.04248e-07
1.03265e-07
1.03265e-07
1.04323e-07
1.03191e-07
1.04248e-07
1.04248e-07
1.03265e-07
1.03265e-07
1.04248e-07
1.03265e-07
1.03265e-07
1.04323e-07
1.03191e-07
1.04248e-07
1.03265e-07
1.03265e-07
1.03191e-07
1.03011e-07
1.01879e-07
1.02937e-07
1.02937e-07
1.01953e-07
1.01953e-07
1.03011e-07
1.01879e-07
1.02937e-07
1.02937e-07
1.01953e-07
1.01953e-07
1.02937e-07
1.01953e-07
1.01953e-07
1.03011e-07
1.01879e-07
1.02937e-07
1.01953e-07
1.01953e-07
1.01879e-07
1.01699e-07
1.00568e-07
1.01625e-07
1.01625e-07
1.00642e-07
1.00642e-07
1.01699e-07
1.00568e-07
1.01625e-07
1.01625e-07
1.00642e-07
1.00642e-07
1.01625e-07
1.00642e-07
1.00642e-07
1.01699e-07
1.00568e-07
1.01625e-07
1.00642e-07
1.00642e-07
1.00568e-07
1.00388e-07
9.92559e-08
1.00314e-07
1.00314e-07
9.933e-08
9.933e-08
1.00388e-07
9.92559e-08
1.00314e-07
1.00314e-07
9.933e-08
9.933e-08
1.00314e-07
9.933e-08
9.933e-08
1.00388e-07
9.92559e-08
1.00314e-07
9.933e-08
9.933e-08
9.92559e-08
9.90762e-08
9.79443e-08
9.90021e-08
9.90021e-08
9.80183e-08
9.80183e-08
9.90762e-08
9.79443e-08
9.90021e-08
9.90021e-08
9.80183e-08
9.80183e-08
9.90021e-08
9.80183e-08
9.80184e-08
9.90762e-08
9.79443e-08
9.90021e-08
9.80184e-08
9.80184e-08
9.79443e-08
9.77646e-08
9.66326e-08
9.76904e-08
9.76904e-08
9.67067e-08
9.67067e-08
9.77646e-08
9.66326e-08
9.76904e-08
9.76904e-08
9.67067e-08
9.67067e-08
9.76904e-08
9.67067e-08
9.67067e-08
9.77646e-08
9.66326e-08
9.76904e-08
9.67067e-08
9.67067e-08
9.66326e-08
9.64529e-08
9.5321e-08
9.63788e-08
9.63788e-08
9.53951e-08
9.53951e-08
9.64529e-08
9.5321e-08
9.63788e-08
9.63788e-08
9.53951e-08
9.53951e-08
9.63788e-08
9.53951e-08
9.53951e-08
9.64529e-08
9.5321e-08
9.63788e-08
9.53951e-08
9.53951e-08
9.5321e-08
9.51413e-08
9.40094e-08
9.50671e-08
9.50671e-08
9.40834e-08
9.40834e-08
9.51413e-08
9.40094e-08
9.50671e-08
9.50672e-08
9.40834e-08
9.40834e-08
9.50672e-08
9.40834e-08
9.40834e-08
9.51413e-08
9.40094e-08
9.50672e-08
9.40834e-08
9.40834e-08
9.40094e-08
9.38297e-08
9.26978e-08
9.37555e-08
9.37555e-08
9.27719e-08
9.27719e-08
9.38297e-08
9.26978e-08
9.37555e-08
9.37555e-08
9.27719e-08
9.27719e-08
9.37555e-08
9.27719e-08
9.27719e-08
9.38297e-08
9.26978e-08
9.37555e-08
9.27719e-08
9.27719e-08
9.26978e-08
9.25181e-08
9.13862e-08
9.2444e-08
9.2444e-08
9.14603e-08
9.14603e-08
9.25181e-08
9.13862e-08
9.2444e-08
9.2444e-08
9.14603e-08
9.14603e-08
9.2444e-08
9.14603e-08
9.14603e-08
9.25181e-08
9.13862e-08
9.2444e-08
9.14603e-08
9.14603e-08
9.13862e-08
9.12065e-08
9.00746e-08
9.11324e-08
9.11324e-08
9.01487e-08
9.01487e-08
9.12065e-08
9.00746e-08
9.11324e-08
9.11324e-08
9.01487e-08
9.01487e-08
9.11324e-08
9.01487e-08
9.01487e-08
9.12065e-08
9.00746e-08
9.11324e-08
9.01487e-08
9.01487e-08
9.00746e-08
8.98949e-08
8.8763e-08
8.98208e-08
8.98208e-08
8.88371e-08
8.88371e-08
8.98949e-08
8.8763e-08
8.98208e-08
8.98208e-08
8.88371e-08
8.88371e-08
8.98208e-08
8.88371e-08
8.88371e-08
8.98949e-08
8.8763e-08
8.98208e-08
8.88371e-08
8.88371e-08
8.8763e-08
8.85833e-08
8.74514e-08
8.85092e-08
8.85092e-08
8.75255e-08
8.75255e-08
8.85833e-08
8.74514e-08
8.85092e-08
8.85092e-08
8.75255e-08
8.75255e-08
8.85092e-08
8.75255e-08
8.75255e-08
8.85833e-08
8.74514e-08
8.85092e-08
8.75255e-08
8.75255e-08
8.74514e-08
8.72717e-08
8.61398e-08
8.71976e-08
8.71976e-08
8.62139e-08
8.62139e-08
8.72717e-08
8.61398e-08
8.71976e-08
8.71976e-08
8.62139e-08
8.62139e-08
8.71976e-08
8.62139e-08
8.62139e-08
8.72717e-08
8.61398e-08
8.71976e-08
8.62139e-08
8.62139e-08
8.61398e-08
8.59601e-08
8.48283e-08
8.5886e-08
8.5886e-08
8.49023e-08
8.49023e-08
8.59601e-08
8.48283e-08
8.5886e-08
8.5886e-08
8.49023e-08
8.49023e-08
8.5886e-08
8.49023e-08
8.49023e-08
8.59602e-08
8.48283e-08
8.5886e-08
8.49023e-08
8.49023e-08
8.48282e-08
8.46486e-08
8.35167e-08
8.45744e-08
8.45744e-08
8.35907e-08
8.35907e-08
8.46486e-08
8.35167e-08
8.45744e-08
8.45744e-08
8.35907e-08
8.35907e-08
8.45744e-08
8.35907e-08
8.35907e-08
8.46486e-08
8.35167e-08
8.45744e-08
8.35907e-08
8.35907e-08
8.35167e-08
8.3337e-08
8.22051e-08
8.32628e-08
8.32628e-08
8.22792e-08
8.22792e-08
8.3337e-08
8.22051e-08
8.32628e-08
8.32628e-08
8.22792e-08
8.22792e-08
8.32628e-08
8.22792e-08
8.22792e-08
8.3337e-08
8.22051e-08
8.32628e-08
8.22792e-08
8.22792e-08
8.22051e-08
8.20254e-08
8.08935e-08
8.19513e-08
8.19513e-08
8.09676e-08
8.09676e-08
8.20254e-08
8.08935e-08
8.19513e-08
8.19513e-08
8.09676e-08
8.09676e-08
8.19513e-08
8.09676e-08
8.09676e-08
8.20254e-08
8.08935e-08
8.19513e-08
8.09676e-08
8.09676e-08
8.08935e-08
8.07138e-08
7.9582e-08
8.06397e-08
8.06397e-08
7.9656e-08
7.9656e-08
8.07139e-08
7.9582e-08
8.06397e-08
8.06397e-08
7.9656e-08
7.9656e-08
8.06397e-08
7.9656e-08
7.9656e-08
8.07139e-08
7.9582e-08
8.06397e-08
7.9656e-08
7.9656e-08
7.9582e-08
7.94023e-08
7.82704e-08
7.93281e-08
7.93281e-08
7.83445e-08
7.83445e-08
7.94023e-08
7.82704e-08
7.93281e-08
7.93281e-08
7.83445e-08
7.83445e-08
7.93281e-08
7.83445e-08
7.83445e-08
7.94023e-08
7.82704e-08
7.93281e-08
7.83445e-08
7.83445e-08
7.82704e-08
7.80907e-08
7.69588e-08
7.80166e-08
7.80166e-08
7.70329e-08
7.70329e-08
7.80907e-08
7.69588e-08
7.80166e-08
7.80166e-08
7.70329e-08
7.70329e-08
7.80166e-08
7.70329e-08
7.70329e-08
7.80907e-08
7.69588e-08
7.80166e-08
7.70329e-08
7.70329e-08
7.69588e-08
7.67791e-08
7.56473e-08
7.6705e-08
7.6705e-08
7.57213e-08
7.57213e-08
7.67792e-08
7.56473e-08
7.6705e-08
7.6705e-08
7.57213e-08
7.57213e-08
7.6705e-08
7.57213e-08
7.57213e-08
7.67792e-08
7.56473e-08
7.6705e-08
7.57213e-08
7.57213e-08
7.56473e-08
7.54676e-08
7.43357e-08
7.53934e-08
7.53934e-08
7.44098e-08
7.44098e-08
7.54676e-08
7.43357e-08
7.53934e-08
7.53934e-08
7.44098e-08
7.44098e-08
7.53934e-08
7.44098e-08
7.44098e-08
7.54676e-08
7.43357e-08
7.53934e-08
7.44098e-08
7.44098e-08
7.43357e-08
7.4156e-08
7.30242e-08
7.40819e-08
7.40819e-08
7.30982e-08
7.30982e-08
7.4156e-08
7.30241e-08
7.40819e-08
7.40819e-08
7.30982e-08
7.30982e-08
7.40819e-08
7.30982e-08
7.30982e-08
7.4156e-08
7.30241e-08
7.40819e-08
7.30982e-08
7.30982e-08
7.30241e-08
7.28445e-08
7.17126e-08
7.27703e-08
7.27703e-08
7.17866e-08
7.17866e-08
7.28445e-08
7.17126e-08
7.27703e-08
7.27703e-08
7.17866e-08
7.17867e-08
7.27703e-08
7.17866e-08
7.17867e-08
7.28445e-08
7.17126e-08
7.27703e-08
7.17867e-08
7.17867e-08
7.17126e-08
7.15329e-08
7.0401e-08
7.14588e-08
7.14588e-08
7.04751e-08
7.04751e-08
7.15329e-08
7.0401e-08
7.14588e-08
7.14588e-08
7.04751e-08
7.04751e-08
7.14588e-08
7.04751e-08
7.04751e-08
7.15329e-08
7.0401e-08
7.14588e-08
7.04751e-08
7.04751e-08
7.0401e-08
7.02213e-08
6.90895e-08
7.01472e-08
7.01472e-08
6.91635e-08
6.91635e-08
7.02213e-08
6.90895e-08
7.01472e-08
7.01472e-08
6.91635e-08
6.91635e-08
7.01472e-08
6.91635e-08
6.91635e-08
7.02213e-08
6.90895e-08
7.01472e-08
6.91635e-08
6.91635e-08
6.90895e-08
6.89098e-08
6.77779e-08
6.88356e-08
6.88356e-08
6.7852e-08
6.7852e-08
6.89098e-08
6.77779e-08
6.88356e-08
6.88356e-08
6.7852e-08
6.7852e-08
6.88356e-08
6.7852e-08
6.7852e-08
6.89098e-08
6.77779e-08
6.88356e-08
6.7852e-08
6.7852e-08
6.77779e-08
6.75982e-08
6.64663e-08
6.75241e-08
6.75241e-08
6.65404e-08
6.65404e-08
6.75982e-08
6.64663e-08
6.75241e-08
6.75241e-08
6.65404e-08
6.65404e-08
6.75241e-08
6.65404e-08
6.65404e-08
6.75982e-08
6.64663e-08
6.75241e-08
6.65404e-08
6.65404e-08
6.64663e-08
6.62867e-08
6.51548e-08
6.62125e-08
6.62125e-08
6.52288e-08
6.52288e-08
6.62867e-08
6.51548e-08
6.62125e-08
6.62125e-08
6.52288e-08
6.52288e-08
6.62125e-08
6.52288e-08
6.52288e-08
6.62867e-08
6.51548e-08
6.62125e-08
6.52288e-08
6.52288e-08
6.51548e-08
6.49751e-08
6.38432e-08
6.49009e-08
6.49009e-08
6.39173e-08
6.39173e-08
6.49751e-08
6.38432e-08
6.49009e-08
6.49009e-08
6.39173e-08
6.39173e-08
6.49009e-08
6.39173e-08
6.39173e-08
6.49751e-08
6.38432e-08
6.49009e-08
6.39173e-08
6.39173e-08
6.38432e-08
6.36635e-08
6.25316e-08
6.35894e-08
6.35894e-08
6.26057e-08
6.26057e-08
6.36635e-08
6.25316e-08
6.35894e-08
6.35894e-08
6.26057e-08
6.26057e-08
6.35894e-08
6.26057e-08
6.26057e-08
6.36635e-08
6.25316e-08
6.35894e-08
6.26057e-08
6.26057e-08
6.25316e-08
6.23519e-08
6.122e-08
6.22778e-08
6.22778e-08
6.12941e-08
6.12941e-08
6.23519e-08
6.122e-08
6.22778e-08
6.22778e-08
6.12941e-08
6.12941e-08
6.22778e-08
6.12941e-08
6.12941e-08
6.23519e-08
6.122e-08
6.22778e-08
6.12941e-08
6.12941e-08
6.122e-08
6.10404e-08
5.99085e-08
6.09662e-08
6.09662e-08
5.99825e-08
5.99825e-08
6.10404e-08
5.99085e-08
6.09662e-08
6.09662e-08
5.99825e-08
5.99825e-08
6.09662e-08
5.99825e-08
5.99825e-08
6.10404e-08
5.99085e-08
6.09662e-08
5.99825e-08
5.99825e-08
5.99085e-08
5.97288e-08
5.85969e-08
5.96546e-08
5.96546e-08
5.8671e-08
5.8671e-08
5.97288e-08
5.85969e-08
5.96546e-08
5.96546e-08
5.8671e-08
5.8671e-08
5.96546e-08
5.8671e-08
5.8671e-08
5.97288e-08
5.85969e-08
5.96546e-08
5.8671e-08
5.8671e-08
5.85969e-08
5.84172e-08
5.72853e-08
5.83431e-08
5.83431e-08
5.73594e-08
5.73594e-08
5.84172e-08
5.72853e-08
5.83431e-08
5.83431e-08
5.73594e-08
5.73594e-08
5.83431e-08
5.73594e-08
5.73594e-08
5.84172e-08
5.72853e-08
5.83431e-08
5.73594e-08
5.73594e-08
5.72853e-08
5.71056e-08
5.59738e-08
5.70315e-08
5.70315e-08
5.60478e-08
5.60478e-08
5.71056e-08
5.59738e-08
5.70315e-08
5.70315e-08
5.60478e-08
5.60478e-08
5.70315e-08
5.60478e-08
5.60478e-08
5.71057e-08
5.59738e-08
5.70315e-08
5.60478e-08
5.60478e-08
5.59737e-08
5.57941e-08
5.46622e-08
5.57199e-08
5.57199e-08
5.47362e-08
5.47362e-08
5.57941e-08
5.46622e-08
5.57199e-08
5.57199e-08
5.47362e-08
5.47362e-08
5.57199e-08
5.47362e-08
5.47362e-08
5.57941e-08
5.46622e-08
5.57199e-08
5.47362e-08
5.47362e-08
5.46622e-08
5.44825e-08
5.33506e-08
5.44084e-08
5.44084e-08
5.34247e-08
5.34247e-08
5.44825e-08
5.33506e-08
5.44084e-08
5.44084e-08
5.34247e-08
5.34247e-08
5.44084e-08
5.34247e-08
5.34247e-08
5.44825e-08
5.33506e-08
5.44084e-08
5.34247e-08
5.34247e-08
5.33506e-08
5.31709e-08
5.2039e-08
5.30968e-08
5.30968e-08
5.21131e-08
5.21131e-08
5.31709e-08
5.2039e-08
5.30968e-08
5.30968e-08
5.21131e-08
5.21131e-08
5.30968e-08
5.21131e-08
5.21131e-08
5.31709e-08
5.2039e-08
5.30968e-08
5.21131e-08
5.21131e-08
5.2039e-08
5.18593e-08
5.07274e-08
5.17852e-08
5.17852e-08
5.08015e-08
5.08015e-08
5.18593e-08
5.07274e-08
5.17852e-08
5.17852e-08
5.08015e-08
5.08015e-08
5.17852e-08
5.08015e-08
5.08015e-08
5.18593e-08
5.07274e-08
5.17852e-08
5.08015e-08
5.08015e-08
5.07274e-08
5.05477e-08
4.94158e-08
5.04736e-08
5.04736e-08
4.94899e-08
4.94899e-08
5.05477e-08
4.94158e-08
5.04736e-08
5.04736e-08
4.94899e-08
4.94899e-08
5.04736e-08
4.94899e-08
4.94899e-08
5.05477e-08
4.94158e-08
5.04736e-08
4.94899e-08
4.94899e-08
4.94158e-08
4.92361e-08
4.81043e-08
4.9162e-08
4.9162e-08
4.81783e-08
4.81783e-08
4.92361e-08
4.81043e-08
4.9162e-08
4.9162e-08
4.81783e-08
4.81783e-08
4.9162e-08
4.81783e-08
4.81783e-08
4.92362e-08
4.81043e-08
4.9162e-08
4.81783e-08
4.81783e-08
4.81043e-08
4.79246e-08
4.67927e-08
4.78504e-08
4.78504e-08
4.68668e-08
4.68668e-08
4.79246e-08
4.67927e-08
4.78504e-08
4.78504e-08
4.68668e-08
4.68668e-08
4.78504e-08
4.68668e-08
4.68668e-08
4.79246e-08
4.67927e-08
4.78504e-08
4.68668e-08
4.68668e-08
4.67927e-08
4.6613e-08
4.54811e-08
4.65389e-08
4.65389e-08
4.55552e-08
4.55552e-08
4.6613e-08
4.54811e-08
4.65389e-08
4.65389e-08
4.55552e-08
4.55552e-08
4.65389e-08
4.55552e-08
4.55552e-08
4.6613e-08
4.54811e-08
4.65389e-08
4.55552e-08
4.55552e-08
4.54811e-08
4.53014e-08
4.41696e-08
4.52273e-08
4.52273e-08
4.42436e-08
4.42436e-08
4.53014e-08
4.41696e-08
4.52273e-08
4.52273e-08
4.42436e-08
4.42436e-08
4.52273e-08
4.42436e-08
4.42436e-08
4.53015e-08
4.41696e-08
4.52273e-08
4.42436e-08
4.42436e-08
4.41695e-08
4.39899e-08
4.2858e-08
4.39157e-08
4.39157e-08
4.2932e-08
4.2932e-08
4.39899e-08
4.2858e-08
4.39157e-08
4.39157e-08
4.2932e-08
4.2932e-08
4.39157e-08
4.2932e-08
4.2932e-08
4.39899e-08
4.2858e-08
4.39157e-08
4.2932e-08
4.2932e-08
4.2858e-08
4.26783e-08
4.15464e-08
4.26041e-08
4.26041e-08
4.16204e-08
4.16204e-08
4.26783e-08
4.15464e-08
4.26041e-08
4.26041e-08
4.16204e-08
4.16204e-08
4.26041e-08
4.16204e-08
4.16204e-08
4.26783e-08
4.15464e-08
4.26041e-08
4.16204e-08
4.16204e-08
4.15464e-08
4.13667e-08
4.02347e-08
4.12925e-08
4.12925e-08
4.03088e-08
4.03088e-08
4.13667e-08
4.02348e-08
4.12925e-08
4.12925e-08
4.03088e-08
4.03088e-08
4.12925e-08
4.03088e-08
4.03088e-08
4.13667e-08
4.02347e-08
4.12925e-08
4.03088e-08
4.03088e-08
4.02347e-08
4.00551e-08
3.89231e-08
3.99809e-08
3.99809e-08
3.89972e-08
3.89972e-08
4.00551e-08
3.89231e-08
3.99809e-08
3.99809e-08
3.89972e-08
3.89972e-08
3.99809e-08
3.89972e-08
3.89972e-08
4.00551e-08
3.89231e-08
3.99809e-08
3.89972e-08
3.89972e-08
3.89231e-08
3.87434e-08
3.76115e-08
3.86693e-08
3.86693e-08
3.76856e-08
3.76856e-08
3.87434e-08
3.76115e-08
3.86693e-08
3.86693e-08
3.76856e-08
3.76856e-08
3.86693e-08
3.76856e-08
3.76856e-08
3.87434e-08
3.76115e-08
3.86693e-08
3.76856e-08
3.76856e-08
3.76115e-08
3.74318e-08
3.62999e-08
3.73577e-08
3.73577e-08
3.6374e-08
3.6374e-08
3.74318e-08
3.62999e-08
3.73577e-08
3.73577e-08
3.6374e-08
3.6374e-08
3.73577e-08
3.6374e-08
3.6374e-08
3.74318e-08
3.62999e-08
3.73577e-08
3.6374e-08
3.6374e-08
3.62999e-08
3.61202e-08
3.49884e-08
3.60461e-08
3.60461e-08
3.50624e-08
3.50624e-08
3.61202e-08
3.49884e-08
3.60461e-08
3.60461e-08
3.50624e-08
3.50624e-08
3.60461e-08
3.50624e-08
3.50624e-08
3.61202e-08
3.49884e-08
3.60461e-08
3.50624e-08
3.50624e-08
3.49884e-08
3.48087e-08
3.36768e-08
3.47345e-08
3.47345e-08
3.37509e-08
3.37509e-08
3.48087e-08
3.36768e-08
3.47345e-08
3.47345e-08
3.37509e-08
3.37509e-08
3.47345e-08
3.37509e-08
3.37509e-08
3.48087e-08
3.36768e-08
3.47345e-08
3.37509e-08
3.37509e-08
3.36768e-08
3.34971e-08
3.23653e-08
3.3423e-08
3.3423e-08
3.24393e-08
3.24393e-08
3.34971e-08
3.23653e-08
3.3423e-08
3.3423e-08
3.24393e-08
3.24393e-08
3.3423e-08
3.24393e-08
3.24393e-08
3.34971e-08
3.23653e-08
3.3423e-08
3.24393e-08
3.24393e-08
3.23653e-08
3.21856e-08
3.10537e-08
3.21115e-08
3.21115e-08
3.11278e-08
3.11278e-08
3.21856e-08
3.10537e-08
3.21114e-08
3.21115e-08
3.11278e-08
3.11278e-08
3.21115e-08
3.11278e-08
3.11278e-08
3.21856e-08
3.10537e-08
3.21115e-08
3.11278e-08
3.11278e-08
3.10537e-08
3.0874e-08
2.97421e-08
3.07999e-08
3.07999e-08
2.98162e-08
2.98162e-08
3.0874e-08
2.97421e-08
3.07999e-08
3.07999e-08
2.98162e-08
2.98162e-08
3.07999e-08
2.98162e-08
2.98162e-08
3.0874e-08
2.97421e-08
3.07999e-08
2.98162e-08
2.98162e-08
2.97421e-08
2.95624e-08
2.84305e-08
2.94882e-08
2.94882e-08
2.85045e-08
2.85045e-08
2.95624e-08
2.84305e-08
2.94882e-08
2.94882e-08
2.85045e-08
2.85045e-08
2.94882e-08
2.85045e-08
2.85045e-08
2.95624e-08
2.84304e-08
2.94882e-08
2.85045e-08
2.85045e-08
2.84304e-08
2.82508e-08
2.71188e-08
2.81766e-08
2.81766e-08
2.71929e-08
2.71929e-08
2.82508e-08
2.71188e-08
2.81766e-08
2.81766e-08
2.71929e-08
2.71929e-08
2.81766e-08
2.71929e-08
2.71929e-08
2.82508e-08
2.71188e-08
2.81766e-08
2.71929e-08
2.71929e-08
2.71188e-08
2.69391e-08
2.58072e-08
2.6865e-08
2.6865e-08
2.58813e-08
2.58813e-08
2.69391e-08
2.58072e-08
2.6865e-08
2.6865e-08
2.58813e-08
2.58813e-08
2.6865e-08
2.58813e-08
2.58813e-08
2.69391e-08
2.58072e-08
2.6865e-08
2.58813e-08
2.58813e-08
2.58072e-08
2.56275e-08
2.44957e-08
2.55534e-08
2.55534e-08
2.45697e-08
2.45697e-08
2.56275e-08
2.44957e-08
2.55534e-08
2.55534e-08
2.45697e-08
2.45697e-08
2.55534e-08
2.45697e-08
2.45697e-08
2.56276e-08
2.44957e-08
2.55534e-08
2.45697e-08
2.45697e-08
2.44957e-08
2.4316e-08
2.31841e-08
2.42418e-08
2.42418e-08
2.32582e-08
2.32582e-08
2.4316e-08
2.31841e-08
2.42418e-08
2.42418e-08
2.32582e-08
2.32582e-08
2.42418e-08
2.32582e-08
2.32582e-08
2.4316e-08
2.31841e-08
2.42418e-08
2.32582e-08
2.32582e-08
2.31841e-08
2.30044e-08
2.18726e-08
2.29303e-08
2.29303e-08
2.19466e-08
2.19466e-08
2.30044e-08
2.18726e-08
2.29303e-08
2.29303e-08
2.19466e-08
2.19466e-08
2.29303e-08
2.19466e-08
2.19466e-08
2.30044e-08
2.18726e-08
2.29303e-08
2.19466e-08
2.19466e-08
2.18726e-08
2.16929e-08
2.0561e-08
2.16188e-08
2.16188e-08
2.06351e-08
2.06351e-08
2.16929e-08
2.0561e-08
2.16188e-08
2.16188e-08
2.06351e-08
2.06351e-08
2.16188e-08
2.06351e-08
2.06351e-08
2.16929e-08
2.0561e-08
2.16188e-08
2.06351e-08
2.06351e-08
2.0561e-08
2.03813e-08
1.92494e-08
2.03072e-08
2.03072e-08
1.93235e-08
1.93235e-08
2.03813e-08
1.92494e-08
2.03072e-08
2.03072e-08
1.93235e-08
1.93235e-08
2.03072e-08
1.93235e-08
1.93235e-08
2.03813e-08
1.92494e-08
2.03072e-08
1.93235e-08
1.93235e-08
1.92494e-08
1.90698e-08
1.79378e-08
1.89956e-08
1.89956e-08
1.80119e-08
1.80119e-08
1.90698e-08
1.79378e-08
1.89956e-08
1.89956e-08
1.80119e-08
1.80119e-08
1.89956e-08
1.80119e-08
1.80119e-08
1.90698e-08
1.79378e-08
1.89956e-08
1.80119e-08
1.80119e-08
1.79378e-08
1.77582e-08
1.66262e-08
1.7684e-08
1.7684e-08
1.67003e-08
1.67003e-08
1.77582e-08
1.66263e-08
1.7684e-08
1.7684e-08
1.67003e-08
1.67003e-08
1.7684e-08
1.67003e-08
1.67003e-08
1.77582e-08
1.66262e-08
1.7684e-08
1.67003e-08
1.67003e-08
1.66262e-08
1.64466e-08
1.53147e-08
1.63724e-08
1.63724e-08
1.53887e-08
1.53887e-08
1.64466e-08
1.53147e-08
1.63724e-08
1.63724e-08
1.53887e-08
1.53887e-08
1.63724e-08
1.53887e-08
1.53887e-08
1.64466e-08
1.53147e-08
1.63724e-08
1.53887e-08
1.53887e-08
1.53146e-08
1.5135e-08
1.40031e-08
1.50608e-08
1.50608e-08
1.40771e-08
1.40771e-08
1.5135e-08
1.40031e-08
1.50608e-08
1.50608e-08
1.40771e-08
1.40771e-08
1.50608e-08
1.40771e-08
1.40771e-08
1.5135e-08
1.40031e-08
1.50608e-08
1.40771e-08
1.40771e-08
1.40031e-08
1.38234e-08
1.26915e-08
1.37493e-08
1.37493e-08
1.27656e-08
1.27656e-08
1.38234e-08
1.26915e-08
1.37493e-08
1.37493e-08
1.27656e-08
1.27656e-08
1.37493e-08
1.27656e-08
1.27656e-08
1.38234e-08
1.26915e-08
1.37493e-08
1.27656e-08
1.27656e-08
1.26915e-08
1.25118e-08
1.138e-08
1.24377e-08
1.24377e-08
1.1454e-08
1.1454e-08
1.25118e-08
1.138e-08
1.24377e-08
1.24377e-08
1.1454e-08
1.1454e-08
1.24377e-08
1.1454e-08
1.1454e-08
1.25118e-08
1.138e-08
1.24377e-08
1.1454e-08
1.1454e-08
1.13799e-08
1.12003e-08
1.00684e-08
1.11261e-08
1.11261e-08
1.01425e-08
1.01425e-08
1.12003e-08
1.00684e-08
1.11261e-08
1.11261e-08
1.01425e-08
1.01425e-08
1.11261e-08
1.01425e-08
1.01425e-08
1.12003e-08
1.00684e-08
1.11261e-08
1.01425e-08
1.01425e-08
1.00684e-08
9.88871e-09
8.75681e-09
9.81457e-09
9.81457e-09
8.83088e-09
8.83088e-09
9.8887e-09
8.75681e-09
9.81457e-09
9.81457e-09
8.83088e-09
8.83088e-09
9.81457e-09
8.83088e-09
8.83088e-09
9.88871e-09
8.75681e-09
9.81457e-09
8.83088e-09
8.83088e-09
8.7568e-09
8.57713e-09
7.44522e-09
8.50299e-09
8.50299e-09
7.51929e-09
7.51929e-09
8.57712e-09
7.44523e-09
8.50299e-09
8.50299e-09
7.51929e-09
7.51929e-09
8.50299e-09
7.51929e-09
7.51929e-09
8.57713e-09
7.44522e-09
8.50299e-09
7.51929e-09
7.51929e-09
7.44521e-09
7.26554e-09
6.13364e-09
7.19142e-09
7.19142e-09
6.20771e-09
6.20771e-09
7.26554e-09
6.13364e-09
7.19142e-09
7.19142e-09
6.20771e-09
6.20771e-09
7.19142e-09
6.20771e-09
6.20771e-09
7.26554e-09
6.13363e-09
7.19142e-09
6.20771e-09
6.20771e-09
6.13362e-09
5.95396e-09
4.82203e-09
5.8799e-09
5.87989e-09
4.89612e-09
4.89612e-09
5.95396e-09
4.82203e-09
5.87989e-09
5.87989e-09
4.89612e-09
4.89612e-09
5.87989e-09
4.89612e-09
4.89612e-09
5.95397e-09
4.82203e-09
5.87989e-09
4.89612e-09
4.89612e-09
4.82202e-09
4.64238e-09
3.51028e-09
4.56846e-09
4.56846e-09
3.5844e-09
3.5844e-09
4.64237e-09
3.51026e-09
4.56846e-09
4.56845e-09
3.5844e-09
3.58439e-09
4.56846e-09
3.58439e-09
3.58439e-09
4.64238e-09
3.51026e-09
4.56846e-09
3.5844e-09
3.58439e-09
3.51025e-09
3.33074e-09
2.19946e-09
3.25717e-09
3.25717e-09
2.27299e-09
2.27299e-09
3.33073e-09
2.19945e-09
3.25717e-09
3.25716e-09
2.27301e-09
2.27298e-09
3.25716e-09
2.273e-09
2.27297e-09
3.33074e-09
2.19943e-09
3.25716e-09
2.27298e-09
2.27298e-09
2.19941e-09
2.02335e-09
8.14896e-10
1.95044e-09
1.95043e-09
8.87326e-10
8.8728e-10
2.02332e-09
8.14909e-10
1.95049e-09
1.95043e-09
8.87405e-10
8.87281e-10
1.95042e-09
8.87415e-10
8.87336e-10
2.02332e-09
8.1492e-10
1.95045e-09
8.8737e-10
8.87319e-10
8.14924e-10
7.19652e-10
7.56517e-10
7.56479e-10
7.19648e-10
7.5661e-10
7.56484e-10
8.5187e-10
8.51866e-10
8.51854e-10
7.56538e-10
7.19634e-10
7.56511e-10
1.29365e-07
1.29983e-07
1.2965e-07
1.2965e-07
1.31387e-07
1.30245e-07
1.3277e-07
1.29873e-07
1.31387e-07
1.30245e-07
1.29873e-07
1.3277e-07
1.30541e-07
1.33205e-07
1.33205e-07
1.26722e-07
1.27978e-07
1.27994e-07
1.26684e-07
1.27917e-07
1.26668e-07
1.26722e-07
1.27978e-07
1.27994e-07
1.26684e-07
1.28232e-07
1.28232e-07
1.28232e-07
1.25769e-07
1.25769e-07
1.25769e-07
1.25769e-07
1.26784e-07
1.28032e-07
1.28243e-07
1.27066e-07
1.28068e-07
1.26735e-07
1.27119e-07
1.27917e-07
1.26668e-07
1.26784e-07
1.28243e-07
1.28032e-07
1.27066e-07
1.28068e-07
1.27119e-07
1.26735e-07
1.2805e-07
1.2805e-07
1.269e-07
1.26718e-07
1.26718e-07
1.24297e-07
1.25102e-07
1.25122e-07
1.24283e-07
1.25096e-07
1.24278e-07
1.24297e-07
1.25102e-07
1.25122e-07
1.24283e-07
1.25134e-07
1.25134e-07
1.25134e-07
1.23464e-07
1.23464e-07
1.23464e-07