/*--------------------------------*- C++ -*----------------------------------*\
| =========                 |                                                 |
| \\      /  F ield         | OpenFOAM: The Open Source CFD Toolbox           |
|  \\    /   O peration     | Version:                                        |
|   \\  /    A nd           | Website:  www.openfoam.com                      |
|    \\/     M anipulation  |                                                 |
\*---------------------------------------------------------------------------*/
FoamFile
{
    version     2.0;
    format      ascii;
    class       volScalarField;
    location    "29100.5";
    object      p;
}
// * * * * * * * * * * * * * * * * * * * * * * * * * * * * * * * * * * * * * //

dimensions      [0 2 -2 0 0 0 0];


internalField   nonuniform List<scalar> 
247096
(
1.10278e-07
1.10281e-07
1.10424e-07
1.10511e-07
1.10544e-07
1.10502e-07
1.10411e-07
1.10257e-07
1.10281e-07
1.10479e-07
1.10656e-07
1.10749e-07
1.10772e-07
1.10742e-07
1.10638e-07
1.10455e-07
1.10424e-07
1.10656e-07
1.10797e-07
1.10838e-07
1.10845e-07
1.10836e-07
1.10786e-07
1.10629e-07
1.10397e-07
1.10511e-07
1.10749e-07
1.10838e-07
1.1085e-07
1.10849e-07
1.1085e-07
1.10834e-07
1.10727e-07
1.10478e-07
1.10278e-07
1.10543e-07
1.10772e-07
1.10845e-07
1.10849e-07
1.10845e-07
1.10849e-07
1.10842e-07
1.10753e-07
1.10509e-07
1.10502e-07
1.10742e-07
1.10836e-07
1.1085e-07
1.10849e-07
1.1085e-07
1.10831e-07
1.10719e-07
1.10469e-07
1.10411e-07
1.10638e-07
1.10786e-07
1.10834e-07
1.10842e-07
1.10831e-07
1.10775e-07
1.1061e-07
1.10385e-07
1.10257e-07
1.10455e-07
1.10629e-07
1.10727e-07
1.10753e-07
1.10719e-07
1.1061e-07
1.10433e-07
1.10397e-07
1.10478e-07
1.10509e-07
1.10469e-07
1.10385e-07
1.07465e-07
1.0744e-07
1.07449e-07
1.073e-07
1.07312e-07
1.07331e-07
1.07311e-07
1.07498e-07
1.07436e-07
1.07449e-07
1.0732e-07
1.07116e-07
1.07134e-07
1.07134e-07
1.07116e-07
1.07378e-07
1.07324e-07
1.073e-07
1.07117e-07
1.07154e-07
1.07175e-07
1.07175e-07
1.07154e-07
1.07117e-07
1.07441e-07
1.07487e-07
1.07465e-07
1.07313e-07
1.07134e-07
1.07175e-07
1.07198e-07
1.07198e-07
1.07175e-07
1.07134e-07
1.07469e-07
1.07505e-07
1.0744e-07
1.07331e-07
1.07134e-07
1.07175e-07
1.07198e-07
1.07198e-07
1.07175e-07
1.07134e-07
1.07471e-07
1.07328e-07
1.07312e-07
1.07116e-07
1.07154e-07
1.07175e-07
1.07175e-07
1.07154e-07
1.07116e-07
1.07465e-07
1.07514e-07
1.07498e-07
1.07378e-07
1.07117e-07
1.07134e-07
1.07134e-07
1.07117e-07
1.07459e-07
1.07382e-07
1.07497e-07
1.07436e-07
1.07324e-07
1.07441e-07
1.07469e-07
1.07471e-07
1.07465e-07
1.07383e-07
1.07507e-07
1.07487e-07
1.07505e-07
1.07328e-07
1.07514e-07
1.07497e-07
1.05689e-07
1.0568e-07
1.05688e-07
1.05558e-07
1.05558e-07
1.05568e-07
1.0556e-07
1.05723e-07
1.0568e-07
1.05688e-07
1.05553e-07
1.0532e-07
1.05328e-07
1.05328e-07
1.0532e-07
1.05576e-07
1.0557e-07
1.05558e-07
1.0532e-07
1.05339e-07
1.05351e-07
1.05351e-07
1.05339e-07
1.0532e-07
1.05621e-07
1.05713e-07
1.05689e-07
1.05558e-07
1.05328e-07
1.05351e-07
1.05364e-07
1.05364e-07
1.05351e-07
1.05328e-07
1.05625e-07
1.0571e-07
1.0568e-07
1.05568e-07
1.05328e-07
1.05351e-07
1.05364e-07
1.05364e-07
1.05351e-07
1.05328e-07
1.05624e-07
1.05577e-07
1.0556e-07
1.0532e-07
1.05339e-07
1.05351e-07
1.05351e-07
1.05339e-07
1.0532e-07
1.05628e-07
1.05718e-07
1.05723e-07
1.05576e-07
1.0532e-07
1.05328e-07
1.05328e-07
1.0532e-07
1.05609e-07
1.05599e-07
1.05723e-07
1.0568e-07
1.0557e-07
1.05621e-07
1.05625e-07
1.05624e-07
1.05628e-07
1.05599e-07
1.05726e-07
1.05713e-07
1.0571e-07
1.05577e-07
1.05718e-07
1.05723e-07
1.04089e-07
1.0408e-07
1.04089e-07
1.03965e-07
1.03964e-07
1.03972e-07
1.03966e-07
1.04119e-07
1.04082e-07
1.04089e-07
1.03961e-07
1.03753e-07
1.03758e-07
1.03758e-07
1.03753e-07
1.03985e-07
1.03979e-07
1.03965e-07
1.03753e-07
1.03764e-07
1.0377e-07
1.0377e-07
1.03764e-07
1.03753e-07
1.04026e-07
1.04112e-07
1.04089e-07
1.03964e-07
1.03758e-07
1.0377e-07
1.03777e-07
1.03777e-07
1.0377e-07
1.03758e-07
1.0403e-07
1.0411e-07
1.0408e-07
1.03972e-07
1.03758e-07
1.0377e-07
1.03777e-07
1.03777e-07
1.0377e-07
1.03758e-07
1.04029e-07
1.03984e-07
1.03966e-07
1.03753e-07
1.03764e-07
1.0377e-07
1.0377e-07
1.03764e-07
1.03753e-07
1.04032e-07
1.04117e-07
1.04119e-07
1.03985e-07
1.03753e-07
1.03758e-07
1.03758e-07
1.03753e-07
1.04014e-07
1.04005e-07
1.0412e-07
1.04082e-07
1.03979e-07
1.04026e-07
1.0403e-07
1.04029e-07
1.04032e-07
1.04005e-07
1.04124e-07
1.04112e-07
1.0411e-07
1.03984e-07
1.04117e-07
1.0412e-07
1.02622e-07
1.02613e-07
1.02621e-07
1.02504e-07
1.02502e-07
1.02509e-07
1.02504e-07
1.02649e-07
1.02616e-07
1.02621e-07
1.02499e-07
1.02306e-07
1.0231e-07
1.0231e-07
1.02306e-07
1.02522e-07
1.02518e-07
1.02504e-07
1.02306e-07
1.02314e-07
1.02317e-07
1.02317e-07
1.02314e-07
1.02306e-07
1.02561e-07
1.02644e-07
1.02622e-07
1.02502e-07
1.0231e-07
1.02317e-07
1.02322e-07
1.02322e-07
1.02317e-07
1.0231e-07
1.02563e-07
1.02643e-07
1.02613e-07
1.02509e-07
1.0231e-07
1.02317e-07
1.02322e-07
1.02322e-07
1.02317e-07
1.0231e-07
1.02562e-07
1.02522e-07
1.02504e-07
1.02306e-07
1.02314e-07
1.02317e-07
1.02317e-07
1.02314e-07
1.02306e-07
1.02565e-07
1.02648e-07
1.02649e-07
1.02522e-07
1.02306e-07
1.0231e-07
1.0231e-07
1.02306e-07
1.02549e-07
1.02542e-07
1.02651e-07
1.02616e-07
1.02518e-07
1.02561e-07
1.02563e-07
1.02562e-07
1.02565e-07
1.02542e-07
1.02655e-07
1.02644e-07
1.02643e-07
1.02522e-07
1.02648e-07
1.02651e-07
1.01251e-07
1.01242e-07
1.0125e-07
1.01137e-07
1.01134e-07
1.01141e-07
1.01137e-07
1.01275e-07
1.01245e-07
1.0125e-07
1.01132e-07
1.00951e-07
1.00953e-07
1.00953e-07
1.00951e-07
1.01154e-07
1.01151e-07
1.01137e-07
1.00951e-07
1.00956e-07
1.00958e-07
1.00958e-07
1.00956e-07
1.00951e-07
1.01192e-07
1.01273e-07
1.01251e-07
1.01134e-07
1.00953e-07
1.00958e-07
1.00961e-07
1.00961e-07
1.00958e-07
1.00953e-07
1.01193e-07
1.01271e-07
1.01242e-07
1.01141e-07
1.00953e-07
1.00958e-07
1.00961e-07
1.00961e-07
1.00958e-07
1.00953e-07
1.01191e-07
1.01156e-07
1.01137e-07
1.00951e-07
1.00956e-07
1.00958e-07
1.00958e-07
1.00956e-07
1.00951e-07
1.01195e-07
1.01276e-07
1.01275e-07
1.01154e-07
1.00951e-07
1.00953e-07
1.00953e-07
1.00951e-07
1.01179e-07
1.01174e-07
1.01278e-07
1.01245e-07
1.01151e-07
1.01192e-07
1.01193e-07
1.01191e-07
1.01195e-07
1.01174e-07
1.01283e-07
1.01273e-07
1.01271e-07
1.01156e-07
1.01276e-07
1.01278e-07
9.99588e-08
9.99504e-08
9.99579e-08
9.98489e-08
9.98457e-08
9.98508e-08
9.98476e-08
9.99817e-08
9.99538e-08
9.99579e-08
9.98433e-08
9.96725e-08
9.9674e-08
9.9674e-08
9.96725e-08
9.98652e-08
9.98631e-08
9.98489e-08
9.96725e-08
9.96763e-08
9.96775e-08
9.96775e-08
9.96763e-08
9.96725e-08
9.99018e-08
9.99806e-08
9.99588e-08
9.98457e-08
9.9674e-08
9.96775e-08
9.96793e-08
9.96793e-08
9.96775e-08
9.9674e-08
9.99024e-08
9.99786e-08
9.99504e-08
9.98508e-08
9.9674e-08
9.96775e-08
9.96793e-08
9.96793e-08
9.96775e-08
9.9674e-08
9.99006e-08
9.98671e-08
9.98476e-08
9.96725e-08
9.96763e-08
9.96775e-08
9.96775e-08
9.96763e-08
9.96725e-08
9.99036e-08
9.99834e-08
9.99817e-08
9.98652e-08
9.96725e-08
9.9674e-08
9.9674e-08
9.96725e-08
9.98885e-08
9.98838e-08
9.99844e-08
9.99538e-08
9.98631e-08
9.99018e-08
9.99024e-08
9.99006e-08
9.99036e-08
9.98838e-08
9.999e-08
9.99806e-08
9.99786e-08
9.98671e-08
9.99834e-08
9.99844e-08
9.87322e-08
9.87238e-08
9.8731e-08
9.8625e-08
9.86214e-08
9.86259e-08
9.86232e-08
9.87538e-08
9.87277e-08
9.8731e-08
9.8619e-08
9.84569e-08
9.84579e-08
9.84579e-08
9.84569e-08
9.86408e-08
9.86393e-08
9.8625e-08
9.84569e-08
9.84601e-08
9.84605e-08
9.84605e-08
9.84601e-08
9.84569e-08
9.86773e-08
9.87536e-08
9.87322e-08
9.86214e-08
9.84579e-08
9.84605e-08
9.84615e-08
9.84615e-08
9.84605e-08
9.84579e-08
9.86774e-08
9.87516e-08
9.87237e-08
9.86259e-08
9.84579e-08
9.84605e-08
9.84615e-08
9.84615e-08
9.84605e-08
9.84579e-08
9.86756e-08
9.86431e-08
9.86232e-08
9.84569e-08
9.846e-08
9.84605e-08
9.84605e-08
9.846e-08
9.84569e-08
9.86782e-08
9.87561e-08
9.87538e-08
9.86408e-08
9.84569e-08
9.84579e-08
9.84579e-08
9.84569e-08
9.86638e-08
9.8659e-08
9.87567e-08
9.87276e-08
9.86392e-08
9.86773e-08
9.86774e-08
9.86756e-08
9.86782e-08
9.8659e-08
9.87628e-08
9.87536e-08
9.87516e-08
9.8643e-08
9.87561e-08
9.87567e-08
9.75527e-08
9.75442e-08
9.75515e-08
9.74475e-08
9.74435e-08
9.74476e-08
9.74452e-08
9.75734e-08
9.75485e-08
9.75515e-08
9.74412e-08
9.7285e-08
9.72858e-08
9.72858e-08
9.7285e-08
9.74632e-08
9.74618e-08
9.74474e-08
9.7285e-08
9.72879e-08
9.72877e-08
9.72877e-08
9.72879e-08
9.7285e-08
9.74998e-08
9.7574e-08
9.75527e-08
9.74435e-08
9.72858e-08
9.72876e-08
9.7288e-08
9.7288e-08
9.72876e-08
9.72858e-08
9.74995e-08
9.7572e-08
9.75442e-08
9.74476e-08
9.72858e-08
9.72876e-08
9.7288e-08
9.7288e-08
9.72876e-08
9.72858e-08
9.74976e-08
9.74653e-08
9.74451e-08
9.7285e-08
9.72878e-08
9.72876e-08
9.72876e-08
9.72878e-08
9.7285e-08
9.74998e-08
9.75761e-08
9.75734e-08
9.74631e-08
9.7285e-08
9.72858e-08
9.72858e-08
9.7285e-08
9.7486e-08
9.74809e-08
9.75765e-08
9.75485e-08
9.74617e-08
9.74997e-08
9.74995e-08
9.74976e-08
9.74998e-08
9.74809e-08
9.75831e-08
9.7574e-08
9.7572e-08
9.74653e-08
9.75761e-08
9.75765e-08
9.64012e-08
9.63927e-08
9.64001e-08
9.62971e-08
9.6293e-08
9.62968e-08
9.62945e-08
9.64216e-08
9.63973e-08
9.63997e-08
9.62906e-08
9.61378e-08
9.61384e-08
9.61384e-08
9.61378e-08
9.63128e-08
9.63108e-08
9.62969e-08
9.61377e-08
9.61405e-08
9.61398e-08
9.61398e-08
9.61405e-08
9.61377e-08
9.63495e-08
9.64224e-08
9.64011e-08
9.62928e-08
9.61383e-08
9.61398e-08
9.61397e-08
9.61397e-08
9.61398e-08
9.61384e-08
9.63492e-08
9.64204e-08
9.63926e-08
9.62967e-08
9.61383e-08
9.61398e-08
9.61397e-08
9.61397e-08
9.61398e-08
9.61384e-08
9.63472e-08
9.63148e-08
9.62944e-08
9.61377e-08
9.61405e-08
9.61398e-08
9.61398e-08
9.61405e-08
9.61378e-08
9.63491e-08
9.64244e-08
9.64216e-08
9.63128e-08
9.61377e-08
9.61383e-08
9.61383e-08
9.61377e-08
9.63356e-08
9.63304e-08
9.64247e-08
9.63972e-08
9.63107e-08
9.63494e-08
9.63491e-08
9.63471e-08
9.6349e-08
9.63299e-08
9.64315e-08
9.64223e-08
9.64203e-08
9.63147e-08
9.64243e-08
9.64245e-08
9.52631e-08
9.52546e-08
9.5262e-08
9.51595e-08
9.51553e-08
9.5159e-08
9.51567e-08
9.52832e-08
9.52591e-08
9.52617e-08
9.5153e-08
9.50016e-08
9.50021e-08
9.50021e-08
9.50016e-08
9.51751e-08
9.51744e-08
9.51593e-08
9.50016e-08
9.50044e-08
9.50034e-08
9.50034e-08
9.50044e-08
9.50016e-08
9.52124e-08
9.52845e-08
9.5263e-08
9.51552e-08
9.50021e-08
9.50034e-08
9.5003e-08
9.5003e-08
9.50034e-08
9.50021e-08
9.52118e-08
9.52825e-08
9.52545e-08
9.5159e-08
9.50021e-08
9.50034e-08
9.5003e-08
9.5003e-08
9.50034e-08
9.50021e-08
9.52098e-08
9.51773e-08
9.51568e-08
9.50016e-08
9.50044e-08
9.50034e-08
9.50034e-08
9.50044e-08
9.50016e-08
9.52115e-08
9.52863e-08
9.52833e-08
9.51752e-08
9.50015e-08
9.5002e-08
9.5002e-08
9.50015e-08
9.51981e-08
9.51928e-08
9.52865e-08
9.52592e-08
9.51732e-08
9.5212e-08
9.52117e-08
9.52096e-08
9.52113e-08
9.51922e-08
9.52934e-08
9.52842e-08
9.52823e-08
9.51771e-08
9.52861e-08
9.52862e-08
9.41304e-08
9.41219e-08
9.41292e-08
9.4027e-08
9.40227e-08
9.40265e-08
9.40242e-08
9.41506e-08
9.41266e-08
9.41289e-08
9.40204e-08
9.38696e-08
9.387e-08
9.387e-08
9.38696e-08
9.40427e-08
9.40407e-08
9.40268e-08
9.38695e-08
9.38724e-08
9.38713e-08
9.38713e-08
9.38724e-08
9.38695e-08
9.40797e-08
9.41516e-08
9.41303e-08
9.40226e-08
9.387e-08
9.38713e-08
9.38708e-08
9.38708e-08
9.38713e-08
9.387e-08
9.40793e-08
9.41497e-08
9.41218e-08
9.40264e-08
9.387e-08
9.38713e-08
9.38707e-08
9.38707e-08
9.38713e-08
9.387e-08
9.40773e-08
9.40447e-08
9.40242e-08
9.38695e-08
9.38724e-08
9.38712e-08
9.38712e-08
9.38724e-08
9.38695e-08
9.4079e-08
9.41536e-08
9.41505e-08
9.40427e-08
9.38694e-08
9.38699e-08
9.38699e-08
9.38694e-08
9.40656e-08
9.40602e-08
9.41537e-08
9.41265e-08
9.40407e-08
9.40796e-08
9.40792e-08
9.40771e-08
9.40788e-08
9.40597e-08
9.41607e-08
9.41515e-08
9.41495e-08
9.40446e-08
9.41534e-08
9.41535e-08
9.29994e-08
9.29909e-08
9.29983e-08
9.2896e-08
9.28918e-08
9.28955e-08
9.28933e-08
9.30196e-08
9.29956e-08
9.2998e-08
9.28895e-08
9.27388e-08
9.27392e-08
9.27392e-08
9.27388e-08
9.29118e-08
9.29098e-08
9.28958e-08
9.27387e-08
9.27417e-08
9.27405e-08
9.27405e-08
9.27418e-08
9.27387e-08
9.29489e-08
9.30206e-08
9.29993e-08
9.28917e-08
9.27392e-08
9.27405e-08
9.27399e-08
9.27399e-08
9.27405e-08
9.27392e-08
9.29484e-08
9.30187e-08
9.29908e-08
9.28954e-08
9.27392e-08
9.27405e-08
9.27399e-08
9.27399e-08
9.27405e-08
9.27392e-08
9.29464e-08
9.29138e-08
9.28932e-08
9.27387e-08
9.27417e-08
9.27404e-08
9.27404e-08
9.27417e-08
9.27387e-08
9.29481e-08
9.30226e-08
9.30195e-08
9.29117e-08
9.27387e-08
9.27391e-08
9.27391e-08
9.27387e-08
9.29346e-08
9.29292e-08
9.30227e-08
9.29955e-08
9.29097e-08
9.29488e-08
9.29483e-08
9.29463e-08
9.29479e-08
9.29288e-08
9.30297e-08
9.30205e-08
9.30186e-08
9.29136e-08
9.30224e-08
9.30225e-08
9.1869e-08
9.18604e-08
9.18678e-08
9.17656e-08
9.17613e-08
9.1765e-08
9.17627e-08
9.18889e-08
9.18649e-08
9.18675e-08
9.1759e-08
9.16084e-08
9.16088e-08
9.16088e-08
9.16084e-08
9.17812e-08
9.17805e-08
9.17654e-08
9.16083e-08
9.16113e-08
9.16101e-08
9.16101e-08
9.16113e-08
9.16084e-08
9.18186e-08
9.18903e-08
9.18688e-08
9.17612e-08
9.16088e-08
9.16101e-08
9.16094e-08
9.16094e-08
9.16101e-08
9.16088e-08
9.18181e-08
9.18883e-08
9.18603e-08
9.1765e-08
9.16088e-08
9.16101e-08
9.16094e-08
9.16094e-08
9.16101e-08
9.16088e-08
9.1816e-08
9.17834e-08
9.17628e-08
9.16083e-08
9.16112e-08
9.161e-08
9.161e-08
9.16112e-08
9.16084e-08
9.18177e-08
9.18921e-08
9.18891e-08
9.17813e-08
9.16083e-08
9.16087e-08
9.16087e-08
9.16083e-08
9.18042e-08
9.17988e-08
9.18923e-08
9.1865e-08
9.17793e-08
9.18183e-08
9.18179e-08
9.18158e-08
9.18175e-08
9.17983e-08
9.18992e-08
9.18901e-08
9.18881e-08
9.17832e-08
9.1892e-08
9.1892e-08
9.07387e-08
9.07301e-08
9.07375e-08
9.06353e-08
9.0631e-08
9.06347e-08
9.06325e-08
9.07588e-08
9.07348e-08
9.07372e-08
9.06287e-08
9.04781e-08
9.04785e-08
9.04785e-08
9.04781e-08
9.0651e-08
9.06491e-08
9.06351e-08
9.0478e-08
9.04809e-08
9.04798e-08
9.04798e-08
9.0481e-08
9.0478e-08
9.06881e-08
9.07598e-08
9.07385e-08
9.06309e-08
9.04784e-08
9.04798e-08
9.04791e-08
9.04791e-08
9.04798e-08
9.04785e-08
9.06877e-08
9.07579e-08
9.073e-08
9.06346e-08
9.04784e-08
9.04798e-08
9.04791e-08
9.04791e-08
9.04798e-08
9.04785e-08
9.06856e-08
9.0653e-08
9.06324e-08
9.0478e-08
9.04809e-08
9.04797e-08
9.04797e-08
9.04809e-08
9.0478e-08
9.06873e-08
9.07618e-08
9.07587e-08
9.0651e-08
9.0478e-08
9.04784e-08
9.04784e-08
9.0478e-08
9.06739e-08
9.06685e-08
9.07619e-08
9.07347e-08
9.0649e-08
9.0688e-08
9.06876e-08
9.06855e-08
9.06871e-08
9.0668e-08
9.07689e-08
9.07597e-08
9.07578e-08
9.06529e-08
9.07616e-08
9.07617e-08
8.96084e-08
8.95998e-08
8.96072e-08
8.9505e-08
8.95007e-08
8.95045e-08
8.95022e-08
8.96285e-08
8.96045e-08
8.96069e-08
8.94984e-08
8.93478e-08
8.93482e-08
8.93482e-08
8.93478e-08
8.95208e-08
8.95188e-08
8.95048e-08
8.93477e-08
8.93507e-08
8.93495e-08
8.93495e-08
8.93507e-08
8.93478e-08
8.95578e-08
8.96295e-08
8.96082e-08
8.95006e-08
8.93482e-08
8.93495e-08
8.93489e-08
8.93489e-08
8.93495e-08
8.93482e-08
8.95574e-08
8.96276e-08
8.95997e-08
8.95044e-08
8.93482e-08
8.93495e-08
8.93488e-08
8.93488e-08
8.93495e-08
8.93482e-08
8.95553e-08
8.95227e-08
8.95022e-08
8.93478e-08
8.93506e-08
8.93495e-08
8.93495e-08
8.93507e-08
8.93478e-08
8.9557e-08
8.96315e-08
8.96285e-08
8.95207e-08
8.93477e-08
8.93481e-08
8.93482e-08
8.93477e-08
8.95436e-08
8.95382e-08
8.96317e-08
8.96044e-08
8.95187e-08
8.95578e-08
8.95573e-08
8.95553e-08
8.95569e-08
8.95377e-08
8.96386e-08
8.96295e-08
8.96275e-08
8.95226e-08
8.96314e-08
8.96314e-08
8.84781e-08
8.84695e-08
8.84769e-08
8.83747e-08
8.83705e-08
8.83741e-08
8.83719e-08
8.8498e-08
8.84741e-08
8.84766e-08
8.83682e-08
8.82175e-08
8.82179e-08
8.82179e-08
8.82175e-08
8.83904e-08
8.83896e-08
8.83745e-08
8.82175e-08
8.82204e-08
8.82193e-08
8.82193e-08
8.82204e-08
8.82176e-08
8.84278e-08
8.84994e-08
8.84779e-08
8.83703e-08
8.82179e-08
8.82192e-08
8.82186e-08
8.82186e-08
8.82193e-08
8.8218e-08
8.84272e-08
8.84974e-08
8.84694e-08
8.8374e-08
8.82179e-08
8.82192e-08
8.82186e-08
8.82186e-08
8.82193e-08
8.8218e-08
8.84251e-08
8.83925e-08
8.83718e-08
8.82175e-08
8.82204e-08
8.82193e-08
8.82193e-08
8.82204e-08
8.82175e-08
8.84267e-08
8.85012e-08
8.8498e-08
8.83903e-08
8.82175e-08
8.82179e-08
8.8218e-08
8.82176e-08
8.84134e-08
8.84075e-08
8.85012e-08
8.8474e-08
8.83896e-08
8.84277e-08
8.84272e-08
8.84251e-08
8.84268e-08
8.8408e-08
8.85084e-08
8.84994e-08
8.84974e-08
8.83925e-08
8.85013e-08
8.85014e-08
8.73478e-08
8.73393e-08
8.73466e-08
8.72445e-08
8.72402e-08
8.72439e-08
8.72416e-08
8.73678e-08
8.73438e-08
8.73464e-08
8.72379e-08
8.70873e-08
8.70877e-08
8.70877e-08
8.70873e-08
8.72601e-08
8.72594e-08
8.72442e-08
8.70872e-08
8.70902e-08
8.7089e-08
8.7089e-08
8.70902e-08
8.70873e-08
8.72976e-08
8.73692e-08
8.73477e-08
8.72401e-08
8.70877e-08
8.7089e-08
8.70884e-08
8.70884e-08
8.70891e-08
8.70878e-08
8.7297e-08
8.73672e-08
8.73391e-08
8.72438e-08
8.70877e-08
8.7089e-08
8.70884e-08
8.70884e-08
8.70891e-08
8.70878e-08
8.72949e-08
8.72623e-08
8.72415e-08
8.70872e-08
8.70902e-08
8.7089e-08
8.7089e-08
8.70902e-08
8.70873e-08
8.72966e-08
8.73711e-08
8.73677e-08
8.72601e-08
8.70873e-08
8.70877e-08
8.70877e-08
8.70873e-08
8.72832e-08
8.72778e-08
8.73712e-08
8.73438e-08
8.72593e-08
8.72975e-08
8.72969e-08
8.72948e-08
8.72964e-08
8.72773e-08
8.73782e-08
8.73692e-08
8.73671e-08
8.72622e-08
8.7371e-08
8.7371e-08
8.62176e-08
8.62091e-08
8.62164e-08
8.61143e-08
8.611e-08
8.61137e-08
8.61114e-08
8.62376e-08
8.62136e-08
8.62162e-08
8.61077e-08
8.59571e-08
8.59575e-08
8.59575e-08
8.59571e-08
8.61299e-08
8.61292e-08
8.61141e-08
8.5957e-08
8.596e-08
8.59588e-08
8.59588e-08
8.596e-08
8.59571e-08
8.61673e-08
8.6239e-08
8.62175e-08
8.61099e-08
8.59575e-08
8.59588e-08
8.59582e-08
8.59582e-08
8.59588e-08
8.59575e-08
8.61668e-08
8.6237e-08
8.6209e-08
8.61136e-08
8.59575e-08
8.59588e-08
8.59581e-08
8.59582e-08
8.59588e-08
8.59575e-08
8.61647e-08
8.61321e-08
8.61114e-08
8.59571e-08
8.59599e-08
8.59588e-08
8.59588e-08
8.596e-08
8.59571e-08
8.61664e-08
8.62409e-08
8.62377e-08
8.613e-08
8.5957e-08
8.59574e-08
8.59574e-08
8.5957e-08
8.61529e-08
8.61475e-08
8.6241e-08
8.62137e-08
8.6128e-08
8.6167e-08
8.61666e-08
8.61646e-08
8.61662e-08
8.6147e-08
8.62479e-08
8.62388e-08
8.62368e-08
8.61319e-08
8.62407e-08
8.62407e-08
8.50874e-08
8.50789e-08
8.50862e-08
8.49841e-08
8.49798e-08
8.49835e-08
8.49813e-08
8.51076e-08
8.50836e-08
8.5086e-08
8.49775e-08
8.48269e-08
8.48273e-08
8.48273e-08
8.48269e-08
8.49998e-08
8.49979e-08
8.49839e-08
8.48268e-08
8.48298e-08
8.48286e-08
8.48286e-08
8.48298e-08
8.48269e-08
8.50369e-08
8.51087e-08
8.50873e-08
8.49797e-08
8.48273e-08
8.48286e-08
8.48279e-08
8.48279e-08
8.48286e-08
8.48273e-08
8.50365e-08
8.51067e-08
8.50788e-08
8.49834e-08
8.48273e-08
8.48286e-08
8.48279e-08
8.48279e-08
8.48286e-08
8.48273e-08
8.50344e-08
8.50018e-08
8.49812e-08
8.48268e-08
8.48297e-08
8.48286e-08
8.48286e-08
8.48297e-08
8.48269e-08
8.50361e-08
8.51106e-08
8.51075e-08
8.49998e-08
8.48268e-08
8.48272e-08
8.48272e-08
8.48268e-08
8.50227e-08
8.50173e-08
8.51108e-08
8.50835e-08
8.49978e-08
8.50368e-08
8.50364e-08
8.50343e-08
8.50359e-08
8.50168e-08
8.51177e-08
8.51085e-08
8.51066e-08
8.50017e-08
8.51104e-08
8.51105e-08
8.39572e-08
8.39486e-08
8.3956e-08
8.38538e-08
8.38496e-08
8.38532e-08
8.3851e-08
8.39772e-08
8.39532e-08
8.39557e-08
8.38473e-08
8.36967e-08
8.36971e-08
8.36971e-08
8.36966e-08
8.38695e-08
8.38687e-08
8.38536e-08
8.36966e-08
8.36995e-08
8.36984e-08
8.36984e-08
8.36995e-08
8.36967e-08
8.39069e-08
8.39786e-08
8.39571e-08
8.38495e-08
8.3697e-08
8.36984e-08
8.36977e-08
8.36977e-08
8.36984e-08
8.36971e-08
8.39064e-08
8.39766e-08
8.39486e-08
8.38532e-08
8.3697e-08
8.36984e-08
8.36977e-08
8.36977e-08
8.36984e-08
8.36971e-08
8.39043e-08
8.38717e-08
8.3851e-08
8.36966e-08
8.36995e-08
8.36983e-08
8.36983e-08
8.36995e-08
8.36967e-08
8.39059e-08
8.39804e-08
8.39773e-08
8.38695e-08
8.36966e-08
8.3697e-08
8.3697e-08
8.36966e-08
8.38925e-08
8.38871e-08
8.39805e-08
8.39533e-08
8.38675e-08
8.39066e-08
8.39062e-08
8.39041e-08
8.39057e-08
8.38866e-08
8.39875e-08
8.39783e-08
8.39764e-08
8.38715e-08
8.39802e-08
8.39803e-08
8.28269e-08
8.28184e-08
8.28258e-08
8.27236e-08
8.27193e-08
8.2723e-08
8.27207e-08
8.28469e-08
8.28229e-08
8.28255e-08
8.27171e-08
8.25664e-08
8.25668e-08
8.25668e-08
8.25664e-08
8.27392e-08
8.27385e-08
8.27234e-08
8.25664e-08
8.25693e-08
8.25681e-08
8.25682e-08
8.25693e-08
8.25665e-08
8.27767e-08
8.28484e-08
8.28269e-08
8.27192e-08
8.25668e-08
8.25681e-08
8.25675e-08
8.25675e-08
8.25682e-08
8.25669e-08
8.27761e-08
8.28464e-08
8.28183e-08
8.2723e-08
8.25668e-08
8.25681e-08
8.25675e-08
8.25675e-08
8.25682e-08
8.25669e-08
8.2774e-08
8.27414e-08
8.27208e-08
8.25664e-08
8.25693e-08
8.25681e-08
8.25681e-08
8.25693e-08
8.25664e-08
8.27757e-08
8.28502e-08
8.28471e-08
8.27393e-08
8.25663e-08
8.25668e-08
8.25668e-08
8.25664e-08
8.27623e-08
8.27569e-08
8.28503e-08
8.28231e-08
8.27373e-08
8.27764e-08
8.27759e-08
8.27739e-08
8.27755e-08
8.27564e-08
8.28573e-08
8.28481e-08
8.28461e-08
8.27412e-08
8.285e-08
8.28501e-08
8.16967e-08
8.16881e-08
8.16955e-08
8.15933e-08
8.15891e-08
8.15927e-08
8.15905e-08
8.17167e-08
8.16927e-08
8.16953e-08
8.15868e-08
8.14362e-08
8.14366e-08
8.14366e-08
8.14362e-08
8.1609e-08
8.16083e-08
8.15932e-08
8.14361e-08
8.1439e-08
8.14379e-08
8.14379e-08
8.14391e-08
8.14362e-08
8.16464e-08
8.17181e-08
8.16966e-08
8.1589e-08
8.14366e-08
8.14379e-08
8.14372e-08
8.14373e-08
8.14379e-08
8.14366e-08
8.16459e-08
8.17161e-08
8.16881e-08
8.15928e-08
8.14366e-08
8.14379e-08
8.14372e-08
8.14372e-08
8.14379e-08
8.14366e-08
8.16438e-08
8.16112e-08
8.15906e-08
8.14362e-08
8.1439e-08
8.14379e-08
8.14379e-08
8.14391e-08
8.14362e-08
8.16455e-08
8.172e-08
8.17169e-08
8.16091e-08
8.14361e-08
8.14365e-08
8.14365e-08
8.14361e-08
8.1632e-08
8.16266e-08
8.17201e-08
8.16928e-08
8.16071e-08
8.16461e-08
8.16457e-08
8.16436e-08
8.16453e-08
8.16261e-08
8.1727e-08
8.17179e-08
8.17159e-08
8.1611e-08
8.17198e-08
8.17198e-08
8.05664e-08
8.05578e-08
8.0565e-08
8.04629e-08
8.04588e-08
8.04625e-08
8.04602e-08
8.05864e-08
8.05624e-08
8.05653e-08
8.04566e-08
8.03059e-08
8.03063e-08
8.03063e-08
8.03059e-08
8.04788e-08
8.0478e-08
8.04631e-08
8.03059e-08
8.03088e-08
8.03077e-08
8.03077e-08
8.03088e-08
8.0306e-08
8.05162e-08
8.05879e-08
8.05664e-08
8.04588e-08
8.03063e-08
8.03077e-08
8.0307e-08
8.0307e-08
8.03077e-08
8.03064e-08
8.05157e-08
8.05859e-08
8.05579e-08
8.04625e-08
8.03063e-08
8.03077e-08
8.0307e-08
8.0307e-08
8.03077e-08
8.03064e-08
8.05136e-08
8.0481e-08
8.04603e-08
8.03059e-08
8.03088e-08
8.03076e-08
8.03077e-08
8.03088e-08
8.0306e-08
8.05152e-08
8.05897e-08
8.05866e-08
8.04789e-08
8.03059e-08
8.03063e-08
8.03063e-08
8.03059e-08
8.05018e-08
8.04964e-08
8.05899e-08
8.05626e-08
8.04769e-08
8.05159e-08
8.05155e-08
8.05134e-08
8.05151e-08
8.04959e-08
8.05968e-08
8.05876e-08
8.05857e-08
8.04808e-08
8.05895e-08
8.05896e-08
7.94362e-08
7.94276e-08
7.9435e-08
7.93328e-08
7.93286e-08
7.93323e-08
7.933e-08
7.94562e-08
7.94322e-08
7.94348e-08
7.93263e-08
7.91757e-08
7.91761e-08
7.91761e-08
7.91757e-08
7.93485e-08
7.93478e-08
7.93326e-08
7.91756e-08
7.91785e-08
7.91774e-08
7.91774e-08
7.91786e-08
7.91757e-08
7.93859e-08
7.94576e-08
7.94361e-08
7.93285e-08
7.9176e-08
7.91774e-08
7.91768e-08
7.91768e-08
7.91774e-08
7.91761e-08
7.93854e-08
7.94556e-08
7.94276e-08
7.93322e-08
7.9176e-08
7.91774e-08
7.91768e-08
7.91768e-08
7.91774e-08
7.91761e-08
7.93833e-08
7.93507e-08
7.93299e-08
7.91756e-08
7.91785e-08
7.91774e-08
7.91774e-08
7.91786e-08
7.91757e-08
7.9385e-08
7.94595e-08
7.94561e-08
7.93485e-08
7.91757e-08
7.91761e-08
7.91761e-08
7.91757e-08
7.93716e-08
7.93661e-08
7.94596e-08
7.94322e-08
7.93477e-08
7.93859e-08
7.93853e-08
7.93832e-08
7.93848e-08
7.93657e-08
7.94666e-08
7.94576e-08
7.94555e-08
7.93506e-08
7.94593e-08
7.94594e-08
7.8306e-08
7.82974e-08
7.83048e-08
7.82026e-08
7.81984e-08
7.8202e-08
7.81998e-08
7.83259e-08
7.8302e-08
7.83045e-08
7.81961e-08
7.80454e-08
7.80459e-08
7.80458e-08
7.80454e-08
7.82183e-08
7.82175e-08
7.82024e-08
7.80454e-08
7.80483e-08
7.80472e-08
7.80472e-08
7.80483e-08
7.80454e-08
7.82557e-08
7.83273e-08
7.83058e-08
7.81982e-08
7.80458e-08
7.80472e-08
7.80465e-08
7.80465e-08
7.80472e-08
7.80458e-08
7.82551e-08
7.83253e-08
7.82973e-08
7.8202e-08
7.80458e-08
7.80472e-08
7.80465e-08
7.80465e-08
7.80472e-08
7.80458e-08
7.8253e-08
7.82204e-08
7.81997e-08
7.80454e-08
7.80483e-08
7.80472e-08
7.80472e-08
7.80483e-08
7.80454e-08
7.82546e-08
7.83291e-08
7.83259e-08
7.82182e-08
7.80454e-08
7.80459e-08
7.80459e-08
7.80455e-08
7.82413e-08
7.82354e-08
7.83291e-08
7.83019e-08
7.82175e-08
7.82557e-08
7.82551e-08
7.8253e-08
7.82547e-08
7.82359e-08
7.83363e-08
7.83273e-08
7.83253e-08
7.82204e-08
7.83292e-08
7.83293e-08
7.71758e-08
7.71672e-08
7.71746e-08
7.70724e-08
7.70681e-08
7.70719e-08
7.70696e-08
7.71959e-08
7.71719e-08
7.71743e-08
7.70658e-08
7.69152e-08
7.69156e-08
7.69156e-08
7.69152e-08
7.70882e-08
7.70862e-08
7.70722e-08
7.69152e-08
7.69181e-08
7.69169e-08
7.69169e-08
7.69181e-08
7.69152e-08
7.71252e-08
7.71969e-08
7.71756e-08
7.7068e-08
7.69156e-08
7.69169e-08
7.69163e-08
7.69163e-08
7.69169e-08
7.69156e-08
7.71248e-08
7.7195e-08
7.71671e-08
7.70718e-08
7.69156e-08
7.69169e-08
7.69163e-08
7.69163e-08
7.69169e-08
7.69156e-08
7.71227e-08
7.70901e-08
7.70696e-08
7.69152e-08
7.69181e-08
7.69169e-08
7.69169e-08
7.69181e-08
7.69152e-08
7.71243e-08
7.71988e-08
7.71959e-08
7.70881e-08
7.69151e-08
7.69156e-08
7.69156e-08
7.69152e-08
7.7111e-08
7.71052e-08
7.71989e-08
7.71719e-08
7.70861e-08
7.71252e-08
7.71248e-08
7.71227e-08
7.71244e-08
7.71056e-08
7.7206e-08
7.71969e-08
7.7195e-08
7.70901e-08
7.71989e-08
7.71991e-08
7.60455e-08
7.6037e-08
7.60443e-08
7.59421e-08
7.59379e-08
7.59416e-08
7.59394e-08
7.60657e-08
7.60417e-08
7.6044e-08
7.59356e-08
7.5785e-08
7.57854e-08
7.57854e-08
7.5785e-08
7.59579e-08
7.59559e-08
7.59419e-08
7.57849e-08
7.57878e-08
7.57867e-08
7.57867e-08
7.57878e-08
7.57849e-08
7.5995e-08
7.60667e-08
7.60454e-08
7.59378e-08
7.57853e-08
7.57867e-08
7.5786e-08
7.5786e-08
7.57867e-08
7.57853e-08
7.59945e-08
7.60647e-08
7.60369e-08
7.59415e-08
7.57853e-08
7.57867e-08
7.5786e-08
7.5786e-08
7.57867e-08
7.57853e-08
7.59925e-08
7.59599e-08
7.59393e-08
7.57849e-08
7.57878e-08
7.57866e-08
7.57866e-08
7.57878e-08
7.57849e-08
7.59942e-08
7.60687e-08
7.60656e-08
7.59579e-08
7.57849e-08
7.57853e-08
7.57853e-08
7.57849e-08
7.59808e-08
7.59754e-08
7.60688e-08
7.60416e-08
7.59559e-08
7.59949e-08
7.59945e-08
7.59924e-08
7.59941e-08
7.59749e-08
7.60758e-08
7.60667e-08
7.60647e-08
7.59598e-08
7.60686e-08
7.60686e-08
7.49152e-08
7.49066e-08
7.49141e-08
7.48118e-08
7.48076e-08
7.48113e-08
7.4809e-08
7.49352e-08
7.49112e-08
7.49138e-08
7.48053e-08
7.46547e-08
7.46551e-08
7.46551e-08
7.46547e-08
7.48275e-08
7.48268e-08
7.48117e-08
7.46547e-08
7.46576e-08
7.46564e-08
7.46564e-08
7.46576e-08
7.46547e-08
7.48649e-08
7.49366e-08
7.49151e-08
7.48075e-08
7.46551e-08
7.46564e-08
7.46558e-08
7.46558e-08
7.46564e-08
7.46551e-08
7.48644e-08
7.49346e-08
7.49066e-08
7.48113e-08
7.46551e-08
7.46564e-08
7.46558e-08
7.46558e-08
7.46564e-08
7.46551e-08
7.48623e-08
7.48297e-08
7.48091e-08
7.46547e-08
7.46576e-08
7.46564e-08
7.46564e-08
7.46576e-08
7.46547e-08
7.4864e-08
7.49384e-08
7.49354e-08
7.48276e-08
7.46547e-08
7.46551e-08
7.46551e-08
7.46547e-08
7.48505e-08
7.48451e-08
7.49386e-08
7.49114e-08
7.48256e-08
7.48647e-08
7.48643e-08
7.48622e-08
7.48638e-08
7.48447e-08
7.49455e-08
7.49364e-08
7.49345e-08
7.48296e-08
7.49383e-08
7.49384e-08
7.37848e-08
7.37763e-08
7.37835e-08
7.36814e-08
7.36772e-08
7.36809e-08
7.36787e-08
7.38049e-08
7.37809e-08
7.37838e-08
7.36751e-08
7.35244e-08
7.35248e-08
7.35248e-08
7.35244e-08
7.36972e-08
7.36965e-08
7.36816e-08
7.35244e-08
7.35273e-08
7.35261e-08
7.35261e-08
7.35273e-08
7.35244e-08
7.37346e-08
7.38063e-08
7.37849e-08
7.36773e-08
7.35248e-08
7.35262e-08
7.35255e-08
7.35255e-08
7.35262e-08
7.35248e-08
7.37341e-08
7.38043e-08
7.37764e-08
7.3681e-08
7.35248e-08
7.35262e-08
7.35255e-08
7.35255e-08
7.35262e-08
7.35248e-08
7.3732e-08
7.36994e-08
7.36787e-08
7.35244e-08
7.35273e-08
7.35262e-08
7.35262e-08
7.35273e-08
7.35244e-08
7.37336e-08
7.38081e-08
7.38049e-08
7.36972e-08
7.35245e-08
7.35249e-08
7.35249e-08
7.35245e-08
7.37203e-08
7.37144e-08
7.38081e-08
7.37809e-08
7.36965e-08
7.37347e-08
7.37341e-08
7.3732e-08
7.37337e-08
7.37149e-08
7.38153e-08
7.38064e-08
7.38043e-08
7.36994e-08
7.38082e-08
7.38083e-08
7.26546e-08
7.26461e-08
7.26532e-08
7.25511e-08
7.2547e-08
7.25507e-08
7.25484e-08
7.26746e-08
7.26507e-08
7.26535e-08
7.25448e-08
7.23941e-08
7.23945e-08
7.23945e-08
7.23941e-08
7.2567e-08
7.25662e-08
7.25513e-08
7.23942e-08
7.2397e-08
7.23959e-08
7.23959e-08
7.2397e-08
7.23942e-08
7.26044e-08
7.26761e-08
7.26547e-08
7.25471e-08
7.23946e-08
7.23959e-08
7.23952e-08
7.23952e-08
7.23959e-08
7.23946e-08
7.26038e-08
7.2674e-08
7.26461e-08
7.25508e-08
7.23946e-08
7.23959e-08
7.23952e-08
7.23952e-08
7.23959e-08
7.23946e-08
7.26017e-08
7.25691e-08
7.25485e-08
7.23942e-08
7.23971e-08
7.23959e-08
7.23959e-08
7.23971e-08
7.23942e-08
7.26033e-08
7.26778e-08
7.26747e-08
7.2567e-08
7.23942e-08
7.23946e-08
7.23946e-08
7.23942e-08
7.259e-08
7.25842e-08
7.26779e-08
7.26507e-08
7.25662e-08
7.26044e-08
7.26039e-08
7.26018e-08
7.26035e-08
7.25846e-08
7.2685e-08
7.26761e-08
7.26741e-08
7.25692e-08
7.26779e-08
7.26781e-08
7.15244e-08
7.15159e-08
7.15233e-08
7.14211e-08
7.14168e-08
7.14205e-08
7.14183e-08
7.15446e-08
7.15206e-08
7.1523e-08
7.14146e-08
7.12639e-08
7.12643e-08
7.12643e-08
7.12639e-08
7.14369e-08
7.14349e-08
7.14209e-08
7.12639e-08
7.12668e-08
7.12657e-08
7.12657e-08
7.12668e-08
7.12639e-08
7.14739e-08
7.15457e-08
7.15244e-08
7.14168e-08
7.12643e-08
7.12656e-08
7.1265e-08
7.1265e-08
7.12657e-08
7.12643e-08
7.14735e-08
7.15437e-08
7.15159e-08
7.14205e-08
7.12643e-08
7.12656e-08
7.1265e-08
7.1265e-08
7.12656e-08
7.12643e-08
7.14715e-08
7.14389e-08
7.14183e-08
7.12639e-08
7.12668e-08
7.12656e-08
7.12656e-08
7.12668e-08
7.12639e-08
7.14732e-08
7.15477e-08
7.15446e-08
7.14368e-08
7.12639e-08
7.12643e-08
7.12643e-08
7.12639e-08
7.14598e-08
7.14543e-08
7.15478e-08
7.15206e-08