/*--------------------------------*- C++ -*----------------------------------*\
| =========                 |                                                 |
| \\      /  F ield         | OpenFOAM: The Open Source CFD Toolbox           |
|  \\    /   O peration     | Version:  2312                                  |
|   \\  /    A nd           | Website:  www.openfoam.com                      |
|    \\/     M anipulation  |                                                 |
\*---------------------------------------------------------------------------*/
FoamFile
{
    version     2.0;
    format      ascii;
    arch        "LSB;label=32;scalar=64";
    class       volScalarField;
    location    "100";
    object      nut;
}
// * * * * * * * * * * * * * * * * * * * * * * * * * * * * * * * * * * * * * //

dimensions      [0 2 -1 0 0 0 0];

internalField   nonuniform List<scalar> 
43008
(
0.000158983
0.000109796
0.000155583
0.000106938
0.000106953
8.46283e-05
8.61708e-05
8.50309e-05
0.000109778
0.000109764
0.000107653
0.000107639
8.50937e-05
0.000109796
0.000109764
0.000107681
0.000107639
0.00010764
0.000107646
8.61344e-05
8.50778e-05
0.000109791
0.000107647
0.000107672
8.50297e-05
8.47289e-05
0.000106962
0.000106943
8.47566e-05
0.000106977
0.000106916
0.000106947
8.47006e-05
0.000106955
5.98027e-05
4.93188e-05
5.93731e-05
4.93042e-05
2.35755e-05
6.033e-05
4.93144e-05
5.97662e-05
4.93034e-05
0.000159022
0.00015902
0.000159021
0.00015638
0.000156343
0.000156339
0.000156343
5.90243e-05
0.000109057
5.95501e-05
0.000134622
2.35765e-05
2.35689e-05
5.89915e-05
0.000135488
5.90062e-05
0.000109065
5.86367e-05
0.000134621
5.93982e-05
8.57325e-05
5.72715e-05
5.72923e-05
6.05738e-05
4.92892e-05
6.01755e-05
4.92768e-05
2.35569e-05
2.35512e-05
6.14612e-05
4.92755e-05
6.09489e-05
4.92715e-05
0.0001556
0.000155598
0.000155598
5.92567e-05
6.00895e-05
0.000132203
0.000106434
5.89548e-05
6.0482e-05
0.000131515
2.35492e-05
2.35442e-05
5.94624e-05
0.000132191
5.99416e-05
0.000106428
5.93684e-05
0.000131518
6.02018e-05
5.76118e-05
5.76463e-05
8.44466e-05
5.77858e-05
5.78443e-05
2.35821e-05
2.35688e-05
2.35805e-05
2.35668e-05
5.70968e-05
5.71007e-05
8.57903e-05
5.73674e-05
5.72986e-05
2.35544e-05
2.3564e-05
2.35521e-05
2.35613e-05
8.53874e-05
5.76261e-05
5.76132e-05
5.74683e-05
5.74262e-05
6.01287e-05
4.93253e-05
5.97117e-05
4.93125e-05
5.89292e-05
5.90948e-05
0.000135516
0.000109053
5.86002e-05
5.94827e-05
0.000134635
5.91419e-05
5.91897e-05
0.000135508
0.000109038
5.8833e-05
5.95383e-05
0.000134616
5.99264e-05
4.92886e-05
4.93013e-05
6.01891e-05
6.01863e-05
4.92964e-05
4.93054e-05
6.0527e-05
5.89869e-05
0.0001083
5.99966e-05
0.000133014
5.96408e-05
0.0001338
5.90225e-05
5.92042e-05
0.00010828
6.00538e-05
0.000132997
5.9769e-05
0.000133791
5.93507e-05
8.5776e-05
5.75061e-05
5.7519e-05
2.35759e-05
2.35616e-05
2.35702e-05
8.54038e-05
5.7831e-05
5.78133e-05
5.76225e-05
5.76352e-05
2.35627e-05
2.35707e-05
5.92397e-05
5.90088e-05
0.000135505
0.000109074
5.88596e-05
5.93834e-05
0.000134626
6.02846e-05
4.93282e-05
5.97496e-05
4.9322e-05
5.89375e-05
0.000135496
5.90598e-05
0.000109028
5.87746e-05
0.000134604
5.94944e-05
6.04973e-05
4.92873e-05
4.92973e-05
6.08388e-05
5.92423e-05
0.00010832
5.99074e-05
0.000133006
5.95937e-05
0.000133788
5.91379e-05
6.04548e-05
4.93009e-05
4.93105e-05
6.07183e-05
5.91343e-05
0.00010827
0.000132977
5.98824e-05
0.000133769
5.95786e-05
5.9249e-05
6.08713e-05
4.93172e-05
5.93165e-05
0.000109047
0.00013462
5.94081e-05
6.05186e-05
4.93057e-05
5.91268e-05
0.000108308
6.00203e-05
0.000132983
5.97366e-05
0.000133794
5.90448e-05
6.0732e-05
4.93e-05
4.9309e-05
6.10858e-05
5.95327e-05
0.000108295
0.000133005
5.99323e-05
0.0001338
5.96244e-05
5.95747e-05
6.06948e-05
4.92944e-05
4.93033e-05
6.11914e-05
5.71407e-05
5.71651e-05
8.5755e-05
5.73684e-05
5.73975e-05
2.35765e-05
2.35697e-05
2.35547e-05
2.35624e-05
8.53504e-05
5.76839e-05
5.76314e-05
5.74813e-05
5.74868e-05
2.35547e-05
2.35625e-05
5.91156e-05
0.000135501
5.90224e-05
0.000109061
5.87489e-05
0.000134613
5.92891e-05
6.02426e-05
4.93139e-05
5.96809e-05
4.93064e-05
6.02843e-05
4.93092e-05
5.9734e-05
4.92931e-05
5.90903e-05
0.000108312
0.000132983
5.98504e-05
0.000133779
5.95641e-05
5.92842e-05
5.90808e-05
0.000108315
0.000132995
5.98328e-05
0.000133781
5.95403e-05
5.93255e-05
6.03084e-05
4.92853e-05
4.92955e-05
6.07337e-05
6.03744e-05
4.92753e-05
4.92899e-05
6.07732e-05
2.35666e-05
2.35634e-05
8.53003e-05
5.75597e-05
5.76191e-05
5.73586e-05
5.7356e-05
2.35518e-05
2.35603e-05
2.35478e-05
2.35561e-05
2.355e-05
2.35425e-05
2.35469e-05
2.35401e-05
5.76949e-05
5.76441e-05
8.44916e-05
5.78238e-05
5.78165e-05
6.09654e-05
4.92896e-05
6.07308e-05
4.92816e-05
5.93764e-05
6.00295e-05
0.00013221
0.000106438
5.92031e-05
6.0321e-05
0.000131566
5.96249e-05
6.00967e-05
0.000132199
0.000106403
5.94622e-05
6.04571e-05
0.000131549
5.78779e-05
5.78358e-05
8.45341e-05
5.81147e-05
5.80377e-05
2.3558e-05
2.3552e-05
5.94968e-05
5.99386e-05
0.000132197
0.000106423
5.95303e-05
6.02396e-05
0.000131554
6.13337e-05
4.92966e-05
6.10375e-05
4.92892e-05
5.95715e-05
0.000132166
6.00373e-05
0.000106424
5.92035e-05
0.00013152
6.02674e-05
6.13523e-05
4.92922e-05
6.11822e-05
4.9285e-05
5.98717e-05
0.000132203
5.99874e-05
0.000106443
5.97734e-05
0.000131547
6.01769e-05
6.15558e-05
4.92866e-05
6.11687e-05
4.92797e-05
5.77216e-05
5.76658e-05
8.44925e-05
5.79293e-05
5.78327e-05
2.35496e-05
2.35428e-05
5.98594e-05
0.000132191
5.99416e-05
0.000106416
5.97473e-05
0.000131548
6.02544e-05
6.14562e-05
4.92807e-05
6.10697e-05
4.92744e-05
6.15289e-05
4.92728e-05
6.10692e-05
4.92646e-05
2.35467e-05
2.35403e-05
2.35436e-05
2.35364e-05
3.59832e-05
5.96964e-05
4.01289e-05
6.33626e-05
4.01335e-05
6.32217e-05
3.59837e-05
2.01646e-05
6.53172e-05
4.9314e-05
2.01653e-05
6.54119e-05
3.5996e-05
5.95214e-05
4.01452e-05
6.29754e-05
3.59924e-05
4.01469e-05
6.31057e-05
2.01583e-05
6.55129e-05
4.93111e-05
6.54414e-05
2.01574e-05
2.35832e-05
2.35781e-05
3.5989e-05
6.01747e-05
6.34567e-05
4.01452e-05
6.33776e-05
4.01416e-05
3.59929e-05
2.01674e-05
6.53356e-05
4.93213e-05
2.01684e-05
6.5417e-05
3.60022e-05
5.99722e-05
6.31015e-05
4.01517e-05
3.59988e-05
6.32286e-05
4.01546e-05
2.01613e-05
6.55148e-05
4.93056e-05
6.54505e-05
2.01606e-05
2.35788e-05
2.35694e-05
6.78101e-05
2.15003e-05
2.14975e-05
2.15018e-05
2.1499e-05
6.7882e-05
6.67481e-05
5.71755e-05
6.24449e-05
4.67884e-05
6.69338e-05
5.71319e-05
6.25221e-05
4.67814e-05
6.77577e-05
2.15066e-05
2.15037e-05
6.68218e-05
4.67853e-05
5.7227e-05
6.275e-05
6.26457e-05
4.67857e-05
6.69595e-05
6.7028e-05
4.67794e-05
5.72443e-05
6.28539e-05
6.27557e-05
4.67794e-05
6.72121e-05
3.59593e-05
6.0571e-05
4.00977e-05
6.3944e-05
4.00994e-05
6.39108e-05
3.59585e-05
2.01441e-05
6.57827e-05
4.92841e-05
2.01442e-05
6.58595e-05
3.59623e-05
6.03413e-05
4.01056e-05
6.36403e-05
3.59635e-05
4.0103e-05
6.37404e-05
2.01403e-05
6.59315e-05
4.92811e-05
6.58659e-05
2.01402e-05
2.35554e-05
2.35518e-05
3.59678e-05
6.13457e-05
6.41642e-05
4.01201e-05
6.40519e-05
4.01209e-05
3.59671e-05
2.01446e-05
6.57033e-05
4.92795e-05
2.0145e-05
6.57908e-05
3.59706e-05
6.1089e-05
6.37991e-05
4.01247e-05
3.59717e-05
6.39542e-05
4.01235e-05
2.01408e-05
6.58751e-05
4.92698e-05
6.58276e-05
2.01409e-05
2.35484e-05
2.35447e-05
6.81941e-05
2.14834e-05
2.14808e-05
2.1483e-05
2.14805e-05
6.83118e-05
6.74584e-05
6.32971e-05
4.67781e-05
5.76856e-05
6.73709e-05
6.35453e-05
4.67767e-05
6.79749e-05
6.35935e-05
4.67762e-05
5.77432e-05
6.7871e-05
6.38715e-05
4.67771e-05
6.81916e-05
2.14868e-05
2.14842e-05
6.81229e-05
2.14865e-05
2.1484e-05
6.75253e-05
4.67753e-05
5.77464e-05
6.35234e-05
6.36e-05
4.67695e-05
6.77319e-05
6.82076e-05
4.67786e-05
5.77805e-05
6.38423e-05
6.36828e-05
4.67731e-05
6.81756e-05
2.35771e-05
2.35723e-05
2.35749e-05
2.35704e-05
6.78274e-05
2.15021e-05
2.14974e-05
2.15027e-05
2.14981e-05
6.79098e-05
6.70814e-05
6.26043e-05
4.6803e-05
5.71976e-05
6.69548e-05
4.68028e-05
6.27901e-05
6.68206e-05
6.24099e-05
4.67847e-05
5.72326e-05
6.67819e-05
4.6782e-05
6.2673e-05
6.77731e-05
2.15085e-05
2.15041e-05
6.76912e-05
2.15078e-05
2.15033e-05
6.71969e-05
4.68008e-05
5.72617e-05
6.29449e-05
4.68005e-05
6.73541e-05
6.28297e-05
6.68948e-05
4.67783e-05
5.72552e-05
6.28084e-05
4.67792e-05
6.69756e-05
6.2636e-05
2.35565e-05
2.35612e-05
2.35536e-05
2.35589e-05
6.80323e-05
2.1498e-05
2.14933e-05
6.79397e-05
2.14978e-05
2.14929e-05
6.76492e-05
6.37598e-05
5.75747e-05
4.68001e-05
4.67982e-05
6.35051e-05
6.79521e-05
6.72004e-05
6.34666e-05
5.75406e-05
4.67734e-05
4.67756e-05
6.33206e-05
6.73488e-05
6.76096e-05
4.6799e-05
6.32372e-05
5.75026e-05
6.74557e-05
4.67994e-05
6.33948e-05
6.71011e-05
4.67761e-05
6.31374e-05
5.75107e-05
6.70704e-05
4.67756e-05
6.31607e-05
6.80523e-05
2.14942e-05
2.14889e-05
2.14943e-05
2.14891e-05
6.8145e-05
3.60003e-05
6.00414e-05
4.01374e-05
6.35932e-05
4.01474e-05
6.35048e-05
3.59969e-05
2.01683e-05
6.5353e-05
4.93183e-05
2.01689e-05
6.54586e-05
3.60044e-05
5.98246e-05
4.01586e-05
6.32639e-05
4.01485e-05
3.60113e-05
6.337e-05
2.01625e-05
6.55694e-05
4.93156e-05
6.54876e-05
2.01623e-05
3.59766e-05
4.0126e-05
6.33832e-05
5.99875e-05
3.59765e-05
4.01173e-05
6.34993e-05
2.0148e-05
4.92919e-05
6.57706e-05
2.0148e-05
6.5638e-05
2.01521e-05
6.55316e-05
4.92969e-05
2.01527e-05
6.56196e-05
3.5968e-05
6.01018e-05
4.01121e-05
6.35525e-05
3.59669e-05
4.01166e-05
6.35493e-05
3.59901e-05
4.01371e-05
6.36243e-05
6.03828e-05
3.5991e-05
4.01272e-05
6.37036e-05
2.0152e-05
4.92947e-05
6.58084e-05
6.56842e-05
2.0152e-05
2.01562e-05
6.55959e-05
4.93076e-05
2.0157e-05
6.56718e-05
3.59826e-05
6.03838e-05
4.01212e-05
6.38716e-05
4.01263e-05
6.37579e-05
3.59812e-05
6.77321e-05
2.1495e-05
2.14974e-05
2.14956e-05
2.1498e-05
6.78402e-05
6.68879e-05
5.74358e-05
4.67918e-05
6.29965e-05
6.68127e-05
5.74148e-05
6.28098e-05
4.67979e-05
6.77092e-05
2.15e-05
2.15024e-05
6.69611e-05
4.67899e-05
5.74297e-05
6.31114e-05
4.67897e-05
6.29321e-05
6.71254e-05
6.68484e-05
4.67965e-05
5.74129e-05
6.28661e-05
6.29509e-05
4.67962e-05
6.69789e-05
2.3584e-05
2.35785e-05
2.35631e-05
2.35682e-05
6.79693e-05
2.14911e-05
2.14936e-05
6.78918e-05
2.14908e-05
2.14932e-05
6.7333e-05
6.37742e-05
5.77351e-05
4.67872e-05
6.37212e-05
4.67867e-05
6.73666e-05
6.72747e-05
6.34615e-05
5.77369e-05
4.67933e-05
4.67938e-05
6.34453e-05
6.73918e-05
6.71906e-05
4.67888e-05
6.34535e-05
5.77028e-05
6.35434e-05
6.71777e-05
4.67884e-05
6.72646e-05
4.67948e-05
6.32376e-05
5.76887e-05
6.70742e-05
4.67956e-05
6.33025e-05
6.79998e-05
2.14872e-05
2.14895e-05
2.14871e-05
2.14896e-05
6.80899e-05
2.35638e-05
2.35694e-05
3.60088e-05
6.00931e-05
4.01476e-05
6.40014e-05
4.01451e-05
6.38686e-05
3.60089e-05
2.01759e-05
6.55002e-05
4.93297e-05
2.01766e-05
6.56268e-05
3.6016e-05
5.99857e-05
4.01593e-05
6.35429e-05
4.01593e-05
3.60136e-05
6.37817e-05
2.01705e-05
6.57438e-05
4.93166e-05
6.56508e-05
2.01699e-05
3.59835e-05
6.35958e-05
4.01324e-05
6.07061e-05
3.59819e-05
6.36615e-05
4.01303e-05
2.01498e-05
4.92875e-05
6.56793e-05
2.01491e-05
6.56304e-05
2.01542e-05
6.55719e-05
4.92955e-05
2.01553e-05
6.56134e-05
3.59756e-05
6.08101e-05
6.38224e-05
4.0128e-05
3.59749e-05
6.37539e-05
4.01304e-05
3.6003e-05
4.01366e-05
6.40771e-05
6.06253e-05
3.60039e-05
4.01347e-05
6.42795e-05
2.01616e-05
4.93025e-05
6.59897e-05
6.59247e-05
2.01614e-05
2.01654e-05
6.57857e-05
4.93125e-05
2.01658e-05
6.58726e-05
3.59999e-05
6.06683e-05
4.01281e-05
6.44465e-05
4.01287e-05
6.43244e-05
3.59997e-05
3.60011e-05
6.05019e-05
6.36704e-05
4.01465e-05
6.35884e-05
4.01512e-05
3.5998e-05
2.01654e-05
6.55919e-05
4.93212e-05
6.55041e-05
2.01645e-05
3.60025e-05
6.0267e-05
4.01428e-05
6.37965e-05
4.01519e-05
6.36909e-05
3.59988e-05
2.01659e-05
6.56341e-05
4.93127e-05
6.5554e-05
2.01652e-05
3.59894e-05
6.36926e-05
4.01454e-05
6.1086e-05
3.59938e-05
6.38576e-05
4.01385e-05
2.01542e-05
4.92986e-05
6.57792e-05
6.5705e-05
2.01537e-05
2.01587e-05
6.56113e-05
4.93096e-05
2.01594e-05
6.56875e-05
3.59838e-05
6.09322e-05
6.40561e-05
4.01288e-05
6.39582e-05
4.01371e-05
3.59829e-05
3.59927e-05
4.0142e-05
6.39228e-05
6.08767e-05
3.59937e-05
4.01396e-05
6.40952e-05
2.01562e-05
4.92937e-05
6.58181e-05
6.57496e-05
2.0156e-05
2.01604e-05
6.56569e-05
4.92987e-05
2.01609e-05
6.57382e-05
3.59897e-05
6.09864e-05
4.01285e-05
6.43221e-05
4.01307e-05
6.42081e-05
3.59898e-05
6.78226e-05
2.14973e-05
2.15013e-05
2.14979e-05
2.15019e-05
6.79044e-05
6.68195e-05
6.23932e-05
4.67811e-05
5.72734e-05
4.67811e-05
6.67115e-05
6.24584e-05
6.69955e-05
6.24548e-05
4.67985e-05
5.72779e-05
6.27538e-05
6.69154e-05
4.67988e-05
6.77693e-05
2.15039e-05
2.15077e-05
2.1503e-05
6.76916e-05
2.15069e-05
6.69039e-05
4.67795e-05
5.72981e-05
6.2725e-05
4.6779e-05
6.26205e-05
6.71489e-05
6.71857e-05
4.67973e-05
5.72991e-05
6.2775e-05
6.26958e-05
4.67971e-05
6.72196e-05
2.35806e-05
2.35691e-05
2.35554e-05
2.35617e-05
6.80178e-05
2.14932e-05
2.14973e-05
6.79353e-05
2.14927e-05
2.14968e-05
6.73621e-05
6.35e-05
5.76008e-05
4.67718e-05
6.32806e-05
4.67711e-05
6.7524e-05
6.75381e-05
6.34417e-05
5.75659e-05
4.67951e-05
4.67944e-05
6.33291e-05
6.76872e-05
6.72142e-05
4.67757e-05
6.30163e-05
5.75497e-05
6.31094e-05
6.72269e-05
4.67727e-05
6.74317e-05
4.67978e-05
6.31551e-05
5.75326e-05
6.7432e-05
4.67962e-05
6.31425e-05
6.80571e-05
2.14888e-05
2.1493e-05
2.1489e-05
2.14931e-05
6.81498e-05
2.35556e-05
2.35619e-05
3.59994e-05
6.00052e-05
6.35783e-05
4.0141e-05
6.34499e-05
4.01405e-05
3.59948e-05
2.01671e-05
6.5393e-05
4.93184e-05
6.54641e-05
2.01683e-05
3.60006e-05
5.98989e-05
6.32337e-05
4.01521e-05
6.33669e-05
3.60094e-05
4.01546e-05
2.01621e-05
6.55625e-05
4.93025e-05
6.5514e-05
2.01609e-05
3.59938e-05
6.00739e-05
6.37067e-05
4.01413e-05
6.35311e-05
4.01406e-05
3.59941e-05
2.01653e-05
6.53039e-05
4.93052e-05
2.01662e-05
6.54121e-05
3.6004e-05
5.99517e-05
6.32722e-05
4.01518e-05
3.60039e-05
6.34529e-05
4.01543e-05
2.01595e-05
6.55175e-05
4.93019e-05
6.54354e-05
2.01582e-05
3.59884e-05
6.35681e-05
4.01327e-05
6.05381e-05
3.59888e-05
6.36915e-05
4.0129e-05
2.01516e-05
4.92885e-05
6.57321e-05
6.56781e-05
2.01511e-05
2.01559e-05
6.55919e-05
4.92951e-05
2.01565e-05
6.56563e-05
3.59801e-05
6.06232e-05
6.37452e-05
4.01222e-05
6.36405e-05
4.01246e-05
3.59787e-05
3.59855e-05
6.38511e-05
4.01336e-05
6.06879e-05
3.59867e-05
6.39932e-05
4.01309e-05
2.01489e-05
4.92816e-05
6.57299e-05
6.56649e-05
2.01484e-05
2.0153e-05
6.55582e-05
4.92835e-05
2.01537e-05
6.56123e-05
3.59821e-05
6.06464e-05
6.41136e-05
4.01244e-05
6.40269e-05
4.01266e-05
3.59815e-05
2.35763e-05
2.35677e-05
2.35735e-05
2.3563e-05
6.79819e-05
2.14957e-05
2.1493e-05
6.79156e-05
2.1495e-05
2.14923e-05
6.7174e-05
6.31924e-05
5.74958e-05
4.67806e-05
6.72169e-05
6.32297e-05
4.67815e-05
6.75154e-05
6.33284e-05
5.75062e-05
4.67771e-05
6.75945e-05
6.33434e-05
4.67763e-05
6.71959e-05
4.67829e-05
6.29646e-05
5.74747e-05
6.69596e-05
6.30093e-05
4.67832e-05
6.73274e-05
4.67775e-05
6.30269e-05
5.7453e-05
6.72817e-05
6.30708e-05
4.67779e-05
6.80163e-05
2.14905e-05
2.14879e-05
6.81e-05
2.1491e-05
2.14884e-05
2.35534e-05
2.35584e-05
2.35495e-05
2.35552e-05
2.35487e-05
2.35437e-05
2.35454e-05
2.35409e-05
6.82873e-05
2.14881e-05
2.14824e-05
2.14877e-05
2.14822e-05
6.8359e-05
6.80906e-05
6.38222e-05
4.67986e-05
5.77648e-05
6.79434e-05
4.67981e-05
6.41623e-05
6.75375e-05
6.35607e-05
4.67709e-05
5.77271e-05
6.74356e-05
4.67703e-05
6.37973e-05
6.8237e-05
2.14907e-05
2.14853e-05
6.81671e-05
2.14908e-05
2.14854e-05
6.81245e-05
4.67953e-05
5.77307e-05
6.43011e-05
4.67966e-05
6.84073e-05
6.4073e-05
6.766e-05
4.6768e-05
5.77232e-05
6.38094e-05
4.67685e-05
6.77514e-05
6.37642e-05
3.59737e-05
6.08881e-05
4.01103e-05
6.43141e-05
4.01119e-05
6.42447e-05
3.59729e-05
2.01476e-05
6.58238e-05
4.9291e-05
2.0148e-05
6.58865e-05
3.59767e-05
6.08635e-05
4.01211e-05
6.40159e-05
4.01167e-05
3.59778e-05
6.41588e-05
2.01435e-05
6.5899e-05
4.92804e-05
6.58839e-05
2.01429e-05
6.81737e-05
2.14816e-05
2.14839e-05
2.1481e-05
2.14833e-05
6.82809e-05
6.76196e-05
6.4037e-05
4.67859e-05
5.79905e-05
4.67867e-05
6.75297e-05
6.41254e-05
6.76562e-05
6.34702e-05
4.67914e-05
5.79287e-05
6.36563e-05
6.7531e-05
4.67908e-05
6.81689e-05
2.14839e-05
2.14861e-05
2.14841e-05
6.81106e-05
2.14863e-05
6.77228e-05
4.67875e-05
5.8034e-05
6.41741e-05
4.67858e-05
6.42249e-05
6.79065e-05
6.7697e-05
4.67847e-05
5.79829e-05
6.38264e-05
6.36029e-05
4.67798e-05
6.78604e-05
2.35564e-05
2.35524e-05
3.59953e-05
6.12522e-05
4.01193e-05
6.50869e-05
4.01199e-05
6.48786e-05
3.59965e-05
2.01578e-05
6.60121e-05
4.92947e-05
2.01576e-05
6.61151e-05
3.59972e-05
6.11511e-05
4.01233e-05
6.46405e-05
4.01223e-05
3.59972e-05
6.47831e-05
2.01544e-05
6.62374e-05
4.92918e-05
6.6157e-05
2.0155e-05
3.59765e-05
6.12905e-05
6.47045e-05
4.0115e-05
6.44624e-05
4.01169e-05
3.59768e-05
2.01497e-05
6.58381e-05
4.92931e-05
6.59077e-05
2.01498e-05
3.59791e-05
6.11365e-05
6.42746e-05
4.01291e-05
6.43844e-05
3.59796e-05
4.01232e-05
2.01461e-05
6.59918e-05
4.92856e-05
6.59539e-05
2.01461e-05
3.59873e-05
6.16181e-05
4.01208e-05
6.49476e-05
4.01229e-05
6.47863e-05
3.59886e-05
2.01521e-05
6.58786e-05
4.92862e-05
2.01522e-05
6.59354e-05
3.59886e-05
6.16191e-05
4.01293e-05
6.45113e-05
3.59878e-05
4.01266e-05
6.47154e-05
2.01486e-05
6.60105e-05
4.92801e-05
6.59816e-05
2.01485e-05
6.82457e-05
2.14827e-05
2.14869e-05
2.14822e-05
2.14864e-05
6.83451e-05
6.77005e-05
6.37221e-05
4.67712e-05
5.78626e-05
4.67698e-05
6.76667e-05
6.38039e-05
6.79425e-05
6.35614e-05
4.67961e-05
5.77235e-05
6.36915e-05
6.78309e-05
4.67911e-05
6.82311e-05
2.14854e-05
2.14896e-05
2.14854e-05
6.8172e-05
2.14896e-05
6.77824e-05
4.67734e-05
5.78301e-05
6.39955e-05
4.67657e-05
6.39249e-05
6.80908e-05
6.80672e-05
4.67925e-05
5.78189e-05
6.38339e-05
6.3582e-05
4.67948e-05
6.82286e-05
2.35486e-05
2.35438e-05
3.5971e-05
6.13964e-05
6.4268e-05
4.0115e-05
6.41198e-05
4.01155e-05
3.59707e-05
2.0147e-05
6.57885e-05
4.92784e-05
6.58503e-05
2.01472e-05
3.59738e-05
6.11579e-05
6.39116e-05
4.01187e-05
6.40072e-05
3.5975e-05
4.01176e-05
2.01435e-05
6.59484e-05
4.92758e-05
6.58992e-05
2.01436e-05
3.5977e-05
6.14789e-05
6.46817e-05
4.01174e-05
6.4591e-05
4.01174e-05
3.59776e-05
2.01445e-05
6.57504e-05
4.92679e-05
2.01445e-05
6.58313e-05
3.59788e-05
6.12451e-05
6.43336e-05
4.01205e-05
3.5979e-05
6.44186e-05
4.01195e-05
2.01405e-05
6.59247e-05
4.92649e-05
6.58289e-05
2.01409e-05
2.35452e-05
2.35411e-05
2.35423e-05
2.35371e-05
0.000180389
0.000180397
0.000158069
0.00017952
0.000179529
0.000197271
0.000197953
6.49633e-05
8.61062e-05
6.92243e-05
6.95679e-05
0.000177391
0.000177398
0.000154833
0.000176647
0.000176654
0.000194757
0.000195332
6.59868e-05
6.91634e-05
6.93583e-05
8.47149e-05
6.58321e-05
6.96458e-05
6.94627e-05
6.52922e-05
6.94958e-05
6.93834e-05
8.61813e-05
6.52104e-05
6.95562e-05
6.92959e-05
6.58276e-05
8.50393e-05
6.9706e-05
6.93999e-05
6.94492e-05
6.91997e-05
6.61031e-05
6.48522e-05
8.61769e-05
6.95033e-05
6.94682e-05
6.54107e-05
8.50615e-05
6.94117e-05
6.91369e-05
6.93834e-05
6.92561e-05
6.53228e-05
6.52406e-05
6.93001e-05
6.93104e-05
8.61804e-05
6.94848e-05
6.50987e-05
6.93322e-05
6.5853e-05
8.50144e-05
6.95136e-05
6.94458e-05
6.93863e-05
6.93334e-05
6.59977e-05
6.55411e-05
8.4949e-05
6.95807e-05
6.92363e-05
6.56346e-05
6.92099e-05
6.94434e-05
6.63341e-05
6.95104e-05
6.94073e-05
8.47751e-05
6.62179e-05
6.96155e-05
6.93864e-05
6.56651e-05
6.94625e-05
6.90032e-05
8.48219e-05
6.92483e-05
6.55433e-05
6.97846e-05
6.62947e-05
6.94194e-05
6.92927e-05
8.47719e-05
6.93184e-05
6.61912e-05
6.94057e-05
0.000180435
0.000180451
0.000158026
0.00017947
0.000179474
0.000197242
0.000197982
0.000180429
0.000180446
0.000158024
0.000179465
0.000179469
0.000197238
0.000197977
0.000180441
0.000180445
0.00015802
0.00017946
0.000179467
0.000197233
0.000197981
0.000157234
0.000178031
0.000178039
0.000178844
0.000178852
0.000196615
0.000195983
0.00015726
0.000177977
0.00017798
0.000178886
0.000178902
0.000196645
0.000195947
0.000157256
0.000177971
0.000177975
0.000178879
0.000178896
0.00019664
0.000195943
0.000157258
0.000177968
0.000177974
0.000178891
0.000178896
0.000196645
0.000195937
7.35855e-05
5.89771e-05
5.97834e-05
7.84355e-05
5.97797e-05
7.833e-05
7.36393e-05
6.64386e-05
6.02909e-05
5.94381e-05
6.32639e-05
6.32646e-05
6.02207e-05
6.66828e-05
7.35133e-05
5.9004e-05
7.82186e-05
5.98735e-05
7.82279e-05
5.96089e-05
7.35545e-05
6.65297e-05
6.30427e-05
5.98975e-05
5.92462e-05
6.64293e-05
6.29471e-05
6.0014e-05
7.36226e-05
5.87329e-05
7.84841e-05
5.93075e-05
7.3724e-05
7.84829e-05
5.96396e-05
6.63122e-05
6.02264e-05
5.92823e-05
6.29443e-05
6.30807e-05
6.00856e-05
6.6566e-05
6.511e-05
8.56828e-05
6.93028e-05
6.94939e-05
6.92692e-05
6.93644e-05
6.5276e-05
0.000177423
0.000177437
0.000154809
0.000176598
0.0001766
0.000194708
0.000195368
0.000177414
0.000177432
0.00015481
0.000176591
0.000176596
0.000194704
0.000195363
0.000177425
0.00017743
0.00015481
0.000176587
0.000176595
0.000194696
0.000195368
7.29277e-05
5.92736e-05
6.04588e-05
7.71316e-05
6.03949e-05
7.71447e-05
7.2957e-05
6.63911e-05
6.36477e-05
6.08262e-05
6.02436e-05
6.65423e-05
6.37206e-05
6.10796e-05
7.30563e-05
5.9099e-05
6.01599e-05
7.73719e-05
7.29567e-05
6.03477e-05
7.737e-05
6.66447e-05
6.12874e-05
6.02397e-05
6.3927e-05
6.37165e-05
6.10765e-05
6.66918e-05
7.28963e-05
5.95586e-05
7.71453e-05
6.03089e-05
7.71834e-05
6.01928e-05
7.29386e-05
6.63233e-05
6.3338e-05
6.07592e-05
6.0038e-05
6.63299e-05
6.33754e-05
6.08151e-05
7.30389e-05
5.94924e-05
7.74053e-05
6.00246e-05
7.29368e-05
7.74065e-05
6.01487e-05
6.63085e-05
6.10185e-05
6.01226e-05
6.33236e-05
6.34062e-05
6.09817e-05
6.62113e-05
6.56312e-05
8.43856e-05
6.95292e-05
6.91926e-05
6.92781e-05
6.93223e-05
6.58515e-05
6.54367e-05
8.57703e-05
6.9588e-05
6.91314e-05
6.5579e-05
6.93818e-05
6.93602e-05
6.56491e-05
8.53961e-05
6.94103e-05
6.94261e-05
6.57483e-05
6.96704e-05
6.92573e-05
7.35632e-05
5.89204e-05
5.97235e-05
7.83319e-05
5.96614e-05
7.83642e-05
7.35037e-05
6.64235e-05
6.30754e-05
5.99068e-05
5.92128e-05
6.00982e-05
6.64096e-05
6.34388e-05
7.37651e-05
5.88261e-05
5.93358e-05
7.85917e-05
5.94954e-05
7.37853e-05
7.86964e-05
6.62002e-05
6.0261e-05
5.93327e-05
6.34161e-05
6.00902e-05
6.31562e-05
6.65214e-05
7.35937e-05
5.90607e-05
5.99969e-05
7.83205e-05
5.98983e-05
7.83589e-05
7.36468e-05
6.66232e-05
6.31546e-05
6.0008e-05
5.93273e-05
6.64286e-05
6.01574e-05
6.3342e-05
7.37712e-05
5.88653e-05
5.96114e-05
7.85982e-05
7.38399e-05
5.97507e-05
7.8576e-05
6.63283e-05
6.02349e-05
5.94421e-05
6.32678e-05
6.0217e-05
6.65427e-05
6.32082e-05
7.3295e-05
5.97402e-05
7.80557e-05
5.8965e-05
7.33468e-05
5.99351e-05
7.79534e-05
6.63835e-05
6.36548e-05
5.98762e-05
6.0899e-05
6.35865e-05
6.06337e-05
6.66535e-05
6.62104e-05
6.0411e-05
6.35209e-05
5.97202e-05
6.34766e-05
6.63474e-05
6.05049e-05
7.31017e-05
5.89519e-05
5.99174e-05
7.76572e-05
5.98243e-05
7.77185e-05
7.31706e-05
7.34077e-05
6.00631e-05
7.82256e-05
5.9387e-05
7.33e-05
6.02863e-05
7.81518e-05
6.62906e-05
6.35885e-05
5.9978e-05
6.07998e-05
6.08826e-05
6.3643e-05
6.66381e-05
6.6507e-05
6.06195e-05
6.35196e-05
5.98959e-05
6.64971e-05
6.06538e-05
6.34704e-05
7.31505e-05
5.92672e-05
6.01464e-05
7.77824e-05
6.0159e-05
7.78565e-05
7.31306e-05
6.50788e-05
8.57419e-05
6.93699e-05
6.92872e-05
6.9173e-05
6.94681e-05
6.52593e-05
6.55582e-05
8.5437e-05
6.95579e-05
6.91838e-05
6.94725e-05
6.52458e-05
6.94272e-05
7.34517e-05
5.90823e-05
5.98647e-05
7.83233e-05
5.97572e-05
7.83565e-05
7.34994e-05
6.6553e-05
6.30096e-05
5.99181e-05
5.92432e-05
6.00619e-05
6.63955e-05
6.31535e-05
7.36834e-05
5.88655e-05
5.94362e-05
7.86218e-05
5.94092e-05
7.37217e-05
7.85946e-05
6.65634e-05
6.00031e-05
5.92502e-05
6.30593e-05
6.00968e-05
6.30533e-05
6.65742e-05
7.35939e-05
5.90628e-05
7.82617e-05
5.99406e-05
7.82908e-05
6.00066e-05
7.36376e-05
6.64771e-05
6.3097e-05
6.01775e-05
5.92725e-05
6.65091e-05
6.02074e-05
6.29931e-05
7.37949e-05
5.88949e-05
7.85317e-05
5.97156e-05
7.38896e-05
7.85638e-05
5.98144e-05
6.63425e-05
6.05492e-05
5.92845e-05
6.29794e-05
6.03417e-05
6.65849e-05
6.31517e-05
7.32619e-05
5.97537e-05
7.81729e-05
5.94498e-05
7.32879e-05
5.99801e-05
7.80915e-05
6.63508e-05
6.35978e-05
5.97972e-05
6.07268e-05
6.34395e-05
6.05802e-05
6.64918e-05
6.63859e-05
6.03919e-05
6.32893e-05
5.96623e-05
6.36314e-05
6.64795e-05
6.03646e-05
7.31033e-05
5.92694e-05
5.98963e-05
7.77943e-05
5.97863e-05
7.78462e-05
7.31688e-05
7.33092e-05
7.81334e-05
6.00415e-05
5.91598e-05
7.33435e-05
7.80989e-05
6.03263e-05
6.64091e-05
6.34201e-05
5.97969e-05
6.09552e-05
6.10016e-05
6.35304e-05
6.63343e-05
6.65147e-05
6.06546e-05
6.33555e-05
5.97405e-05
6.64288e-05
6.09248e-05
6.33649e-05
7.31277e-05
5.90859e-05
7.77651e-05
6.02124e-05
7.7793e-05
6.01703e-05
7.31781e-05
7.35248e-05
5.91229e-05
7.82582e-05
6.02044e-05
7.82539e-05
6.00523e-05
7.35176e-05
6.6324e-05
6.05905e-05
5.94238e-05
6.31296e-05
6.31338e-05
6.03187e-05
6.62787e-05
7.33406e-05
5.99325e-05
7.80189e-05
5.90889e-05
7.32459e-05
6.00218e-05
7.80816e-05
6.63695e-05
6.36005e-05
5.99765e-05
6.07828e-05
6.64647e-05
6.36837e-05
6.07822e-05
6.66269e-05
6.05741e-05
6.34762e-05
5.98109e-05
6.63858e-05
6.36039e-05
6.06672e-05
7.30637e-05
5.91843e-05
5.99732e-05
7.77132e-05
7.31044e-05
6.00498e-05
7.77369e-05
7.34796e-05
7.81412e-05
6.03231e-05
5.94688e-05
7.34173e-05
7.81435e-05
6.04675e-05
6.64416e-05
6.35579e-05
5.99047e-05
6.09622e-05
6.08723e-05
6.34647e-05
6.64529e-05
6.64319e-05
6.07023e-05
6.33375e-05
5.97169e-05
6.65692e-05
6.07844e-05
6.36065e-05
7.31087e-05
5.98212e-05
7.79121e-05
6.05777e-05
7.77951e-05
6.03512e-05
7.32366e-05
6.53857e-05
8.572e-05
6.93344e-05
6.93294e-05
6.92645e-05
6.92046e-05
6.52888e-05
6.55697e-05
8.53803e-05
6.93128e-05
6.9237e-05
6.95524e-05
6.55449e-05
6.91681e-05
7.34904e-05
5.90652e-05
7.82603e-05
5.98685e-05
7.82778e-05
5.97408e-05
7.35649e-05
6.63203e-05
6.29148e-05
5.99019e-05
5.92522e-05
6.29269e-05
6.63895e-05
6.00653e-05
7.37235e-05
5.89005e-05
7.85188e-05
5.95751e-05
7.84645e-05
7.38609e-05
5.95879e-05
6.65657e-05
6.02976e-05
5.92891e-05
6.31078e-05
6.30732e-05
6.00436e-05
6.65557e-05
7.32871e-05
7.80682e-05
5.99071e-05
5.91851e-05
7.32107e-05
7.79956e-05
5.99187e-05
6.64681e-05
6.35095e-05
5.98015e-05
6.09767e-05
6.67176e-05
6.33613e-05
6.06382e-05
6.6225e-05
6.04598e-05
6.32598e-05
5.97726e-05
6.63021e-05
6.32917e-05
6.06059e-05
7.3046e-05
5.921e-05
7.76879e-05
5.99481e-05
7.31032e-05
7.77305e-05
5.99502e-05
7.33316e-05
7.81199e-05
6.00206e-05
5.94391e-05
7.32915e-05
7.80649e-05
6.01956e-05
6.6382e-05
6.37032e-05
5.97109e-05
6.06796e-05
6.05869e-05
6.33372e-05
6.6373e-05
6.66056e-05
6.04146e-05
6.33006e-05
5.95545e-05
6.63827e-05
6.05697e-05
6.33484e-05
7.31538e-05
5.92572e-05
7.77763e-05
6.04534e-05
7.77481e-05
6.00635e-05
7.32847e-05
6.55752e-05
8.53764e-05
6.92531e-05
6.9221e-05
6.52902e-05
6.93309e-05
6.95086e-05
6.6262e-05
8.44394e-05
6.95288e-05
6.9524e-05
6.66127e-05
6.94193e-05
6.92394e-05
7.29236e-05
5.92113e-05
6.04369e-05
7.71514e-05
6.02128e-05
7.71403e-05
7.29729e-05
6.64527e-05
6.37287e-05
6.08963e-05
6.0133e-05
6.10806e-05
6.64243e-05
6.37537e-05
7.30626e-05
5.92812e-05
6.01295e-05
7.74107e-05
6.02773e-05
7.29664e-05
7.74026e-05
6.65551e-05
6.12976e-05
6.02661e-05
6.36356e-05
6.09589e-05
6.36594e-05
6.6666e-05
7.29307e-05
5.97888e-05
6.06428e-05
7.72583e-05
6.06902e-05
7.72637e-05
7.30354e-05
6.66469e-05
6.38143e-05
6.10985e-05
6.03198e-05
6.64874e-05
6.10941e-05
6.37775e-05
7.30749e-05
5.97516e-05
6.05217e-05
7.76228e-05
7.30485e-05
6.05264e-05
7.75405e-05
6.64357e-05
6.12153e-05
6.02923e-05
6.37701e-05
6.11079e-05
6.6651e-05
6.36886e-05
6.58331e-05
8.4442e-05
6.96616e-05
6.93452e-05
6.91672e-05
6.94273e-05
6.60728e-05
7.2964e-05
5.96865e-05
6.06679e-05
7.72039e-05
6.0342e-05
7.72321e-05
7.3013e-05
6.64497e-05
6.34465e-05
6.08384e-05
6.00204e-05
6.09217e-05
6.63737e-05
6.34604e-05
7.31041e-05
5.93961e-05
6.0254e-05
7.76212e-05
6.04563e-05
7.29958e-05
7.7521e-05
6.64554e-05
6.09804e-05
6.00801e-05
6.33734e-05
6.10011e-05
6.34128e-05
6.65648e-05
7.29365e-05
5.94598e-05
7.72195e-05
6.07084e-05
7.72478e-05
6.05865e-05
7.29837e-05
6.65368e-05
6.36325e-05
6.10971e-05
6.0114e-05
6.65207e-05
6.10887e-05
6.35403e-05
7.30907e-05
5.93112e-05
7.75633e-05
6.05134e-05
7.2988e-05
7.74493e-05
6.04803e-05
6.63808e-05
6.15714e-05
6.01631e-05
6.3411e-05
6.14917e-05
6.62261e-05
6.34383e-05
7.2923e-05
5.96335e-05
7.72977e-05
6.10141e-05
7.73223e-05
6.08227e-05
7.30096e-05
6.65829e-05
6.3506e-05
6.11127e-05
6.01913e-05
6.37089e-05
6.65422e-05
6.10866e-05
7.30719e-05
5.98612e-05
7.77045e-05
6.08309e-05
7.76764e-05
7.30187e-05
6.07183e-05
6.64709e-05
6.12333e-05
6.01225e-05
6.36466e-05
6.35118e-05
6.1054e-05
6.6333e-05
6.63152e-05
8.44116e-05
6.92747e-05
6.9515e-05
6.93929e-05
6.94437e-05
6.6585e-05
7.30073e-05
5.9989e-05
7.72131e-05
6.05962e-05
7.71915e-05
6.06275e-05
7.30299e-05
6.6583e-05
6.33729e-05
6.08029e-05
6.00433e-05
6.34259e-05
6.65696e-05
6.09677e-05
7.31623e-05
5.96953e-05
7.75573e-05
6.04834e-05
7.75204e-05
7.30703e-05
6.0545e-05
6.62755e-05
6.09443e-05
6.00035e-05
6.34679e-05
6.32505e-05
6.08807e-05
6.6134e-05
0.000233968
0.000233514
0.000233535
0.000233434
0.000232519
0.000227388
0.000227488
0.000223677
0.000230461
0.000220019
0.000220028
0.000208846
0.000227707
0.000211392
0.000211392
0.000193521
0.000224316
0.000202381
0.000202399
0.000179496
0.000220422
0.000193516
0.000193544
0.000167181
0.000216172
0.000185047
0.000185074
0.000156524
0.000211691
0.000177036
0.000177059
0.000147214
0.000207082
0.000169515
0.000169536
0.00013902
0.000202427
0.000162459
0.000162478
0.000131742
0.000197778
0.000155814
0.00015583
0.000124966
0.000193172
0.000149526
0.000149538
0.000118905
0.00018859
0.000143553
0.00014356
0.000113227
0.000184074
0.000137842
0.000137843
0.000107934
0.00017965
0.000132355
0.000132352
0.00010301
0.000175303
0.000127082
0.000127079
9.83444e-05
0.000171027
0.000122072
0.000122067
9.41526e-05
0.000166837
0.000117428
0.000117427
9.06887e-05
0.000162788
0.000113308
0.000113306
8.80121e-05
0.000109814
8.60694e-05
0.000234266
0.000234466
0.000234468
0.000234265
0.000234468
0.000234466
0.00023426
0.000234262
0.00023426
0.00023426
0.000234482
0.000234465
0.000234265
0.000234463
0.000234467
0.000234263
0.000233424
0.000226082