/*--------------------------------*- C++ -*----------------------------------*\
| =========                 |                                                 |
| \\      /  F ield         | OpenFOAM: The Open Source CFD Toolbox           |
|  \\    /   O peration     | Version:  2312                                  |
|   \\  /    A nd           | Website:  www.openfoam.com                      |
|    \\/     M anipulation  |                                                 |
\*---------------------------------------------------------------------------*/
FoamFile
{
    version     2.0;
    format      ascii;
    arch        "LSB;label=32;scalar=64";
    class       surfaceScalarField;
    location    "100";
    object      phi;
}
// * * * * * * * * * * * * * * * * * * * * * * * * * * * * * * * * * * * * * //

dimensions      [0 3 -1 0 0 0 0];

oriented        oriented;

internalField   nonuniform List<scalar> 
124832
(
-7.11856e-07
-7.20217e-07
3.75284e-07
3.74234e-07
0.00113987
-0.00113919
-1.4677e-06
7.12307e-07
3.59114e-07
0.00113268
-4.85408e-07
1.13889e-06
1.67189e-07
7.67791e-07
-5.44348e-07
-1.21754e-06
1.09721e-07
-0.00113222
-5.63521e-07
-5.65162e-07
-0.00114167
2.95674e-07
2.95312e-07
0.00114221
-0.001134
-1.43262e-06
5.66498e-07
2.75715e-07
0.00113433
-4.44959e-07
1.17467e-06
2.01839e-07
8.14712e-07
-4.90805e-07
-1.1612e-06
1.57393e-07
-0.00113388
-1.43081e-06
5.64092e-07
2.81825e-07
0.00113421
-4.46713e-07
1.17114e-06
2.00214e-07
8.16068e-07
-4.89778e-07
-1.16056e-06
1.59961e-07
-0.000276231
1.46093e-06
1.42506e-06
-4.14011e-07
-4.16266e-07
0.000274175
1.51065e-06
1.47074e-06
-4.55493e-07
-4.63322e-07
0.000274078
-0.00027614
-1.20843e-06
-1.16634e-06
0.000276299
-0.000274198
1.3406e-07
1.39975e-07
3.51018e-07
0.00113226
-4.88328e-07
1.18159e-06
1.69764e-07
7.73339e-07
-5.4398e-07
-1.2226e-06
1.09101e-07
-0.00113179
7.07115e-07
3.50013e-07
0.00113233
1.17936e-06
1.73383e-07
7.72709e-07
-5.44753e-07
-1.22272e-06
1.08324e-07
-0.00113186
-1.5049e-06
-4.87888e-07
0.00113345
6.01461e-07
-0.0011331
3.11733e-07
-1.48275e-06
2.00591e-07
-4.61936e-07
-1.18014e-06
1.46854e-07
-5.03903e-07
8.09251e-07
1.20346e-06
0.00113352
6.01916e-07
-0.00113316
3.01358e-07
-1.47972e-06
1.9825e-07
-4.58246e-07
-1.18062e-06
1.4599e-07
-5.04317e-07
8.08436e-07
-1.16638e-06
0.000276285
-0.000274187
1.34482e-07
1.37272e-07
3.47749e-07
0.00113325
-4.85337e-07
1.14194e-06
1.67449e-07
7.72745e-07
-5.44559e-07
-1.22311e-06
1.0912e-07
-0.00113278
-1.5018e-06
7.14674e-07
3.48435e-07
0.00113222
-4.90428e-07
1.17443e-06
1.73807e-07
7.71897e-07
-5.45172e-07
-1.22395e-06
1.05235e-07
-0.00113174
0.00113445
6.03331e-07
-0.00113408
2.97712e-07
-1.44234e-06
1.92912e-07
-4.55786e-07
-1.18083e-06
1.46676e-07
-5.04788e-07
8.08733e-07
1.19878e-06
0.00113342
6.03133e-07
-0.00113305
2.98969e-07
-1.47363e-06
1.98659e-07
-4.61521e-07
-1.1816e-06
1.42891e-07
-5.02637e-07
8.08166e-07
6.0435e-07
-0.00113363
3.03748e-07
-1.4419e-06
1.94007e-07
-4.54614e-07
-1.17574e-06
1.45216e-07
8.02601e-07
-5.05112e-07
1.19625e-06
0.00113304
6.03456e-07
-0.00113267
2.9889e-07
-1.47068e-06
1.96089e-07
-4.58389e-07
-1.17298e-06
1.3952e-07
-4.99473e-07
7.99346e-07
-4.58225e-07
-4.62846e-07
0.000274057
-0.000276106
-1.15996e-06
0.000276261
-0.000274177
1.33999e-07
1.40397e-07
6.13121e-07
1.70308e-07
0.00113275
1.09784e-06
1.55322e-07
7.70127e-07
-5.42028e-07
1.0907e-07
-1.22013e-06
-1.53545e-06
-0.00113187
-4.96702e-07
6.01474e-07
-0.00113351
2.99167e-07
-1.43736e-06
1.91734e-07
-4.56656e-07
-1.17437e-06
1.4776e-07
8.04316e-07
-5.03641e-07
1.1579e-06
0.00113402
6.01047e-07
-0.00113365
2.99038e-07
-1.43471e-06
1.92348e-07
-4.56964e-07
-1.17746e-06
1.47094e-07
-5.04326e-07
8.0643e-07
-0.000274148
1.34111e-07
1.37635e-07
1.47607e-06
1.4331e-06
-4.13966e-07
-4.19033e-07
0.000274222
2.72534e-07
0.00113379
-4.54782e-07
1.21694e-06
2.0904e-07
8.21414e-07
-4.90014e-07
-1.16636e-06
1.59269e-07
-1.4705e-06
5.64251e-07
2.84415e-07
0.00113386
-4.51425e-07
1.21179e-06
2.06286e-07
8.2092e-07
-4.90313e-07
-1.16615e-06
1.55707e-07
-4.13711e-07
-4.16046e-07
0.000274211
2.8014e-07
0.00113479
-4.45922e-07
1.17486e-06
2.0142e-07
8.21083e-07
-4.90989e-07
-1.16655e-06
1.59141e-07
-1.46436e-06
5.64762e-07
2.81392e-07
0.00113375
-4.51509e-07
1.20695e-06
2.06835e-07
8.20675e-07
-4.88745e-07
-1.16684e-06
1.55369e-07
5.65271e-07
2.80717e-07
0.00113337
-4.48158e-07
1.20505e-06
2.04691e-07
8.11619e-07
-4.85688e-07
1.51796e-07
-1.15874e-06
-4.14766e-07
-4.18349e-07
0.000274199
5.6273e-07
2.80117e-07
0.00113436
-4.46646e-07
1.16644e-06
2.01515e-07
8.18595e-07
-4.90909e-07
1.59567e-07
-1.16316e-06
2.94429e-10
6.30896e-08
0.000238024
-0.000238062
-1.21231e-08
-1.29759e-08
-5.57915e-09
1.39777e-07
-1.24318e-08
0.000197947
-0.000198068
4.65842e-10
2.49709e-07
0.000238236
-9.8688e-08
-1.57633e-08
-0.000238372
1.31529e-08
1.60213e-08
0.000197756
4.66298e-09
-0.00019779
-1.36538e-08
3.57494e-09
9.91055e-05
-9.90954e-05
6.37153e-08
-1.11746e-09
0.000238
-0.00023804
-1.22928e-08
-1.02316e-08
-5.89424e-09
1.39564e-07
-1.17152e-08
0.000197928
-0.00019805
2.49623e-07
-5.24381e-10
0.000238217
-1.5528e-08
-9.67587e-08
-0.000238354
1.35956e-08
1.58732e-08
0.000197737
4.88901e-09
-0.000197772
3.80619e-07
3.52756e-07
0.00113963
-7.14303e-07
-0.00113894
3.74228e-07
4.03009e-07
0.00113945
-0.0011388
3.24603e-07
3.47373e-07
0.00113938
-8.79721e-07
-0.00113856
-0.00114111
3.25671e-07
3.19801e-07
0.00114146
-0.00114089
3.21415e-07
3.2011e-07
0.00114125
-0.00114069
3.18931e-07
3.20708e-07
0.00114121
-0.00114065
3.18847e-07
3.20526e-07
-6.25734e-08
-2.94685e-09
0.000261746
-0.000261649
-2.3529e-08
-8.90294e-09
3.27001e-07
1.14988e-06
0.00113323
6.78116e-07
-1.20421e-06
1.2007e-07
-5.31774e-07
7.78244e-07
-1.46092e-06
1.77066e-07
-4.74569e-07
-0.00113279
8.78203e-09
-1.6546e-08
0.000254425
1.86846e-08
-0.000254436
3.2941e-10
-1.83084e-08
0.00113312
7.17551e-07
-1.2992e-06
6.36209e-07
-1.1229e-06
8.31474e-07
-0.00113254
5.97491e-09
6.4902e-08
9.91311e-05
-9.9202e-05
-1.35444e-08
6.06718e-09
9.90754e-05
-9.90679e-05
-1.07654e-09
-6.28385e-08
0.000261743
-0.000261649
-6.93032e-09
-2.30639e-08
0.00113241
5.16613e-08
7.52099e-07
8.21687e-07
-1.13693e-06
-1.3135e-06
6.23313e-07
-0.00113185
-6.86966e-08
-1.39458e-07
3.08873e-07
6.93066e-08
0.000254614
-0.000254784
3.43197e-07
1.14396e-06
0.00113311
6.75904e-07
-1.20345e-06
1.22439e-07
-5.30549e-07
7.79575e-07
-1.45865e-06
1.75184e-07
-4.76142e-07
1.08235e-09
-2.49777e-07
0.000261743
4.67823e-07
-2.74483e-08
-0.000261935
1.77627e-08
0.00113296
7.15372e-07
-1.2986e-06
6.39721e-07
-1.11927e-06
8.35199e-07
8.14388e-09
-1.5529e-08
0.000254423
1.93398e-08
-0.000254436
9.7673e-10
-1.18486e-06
-1.13581e-06
0.000276165
-0.000274073
1.0854e-07
1.20128e-07
-7.72652e-09
-5.10685e-09
0.000285655
2.04233e-08
-0.000285706
4.34668e-08
-6.64563e-09
-4.77743e-09
0.000285569
2.04289e-08
-0.000285621
4.29959e-08
-5.63838e-10
1.2054e-08
-0.000237501
1.29392e-08
-1.06683e-08
-0.000197497
-4.87955e-09
1.12164e-07
-7.96647e-09
0.000197398
-0.00023773
-1.83787e-11
1.94911e-07
0.000237622
-7.25428e-08
-1.4324e-08
1.24654e-08
-1.01007e-08
6.99045e-09
-0.000197292
-9.90026e-05
6.17712e-09
5.26349e-08
9.89438e-05
-1.24217e-08
-6.6119e-09
-9.89037e-05
1.39206e-08
-1.02455e-09
-0.000237462
-9.64096e-09
1.27682e-08
-0.000197471
-5.84065e-09
1.12112e-07
-8.10762e-09
0.000197373
-0.000237697
1.95757e-07
-7.87425e-10
0.000237588
-1.34721e-08
-7.16855e-08
1.31892e-08
-1.00421e-08
7.01018e-09
-0.000197265
3.02847e-07
3.01515e-07
0.00114198
3.00094e-07
3.01861e-07
0.00114178
2.99657e-07
3.01444e-07
0.00114174
-1.31574e-08
-1.27345e-09
-0.000261306
-1.93109e-08
-6.79624e-08
-0.000254096
-5.61266e-08
-1.14777e-07
2.6506e-07
5.34726e-08
0.000253948
0.00113458
-0.00113414
3.1471e-09
6.00556e-07
8.74924e-07
-1.07202e-06
-1.25027e-06
6.8226e-07
2.71236e-07
1.183e-06
5.28082e-07
-1.14666e-06
1.69513e-07
-4.77218e-07
8.27301e-07
-1.42292e-06
2.09789e-07
-4.35317e-07
-0.000261571
-1.94572e-07
5.11508e-10
0.000261387
-2.27035e-08
4.00673e-07
2.15109e-08
1.10008e-08
2.22474e-09
-0.000253806
-3.80956e-08
-2.76582e-09
5.6175e-07
-1.23785e-06
6.93633e-07
-1.05901e-06
8.85915e-07
-9.89737e-05
4.97422e-09
5.33449e-08
9.89153e-05
-1.42426e-08
-5.2658e-09
-9.88772e-05
-1.54121e-09
-1.29433e-08
-0.000261288
-6.72424e-08
-1.64069e-08
0.00113442
-0.00113397
4.67177e-09
5.98645e-07
8.7648e-07
-1.07515e-06
-1.25153e-06
6.79001e-07
-0.000254098
-5.68632e-08
-1.11472e-07
2.61243e-07
5.38134e-08
0.000253952
2.65101e-07
1.17975e-06
5.26143e-07
-1.14611e-06
1.71717e-07
-4.76068e-07
8.28071e-07
-1.4208e-06
2.05525e-07
-4.36589e-07
-0.000261562
-1.51022e-10
-1.94953e-07
0.000261376
4.01422e-07
-1.99589e-08
-2.19949e-09
5.60181e-07
-1.23683e-06
6.95725e-07
-1.05703e-06
8.89908e-07
2.12204e-08
1.01229e-08
2.24931e-09
-0.00025381
-3.72787e-08
-0.000285287
5.75682e-08
-5.25262e-08
1.42189e-07
-1.31343e-08
0.000285153
-0.000285199
5.89483e-08
-5.14773e-08
1.36994e-07
-1.39144e-08
0.000285069
-1.21418e-06
-1.17532e-06
-0.000274195
1.54366e-07
1.59294e-07
-2.04106e-08
6.0619e-09
2.3155e-08
-0.000285003
8.39142e-09
-1.91079e-08
7.14246e-09
2.34591e-08
-0.000284914
1.30968e-08
6.70336e-08
9.91544e-05
-9.92271e-05
5.57349e-09
9.91005e-05
-9.90929e-05
6.51266e-08
9.91425e-05
-9.92135e-05
5.78003e-09
9.90847e-05
-9.90768e-05
7.10758e-08
1.72315e-07
-1.51454e-08
0.000285986
-0.000286147
6.90483e-08
1.75209e-07
-1.49204e-08
0.000285896
-0.00028606
0.000276232
-1.18945e-06
-1.14988e-06
-0.000274124
1.11251e-07
1.19662e-07
0.000285721
-5.78626e-09
2.41525e-08
-0.000285774
4.024e-08
0.000285631
-5.42022e-09
2.11223e-08
-0.000285682
4.11442e-08
-2.76697e-10
-1.23545e-08
9.89951e-05
-9.89824e-05
5.8815e-08
6.45235e-09
9.90352e-05
-4.23448e-12
-1.32359e-08
9.89807e-05
-9.89675e-05
5.94159e-08
5.9562e-09
9.90193e-05
1.4924e-06
1.45217e-06
0.000274163
-4.3348e-07
-4.41477e-07
-1.48938e-08
0.00028536
2.36464e-08
-0.000285391
2.19348e-08
-1.21826e-08
0.000285267
2.43177e-08
-0.000285301
2.25622e-08
6.18067e-08
-1.6531e-08
1.58354e-07
0.000285576
6.2127e-08
-1.43487e-08
1.59219e-07
0.000285483
6.31916e-08
0.000237975
-0.000238013
-1.22617e-08
-1.22426e-08
1.41129e-07
-1.28932e-08
0.000197901
-4.91032e-09
-0.000198024
2.49894e-07
0.000238186
-9.86868e-08
-1.52697e-08
-0.000238322
1.32262e-08
0.000197717
4.81604e-09
-0.000197748
-1.59376e-09
0.00026179
-0.000261692
-2.38605e-08
-9.86619e-09
3.11276e-07
6.96907e-08
0.00025463
-0.0002548
0.00113283
3.62531e-09
7.5146e-07
8.27817e-07
-1.14199e-06
-1.31868e-06
6.32373e-07
-0.00113223
3.34883e-07
0.00113269
6.75335e-07
-1.50147e-06
1.80861e-07
-4.78908e-07
-1.2086e-06
1.21652e-07
-5.30925e-07
7.85208e-07
1.46543e-10
0.000261782
-2.68272e-08
4.67105e-07
-0.000261973
0.000254438
1.90736e-08
-0.000254445
-1.09329e-09
-3.78037e-09
0.0011334
7.09535e-07
-1.30399e-06
6.45904e-07
-1.12714e-06
8.41051e-07
0.00026174
-0.000261645
-2.32711e-08
-9.36827e-09
3.11063e-07
6.92239e-08
0.000254514
-0.000254682
-7.08333e-08
0.00113277
7.46686e-07
8.26997e-07
-1.14231e-06
-1.31877e-06
6.31748e-07
-0.00113216
3.34932e-07
0.00113276
1.18708e-06
6.76033e-07
-1.20891e-06
1.20967e-07
7.84234e-07
-5.31193e-07
-1.49859e-06
1.81523e-07
-4.80779e-07
0.000261738
-2.88458e-08
4.67444e-07
-0.000261927
0.000254319
8.19656e-09
1.92629e-08
-0.000254332
-9.16172e-10
0.00113334
7.1046e-07
-1.304e-06
6.45374e-07
-1.12744e-06
8.40326e-07
1.5025e-10
2.22981e-07
-8.58332e-08
-1.55185e-08
0.000237902
3.42967e-09
-0.000197519
6.21534e-09
1.25771e-07
-1.21509e-08
0.000197649
-2.3905e-10
3.69917e-08
-0.000237756
7.30451e-10
-1.16873e-08
2.22585e-07
-8.57833e-08
-1.52974e-08
0.000237853
3.2549e-09
1.26121e-08
0.000197446
-0.000197469
7.0018e-09
1.27491e-07
-5.93923e-09
-9.45648e-09
0.000197605
3.71764e-08
0.00023768
-0.000237706
3.44371e-10
-1.19791e-08
2.65506e-10
-2.38187e-08
4.34116e-07
0.000261603
3.1263e-07
6.39619e-07
1.19764e-06
-4.72042e-07
1.89294e-07
7.96815e-07
-5.17885e-07
1.33813e-07
-1.19501e-06
0.000254114
-2.03398e-08
-0.000254116
1.0793e-08
-0.00113392
-3.84936e-09
0.00113442
6.37268e-07
-1.27279e-06
6.71344e-07
-1.09261e-06
8.68512e-07
5.98113e-08
2.87873e-07
0.000254277
3.40457e-09
6.77102e-07
8.54807e-07
-1.10877e-06
-1.28845e-06
6.57214e-07
-1.75773e-09
0.000261617
-0.000261517
-2.193e-08
-3.94244e-08
-2.64224e-08
4.33991e-07
0.000261555
3.18225e-07
-1.48939e-06
6.39879e-07
7.96279e-07
-5.18298e-07
-1.19503e-06
1.33168e-07
1.19539e-06
-4.68471e-07
1.87148e-07
1.20832e-08
0.000253992
-1.96881e-08
-0.000253993
1.12185e-08
-0.00113387
0.00113435
6.38226e-07
-1.27281e-06
6.71184e-07
-1.0926e-06
8.67786e-07
-6.40404e-08
6.2274e-08
2.87943e-07
0.00025416
6.77772e-07
8.54152e-07
-1.10878e-06
-1.28842e-06
6.57027e-07
0.000261563
-0.000261467
-2.13928e-08
-3.92075e-08
0.00027622
-0.000274115
1.14138e-07
1.17032e-07
0.000285579
2.09795e-08
-0.000285631
4.34396e-08
-6.74458e-09
0.000285716
2.27868e-08
-0.000285765
4.1925e-08
9.91168e-05
-1.39037e-08
-9.91097e-05
4.58602e-11
-9.89901e-05
6.11867e-08
9.90383e-05
1.45171e-06
0.000274154
-4.36268e-07
-4.38147e-07
0.000285223
2.42637e-08
-0.000285258
2.20016e-08
1.78545e-09
-1.53533e-08
0.000285345
2.51793e-08
-0.000285381
2.42992e-08
-1.46509e-08
1.58476e-07
0.000285432
-5.92704e-08
6.36105e-08
-1.28589e-08
1.59527e-07
0.000285565
-1.3803e-08
9.90168e-05
-9.90012e-05
5.2327e-09
9.90523e-05
-2.50138e-09
0.000261757
-0.000261661
-2.17641e-08
-8.09769e-09
3.09331e-07
6.94495e-08
0.000254587
-0.000254757
0.00113268
2.80231e-09
7.59271e-07
8.26756e-07
-1.14047e-06
-1.31917e-06
6.2792e-07
-0.00113209
3.31676e-07
0.00113368
6.77851e-07
-1.4613e-06
1.75682e-07
-4.75764e-07
-1.20926e-06
1.21441e-07
-5.31364e-07
7.84634e-07
9.66413e-10
0.000261757
-2.67137e-08
4.68485e-07
-0.00026195
0.000254396
1.87638e-08
-0.000254406
2.03783e-09
-4.56609e-09
0.00113324
7.17647e-07
-1.30452e-06
6.41318e-07
-1.12589e-06
8.4005e-07
6.3665e-08
0.000237948
-0.000237989
-1.08349e-08
-1.35036e-08
1.39376e-07
-1.1783e-08
0.000197873
-0.000197994
2.49457e-07
0.000238166
-9.70717e-08
-1.59073e-08
-0.000238303
1.59244e-08
0.000197682
4.93221e-09
-0.000197717
0.000261722
-0.000261629
-8.34025e-09
-2.36463e-08
0.00113263
7.54509e-07
8.25797e-07
-1.1403e-06
-1.3202e-06
6.28304e-07
-0.00113203
-7.07148e-08
3.07288e-07
6.824e-08
0.000254501
-0.000254666
3.32343e-07
0.00113264
1.18256e-06
6.88798e-07
-1.20975e-06
1.17726e-07
7.83799e-07
-5.29009e-07
-1.49247e-06
1.81934e-07
-4.81053e-07
0.000261724
4.68231e-07
-2.9192e-08
-0.000261912
0.00113319
7.23598e-07
-1.30552e-06
6.41709e-07
-1.12564e-06
8.38927e-07
0.000254304
9.16887e-09
1.75484e-08
-0.000254319
5.07825e-09
2.23532e-07
-7.71501e-10
-1.50647e-08
-8.40003e-08
0.000237876
3.59609e-09
-0.000197494
6.17311e-09
1.25807e-07
-9.41328e-09
0.000197627
3.81876e-08
-1.23727e-09
-0.000237725
-1.06796e-08
1.64711e-09
1.05923e-09
-2.32465e-08
4.36202e-07
0.000261567
3.14774e-07
6.41458e-07
1.1582e-06
-4.66231e-07
1.84385e-07
7.96436e-07
-5.18298e-07
1.33925e-07
-1.19536e-06
0.000254072
-1.71616e-08
-0.000254074
1.03707e-08
-0.00113376
-4.8198e-09
0.00113426
6.40514e-07
-1.27362e-06
6.69361e-07
-1.09436e-06
8.67138e-07
6.20855e-08
2.8653e-07
0.000254235
2.42416e-09
6.85376e-07
8.53592e-07
-1.11046e-06
-1.28914e-06
6.55401e-07
-2.4035e-09
0.000261572
-0.000261472
-1.93547e-08
-3.97322e-08
2.23552e-07
-8.44642e-08
-1.58551e-08
0.000237824
3.47496e-09
1.42209e-08
0.000197418
-0.00019744
5.00064e-09
1.25763e-07
-5.81902e-09
-9.73634e-09
0.000197572
3.8647e-08
0.000237644
-0.000237672
1.08639e-09
-1.26544e-08
4.36e-07
-2.55905e-08
0.000261537
3.09942e-07
-1.48312e-06
6.41544e-07
7.95717e-07
-5.16299e-07
-1.19605e-06
1.30054e-07
1.19082e-06
-4.71283e-07
1.90278e-07
-0.00113371
0.00113419
6.40814e-07
-1.27465e-06
6.69775e-07
-1.09421e-06
8.66387e-07
1.60815e-08
0.000253977
-1.44734e-08
-0.000253984
9.52305e-09
6.85629e-07
8.52572e-07
-1.11019e-06
-1.2902e-06
6.55805e-07
-6.35656e-08
6.11264e-08
2.84513e-07
0.000254147
0.00026154
-0.000261443
-3.99007e-08
-2.03662e-08
6.76139e-10
0.000237982
-0.000238022
-1.2914e-08
-9.38892e-09
0.000197757
3.7501e-09
-0.000197791
-6.3427e-08
0.000261711
-0.000261618
-8.16078e-09
-2.36836e-08
3.49355e-07
0.00113227
6.8375e-07
-1.48995e-06
1.81733e-07
-4.78521e-07
-1.20391e-06
1.1781e-07
-5.31161e-07
7.7538e-07
-0.00113186
0.00113304
7.18417e-07
-1.29931e-06
6.3847e-07
-1.12302e-06
8.33535e-07
-0.00113247
-1.56309e-08
0.000254353
1.87245e-08
-0.000254369
4.66536e-09
0.000237954
-0.000237993
-1.17059e-08
-1.25711e-08
0.000197691
1.19687e-08
6.33079e-09
-0.000197725
-2.21791e-07
2.46215e-11
-2.47213e-08
4.34774e-07
0.000261558
3.09649e-07
6.4179e-07
1.1582e-06
-4.64859e-07
1.85665e-07
7.90174e-07
-5.1885e-07
-1.19009e-06
1.32375e-07
-2.21621e-09
-1.83135e-08
-0.000254101
1.03655e-08
-0.00113364
-5.78604e-09
6.40323e-07
-1.26855e-06
6.65053e-07
8.58537e-07
-1.09071e-06
-1.26079e-07
6.16501e-08
2.89056e-07
0.000254264
-2.06432e-09
6.79571e-07
8.47604e-07
-1.10436e-06
-1.28103e-06
6.53375e-07
-3.69082e-08
-2.76715e-09
-0.000261471
-2.19017e-08
-3.84797e-08
4.01993e-10
-1.55562e-08
-8.7149e-08
0.000237862
0.000197493
-0.000197514
4.89738e-09
-1.07006e-08
0.000197647
3.83315e-11
0.000237688
-0.000237715
-1.24628e-08
2.8104e-09
-2.23094e-07
4.35891e-07
-2.60361e-08
0.000261524
3.21625e-07
-1.48309e-06
6.41472e-07
7.87184e-07
-5.15415e-07
-1.18741e-06
1.27123e-07
1.19056e-06
-4.71302e-07
1.90324e-07
-0.00113357
0.00113405
6.4146e-07
-1.26883e-06
6.67105e-07
-1.09113e-06
8.60539e-07
-3.82944e-09
1.41495e-08
0.000254029
-1.85996e-08
-0.000254031
1.0197e-08
6.80953e-07
8.47077e-07
-1.10755e-06
-1.28422e-06
6.52651e-07
-1.25171e-07
-6.48422e-08
6.19177e-08
2.86145e-07
0.000254195
-3.79355e-08
0.000261525
-0.000261433
-3.50754e-08
-2.16843e-08
-8.51561e-08
-1.54175e-08
0.000237832
1.23466e-08
0.000197427
-0.00019745
6.21908e-09
-7.27541e-09
-8.03152e-09
0.000197581
0.000237656
-0.000237683
5.94787e-10
-1.1787e-08
1.70975e-07
-1.45441e-08
0.00028583
-0.000285992
-6.47616e-08
1.72083e-07
-1.55083e-08
0.000285978
-0.000286139
0.000276197
-0.000274104
1.1411e-07
1.20065e-07
0.000285559
2.36327e-08
-0.000285613
4.62217e-08
-5.07026e-09
0.000285709
2.22065e-08
-0.000285761
4.23405e-08
6.39055e-09
9.91521e-05
-9.92233e-05
9.90959e-05
-1.2196e-08
-9.90888e-05
4.97941e-10
-9.89599e-05
5.90428e-08
9.90105e-05
1.44683e-06
0.000274144
-4.36467e-07
-4.40661e-07
0.000285193
2.97411e-08
-0.00028523
2.40142e-08
9.89434e-10
-1.49087e-08
0.000285344
2.56024e-08
-0.000285382
2.63847e-08
-1.28524e-08
1.54312e-07
0.000285413
-5.79894e-08
6.42232e-08
-1.68964e-08
1.55319e-07
0.000285565
-1.21411e-08
9.89923e-05
-9.89791e-05
7.19859e-09
9.90308e-05
-6.06114e-08
0.000261705
-0.000261615
-8.82136e-09
-2.1895e-08
0.00113233
7.80883e-07
8.23901e-07
-1.13709e-06
6.22855e-07
-1.3161e-06
-0.00113188
-1.39298e-07
3.11842e-07
7.02916e-08
0.000254503
-7.24956e-08
-0.000254674
2.94938e-07
0.00113324
6.70417e-07
-1.45637e-06
1.69662e-07
-4.79286e-07
-1.20594e-06
1.21962e-07
-5.28543e-07
7.82177e-07
-2.5257e-07
0.00026171
4.70775e-07
-2.8379e-08
-0.000261898
0.00113287
7.1608e-07
-1.30128e-06
6.39229e-07
-1.11952e-06
8.37068e-07
-1.52426e-08
0.000254313
2.01513e-08
-0.000254326
1.3113e-09
-6.88994e-10
0.000237985
-0.000238023
-1.23896e-08
-1.12374e-08
-1.12944e-08
0.000197926
-0.000198047
-3.02892e-10
0.000238197
-1.55687e-08
-9.81006e-08
-0.000238333
0.000197736
6.27882e-09
-0.00019777
0.000237945
-0.000237982
-1.35212e-08
-1.11841e-08
-9.82975e-09
0.000197858
-0.000197981
-7.00482e-09
0.000238157
-1.66843e-08
-9.79722e-08
-0.000238295
0.000197666
1.15098e-08
8.23333e-09
-0.000197701
3.99938e-10
-2.22332e-07
4.32109e-07
-2.37098e-08
0.000261557
3.21143e-07
6.39285e-07
1.15208e-06
-4.66666e-07
1.83274e-07
7.91593e-07
-5.17441e-07
-1.18947e-06
1.3489e-07
-0.00113349
-1.54886e-09
6.3831e-07
-1.26733e-06
6.67731e-07
8.6293e-07
-1.08797e-06
-3.00275e-09
-1.8165e-08
-0.000254103
1.07925e-08
1.05279e-08
6.77335e-07
8.49003e-07
-1.10662e-06
-1.28299e-06
6.50792e-07
-1.25367e-07
6.25026e-08
2.85391e-07
0.000254264
-1.69785e-09
-3.69525e-08
-0.000261466
-3.81869e-08
-1.97535e-08
-2.2518e-07
4.35159e-07
-2.60023e-08
0.000261522
3.11104e-07
-1.4444e-06
6.3941e-07
7.94115e-07
-5.18259e-07
-1.1919e-06
1.34107e-07
1.14951e-06
-4.66761e-07
1.83579e-07
-0.00113341
0.00113389
6.38851e-07
-1.27046e-06
6.67329e-07
-1.08794e-06
8.64282e-07
-2.69292e-09
1.32815e-08
0.000253989
-1.55868e-08
-0.000253995
1.17139e-08
6.78195e-07
8.50728e-07
-1.10673e-06
-1.28588e-06
6.50508e-07
-1.25034e-07
-6.60613e-08
6.3341e-08
2.85865e-07
0.000254155
-3.51687e-08
0.000261523
-0.00026143
-4.02419e-08
-1.9375e-08
-4.36691e-10
-1.54486e-08
-8.44236e-08
0.000237863
0.000197472
-0.000197495
7.30385e-09
-8.16991e-09
0.000197626
-8.65352e-10
0.000237689
-0.000237715
-1.1641e-08
2.05348e-09
-1.68168e-08
-8.45058e-08
0.000237821
1.11244e-08
0.000197398
-0.000197421
9.40176e-09
-8.12553e-09
-5.70217e-09
0.000197555
0.000237649
-0.000237673
-1.32113e-08
1.43395e-09
9.90702e-05
-9.90633e-05
9.90574e-05
-9.90507e-05
0.000274112
-4.3621e-07
-4.38579e-07
8.72901e-10
2.46918e-08
-0.000285321
2.17467e-08
1.61525e-09
2.88017e-08
-0.000285238
2.1861e-08
-5.78025e-08
-1.49793e-08
1.56597e-07
0.000285506
-5.74789e-08
-1.61014e-08
1.56031e-07
0.000285421
9.89665e-05
-9.89532e-05
9.90051e-05
9.89521e-05
-9.89394e-05
9.89918e-05
5.33086e-08
9.89369e-05
-6.6254e-09
-9.88964e-05
5.30002e-08
9.89219e-05
-6.27849e-09
-9.88827e-05
5.68495e-08
1.40666e-07
-1.26028e-08
0.000285229
5.72373e-08
1.41599e-07
-1.23838e-08
0.000285133
-1.22274e-06
-1.1832e-06
-0.000274244
1.54443e-07
1.60057e-07
-2.10238e-08
2.31376e-08
-0.000285082
8.87233e-09
-2.07599e-08
2.32838e-08
-0.000284984
7.57713e-09
1.15067e-08
-0.000237452
1.25822e-08
-1.13655e-08
1.11335e-07
-7.55944e-09
0.000197349
1.94885e-07
0.000237573
-7.27671e-08
-1.48517e-08
-1.03108e-08
8.31106e-09
-0.000197244
-1.35108e-09
-0.00026135
-1.75779e-08
-6.93265e-08
2.63411e-07
5.42146e-08
0.000253965
0.00113486
3.02201e-09
5.97088e-07
8.82754e-07
-1.07972e-06
-1.25711e-06
6.88919e-07
2.71964e-07
5.24993e-07
-1.46334e-06
2.14425e-07
-4.41765e-07
-1.15126e-06
1.71361e-07
-4.75448e-07
8.33866e-07
-5.52408e-11
0.000261433
-2.10331e-08
4.00006e-07
2.78122e-09
-0.000253824
-3.75761e-08
-4.55006e-09
5.58479e-07
-1.24159e-06
7.02938e-07
-1.06366e-06
8.96421e-07
-0.000261298
-1.82487e-08
-6.96861e-08
-5.42642e-08
2.63719e-07
5.42972e-08
0.00025384
0.00113481
5.98102e-07
8.81948e-07
-1.07965e-06
-1.25699e-06
6.88757e-07
2.68244e-07
1.2198e-06
5.25986e-07
-1.15152e-06
1.68136e-07
8.33354e-07
-4.73431e-07
-1.4608e-06
2.14251e-07
-4.41911e-07
0.000261381
-2.3822e-08
4.00051e-07
1.7918e-08
3.35304e-09
-0.000253699
-3.71773e-08
5.59556e-07
-1.24186e-06
7.03026e-07
-1.06351e-06
8.95534e-07
1.41095e-07
-1.26052e-08
0.000285093
-5.5788e-08
1.41914e-07
-1.05706e-08
0.000285213
-0.00027423
1.54828e-07
1.56685e-07
2.57726e-08
-0.000284942
7.26948e-09
7.6037e-09
2.49497e-08
-0.000285062
8.43178e-09
5.39684e-09
9.89556e-05
-1.37795e-08
-9.89165e-05
-1.70277e-09
-0.000261293
-1.60079e-08
-6.9181e-08
2.62236e-07
5.36201e-08
0.000253925
0.0011347
2.81539e-09
6.00274e-07
8.81276e-07
-1.07882e-06
-1.25808e-06
6.84188e-07
2.63375e-07
5.2618e-07
-1.42307e-06
2.09435e-07
-4.35755e-07
-1.15187e-06
1.71505e-07
-4.76569e-07
8.33207e-07
9.18548e-10
0.000261382
-2.07219e-08
4.0518e-07
2.40003e-09
-0.000253784
-3.69653e-08
-3.96733e-09
5.61442e-07
-1.24284e-06
6.97955e-07
-1.06289e-06
8.94784e-07
1.3841e-08
-0.000237408
1.22789e-08
-1.17985e-08
1.11692e-07
-9.13027e-09
0.00019732
1.96752e-07
0.000237534
-7.23264e-08
-1.51862e-08
-9.59832e-09
5.47807e-09
-0.000197212
-0.000261267
-6.94652e-08
-1.63182e-08
0.00113465
6.00901e-07
8.80583e-07
-1.0788e-06
-1.25885e-06
6.84269e-07
-5.61807e-08
2.6032e-07
5.29804e-08
0.000253831
2.64879e-07
1.21502e-06
5.25924e-07
-1.15242e-06
1.67463e-07
8.33055e-07
-4.74632e-07
-1.45464e-06
2.14705e-07
-4.41534e-07
0.000261354
4.05575e-07
-2.23938e-08
5.61749e-07
-1.24335e-06
6.98366e-07
-1.06278e-06
8.94489e-07
2.15103e-08
2.29152e-09
-0.000253687
-3.34713e-08
8.86628e-11
-0.000237462
-1.16545e-08
1.35849e-08
-9.23601e-09
0.000197393
-1.9704e-10
0.000237582
-1.44442e-08
-7.45793e-08
5.45925e-09
-0.000197285
-1.29833e-08
-0.000261264
-6.53651e-08
-1.78775e-08
0.00113451
6.01145e-07
8.7457e-07
-1.07533e-06
6.81923e-07
-1.25333e-06
-1.12136e-07
2.65125e-07
5.34407e-08
0.00025388
2.63303e-07
5.26172e-07
-1.45037e-06
2.13494e-07
-4.38021e-07
-1.14421e-06
1.63755e-07
-4.71792e-07
8.23653e-07
-1.95734e-07
0.000261347
3.98687e-07
-2.41572e-08
5.61726e-07
-1.23789e-06
6.96295e-07
-1.05908e-06
8.88393e-07
8.86303e-09
2.13961e-09
-0.000253739
-3.76927e-08
-0.000237427
1.13603e-08
-1.07093e-08
-6.46513e-09
-8.39759e-09
0.00019733
0.000237548
-7.29711e-08
-1.48606e-08
1.35539e-08
4.59952e-09
-0.000197223
1.37282e-07
-1.1982e-08
0.000285065
-5.21848e-08
1.38205e-07
-1.46778e-08
0.000285216
-0.000274218
1.54047e-07
1.5998e-07
2.42351e-08
-0.000284915
1.33415e-08
6.72201e-09
2.7279e-08
-0.000285066
9.45072e-09
6.96714e-09
9.89331e-05
-1.27023e-08
-9.88933e-05
-1.13645e-08
-0.00026125
-6.92598e-08
-1.5642e-08
0.00113435
5.99037e-07
8.78146e-07
-1.07534e-06
6.78646e-07
-1.25484e-06
-1.1135e-07
2.59795e-07
5.48727e-08
0.000253844
2.61841e-07
5.23508e-07
-1.41478e-06
2.10272e-07
-4.3571e-07
-1.14894e-06
1.71806e-07
-4.76505e-07
8.30358e-07
-1.98449e-07
0.000261339
4.0487e-07
-2.27046e-08
5.60301e-07
-1.23976e-06
6.9539e-07
-1.05701e-06
8.91557e-07
1.00034e-08
3.20031e-09
-0.000253703
-3.41368e-08
-6.16655e-10
-0.000237454
-1.00174e-08
1.37003e-08
-7.07118e-09
0.000197375
-4.13686e-10
0.00023758
-1.47302e-08
-7.0467e-08
6.41527e-09
-0.000197269
-0.000237413
-1.16299e-08
1.30379e-08
-8.08097e-09
-4.93321e-09
0.000197299
0.000237538
-1.63101e-08
-7.15347e-08
1.20382e-08
8.2838e-09
-0.000197191
9.89075e-05
-9.88684e-05
9.88926e-05
-9.88524e-05
3.93632e-09
8.08615e-08
0.000145188
-0.000145266
-7.42383e-09
-9.23544e-08
-1.57351e-08
-0.000238191
2.86176e-10
2.36664e-07
-0.000173294
-5.31397e-09
4.05986e-10
0.000173286
-0.000230776
-4.19994e-09
-1.62957e-08
0.00023074
4.34561e-08
-0.000173383
6.37867e-10
-0.000230906
-2.27116e-08
2.18014e-07
-5.18099e-09
0.000145184
-8.01588e-05
-1.70196e-08
4.62116e-09
8.01712e-05
-5.59263e-08
0.00027021
2.29007e-08
1.82576e-07
-0.000270372
2.98033e-09
0.000197905
1.54765e-08
2.27756e-08
6.86815e-09
-8.02216e-05
1.62596e-08
0.00027015
2.9405e-08
-0.000145275
4.76406e-09
9.59086e-09
-1.84593e-08
-1.29739e-08
4.74722e-10
7.56963e-08
-3.57608e-09
0.000173398
1.24626e-09
-0.000173494
-8.6398e-08
0.000230948
2.29939e-07
-0.000231084
-0.000145358
1.21851e-09
5.50983e-08
5.26569e-08
8.01111e-05
-0.000269996
2.0097e-08
0.000269944
2.06821e-08
-1.09343e-08
-6.17745e-09
1.32806e-07
1.73315e-07
8.0126e-05
9.91651e-05
-1.42848e-08
6.63637e-09
-9.91574e-05
5.44385e-09
6.42248e-08
8.03329e-08
5.34971e-09
0.000145208
-0.000145285
-9.10372e-09
-1.55939e-08
-9.01822e-08
-0.00023817
-8.04063e-10
2.36813e-07
-0.000230768
-3.46274e-09
-1.62605e-08
0.000230731
4.36834e-08
-0.000173341
-6.76711e-09
-7.58504e-10
0.000173339
-0.000230898
-2.29637e-08
2.18212e-07
-0.000173425
-7.16894e-10
-6.75173e-09
0.000145205
-8.01689e-05
-1.83847e-08
6.15141e-09
8.01811e-05
-5.51973e-08
0.000270213
2.30167e-08
1.82454e-07
-0.000270375
4.07193e-09
0.000197888
1.32959e-08
2.24822e-08
8.12136e-09
-8.02322e-05
1.65939e-08
0.000270153
2.88689e-08
-0.000145294
8.91539e-09
6.15527e-09
-1.22485e-08
-1.64951e-08
-7.58161e-10
7.60146e-08
-8.56233e-08
0.00023094
2.29661e-07
-0.000231077
-4.85432e-09
0.000173435
-4.48357e-10
-0.000173527
-0.000145376
5.51593e-08
-4.81758e-10
5.16566e-08
8.01203e-05
-0.000269998
2.1196e-08
0.000269946
2.02479e-08
-1.06114e-08
-5.49223e-09
1.3257e-07
1.73039e-07
8.01348e-05
9.91354e-05
-1.34223e-08
9.13065e-09
5.83112e-09
6.16498e-08
-3.66458e-08
-3.53525e-08
0.000218985
-0.00021909
8.64235e-08
8.99405e-08
-8.18161e-05
6.45217e-09
-1.91389e-08
8.18288e-05
-8.18051e-05
5.06253e-09
-1.79045e-08
8.18179e-05
-8.1874e-05
2.12083e-08
-8.18629e-05
2.24794e-08
2.52132e-08
2.63582e-08
0.000218945
5.11098e-08
-2.87374e-08
-2.99943e-08
0.000229319
3.42576e-08
-0.000229346
5.13153e-08
2.01335e-08
0.000285865
-7.84672e-09
-0.000285924
-4.21119e-09
0.000260676
4.769e-08
-0.000260673
5.12665e-08
1.83161e-08
0.000186982
-0.000187009
5.48092e-08
-2.87774e-08
-2.89537e-08
0.000229237
3.49079e-08
-0.000229269
5.13035e-08
2.00759e-08
0.000285778
-8.10226e-09
-3.35773e-09
-0.000285838
0.00026055
4.33677e-08
5.78469e-08
-0.000260545
1.73245e-08
0.000186933
-0.000186959
-7.89683e-09
-6.79258e-09
-0.000219134
-8.18635e-05
-8.18524e-05
1.20278e-07
-1.11926e-07
0.000229195
2.01855e-07
-0.000186876
2.15575e-08
0.000186856
1.67212e-07
-1.55558e-08
-6.10076e-08
6.80469e-08
-0.000260526
-4.63776e-08
0.000260535
3.48825e-08
4.5982e-08
2.82204e-07
1.55455e-07
0.000229167
2.87825e-08
1.21645e-07
-1.09738e-07
0.000229117
1.98083e-07
-0.000186829
2.3347e-08
0.000186808
1.64791e-07
-1.66063e-08
-6.08634e-08
6.92141e-08
-0.000260402
-5.01349e-08
0.000260412
3.26518e-08
5.00388e-08
2.774e-07
1.57138e-07
0.00022909
2.69175e-08
4.29152e-09
5.93502e-08
0.000144946
-0.000145001
-8.21975e-09
-6.58928e-08
-1.38976e-08
-0.000237603
-7.28625e-10
1.81908e-07
-0.00017302
-4.99911e-09
-1.64751e-09
-0.000230215
1.61046e-08
-1.25487e-08
-2.73333e-09
-0.000173081
-1.17336e-09
-0.000230319
-1.95713e-08
1.68941e-07
-5.29937e-09
-7.99971e-05
-2.65933e-08
5.47518e-09
8.00183e-05
-4.52763e-08
0.000269446
2.06776e-08
-0.000269576
1.46184e-07
6.85472e-09
0.000197382
1.23243e-08
-3.32322e-09
8.03991e-09
-8.00505e-05
1.38806e-08
0.000269418
-5.25557e-09
-0.000144991
5.40118e-09
-1.06509e-08
6.58702e-09
-1.12715e-08
-2.81855e-10
2.39828e-08
-4.59526e-09
0.000173068
-0.000173135
-3.97982e-10
-6.48669e-08
0.000230337
-0.000230446
1.80595e-07
-0.000145052
-7.13629e-10
9.28099e-09
4.25152e-08
7.99675e-05
-0.000269296
2.93706e-08
-1.42106e-08
-7.71624e-09
-6.41566e-09
1.04676e-07
1.3678e-07
9.89595e-05
-1.27032e-08
-3.02053e-09
6.53743e-09
4.93014e-08
5.90609e-08
5.70231e-09
0.000144968
-0.000145023
-9.04978e-09
-1.28835e-08
-6.5561e-08
-0.000237566
-1.00139e-09
1.83576e-07
-0.000230208
1.60799e-08
-1.23544e-08
-2.11588e-09
-0.000173094
-6.24553e-09