/*--------------------------------*- C++ -*----------------------------------*\
| =========                 |                                                 |
| \\      /  F ield         | OpenFOAM: The Open Source CFD Toolbox           |
|  \\    /   O peration     | Version:  2312                                  |
|   \\  /    A nd           | Website:  www.openfoam.com                      |
|    \\/     M anipulation  |                                                 |
\*---------------------------------------------------------------------------*/
FoamFile
{
    version     2.0;
    format      ascii;
    arch        "LSB;label=32;scalar=64";
    class       volScalarField;
    location    "125";
    object      k;
}
// * * * * * * * * * * * * * * * * * * * * * * * * * * * * * * * * * * * * * //

dimensions      [0 2 -2 0 0 0 0];

internalField   nonuniform List<scalar> 
43211
(
3.60232e-05
3.60198e-05
3.60198e-05
3.60083e-05
3.39295e-05
3.38866e-05
3.38866e-05
3.39612e-05
3.21573e-05
3.20055e-05
3.20055e-05
3.19506e-05
3.05338e-05
3.02267e-05
3.02267e-05
2.99864e-05
2.90318e-05
2.85515e-05
2.85515e-05
2.81202e-05
2.7634e-05
2.69848e-05
2.69847e-05
2.6388e-05
2.63293e-05
2.55287e-05
2.55286e-05
2.48046e-05
2.51097e-05
2.41827e-05
2.41826e-05
2.33754e-05
2.39694e-05
2.29484e-05
2.29482e-05
2.21019e-05
2.29042e-05
2.18247e-05
2.18245e-05
2.09833e-05
2.19104e-05
2.08092e-05
2.08091e-05
2.00107e-05
2.09849e-05
1.98991e-05
1.98991e-05
1.91788e-05
2.01225e-05
1.90926e-05
1.90925e-05
1.8487e-05
1.93223e-05
1.83865e-05
1.83862e-05
1.79306e-05
1.85831e-05
1.77772e-05
1.77771e-05
1.7504e-05
1.79026e-05
1.72636e-05
1.72637e-05
1.7198e-05
1.72783e-05
1.68447e-05
1.68446e-05
1.70206e-05
1.67082e-05
1.65195e-05
1.65195e-05
1.69801e-05
1.61909e-05
1.62879e-05
1.62879e-05
1.70774e-05
1.57237e-05
1.61501e-05
1.61502e-05
1.73026e-05
1.53061e-05
1.61062e-05
1.61063e-05
1.7656e-05
3.62984e-05
3.62919e-05
3.62919e-05
3.62984e-05
3.62919e-05
3.62919e-05
3.62908e-05
3.62908e-05
3.62908e-05
3.62908e-05
3.62919e-05
3.62919e-05
3.62984e-05
3.62919e-05
3.62919e-05
3.62984e-05
3.60083e-05
3.42677e-05
3.60198e-05
3.60198e-05
3.43745e-05
3.43744e-05
3.60083e-05
3.42677e-05
3.60198e-05
3.60198e-05
3.43745e-05
3.43744e-05
3.60198e-05
3.43745e-05
3.43745e-05
3.60083e-05
3.42677e-05
3.60198e-05
3.43745e-05
3.43745e-05
3.42677e-05
3.39612e-05
3.22619e-05
3.38865e-05
3.38865e-05
3.24658e-05
3.24657e-05
3.39612e-05
3.22619e-05
3.38865e-05
3.38865e-05
3.24659e-05
3.24657e-05
3.38865e-05
3.2466e-05
3.24658e-05
3.39612e-05
3.22619e-05
3.38865e-05
3.24659e-05
3.24659e-05
3.22618e-05
3.19506e-05
3.02974e-05
3.20054e-05
3.20053e-05
3.06617e-05
3.06616e-05
3.19506e-05
3.02973e-05
3.20054e-05
3.20052e-05
3.06618e-05
3.06615e-05
3.20053e-05
3.0662e-05
3.06617e-05
3.19506e-05
3.02972e-05
3.20054e-05
3.06619e-05
3.06618e-05
3.02971e-05
2.99865e-05
2.84231e-05
3.02264e-05
3.02263e-05
2.89599e-05
2.89597e-05
2.99865e-05
2.84231e-05
3.02266e-05
3.02262e-05
2.89601e-05
2.89596e-05
3.02264e-05
2.89603e-05
2.89598e-05
2.99864e-05
2.84229e-05
3.02265e-05
2.89602e-05
2.896e-05
2.84228e-05
2.81204e-05
2.66716e-05
2.85511e-05
2.85509e-05
2.73656e-05
2.73653e-05
2.81204e-05
2.66715e-05
2.85513e-05
2.85508e-05
2.73659e-05
2.73652e-05
2.8551e-05
2.73661e-05
2.73655e-05
2.81203e-05
2.66714e-05
2.85513e-05
2.7366e-05
2.73658e-05
2.66712e-05
2.63884e-05
2.50638e-05
2.69842e-05
2.6984e-05
2.58817e-05
2.58815e-05
2.63883e-05
2.50638e-05
2.69846e-05
2.69839e-05
2.58822e-05
2.58813e-05
2.69841e-05
2.58824e-05
2.58816e-05
2.63882e-05
2.50636e-05
2.69844e-05
2.58823e-05
2.5882e-05
2.50634e-05
2.4805e-05
2.361e-05
2.5528e-05
2.55277e-05
2.45079e-05
2.45077e-05
2.48049e-05
2.36099e-05
2.55285e-05
2.55276e-05
2.45085e-05
2.45075e-05
2.55279e-05
2.45087e-05
2.45078e-05
2.48048e-05
2.36097e-05
2.55283e-05
2.45086e-05
2.45083e-05
2.36095e-05
2.33759e-05
2.231e-05
2.41819e-05
2.41816e-05
2.32456e-05
2.32453e-05
2.33758e-05
2.23099e-05
2.41824e-05
2.41814e-05
2.32463e-05
2.32451e-05
2.41817e-05
2.32465e-05
2.32455e-05
2.33756e-05
2.23096e-05
2.41823e-05
2.32464e-05
2.32461e-05
2.23094e-05
2.21024e-05
2.11657e-05
2.29474e-05
2.29471e-05
2.20944e-05
2.20941e-05
2.21023e-05
2.11656e-05
2.29481e-05
2.2947e-05
2.20951e-05
2.20939e-05
2.29473e-05
2.20953e-05
2.20943e-05
2.21021e-05
2.11653e-05
2.29479e-05
2.20952e-05
2.20949e-05
2.1165e-05
2.09839e-05
2.01684e-05
2.18236e-05
2.18233e-05
2.1052e-05
2.10518e-05
2.09838e-05
2.01683e-05
2.18244e-05
2.18232e-05
2.10529e-05
2.10516e-05
2.18235e-05
2.10531e-05
2.1052e-05
2.09835e-05
2.0168e-05
2.18242e-05
2.1053e-05
2.10527e-05
2.01677e-05
2.00113e-05
1.93123e-05
2.08081e-05
2.08078e-05
2.01159e-05
2.01157e-05
2.00112e-05
1.93122e-05
2.08089e-05
2.08077e-05
2.01168e-05
2.01154e-05
2.0808e-05
2.0117e-05
2.01158e-05
2.00109e-05
1.93119e-05
2.08088e-05
2.01168e-05
2.01166e-05
1.93116e-05
1.91792e-05
1.85883e-05
1.9898e-05
1.98977e-05
1.92836e-05
1.92833e-05
1.91793e-05
1.85881e-05
1.98989e-05
1.98977e-05
1.92844e-05
1.9283e-05
1.98979e-05
1.92847e-05
1.92835e-05
1.9179e-05
1.85878e-05
1.98988e-05
1.92844e-05
1.92843e-05
1.85875e-05
1.84874e-05
1.79957e-05
1.90914e-05
1.90912e-05
1.85524e-05
1.85522e-05
1.84875e-05
1.79955e-05
1.90924e-05
1.90912e-05
1.85534e-05
1.85522e-05
1.90914e-05
1.85535e-05
1.85524e-05
1.84871e-05
1.79953e-05
1.90922e-05
1.85535e-05
1.85533e-05
1.79951e-05
1.79309e-05
1.75372e-05
1.83854e-05
1.83852e-05
1.79195e-05
1.79193e-05
1.7931e-05
1.75371e-05
1.83863e-05
1.83849e-05
1.79204e-05
1.79193e-05
1.83854e-05
1.79205e-05
1.79195e-05
1.79307e-05
1.75368e-05
1.83862e-05
1.79206e-05
1.79203e-05
1.75367e-05
1.75043e-05
1.72156e-05
1.77761e-05
1.7776e-05
1.73821e-05
1.7382e-05
1.75044e-05
1.72156e-05
1.7777e-05
1.77759e-05
1.73829e-05
1.73817e-05
1.77762e-05
1.7383e-05
1.73821e-05
1.75041e-05
1.72154e-05
1.7777e-05
1.73828e-05
1.73829e-05
1.72153e-05
1.71982e-05
1.7024e-05
1.72627e-05
1.72626e-05
1.6939e-05
1.6939e-05
1.71983e-05
1.70241e-05
1.72635e-05
1.72626e-05
1.69398e-05
1.6939e-05
1.72627e-05
1.69399e-05
1.69391e-05
1.71981e-05
1.70239e-05
1.72635e-05
1.69399e-05
1.69399e-05
1.70239e-05
1.70206e-05
1.69706e-05
1.68438e-05
1.68439e-05
1.65903e-05
1.65904e-05
1.70208e-05
1.69708e-05
1.68446e-05
1.68437e-05
1.65911e-05
1.65903e-05
1.68439e-05
1.65911e-05
1.65905e-05
1.70206e-05
1.69706e-05
1.68447e-05
1.65911e-05
1.65912e-05
1.69707e-05
1.69799e-05
1.70415e-05
1.65187e-05
1.65188e-05
1.63352e-05
1.63353e-05
1.69802e-05
1.70418e-05
1.65194e-05
1.65188e-05
1.63358e-05
1.63353e-05
1.65189e-05
1.63358e-05
1.63353e-05
1.698e-05
1.70417e-05
1.65196e-05
1.63358e-05
1.6336e-05
1.70419e-05
1.7077e-05
1.72418e-05
1.62873e-05
1.62875e-05
1.61734e-05
1.61738e-05
1.70774e-05
1.72421e-05
1.62879e-05
1.62875e-05
1.6174e-05
1.61738e-05
1.62875e-05
1.61739e-05
1.61737e-05
1.70773e-05
1.72421e-05
1.62882e-05
1.6174e-05
1.61744e-05
1.72423e-05
1.73021e-05
1.75705e-05
1.61496e-05
1.61499e-05
1.61057e-05
1.6106e-05
1.73024e-05
1.75707e-05
1.61502e-05
1.615e-05
1.61062e-05
1.61061e-05
1.61499e-05
1.6106e-05
1.6106e-05
1.73024e-05
1.75709e-05
1.61506e-05
1.61062e-05
1.61066e-05
1.75712e-05
1.76554e-05
1.61059e-05
1.61062e-05
1.76555e-05
1.61063e-05
1.61063e-05
1.61062e-05
1.76557e-05
1.61068e-05
3.73769e-05
3.73764e-05
3.73767e-05
3.73767e-05
3.73694e-05
3.73756e-05
3.73043e-05
3.73764e-05
3.73695e-05
3.73756e-05
3.73764e-05
3.73043e-05
3.73714e-05
3.72959e-05
3.72959e-05
3.5883e-05
4.08681e-05
3.66009e-05
4.5138e-05
5.511e-05
6.48876e-05
3.58836e-05
4.08677e-05
3.66008e-05
4.51407e-05
3.60232e-05
3.60232e-05
3.60232e-05
3.44005e-05
3.44005e-05
3.44005e-05
3.44005e-05
3.52764e-05
3.56382e-05
3.60241e-05
3.53761e-05
3.60479e-05
3.42428e-05
3.53827e-05
5.51119e-05
6.48892e-05
3.52765e-05
3.60241e-05
3.56378e-05
3.53761e-05
3.60478e-05
3.53827e-05
3.42433e-05
3.65939e-05
3.65946e-05
3.52783e-05
3.40676e-05
3.40667e-05
3.39696e-05
5.13497e-05
3.46834e-05
5.4619e-05
7.6545e-05
8.08614e-05
3.39706e-05
5.13502e-05
3.46827e-05
5.46223e-05
3.39295e-05
3.39295e-05
3.39295e-05
3.25851e-05
3.25851e-05
3.25851e-05
3.25851e-05
3.30546e-05
3.24825e-05
3.3929e-05
3.34062e-05
3.38971e-05
3.15833e-05
3.34673e-05
7.65476e-05
8.08623e-05
3.30548e-05
3.3929e-05
3.24819e-05
3.34062e-05
3.38969e-05
3.34673e-05
3.15845e-05
3.17211e-05
3.17214e-05
3.32624e-05
3.09283e-05
3.09266e-05
3.22517e-05
5.91654e-05
3.29221e-05
6.14356e-05
8.43931e-05
8.50688e-05
3.22516e-05
5.91673e-05
3.29219e-05
6.14388e-05
3.21574e-05
3.21574e-05
3.21574e-05
3.09274e-05
3.09274e-05
3.09274e-05
3.09274e-05
3.07892e-05
3.05187e-05
3.21369e-05
3.15514e-05
3.16369e-05
2.98913e-05
3.17094e-05
8.43945e-05
8.50695e-05
3.07894e-05
3.21369e-05
3.0518e-05
3.15514e-05
3.16367e-05
3.17094e-05
2.98912e-05
3.02183e-05
3.02181e-05
3.12712e-05
3.00049e-05
3.00043e-05
3.07526e-05
6.43457e-05
3.13493e-05
6.57227e-05
8.46128e-05
8.39124e-05
3.07527e-05
6.43486e-05
3.13493e-05
6.57255e-05
3.05338e-05
3.05338e-05
3.05338e-05
2.93969e-05
2.93969e-05
2.93969e-05
2.93969e-05
2.86001e-05
2.9145e-05
3.04686e-05
2.97979e-05
2.94126e-05
2.8678e-05
3.00678e-05
8.46141e-05
8.39114e-05
2.86004e-05
3.04685e-05
2.9145e-05
2.97979e-05
2.94122e-05
3.00678e-05
2.8678e-05
2.99406e-05
2.99405e-05
2.93461e-05
3.00348e-05
3.00348e-05
2.95173e-05
6.73148e-05
2.99995e-05
6.80301e-05
8.22139e-05
8.12218e-05
2.95175e-05
6.73175e-05
2.99996e-05
6.80325e-05
2.90317e-05
2.90317e-05
2.90317e-05
2.79744e-05
2.79744e-05
2.79743e-05
2.79743e-05
2.65669e-05
2.81252e-05
2.89017e-05
2.81495e-05
2.73164e-05
2.77833e-05
2.85246e-05
8.2215e-05
8.12202e-05
2.65674e-05
2.89016e-05
2.81253e-05
2.81494e-05
2.7316e-05
2.85246e-05
2.77834e-05
3.04391e-05
3.04405e-05
2.75305e-05
3.07823e-05
3.0782e-05
2.86034e-05
6.8739e-05
2.89462e-05
6.9034e-05
7.94344e-05
7.85344e-05
2.86036e-05
6.87412e-05
2.89463e-05
6.9036e-05
2.7634e-05
2.7634e-05
2.7634e-05
2.66473e-05
2.66472e-05
2.66472e-05
2.66472e-05
2.47428e-05
2.74073e-05
2.74276e-05
2.66103e-05
2.54133e-05
2.71923e-05
2.70731e-05
7.94358e-05
7.85323e-05
2.47434e-05
2.74275e-05
2.74074e-05
2.66103e-05
2.54127e-05
2.7073e-05
2.71924e-05
3.15583e-05
3.15601e-05
2.58484e-05
3.21282e-05
3.2129e-05
2.80578e-05
6.9249e-05
2.82433e-05
6.93095e-05
7.7004e-05
7.62892e-05
2.8058e-05
6.92506e-05
2.82435e-05
6.93109e-05
2.63293e-05
2.63293e-05
2.63293e-05
2.5407e-05
2.54069e-05
2.54069e-05
2.54069e-05
2.31629e-05
2.70017e-05
2.60433e-05
2.51817e-05
2.37456e-05
2.69213e-05
2.5711e-05
7.70057e-05
7.62868e-05
2.31636e-05
2.60431e-05
2.70019e-05
2.51817e-05
2.37449e-05
2.5711e-05
2.69215e-05
3.31864e-05
3.31889e-05
2.43172e-05
3.39196e-05
3.39216e-05
2.79128e-05
6.92985e-05
2.79263e-05
6.92712e-05
7.50714e-05
7.45364e-05
2.79131e-05
6.92997e-05
2.79266e-05
6.92723e-05
2.51097e-05
2.51096e-05
2.51096e-05
2.42473e-05
2.42472e-05
2.42471e-05
2.42471e-05
2.18459e-05
2.69341e-05
2.47477e-05
2.38636e-05
2.23362e-05
2.69819e-05
2.44375e-05
7.50731e-05
7.45347e-05
2.18464e-05
2.47475e-05
2.69343e-05
2.38635e-05
2.23356e-05
2.44374e-05
2.69823e-05
3.51859e-05
3.51891e-05
2.29395e-05
3.60298e-05
3.60331e-05
2.81573e-05
6.91975e-05
2.80302e-05
6.91655e-05
7.3607e-05
7.32116e-05
2.81576e-05
6.91984e-05
2.80305e-05
6.91662e-05
2.39694e-05
2.39693e-05
2.39693e-05
2.31636e-05
2.31636e-05
2.31635e-05
2.31635e-05
2.07999e-05
2.71994e-05
2.35398e-05
2.26572e-05
2.11945e-05
2.73545e-05
2.32509e-05
7.3607e-05
7.32116e-05
2.08002e-05
2.35396e-05
2.71997e-05
2.26571e-05
2.11941e-05
2.32508e-05
2.73549e-05
3.74312e-05
3.74354e-05
2.17182e-05
3.83435e-05
3.83482e-05
2.88218e-05
6.91159e-05
2.8553e-05
6.91051e-05
7.25274e-05
7.22417e-05
2.88227e-05
6.91165e-05
2.85534e-05
6.91057e-05
2.29042e-05
2.29041e-05
2.2904e-05
2.21523e-05
2.21523e-05
2.21521e-05
2.21521e-05
2.00269e-05
2.77789e-05
2.24159e-05
2.15608e-05
2.03176e-05
2.80339e-05
2.21479e-05
7.25274e-05
7.22418e-05
2.0027e-05
2.24157e-05
2.77792e-05
2.15607e-05
2.03175e-05
2.21477e-05
2.80343e-05
3.98138e-05
3.98189e-05
2.06484e-05
4.07564e-05
4.07626e-05
2.99349e-05
6.91037e-05
2.94704e-05
6.91186e-05
7.17498e-05
7.15484e-05
2.99357e-05
6.91041e-05
2.94705e-05
6.9119e-05
2.19104e-05
2.19103e-05
2.19103e-05
2.12099e-05
2.12099e-05
2.12097e-05
2.12098e-05
1.95207e-05
2.8648e-05
2.13757e-05
2.0572e-05
1.97021e-05
2.89925e-05
2.11287e-05
7.17498e-05
7.15485e-05
1.95209e-05
2.13755e-05
2.86485e-05
2.05718e-05
1.97021e-05
2.11285e-05
2.89931e-05
4.22359e-05
4.22418e-05
1.97224e-05
4.31757e-05
4.31832e-05
3.14462e-05
6.91543e-05
3.08015e-05
6.91915e-05
7.12011e-05
7.10617e-05
3.1447e-05
6.91547e-05
3.08016e-05
6.91919e-05
2.09848e-05
2.09848e-05
2.09847e-05
2.03325e-05
2.03325e-05
2.03322e-05
2.03323e-05
1.92791e-05
2.97725e-05
2.04187e-05
1.96879e-05
1.93508e-05
3.01934e-05
2.01921e-05
7.12011e-05
7.10617e-05
1.92793e-05
2.04185e-05
2.97731e-05
1.96877e-05
1.93509e-05
2.01918e-05
3.0194e-05
4.46129e-05
4.46199e-05
1.89332e-05
4.55207e-05
4.55292e-05
3.33251e-05
6.92496e-05
3.25315e-05
6.92967e-05
7.08181e-05
7.07217e-05
3.33259e-05
6.92499e-05
3.25316e-05
6.9297e-05
2.01224e-05
2.01224e-05
2.01223e-05
1.95164e-05
1.95164e-05
1.95163e-05
1.95162e-05
1.92969e-05
3.11114e-05
1.9542e-05
1.89067e-05
1.92655e-05
3.15937e-05
1.93351e-05
7.08181e-05
7.07218e-05
1.92971e-05
1.95418e-05
3.1112e-05
1.89066e-05
1.92656e-05
1.93349e-05
3.15944e-05
4.68736e-05
4.68814e-05
1.82748e-05
4.77267e-05
4.7736e-05
3.55234e-05
6.93612e-05
3.46101e-05
6.94088e-05
7.05491e-05
7.04816e-05
3.55244e-05
6.93616e-05
3.46103e-05
6.94092e-05
1.93223e-05
1.93221e-05
1.93221e-05
1.87623e-05
1.87623e-05
1.87622e-05
1.87622e-05
1.95658e-05
3.26178e-05
1.87428e-05
1.8225e-05
1.94485e-05
3.31447e-05
1.85546e-05
7.05492e-05
7.04817e-05
1.9566e-05
1.87425e-05
3.26184e-05
1.82251e-05
1.94487e-05
1.85545e-05
3.31454e-05
4.89657e-05
4.89741e-05
1.77489e-05
4.97499e-05
4.97597e-05
3.79634e-05
6.94708e-05
3.69634e-05
6.95147e-05
7.03547e-05
7.03049e-05
3.79643e-05
6.94711e-05
3.69635e-05
6.95152e-05
1.85831e-05
1.85829e-05
1.85829e-05
1.80674e-05
1.80674e-05
1.80671e-05
1.80672e-05
2.00904e-05
3.42401e-05
1.80183e-05
1.76399e-05
1.98887e-05
3.4794e-05
1.78487e-05
7.03547e-05
7.03051e-05
2.00908e-05
1.80181e-05
3.42407e-05
1.76398e-05
1.9889e-05
1.78484e-05
3.47948e-05
5.08586e-05
5.08675e-05
1.73594e-05
5.15666e-05
5.15767e-05
4.05427e-05
6.95711e-05
3.94972e-05
6.96108e-05
7.02054e-05
7.01663e-05
4.05436e-05
6.95715e-05
3.94971e-05
6.96115e-05
1.79026e-05
1.79025e-05
1.79025e-05
1.74289e-05
1.74288e-05
1.74288e-05
1.74287e-05
2.08637e-05
3.59263e-05
1.73665e-05
1.71498e-05
2.05806e-05
3.64907e-05
1.72147e-05
7.02057e-05
7.01666e-05
2.08642e-05
1.73664e-05
3.59269e-05
1.71497e-05
2.0581e-05
1.72146e-05
3.64914e-05
5.25411e-05
5.25503e-05
1.71033e-05
5.31724e-05
5.31826e-05
4.31489e-05
6.96621e-05
4.21014e-05
6.96985e-05
7.00831e-05
7.00502e-05
4.31496e-05
6.96626e-05
4.21013e-05
6.96993e-05
1.72782e-05
1.72781e-05
1.72781e-05
1.68456e-05
1.68456e-05
1.68454e-05
1.68455e-05
2.18725e-05
3.76283e-05
1.67864e-05
1.67538e-05
2.15132e-05
3.81884e-05
1.66522e-05
7.00833e-05
7.00503e-05
2.18731e-05
1.67862e-05
3.76288e-05
1.67538e-05
2.15136e-05
1.66521e-05
3.81891e-05
5.40188e-05
5.40281e-05
1.69801e-05
5.4576e-05
5.45861e-05
4.56722e-05
6.97461e-05
4.46635e-05
6.97801e-05
6.99764e-05
6.99472e-05
4.56728e-05
6.97467e-05
4.46634e-05
6.9781e-05
1.67081e-05
1.6708e-05
1.6708e-05
1.63151e-05
1.63151e-05
1.6315e-05
1.6315e-05
2.30951e-05
3.93042e-05
1.62757e-05
1.64515e-05
2.26678e-05
3.9848e-05
1.61586e-05
6.99765e-05
6.99472e-05
2.30957e-05
1.62756e-05
3.93047e-05
1.64515e-05
2.26684e-05
1.61584e-05
3.98486e-05
5.53078e-05
5.53173e-05
1.69897e-05
5.57954e-05
5.58052e-05
4.80206e-05
6.98251e-05
4.70849e-05
6.98576e-05
6.98794e-05
6.98527e-05
4.8021e-05
6.98258e-05
4.70847e-05
6.98585e-05
1.61909e-05
1.61908e-05
1.61908e-05
1.58357e-05
1.58357e-05
1.58356e-05
1.58357e-05
2.45001e-05
4.09206e-05
1.5833e-05
1.62434e-05
2.40166e-05
4.14388e-05
1.57331e-05
6.98795e-05
6.98527e-05
2.45009e-05
1.5833e-05
4.0921e-05
1.62435e-05
2.40173e-05
1.5733e-05
4.14394e-05
5.64301e-05
5.64395e-05
1.71259e-05
5.68543e-05
5.68639e-05
5.01316e-05
6.99003e-05
4.92908e-05
6.99312e-05
6.97899e-05
6.97648e-05
5.01318e-05
6.99012e-05
4.92906e-05
6.99321e-05
1.57237e-05
1.57236e-05
1.57236e-05
1.54059e-05
1.54059e-05
1.54058e-05
1.54059e-05
2.60479e-05
4.24533e-05
1.54577e-05
1.61281e-05
2.55222e-05
4.29399e-05
1.53745e-05
6.97897e-05
6.97648e-05
2.60489e-05
1.54577e-05
4.24537e-05
1.61282e-05
2.5523e-05
1.53744e-05
4.29405e-05
5.74067e-05
5.7416e-05
1.73909e-05
5.77766e-05
5.77862e-05
5.19717e-05
6.99714e-05
5.12393e-05
7e-05
6.97059e-05
6.96827e-05
5.19716e-05
6.99722e-05
5.12392e-05
7.00009e-05
1.53062e-05
1.53061e-05
1.53061e-05
2.76933e-05
4.38868e-05
1.51504e-05
1.61093e-05
2.71406e-05
4.43388e-05
1.50843e-05
6.97059e-05
2.76943e-05
1.51505e-05
4.3887e-05
2.71415e-05
1.50842e-05
5.82587e-05
5.8268e-05
1.77829e-05
5.85834e-05
5.85928e-05
3.73714e-05
3.72958e-05
3.72959e-05
5.31077e-05
3.71932e-05
5.31099e-05
3.71933e-05
3.70971e-05
3.72394e-05
3.72389e-05
3.71762e-05
3.71762e-05
3.73695e-05
3.73756e-05
3.73042e-05
3.73764e-05
3.73695e-05
3.73756e-05
3.73042e-05
3.73764e-05
3.71731e-05
3.94089e-05
3.7168e-05
3.67245e-05
3.71731e-05
3.9409e-05
3.7168e-05
3.67243e-05
3.70969e-05
3.71056e-05
3.60252e-05
3.62911e-05
3.71635e-05
3.71112e-05
3.63053e-05
3.70969e-05
3.71056e-05
3.60253e-05
3.62911e-05
3.71635e-05
3.71112e-05
3.63053e-05
3.73714e-05
3.72958e-05
3.72959e-05
5.3109e-05
3.71932e-05
3.70971e-05
3.72394e-05
3.72384e-05
3.71762e-05
3.71762e-05
5.31102e-05
3.71932e-05
3.73695e-05
3.73756e-05
3.73043e-05
3.73764e-05
3.73695e-05
3.73756e-05
3.73764e-05
3.73043e-05
3.71731e-05
3.94096e-05
3.7168e-05
3.67245e-05
3.70969e-05
3.71056e-05
3.60249e-05
3.62911e-05
3.71635e-05
3.71112e-05
3.63053e-05
3.71731e-05
3.94095e-05
3.7168e-05
3.67243e-05
3.70969e-05
3.71056e-05
3.62911e-05
3.60248e-05
3.71112e-05
3.71635e-05
3.63053e-05
3.73769e-05
3.73764e-05
3.73767e-05
3.73767e-05
3.73769e-05
3.73764e-05
3.73767e-05
3.73767e-05
3.73769e-05
3.73764e-05
3.73767e-05
3.73767e-05
3.71135e-05
3.71094e-05
3.62924e-05
3.62924e-05
3.71126e-05
3.71126e-05
3.62946e-05
3.71135e-05
3.71094e-05
3.62924e-05
3.62924e-05
3.71126e-05
3.71126e-05
3.62946e-05
3.71135e-05
3.71094e-05
3.62924e-05
3.62924e-05
3.71126e-05
3.71126e-05
3.62946e-05
3.71135e-05
3.71094e-05
3.62924e-05
3.62924e-05
3.71126e-05
3.71126e-05
3.62946e-05
3.73695e-05
3.73756e-05
3.73764e-05
3.73043e-05
3.70969e-05
3.71056e-05
3.60247e-05
3.62911e-05
3.71635e-05
3.71112e-05
3.63052e-05
3.71731e-05
3.94098e-05
3.7168e-05
3.67245e-05
3.70969e-05
3.71056e-05
3.62911e-05
3.60251e-05
3.71112e-05
3.71635e-05
3.63053e-05
3.71731e-05
3.94095e-05
3.7168e-05
3.67243e-05
3.73714e-05
3.72959e-05
3.72959e-05
5.31106e-05
3.71933e-05
3.70971e-05
3.72386e-05
3.72386e-05
3.71762e-05
3.71762e-05
5.311e-05
3.71932e-05
3.73695e-05
3.73756e-05
3.73764e-05
3.73043e-05
3.70969e-05
3.71056e-05
3.62911e-05
3.60251e-05
3.71112e-05
3.71635e-05
3.63053e-05
3.70969e-05
3.71056e-05
3.62911e-05
3.60251e-05
3.71112e-05
3.71635e-05
3.63053e-05
3.71731e-05
3.94096e-05
3.7168e-05
3.67246e-05
3.71731e-05
3.941e-05
3.7168e-05
3.67245e-05
3.70971e-05
3.72394e-05
3.72394e-05
3.71762e-05
3.71762e-05
5.3111e-05
3.71933e-05
5.31115e-05
3.71933e-05
5.51085e-05
6.48859e-05
5.51107e-05
6.48884e-05
3.65937e-05
3.65952e-05
3.52782e-05
3.40675e-05
3.40662e-05
7.47262e-05
6.76658e-05
7.47297e-05
6.76696e-05
3.49723e-05
3.20471e-05
3.20448e-05
3.34733e-05
3.34749e-05
3.5883e-05
4.08677e-05
3.66007e-05
4.51414e-05
3.52765e-05
3.56379e-05
3.60241e-05
3.53761e-05
3.60477e-05
3.42435e-05
3.53827e-05
3.52764e-05
3.56378e-05
3.60241e-05
3.53761e-05
3.60477e-05
3.42435e-05
3.53827e-05
3.56372e-05
5.02089e-05
4.64494e-05
3.4899e-05
3.56369e-05
5.02123e-05
4.64495e-05
3.48988e-05
3.50001e-05
3.48708e-05
3.27404e-05
3.44014e-05
3.38707e-05
3.48856e-05
3.41809e-05
3.5e-05
3.48708e-05
3.27403e-05
3.44014e-05
3.38704e-05
3.48856e-05
3.41808e-05
3.65945e-05
3.65952e-05
3.52783e-05
3.40674e-05
3.40658e-05
5.51108e-05
6.48884e-05
7.47284e-05
6.7668e-05
3.49723e-05
3.20467e-05
3.20452e-05
3.34739e-05
3.34751e-05
7.47285e-05
6.7669e-05
3.52765e-05
3.56379e-05
3.60241e-05
3.53761e-05
3.60477e-05
3.42429e-05
3.53827e-05
3.58834e-05
4.08692e-05
3.66005e-05
4.51407e-05
3.52765e-05
3.60241e-05
3.56382e-05
3.53761e-05
3.60477e-05
3.53827e-05
3.42429e-05
3.56366e-05
5.02121e-05
4.64495e-05
3.48996e-05
3.5e-05
3.48708e-05
3.27393e-05
3.44014e-05
3.38708e-05
3.48856e-05
3.4181e-05
3.56362e-05
5.02126e-05
4.64515e-05
3.48992e-05
3.49999e-05
3.48708e-05
3.44014e-05
3.27392e-05
3.48856e-05
3.38707e-05
3.41808e-05
3.58827e-05
4.08679e-05
3.66012e-05
4.51404e-05
3.52764e-05
3.60241e-05
3.56381e-05
3.53762e-05
3.60478e-05
3.53827e-05
3.42434e-05
3.58829e-05
4.08693e-05
3.66007e-05
4.51398e-05
3.50003e-05
3.48708e-05
3.27395e-05
3.44014e-05
3.38709e-05
3.48856e-05
3.41807e-05
3.56376e-05
5.02112e-05
4.64497e-05
3.48979e-05
3.50001e-05
3.48708e-05
3.44014e-05
3.27405e-05
3.48856e-05
3.38706e-05
3.41808e-05
3.56369e-05
5.02122e-05
4.6452e-05
3.48984e-05
3.65954e-05
3.65945e-05
3.52783e-05
3.40664e-05
3.40667e-05
5.51109e-05
6.48879e-05
7.47299e-05
6.7671e-05
3.49723e-05
3.2045e-05
3.2046e-05
3.34742e-05
3.34741e-05
7.47283e-05
6.76688e-05
3.52765e-05
3.60241e-05
3.5638e-05
3.53761e-05
3.60477e-05
3.53827e-05
3.42432e-05
3.58832e-05
4.08681e-05
3.6601e-05
4.51403e-05
3.58831e-05
4.0869e-05
3.66006e-05
4.51421e-05
3.50001e-05
3.48708e-05
3.44014e-05
3.27401e-05
3.48856e-05
3.38706e-05
3.41809e-05
3.5e-05
3.48708e-05
3.44014e-05
3.27399e-05
3.48856e-05
3.38707e-05
3.41809e-05
3.56371e-05
5.02103e-05
4.64495e-05
3.48987e-05
3.56367e-05
5.02122e-05
4.64519e-05
3.48995e-05
5.51118e-05
6.48891e-05
5.51124e-05
6.489e-05
3.49723e-05
3.20474e-05
3.20457e-05
3.34739e-05
3.3474e-05
7.47298e-05
6.76701e-05
7.47306e-05
6.76717e-05
7.65424e-05
8.08585e-05
7.65465e-05
8.08615e-05
3.17206e-05
3.17216e-05
3.32625e-05
3.0928e-05
3.09252e-05
8.40041e-05
8.18479e-05
8.40069e-05
8.18527e-05
3.29533e-05
3.03115e-05
3.03093e-05
3.07474e-05
3.07482e-05
3.39696e-05
5.13502e-05
3.4683e-05
5.46221e-05
3.30549e-05
3.24821e-05
3.3929e-05
3.34061e-05
3.38968e-05
3.15847e-05
3.34673e-05
3.30547e-05
3.24819e-05
3.3929e-05
3.34061e-05
3.38966e-05
3.15844e-05
3.34673e-05
3.37811e-05
5.83634e-05
5.5594e-05
3.30859e-05
3.37803e-05
5.83661e-05
5.55948e-05
3.30854e-05
3.27695e-05
3.29327e-05
3.06569e-05
3.2572e-05
3.13981e-05
3.30152e-05
3.19188e-05
3.27692e-05
3.29326e-05
3.06566e-05
3.2572e-05
3.13974e-05
3.30152e-05
3.19186e-05
3.17214e-05
3.17223e-05
3.32625e-05
3.09278e-05
3.09258e-05
7.65449e-05
8.086e-05
8.40065e-05
8.18508e-05
3.29533e-05
3.03111e-05
3.03099e-05
3.07476e-05
3.07495e-05
8.40053e-05
8.1851e-05
3.30549e-05
3.24823e-05
3.3929e-05
3.34062e-05
3.38967e-05
3.15828e-05
3.34673e-05
3.39707e-05
5.13523e-05
3.46825e-05
5.46236e-05
3.30547e-05
3.3929e-05
3.24818e-05
3.34061e-05
3.38966e-05
3.34673e-05
3.15836e-05
3.378e-05
5.83669e-05
5.55956e-05
3.30856e-05
3.27694e-05
3.29327e-05
3.06555e-05
3.2572e-05
3.13986e-05
3.30152e-05
3.19187e-05
3.37795e-05
5.8368e-05
5.55968e-05
3.30852e-05
3.27692e-05
3.29326e-05
3.2572e-05
3.06562e-05
3.30152e-05
3.13974e-05
3.19185e-05
3.39689e-05
5.13507e-05
3.4685e-05
5.46214e-05
3.30547e-05
3.3929e-05
3.2482e-05
3.34062e-05
3.38968e-05
3.34673e-05
3.15847e-05
3.39701e-05
5.1352e-05
3.46838e-05
5.4623e-05
3.27699e-05
3.29328e-05
3.06561e-05
3.2572e-05
3.13989e-05
3.30153e-05
3.19185e-05
3.37827e-05
5.83665e-05
5.55951e-05
3.30836e-05
3.27694e-05
3.29327e-05
3.2572e-05
3.06569e-05
3.30152e-05
3.13976e-05
3.19186e-05
3.37806e-05
5.83676e-05
5.55964e-05
3.30855e-05
3.17212e-05
3.17215e-05
3.32625e-05
3.09261e-05
3.0927e-05
7.65452e-05
8.08607e-05
8.40074e-05
8.18526e-05
3.29533e-05
3.03107e-05
3.03103e-05
3.07473e-05
3.07481e-05
8.40058e-05
8.18507e-05
3.30548e-05
3.3929e-05
3.24819e-05
3.34062e-05
3.38966e-05
3.34673e-05
3.15841e-05
3.39697e-05
5.13511e-05
3.46842e-05
5.46211e-05
3.39704e-05
5.13537e-05
3.46829e-05
5.46232e-05
3.27697e-05
3.29328e-05
3.2572e-05
3.06568e-05
3.30152e-05
3.1398e-05
3.19187e-05
3.27693e-05
3.29328e-05
3.2572e-05
3.06567e-05
3.30152e-05
3.13979e-05
3.19186e-05
3.37821e-05
5.83662e-05
5.5595e-05
3.3084e-05
3.37801e-05
5.83687e-05
5.55976e-05
3.30854e-05
7.65464e-05
8.08621e-05
7.65482e-05
8.08629e-05
3.29532e-05
3.03119e-05
3.0311e-05
3.07477e-05
3.07476e-05
8.4007e-05
8.18516e-05
8.40078e-05
8.18531e-05
8.43908e-05
8.5067e-05
8.43947e-05
8.50697e-05
3.0218e-05
3.02176e-05
3.12714e-05
3.00046e-05
3.00036e-05
8.48436e-05
8.50718e-05
8.48455e-05
8.50743e-05
3.09593e-05
2.99295e-05
2.99286e-05
2.99696e-05
2.99686e-05
3.22513e-05
5.91661e-05
3.29216e-05
6.14377e-05
3.07894e-05
3.05181e-05
3.21369e-05
3.15513e-05
3.16365e-05
2.98912e-05
3.17094e-05
3.07892e-05
3.05178e-05
3.21369e-05
3.15511e-05
3.16363e-05
2.98909e-05
3.17094e-05
3.21119e-05
6.38682e-05
6.20687e-05
3.14722e-05
3.21115e-05
6.38697e-05
6.20698e-05
3.14718e-05
3.05134e-05
3.11034e-05
2.92404e-05
3.08756e-05
2.97793e-05
3.12891e-05
2.96797e-05
3.05131e-05
3.11033e-05
2.92401e-05
3.08755e-05
2.97789e-05
3.1289e-05
2.96795e-05
3.02182e-05
3.02188e-05
3.12714e-05
3.00043e-05
3.00044e-05
8.43931e-05
8.50684e-05
8.48447e-05
8.50733e-05
3.09593e-05
2.99294e-05
2.99293e-05
2.99696e-05
2.99696e-05
8.48446e-05
8.50732e-05
3.07893e-05
3.0518e-05
3.21369e-05
3.15513e-05
3.16365e-05
2.98908e-05
3.17094e-05
3.22512e-05
5.91683e-05
3.29214e-05
6.14396e-05
3.07891e-05
3.21369e-05
3.05174e-05
3.15511e-05
3.16362e-05
3.17094e-05
2.98905e-05
3.21119e-05
6.3871e-05
6.20713e-05
3.14722e-05
3.05133e-05
3.11035e-05
2.924e-05
3.08755e-05
2.97788e-05
3.12891e-05
2.96796e-05
3.21115e-05
6.38715e-05
6.20721e-05
3.14718e-05
3.05131e-05
3.11032e-05
3.08755e-05
2.92398e-05
3.1289e-05
2.97786e-05
2.96794e-05
3.22501e-05
5.91666e-05
3.29248e-05
6.14383e-05
3.07892e-05
3.21369e-05
3.0518e-05
3.15512e-05
3.16365e-05
3.17094e-05
2.98911e-05
3.22515e-05
5.91678e-05
3.2922e-05
6.14392e-05
3.05138e-05
3.11036e-05
2.92404e-05
3.08756e-05
2.97794e-05
3.12891e-05
2.96795e-05
3.21137e-05
6.38705e-05
6.20706e-05
3.14717e-05
3.05134e-05
3.11034e-05
3.08755e-05
2.92402e-05
3.12891e-05
2.97791e-05
2.96795e-05
3.21118e-05
6.38711e-05
6.20715e-05
3.14721e-05
3.02178e-05
3.02187e-05
3.12713e-05
3.00039e-05
3.00037e-05
8.43929e-05
8.50684e-05
8.48451e-05
8.5074e-05
3.09593e-05
2.99292e-05
2.99291e-05
2.99693e-05
2.99699e-05
8.48445e-05
8.50731e-05
3.07892e-05
3.21369e-05
3.05179e-05
3.15513e-05
3.16363e-05
3.17094e-05
2.9891e-05
3.22507e-05
5.91666e-05
3.2924e-05
6.14379e-05
3.22515e-05
5.91692e-05
3.29219e-05
6.14403e-05
3.05135e-05
3.11036e-05
3.08756e-05
2.92404e-05
3.12891e-05
2.97792e-05
2.96798e-05
3.05131e-05
3.11035e-05
3.08755e-05
2.92403e-05
3.1289e-05
2.97791e-05
2.96795e-05
3.2113e-05
6.38701e-05
6.20706e-05
3.14726e-05
3.21118e-05
6.38722e-05
6.20729e-05
3.14721e-05
8.43938e-05
8.50692e-05
8.43948e-05
8.50698e-05
3.09592e-05
2.99298e-05
2.99296e-05
2.99699e-05
2.99696e-05
8.48451e-05
8.50738e-05
8.48453e-05
8.50742e-05
8.46124e-05
8.3911e-05
8.46141e-05
8.39121e-05
2.99403e-05
2.99394e-05
2.93463e-05
3.00344e-05
3.00337e-05
8.26229e-05
8.355e-05
8.26232e-05
8.35509e-05
2.90385e-05
3.03199e-05
3.03199e-05
3.01069e-05
3.01063e-05
3.07523e-05
6.43467e-05
3.13489e-05
6.57239e-05
2.86003e-05
2.9145e-05
3.04685e-05
2.97976e-05
2.94123e-05
2.8678e-05
3.00678e-05
2.86001e-05
2.91447e-05
3.04685e-05
2.97974e-05
2.94119e-05
2.86777e-05
3.00677e-05
3.06413e-05
6.70808e-05
6.60668e-05
3.00984e-05
3.0641e-05
6.70816e-05
6.60675e-05
3.0098e-05
2.83434e-05
2.93754e-05
2.81934e-05
2.92845e-05
2.85967e-05
2.96732e-05
2.75606e-05
2.83431e-05
2.93753e-05
2.81931e-05
2.92844e-05
2.85964e-05
2.96731e-05
2.75604e-05
2.99403e-05
2.99402e-05
2.93463e-05
3.00345e-05
3.00343e-05
8.46134e-05
8.39117e-05
8.26239e-05
8.35497e-05
2.90385e-05
3.03216e-05
3.0319e-05
3.01071e-05
3.01069e-05
8.26233e-05
8.35506e-05
2.86002e-05
2.91446e-05
3.04685e-05
2.97978e-05
2.94121e-05
2.86776e-05
3.00678e-05
3.07523e-05
6.43491e-05
3.1349e-05
6.57256e-05
2.86e-05
3.04685e-05
2.91444e-05
2.97974e-05
2.94119e-05
3.00677e-05
2.86774e-05
3.06414e-05
6.70834e-05
6.60697e-05
3.00985e-05
2.83433e-05
2.93756e-05
2.8193e-05
2.92844e-05
2.85964e-05
2.96731e-05
2.75605e-05
3.06411e-05
6.70832e-05
6.60698e-05
3.00981e-05
2.8343e-05
2.93752e-05
2.92843e-05
2.81929e-05
2.9673e-05
2.85962e-05
2.75603e-05
3.07523e-05
6.43479e-05
3.13498e-05
6.5725e-05
2.86e-05
3.04685e-05
2.91448e-05
2.97976e-05
2.94122e-05
3.00678e-05
2.86778e-05
3.07526e-05
6.43485e-05
3.13492e-05
6.57253e-05
2.83438e-05
2.93758e-05
2.81932e-05
2.92845e-05
2.85967e-05
2.96732e-05
2.75603e-05
3.06416e-05
6.7083e-05
6.6069e-05
3.0098e-05
2.83434e-05
2.93754e-05
2.92844e-05
2.81931e-05
2.96731e-05
2.85965e-05
2.75603e-05
3.06413e-05
6.70829e-05
6.60692e-05
3.00983e-05
2.99402e-05
2.99405e-05
2.93462e-05
3.00344e-05
3.00343e-05
8.46135e-05
8.39111e-05
8.26226e-05
8.35509e-05
2.90384e-05
3.03191e-05
3.03177e-05
3.01071e-05
3.01073e-05
8.26227e-05
8.35507e-05
2.86001e-05
3.04685e-05
2.91449e-05
2.97977e-05
2.94119e-05
3.00677e-05
2.86779e-05
3.0753e-05
6.43479e-05
3.13498e-05
6.57246e-05
3.07526e-05
6.43499e-05
3.13492e-05
6.57263e-05
2.83434e-05
2.93757e-05
2.92845e-05
2.81933e-05
2.96732e-05
2.85967e-05
2.75606e-05
2.83431e-05
2.93756e-05
2.92844e-05
2.81933e-05
2.96731e-05
2.85966e-05
2.75604e-05
3.06418e-05
6.70826e-05
6.60689e-05
3.00988e-05
3.06413e-05
6.70837e-05
6.60705e-05
3.00983e-05
8.46137e-05
8.39121e-05
8.46142e-05
8.39114e-05
2.90383e-05
3.03207e-05
3.03198e-05
3.01073e-05
3.01075e-05
8.26235e-05
8.35508e-05
8.26226e-05
8.35509e-05
8.22146e-05
8.12209e-05
8.2215e-05
8.12206e-05
3.04387e-05
3.04381e-05
2.75308e-05
3.07815e-05
3.07818e-05
7.98349e-05
8.08061e-05
7.98342e-05
8.0806e-05
2.72364e-05
3.13899e-05
3.13907e-05
3.09261e-05
3.09261e-05
2.9517e-05
6.73151e-05
2.99992e-05
6.80304e-05
2.65674e-05
2.81253e-05
2.89016e-05
2.81491e-05
2.7316e-05
2.77835e-05
2.85246e-05
2.65672e-05
2.8125e-05
2.89016e-05
2.81488e-05
2.73157e-05
2.77833e-05
2.85245e-05
2.9432e-05
6.86555e-05
6.81775e-05
2.90168e-05
2.94317e-05
6.86554e-05
6.81774e-05
2.90166e-05
2.63372e-05