/*--------------------------------*- C++ -*----------------------------------*\
| =========                 |                                                 |
| \\      /  F ield         | OpenFOAM: The Open Source CFD Toolbox           |
|  \\    /   O peration     | Version:  2312                                  |
|   \\  /    A nd           | Website:  www.openfoam.com                      |
|    \\/     M anipulation  |                                                 |
\*---------------------------------------------------------------------------*/
FoamFile
{
    version     2.0;
    format      ascii;
    arch        "LSB;label=32;scalar=64";
    class       volScalarField;
    location    "125";
    object      k;
}
// * * * * * * * * * * * * * * * * * * * * * * * * * * * * * * * * * * * * * //

dimensions      [0 2 -2 0 0 0 0];

internalField   nonuniform List<scalar> 
43168
(
1.30779e-05
1.82541e-05
1.82558e-05
2.30677e-05
2.3025e-05
1.82555e-05
1.82547e-05
2.3024e-05
1.82544e-05
1.82574e-05
1.82538e-05
1.82568e-05
2.30269e-05
1.82554e-05
1.8256e-05
2.30279e-05
2.30603e-05
1.82558e-05
1.82552e-05
2.30596e-05
1.82548e-05
1.82576e-05
1.82572e-05
2.30621e-05
1.82563e-05
6.99583e-05
6.99594e-05
1.30779e-05
1.30779e-05
1.30785e-05
1.30788e-05
5.77312e-05
6.99568e-05
5.77273e-05
6.99579e-05
6.91369e-05
6.91422e-05
5.77305e-05
6.99579e-05
5.77266e-05
6.9959e-05
1.30779e-05
1.30785e-05
1.30787e-05
3.77643e-05
5.06237e-05
1.46459e-05
1.82544e-05
3.7768e-05
5.06245e-05
1.46461e-05
6.9139e-05
6.91439e-05
3.77649e-05
1.4647e-05
5.06235e-05
1.82561e-05
3.77692e-05
1.46471e-05
5.06244e-05
6.15934e-05
6.16022e-05
2.30422e-05
6.1595e-05
6.16038e-05
6.91426e-05
6.9145e-05
2.30401e-05
6.15973e-05
6.16069e-05
6.91423e-05
6.91373e-05
6.91447e-05
6.91398e-05
2.30725e-05
6.15974e-05
6.16069e-05
6.15958e-05
6.16052e-05
1.82551e-05
5.06223e-05
5.77267e-05
6.99581e-05
6.9957e-05
5.77306e-05
5.77254e-05
6.99537e-05
6.99526e-05
5.77293e-05
3.77704e-05
1.82553e-05
5.06235e-05
1.46459e-05
5.06227e-05
1.46457e-05
3.77644e-05
3.77694e-05
1.82542e-05
5.06207e-05
1.46456e-05
5.06212e-05
1.46454e-05
3.77634e-05
6.91425e-05
6.91372e-05
2.30728e-05
6.15971e-05
6.1599e-05
6.1596e-05
6.91428e-05
1.82541e-05
5.06245e-05
5.77259e-05
6.99592e-05
6.99581e-05
5.77299e-05
3.77723e-05
1.82543e-05
5.06258e-05
1.46462e-05
5.06245e-05
1.46461e-05
3.7765e-05
5.77248e-05
6.99551e-05
6.99539e-05
5.77289e-05
3.77717e-05
1.82572e-05
1.46465e-05
5.06243e-05
1.46464e-05
5.06232e-05
3.77642e-05
5.06235e-05
1.46458e-05
3.7763e-05
6.99572e-05
5.77274e-05
1.46464e-05
5.06223e-05
3.7764e-05
6.99544e-05
5.77295e-05
6.91442e-05
6.91394e-05
2.30773e-05
6.16024e-05
6.1598e-05
6.16008e-05
6.15962e-05
6.91427e-05
6.91378e-05
3.77715e-05
1.82553e-05
1.46468e-05
5.06232e-05
1.46467e-05
5.06221e-05
3.77643e-05
3.77697e-05
1.82557e-05
1.46472e-05
5.06249e-05
1.46471e-05
5.06239e-05
3.77623e-05
5.7724e-05
6.99582e-05
6.99571e-05
5.77271e-05
5.77211e-05
6.99555e-05
6.99544e-05
5.7724e-05
2.3068e-05
6.15949e-05
6.16037e-05
6.16021e-05
6.91426e-05
6.91447e-05
6.91398e-05
6.9137e-05
6.9142e-05
6.91394e-05
6.91444e-05
6.15959e-05
6.16053e-05
2.30381e-05
6.15975e-05
6.1607e-05
6.91367e-05
6.91392e-05
2.30752e-05
6.1596e-05
6.16055e-05
5.77299e-05
6.99524e-05
5.77257e-05
6.99535e-05
3.77654e-05
5.06238e-05
1.4646e-05
1.82563e-05
3.77693e-05
5.06243e-05
1.46462e-05
3.77643e-05
5.0622e-05
1.46457e-05
1.82555e-05
3.77683e-05
5.06215e-05
1.46458e-05
5.77277e-05
6.99566e-05
5.77263e-05
6.99522e-05
3.77711e-05
1.82565e-05
5.06248e-05
1.46463e-05
3.777e-05
1.82558e-05
5.0623e-05
1.4646e-05
6.1596e-05
6.15973e-05
2.30374e-05
6.15973e-05
6.15989e-05
6.91375e-05
6.91425e-05
6.91366e-05
2.30745e-05
6.15962e-05
6.15973e-05
6.91372e-05
3.77654e-05
5.06255e-05
1.46463e-05
1.82552e-05
3.77697e-05
5.06267e-05
1.46464e-05
5.77295e-05
6.99538e-05
5.77253e-05
6.99549e-05
3.77647e-05
1.46466e-05
5.06242e-05
1.82581e-05
3.77689e-05
1.46467e-05
5.06252e-05
5.77269e-05
6.99577e-05
3.77712e-05
1.82555e-05
5.06264e-05
1.46466e-05
5.77259e-05
6.99536e-05
3.77706e-05
1.82583e-05
1.46469e-05
5.0625e-05
5.77277e-05
6.99559e-05
5.77241e-05
6.99571e-05
3.77652e-05
1.46465e-05
5.06225e-05
1.82575e-05
3.77691e-05
1.46467e-05
5.06233e-05
5.77299e-05
6.9953e-05
5.7726e-05
6.99542e-05
3.777e-05
1.82547e-05
5.06248e-05
1.46462e-05
5.77245e-05
6.99558e-05
3.77707e-05
1.82577e-05
1.46469e-05
5.06237e-05
5.77264e-05
6.99529e-05
6.16009e-05
6.15965e-05
2.30401e-05
6.16025e-05
6.15982e-05
6.91375e-05
6.91424e-05
6.91387e-05
2.30771e-05
6.1601e-05
6.15967e-05
6.91372e-05
3.77632e-05
1.46473e-05
5.06248e-05
1.82566e-05
3.77673e-05
1.46474e-05
5.06259e-05
5.77273e-05
6.99569e-05
5.77238e-05
6.9958e-05
5.77242e-05
6.99542e-05
5.77209e-05
6.99553e-05
3.77706e-05
1.82564e-05
1.46473e-05
5.06243e-05
3.77689e-05
1.82568e-05
1.46475e-05
5.06256e-05
5.7724e-05
6.99567e-05
5.77212e-05
6.9954e-05
6.91374e-05
6.91423e-05
6.91395e-05
6.91444e-05
2.30761e-05
6.15935e-05
6.16023e-05
6.91371e-05
6.91392e-05
7.03042e-05
7.47564e-05
6.99571e-05
7.47502e-05
7.03124e-05
6.99581e-05
6.97224e-05
5.77275e-05
6.92881e-05
6.24693e-05
6.92865e-05
6.24642e-05
6.97248e-05
7.03119e-05
7.47502e-05
6.9958e-05
7.03037e-05
7.47563e-05
6.97249e-05
5.77308e-05
6.92866e-05
6.24641e-05
6.97225e-05
6.92882e-05
6.2469e-05
7.03035e-05
7.47563e-05
6.99567e-05
7.47501e-05
7.03117e-05
6.91423e-05
6.91368e-05
6.97223e-05
5.77268e-05
6.24677e-05
6.92881e-05
6.24626e-05
6.92865e-05
6.97246e-05
7.03117e-05
7.47477e-05
6.99591e-05
7.03035e-05
7.47538e-05
6.97247e-05
5.77301e-05
6.24625e-05
6.92866e-05
6.97224e-05
6.24674e-05
6.92882e-05
7.03034e-05
7.47537e-05
6.99578e-05
7.47476e-05
7.03115e-05
6.91441e-05
6.91389e-05
8.86275e-05
7.19493e-05
7.19433e-05
7.1943e-05
7.19371e-05
8.86304e-05
6.13707e-05
4.61902e-05
6.91773e-05
6.15949e-05
6.13679e-05
4.61922e-05
6.91788e-05
6.14317e-05
4.62051e-05
6.91894e-05
6.16037e-05
6.14289e-05
4.62071e-05
6.91908e-05
8.86304e-05
7.19432e-05
7.19373e-05
8.86274e-05
7.19494e-05
7.19435e-05
6.13682e-05
6.91787e-05
6.15935e-05
4.61926e-05
4.61905e-05
6.91772e-05
6.13709e-05
6.1429e-05
6.91908e-05
6.16022e-05
4.62076e-05
4.62053e-05
6.91893e-05
6.14318e-05
6.91375e-05
6.914e-05
8.86322e-05
7.19505e-05
7.19444e-05
7.19442e-05
7.19382e-05
8.86351e-05
6.13677e-05
6.91799e-05
6.15959e-05
4.619e-05
6.91784e-05
6.13698e-05
4.6188e-05
6.14282e-05
6.91919e-05
6.16053e-05
4.62048e-05
6.91904e-05
6.14307e-05
4.62026e-05
6.91371e-05
6.91424e-05
6.91396e-05
6.91449e-05
8.8635e-05
7.1944e-05
7.19379e-05
8.8632e-05
7.19503e-05
7.19442e-05
6.13679e-05
4.61902e-05
6.15959e-05
6.91798e-05
6.91782e-05
4.61883e-05
6.13699e-05
6.14292e-05
4.62055e-05
6.16053e-05
6.91917e-05
6.91902e-05
4.62033e-05
6.14316e-05
6.13699e-05
6.91783e-05
4.6188e-05
6.15973e-05
6.13677e-05
6.91798e-05
4.619e-05
6.14313e-05
6.91903e-05
4.62027e-05
6.16068e-05
6.14286e-05
6.91918e-05
4.6205e-05
8.86318e-05
7.19501e-05
7.1944e-05
7.19438e-05
7.19377e-05
8.86348e-05
6.97251e-05
6.92868e-05
6.24637e-05
5.77303e-05
6.97228e-05
6.92884e-05
6.24686e-05
7.03038e-05
6.99569e-05
7.47564e-05
7.0312e-05
7.47502e-05
7.03122e-05
7.47501e-05
6.99582e-05
7.0304e-05
7.47564e-05
6.97227e-05
5.77269e-05
6.92883e-05
6.24689e-05
6.9725e-05
6.92867e-05
6.24638e-05
6.97238e-05
6.92864e-05
6.24591e-05
5.77289e-05
6.97214e-05
6.92879e-05
6.2464e-05
7.03025e-05
6.99525e-05
7.47374e-05
7.47312e-05
7.03106e-05
7.03108e-05
7.47312e-05
6.99538e-05
7.03027e-05
7.47374e-05
6.97213e-05
5.77256e-05
6.92878e-05
6.24643e-05
6.92863e-05
6.24593e-05
6.97237e-05
6.91371e-05
6.91426e-05
6.14295e-05
4.62035e-05
6.15959e-05
6.91895e-05
4.62012e-05
6.9188e-05
6.14316e-05
6.13677e-05
4.61915e-05
6.15975e-05
6.91805e-05
6.91789e-05
4.61893e-05
6.13699e-05
4.6201e-05
6.1597e-05
4.62029e-05
8.86291e-05
7.1944e-05
7.19499e-05
7.19378e-05
7.19433e-05
8.86316e-05
6.91376e-05
6.9725e-05
6.24619e-05
6.92868e-05
5.77296e-05
6.97226e-05
6.2467e-05
6.92884e-05
7.03037e-05
6.9958e-05
7.47539e-05
7.03119e-05
7.47478e-05
7.03121e-05
7.47478e-05
6.99593e-05
7.03039e-05
7.47539e-05
6.97225e-05
5.77262e-05
6.24673e-05
6.92883e-05
6.97249e-05
6.24622e-05
6.92867e-05
6.97235e-05
6.92863e-05
6.24578e-05
5.77285e-05
6.97212e-05
6.92879e-05
6.24629e-05
7.03016e-05
6.99539e-05
7.47344e-05
7.47284e-05
7.03098e-05
7.03099e-05
7.47283e-05
6.99551e-05
7.03018e-05
7.47344e-05
6.9721e-05
5.77251e-05
6.92878e-05
6.24632e-05
6.92862e-05
6.24581e-05
6.97234e-05
7.03012e-05
6.9956e-05
7.4748e-05
7.47426e-05
7.03101e-05
6.97199e-05
5.77242e-05
6.24626e-05
6.92868e-05
6.24582e-05
6.92852e-05
6.97225e-05
7.03014e-05
6.99531e-05
7.47327e-05
7.47266e-05
7.03096e-05
6.97206e-05
5.77258e-05
6.92872e-05
6.24636e-05
6.92856e-05
6.24586e-05
6.9723e-05
6.91392e-05
6.91444e-05
8.86299e-05
7.1938e-05
7.19433e-05
8.86272e-05
7.19442e-05
7.19496e-05
6.14294e-05
4.62065e-05
6.16009e-05
6.91905e-05
4.62041e-05
6.9189e-05
6.14315e-05
6.13662e-05
4.61913e-05
6.15964e-05
6.91798e-05
6.91783e-05
4.6189e-05
6.13685e-05
6.14318e-05
6.91891e-05
4.62036e-05
6.16023e-05
4.6206e-05
6.14295e-05
6.91906e-05
6.13687e-05
6.91783e-05
4.61885e-05
6.15978e-05
6.13663e-05
6.91799e-05
4.61908e-05
8.86268e-05
7.1944e-05
7.19493e-05
7.19378e-05
7.19431e-05
8.86295e-05
6.91376e-05
6.91429e-05
6.97241e-05
6.2462e-05
6.92851e-05
5.77271e-05
6.97217e-05
6.24671e-05
6.92868e-05
7.03034e-05
6.9957e-05
7.47521e-05
7.4746e-05
7.03115e-05
7.03117e-05
7.4746e-05
6.99583e-05
7.03036e-05
7.47521e-05
6.97216e-05
5.77239e-05
6.24673e-05
6.92866e-05
6.24622e-05
6.9285e-05
6.97239e-05
6.97222e-05
6.24556e-05
6.92839e-05
5.7724e-05
6.97197e-05
6.24603e-05
6.92856e-05
7.03019e-05
6.99543e-05
7.47344e-05
7.47283e-05
7.03101e-05
7.03103e-05
7.47284e-05
6.99556e-05
7.03021e-05
7.47344e-05
6.97195e-05
5.7721e-05
6.24605e-05
6.92855e-05
6.24558e-05
6.92837e-05
6.9722e-05
8.86306e-05
7.19499e-05
7.19439e-05
6.13677e-05
4.61919e-05
6.15933e-05
6.91789e-05
6.13703e-05
4.61896e-05
6.91774e-05
6.1429e-05
4.62069e-05
6.16021e-05
6.91909e-05
6.14315e-05
4.62046e-05
6.91895e-05
6.13699e-05
6.15947e-05
4.61913e-05
6.9179e-05
6.14315e-05
4.62041e-05
6.16036e-05
4.62065e-05
6.9191e-05
8.86275e-05
7.19496e-05
7.19437e-05
8.86304e-05
7.19434e-05
7.19375e-05
6.91375e-05
6.91428e-05
6.91397e-05
6.91449e-05
6.91421e-05
6.91368e-05
6.91446e-05
6.91393e-05
8.86318e-05
7.19499e-05
7.19438e-05
7.19435e-05
7.19374e-05
8.86348e-05
6.13701e-05
4.6188e-05
6.91781e-05
6.15973e-05
6.13679e-05
6.91797e-05
4.61897e-05
6.1432e-05
4.62035e-05
6.91901e-05
6.16069e-05
6.14294e-05
6.91917e-05
4.62057e-05
8.86348e-05
7.19437e-05
7.19376e-05
8.86317e-05
7.195e-05
7.19439e-05
6.1368e-05
6.91796e-05
6.1596e-05
4.61896e-05
6.91781e-05
6.13703e-05
4.61877e-05
6.14296e-05
6.91916e-05
6.16055e-05
4.6206e-05
6.91901e-05
6.14321e-05
4.62039e-05
6.91419e-05
6.91443e-05
8.86349e-05
7.19434e-05
7.19373e-05
8.86318e-05
7.19498e-05
7.19437e-05
6.13708e-05
6.9178e-05
4.61875e-05
6.15975e-05
6.13684e-05
6.91795e-05
4.61895e-05
6.14324e-05
6.919e-05
4.62037e-05
6.1607e-05
6.14299e-05
6.91915e-05
4.62056e-05
6.97211e-05
5.77261e-05
6.92876e-05
6.24647e-05
6.92861e-05
6.24596e-05
6.97235e-05
7.03105e-05
7.47311e-05
6.99536e-05
7.03023e-05
7.47373e-05
6.97236e-05
5.77295e-05
6.92861e-05
6.24593e-05
6.92877e-05
6.97212e-05
6.24644e-05
7.03022e-05
7.47374e-05
6.99523e-05
7.47311e-05
7.03104e-05
6.97247e-05
6.92864e-05
6.24644e-05
5.77314e-05
6.97224e-05
6.9288e-05
6.24694e-05
7.03116e-05
7.47501e-05
6.99578e-05
7.03034e-05
7.47564e-05
6.97234e-05
6.9286e-05
6.24597e-05
5.77301e-05
6.9721e-05
6.92876e-05
6.24648e-05
7.03102e-05
7.47311e-05
6.99534e-05
7.03021e-05
7.47374e-05
8.86284e-05
7.19436e-05
7.19492e-05
7.19374e-05
7.1943e-05
8.86314e-05
6.14318e-05
4.62014e-05
6.91879e-05
6.15972e-05
6.91894e-05
6.14291e-05
4.62037e-05
6.13701e-05
4.61895e-05
6.91788e-05
6.15988e-05
4.61916e-05
6.13676e-05
6.91804e-05
8.86315e-05
7.19376e-05
7.19433e-05
7.19438e-05
8.86285e-05
7.19495e-05
6.14292e-05
6.91893e-05
6.15961e-05
4.62041e-05
6.91878e-05
4.62019e-05
6.14318e-05
6.13677e-05
6.91803e-05
6.15974e-05
4.6192e-05
4.61899e-05
6.91787e-05
6.13702e-05
6.91427e-05
6.91374e-05
6.91421e-05
8.86316e-05
7.19372e-05
7.19427e-05
8.86284e-05
7.19435e-05
7.1949e-05
6.14321e-05
6.91877e-05
4.6202e-05
6.15974e-05
4.62041e-05
6.14294e-05
6.91892e-05
6.13706e-05
6.91786e-05
4.619e-05
6.15989e-05
6.1368e-05
6.91801e-05
4.6192e-05
6.91424e-05
6.97208e-05
5.77257e-05
6.92876e-05
6.24636e-05
6.9286e-05
6.24585e-05
6.97232e-05
7.03096e-05
7.47283e-05
6.9955e-05
7.03015e-05
7.47344e-05
6.97233e-05
5.77291e-05
6.92861e-05
6.24582e-05
6.92877e-05
6.97209e-05
6.24633e-05
7.03013e-05
7.47345e-05
6.99537e-05
7.47284e-05
7.03095e-05
6.97246e-05
6.24627e-05
6.92864e-05
5.77307e-05
6.97222e-05
6.24678e-05
6.9288e-05
7.03114e-05
7.47476e-05
6.99589e-05
7.03032e-05
7.47538e-05
6.97231e-05
6.92859e-05
6.24586e-05
5.77296e-05
6.97207e-05
6.92875e-05
6.24638e-05
7.03094e-05
7.47284e-05
6.99548e-05
7.03012e-05
7.47346e-05
6.97196e-05
5.77244e-05
6.24629e-05
6.92866e-05
6.24584e-05
6.92849e-05
6.97223e-05
7.03099e-05
7.47425e-05
6.99571e-05
7.47478e-05
7.03011e-05
6.97224e-05
5.77274e-05
6.24582e-05
6.9285e-05
6.24626e-05
6.97197e-05
6.92867e-05
7.03009e-05
7.47479e-05
6.99558e-05
7.47424e-05
7.03098e-05
6.97204e-05
5.77263e-05
6.9287e-05
6.24639e-05
6.92854e-05
6.24589e-05
6.97228e-05
7.03094e-05
7.47265e-05
6.99543e-05
7.03012e-05
7.47326e-05
6.97229e-05
5.77296e-05
6.92855e-05
6.24587e-05
6.97205e-05
6.92871e-05
6.24637e-05
7.03011e-05
7.47327e-05
6.9953e-05
7.47265e-05
7.03093e-05
6.97222e-05
6.24586e-05
6.92848e-05
5.77278e-05
6.97195e-05
6.24631e-05
6.92865e-05
7.03097e-05
7.47425e-05
6.9957e-05
7.03008e-05
7.4748e-05
6.97227e-05
6.92853e-05
6.24591e-05
5.773e-05
6.97203e-05
6.92869e-05
6.24641e-05
7.03091e-05
7.47265e-05
6.99541e-05
7.03009e-05
7.47327e-05
8.86265e-05
7.19437e-05
7.1949e-05
7.19374e-05
7.19427e-05
8.86292e-05
6.14316e-05
4.62042e-05
6.91889e-05
6.16023e-05
6.91904e-05
6.14292e-05
4.62067e-05
6.13685e-05
4.61893e-05
6.91782e-05
6.1598e-05
4.61914e-05
6.13661e-05
6.91797e-05
8.86294e-05
7.19376e-05
7.19429e-05
7.19438e-05
8.86266e-05
7.19492e-05
6.14291e-05
6.91903e-05
6.1601e-05
4.62071e-05
6.91888e-05
4.62047e-05
6.14316e-05
6.1366e-05
6.91796e-05
6.15967e-05
4.61919e-05
4.61897e-05
6.91781e-05
6.13685e-05
6.91426e-05
6.91373e-05
6.91438e-05
8.86292e-05
7.19373e-05
7.19426e-05
8.86264e-05
7.19435e-05
7.19489e-05
6.1432e-05
6.91887e-05
4.62048e-05
6.16025e-05
4.62073e-05
6.14294e-05
6.91902e-05
6.13687e-05
6.9178e-05
4.61898e-05
6.15982e-05
6.13662e-05
6.91795e-05
4.6192e-05
6.91423e-05
6.97213e-05
5.7724e-05
6.24676e-05
6.92863e-05
6.24626e-05
6.92847e-05
6.97237e-05
7.03113e-05
7.47459e-05
6.99581e-05
7.4752e-05
7.03032e-05
6.97238e-05
5.77271e-05
6.24623e-05
6.92848e-05
6.24674e-05
6.97214e-05
6.92865e-05
7.03031e-05
7.4752e-05
6.99568e-05
7.47459e-05
7.03112e-05
6.97193e-05
5.77211e-05
6.24608e-05
6.92852e-05
6.24561e-05
6.92834e-05
6.97218e-05
7.03099e-05
7.47282e-05
6.99554e-05
7.03017e-05
7.47342e-05
6.97219e-05
5.7724e-05
6.24559e-05
6.92836e-05
6.97194e-05
6.24606e-05
6.92853e-05
7.03015e-05
7.47343e-05
6.99541e-05
7.47282e-05
7.03098e-05
6.97236e-05
6.24626e-05
6.92845e-05
5.77274e-05
6.97212e-05
6.24677e-05
6.92862e-05
7.03111e-05
7.47459e-05
6.99579e-05
7.03029e-05
7.4752e-05
6.97217e-05
6.24562e-05
6.92833e-05
5.77242e-05
6.97191e-05
6.24609e-05
6.9285e-05
7.03096e-05
7.47282e-05
6.99552e-05
7.03014e-05
7.47343e-05
6.91425e-05
6.91372e-05
6.91446e-05
6.91393e-05
8.86306e-05
7.19429e-05
7.1937e-05
8.86275e-05
7.19491e-05
7.19432e-05
6.13712e-05
6.91771e-05
4.61905e-05
6.1595e-05
6.13685e-05
4.61926e-05
6.91786e-05
6.14321e-05
6.91892e-05
4.62054e-05
6.16038e-05
6.14293e-05
4.62077e-05
6.91907e-05
6.91422e-05
6.91443e-05
1.30778e-05
1.22152e-05
1.22152e-05
1.30779e-05
1.22152e-05
1.22152e-05
1.19908e-05
1.19908e-05
4.53493e-05
3.26385e-05
3.26451e-05
2.30366e-05
4.53532e-05
3.26233e-05
3.26297e-05
4.53519e-05
2.30628e-05
3.26215e-05
3.26276e-05
3.26363e-05
3.26426e-05
4.53481e-05
4.53525e-05
2.30615e-05
3.26256e-05
3.26217e-05
3.26405e-05
3.26366e-05
4.53483e-05
4.53463e-05
2.3065e-05
3.26273e-05
3.26222e-05
3.26423e-05
3.26373e-05
4.53425e-05
4.53536e-05
2.30623e-05
3.26225e-05
3.2629e-05
4.53496e-05
3.26373e-05
3.26439e-05
4.53483e-05
3.26369e-05
3.26432e-05
2.30283e-05
4.53521e-05
3.2622e-05
3.26283e-05
4.53484e-05
3.26413e-05
3.26375e-05
2.30277e-05
3.26225e-05
4.53524e-05
3.26264e-05
4.53428e-05
3.26427e-05
3.26378e-05
2.30302e-05
3.26228e-05
4.53466e-05
3.26278e-05
1.30778e-05
1.22153e-05
1.22152e-05
1.22153e-05
1.22152e-05
1.19909e-05
1.19909e-05
1.30773e-05
1.22152e-05
1.22153e-05
1.22152e-05
1.22152e-05
1.19909e-05
1.19908e-05
1.30785e-05
1.22155e-05
1.22155e-05
1.22155e-05
1.22156e-05
1.19909e-05
1.19909e-05
1.30788e-05
1.22157e-05
1.22157e-05
1.22157e-05
1.22157e-05
1.1991e-05
1.19909e-05
1.22152e-05
1.22153e-05
1.30779e-05
1.22152e-05
1.22152e-05
1.19907e-05
1.19908e-05
1.22155e-05
1.22155e-05
1.30786e-05
1.22155e-05
1.22155e-05
1.19908e-05
1.19908e-05
1.22156e-05
1.22157e-05
1.30787e-05
1.22156e-05
1.22156e-05
1.19908e-05
1.19909e-05
1.3078e-05
1.22152e-05
1.22152e-05
1.19907e-05
1.30779e-05
1.22151e-05
1.22152e-05
1.19907e-05
1.30786e-05
1.22154e-05
1.22155e-05
1.19907e-05
1.30787e-05
1.22155e-05
1.22156e-05
1.19908e-05
2.57295e-05
3.77688e-05
4.12684e-05
2.35175e-05
4.12741e-05
2.35373e-05
2.56988e-05
2.95146e-05
3.5711e-05
4.64399e-05
5.06238e-05
2.95413e-05
3.56988e-05
4.6433e-05
2.56981e-05
3.77631e-05
4.12739e-05
2.35366e-05
2.57285e-05
4.12679e-05
2.35165e-05
2.95407e-05
4.64313e-05
5.06243e-05
3.56995e-05
3.57113e-05
4.64379e-05
2.95139e-05
2.57326e-05
3.77695e-05
2.35192e-05
4.12718e-05
2.3539e-05
4.12772e-05
2.57018e-05
2.95165e-05
3.57118e-05
4.64411e-05
5.06237e-05
2.9543e-05
3.56997e-05
4.64346e-05
2.57012e-05
3.77639e-05
2.35384e-05
4.12773e-05
2.57316e-05
2.35182e-05
4.12714e-05
2.95424e-05
4.64335e-05
5.0624e-05
3.57004e-05
3.57121e-05
4.64393e-05
2.95156e-05
4.53529e-05
2.30758e-05
3.26241e-05
3.26305e-05
3.26392e-05
3.26456e-05
4.53488e-05
4.53535e-05
2.30755e-05
3.26201e-05
3.26262e-05
4.53484e-05
3.26384e-05
3.26446e-05
4.5348e-05
2.30311e-05
3.26355e-05
3.26417e-05
4.5352e-05
3.26205e-05
3.26267e-05
2.95437e-05
4.64342e-05
5.0622e-05
3.56981e-05
4.64408e-05
3.57114e-05
2.95135e-05
2.56994e-05
4.12771e-05
2.35365e-05
3.7765e-05
2.57298e-05
4.12713e-05
2.35162e-05
2.95426e-05
3.56994e-05
5.06235e-05
4.64377e-05
3.5711e-05
4.64427e-05
2.95165e-05
2.95145e-05
4.64404e-05
3.57102e-05
5.06229e-05
3.56986e-05
2.95403e-05
4.64355e-05
2.57305e-05
3.77699e-05
4.12718e-05
2.35171e-05
4.12776e-05
2.3537e-05
2.57001e-05
2.56976e-05
4.12736e-05
2.35358e-05
3.7764e-05
2.57281e-05
4.1268e-05
2.35155e-05
2.95405e-05
3.57018e-05
5.06218e-05
4.64307e-05
4.64357e-05
3.57134e-05
2.95143e-05
2.95121e-05
4.64337e-05
3.5713e-05
5.06203e-05
2.95381e-05
4.64289e-05
3.57008e-05
2.57288e-05
3.77688e-05
4.12686e-05
2.35164e-05
4.12742e-05
2.35363e-05
2.56983e-05
2.30298e-05
3.26403e-05
3.26245e-05
5.0624e-05
3.57025e-05
3.57158e-05
2.56986e-05
4.12772e-05
2.35394e-05
3.77662e-05
2.57321e-05
4.12711e-05
2.35163e-05
2.95413e-05
3.57038e-05
5.06252e-05
4.64375e-05
3.57155e-05
4.64422e-05
2.95153e-05
2.9514e-05
4.64405e-05
3.57147e-05
5.06252e-05
3.57031e-05
2.95428e-05
4.64353e-05
2.57299e-05
3.77707e-05
4.12715e-05
2.35171e-05
4.12773e-05
2.35371e-05
2.56994e-05
2.56986e-05
2.35394e-05
4.1275e-05
3.77655e-05
2.57319e-05
2.35163e-05
4.12691e-05
2.95426e-05
3.57056e-05
5.06238e-05
4.64314e-05
4.64364e-05
3.57171e-05
2.95167e-05
2.95156e-05
4.64359e-05
3.57178e-05
5.06236e-05
2.95441e-05
4.64304e-05
3.57047e-05
2.57297e-05
3.77699e-05
2.35171e-05
4.12691e-05
2.35371e-05
4.12747e-05
2.56994e-05
2.95405e-05
3.56985e-05
5.06232e-05
4.64342e-05
2.95144e-05
3.57101e-05
4.64395e-05
2.57278e-05
3.77687e-05
4.12682e-05
2.35158e-05
2.56971e-05
4.12742e-05
2.35357e-05
2.95411e-05
3.57002e-05
5.0622e-05
4.64314e-05
4.64366e-05
3.57118e-05
2.95153e-05
2.57299e-05
3.77695e-05
2.35167e-05
4.12694e-05
2.35366e-05
4.12753e-05
2.56993e-05
4.53424e-05
2.30338e-05
3.26452e-05
3.26402e-05
3.26265e-05
4.53468e-05
3.26215e-05
2.56995e-05
2.35397e-05
4.12779e-05
3.77654e-05
2.57328e-05
2.35167e-05
4.12719e-05
2.95421e-05
3.56994e-05
5.06228e-05
4.64361e-05
2.95162e-05
3.5711e-05
4.64416e-05
2.95151e-05
4.64407e-05
3.57116e-05
5.06225e-05
2.95433e-05
3.56986e-05
4.64355e-05
2.57307e-05
3.777e-05
2.35176e-05
4.12718e-05
2.57003e-05
2.35374e-05
4.12777e-05
2.56985e-05
2.35391e-05
4.12741e-05
3.77634e-05
2.57318e-05
2.3516e-05
4.12678e-05
2.95424e-05
3.57052e-05
5.06244e-05
4.64319e-05
4.64369e-05
3.57169e-05
2.95164e-05
2.95153e-05
4.6436e-05
3.57176e-05
5.06244e-05
2.95436e-05
4.64305e-05
3.57045e-05
2.57297e-05
3.77679e-05
2.35169e-05
4.12679e-05
2.35368e-05
4.12738e-05
2.56992e-05
4.53502e-05
2.30286e-05
3.2646e-05
3.26213e-05
3.26279e-05
4.5352e-05
2.30702e-05
3.26228e-05
3.26291e-05
4.5348e-05
3.26377e-05
3.26442e-05
4.53476e-05
2.30387e-05
3.26379e-05
3.26445e-05
4.53517e-05
3.26229e-05
3.26292e-05
2.57323e-05
3.77699e-05
4.12715e-05
2.35187e-05
4.12776e-05
2.35385e-05
2.57014e-05
2.95172e-05
3.57113e-05
4.64438e-05
5.06238e-05
4.64372e-05
2.95436e-05
3.56996e-05
2.5701e-05
3.77643e-05
4.12778e-05
2.35375e-05
4.12717e-05
2.57315e-05
2.35177e-05
2.95435e-05
4.64349e-05
5.06243e-05
3.57001e-05
4.64421e-05
3.57119e-05
2.95164e-05
2.57306e-05
3.77688e-05
4.12682e-05
2.3518e-05
4.1274e-05
2.35379e-05
2.56996e-05
2.9515e-05
3.5714e-05
4.64363e-05
5.06209e-05
2.95415e-05
4.64298e-05
3.57021e-05
2.56992e-05
3.77633e-05
4.12743e-05
2.35369e-05
2.57297e-05
4.12684e-05
2.3517e-05
2.95413e-05
4.64275e-05
5.06224e-05
3.57028e-05
4.64342e-05
2.9514e-05
3.57147e-05
2.57022e-05
4.12775e-05
2.35391e-05
3.77664e-05
2.57327e-05
4.12717e-05
2.35192e-05
2.95163e-05
4.64402e-05
3.57121e-05
5.06248e-05
3.57004e-05
2.95427e-05
4.64346e-05
2.57004e-05
4.12741e-05
2.35385e-05
3.77654e-05
2.5731e-05
4.12687e-05
2.35185e-05
2.9514e-05
4.64328e-05
3.5715e-05
5.06221e-05
2.95405e-05
4.64279e-05
3.57031e-05
4.53521e-05
2.30696e-05
3.26272e-05
3.26234e-05
3.26385e-05
3.26424e-05
4.53477e-05
4.53473e-05
2.30381e-05
3.26427e-05
3.26388e-05
3.26274e-05
4.53515e-05
3.26235e-05
2.57318e-05
3.777e-05
4.12711e-05
2.35187e-05
4.12773e-05
2.35386e-05
2.57008e-05
2.95164e-05
3.57159e-05
4.64437e-05
5.0626e-05
4.64374e-05
2.95429e-05
3.57042e-05
2.57003e-05
3.77646e-05
4.12775e-05
2.35376e-05
4.12715e-05
2.5731e-05
2.35177e-05
2.95429e-05
4.64347e-05
5.06261e-05
3.57048e-05
4.6442e-05
3.57165e-05
2.95157e-05
2.57317e-05
3.77692e-05
2.35187e-05
4.12692e-05
2.35386e-05
4.12747e-05
2.57009e-05
2.95172e-05
3.57175e-05
4.64368e-05
5.06246e-05
2.95435e-05
4.64309e-05
3.5706e-05
2.57003e-05
3.77638e-05
2.35376e-05
4.12747e-05
2.57308e-05
2.35177e-05
4.1269e-05
2.95432e-05
4.64295e-05
5.06247e-05
3.57066e-05
4.64356e-05
2.95166e-05
3.57182e-05
2.57017e-05
4.12771e-05
2.35393e-05
3.77666e-05
2.57323e-05
4.12713e-05
2.35193e-05
2.95156e-05
4.64395e-05
3.57167e-05
5.0627e-05
3.57049e-05
2.95422e-05
4.64339e-05
2.57018e-05
2.35393e-05
4.12751e-05
3.7766e-05
2.57322e-05
2.35193e-05
4.12697e-05
2.95171e-05
4.64347e-05
3.57185e-05
5.06254e-05
2.9543e-05
4.64296e-05
3.5707e-05
2.57315e-05
3.77698e-05
2.35185e-05
4.12692e-05
2.35383e-05
4.12752e-05
2.57007e-05
2.95158e-05
3.57122e-05
4.64373e-05
5.06226e-05
3.57007e-05
2.95423e-05
4.64306e-05
2.57003e-05
3.77642e-05
2.35373e-05
4.12753e-05
2.35175e-05
2.57306e-05
4.12693e-05
2.95418e-05
4.64286e-05
5.06232e-05
3.57014e-05
3.57131e-05
4.64355e-05
2.95149e-05
2.56998e-05
4.12746e-05
2.35379e-05
3.7765e-05
2.57302e-05
4.12689e-05
2.3518e-05
2.95147e-05
4.64372e-05
3.57116e-05
5.06249e-05
2.95406e-05
3.56997e-05
4.64323e-05
2.57018e-05
2.35389e-05
4.12752e-05
3.77659e-05
2.57321e-05
2.3519e-05
4.12696e-05
2.95157e-05
4.64342e-05
3.57134e-05
5.06237e-05
2.95415e-05
4.64288e-05
3.57017e-05
4.53466e-05
2.30722e-05
3.26285e-05
3.26235e-05
3.26386e-05
3.26436e-05
4.53427e-05
4.53429e-05
2.30401e-05
3.26438e-05
3.26388e-05
3.26286e-05
4.53467e-05
3.26236e-05
2.57315e-05
3.77679e-05
2.35185e-05
4.12677e-05
2.35384e-05
4.12736e-05
2.57006e-05
2.95168e-05
3.57173e-05
4.64376e-05
5.06252e-05
3.57056e-05
2.95433e-05
4.64313e-05
2.57001e-05
3.77622e-05
2.35374e-05
4.12737e-05
2.35175e-05
2.57307e-05
4.12677e-05
2.95428e-05
4.64295e-05
5.06254e-05
3.57062e-05
3.57179e-05
4.64361e-05
2.95159e-05
2.57027e-05
2.35396e-05
4.12781e-05
3.77659e-05
2.57331e-05
2.35197e-05
4.12727e-05
2.95165e-05
4.64395e-05
3.57124e-05
5.06246e-05
2.95423e-05
3.57007e-05
4.64349e-05
2.57015e-05
2.35389e-05
4.12737e-05
3.77639e-05
2.57321e-05
2.3519e-05
4.1268e-05
2.95165e-05
4.64348e-05
3.57182e-05
5.06261e-05
2.95425e-05
4.64296e-05
3.57065e-05
4.53489e-05
2.30359e-05
3.26394e-05
3.26459e-05
4.53527e-05
3.26242e-05
3.26307e-05
1.30781e-05
1.82551e-05
1.8257e-05
2.30642e-05
1.30781e-05
1.82557e-05
1.82576e-05
2.30656e-05
1.30773e-05
1.82553e-05
1.82572e-05
2.30688e-05
1.30767e-05
1.82549e-05
1.82566e-05
2.30732e-05
1.30766e-05
1.82549e-05
1.82565e-05
2.30772e-05
1.30767e-05
1.82553e-05
1.82569e-05
2.30777e-05
1.30769e-05
1.82558e-05
1.82574e-05
2.30769e-05
1.30771e-05
1.82561e-05
1.82577e-05
2.30719e-05
1.30772e-05
1.82564e-05
1.82582e-05
2.30702e-05
1.30773e-05
1.82567e-05
1.82585e-05
2.30743e-05
1.30774e-05
1.82568e-05
1.82585e-05
2.30721e-05
1.30776e-05
1.82569e-05
1.82586e-05
2.30672e-05
1.30777e-05
1.8257e-05
1.82588e-05
2.30699e-05
1.30778e-05
1.82572e-05
1.82589e-05
2.30772e-05
1.3078e-05
1.82576e-05
1.82593e-05
2.3083e-05
1.30783e-05
1.82579e-05
1.82596e-05
2.3082e-05
1.30786e-05
1.82583e-05
1.826e-05
2.30751e-05
1.30789e-05
1.82583e-05
1.82601e-05
2.30672e-05
1.30743e-05
1.82373e-05
1.82389e-05
2.30619e-05
1.34653e-05
1.72481e-05
1.72495e-05
2.2133e-05
2.30293e-05
1.82567e-05
1.8256e-05
2.30287e-05
1.82556e-05
1.82585e-05
1.82548e-05
1.8258e-05
2.30304e-05
1.82566e-05
1.8257e-05
2.30291e-05
2.30619e-05
2.30352e-05
1.8257e-05
1.82564e-05
1.82576e-05
1.82571e-05
2.30613e-05
2.30351e-05
1.8256e-05
1.82589e-05
1.82565e-05
1.82595e-05
1.82584e-05
1.82557e-05
1.82589e-05
2.30632e-05
2.30362e-05
1.82575e-05
1.82576e-05
1.82579e-05
2.30331e-05
2.30661e-05
2.30398e-05
1.82576e-05
1.8257e-05
1.82573e-05
1.82569e-05
2.30661e-05
2.30396e-05
1.82565e-05
1.82595e-05
1.82562e-05
1.82593e-05
1.82589e-05
1.82555e-05
1.82587e-05
2.30673e-05
2.30413e-05
1.82579e-05
1.82574e-05
1.82577e-05
2.30379e-05
2.30711e-05
2.30398e-05
1.8257e-05
1.82566e-05
1.82568e-05
1.82563e-05
2.30711e-05
2.30391e-05
1.82559e-05
1.82591e-05
1.82557e-05
1.82588e-05
1.82585e-05
1.8255e-05
1.82581e-05
2.30724e-05
2.30419e-05
1.82575e-05
1.82568e-05
1.82571e-05
2.30417e-05
2.30754e-05
2.30351e-05
1.82566e-05
1.82561e-05
1.82565e-05
1.82561e-05
2.30747e-05
2.30351e-05
1.82555e-05
1.82586e-05
1.82555e-05
1.82586e-05
1.82579e-05
1.82548e-05
1.8258e-05
2.3077e-05
2.30382e-05
1.8257e-05
1.82565e-05
1.82571e-05
2.30421e-05
2.30741e-05
2.30301e-05
1.82565e-05
1.82561e-05
1.82567e-05
1.82564e-05
2.30738e-05
2.30306e-05
1.82555e-05
1.82586e-05
1.82557e-05
1.82588e-05
1.82579e-05
1.8255e-05
1.82582e-05
2.30765e-05
2.30335e-05
1.8257e-05
1.82567e-05
1.82572e-05
2.30402e-05
2.30713e-05
2.30274e-05
1.82569e-05
1.82566e-05
1.82571e-05
1.82567e-05
2.30717e-05
2.3027e-05
1.82559e-05
1.82591e-05
1.82561e-05
1.82591e-05
1.82582e-05
1.82554e-05
1.82587e-05
2.30743e-05
2.30296e-05
1.82573e-05
1.82571e-05
1.82577e-05
2.30369e-05
2.30661e-05
2.30307e-05
1.82575e-05
1.82569e-05
1.82577e-05
1.82571e-05
2.30663e-05
2.30293e-05
1.82564e-05
1.82594e-05
1.82566e-05
1.82595e-05
1.82589e-05
1.82559e-05
1.82591e-05
2.30697e-05
2.30308e-05
1.8258e-05
1.82575e-05
1.82581e-05
2.30319e-05
2.30638e-05
2.30403e-05
1.82578e-05
1.82572e-05
1.82582e-05
1.82577e-05
2.30626e-05
2.30404e-05
1.82567e-05
1.82596e-05
1.82572e-05
1.82601e-05
1.82594e-05
1.82564e-05
1.82595e-05
2.30644e-05
2.30431e-05
1.82583e-05
1.82581e-05
1.82585e-05
2.30344e-05
2.30715e-05
2.30412e-05
1.82581e-05
1.82576e-05
1.82583e-05
1.82579e-05
2.30716e-05
2.30398e-05
1.82571e-05
1.826e-05
1.82573e-05
1.82604e-05
1.82595e-05
1.82566e-05
1.82598e-05
2.30745e-05
2.30417e-05
1.82585e-05
1.82584e-05
1.82588e-05
2.30347e-05
2.30761e-05
2.30407e-05
1.82583e-05
1.82581e-05
1.82584e-05
1.8258e-05
2.30764e-05
2.30353e-05
1.82573e-05
1.82606e-05
1.82574e-05
1.82605e-05
1.82599e-05
1.82567e-05
1.82599e-05
2.30795e-05
2.30315e-05
1.82589e-05
1.82584e-05
1.82589e-05
2.30324e-05
2.30739e-05
2.30421e-05
1.82584e-05
1.82581e-05
1.82586e-05
1.82582e-05
2.30699e-05
2.3039e-05
1.82574e-05
1.82605e-05
1.82576e-05
1.82607e-05
1.826e-05
1.82569e-05
1.82601e-05
2.30667e-05
2.30382e-05
1.82591e-05
1.82586e-05
1.82591e-05
2.3033e-05
2.30732e-05
2.30445e-05
1.82585e-05
1.82582e-05
1.82588e-05
1.82584e-05
2.30696e-05
2.30426e-05
1.82575e-05
1.82607e-05
1.82578e-05
1.82609e-05
1.82602e-05
1.8257e-05
1.82604e-05
2.30696e-05
2.30446e-05
1.82592e-05
1.82588e-05
1.82594e-05
2.30385e-05
2.30775e-05
2.30436e-05
1.82587e-05
1.82583e-05
1.82591e-05
1.82586e-05
2.30735e-05
2.30442e-05
1.82577e-05
1.82608e-05
1.8258e-05
1.82611e-05
1.82603e-05
1.82573e-05
1.82606e-05
2.30752e-05
2.30467e-05
1.82593e-05
1.8259e-05
1.82597e-05
2.30463e-05
2.30801e-05
2.30386e-05
1.8259e-05
1.82585e-05
1.82593e-05
1.82588e-05
2.30788e-05
2.30418e-05
1.8258e-05
1.8261e-05
1.82582e-05
1.82613e-05
1.82605e-05
1.82576e-05
1.82609e-05
2.30807e-05
2.3045e-05
1.82595e-05
1.82593e-05
1.82599e-05
2.30479e-05
2.30782e-05
2.30325e-05
1.82592e-05
1.82588e-05
1.82595e-05
1.82591e-05
2.30795e-05
2.30359e-05
1.82582e-05
1.82612e-05
1.82585e-05
1.82616e-05
1.82607e-05
1.82579e-05
1.82611e-05
2.30821e-05
2.30397e-05
1.82598e-05
1.82596e-05
1.82602e-05
2.30433e-05
2.30728e-05
2.30317e-05
1.82594e-05
1.8259e-05
1.82598e-05
1.82595e-05
2.30764e-05
2.30311e-05
1.82584e-05
1.82616e-05
1.82588e-05
1.8262e-05
1.8261e-05
1.82583e-05
1.82615e-05
2.30797e-05
2.30342e-05
1.82601e-05
1.826e-05
1.82605e-05
2.30354e-05
2.30666e-05
2.30354e-05
1.82597e-05
1.82594e-05
1.82601e-05
1.82599e-05
2.30694e-05
2.30326e-05
1.82587e-05
1.82619e-05
1.82592e-05
1.82624e-05
1.82614e-05
1.82586e-05
1.82618e-05
2.30733e-05
2.30345e-05
1.82604e-05
1.82604e-05