/*--------------------------------*- C++ -*----------------------------------*\
| =========                 |                                                 |
| \\      /  F ield         | OpenFOAM: The Open Source CFD Toolbox           |
|  \\    /   O peration     | Version:  2312                                  |
|   \\  /    A nd           | Website:  www.openfoam.com                      |
|    \\/     M anipulation  |                                                 |
\*---------------------------------------------------------------------------*/
FoamFile
{
    version     2.0;
    format      ascii;
    arch        "LSB;label=32;scalar=64";
    class       volScalarField;
    location    "125";
    object      nut;
}
// * * * * * * * * * * * * * * * * * * * * * * * * * * * * * * * * * * * * * //

dimensions      [0 2 -1 0 0 0 0];

internalField   nonuniform List<scalar> 
43168
(
0.000124748
9.57921e-05
9.57984e-05
9.07071e-05
9.06698e-05
9.57795e-05
9.57597e-05
9.06663e-05
9.57887e-05
9.57704e-05
9.57918e-05
9.5784e-05
9.06645e-05
9.57981e-05
9.57871e-05
9.06825e-05
9.06552e-05
9.57806e-05
9.57613e-05
9.06517e-05
9.57898e-05
9.57705e-05
9.57851e-05
9.06549e-05
9.57881e-05
4.9528e-05
4.9523e-05
0.000124749
0.000124738
0.000124742
0.000124723
7.80392e-05
4.95275e-05
7.80269e-05
4.95279e-05
2.35441e-05
2.3545e-05
7.80362e-05
4.95225e-05
7.80237e-05
4.95228e-05
0.000124738
0.000124742
0.000124726
8.51344e-05
7.57653e-05
0.000108057
9.5794e-05
8.51287e-05
7.57786e-05
0.000108057
2.35433e-05
2.35442e-05
8.51331e-05
0.000108059
7.57649e-05
9.57994e-05
8.51295e-05
0.000108058
7.57784e-05
6.54865e-05
6.54837e-05
9.08292e-05
6.54922e-05
6.54893e-05
2.35473e-05
2.35452e-05
9.08404e-05
6.54978e-05
6.54953e-05
2.35472e-05
2.35464e-05
2.35451e-05
2.35443e-05
9.07995e-05
6.5498e-05
6.54955e-05
6.54923e-05
6.54898e-05
9.57812e-05
7.57773e-05
7.80255e-05
4.9528e-05
4.95276e-05
7.80375e-05
7.80228e-05
4.95221e-05
4.95217e-05
7.80349e-05
8.51397e-05
9.57808e-05
7.57795e-05
0.000108054
7.57667e-05
0.000108054
8.51371e-05
8.51369e-05
9.57606e-05
7.5762e-05
0.000108042
7.57517e-05
0.000108043
8.51344e-05
2.3545e-05
2.35441e-05
9.07946e-05
6.54809e-05
6.54981e-05
6.5475e-05
2.35464e-05
9.57902e-05
7.57718e-05
7.8022e-05
4.95229e-05
4.95225e-05
7.80345e-05
8.51405e-05
9.57897e-05
7.57742e-05
0.000108049
7.57606e-05
0.00010805
8.51358e-05
7.80199e-05
4.95191e-05
4.95187e-05
7.80325e-05
8.5139e-05
9.57714e-05
0.000108042
7.57684e-05
0.000108042
7.57542e-05
8.51338e-05
7.57764e-05
0.000108058
8.51309e-05
4.95239e-05
7.8024e-05
0.000108059
7.57714e-05
8.51332e-05
4.95201e-05
7.80329e-05
2.35442e-05
2.35434e-05
9.08038e-05
6.54883e-05
6.54972e-05
6.54824e-05
6.54909e-05
2.35464e-05
2.35455e-05
8.51358e-05
9.57989e-05
0.00010806
7.5776e-05
0.00010806
7.57622e-05
8.5132e-05
8.51311e-05
9.57873e-05
0.000108051
7.57686e-05
0.000108051
7.57546e-05
8.51261e-05
7.80092e-05
4.95241e-05
4.95237e-05
7.80231e-05
7.80007e-05
4.95184e-05
4.9518e-05
7.80156e-05
9.07206e-05
6.54918e-05
6.54889e-05
6.54828e-05
2.3545e-05
2.35439e-05
2.35431e-05
2.35463e-05
2.35472e-05
2.35442e-05
2.35451e-05
6.54925e-05
6.54901e-05
9.08244e-05
6.54982e-05
6.54959e-05
2.35463e-05
2.35442e-05
9.08266e-05
6.54927e-05
6.54904e-05
7.80366e-05
4.95216e-05
7.80237e-05
4.9522e-05
8.51399e-05
7.57688e-05
0.000108053
9.5782e-05
8.51349e-05
7.57808e-05
0.000108053
8.51368e-05
7.57533e-05
0.000108042
9.57623e-05
8.5132e-05
7.57633e-05
0.000108042
7.80281e-05
4.95275e-05
7.80254e-05
4.95215e-05
8.51413e-05
9.57809e-05
7.57705e-05
0.000108052
8.51383e-05
9.57612e-05
7.57552e-05
0.000108041
6.54752e-05
6.54927e-05
9.08185e-05
6.54813e-05
6.54987e-05
2.35455e-05
2.35463e-05
2.3544e-05
9.08201e-05
6.54757e-05
6.54933e-05
2.35454e-05
8.51364e-05
7.57623e-05
0.000108049
9.5791e-05
8.5133e-05
7.57758e-05
0.000108049
7.80341e-05
4.95186e-05
7.80212e-05
4.9519e-05
8.51344e-05
0.000108042
7.57566e-05
9.57724e-05
8.51309e-05
0.000108041
7.57701e-05
7.80249e-05
4.95224e-05
8.51382e-05
9.579e-05
7.57639e-05
0.000108049
7.80229e-05
4.95186e-05
8.51366e-05
9.57714e-05
0.000108041
7.57582e-05
7.80267e-05
4.95234e-05
7.80127e-05
4.95238e-05
8.51374e-05
0.000108059
7.57603e-05
9.5785e-05
8.51318e-05
0.000108058
7.57733e-05
7.80343e-05
4.95196e-05
7.80219e-05
4.952e-05
8.51361e-05
9.57948e-05
7.5768e-05
0.000108058
7.80153e-05
4.95233e-05
8.51382e-05
9.57839e-05
0.000108058
7.57627e-05
7.80233e-05
4.95195e-05
6.54829e-05
6.54917e-05
9.08288e-05
6.54887e-05
6.54975e-05
2.35455e-05
2.35463e-05
2.35433e-05
9.08267e-05
6.54833e-05
6.5492e-05
2.35454e-05
8.51293e-05
0.00010805
7.57568e-05
9.57899e-05
8.51241e-05
0.00010805
7.57705e-05
7.80254e-05
4.95236e-05
7.80116e-05
4.9524e-05
7.80179e-05
4.95179e-05
7.80034e-05
4.95183e-05
8.5135e-05
9.57988e-05
0.000108058
7.57667e-05
8.51304e-05
9.57893e-05
0.00010805
7.57585e-05
7.80138e-05
4.95236e-05
7.80057e-05
4.95179e-05
2.35441e-05
2.3545e-05
2.3543e-05
2.35439e-05
9.08031e-05
6.54867e-05
6.54839e-05
2.35441e-05
2.3543e-05
2.01196e-05
7.08322e-05
4.95276e-05
7.08199e-05
2.01208e-05
4.95225e-05
3.61645e-05
7.80274e-05
4.03795e-05
7.69307e-05
4.03791e-05
7.69199e-05
3.61651e-05
2.01207e-05
7.08211e-05
4.95279e-05
2.01195e-05
7.0833e-05
3.61651e-05
7.80381e-05
4.03791e-05
7.69195e-05
3.61645e-05
4.03796e-05
7.69301e-05
2.01195e-05
7.08332e-05
4.95275e-05
7.08212e-05
2.01207e-05
2.3545e-05
2.35441e-05
3.61643e-05
7.80243e-05
7.6927e-05
4.0379e-05
7.69162e-05
4.03785e-05
3.6165e-05
2.0121e-05
7.08171e-05
4.95229e-05
2.01198e-05
7.08291e-05
3.6165e-05
7.8035e-05
7.69157e-05
4.03785e-05
3.61644e-05
7.69264e-05
4.0379e-05
2.01198e-05
7.08293e-05
4.95224e-05
7.08172e-05
2.0121e-05
2.35442e-05
2.35433e-05
7.33872e-05
2.14795e-05
2.14764e-05
2.14786e-05
2.14754e-05
7.33938e-05
8.19814e-05
8.53769e-05
4.72762e-05
6.54919e-05
8.1971e-05
8.53918e-05
4.72767e-05
8.20112e-05
8.5377e-05
4.72671e-05
6.5489e-05
8.20011e-05
8.53922e-05
4.72675e-05
7.33937e-05
2.14786e-05
2.14755e-05
7.3387e-05
2.14795e-05
2.14764e-05
8.19712e-05
4.72767e-05
6.54866e-05
8.53926e-05
8.53763e-05
4.72762e-05
8.19814e-05
8.20019e-05
4.72675e-05
6.54838e-05
8.53932e-05
8.5377e-05
4.7267e-05
8.20119e-05
2.35464e-05
2.35443e-05
7.33925e-05
2.14801e-05
2.14769e-05
2.14792e-05
2.1476e-05
7.33992e-05
8.1967e-05
4.72797e-05
6.54916e-05
8.5392e-05
4.72792e-05
8.19787e-05
8.53752e-05
8.19978e-05
4.72686e-05
6.54894e-05
8.53928e-05
4.72681e-05
8.20112e-05
8.53756e-05
2.35464e-05
2.35473e-05
2.35443e-05
2.35452e-05
7.33993e-05
2.14791e-05
2.14759e-05
7.33925e-05
2.14801e-05
2.14769e-05
8.19705e-05
8.53913e-05
6.54925e-05
4.72797e-05
4.72791e-05
8.53762e-05
8.19807e-05
8.20055e-05
8.53944e-05
6.549e-05
4.72685e-05
4.7268e-05
8.53778e-05
8.20156e-05
8.19799e-05
4.72792e-05
8.53757e-05
6.54978e-05
8.19692e-05
4.72797e-05
8.53918e-05
8.20146e-05
4.7268e-05
8.53766e-05
6.54953e-05
8.20028e-05
4.72686e-05
8.53931e-05
7.33924e-05
2.148e-05
2.14768e-05
2.14791e-05
2.14759e-05
7.33992e-05
3.61652e-05
4.03792e-05
7.69183e-05
7.80367e-05
3.61646e-05
4.03796e-05
7.6929e-05
2.01195e-05
4.95276e-05
7.08329e-05
2.01207e-05
7.08208e-05
2.01207e-05
7.08203e-05
4.9528e-05
2.01196e-05
7.08325e-05
3.61645e-05
7.80258e-05
4.03796e-05
7.69297e-05
3.61652e-05
4.03791e-05
7.69188e-05
3.61636e-05
4.0379e-05
7.69086e-05
7.8034e-05
3.6163e-05
4.03795e-05
7.69192e-05
2.01188e-05
4.95216e-05
7.08118e-05
7.08e-05
2.01199e-05
2.01199e-05
7.07996e-05
4.95221e-05
2.01188e-05
7.08115e-05
3.6163e-05
7.80232e-05
4.03794e-05
7.69199e-05
4.0379e-05
7.69091e-05
3.61636e-05
2.35441e-05
2.35451e-05
8.20013e-05
8.53862e-05
6.54751e-05
4.72678e-05
8.537e-05
4.72673e-05
8.20118e-05
8.1969e-05
8.53944e-05
6.54925e-05
4.72779e-05
4.72774e-05
8.53783e-05
8.19797e-05
8.53697e-05
6.54806e-05
8.53845e-05
7.33873e-05
2.14765e-05
2.14795e-05
2.14756e-05
2.14785e-05
7.33942e-05
2.35458e-05
3.61651e-05
7.69143e-05
4.03786e-05
7.80337e-05
3.61644e-05
7.69252e-05
4.0379e-05
2.01199e-05
4.95225e-05
7.08291e-05
2.0121e-05
7.08168e-05
2.01211e-05
7.08163e-05
4.95229e-05
2.01199e-05
7.08287e-05
3.61644e-05
7.80228e-05
7.69259e-05
4.0379e-05
3.6165e-05
7.69151e-05
4.03785e-05
3.61632e-05
4.03784e-05
7.69062e-05
7.80316e-05
3.61626e-05
4.03788e-05
7.6917e-05
2.01189e-05
4.95187e-05
7.08093e-05
7.07971e-05
2.012e-05
2.012e-05
7.07965e-05
4.95191e-05
2.01189e-05
7.08089e-05
3.61626e-05
7.80207e-05
4.03788e-05
7.69177e-05
4.03783e-05
7.69069e-05
3.61632e-05
2.01199e-05
4.95236e-05
7.08229e-05
7.08092e-05
2.01211e-05
3.6164e-05
7.80116e-05
7.69162e-05
4.03783e-05
7.69012e-05
4.03778e-05
3.61647e-05
2.0119e-05
4.95196e-05
7.08086e-05
7.07964e-05
2.01202e-05
3.6163e-05
7.80214e-05
4.03791e-05
7.69194e-05
4.03786e-05
7.69086e-05
3.61636e-05
2.35434e-05
2.35442e-05
7.33949e-05
2.14762e-05
2.14793e-05
7.33883e-05
2.14771e-05
2.14802e-05
8.20018e-05
8.53916e-05
6.54828e-05
4.72687e-05
8.53763e-05
4.72682e-05
8.20114e-05
8.1969e-05
8.5395e-05
6.54916e-05
4.72797e-05
4.72792e-05
8.53788e-05
8.19785e-05
8.20108e-05
4.72682e-05
8.53751e-05
6.5488e-05
8.53906e-05
8.19995e-05
4.72687e-05
8.19779e-05
4.72792e-05
8.53776e-05
6.54967e-05
8.19666e-05
4.72798e-05
8.53936e-05
7.33881e-05
2.1477e-05
2.14802e-05
2.14761e-05
2.14792e-05
7.33947e-05
2.35455e-05
2.35464e-05
3.61654e-05
7.69143e-05
4.03778e-05
7.80218e-05
3.61648e-05
7.69251e-05
4.03783e-05
2.01205e-05
4.95237e-05
7.0829e-05
7.08171e-05
2.01216e-05
2.01217e-05
7.08167e-05
4.95241e-05
2.01205e-05
7.08287e-05
3.61647e-05
7.80107e-05
7.69256e-05
4.03782e-05
7.69149e-05
4.03777e-05
3.61653e-05
3.61624e-05
7.6899e-05
4.03772e-05
7.80141e-05
3.61617e-05
7.69101e-05
4.03777e-05
2.01185e-05
4.9518e-05
7.0808e-05
7.07949e-05
2.01197e-05
2.01197e-05
7.07945e-05
4.95184e-05
2.01185e-05
7.08075e-05
3.61617e-05
7.80024e-05
7.69107e-05
4.03776e-05
7.68996e-05
4.03772e-05
3.61623e-05
7.33937e-05
2.14796e-05
2.14765e-05
8.19707e-05
8.53912e-05
6.54862e-05
4.72768e-05
8.19805e-05
8.53752e-05
4.72762e-05
8.19999e-05
8.53922e-05
6.54834e-05
4.72676e-05
8.20101e-05
8.53759e-05
4.72671e-05
8.19801e-05
6.54915e-05
8.53902e-05
4.7277e-05
8.2009e-05
8.5375e-05
6.54887e-05
8.5391e-05
4.72676e-05
7.33868e-05
2.14795e-05
2.14764e-05
7.33935e-05
2.14786e-05
2.14755e-05
2.35442e-05
2.35451e-05
2.3543e-05
2.35439e-05
2.35472e-05
2.35463e-05
2.35451e-05
2.35442e-05
7.33927e-05
2.148e-05
2.14768e-05
2.1479e-05
2.14759e-05
7.33995e-05
8.19815e-05
8.53734e-05
4.72791e-05
6.5498e-05
8.19712e-05
4.72796e-05
8.53876e-05
8.20163e-05
8.53778e-05
4.7268e-05
6.54956e-05
8.20061e-05
4.72685e-05
8.53942e-05
7.33994e-05
2.14791e-05
2.14759e-05
7.33926e-05
2.148e-05
2.14768e-05
8.19717e-05
4.72796e-05
6.54926e-05
8.53845e-05
4.72791e-05
8.19821e-05
8.53701e-05
8.20062e-05
4.72685e-05
6.54904e-05
8.53944e-05
4.7268e-05
8.20163e-05
8.53784e-05
2.35472e-05
2.35451e-05
7.33997e-05
2.1479e-05
2.14758e-05
7.33928e-05
2.148e-05
2.14768e-05
8.19834e-05
4.7279e-05
8.53673e-05
6.54982e-05
8.19729e-05
4.72796e-05
8.53839e-05
8.20166e-05
4.72679e-05
8.5377e-05
6.54959e-05
8.20065e-05
4.72685e-05
8.53924e-05
3.61629e-05
7.80248e-05
4.03794e-05
7.6921e-05
4.03789e-05
7.69102e-05
3.61635e-05
2.01199e-05
7.08001e-05
4.9522e-05
2.01187e-05
7.08118e-05
3.61635e-05
7.80354e-05
4.03789e-05
7.69096e-05
4.03794e-05
3.61629e-05
7.69203e-05
2.01187e-05
7.08121e-05
4.95216e-05
7.08003e-05
2.01199e-05
3.61651e-05
4.0379e-05
7.69203e-05
7.80397e-05
3.61645e-05
4.03795e-05
7.69311e-05
2.01206e-05
7.08213e-05
4.95279e-05
2.01195e-05
7.08334e-05
3.61635e-05
4.03789e-05
7.69106e-05
7.80371e-05
3.61629e-05
4.03794e-05
7.69214e-05
2.01199e-05
7.08005e-05
4.9522e-05
2.01187e-05
7.08123e-05
7.3388e-05
2.14767e-05
2.14796e-05
2.14757e-05
2.14787e-05
7.33948e-05
8.20126e-05
8.53701e-05
4.72673e-05
6.5481e-05
4.72678e-05
8.20028e-05
8.53861e-05
8.19813e-05
8.53781e-05
4.72776e-05
6.54983e-05
8.53947e-05
8.19706e-05
4.72783e-05
7.33945e-05
2.14758e-05
2.14787e-05
2.14767e-05
7.33876e-05
2.14797e-05
8.20032e-05
4.72678e-05
6.54755e-05
8.53868e-05
4.72673e-05
8.53709e-05
8.20131e-05
8.19712e-05
4.72783e-05
6.54931e-05
8.53955e-05
8.5379e-05
4.72778e-05
8.19819e-05
2.35464e-05
2.35455e-05
2.3545e-05
7.33952e-05
2.14757e-05
2.14787e-05
7.33883e-05
2.14767e-05
2.14796e-05
8.20137e-05
4.72673e-05
8.53706e-05
6.54814e-05
8.53863e-05
8.20039e-05
4.72678e-05
8.19826e-05
4.72777e-05
8.53786e-05
6.54989e-05
8.1972e-05
4.72782e-05
8.53949e-05
2.35463e-05
3.61625e-05
7.80222e-05
4.03787e-05
7.69189e-05
4.03783e-05
7.69081e-05
3.61631e-05
2.012e-05
7.07973e-05
4.95191e-05
2.01188e-05
7.08095e-05
3.61632e-05
7.8033e-05
4.03783e-05
7.69074e-05
4.03788e-05
3.61625e-05
7.69182e-05
2.01188e-05
7.08099e-05
4.95186e-05
7.07976e-05
2.012e-05
3.61649e-05
7.69165e-05
4.03785e-05
7.80367e-05
3.61643e-05
7.69274e-05
4.03789e-05
2.0121e-05
7.08173e-05
4.95228e-05
2.01198e-05
7.08295e-05
3.61631e-05
4.03783e-05
7.69086e-05
7.80346e-05
3.61625e-05
4.03787e-05
7.69193e-05
2.012e-05
7.07976e-05
4.9519e-05
2.01188e-05
7.08106e-05
3.6164e-05
7.80142e-05
7.69179e-05
4.03782e-05
7.69028e-05
4.03777e-05
3.61647e-05
2.01211e-05
7.08092e-05
4.95238e-05
7.08229e-05
2.01198e-05
3.61647e-05
7.80251e-05
7.69017e-05
4.03777e-05
7.6917e-05
3.6164e-05
4.03782e-05
2.01198e-05
7.08232e-05
4.95234e-05
7.08094e-05
2.01211e-05
3.61629e-05
7.80228e-05
4.0379e-05
7.69205e-05
4.03786e-05
7.69097e-05
3.61635e-05
2.01201e-05
7.07966e-05
4.952e-05
2.0119e-05
7.08087e-05
3.61636e-05
7.80334e-05
4.03786e-05
7.69091e-05
3.61629e-05
4.0379e-05
7.69199e-05
2.01189e-05
7.0809e-05
4.95196e-05
7.07968e-05
2.01201e-05
3.61646e-05
7.69034e-05
4.03777e-05
7.80276e-05
3.6164e-05
7.69184e-05
4.03782e-05
2.01211e-05
7.08098e-05
4.95238e-05
2.01198e-05
7.08236e-05
3.61635e-05
4.03785e-05
7.69101e-05
7.80347e-05
3.61629e-05
4.0379e-05
7.69209e-05
2.01201e-05
7.0797e-05
4.95199e-05
2.01189e-05
7.08092e-05
7.33881e-05
2.1477e-05
2.14801e-05
2.14761e-05
2.14792e-05
7.33947e-05
8.20123e-05
8.53761e-05
4.72681e-05
6.54884e-05
4.72686e-05
8.20024e-05
8.53914e-05
8.19793e-05
8.53787e-05
4.7279e-05
6.54972e-05
8.53948e-05
8.19695e-05
4.72795e-05
7.33947e-05
2.14761e-05
2.14792e-05
2.1477e-05
7.33881e-05
2.14801e-05
8.2003e-05
4.72686e-05
6.54832e-05
8.53923e-05
4.72681e-05
8.53769e-05
8.20129e-05
8.19699e-05
4.72795e-05
6.54919e-05
8.53956e-05
8.53795e-05
4.7279e-05
8.19798e-05
2.35463e-05
2.35455e-05
2.35441e-05
7.33948e-05
2.1476e-05
2.14791e-05
7.33881e-05
2.1477e-05
2.14801e-05
8.20141e-05
4.72681e-05
8.53769e-05
6.54888e-05
8.53922e-05
8.20042e-05
4.72686e-05
8.19806e-05
4.72789e-05
8.53793e-05
6.54975e-05
8.19708e-05
4.72794e-05
8.53953e-05
2.35463e-05
3.61647e-05
7.8013e-05
7.69266e-05
4.03781e-05
7.69159e-05
4.03777e-05
3.61653e-05
2.01216e-05
7.08173e-05
4.95241e-05
7.08292e-05
2.01204e-05
3.61653e-05
7.80241e-05
7.69153e-05
4.03777e-05
7.6926e-05
3.61647e-05
4.03782e-05
2.01204e-05
7.08295e-05
4.95236e-05
7.08176e-05
2.01216e-05
3.61616e-05
7.80048e-05
7.69116e-05
4.03776e-05
7.69005e-05
4.03771e-05
3.61623e-05
2.01196e-05
7.07951e-05
4.95184e-05
2.01185e-05
7.08081e-05
3.61623e-05
7.80166e-05
7.68999e-05
4.03771e-05
3.61616e-05
7.6911e-05
4.03776e-05
2.01184e-05
7.08083e-05
4.95179e-05
7.07953e-05
2.01196e-05
3.61653e-05
7.69163e-05
4.03776e-05
7.80262e-05
3.61646e-05
7.69269e-05
4.03781e-05
2.01216e-05
7.08178e-05
4.9524e-05
2.01204e-05
7.08297e-05
3.61622e-05
7.69008e-05
4.0377e-05
7.80187e-05
3.61616e-05
7.69119e-05
4.03775e-05
2.01196e-05
7.07955e-05
4.95183e-05
2.01184e-05
7.08085e-05
2.3545e-05
2.35441e-05
2.35439e-05
2.3543e-05
7.33941e-05
2.14785e-05
2.14754e-05
7.33874e-05
2.14795e-05
2.14763e-05
8.19818e-05
4.72762e-05
8.53759e-05
6.54922e-05
8.19717e-05
8.53918e-05
4.72767e-05
8.20129e-05
4.7267e-05
8.53769e-05
6.54894e-05
8.20029e-05
8.5393e-05
4.72675e-05
2.3545e-05
2.35438e-05
0.00012475
0.000147257
0.000147267
0.000124747
0.000147257
0.000147266
0.000167569
0.000167571
8.95101e-05
8.89118e-05
8.89174e-05
9.07649e-05
8.95081e-05
8.89165e-05
8.89222e-05
8.95085e-05
9.06871e-05
8.89139e-05
8.89207e-05
8.89095e-05
8.8916e-05
8.95122e-05
8.95075e-05
9.06834e-05
8.89127e-05
8.89146e-05
8.8908e-05
8.89098e-05
8.95106e-05
8.94899e-05
9.06793e-05
8.89158e-05
8.89152e-05
8.89114e-05
8.89107e-05
8.94936e-05
8.95102e-05
9.0664e-05
8.89133e-05
8.8919e-05
8.9513e-05
8.89078e-05
8.89134e-05
8.95111e-05
8.89113e-05
8.89184e-05
9.07114e-05
8.95078e-05
8.89164e-05
8.8924e-05
8.95092e-05
8.89105e-05
8.89121e-05
9.0708e-05
8.89178e-05
8.95066e-05
8.8916e-05
8.94936e-05
8.89133e-05
8.89127e-05
9.07158e-05
8.89182e-05
8.94903e-05
8.89187e-05
0.00012475
0.000147259
0.000147269
0.000147259
0.000147269
0.000167572
0.000167571
0.00012475
0.000147254
0.00014727
0.000147255
0.000147273
0.000167571
0.000167571
0.000124743
0.000147251
0.000147266
0.000147252
0.000147267
0.000167566
0.000167566
0.000124724
0.000147254
0.000147265
0.000147257
0.000147265
0.000167565
0.000167565
0.000147253
0.000147269
0.000124738
0.000147253
0.000147268
0.000167568
0.00016757
0.000147251
0.000147266
0.000124741
0.00014725
0.000147265
0.000167564
0.000167565
0.000147253
0.000147264
0.000124726
0.000147252
0.000147262
0.000167563
0.000167564
0.000124746
0.000147256
0.000147266
0.000167568
0.000124737
0.000147251
0.000147267
0.000167567
0.00012474
0.000147249
0.000147265
0.000167563
0.000124726
0.000147251
0.000147261
0.000167562
8.54984e-05
8.51307e-05
8.49257e-05
8.61238e-05
8.49235e-05
8.61247e-05
8.54911e-05
8.4731e-05
8.5406e-05
8.16151e-05
7.57772e-05
8.4738e-05
8.54111e-05
8.16141e-05
8.54898e-05
8.513e-05
8.49239e-05
8.61217e-05
8.54968e-05
8.49251e-05
8.61195e-05
8.47324e-05
8.16073e-05
7.57666e-05
8.54122e-05
8.54064e-05
8.16086e-05
8.47246e-05
8.55029e-05
8.513e-05
8.61255e-05
8.49323e-05
8.61265e-05
8.49307e-05
8.54956e-05
8.47359e-05
8.54091e-05
8.16179e-05
7.5777e-05
8.47428e-05
8.54141e-05
8.16163e-05
8.54945e-05
8.51301e-05
8.61236e-05
8.4932e-05
8.55016e-05
8.61216e-05
8.49325e-05
8.47369e-05
8.16115e-05
7.5766e-05
8.54152e-05
8.54094e-05
8.16117e-05
8.47291e-05
8.95055e-05
9.07939e-05
8.89174e-05
8.89233e-05
8.89137e-05
8.89194e-05
8.95075e-05
8.95139e-05
9.08095e-05
8.89143e-05
8.89206e-05
8.95185e-05
8.89207e-05
8.8927e-05
8.95136e-05
9.07511e-05
8.89098e-05
8.89161e-05
8.95116e-05
8.89129e-05
8.89193e-05
8.47342e-05
8.16151e-05
7.57645e-05
8.541e-05
8.1615e-05
8.54117e-05
8.47174e-05
8.54932e-05
8.49323e-05
8.61263e-05
8.51402e-05
8.55001e-05
8.49343e-05
8.61226e-05
8.47384e-05
8.54114e-05
7.57681e-05
8.16239e-05
8.54058e-05
8.16191e-05
8.47355e-05
8.47254e-05
8.16134e-05
8.54049e-05
7.57786e-05
8.54107e-05
8.47254e-05
8.16174e-05
8.55014e-05
8.51378e-05
8.49359e-05
8.61226e-05
8.49337e-05
8.61242e-05
8.54944e-05
8.54871e-05
8.4923e-05
8.61237e-05
8.51375e-05
8.5494e-05
8.4925e-05
8.61202e-05
8.47275e-05
8.53987e-05
7.5753e-05
8.16096e-05
8.16054e-05
8.53931e-05
8.47252e-05
8.47135e-05
8.15997e-05
8.53924e-05
7.57617e-05
8.47132e-05
8.16034e-05
8.53976e-05
8.54953e-05
8.51352e-05
8.49269e-05
8.61202e-05
8.49248e-05
8.61218e-05
8.54884e-05
9.07459e-05
8.89083e-05
8.8911e-05
7.57588e-05
8.54087e-05
8.54108e-05
8.54901e-05
8.49289e-05
8.61264e-05
8.51399e-05
8.55018e-05
8.49307e-05
8.61177e-05
8.47303e-05
8.54105e-05
7.57617e-05
8.16199e-05
8.54048e-05
8.16144e-05
8.47298e-05
8.47204e-05
8.16094e-05
8.54037e-05
7.57733e-05
8.54094e-05
8.47285e-05
8.1613e-05
8.54984e-05
8.51368e-05
8.49323e-05
8.61192e-05
8.49299e-05
8.61215e-05
8.54915e-05
8.54906e-05
8.6126e-05
8.49236e-05
8.51384e-05
8.55026e-05
8.61174e-05
8.49251e-05
8.47335e-05
8.54076e-05
7.5756e-05
8.16101e-05
8.16073e-05
8.5402e-05
8.47311e-05
8.47244e-05
8.16051e-05
8.54081e-05
7.57672e-05
8.47316e-05
8.16072e-05
8.54067e-05
8.54987e-05
8.51351e-05
8.6119e-05
8.49259e-05
8.61212e-05
8.49243e-05
8.54917e-05
8.47376e-05
8.54108e-05
7.57646e-05
8.16174e-05
8.47333e-05
8.54053e-05
8.16138e-05
8.54956e-05
8.5132e-05
8.49263e-05
8.61176e-05
8.5488e-05
8.4925e-05
8.61187e-05
8.47339e-05
8.54073e-05
7.57594e-05
8.16147e-05
8.16107e-05
8.54017e-05
8.47319e-05
8.54985e-05
8.51336e-05
8.61199e-05
8.49278e-05
8.61203e-05
8.49257e-05
8.54909e-05
8.94944e-05
9.07434e-05
8.89233e-05
8.89227e-05
8.8915e-05
8.94863e-05
8.89143e-05
8.54923e-05
8.61253e-05
8.49304e-05
8.51358e-05
8.55038e-05
8.6116e-05
8.4932e-05
8.47389e-05
8.54138e-05
7.57637e-05
8.16208e-05
8.47371e-05
8.54081e-05
8.16186e-05
8.47295e-05
8.16149e-05
8.5414e-05
7.57748e-05
8.47355e-05
8.54128e-05
8.1618e-05
8.55003e-05
8.5133e-05
8.61196e-05
8.49335e-05
8.54933e-05
8.61205e-05
8.49318e-05
8.54876e-05
8.61229e-05
8.49196e-05
8.51304e-05
8.54994e-05
8.61132e-05
8.4921e-05
8.47334e-05
8.54078e-05
7.57562e-05
8.161e-05
8.16062e-05
8.54021e-05
8.47313e-05
8.47241e-05
8.16029e-05
8.54083e-05
7.57679e-05
8.47307e-05
8.16058e-05
8.54068e-05
8.54957e-05
8.5127e-05
8.61168e-05
8.49216e-05
8.61176e-05
8.49198e-05
8.54887e-05
8.95155e-05
9.06975e-05
8.89219e-05
8.89097e-05
8.89154e-05
8.95066e-05
9.0768e-05
8.8918e-05
8.89262e-05
8.95091e-05
8.8914e-05
8.89219e-05
8.95065e-05
9.08215e-05
8.89136e-05
8.89216e-05
8.95038e-05
8.89166e-05
8.89244e-05
8.55042e-05
8.51365e-05
8.49353e-05
8.61283e-05
8.49344e-05
8.61289e-05
8.54964e-05
8.47355e-05
8.54057e-05
8.16234e-05
7.57799e-05
8.16238e-05
8.47412e-05
8.54111e-05
8.54958e-05
8.51361e-05
8.49348e-05
8.61247e-05
8.49364e-05
8.55029e-05
8.61242e-05
8.47373e-05
8.16161e-05
7.57695e-05
8.54113e-05
8.16186e-05
8.54059e-05
8.4729e-05
8.5498e-05
8.51335e-05
8.49256e-05
8.6126e-05
8.4925e-05
8.61266e-05
8.54904e-05
8.4725e-05
8.53935e-05
8.16087e-05
7.57623e-05
8.47311e-05
8.16078e-05
8.53991e-05
8.54897e-05
8.51332e-05
8.4926e-05
8.61222e-05
8.54969e-05
8.4927e-05
8.61219e-05
8.4726e-05
8.15991e-05
7.57537e-05
8.54001e-05
8.16021e-05
8.47168e-05
8.53944e-05
8.54984e-05
8.49334e-05
8.61309e-05
8.51441e-05
8.55051e-05
8.49353e-05
8.61297e-05
8.47274e-05
8.16115e-05
8.54059e-05
7.57819e-05
8.54118e-05
8.47314e-05
8.16133e-05
8.54926e-05
8.49245e-05
8.61285e-05
8.51413e-05
8.54991e-05
8.49268e-05
8.61274e-05
8.47155e-05
8.15957e-05
8.5395e-05
7.57649e-05
8.47191e-05
8.15988e-05
8.54008e-05
8.95047e-05
9.07631e-05
8.89183e-05
8.89201e-05
8.89156e-05
8.89139e-05
8.95062e-05
8.95033e-05
9.08155e-05
8.8914e-05
8.89156e-05
8.8917e-05
8.95011e-05
8.89187e-05
8.55014e-05
8.51332e-05
8.49324e-05
8.61253e-05
8.49316e-05
8.61252e-05
8.54938e-05
8.47333e-05
8.54053e-05
8.16202e-05
7.57746e-05
8.16215e-05
8.47384e-05
8.54108e-05
8.5493e-05
8.51335e-05
8.49315e-05
8.61207e-05
8.49334e-05
8.55001e-05
8.61202e-05
8.47356e-05
8.16132e-05
7.57634e-05
8.54115e-05
8.16162e-05
8.5406e-05
8.47269e-05
8.55016e-05
8.51311e-05
8.6125e-05
8.49264e-05
8.61249e-05
8.4925e-05
8.54942e-05
8.47308e-05
8.54023e-05
8.16089e-05
7.57689e-05
8.47374e-05
8.16092e-05
8.54079e-05
8.5493e-05
8.51313e-05
8.61205e-05
8.49248e-05
8.55002e-05
8.61199e-05
8.49262e-05
8.47331e-05
8.16043e-05
7.57577e-05
8.54089e-05
8.16053e-05
8.47254e-05
8.54033e-05
8.54957e-05
8.49304e-05
8.61278e-05
8.51417e-05
8.55024e-05
8.49323e-05
8.61277e-05
8.47245e-05
8.16073e-05
8.5406e-05
7.57763e-05
8.54116e-05
8.47293e-05
8.16084e-05
8.54965e-05
8.61274e-05
8.49257e-05
8.51403e-05
8.55031e-05
8.61272e-05
8.49282e-05
8.47275e-05
8.16016e-05
8.54038e-05
7.57706e-05
8.47303e-05
8.1604e-05
8.54097e-05
8.55005e-05
8.51344e-05
8.61252e-05
8.4928e-05
8.61262e-05
8.49268e-05
8.54929e-05
8.47313e-05
8.54022e-05
8.16134e-05
7.57719e-05
8.54078e-05
8.47377e-05
8.16133e-05
8.54921e-05
8.51337e-05
8.61222e-05
8.49268e-05
8.61223e-05
8.54993e-05
8.49285e-05
8.47321e-05
8.16064e-05
7.57617e-05
8.54087e-05
8.5403e-05
8.16082e-05
8.47241e-05
8.54936e-05
8.49253e-05
8.61259e-05
8.51383e-05
8.55e-05
8.4928e-05
8.61247e-05
8.47284e-05
8.1605e-05
8.5407e-05
7.57797e-05
8.47299e-05
8.54128e-05
8.16094e-05
8.54951e-05
8.61272e-05
8.49266e-05
8.51399e-05
8.55016e-05
8.61253e-05
8.49287e-05
8.47269e-05
8.16028e-05
8.54034e-05
7.57742e-05
8.47285e-05
8.16057e-05
8.54092e-05
8.94902e-05
9.07742e-05
8.89207e-05
8.89202e-05
8.89159e-05
8.89165e-05
8.9493e-05
8.94927e-05
9.08162e-05
8.89162e-05
8.89156e-05
8.89192e-05
8.94894e-05
8.89187e-05
8.54986e-05
8.51261e-05
8.61233e-05
8.49216e-05
8.61243e-05
8.49202e-05
8.54911e-05
8.47306e-05
8.54025e-05
8.16087e-05
7.57692e-05
8.54081e-05
8.47375e-05
8.16093e-05
8.54902e-05
8.51255e-05
8.61196e-05
8.49203e-05
8.61197e-05
8.54972e-05
8.4922e-05
8.47324e-05
8.16032e-05
7.5758e-05
8.54091e-05
8.54034e-05
8.16045e-05
8.47243e-05
8.54981e-05
8.61277e-05
8.49327e-05
8.51382e-05
8.55044e-05
8.61263e-05
8.49363e-05
8.47326e-05
8.16109e-05
8.54101e-05
7.57789e-05
8.47341e-05
8.5416e-05
8.16154e-05
8.54934e-05
8.61252e-05
8.49201e-05
8.51323e-05
8.54999e-05
8.61236e-05
8.49222e-05
8.47267e-05
8.15995e-05
8.54039e-05
7.5771e-05
8.47293e-05
8.16023e-05
8.54098e-05
8.95061e-05
9.07669e-05
8.89127e-05
8.89186e-05
8.95031e-05
8.89158e-05
8.89218e-05
0.000124746
9.57939e-05
9.57983e-05
9.06576e-05
0.00012475
9.57969e-05
9.58026e-05
9.06618e-05
0.000124747
9.57944e-05
9.58005e-05
9.07012e-05
0.00012474
9.57909e-05
9.57964e-05
9.07591e-05
0.000124739
9.579e-05
9.57954e-05
9.08038e-05
0.000124738
9.57919e-05
9.57969e-05
9.08107e-05
0.000124738
9.57922e-05
9.57983e-05
9.07835e-05
0.000124738
9.57919e-05
9.57966e-05
9.07237e-05
0.000124738
9.57938e-05
9.57995e-05
9.07201e-05
0.000124739
9.57955e-05
9.58013e-05
9.0751e-05
0.000124739
9.57951e-05
9.58003e-05
9.07132e-05
0.000124739
9.57956e-05
9.58008e-05
9.06557e-05
0.00012474
9.57971e-05
9.58024e-05
9.06798e-05
0.000124741
9.58009e-05
9.58059e-05
9.07617e-05
0.000124742
9.58073e-05
9.58122e-05
9.08333e-05
0.000124745
9.58167e-05
9.5822e-05
9.08197e-05
0.000124749
9.58314e-05
9.58368e-05
9.07457e-05
0.000124758
9.58572e-05
9.58626e-05
9.06878e-05
0.000124862
9.59408e-05
9.59466e-05
9.07423e-05
0.000121821
9.66018e-05
9.66085e-05
9.07362e-05
9.07047e-05
9.57801e-05
9.57605e-05
9.07009e-05
9.57892e-05
9.57703e-05
9.57938e-05
9.57836e-05
9.06983e-05
9.57975e-05
9.57883e-05
9.06792e-05
9.06566e-05
9.07696e-05
9.57813e-05
9.57622e-05
9.57854e-05
9.57655e-05
9.06528e-05
9.07697e-05
9.57904e-05
9.57717e-05
9.57942e-05
9.57756e-05
9.57859e-05
9.57975e-05
9.57887e-05
9.0653e-05
9.07609e-05
9.57903e-05
9.5803e-05
9.57914e-05
9.07132e-05
9.06989e-05
9.08307e-05
9.57847e-05
9.5765e-05
9.57834e-05
9.57644e-05
9.06993e-05
9.08274e-05
9.57936e-05
9.57754e-05
9.57925e-05
9.57745e-05
9.5789e-05
9.5797e-05
9.57873e-05
9.06914e-05
9.08246e-05
9.57914e-05
9.58031e-05
9.579e-05
9.07702e-05
9.07665e-05
9.0836e-05
9.5781e-05
9.5762e-05
9.57804e-05
9.57604e-05
9.07659e-05
9.08292e-05
9.57898e-05
9.57721e-05
9.5789e-05
9.57712e-05
9.57862e-05
9.57928e-05
9.57828e-05
9.07568e-05
9.08388e-05
9.57888e-05
9.57988e-05
9.57858e-05
9.0822e-05
9.08205e-05
9.07795e-05
9.5778e-05
9.57581e-05
9.57771e-05
9.57574e-05
9.08127e-05
9.07816e-05
9.57869e-05
9.57689e-05
9.57861e-05
9.57684e-05
9.57812e-05
9.57899e-05
9.57817e-05
9.08148e-05
9.07944e-05
9.57841e-05
9.57955e-05
9.57847e-05
9.08267e-05
9.08052e-05
9.07155e-05
9.57773e-05
9.57579e-05
9.57769e-05
9.57581e-05
9.08036e-05
9.07201e-05
9.57863e-05
9.57686e-05
9.57862e-05
9.5769e-05
9.57811e-05
9.57903e-05
9.5782e-05
9.08114e-05
9.07337e-05
9.57843e-05
9.57954e-05
9.57849e-05
9.08016e-05
9.07624e-05
9.06782e-05
9.57789e-05
9.57603e-05
9.57759e-05
9.57572e-05
9.07682e-05
9.06717e-05
9.57887e-05
9.57714e-05
9.57856e-05
9.57694e-05
9.57826e-05
9.57899e-05
9.57833e-05
9.0778e-05
9.06836e-05
9.57856e-05
9.57957e-05
9.5786e-05
9.07493e-05
9.06952e-05
9.07147e-05
9.57793e-05
9.57593e-05
9.57801e-05
9.57571e-05
9.06967e-05
9.06992e-05
9.57879e-05
9.5772e-05
9.57888e-05
9.57693e-05
9.57854e-05
9.57906e-05
9.57833e-05
9.07147e-05
9.07025e-05
9.5788e-05
9.5796e-05
9.57854e-05
9.06983e-05
9.06782e-05
9.07982e-05
9.57808e-05
9.57575e-05
9.57833e-05
9.57621e-05
9.06634e-05
9.08012e-05
9.57895e-05
9.57694e-05
9.57922e-05
9.57728e-05
9.5786e-05
9.57945e-05
9.57861e-05
9.06694e-05
9.08087e-05
9.57877e-05
9.58002e-05
9.5788e-05
9.07292e-05
9.07515e-05
9.07894e-05
9.57825e-05
9.57612e-05
9.57831e-05
9.57628e-05
9.07534e-05
9.0775e-05
9.57916e-05
9.57721e-05
9.57921e-05
9.57739e-05
9.57866e-05
9.57951e-05
9.57872e-05
9.07646e-05
9.07767e-05
9.57885e-05
9.58009e-05
9.57893e-05
9.07208e-05
9.07744e-05
9.07825e-05
9.57833e-05
9.5764e-05
9.57827e-05
9.57622e-05
9.07759e-05
9.0733e-05
9.57924e-05
9.57758e-05
9.57918e-05
9.57732e-05
9.57885e-05
9.57947e-05
9.5787e-05
9.07875e-05
9.0691e-05
9.57908e-05
9.57995e-05
9.57894e-05
9.06791e-05
9.07461e-05
9.08125e-05
9.57827e-05
9.57627e-05
9.57838e-05
9.57634e-05
9.07097e-05
9.07732e-05
9.57918e-05
9.57741e-05
9.57928e-05
9.57749e-05
9.57885e-05
9.57956e-05
9.57875e-05
9.06724e-05
9.07536e-05
9.5791e-05
9.58009e-05
9.579e-05
9.06775e-05
9.07479e-05
9.08484e-05
9.57834e-05
9.5763e-05
9.57859e-05
9.57648e-05
9.07063e-05
9.0823e-05
9.57925e-05
9.57745e-05
9.57949e-05
9.57765e-05
9.57884e-05
9.57974e-05
9.57898e-05
9.0692e-05
9.08226e-05
9.57909e-05
9.58028e-05
9.57922e-05
9.07393e-05
9.08018e-05
9.08376e-05
9.57854e-05
9.57645e-05
9.57882e-05
9.57674e-05
9.07539e-05
9.08462e-05
9.57944e-05
9.57761e-05
9.57972e-05
9.57788e-05
9.57898e-05
9.58001e-05
9.57925e-05
9.0751e-05
9.0852e-05
9.57922e-05
9.58053e-05
9.5795e-05
9.08285e-05
9.08353e-05
9.07759e-05
9.57891e-05
9.5768e-05
9.57917e-05
9.57718e-05
9.08173e-05
9.08169e-05
9.57981e-05
9.57793e-05
9.58008e-05
9.57831e-05
9.57927e-05
9.58052e-05
9.57972e-05
9.08158e-05
9.0832e-05
9.57952e-05
9.58102e-05
9.57998e-05
9.08502e-05
9.0812e-05
9.07096e-05
9.57943e-05
9.57739e-05
9.57986e-05
9.57787e-05
9.0831e-05
9.07461e-05
9.58035e-05
9.5785e-05
9.58076e-05
9.57904e-05
9.57986e-05
9.58122e-05
9.58044e-05
9.08387e-05
9.07652e-05
9.58012e-05
9.58178e-05
9.5807e-05
9.07913e-05
9.07505e-05
9.07005e-05
9.58026e-05
9.57827e-05
9.58109e-05
9.57909e-05
9.07939e-05
9.06901e-05
9.58117e-05
9.57943e-05
9.58201e-05
9.58028e-05
9.58079e-05
9.58249e-05
9.58164e-05
9.08073e-05
9.0706e-05
9.58106e-05
9.58305e-05
9.58188e-05
9.07092e-05
9.06939e-05
9.07362e-05
9.5817e-05
9.57976e-05
9.58327e-05
9.58105e-05
9.07184e-05
9.07054e-05
9.58259e-05
9.58093e-05
9.58395e-05
9.58221e-05
9.58225e-05
9.58437e-05
9.5836e-05
9.0739e-05
9.07164e-05
9.58248e-05
9.58489e-05
9.58374e-05
9.07154e-05
9.06853e-05
9.07916e-05
9.58432e-05
9.58236e-05