/*--------------------------------*- C++ -*----------------------------------*\
| =========                 |                                                 |
| \\      /  F ield         | OpenFOAM: The Open Source CFD Toolbox           |
|  \\    /   O peration     | Version:  2312                                  |
|   \\  /    A nd           | Website:  www.openfoam.com                      |
|    \\/     M anipulation  |                                                 |
\*---------------------------------------------------------------------------*/
FoamFile
{
    version     2.0;
    format      ascii;
    arch        "LSB;label=32;scalar=64";
    class       volScalarField;
    location    "125";
    object      p;
}
// * * * * * * * * * * * * * * * * * * * * * * * * * * * * * * * * * * * * * //

dimensions      [0 2 -2 0 0 0 0];

internalField   nonuniform List<scalar> 
43211
(
0.00358619
0.00358659
0.0035866
0.0035865
0.00352833
0.00352848
0.00352848
0.00353117
0.00347674
0.00347675
0.00347675
0.00347952
0.00342448
0.00342448
0.00342448
0.00342725
0.0033731
0.00337311
0.00337311
0.00337586
0.00332313
0.00332314
0.00332314
0.00332586
0.0032746
0.00327462
0.00327462
0.0032773
0.00322737
0.00322739
0.00322739
0.00323004
0.00318124
0.00318126
0.00318126
0.00318388
0.00313601
0.00313603
0.00313603
0.00313862
0.0030915
0.00309152
0.00309152
0.00309408
0.00304759
0.00304761
0.00304761
0.00305015
0.00300419
0.00300421
0.00300421
0.00300673
0.00296126
0.00296128
0.00296128
0.00296378
0.00291876
0.00291877
0.00291877
0.00292127
0.00287667
0.00287667
0.00287667
0.00287916
0.00283497
0.00283496
0.00283496
0.00283744
0.00279362
0.00279361
0.00279361
0.00279608
0.0027526
0.00275259
0.00275259
0.00275505
0.00271191
0.00271188
0.00271188
0.00271434
0.0026715
0.00267147
0.00267147
0.00267392
0.00359636
0.00359543
0.00359543
0.00359635
0.00359543
0.00359543
0.00359434
0.00359433
0.00359434
0.00359433
0.00359543
0.00359543
0.00359636
0.00359543
0.00359543
0.00359635
0.0035865
0.00353756
0.0035866
0.0035866
0.00353993
0.00353993
0.0035865
0.00353756
0.0035866
0.0035866
0.00353993
0.00353993
0.00358659
0.00353993
0.00353993
0.0035865
0.00353756
0.00358659
0.00353993
0.00353993
0.00353756
0.00353117
0.00348648
0.00352848
0.00352848
0.00348995
0.00348995
0.00353116
0.00348648
0.00352848
0.00352848
0.00348994
0.00348995
0.00352848
0.00348995
0.00348994
0.00353117
0.00348648
0.00352848
0.00348995
0.00348994
0.00348648
0.00347953
0.00343412
0.00347675
0.00347675
0.00343748
0.00343748
0.00347952
0.00343412
0.00347675
0.00347675
0.00343748
0.00343748
0.00347675
0.00343748
0.00343748
0.00347953
0.00343412
0.00347675
0.00343748
0.00343748
0.00343412
0.00342725
0.00338257
0.00342448
0.00342448
0.00338584
0.00338584
0.00342725
0.00338257
0.00342448
0.00342448
0.00338584
0.00338584
0.00342448
0.00338584
0.00338584
0.00342725
0.00338257
0.00342448
0.00338584
0.00338584
0.00338257
0.00337586
0.00333236
0.00337311
0.00337311
0.00333549
0.0033355
0.00337586
0.00333236
0.00337311
0.00337311
0.00333549
0.00333549
0.00337311
0.00333549
0.00333549
0.00337586
0.00333236
0.00337311
0.00333549
0.00333549
0.00333236
0.00332586
0.0032836
0.00332314
0.00332314
0.00328662
0.00328662
0.00332586
0.0032836
0.00332314
0.00332314
0.00328662
0.00328662
0.00332314
0.00328662
0.00328662
0.00332586
0.0032836
0.00332314
0.00328662
0.00328662
0.0032836
0.0032773
0.00323617
0.00327462
0.00327462
0.00323909
0.00323909
0.0032773
0.00323617
0.00327462
0.00327462
0.00323909
0.00323909
0.00327462
0.00323909
0.00323909
0.0032773
0.00323617
0.00327462
0.00323909
0.00323909
0.00323617
0.00323004
0.00318987
0.00322739
0.00322739
0.0031927
0.0031927
0.00323004
0.00318987
0.0032274
0.00322739
0.0031927
0.0031927
0.00322739
0.0031927
0.0031927
0.00323004
0.00318987
0.0032274
0.0031927
0.0031927
0.00318987
0.00318388
0.0031445
0.00318126
0.00318126
0.00314726
0.00314726
0.00318388
0.0031445
0.00318126
0.00318126
0.00314726
0.00314726
0.00318126
0.00314726
0.00314726
0.00318388
0.0031445
0.00318126
0.00314726
0.00314726
0.0031445
0.00313862
0.00309987
0.00313603
0.00313603
0.00310259
0.00310259
0.00313862
0.00309987
0.00313603
0.00313603
0.00310259
0.00310259
0.00313603
0.00310259
0.00310259
0.00313862
0.00309987
0.00313603
0.00310259
0.00310259
0.00309987
0.00309409
0.00305585
0.00309152
0.00309152
0.00305854
0.00305854
0.00309408
0.00305585
0.00309152
0.00309152
0.00305854
0.00305854
0.00309152
0.00305854
0.00305854
0.00309409
0.00305585
0.00309152
0.00305854
0.00305854
0.00305585
0.00305015
0.00301236
0.00304761
0.00304761
0.00301502
0.00301502
0.00305015
0.00301235
0.00304761
0.00304761
0.00301501
0.00301502
0.00304761
0.00301502
0.00301501
0.00305015
0.00301236
0.00304761
0.00301502
0.00301501
0.00301236
0.00300673
0.00296934
0.00300421
0.00300421
0.00297197
0.00297197
0.00300672
0.00296935
0.00300421
0.00300421
0.00297197
0.00297197
0.00300421
0.00297197
0.00297197
0.00300672
0.00296935
0.00300421
0.00297197
0.00297197
0.00296934
0.00296378
0.00292679
0.00296128
0.00296128
0.00292936
0.00292936
0.00296378
0.00292679
0.00296128
0.00296128
0.00292936
0.00292936
0.00296128
0.00292936
0.00292936
0.00296378
0.00292679
0.00296128
0.00292936
0.00292936
0.00292679
0.00292127
0.00288463
0.00291877
0.00291877
0.00288717
0.00288716
0.00292127
0.00288463
0.00291877
0.00291877
0.00288716
0.00288716
0.00291877
0.00288716
0.00288716
0.00292127
0.00288463
0.00291877
0.00288716
0.00288716
0.00288463
0.00287917
0.00284286
0.00287668
0.00287668
0.00284536
0.00284536
0.00287916
0.00284286
0.00287668
0.00287668
0.00284536
0.00284535
0.00287668
0.00284535
0.00284535
0.00287916
0.00284286
0.00287667
0.00284535
0.00284535
0.00284286
0.00283744
0.00280145
0.00283496
0.00283496
0.00280392
0.00280392
0.00283744
0.00280145
0.00283496
0.00283496
0.00280392
0.00280392
0.00283496
0.00280392
0.00280392
0.00283744
0.00280145
0.00283496
0.00280392
0.00280392
0.00280145
0.00279608
0.00276038
0.00279361
0.00279361
0.00276282
0.00276282
0.00279608
0.00276039
0.00279361
0.00279361
0.00276282
0.00276282
0.00279361
0.00276282
0.00276282
0.00279608
0.00276038
0.00279361
0.00276282
0.00276282
0.00276038
0.00275505
0.00271963
0.00275259
0.00275259
0.00272203
0.00272203
0.00275505
0.00271963
0.00275259
0.00275259
0.00272203
0.00272203
0.00275259
0.00272203
0.00272203
0.00275505
0.00271963
0.00275259
0.00272203
0.00272203
0.00271963
0.00271434
0.00267918
0.00271188
0.00271188
0.00268155
0.00268154
0.00271434
0.00267918
0.00271188
0.00271188
0.00268155
0.00268154
0.00271188
0.00268154
0.00268154
0.00271434
0.00267918
0.00271188
0.00268154
0.00268154
0.00267917
0.00267392
0.00267147
0.00267147
0.00267392
0.00267147
0.00267147
0.00267147
0.00267392
0.00267146
0.00360438
0.00361462
0.00360911
0.00360911
0.00363172
0.00361862
0.00364708
0.00361253
0.00363171
0.00361863
0.00361253
0.00364708
0.00362314
0.0036508
0.0036508
0.00355879
0.00357847
0.00358761
0.00355093
0.00355217
0.00355447
0.00355878
0.0035785
0.00358759
0.00355091
0.00358619
0.00358619
0.00358619
0.00353973
0.00353973
0.00353973
0.00353973
0.00355626
0.00358268
0.00358604
0.0035638
0.00358549
0.00355515
0.00356473
0.00355223
0.00355444
0.00355627
0.00358605
0.00358269
0.00356379
0.0035855
0.00356473
0.00355515
0.00358853
0.00358854
0.00355908
0.00355486
0.00355486
0.00351358
0.00353263
0.00353401
0.00351212
0.00353152
0.00351166
0.00351359
0.00353264
0.00353401
0.00351211
0.00352833
0.00352833
0.00352833
0.00349002
0.00349002
0.00349002
0.00349002
0.0035122
0.00353274
0.00352821
0.00351612
0.00353156
0.00351272
0.00351594
0.00353153
0.00351166
0.0035122
0.00352821
0.00353274
0.00351612
0.00353156
0.00351594
0.00351272
0.00353373
0.00353373
0.00351247
0.00351303
0.00351303
0.00346117
0.00347999
0.00348107
0.00346015
0.00347963
0.00345986
0.00346117
0.00347999
0.00348107
0.00346015
0.00347674
0.00347674
0.00347674
0.00343747
0.00343747
0.00343747
0.00343747
0.00346026
0.0034804
0.00347663
0.00346361
0.00347983
0.00346063
0.00346351
0.00347963
0.00345986
0.00346026
0.00347663
0.0034804
0.00346361
0.00347983
0.00346351
0.00346063
0.00348063
0.00348063
0.00346024
0.0034607
0.0034607
0.00340867
0.00342732
0.00342818
0.0034079
0.00342712
0.00340773
0.00340867
0.00342732
0.00342818
0.0034079
0.00342448
0.00342448
0.00342448
0.00338583
0.00338583
0.00338583
0.00338583
0.00340816
0.00342773
0.00342444
0.00341153
0.00342745
0.00340835
0.0034115
0.00342712
0.00340772
0.00340816
0.00342444
0.00342773
0.00341153
0.00342745
0.0034115
0.00340835
0.00342777
0.00342777
0.00340821
0.00340829
0.00340829
0.00335747
0.00337583
0.00337646
0.00335692
0.00337568
0.00335678
0.00335747
0.00337583
0.00337646
0.00335692
0.0033731
0.0033731
0.0033731
0.00333548
0.00333548
0.00333548
0.00333548
0.0033572
0.00337618
0.00337308
0.00336048
0.00337601
0.00335731
0.00336045
0.00337568
0.00335678
0.0033572
0.00337308
0.00337618
0.00336048
0.00337601
0.00336045
0.00335731
0.00337616
0.00337616
0.00335728
0.00335722
0.00335722
0.00330783
0.00332578
0.00332623
0.00330743
0.00332566
0.00330732
0.00330783
0.00332578
0.00332623
0.00330743
0.00332313
0.00332313
0.00332313
0.00328661
0.00328661
0.00328661
0.00328661
0.00330771
0.00332608
0.00332311
0.00331088
0.00332596
0.00330778
0.00331085
0.00332566
0.00330732
0.00330771
0.00332311
0.00332608
0.00331088
0.00332596
0.00331085
0.00330778
0.00332606
0.00332606
0.0033078
0.00330769
0.00330769
0.00325965
0.0032772
0.00327753
0.00325937
0.00327711
0.00325927
0.00325965
0.00327721
0.00327753
0.00325938
0.0032746
0.0032746
0.0032746
0.00323907
0.00323907
0.00323907
0.00323907
0.00325963
0.00327747
0.00327459
0.0032627
0.00327737
0.00325969
0.00326267
0.00327711
0.00325928
0.00325963
0.00327459
0.00327747
0.0032627
0.00327737
0.00326267
0.00325969
0.00327746
0.00327746
0.00325973
0.00325961
0.00325961
0.00321276
0.00322995
0.00323018
0.00321256
0.00322985
0.00321246
0.00321276
0.00322995
0.00323018
0.00321256
0.00322737
0.00322737
0.00322737
0.00319268
0.00319268
0.00319268
0.00319268
0.0032128
0.00323018
0.00322736
0.00321576
0.0032301
0.00321285
0.00321573
0.00322985
0.00321246
0.0032128
0.00322736
0.00323018
0.00321577
0.0032301
0.00321573
0.00321285
0.00323018
0.00323018
0.0032129
0.00321277
0.00321277
0.00316692
0.00318379
0.00318397
0.00316676
0.0031837
0.00316667
0.00316692
0.00318379
0.00318397
0.00316676
0.00318124
0.00318124
0.00318124
0.00314724
0.00314724
0.00314724
0.00314724
0.003167
0.003184
0.00318123
0.00316988
0.00318393
0.00316704
0.00316984
0.00318371
0.00316667
0.003167
0.00318123
0.003184
0.00316988
0.00318393
0.00316984
0.00316704
0.003184
0.003184
0.00316708
0.00316696
0.00316696
0.00312193
0.00313854
0.00313868
0.0031218
0.00313845
0.00312171
0.00312193
0.00313854
0.00313868
0.0031218
0.00313601
0.00313601
0.00313601
0.00310256
0.00310256
0.00310256
0.00310256
0.00312203
0.00313874
0.003136
0.00312484
0.00313868
0.00312208
0.00312481
0.00313845
0.00312171
0.00312203
0.003136
0.00313874
0.00312484
0.00313868
0.00312481
0.00312208
0.00313873
0.00313873
0.0031221
0.00312197
0.00312197
0.00307763
0.003094
0.00309414
0.0030775
0.00309392
0.00307742
0.00307763
0.003094
0.00309414
0.0030775
0.0030915
0.0030915
0.0030915
0.00305851
0.00305851
0.00305851
0.00305851
0.00307775
0.0030942
0.00309149
0.00308049
0.00309415
0.00307778
0.00308047
0.00309392
0.00307742
0.00307775
0.00309149
0.0030942
0.00308049
0.00309415
0.00308046
0.00307778
0.00309418
0.00309418
0.00307779
0.00307766
0.00307766
0.00303389
0.00305007
0.00305019
0.00303376
0.00304999
0.00303369
0.00303389
0.00305007
0.00305019
0.00303376
0.00304759
0.00304759
0.00304759
0.003015
0.003015
0.003015
0.003015
0.00303403
0.00305026
0.00304759
0.00303671
0.00305023
0.00303404
0.00303669
0.00304999
0.00303369
0.00303403
0.00304759
0.00305026
0.00303671
0.00305023
0.00303669
0.00303404
0.00305023
0.00305023
0.00303404
0.00303391
0.00303391
0.00299064
0.00300664
0.00300677
0.00299052
0.00300657
0.00299044
0.00299064
0.00300664
0.00300677
0.00299051
0.00300419
0.00300419
0.00300419
0.00297195
0.00297195
0.00297195
0.00297195
0.00299081
0.00300683
0.0030042
0.00299344
0.00300682
0.00299079
0.00299342
0.00300657
0.00299044
0.00299081
0.0030042
0.00300683
0.00299344
0.00300682
0.00299342
0.00299079
0.00300679
0.00300679
0.00299079
0.00299065
0.00299065
0.00294785
0.00296368
0.00296381
0.00294772
0.00296362
0.00294766
0.00294785
0.00296368
0.00296381
0.00294772
0.00296126
0.00296126
0.00296126
0.00292935
0.00292935
0.00292935
0.00292935
0.00294803
0.00296386
0.00296127
0.00295061
0.00296388
0.00294799
0.00295061
0.00296361
0.00294765
0.00294803
0.00296127
0.00296386
0.00295061
0.00296388
0.00295061
0.00294799
0.00296381
0.00296381
0.00294802
0.00294784
0.00294784
0.00290548
0.00292115
0.00292128
0.00290535
0.00292109
0.00290529
0.00290547
0.00292115
0.00292128
0.00290535
0.00291876
0.00291876
0.00291876
0.00288716
0.00288716
0.00288716
0.00288716
0.00290568
0.00292132
0.00291877
0.00290821
0.00292137
0.00290561
0.00290821
0.00292109
0.00290529
0.00290568
0.00291877
0.00292132
0.00290821
0.00292137
0.00290821
0.00290561
0.00292127
0.00292127
0.00290566
0.00290545
0.00290546
0.0028635
0.00287904
0.00287916
0.00286338
0.00287899
0.00286334
0.0028635
0.00287904
0.00287916
0.00286338
0.00287667
0.00287667
0.00287667
0.00284536
0.00284536
0.00284536
0.00284536
0.00286373
0.00287919
0.00287668
0.00286621
0.00287926
0.00286363
0.00286622
0.00287899
0.00286333
0.00286373
0.00287668
0.00287919
0.00286621
0.00287926
0.00286622
0.00286363
0.00287914
0.00287915
0.00286369
0.00286348
0.00286348
0.0028219
0.00283731
0.00283742
0.00282179
0.00283726
0.00282175
0.0028219
0.00283731
0.00283742
0.00282179
0.00283497
0.00283497
0.00283496
0.00280392
0.00280392
0.00280392
0.00280392
0.00282216
0.00283745
0.00283498
0.00282459
0.00283754
0.00282203
0.00282461
0.00283726
0.00282175
0.00282216
0.00283498
0.00283745
0.00282459
0.00283755
0.00282461
0.00282203
0.00283741
0.00283741
0.00282211
0.00282188
0.00282188
0.00278066
0.00279594
0.00279605
0.00278055
0.0027959
0.00278051
0.00278066
0.00279594
0.00279605
0.00278055
0.00279362
0.00279362
0.00279362
0.00276283
0.00276283
0.00276283
0.00276283
0.00278093
0.00279607
0.00279364
0.00278333
0.00279618
0.00278078
0.00278335
0.0027959
0.00278051
0.00278093
0.00279364
0.00279607
0.00278333
0.00279618
0.00278335
0.00278078
0.00279603
0.00279603
0.00278088
0.00278063
0.00278063
0.00273974
0.00275491
0.00275501
0.00273963
0.00275488
0.00273961
0.00273974
0.00275491
0.00275501
0.00273964
0.0027526
0.0027526
0.0027526
0.00272205
0.00272205
0.00272205
0.00272205
0.00274002
0.00275502
0.00275262
0.00274239
0.00275515
0.00273985
0.00274242
0.00275487
0.00273961
0.00274002
0.00275262
0.00275502
0.00274239
0.00275515
0.00274241
0.00273985
0.00275499
0.00275499
0.00273997
0.00273971
0.00273971
0.00269913
0.00271419
0.00271428
0.00269904
0.00271416
0.00269901
0.00269913
0.00271419
0.00271428
0.00269904
0.00271191
0.00271191
0.00271191
0.00268158
0.00268158
0.00268158
0.00268158
0.0026994
0.00271429
0.00271191
0.00270175
0.00271442
0.00269923
0.00270178
0.00271416
0.002699
0.0026994
0.00271191
0.00271429
0.00270175
0.00271442
0.00270178
0.00269923
0.00271426
0.00271426
0.00269937
0.00269909
0.00269909
0.0026588
0.00267377
0.00267386
0.00265871
0.00267374
0.00265868
0.0026588
0.00267377
0.00267386
0.00265871
0.0026715
0.0026715
0.0026715
0.00265907
0.00267385
0.0026715
0.0026614
0.00267398
0.0026589
0.00266143
0.00267374
0.00265907
0.0026715
0.00267385
0.00267398
0.00266143
0.00267383
0.00267383
0.00265905
0.00265876
0.00265876
0.00362314
0.00365079
0.0036508
0.00361461
0.00365031
0.00361462
0.00365031
0.0036201
0.00360644
0.00360647
0.00364559
0.00364559
0.0036317
0.00361862
0.00364706
0.00361253
0.0036317
0.00361862
0.00364706
0.00361252
0.00363634
0.0036067
0.00364745
0.00360154
0.00363634
0.00360674
0.00364744
0.00360154
0.00362756
0.00361622
0.00359793
0.00359375
0.00364235
0.00361075
0.00359847
0.00362756
0.00361622
0.00359793
0.00359375
0.00364234
0.00361075
0.00359847
0.00362314
0.00365079
0.0036508
0.00361463
0.00365031
0.0036201
0.00360645
0.00360646
0.00364559
0.00364561
0.00361462
0.00365032
0.00363171
0.00361862
0.00364707
0.00361253
0.00363171
0.00361863
0.00361253
0.00364707
0.00363636
0.0036067
0.00364744
0.00360155
0.00362757
0.00361622
0.00359794
0.00359375
0.00364235
0.00361075
0.00359848
0.00363636
0.00360675
0.00364745
0.00360154
0.00362757
0.00361622
0.00359375
0.00359794
0.00361075
0.00364235
0.00359848
0.00360438
0.00361462
0.00360911
0.00360911
0.00360438
0.00361463
0.00360911
0.00360912
0.00360438
0.00361462
0.00360911
0.00360912
0.00360312
0.00361265
0.00359256
0.00359256
0.00360756
0.00360756
0.00359054
0.00360312
0.00361265
0.00359256
0.00359256
0.00360756
0.00360756
0.00359054
0.00360312
0.00361265
0.00359256
0.00359256
0.00360756
0.00360756
0.00359054
0.00360312
0.00361265
0.00359256
0.00359256
0.00360756
0.00360756
0.00359054
0.00363171
0.00361863
0.00361253
0.00364707
0.00362758
0.00361622
0.00359793
0.00359375
0.00364236
0.00361075
0.00359847
0.00363637
0.00360667
0.00364746
0.00360153
0.00362757
0.00361622
0.00359375
0.00359793
0.00361075
0.00364235
0.00359847
0.00363636
0.00360673
0.00364745
0.00360153
0.00362314
0.0036508
0.0036508
0.00361466
0.00365031
0.00362011
0.00360647
0.00360646
0.0036456
0.0036456
0.0036146
0.00365032
0.00363171
0.00361863
0.00361253
0.00364707
0.00362757
0.00361622
0.00359375
0.00359794
0.00361075
0.00364235
0.00359847
0.00362757
0.00361622
0.00359375
0.00359794
0.00361075
0.00364235
0.00359847
0.00363636
0.00360668
0.00364746
0.00360154
0.00363636
0.0036067
0.00364745
0.00360153
0.00362011
0.00360646
0.00360646
0.00364559
0.0036456
0.00361461
0.00365031
0.00361461
0.00365031
0.00355211
0.00355446
0.0035523
0.00355441
0.00358849
0.00358854
0.00355908
0.00355487
0.00355485
0.00353807
0.00355424
0.00353811
0.00355421
0.00355307
0.00354072
0.00354073
0.00355318
0.00355317
0.0035588
0.00357852
0.0035876
0.00355094
0.00355628
0.00358267
0.00358605
0.0035638
0.0035855
0.00355516
0.00356473
0.00355629
0.00358267
0.00358605
0.0035638
0.0035855
0.00355516
0.00356473
0.00355444
0.00353983
0.00355196
0.00354062
0.00355444
0.00353983
0.00355195
0.00354062
0.0035515
0.00355106
0.00353956
0.00353979
0.00355254
0.00355148
0.00353794
0.00355151
0.00355106
0.00353956
0.00353979
0.00355254
0.00355148
0.00353794
0.0035885
0.00358854
0.00355908
0.00355487
0.00355487
0.00355228
0.00355444
0.0035381
0.00355424
0.00355307
0.00354072
0.00354073
0.00355319
0.00355317
0.00353811
0.0035542
0.00355626
0.00358269
0.00358605
0.0035638
0.0035855
0.00355514
0.00356473
0.00355878
0.0035785
0.00358759
0.00355092
0.00355627
0.00358605
0.00358267
0.00356379
0.0035855
0.00356473
0.00355514
0.00355443
0.00353984
0.00355193
0.00354062
0.00355149
0.00355106
0.00353957
0.0035398
0.00355253
0.00355148
0.00353794
0.00355443
0.00353984
0.00355194
0.00354062
0.0035515
0.00355105
0.00353979
0.00353956
0.00355148
0.00355253
0.00353794
0.00355878
0.00357848
0.00358758
0.00355092
0.00355627
0.00358604
0.00358267
0.0035638
0.00358549
0.00356473
0.00355515
0.00355879
0.0035785
0.00358757
0.00355092
0.0035515
0.00355106
0.00353957
0.0035398
0.00355254
0.00355148
0.00353794
0.00355444
0.00353984
0.00355194
0.00354062
0.00355151
0.00355106
0.0035398
0.00353956
0.00355148
0.00355253
0.00353794
0.00355444
0.00353984
0.00355194
0.00354062
0.00358852
0.00358855
0.00355908
0.00355485
0.00355485
0.00355231
0.00355442
0.0035381
0.00355422
0.00355306
0.00354073
0.00354073
0.00355317
0.00355316
0.00353811
0.0035542
0.00355627
0.00358605
0.00358268
0.0035638
0.0035855
0.00356473
0.00355515
0.00355879
0.00357849
0.00358759
0.00355092
0.00355879
0.0035785
0.00358758
0.00355091
0.0035515
0.00355105
0.0035398
0.00353957
0.00355148
0.00355253
0.00353794
0.0035515
0.00355106
0.0035398
0.00353957
0.00355148
0.00355253
0.00353794
0.00355444
0.00353984
0.00355194
0.00354062
0.00355444
0.00353984
0.00355193
0.00354062
0.00355227
0.00355444
0.0035523
0.00355443
0.00355307
0.00354073
0.00354073
0.00355318
0.00355317
0.0035381
0.00355424
0.00353811
0.00355421
0.00353152
0.00351167
0.00353155
0.00351165
0.00353373
0.00353374
0.00351247
0.00351303
0.00351303
0.00348618
0.00350522
0.00348618
0.00350521
0.00350561
0.00348725
0.00348725
0.00350656
0.00350656
0.00351359
0.00353263
0.00353401
0.00351211
0.0035122
0.00353274
0.00352821
0.00351612
0.00353156
0.00351273
0.00351594
0.0035122
0.00353273
0.00352821
0.00351612
0.00353156
0.00351272
0.00351594
0.00350705
0.00348659
0.00350573
0.00348769
0.00350705
0.00348659
0.00350573
0.00348769
0.00350564
0.00350314
0.00348706
0.00348984
0.00350626
0.00350303
0.00348652
0.00350564
0.00350314
0.00348706
0.00348984
0.00350626
0.00350303
0.00348652
0.00353372
0.00353373
0.00351247
0.00351303
0.00351303
0.00353153
0.00351166
0.00348618
0.00350522
0.00350561
0.00348725
0.00348725
0.00350656
0.00350656
0.00348618
0.00350522
0.0035122
0.00353274
0.00352821
0.00351612
0.00353156
0.00351272
0.00351594
0.00351359
0.00353264
0.00353401
0.00351212
0.0035122
0.00352821
0.00353274
0.00351612
0.00353156
0.00351594
0.00351272
0.00350705
0.00348659
0.00350572
0.00348769
0.00350564
0.00350314
0.00348706
0.00348984
0.00350626
0.00350303
0.00348652
0.00350705
0.00348659
0.00350573
0.00348769
0.00350564
0.00350314
0.00348984
0.00348706
0.00350303
0.00350626
0.00348652
0.00351358
0.00353264
0.00353401
0.00351211
0.0035122
0.00352821
0.00353274
0.00351612
0.00353156
0.00351594
0.00351272
0.00351359
0.00353263
0.00353401
0.00351211
0.00350564
0.00350314
0.00348706
0.00348984
0.00350626
0.00350303
0.00348652
0.00350704
0.00348659
0.00350572
0.00348769
0.00350564
0.00350314
0.00348984
0.00348706
0.00350303
0.00350626
0.00348652
0.00350705
0.00348659
0.00350572
0.00348769
0.00353373
0.00353374
0.00351247
0.00351304
0.00351303
0.00353153
0.00351166
0.00348618
0.00350523
0.00350561
0.00348725
0.00348725
0.00350656
0.00350656
0.00348618
0.00350522
0.0035122
0.00352821
0.00353274
0.00351612
0.00353156
0.00351594
0.00351272
0.00351358
0.00353263
0.00353401
0.00351211
0.00351358
0.00353263
0.00353401
0.00351211
0.00350564
0.00350314
0.00348984
0.00348706
0.00350303
0.00350626
0.00348652
0.00350564
0.00350314
0.00348984
0.00348706
0.00350303
0.00350626
0.00348652
0.00350704
0.00348659
0.00350572
0.00348769
0.00350704
0.00348659
0.00350572
0.00348769
0.00353152
0.00351166
0.00353153
0.00351166
0.00350561
0.00348725
0.00348725
0.00350656
0.00350656
0.00348618
0.00350522
0.00348618
0.00350522
0.00347963
0.00345986
0.00347963
0.00345986
0.00348063
0.00348063
0.00346025
0.0034607
0.0034607
0.00343366
0.00345324
0.00343366
0.00345324
0.00345331
0.00343433
0.00343433
0.00345404
0.00345404
0.00346117
0.00347999
0.00348107
0.00346015
0.00346026
0.0034804
0.00347663
0.00346361
0.00347983
0.00346063
0.00346351
0.00346026
0.00348039
0.00347663
0.00346361
0.00347983
0.00346063
0.00346351
0.0034545
0.00343387
0.0034535
0.00343477
0.0034545
0.00343387
0.0034535
0.00343477
0.00345355
0.00345053
0.00343435
0.00343742
0.00345393
0.00345044
0.00343409
0.00345355
0.00345052
0.00343435
0.00343742
0.00345393
0.00345044
0.00343409
0.00348063
0.00348063
0.00346025
0.0034607
0.0034607
0.00347963
0.00345986
0.00343366
0.00345324
0.00345331
0.00343433
0.00343433
0.00345404
0.00345404
0.00343365
0.00345324
0.00346026
0.0034804
0.00347663
0.00346361
0.00347983
0.00346063
0.00346351
0.00346117
0.00347999
0.00348107
0.00346015
0.00346026
0.00347663
0.00348039
0.00346361
0.00347983
0.00346351
0.00346063
0.0034545
0.00343387
0.0034535
0.00343477
0.00345355
0.00345052
0.00343435
0.00343742
0.00345393
0.00345044
0.00343409
0.0034545
0.00343387
0.0034535
0.00343477
0.00345355
0.00345053
0.00343742
0.00343435
0.00345044
0.00345393
0.00343409
0.00346117
0.00347999
0.00348107
0.00346015
0.00346026
0.00347663
0.00348039
0.00346361
0.00347983
0.00346351
0.00346063
0.00346117
0.00347999
0.00348107
0.00346015
0.00345355
0.00345052
0.00343435
0.00343742
0.00345393
0.00345044
0.00343409
0.0034545
0.00343387
0.0034535
0.00343477
0.00345355
0.00345052
0.00343742
0.00343435
0.00345044
0.00345393
0.00343409
0.0034545
0.00343387
0.0034535
0.00343477
0.00348063
0.00348063
0.00346024
0.0034607
0.0034607
0.00347963
0.00345986
0.00343366
0.00345324
0.00345331
0.00343433
0.00343433
0.00345404
0.00345404
0.00343365
0.00345324
0.00346026
0.00347663
0.0034804
0.00346361
0.00347983
0.00346351
0.00346063
0.00346117
0.00347999
0.00348107
0.00346015
0.00346117
0.00347999
0.00348107
0.00346015
0.00345355
0.00345052
0.00343742
0.00343435
0.00345044
0.00345393
0.00343409
0.00345355
0.00345052
0.00343742
0.00343435
0.00345044
0.00345393
0.00343409
0.0034545
0.00343387
0.0034535
0.00343477
0.0034545
0.00343387
0.0034535
0.00343477
0.00347963
0.00345986
0.00347963
0.00345986
0.00345331
0.00343433
0.00343433
0.00345404
0.00345404
0.00343365
0.00345324
0.00343365
0.00345324
0.00342712
0.00340773
0.00342712
0.00340773
0.00342777
0.00342777
0.00340821
0.00340829
0.00340829
0.00338207
0.00340125
0.00338207
0.00340125
0.00340141
0.00338256
0.00338256
0.0034018
0.0034018
0.00340867
0.00342732
0.00342818
0.0034079
0.00340816
0.00342773
0.00342444
0.00341153
0.00342745
0.00340835
0.0034115
0.00340816
0.00342773
0.00342444
0.00341153
0.00342745
0.00340835
0.0034115
0.00340216
0.00338223
0.00340142
0.00338288
0.00340216
0.00338223
0.00340142
0.00338288
0.00340158
0.00339865
0.00338265
0.0033858
0.0034018
0.00339861
0.00338251
0.00340158
0.00339865
0.00338265
0.00338581
0.0034018
0.00339861
0.00338251
0.00342777
0.00342777
0.00340821
0.00340829
0.00340829
0.00342712
0.00340772
0.00338207
0.00340125
0.00340141
0.00338256
0.00338256
0.0034018
0.0034018
0.00338207
0.00340125
0.00340816
0.00342773
0.00342444
0.00341153
0.00342745
0.00340835
0.0034115
0.00340867
0.00342732
0.00342818
0.0034079
0.00340816
0.00342444
0.00342773
0.00341153
0.00342745
0.0034115
0.00340835
0.00340216
0.00338223
0.00340142
0.00338288
0.00340158
0.00339865
0.00338265
0.0033858
0.0034018
0.00339861
0.00338251
0.00340216
0.00338223
0.00340142
0.00338288
0.00340158
0.00339865
0.0033858
0.00338265
0.00339861
0.00340179
0.00338251
0.00340867
0.00342732
0.00342818
0.0034079
0.00340816
0.00342444
0.00342773
0.00341153
0.00342745
0.0034115
0.00340835
0.00340867
0.00342732
0.00342818
0.0034079
0.00340158
0.00339865
0.00338265
0.0033858
0.0034018
0.00339861
0.00338251
0.00340216
0.00338223
0.00340142
0.00338288
0.00340158
0.00339865
0.0033858
0.00338265
0.00339861
0.00340179
0.00338251
0.00340216
0.00338223
0.00340142
0.00338288
0.00342777
0.00342777
0.00340821
0.00340829
0.00340829
0.00342712
0.00340772
0.00338207
0.00340125
0.00340141
0.00338256
0.00338256
0.0034018
0.0034018
0.00338207
0.00340125
0.00340816
0.00342444
0.00342773
0.00341153
0.00342745
0.0034115
0.00340835
0.00340867
0.00342732
0.00342818
0.0034079
0.00340867
0.00342732
0.00342818
0.0034079
0.00340158
0.00339865
0.0033858
0.00338265
0.00339861
0.00340179
0.00338251
0.00340158
0.00339865
0.0033858
0.00338265
0.00339861
0.00340179
0.00338251
0.00340216
0.00338223
0.00340142
0.00338288
0.00340216
0.00338223
0.00340142
0.00338288
0.00342712
0.00340772
0.00342712
0.00340772
0.00340141
0.00338256
0.00338256
0.0034018
0.0034018
0.00338207
0.00340125
0.00338207
0.00340125
0.00337568
0.00335678
0.00337568
0.00335678
0.00337616
0.00337616
0.00335728
0.00335722
0.00335722
0.00333187
0.00335048
0.00333187
0.00335048
0.00335068
0.00333227
0.00333227
0.00335092
0.00335092
0.00335747
0.00337583
0.00337646
0.00335692
0.0033572
0.00337618
0.00337308
0.00336048
0.00337601
0.00335731
0.00336045
0.0033572
0.00337618
0.00337308
0.00336048
0.00337601
0.00335731
0.00336045
0.00335115
0.00333199
0.00335061
0.00333246
0.00335115
0.00333199
0.00335061
0.00333246
0.0033508
0.00334794
0.00333236
0.00333547
0.00335094
0.00334791
0.00333227
0.0033508
0.00334794
0.00333236
0.00333547
0.00335094
0.00334791
0.00333227
0.00337616
0.00337616
0.00335728
0.00335722
0.00335722
0.00337568
0.00335678
0.00333187
0.00335048
0.00335068
0.00333227
0.00333227
0.00335092
0.00335092
0.00333187
0.00335048
0.0033572
0.00337618
0.00337308
0.00336048
0.00337601
0.00335731
0.00336045
0.00335747
0.00337583
0.00337646
0.00335692
0.0033572
0.00337308
0.00337618
0.00336048
0.00337601
0.00336045
0.00335731
0.00335115
0.00333199
0.00335061
0.00333246
0.0033508
0.00334794
0.00333236
0.00333547
0.00335094
0.00334791
0.00333227
0.00335115
0.00333199
0.00335061
0.00333246
0.0033508
0.00334794
0.00333547
0.00333236
0.00334791
0.00335093
0.00333227
0.00335747
0.00337583
0.00337646
0.00335692
0.0033572
0.00337308
0.00337618
0.00336048
0.00337601
0.00336045
0.00335731
0.00335747
0.00337583
0.00337646
0.00335692
0.0033508
0.00334794
0.00333236
0.00333547
0.00335094
0.00334791
0.00333227
0.00335115
0.00333199
0.00335061
0.00333246
0.0033508
0.00334794
0.00333547
0.00333236
0.00334791
0.00335093
0.00333227
0.00335115
0.00333199
0.00335061
0.00333246
0.00337616
0.00337616
0.00335728
0.00335722
0.00335722
0.00337568
0.00335678
0.00333187
0.00335048
0.00335068
0.00333227
0.00333227
0.00335092
0.00335092
0.00333187
0.00335048
0.0033572
0.00337308
0.00337618
0.00336048
0.00337601
0.00336045
0.00335731
0.00335747
0.00337583
0.00337646
0.00335692
0.00335747
0.00337583
0.00337646
0.00335692
0.0033508
0.00334794
0.00333547
0.00333236
0.00334791
0.00335094
0.00333227
0.0033508
0.00334794
0.00333547
0.00333236
0.00334791
0.00335094
0.00333227
0.00335115
0.00333199
0.00335061
0.00333246
0.00335115
0.00333199
0.00335061
0.00333246
0.00337568
0.00335678
0.00337568
0.00335678
0.00335068
0.00333227
0.00333227
0.00335092
0.00335092
0.00333187
0.00335048
0.00333187
0.00335048
0.00332566
0.00330732
0.00332566
0.00330732
0.00332606
0.00332606
0.00330781
0.0033077
0.00330769
0.00328314
0.00330121
0.00328313
0.00330121
0.00330141
0.00328349
0.00328348
0.00330159
0.00330158
0.00330783
0.00332578
0.00332623
0.00330743
0.00330771
0.00332608
0.00332311
0.00331088
0.00332596
0.00330778
0.00331085
0.00330771
0.00332608
0.00332311
0.00331088
0.00332596
0.00330778
0.00331085
0.0033017
0.00328324
0.00330132
0.00328357
0.0033017
0.00328324
0.00330132
0.00328357
0.00330149
0.00329871
0.00328357
0.00328659
0.0033016
0.00329868
0.00328351
0.00330149