/*--------------------------------*- C++ -*----------------------------------*\
| =========                 |                                                 |
| \\      /  F ield         | OpenFOAM: The Open Source CFD Toolbox           |
|  \\    /   O peration     | Version:  2312                                  |
|   \\  /    A nd           | Website:  www.openfoam.com                      |
|    \\/     M anipulation  |                                                 |
\*---------------------------------------------------------------------------*/
FoamFile
{
    version     2.0;
    format      ascii;
    arch        "LSB;label=32;scalar=64";
    class       volScalarField;
    location    "125";
    object      p;
}
// * * * * * * * * * * * * * * * * * * * * * * * * * * * * * * * * * * * * * //

dimensions      [0 2 -2 0 0 0 0];

internalField   nonuniform List<scalar> 
43168
(
0.000713218
0.000713163
0.000713163
0.000715285
0.00071999
0.00072211
0.000722111
0.000719984
0.000722109
0.000722109
0.000722112
0.000722109
0.00071999
0.000722111
0.000722111
0.00071999
0.000715284
0.000713163
0.000713161
0.00071528
0.000713162
0.000713162
0.00071316
0.000715284
0.000713161
0.000737809
0.000737809
0.000722167
0.000722157
0.000722168
0.00072217
0.00070202
0.000715405
0.000715403
0.000702014
0.000715403
0.000702015
0.00070202
0.000715405
0.000715403
0.000702014
0.000713221
0.00071322
0.00071323
0.000702094
0.000715363
0.000713177
0.000704212
0.00071534
0.000702057
0.000704228
0.000715404
0.000702016
0.000702094
0.000713177
0.000715364
0.000704214
0.000715341
0.000704228
0.000702057
0.00071541
0.000715411
0.000702092
0.000702013
0.000702014
0.000737811
0.000737811
0.000737886
0.000737808
0.000737808
0.000719913
0.000733301
0.000719913
0.000733301
0.000733179
0.00071991
0.00071991
0.000733309
0.000733309
0.000740007
0.000737851
0.0007333
0.000719911
0.000733302
0.000719917
0.0007333
0.000719911
0.000733302
0.000719917
0.000733237
0.000731058
0.000719954
0.000722125
0.000733261
0.000731073
0.000719991
0.000733238
0.000731061
0.000719954
0.000722126
0.000733261
0.000731074
0.000719991
0.000719913
0.000733302
0.000733183
0.00071991
0.00071991
0.000733308
0.000719913
0.000740006
0.000737851
0.0007333
0.000719911
0.000733302
0.000719918
0.000733238
0.000731057
0.000719954
0.000722125
0.000733261
0.000731074
0.000719991
0.0007333
0.000719911
0.000733302
0.000719918
0.000733238
0.000731057
0.000722125
0.000719954
0.000731074
0.000733261
0.000719991
0.000719954
0.000722125
0.000719991
0.00071991
0.000719917
0.000722125
0.000719954
0.000719991
0.00071991
0.000719917
0.000719913
0.000733302
0.000733179
0.000719911
0.000719911
0.000733309
0.000733309
0.000719914
0.000733302
0.000733237
0.000731058
0.000722125
0.000719954
0.000731074
0.000733261
0.000719991
0.000733237
0.00073106
0.000722126
0.000719954
0.000731073
0.000733261
0.000719991
0.0007333
0.000719912
0.000733302
0.000719918
0.000733299
0.000719911
0.000733302
0.000719918
0.000733173
0.00071991
0.00071991
0.000733309
0.000719913
0.000719913
0.000733301
0.000715404
0.000702016
0.000715404
0.000702016
0.000715411
0.000715411
0.000702093
0.000702013
0.000702013
0.000697507
0.000697507
0.000697386
0.000697514
0.000697514
0.00070202
0.000715404
0.000715403
0.000702014
0.000702093
0.000715364
0.000713176
0.000704214
0.00071534
0.000702057
0.000704228
0.000702094
0.000715363
0.000713177
0.000704211
0.00071534
0.000702057
0.000704227
0.000697506
0.000697508
0.000697506
0.000697507
0.000697443
0.000695265
0.000697467
0.000695279
0.000697443
0.000695263
0.000697466
0.000695279
0.00071541
0.00071541
0.000702093
0.000702013
0.000702013
0.000715403
0.000702016
0.000697507
0.000697385
0.000697514
0.000697514
0.000697507
0.000702094
0.000715364
0.000713177
0.000704213
0.000715341
0.000702057
0.000704228
0.00070202
0.000715405
0.000715403
0.000702014
0.000702094
0.000713177
0.000715364
0.000704214
0.000715341
0.000704228
0.000702057
0.000697506
0.000697508
0.000697444
0.000695265
0.000697467
0.000695279
0.000697506
0.000697508
0.000697444
0.000695265
0.000695279
0.000697467
0.00070202
0.000715404
0.000715402
0.000702014
0.000702094
0.000713176
0.000715363
0.000704211
0.00071534
0.000704227
0.000702056
0.00070202
0.000715404
0.000715402
0.000702014
0.000697443
0.000695262
0.000697466
0.00069528
0.000697505
0.000697508
0.000697443
0.000695264
0.000695279
0.000697466
0.000697506
0.000697508
0.000715411
0.000715411
0.000702093
0.000702013
0.000702014
0.000715404
0.000702016
0.000697507
0.000697386
0.000697514
0.000697514
0.000697507
0.000702094
0.000713178
0.000715364
0.000704212
0.000715341
0.000704229
0.000702057
0.00070202
0.000715405
0.000715403
0.000702014
0.000702021
0.000715405
0.000715403
0.000702014
0.000697444
0.000695265
0.000695279
0.000697467
0.000697444
0.000695263
0.00069528
0.000697467
0.000697506
0.000697508
0.000697506
0.000697508
0.000715403
0.000702016
0.000715404
0.000702017
0.000697386
0.000697514
0.000697514
0.000697507
0.000697507
0.000742249
0.000737808
0.000742251
0.000742255
0.000737819
0.000742251
0.000706464
0.000706454
0.000702014
0.000702019
0.000706465
0.000706454
0.000702014
0.000710973
0.000715409
0.000710962
0.000715403
0.000710963
0.000710963
0.000710968
0.000715413
0.000715403
0.000715412
0.000710962
0.000710967
0.000706454
0.000702014
0.000706456
0.000706461
0.000702025
0.000710964
0.000706455
0.000706464
0.000706455
0.000702019
0.000702014
0.000706455
0.000706465
0.000702015
0.000710973
0.000715409
0.000710963
0.000715403
0.000710963
0.000710963
0.000710969
0.000715403
0.000715414
0.000715413
0.000710968
0.000710963
0.000706455
0.000702015
0.000706457
0.000706461
0.000702025
0.000710965
0.000706455
0.000706463
0.000702016
0.000702016
0.000706456
0.000706456
0.000702008
0.000710974
0.000715397
0.000715406
0.000710961
0.000715394
0.000710962
0.000710963
0.000710974
0.000715399
0.000715406
0.000710962
0.000715395
0.000710964
0.000710964
0.000710956
0.000715404
0.000715404
0.000715411
0.000710964
0.000710964
0.000706446
0.000702015
0.000706462
0.000702015
0.00070645
0.000706457
0.000702026
0.000706447
0.000702016
0.000706462
0.000702015
0.000706451
0.000706458
0.000702026
0.00074225
0.00074225
0.000742258
0.00073781
0.00073781
0.000742251
0.000742251
0.000737803
0.00074224
0.00073781
0.000742257
0.000737809
0.000742252
0.00073782
0.000742244
0.00074224
0.00073781
0.000742257
0.000737809
0.000742252
0.00073782
0.000742244
0.000724352
0.000728862
0.000724353
0.000728862
0.000728854
0.000733302
0.000733302
0.000733309
0.000728862
0.000728862
0.000724344
0.000719912
0.00072436
0.000719912
0.000724355
0.000724348
0.000719923
0.000724344
0.000719912
0.00072436
0.000719912
0.000724355
0.000724348
0.000719923
0.000728872
0.000733304
0.000733296
0.00072886
0.000733293
0.000728861
0.000728861
0.000728872
0.000733304
0.000733297
0.00072886
0.000733293
0.000728861
0.000728861
0.00072436
0.000719913
0.000719913
0.000724353
0.000724353
0.000719905
0.00072886
0.000733311
0.0007333
0.000728866
0.00073331
0.00072886
0.000728865
0.000724351
0.000724353
0.000719911
0.000719921
0.000724357
0.00072887
0.000733306
0.00072886
0.0007333
0.000728859
0.000724361
0.000724352
0.000719911
0.000719916
0.000719911
0.000724362
0.000724352
0.00072886
0.000733311
0.000733301
0.000728866
0.00073331
0.00072886
0.000728865
0.000724351
0.000724353
0.00071991
0.000724357
0.000719921
0.00072887
0.000733306
0.00072886
0.0007333
0.000728859
0.000724361
0.000724351
0.000719911
0.000719916
0.000724362
0.000724352
0.000719911
0.000724352
0.000728862
0.000724344
0.000719912
0.000724359
0.000719912
0.000724348
0.000724355
0.000719922
0.000724344
0.000719911
0.000724359
0.000719912
0.000724355
0.000724347
0.000719923
0.000733297
0.00072886
0.000728862
0.00072436
0.000719912
0.000719912
0.000724353
0.000724353
0.000719905
0.000724352
0.000728861
0.0007333
0.000733311
0.000728866
0.00073331
0.000728865
0.00072886
0.000724352
0.000724353
0.000719911
0.000719922
0.000724357
0.000728871
0.000733306
0.00072886
0.0007333
0.00072886
0.000724361
0.000724352
0.000719916
0.000719912
0.000719912
0.000724352
0.000724363
0.000728861
0.000733311
0.000733301
0.000728866
0.00073331
0.00072886
0.000728865
0.000724352
0.000724354
0.000719911
0.000724358
0.000719922
0.000728871
0.000733306
0.00072886
0.0007333
0.00072886
0.000724362
0.000724352
0.000719912
0.000719916
0.000724363
0.000724352
0.000719912
0.000724351
0.000724353
0.000719911
0.000724357
0.000719921
0.000724361
0.000724351
0.000719916
0.000719911
0.000724351
0.000724362
0.000719911
0.000724351
0.000724353
0.00071991
0.000724357
0.000719921
0.000724361
0.000724351
0.000719911
0.000719916
0.000724362
0.000724352
0.000719911
0.000724353
0.000728863
0.000728855
0.000733303
0.000733303
0.00073331
0.000728863
0.000728863
0.000724345
0.000719912
0.00072436
0.000719913
0.000724349
0.000724356
0.000719923
0.000724345
0.000719913
0.00072436
0.000719913
0.000724356
0.000724349
0.000719923
0.000728872
0.000733304
0.000733297
0.00072886
0.000728861
0.000733293
0.000728862
0.000728872
0.000733304
0.000733297
0.00072886
0.000733293
0.000728862
0.000728861
0.000724361
0.000719913
0.000719913
0.000724354
0.000724354
0.000719906
0.000724353
0.000728863
0.000728861
0.000733301
0.000733311
0.000728866
0.00073331
0.000728865
0.00072886
0.000724352
0.000724354
0.000719911
0.000724358
0.000719922
0.000728871
0.000733306
0.00072886
0.0007333
0.00072886
0.000724362
0.000724352
0.000719917
0.000719912
0.000724352
0.000724363
0.000719912
0.000728861
0.0007333
0.000733311
0.000728866
0.00073331
0.000728865
0.000728861
0.000724352
0.000724353
0.000719911
0.000724357
0.000719922
0.00072887
0.000733306
0.00072886
0.0007333
0.00072886
0.000724361
0.000724351
0.000719917
0.000719912
0.000724352
0.000724363
0.000719912
0.000728854
0.000728862
0.000728862
0.000724342
0.000719911
0.00072436
0.000719912
0.000719922
0.000724347
0.000724355
0.000724344
0.000719912
0.00072436
0.000719912
0.000719923
0.000724348
0.000724355
0.00072887
0.00072886
0.000728861
0.000728862
0.000728872
0.000733295
0.000728859
0.00072886
0.000728862
0.00072436
0.000719913
0.000719913
0.000719905
0.000724353
0.000724353
0.000724352
0.000728862
0.000724352
0.000728862
0.000710964
0.000706455
0.000710965
0.000706455
0.000706463
0.000702016
0.000702016
0.000706456
0.000706456
0.000702008
0.000710974
0.000715399
0.000715406
0.000710962
0.000715395
0.000710964
0.000710963
0.000710974
0.000715399
0.000715406
0.000710961
0.000715395
0.000710964
0.000710963
0.000710956
0.000715404
0.000715404
0.000715411
0.000710964
0.000710964
0.000706446
0.000702015
0.000706462
0.000702015
0.000706457
0.000702026
0.00070645
0.000706446
0.000702015
0.000706462
0.000702015
0.000706457
0.000702026
0.00070645
0.000693068
0.000693068
0.00069306
0.000697508
0.000697508
0.000697515
0.000693068
0.000693068
0.000693078
0.000697509
0.000697502
0.000693065
0.000697498
0.000693067
0.000693067
0.000693078
0.000697509
0.000697502
0.000693066
0.000697498
0.000693068
0.000693067
0.000706464
0.000706454
0.000702014
0.000702019
0.000706465
0.000706454
0.000702014
0.000710973
0.000715408
0.000710962
0.000715402
0.000710962
0.000710963
0.000710968
0.000715413
0.000715403
0.000710962
0.000715412
0.000710967
0.000706454
0.000702014
0.000706456
0.00070646
0.000702024
0.000693066
0.000697516
0.000697506
0.000693072
0.000697515
0.000693066
0.000693071
0.000693076
0.000697512
0.000693066
0.000697506
0.000693065
0.000693066
0.000697516
0.000697506
0.000693072
0.000697515
0.000693066
0.00069307
0.000693076
0.000697512
0.000693066
0.000697506
0.000693065
0.000706462
0.000702015
0.000702015
0.000706455
0.000706455
0.000702007
0.000710973
0.000715398
0.000715405
0.000710961
0.000710963
0.000715394
0.000710962
0.000710974
0.000715398
0.000715405
0.000710961
0.000710963
0.000715395
0.000710963
0.000710956
0.000715404
0.000715404
0.000710963
0.000715411
0.000710963
0.000706445
0.000702015
0.000706461
0.000702014
0.000706457
0.000706449
0.000702025
0.000706446
0.000702015
0.000706462
0.000702015
0.00070645
0.000706457
0.000702025
0.000710964
0.000706455
0.000693068
0.00069306
0.000697507
0.000697508
0.000697514
0.000693067
0.000693068
0.000693078
0.000697509
0.000697502
0.000693065
0.000693067
0.000697498
0.000693067
0.000693078
0.000697509
0.000697502
0.000693065
0.000697498
0.000693067
0.000693067
0.000693068
0.000706464
0.000706454
0.000702014
0.000702019
0.000706465
0.000706455
0.000702015
0.000710973
0.000715409
0.000710963
0.000715403
0.000710963
0.000710963
0.000710969
0.000715414
0.000715403
0.000710963
0.000715413
0.000710968
0.000706455
0.000702014
0.000706456
0.000706461
0.000702025
0.000693066
0.000697506
0.000697517
0.000693072
0.000697516
0.000693071
0.000693066
0.000693076
0.000697512
0.000693066
0.000697506
0.000693066
0.000693066
0.000697517
0.000697506
0.000693072
0.000697516
0.000693066
0.000693071
0.000693076
0.000697512
0.000693066
0.000697506
0.000693066
0.000706463
0.000706454
0.000702019
0.000702014
0.000706454
0.000706465
0.000702014
0.000710972
0.000715408
0.000710962
0.000710962
0.000715403
0.000710963
0.000710968
0.000715402
0.000715413
0.000710967
0.000715412
0.000710962
0.000706454
0.000702014
0.000706456
0.00070646
0.000702024
0.000706464
0.000706454
0.000702014
0.000702019
0.000706465
0.000706454
0.000702014
0.000710973
0.000715408
0.000710962
0.000715402
0.000710962
0.000710963
0.000710968
0.000715413
0.000715403
0.000715412
0.000710962
0.000710967
0.000706454
0.000702014
0.000706456
0.00070646
0.000702025
0.000693066
0.000697506
0.000697516
0.000693072
0.000697515
0.000693071
0.000693066
0.000693076
0.000697511
0.000693066
0.000697506
0.000693066
0.000693066
0.000697516
0.000697506
0.000693072
0.000697515
0.000693066
0.000693071
0.000693076
0.000697512
0.000693066
0.000697506
0.000693066
0.000706463
0.000702016
0.000702016
0.000706456
0.000706456
0.000702008
0.000710974
0.0007154
0.000715406
0.000710962
0.000710964
0.000715395
0.000710963
0.000710974
0.000715399
0.000715407
0.000710962
0.000710964
0.000715395
0.000710964
0.000710956
0.000715405
0.000715405
0.000710964
0.000715412
0.000710964
0.000706447
0.000702015
0.000706462
0.000702015
0.000706457
0.000706451
0.000702026
0.000706447
0.000702015
0.000706462
0.000702015
0.000706451
0.000706458
0.000702026
0.000710965
0.000706456
0.000693068
0.00069306
0.000697508
0.000697508
0.000697515
0.000693068
0.000693068
0.000693078
0.000697509
0.000697503
0.000693066
0.000693067
0.000697499
0.000693067
0.000693078
0.00069751
0.000697503
0.000693066
0.000697499
0.000693068
0.000693067
0.000693068
0.000706464
0.000706455
0.000702019
0.000702014
0.000706455
0.000706465
0.000702015
0.000710974
0.00071541
0.000710963
0.000710963
0.000715403
0.000710963
0.000710969
0.000715404
0.000715414
0.000710968
0.000715413
0.000710963
0.000706455
0.000702014
0.000706457
0.000706461
0.000702025
0.000706464
0.000706454
0.00070202
0.000702014
0.000706455
0.000706465
0.000702015
0.000710973
0.000715409
0.000710963
0.000715403
0.000710963
0.000710963
0.000710969
0.000715403
0.000715414
0.000715413
0.000710968
0.000710963
0.000706455
0.000702015
0.000706457
0.000706461
0.000702025
0.000693066
0.000697507
0.000697517
0.000693072
0.000697516
0.000693071
0.000693066
0.000693076
0.000697512
0.000693066
0.000697506
0.000693066
0.000693067
0.000697506
0.000697517
0.000693073
0.000697516
0.000693071
0.000693066
0.000693077
0.000697512
0.000693066
0.000697506
0.000693066
0.000710964
0.000706455
0.000710965
0.000706456
0.00069306
0.000697508
0.000697508
0.000697515
0.000693068
0.000693068
0.000693078
0.000697509
0.000697503
0.000693065
0.000697499
0.000693068
0.000693067
0.000693078
0.00069751
0.000697503
0.000693066
0.000697499
0.000693067
0.000693068
0.000693068
0.000693068
0.000740062
0.000713193
0.000713196
0.000704269
0.000704246
0.000704248
0.000704235
0.000713183
0.000711086
0.000715327
0.00071533
0.000711041
0.000715288
0.000711045
0.000711047
0.000724237
0.000724231
0.000719996
0.000719997
0.00072428
0.00072428
0.000720035
0.000724236
0.000724227
0.000719999
0.000719994
0.000724283
0.000724277
0.000720035
0.000724237
0.000724231
0.000719997
0.000719997
0.00072428
0.00072428
0.000720035
0.000724236
0.00072423
0.000719996
0.000719996
0.000720035
0.000724281
0.000724277
0.000711086
0.000715329
0.000715329
0.000711042
0.000715287
0.000711045
0.000711046
0.000711086
0.000715329
0.000715327
0.000711041
0.000711046
0.000715288
0.000711045
0.000711086
0.000715329
0.000715329
0.000711042
0.000711046
0.000715288
0.000711046
0.000731115
0.000722141
0.000722144
0.00073109
0.000731092
0.000731082
0.000722132
0.0007311
0.000722146
0.000722142
0.000731093
0.00073109
0.000731084
0.000722134
0.000731115
0.000722144
0.000722142
0.000731092
0.000731091
0.000731083
0.000722132
0.000731106
0.000722143
0.000722146
0.000731092
0.000731091
0.000731084
0.000722133
0.000713198
0.000713195
0.00070428
0.000704249
0.000704248
0.000704235
0.000713184
0.000713196
0.000713194
0.000704271
0.000704247
0.000704246
0.000704233
0.000713182
0.000713194
0.000713199
0.000704282
0.000704245
0.00070425
0.000704234
0.000713182
0.00069532
0.000695299
0.0006953
0.000695287
0.000695333
0.000695299
0.0006953
0.000695287
0.000695321
0.000695299
0.000695299
0.000695286
0.000695329
0.000695298
0.0006953
0.000695287
0.000706398
0.000706392
0.000702092
0.000702048
0.000706394
0.0007064
0.000702054
0.000710998
0.000715383
0.000715351
0.000711005
0.000715356
0.000710963
0.000711031
0.000711001
0.000711042
0.000715342
0.000715347
0.000715345
0.000711041
0.000710995
0.000706409
0.000702082
0.000706415
0.000702016
0.000706436
0.000706402
0.000702052
0.000706398
0.000706392
0.000702048
0.000702093
0.000706401
0.000706394
0.000702054
0.000711
0.000715385
0.000715352
0.000711006
0.000715359
0.000710965
0.000711031
0.000711002
0.000711043
0.000715349
0.000715343
0.000715346
0.000710997
0.000711041
0.000706411
0.000702083
0.000706416
0.000702016
0.000706437
0.000706403
0.000702052
0.000706339
0.000706334
0.000702099
0.000702099
0.000706379
0.000706381
0.000702137
0.000742132
0.000742128
0.000737894
0.000737893
0.000737932
0.000742174
0.000742174
0.000728984
0.000728938
0.000733228
0.000733229
0.000733185
0.000728947
0.000728947
0.000742204
0.000737876
0.000742209
0.000737809
0.000742197
0.00074223
0.000737846
0.000728899
0.00073324
0.000733245
0.000728939
0.000733243
0.000728938
0.000728893
0.000724307
0.000719912
0.000724312
0.000719979
0.000724333
0.000724299
0.000719949
0.000728897
0.000733248
0.000733281
0.000728902
0.000728861
0.000733256
0.000728927
0.000724295
0.000724289
0.000719989
0.000719944
0.000724291
0.000724297
0.00071995
0.000728899
0.00073324
0.000733245
0.000728939
0.000733243
0.000728938
0.000728893
0.000724305
0.00071991
0.000724312
0.000719979
0.000724299
0.000724331
0.000719946
0.000728895
0.000733248
0.000733281
0.000728903
0.000733255
0.000728927
0.00072886
0.000724294
0.000724289
0.000719989
0.000719944
0.000724291
0.000724296
0.00071995
0.00072894
0.000733227
0.000728948
0.00074221
0.00073781
0.00074223
0.000728899
0.00073324
0.000733246
0.00072894
0.000733244
0.000728938
0.000728893
0.000724307
0.000719913
0.000724312
0.000719979
0.000724333
0.000724299
0.000719949
0.000728897
0.000733248
0.000733282
0.000728902
0.000728861
0.000733256
0.000728928
0.000724295
0.000724289
0.00071999
0.000719945
0.000724291
0.000724297
0.000719951
0.000728899
0.000733246
0.00073324
0.00072894
0.000733243
0.000728893
0.000728938
0.000724307
0.000719912
0.000724313
0.000719979
0.0007243
0.000724333
0.000719948
0.000728897
0.000733248
0.000733281
0.000728903
0.000733256
0.000728928
0.00072886
0.000724295
0.000724289
0.000719945
0.00071999
0.000724297
0.000724291
0.000719951
0.000724305
0.00071991
0.000724312
0.000719979
0.000719946
0.000724331
0.0007243
0.000724292
0.000724289
0.000719989
0.000719943
0.000719948
0.000724291
0.000724295
0.000724305
0.00071991
0.000724312
0.000719979
0.000724299
0.000724331
0.000719947
0.000724293
0.000724289
0.000719943
0.000719989
0.000724296
0.000724291
0.000719949
0.000728984
0.000728937
0.000733228
0.000733228
0.000728947
0.000733185
0.000728947
0.000728899
0.000733246
0.00073324
0.000728939
0.000733244
0.000728893
0.000728938
0.000724307
0.000719913
0.000724313
0.00071998
0.000719949
0.000724334
0.0007243
0.000728897
0.000733248
0.000733282
0.000728903
0.000733256
0.000728861
0.000728928
0.000724295
0.000724289
0.000719945
0.00071999
0.000719951
0.000724297
0.000724291
0.000728898
0.000733245
0.000733239
0.000728939
0.000733242
0.000728892
0.000728938
0.000724306
0.000719912
0.000724313
0.00071998
0.0007243
0.000724332
0.000719948
0.000728896
0.000733248
0.00073328
0.000728903
0.000733255
0.000728928
0.00072886
0.000724294
0.000724289
0.000719945
0.00071999
0.000724297
0.000724291
0.000719951
0.000728983
0.000728932
0.000733223
0.000728951
0.000728941
0.000706339
0.000706335
0.000702098
0.000702098
0.000702137
0.000706379
0.00070638
0.00069319
0.000693144
0.000697433
0.000697433
0.000697391
0.000693153
0.000693152
0.000706397
0.000706392
0.000702092
0.000702048
0.000706394
0.0007064
0.000702053
0.000711
0.000715384
0.000715351
0.000711005
0.000711031
0.000715359
0.000710964
0.000711001
0.000711042
0.000715342
0.000715348
0.000711041
0.000715346
0.000710996
0.00070641
0.000702082
0.000706415
0.000702015
0.000706402
0.000706436
0.000702051
0.000706397
0.000706392
0.000702092
0.000702048
0.000706394
0.0007064
0.000702054
0.000710999
0.000715382
0.000715351
0.000711005
0.000715356
0.000711031
0.000710962
0.000711002
0.000711042
0.000715342
0.000715348
0.000715346
0.00071104
0.000710996
0.000706409
0.000702082
0.000706415
0.000702015
0.000706402
0.000702051
0.000706435
0.000693105
0.000697445
0.000697452
0.000693145
0.000697449
0.000693144
0.0006931
0.000693104
0.000697454
0.000697488
0.000693108
0.000693067
0.000697462
0.000693134
0.000693106
0.000697445
0.000697452
0.000693145
0.00069745
0.000693144
0.0006931
0.000693104
0.000697454
0.000697488
0.000693108
0.000697462
0.000693133
0.000693068
0.000706338
0.000706335
0.000702097
0.000702098
0.00070638
0.000706379
0.000702137
0.000693189
0.000693144
0.000697432
0.000697433
0.000693152
0.00069739
0.000693152
0.000706398
0.000706392
0.000702092
0.000702048
0.000706394
0.0007064
0.000702054
0.000711
0.000715385
0.000715351
0.000711005
0.000711031
0.000715359
0.000710964
0.000711002
0.000711043
0.000715342
0.000715348
0.000711041
0.000715346
0.000710996
0.00070641
0.000702082
0.000706415
0.000702016
0.000706402
0.000706436
0.000702052
0.000706398
0.000706392
0.000702048
0.000702093
0.0007064
0.000706394
0.000702054
0.000711
0.000715385
0.000715351
0.000711005
0.000715359
0.000711031
0.000710964
0.000711002
0.000711042
0.000715348
0.000715343
0.000715346
0.000710996
0.000711041
0.000706411
0.000702082
0.000706415
0.000702016
0.000706403
0.000702052
0.000706437
0.000693106
0.000697445
0.000697452
0.000693146
0.00069745
0.000693144
0.0006931
0.000693104
0.000697454
0.000697488
0.000693108
0.000693068
0.000697462
0.000693134
0.000693106
0.000697452
0.000697446
0.000693145
0.00069745
0.0006931
0.000693144
0.000693104
0.000697454
0.000697489
0.000693108
0.000697463
0.000693134
0.000693067
0.000706397
0.000706392
0.000702048
0.000702092
0.0007064
0.000706394
0.000702053
0.000711
0.000715383
0.000715351
0.000711005
0.000710963
0.000715358
0.00071103
0.000711001
0.000711042
0.000715347
0.000715342
0.000710995
0.000715346
0.00071104
0.000706411
0.000702082
0.000706415
0.000702016
0.000706436
0.000706402
0.000702052
0.000693106
0.000697445
0.000697452
0.000693146
0.00069745
0.000693144
0.0006931
0.000693104
0.000697453
0.000697488
0.000693108
0.000697462
0.000693068
0.000693133
0.000693105
0.000697452
0.000697445
0.000693145
0.000697449
0.000693099
0.000693144
0.000693104
0.000697453
0.000697489
0.000693108
0.000697463
0.000693133
0.000693068
0.000706339
0.000706335
0.000702099
0.000702099
0.00070638
0.00070638
0.000702138
0.00069319
0.000693144
0.000697433
0.000697434
0.000693153
0.000697391
0.000693153
0.000706399
0.000706392
0.000702049
0.000702093
0.000706401
0.000706394
0.000702055
0.000711
0.000715385
0.000715351
0.000711005
0.000710965
0.000715359
0.000711031
0.000711003
0.000711043
0.000715349
0.000715343
0.000710997
0.000715347
0.000711041
0.000706411
0.000702082
0.000706415
0.000702017
0.000706437
0.000706403
0.000702052
0.000693106
0.000697452
0.000697446
0.000693146
0.00069745
0.0006931
0.000693144
0.000693104
0.000697454
0.000697488
0.000693108
0.000697463
0.000693068
0.000693134
0.000693106
0.000697453
0.000697446
0.000693146
0.000697451
0.0006931
0.000693144
0.000693104
0.000697454
0.000697489
0.000693108
0.000697463
0.000693134
0.000693068
0.00069319
0.000693144
0.000697434
0.000697434
0.000697391
0.000693153
0.000693153
0.000677424
0.000677368
0.000677369
0.000679491
0.000641632
0.000641576
0.000641577
0.000643699
0.000605841
0.000605785
0.000605786
0.000607907
0.000570051
0.000569996
0.000569996
0.000572117
0.000534262
0.000534207
0.000534207
0.000536327
0.000498472
0.000498417
0.000498417
0.000500538
0.000462683
0.000462629
0.000462629
0.000464749
0.000426895
0.00042684
0.00042684
0.000428961
0.000391107
0.000391052
0.000391052
0.000393174
0.00035532
0.000355266
0.000355266
0.000357388
0.000319532
0.000319478
0.000319478
0.0003216
0.000283743
0.000283688
0.000283689
0.000285812
0.000247951
0.000247897
0.000247897
0.000250021
0.000212157
0.000212104
0.000212104
0.000214228
0.000176358
0.000176308
0.000176308
0.000178432
0.000140548
0.000140507
0.000140507
0.000142631
0.000104721
0.000104691
0.000104691
0.00010682
6.89209e-05
6.88646e-05
6.88639e-05
7.09986e-05
3.37357e-05
3.36453e-05
3.36417e-05
3.53559e-05
6.2292e-06
6.00699e-06
6.00395e-06
5.28395e-06
0.000684196
0.000686316
0.000686315
0.000684196
0.000686316
0.000686317
0.000686315
0.000686317
0.000684197
0.000686316
0.000686316
0.000684197
0.00067949
0.000648404
0.000677369
0.000677369
0.000650524
0.000650524
0.00067949
0.000648404
0.000677369
0.000677369
0.000650524
0.000650524
0.00067737
0.000650524
0.000650524
0.00067949
0.000648404
0.000677369
0.000650524
0.000650524
0.000648404
0.000643698
0.000612613
0.000641577
0.000641576
0.000614733
0.000614733
0.000643698
0.000612613
0.000641576
0.000641577
0.000614733
0.000614733
0.000641577
0.000614733
0.000614733
0.000643698
0.000612613
0.000641577
0.000614733
0.000614733
0.000612613
0.000607907
0.000576823
0.000605786
0.000605785
0.000578944
0.000578944
0.000607907
0.000576823
0.000605785
0.000605785
0.000578944
0.000578944
0.000605786
0.000578944
0.000578943
0.000607907
0.000576823
0.000605786
0.000578944
0.000578943
0.000576823
0.000572116
0.000541034
0.000569996
0.000569996
0.000543155
0.000543154
0.000572117
0.000541034
0.000569995
0.000569996
0.000543154
0.000543154
0.000569996
0.000543154
0.000543154
0.000572116
0.000541034
0.000569995
0.000543155
0.000543154
0.000541033
0.000536327
0.000505245
0.000534207
0.000534206
0.000507365
0.000507365
0.000536327
0.000505244
0.000534206
0.000534206
0.000507365
0.000507365
0.000534206
0.000507365
0.000507365
0.000536327
0.000505244
0.000534206
0.000507365
0.000507365
0.000505244
0.000500538
0.000469456
0.000498418
0.000498417
0.000471576
0.000471576
0.000500538
0.000469456
0.000498418
0.000498417
0.000471575
0.000471575
0.000498417
0.000471576
0.000471576
0.000500538
0.000469455
0.000498417
0.000471575
0.000471576
0.000469455
0.00046475
0.000433667
0.000462629
0.000462629
0.000435786
0.000435786
0.00046475
0.000433667
0.000462629
0.000462629
0.000435786
0.000435786
0.000462629
0.000435786
0.000435787
0.00046475
0.000433667
0.000462628
0.000435786
0.000435787
0.000433667
0.000428961
0.000397879
0.00042684
0.00042684
0.000399999
0.000399999
0.000428961
0.000397879
0.00042684
0.00042684
0.000399999
0.000399999
0.000426841
0.000399999
0.0004
0.000428961
0.000397879
0.00042684
0.000399999
0.0004
0.000397879
0.000393173
0.000362092
0.000391052
0.000391052
0.000364213
0.000364213
0.000393173
0.000362093
0.000391052
0.000391052
0.000364213
0.000364213
0.000391053
0.000364213
0.000364213
0.000393173
0.000362093
0.000391053
0.000364214
0.000364213
0.000362093
0.000357387
0.000326305
0.000355266
0.000355266
0.000328425
0.000328425
0.000357387
0.000326305
0.000355265
0.000355266
0.000328425
0.000328425
0.000355267
0.000328425
0.000328426
0.000357387
0.000326305
0.000355266
0.000328425
0.000328426
0.000326305
0.000321599
0.000290516
0.000319478
0.000319478
0.000292637
0.000292636
0.0003216
0.000290516
0.000319477
0.000319478
0.000292637
0.000292636
0.000319479
0.000292636
0.000292637
0.0003216
0.000290516
0.000319479
0.000292636
0.000292637
0.000290516
0.00028581
0.000254725
0.000283688
0.000283688
0.000256847
0.000256847
0.000285811
0.000254725
0.000283688
0.000283688
0.000256847
0.000256847
0.00028369
0.000256847
0.000256847
0.000285811
0.000254725
0.000283689
0.000256847
0.000256846
0.000254725
0.00025002
0.000218932
0.000247897
0.000247897
0.000221056
0.000221056
0.00025002
0.000218932
0.000247897
0.000247897
0.000221056
0.000221056
0.000247898
0.000221056
0.000221055
0.00025002
0.000218932
0.000247898
0.000221056
0.000221055
0.000218932
0.000214228
0.000183136
0.000212105
0.000212104
0.000185262
0.000185262
0.000214228
0.000183136
0.000212105
0.000212104
0.000185261
0.000185261
0.000212105
0.000185262
0.000185261
0.000214227
0.000183136
0.000212104
0.000185261
0.000185261
0.000183135
0.000178432
0.000147332
0.000176309
0.000176309
0.000149462
0.000149462
0.000178432
0.000147332
0.000176309
0.000176308
0.000149461
0.000149462
0.000176308
0.000149462
0.000149462
0.000178432
0.000147332
0.000176308
0.000149462
0.000149462
0.000147332
0.000142632
0.000111514
0.000140507
0.000140507
0.000113651
0.000113651
0.000142631
0.000111514
0.000140507
0.000140506
0.000113651
0.000113652
0.000140506
0.000113651
0.000113651
0.000142631
0.000111514
0.000140506
0.000113651
0.000113651
0.000111513
0.00010682
7.56707e-05
0.000104691
0.000104691
7.78228e-05
7.78231e-05
0.00010682
7.5671e-05
0.000104691
0.000104691
7.78227e-05
7.78226e-05
0.000104691
7.7823e-05
7.78227e-05
0.00010682
7.56706e-05
0.000104691
7.78227e-05
7.78226e-05
7.56703e-05
7.09984e-05
3.99355e-05
6.88645e-05