/*--------------------------------*- C++ -*----------------------------------*\
| =========                 |                                                 |
| \\      /  F ield         | OpenFOAM: The Open Source CFD Toolbox           |
|  \\    /   O peration     | Version:  2312                                  |
|   \\  /    A nd           | Website:  www.openfoam.com                      |
|    \\/     M anipulation  |                                                 |
\*---------------------------------------------------------------------------*/
FoamFile
{
    version     2.0;
    format      ascii;
    arch        "LSB;label=32;scalar=64";
    class       surfaceScalarField;
    location    "125";
    object      phi;
}
// * * * * * * * * * * * * * * * * * * * * * * * * * * * * * * * * * * * * * //

dimensions      [0 3 -1 0 0 0 0];

oriented        oriented;

internalField   nonuniform List<scalar> 
125280
(
4.89008e-09
-6.99608e-10
-0.00116454
-5.32342e-09
-5.31105e-09
0.00116454
-0.00114465
-1.29243e-06
6.83265e-09
-2.76954e-08
0.00114468
-2.88547e-07
1.29422e-06
2.81475e-07
9.432e-07
-2.72423e-07
-9.45679e-07
2.62505e-07
-0.00114456
-1.28703e-06
-5.42173e-09
1.71618e-08
0.00114456
-2.85846e-07
1.2913e-06
2.81412e-07
9.43343e-07
-2.72323e-07
-9.42849e-07
2.62587e-07
-0.000275648
1.31906e-06
1.28167e-06
-2.68844e-07
-2.71551e-07
0.000273588
-1.33739e-06
-1.29428e-06
0.000275721
-0.000273644
2.73313e-07
2.81354e-07
0.00114415
-4.80422e-09
-0.00114415
1.76541e-08
-1.33026e-06
2.8386e-07
-2.91562e-07
-9.45901e-07
2.59627e-07
-2.69794e-07
9.46052e-07
1.33489e-06
0.00114422
1.73999e-07
-0.00114438
-4.07497e-09
-1.32517e-06
2.86675e-07
-2.88911e-07
-9.51227e-07
2.56864e-07
-2.72578e-07
9.4579e-07
-1.27208e-06
0.0002757
-0.000273642
2.68412e-07
2.81141e-07
0.00114515
-5.37955e-09
-0.00114515
1.17177e-08
-1.28725e-06
2.81317e-07
-2.86031e-07
-9.48355e-07
2.62683e-07
-2.72372e-07
9.48861e-07
1.32909e-06
0.00114409
1.1804e-09
-0.00114409
6.83025e-09
-1.32217e-06
2.86638e-07
-2.91621e-07
-9.48459e-07
2.59612e-07
-2.72515e-07
9.4859e-07
5.03717e-08
-1.62218e-07
-1.35275e-06
2.78652e-07
-2.94256e-07
-9.48598e-07
2.5978e-07
9.40565e-07
-2.75119e-07
-0.00114441
1.32901e-06
0.00114371
1.82498e-08
1.23468e-08
-1.31617e-06
2.86803e-07
-2.88633e-07
-9.45735e-07
2.59538e-07
-2.72466e-07
9.40215e-07
-0.00114373
-1.29406e-06
0.000275681
-0.000273615
2.76181e-07
2.8108e-07
-5.28574e-09
-0.00114457
2.82268e-08
-1.28692e-06
2.81348e-07
-2.85899e-07
-9.42859e-07
2.62564e-07
9.43341e-07
-2.72347e-07
1.28581e-06
0.00114468
-4.29913e-09
-0.00114464
-2.17279e-08
-1.28707e-06
2.8134e-07
-2.88695e-07
-9.45489e-07
2.62491e-07
-2.72402e-07
9.45877e-07
-0.000273588
2.73233e-07
2.81418e-07
1.33036e-06
1.28734e-06
-2.66307e-07
-2.74203e-07
0.000273644
1.20927e-08
0.00114415
-2.88718e-07
1.33738e-06
2.83926e-07
9.46022e-07
-2.69749e-07
-9.45821e-07
2.59648e-07
-1.32761e-06
7.46314e-09
1.22355e-08
0.00114421
-2.91538e-07
1.33477e-06
2.86801e-07
9.48488e-07
-2.72577e-07
-9.48428e-07
2.62255e-07
-2.74249e-07
-2.71429e-07
0.000273625
1.16081e-08
0.00114515
-2.85984e-07
1.29428e-06
2.81372e-07
9.48874e-07
-2.72363e-07
-9.48303e-07
2.62685e-07
-1.3223e-06
1.12594e-09
1.21964e-08
0.00114409
-2.91564e-07
1.32906e-06
2.86687e-07
9.48597e-07
-2.69788e-07
-9.48427e-07
2.59626e-07
-4.16526e-09
1.21963e-08
0.00114371
-2.88572e-07
1.32624e-06
2.83988e-07
9.40153e-07
-2.69778e-07
2.56791e-07
-9.40218e-07
-2.69162e-07
-2.74103e-07
0.000273615
-4.69016e-09
-4.68819e-09
0.0011447
-2.8592e-07
1.28862e-06
2.81312e-07
9.458e-07
-2.72395e-07
2.62481e-07
-9.45443e-07
6.47913e-09
-3.2184e-08
0.000194403
-1.2426e-09
-0.000194376
6.47676e-09
-3.23108e-08
0.000194384
-0.000194357
-0.00116454
-1.53669e-10
-5.3065e-09
0.00116421
-0.00116372
-8.45843e-08
-1.80094e-07
0.00116411
-0.00116412
-1.64611e-08
1.78255e-08
0.00116405
-0.00116398
-2.81709e-08
-2.8072e-08
-9.17624e-11
-5.42615e-08
0.00023258
-0.000232546
1.92497e-08
9.35265e-10
-0.000194402
-4.3301e-09
3.70643e-08
-5.64942e-09
0.000194375
-0.00023258
8.93354e-11
5.19303e-08
0.000232546
-1.82849e-08
5.46351e-10
6.43232e-09
-3.21927e-08
0.000194402
-1.19313e-09
-0.000194375
-9.79004e-05
4.3472e-09
1.55457e-08
9.78805e-05
-6.40079e-09
-1.34172e-08
9.79003e-05
-9.78805e-05
-5.42656e-08
-1.35424e-10
0.000232567
-0.000232533
1.08456e-09
1.92552e-08
-0.000194384
-4.32327e-09
3.69822e-08
-5.56469e-09
0.000194357
-0.000232567
5.19388e-08
2.30633e-10
0.000232533
2.45367e-10
-1.82889e-08
6.4359e-09
-3.2306e-08
0.000194384
-1.08799e-09
-0.000194357
-1.7074e-08
-5.0321e-08
0.00116429
-5.46291e-09
5.98953e-09
0.00116411
-1.12184e-08
-2.22545e-08
0.00116407
5.41515e-08
-1.73988e-09
0.000256155
-0.000255983
8.29159e-10
-2.26002e-07
-0.000248873
-1.60073e-08
-3.69903e-08
1.37296e-07
6.15297e-09
0.000248783
0.0011524
-0.00115244
-1.28129e-08
2.30748e-08
1.03857e-06
-8.5511e-07
-1.03744e-06
8.56284e-07
6.24436e-09
1.2971e-06
0.00114469
-4.67496e-09
-9.42947e-07
2.62472e-07
-2.72416e-07
9.43149e-07
-1.28967e-06
2.81415e-07
-2.85795e-07
-0.000256159
-5.18457e-08
1.04381e-09
0.000255986
7.04452e-10
2.23049e-07
1.73427e-08
3.22603e-08
0.000248873
-1.08599e-08
-0.000248783
-1.29008e-07
-9.62881e-09
0.00115241
6.31266e-09
-1.03462e-06
8.53493e-07
-8.55079e-07
1.03578e-06
-9.7894e-05
4.31993e-09
1.3416e-08
9.78763e-05
-6.45892e-09
-1.11966e-08
9.78938e-05
-9.78762e-05
-7.19353e-10
5.41299e-08
0.000256145
-0.000255973
-2.25967e-07
6.55285e-10
0.00115224
-0.00115224
1.31802e-08
6.2673e-09
1.03856e-06
-8.5797e-07
-1.03471e-06
8.56232e-07
-0.000248863
-1.59406e-08
-3.69989e-08
1.34861e-07
6.13342e-09
0.000248775
1.17201e-08
1.29145e-06
0.00114456
-5.47277e-09
-9.42892e-07
2.6258e-07
-2.7232e-07
9.43283e-07
-1.28417e-06
2.81396e-07
-2.85827e-07
-0.000256145
1.20611e-09
-5.18905e-08
0.000255973
2.23083e-07
-8.50424e-11
-1.02428e-10
0.00115224
6.4816e-09
-1.03471e-06
8.5623e-07
-8.55168e-07
1.03854e-06
1.72843e-08
3.22764e-08
0.000248863
-1.08712e-08
-0.000248775
-1.266e-07
-0.000280362
1.60554e-08
-1.34091e-08
3.66122e-08
-8.35534e-09
0.000280331
-0.000280283
1.60023e-08
-1.33915e-08
3.65705e-08
-8.83312e-09
0.000280252
-1.32633e-06
-1.28874e-06
0.000275648
-0.000273588
2.75931e-07
2.78832e-07
-1.73025e-08
1.12355e-08
0.000280362
8.87806e-09
-0.000280329
-3.58528e-08
-1.73443e-08
1.12216e-08
0.000280282
9.49046e-09
-0.000280252
-3.35647e-08
-1.11638e-08
9.7922e-05
-9.79044e-05
-1.11826e-08
9.79105e-05
-9.78928e-05
0.000275721
-1.33757e-06
-1.29729e-06
-0.000273641
2.73413e-07
2.81462e-07
0.000280413
-1.72492e-08
1.14091e-08
-0.000280382
-3.58133e-08
0.000280343
-1.4931e-08
9.01135e-09
-0.000280312
-3.5841e-08
-1.11501e-08
-6.47954e-09
9.79218e-05
-9.79042e-05
1.33982e-08
4.31959e-09
9.79043e-05
-1.11543e-08
-6.49729e-09
9.79103e-05
-9.78927e-05
1.33933e-08
4.34621e-09
9.78928e-05
1.33013e-06
1.28988e-06
0.000273641
-2.66226e-07
-2.74101e-07
-1.7302e-08
0.000280412
-3.57078e-08
-0.000280382
1.14344e-08
-1.49845e-08
0.000280342
-3.57371e-08
-0.000280312
9.01311e-09
1.6048e-08
-1.09082e-08
3.88822e-08
0.000280382
1.36256e-08
-8.26125e-09
3.87461e-08
0.000280312
0.00114415
-4.89344e-09
-1.3302e-06
2.83896e-07
-2.88778e-07
-9.45898e-07
2.62358e-07
-2.72486e-07
9.45998e-07
1.76784e-08
0.000248877
-1.08628e-08
-0.000248786
-1.28899e-07
3.69433e-11
5.18918e-08
-1.82737e-08
3.62084e-10
0.000232546
-0.00023258
-3.21737e-08
-0.000194375
-1.23657e-09
3.70624e-08
-5.65212e-09
0.000194376
-9.1065e-11
-5.42398e-08
-0.000232546
1.9241e-08
9.4166e-10
5.18768e-08
-1.82657e-08
3.0587e-10
0.000232505
-0.000232539
-3.4376e-08
6.45651e-09
0.000194339
-0.00019431
-1.14953e-09
3.92086e-08
-4.3434e-09
-5.64587e-09
0.00019431
-0.000194339
-5.42603e-08
0.000232539
-0.000232505
1.92501e-08
1.11214e-09
8.2221e-10
7.66217e-10
2.22983e-07
0.000255999
-0.000256171
6.75823e-09
-4.89374e-09
1.33754e-06
-2.88779e-07
2.86614e-07
9.4595e-07
-2.69778e-07
2.59633e-07
-9.45989e-07
0.000248876
-1.28866e-07
-0.000248786
-1.08908e-08
-0.00115269
1.04355e-09
0.0011527
6.54595e-09
-1.03758e-06
8.5919e-07
-8.57955e-07
1.04165e-06
6.12945e-09
1.374e-07
0.000248786
2.59777e-10
9.17872e-10
1.04163e-06
-8.57918e-07
-1.0376e-06
8.59234e-07
-0.00115269
-8.61816e-10
0.000256171
-0.000255998
-6.8158e-11
-2.2605e-07
-5.05855e-10
2.22959e-07
0.000255973
-0.000256143
2.88648e-08
-1.3331e-06
-1.92647e-07
9.51359e-07
-2.67135e-07
-9.45674e-07
2.62326e-07
1.33812e-06
-2.94306e-07
2.86794e-07
-0.00114421
1.72428e-08
0.000248768
-1.28828e-07
-0.000248678
-1.33099e-08
-0.00115266
0.00115263
2.868e-08
-1.04567e-06
8.59223e-07
-8.60686e-07
1.04426e-06
-1.60017e-08
8.55064e-09
1.37295e-07
0.000248678
-0.000248768
-2.82922e-08
1.04987e-06
-8.57873e-07
-1.04007e-06
8.6205e-07
-0.00115262
0.000256142
-0.000255973
1.5455e-09
-2.26081e-07
-1.33583e-08
-9.78806e-05
1.55518e-08
9.78807e-05
-9.79006e-05
0.000273642
-2.58527e-07
-0.000275704
1.26452e-06
-2.76358e-07
0.00028028
-3.33705e-08
-0.000280252
9.39924e-09
1.11909e-08
-1.74048e-08
0.000280425
-3.34932e-08
-0.000280395
9.48587e-09
3.64618e-08
0.000280253
-0.000280281
-8.90433e-09
-6.46814e-09
9.79169e-05
-9.78992e-05
0.00114515
-5.55284e-09
-1.28995e-06
2.81355e-07
-2.85978e-07
2.62718e-07
-2.72345e-07
0.000248841
-0.000248748
-1.26682e-07
5.18912e-08
2.26595e-10
2.91605e-10
-1.82687e-08
0.000232533
-3.23039e-08
-0.000194357
-1.13697e-09
3.69843e-08
-5.52612e-09
0.000194357
-5.42474e-08
-1.32846e-10
-0.000232533
1.09049e-09
1.92474e-08
1.77423e-09
-5.79592e-11
2.23003e-07
0.00025599
1.17249e-08
-5.52268e-09
1.29724e-06
-2.86016e-07
2.81303e-07
9.4881e-07
-2.72364e-07
2.62689e-07
-9.48393e-07
0.00024884
-1.26651e-07
-0.000248748
-1.33765e-08
-0.00115253
-4.24949e-09
0.00115254
6.34147e-09
-1.04022e-06
8.59139e-07
-8.57923e-07
1.04418e-06
8.65491e-09
1.34822e-07
0.000248748
3.36604e-09
1.17733e-08
1.04419e-06
-8.57914e-07
-1.04023e-06
8.59177e-07
-1.72173e-09
0.000256163
-0.00025599
8.36943e-10
-2.26044e-07
5.19051e-08
-1.82762e-08
3.79952e-10
0.000232492
-3.21796e-08
6.50322e-09
0.000194326
-0.000194299
-1.2541e-09
3.70592e-08
-4.31318e-09
-5.67189e-09
0.000194299
-5.42344e-08
0.000232526
-0.000232492
1.92382e-08
1.17224e-09
2.23039e-07
-2.48466e-10
0.000255963
1.227e-08
-1.32204e-06
1.12393e-09
9.48559e-07
-2.72511e-07
-9.48494e-07
2.62354e-07
1.32929e-06
-2.91621e-07
2.86659e-07
-0.00115248
0.00115247
1.19006e-08
-1.04015e-06
8.59133e-07
-8.5798e-07
1.04425e-06
1.74196e-08
0.000248753
-1.24005e-07
-0.000248667
-1.09667e-08
1.73951e-08
1.04428e-06
-8.57973e-07
-1.04014e-06
8.59169e-07
-1.6106e-08
6.12459e-09
1.34947e-07
0.000248667
0.000256132
-0.000255963
-2.26021e-07
1.0936e-09
3.22504e-08
-1.26588e-07
-0.000248785
-1.09146e-08
-3.99655e-08
7.40001e-08
-1.04313e-06
8.56311e-07
1.03862e-06
-8.607e-07
-0.00115263
5.41344e-08
-2.06262e-09
-0.000255986
1.27956e-09
-2.25962e-07
0.000194387
-0.00019436
-1.14656e-09
-2.3372e-10
0.000232562
-0.000232529
1.05761e-09
2.1227e-08
0.00115235
2.85488e-08
-1.03728e-06
8.53553e-07
-8.57855e-07
1.03587e-06
-0.0011524
3.21812e-08
1.74315e-08
0.000248793
-1.24024e-07
-0.000248707
-1.09485e-08
5.41961e-08
0.000256128
-0.000255957
-2.28609e-07
8.70825e-10
6.47907e-09
0.00019433
-0.000194303
-1.2165e-09
0.000232523
-0.000232489
1.92024e-08
9.56905e-10
-1.11453e-08
-9.78764e-05
1.34048e-08
9.78764e-05
1.28959e-06
0.000273615
-2.69075e-07
-2.74021e-07
0.000280279
-3.10682e-08
-0.000280251
9.43296e-09
1.11298e-08
-1.73511e-08
0.000280417
-3.33987e-08
-0.000280387
9.40776e-09
-8.89679e-09
3.42564e-08
0.000280251
-1.33897e-08
1.35692e-08
-8.74804e-09
3.64503e-08
0.00028039
-6.49354e-09
9.79168e-05
-9.78991e-05
4.30126e-09
9.78992e-05
1.64774e-09
-5.18414e-08
2.23024e-07
-5.12271e-11
0.000255974
1.7232e-08
-5.36823e-09
1.29423e-06
-2.88707e-07
2.81318e-07
9.43291e-07
-2.72355e-07
-9.4298e-07
2.6256e-07
-0.00115225
2.20601e-08
6.15097e-09
-1.03465e-06
8.56262e-07
1.03859e-06
-8.52314e-07
3.22589e-08
-1.26586e-07
-0.000248775
-1.09072e-08
5.77997e-08
1.15027e-08
1.0386e-06
-8.55086e-07
-1.03467e-06
8.53509e-07
-3.69999e-08
6.16583e-09
1.34867e-07
0.000248773
-3.01642e-10
5.41067e-08
-0.000255973
-2.2595e-07
1.4552e-10
-5.17783e-08
2.23037e-07
1.79601e-10
0.000255948
-1.89986e-07
-1.36372e-06
1.70178e-08
9.43036e-07
-2.72413e-07
-9.45608e-07
2.62548e-07
1.25818e-06
-3.02655e-07
2.78498e-07
-0.00115218
0.00115216
1.17228e-08
-1.03725e-06
8.56171e-07
-8.52337e-07
1.04109e-06
3.22617e-08
1.74227e-08
0.000248756
-1.26592e-07
-0.000248669
-1.09313e-08
5.12772e-08
1.0383e-06
-8.5515e-07
-1.03739e-06
8.53393e-07
-3.69937e-08
-1.6039e-08
6.20003e-09
1.34816e-07
0.000248669
5.40322e-08
0.000256117
-0.000255948
-2.25889e-07
2.49095e-09
2.43378e-10
2.93079e-10
-2.0299e-08
0.000232522
0.000194383
-0.000194356
-1.17349e-09
-5.6137e-09
0.000194356
5.01845e-11
0.000232554
-0.000232521
7.25641e-10
2.12034e-08
5.06215e-10
-2.23324e-08
0.000232483
6.48061e-09
0.000194322
-0.000194295
-1.15297e-09
-4.34847e-09
-5.54686e-09
0.000194295
0.000232512
-0.000232483
1.33138e-09
2.32373e-08
0.000273602
-2.74249e-07
1.31942e-06
-2.81785e-07
1.1196e-08
-3.34424e-08
-0.000280331
8.93859e-09
1.11685e-08
-3.34298e-08
-0.000280252
9.51177e-09
-1.33846e-08
3.64687e-08
0.000280253
-8.81644e-09
9.78965e-05
-9.78788e-05
9.78923e-05
-9.78746e-05
9.78747e-05
1.3386e-08
9.79041e-05
-1.11979e-08
9.79217e-05
-9.7904e-05
1.34115e-08
9.78926e-05
-1.1217e-08
9.79102e-05
-9.78925e-05
1.60007e-08
3.89643e-08
-1.08897e-08
0.000280382
1.35621e-08
3.88436e-08
-8.26679e-09
0.000280312
0.000275721
-1.33753e-06
-1.29443e-06
-0.000273644
2.7339e-07
2.81445e-07
0.000280412
-1.72273e-08
1.13793e-08
-0.000280381
-3.58089e-08
0.000280342
-1.49188e-08
8.98469e-09
-0.000280311
-3.58303e-08
1.33397e-08
4.36739e-09
9.7904e-05
1.3339e-08
4.39124e-09
9.78924e-05
1.33011e-06
1.28709e-06
0.000273644
-2.66204e-07
-2.74059e-07
1.60718e-08
-1.09455e-08
3.88425e-08
0.000280381
1.36504e-08
-8.28551e-09
3.87223e-08
0.000280311
-5.42865e-08
0.000232539
-0.000232505
1.92602e-08
1.12328e-09
3.92134e-08
-5.65465e-09
0.000194309
5.19107e-08
0.000232505
-1.82733e-08
2.83057e-10
-3.43593e-08
0.000194338
-1.11073e-09
-0.000194309
-8.81583e-10
0.000256171
-0.000255998
-5.45239e-11
-2.26068e-07
1.3742e-07
6.10362e-09
0.000248786
0.00115269
7.08423e-09
6.59452e-09
1.0416e-06
-8.57995e-07
-1.03763e-06
8.59158e-07
1.76107e-08
0.00114414
-4.8805e-09
-1.33027e-06
2.83911e-07
-2.88701e-07
-9.45856e-07
2.59635e-07
-2.69756e-07
9.45965e-07
9.56123e-10
0.000255998
7.36321e-10
2.23045e-07
0.000248876
-1.08455e-08
-0.000248786
-1.28876e-07
-1.96078e-09
0.0011527
6.68459e-09
-1.03763e-06
8.59169e-07
-8.57993e-07
1.04159e-06
0.000256142
-0.000255973
1.56793e-09
-2.26106e-07
-1.59465e-08
1.37328e-07
6.066e-09
0.00024868
0.00115263
1.18118e-08
1.04425e-06
-8.57898e-07
-1.04006e-06
8.59205e-07
6.80051e-09
0.00114421
1.33487e-06
-3.99232e-09
-9.51236e-07
2.62223e-07
9.51133e-07
-2.72588e-07
-1.32484e-06
2.86726e-07
-2.88764e-07
0.000255973
-5.31078e-10
2.23009e-07
0.000248768
1.71782e-08
-1.08213e-08
-0.00024868
-1.28791e-07
0.00115263
6.32814e-09
-1.04285e-06
8.59224e-07
-8.57879e-07
1.04703e-06
7.39976e-11
5.18922e-08
-1.82669e-08
5.5317e-10
0.000232546
3.70327e-08
-5.59813e-09
0.000194375
5.187e-08
-1.82554e-08
3.02101e-10
0.000232505
3.92176e-08
-4.40665e-09
-5.60224e-09
0.000194309
8.7579e-10
1.00819e-09
2.22991e-07
0.000255998
1.21152e-08
-5.05551e-09
1.33764e-06
-2.88721e-07
2.83877e-07
9.45959e-07
-2.6974e-07
2.59655e-07
-9.45887e-07
0.00114414
6.14488e-09
1.3738e-07
0.000248786
4.47809e-09
6.56298e-09
1.0416e-06
-8.57963e-07
-1.03763e-06
8.59187e-07
0.00115269
-7.42635e-10
2.22946e-07
0.000255972
1.21121e-08
-1.32752e-06
-4.64902e-09
9.51161e-07
-2.72558e-07
-9.51256e-07
2.62275e-07
1.33495e-06
-2.91563e-07
2.8668e-07
0.00114421
-1.60244e-08
6.09864e-09
1.3735e-07
0.00024868
6.21329e-09
1.04705e-06
-8.57852e-07
-1.04284e-06
8.59239e-07
0.00115263
3.6522e-08
-8.899e-09
0.000280252
-1.34052e-08
3.65834e-08
-8.80039e-09
0.000280395
0.000275705
-0.000273628
2.76322e-07
2.78627e-07
0.00028028
9.35487e-09
-0.000280252
-3.34659e-08
1.12468e-08
0.000280428
8.92869e-09
-0.000280395
-3.58915e-08
4.35958e-09
9.78991e-05
9.79167e-05
-6.41238e-09
-9.7899e-05
1.54875e-08
9.78804e-05
1.28954e-06
0.000273628
-2.68891e-07
-2.71295e-07
-8.93991e-09
3.64069e-08
0.000280252
-1.33301e-08
1.60807e-08
-8.33457e-09
3.87739e-08
0.000280394
4.41496e-09
9.78989e-05
-1.72579e-09
0.000256163
-0.00025599
8.46698e-10
-2.26053e-07
1.34841e-07
8.60762e-09
0.000248747
0.00115253
3.07968e-09
1.18998e-08
1.04417e-06
-8.5796e-07
-1.04024e-06
8.59111e-07
1.16337e-08
0.00114515
-5.35374e-09
-1.28724e-06
2.81359e-07
-2.85971e-07
-9.48344e-07
2.62668e-07
-2.72381e-07
9.48812e-07
1.75737e-09
0.00025599
-7.08604e-11
2.23054e-07
0.00024884
-1.33354e-08
-0.000248747
-1.26632e-07
-4.18846e-09
0.00115253
1.19819e-08
-1.04023e-06
8.5913e-07
-8.57954e-07
1.04417e-06
-5.42562e-08
0.000232526
-0.000232492
1.92469e-08
1.16376e-09
3.70687e-08
-5.66538e-09
0.000194298
5.19497e-08
0.000232492
-1.82941e-08
3.48221e-10
-3.2196e-08
0.000194325
-1.21052e-09
-0.000194298
0.000256132
-0.000255963
-2.26035e-07
1.10714e-09
0.00115247
6.36523e-09
1.04424e-06
-8.58015e-07
-1.04016e-06
8.59104e-07
-1.60696e-08
1.32563e-07
6.13119e-09
0.000248667
1.22637e-08
0.00114409
1.32922e-06
-4.8971e-09
-9.48461e-07
2.59628e-07
9.48556e-07
-2.69789e-07
-1.32218e-06
2.86672e-07
-2.91557e-07
0.000255963
2.2309e-07
-2.72474e-10
0.00115246
1.20423e-08
-1.04016e-06
8.59122e-07
-8.58008e-07
1.04423e-06
0.000248752
1.73464e-08
-1.09261e-08
-0.000248667
-1.24023e-07
5.18985e-08
2.25663e-10
2.56345e-10
-1.82661e-08
0.000232532
3.6971e-08
-5.5015e-09
0.000194357
1.7616e-09
-4.20555e-11
2.25615e-07
0.000255987
1.15798e-08
-5.51342e-09
1.29453e-06
-2.85986e-07
2.81338e-07
9.48806e-07
-2.72364e-07
2.62697e-07
-9.48378e-07
0.00114515
8.65986e-09
1.34839e-07
0.000248747
3.24414e-09
6.35135e-09
1.04417e-06
-8.57922e-07
-1.04023e-06
8.59145e-07
0.00115252
5.19103e-08
-1.82714e-08
3.47976e-10
0.000232492
3.70426e-08
-4.36133e-09
-5.61593e-09
0.000194298
2.25649e-07
-2.40481e-10
0.00025596
1.22424e-08
-1.32202e-06
-5.05585e-09
9.48589e-07
-2.69761e-07
-9.48469e-07
2.59668e-07
1.32933e-06
-2.91574e-07
2.86651e-07
0.00114409
6.43693e-09
1.04425e-06
-8.5798e-07
-1.04015e-06
8.59133e-07
0.00115247
-1.61403e-08
6.17231e-09
1.32532e-07
0.000248667
-1.46349e-10
0.000232561
-0.000232529
1.0682e-09
2.1242e-08
-5.54832e-09
0.00019436
6.38716e-12
0.000232529
5.06093e-10
-2.03018e-08
0.000194387
-1.088e-09
-0.00019436
5.42163e-08
0.000256125
-0.000255956
-2.26014e-07
9.00829e-10
0.00115233
1.18211e-08
1.03584e-06
-8.52281e-07
8.53511e-07
-1.03173e-06
-3.70591e-08
1.3497e-07
6.10442e-09
0.000248705
1.76481e-08
0.0011437
1.24818e-09
-1.31898e-06
2.83922e-07
-2.88599e-07
-9.40258e-07
2.5681e-07
-2.67054e-07
9.40125e-07
-5.19145e-08
0.000255956
2.25658e-07
-7.46569e-10
0.00115232
1.19953e-08
-1.03454e-06
8.56301e-07
-8.55103e-07
1.03858e-06
3.21799e-08
0.000248792
-1.08844e-08
-0.000248702
-1.28837e-07
0.000232523
-0.000232489
1.92193e-08
9.58166e-10
-4.35065e-09
-5.62878e-09
0.000194303
0.000232489
-1.82779e-08
3.23279e-10
0.00019433
6.42606e-09
-1.17382e-09
-0.000194303
-5.18172e-08
1.53327e-09
2.12085e-10
2.22969e-07
0.000255983
6.09692e-09
-5.32093e-09
1.29717e-06
-2.85831e-07
2.81366e-07
9.43204e-07
-2.72386e-07
-9.43003e-07
2.62505e-07
0.0011447
-3.69637e-08
6.17662e-09
1.37268e-07
0.000248783
1.44246e-09
6.24283e-09
1.03856e-06
-8.52254e-07
-1.03186e-06
8.56311e-07
0.0011524
1.29446e-10
5.16392e-10
-2.0279e-08
0.000232529
-5.46748e-09
0.00019436
-5.18928e-08
2.23015e-07
-2.32354e-10
0.000255955
1.21024e-08
-1.31892e-06
-1.12255e-08
9.40216e-07
-2.66993e-07
-9.40226e-07
2.56901e-07
1.32634e-06
-2.88632e-07
2.83912e-07
0.00114371
9.58629e-10
1.03858e-06
-8.55106e-07
-1.03455e-06
8.56286e-07
0.00115233
-3.7038e-08
-1.61092e-08
6.15017e-09
1.37369e-07
0.000248702
-1.82617e-08
3.27131e-10
0.000232489
-4.39226e-09
-5.57468e-09
0.000194303
3.43542e-08
-8.9109e-09
0.000280251
-1.34019e-08
3.66061e-08
-1.13486e-08
0.00028039
0.000275678
-0.000273615
2.76271e-07
2.81158e-07
0.000280279
9.38991e-09
-0.000280251
-3.11858e-08
1.11846e-08
0.000280417
1.19879e-08
-0.000280389
-3.35361e-08
4.30147e-09
9.78991e-05
9.79166e-05
-6.44551e-09
-9.7899e-05
1.33582e-08
9.78761e-05
1.28402e-06
0.000273615
-2.69034e-07
-2.73983e-07
-8.94198e-09
3.42174e-08
0.000280251
-1.33467e-08
1.60146e-08
-1.13777e-08
3.64824e-08
0.000280389
4.34782e-09
9.78989e-05
5.40656e-08
0.000256117
-0.000255948
-2.25951e-07
2.03076e-09
0.00115216
6.11222e-09
1.04108e-06
-8.57954e-07
8.5618e-07
-1.03722e-06
-3.70058e-08
1.34837e-07
6.17342e-09
0.000248668
1.17902e-08
0.0011447
-5.07024e-09
-1.28154e-06
2.81273e-07
-2.85936e-07
-9.45433e-07
2.625e-07
-2.72383e-07
9.45773e-07
-5.18326e-08
0.000255948
2.23082e-07
-8.11574e-10
0.00115216
6.21084e-09
-1.03717e-06
8.56225e-07
-8.55104e-07
1.04109e-06
3.22763e-08
0.000248756
-1.08946e-08
-0.000248668
-1.26573e-07
-8.79003e-11
0.000232553
-0.000232522
1.17804e-09
2.12238e-08
-5.60896e-09
0.000194356
2.20587e-10
0.000232522
2.55459e-10
-2.03213e-08
0.000194383
-1.11961e-09
-0.000194356
0.000232512
-0.000232483
1.34392e-09
2.3261e-08
-4.34954e-09
-5.55429e-09
0.000194294
0.000232483
2.46509e-10
-2.23581e-08
0.000194321
6.43797e-09
-1.12003e-09
-0.000194294
8.346e-10
-5.18588e-08
2.23034e-07
2.04293e-10
0.000255973
1.16433e-08
-5.65185e-09
1.29153e-06
-2.85848e-07
2.81362e-07
9.43307e-07
-2.72301e-07
-9.42909e-07
2.62606e-07
0.00114456
4.93415e-09
6.4327e-09
1.03855e-06
-8.55153e-07
-1.03471e-06
8.56235e-07
0.00115224
-3.69758e-08
6.17537e-09
1.34833e-07
0.000248775
-5.17894e-08
2.22995e-07
-1.2652e-09
0.000255948
1.16795e-08
-1.28145e-06
-5.4463e-09
9.45799e-07
-2.72328e-07
-9.45401e-07
2.62598e-07
1.28877e-06
-2.8595e-07
2.81268e-07
0.0011447
6.14971e-09
1.04112e-06
-8.55064e-07
-1.03714e-06
8.56248e-07
0.00115216
-3.69838e-08
-1.60713e-08
6.2016e-09
1.34826e-07
0.000248668
1.08903e-10
2.67351e-10
-2.03011e-08
0.000232521
-5.55669e-09
0.000194356
2.89696e-11
-2.23311e-08
0.000232483
-4.37924e-09
-5.51483e-09
0.000194294
9.78787e-05
9.78963e-05
-9.78786e-05
9.78745e-05
9.78921e-05
-9.78745e-05
0.000273588
-2.68759e-07
-2.7152e-07
-1.33417e-08
-8.40174e-09
3.88234e-08
0.000280329
-1.33504e-08
-8.85078e-09
3.64563e-08
0.000280252
9.78786e-05
9.78744e-05
1.90206e-08
7.92083e-05
-1.46454e-09
-0.00026492
1.65834e-08
0.000264955
-4.96045e-08
-3.33441e-09
-5.66609e-09
-4.30983e-09
3.70489e-08
4.91982e-08
-6.68613e-10
7.92257e-05
-9.09937e-10
-4.3147e-09
3.69711e-08
-1.48054e-09
1.80952e-08
0.000143656
-0.000143674
1.43057e-09
-1.82769e-08
3.17058e-10
-0.00023258
-6.54304e-11
5.19136e-08
-0.000171569
-3.80263e-10
-2.4362e-11
0.000171589
-0.000225869
1.9222e-08
3.2845e-09
0.000225905
-5.7019e-08
-0.000171589
-2.04361e-11
-0.000225905
6.2321e-10
5.35396e-08
8.75114e-10
0.000143674
-7.92081e-05
-1.6628e-08
-8.74432e-10
7.92256e-05
-1.89805e-08
0.00026492
-6.23519e-10
-0.000264955
4.91847e-08
-1.22006e-09
0.000194402
6.45416e-09
-3.21771e-08
-1.43266e-09
-7.92256e-05
-3.2776e-09
0.000264955
-4.96307e-08
-0.000143656
3.79151e-10
-1.92169e-08
1.92425e-08
1.15027e-09
6.70007e-11
-5.42438e-08
1.48405e-09
0.000171569
-0.000171589
-1.21605e-11
-1.80999e-08
0.000225869
-0.000225905
5.35584e-08
-0.000143674
-1.51463e-11
-5.6995e-08
1.89759e-08
7.9208e-05
-0.00026492
1.66274e-08
0.000264955
-4.96273e-08
-5.627e-09
-4.3572e-09
3.7052e-08
4.91825e-08
7.92255e-05
9.79004e-05
-6.43532e-09
-1.33866e-08
4.37722e-09
1.55243e-08
1.80977e-08
-1.42282e-09
0.000143654
-0.000143672
1.37159e-09
6.0337e-12
-1.82767e-08
-0.000232566
8.01109e-11
5.19239e-08
-0.000225858
1.92253e-08
3.19981e-09
0.000225894
-5.70156e-08
-0.000171565
-4.36393e-10
2.52057e-11
0.000171585
-0.000225894
5.46682e-10
5.35319e-08
-0.000171585
4.49572e-11
8.18823e-10
0.000143672
-7.92094e-05
-1.6693e-08
-8.14077e-10
7.92269e-05
-1.89306e-08
0.000264914
-5.52616e-10
-0.000264949
4.91616e-08
-1.12396e-09
0.000194384
6.47849e-09
-3.23043e-08
-1.3728e-09
-7.9227e-05
-3.19429e-09
0.000264949
-4.96849e-08
-0.000143654
-1.9218e-08
4.40239e-10
1.30069e-09
1.92467e-08
1.53875e-11
-5.42472e-08
-1.81054e-08
0.000225858
-0.000225894
5.35555e-08
1.42402e-09
0.000171565
-0.000171585
5.45864e-11
-0.000143672
-5.69934e-08
3.61549e-11
1.89242e-08
7.92094e-05
-0.000264914
1.66904e-08
0.000264949
-4.96746e-08
-5.53704e-09
-4.35978e-09
3.69812e-08
4.91631e-08
7.92269e-05
9.78939e-05
-6.48525e-09
-1.11661e-08
4.34396e-09
1.3382e-08
-7.32724e-09
-7.41104e-09
0.000215306
-0.000215318
1.35352e-08
1.34799e-08
-8.07847e-05
-6.79903e-09
-6.77811e-09
8.07983e-05
-8.07731e-05
-6.71987e-09
-6.88629e-09
8.07867e-05
-8.07983e-05
6.30221e-09
-8.07868e-05
6.25118e-09
-1.27773e-08
-1.29358e-08
0.000215318
-0.000224565
-2.264e-08
2.29055e-08
1.2766e-08
0.000224599
-4.70321e-08
-2.63938e-08
0.000254894
-0.000254952
8.15897e-08
3.94826e-08
2.30777e-08
0.000183957
-6.29706e-09
-0.000183982
-3.34904e-08
8.90521e-09
0.000280362
1.12198e-08
-1.73852e-08
-1.35423e-08
-0.000224599
4.42712e-08
0.000254949
-7.8714e-08
-3.286e-08
6.78304e-09
0.000183982
-0.000224493
-2.27866e-08
2.09633e-08
1.29222e-08
0.000224532
-4.95141e-08
-2.6348e-08
0.000254777
-0.000254838
8.39446e-08
3.9446e-08
2.11201e-08
0.000183905
-6.25556e-09
-0.000183929
-3.35062e-08
9.50037e-09
0.000280282
1.12049e-08
-1.73885e-08
-1.35012e-08
-0.000224532
4.67241e-08
0.000254838
-8.37542e-08
-3.29331e-08
6.89189e-09
0.000183929
-0.000215306
6.79033e-09
6.71164e-09
7.34146e-09
8.07847e-05
-8.07984e-05
7.41628e-09
8.07732e-05
-8.07868e-05
-0.000215318
2.64052e-08
-2.30381e-08
0.000224563
4.65815e-08
-0.000183957
-2.29321e-08
0.000183982
3.88545e-08
-8.38674e-09
-1.33687e-08
1.60789e-08
-0.000254894
2.26214e-08
0.000254949
-8.13032e-08
-3.28488e-08
8.15422e-08
3.94457e-08
0.000224599
-4.94687e-08
2.63418e-08
-2.10888e-08
0.000224493
4.66735e-08
-0.000183905
-2.0976e-08
0.000183928
3.64839e-08
-8.84374e-09
-1.33564e-08
1.60513e-08
-0.000254777
2.27904e-08
0.000254838
-8.38081e-08
-3.29384e-08
8.38805e-08
3.94122e-08
0.000224532
-4.95383e-08
1.33949e-08
1.34046e-08
-7.31485e-09
-7.39774e-09
0.000215333
1.57148e-08
1.35365e-08
-8.07932e-05
-6.82819e-09
-6.7053e-09
8.08067e-05
-8.07796e-05
-6.71401e-09
-6.87507e-09
8.07932e-05
6.24647e-09
6.22007e-09
-1.49718e-08
-1.30373e-08
0.000215347
-2.32327e-08
0.000224598
2.88212e-08
4.43377e-08
-0.000183973
-2.30908e-08
0.000184001
-1.09067e-08
3.88779e-08
1.60315e-08
2.51017e-08
-0.000254946
0.000254997
-8.12673e-08
-3.02587e-08
0.000224633
-4.71835e-08
8.14541e-08
3.69044e-08
-2.30549e-08
0.000224529
2.62173e-08
4.90779e-08
-0.00018392
-2.28832e-08
0.000183945
-8.26291e-09
3.876e-08
1.36089e-08
2.27969e-08
-0.000254834
0.00025489
-8.3855e-08
-3.03777e-08
0.000224568
-5.18215e-08
8.38096e-08
3.68248e-08
-9.79219e-05
1.34047e-08
4.31511e-09
-1.11518e-08
-6.48145e-09
-9.79104e-05
1.34126e-08
4.327e-09
-1.1174e-08
-6.47666e-09
-0.000215333
6.81646e-09
6.70629e-09
-1.49618e-08
-1.30269e-08
0.000215347
7.32732e-09
8.07932e-05
6.24926e-09
7.40774e-09
8.07796e-05
6.22525e-09
1.5727e-08
1.35581e-08
-6.70439e-09
8.08067e-05
-6.87224e-09
8.07932e-05
-2.32769e-08
2.88469e-08
0.000224598
-0.000224633
-1.57386e-08
4.44111e-08
-0.000254949
2.51004e-08
0.000254997
-7.8578e-08
-3.03202e-08
-1.08885e-08
3.89465e-08
-0.000280412
1.60083e-08
-0.000183973
-2.30564e-08
6.71061e-09
0.000184
-0.000184001
-6.243e-09
-0.000255
7.91069e-08
3.94529e-08
1.49544e-08
0.000224633
-4.70642e-08
-2.30964e-08
2.62383e-08
0.000224529
-0.000224568
-1.35673e-08
4.91493e-08
-0.000254834
2.28097e-08
0.00025489
-8.36966e-08
-3.0428e-08
-8.25538e-09
3.88141e-08
-0.000280342
1.35898e-08
-0.000183919
-2.28507e-08
6.86508e-09
0.000183944
-0.000183944
-6.22776e-09
-0.00025489
8.39264e-08
3.67755e-08
1.30176e-08
0.000224568
-5.17097e-08
-0.000224598
2.30676e-08
-2.50846e-08
-4.71407e-08
2.32567e-08
0.000183973
-2.88452e-08
0.000254949
7.89251e-08
3.69168e-08
1.14215e-08
-3.57652e-08
-1.72656e-08
4.43312e-08
-7.87332e-08
-3.28405e-08
-0.000224529
2.28654e-08
-2.2788e-08
-5.17849e-08
2.30756e-08
0.000183919
-2.62473e-08
0.000254834
8.38115e-08
3.68263e-08
9.01707e-09
-3.58065e-08
-1.4938e-08
4.90776e-08
-8.37976e-08
-3.03891e-08
-7.3371e-09
-7.41033e-09
0.000215333
-8.07931e-05
-6.80822e-09
8.08066e-05
-8.07795e-05
-6.70998e-09
8.07931e-05
0.000215347
-0.000143656
3.61285e-10
-1.92163e-08
8.98902e-10
0.000143674
1.50691e-09
0.000171569
-2.35595e-11
-0.000171589
-1.80959e-08
0.000225869
6.69849e-10
5.35258e-08
-0.000225905
1.92485e-08
1.18844e-09
0.00023258
2.33463e-11
-5.42648e-08
1.46652e-09
-0.000143674
0.000171589
-2.56846e-11
3.32209e-09
0.000225905
-5.70065e-08
7.92081e-05
1.89992e-08
-7.92257e-05
-1.44691e-09
-5.65562e-09
-0.000194403
3.70655e-08
1.66189e-08
-0.00026492
-3.29145e-09
-4.96237e-08
-8.80398e-10
-0.000264955
-6.47175e-10
4.92023e-08
-7.92082e-05
-1.65972e-08
-1.90223e-08
0.00026492
4.92176e-08
-1.23929e-09
-3.21741e-08
-4.96053e-08
0.000143656
-1.49439e-09
1.81032e-08
-1.82816e-08
3.413e-10
-7.65278e-11
5.19193e-08
-3.74027e-10
-0.000171569
-2.83333e-11
1.92131e-08
-0.000225869
-5.70005e-08
-2.69815e-11
5.35488e-08
-0.000143585
4.12263e-10
-1.92295e-08
8.69645e-10
0.000143603
1.45951e-09
0.000171534
-0.000171554
-1.8066e-08
0.000225769
-1.45919e-09
5.09271e-08
-0.0002258
1.92574e-08
1.12719e-09
0.000232539
-5.4284e-08
1.43724e-09
-0.000143603
0.000171554
5.37304e-09
0.0002258
-5.44989e-08
1.89613e-08
7.91657e-05
-7.91832e-05
-1.42334e-09
-5.65385e-09
-0.000194339
-4.33388e-09
3.92064e-08
-0.000264784
1.66269e-08
-5.34683e-09
0.000264819
-4.70322e-08
-0.000264819
1.48101e-09
4.65996e-08
-8.58824e-10
7.91832e-05
-7.91657e-05
-1.66157e-08
-1.8978e-08
0.000264784
4.66007e-08
-0.000264819
-1.14922e-09
6.45477e-09
-3.43786e-08
-7.91833e-05
-4.70351e-08
-1.45271e-09
1.8074e-08
0.000143585
-1.82733e-08
2.90327e-10
5.19015e-08
-0.000171534
-4.16782e-10
0.000171554
-0.000225768
1.92253e-08
0.0002258
-5.44782e-08
5.09421e-08
0.000143603
-9.79005e-05
1.55583e-08
-1.3357e-08
2.64245e-08
-2.13566e-08
0.000224504
-1.81077e-08
4.9221e-08
-0.00022454
-0.000254779
2.51784e-08
0.000254832
-7.87628e-08
-3.27809e-08
3.65235e-08
-8.89164e-09
-0.00028028
1.59611e-08
-0.000183901
-2.11739e-08
8.48185e-09