/*--------------------------------*- C++ -*----------------------------------*\
| =========                 |                                                 |
| \\      /  F ield         | OpenFOAM: The Open Source CFD Toolbox           |
|  \\    /   O peration     | Version:  2312                                  |
|   \\  /    A nd           | Website:  www.openfoam.com                      |
|    \\/     M anipulation  |                                                 |
\*---------------------------------------------------------------------------*/
FoamFile
{
    version     2.0;
    format      ascii;
    arch        "LSB;label=32;scalar=64";
    class       surfaceScalarField;
    location    "125";
    object      phi;
}
// * * * * * * * * * * * * * * * * * * * * * * * * * * * * * * * * * * * * * //

dimensions      [0 3 -1 0 0 0 0];

oriented        oriented;

internalField   nonuniform List<scalar> 
125397
(
-0.000260899
-3.96129e-06
-3.95675e-06
3.15348e-06
3.16137e-06
0.000262502
-0.00026147
-3.7546e-06
3.95647e-06
-4.51671e-06
2.97044e-06
0.000262815
-0.000261463
-3.75972e-06
3.95644e-06
2.97055e-06
-4.51425e-06
0.00026281
-0.000261159
3.75112e-06
3.7597e-06
-4.23388e-06
-4.22708e-06
0.000262109
-1.77522e-06
-1.77684e-06
-0.00106079
1.0049e-06
1.00629e-06
0.00106233
-0.00106272
-1.63876e-06
1.77644e-06
8.94164e-07
0.00106396
-6.72959e-07
7.67576e-07
-1.60635e-07
3.55199e-07
-8.26678e-07
-1.42934e-06
-3.07218e-07
-0.00106261
-1.6387e-06
1.78165e-06
8.9411e-07
0.00106384
-6.75565e-07
7.67574e-07
-1.58103e-07
3.55243e-07
-8.29226e-07
-1.42932e-06
-3.07143e-07
-0.000261524
1.66599e-06
1.62854e-06
-7.37846e-07
-7.43505e-07
0.000259711
-1.36169e-06
-1.36256e-06
-0.00106652
6.83537e-07
6.79351e-07
0.00106788
-0.00106786
-1.55986e-06
1.36252e-06
6.99536e-07
0.0010692
-6.24562e-07
8.38042e-07
-1.04536e-07
4.25821e-07
-7.79773e-07
-1.35552e-06
-2.42501e-07
-0.00106774
-1.55463e-06
1.36251e-06
6.94459e-07
0.00106909
-6.24585e-07
8.32707e-07
-1.04571e-07
4.25857e-07
-7.79737e-07
-1.35289e-06
-2.42464e-07
-0.000262743
1.59e-06
1.54695e-06
-6.75231e-07
-6.78266e-07
0.00026096
-1.34152e-06
-1.34252e-06
-0.00107199
6.6434e-07
6.65369e-07
0.00107334
-0.00107321
-1.55675e-06
1.34242e-06
6.66568e-07
0.00107453
-6.21075e-07
8.62594e-07
-8.25333e-08
4.3868e-07
-7.82675e-07
-1.36909e-06
-2.18209e-07
-0.00107309
-1.5541e-06
1.34233e-06
6.71909e-07
0.0010744
-6.18412e-07
8.59903e-07
-8.50556e-08
4.3867e-07
-7.82646e-07
-1.36904e-06
-2.18178e-07
-0.000264021
1.58436e-06
1.54899e-06
-6.65805e-07
-6.68851e-07
0.000262223
-1.29589e-06
-1.29683e-06
-0.00107734
6.42085e-07
6.43121e-07
0.00107864
-0.00107838
-1.5482e-06
1.29672e-06
6.31885e-07
0.00107964
-6.08163e-07
8.90784e-07
-5.69403e-08
4.60773e-07
-7.71013e-07
-1.37135e-06
-1.86585e-07
-0.00107826
-1.54555e-06
1.29662e-06
6.37257e-07
0.00107952
-6.05494e-07
8.88078e-07
-5.94464e-08
4.6076e-07
-7.7099e-07
-1.37131e-06
-1.86555e-07
-0.00026524
1.57596e-06
1.54041e-06
-6.48438e-07
-6.51488e-07
0.000263424
-1.24882e-06
-1.24965e-06
-0.00108249
6.2056e-07
6.21627e-07
0.00108375
-0.00108332
-1.53975e-06
1.24952e-06
6.01662e-07
0.00108452
-5.95892e-07
9.16526e-07
-3.45458e-08
4.84902e-07
-7.56771e-07
-1.36903e-06
-1.56053e-07
-0.0010832
-1.53711e-06
1.24941e-06
6.07061e-07
0.00108439
-5.93216e-07
9.13776e-07
-3.70166e-08
4.84887e-07
-7.56745e-07
-1.36899e-06
-1.56021e-07
-0.000266386
1.56765e-06
1.53193e-06
-6.31481e-07
-6.34532e-07
0.000264552
-1.20493e-06
-1.20554e-06
-0.00108744
6.01153e-07
6.02274e-07
0.00108865
-0.001088
-1.53308e-06
1.20541e-06
5.77451e-07
0.00108914
-5.86242e-07
9.39433e-07
-1.5929e-08
5.09538e-07
-7.42976e-07
-1.36492e-06
-1.28099e-07
-0.00108788
-1.53042e-06
1.20523e-06
5.82795e-07
0.00108902
-5.83526e-07
9.36687e-07
-1.82896e-08
5.09516e-07
-7.42946e-07
-1.36489e-06
-1.28069e-07
-0.000267457
1.56109e-06
1.52522e-06
-6.16811e-07
-6.19873e-07
0.000265608
-1.1661e-06
-1.16727e-06
-0.0010922
5.84787e-07
5.85861e-07
0.00109336
-0.00109245
-1.52851e-06
1.16716e-06
5.59013e-07
0.00109354
-5.79549e-07
9.59597e-07
-1.50648e-09
5.3348e-07
-7.30809e-07
-1.36088e-06
-1.03298e-07
-0.00109233
-1.52588e-06
1.16703e-06
5.64535e-07
0.00109341
-5.76856e-07
9.5681e-07
-3.54095e-09
5.33466e-07
-7.30779e-07
-1.36084e-06
-1.03264e-07
-0.00026846
1.55679e-06
1.52069e-06
-6.04841e-07
-6.0792e-07
0.000266595
-1.1325e-06
-1.13365e-06
-0.00109679
5.70785e-07
5.71563e-07
0.00109791
-0.0010967
-1.52716e-06
1.13358e-06
5.45007e-07
0.00109773
-5.76173e-07
9.76321e-07
1.62951e-08
5.55986e-07
-7.20387e-07
-1.35772e-06
-8.16846e-08
-0.00109658
-1.52443e-06
1.13362e-06
5.50501e-07
0.00109761
-5.73396e-07
9.73607e-07
1.31179e-08
5.56056e-07
-7.20278e-07
-1.35761e-06
-8.15731e-08
-0.0002694
1.55541e-06
1.51921e-06
-5.96375e-07
-5.99408e-07
0.000267521
-1.104e-06
-1.10496e-06
-0.00110123
5.59126e-07
5.59879e-07
0.00110232
-0.00110075
-1.52746e-06
1.10491e-06
5.34077e-07
0.00110174
-5.74491e-07
9.9153e-07
3.07316e-08
5.77343e-07
-7.10893e-07
-1.35503e-06
-6.28168e-08
-0.00110063
-1.52474e-06
1.1049e-06
5.39589e-07
0.00110162
-5.71739e-07
9.88793e-07
2.7675e-08
5.77399e-07
-7.10804e-07
-1.35493e-06
-6.27245e-08
-0.000270281
1.55583e-06
1.5195e-06
-5.89927e-07
-5.92994e-07
0.000268389
-1.07918e-06
-1.08006e-06
-0.00110555
5.49237e-07
5.5e-07
0.00110661
-0.00110464
-1.52868e-06
1.07999e-06
5.24792e-07
0.00110559
-5.73969e-07
1.00576e-06
4.3123e-08
5.97442e-07
-7.01603e-07
-1.35227e-06
-4.65467e-08
-0.00110452
-1.52596e-06
1.07996e-06
5.30334e-07
0.00110546
-5.7123e-07
1.00301e-06
4.01045e-08
5.97502e-07
-7.01512e-07
-1.35217e-06
-4.64474e-08
-0.000271109
1.55716e-06
1.52069e-06
-5.84657e-07
-5.87747e-07
0.000269203
-1.05645e-06
-1.0573e-06
-0.00110975
5.40178e-07
5.40919e-07
0.00111078
-0.00110837
-1.53021e-06
1.05726e-06
5.15751e-07
0.00110928
-5.73528e-07
1.0194e-06
5.4258e-08
6.16108e-07
-6.91663e-07
-1.34875e-06
-3.25131e-08
-0.00110824
-1.52748e-06
1.05722e-06
5.21315e-07
0.00110915
-5.70798e-07
1.01665e-06
5.12608e-08
6.16172e-07
-6.91584e-07
-1.34865e-06
-3.24204e-08
-0.000271884
1.5588e-06
1.5222e-06
-5.79827e-07
-5.82935e-07
0.000269966
-1.0348e-06
-1.03568e-06
-0.00111384
5.31378e-07
5.32123e-07
0.00111484
-0.00111194
-1.53156e-06
1.03562e-06
5.06256e-07
0.00111282
-5.72179e-07
1.0328e-06
6.45011e-08
6.33143e-07
-6.80557e-07
-1.34412e-06
-2.04111e-08
-0.00111182
-1.52884e-06
1.03556e-06
5.11844e-07
0.00111269
-5.69449e-07
1.03002e-06
6.15158e-08
6.33202e-07
-6.80491e-07
-1.34403e-06
-2.03247e-08
-0.000272607
1.56028e-06
1.52356e-06
-5.75052e-07
-5.78193e-07
0.000270676
-1.01389e-06
-1.01469e-06
-0.00111783
5.22768e-07
5.23533e-07
0.00111881
-0.00111537
-1.53307e-06
1.0147e-06
4.96154e-07
0.00111621
-5.69601e-07
1.04552e-06
7.38352e-08
6.48737e-07
-6.67844e-07
-1.3379e-06
-9.81968e-09
-0.00111525
-1.5303e-06
1.01463e-06
5.01663e-07
0.00111608
-5.66841e-07
1.04276e-06
7.09167e-08
6.48799e-07
-6.67775e-07
-1.33782e-06
-9.73045e-09
-0.000273276
1.56178e-06
1.52497e-06
-5.7012e-07
-5.73133e-07
0.000271332
-9.92925e-07
-9.93714e-07
-0.00112172
5.1385e-07
5.14639e-07
0.00112268
-0.00111865
-1.53348e-06
9.93674e-07
4.85784e-07
0.00111945
-5.65641e-07
1.05844e-06
8.23595e-08
6.62642e-07
-6.53699e-07
-1.33006e-06
-1.30175e-09
-0.00111853
-1.53071e-06
9.93519e-07
4.91216e-07
0.00111932
-5.62834e-07
1.05567e-06
7.94729e-08
6.62718e-07
-6.53623e-07
-1.32996e-06
-1.18368e-09
-0.000273891
1.56231e-06
1.52541e-06
-5.62768e-07
-5.65837e-07
0.000271932
-9.71997e-07
-9.72165e-07
-0.00112552
5.04648e-07
5.05202e-07
0.00112645
-0.00112177
-1.53323e-06
9.72219e-07
4.7297e-07
0.00112254
-5.60017e-07
1.0706e-06
9.00674e-08
6.74621e-07
-6.38717e-07
-1.32109e-06
1.03973e-08
-0.00112165
-1.53047e-06
9.7203e-07
4.78501e-07
0.00112241
-5.57226e-07
1.06782e-06
8.7172e-08
6.74703e-07
-6.38634e-07
-1.32099e-06
1.05512e-08
-0.000274447
1.56203e-06
1.52514e-06
-5.54965e-07
-5.58086e-07
0.000272473
-9.5063e-07
-9.51351e-07
-0.00112922
4.95163e-07
4.95798e-07
0.00113013
-0.00112474
-1.53226e-06
9.51237e-07
4.61413e-07
0.00112546
-5.52611e-07
1.08193e-06
9.71992e-08
6.84964e-07
-6.22718e-07
-1.3107e-06
2.00658e-08
-0.00112462
-1.52951e-06
9.51037e-07
4.66977e-07
0.00112533
-5.49836e-07
1.07911e-06
9.42767e-08
6.85056e-07
-6.22648e-07
-1.31059e-06
2.02127e-08
-0.000274941
1.56108e-06
1.52418e-06
-5.46671e-07
-5.49699e-07
0.000272952
-9.29079e-07
-9.29777e-07
-0.00113283
4.85084e-07
4.85754e-07
0.00113372
-0.00112755
-1.53019e-06
9.29724e-07
4.55926e-07
0.00112822
-5.43409e-07
1.09241e-06
1.03949e-07
6.94014e-07
-6.05997e-07
-1.29895e-06
2.85628e-08
-0.00112742
-1.52746e-06
9.2976e-07
4.56098e-07
0.00112809
-5.40646e-07
1.08957e-06
1.01013e-07
6.94107e-07
-6.05953e-07
-1.29883e-06
2.86663e-08
-0.00027537
1.55913e-06
1.52212e-06
-5.37418e-07
-5.40442e-07
0.000273367
-9.07253e-07
-9.07651e-07
-0.00113635
4.74692e-07
4.75473e-07
0.00113721
-0.00113018
-1.52706e-06
9.0763e-07
4.45242e-07
0.00113081
-5.32845e-07
1.10191e-06
1.10165e-07
7.02388e-07
-5.88873e-07
-1.28562e-06
3.6204e-08
-0.00113005
-1.5243e-06
9.07553e-07
4.45335e-07
0.00113068
-5.30018e-07
1.09911e-06
1.07274e-07
7.02398e-07
-5.88811e-07
-1.2856e-06
3.6363e-08
-0.000275731
1.55607e-06
1.51898e-06
-5.27283e-07
-5.30294e-07
0.000273714
-8.86747e-07
-8.87287e-07
-0.00113977
4.6549e-07
4.66278e-07
0.00114061
-0.00113263
-1.52284e-06
8.87367e-07
4.29737e-07
0.00113322
-5.21275e-07
1.11021e-06
1.15745e-07
7.0977e-07
-5.71854e-07
-1.2711e-06
4.29381e-08
-0.0011325
-1.52007e-06
8.8731e-07
4.35316e-07
0.00113309
-5.18513e-07
1.10744e-06
1.12838e-07
7.09767e-07
-5.71804e-07
-1.27106e-06
4.30911e-08
-0.000276022
1.55191e-06
1.51475e-06
-5.16342e-07
-5.19343e-07
0.000273991
-8.65977e-07
-8.66514e-07
-0.0011431
4.56414e-07
4.57165e-07
0.00114392
-0.0011349
-1.51707e-06
8.6627e-07
4.19838e-07
0.00113545
-5.08847e-07
1.11774e-06
1.20973e-07
7.1683e-07
-5.5467e-07
-1.25515e-06
4.94577e-08
-0.00113478
-1.51427e-06
8.66308e-07
4.25471e-07
-5.06127e-07
1.11499e-06
1.18034e-07
7.16803e-07
-5.54633e-07
-1.25514e-06
4.95935e-08
-0.000276242
1.54618e-06
1.50897e-06
-5.04287e-07
-5.07273e-07
0.000274198
4.90981e-06
4.92066e-06
0.00026121
-0.00025962
-5.71645e-06
-5.70449e-06
5.15733e-06
0.000261468
-0.000259454
-6.14602e-06
3.88445e-06
-4.91472e-06
5.15191e-06
0.00026146
-0.000259438
-6.15054e-06
3.89181e-06
4.91008e-06
0.00026119
-0.000259594
-5.68962e-06
-5.73059e-06
5.15008e-06
0.000261506
-0.000259471
-6.15091e-06
3.88688e-06
5.14946e-06
-4.91216e-06
0.000261455
-0.000259431
3.88921e-06
-6.15058e-06
-0.000258103
3.75434e-06
3.7568e-06
-5.14732e-06
0.000260876
-0.000258087
3.75666e-06
3.75406e-06
-5.14478e-06
0.000260871
-0.000258082
3.75413e-06
3.75161e-06
-5.15174e-06
-5.14198e-06
0.00026085
-0.000258062
3.75141e-06
3.75395e-06
-0.000259446
-6.1406e-06
3.87908e-06
-4.90669e-06
0.000261417
-0.000259408
3.88141e-06
-6.13516e-06
4.90502e-06
0.000261185
-0.000259589
-5.68715e-06
-5.72542e-06
-0.000259444
3.87661e-06
-6.13554e-06
-4.91511e-06
0.000261458
-0.000259431
3.88662e-06
-6.14021e-06
-0.000259577
-5.70818e-06
-5.69616e-06
3.75171e-06
3.76017e-06
-4.23714e-06
-4.23274e-06
0.000262168
-7.40749e-07
-6.99432e-07
0.000261591
-0.000259518
-3.17631e-07
-3.15313e-07
-4.52471e-06
2.9707e-06
0.000262812
-3.75668e-06
3.96099e-06
-4.52929e-06
2.98067e-06
0.000262804
0.00106222
2.37803e-06
-0.00106122
1.14834e-06
-1.80474e-06
-2.0196e-07
-7.51059e-07
-1.56153e-06
-3.53144e-07
-8.96961e-07
2.94728e-07
7.35542e-07
0.00106231
2.37272e-06
-0.00106129
1.14813e-06
-1.79978e-06
-2.04595e-07
-7.51342e-07
-1.56122e-06
-3.50308e-07
-8.99205e-07
2.94733e-07
-4.23144e-06
-4.23261e-06
0.000262143
-7.01939e-07
0.000261575
-0.000259502
-3.2049e-07
-3.15092e-07
-4.52969e-06
2.97318e-06
0.000262866
-3.75674e-06
3.96364e-06
2.98321e-06
-4.52934e-06
0.000262794
0.00106314
2.38535e-06
-0.00106211
1.12664e-06
-1.76747e-06
-2.07155e-07
-7.51599e-07
-1.56156e-06
-3.50539e-07
-8.99526e-07
2.9459e-07
7.35573e-07
0.00106219
2.38236e-06
-0.0010612
1.1583e-06
-1.79969e-06
-2.02027e-07
-7.5124e-07
-1.56111e-06
-3.50128e-07
-8.98934e-07
2.9215e-07
3.95824e-06
2.9779e-06
-4.51897e-06
0.000262751
2.37975e-06
-0.0010617
1.13697e-06
-1.76977e-06
-2.06955e-07
-7.48608e-07
-1.55615e-06
-3.50586e-07
2.8928e-07
-8.9945e-07
7.32768e-07
0.00106183
2.38238e-06
-0.00106084
1.15844e-06
-1.79679e-06
-2.01939e-07
-7.5097e-07
-1.55581e-06
-3.52761e-07
-8.96398e-07
2.86758e-07
-4.23412e-06
-4.23006e-06
0.000262132
-6.96758e-07
0.00026156
-0.000259492
-3.20363e-07
-3.15077e-07
3.95629e-06
2.97544e-06
-4.52407e-06
0.00026281
2.38994e-06
-0.0010616
1.14707e-06
-1.76704e-06
-2.06817e-07
-7.48426e-07
-1.55622e-06
-3.48037e-07
2.89338e-07
-8.99405e-07
6.88816e-07
0.00106275
2.3901e-06
-0.00106174
1.14177e-06
-1.75945e-06
-2.0708e-07
-7.48806e-07
-1.55326e-06
-3.52854e-07
-8.96685e-07
2.86578e-07
-0.000259467
-3.20309e-07
-3.15305e-07
1.67396e-06
1.63907e-06
-7.35226e-07
-7.41039e-07
0.000259754
-8.72256e-07
-8.31018e-07
0.000262808
-0.000260684
-2.15148e-07
-2.04947e-07
8.95332e-07
0.00106346
-6.78205e-07
8.06248e-07
-1.5579e-07
3.63285e-07
-8.26631e-07
-1.43475e-06
-3.04692e-07
-1.67411e-06
1.77994e-06
9.05427e-07
0.00106353
-6.81065e-07
8.06337e-07
-1.53326e-07
3.6608e-07
-8.31547e-07
-1.43696e-06
-3.01879e-07
0.00106736
1.37355e-06
-0.00106603
7.10113e-07
-1.59941e-06
-1.02844e-07
-6.30725e-07
-1.35518e-06
-2.50086e-07
-7.75525e-07
4.27933e-07
8.64412e-07
0.00106744
1.37323e-06
-0.0010661
7.04809e-07
-1.59437e-06
-1.05378e-07
-6.28308e-07
-1.3575e-06
-2.44882e-07
-7.77917e-07
4.30526e-07
-7.38308e-07
-7.40447e-07
0.000259741
-8.33482e-07
0.000262787
-0.000260672
-2.10094e-07
-2.0747e-07
8.99427e-07
0.00106437
-6.76046e-07
7.67697e-07
-1.58333e-07
3.63141e-07
-8.29401e-07
-1.43469e-06
-3.02242e-07
-1.66886e-06
1.77966e-06
9.05441e-07
0.00106342
-6.81009e-07
7.9848e-07
-1.53324e-07
3.60694e-07
-8.26231e-07
-1.4317e-06
-3.06734e-07
0.00106828
1.37446e-06
-0.00106696
7.14326e-07
-1.55639e-06
-1.07735e-07
-6.23078e-07
-1.35259e-06
-2.47569e-07
-7.75668e-07
4.25129e-07
8.61787e-07
0.00106732
1.37308e-06
-0.00106599
7.04867e-07
-1.58909e-06
-1.07833e-07
-6.28276e-07
-1.35234e-06
-2.47329e-07
-7.75231e-07
4.25161e-07
1.77465e-06
9.05534e-07
0.00106305
-6.80763e-07
7.98301e-07
-1.53243e-07
3.57928e-07
-8.26236e-07
-3.04367e-07
-1.42637e-06
1.37956e-06
-0.00106653
7.03874e-07
-1.56133e-06
-1.07643e-07
-6.25439e-07
-1.35255e-06
-2.50106e-07
4.2505e-07
-7.75584e-07
8.64257e-07
0.00106695
1.37316e-06
-0.00106563
7.09976e-07
-1.58876e-06
-1.05233e-07
-6.27979e-07
-1.34961e-06
-2.44906e-07
-7.7516e-07
4.25099e-07
-7.38239e-07
-7.37864e-07
0.000259729
-8.30788e-07
0.000262769
-0.000260656
-2.12759e-07
-2.07413e-07
1.7766e-06
8.99232e-07
0.00106398
-6.75884e-07
7.57038e-07
-1.60786e-07
3.57821e-07
-8.26519e-07
-3.04487e-07
-1.42908e-06
1.37443e-06
-0.00106641
7.0919e-07
-1.55872e-06
-1.07657e-07
-6.25427e-07
-1.34727e-06
-2.50068e-07
4.19755e-07
-7.75534e-07
8.20265e-07
0.00106789
1.3795e-06
-0.00106656
7.09028e-07
-1.54847e-06
-1.12695e-07
-6.23045e-07
-1.34957e-06
-2.47402e-07
-7.78015e-07
4.22339e-07
-0.000260636
-2.12685e-07
-2.10215e-07
1.59537e-06
1.5575e-06
-6.72598e-07
-6.8086e-07
0.000261008
-8.97109e-07
-8.55632e-07
0.000264091
-0.000261961
-1.90208e-07
-1.87807e-07
7.0052e-07
0.00106869
-6.29838e-07
8.76871e-07
-9.97253e-08
4.28698e-07
-7.7969e-07
-1.35827e-06
-2.42478e-07
-1.59292e-06
1.36658e-06
6.95228e-07
0.00106877
-6.30098e-07
8.74273e-07
-9.98409e-08
4.31304e-07
-7.79496e-07
-1.35792e-06
-2.42242e-07
0.0010727
1.35093e-06
-0.00107138
6.81232e-07
-1.59912e-06
-8.43038e-08
-6.29006e-07
-1.37246e-06
-2.25753e-07
-7.84276e-07
4.39417e-07
8.91802e-07
0.00107278
1.35064e-06
-0.00107146
6.81122e-07
-1.59408e-06
-8.6904e-08
-6.26531e-07
-1.37216e-06
-2.28091e-07
-7.81464e-07
4.39365e-07
-6.78251e-07
-6.82981e-07
0.000260995
-8.55457e-07
0.000264073
-0.000261951
-1.90408e-07
-1.85135e-07
6.94313e-07
0.00106963
-6.27507e-07
8.35545e-07
-1.04697e-07
4.31188e-07
-7.79883e-07
-1.35822e-06
-2.42425e-07
-1.59027e-06
1.36643e-06
7.0058e-07
0.00106865
-6.30028e-07
8.71648e-07
-9.98252e-08
4.31301e-07
-7.79487e-07
-1.35798e-06
-2.44684e-07
0.00107364
1.35195e-06
-0.00107231
6.80216e-07
-1.55851e-06
-8.92384e-08
-6.23997e-07
-1.37243e-06
-2.23231e-07
-7.87102e-07
4.39297e-07
8.86513e-07
0.00107266
1.35064e-06
-0.00107134
6.8125e-07
-1.58877e-06
-8.43993e-08
-6.29162e-07
-1.3722e-06
-2.28019e-07
-7.81461e-07
4.39426e-07
1.36124e-06
7.00411e-07
0.0010683
-6.29736e-07
8.66201e-07
-1.02175e-07
4.23185e-07
-7.79387e-07
-2.47221e-07
-1.35262e-06
1.35183e-06
-0.00107188
6.85476e-07
-1.55828e-06
-8.90898e-08
-6.23698e-07
-1.36708e-06
-2.25798e-07
4.3394e-07
-7.84355e-07
8.8374e-07
0.0010723
1.35055e-06
-0.00107098
6.81067e-07
-1.58586e-06
-8.6727e-08
-6.26194e-07
-1.36419e-06
-2.30585e-07
-7.78754e-07
4.31226e-07
-6.75698e-07
-6.80343e-07
0.00026098
-8.52774e-07
0.00026405
-0.000261935
-1.90359e-07
-1.85144e-07
1.36768e-06
6.99484e-07
0.00106922
-6.22112e-07
8.27408e-07
-1.07172e-07
4.23085e-07
-7.76987e-07
-2.44767e-07
-1.34996e-06
1.35177e-06
-0.00107176
6.80306e-07
-1.55563e-06
-9.16107e-08
-6.21035e-07
-1.36706e-06
-2.25766e-07
4.33894e-07
-7.84327e-07
8.4748e-07
0.00107323
1.35181e-06
-0.0010719
6.80176e-07
-1.55053e-06
-8.92325e-08
-6.23889e-07
-1.36944e-06
-2.2556e-07
-7.84216e-07
4.36528e-07
-0.000261912
-1.90387e-07
-1.87826e-07
1.59764e-06
1.55697e-06
-6.65751e-07
-6.689e-07
0.000262272
-9.25774e-07
-8.84128e-07
0.000265311
-0.000263179
-1.62047e-07
-1.59588e-07
6.72839e-07
0.00107402
-6.2639e-07
9.04292e-07
-7.77561e-08
4.44199e-07
-7.82594e-07
-1.37445e-06
-2.18164e-07
-1.5926e-06
1.34124e-06
6.72712e-07
0.0010741
-6.23909e-07
8.98976e-07
-8.035e-08
4.44142e-07
-7.79791e-07
-1.37416e-06
-2.20516e-07
0.00107788
1.30764e-06
-0.00107661
6.46537e-07
-1.5915e-06
-5.83316e-08
-6.16817e-07
-1.37678e-06
-1.94431e-07
-7.74298e-07
4.60524e-07
9.20444e-07
0.00107796
1.30739e-06
-0.00107669
6.46446e-07
-1.58644e-06
-6.08941e-08
-6.14309e-07
-1.37649e-06
-1.96814e-07
-7.71513e-07
4.60464e-07
-6.66304e-07
-6.71027e-07
0.000262261
-8.83942e-07
0.000265293
-0.000263169
-1.62225e-07
-1.56931e-07
6.71817e-07
0.00107495
-6.21373e-07
8.62773e-07
-8.26809e-08
4.44093e-07
-7.85423e-07
-1.37441e-06
-2.15638e-07
-1.58729e-06
1.34125e-06
6.72841e-07
0.00107398
-6.26545e-07
8.93678e-07
-7.78479e-08
4.44215e-07
-7.7979e-07
-1.37418e-06
-2.20441e-07
0.00107882
1.30861e-06
-0.00107754
6.45523e-07
-1.55069e-06
-6.32242e-08
-6.11783e-07
-1.37674e-06
-1.91905e-07
-7.77148e-07
4.60416e-07
9.15118e-07
0.00107784
1.30741e-06
-0.00107657
6.46551e-07
-1.58113e-06
-5.84123e-08
-6.16965e-07
-1.3765e-06
-1.9673e-07
-7.71512e-07
4.60552e-07
1.34114e-06
6.7267e-07
0.00107362
-6.23576e-07
8.90907e-07
-8.01747e-08
4.36e-07
-7.77082e-07
-2.23011e-07
-1.36617e-06
1.30848e-06
-0.00107712
6.50799e-07
-1.55046e-06
-6.30808e-08
-6.11488e-07
-1.37137e-06
-1.9447e-07
4.55032e-07
-7.74378e-07
9.12341e-07
0.00107748
1.30728e-06
-0.0010762
6.46391e-07
-1.57818e-06
-6.07336e-08
-6.13995e-07
-1.36848e-06
-1.99312e-07
-7.688e-07
4.52299e-07
-6.66333e-07
-6.71028e-07
0.000262246
-8.81241e-07
0.000265269
-0.000263154
-1.62182e-07
-1.56957e-07
1.34239e-06
6.71756e-07
0.00107454
-6.21266e-07
8.54612e-07
-8.26752e-08
4.41266e-07
-7.82538e-07
-2.17973e-07
-1.37136e-06
1.3084e-06
-0.00107699
6.45612e-07
-1.54781e-06
-6.55918e-08
-6.08822e-07
-1.37136e-06
-1.94441e-07
4.54981e-07
-7.74353e-07
8.75941e-07
0.0010784
1.30846e-06
-0.00107713
6.45471e-07
-1.54268e-06
-6.32194e-08
-6.11679e-07
-1.37368e-06
-1.94249e-07
-7.74258e-07
4.5759e-07
-0.00026313
-1.62217e-07
-1.59617e-07
1.58928e-06
1.54842e-06
-6.48389e-07
-6.51521e-07
0.000263473
-9.5231e-07
-9.10497e-07
0.000266456
-0.000264326
-1.34939e-07
-1.3241e-07
6.38175e-07
0.00107913
-6.13495e-07
9.32655e-07
-5.22044e-08
4.66308e-07
-7.70933e-07
-1.37674e-06
-1.86546e-07
-1.58422e-06
1.29565e-06
6.38086e-07
0.00107921
-6.10975e-07
9.27328e-07
-5.47246e-08
4.66254e-07
-7.68147e-07
-1.37644e-06
-1.86443e-07
0.00108281
1.26049e-06
-0.0010816
6.15016e-07
-1.58297e-06
-3.51131e-08
-6.04091e-07
-1.37528e-06
-1.63468e-07
-7.60305e-07
4.84283e-07
9.47002e-07
0.00108288
1.26031e-06
-0.00108167
6.14969e-07
-1.57785e-06
-3.51777e-08
-6.04257e-07
-1.37496e-06
-1.63341e-07
-7.60176e-07
4.8425e-07
-6.48936e-07
-6.53674e-07
0.000263463
-9.1034e-07
0.000266438
-0.000264316
-1.35042e-07
-1.29746e-07
6.37162e-07
0.00108007
-6.08455e-07
8.9097e-07
-5.70817e-08
4.66208e-07
-7.73785e-07
-1.37669e-06
-1.84015e-07
-1.57891e-06
1.29567e-06
6.38176e-07
0.00107909
-6.13642e-07
9.21986e-07
-5.22827e-08
4.66338e-07
-7.68151e-07
-1.37645e-06
-1.8885e-07
0.00108375
1.26138e-06
-0.00108254
6.1403e-07
-1.54198e-06
-3.99413e-08
-5.99045e-07
-1.37523e-06
-1.60934e-07
-7.63171e-07
4.84183e-07
9.41604e-07
0.00108277
1.26028e-06
-0.00108156
6.15018e-07
-1.57256e-06
-3.51982e-08
-6.04244e-07
-1.37499e-06
-1.65782e-07
-7.57532e-07
4.84321e-07
1.29553e-06
6.38021e-07
0.00107873
-6.10671e-07
9.19208e-07
-5.45988e-08
4.58075e-07
-7.65439e-07
-1.91436e-07
-1.36842e-06
1.26122e-06
-0.00108211
6.19298e-07
-1.54174e-06
-3.98103e-08
-5.98762e-07
-1.36984e-06
-1.63503e-07
4.78778e-07
-7.60385e-07
9.38813e-07
0.0010824
1.26011e-06
-0.0010812
6.14882e-07
-1.5696e-06
-3.74958e-08
-6.01276e-07
-1.36694e-06
-1.68378e-07
-7.54814e-07
4.76028e-07
-6.48971e-07
-6.53696e-07
0.000263447
-9.076e-07
0.000266415
-0.0002643
-1.35039e-07
-1.29808e-07
1.29669e-06
6.37098e-07
0.00107966
-6.08353e-07
8.82774e-07
-5.70778e-08
4.63374e-07
-7.70897e-07
-1.86366e-07
-1.37363e-06
1.26113e-06
-0.00108199
6.14097e-07
-1.53909e-06
-4.22941e-08
-5.96089e-07
-1.36983e-06
-1.63476e-07
4.78722e-07
-7.6036e-07
9.02287e-07
0.00108334
1.26121e-06
-0.00108213
6.13964e-07
-1.53393e-06
-3.99433e-08
-5.98949e-07
-1.37216e-06
-1.63291e-07
-7.60277e-07
4.81348e-07
-0.000264277
-1.35094e-07
-1.32454e-07
1.58103e-06
1.54e-06
-6.31449e-07
-6.34552e-07
0.000264601
-9.76119e-07
-9.34123e-07
0.000267528
-0.0002654
-1.10472e-07
-1.07849e-07
6.07987e-07
0.001084
-6.01222e-07
9.58529e-07
-2.98718e-08
4.90449e-07
-7.5669e-07
-1.37444e-06
-1.56019e-07
-1.5759e-06
1.24864e-06
6.07915e-07
0.00108408
-6.01386e-07
9.53223e-07
-2.99309e-08
4.90423e-07
-7.56564e-07
-1.37412e-06
-1.55886e-07
0.00108749
1.21538e-06
-0.00108634
5.89213e-07
-1.57594e-06
-1.56409e-08
-5.93683e-07
-1.37143e-06
-1.34785e-07
-7.46254e-07
5.08964e-07
9.70807e-07
0.00108757
1.21519e-06
-0.00108642
5.89129e-07
-1.57078e-06
-1.56907e-08
-5.93836e-07
-1.3711e-06
-1.34647e-07
-7.46101e-07
5.08944e-07
-6.31924e-07
-6.36713e-07
0.000264591
-9.33977e-07
0.00026751
-0.00026539
-1.10539e-07
-1.05176e-07
6.06993e-07
0.00108495
-5.96173e-07
9.16677e-07
-3.46738e-08
4.90361e-07
-7.59555e-07
-1.37439e-06
-1.53475e-07
-1.57061e-06
1.2486e-06
6.0796e-07
0.00108396
-6.01375e-07
9.47812e-07
-2.99544e-08
4.90493e-07
-7.53917e-07
-1.37415e-06
-1.58329e-07
0.00108844
1.21606e-06
-0.00108729
5.88245e-07
-1.5348e-06
-2.03373e-08
-5.88641e-07
-1.37136e-06
-1.32198e-07
-7.49072e-07
5.08894e-07
9.6537e-07
0.00108745
1.2151e-06
-0.0010863
5.89147e-07
-1.56549e-06
-1.57079e-08
-5.93817e-07
-1.3711e-06
-1.37045e-07
-7.4342e-07
5.09046e-07
1.24843e-06
6.0782e-07
0.0010836
-5.98405e-07
9.45019e-07
-3.22386e-08
4.8219e-07
-7.51199e-07
-1.60928e-07
-1.36609e-06
1.2159e-06
-0.00108686
5.93522e-07
-1.53454e-06
-2.02155e-08
-5.8836e-07
-1.36595e-06
-1.34777e-07
5.03465e-07
-7.4628e-07
9.62557e-07
0.00108708
1.21488e-06
-0.00108594
5.89029e-07
-1.56253e-06
-1.79396e-08
-5.90856e-07
-1.36304e-06
-1.39658e-07
-7.40701e-07
5.00708e-07
-6.32007e-07
-6.36762e-07
0.000264576
-9.31234e-07
0.000267486
-0.000265374
-1.1051e-07
-1.05269e-07
1.24949e-06
6.06908e-07
0.00108453
-5.96077e-07
9.08461e-07
-3.46737e-08
4.87517e-07
-7.56661e-07
-1.55837e-07
-1.37131e-06
1.21576e-06
-0.00108673
5.88232e-07
-1.53188e-06
-2.26078e-08
-5.85653e-07
-1.36594e-06
-1.34749e-07
5.03405e-07
-7.46252e-07
9.25907e-07
0.00108802
1.21587e-06
-0.00108687
5.8812e-07
-1.52669e-06
-2.03113e-08
-5.88518e-07
-1.36826e-06
-1.34562e-07
-7.46171e-07
5.0605e-07
-0.00026535
-1.10586e-07
-1.07908e-07
1.57452e-06
1.53334e-06
-6.16822e-07
-6.19884e-07
0.000265657
-9.97106e-07
-9.55039e-07
0.000268532
-0.000266402
-9.1517e-08
-8.62493e-08
5.83813e-07
0.00108862
-5.91561e-07
9.8162e-07
-1.14218e-08
5.15091e-07
-7.42952e-07
-1.37038e-06
-1.2809e-07
-1.56936e-06
1.20475e-06
5.83719e-07
0.0010887
-5.91718e-07
9.763e-07
-1.14736e-08
5.15063e-07
-7.42816e-07
-1.37005e-06
-1.27976e-07
0.00109194
1.17541e-06
-0.00109085
5.6935e-07
-1.57111e-06
-4.56633e-10
-5.86283e-07
-1.36726e-06
-1.09165e-07
-7.33607e-07
5.33186e-07
9.91779e-07
0.00109202
1.17529e-06
-0.00109092
5.69331e-07
-1.56593e-06
-5.2864e-10
-5.86451e-07
-1.36694e-06
-1.0905e-07
-7.33479e-07
5.33155e-07
-6.17273e-07
-6.22051e-07
0.000265647
-9.5487e-07
0.000268513
-0.000266394
-8.89094e-08
-8.35579e-08
5.82803e-07
0.00108957
-5.86517e-07
9.39586e-07
-1.6043e-08
5.1502e-07
-7.45763e-07
-1.3703e-06
-1.25512e-07
-1.56406e-06
1.20464e-06
5.83714e-07
0.00108858
-5.91693e-07
9.70861e-07
-1.14832e-08
5.15175e-07
-7.40109e-07
-1.37004e-06
-1.30356e-07
0.00109289
1.1763e-06
-0.0010918
5.68519e-07
-1.5297e-06
-4.66715e-09
-5.8119e-07
-1.36723e-06
-1.06625e-07
-7.36484e-07
5.33082e-07
9.86306e-07
0.0010919
1.17526e-06
-0.00109081
5.69366e-07
-1.56065e-06
-5.58249e-10
-5.86456e-07
-1.36697e-06
-1.11476e-07
-7.30837e-07
5.3324e-07
1.20441e-06
5.83564e-07
0.00108822
-5.88727e-07
9.68047e-07
-1.36735e-08
5.06824e-07
-7.37393e-07
-1.32976e-07
-1.36197e-06
1.17617e-06
-0.00109137
5.73868e-07
-1.52945e-06
-4.58648e-09
-5.80932e-07
-1.3618e-06
-1.09206e-07
5.27637e-07
-7.33689e-07
9.83508e-07
0.00109153
1.17512e-06
-0.00109044
5.69381e-07
-1.55765e-06
-2.6231e-09
-5.83466e-07
-1.35888e-06
-1.14084e-07
-7.28107e-07
5.24883e-07
-6.17321e-07
-6.22125e-07
0.000265631
-9.52078e-07
0.000268489
-0.000266378
-8.89261e-08
-8.36771e-08
1.20535e-06
5.82661e-07
0.00108916
-5.86388e-07
9.31362e-07
-1.60142e-08
5.12169e-07
-7.42864e-07
-1.27881e-07
-1.3672e-06
1.17599e-06
-0.00109124
5.68565e-07
-1.52681e-06
-6.77778e-09
-5.78237e-07
-1.36181e-06
-1.09188e-07
5.27566e-07
-7.3367e-07
9.46756e-07
0.00109247
1.17608e-06
-0.00109138
5.68484e-07
-1.52163e-06
-4.6737e-09
-5.81103e-07
-1.36412e-06
-1.08988e-07
-7.33582e-07
5.30242e-07
-0.000266354
-8.89915e-08
-8.62934e-08
1.57032e-06
1.52876e-06
-6.02225e-07
-6.07852e-07
0.000266643
-1.01472e-06
-9.72499e-07
0.000269472
-0.000267342
-7.36745e-08
-6.82003e-08
5.64998e-07
0.00109302
-5.85041e-07
1.00185e-06
4.77312e-09
5.39009e-07
-7.30776e-07
-1.36635e-06
-1.03312e-07
-1.56512e-06
1.16594e-06
5.6492e-07
0.0010931
-5.85195e-07
9.96523e-07
4.68627e-09
5.38983e-07
-7.30638e-07
-1.36602e-06
-1.03198e-07
0.00109618
1.14034e-06
-0.00109514
5.54353e-07
-1.56908e-06
1.82714e-08
-5.82359e-07
-1.36135e-06
-8.69457e-08
-7.22916e-07
5.53243e-07
1.00936e-06
0.00109626
1.14019e-06
-0.00109522
5.54282e-07
-1.56387e-06
1.81983e-08
-5.82507e-07
-1.3637e-06
-8.68183e-08
-7.22803e-07
5.55894e-07
-6.05311e-07
-6.10083e-07
0.000266635
-9.72318e-07
0.000269453
-0.000267335
-7.10623e-08
-6.55387e-08
5.64418e-07
0.00109397
-5.79805e-07
9.59776e-07
-1.69059e-09
5.38979e-07
-7.33598e-07
-1.36627e-06
-1.00708e-07
-1.55985e-06
1.16594e-06
5.64966e-07
0.00109298
-5.85207e-07
9.91046e-07
4.64757e-09
5.39068e-07
-7.27994e-07
-1.36605e-06
-1.05614e-07
0.00109714
1.14162e-06
-0.00109609
5.53548e-07
-1.52754e-06
1.21057e-08
-5.77096e-07
-1.36384e-06
-8.42335e-08
-7.25664e-07
5.55984e-07
1.004e-06
0.00109614
1.1401e-06
-0.0010951
5.54182e-07
-1.55848e-06
1.81913e-08
-5.82495e-07
-1.36372e-06
-8.92276e-08
-7.20147e-07
5.55973e-07
1.16594e-06
5.65048e-07
0.00109261
-5.82124e-07
9.88303e-07
9.83316e-10
5.30741e-07
-7.25238e-07
-1.08192e-07
-1.35793e-06
1.14151e-06
-0.00109566
5.58824e-07
-1.52729e-06
1.22275e-08
-5.76843e-07
-1.3584e-06
-8.68174e-08
5.50522e-07
-7.22866e-07
1.00115e-06
0.00109577
1.14016e-06
-0.00109473
5.54204e-07
-1.55549e-06
1.52108e-08
-5.79473e-07
-1.35555e-06
-9.17793e-08
-7.17357e-07
5.47652e-07
-6.05419e-07
-6.10218e-07
0.000266619
-9.6962e-07
0.000269429
-0.000267319
-7.10187e-08
-6.54708e-08
1.16704e-06
5.643e-07
0.00109355
-5.79713e-07
9.51537e-07
-1.68261e-09
5.36134e-07
-7.30694e-07
-1.03071e-07
-1.36315e-06
1.14159e-06
-0.00109553
5.53619e-07
-1.52457e-06
8.95396e-09
-5.74047e-07
-1.35832e-06
-8.67076e-08
5.50553e-07
-7.22768e-07
9.64277e-07
0.00109672
1.14139e-06
-0.00109567
5.53347e-07
-1.51934e-06
1.2081e-08
-5.77016e-07
-1.36071e-06
-8.65978e-08
-7.22757e-07
5.53135e-07
-0.000267295
-7.10256e-08
-6.82026e-08
1.569e-06
1.52741e-06
-5.9379e-07
-5.99393e-07
0.000267568
-1.03034e-06
-9.87989e-07
0.000270353
-0.000268225
-5.79783e-08
-5.24751e-08
5.51306e-07
0.00109721
-5.81697e-07
1.01874e-06
2.22272e-08
5.58756e-07
-7.20444e-07
-1.36065e-06
-8.18096e-08
-1.56378e-06
1.13234e-06
5.51214e-07
0.00109729
-5.81836e-07
1.01339e-06
2.21557e-08
5.61408e-07
-7.20327e-07
-1.36299e-06
-8.16801e-08
0.00110023
1.11073e-06
-0.00109924
5.43027e-07
-1.56923e-06
3.31166e-08
-5.80302e-07
-1.35863e-06
-6.74065e-08
-7.13279e-07
5.74893e-07
1.02496e-06
0.00110031
1.1106e-06
-0.00109931
5.4288e-07
-1.56402e-06
3.30454e-08
-5.80444e-07
-1.36367e-06
-6.72686e-08
-7.13158e-07
5.80293e-07
-5.96901e-07
-6.01668e-07
0.000267561
-9.87827e-07
0.000270332
-0.000268217
-5.53254e-08
-4.70776e-08
5.50445e-07
0.00109817
-5.76428e-07
9.76491e-07
1.61778e-08
5.61499e-07
-7.2318e-07
-1.36313e-06
-7.90984e-08
-1.55839e-06
1.13228e-06
5.51129e-07
0.00109717
-5.81842e-07
1.008e-06
2.21329e-08
5.6148e-07
-7.17679e-07
-1.36303e-06
-8.40934e-08
0.00110119
1.11174e-06
-0.0011002
5.42056e-07
-1.52754e-06
2.71823e-08
-5.7502e-07
-1.36114e-06
-6.71865e-08
-7.13356e-07
5.7761e-07
1.01956e-06
0.00110019
1.11054e-06
-0.0010992
5.48267e-07
-1.55862e-06
3.30217e-08
-5.80446e-07
-1.36102e-06
-6.96823e-08
-7.10518e-07
5.77611e-07
1.1323e-06
5.51135e-07
0.0010968
-5.78815e-07
1.00514e-06
1.92065e-08
5.53151e-07
-7.14884e-07
-8.66455e-08
-1.35485e-06
1.11167e-06
-0.00109976
5.47355e-07
-1.52728e-06
2.73441e-08
-5.74784e-07
-1.35566e-06
-6.72776e-08
5.72152e-07
-7.13217e-07
1.0167e-06
0.00109982
1.11051e-06
-0.00109883
5.42862e-07
-1.55562e-06
3.01628e-08
-5.7742e-07
-1.35283e-06