/*--------------------------------*- C++ -*----------------------------------*\
| =========                 |                                                 |
| \\      /  F ield         | OpenFOAM: The Open Source CFD Toolbox           |
|  \\    /   O peration     | Version:  2312                                  |
|   \\  /    A nd           | Website:  www.openfoam.com                      |
|    \\/     M anipulation  |                                                 |
\*---------------------------------------------------------------------------*/
FoamFile
{
    version     2.0;
    format      ascii;
    arch        "LSB;label=32;scalar=64";
    class       volVectorField;
    location    "125";
    object      U;
}
// * * * * * * * * * * * * * * * * * * * * * * * * * * * * * * * * * * * * * //

dimensions      [0 1 -1 0 0 0 0];

internalField   nonuniform List<vector> 
43211
(
(0.000124338 0.000124328 0.100289)
(-0.000176456 0.000135325 0.100342)
(0.000135361 -0.000176471 0.100342)
(-0.000213132 -0.000213088 0.100397)
(9.66601e-05 9.66637e-05 0.100853)
(-0.00016402 0.000100732 0.100938)
(0.000100708 -0.000164024 0.100938)
(-0.000204355 -0.000204422 0.100966)
(9.47164e-05 9.47327e-05 0.101372)
(-0.000155627 9.38672e-05 0.101451)
(9.38656e-05 -0.000155628 0.101451)
(-0.000201896 -0.000201964 0.101471)
(9.37219e-05 9.3743e-05 0.101892)
(-0.000152277 9.0605e-05 0.101958)
(9.06141e-05 -0.000152288 0.101958)
(-0.00019936 -0.000199404 0.101964)
(9.10122e-05 9.10383e-05 0.102398)
(-0.000146337 8.5895e-05 0.102447)
(8.59106e-05 -0.000146349 0.102447)
(-0.00019384 -0.000193878 0.102432)
(8.81162e-05 8.81503e-05 0.102885)
(-0.000140679 8.18756e-05 0.102912)
(8.18937e-05 -0.000140691 0.102912)
(-0.000188451 -0.000188485 0.102871)
(8.53227e-05 8.53732e-05 0.103353)
(-0.000135539 7.86429e-05 0.103354)
(7.86562e-05 -0.000135549 0.103354)
(-0.000183903 -0.000183938 0.103281)
(8.28716e-05 8.29029e-05 0.103803)
(-0.0001311 7.61458e-05 0.103774)
(7.61794e-05 -0.000131111 0.103774)
(-0.000180356 -0.000180421 0.103664)
(8.06787e-05 8.06566e-05 0.104237)
(-0.000127366 7.44205e-05 0.104175)
(7.44067e-05 -0.000127362 0.104175)
(-0.000178293 -0.000178315 0.104023)
(7.8775e-05 7.87695e-05 0.104658)
(-0.000124132 7.30579e-05 0.104558)
(7.30527e-05 -0.000124133 0.104558)
(-0.000177114 -0.000177145 0.104359)
(7.71417e-05 7.7144e-05 0.105066)
(-0.000121299 7.18922e-05 0.104925)
(7.18899e-05 -0.0001213 0.104925)
(-0.00017644 -0.000176479 0.104673)
(7.56419e-05 7.56481e-05 0.105464)
(-0.000118741 7.07661e-05 0.105277)
(7.07658e-05 -0.000118742 0.105277)
(-0.000175999 -0.000176043 0.104967)
(7.41964e-05 7.42033e-05 0.105851)
(-0.000116306 6.95776e-05 0.105615)
(6.95836e-05 -0.000116307 0.105615)
(-0.000175636 -0.000175692 0.10524)
(7.27912e-05 7.27935e-05 0.106229)
(-0.000113916 6.83529e-05 0.105939)
(6.83376e-05 -0.00011392 0.105939)
(-0.000175357 -0.000175383 0.105491)
(7.13929e-05 7.13746e-05 0.106598)
(-0.000111597 6.72806e-05 0.106248)
(6.72606e-05 -0.000111597 0.106248)
(-0.000174503 -0.00017453 0.10572)
(6.99168e-05 6.99479e-05 0.106957)
(-0.000109493 6.6246e-05 0.106543)
(6.62417e-05 -0.000109492 0.106543)
(-0.000173435 -0.000173444 0.105927)
(6.8408e-05 6.84531e-05 0.107308)
(-0.000107491 6.52003e-05 0.106822)
(6.51965e-05 -0.000107499 0.106822)
(-0.000172134 -0.000172096 0.106108)
(6.69062e-05 6.69382e-05 0.107649)
(-0.000105467 6.41087e-05 0.107086)
(6.41122e-05 -0.000105495 0.107086)
(-0.000170394 -0.000170365 0.106264)
(6.53683e-05 6.54005e-05 0.107982)
(-0.000103554 6.30203e-05 0.107334)
(6.30151e-05 -0.000103553 0.107334)
(-0.00016819 -0.000168169 0.106394)
(6.3872e-05 6.3903e-05 0.108306)
(-0.000101671 6.19962e-05 0.107565)
(6.19988e-05 -0.000101668 0.107565)
(-0.000165486 -0.000165469 0.106497)
(6.23498e-05 6.23704e-05 0.108622)
(-9.95821e-05 6.09061e-05 0.107779)
(6.0914e-05 -9.95979e-05 0.107779)
(-0.000162098 -0.000162078 0.106573)
(0.000156341 0.000156374 0.100285)
(0.000129521 0.000155306 0.100244)
(-0.000129516 0.000155234 0.100244)
(-0.000156361 0.000156285 0.100285)
(0.00015531 0.000129491 0.100244)
(0.000155278 -0.00012951 0.100244)
(0.00012195 0.000121931 0.100218)
(-0.000121955 0.000121888 0.100218)
(0.000121921 -0.000121956 0.100218)
(-0.000121932 -0.000121927 0.100218)
(-0.000155324 0.000129447 0.100244)
(-0.000155295 -0.000129479 0.100244)
(0.000156312 -0.000156375 0.100285)
(0.000129478 -0.000155329 0.100244)
(-0.000129483 -0.000155283 0.100244)
(-0.000156348 -0.00015631 0.100285)
(0.000213128 0.000213184 0.100397)
(0.000116039 0.000115984 0.100892)
(0.000135403 0.000176451 0.100342)
(-0.000135397 0.000176378 0.100342)
(9.66213e-05 0.000156908 0.100824)
(-9.66489e-05 0.000156909 0.100824)
(-0.000213158 0.000213064 0.100397)
(-0.000116029 0.000115995 0.100892)
(0.000176452 0.000135377 0.100342)
(0.000176422 -0.000135394 0.100342)
(0.000156842 9.66454e-05 0.100824)
(0.00015684 -9.6627e-05 0.100824)
(-0.000176432 -0.000135363 0.100342)
(-0.000156843 9.66365e-05 0.100824)
(-0.000156863 -9.66479e-05 0.100824)
(0.000213097 -0.00021318 0.100397)
(0.000115968 -0.000116015 0.100892)
(-0.000135363 -0.000176424 0.100342)
(9.65976e-05 -0.000156842 0.100824)
(-9.66338e-05 -0.000156845 0.100824)
(-0.000116004 -0.000116033 0.100892)
(0.000204424 0.000204322 0.100966)
(0.000105435 0.000105332 0.101395)
(0.000100733 0.000164076 0.100938)
(-0.000100747 0.000164063 0.100938)
(9.43569e-05 0.000156089 0.101321)
(-9.43979e-05 0.000156091 0.101321)
(-0.000204427 0.000204315 0.100966)
(-0.000105429 0.000105366 0.101395)
(0.000164029 0.00010076 0.100938)
(0.00016403 -0.000100741 0.100938)
(0.000156032 9.43973e-05 0.101321)
(0.000156071 -9.43954e-05 0.101321)
(-0.000164042 -0.000100742 0.100938)
(-0.00015604 9.43684e-05 0.101321)
(-0.00015607 -9.43756e-05 0.101321)
(0.000204309 -0.000204412 0.100966)
(0.000105383 -0.000105408 0.101395)
(-0.000100742 -0.000164019 0.100938)
(9.43653e-05 -0.000156043 0.101321)
(-9.43902e-05 -0.00015603 0.101321)
(-0.000105392 -0.000105422 0.101395)
(0.00020196 0.000201829 0.101471)
(9.70403e-05 9.69825e-05 0.101893)
(9.38556e-05 0.000155676 0.10145)
(-9.38911e-05 0.000155674 0.10145)
(9.17664e-05 0.000153689 0.101833)
(-9.18034e-05 0.000153695 0.101833)
(-0.000201984 0.000201848 0.101471)
(-9.7069e-05 9.70256e-05 0.101893)
(0.000155619 9.38961e-05 0.101451)
(0.000155662 -9.38963e-05 0.101451)
(0.000153641 9.1798e-05 0.101833)
(0.000153693 -9.17909e-05 0.101833)
(-0.000155662 -9.38771e-05 0.101451)
(-0.000153643 9.17703e-05 0.101833)
(-0.000153682 -9.17795e-05 0.101833)
(0.000201876 -0.00020196 0.101471)
(9.7019e-05 -9.70671e-05 0.101893)
(-9.38953e-05 -0.000155626 0.101451)
(9.17757e-05 -0.000153654 0.101833)
(-9.17869e-05 -0.000153644 0.101833)
(-9.7042e-05 -9.70502e-05 0.101893)
(0.000199383 0.000199291 0.101964)
(8.63031e-05 8.62603e-05 0.102366)
(9.06039e-05 0.000152321 0.101958)
(-9.06402e-05 0.000152328 0.101958)
(8.70207e-05 0.000147847 0.102327)
(-8.70543e-05 0.00014785 0.102327)
(-0.000199437 0.000199314 0.101964)
(-8.63368e-05 8.63068e-05 0.102366)
(0.000152274 9.06327e-05 0.101958)
(0.000152328 -9.06253e-05 0.101958)
(0.000147808 8.70464e-05 0.102327)
(0.000147856 -8.70348e-05 0.102327)
(-0.000152315 -9.06161e-05 0.101958)
(-0.000147805 8.70196e-05 0.102327)
(-0.000147842 -8.70316e-05 0.102327)
(0.000199322 -0.000199435 0.101964)
(8.62997e-05 -8.63443e-05 0.102366)
(-9.06221e-05 -0.000152278 0.101958)
(8.70326e-05 -0.000147818 0.102327)
(-8.70364e-05 -0.000147808 0.102327)
(-8.63187e-05 -8.63177e-05 0.102366)
(0.000193848 0.000193771 0.102432)
(7.6287e-05 7.62613e-05 0.102812)
(8.58979e-05 0.000146378 0.102447)
(-8.59292e-05 0.000146377 0.102447)
(8.28147e-05 0.000142102 0.102798)
(-8.28288e-05 0.000142093 0.102798)
(-0.000193907 0.000193796 0.102432)
(-7.63091e-05 7.6284e-05 0.102812)
(0.000146337 8.59219e-05 0.102447)
(0.000146387 -8.59103e-05 0.102447)
(0.000142065 8.28383e-05 0.102798)
(0.000142111 -8.28195e-05 0.102798)
(-0.000146373 -8.59073e-05 0.102447)
(-0.00014206 8.28121e-05 0.102798)
(-0.000142096 -8.2823e-05 0.102798)
(0.000193804 -0.000193917 0.102432)
(7.62942e-05 -7.6338e-05 0.102812)
(-8.59127e-05 -0.00014634 0.102447)
(8.28288e-05 -0.000142073 0.102798)
(-8.28285e-05 -0.000142065 0.102798)
(-7.63122e-05 -7.63076e-05 0.102812)
(0.000188448 0.000188388 0.102871)
(6.72795e-05 6.72729e-05 0.10323)
(8.1879e-05 0.00014072 0.102912)
(-8.18896e-05 0.00014071 0.102912)
(7.93661e-05 0.000136804 0.103246)
(-7.93712e-05 0.000136795 0.103246)
(-0.000188497 0.000188389 0.102871)
(-6.72969e-05 6.7288e-05 0.10323)
(0.000140681 8.19006e-05 0.102912)
(0.000140729 -8.18812e-05 0.102912)
(0.000136763 7.93993e-05 0.103246)
(0.000136805 -7.93599e-05 0.103246)
(-0.000140714 -8.18833e-05 0.102912)
(-0.000136758 7.93758e-05 0.103246)
(-0.00013679 -7.93727e-05 0.103246)
(0.000188415 -0.000188526 0.102871)
(6.72947e-05 -6.73381e-05 0.10323)
(-8.18909e-05 -0.000140683 0.102912)
(7.93858e-05 -0.000136769 0.103246)
(-7.93817e-05 -0.000136761 0.103246)
(-6.73129e-05 -6.73065e-05 0.10323)
(0.000183896 0.000183849 0.103281)
(5.93192e-05 5.92798e-05 0.103621)
(7.86348e-05 0.000135585 0.103354)
(-7.86404e-05 0.000135577 0.103354)
(7.66804e-05 0.000132169 0.103671)
(-7.66883e-05 0.000132164 0.103671)
(-0.000183942 0.000183843 0.103281)
(-5.93385e-05 5.93124e-05 0.103621)
(0.00013554 7.86642e-05 0.103354)
(0.000135584 -7.86259e-05 0.103354)
(0.000132148 7.67289e-05 0.103671)
(0.000132185 -7.66803e-05 0.103671)
(-0.000135569 -7.86341e-05 0.103354)
(-0.000132143 7.67076e-05 0.103671)
(-0.000132168 -7.67032e-05 0.103671)
(0.000183862 -0.000183981 0.103281)
(5.93358e-05 -5.93911e-05 0.103621)
(-7.86474e-05 -0.00013554 0.103354)
(7.67293e-05 -0.000132156 0.103671)
(-7.67177e-05 -0.000132142 0.103671)
(-5.93423e-05 -5.93432e-05 0.103621)
(0.000180384 0.000180266 0.103664)
(5.27524e-05 5.27872e-05 0.103988)
(7.61531e-05 0.000131133 0.103774)
(-7.61556e-05 0.000131125 0.103774)
(7.48929e-05 0.000128285 0.104076)
(-7.48939e-05 0.00012828 0.104076)
(-0.000180426 0.000180276 0.103664)
(-5.27809e-05 5.28298e-05 0.103988)
(0.000131102 7.61742e-05 0.103774)
(0.000131148 -7.6148e-05 0.103774)
(0.000128251 7.48394e-05 0.104077)
(0.000128301 -7.48854e-05 0.104077)
(-0.000131124 -7.61397e-05 0.103774)
(-0.000128246 7.48053e-05 0.104077)
(-0.000128277 -7.4865e-05 0.104076)
(0.000180314 -0.000180497 0.103664)
(5.28158e-05 -5.27435e-05 0.103988)
(-7.61545e-05 -0.000131096 0.103774)
(7.4786e-05 -0.000128241 0.104077)
(-7.48256e-05 -0.000128242 0.104077)
(-5.2792e-05 -5.27513e-05 0.103988)
(0.000178293 0.000178254 0.104023)
(4.69972e-05 4.70232e-05 0.104333)
(7.45093e-05 0.000127404 0.104175)
(-7.45055e-05 0.000127399 0.104175)
(7.34669e-05 0.000124941 0.104464)
(-7.34496e-05 0.000124935 0.104464)
(-0.000178342 0.00017827 0.104023)
(-4.70462e-05 4.70651e-05 0.104333)
(0.000127368 7.44581e-05 0.104175)
(0.000127423 -7.45055e-05 0.104175)
(0.000124914 7.34247e-05 0.104464)
(0.000124964 -7.34631e-05 0.104464)
(-0.000127398 -7.44827e-05 0.104175)
(-0.000124899 7.33761e-05 0.104464)
(-0.000124937 -7.34401e-05 0.104464)
(0.000178279 -0.000178332 0.104023)
(4.70562e-05 -4.70109e-05 0.104333)
(-7.44431e-05 -0.000127363 0.104175)
(7.33683e-05 -0.000124899 0.104464)
(-7.33996e-05 -0.0001249 0.104464)
(-4.70383e-05 -4.70086e-05 0.104333)
(0.00017711 0.000177066 0.104359)
(4.16299e-05 4.16543e-05 0.104657)
(7.31491e-05 0.000124175 0.104558)
(-7.31286e-05 0.000124169 0.104558)
(7.22715e-05 0.000122025 0.104834)
(-7.22426e-05 0.000122015 0.104834)
(-0.000177176 0.000177083 0.104359)
(-4.16834e-05 4.16939e-05 0.104657)
(0.000124145 7.31102e-05 0.104558)
(0.0001242 -7.31446e-05 0.104558)
(0.000121994 7.22352e-05 0.104834)
(0.000122049 -7.22619e-05 0.104834)
(-0.000124171 -7.3122e-05 0.104558)
(-0.000121975 7.21752e-05 0.104834)
(-0.000122018 -7.224e-05 0.104834)
(0.000177096 -0.000177167 0.104359)
(4.16852e-05 -4.16532e-05 0.104657)
(-7.30831e-05 -0.000124133 0.104558)
(7.21706e-05 -0.000121976 0.104834)
(-7.21997e-05 -0.000121979 0.104834)
(-4.16669e-05 -4.16454e-05 0.104657)
(0.000176437 0.000176393 0.104673)
(3.64994e-05 3.65058e-05 0.104962)
(7.19858e-05 0.000121346 0.104925)
(-7.19566e-05 0.00012134 0.104925)
(7.11407e-05 0.000119405 0.10519)
(-7.11103e-05 0.000119404 0.10519)
(-0.000176508 0.000176409 0.104673)
(-3.65717e-05 3.65633e-05 0.104962)
(0.000121313 7.19523e-05 0.104925)
(0.000121375 -7.1979e-05 0.104925)
(0.000119382 7.11097e-05 0.10519)
(0.000119443 -7.11322e-05 0.10519)
(-0.000121343 -7.19564e-05 0.104925)
(-0.000119362 7.10491e-05 0.10519)
(-0.000119409 -7.11148e-05 0.10519)
(0.000176423 -0.000176506 0.104673)
(3.65524e-05 -3.65358e-05 0.104961)
(-7.1918e-05 -0.000121303 0.104925)
(7.10453e-05 -0.000119364 0.10519)
(-7.10734e-05 -0.000119367 0.10519)
(-3.65362e-05 -3.65194e-05 0.104961)
(0.000175996 0.000175934 0.104967)
(3.15105e-05 3.15e-05 0.105247)
(7.08564e-05 0.000118782 0.105277)
(-7.08224e-05 0.000118782 0.105277)
(6.99861e-05 0.000116955 0.105532)
(-6.99354e-05 0.000116948 0.105532)
(-0.000176085 0.000175968 0.104967)
(-3.16085e-05 3.15698e-05 0.105247)
(0.000118755 7.08296e-05 0.105277)
(0.000118821 -7.08506e-05 0.105277)
(0.000116929 6.99621e-05 0.105532)
(0.000116993 -6.99674e-05 0.105532)
(-0.000118787 -7.08311e-05 0.105277)
(-0.000116907 6.98892e-05 0.105532)
(-0.000116957 -6.99594e-05 0.105532)
(0.000175979 -0.000176078 0.104967)
(3.15563e-05 -3.15598e-05 0.105246)
(-7.07926e-05 -0.000118744 0.105277)
(6.98894e-05 -0.00011691 0.105532)
(-6.99179e-05 -0.000116911 0.105532)
(-3.15381e-05 -3.15322e-05 0.105246)
(0.000175645 0.000175559 0.10524)
(2.66561e-05 2.66548e-05 0.105512)
(6.96762e-05 0.000116362 0.105615)
(-6.96074e-05 0.000116347 0.105615)
(6.87235e-05 0.000114598 0.105859)
(-6.8723e-05 0.000114562 0.105859)
(-0.000175787 0.000175618 0.10524)
(-2.65932e-05 2.6706e-05 0.105512)
(0.000116323 6.96573e-05 0.105615)
(0.000116391 -6.96574e-05 0.105615)
(0.000114539 6.87046e-05 0.105859)
(0.000114609 -6.87242e-05 0.105859)
(-0.000116356 -6.96474e-05 0.105615)
(-0.000114502 6.86441e-05 0.105859)
(-0.000114575 -6.86864e-05 0.105859)
(0.00017562 -0.000175752 0.10524)
(2.67061e-05 -2.66328e-05 0.105511)
(-6.96118e-05 -0.000116309 0.105615)
(6.86279e-05 -0.000114509 0.105859)
(-6.8644e-05 -0.000114515 0.105859)
(-2.66985e-05 -2.66723e-05 0.105511)
(0.000175332 0.000175262 0.105491)
(2.15451e-05 2.15991e-05 0.105755)
(6.84367e-05 0.000114015 0.105938)
(-6.84525e-05 0.000113976 0.105938)
(6.76255e-05 0.000112272 0.106172)
(-6.76568e-05 0.000112235 0.106172)
(-0.000175321 0.000175307 0.105491)
(-2.14396e-05 2.15626e-05 0.105756)
(0.000113942 6.839e-05 0.105939)
(0.000114022 -6.84504e-05 0.105938)
(0.000112189 6.7553e-05 0.106172)
(0.000112281 -6.76509e-05 0.106172)
(-0.000113987 -6.84053e-05 0.105938)
(-0.000112164 6.75503e-05 0.106172)
(-0.000112245 -6.76045e-05 0.106172)
(0.000175326 -0.000175373 0.105491)
(2.15619e-05 -2.14803e-05 0.105755)
(-6.83482e-05 -0.000113924 0.105939)
(6.75265e-05 -0.000112167 0.106172)
(-6.75337e-05 -0.000112166 0.106172)
(-2.15709e-05 -2.15303e-05 0.105755)
(0.000174508 0.000174478 0.105721)
(1.65849e-05 1.66501e-05 0.105977)
(6.73616e-05 0.000111705 0.106248)
(-6.73894e-05 0.000111661 0.106248)
(6.65764e-05 0.000110038 0.10647)
(-6.6619e-05 0.000110087 0.10647)
(-0.000174454 0.00017444 0.10572)
(-1.65193e-05 1.66312e-05 0.105978)
(0.000111613 6.72886e-05 0.106248)
(0.000111711 -6.7384e-05 0.106248)
(0.000110034 6.65361e-05 0.106471)
(0.00011008 -6.6605e-05 0.10647)
(-0.000111678 -6.73394e-05 0.106248)
(-0.000110016 6.65171e-05 0.106471)
(-0.000110006 -6.65496e-05 0.10647)
(0.000174459 -0.000174512 0.105721)
(1.66231e-05 -1.65339e-05 0.105977)
(-6.72692e-05 -0.000111597 0.106248)
(6.65042e-05 -0.00011002 0.106471)
(-6.65118e-05 -0.000110012 0.10647)
(-1.66222e-05 -1.65665e-05 0.105977)
(0.000173429 0.000173413 0.105927)
(1.19658e-05 1.20746e-05 0.106176)
(6.63062e-05 0.000109485 0.106543)
(-6.63519e-05 0.000109559 0.106542)
(6.55464e-05 0.000108028 0.106754)
(-6.55915e-05 0.000108097 0.106754)
(-0.000173414 0.000173391 0.105926)
(-1.19355e-05 1.20435e-05 0.106176)
(0.000109502 6.6276e-05 0.106543)
(0.000109554 -6.63366e-05 0.106542)
(0.000108045 6.55149e-05 0.106754)
(0.000108103 -6.55716e-05 0.106754)
(-0.000109451 -6.62745e-05 0.106542)
(-0.000108017 6.54889e-05 0.106754)
(-0.000107996 -6.55147e-05 0.106754)
(0.000173402 -0.000173447 0.105927)
(1.20463e-05 -1.19362e-05 0.106176)
(-6.62489e-05 -0.000109484 0.106543)
(6.54782e-05 -0.000108027 0.106754)
(-6.54895e-05 -0.000108019 0.106754)
(-1.20523e-05 -1.19434e-05 0.106176)
(0.000172078 0.0001721 0.106108)
(7.75934e-06 7.84092e-06 0.10635)
(6.52682e-05 0.000107502 0.106822)
(-6.53037e-05 0.000107555 0.106822)
(6.44498e-05 0.000105977 0.107022)
(-6.44692e-05 0.000106007 0.107022)
(-0.000172095 0.000172065 0.106108)
(-7.70985e-06 7.80368e-06 0.10635)
(0.000107518 6.52305e-05 0.106822)
(0.000107576 -6.52904e-05 0.106822)
(0.000105985 6.43986e-05 0.107022)
(0.000106051 -6.44673e-05 0.107022)
(-0.000107465 -6.52362e-05 0.106822)
(-0.000105945 6.43659e-05 0.107022)
(-0.000105928 -6.44142e-05 0.107022)
(0.000172094 -0.000172121 0.106108)
(7.82012e-06 -7.72762e-06 0.10635)
(-6.52086e-05 -0.000107494 0.106822)
(6.4366e-05 -0.000105983 0.107022)
(-6.43757e-05 -0.000105957 0.107022)
(-7.82805e-06 -7.72808e-06 0.10635)
(0.000170354 0.000170357 0.106265)
(3.91845e-06 3.99492e-06 0.106498)
(6.41961e-05 0.000105521 0.107086)
(-6.42117e-05 0.000105549 0.107086)
(6.33733e-05 0.000104094 0.107274)
(-6.33927e-05 0.000104117 0.107273)
(-0.000170353 0.000170312 0.106264)
(-3.87756e-06 3.96008e-06 0.106498)
(0.000105515 6.41472e-05 0.107086)
(0.000105564 -6.42147e-05 0.107086)
(0.000104046 6.33184e-05 0.107274)
(0.000104094 -6.33889e-05 0.107273)
(-0.00010547 -6.41613e-05 0.107086)
(-0.000104027 6.32833e-05 0.107274)
(-0.000104041 -6.33378e-05 0.107273)
(0.000170351 -0.000170394 0.106265)
(3.96123e-06 -3.87827e-06 0.106498)
(-6.41213e-05 -0.000105481 0.107086)
(6.32793e-05 -0.000104027 0.107274)
(-6.32914e-05 -0.000104039 0.107274)
(-3.98248e-06 -3.89272e-06 0.106497)
(0.000168156 0.000168155 0.106394)
(4.83663e-07 5.52458e-07 0.106619)
(6.3107e-05 0.000103622 0.107334)
(-6.31323e-05 0.000103644 0.107334)
(6.23316e-05 0.000102183 0.107509)
(-6.23718e-05 0.00010223 0.107509)
(-0.000168163 0.000168115 0.106394)
(-4.81642e-07 5.5805e-07 0.106619)
(0.000103566 6.30541e-05 0.107334)
(0.000103618 -6.3113e-05 0.107334)
(0.000102147 6.22744e-05 0.107509)
(0.000102209 -6.23558e-05 0.107509)
(-0.000103566 -6.30716e-05 0.107334)
(-0.000102146 6.22583e-05 0.107509)
(-0.000102164 -6.23172e-05 0.107509)
(0.000168134 -0.000168187 0.106394)
(5.40924e-07 -4.63376e-07 0.106619)
(-6.3025e-05 -0.000103561 0.107334)
(6.22598e-05 -0.00010215 0.107509)
(-6.2266e-05 -0.000102159 0.107509)
(-5.68453e-07 -4.84087e-07 0.106618)
(0.00016543 0.000165416 0.106497)
(-2.57522e-06 -2.52014e-06 0.106712)
(6.20698e-05 0.000101713 0.107565)
(-6.21144e-05 0.000101761 0.107565)
(6.12266e-05 0.000100089 0.107727)
(-6.12397e-05 0.000100101 0.107727)
(-0.000165466 0.000165419 0.106497)
(2.61671e-06 -2.53207e-06 0.106712)
(0.000101678 6.20156e-05 0.107565)
(0.00010174 -6.21065e-05 0.107565)
(0.00010004 6.11636e-05 0.107727)
(0.000100083 -6.12191e-05 0.107727)
(-0.00010169 -6.206e-05 0.107565)
(-0.000100008 6.11167e-05 0.107727)
(-0.000100034 -6.11829e-05 0.107727)
(0.000165424 -0.000165482 0.106497)
(-2.56623e-06 2.62986e-06 0.106712)
(-6.20089e-05 -0.000101693 0.107565)
(6.11207e-05 -0.000100006 0.107727)
(-6.11347e-05 -0.000100029 0.107727)
(2.52332e-06 2.60931e-06 0.106711)
(0.000162086 0.000162065 0.106573)
(6.10322e-05 9.9686e-05 0.107779)
(-6.10335e-05 9.96933e-05 0.107778)
(-0.000162072 0.000162034 0.106573)
(9.96305e-05 6.09628e-05 0.107779)
(9.96736e-05 -6.10165e-05 0.107778)
(-9.96091e-05 -6.09774e-05 0.107778)
(0.00016202 -0.00016209 0.106573)
(-6.09288e-05 -9.96258e-05 0.107779)
(1.24741e-06 1.24499e-06 0.0999994)
(1.59787e-05 1.59733e-05 0.100001)
(1.53635e-06 1.37706e-05 0.0999998)
(1.37771e-05 1.53425e-06 0.0999998)
(-4.86825e-05 5.70141e-06 0.100008)
(-2.19186e-05 1.83004e-05 0.1)
(-0.000127869 6.03093e-05 0.100058)
(-1.76783e-05 1.7607e-06 0.0999985)
(5.70007e-06 -4.86689e-05 0.100008)
(1.83052e-05 -2.19159e-05 0.1)
(1.76229e-06 -1.76766e-05 0.0999985)
(6.03131e-05 -0.000127822 0.100058)
(-2.50331e-05 -2.50352e-05 0.100004)
(-0.000134781 -8.09366e-05 0.100055)
(-8.0936e-05 -0.000134729 0.100055)
(-3.43506e-05 0.000137164 0.100737)
(0.000175651 0.000388774 0.0994252)
(2.26628e-06 0.000302174 0.100525)
(-8.5006e-05 0.000245513 0.0991599)
(-0.000303139 0.000837035 0.0977809)
(-0.000128462 0.000305712 0.095732)
(0.000137 -3.44149e-05 0.100737)
(0.000388944 0.000175045 0.0994253)
(0.000302793 2.19668e-06 0.100526)
(0.000245628 -8.46964e-05 0.0991599)
(-0.000124339 0.000124283 0.100289)
(0.000124321 -0.000124344 0.100289)
(-0.000124326 -0.000124314 0.100289)
(9.51812e-05 9.51884e-05 0.100737)
(-9.51776e-05 9.51839e-05 0.100737)
(9.51658e-05 -9.51805e-05 0.100737)
(-9.51766e-05 -9.51915e-05 0.100737)
(-0.000285848 6.32197e-06 0.100768)
(-0.000389987 0.000227406 0.100533)
(-0.000157429 2.29445e-05 0.100284)
(-0.000160587 0.000101568 0.100585)
(-0.000350157 1.58154e-05 0.100489)
(-0.00015329 0.000198694 0.100753)
(-0.000159143 3.57047e-05 0.100524)
(0.000835845 -0.000301523 0.09778)
(0.000305601 -0.000128427 0.0957322)
(6.30091e-06 -0.000285891 0.100767)
(2.29665e-05 -0.000157432 0.100284)
(0.000227475 -0.000389905 0.100533)
(0.000101585 -0.000160599 0.100585)
(1.58402e-05 -0.000350155 0.100489)
(3.57259e-05 -0.000159159 0.100524)
(0.000198708 -0.000153373 0.100753)
(-0.000369941 -0.000141094 0.100369)
(-0.000141123 -0.000369714 0.100369)
(-0.000118328 -0.000118307 0.100671)
(9.89636e-06 -8.0163e-05 0.100602)
(-8.02062e-05 9.82719e-06 0.100602)
(-1.65246e-05 0.000197761 0.100866)
(-5.55081e-05 0.000289384 0.0983221)
(-2.02279e-05 0.000209164 0.100779)
(-4.54234e-05 0.000271854 0.0979432)
(-0.000150565 0.000314304 0.0926235)
(-0.00013699 0.000273567 0.0909982)
(0.000197767 -1.6553e-05 0.100866)
(0.000289454 -5.52206e-05 0.0983221)
(0.000209218 -2.02774e-05 0.100779)
(0.000271923 -4.51916e-05 0.0979431)
(-9.66594e-05 9.66471e-05 0.100853)
(9.66413e-05 -9.66663e-05 0.100853)
(-9.66582e-05 -9.66756e-05 0.100853)
(9.52285e-05 9.524e-05 0.101239)
(-9.52364e-05 9.52158e-05 0.101239)
(9.5228e-05 -9.52477e-05 0.101239)
(-9.52453e-05 -9.52483e-05 0.101239)
(-0.000263994 1.33313e-05 0.101151)
(-0.00022064 0.000213898 0.100819)
(-0.000170561 3.22029e-05 0.100893)
(-0.000161593 9.87924e-05 0.101062)
(-0.000300761 1.41737e-05 0.100978)
(-0.000183826 0.000197298 0.100943)
(-0.000170736 3.29931e-05 0.101016)
(0.000314044 -0.000150432 0.0926232)
(0.000273463 -0.000136964 0.0909977)
(1.33074e-05 -0.000264005 0.101151)
(3.21967e-05 -0.000170565 0.100893)
(0.000213893 -0.000220656 0.100819)
(9.87709e-05 -0.000161596 0.101062)
(1.41519e-05 -0.000300795 0.100978)
(3.2991e-05 -0.000170739 0.101016)
(0.000197298 -0.000183796 0.100943)
(-8.417e-05 -9.74873e-05 0.100439)
(-9.73093e-05 -8.41335e-05 0.100439)
(-0.000112316 -0.000112367 0.101142)
(-8.67192e-05 -8.24019e-05 0.100428)
(-8.23542e-05 -8.6666e-05 0.100427)
(-9.42114e-06 0.000210271 0.100956)
(-2.26293e-05 0.000281939 0.0971378)
(-1.1646e-05 0.000229796 0.100904)
(-1.29355e-05 0.000257317 0.0967122)
(-0.000116966 0.000226223 0.0883857)
(-9.64911e-05 0.00018761 0.0870649)
(0.000210288 -9.46654e-06 0.100956)
(0.000281953 -2.25233e-05 0.0971378)
(0.000229811 -1.16996e-05 0.100904)
(0.000257322 -1.28332e-05 0.0967119)
(-9.47292e-05 9.47123e-05 0.101372)
(9.47229e-05 -9.47408e-05 0.101372)
(-9.4738e-05 -9.47382e-05 0.101372)
(9.42259e-05 9.42465e-05 0.101763)
(-9.42426e-05 9.42228e-05 0.101763)
(9.42378e-05 -9.42499e-05 0.101763)
(-9.42458e-05 -9.42515e-05 0.101763)
(-0.00025098 1.22277e-05 0.10158)
(-0.000222828 0.000189893 0.101028)
(-0.000167237 3.31037e-05 0.101409)
(-0.000155407 9.34924e-05 0.101579)
(-0.000289905 1.21096e-05 0.101414)
(-0.000182655 0.000168792 0.101123)
(-0.00016755 3.30788e-05 0.101539)
(0.000226115 -0.000116969 0.0883857)
(0.000187522 -9.64976e-05 0.087064)
(1.22206e-05 -0.000250965 0.10158)
(3.31092e-05 -0.000167231 0.101409)
(0.00018988 -0.000222827 0.101028)
(9.34867e-05 -0.000155413 0.101579)
(1.21244e-05 -0.000289942 0.101414)
(3.30838e-05 -0.000167556 0.101539)
(0.00016881 -0.000182635 0.101123)
(-0.000116273 -9.10731e-05 0.100182)
(-9.10241e-05 -0.000116229 0.100183)
(-0.00010187 -0.000101885 0.101647)
(-0.000112306 -7.19764e-05 0.100086)
(-7.19324e-05 -0.000112258 0.100084)
(-7.03186e-06 0.000209815 0.100952)
(4.92223e-06 0.00025852 0.0958589)
(-7.93176e-06 0.000235971 0.100928)
(9.66677e-06 0.000229926 0.0954227)
(-7.68914e-05 0.000150295 0.084977)
(-5.87188e-05 0.000119196 0.0839652)
(0.000209827 -7.06672e-06 0.100952)
(0.000258526 5.00773e-06 0.0958585)
(0.000235988 -7.96953e-06 0.100928)
(0.000229924 9.7416e-06 0.0954222)
(-9.37397e-05 9.3718e-05 0.101892)
(9.37354e-05 -9.37427e-05 0.101892)
(-9.37418e-05 -9.37473e-05 0.101892)
(9.17138e-05 9.17383e-05 0.102273)
(-9.1732e-05 9.17146e-05 0.102273)
(9.1733e-05 -9.17292e-05 0.102273)
(-9.17358e-05 -9.17373e-05 0.102273)
(-0.00023835 1.11564e-05 0.101978)
(-0.000220235 0.00016238 0.101142)
(-0.000165451 3.23913e-05 0.101924)
(-0.000150803 8.93957e-05 0.102082)
(-0.000282521 1.10039e-05 0.101822)
(-0.000175243 0.000140778 0.101213)
(-0.000163982 3.20298e-05 0.102051)
(0.000150223 -7.69129e-05 0.0849771)
(0.000119128 -5.87313e-05 0.083964)
(1.11412e-05 -0.000238325 0.101978)
(3.23892e-05 -0.000165453 0.101924)
(0.000162365 -0.000220218 0.101142)
(8.94058e-05 -0.000150815 0.102082)
(1.10069e-05 -0.000282546 0.101822)
(3.20244e-05 -0.000163995 0.102051)
(0.000140806 -0.000175223 0.101212)
(-0.000133413 -7.90783e-05 0.0997189)
(-7.90521e-05 -0.00013338 0.099719)
(-9.16517e-05 -9.16546e-05 0.102133)
(-0.000124079 -5.98955e-05 0.0995696)
(-5.98673e-05 -0.000124046 0.0995682)
(-6.49597e-06 0.000201983 0.10085)
(1.8513e-05 0.00022714 0.0945622)
(-6.90548e-06 0.000230972 0.100854)
(1.82327e-05 0.000197695 0.0941432)
(-4.49756e-05 9.55796e-05 0.0823422)
(-3.07932e-05 7.22014e-05 0.081591)
(0.000201993 -6.52261e-06 0.10085)
(0.000227137 1.85786e-05 0.0945617)
(0.000230988 -6.93361e-06 0.100854)
(0.000197685 1.82858e-05 0.0941427)
(-9.10315e-05 9.10162e-05 0.102398)
(9.10339e-05 -9.10266e-05 0.102398)
(-9.10355e-05 -9.10352e-05 0.102398)
(8.88474e-05 8.88789e-05 0.102765)
(-8.88648e-05 8.88664e-05 0.102765)
(8.88752e-05 -8.88577e-05 0.102765)
(-8.88733e-05 -8.88682e-05 0.102765)
(-0.000223327 1.02682e-05 0.102335)
(-0.000211194 0.000137164 0.101162)
(-0.000159105 3.09067e-05 0.102425)
(-0.000144891 8.48222e-05 0.102565)
(-0.000270756 9.899e-06 0.10219)
(-0.000164409 0.000116715 0.101212)
(-0.000157399 3.05423e-05 0.102547)
(9.55394e-05 -4.50114e-05 0.0823426)
(7.21474e-05 -3.08094e-05 0.0815896)
(1.02516e-05 -0.000223299 0.102335)
(3.08991e-05 -0.000159109 0.102425)
(0.000137158 -0.000211181 0.101162)
(8.48373e-05 -0.000144905 0.102565)
(9.90342e-06 -0.00027078 0.10219)
(3.05326e-05 -0.000157411 0.102547)
(0.00011675 -0.000164392 0.101212)
(-0.000138253 -6.83013e-05 0.0991146)
(-6.82885e-05 -0.000138232 0.0991146)
(-8.1198e-05 -8.11948e-05 0.102593)
(-0.000125935 -5.04989e-05 0.098931)
(-5.04828e-05 -0.000125907 0.0989292)
(-6.17099e-06 0.000190349 0.100663)
(2.01778e-05 0.000194704 0.093313)
(-6.70019e-06 0.000220764 0.10069)
(1.68731e-05 0.000165857 0.0929274)
(-2.37594e-05 6.01739e-05 0.0803355)
(-1.30473e-05 4.25242e-05 0.0797844)
(0.000190354 -6.19196e-06 0.100663)
(0.000194693 2.02308e-05 0.0933124)
(0.000220776 -6.72106e-06 0.10069)
(0.000165841 1.69044e-05 0.0929268)
(-8.81335e-05 8.81405e-05 0.102885)
(8.81466e-05 -8.81248e-05 0.102885)
(-8.81435e-05 -8.8136e-05 0.102885)
(8.59921e-05 8.6039e-05 0.103238)
(-8.60068e-05 8.60322e-05 0.103238)
(8.60305e-05 -8.59955e-05 0.103238)
(-8.60227e-05 -8.60089e-05 0.103238)
(-0.000207602 9.72855e-06 0.10265)
(-0.000199656 0.000116372 0.101097)
(-0.000152236 2.95173e-05 0.102905)
(-0.000139329 8.09911e-05 0.103025)
(-0.000257204 9.16198e-06 0.102514)
(-0.00015233 9.72097e-05 0.101131)
(-0.000150509 2.9205e-05 0.103021)
(6.01621e-05 -2.3806e-05 0.0803362)
(4.246e-05 -1.3054e-05 0.0797826)
(9.70893e-06 -0.000207573 0.102649)
(2.95067e-05 -0.00015224 0.102905)
(0.000116366 -0.000199647 0.101097)
(8.10049e-05 -0.000139341 0.103025)
(9.16617e-06 -0.000257228 0.102514)
(2.91924e-05 -0.000150522 0.103021)
(9.72439e-05 -0.000152316 0.10113)
(-0.000135632 -6.05966e-05 0.0984174)
(-6.05943e-05 -0.000135616 0.0984173)
(-7.16775e-05 -7.16721e-05 0.103024)
(-0.000121785 -4.40466e-05 0.0982124)
(-4.40411e-05 -0.000121763 0.0982102)
(-5.04653e-06 0.000176697 0.100404)
(1.53979e-05 0.000164864 0.0921486)
(-5.91693e-06 0.000207805 0.10045)
(1.05086e-05 0.000137215 0.0918037)
(-1.10871e-05 3.86776e-05 0.0788043)
(-2.7565e-06 2.48395e-05 0.0784011)
(0.000176698 -5.05822e-06 0.100404)
(0.00016483 1.53142e-05 0.092148)
(0.000207812 -5.93621e-06 0.10045)
(0.000137194 1.05525e-05 0.091803)
(-8.53388e-05 8.53677e-05 0.103353)
(8.53652e-05 -8.5324e-05 0.103353)
(-8.53561e-05 -8.53391e-05 0.103353)
(8.34508e-05 8.34988e-05 0.103692)
(-8.34676e-05 8.34964e-05 0.103692)
(8.34991e-05 -8.34516e-05 0.103692)
(-8.34883e-05 -8.34682e-05 0.103692)
(-0.000192267 9.56733e-06 0.102924)
(-0.000187365 9.97e-05 0.100959)
(-0.000145549 2.83914e-05 0.103363)
(-0.000134362 7.79601e-05 0.103461)
(-0.000243361 8.78708e-06 0.102796)
(-0.000140267 8.1609e-05 0.100979)
(-0.000143967 2.816e-05 0.103475)
(3.86392e-05 -1.10863e-05 0.0788057)
(2.46759e-05 -2.63922e-06 0.0783988)
(9.5456e-06 -0.000192238 0.102923)
(2.83747e-05 -0.000145554 0.103363)
(9.96881e-05 -0.000187362 0.10096)
(7.79688e-05 -0.000134373 0.103461)
(8.7879e-06 -0.000243386 0.102796)
(2.81409e-05 -0.00014398 0.103475)
(8.16396e-05 -0.000140255 0.100979)
(-0.00012883 -5.50585e-05 0.0976627)
(-5.50642e-05 -0.00012882 0.0976625)
(-6.32098e-05 -6.32031e-05 0.103428)
(-0.000114328 -3.92947e-05 0.0974474)
(-3.92956e-05 -0.000114314 0.0974449)
(-3.22509e-06 0.000162405 0.100085)
(7.68642e-06 0.000139184 0.0910852)