/*--------------------------------*- C++ -*----------------------------------*\
| =========                 |                                                 |
| \\      /  F ield         | OpenFOAM: The Open Source CFD Toolbox           |
|  \\    /   O peration     | Version:  2312                                  |
|   \\  /    A nd           | Website:  www.openfoam.com                      |
|    \\/     M anipulation  |                                                 |
\*---------------------------------------------------------------------------*/
FoamFile
{
    version     2.0;
    format      ascii;
    arch        "LSB;label=32;scalar=64";
    class       volScalarField;
    location    "350";
    object      epsilon;
}
// * * * * * * * * * * * * * * * * * * * * * * * * * * * * * * * * * * * * * //

dimensions      [0 2 -3 0 0 0 0];

internalField   nonuniform List<scalar> 
42840
(
1.31331e-07
2.40765e-07
2.40792e-07
3.83781e-07
1.29953e-07
2.53417e-07
2.53441e-07
4.12546e-07
1.29355e-07
2.68098e-07
2.68128e-07
4.4455e-07
1.2954e-07
2.84746e-07
2.84775e-07
4.77217e-07
1.30484e-07
3.03271e-07
3.03301e-07
5.12559e-07
1.32189e-07
3.23565e-07
3.236e-07
5.4899e-07
1.34653e-07
3.45513e-07
3.45551e-07
5.86033e-07
1.37877e-07
3.68965e-07
3.69013e-07
6.23746e-07
1.41863e-07
3.93786e-07
3.93845e-07
6.61461e-07
1.46616e-07
4.19828e-07
4.19891e-07
6.992e-07
1.52142e-07
4.46912e-07
4.46986e-07
7.36553e-07
1.58444e-07
4.74877e-07
4.74961e-07
7.72473e-07
1.65528e-07
5.03552e-07
5.03655e-07
8.07359e-07
1.73397e-07
5.3277e-07
5.32874e-07
8.41097e-07
1.8205e-07
5.62344e-07
5.62457e-07
8.73655e-07
1.91484e-07
5.92111e-07
5.92223e-07
9.05072e-07
2.0169e-07
6.21902e-07
6.22009e-07
9.35253e-07
2.12654e-07
6.51559e-07
6.51661e-07
9.64224e-07
2.24355e-07
6.80928e-07
6.81032e-07
9.92049e-07
2.36768e-07
7.09882e-07
7.09982e-07
1.01858e-06
2.49859e-07
7.38293e-07
7.38396e-07
1.04401e-06
2.63587e-07
7.66059e-07
7.66165e-07
1.06835e-06
2.77903e-07
7.93085e-07
7.93194e-07
1.09167e-06
2.92749e-07
8.19294e-07
8.19408e-07
1.11398e-06
3.08061e-07
8.44621e-07
8.44746e-07
1.1345e-06
3.84071e-07
4.05215e-07
2.40849e-07
2.40879e-07
2.5015e-07
2.5019e-07
3.83661e-07
4.04819e-07
2.40798e-07
2.40894e-07
2.50097e-07
2.502e-07
2.40839e-07
2.50067e-07
2.50139e-07
3.83818e-07
4.05251e-07
2.40833e-07
2.50093e-07
2.50138e-07
4.05288e-07
4.12492e-07
4.36135e-07
2.53509e-07
2.53548e-07
2.64339e-07
2.64386e-07
4.12955e-07
4.36056e-07
2.53456e-07
2.53559e-07
2.64281e-07
2.64394e-07
2.53496e-07
2.64245e-07
2.64324e-07
4.12611e-07
4.35767e-07
2.53488e-07
2.64275e-07
2.64323e-07
4.35999e-07
4.43857e-07
4.69131e-07
2.68198e-07
2.68245e-07
2.80511e-07
2.80565e-07
4.44075e-07
4.68837e-07
2.68139e-07
2.68254e-07
2.80447e-07
2.80569e-07
2.6818e-07
2.80406e-07
2.80489e-07
4.44475e-07
4.69619e-07
2.68178e-07
2.8044e-07
2.8049e-07
4.70278e-07
4.77593e-07
5.0369e-07
2.84856e-07
2.8491e-07
2.9859e-07
2.98641e-07
4.77971e-07
5.04458e-07
2.84792e-07
2.84913e-07
2.9852e-07
2.98642e-07
2.84833e-07
2.98471e-07
2.98568e-07
4.777e-07
5.03419e-07
2.84836e-07
2.98505e-07
2.98562e-07
5.04923e-07
5.13208e-07
5.40303e-07
3.03393e-07
3.03444e-07
3.18466e-07
3.18514e-07
5.12929e-07
5.40496e-07
3.03321e-07
3.03448e-07
3.18385e-07
3.18525e-07
3.03373e-07
3.18332e-07
3.18445e-07
5.13215e-07
5.40158e-07
3.03366e-07
3.18372e-07
3.18428e-07
5.41154e-07
5.49365e-07
5.77097e-07
3.23699e-07
3.23748e-07
3.40019e-07
3.40069e-07
5.49424e-07
5.77626e-07
3.23617e-07
3.23758e-07
3.39925e-07
3.40087e-07
3.23683e-07
3.39877e-07
3.40003e-07
5.49354e-07
5.77334e-07
3.23665e-07
3.39921e-07
3.39975e-07
5.77996e-07
5.86322e-07
6.15547e-07
3.45655e-07
3.45706e-07
3.63131e-07
3.63172e-07
5.86686e-07
6.14183e-07
3.4556e-07
3.45726e-07
3.63021e-07
3.63203e-07
3.45647e-07
3.62968e-07
3.63117e-07
5.86596e-07
6.1474e-07
3.45614e-07
3.63016e-07
3.63077e-07
6.15407e-07
6.23803e-07
6.52882e-07
3.6913e-07
3.69172e-07
3.87641e-07
3.87679e-07
6.24406e-07
6.52586e-07
3.69021e-07
3.69208e-07
3.87522e-07
3.87724e-07
3.69126e-07
3.87468e-07
3.87636e-07
6.24099e-07
6.52403e-07
3.6908e-07
3.87521e-07
3.87586e-07
6.53078e-07
6.61225e-07
6.90309e-07
3.93969e-07
3.94007e-07
4.13406e-07
4.13438e-07
6.61664e-07
6.89602e-07
3.93852e-07
3.94056e-07
4.13271e-07
4.13491e-07
3.93973e-07
4.1322e-07
4.13413e-07
6.61704e-07
6.8978e-07
3.93911e-07
4.1328e-07
4.13342e-07
6.8971e-07
6.98447e-07
7.27347e-07
4.20021e-07
4.20052e-07
4.40259e-07
4.4028e-07
6.98908e-07
7.26306e-07
4.19891e-07
4.20112e-07
4.40112e-07
4.40342e-07
4.20035e-07
4.40057e-07
4.40279e-07
6.989e-07
7.26252e-07
4.19958e-07
4.40125e-07
4.40196e-07
7.25786e-07
7.34978e-07
7.63414e-07
4.47117e-07
4.47145e-07
4.68032e-07
4.68054e-07
7.35474e-07
7.61769e-07
4.46977e-07
4.47208e-07
4.67875e-07
4.68118e-07
4.47148e-07
4.67819e-07
4.68065e-07
7.35552e-07
7.62522e-07
4.47058e-07
4.67899e-07
4.67971e-07
7.61493e-07
7.7087e-07
7.98487e-07
4.75096e-07
4.75118e-07
4.96561e-07
4.96571e-07
7.7175e-07
7.96487e-07
4.74944e-07
4.75181e-07
4.9639e-07
4.96634e-07
4.75135e-07
4.96328e-07
4.966e-07
7.71282e-07
7.96893e-07
4.7504e-07
4.96425e-07
4.96506e-07
7.96433e-07
8.05773e-07
8.3244e-07
5.03783e-07
5.03798e-07
5.25665e-07
5.2567e-07
8.07035e-07
8.30504e-07
5.0362e-07
5.03855e-07
5.25481e-07
5.25724e-07
5.03831e-07
5.25426e-07
5.25709e-07
8.06591e-07
8.30401e-07
5.03732e-07
5.25528e-07
5.25608e-07
8.30321e-07
8.39516e-07
8.65191e-07
5.33002e-07
5.33013e-07
5.55164e-07
5.55169e-07
8.40764e-07
8.65031e-07
5.32828e-07
5.33061e-07
5.54975e-07
5.55223e-07
5.33055e-07
5.54926e-07
5.55214e-07
8.40899e-07
8.63316e-07
5.32951e-07
5.55036e-07
5.5511e-07
8.63118e-07
8.72086e-07
8.9674e-07
5.62579e-07
5.62583e-07
5.84895e-07
5.84896e-07
8.71998e-07
8.96719e-07
5.62394e-07
5.62632e-07
5.84698e-07
5.84957e-07
5.62631e-07
5.84657e-07
5.84946e-07
8.73652e-07
8.9499e-07
5.62521e-07
5.84775e-07
5.84835e-07
8.94738e-07
9.0347e-07
9.27124e-07
5.92337e-07
5.92343e-07
6.1468e-07
6.14692e-07
9.03467e-07
9.27154e-07
5.92149e-07
5.92393e-07
6.14484e-07
6.14748e-07
5.92398e-07
6.1446e-07
6.14746e-07
9.05102e-07
9.25441e-07
5.92278e-07
6.1457e-07
6.14622e-07
9.25143e-07
9.3368e-07
9.56286e-07
6.22115e-07
6.2213e-07
6.44368e-07
6.44394e-07
9.33719e-07
9.56362e-07
6.21926e-07
6.22174e-07
6.44176e-07
6.4444e-07
6.22186e-07
6.44162e-07
6.44446e-07
9.35196e-07
9.54658e-07
6.22053e-07
6.44271e-07
6.44311e-07
9.5433e-07
9.62682e-07
9.84252e-07
6.51758e-07
6.51781e-07
6.73811e-07
6.73842e-07
9.62739e-07
9.84342e-07
6.51569e-07
6.51821e-07
6.73619e-07
6.7389e-07
6.51838e-07
6.73615e-07
6.73893e-07
9.64238e-07
9.82756e-07
6.51693e-07
6.73724e-07
6.73749e-07
9.82372e-07
9.90471e-07
1.01109e-06
6.81121e-07
6.81147e-07
7.0287e-07
7.02902e-07
9.90532e-07
1.01115e-06
6.80929e-07
6.81188e-07
7.02672e-07
7.02949e-07
6.81203e-07
7.02685e-07
7.02958e-07
9.92041e-07
1.00958e-06
6.81048e-07
7.02789e-07
7.02803e-07
1.00925e-06
1.0171e-06
1.03674e-06
7.10063e-07
7.10088e-07
7.31421e-07
7.31447e-07
1.01714e-06
1.03678e-06
7.09866e-07
7.10137e-07
7.31223e-07
7.31501e-07
7.10152e-07
7.31244e-07
7.31511e-07
1.01861e-06
1.03526e-06
7.09986e-07
7.31348e-07
7.31346e-07
1.03497e-06
1.04257e-06
1.0613e-06
7.38471e-07
7.38488e-07
7.59357e-07
7.59369e-07
1.0426e-06
1.06133e-06
7.38267e-07
7.38546e-07
7.59153e-07
7.59432e-07
7.38561e-07
7.5918e-07
7.5945e-07
1.044e-06
1.05985e-06
7.38384e-07
7.5929e-07
7.59275e-07
1.05962e-06
1.06694e-06
1.0848e-06
7.66234e-07
7.66238e-07
7.86576e-07
7.86572e-07
1.06697e-06
1.08482e-06
7.66026e-07
7.66305e-07
7.86369e-07
7.86641e-07
7.66328e-07
7.864e-07
7.86673e-07
1.06829e-06
1.0834e-06
7.66143e-07
7.86516e-07
7.8649e-07
1.08309e-06
1.09019e-06
1.10663e-06
7.93257e-07
7.9325e-07
8.12988e-07
8.12978e-07
1.09028e-06
1.10731e-06
7.93048e-07
7.9332e-07
8.12779e-07
8.1305e-07
7.9336e-07
8.12824e-07
8.13103e-07
1.09157e-06
1.10583e-06
7.93168e-07
8.1294e-07
8.12914e-07
1.10564e-06
1.11262e-06
1.12797e-06
8.19457e-07
8.19447e-07
8.38535e-07
8.38514e-07
1.11237e-06
1.12828e-06
8.1925e-07
8.19519e-07
8.38325e-07
8.38593e-07
8.19579e-07
8.38375e-07
8.38662e-07
1.11376e-06
1.12808e-06
8.19385e-07
8.38501e-07
8.3847e-07
1.12793e-06
1.13391e-06
8.44781e-07
8.44761e-07
1.13388e-06
8.44569e-07
8.44836e-07
8.4491e-07
1.13432e-06
8.44717e-07
3.75874e-06
8.92109e-06
8.92527e-06
3.73492e-06
1.84404e-05
1.84332e-05
3.75868e-06
8.92237e-06
8.92656e-06
3.73523e-06
1.31334e-07
1.31341e-07
1.31343e-07
1.30234e-07
1.30237e-07
1.30244e-07
1.30245e-07
1.24204e-06
2.86825e-06
1.59586e-07
2.43744e-07
2.89008e-06
1.60143e-07
1.21432e-06
1.84412e-05
1.84339e-05
1.24189e-06
1.59617e-07
2.86931e-06
2.43769e-07
1.6015e-07
2.88898e-06
1.21449e-06
5.17097e-06
5.17175e-06
3.90881e-07
5.1787e-06
5.18195e-06
3.81872e-06
8.93096e-06
3.80018e-06
8.93466e-06
1.84137e-05
1.84073e-05
3.81874e-06
8.93227e-06
3.80031e-06
8.93596e-06
1.29956e-07
1.29963e-07
1.29964e-07
1.29448e-07
1.29451e-07
1.29458e-07
1.29458e-07
1.32251e-06
2.93011e-06
1.62241e-07
2.56904e-07
1.2961e-06
2.94928e-06
1.63135e-07
1.84144e-05
1.8408e-05
1.32221e-06
1.62275e-07
2.93105e-06
2.5693e-07
1.29656e-06
1.63143e-07
2.94825e-06
5.19889e-06
5.20063e-06
4.20345e-07
5.20606e-06
5.20841e-06
3.86387e-06
8.93959e-06
3.85095e-06
8.94282e-06
1.83894e-05
1.83837e-05
3.86465e-06
8.94089e-06
3.85042e-06
8.94404e-06
1.29359e-07
1.29366e-07
1.29366e-07
1.29426e-07
1.29429e-07
1.29437e-07
1.29435e-07
1.39831e-06
2.98459e-06
1.66241e-07
2.72082e-07
1.37425e-06
3.00141e-06
1.67479e-07
1.83901e-05
1.83843e-05
1.39828e-06
1.66278e-07
2.98549e-06
2.72113e-07
1.37452e-06
1.67485e-07
3.00043e-06
5.223e-06
5.22451e-06
4.52724e-07
5.22835e-06
5.23077e-06
3.89863e-06
8.94705e-06
3.88912e-06
8.94988e-06
1.83674e-05
1.83625e-05
3.89947e-06
8.94834e-06
3.88863e-06
8.95118e-06
1.29544e-07
1.29552e-07
1.29552e-07
1.30177e-07
1.3018e-07
1.30188e-07
1.30186e-07
1.46855e-06
3.03252e-06
1.71605e-07
2.89206e-07
1.44674e-06
3.04736e-06
1.73183e-07
1.83681e-05
1.83631e-05
1.46891e-06
1.71643e-07
3.03337e-06
2.89238e-07
1.44684e-06
1.73191e-07
3.04635e-06
5.24288e-06
5.2445e-06
4.87459e-07
5.24771e-06
5.24962e-06
3.92504e-06
8.95342e-06
3.91805e-06
8.95628e-06
1.83476e-05
1.83434e-05
3.92587e-06
8.95484e-06
3.91761e-06
8.9575e-06
1.30488e-07
1.30496e-07
1.30495e-07
1.31691e-07
1.31694e-07
1.31704e-07
1.31702e-07
1.53293e-06
3.07484e-06
1.78335e-07
3.08184e-07
1.51326e-06
3.08792e-06
1.80258e-07
1.83483e-05
1.83441e-05
1.53326e-06
1.78379e-07
3.07565e-06
3.08221e-07
1.51329e-06
1.80269e-07
3.08692e-06
5.2598e-06
5.2613e-06
5.22839e-07
5.26378e-06
5.26576e-06
3.94528e-06
8.95925e-06
3.94014e-06
8.962e-06
1.83299e-05
1.83264e-05
3.94603e-06
8.96054e-06
3.93969e-06
8.96328e-06
1.32192e-07
1.32202e-07
1.32201e-07
1.33966e-07
1.33968e-07
1.3398e-07
1.33978e-07
1.59169e-06
3.11224e-06
1.86431e-07
3.28903e-07
1.57314e-06
3.12387e-06
1.88696e-07
1.83306e-05
1.83272e-05
1.59178e-06
1.86484e-07
3.11309e-06
3.28943e-07
1.5733e-06
1.88715e-07
3.12292e-06
5.27433e-06
5.27577e-06
5.59395e-07
5.2779e-06
5.27966e-06
3.9608e-06
8.9648e-06
3.95736e-06
8.96743e-06
1.83143e-05
1.83117e-05
3.96149e-06
8.96608e-06
3.95674e-06
8.96868e-06
1.34656e-07
1.34668e-07
1.34667e-07
1.36999e-07
1.37002e-07
1.37015e-07
1.37014e-07
1.64385e-06
3.14552e-06
1.95887e-07
3.51237e-07
1.62743e-06
3.15586e-06
1.98495e-07
1.83151e-05
1.83125e-05
1.64431e-06
1.95948e-07
3.14638e-06
3.51284e-07
1.62737e-06
1.98519e-07
3.15499e-06
5.28705e-06
5.28856e-06
5.96651e-07
5.29014e-06
5.29188e-06
3.97326e-06
8.97022e-06
3.9704e-06
8.97275e-06
1.8301e-05
1.82992e-05
3.97383e-06
8.97161e-06
3.97025e-06
8.97398e-06
1.37881e-07
1.37895e-07
1.37895e-07
1.40796e-07
1.40797e-07
1.40814e-07
1.40813e-07
1.69071e-06
3.17534e-06
2.06687e-07
3.75054e-07
1.67601e-06
3.18399e-06
2.09629e-07
1.83018e-05
1.83e-05
1.69083e-06
2.06756e-07
3.17616e-06
3.751e-07
1.67597e-06
2.09654e-07
3.18376e-06
5.29838e-06
5.29995e-06
6.3401e-07
5.30112e-06
5.30284e-06
3.98361e-06
8.97581e-06
3.98111e-06
8.97818e-06
1.829e-05
1.82891e-05
3.98382e-06
8.97711e-06
3.98078e-06
8.97947e-06
1.41866e-07
1.41883e-07
1.41884e-07
1.45357e-07
1.45358e-07
1.45378e-07
1.45378e-07
1.73234e-06
3.20305e-06
2.18804e-07
4.00192e-07
1.7196e-06
3.20953e-06
2.22073e-07
1.82908e-05
1.82898e-05
1.73268e-06
2.18878e-07
3.20305e-06
4.00254e-07
1.71953e-06
2.22101e-07
3.20983e-06
5.30872e-06
5.31036e-06
6.71535e-07
5.31123e-06
5.31295e-06
3.99203e-06
8.98151e-06
3.98989e-06
8.98399e-06
1.82814e-05
1.82813e-05
3.99216e-06
8.98278e-06
3.98993e-06
8.98531e-06
1.46619e-07
1.46639e-07
1.46642e-07
1.5069e-07
1.50689e-07
1.50712e-07
1.50715e-07
1.76987e-06
3.22744e-06
2.32203e-07
4.26511e-07
1.75851e-06
3.23396e-06
2.35784e-07
1.82823e-05
1.82821e-05
1.77025e-06
2.32277e-07
3.22714e-06
4.26577e-07
1.75836e-06
2.35815e-07
3.23446e-06
5.31837e-06
5.32006e-06
7.07742e-07
5.32074e-06
5.32252e-06
3.9993e-06
8.98767e-06
3.99752e-06
8.99037e-06
1.82752e-05
1.8276e-05
3.99941e-06
8.98898e-06
3.99747e-06
8.99168e-06
1.52144e-07
1.52167e-07
1.52173e-07
1.56797e-07
1.56796e-07
1.56822e-07
1.56829e-07
1.8037e-06
3.24963e-06
2.46833e-07
4.53831e-07
1.79355e-06
3.25541e-06
2.50718e-07
1.82761e-05
1.82768e-05
1.80398e-06
2.46918e-07
3.2493e-06
4.53905e-07
1.79345e-06
2.5076e-07
3.25644e-06
5.32756e-06
5.32928e-06
7.43904e-07
5.32987e-06
5.33167e-06
4.00581e-06
8.99442e-06
4.00416e-06
8.99733e-06
1.82714e-05
1.8273e-05
4.00581e-06
8.99569e-06
4.00418e-06
8.99861e-06
1.58445e-07
1.58471e-07
1.58481e-07
1.63685e-07
1.63683e-07
1.63713e-07
1.63724e-07
1.83447e-06
3.27067e-06
2.62643e-07
4.81988e-07
1.82519e-06
3.27576e-06
2.66817e-07
1.82723e-05
1.82738e-05
1.83475e-06
2.62742e-07
3.27046e-06
4.82076e-07
1.82514e-06
2.66872e-07
3.27672e-06
5.3365e-06
5.33824e-06
7.79314e-07
5.33879e-06
5.3406e-06
4.01174e-06
9.00145e-06
4.01018e-06
9.00521e-06
1.827e-05
1.82724e-05
4.01171e-06
9.00308e-06
4.01025e-06
9.00629e-06
1.65528e-07
1.65557e-07
1.65572e-07
1.71357e-07
1.71354e-07
1.71388e-07
1.71403e-07
1.86266e-06
3.29019e-06
2.79584e-07
5.10813e-07
1.85411e-06
3.29491e-06
2.84033e-07
1.82708e-05
1.82732e-05
1.86294e-06
2.79699e-07
3.28991e-06
5.10915e-07
1.85407e-06
2.84102e-07
3.29585e-06
5.34533e-06
5.34706e-06
8.13726e-07
5.34763e-06
5.34942e-06
4.0173e-06
9.00952e-06
4.01589e-06
9.01345e-06
1.82708e-05
1.8274e-05
4.01735e-06
9.01122e-06
4.01594e-06
9.01472e-06
1.73396e-07
1.73428e-07
1.73447e-07
1.79814e-07
1.79811e-07
1.79849e-07
1.79867e-07
1.88872e-06
3.30857e-06
2.97587e-07
5.40137e-07
1.88073e-06
3.31344e-06
3.02288e-07
1.82717e-05
1.82749e-05
1.88893e-06
2.97715e-07
3.30797e-06
5.40241e-07
1.88076e-06
3.02367e-07
3.3139e-06
5.35411e-06
5.35582e-06
8.47052e-07
5.35646e-06
5.35821e-06
4.02286e-06
9.01863e-06
4.02143e-06
9.02245e-06
1.82739e-05
1.8278e-05
4.02287e-06
9.02009e-06
4.02147e-06
9.0239e-06
1.82048e-07
1.82083e-07
1.82107e-07
1.89053e-07
1.8905e-07
1.89091e-07
1.89112e-07
1.91299e-06
3.32571e-06
3.16574e-07
5.69771e-07
1.90551e-06
3.33093e-06
3.21513e-07
1.82748e-05
1.82789e-05
1.91315e-06
3.16717e-07
3.32572e-06
5.69887e-07
1.90553e-06
3.21602e-07
3.33085e-06
5.36293e-06
5.36462e-06
8.79211e-07
5.36531e-06
5.36703e-06
4.02848e-06
9.02827e-06
4.02691e-06
9.03241e-06
1.82792e-05
1.82841e-05
4.02841e-06
9.02972e-06
4.02702e-06
9.03386e-06
1.91482e-07
1.9152e-07
1.91546e-07
1.99065e-07
1.99065e-07
1.99108e-07
1.99131e-07
1.93573e-06
3.34247e-06
3.36463e-07
5.99559e-07
1.92872e-06
3.34715e-06
3.41617e-07
1.82801e-05
1.82849e-05
1.93594e-06
3.36613e-07
3.34234e-06
5.99672e-07
1.9287e-06
3.4171e-07
3.34723e-06
5.37184e-06
5.37351e-06
9.10189e-07
5.37426e-06
5.37598e-06
4.0342e-06
9.03838e-06
4.0326e-06
9.04341e-06
1.82867e-05
1.82923e-05
4.03429e-06
9.04015e-06
4.03268e-06
9.04461e-06
2.01689e-07
2.01729e-07
2.01757e-07
2.0984e-07
2.09843e-07
2.09888e-07
2.09913e-07
1.95733e-06
3.3582e-06
3.57176e-07
6.29332e-07
1.95061e-06
3.36286e-06
3.6252e-07
1.82875e-05
1.82931e-05
1.95742e-06
3.57327e-07
3.35816e-06
6.2944e-07
1.95066e-06
3.62616e-07
3.36306e-06
5.38085e-06
5.38247e-06
9.39992e-07
5.38326e-06
5.38503e-06
4.04027e-06
9.04965e-06
4.03847e-06
9.05494e-06
1.82962e-05
1.83025e-05
4.04024e-06
9.05136e-06
4.03849e-06
9.05614e-06
2.12655e-07
2.12698e-07
2.12726e-07
2.21358e-07
2.21365e-07
2.21413e-07
2.21438e-07
1.97784e-06
3.37344e-06
3.78624e-07
6.58929e-07
1.97149e-06
3.37804e-06
3.84136e-07
1.82969e-05
1.83032e-05
1.97797e-06
3.78771e-07
3.3736e-06
6.59036e-07
1.97149e-06
3.84229e-07
3.37752e-06
5.38993e-06
5.39154e-06
9.6859e-07
5.39238e-06
5.39414e-06
4.04658e-06
9.06167e-06
4.0447e-06
9.06731e-06
1.83074e-05
1.83143e-05
4.04648e-06
9.06332e-06
4.04485e-06
9.06841e-06
2.2436e-07
2.24407e-07
2.24434e-07
2.33596e-07
2.33607e-07
2.33656e-07
2.33683e-07
1.99744e-06
3.38809e-06
4.00703e-07
6.88205e-07
1.99137e-06
3.39236e-06
4.06358e-07
1.83082e-05
1.83151e-05
1.99758e-06
4.0085e-07
3.38827e-06
6.88311e-07
1.99134e-06
4.06454e-07
3.39214e-06
5.39909e-06
5.40072e-06
9.96038e-07
5.40153e-06
5.40332e-06
4.05322e-06
9.07467e-06
4.05117e-06
9.08007e-06
1.83204e-05
1.8328e-05
4.05326e-06
9.07602e-06
4.05124e-06
9.08144e-06
2.36775e-07
2.36826e-07
2.36854e-07
2.46522e-07
2.46535e-07
2.46587e-07
2.46614e-07
2.01625e-06
3.40264e-06
4.23317e-07
7.17033e-07
2.01041e-06
3.4064e-06
4.2909e-07
1.83213e-05
1.83289e-05
2.01635e-06
4.23463e-07
3.40267e-06
7.17137e-07
2.01042e-06
4.29184e-07
3.4061e-06
5.40835e-06
5.40992e-06
1.02234e-06
5.41075e-06
5.4126e-06
4.05991e-06
9.08812e-06
4.05811e-06
9.09378e-06
1.83351e-05
1.83433e-05
4.06023e-06
9.08914e-06
4.058e-06
9.0953e-06
2.49868e-07
2.49923e-07
2.49951e-07
2.60096e-07
2.60109e-07
2.60165e-07
2.60194e-07
2.03433e-06
3.41601e-06
4.46363e-07
7.45294e-07
2.02873e-06
3.42007e-06
4.52224e-07
1.83361e-05
1.83442e-05
2.03442e-06
4.46508e-07
3.41587e-06
7.45402e-07
2.02872e-06
4.52317e-07
3.42015e-06
5.41765e-06
5.41917e-06
1.04751e-06
5.42004e-06
5.42197e-06
4.06713e-06
9.10217e-06
4.06526e-06
9.10811e-06
1.83513e-05
1.836e-05
4.06744e-06
9.10319e-06
4.06511e-06
9.10956e-06
2.63597e-07
2.63655e-07
2.63685e-07
2.7427e-07
2.74284e-07
2.74344e-07
2.74375e-07
2.0517e-06
3.42898e-06
4.69731e-07
7.72882e-07
2.04632e-06
3.43266e-06
4.75657e-07
1.83525e-05
1.8361e-05
2.0518e-06
4.69879e-07
3.4292e-06
7.72996e-07
2.04633e-06
4.75751e-07
3.43323e-06
5.42699e-06
5.4286e-06
1.07159e-06
5.4296e-06
5.43134e-06
4.07458e-06
9.1165e-06
4.07263e-06
9.12308e-06
1.83689e-05
1.83781e-05
4.07492e-06
9.11778e-06
4.07255e-06
9.12436e-06
2.77913e-07
2.77976e-07
2.78008e-07
2.88989e-07
2.89003e-07
2.89069e-07
2.89103e-07
2.06838e-06
3.44213e-06
4.93311e-07
7.99717e-07
2.06321e-06
3.44545e-06
4.99276e-07
1.83701e-05
1.83793e-05
2.06847e-06
4.93462e-07
3.44184e-06
7.99828e-07
2.06327e-06
4.99372e-07
3.44531e-06
5.43637e-06
5.43784e-06
1.09462e-06
5.43875e-06
5.44072e-06
4.08244e-06
9.13163e-06
4.08012e-06
9.13837e-06
1.83878e-05
1.83975e-05
4.08254e-06
9.13286e-06
4.08007e-06
9.13957e-06
2.92758e-07
2.92827e-07
2.92863e-07
3.04192e-07
3.04205e-07
3.04277e-07
3.04316e-07
2.08438e-06
3.45426e-06
5.17e-07
8.25713e-07
2.07941e-06
3.45739e-06
5.2297e-07
1.83891e-05
1.83988e-05
2.08446e-06
5.17153e-07
3.45448e-06
8.25831e-07
2.07947e-06
5.23071e-07
3.45769e-06
5.44579e-06
5.44723e-06
1.11655e-06
5.44813e-06
5.45004e-06
4.09017e-06
9.14715e-06
4.08758e-06
9.15403e-06
1.8408e-05
1.84181e-05
4.09022e-06
9.14865e-06
4.08765e-06
9.15512e-06
3.08071e-07
3.08146e-07
3.08187e-07
2.09961e-06
3.46602e-06
5.4068e-07
8.50809e-07
2.09493e-06
3.46922e-06
5.46632e-07
1.84094e-05
1.84195e-05
2.09975e-06
5.40836e-07
3.46626e-06
8.50939e-07
2.09498e-06
5.46737e-07
3.46895e-06
5.4551e-06
5.4566e-06
1.13835e-06
5.45735e-06
5.45939e-06
1.84378e-05
1.84305e-05
1.84407e-05
1.84334e-05
5.17097e-06
5.17296e-06
3.90749e-07
5.1795e-06
5.18146e-06
1.84173e-05
1.84242e-05
1.84202e-05
1.8427e-05
3.97815e-07
5.19313e-06
5.195e-06
5.1854e-06
5.18736e-06
3.75805e-06
8.92129e-06
8.92552e-06
3.73559e-06
1.24173e-06
2.86916e-06
1.59612e-07
2.43821e-07
2.88887e-06
1.60149e-07
1.21432e-06
1.24208e-06
2.86885e-06
1.59616e-07
2.43855e-07
2.89074e-06
1.60154e-07
1.21409e-06
3.7698e-06
8.93013e-06
8.92615e-06
3.7907e-06
3.77021e-06
8.93065e-06
8.92609e-06
3.79048e-06
1.25587e-06
2.46924e-07
2.91915e-06
1.61479e-07
2.90111e-06
1.60775e-07
1.28267e-06
1.2556e-06
2.46959e-07
2.9214e-06
1.61485e-07
2.90058e-06
1.60779e-07
1.28286e-06
5.17285e-06
5.17e-06
3.91077e-07
5.18004e-06
5.17977e-06
1.84384e-05
1.84312e-05
1.84199e-05
1.84268e-05
3.97991e-07
5.19493e-06
5.19381e-06
5.18762e-06
5.1853e-06
1.84179e-05
1.84247e-05
1.24218e-06
2.86977e-06
1.59613e-07
2.43775e-07
2.88947e-06
1.6015e-07
1.21416e-06
3.75886e-06
8.92158e-06
8.92647e-06
3.73517e-06
1.24211e-06
1.59627e-07
2.86883e-06
2.43873e-07
1.60163e-07
2.89072e-06
1.21421e-06
3.76999e-06
8.93141e-06
8.92749e-06
3.79067e-06
1.25557e-06
2.46876e-07
2.91973e-06
1.61482e-07
2.90172e-06
1.60776e-07
1.28274e-06
3.76975e-06
8.93133e-06
8.92668e-06
3.79059e-06
1.2556e-06
2.46974e-07
1.61496e-07
2.92134e-06
1.60791e-07
2.90064e-06
1.28297e-06
3.75895e-06
8.92153e-06
8.92569e-06
3.73525e-06
1.24208e-06
1.59613e-07
2.86939e-06
2.43815e-07
1.60151e-07
2.88901e-06
1.21404e-06
3.75813e-06
8.92111e-06
8.92605e-06
3.73556e-06
1.25564e-06
2.46836e-07
2.9208e-06
1.61469e-07
2.90005e-06
1.60747e-07
1.28287e-06
3.76988e-06
8.93057e-06
8.92662e-06
3.79071e-06
1.2556e-06
2.46915e-07
1.61479e-07
2.91934e-06
1.60774e-07
2.90132e-06
1.28254e-06
3.77027e-06
8.93097e-06
8.92625e-06
3.79042e-06
5.17168e-06
5.17037e-06
3.91225e-07
5.18146e-06
5.18018e-06
1.84389e-05
1.84317e-05
1.84207e-05
1.84275e-05
3.98015e-07
5.19568e-06
5.19418e-06
5.18623e-06
5.18496e-06
1.84184e-05
1.84252e-05
1.24217e-06
1.59623e-07
2.86888e-06
2.43808e-07
1.60154e-07
2.89074e-06
1.21436e-06
3.75914e-06
8.92144e-06
8.92622e-06
3.73538e-06
3.75921e-06
8.92217e-06
8.92636e-06
3.73537e-06
1.25605e-06
2.46866e-07
1.61476e-07
2.91916e-06
1.60779e-07
2.90119e-06
1.28247e-06
1.25568e-06
2.46906e-07
1.61486e-07
2.92142e-06
1.60787e-07
2.90069e-06
1.28301e-06
3.77005e-06
8.93087e-06
8.92697e-06
3.79094e-06
3.77003e-06
8.93126e-06
8.92727e-06
3.79097e-06
1.84395e-05
1.84323e-05
1.84415e-05
1.84342e-05
3.97833e-07
5.19329e-06
5.19565e-06
5.18608e-06
5.18652e-06
1.84191e-05
1.84259e-05
1.8421e-05
1.84278e-05
1.84111e-05
1.84046e-05
1.8414e-05
1.84075e-05
5.19913e-06
5.2011e-06
4.20388e-07
5.20602e-06
5.20796e-06
1.83925e-05
1.83987e-05
1.83954e-05
1.84015e-05
4.2791e-07
5.2176e-06
5.21971e-06
5.2112e-06
5.21309e-06
3.81862e-06
8.93078e-06
3.8004e-06
8.93524e-06
1.32278e-06
2.93095e-06
1.62272e-07
2.5699e-07
1.29628e-06
2.94803e-06
1.63144e-07
1.32284e-06
2.9307e-06
1.62277e-07
2.57034e-07
1.29614e-06
2.9499e-06
1.63153e-07
3.82708e-06
8.93887e-06
8.93541e-06
3.84223e-06
3.82718e-06
8.93951e-06
8.93529e-06
3.84245e-06
1.33565e-06
2.60604e-07
2.97479e-06
1.65148e-07
2.95903e-06
1.64105e-07
1.36135e-06
1.33563e-06
2.60646e-07
2.97691e-06
1.65157e-07
2.95869e-06
1.64113e-07
1.36129e-06
5.20054e-06
5.19884e-06
4.20415e-07
5.20761e-06
5.20658e-06
1.84116e-05
1.84052e-05
1.83952e-05
1.84013e-05
4.28051e-07
5.21916e-06
5.21838e-06
5.21288e-06
5.21114e-06
1.83931e-05
1.83991e-05
1.32256e-06
2.93147e-06
1.62273e-07
2.56939e-07
1.29624e-06
2.94892e-06
1.63148e-07
3.81868e-06
8.93147e-06
3.80032e-06
8.93585e-06
1.32274e-06
1.62289e-07
2.93071e-06
2.57046e-07
1.29613e-06
1.63163e-07
2.94985e-06
3.82715e-06
8.94018e-06
8.93673e-06
3.84326e-06
1.33581e-06
2.60548e-07
2.97666e-06
1.65152e-07
2.95919e-06
1.64108e-07
1.36132e-06
3.82728e-06
8.94009e-06
8.93594e-06
3.84248e-06
1.33566e-06
2.60658e-07
1.65167e-07
2.97685e-06
1.64124e-07
2.95871e-06
1.36128e-06
3.81876e-06
8.93144e-06
3.80044e-06
8.93509e-06
1.32238e-06
1.62269e-07
2.93113e-06
2.56982e-07
1.29638e-06
1.63144e-07
2.94821e-06
3.81862e-06
8.93108e-06
3.80048e-06
8.93551e-06
1.33577e-06
2.60507e-07
2.97637e-06
1.65135e-07
2.9581e-06
1.64072e-07
1.36068e-06
3.8273e-06
8.93931e-06
8.93585e-06
3.84226e-06
1.33597e-06
2.6059e-07
1.65144e-07
2.97496e-06
1.64102e-07
2.95924e-06
1.36114e-06
3.82717e-06
8.93978e-06
8.93558e-06
3.84229e-06
5.20071e-06
5.19928e-06
4.20429e-07
5.20799e-06
5.20659e-06
1.84121e-05
1.84057e-05
1.83959e-05
1.8402e-05
4.2815e-07
5.22e-06
5.2185e-06
5.21227e-06
5.2109e-06
1.83936e-05
1.83997e-05
1.3228e-06
1.62284e-07
2.93084e-06
2.56978e-07
1.29622e-06
1.63153e-07
2.94988e-06
3.81895e-06
8.93172e-06
3.80056e-06
8.93537e-06
3.81899e-06
8.93213e-06
3.80057e-06
8.93579e-06
1.33621e-06
2.6054e-07
1.65145e-07
2.97478e-06
1.64105e-07
2.95914e-06
1.36082e-06
1.33575e-06
2.60585e-07
1.65156e-07
2.97696e-06
1.64119e-07
2.95881e-06
1.36135e-06
3.82735e-06
8.93978e-06
8.93618e-06
3.84335e-06
3.82736e-06
8.94022e-06
8.93657e-06
3.84337e-06
1.84129e-05
1.84065e-05
1.84148e-05
1.84083e-05
4.27956e-07
5.21705e-06
5.22013e-06
5.21133e-06
5.21255e-06
1.83944e-05
1.84005e-05
1.83963e-05
1.84024e-05
1.83868e-05
1.83811e-05
1.83896e-05
1.83838e-05
5.22275e-06
5.22473e-06
4.52383e-07
5.2287e-06
5.22981e-06
1.83702e-05
1.83755e-05
1.8373e-05
1.83783e-05
4.60449e-07
5.23783e-06
5.24016e-06
5.23314e-06
5.2351e-06
3.86374e-06
8.93951e-06
3.85091e-06
8.94333e-06
1.3987e-06
2.98537e-06
1.66278e-07
2.72181e-07
1.37391e-06
3.00022e-06
1.67491e-07
1.39869e-06
2.98515e-06
1.66285e-07
2.7223e-07
1.37393e-06
3.00202e-06
1.67502e-07
3.87135e-06
8.94647e-06
8.94337e-06
3.88234e-06
3.87129e-06
8.94692e-06
8.94368e-06
3.88243e-06
1.41092e-06
2.76289e-07
3.02377e-06
1.70176e-07
3.0101e-06
1.68791e-07
1.43408e-06
1.41091e-06
2.76339e-07
3.02577e-06
1.70184e-07
3.00977e-06
1.68802e-07
1.43445e-06
5.2245e-06
5.22262e-06
4.52235e-07
5.23056e-06
5.22894e-06
1.83872e-05
1.83816e-05
1.83728e-05
1.83781e-05
4.60743e-07
5.23946e-06
5.23891e-06
5.23468e-06
5.233e-06
1.83706e-05
1.83759e-05
1.3989e-06
2.98503e-06
1.6628e-07
2.72118e-07
1.37395e-06
3.00192e-06
1.67497e-07
3.86382e-06
8.94012e-06
3.85096e-06
8.944e-06
1.3988e-06
1.66297e-07
2.98514e-06
2.72241e-07
1.37395e-06
1.67511e-07
3.00198e-06
3.87092e-06
8.94781e-06
8.94473e-06
3.88324e-06
1.41085e-06
2.76222e-07
3.02574e-06
1.70181e-07
3.00973e-06
1.68796e-07
1.43474e-06
3.87135e-06
8.94756e-06
8.94401e-06
3.88251e-06
1.41084e-06
2.76343e-07
1.70194e-07
3.02579e-06
1.68811e-07
3.00978e-06
1.43467e-06
3.86387e-06
8.94e-06
3.85108e-06
8.94321e-06
1.39847e-06
1.66271e-07
2.98555e-06
2.72164e-07
1.37409e-06
1.67487e-07
3.00036e-06
3.86387e-06
8.94005e-06
3.85092e-06
8.94365e-06
1.41115e-06
2.76181e-07
3.02529e-06
1.70158e-07
3.00916e-06
1.68753e-07
1.43421e-06
3.87157e-06
8.94689e-06
8.94384e-06
3.88248e-06
1.4111e-06
2.76266e-07
1.7017e-07
3.02391e-06
1.68785e-07
3.01024e-06
1.43448e-06
3.87142e-06
8.94732e-06
8.94369e-06
3.88248e-06
5.22409e-06
5.22301e-06
4.5223e-07
5.23056e-06
5.22916e-06
1.83878e-05
1.8382e-05
1.83734e-05
1.83788e-05
4.61093e-07
5.2405e-06
5.23896e-06
5.23446e-06
5.23295e-06
1.83711e-05
1.83764e-05
1.39873e-06
1.66289e-07
2.98524e-06
2.72161e-07
1.37406e-06
1.67498e-07
3.00204e-06
3.86479e-06
8.94024e-06
3.85069e-06
8.9437e-06
3.86481e-06
8.94066e-06
3.8507e-06
8.9439e-06
1.41132e-06
2.76216e-07
1.70168e-07
3.02377e-06
1.68788e-07
3.01018e-06
1.43448e-06
1.4111e-06
2.76263e-07
1.70181e-07
3.02586e-06
1.68804e-07
3.00985e-06
1.43469e-06
3.87112e-06
8.94715e-06
8.94407e-06
3.88332e-06
3.87113e-06
8.9478e-06
8.94462e-06
3.88331e-06
1.83887e-05
1.83829e-05
1.83905e-05
1.83848e-05
4.60353e-07
5.23827e-06
5.24058e-06
5.23333e-06
5.2344e-06
1.83721e-05
1.83774e-05
1.83739e-05
1.83792e-05
1.83648e-05
1.83598e-05
1.83676e-05
1.83627e-05
5.2428e-06
5.2446e-06
4.86281e-07
5.24775e-06
5.24924e-06
1.83501e-05
1.83546e-05
1.83529e-05
1.83574e-05
4.95106e-07
5.25581e-06
5.25773e-06
5.25148e-06
5.25345e-06
3.89854e-06
8.94692e-06
3.88906e-06
8.9504e-06
1.46854e-06
3.03326e-06
1.71647e-07
2.89317e-07
1.4467e-06
3.04616e-06
1.73201e-07
1.4692e-06
3.03304e-06
1.71657e-07
2.89369e-07
1.44649e-06
3.04788e-06
1.7321e-07
3.90455e-06
8.9532e-06
8.95034e-06
3.91263e-06
3.90452e-06
8.95361e-06
8.95055e-06
3.91271e-06
1.48078e-06
2.93896e-07
3.06701e-06
1.76571e-07
3.05504e-06
1.74843e-07
1.50157e-06
1.48047e-06
2.93948e-07
3.06886e-06
1.76581e-07
3.05472e-06
1.74852e-07
1.50147e-06
5.24445e-06
5.24259e-06
4.85989e-07
5.24893e-06
5.24787e-06
1.83651e-05
1.83602e-05
1.83526e-05
1.83572e-05
4.95486e-07
5.25748e-06
5.25622e-06
5.25324e-06
5.25143e-06
1.83503e-05
1.83548e-05
1.46933e-06
3.03308e-06
1.7165e-07
2.89249e-07
1.44636e-06
3.0464e-06
1.73208e-07
3.89867e-06
8.94785e-06
3.88914e-06
8.9508e-06
1.46914e-06
1.71666e-07
3.03312e-06
2.89376e-07
1.44636e-06
1.73221e-07
3.0464e-06
3.90418e-06
8.95438e-06
8.95169e-06
3.91352e-06
1.48039e-06
2.93828e-07
3.06759e-06
1.76578e-07
3.05548e-06
1.74849e-07
1.50225e-06
3.90462e-06
8.95402e-06
8.9513e-06
3.91284e-06
1.48045e-06
2.93952e-07
1.7659e-07
3.06763e-06
1.74864e-07
3.05553e-06
1.5021e-06
3.89859e-06
8.94744e-06
3.88934e-06
8.95024e-06
1.46923e-06
1.71635e-07
3.0335e-06
2.89294e-07
1.44651e-06
1.73191e-07
3.0474e-06
3.89862e-06
8.94733e-06
3.88917e-06
8.95068e-06
1.48073e-06
2.93777e-07
3.06844e-06
1.76547e-07
3.05422e-06
1.74798e-07
1.50156e-06
3.90478e-06
8.95343e-06
8.95077e-06
3.91276e-06
1.48042e-06
2.93874e-07
1.76559e-07
3.06847e-06
1.74831e-07
3.05446e-06
1.5022e-06
3.90464e-06
8.95398e-06
8.95099e-06
3.9128e-06
5.24404e-06
5.24273e-06
4.86403e-07
5.24954e-06
5.24808e-06
1.83657e-05
1.83607e-05
1.83533e-05
1.83579e-05
4.95128e-07
5.25792e-06
5.25645e-06
5.25284e-06
5.25143e-06
1.83509e-05
1.83555e-05
1.46878e-06
1.71657e-07
3.03313e-06
2.89295e-07
1.44654e-06
1.73208e-07
3.04793e-06
3.89958e-06
8.94782e-06
3.88884e-06
8.9507e-06
3.89955e-06
8.94815e-06
3.88884e-06
8.95101e-06
1.48078e-06
2.93814e-07
1.76561e-07
3.06697e-06
1.74838e-07
3.05515e-06
1.50188e-06
1.48078e-06
2.93868e-07
1.76576e-07
3.06896e-06
1.74856e-07
3.05481e-06
1.50181e-06
3.90436e-06
8.95383e-06
8.95111e-06
3.91359e-06
3.90445e-06
8.95432e-06
8.95159e-06
3.9127e-06
1.83667e-05
1.83617e-05
1.83685e-05
1.83636e-05
4.94403e-07
5.25575e-06
5.25796e-06
5.25164e-06
5.25291e-06
1.83519e-05
1.83565e-05
1.83538e-05
1.83584e-05
1.8345e-05
1.83408e-05
1.83478e-05
1.83436e-05
5.25976e-06
5.26155e-06
5.21948e-07
5.26367e-06
5.26552e-06
1.83321e-05
1.83359e-05
1.83348e-05
1.83386e-05
5.31084e-07
5.27094e-06
5.27276e-06
5.2673e-06
5.26906e-06