/*--------------------------------*- C++ -*----------------------------------*\
| =========                 |                                                 |
| \\      /  F ield         | OpenFOAM: The Open Source CFD Toolbox           |
|  \\    /   O peration     | Version:  2312                                  |
|   \\  /    A nd           | Website:  www.openfoam.com                      |
|    \\/     M anipulation  |                                                 |
\*---------------------------------------------------------------------------*/
FoamFile
{
    version     2.0;
    format      ascii;
    arch        "LSB;label=32;scalar=64";
    class       volScalarField;
    location    "350";
    object      p;
}
// * * * * * * * * * * * * * * * * * * * * * * * * * * * * * * * * * * * * * //

dimensions      [0 2 -2 0 0 0 0];

internalField   nonuniform List<scalar> 
42840
(
0.00260649
0.00260648
0.00260648
0.00260834
0.00256704
0.00256704
0.00256704
0.00256888
0.00252782
0.00252782
0.00252782
0.00252965
0.00248882
0.00248881
0.00248881
0.00249063
0.00245002
0.00245001
0.00245001
0.00245181
0.00241142
0.0024114
0.0024114
0.00241319
0.00237301
0.00237299
0.00237299
0.00237476
0.00233479
0.00233477
0.00233477
0.00233652
0.00229674
0.00229672
0.00229672
0.00229846
0.00225887
0.00225885
0.00225885
0.00226057
0.00222117
0.00222114
0.00222114
0.00222285
0.00218363
0.0021836
0.0021836
0.00218529
0.00214624
0.00214621
0.00214621
0.00214789
0.00210901
0.00210898
0.00210897
0.00211063
0.00207192
0.00207188
0.00207188
0.00207353
0.00203497
0.00203493
0.00203492
0.00203656
0.00199815
0.0019981
0.0019981
0.00199973
0.00196145
0.00196141
0.00196141
0.00196302
0.00192488
0.00192483
0.00192483
0.00192644
0.00188843
0.00188837
0.00188837
0.00188997
0.00185208
0.00185202
0.00185202
0.00185361
0.00181584
0.00181577
0.00181577
0.00181736
0.00177969
0.00177962
0.00177962
0.00178121
0.00174364
0.00174357
0.00174357
0.00174515
0.00170767
0.0017076
0.00170759
0.00170917
0.00260834
0.00257511
0.00260648
0.00260648
0.00257688
0.00257688
0.00260834
0.00257512
0.00260648
0.00260648
0.00257688
0.00257688
0.00260648
0.00257688
0.00257688
0.00260834
0.00257512
0.00260648
0.00257688
0.00257688
0.00257512
0.00256888
0.00253586
0.00256704
0.00256704
0.0025376
0.0025376
0.00256888
0.00253586
0.00256704
0.00256704
0.0025376
0.0025376
0.00256704
0.0025376
0.0025376
0.00256888
0.00253586
0.00256704
0.0025376
0.0025376
0.00253586
0.00252965
0.00249681
0.00252782
0.00252782
0.00249854
0.00249854
0.00252965
0.00249681
0.00252782
0.00252782
0.00249854
0.00249854
0.00252782
0.00249854
0.00249854
0.00252965
0.00249681
0.00252782
0.00249854
0.00249854
0.00249681
0.00249063
0.00245797
0.00248881
0.00248881
0.00245969
0.00245969
0.00249063
0.00245797
0.00248881
0.00248881
0.00245969
0.00245969
0.00248881
0.00245969
0.00245969
0.00249062
0.00245797
0.00248881
0.00245969
0.00245969
0.00245797
0.00245181
0.00241933
0.00245001
0.00245001
0.00242104
0.00242104
0.00245181
0.00241933
0.00245001
0.00245001
0.00242104
0.00242104
0.00245001
0.00242104
0.00242104
0.00245181
0.00241933
0.00245001
0.00242104
0.00242104
0.00241933
0.00241319
0.00238087
0.0024114
0.0024114
0.00238258
0.00238258
0.00241319
0.00238087
0.0024114
0.0024114
0.00238258
0.00238258
0.0024114
0.00238258
0.00238258
0.00241319
0.00238087
0.0024114
0.00238258
0.00238258
0.00238087
0.00237476
0.00234261
0.00237299
0.00237299
0.00234431
0.00234431
0.00237476
0.00234261
0.00237299
0.00237299
0.00234431
0.00234431
0.00237299
0.00234431
0.00234431
0.00237476
0.00234261
0.00237299
0.00234431
0.00234431
0.00234261
0.00233652
0.00230452
0.00233477
0.00233477
0.00230622
0.00230622
0.00233652
0.00230452
0.00233477
0.00233477
0.00230622
0.00230622
0.00233477
0.00230621
0.00230622
0.00233652
0.00230452
0.00233477
0.00230622
0.00230622
0.00230452
0.00229846
0.00226661
0.00229672
0.00229672
0.0022683
0.0022683
0.00229846
0.00226661
0.00229672
0.00229672
0.0022683
0.0022683
0.00229672
0.0022683
0.0022683
0.00229846
0.00226661
0.00229672
0.0022683
0.0022683
0.00226661
0.00226057
0.00222886
0.00225885
0.00225885
0.00223055
0.00223055
0.00226057
0.00222886
0.00225885
0.00225885
0.00223055
0.00223055
0.00225885
0.00223056
0.00223055
0.00226057
0.00222886
0.00225885
0.00223055
0.00223055
0.00222886
0.00222285
0.00219128
0.00222114
0.00222114
0.00219297
0.00219297
0.00222285
0.00219128
0.00222114
0.00222114
0.00219297
0.00219297
0.00222114
0.00219297
0.00219297
0.00222285
0.00219128
0.00222114
0.00219297
0.00219297
0.00219128
0.00218529
0.00215386
0.0021836
0.0021836
0.00215555
0.00215555
0.00218529
0.00215386
0.0021836
0.0021836
0.00215555
0.00215555
0.0021836
0.00215555
0.00215555
0.00218529
0.00215386
0.0021836
0.00215555
0.00215555
0.00215386
0.00214788
0.00211658
0.00214621
0.00214621
0.00211827
0.00211827
0.00214788
0.00211658
0.00214621
0.00214621
0.00211827
0.00211827
0.00214621
0.00211827
0.00211827
0.00214788
0.00211658
0.00214621
0.00211827
0.00211827
0.00211658
0.00211063
0.00207946
0.00210897
0.00210898
0.00208114
0.00208114
0.00211063
0.00207946
0.00210897
0.00210897
0.00208114
0.00208114
0.00210897
0.00208114
0.00208114
0.00211063
0.00207946
0.00210897
0.00208114
0.00208114
0.00207946
0.00207353
0.00204247
0.00207188
0.00207188
0.00204415
0.00204415
0.00207353
0.00204247
0.00207188
0.00207188
0.00204415
0.00204415
0.00207188
0.00204415
0.00204415
0.00207353
0.00204247
0.00207188
0.00204415
0.00204415
0.00204247
0.00203656
0.00200562
0.00203492
0.00203493
0.0020073
0.0020073
0.00203656
0.00200562
0.00203492
0.00203492
0.0020073
0.0020073
0.00203492
0.0020073
0.0020073
0.00203656
0.00200562
0.00203492
0.0020073
0.0020073
0.00200562
0.00199973
0.00196889
0.0019981
0.0019981
0.00197057
0.00197057
0.00199973
0.00196889
0.0019981
0.0019981
0.00197057
0.00197057
0.0019981
0.00197057
0.00197057
0.00199973
0.00196889
0.0019981
0.00197057
0.00197057
0.00196889
0.00196302
0.00193229
0.00196141
0.00196141
0.00193396
0.00193396
0.00196302
0.00193229
0.00196141
0.00196141
0.00193396
0.00193396
0.00196141
0.00193396
0.00193396
0.00196302
0.00193229
0.0019614
0.00193396
0.00193396
0.00193229
0.00192644
0.0018958
0.00192483
0.00192483
0.00189747
0.00189747
0.00192644
0.00189581
0.00192483
0.00192483
0.00189747
0.00189747
0.00192483
0.00189747
0.00189747
0.00192644
0.0018958
0.00192483
0.00189747
0.00189747
0.0018958
0.00188997
0.00185943
0.00188837
0.00188837
0.0018611
0.0018611
0.00188997
0.00185943
0.00188837
0.00188837
0.0018611
0.0018611
0.00188837
0.0018611
0.0018611
0.00188997
0.00185943
0.00188837
0.0018611
0.0018611
0.00185943
0.00185361
0.00182316
0.00185202
0.00185202
0.00182482
0.00182482
0.00185361
0.00182316
0.00185202
0.00185202
0.00182482
0.00182482
0.00185202
0.00182482
0.00182482
0.00185361
0.00182316
0.00185202
0.00182482
0.00182482
0.00182316
0.00181736
0.00178699
0.00181577
0.00181577
0.00178865
0.00178865
0.00181736
0.00178699
0.00181577
0.00181577
0.00178865
0.00178865
0.00181577
0.00178865
0.00178865
0.00181736
0.00178699
0.00181577
0.00178865
0.00178865
0.00178699
0.00178121
0.00175092
0.00177962
0.00177962
0.00175257
0.00175257
0.00178121
0.00175092
0.00177962
0.00177962
0.00175257
0.00175257
0.00177962
0.00175257
0.00175257
0.00178121
0.00175092
0.00177962
0.00175257
0.00175257
0.00175092
0.00174515
0.00171493
0.00174357
0.00174357
0.00171658
0.00171658
0.00174515
0.00171493
0.00174357
0.00174357
0.00171658
0.00171658
0.00174357
0.00171658
0.00171658
0.00174515
0.00171493
0.00174357
0.00171658
0.00171658
0.00171493
0.00170917
0.0017076
0.0017076
0.00170917
0.0017076
0.0017076
0.0017076
0.00170917
0.00170759
0.00259412
0.00260865
0.00259402
0.00260872
0.00260863
0.00259399
0.00259412
0.00260865
0.00259402
0.00260872
0.00260649
0.00260649
0.00260649
0.00257688
0.00257688
0.00257688
0.00257688
0.00259442
0.00260864
0.00260648
0.0025966
0.00259421
0.0025966
0.0026087
0.00260863
0.00259399
0.00259442
0.00260648
0.00260864
0.0025966
0.0025966
0.00259421
0.0026087
0.00260867
0.00260867
0.00259483
0.00259406
0.00259406
0.00255474
0.00256919
0.00256926
0.00255465
0.00256917
0.00255462
0.00255474
0.00256919
0.00256926
0.00255465
0.00256704
0.00256704
0.00256704
0.00253761
0.00253761
0.00253761
0.00253761
0.00255502
0.00256917
0.00256704
0.00255721
0.00256922
0.00255483
0.00255721
0.00256917
0.00255462
0.00255502
0.00256704
0.00256918
0.00255721
0.00256923
0.00255721
0.00255483
0.00256921
0.00256921
0.00255546
0.00255468
0.00255468
0.00251558
0.00252996
0.00253002
0.00251549
0.00252994
0.00251546
0.00251558
0.00252996
0.00253002
0.00251549
0.00252782
0.00252782
0.00252782
0.00249855
0.00249855
0.00249855
0.00249855
0.00251584
0.00252994
0.00252782
0.00251804
0.00252998
0.00251566
0.00251804
0.00252994
0.00251546
0.00251584
0.00252782
0.00252994
0.00251804
0.00252998
0.00251804
0.00251566
0.00252998
0.00252998
0.00251631
0.00251552
0.00251552
0.00247663
0.00249094
0.00249099
0.00247655
0.00249093
0.00247652
0.00247663
0.00249094
0.00249099
0.00247655
0.00248882
0.00248882
0.00248882
0.0024597
0.0024597
0.0024597
0.0024597
0.00247688
0.00249091
0.00248881
0.00247909
0.00249095
0.0024767
0.00247909
0.00249093
0.00247652
0.00247688
0.00248881
0.00249092
0.00247909
0.00249095
0.00247909
0.0024767
0.00249096
0.00249096
0.00247736
0.00247657
0.00247657
0.00243788
0.00245213
0.00245218
0.00243781
0.00245212
0.00243778
0.00243788
0.00245213
0.00245218
0.00243781
0.00245002
0.00245002
0.00245002
0.00242105
0.00242105
0.00242105
0.00242105
0.00243812
0.0024521
0.00245001
0.00244034
0.00245212
0.00243795
0.00244034
0.00245212
0.00243778
0.00243812
0.00245001
0.0024521
0.00244034
0.00245213
0.00244034
0.00243795
0.00245214
0.00245214
0.00243862
0.00243783
0.00243783
0.00239933
0.00241351
0.00241356
0.00239926
0.0024135
0.00239924
0.00239933
0.00241351
0.00241356
0.00239926
0.00241142
0.00241142
0.00241142
0.00238259
0.00238259
0.00238259
0.00238259
0.00239956
0.00241348
0.00241141
0.00240178
0.0024135
0.0023994
0.00240179
0.0024135
0.00239924
0.00239956
0.00241141
0.00241348
0.00240178
0.0024135
0.00240179
0.0023994
0.00241353
0.00241353
0.00240008
0.00239928
0.00239928
0.00236097
0.00237509
0.00237513
0.00236091
0.00237508
0.00236088
0.00236097
0.00237509
0.00237513
0.00236091
0.00237301
0.00237301
0.00237301
0.00234432
0.00234432
0.00234432
0.00234432
0.0023612
0.00237506
0.002373
0.00236342
0.00237508
0.00236103
0.00236342
0.00237508
0.00236088
0.00236119
0.002373
0.00237506
0.00236342
0.00237508
0.00236342
0.00236103
0.00237511
0.00237511
0.00236172
0.00236092
0.00236092
0.0023228
0.00233686
0.0023369
0.00232273
0.00233685
0.00232271
0.0023228
0.00233686
0.0023369
0.00232273
0.00233479
0.00233479
0.00233479
0.00230624
0.00230624
0.00230624
0.00230624
0.00232301
0.00233682
0.00233477
0.00232524
0.00233684
0.00232286
0.00232525
0.00233685
0.00232271
0.00232301
0.00233477
0.00233682
0.00232524
0.00233684
0.00232525
0.00232286
0.00233687
0.00233687
0.00232354
0.00232275
0.00232275
0.0022848
0.0022988
0.00229884
0.00228474
0.00229879
0.00228472
0.0022848
0.0022988
0.00229884
0.00228474
0.00229674
0.00229674
0.00229674
0.00226832
0.00226832
0.00226832
0.00226832
0.00228501
0.00229877
0.00229673
0.00228724
0.00229877
0.00228486
0.00228725
0.00229879
0.00228472
0.00228501
0.00229673
0.00229877
0.00228724
0.00229878
0.00228724
0.00228486
0.00229881
0.00229881
0.00228554
0.00228475
0.00228475
0.00224698
0.00226092
0.00226095
0.00224692
0.00226091
0.0022469
0.00224698
0.00226092
0.00226095
0.00224692
0.00225887
0.00225887
0.00225887
0.00223058
0.00223058
0.00223058
0.00223058
0.00224717
0.00226088
0.00225886
0.00224941
0.00226089
0.00224703
0.00224942
0.00226091
0.0022469
0.00224717
0.00225886
0.00226088
0.00224941
0.00226089
0.00224942
0.00224703
0.00226093
0.00226093
0.00224771
0.00224693
0.00224693
0.00220932
0.0022232
0.00222324
0.00220926
0.0022232
0.00220924
0.00220932
0.0022232
0.00222324
0.00220926
0.00222117
0.00222117
0.00222117
0.002193
0.002193
0.002193
0.002193
0.00220951
0.00222317
0.00222116
0.00221174
0.00222317
0.00220937
0.00221176
0.0022232
0.00220924
0.00220951
0.00222116
0.00222317
0.00221174
0.00222317
0.00221176
0.00220937
0.00222321
0.00222322
0.00221005
0.00220927
0.00220927
0.00217182
0.00218565
0.00218568
0.00217176
0.00218565
0.00217175
0.00217182
0.00218565
0.00218568
0.00217176
0.00218363
0.00218363
0.00218363
0.00215558
0.00215558
0.00215558
0.00215558
0.00217201
0.00218562
0.00218362
0.00217424
0.00218562
0.00217187
0.00217425
0.00218565
0.00217175
0.00217201
0.00218362
0.00218562
0.00217424
0.00218562
0.00217425
0.00217187
0.00218566
0.00218566
0.00217255
0.00217178
0.00217178
0.00213447
0.00214825
0.00214828
0.00213442
0.00214825
0.00213441
0.00213447
0.00214825
0.00214828
0.00213442
0.00214624
0.00214624
0.00214624
0.0021183
0.0021183
0.0021183
0.0021183
0.00213466
0.00214822
0.00214623
0.00213689
0.00214822
0.00213453
0.00213691
0.00214825
0.00213441
0.00213466
0.00214623
0.00214822
0.00213689
0.00214822
0.00213691
0.00213452
0.00214827
0.00214827
0.0021352
0.00213444
0.00213444
0.00209728
0.00211101
0.00211104
0.00209723
0.00211101
0.00209722
0.00209728
0.00211101
0.00211104
0.00209723
0.00210901
0.00210901
0.00210901
0.00208118
0.00208118
0.00208118
0.00208118
0.00209746
0.00211098
0.002109
0.00209969
0.00211098
0.00209733
0.00209971
0.00211101
0.00209722
0.00209746
0.002109
0.00211098
0.00209969
0.00211098
0.00209971
0.00209733
0.00211102
0.00211102
0.002098
0.00209724
0.00209724
0.00206023
0.00207391
0.00207393
0.00206018
0.00207391
0.00206017
0.00206023
0.00207391
0.00207393
0.00206018
0.00207192
0.00207192
0.00207192
0.00204419
0.00204419
0.00204419
0.00204419
0.0020604
0.00207388
0.00207191
0.00206263
0.00207387
0.00206028
0.00206265
0.00207391
0.00206017
0.0020604
0.0020719
0.00207388
0.00206263
0.00207387
0.00206265
0.00206028
0.00207392
0.00207392
0.00206094
0.00206019
0.00206019
0.00202331
0.00203695
0.00203697
0.00202327
0.00203695
0.00202326
0.00202331
0.00203695
0.00203697
0.00202327
0.00203496
0.00203496
0.00203496
0.00200734
0.00200734
0.00200734
0.00200734
0.00202348
0.00203692
0.00203495
0.00202571
0.00203691
0.00202336
0.00202574
0.00203695
0.00202326
0.00202348
0.00203495
0.00203692
0.00202571
0.00203691
0.00202574
0.00202336
0.00203696
0.00203696
0.00202403
0.00202328
0.00202328
0.00198653
0.00200012
0.00200014
0.00198649
0.00200012
0.00198647
0.00198653
0.00200012
0.00200014
0.00198649
0.00199815
0.00199814
0.00199815
0.00197061
0.00197061
0.00197061
0.00197061
0.00198669
0.00200009
0.00199813
0.00198892
0.00200008
0.00198658
0.00198895
0.00200012
0.00198648
0.00198669
0.00199813
0.00200009
0.00198892
0.00200008
0.00198895
0.00198658
0.00200013
0.00200013
0.00198724
0.0019865
0.0019865
0.00194987
0.00196342
0.00196344
0.00194983
0.00196342
0.00194982
0.00194987
0.00196342
0.00196344
0.00194983
0.00196145
0.00196145
0.00196145
0.00193401
0.00193401
0.00193401
0.00193401
0.00195003
0.00196339
0.00196144
0.00195225
0.00196338
0.00194992
0.00195229
0.00196342
0.00194982
0.00195003
0.00196144
0.00196339
0.00195225
0.00196338
0.00195228
0.00194992
0.00196343
0.00196343
0.00195058
0.00194984
0.00194984
0.00191333
0.00192684
0.00192686
0.00191329
0.00192685
0.00191329
0.00191333
0.00192684
0.00192686
0.0019133
0.00192488
0.00192488
0.00192488
0.00189753
0.00189753
0.00189753
0.00189753
0.00191349
0.00192681
0.00192487
0.0019157
0.0019268
0.00191338
0.00191574
0.00192684
0.00191328
0.00191349
0.00192487
0.00192681
0.0019157
0.0019268
0.00191574
0.00191338
0.00192685
0.00192685
0.00191403
0.0019133
0.0019133
0.0018769
0.00189038
0.00189039
0.00187687
0.00189038
0.00187686
0.0018769
0.00189038
0.00189039
0.00187687
0.00188843
0.00188843
0.00188843
0.00186116
0.00186116
0.00186116
0.00186116
0.00187706
0.00189035
0.00188841
0.00187927
0.00189034
0.00187696
0.00187931
0.00189038
0.00187686
0.00187706
0.00188841
0.00189035
0.00187927
0.00189034
0.00187931
0.00187696
0.00189039
0.00189039
0.0018776
0.00187688
0.00187688
0.00184059
0.00185403
0.00185404
0.00184056
0.00185403
0.00184055
0.00184059
0.00185403
0.00185404
0.00184056
0.00185208
0.00185208
0.00185208
0.00182489
0.00182489
0.00182489
0.00182489
0.00184074
0.001854
0.00185206
0.00184295
0.00185399
0.00184064
0.00184299
0.00185403
0.00184055
0.00184074
0.00185206
0.001854
0.00184295
0.00185399
0.00184299
0.00184064
0.00185404
0.00185404
0.00184128
0.00184057
0.00184057
0.00180438
0.00181778
0.00181779
0.00180435
0.00181778
0.00180434
0.00180438
0.00181778
0.00181779
0.00180435
0.00181584
0.00181584
0.00181584
0.00178872
0.00178872
0.00178872
0.00178872
0.00180453
0.00181775
0.00181581
0.00180673
0.00181774
0.00180443
0.00180677
0.00181778
0.00180434
0.00180453
0.00181582
0.00181775
0.00180673
0.00181773
0.00180677
0.00180443
0.00181779
0.00181779
0.00180507
0.00180436
0.00180436
0.00176826
0.00178163
0.00178164
0.00176823
0.00178164
0.00176823
0.00176826
0.00178163
0.00178164
0.00176823
0.00177969
0.00177969
0.00177969
0.00175264
0.00175264
0.00175264
0.00175264
0.00176841
0.0017816
0.00177967
0.0017706
0.00178158
0.00176831
0.00177064
0.00178164
0.00176823
0.00176841
0.00177967
0.0017816
0.0017706
0.00178158
0.00177064
0.00176831
0.00178164
0.00178164
0.00176894
0.00176824
0.00176824
0.00173223
0.00174558
0.00174558
0.00173221
0.00174558
0.0017322
0.00173223
0.00174558
0.00174558
0.00173221
0.00174364
0.00174364
0.00174364
0.00171666
0.00171666
0.00171666
0.00171666
0.00173238
0.00174554
0.00174361
0.00173456
0.00174553
0.00173228
0.00173461
0.00174558
0.0017322
0.00173238
0.00174361
0.00174554
0.00173456
0.00174553
0.00173461
0.00173228
0.00174559
0.00174559
0.00173291
0.00173222
0.00173222
0.00169629
0.00170961
0.00170961
0.00169627
0.00170961
0.00169626
0.00169629
0.00170961
0.00170961
0.00169627
0.00170767
0.00170767
0.00170767
0.00169643
0.00170957
0.00170764
0.00169861
0.00170956
0.00169634
0.00169866
0.00170961
0.00169626
0.00169643
0.00170764
0.00170958
0.00169861
0.00170956
0.00169866
0.00169634
0.00170962
0.00170962
0.00169697
0.00169628
0.00169628
0.00260863
0.00259399
0.00260863
0.00259399
0.00260867
0.00260867
0.00259483
0.00259406
0.00259406
0.00257428
0.00258887
0.00257428
0.00258887
0.00258858
0.00257434
0.00257434
0.00258891
0.00258891
0.00259412
0.00260865
0.00259402
0.00260872
0.00259442
0.00260864
0.00260648
0.0025966
0.00259421
0.0025966
0.0026087
0.00259442
0.00260864
0.00260648
0.0025966
0.00259421
0.0025966
0.0026087
0.00258896
0.00257431
0.00258889
0.0025744
0.00258896
0.00257431
0.00258889
0.0025744
0.00258893
0.00258673
0.00257449
0.00257688
0.00258888
0.00258673
0.00257469
0.00258893
0.00258673
0.00257449
0.00257688
0.00258888
0.00258673
0.00257469
0.00260867
0.00260867
0.00259483
0.00259406
0.00259406
0.00260863
0.00259399
0.00257428
0.00258887
0.00258858
0.00257434
0.00257434
0.00258891
0.00258891
0.00257428
0.00258887
0.00259442
0.00260864
0.00260649
0.0025966
0.00259421
0.0025966
0.00260869
0.00259412
0.00260865
0.00259402
0.00260872
0.00259442
0.00260649
0.00260863
0.0025966
0.0025966
0.00259421
0.0026087
0.00258896
0.00257431
0.00258889
0.0025744
0.00258893
0.00258673
0.00257449
0.00257688
0.00258888
0.00258673
0.00257469
0.00258896
0.00257431
0.00258889
0.0025744
0.00258893
0.00258673
0.00257688
0.00257449
0.00258673
0.00258888
0.00257469
0.00259412
0.00260865
0.00259402
0.00260872
0.00259442
0.00260648
0.00260863
0.0025966
0.0025966
0.00259421
0.0026087
0.00259412
0.00260865
0.00259402
0.00260872
0.00258893
0.00258673
0.00257449
0.00257688
0.00258888
0.00258673
0.00257469
0.00258896
0.00257431
0.00258889
0.00257441
0.00258893
0.00258673
0.00257688
0.00257449
0.00258673
0.00258888
0.00257469
0.00258896
0.00257431
0.00258889
0.00257441
0.00260867
0.00260867
0.00259483
0.00259406
0.00259406
0.00260863
0.00259399
0.00257428
0.00258887
0.00258858
0.00257434
0.00257434
0.00258891
0.00258891
0.00257428
0.00258887
0.00259442
0.00260648
0.00260863
0.0025966
0.0025966
0.00259421
0.0026087
0.00259413
0.00260865
0.00259402
0.00260872
0.00259412
0.00260865
0.00259402
0.00260872
0.00258893
0.00258673
0.00257688
0.00257449
0.00258673
0.00258888
0.00257469
0.00258893
0.00258673
0.00257688
0.00257449
0.00258673
0.00258888
0.00257469
0.00258896
0.00257431
0.00258889
0.00257441
0.00258896
0.00257431
0.00258889
0.00257441
0.00260863
0.00259399
0.00260863
0.00259399
0.00258858
0.00257434
0.00257434
0.00258891
0.00258891
0.00257428
0.00258887
0.00257428
0.00258887
0.00256917
0.00255462
0.00256917
0.00255462
0.00256921
0.00256921
0.00255546
0.00255468
0.00255468
0.00253501
0.00254953
0.00253501
0.00254953
0.00254924
0.00253507
0.00253507
0.00254957
0.00254957
0.00255474
0.00256919
0.00256926
0.00255465
0.00255502
0.00256917
0.00256704
0.00255721
0.00256922
0.00255483
0.00255721
0.00255502
0.00256917
0.00256704
0.00255721
0.00256922
0.00255483
0.00255721
0.00254961
0.00253504
0.00254955
0.00253513
0.00254961
0.00253504
0.00254955
0.00253513
0.00254957
0.0025474
0.00253522
0.0025376
0.00254953
0.0025474
0.0025354
0.00254957
0.0025474
0.00253522
0.0025376
0.00254953
0.0025474
0.0025354
0.00256921
0.00256921
0.00255546
0.00255468
0.00255468
0.00256918
0.00255462
0.00253501
0.00254953
0.00254924
0.00253507
0.00253507
0.00254957
0.00254957
0.00253501
0.00254953
0.00255502
0.00256917
0.00256704
0.00255721
0.00256922
0.00255483
0.00255721
0.00255474
0.00256919
0.00256926
0.00255465
0.00255502
0.00256704
0.00256918
0.00255721
0.00256922
0.00255721
0.00255483
0.00254961
0.00253504
0.00254955
0.00253513
0.00254957
0.0025474
0.00253522
0.0025376
0.00254953
0.0025474
0.0025354
0.00254961
0.00253504
0.00254955
0.00253513
0.00254957
0.0025474
0.0025376
0.00253522
0.0025474
0.00254953
0.0025354
0.00255474
0.00256919
0.00256926
0.00255465
0.00255502
0.00256704
0.00256917
0.00255721
0.00256922
0.00255721
0.00255483
0.00255474
0.00256919
0.00256926
0.00255465
0.00254957
0.0025474
0.00253522
0.0025376
0.00254953
0.0025474
0.0025354
0.00254961
0.00253504
0.00254955
0.00253513
0.00254957
0.0025474
0.0025376
0.00253522
0.0025474
0.00254953
0.0025354
0.00254961
0.00253504
0.00254955
0.00253513
0.00256921
0.00256921
0.00255546
0.00255468
0.00255468
0.00256918
0.00255462
0.00253501
0.00254953
0.00254924
0.00253507
0.00253507
0.00254957
0.00254957
0.00253501
0.00254953
0.00255502
0.00256704
0.00256917
0.00255721
0.00256922
0.00255721
0.00255483
0.00255474
0.00256919
0.00256926
0.00255465
0.00255474
0.00256919
0.00256926
0.00255465
0.00254957
0.0025474
0.0025376
0.00253522
0.0025474
0.00254953
0.0025354
0.00254957
0.0025474
0.0025376
0.00253522
0.0025474
0.00254953
0.0025354
0.00254961
0.00253504
0.00254955
0.00253513
0.00254961
0.00253504
0.00254955
0.00253513
0.00256918
0.00255462
0.00256918
0.00255462
0.00254924
0.00253507
0.00253507
0.00254957
0.00254957
0.00253501
0.00254953
0.00253501
0.00254953
0.00252994
0.00251546
0.00252994
0.00251546
0.00252998
0.00252998
0.00251631
0.00251552
0.00251552
0.00249597
0.00251041
0.00249597
0.00251041
0.00251011
0.00249602
0.00249602
0.00251044
0.00251044
0.00251558
0.00252996
0.00253002
0.00251549
0.00251584
0.00252994
0.00252782
0.00251804
0.00252998
0.00251566
0.00251804
0.00251584
0.00252994
0.00252782
0.00251804
0.00252998
0.00251566
0.00251804
0.00251048
0.00249599
0.00251042
0.00249608
0.00251048
0.00249599
0.00251042
0.00249608
0.00251043
0.00250829
0.00249616
0.00249854
0.0025104
0.00250829
0.00249633
0.00251043
0.00250829
0.00249616
0.00249854
0.0025104
0.00250829
0.00249633
0.00252998
0.00252998
0.00251631
0.00251552
0.00251552
0.00252994
0.00251546
0.00249597
0.00251041
0.00251011
0.00249602
0.00249602
0.00251044
0.00251044
0.00249597
0.00251041
0.00251584
0.00252994
0.00252782
0.00251804
0.00252998
0.00251566
0.00251804
0.00251558
0.00252996
0.00253002
0.00251549
0.00251584
0.00252782
0.00252994
0.00251804
0.00252998
0.00251804
0.00251566
0.00251048
0.00249599
0.00251042
0.00249608
0.00251043
0.00250829
0.00249616
0.00249854
0.0025104
0.00250829
0.00249633
0.00251048
0.00249599
0.00251042
0.00249608
0.00251043
0.00250829
0.00249854
0.00249616
0.00250828
0.0025104
0.00249633
0.00251558
0.00252996
0.00253002
0.00251549
0.00251584
0.00252782
0.00252994
0.00251804
0.00252998
0.00251804
0.00251566
0.00251558
0.00252996
0.00253002
0.00251549
0.00251043
0.00250829
0.00249615
0.00249854
0.0025104
0.00250829
0.00249633
0.00251048
0.00249599
0.00251042
0.00249608
0.00251043
0.00250829
0.00249854
0.00249615
0.00250829
0.0025104
0.00249633
0.00251048
0.00249599
0.00251042
0.00249608
0.00252998
0.00252998
0.00251631
0.00251552
0.00251552
0.00252994
0.00251546
0.00249597
0.00251041
0.00251011
0.00249602
0.00249602
0.00251044
0.00251044
0.00249597
0.00251041
0.00251584
0.00252781
0.00252994
0.00251804
0.00252998
0.00251804
0.00251566
0.00251558
0.00252996
0.00253002
0.00251549
0.00251558
0.00252996
0.00253002
0.00251549
0.00251044
0.00250829
0.00249854
0.00249616
0.00250828
0.0025104
0.00249633
0.00251043
0.00250829
0.00249854
0.00249616
0.00250829
0.0025104
0.00249633
0.00251048
0.00249599
0.00251042
0.00249608
0.00251048
0.00249599
0.00251042
0.00249608
0.00252994
0.00251546
0.00252994
0.00251546
0.00251011
0.00249602
0.00249602
0.00251044
0.00251044
0.00249597
0.00251041
0.00249597
0.00251041
0.00249093
0.00247652
0.00249093
0.00247652
0.00249096
0.00249096
0.00247737
0.00247657
0.00247657
0.00245713
0.0024715
0.00245713
0.0024715
0.00247119
0.00245717
0.00245717
0.00247153
0.00247153
0.00247663
0.00249094
0.00249099
0.00247655
0.00247688
0.00249092
0.00248881
0.00247909
0.00249095
0.0024767
0.00247909
0.00247688
0.00249091
0.00248881
0.00247909
0.00249095
0.0024767
0.00247909
0.00247156
0.00245715
0.00247151
0.00245723
0.00247156
0.00245715
0.00247151
0.00245723
0.00247151
0.00246938
0.0024573
0.00245969
0.00247148
0.00246938
0.00245747
0.00247151
0.00246938
0.0024573
0.00245969
0.00247148
0.00246938
0.00245747
0.00249096
0.00249096
0.00247737
0.00247657
0.00247657
0.00249093
0.00247652
0.00245713
0.0024715
0.00247119
0.00245717
0.00245717
0.00247153
0.00247153
0.00245713
0.0024715
0.00247688
0.00249091
0.00248881
0.00247909
0.00249095
0.0024767
0.00247909
0.00247663
0.00249094
0.00249099
0.00247655
0.00247688
0.00248881
0.00249091
0.00247909
0.00249095
0.00247909
0.0024767
0.00247156
0.00245715
0.00247151
0.00245723
0.00247151
0.00246938
0.0024573
0.00245969
0.00247148
0.00246938
0.00245747
0.00247156
0.00245715
0.00247151
0.00245723
0.00247151
0.00246938
0.00245969
0.0024573
0.00246938
0.00247148
0.00245747
0.00247663
0.00249094
0.00249099
0.00247655
0.00247688
0.00248881
0.00249091
0.00247909
0.00249095
0.00247909
0.0024767
0.00247663
0.00249094
0.00249099
0.00247654
0.00247151
0.00246938
0.0024573
0.00245969
0.00247148
0.00246938
0.00245748
0.00247156
0.00245715
0.00247151
0.00245723
0.00247151
0.00246938
0.00245969
0.0024573
0.00246938
0.00247148
0.00245748
0.00247156
0.00245715
0.00247151
0.00245723
0.00249096
0.00249096
0.00247736
0.00247657
0.00247657
0.00249093
0.00247652
0.00245713
0.0024715
0.00247119
0.00245717
0.00245717
0.00247153
0.00247153
0.00245713
0.0024715
0.00247688
0.00248881
0.00249092
0.00247909
0.00249095
0.00247909
0.00247671
0.00247663
0.00249094
0.00249099
0.00247655
0.00247663
0.00249094
0.00249099
0.00247655
0.00247151
0.00246938
0.00245969
0.0024573
0.00246938
0.00247148
0.00245747
0.00247151
0.00246938
0.00245969
0.0024573
0.00246938
0.00247148
0.00245747
0.00247156
0.00245715
0.00247151
0.00245723
0.00247156
0.00245715
0.00247151
0.00245723
0.00249093
0.00247652
0.00249093
0.00247652
0.00247119
0.00245717
0.00245717
0.00247152
0.00247153
0.00245713
0.0024715
0.00245713
0.0024715
0.00245212
0.00243778
0.00245212
0.00243778
0.00245214
0.00245214
0.00243862
0.00243783
0.00243783
0.00241849
0.00243279
0.00241849
0.00243279
0.00243247
0.00241853
0.00241853
0.00243281
0.00243281
0.00243788
0.00245213
0.00245218
0.0024378
0.00243812
0.0024521
0.00245001
0.00244034
0.00245212
0.00243795
0.00244034
0.00243812
0.0024521
0.00245001
0.00244034
0.00245212
0.00243795
0.00244034
0.00243284
0.00241851
0.0024328
0.00241858
0.00243284
0.00241851
0.0024328
0.00241858
0.00243279
0.00243068
0.00241865
0.00242104
0.00243277
0.00243068
0.00241882
0.00243279
0.00243068
0.00241865
0.00242104
0.00243277
0.00243068
0.00241882
0.00245214
0.00245214
0.00243862
0.00243783
0.00243783
0.00245212
0.00243778
0.00241848
0.00243279
0.00243248
0.00241853
0.00241853
0.00243281
0.00243281
0.00241849
0.00243279
0.00243812
0.0024521
0.00245001
0.00244034
0.00245212
0.00243795
0.00244034
0.00243788
0.00245213
0.00245218
0.00243781
0.00243812
0.00245001
0.0024521
0.00244034
0.00245212
0.00244034
0.00243795
0.00243284
0.00241851
0.0024328
0.00241858
0.00243279
0.00243068
0.00241865
0.00242104
0.00243277
0.00243068
0.00241882
0.00243284
0.00241851
0.0024328
0.00241858
0.00243279
0.00243068
0.00242104
0.00241865
0.00243068
0.00243277
0.00241882
0.00243788
0.00245213
0.00245218
0.00243781
0.00243812
0.00245001
0.0024521
0.00244034
0.00245212
0.00244034
0.00243795
0.00243788
0.00245213
0.00245218
0.0024378
0.00243279
0.00243068
0.00241865
0.00242104
0.00243277
0.00243068
0.00241882
0.00243284
0.00241851
0.0024328
0.00241858
0.00243279
0.00243068
0.00242104
0.00241865
0.00243068
0.00243277
0.00241882
0.00243284
0.00241851
0.0024328
0.00241858
0.00245214
0.00245214
0.00243862
0.00243783
0.00243783
0.00245212
0.00243778
0.00241848
0.00243279
0.00243248
0.00241853
0.00241853
0.00243281
0.00243281
0.00241848
0.00243278
0.00243812
0.00245001
0.0024521
0.00244034
0.00245212
0.00244034
0.00243795
0.00243788
0.00245213
0.00245218
0.00243781
0.00243788
0.00245213
0.00245218
0.00243781
0.00243279
0.00243068
0.00242104
0.00241865
0.00243068
0.00243277
0.00241882
0.00243279
0.00243068
0.00242104
0.00241865
0.00243068
0.00243277
0.00241882
0.00243284
0.00241851
0.0024328
0.00241858
0.00243284
0.00241851
0.0024328
0.00241858
0.00245212
0.00243778
0.00245212
0.00243778
0.00243248
0.00241853
0.00241853
0.00243281
0.00243281
0.00241848
0.00243278
0.00241848
0.00243279
0.0024135
0.00239924
0.0024135
0.00239924
0.00241353
0.00241353
0.00240008
0.00239928
0.00239928
0.00238004
0.00239427
0.00238004
0.00239427
0.00239395
0.00238008
0.00238008
0.00239429
0.00239429
0.00239933
0.00241351
0.00241356
0.00239926
0.00239956
0.00241348