/*--------------------------------*- C++ -*----------------------------------*\
| =========                 |                                                 |
| \\      /  F ield         | OpenFOAM: The Open Source CFD Toolbox           |
|  \\    /   O peration     | Version:  2312                                  |
|   \\  /    A nd           | Website:  www.openfoam.com                      |
|    \\/     M anipulation  |                                                 |
\*---------------------------------------------------------------------------*/
FoamFile
{
    version     2.0;
    format      ascii;
    arch        "LSB;label=32;scalar=64";
    class       volVectorField;
    location    "350";
    object      U;
}
// * * * * * * * * * * * * * * * * * * * * * * * * * * * * * * * * * * * * * //

dimensions      [0 1 -1 0 0 0 0];

internalField   nonuniform List<vector> 
42840
(
(5.98147e-05 5.98185e-05 0.109207)
(-8.96039e-05 5.58029e-05 0.108145)
(5.57862e-05 -8.96644e-05 0.108144)
(-0.000142284 -0.000142273 0.106657)
(5.85617e-05 5.8557e-05 0.109496)
(-8.73574e-05 5.45807e-05 0.108304)
(5.45607e-05 -8.73812e-05 0.108304)
(-0.000137987 -0.000137965 0.106656)
(5.73153e-05 5.7313e-05 0.109775)
(-8.4974e-05 5.33149e-05 0.108444)
(5.32866e-05 -8.49891e-05 0.108444)
(-0.00013334 -0.000133343 0.106632)
(5.60064e-05 5.59959e-05 0.110044)
(-8.24488e-05 5.2001e-05 0.108566)
(5.19591e-05 -8.24407e-05 0.108565)
(-0.000128479 -0.000128485 0.106589)
(5.46405e-05 5.46314e-05 0.110304)
(-7.97926e-05 5.05828e-05 0.108669)
(5.05356e-05 -7.97693e-05 0.108668)
(-0.000123401 -0.000123427 0.106529)
(5.32201e-05 5.32109e-05 0.110553)
(-7.69714e-05 4.9036e-05 0.108754)
(4.89966e-05 -7.69362e-05 0.108753)
(-0.00011822 -0.00011823 0.106454)
(5.17886e-05 5.17803e-05 0.110792)
(-7.40122e-05 4.73182e-05 0.108821)
(4.72866e-05 -7.39727e-05 0.108821)
(-0.000112865 -0.000112888 0.106368)
(5.03252e-05 5.03205e-05 0.111021)
(-7.09224e-05 4.5508e-05 0.108872)
(4.54777e-05 -7.08743e-05 0.108872)
(-0.00010755 -0.000107562 0.106274)
(4.88465e-05 4.8846e-05 0.111239)
(-6.77322e-05 4.35819e-05 0.108907)
(4.35521e-05 -6.77052e-05 0.108907)
(-0.000102368 -0.000102384 0.106175)
(4.73539e-05 4.73561e-05 0.111445)
(-6.44882e-05 4.15763e-05 0.108928)
(4.15428e-05 -6.44544e-05 0.108927)
(-9.72506e-05 -9.72735e-05 0.106072)
(4.58745e-05 4.58701e-05 0.11164)
(-6.11873e-05 3.94838e-05 0.108935)
(3.94405e-05 -6.11717e-05 0.108934)
(-9.23299e-05 -9.23543e-05 0.105969)
(4.43976e-05 4.43962e-05 0.111823)
(-5.78916e-05 3.73333e-05 0.10893)
(3.72686e-05 -5.78755e-05 0.108929)
(-8.76481e-05 -8.7671e-05 0.105865)
(4.29376e-05 4.29337e-05 0.111993)
(-5.45922e-05 3.51052e-05 0.108915)
(3.50539e-05 -5.45956e-05 0.108914)
(-8.31123e-05 -8.3148e-05 0.105762)
(4.14848e-05 4.14809e-05 0.112152)
(-5.1329e-05 3.28697e-05 0.10889)
(3.28156e-05 -5.13344e-05 0.108889)
(-7.88716e-05 -7.89041e-05 0.105662)
(4.0027e-05 4.00236e-05 0.112299)
(-4.81051e-05 3.06437e-05 0.108857)
(3.05787e-05 -4.80992e-05 0.108856)
(-7.47935e-05 -7.48137e-05 0.105565)
(3.85635e-05 3.8556e-05 0.112433)
(-4.49132e-05 2.84004e-05 0.108817)
(2.83691e-05 -4.49094e-05 0.108816)
(-7.102e-05 -7.10274e-05 0.105471)
(3.70826e-05 3.70683e-05 0.112554)
(-4.17949e-05 2.62041e-05 0.108771)
(2.61791e-05 -4.17682e-05 0.10877)
(-6.73821e-05 -6.73874e-05 0.10538)
(3.55641e-05 3.55533e-05 0.112664)
(-3.87251e-05 2.40212e-05 0.108722)
(2.40255e-05 -3.8705e-05 0.108721)
(-6.4037e-05 -6.40389e-05 0.105293)
(3.40272e-05 3.40199e-05 0.112761)
(-3.57381e-05 2.19317e-05 0.108669)
(2.19451e-05 -3.57108e-05 0.108668)
(-6.09032e-05 -6.09029e-05 0.105209)
(3.24471e-05 3.24461e-05 0.112847)
(-3.28214e-05 1.99036e-05 0.108613)
(1.99225e-05 -3.27928e-05 0.108612)
(-5.79291e-05 -5.79382e-05 0.10513)
(3.08318e-05 3.08428e-05 0.112922)
(-2.99884e-05 1.79753e-05 0.108556)
(1.79876e-05 -2.9962e-05 0.108555)
(-5.51968e-05 -5.52068e-05 0.105054)
(2.91852e-05 2.91992e-05 0.112985)
(-2.72342e-05 1.61262e-05 0.108498)
(1.61383e-05 -2.72159e-05 0.108497)
(-5.26124e-05 -5.2628e-05 0.104981)
(2.75095e-05 2.75231e-05 0.113038)
(-2.45678e-05 1.43955e-05 0.10844)
(1.44079e-05 -2.45569e-05 0.108439)
(-5.02333e-05 -5.0262e-05 0.104913)
(2.58003e-05 2.58043e-05 0.113081)
(-2.19967e-05 1.27614e-05 0.108382)
(1.27813e-05 -2.19865e-05 0.108381)
(-4.79862e-05 -4.80207e-05 0.104848)
(2.4054e-05 2.40612e-05 0.113115)
(-1.95146e-05 1.12291e-05 0.108325)
(1.12546e-05 -1.95123e-05 0.108324)
(-4.59225e-05 -4.59669e-05 0.104787)
(0.000142261 0.000142259 0.106657)
(4.36401e-06 4.42513e-06 0.106843)
(5.59595e-05 8.97779e-05 0.108144)
(-5.5964e-05 8.97501e-05 0.108144)
(5.50443e-05 8.8072e-05 0.108265)
(-5.50512e-05 8.80393e-05 0.108265)
(-0.000142227 0.000142226 0.106657)
(-4.33357e-06 4.41143e-06 0.106842)
(8.97314e-05 5.58709e-05 0.108145)
(8.97233e-05 -5.59178e-05 0.108144)
(8.80215e-05 5.49384e-05 0.108266)
(8.80205e-05 -5.5e-05 0.108265)
(-8.95227e-05 -5.58622e-05 0.108144)
(-8.792e-05 5.49021e-05 0.108266)
(-8.78263e-05 -5.49424e-05 0.108265)
(0.000142265 -0.000142244 0.106657)
(4.44415e-06 -4.28967e-06 0.106842)
(-5.57941e-05 -8.97263e-05 0.108144)
(5.48724e-05 -8.79523e-05 0.108266)
(-5.48735e-05 -8.80188e-05 0.108265)
(-4.42759e-06 -4.32137e-06 0.106842)
(0.000137966 0.000137943 0.106656)
(1.82049e-06 1.8799e-06 0.106831)
(5.47206e-05 8.74916e-05 0.108303)
(-5.47316e-05 8.74669e-05 0.108303)
(5.37774e-05 8.57206e-05 0.10841)
(-5.37759e-05 8.56831e-05 0.108409)
(-0.000137937 0.000137945 0.106656)
(-1.77654e-06 1.86657e-06 0.106831)
(8.74419e-05 5.46118e-05 0.108304)
(8.74402e-05 -5.46881e-05 0.108303)
(8.56715e-05 5.3659e-05 0.108411)
(8.56524e-05 -5.3758e-05 0.108409)
(-8.7254e-05 -5.46286e-05 0.108303)
(-8.5578e-05 5.36442e-05 0.108411)
(-8.54739e-05 -5.36754e-05 0.10841)
(0.000137962 -0.000137965 0.106656)
(1.906e-06 -1.72707e-06 0.106831)
(-5.45649e-05 -8.74439e-05 0.108303)
(5.36127e-05 -8.55916e-05 0.108411)
(-5.36038e-05 -8.5648e-05 0.10841)
(-1.84206e-06 -1.76864e-06 0.10683)
(0.000133329 0.00013331 0.106632)
(-6.52617e-07 -6.17324e-07 0.106798)
(5.34602e-05 8.51047e-05 0.108443)
(-5.3452e-05 8.50738e-05 0.108443)
(5.24848e-05 8.31947e-05 0.108536)
(-5.24824e-05 8.31642e-05 0.108536)
(-0.000133297 0.000133318 0.106632)
(7.01603e-07 -6.25131e-07 0.106797)
(8.50583e-05 5.33404e-05 0.108444)
(8.50416e-05 -5.34428e-05 0.108443)
(8.31444e-05 5.23621e-05 0.108537)
(8.31214e-05 -5.24685e-05 0.108536)
(-8.48622e-05 -5.33608e-05 0.108443)
(-8.30813e-05 5.23474e-05 0.108537)
(-8.29702e-05 -5.23697e-05 0.108536)
(0.000133359 -0.000133334 0.106632)
(-5.83782e-07 7.19068e-07 0.106797)
(-5.32902e-05 -8.50437e-05 0.108443)
(5.23042e-05 -8.30817e-05 0.108537)
(-5.23164e-05 -8.31317e-05 0.108536)
(6.59658e-07 7.26746e-07 0.106797)
(0.000128494 0.000128459 0.106589)
(-3.16494e-06 -3.13985e-06 0.106745)
(5.21461e-05 8.25474e-05 0.108565)
(-5.21441e-05 8.25164e-05 0.108564)
(5.10978e-05 8.05568e-05 0.108644)
(-5.10898e-05 8.05197e-05 0.108643)
(-0.000128447 0.000128457 0.106589)
(3.14447e-06 -3.08854e-06 0.106745)
(8.25009e-05 5.202e-05 0.108565)
(8.2466e-05 -5.2132e-05 0.108564)
(8.05076e-05 5.09715e-05 0.108644)
(8.04581e-05 -5.10778e-05 0.108643)
(-8.23338e-05 -5.20348e-05 0.108565)
(-8.04723e-05 5.09544e-05 0.108645)
(-8.03574e-05 -5.09853e-05 0.108644)
(0.000128491 -0.000128493 0.106589)
(-3.12455e-06 3.23899e-06 0.106745)
(-5.19811e-05 -8.24804e-05 0.108565)
(5.0899e-05 -8.04481e-05 0.108644)
(-5.09233e-05 -8.04744e-05 0.108644)
(3.12669e-06 3.16691e-06 0.106744)
(0.000123398 0.000123358 0.106528)
(-5.67948e-06 -5.63728e-06 0.106677)
(5.07323e-05 7.98715e-05 0.108668)
(-5.07284e-05 7.98313e-05 0.108667)
(4.9589e-05 7.77547e-05 0.108733)
(-4.95971e-05 7.7705e-05 0.108733)
(-0.000123403 0.000123398 0.106528)
(5.66022e-06 -5.60405e-06 0.106677)
(7.98222e-05 5.06039e-05 0.108668)
(7.97731e-05 -5.07122e-05 0.108667)
(7.7702e-05 4.94533e-05 0.108734)
(7.76537e-05 -4.95826e-05 0.108732)
(-7.96786e-05 -5.06236e-05 0.108668)
(-7.76873e-05 4.94529e-05 0.108734)
(-7.75695e-05 -4.9496e-05 0.108733)
(0.000123441 -0.000123453 0.106528)
(-5.5977e-06 5.71341e-06 0.106676)
(-5.05627e-05 -7.97919e-05 0.108668)
(4.94065e-05 -7.76549e-05 0.108734)
(-4.94264e-05 -7.76745e-05 0.108733)
(5.62223e-06 5.68246e-06 0.106676)
(0.000118217 0.00011818 0.106454)
(-8.21639e-06 -8.18382e-06 0.106596)
(4.91691e-05 7.70256e-05 0.108753)
(-4.91913e-05 7.69823e-05 0.108752)
(4.78917e-05 7.48144e-05 0.108805)
(-4.79122e-05 7.47596e-05 0.108804)
(-0.00011821 0.000118196 0.106454)
(8.22194e-06 -8.19783e-06 0.106596)
(7.69759e-05 4.90408e-05 0.108753)
(7.69283e-05 -4.91863e-05 0.108752)
(7.47698e-05 4.77656e-05 0.108806)
(7.47175e-05 -4.79111e-05 0.108804)
(-7.68464e-05 -4.90853e-05 0.108752)
(-7.47607e-05 4.77588e-05 0.108806)
(-7.46471e-05 -4.78204e-05 0.108805)
(0.000118199 -0.000118222 0.106454)
(-8.1683e-06 8.27736e-06 0.106595)
(-4.90188e-05 -7.69505e-05 0.108753)
(4.77288e-05 -7.4723e-05 0.108806)
(-4.77514e-05 -7.47365e-05 0.108805)
(8.20294e-06 8.23933e-06 0.106594)
(0.000112924 0.000112895 0.106368)
(-1.07689e-05 -1.07405e-05 0.106505)
(4.74574e-05 7.40599e-05 0.10882)
(-4.748e-05 7.4005e-05 0.108819)
(4.61158e-05 7.17548e-05 0.10886)
(-4.61348e-05 7.16983e-05 0.108859)
(-0.000112902 0.000112867 0.106368)
(1.07742e-05 -1.07542e-05 0.106505)
(7.40162e-05 4.73321e-05 0.108821)
(7.3964e-05 -4.74722e-05 0.108819)
(7.17052e-05 4.59946e-05 0.10886)
(7.1651e-05 -4.6125e-05 0.108859)
(-7.38969e-05 -4.73918e-05 0.10882)
(-7.16988e-05 4.59829e-05 0.108861)
(-7.15946e-05 -4.60422e-05 0.108859)
(0.000112903 -0.000112916 0.106368)
(-1.07126e-05 1.08194e-05 0.106504)
(-4.73201e-05 -7.39833e-05 0.10882)
(4.59477e-05 -7.16545e-05 0.108861)
(-4.59632e-05 -7.16655e-05 0.10886)
(1.07097e-05 1.07534e-05 0.106504)
(0.000107624 0.000107596 0.106274)
(-1.33071e-05 -1.32737e-05 0.106407)
(4.56472e-05 7.09725e-05 0.108871)
(-4.56644e-05 7.09116e-05 0.10887)
(4.42119e-05 6.85863e-05 0.108898)
(-4.42429e-05 6.85393e-05 0.108898)
(-0.000107607 0.000107571 0.106274)
(1.32156e-05 -1.31987e-05 0.106407)
(7.09221e-05 4.55311e-05 0.108872)
(7.08718e-05 -4.56577e-05 0.10887)
(6.85314e-05 4.41032e-05 0.108899)
(6.84869e-05 -4.42308e-05 0.108897)
(-7.08106e-05 -4.5583e-05 0.10887)
(-6.85381e-05 4.40828e-05 0.1089)
(-6.84336e-05 -4.41531e-05 0.108898)
(0.000107587 -0.000107599 0.106274)
(-1.32218e-05 1.32872e-05 0.106406)
(-4.55099e-05 -7.08845e-05 0.108871)
(4.40523e-05 -6.85006e-05 0.108899)
(-4.408e-05 -6.85131e-05 0.108899)
(1.32443e-05 1.32816e-05 0.106406)
(0.0001024 0.000102384 0.106175)
(-1.56846e-05 -1.5657e-05 0.106305)
(4.37229e-05 6.77834e-05 0.108906)
(-4.37511e-05 6.77302e-05 0.108905)
(4.22202e-05 6.53516e-05 0.108922)
(-4.22489e-05 6.52972e-05 0.108922)
(-0.000102367 0.000102323 0.106175)
(1.5649e-05 -1.56364e-05 0.106305)
(6.7723e-05 4.36127e-05 0.108907)
(6.76826e-05 -4.3737e-05 0.108905)
(6.5288e-05 4.21111e-05 0.108923)
(6.52458e-05 -4.2245e-05 0.108921)
(-6.76327e-05 -4.36762e-05 0.108905)
(-6.53013e-05 4.20932e-05 0.108924)
(-6.51965e-05 -4.21837e-05 0.108922)
(0.000102396 -0.000102437 0.106175)
(-1.57236e-05 1.57636e-05 0.106304)
(-4.35948e-05 -6.77111e-05 0.108906)
(4.20649e-05 -6.52672e-05 0.108923)
(-4.20999e-05 -6.52766e-05 0.108923)
(1.57137e-05 1.5741e-05 0.106304)
(9.73174e-05 9.72984e-05 0.106073)
(-1.80558e-05 -1.80288e-05 0.106201)
(4.17035e-05 6.45322e-05 0.108926)
(-4.17307e-05 6.44783e-05 0.108925)
(4.01554e-05 6.20619e-05 0.108933)
(-4.01704e-05 6.20077e-05 0.108932)
(-9.73194e-05 9.72806e-05 0.106073)
(1.79992e-05 -1.7992e-05 0.1062)
(6.44702e-05 4.16011e-05 0.108927)
(6.44233e-05 -4.17301e-05 0.108925)
(6.19946e-05 4.00356e-05 0.108934)
(6.19561e-05 -4.01537e-05 0.108931)
(-6.43786e-05 -4.16762e-05 0.108926)
(-6.20088e-05 4.00239e-05 0.108934)
(-6.1916e-05 -4.00983e-05 0.108932)
(9.72768e-05 -9.73431e-05 0.106073)
(-1.80341e-05 1.80532e-05 0.1062)
(-4.15937e-05 -6.44618e-05 0.108926)
(3.99796e-05 -6.19936e-05 0.108934)
(-4.00301e-05 -6.2001e-05 0.108933)
(1.80367e-05 1.80612e-05 0.106199)
(9.24077e-05 9.23871e-05 0.105969)
(-2.02945e-05 -2.02628e-05 0.106095)
(3.96277e-05 6.12346e-05 0.108933)
(-3.96432e-05 6.11779e-05 0.108932)
(3.80059e-05 5.87602e-05 0.10893)
(-3.80293e-05 5.8707e-05 0.10893)
(-9.23991e-05 9.23569e-05 0.105969)
(2.02852e-05 -2.02801e-05 0.106095)
(6.11739e-05 3.95126e-05 0.108934)
(6.11328e-05 -3.96253e-05 0.108932)
(5.87023e-05 3.79108e-05 0.108932)
(5.86496e-05 -3.80141e-05 0.108929)
(-6.10937e-05 -3.95769e-05 0.108933)
(-5.87062e-05 3.78899e-05 0.108932)
(-5.86202e-05 -3.79489e-05 0.10893)
(9.23205e-05 -9.24057e-05 0.105969)
(-2.03145e-05 2.02962e-05 0.106094)
(-3.95057e-05 -6.11811e-05 0.108933)
(3.78244e-05 -5.86937e-05 0.108932)
(-3.78703e-05 -5.87072e-05 0.108931)
(2.0252e-05 2.02724e-05 0.106094)
(8.76689e-05 8.76563e-05 0.105865)
(-2.23631e-05 -2.23293e-05 0.105991)
(3.74613e-05 5.79344e-05 0.108928)
(-3.74806e-05 5.78851e-05 0.108927)
(3.57942e-05 5.54652e-05 0.108917)
(-3.57993e-05 5.54068e-05 0.108917)
(-8.76454e-05 8.7605e-05 0.105865)
(2.23539e-05 -2.23483e-05 0.10599)
(5.78769e-05 3.73635e-05 0.108929)
(5.78248e-05 -3.74618e-05 0.108927)
(5.54074e-05 3.57045e-05 0.108919)
(5.53561e-05 -3.58097e-05 0.108916)
(-5.77929e-05 -3.74057e-05 0.108927)
(-5.54029e-05 3.56685e-05 0.108919)
(-5.53264e-05 -3.57415e-05 0.108917)
(8.75812e-05 -8.76888e-05 0.105865)
(-2.23987e-05 2.23755e-05 0.10599)
(-3.73352e-05 -5.78849e-05 0.108928)
(3.56096e-05 -5.54126e-05 0.108919)
(-3.56716e-05 -5.54244e-05 0.108918)
(2.23772e-05 2.23817e-05 0.105989)
(8.31561e-05 8.31472e-05 0.105763)
(-2.43664e-05 -2.43345e-05 0.105888)
(3.52416e-05 5.46428e-05 0.108912)
(-3.52474e-05 5.4588e-05 0.108912)
(3.3553e-05 5.21921e-05 0.108894)
(-3.35533e-05 5.21424e-05 0.108894)
(-8.31686e-05 8.313e-05 0.105763)
(2.43186e-05 -2.43089e-05 0.105887)
(5.45872e-05 3.51469e-05 0.108914)
(5.45338e-05 -3.52496e-05 0.108911)
(5.21437e-05 3.34625e-05 0.108896)
(5.20878e-05 -3.35607e-05 0.108893)
(-5.4505e-05 -3.5183e-05 0.108912)
(-5.21352e-05 3.344e-05 0.108896)
(-5.2056e-05 -3.34893e-05 0.108894)
(8.3112e-05 -8.32274e-05 0.105763)
(-2.43619e-05 2.43472e-05 0.105887)
(-3.51212e-05 -5.46067e-05 0.108913)
(3.33745e-05 -5.21455e-05 0.108896)
(-3.34215e-05 -5.21555e-05 0.108895)
(2.43262e-05 2.4331e-05 0.105886)
(7.89172e-05 7.89042e-05 0.105663)
(-2.6199e-05 -2.61741e-05 0.105787)
(3.29901e-05 5.13805e-05 0.108887)
(-3.2981e-05 5.13281e-05 0.108887)
(3.12958e-05 4.89596e-05 0.108863)
(-3.13001e-05 4.89116e-05 0.108863)
(-7.89402e-05 7.89096e-05 0.105663)
(2.6175e-05 -2.61544e-05 0.105786)
(5.13343e-05 3.29016e-05 0.108889)
(5.12778e-05 -3.2999e-05 0.108886)
(4.89211e-05 3.12126e-05 0.108865)
(4.88589e-05 -3.13063e-05 0.108862)
(-5.12421e-05 -3.2931e-05 0.108887)
(-4.89106e-05 3.11983e-05 0.108865)
(-4.882e-05 -3.12303e-05 0.108862)
(7.88264e-05 -7.89297e-05 0.105663)
(-2.61778e-05 2.61931e-05 0.105786)
(-3.28702e-05 -5.13398e-05 0.108888)
(3.11384e-05 -4.89049e-05 0.108865)
(-3.11718e-05 -4.89046e-05 0.108863)
(2.61485e-05 2.61644e-05 0.105785)
(7.48722e-05 7.48571e-05 0.105565)
(-2.78751e-05 -2.7859e-05 0.105689)
(3.07327e-05 4.81595e-05 0.108854)
(-3.07344e-05 4.81125e-05 0.108854)
(2.90495e-05 4.57658e-05 0.108825)
(-2.90368e-05 4.57241e-05 0.108824)
(-7.48665e-05 7.48434e-05 0.105565)
(2.78362e-05 -2.78047e-05 0.105688)
(4.81222e-05 3.06486e-05 0.108856)
(4.80583e-05 -3.07425e-05 0.108853)
(4.57319e-05 2.89713e-05 0.108827)
(4.56811e-05 -2.90366e-05 0.108824)
(-4.80197e-05 -3.06693e-05 0.108853)
(-4.57193e-05 2.89528e-05 0.108827)
(-4.56287e-05 -2.89681e-05 0.108824)
(7.4783e-05 -7.48521e-05 0.105565)
(-2.78351e-05 2.78837e-05 0.105688)
(-3.06206e-05 -4.81008e-05 0.108854)
(2.89126e-05 -4.5698e-05 0.108826)
(-2.89325e-05 -4.56935e-05 0.108825)
(2.78325e-05 2.7859e-05 0.105687)
(7.10555e-05 7.10319e-05 0.105471)
(-2.94069e-05 -2.93957e-05 0.105594)
(2.84917e-05 4.49753e-05 0.108814)
(-2.84825e-05 4.49344e-05 0.108814)
(2.68268e-05 4.26235e-05 0.108781)
(-2.68167e-05 4.25849e-05 0.10878)
(-7.10329e-05 7.1017e-05 0.105471)
(2.94292e-05 -2.93923e-05 0.105593)
(4.49421e-05 2.8413e-05 0.108816)
(4.48941e-05 -2.84857e-05 0.108813)
(4.25941e-05 2.67505e-05 0.108783)
(4.25558e-05 -2.68103e-05 0.10878)
(-4.484e-05 -2.84243e-05 0.108814)
(-4.25796e-05 2.6749e-05 0.108783)
(-4.24984e-05 -2.67587e-05 0.10878)
(7.09937e-05 -7.10268e-05 0.105471)
(-2.93974e-05 2.94742e-05 0.105593)
(-2.83831e-05 -4.49011e-05 0.108815)
(2.67315e-05 -4.25462e-05 0.108782)
(-2.67113e-05 -4.25458e-05 0.108781)
(2.94047e-05 2.94285e-05 0.105592)
(6.74599e-05 6.74335e-05 0.10538)
(-3.08198e-05 -3.08165e-05 0.105502)
(2.62836e-05 4.18464e-05 0.108769)
(-2.62742e-05 4.18107e-05 0.108768)
(2.46552e-05 3.95314e-05 0.108732)
(-2.46524e-05 3.95007e-05 0.108731)
(-6.74133e-05 6.73977e-05 0.10538)
(3.08405e-05 -3.08196e-05 0.105502)
(4.18157e-05 2.6201e-05 0.108771)
(4.17841e-05 -2.6261e-05 0.108768)
(3.95082e-05 2.4572e-05 0.108734)
(3.94823e-05 -2.46165e-05 0.108731)
(-4.17196e-05 -2.62174e-05 0.108768)
(-3.94875e-05 2.45635e-05 0.108734)
(-3.94176e-05 -2.45794e-05 0.108731)
(6.74355e-05 -6.74375e-05 0.10538)
(-3.07885e-05 3.08817e-05 0.105501)
(-2.61706e-05 -4.17671e-05 0.108769)
(2.45598e-05 -3.9459e-05 0.108734)
(-2.45338e-05 -3.94669e-05 0.108732)
(3.08404e-05 3.0867e-05 0.105501)
(6.41068e-05 6.40784e-05 0.105293)
(-3.21549e-05 -3.21516e-05 0.105414)
(2.4107e-05 3.8768e-05 0.108719)
(-2.41133e-05 3.87381e-05 0.108719)
(2.25251e-05 3.6516e-05 0.10868)
(-2.25452e-05 3.64807e-05 0.108679)
(-6.41022e-05 6.40593e-05 0.105293)
(3.2157e-05 -3.218e-05 0.105414)
(3.87432e-05 2.40278e-05 0.108721)
(3.87257e-05 -2.40867e-05 0.108718)
(3.64817e-05 2.24516e-05 0.108681)
(3.64709e-05 -2.25016e-05 0.108679)
(-3.86575e-05 -2.40496e-05 0.108719)
(-3.64763e-05 2.24502e-05 0.108682)
(-3.64013e-05 -2.24596e-05 0.108679)
(6.41101e-05 -6.40994e-05 0.105293)
(-3.2103e-05 3.2191e-05 0.105414)
(-2.40127e-05 -3.8709e-05 0.10872)
(2.24535e-05 -3.64488e-05 0.108681)
(-2.24346e-05 -3.64473e-05 0.10868)
(3.21174e-05 3.21437e-05 0.105413)
(6.09749e-05 6.09652e-05 0.10521)
(-3.33256e-05 -3.33207e-05 0.10533)
(2.19924e-05 3.57752e-05 0.108666)
(-2.20313e-05 3.57434e-05 0.108665)
(2.0482e-05 3.35751e-05 0.108625)
(-2.05111e-05 3.3554e-05 0.108624)
(-6.09698e-05 6.08847e-05 0.10521)
(3.33533e-05 -3.33723e-05 0.10533)
(3.57319e-05 2.19212e-05 0.108668)
(3.57287e-05 -2.19894e-05 0.108665)
(3.35392e-05 2.04248e-05 0.108626)
(3.35374e-05 -2.04687e-05 0.108624)
(-3.56636e-05 -2.19561e-05 0.108665)
(-3.35449e-05 2.04107e-05 0.108627)
(-3.34731e-05 -2.0446e-05 0.108624)
(6.09425e-05 -6.09344e-05 0.105209)
(-3.33038e-05 3.33704e-05 0.10533)
(-2.19281e-05 -3.57057e-05 0.108667)
(2.04209e-05 -3.35124e-05 0.108626)
(-2.04076e-05 -3.35089e-05 0.108625)
(3.33471e-05 3.33634e-05 0.105329)
(5.7984e-05 5.79852e-05 0.10513)
(-3.44237e-05 -3.44048e-05 0.10525)
(1.99833e-05 3.28493e-05 0.108611)
(-2.00126e-05 3.28313e-05 0.10861)
(1.85223e-05 3.07137e-05 0.108568)
(-1.85693e-05 3.07028e-05 0.108567)
(-5.80074e-05 5.79317e-05 0.10513)
(3.43989e-05 -3.44291e-05 0.10525)
(3.28136e-05 1.99253e-05 0.108612)
(3.28139e-05 -1.9979e-05 0.108609)
(3.06781e-05 1.84846e-05 0.10857)
(3.06727e-05 -1.85263e-05 0.108567)
(-3.27553e-05 -1.99563e-05 0.10861)
(-3.06923e-05 1.84565e-05 0.10857)
(-3.0623e-05 -1.84883e-05 0.108567)
(5.79873e-05 -5.80008e-05 0.105129)
(-3.44084e-05 3.44503e-05 0.105249)
(-1.99144e-05 -3.2789e-05 0.108611)
(1.84623e-05 -3.06602e-05 0.108569)
(-1.84483e-05 -3.06528e-05 0.108568)
(3.43778e-05 3.43906e-05 0.105249)
(5.52137e-05 5.52264e-05 0.105054)
(-3.54019e-05 -3.53937e-05 0.105174)
(1.80465e-05 3.00094e-05 0.108553)
(-1.80945e-05 3.00014e-05 0.108553)
(1.66587e-05 2.79345e-05 0.10851)
(-1.67067e-05 2.79266e-05 0.108509)
(-5.52572e-05 5.5171e-05 0.105054)
(3.53441e-05 -3.53878e-05 0.105174)
(2.9968e-05 1.80011e-05 0.108555)
(2.99703e-05 -1.80548e-05 0.108552)
(2.78925e-05 1.66208e-05 0.108512)
(2.78943e-05 -1.6659e-05 0.108509)
(-2.99203e-05 -1.80187e-05 0.108553)
(-2.79191e-05 1.65785e-05 0.108512)
(-2.78531e-05 -1.66411e-05 0.108509)
(5.52035e-05 -5.52405e-05 0.105054)
(-3.53566e-05 3.5372e-05 0.105173)
(-1.79808e-05 -2.99511e-05 0.108554)
(1.65866e-05 -2.78933e-05 0.108512)
(-1.66062e-05 -2.78821e-05 0.108511)
(3.53843e-05 3.53915e-05 0.105172)
(5.26468e-05 5.26501e-05 0.104982)
(-3.62825e-05 -3.62801e-05 0.105101)
(1.62109e-05 2.72509e-05 0.108495)
(-1.62583e-05 2.72418e-05 0.108495)
(1.49038e-05 2.52402e-05 0.108452)
(-1.49416e-05 2.5231e-05 0.108451)
(-5.26763e-05 5.25793e-05 0.104982)
(3.62501e-05 -3.62987e-05 0.105101)
(2.72084e-05 1.61715e-05 0.108497)
(2.72138e-05 -1.62218e-05 0.108494)
(2.51993e-05 1.48576e-05 0.108454)
(2.51997e-05 -1.49124e-05 0.10845)
(-2.7171e-05 -1.61946e-05 0.108495)
(-2.52283e-05 1.48166e-05 0.108454)
(-2.51701e-05 -1.48921e-05 0.108451)
(5.26331e-05 -5.26928e-05 0.104981)
(-3.62767e-05 3.62758e-05 0.1051)
(-1.61574e-05 -2.72004e-05 0.108496)
(1.48312e-05 -2.52085e-05 0.108453)
(-1.48472e-05 -2.51988e-05 0.108452)
(3.62538e-05 3.62433e-05 0.1051)
(5.0243e-05 5.02429e-05 0.104914)
(-3.7054e-05 -3.70593e-05 0.105032)
(1.44808e-05 2.45841e-05 0.108437)
(-1.45214e-05 2.45738e-05 0.108436)
(1.32504e-05 2.26533e-05 0.108394)
(-1.32782e-05 2.26395e-05 0.108393)
(-5.02791e-05 5.01807e-05 0.104913)
(3.70143e-05 -3.70495e-05 0.105032)
(2.4544e-05 1.44313e-05 0.108439)
(2.45433e-05 -1.4494e-05 0.108436)
(2.26146e-05 1.31995e-05 0.108395)
(2.26063e-05 -1.32488e-05 0.108392)
(-2.45125e-05 -1.44664e-05 0.108436)
(-2.26332e-05 1.31725e-05 0.108396)
(-2.25768e-05 -1.32457e-05 0.108393)
(5.01728e-05 -5.0243e-05 0.104913)
(-3.70612e-05 3.70647e-05 0.105031)
(-1.44172e-05 -2.45431e-05 0.108438)
(1.31713e-05 -2.26155e-05 0.108395)
(-1.31829e-05 -2.26088e-05 0.108394)
(3.70528e-05 3.70327e-05 0.105031)
(4.80357e-05 4.803e-05 0.104849)
(-3.7766e-05 -3.77717e-05 0.104967)
(1.28574e-05 2.20163e-05 0.108379)
(-1.2874e-05 2.20077e-05 0.108379)
(1.16968e-05 2.01552e-05 0.108336)
(-1.17216e-05 2.01482e-05 0.108336)
(-4.80548e-05 4.79706e-05 0.104849)
(3.77456e-05 -3.77728e-05 0.104967)
(2.19801e-05 1.28021e-05 0.108381)
(2.19816e-05 -1.28553e-05 0.108378)
(2.01213e-05 1.16487e-05 0.108338)
(2.01224e-05 -1.16965e-05 0.108335)
(-2.19445e-05 -1.28511e-05 0.108378)
(-2.01284e-05 1.16111e-05 0.108339)
(-2.0085e-05 -1.16949e-05 0.108335)
(4.80131e-05 -4.80724e-05 0.104848)
(-3.77651e-05 3.77695e-05 0.104966)
(-1.27838e-05 -2.1976e-05 0.10838)
(1.1628e-05 -2.01174e-05 0.108338)
(-1.16268e-05 -2.01242e-05 0.108337)
(3.77708e-05 3.77373e-05 0.104966)
(4.59686e-05 4.59641e-05 0.104788)
(1.13207e-05 1.95507e-05 0.108322)
(-1.13385e-05 1.95376e-05 0.108321)
(-4.59812e-05 4.59115e-05 0.104788)
(1.95153e-05 1.12774e-05 0.108324)
(1.95153e-05 -1.1321e-05 0.108321)
(-1.94737e-05 -1.1318e-05 0.108321)
(4.59447e-05 -4.60033e-05 0.104787)
(-1.12556e-05 -1.95125e-05 0.108323)
(8.50749e-07 7.00801e-06 0.0937513)
(-1.27853e-06 3.07147e-05 0.0833541)
(-4.00127e-06 -6.00536e-06 0.0833634)
(1.52717e-06 5.28602e-05 0.0937678)
(-3.45279e-06 1.42547e-05 0.0720082)
(5.4246e-06 -5.72041e-06 0.072049)
(6.97912e-06 9.16579e-07 0.0937513)
(3.06979e-05 -1.24667e-06 0.0833542)
(-6.02691e-06 -3.97061e-06 0.0833635)
(5.28326e-05 1.60478e-06 0.0937677)
(-5.97835e-05 5.98003e-05 0.109207)
(5.97891e-05 -5.97994e-05 0.109207)
(-5.97818e-05 -5.98154e-05 0.109207)
(5.88718e-05 5.88688e-05 0.109424)
(-5.88516e-05 5.88663e-05 0.109424)
(5.88472e-05 -5.88572e-05 0.109424)
(-5.88396e-05 -5.88614e-05 0.109424)
(-4.27614e-05 2.99441e-06 0.102218)
(-6.06088e-05 2.42473e-05 0.0954233)
(-0.00010016 1.95274e-05 0.108864)
(-8.90458e-05 5.55064e-05 0.108186)
(-1.79415e-05 -1.45632e-06 0.0954468)
(-9.9764e-05 1.93963e-05 0.108926)
(-0.000103731 4.81766e-06 0.102195)
(1.42334e-05 -3.4701e-06 0.0720085)
(-5.692e-06 5.45814e-06 0.0720485)
(2.9359e-06 -4.27484e-05 0.102216)
(1.95682e-05 -0.000100211 0.108864)
(2.43185e-05 -6.06011e-05 0.0954244)
(5.54865e-05 -8.90924e-05 0.108186)
(1.94295e-05 -9.98207e-05 0.108926)
(-1.37717e-06 -1.78549e-05 0.095445)
(4.8896e-06 -0.000103784 0.102195)
(-2.98338e-05 -1.62653e-05 0.0891388)
(-1.62892e-05 -2.97908e-05 0.089138)
(-5.73181e-06 -5.63683e-06 0.106839)
(-8.86888e-06 3.67282e-06 0.08915)
(3.59857e-06 -8.85081e-06 0.0891469)
(6.01885e-07 4.23962e-06 0.0934792)
(-1.13392e-06 2.89269e-05 0.0831546)
(1.28822e-06 4.86781e-05 0.0934882)
(-3.83333e-06 -6.75699e-06 0.0831693)
(-3.44691e-06 1.36705e-05 0.0718716)
(5.20113e-06 -5.73305e-06 0.0719152)
(4.25548e-06 6.35604e-07 0.0934792)
(2.8934e-05 -1.11734e-06 0.0831546)
(4.86698e-05 1.32117e-06 0.093488)
(-6.76643e-06 -3.81849e-06 0.0831694)
(-5.85411e-05 5.85561e-05 0.109496)
(5.85395e-05 -5.85497e-05 0.109495)
(-5.853e-05 -5.85536e-05 0.109495)
(5.76259e-05 5.7627e-05 0.109706)
(-5.76017e-05 5.76269e-05 0.109706)
(5.76071e-05 -5.76142e-05 0.109706)
(-5.75829e-05 -5.76144e-05 0.109706)
(-3.66093e-05 2.30658e-06 0.101945)
(-5.67823e-05 2.24746e-05 0.0951541)
(-9.85925e-05 1.90156e-05 0.109108)
(-8.67752e-05 5.42635e-05 0.108341)
(-9.67572e-05 4.07218e-06 0.101924)
(-1.4652e-05 -2.30935e-06 0.0951812)
(-9.81871e-05 1.88858e-05 0.109166)
(1.36292e-05 -3.46157e-06 0.0718719)
(-5.70841e-06 5.23343e-06 0.0719146)
(2.27616e-06 -3.66498e-05 0.101944)
(1.90447e-05 -9.86378e-05 0.109108)
(2.25456e-05 -5.68215e-05 0.0951552)
(5.4241e-05 -8.67892e-05 0.10834)
(4.16802e-06 -9.68023e-05 0.101924)
(1.89086e-05 -9.82317e-05 0.109167)
(-2.23326e-06 -1.46109e-05 0.0951794)
(-2.78926e-05 -1.53669e-05 0.08891)
(-1.53694e-05 -2.7871e-05 0.0889091)
(-3.12395e-06 -3.04304e-06 0.106839)
(-7.12993e-06 3.99815e-06 0.0889263)
(3.99324e-06 -7.12539e-06 0.0889231)
(3.85975e-07 2.24409e-06 0.0932334)
(-1.0375e-06 2.7489e-05 0.0829745)
(1.05363e-06 4.52432e-05 0.0932357)
(-3.7547e-06 -7.23058e-06 0.0829939)
(-3.47884e-06 1.3196e-05 0.0717478)
(4.97911e-06 -5.7213e-06 0.0717936)
(2.25619e-06 3.94906e-07 0.0932334)
(2.74951e-05 -1.02524e-06 0.0829744)
(4.52664e-05 1.05438e-06 0.0932355)
(-7.22831e-06 -3.74707e-06 0.082994)
(-5.72886e-05 5.73124e-05 0.109774)
(5.72894e-05 -5.73004e-05 0.109774)
(-5.72723e-05 -5.73032e-05 0.109774)
(5.63324e-05 5.63274e-05 0.109978)
(-5.63161e-05 5.63358e-05 0.109977)
(5.63067e-05 -5.63199e-05 0.109977)
(-5.6297e-05 -5.63154e-05 0.109977)
(-3.07157e-05 1.89593e-06 0.101678)
(-5.3323e-05 2.08602e-05 0.094905)
(-9.7002e-05 1.85014e-05 0.109338)
(-8.43456e-05 5.3e-05 0.108476)
(-8.99857e-05 3.50107e-06 0.101657)
(-1.17715e-05 -2.98673e-06 0.0949354)
(-9.65776e-05 1.83786e-05 0.109393)
(1.31489e-05 -3.5064e-06 0.071748)
(-5.68538e-06 5.01865e-06 0.071793)
(1.87178e-06 -3.07508e-05 0.101677)
(1.85193e-05 -9.70292e-05 0.109338)
(2.09543e-05 -5.33588e-05 0.0949062)
(5.29607e-05 -8.43637e-05 0.108476)
(3.58886e-06 -9.00453e-05 0.101657)
(1.83883e-05 -9.66172e-05 0.109393)
(-2.93966e-06 -1.17218e-05 0.0949336)
(-2.60877e-05 -1.45818e-05 0.0887019)
(-1.4586e-05 -2.60896e-05 0.0887008)
(-5.84489e-07 -5.19889e-07 0.106816)
(-5.52311e-06 4.26873e-06 0.0887225)
(4.28854e-06 -5.51959e-06 0.0887193)
(1.63229e-07 6.77535e-07 0.0930109)
(-1.07829e-06 2.62696e-05 0.0828116)
(8.08652e-07 4.24134e-05 0.0930074)
(-3.81664e-06 -7.31112e-06 0.0828352)
(-3.52606e-06 1.274e-05 0.0716353)
(4.83418e-06 -5.6604e-06 0.0716831)
(6.79193e-07 1.6641e-07 0.0930108)
(2.6264e-05 -1.0828e-06 0.0828116)
(4.24355e-05 8.01051e-07 0.0930073)
(-7.31886e-06 -3.80899e-06 0.0828352)
(-5.59922e-05 5.60071e-05 0.110044)
(5.59717e-05 -5.59926e-05 0.110044)
(-5.59709e-05 -5.59907e-05 0.110044)
(5.49838e-05 5.49713e-05 0.11024)
(-5.49716e-05 5.49836e-05 0.11024)
(5.49525e-05 -5.49738e-05 0.11024)
(-5.49453e-05 -5.4971e-05 0.110239)
(-2.54047e-05 1.51943e-06 0.10142)
(-5.0287e-05 1.94383e-05 0.0946751)
(-9.52464e-05 1.79913e-05 0.109554)
(-8.18026e-05 5.16603e-05 0.108593)
(-8.36298e-05 3.05523e-06 0.101398)
(-9.23791e-06 -3.49684e-06 0.0947085)
(-9.47738e-05 1.78639e-05 0.109606)
(1.2721e-05 -3.53693e-06 0.0716355)
(-5.62557e-06 4.89446e-06 0.0716825)
(1.49471e-06 -2.54287e-05 0.101419)
(1.80085e-05 -9.52662e-05 0.109554)
(1.95019e-05 -5.03158e-05 0.0946762)
(5.16077e-05 -8.17832e-05 0.108593)
(3.15022e-06 -8.36967e-05 0.101398)
(1.7876e-05 -9.47977e-05 0.109606)
(-3.44594e-06 -9.18092e-06 0.0947068)
(-2.44266e-05 -1.38532e-05 0.0885125)
(-1.38439e-05 -2.44371e-05 0.0885114)
(1.89002e-06 1.93369e-06 0.106773)
(-4.09877e-06 4.39101e-06 0.0885369)
(4.45017e-06 -4.11265e-06 0.0885337)
(-6.53196e-08 -6.18295e-07 0.0928089)
(-1.15092e-06 2.53389e-05 0.0826643)
(5.77633e-07 3.99643e-05 0.0928006)
(-3.86854e-06 -7.19856e-06 0.0826914)
(-3.51821e-06 1.23789e-05 0.0715333)
(4.77268e-06 -5.56046e-06 0.0715828)
(-6.20275e-07 -4.97109e-08 0.0928088)
(2.53266e-05 -1.13859e-06 0.0826642)
(3.99854e-05 5.81607e-07 0.0928004)
(-7.21956e-06 -3.84527e-06 0.0826915)
(-5.46326e-05 5.46418e-05 0.110304)
(5.46097e-05 -5.46303e-05 0.110303)
(-5.46084e-05 -5.46299e-05 0.110303)
(5.35725e-05 5.3563e-05 0.110492)
(-5.35783e-05 5.35823e-05 0.110492)
(5.35494e-05 -5.3575e-05 0.110492)
(-5.35498e-05 -5.35708e-05 0.110492)
(-2.0617e-05 1.20501e-06 0.101174)
(-4.75416e-05 1.81626e-05 0.0944631)
(-9.32673e-05 1.74765e-05 0.109756)
(-7.91015e-05 5.02194e-05 0.108692)
(-7.77765e-05 2.65395e-06 0.101149)
(-7.03539e-06 -3.98157e-06 0.0944994)
(-9.27327e-05 1.73487e-05 0.109803)
(1.23481e-05 -3.52835e-06 0.0715335)
(-5.51997e-06 4.84408e-06 0.0715822)
(1.18755e-06 -2.06395e-05 0.101172)
(1.74825e-05 -9.32793e-05 0.109755)
(1.82381e-05 -4.75679e-05 0.0944641)
(5.01598e-05 -7.90716e-05 0.108691)
(2.76528e-06 -7.78368e-05 0.101149)
(1.73541e-05 -9.27491e-05 0.109803)
(-3.90561e-06 -6.98089e-06 0.0944976)
(-2.29309e-05 -1.31989e-05 0.0883399)
(-1.31866e-05 -2.29242e-05 0.0883388)
(4.37639e-06 4.39897e-06 0.106712)
(-2.88984e-06 4.47583e-06 0.0883677)
(4.52148e-06 -2.89217e-06 0.0883646)
(-2.05235e-07 -1.69726e-06 0.092625)
(-1.23516e-06 2.45208e-05 0.0825309)
(3.5539e-07 3.77816e-05 0.0926125)
(-3.93762e-06 -7.14771e-06 0.0825611)
(-3.48412e-06 1.20221e-05 0.0714407)
(4.67705e-06 -5.51725e-06 0.0714917)
(-1.69479e-06 -1.96114e-07 0.0926249)
(2.45167e-05 -1.21927e-06 0.0825308)
(3.77997e-05 3.61687e-07 0.0926123)