/*--------------------------------*- C++ -*----------------------------------*\
| =========                 |                                                 |
| \\      /  F ield         | OpenFOAM: The Open Source CFD Toolbox           |
|  \\    /   O peration     | Version:                                        |
|   \\  /    A nd           | Website:  www.openfoam.com                      |
|    \\/     M anipulation  |                                                 |
\*---------------------------------------------------------------------------*/
FoamFile
{
    version     2.0;
    format      ascii;
    class       volScalarField;
    location    "40.5";
    object      p;
}
// * * * * * * * * * * * * * * * * * * * * * * * * * * * * * * * * * * * * * //

dimensions      [0 2 -2 0 0 0 0];


internalField   nonuniform List<scalar> 
247096
(
1.16572e-06
1.16571e-06
1.16568e-06
1.16561e-06
1.16558e-06
1.16562e-06
1.16568e-06
1.1657e-06
1.16571e-06
1.16568e-06
1.16548e-06
1.16529e-06
1.16522e-06
1.16531e-06
1.16551e-06
1.1657e-06
1.16568e-06
1.16548e-06
1.16514e-06
1.16487e-06
1.16478e-06
1.1649e-06
1.16518e-06
1.16552e-06
1.16568e-06
1.16561e-06
1.16529e-06
1.16487e-06
1.16457e-06
1.16448e-06
1.1646e-06
1.16492e-06
1.16534e-06
1.16563e-06
1.16572e-06
1.16558e-06
1.16521e-06
1.16478e-06
1.16448e-06
1.16437e-06
1.1645e-06
1.16483e-06
1.16527e-06
1.16561e-06
1.16562e-06
1.16531e-06
1.1649e-06
1.1646e-06
1.1645e-06
1.16463e-06
1.16495e-06
1.16536e-06
1.16564e-06
1.16568e-06
1.16551e-06
1.16518e-06
1.16492e-06
1.16483e-06
1.16495e-06
1.16522e-06
1.16555e-06
1.16568e-06
1.16569e-06
1.1657e-06
1.16552e-06
1.16534e-06
1.16527e-06
1.16536e-06
1.16555e-06
1.16571e-06
1.16568e-06
1.16563e-06
1.16561e-06
1.16564e-06
1.16568e-06
1.14925e-06
1.14907e-06
1.14888e-06
1.14779e-06
1.14773e-06
1.1477e-06
1.14777e-06
1.14887e-06
1.14896e-06
1.14888e-06
1.14739e-06
1.14561e-06
1.14561e-06
1.14561e-06
1.14561e-06
1.14755e-06
1.148e-06
1.14779e-06
1.14561e-06
1.14562e-06
1.14564e-06
1.14564e-06
1.14562e-06
1.14561e-06
1.14803e-06
1.14914e-06
1.14925e-06
1.14773e-06
1.14561e-06
1.14564e-06
1.14566e-06
1.14566e-06
1.14564e-06
1.14561e-06
1.14804e-06
1.14901e-06
1.14907e-06
1.1477e-06
1.14561e-06
1.14564e-06
1.14566e-06
1.14566e-06
1.14564e-06
1.14561e-06
1.14801e-06
1.14813e-06
1.14777e-06
1.14561e-06
1.14562e-06
1.14564e-06
1.14564e-06
1.14562e-06
1.14561e-06
1.14804e-06
1.14917e-06
1.14887e-06
1.14755e-06
1.14561e-06
1.14561e-06
1.14561e-06
1.14561e-06
1.14773e-06
1.14804e-06
1.14912e-06
1.14896e-06
1.148e-06
1.14803e-06
1.14804e-06
1.14801e-06
1.14804e-06
1.14804e-06
1.14897e-06
1.14914e-06
1.14901e-06
1.14813e-06
1.14917e-06
1.14912e-06
1.13692e-06
1.13684e-06
1.13671e-06
1.13561e-06
1.13554e-06
1.1355e-06
1.13559e-06
1.13672e-06
1.13681e-06
1.13671e-06
1.1352e-06
1.13333e-06
1.13333e-06
1.13333e-06
1.13333e-06
1.13533e-06
1.13581e-06
1.13561e-06
1.13333e-06
1.13333e-06
1.13334e-06
1.13334e-06
1.13333e-06
1.13333e-06
1.13581e-06
1.13695e-06
1.13692e-06
1.13554e-06
1.13333e-06
1.13334e-06
1.13335e-06
1.13335e-06
1.13334e-06
1.13333e-06
1.13581e-06
1.13679e-06
1.13684e-06
1.1355e-06
1.13333e-06
1.13334e-06
1.13335e-06
1.13335e-06
1.13334e-06
1.13333e-06
1.13578e-06
1.13593e-06
1.13559e-06
1.13333e-06
1.13333e-06
1.13334e-06
1.13334e-06
1.13333e-06
1.13333e-06
1.13581e-06
1.13695e-06
1.13672e-06
1.13533e-06
1.13333e-06
1.13333e-06
1.13333e-06
1.13333e-06
1.13552e-06
1.13585e-06
1.13695e-06
1.13681e-06
1.13581e-06
1.13581e-06
1.13581e-06
1.13578e-06
1.13581e-06
1.13585e-06
1.13684e-06
1.13695e-06
1.13679e-06
1.13593e-06
1.13695e-06
1.13695e-06
1.12467e-06
1.12459e-06
1.12446e-06
1.12336e-06
1.12329e-06
1.12325e-06
1.12334e-06
1.12448e-06
1.12456e-06
1.12446e-06
1.12295e-06
1.12107e-06
1.12107e-06
1.12107e-06
1.12107e-06
1.12308e-06
1.12356e-06
1.12336e-06
1.12107e-06
1.12107e-06
1.12107e-06
1.12107e-06
1.12107e-06
1.12107e-06
1.12356e-06
1.1247e-06
1.12467e-06
1.12329e-06
1.12107e-06
1.12107e-06
1.12108e-06
1.12108e-06
1.12107e-06
1.12107e-06
1.12355e-06
1.12454e-06
1.12459e-06
1.12325e-06
1.12107e-06
1.12107e-06
1.12108e-06
1.12108e-06
1.12107e-06
1.12107e-06
1.12353e-06
1.12369e-06
1.12334e-06
1.12107e-06
1.12107e-06
1.12107e-06
1.12107e-06
1.12107e-06
1.12107e-06
1.12356e-06
1.1247e-06
1.12448e-06
1.12308e-06
1.12107e-06
1.12107e-06
1.12107e-06
1.12107e-06
1.12327e-06
1.1236e-06
1.12471e-06
1.12456e-06
1.12356e-06
1.12356e-06
1.12355e-06
1.12353e-06
1.12356e-06
1.1236e-06
1.12459e-06
1.1247e-06
1.12454e-06
1.12369e-06
1.1247e-06
1.12471e-06
1.11242e-06
1.11234e-06
1.11221e-06
1.1111e-06
1.11103e-06
1.11099e-06
1.11108e-06
1.11222e-06
1.11231e-06
1.11221e-06
1.11069e-06
1.10881e-06
1.10882e-06
1.10882e-06
1.10881e-06
1.11082e-06
1.11131e-06
1.1111e-06
1.10881e-06
1.10881e-06
1.10882e-06
1.10882e-06
1.10881e-06
1.10881e-06
1.1113e-06
1.11245e-06
1.11242e-06
1.11103e-06
1.10882e-06
1.10882e-06
1.10882e-06
1.10882e-06
1.10882e-06
1.10882e-06
1.11129e-06
1.11229e-06
1.11234e-06
1.11099e-06
1.10882e-06
1.10882e-06
1.10882e-06
1.10882e-06
1.10882e-06
1.10882e-06
1.11127e-06
1.11143e-06
1.11108e-06
1.10881e-06
1.10881e-06
1.10882e-06
1.10882e-06
1.10881e-06
1.10881e-06
1.1113e-06
1.11245e-06
1.11222e-06
1.11082e-06
1.10881e-06
1.10882e-06
1.10882e-06
1.10881e-06
1.11102e-06
1.11135e-06
1.11245e-06
1.11231e-06
1.11131e-06
1.1113e-06
1.11129e-06
1.11127e-06
1.1113e-06
1.11135e-06
1.11234e-06
1.11245e-06
1.11229e-06
1.11143e-06
1.11245e-06
1.11245e-06
1.10016e-06
1.10008e-06
1.09995e-06
1.09885e-06
1.09877e-06
1.09874e-06
1.09883e-06
1.09997e-06
1.10005e-06
1.09995e-06
1.09843e-06
1.09656e-06
1.09656e-06
1.09656e-06
1.09656e-06
1.09857e-06
1.09905e-06
1.09885e-06
1.09656e-06
1.09656e-06
1.09656e-06
1.09656e-06
1.09656e-06
1.09656e-06
1.09905e-06
1.10019e-06
1.10016e-06
1.09877e-06
1.09656e-06
1.09656e-06
1.09656e-06
1.09656e-06
1.09656e-06
1.09656e-06
1.09904e-06
1.10003e-06
1.10008e-06
1.09874e-06
1.09656e-06
1.09656e-06
1.09656e-06
1.09656e-06
1.09656e-06
1.09656e-06
1.09902e-06
1.09918e-06
1.09883e-06
1.09656e-06
1.09656e-06
1.09656e-06
1.09656e-06
1.09656e-06
1.09656e-06
1.09905e-06
1.1002e-06
1.09997e-06
1.09857e-06
1.09656e-06
1.09656e-06
1.09656e-06
1.09656e-06
1.09876e-06
1.09909e-06
1.1002e-06
1.10005e-06
1.09905e-06
1.09905e-06
1.09904e-06
1.09902e-06
1.09905e-06
1.09909e-06
1.10008e-06
1.10019e-06
1.10003e-06
1.09918e-06
1.1002e-06
1.1002e-06
1.08791e-06
1.08783e-06
1.0877e-06
1.08659e-06
1.08652e-06
1.08648e-06
1.08657e-06
1.08771e-06
1.0878e-06
1.0877e-06
1.08618e-06
1.0843e-06
1.0843e-06
1.0843e-06
1.0843e-06
1.08631e-06
1.0868e-06
1.08659e-06
1.0843e-06
1.0843e-06
1.0843e-06
1.0843e-06
1.0843e-06
1.0843e-06
1.08679e-06
1.08794e-06
1.08791e-06
1.08652e-06
1.0843e-06
1.0843e-06
1.0843e-06
1.0843e-06
1.0843e-06
1.0843e-06
1.08678e-06
1.08778e-06
1.08783e-06
1.08648e-06
1.0843e-06
1.0843e-06
1.0843e-06
1.0843e-06
1.0843e-06
1.0843e-06
1.08676e-06
1.08692e-06
1.08657e-06
1.0843e-06
1.0843e-06
1.0843e-06
1.0843e-06
1.0843e-06
1.0843e-06
1.08679e-06
1.08794e-06
1.08771e-06
1.08631e-06
1.0843e-06
1.0843e-06
1.0843e-06
1.0843e-06
1.08651e-06
1.08684e-06
1.08794e-06
1.0878e-06
1.0868e-06
1.08679e-06
1.08678e-06
1.08676e-06
1.08679e-06
1.08684e-06
1.08783e-06
1.08794e-06
1.08778e-06
1.08692e-06
1.08794e-06
1.08794e-06
1.07565e-06
1.07557e-06
1.07544e-06
1.07434e-06
1.07426e-06
1.07423e-06
1.07432e-06
1.07546e-06
1.07554e-06
1.07544e-06
1.07392e-06
1.07205e-06
1.07205e-06
1.07205e-06
1.07205e-06
1.07406e-06
1.07454e-06
1.07434e-06
1.07205e-06
1.07205e-06
1.07205e-06
1.07205e-06
1.07205e-06
1.07205e-06
1.07454e-06
1.07568e-06
1.07565e-06
1.07426e-06
1.07205e-06
1.07205e-06
1.07205e-06
1.07205e-06
1.07205e-06
1.07205e-06
1.07453e-06
1.07552e-06
1.07557e-06
1.07423e-06
1.07205e-06
1.07205e-06
1.07205e-06
1.07205e-06
1.07205e-06
1.07205e-06
1.07451e-06
1.07467e-06
1.07432e-06
1.07205e-06
1.07205e-06
1.07205e-06
1.07205e-06
1.07205e-06
1.07205e-06
1.07454e-06
1.07569e-06
1.07546e-06
1.07406e-06
1.07205e-06
1.07205e-06
1.07205e-06
1.07205e-06
1.07425e-06
1.07458e-06
1.07569e-06
1.07554e-06
1.07454e-06
1.07454e-06
1.07453e-06
1.07451e-06
1.07454e-06
1.07458e-06
1.07557e-06
1.07568e-06
1.07552e-06
1.07467e-06
1.07569e-06
1.07569e-06
1.0634e-06
1.06332e-06
1.06319e-06
1.06208e-06
1.06201e-06
1.06197e-06
1.06206e-06
1.0632e-06
1.06329e-06
1.06319e-06
1.06167e-06
1.05979e-06
1.05979e-06
1.05979e-06
1.05979e-06
1.0618e-06
1.06229e-06
1.06208e-06
1.05979e-06
1.05979e-06
1.05979e-06
1.05979e-06
1.05979e-06
1.05979e-06
1.06228e-06
1.06343e-06
1.06339e-06
1.06201e-06
1.05979e-06
1.05979e-06
1.05979e-06
1.05979e-06
1.05979e-06
1.05979e-06
1.06227e-06
1.06327e-06
1.06332e-06
1.06197e-06
1.05979e-06
1.05979e-06
1.05979e-06
1.05979e-06
1.05979e-06
1.05979e-06
1.06225e-06
1.06241e-06
1.06206e-06
1.05979e-06
1.05979e-06
1.05979e-06
1.05979e-06
1.05979e-06
1.05979e-06
1.06228e-06
1.06343e-06
1.0632e-06
1.0618e-06
1.05979e-06
1.05979e-06
1.05979e-06
1.05979e-06
1.062e-06
1.06233e-06
1.06343e-06
1.06329e-06
1.06229e-06
1.06228e-06
1.06227e-06
1.06225e-06
1.06228e-06
1.06233e-06
1.06332e-06
1.06343e-06
1.06327e-06
1.06241e-06
1.06343e-06
1.06343e-06
1.05114e-06
1.05106e-06
1.05093e-06
1.04982e-06
1.04975e-06
1.04972e-06
1.0498e-06
1.05095e-06
1.05103e-06
1.05093e-06
1.04941e-06
1.04754e-06
1.04754e-06
1.04754e-06
1.04754e-06
1.04955e-06
1.05003e-06
1.04982e-06
1.04754e-06
1.04754e-06
1.04754e-06
1.04754e-06
1.04754e-06
1.04754e-06
1.05003e-06
1.05117e-06
1.05114e-06
1.04975e-06
1.04754e-06
1.04754e-06
1.04754e-06
1.04754e-06
1.04754e-06
1.04754e-06
1.05002e-06
1.05101e-06
1.05106e-06
1.04972e-06
1.04754e-06
1.04754e-06
1.04754e-06
1.04754e-06
1.04754e-06
1.04754e-06
1.05e-06
1.05016e-06
1.0498e-06
1.04754e-06
1.04754e-06
1.04754e-06
1.04754e-06
1.04754e-06
1.04754e-06
1.05003e-06
1.05117e-06
1.05095e-06
1.04955e-06
1.04754e-06
1.04754e-06
1.04754e-06
1.04754e-06
1.04974e-06
1.05007e-06
1.05118e-06
1.05103e-06
1.05003e-06
1.05003e-06
1.05002e-06
1.05e-06
1.05003e-06
1.05007e-06
1.05106e-06
1.05117e-06
1.05101e-06
1.05016e-06
1.05117e-06
1.05118e-06
1.03888e-06
1.03881e-06
1.03868e-06
1.03757e-06
1.0375e-06
1.03746e-06
1.03755e-06
1.03869e-06
1.03878e-06
1.03868e-06
1.03716e-06
1.03528e-06
1.03528e-06
1.03528e-06
1.03528e-06
1.03729e-06
1.03778e-06
1.03757e-06
1.03528e-06
1.03528e-06
1.03528e-06
1.03528e-06
1.03528e-06
1.03528e-06
1.03777e-06
1.03891e-06
1.03888e-06
1.0375e-06
1.03528e-06
1.03528e-06
1.03528e-06
1.03528e-06
1.03528e-06
1.03528e-06
1.03776e-06
1.03875e-06
1.03881e-06
1.03746e-06
1.03528e-06
1.03528e-06
1.03528e-06
1.03528e-06
1.03528e-06
1.03528e-06
1.03774e-06
1.0379e-06
1.03755e-06
1.03528e-06
1.03528e-06
1.03528e-06
1.03528e-06
1.03528e-06
1.03528e-06
1.03777e-06
1.03892e-06
1.03869e-06
1.03729e-06
1.03528e-06
1.03528e-06
1.03528e-06
1.03528e-06
1.03749e-06
1.03782e-06
1.03892e-06
1.03878e-06
1.03778e-06
1.03777e-06
1.03776e-06
1.03774e-06
1.03777e-06
1.03782e-06
1.03881e-06
1.03891e-06
1.03875e-06
1.0379e-06
1.03892e-06
1.03892e-06
1.02663e-06
1.02655e-06
1.02642e-06
1.02531e-06
1.02524e-06
1.02521e-06
1.02529e-06
1.02644e-06
1.02652e-06
1.02642e-06
1.0249e-06
1.02303e-06
1.02303e-06
1.02303e-06
1.02303e-06
1.02504e-06
1.02552e-06
1.02531e-06
1.02303e-06
1.02303e-06
1.02303e-06
1.02303e-06
1.02303e-06
1.02303e-06
1.02552e-06
1.02666e-06
1.02663e-06
1.02524e-06
1.02303e-06
1.02303e-06
1.02303e-06
1.02303e-06
1.02303e-06
1.02303e-06
1.02551e-06
1.0265e-06
1.02655e-06
1.02521e-06
1.02303e-06
1.02303e-06
1.02303e-06
1.02303e-06
1.02303e-06
1.02303e-06
1.02549e-06
1.02565e-06
1.02529e-06
1.02303e-06
1.02303e-06
1.02303e-06
1.02303e-06
1.02303e-06
1.02303e-06
1.02552e-06
1.02666e-06
1.02644e-06
1.02504e-06
1.02303e-06
1.02303e-06
1.02303e-06
1.02303e-06
1.02523e-06
1.02556e-06
1.02667e-06
1.02652e-06
1.02552e-06
1.02552e-06
1.02551e-06
1.02549e-06
1.02552e-06
1.02556e-06
1.02655e-06
1.02666e-06
1.0265e-06
1.02565e-06
1.02666e-06
1.02667e-06
1.01437e-06
1.0143e-06
1.01417e-06
1.01306e-06
1.01299e-06
1.01295e-06
1.01304e-06
1.01418e-06
1.01427e-06
1.01417e-06
1.01265e-06
1.01077e-06
1.01077e-06
1.01077e-06
1.01077e-06
1.01278e-06
1.01327e-06
1.01306e-06
1.01077e-06
1.01077e-06
1.01077e-06
1.01077e-06
1.01077e-06
1.01077e-06
1.01326e-06
1.0144e-06
1.01437e-06
1.01299e-06
1.01077e-06
1.01077e-06
1.01077e-06
1.01077e-06
1.01077e-06
1.01077e-06
1.01325e-06
1.01424e-06
1.0143e-06
1.01295e-06
1.01077e-06
1.01077e-06
1.01077e-06
1.01077e-06
1.01077e-06
1.01077e-06
1.01323e-06
1.01339e-06
1.01304e-06
1.01077e-06
1.01077e-06
1.01077e-06
1.01077e-06
1.01077e-06
1.01077e-06
1.01326e-06
1.01441e-06
1.01418e-06
1.01278e-06
1.01077e-06
1.01077e-06
1.01077e-06
1.01077e-06
1.01298e-06
1.01331e-06
1.01441e-06
1.01427e-06
1.01327e-06
1.01326e-06
1.01325e-06
1.01323e-06
1.01326e-06
1.01331e-06
1.0143e-06
1.0144e-06
1.01424e-06
1.01339e-06
1.01441e-06
1.01441e-06
1.00212e-06
1.00204e-06
1.00191e-06
1.00081e-06
1.00073e-06
1.0007e-06
1.00079e-06
1.00193e-06
1.00201e-06
1.00191e-06
1.00039e-06
9.98518e-07
9.98518e-07
9.98518e-07
9.98518e-07
1.00053e-06
1.00101e-06
1.00081e-06
9.98518e-07
9.98519e-07
9.98519e-07
9.98519e-07
9.98519e-07
9.98518e-07
1.00101e-06
1.00215e-06
1.00212e-06
1.00073e-06
9.98518e-07
9.98519e-07
9.98519e-07
9.98519e-07
9.98519e-07
9.98518e-07
1.001e-06
1.00199e-06
1.00204e-06
1.0007e-06
9.98518e-07
9.98519e-07
9.98519e-07
9.98519e-07
9.98519e-07
9.98518e-07
1.00098e-06
1.00114e-06
1.00078e-06
9.98518e-07
9.98519e-07
9.98519e-07
9.98519e-07
9.98519e-07
9.98518e-07
1.00101e-06
1.00216e-06
1.00193e-06
1.00053e-06
9.98518e-07
9.98518e-07
9.98518e-07
9.98518e-07
1.00072e-06
1.00105e-06
1.00216e-06
1.00201e-06
1.00101e-06
1.00101e-06
1.001e-06
1.00098e-06
1.00101e-06
1.00105e-06
1.00204e-06
1.00215e-06
1.00199e-06
1.00114e-06
1.00216e-06
1.00216e-06
9.89866e-07
9.8979e-07
9.8966e-07
9.88551e-07
9.8848e-07
9.88444e-07
9.88531e-07
9.89673e-07
9.89759e-07
9.89659e-07
9.8814e-07
9.86264e-07
9.86264e-07
9.86264e-07
9.86264e-07
9.88272e-07
9.8876e-07
9.88551e-07
9.86264e-07
9.86265e-07
9.86264e-07
9.86264e-07
9.86265e-07
9.86264e-07
9.88753e-07
9.89896e-07
9.89866e-07
9.8848e-07
9.86264e-07
9.86264e-07
9.86264e-07
9.86264e-07
9.86264e-07
9.86264e-07
9.88744e-07
9.89736e-07
9.8979e-07
9.88444e-07
9.86264e-07
9.86264e-07
9.86264e-07
9.86264e-07
9.86264e-07
9.86264e-07
9.88723e-07
9.88883e-07
9.88531e-07
9.86264e-07
9.86265e-07
9.86264e-07
9.86264e-07
9.86265e-07
9.86264e-07
9.88756e-07
9.89901e-07
9.89673e-07
9.88272e-07
9.86264e-07
9.86264e-07
9.86264e-07
9.86264e-07
9.88468e-07
9.888e-07
9.89904e-07
9.89759e-07
9.8876e-07
9.88753e-07
9.88744e-07
9.88723e-07
9.88756e-07
9.888e-07
9.89789e-07
9.89896e-07
9.89736e-07
9.88883e-07
9.89901e-07
9.89904e-07
9.77611e-07
9.77536e-07
9.77405e-07
9.76297e-07
9.76226e-07
9.7619e-07
9.76276e-07
9.77418e-07
9.77505e-07
9.77405e-07
9.75886e-07
9.7401e-07
9.7401e-07
9.7401e-07
9.7401e-07
9.76018e-07
9.76506e-07
9.76297e-07
9.7401e-07
9.7401e-07
9.7401e-07
9.7401e-07
9.7401e-07
9.7401e-07
9.76499e-07
9.77642e-07
9.77611e-07
9.76226e-07
9.7401e-07
9.7401e-07
9.7401e-07
9.7401e-07
9.7401e-07
9.7401e-07
9.7649e-07
9.77482e-07
9.77536e-07
9.7619e-07
9.7401e-07
9.7401e-07
9.7401e-07
9.7401e-07
9.7401e-07
9.7401e-07
9.76469e-07
9.76629e-07
9.76276e-07
9.7401e-07
9.7401e-07
9.7401e-07
9.7401e-07
9.7401e-07
9.7401e-07
9.76501e-07
9.77647e-07
9.77418e-07
9.76018e-07
9.7401e-07
9.7401e-07
9.7401e-07
9.7401e-07
9.76213e-07
9.76545e-07
9.7765e-07
9.77505e-07
9.76506e-07
9.76499e-07
9.7649e-07
9.76469e-07
9.76501e-07
9.76546e-07
9.77534e-07
9.77642e-07
9.77482e-07
9.76629e-07
9.77647e-07
9.7765e-07
9.65357e-07
9.65281e-07
9.65151e-07
9.64043e-07
9.63972e-07
9.63935e-07
9.64022e-07
9.65164e-07
9.6525e-07
9.65151e-07
9.63632e-07
9.61756e-07
9.61756e-07
9.61756e-07
9.61756e-07
9.63763e-07
9.64251e-07
9.64042e-07
9.61756e-07
9.61756e-07
9.61756e-07
9.61756e-07
9.61756e-07
9.61756e-07
9.64245e-07
9.65387e-07
9.65357e-07
9.63972e-07
9.61756e-07
9.61756e-07
9.61756e-07
9.61756e-07
9.61756e-07
9.61756e-07
9.64235e-07
9.65228e-07
9.65281e-07
9.63935e-07
9.61756e-07
9.61756e-07
9.61756e-07
9.61756e-07
9.61756e-07
9.61756e-07
9.64215e-07
9.64375e-07
9.64022e-07
9.61756e-07
9.61756e-07
9.61756e-07
9.61756e-07
9.61756e-07
9.61756e-07
9.64247e-07
9.65393e-07
9.65164e-07
9.63763e-07
9.61756e-07
9.61756e-07
9.61756e-07
9.61756e-07
9.63959e-07
9.64291e-07
9.65396e-07
9.6525e-07
9.64251e-07
9.64245e-07
9.64235e-07
9.64214e-07
9.64247e-07
9.64291e-07
9.6528e-07
9.65387e-07
9.65228e-07
9.64375e-07
9.65393e-07
9.65396e-07
9.53103e-07
9.53027e-07
9.52897e-07
9.51788e-07
9.51717e-07
9.51681e-07
9.51768e-07
9.5291e-07
9.52996e-07
9.52897e-07
9.51377e-07
9.49501e-07
9.49501e-07
9.49501e-07
9.49501e-07
9.51509e-07
9.51997e-07
9.51788e-07
9.49501e-07
9.49502e-07
9.49501e-07
9.49501e-07
9.49502e-07
9.49501e-07
9.5199e-07
9.53133e-07
9.53103e-07
9.51717e-07
9.49501e-07
9.49501e-07
9.49501e-07
9.49501e-07
9.49501e-07
9.49501e-07
9.51981e-07
9.52973e-07
9.53027e-07
9.51681e-07
9.49501e-07
9.49501e-07
9.49501e-07
9.49501e-07
9.49501e-07
9.49501e-07
9.5196e-07
9.5212e-07
9.51768e-07
9.49501e-07
9.49502e-07
9.49501e-07
9.49501e-07
9.49502e-07
9.49501e-07
9.51993e-07
9.53138e-07
9.5291e-07
9.51509e-07
9.49501e-07
9.49501e-07
9.49501e-07
9.49501e-07
9.51705e-07
9.52037e-07
9.53141e-07
9.52996e-07
9.51997e-07
9.5199e-07
9.51981e-07
9.5196e-07
9.51993e-07
9.52037e-07
9.53026e-07
9.53133e-07
9.52973e-07
9.5212e-07
9.53138e-07
9.53141e-07
9.40848e-07
9.40773e-07
9.40642e-07
9.39534e-07
9.39463e-07
9.39427e-07
9.39513e-07
9.40655e-07
9.40742e-07
9.40642e-07
9.39123e-07
9.37247e-07
9.37247e-07
9.37247e-07
9.37247e-07
9.39255e-07
9.39743e-07
9.39534e-07
9.37247e-07
9.37247e-07
9.37247e-07
9.37247e-07
9.37247e-07
9.37247e-07
9.39736e-07
9.40879e-07
9.40848e-07
9.39463e-07
9.37247e-07
9.37247e-07
9.37247e-07
9.37247e-07
9.37247e-07
9.37247e-07
9.39727e-07
9.40719e-07
9.40773e-07
9.39426e-07
9.37247e-07
9.37247e-07
9.37247e-07
9.37247e-07
9.37247e-07
9.37247e-07
9.39706e-07
9.39866e-07
9.39513e-07
9.37247e-07
9.37247e-07
9.37247e-07
9.37247e-07
9.37247e-07
9.37247e-07
9.39738e-07
9.40884e-07
9.40655e-07
9.39255e-07
9.37247e-07
9.37247e-07
9.37247e-07
9.37247e-07
9.3945e-07
9.39782e-07
9.40887e-07
9.40742e-07
9.39743e-07
9.39736e-07
9.39726e-07
9.39706e-07
9.39738e-07
9.39783e-07
9.40771e-07
9.40879e-07
9.40719e-07
9.39866e-07
9.40884e-07
9.40887e-07
9.28594e-07
9.28518e-07
9.28388e-07
9.27279e-07
9.27208e-07
9.27172e-07
9.27259e-07
9.28401e-07
9.28487e-07
9.28388e-07
9.26868e-07
9.24992e-07
9.24992e-07
9.24992e-07
9.24992e-07
9.27e-07
9.27488e-07
9.27279e-07
9.24992e-07
9.24993e-07
9.24992e-07
9.24992e-07
9.24993e-07
9.24992e-07
9.27481e-07
9.28624e-07
9.28594e-07
9.27208e-07
9.24992e-07
9.24992e-07
9.24992e-07
9.24992e-07
9.24992e-07
9.24992e-07
9.27472e-07
9.28464e-07
9.28518e-07
9.27172e-07
9.24992e-07
9.24992e-07
9.24992e-07
9.24992e-07
9.24992e-07
9.24992e-07
9.27451e-07
9.27611e-07
9.27259e-07
9.24992e-07
9.24993e-07
9.24992e-07
9.24992e-07
9.24993e-07
9.24992e-07
9.27484e-07
9.28629e-07
9.28401e-07
9.27e-07
9.24992e-07
9.24992e-07
9.24992e-07
9.24992e-07
9.27196e-07
9.27528e-07
9.28632e-07
9.28487e-07
9.27488e-07
9.27481e-07
9.27472e-07
9.27451e-07
9.27484e-07
9.27528e-07
9.28517e-07
9.28624e-07
9.28464e-07
9.27611e-07
9.28629e-07
9.28632e-07
9.16339e-07
9.16263e-07
9.16133e-07
9.15024e-07
9.14953e-07
9.14917e-07
9.15004e-07
9.16146e-07
9.16232e-07
9.16133e-07
9.14613e-07
9.12737e-07
9.12737e-07
9.12737e-07
9.12737e-07
9.14745e-07
9.15233e-07
9.15024e-07
9.12737e-07
9.12738e-07
9.12737e-07
9.12737e-07
9.12738e-07
9.12737e-07
9.15226e-07
9.16369e-07
9.16339e-07
9.14953e-07
9.12737e-07
9.12737e-07
9.12737e-07
9.12737e-07
9.12737e-07
9.12737e-07
9.15217e-07
9.16209e-07
9.16263e-07
9.14917e-07
9.12737e-07
9.12737e-07
9.12737e-07
9.12737e-07
9.12737e-07
9.12737e-07
9.15196e-07
9.15356e-07
9.15004e-07
9.12737e-07
9.12738e-07
9.12737e-07
9.12737e-07
9.12738e-07
9.12737e-07
9.15229e-07
9.16374e-07
9.16146e-07
9.14745e-07
9.12737e-07
9.12737e-07
9.12737e-07
9.12737e-07
9.14941e-07
9.15273e-07
9.16377e-07
9.16232e-07
9.15233e-07
9.15226e-07
9.15217e-07
9.15196e-07
9.15229e-07
9.15273e-07
9.16262e-07
9.16369e-07
9.16209e-07
9.15356e-07
9.16374e-07
9.16377e-07
9.04084e-07
9.04008e-07
9.03878e-07
9.02769e-07
9.02698e-07
9.02662e-07
9.02749e-07
9.03891e-07
9.03977e-07
9.03878e-07
9.02358e-07
9.00482e-07
9.00482e-07
9.00482e-07
9.00482e-07
9.0249e-07
9.02978e-07
9.02769e-07
9.00482e-07
9.00483e-07
9.00482e-07
9.00482e-07
9.00482e-07
9.00482e-07
9.02971e-07
9.04114e-07
9.04084e-07
9.02698e-07
9.00482e-07
9.00482e-07
9.00482e-07
9.00482e-07
9.00482e-07
9.00482e-07
9.02962e-07
9.03954e-07
9.04008e-07
9.02662e-07
9.00482e-07
9.00482e-07
9.00482e-07
9.00482e-07
9.00482e-07
9.00482e-07
9.02941e-07
9.03101e-07
9.02749e-07
9.00482e-07
9.00482e-07
9.00482e-07
9.00482e-07
9.00482e-07
9.00482e-07
9.02974e-07
9.04119e-07
9.03891e-07
9.0249e-07
9.00482e-07
9.00482e-07
9.00482e-07
9.00482e-07
9.02686e-07
9.03018e-07
9.04122e-07
9.03977e-07
9.02978e-07
9.02971e-07
9.02962e-07
9.02941e-07
9.02973e-07
9.03018e-07
9.04007e-07
9.04114e-07
9.03954e-07
9.03101e-07
9.04119e-07
9.04122e-07
8.91829e-07
8.91753e-07
8.91623e-07
8.90514e-07
8.90443e-07
8.90407e-07
8.90494e-07
8.91636e-07
8.91722e-07
8.91623e-07
8.90103e-07
8.88227e-07
8.88227e-07
8.88227e-07
8.88227e-07
8.90235e-07
8.90723e-07
8.90514e-07
8.88227e-07
8.88227e-07
8.88227e-07
8.88227e-07
8.88228e-07
8.88227e-07
8.90716e-07
8.91859e-07
8.91829e-07
8.90443e-07
8.88227e-07
8.88227e-07
8.88227e-07
8.88227e-07
8.88227e-07
8.88227e-07
8.90707e-07
8.91699e-07
8.91753e-07
8.90407e-07
8.88227e-07
8.88227e-07
8.88227e-07
8.88227e-07
8.88227e-07
8.88227e-07
8.90686e-07
8.90846e-07
8.90494e-07
8.88227e-07
8.88227e-07
8.88227e-07
8.88227e-07
8.88228e-07
8.88227e-07
8.90719e-07
8.91864e-07
8.91636e-07
8.90235e-07
8.88227e-07
8.88227e-07
8.88227e-07
8.88227e-07
8.90431e-07
8.90763e-07
8.91867e-07
8.91722e-07
8.90723e-07
8.90716e-07
8.90707e-07
8.90686e-07
8.90719e-07
8.90763e-07
8.91752e-07
8.91859e-07
8.91699e-07
8.90846e-07
8.91864e-07
8.91867e-07
8.79574e-07
8.79498e-07
8.79368e-07
8.78259e-07
8.78188e-07
8.78152e-07
8.78239e-07
8.79381e-07
8.79467e-07
8.79368e-07
8.77848e-07
8.75972e-07
8.75972e-07
8.75972e-07
8.75972e-07
8.7798e-07
8.78468e-07
8.78259e-07
8.75972e-07
8.75973e-07
8.75972e-07
8.75972e-07
8.75973e-07
8.75972e-07
8.78461e-07
8.79604e-07
8.79574e-07
8.78188e-07
8.75972e-07
8.75972e-07
8.75972e-07
8.75972e-07
8.75972e-07
8.75972e-07
8.78452e-07
8.79444e-07
8.79498e-07
8.78152e-07
8.75972e-07
8.75972e-07
8.75972e-07
8.75972e-07
8.75972e-07
8.75972e-07
8.78431e-07
8.78591e-07
8.78239e-07
8.75972e-07
8.75973e-07
8.75972e-07
8.75972e-07
8.75973e-07
8.75972e-07
8.78464e-07
8.79609e-07
8.79381e-07
8.7798e-07
8.75972e-07
8.75972e-07
8.75972e-07
8.75972e-07
8.78176e-07
8.78508e-07
8.79612e-07
8.79467e-07
8.78468e-07
8.78461e-07
8.78452e-07
8.78431e-07
8.78464e-07
8.78508e-07
8.79497e-07
8.79604e-07
8.79444e-07
8.78591e-07
8.79609e-07
8.79612e-07
8.67319e-07
8.67243e-07
8.67113e-07
8.66004e-07
8.65933e-07
8.65897e-07
8.65984e-07
8.67126e-07
8.67212e-07
8.67113e-07
8.65593e-07
8.63717e-07
8.63717e-07
8.63717e-07
8.63717e-07
8.65725e-07
8.66213e-07
8.66004e-07
8.63717e-07
8.63718e-07
8.63718e-07
8.63718e-07
8.63718e-07
8.63717e-07
8.66206e-07
8.67349e-07
8.67319e-07
8.65933e-07
8.63717e-07
8.63718e-07
8.63717e-07
8.63717e-07
8.63717e-07
8.63717e-07
8.66197e-07
8.67189e-07
8.67243e-07
8.65897e-07
8.63717e-07
8.63718e-07
8.63717e-07
8.63717e-07
8.63718e-07
8.63717e-07
8.66176e-07
8.66336e-07
8.65984e-07
8.63717e-07
8.63718e-07
8.63718e-07
8.63718e-07
8.63718e-07
8.63717e-07
8.66209e-07
8.67354e-07
8.67126e-07
8.65725e-07
8.63717e-07
8.63717e-07
8.63717e-07
8.63717e-07
8.65921e-07
8.66253e-07
8.67357e-07
8.67212e-07
8.66213e-07
8.66206e-07
8.66197e-07
8.66176e-07
8.66209e-07
8.66253e-07
8.67242e-07
8.67349e-07
8.67189e-07
8.66336e-07
8.67354e-07
8.67357e-07
8.55064e-07
8.54988e-07
8.54858e-07
8.53749e-07
8.53679e-07
8.53642e-07
8.53729e-07
8.54871e-07
8.54957e-07
8.54858e-07
8.53339e-07
8.51462e-07
8.51462e-07
8.51462e-07
8.51462e-07
8.5347e-07
8.53958e-07
8.53749e-07
8.51462e-07
8.51463e-07
8.51463e-07
8.51463e-07
8.51463e-07
8.51462e-07
8.53952e-07
8.55094e-07
8.55064e-07
8.53679e-07
8.51462e-07
8.51463e-07
8.51463e-07
8.51463e-07
8.51463e-07
8.51462e-07
8.53942e-07
8.54935e-07
8.54988e-07
8.53642e-07
8.51462e-07
8.51463e-07
8.51463e-07
8.51463e-07
8.51463e-07
8.51462e-07
8.53922e-07
8.54082e-07
8.53729e-07
8.51462e-07
8.51463e-07
8.51463e-07
8.51463e-07
8.51463e-07
8.51462e-07
8.53954e-07
8.551e-07
8.54871e-07
8.5347e-07
8.51462e-07
8.51462e-07
8.51462e-07
8.51462e-07
8.53666e-07
8.53998e-07
8.55103e-07
8.54957e-07
8.53958e-07
8.53952e-07
8.53942e-07
8.53921e-07
8.53954e-07
8.53998e-07
8.54987e-07
8.55095e-07
8.54935e-07
8.54082e-07
8.551e-07
8.55103e-07
8.42809e-07
8.42734e-07
8.42603e-07
8.41495e-07
8.41424e-07
8.41387e-07
8.41474e-07
8.42616e-07
8.42703e-07
8.42603e-07
8.41084e-07
8.39207e-07
8.39208e-07
8.39208e-07
8.39207e-07
8.41216e-07
8.41704e-07
8.41495e-07
8.39207e-07
8.39208e-07
8.39208e-07
8.39208e-07
8.39208e-07
8.39207e-07
8.41697e-07
8.4284e-07
8.42809e-07
8.41424e-07
8.39208e-07
8.39208e-07
8.39208e-07
8.39208e-07
8.39208e-07
8.39208e-07
8.41687e-07
8.4268e-07
8.42733e-07
8.41387e-07
8.39208e-07
8.39208e-07
8.39208e-07
8.39208e-07
8.39208e-07
8.39208e-07
8.41667e-07
8.41827e-07
8.41474e-07
8.39207e-07
8.39208e-07
8.39208e-07
8.39208e-07
8.39208e-07
8.39207e-07
8.41699e-07
8.42845e-07
8.42616e-07
8.41216e-07
8.39207e-07
8.39208e-07
8.39208e-07
8.39207e-07
8.41411e-07
8.41743e-07
8.42848e-07
8.42703e-07
8.41704e-07
8.41697e-07
8.41687e-07
8.41667e-07
8.41699e-07
8.41743e-07
8.42732e-07
8.4284e-07
8.4268e-07
8.41827e-07
8.42845e-07
8.42848e-07
8.30554e-07
8.30479e-07
8.30348e-07
8.2924e-07
8.29169e-07
8.29133e-07
8.29219e-07
8.30361e-07
8.30448e-07
8.30348e-07
8.28829e-07
8.26953e-07
8.26953e-07
8.26953e-07
8.26953e-07
8.28961e-07
8.29449e-07
8.2924e-07
8.26953e-07
8.26953e-07
8.26953e-07
8.26953e-07
8.26953e-07
8.26953e-07
8.29442e-07
8.30585e-07
8.30554e-07
8.29169e-07
8.26953e-07
8.26953e-07
8.26953e-07
8.26953e-07
8.26953e-07
8.26953e-07
8.29432e-07
8.30425e-07
8.30479e-07
8.29132e-07
8.26953e-07
8.26953e-07
8.26953e-07
8.26953e-07
8.26953e-07
8.26953e-07
8.29412e-07
8.29572e-07
8.29219e-07
8.26953e-07
8.26953e-07
8.26953e-07
8.26953e-07
8.26953e-07
8.26953e-07
8.29444e-07
8.3059e-07
8.30361e-07
8.28961e-07
8.26953e-07
8.26953e-07
8.26953e-07
8.26953e-07
8.29156e-07
8.29488e-07
8.30593e-07
8.30448e-07
8.29449e-07
8.29442e-07
8.29432e-07
8.29412e-07
8.29444e-07
8.29489e-07
8.30477e-07
8.30585e-07
8.30425e-07
8.29572e-07
8.3059e-07
8.30593e-07
8.18299e-07
8.18224e-07
8.18093e-07
8.16985e-07
8.16914e-07
8.16878e-07
8.16964e-07
8.18106e-07
8.18193e-07
8.18093e-07
8.16574e-07
8.14698e-07
8.14698e-07
8.14698e-07
8.14698e-07
8.16706e-07
8.17194e-07
8.16985e-07
8.14698e-07
8.14698e-07
8.14698e-07
8.14698e-07
8.14698e-07
8.14698e-07
8.17187e-07
8.1833e-07
8.18299e-07
8.16914e-07
8.14698e-07
8.14698e-07
8.14698e-07
8.14698e-07
8.14698e-07
8.14698e-07
8.17178e-07
8.1817e-07
8.18224e-07
8.16878e-07
8.14698e-07
8.14698e-07
8.14698e-07
8.14698e-07
8.14698e-07
8.14698e-07
8.17157e-07
8.17317e-07
8.16964e-07
8.14698e-07
8.14698e-07
8.14698e-07
8.14698e-07
8.14698e-07
8.14698e-07
8.17189e-07
8.18335e-07
8.18106e-07
8.16706e-07
8.14698e-07
8.14698e-07
8.14698e-07
8.14698e-07
8.16901e-07
8.17233e-07
8.18338e-07
8.18193e-07
8.17194e-07
8.17187e-07
8.17178e-07
8.17157e-07
8.17189e-07
8.17234e-07
8.18222e-07
8.1833e-07
8.1817e-07
8.17317e-07
8.18335e-07
8.18338e-07
8.06045e-07
8.05969e-07
8.05838e-07
8.0473e-07
8.04659e-07
8.04623e-07
8.0471e-07
8.05852e-07
8.05938e-07
8.05838e-07
8.04319e-07
8.02443e-07
8.02443e-07
8.02443e-07
8.02443e-07
8.04451e-07
8.04939e-07
8.0473e-07
8.02443e-07
8.02443e-07
8.02443e-07
8.02443e-07
8.02443e-07
8.02443e-07
8.04932e-07
8.06075e-07
8.06045e-07
8.04659e-07
8.02443e-07
8.02443e-07
8.02443e-07
8.02443e-07
8.02443e-07
8.02443e-07
8.04923e-07
8.05915e-07
8.05969e-07
8.04623e-07
8.02443e-07
8.02443e-07
8.02443e-07
8.02443e-07
8.02443e-07
8.02443e-07
8.04902e-07
8.05062e-07
8.0471e-07
8.02443e-07
8.02443e-07
8.02443e-07
8.02443e-07
8.02443e-07
8.02443e-07
8.04934e-07
8.0608e-07
8.05852e-07
8.04451e-07
8.02443e-07
8.02443e-07
8.02443e-07
8.02443e-07
8.04646e-07
8.04979e-07
8.06083e-07
8.05938e-07
8.04939e-07
8.04932e-07
8.04923e-07
8.04902e-07
8.04934e-07
8.04979e-07
8.05968e-07
8.06075e-07
8.05915e-07
8.05062e-07
8.0608e-07
8.06083e-07
7.9379e-07
7.93714e-07
7.93584e-07
7.92475e-07
7.92404e-07
7.92368e-07
7.92455e-07
7.93597e-07
7.93683e-07
7.93584e-07
7.92064e-07
7.90188e-07
7.90188e-07
7.90188e-07
7.90188e-07
7.92196e-07
7.92684e-07
7.92475e-07
7.90188e-07
7.90189e-07
7.90188e-07
7.90188e-07
7.90189e-07
7.90188e-07
7.92677e-07
7.9382e-07
7.9379e-07
7.92404e-07
7.90188e-07
7.90188e-07
7.90188e-07
7.90188e-07
7.90188e-07
7.90188e-07
7.92668e-07
7.9366e-07
7.93714e-07
7.92368e-07
7.90188e-07
7.90188e-07
7.90188e-07
7.90188e-07
7.90188e-07
7.90188e-07
7.92647e-07
7.92807e-07
7.92455e-07
7.90188e-07
7.90189e-07
7.90188e-07
7.90188e-07
7.90189e-07
7.90188e-07
7.9268e-07
7.93825e-07
7.93597e-07
7.92196e-07
7.90188e-07
7.90188e-07
7.90188e-07
7.90188e-07
7.92392e-07
7.92724e-07
7.93828e-07
7.93683e-07
7.92684e-07
7.92677e-07
7.92668e-07
7.92647e-07
7.9268e-07
7.92724e-07
7.93713e-07
7.9382e-07
7.9366e-07
7.92807e-07
7.93825e-07
7.93828e-07
7.81535e-07
7.81459e-07
7.81329e-07
7.8022e-07
7.80149e-07
7.80113e-07
7.802e-07
7.81342e-07
7.81428e-07
7.81329e-07
7.79809e-07
7.77933e-07
7.77933e-07
7.77933e-07
7.77933e-07
7.79941e-07
7.80429e-07
7.8022e-07
7.77933e-07
7.77934e-07
7.77933e-07
7.77933e-07
7.77934e-07
7.77933e-07
7.80422e-07
7.81565e-07
7.81535e-07
7.80149e-07
7.77933e-07
7.77933e-07
7.77933e-07
7.77933e-07
7.77933e-07
7.77933e-07
7.80413e-07
7.81405e-07
7.81459e-07
7.80113e-07
7.77933e-07
7.77933e-07
7.77933e-07
7.77933e-07
7.77933e-07
7.77933e-07
7.80392e-07
7.80552e-07
7.802e-07
7.77933e-07
7.77934e-07
7.77933e-07
7.77933e-07
7.77934e-07
7.77933e-07
7.80425e-07
7.8157e-07
7.81342e-07
7.79941e-07
7.77933e-07
7.77933e-07
7.77933e-07
7.77933e-07