/*--------------------------------*- C++ -*----------------------------------*\
| =========                 |                                                 |
| \\      /  F ield         | OpenFOAM: The Open Source CFD Toolbox           |
|  \\    /   O peration     | Version:                                        |
|   \\  /    A nd           | Website:  www.openfoam.com                      |
|    \\/     M anipulation  |                                                 |
\*---------------------------------------------------------------------------*/
FoamFile
{
    version     2.0;
    format      ascii;
    class       volScalarField;
    location    "31100.5";
    object      p;
}
// * * * * * * * * * * * * * * * * * * * * * * * * * * * * * * * * * * * * * //

dimensions      [0 2 -2 0 0 0 0];


internalField   nonuniform List<scalar> 
247096
(
1.0962e-07
1.09622e-07
1.09766e-07
1.09853e-07
1.09885e-07
1.09843e-07
1.09753e-07
1.09599e-07
1.09622e-07
1.09821e-07
1.09998e-07
1.10091e-07
1.10114e-07
1.10084e-07
1.0998e-07
1.09797e-07
1.09766e-07
1.09998e-07
1.10138e-07
1.1018e-07
1.10187e-07
1.10178e-07
1.10128e-07
1.09971e-07
1.09739e-07
1.09853e-07
1.10091e-07
1.1018e-07
1.10192e-07
1.1019e-07
1.10192e-07
1.10175e-07
1.10069e-07
1.09819e-07
1.0962e-07
1.09885e-07
1.10114e-07
1.10187e-07
1.1019e-07
1.10187e-07
1.10191e-07
1.10183e-07
1.10094e-07
1.0985e-07
1.09843e-07
1.10084e-07
1.10178e-07
1.10192e-07
1.10191e-07
1.10192e-07
1.10172e-07
1.10061e-07
1.09811e-07
1.09753e-07
1.0998e-07
1.10128e-07
1.10175e-07
1.10183e-07
1.10172e-07
1.10116e-07
1.09952e-07
1.09727e-07
1.09599e-07
1.09797e-07
1.09971e-07
1.10069e-07
1.10094e-07
1.10061e-07
1.09952e-07
1.09774e-07
1.09739e-07
1.09819e-07
1.0985e-07
1.09811e-07
1.09727e-07
1.06807e-07
1.06782e-07
1.06791e-07
1.06642e-07
1.06654e-07
1.06673e-07
1.06653e-07
1.0684e-07
1.06777e-07
1.06791e-07
1.06662e-07
1.06458e-07
1.06476e-07
1.06476e-07
1.06458e-07
1.06719e-07
1.06665e-07
1.06642e-07
1.06458e-07
1.06496e-07
1.06517e-07
1.06517e-07
1.06496e-07
1.06458e-07
1.06782e-07
1.06829e-07
1.06806e-07
1.06654e-07
1.06476e-07
1.06517e-07
1.0654e-07
1.0654e-07
1.06517e-07
1.06476e-07
1.0681e-07
1.06846e-07
1.06782e-07
1.06673e-07
1.06476e-07
1.06517e-07
1.0654e-07
1.0654e-07
1.06517e-07
1.06476e-07
1.06813e-07
1.0667e-07
1.06653e-07
1.06458e-07
1.06496e-07
1.06517e-07
1.06517e-07
1.06496e-07
1.06458e-07
1.06806e-07
1.06855e-07
1.0684e-07
1.06719e-07
1.06458e-07
1.06476e-07
1.06476e-07
1.06458e-07
1.06801e-07
1.06724e-07
1.06838e-07
1.06777e-07
1.06665e-07
1.06782e-07
1.0681e-07
1.06813e-07
1.06806e-07
1.06724e-07
1.06849e-07
1.06828e-07
1.06846e-07
1.0667e-07
1.06855e-07
1.06838e-07
1.0503e-07
1.05021e-07
1.0503e-07
1.04899e-07
1.04899e-07
1.04909e-07
1.04901e-07
1.05064e-07
1.05021e-07
1.0503e-07
1.04894e-07
1.0466e-07
1.04669e-07
1.04669e-07
1.0466e-07
1.04917e-07
1.04911e-07
1.04899e-07
1.0466e-07
1.0468e-07
1.04692e-07
1.04692e-07
1.0468e-07
1.0466e-07
1.04962e-07
1.05054e-07
1.0503e-07
1.04899e-07
1.04669e-07
1.04692e-07
1.04705e-07
1.04705e-07
1.04692e-07
1.04669e-07
1.04966e-07
1.05051e-07
1.05021e-07
1.04909e-07
1.04669e-07
1.04692e-07
1.04705e-07
1.04705e-07
1.04692e-07
1.04669e-07
1.04965e-07
1.04918e-07
1.04901e-07
1.0466e-07
1.0468e-07
1.04692e-07
1.04692e-07
1.0468e-07
1.0466e-07
1.04969e-07
1.05059e-07
1.05064e-07
1.04917e-07
1.0466e-07
1.04669e-07
1.04669e-07
1.0466e-07
1.0495e-07
1.0494e-07
1.05064e-07
1.05021e-07
1.04911e-07
1.04962e-07
1.04966e-07
1.04965e-07
1.04969e-07
1.0494e-07
1.05067e-07
1.05054e-07
1.05051e-07
1.04918e-07
1.05059e-07
1.05064e-07
1.03431e-07
1.03422e-07
1.03431e-07
1.03307e-07
1.03306e-07
1.03314e-07
1.03308e-07
1.03461e-07
1.03424e-07
1.03431e-07
1.03303e-07
1.03095e-07
1.031e-07
1.031e-07
1.03095e-07
1.03327e-07
1.0332e-07
1.03307e-07
1.03095e-07
1.03106e-07
1.03112e-07
1.03112e-07
1.03106e-07
1.03095e-07
1.03367e-07
1.03454e-07
1.03431e-07
1.03306e-07
1.031e-07
1.03112e-07
1.0312e-07
1.0312e-07
1.03112e-07
1.031e-07
1.03372e-07
1.03452e-07
1.03422e-07
1.03314e-07
1.031e-07
1.03112e-07
1.0312e-07
1.0312e-07
1.03112e-07
1.031e-07
1.03371e-07
1.03326e-07
1.03308e-07
1.03095e-07
1.03106e-07
1.03112e-07
1.03112e-07
1.03106e-07
1.03095e-07
1.03373e-07
1.03459e-07
1.03461e-07
1.03327e-07
1.03095e-07
1.031e-07
1.031e-07
1.03095e-07
1.03355e-07
1.03347e-07
1.03462e-07
1.03424e-07
1.0332e-07
1.03367e-07
1.03372e-07
1.03371e-07
1.03373e-07
1.03347e-07
1.03466e-07
1.03454e-07
1.03452e-07
1.03326e-07
1.03459e-07
1.03462e-07
1.01967e-07
1.01958e-07
1.01966e-07
1.01849e-07
1.01847e-07
1.01854e-07
1.01849e-07
1.01994e-07
1.01961e-07
1.01966e-07
1.01844e-07
1.01652e-07
1.01656e-07
1.01656e-07
1.01652e-07
1.01867e-07
1.01863e-07
1.01849e-07
1.01652e-07
1.0166e-07
1.01663e-07
1.01663e-07
1.0166e-07
1.01652e-07
1.01906e-07
1.0199e-07
1.01967e-07
1.01847e-07
1.01656e-07
1.01663e-07
1.01668e-07
1.01668e-07
1.01663e-07
1.01656e-07
1.01908e-07
1.01988e-07
1.01958e-07
1.01854e-07
1.01656e-07
1.01663e-07
1.01668e-07
1.01668e-07
1.01663e-07
1.01656e-07
1.01907e-07
1.01867e-07
1.01849e-07
1.01652e-07
1.0166e-07
1.01663e-07
1.01663e-07
1.0166e-07
1.01652e-07
1.0191e-07
1.01994e-07
1.01994e-07
1.01867e-07
1.01652e-07
1.01656e-07
1.01656e-07
1.01652e-07
1.01894e-07
1.01887e-07
1.01996e-07
1.01961e-07
1.01863e-07
1.01906e-07
1.01908e-07
1.01907e-07
1.0191e-07
1.01887e-07
1.02001e-07
1.0199e-07
1.01988e-07
1.01867e-07
1.01994e-07
1.01996e-07
1.00596e-07
1.00588e-07
1.00596e-07
1.00483e-07
1.0048e-07
1.00486e-07
1.00482e-07
1.00621e-07
1.00591e-07
1.00596e-07
1.00478e-07
1.00297e-07
1.00299e-07
1.00299e-07
1.00297e-07
1.00501e-07
1.00497e-07
1.00483e-07
1.00297e-07
1.00302e-07
1.00304e-07
1.00304e-07
1.00302e-07
1.00297e-07
1.00538e-07
1.00619e-07
1.00596e-07
1.0048e-07
1.00299e-07
1.00304e-07
1.00307e-07
1.00307e-07
1.00304e-07
1.00299e-07
1.00539e-07
1.00617e-07
1.00588e-07
1.00486e-07
1.00299e-07
1.00304e-07
1.00307e-07
1.00307e-07
1.00304e-07
1.00299e-07
1.00538e-07
1.00501e-07
1.00482e-07
1.00297e-07
1.00302e-07
1.00304e-07
1.00304e-07
1.00302e-07
1.00297e-07
1.00541e-07
1.00622e-07
1.00621e-07
1.00501e-07
1.00297e-07
1.00299e-07
1.00299e-07
1.00297e-07
1.00525e-07
1.0052e-07
1.00624e-07
1.00591e-07
1.00497e-07
1.00538e-07
1.00539e-07
1.00538e-07
1.00541e-07
1.0052e-07
1.00629e-07
1.00619e-07
1.00617e-07
1.00501e-07
1.00622e-07
1.00624e-07
9.92989e-08
9.92905e-08
9.9298e-08
9.91889e-08
9.91858e-08
9.91911e-08
9.91877e-08
9.93221e-08
9.92938e-08
9.9298e-08
9.91835e-08
9.90116e-08
9.90132e-08
9.90132e-08
9.90116e-08
9.92055e-08
9.9203e-08
9.91889e-08
9.90116e-08
9.90155e-08
9.90166e-08
9.90166e-08
9.90155e-08
9.90116e-08
9.92421e-08
9.93207e-08
9.92989e-08
9.91858e-08
9.90132e-08
9.90166e-08
9.90185e-08
9.90185e-08
9.90166e-08
9.90132e-08
9.92428e-08
9.93187e-08
9.92905e-08
9.91911e-08
9.90132e-08
9.90166e-08
9.90185e-08
9.90185e-08
9.90166e-08
9.90132e-08
9.92411e-08
9.92071e-08
9.91877e-08
9.90116e-08
9.90155e-08
9.90166e-08
9.90166e-08
9.90155e-08
9.90116e-08
9.92441e-08
9.93236e-08
9.93221e-08
9.92054e-08
9.90116e-08
9.90132e-08
9.90132e-08
9.90116e-08
9.9229e-08
9.92241e-08
9.93247e-08
9.92938e-08
9.9203e-08
9.92421e-08
9.92428e-08
9.92411e-08
9.92441e-08
9.92241e-08
9.93302e-08
9.93207e-08
9.93187e-08
9.92071e-08
9.93236e-08
9.93247e-08
9.80624e-08
9.8054e-08
9.80613e-08
9.79551e-08
9.79517e-08
9.79563e-08
9.79535e-08
9.80842e-08
9.80577e-08
9.80613e-08
9.79493e-08
9.77856e-08
9.77867e-08
9.77867e-08
9.77856e-08
9.7971e-08
9.79692e-08
9.79551e-08
9.77856e-08
9.77887e-08
9.77893e-08
9.77893e-08
9.77887e-08
9.77856e-08
9.80073e-08
9.80838e-08
9.80623e-08
9.79516e-08
9.77867e-08
9.77893e-08
9.77904e-08
9.77904e-08
9.77893e-08
9.77867e-08
9.80076e-08
9.80818e-08
9.8054e-08
9.79563e-08
9.77867e-08
9.77893e-08
9.77904e-08
9.77904e-08
9.77893e-08
9.77867e-08
9.80058e-08
9.79731e-08
9.79534e-08
9.77856e-08
9.77887e-08
9.77893e-08
9.77893e-08
9.77887e-08
9.77856e-08
9.80085e-08
9.80863e-08
9.80842e-08
9.7971e-08
9.77856e-08
9.77867e-08
9.77867e-08
9.77856e-08
9.7994e-08
9.79892e-08
9.8087e-08
9.80577e-08
9.79692e-08
9.80073e-08
9.80076e-08
9.80058e-08
9.80085e-08
9.79892e-08
9.80929e-08
9.80838e-08
9.80818e-08
9.79731e-08
9.80863e-08
9.8087e-08
9.68744e-08
9.6866e-08
9.68732e-08
9.67692e-08
9.67654e-08
9.67696e-08
9.67671e-08
9.68953e-08
9.68701e-08
9.68732e-08
9.67631e-08
9.66057e-08
9.66065e-08
9.66065e-08
9.66057e-08
9.67848e-08
9.67834e-08
9.67692e-08
9.66057e-08
9.66085e-08
9.66085e-08
9.66085e-08
9.66085e-08
9.66057e-08
9.68212e-08
9.68956e-08
9.68743e-08
9.67654e-08
9.66065e-08
9.66085e-08
9.66091e-08
9.66091e-08
9.66085e-08
9.66065e-08
9.6821e-08
9.68936e-08
9.6866e-08
9.67696e-08
9.66065e-08
9.66085e-08
9.66091e-08
9.66091e-08
9.66085e-08
9.66065e-08
9.68192e-08
9.6787e-08
9.67671e-08
9.66057e-08
9.66085e-08
9.66085e-08
9.66085e-08
9.66085e-08
9.66057e-08
9.68215e-08
9.68978e-08
9.68953e-08
9.67848e-08
9.66057e-08
9.66065e-08
9.66065e-08
9.66057e-08
9.68076e-08
9.68026e-08
9.68982e-08
9.68701e-08
9.67834e-08
9.68211e-08
9.68209e-08
9.68191e-08
9.68215e-08
9.68027e-08
9.69046e-08
9.68956e-08
9.68936e-08
9.6787e-08
9.68978e-08
9.68982e-08
9.57195e-08
9.57111e-08
9.57183e-08
9.56157e-08
9.56117e-08
9.56156e-08
9.56133e-08
9.57399e-08
9.57155e-08
9.57182e-08
9.56094e-08
9.54562e-08
9.54568e-08
9.54568e-08
9.54562e-08
9.56313e-08
9.56299e-08
9.56157e-08
9.54562e-08
9.54588e-08
9.54584e-08
9.54584e-08
9.54588e-08
9.54562e-08
9.56678e-08
9.57407e-08
9.57195e-08
9.56117e-08
9.54568e-08
9.54583e-08
9.54584e-08
9.54584e-08
9.54584e-08
9.54568e-08
9.56674e-08
9.57387e-08
9.5711e-08
9.56156e-08
9.54568e-08
9.54583e-08
9.54584e-08
9.54584e-08
9.54584e-08
9.54568e-08
9.56655e-08
9.56335e-08
9.56133e-08
9.54562e-08
9.54588e-08
9.54583e-08
9.54583e-08
9.54588e-08
9.54562e-08
9.56675e-08
9.57427e-08
9.57398e-08
9.56313e-08
9.54561e-08
9.54568e-08
9.54568e-08
9.54561e-08
9.5654e-08
9.56488e-08
9.57429e-08
9.57154e-08
9.56299e-08
9.56677e-08
9.56674e-08
9.56654e-08
9.56674e-08
9.56487e-08
9.57496e-08
9.57406e-08
9.57386e-08
9.56334e-08
9.57427e-08
9.57429e-08
9.45833e-08
9.45749e-08
9.45822e-08
9.44804e-08
9.44762e-08
9.44799e-08
9.44776e-08
9.46033e-08
9.45793e-08
9.45819e-08
9.44739e-08
9.43229e-08
9.43234e-08
9.43234e-08
9.43228e-08
9.44958e-08
9.44952e-08
9.44802e-08
9.43228e-08
9.43255e-08
9.43247e-08
9.43247e-08
9.43255e-08
9.43229e-08
9.45327e-08
9.46046e-08
9.45833e-08
9.44761e-08
9.43233e-08
9.43247e-08
9.43244e-08
9.43244e-08
9.43247e-08
9.43234e-08
9.45322e-08
9.46026e-08
9.45749e-08
9.44799e-08
9.43234e-08
9.43247e-08
9.43244e-08
9.43244e-08
9.43247e-08
9.43234e-08
9.45301e-08
9.4498e-08
9.44777e-08
9.43228e-08
9.43255e-08
9.43247e-08
9.43247e-08
9.43255e-08
9.43228e-08
9.4532e-08
9.46065e-08
9.46035e-08
9.44959e-08
9.43228e-08
9.43233e-08
9.43233e-08
9.43228e-08
9.45186e-08
9.45134e-08
9.46067e-08
9.45795e-08
9.44939e-08
9.45324e-08
9.4532e-08
9.453e-08
9.45318e-08
9.45129e-08
9.46134e-08
9.46043e-08
9.46024e-08
9.44979e-08
9.46063e-08
9.46064e-08
9.3456e-08
9.34475e-08
9.34548e-08
9.33533e-08
9.33491e-08
9.33528e-08
9.33506e-08
9.34761e-08
9.34522e-08
9.34545e-08
9.33468e-08
9.31967e-08
9.31972e-08
9.31972e-08
9.31967e-08
9.33689e-08
9.33669e-08
9.33531e-08
9.31966e-08
9.31995e-08
9.31984e-08
9.31984e-08
9.31995e-08
9.31966e-08
9.34055e-08
9.3477e-08
9.34559e-08
9.3349e-08
9.31971e-08
9.31984e-08
9.31979e-08
9.31979e-08
9.31984e-08
9.31971e-08
9.34051e-08
9.34751e-08
9.34474e-08
9.33527e-08
9.31971e-08
9.31984e-08
9.31979e-08
9.31979e-08
9.31984e-08
9.31971e-08
9.34031e-08
9.33709e-08
9.33505e-08
9.31966e-08
9.31994e-08
9.31983e-08
9.31983e-08
9.31994e-08
9.31966e-08
9.34049e-08
9.3479e-08
9.3476e-08
9.33688e-08
9.31966e-08
9.31971e-08
9.31971e-08
9.31966e-08
9.33915e-08
9.33863e-08
9.34791e-08
9.34521e-08
9.33669e-08
9.34054e-08
9.3405e-08
9.3403e-08
9.34047e-08
9.33858e-08
9.3486e-08
9.34769e-08
9.3475e-08
9.33708e-08
9.34788e-08
9.34789e-08
9.23321e-08
9.23236e-08
9.23309e-08
9.22295e-08
9.22253e-08
9.22289e-08
9.22267e-08
9.23521e-08
9.23282e-08
9.23306e-08
9.22229e-08
9.20731e-08
9.20736e-08
9.20736e-08
9.20731e-08
9.22451e-08
9.22431e-08
9.22293e-08
9.20731e-08
9.20761e-08
9.20748e-08
9.20748e-08
9.20761e-08
9.20731e-08
9.22818e-08
9.23531e-08
9.23319e-08
9.22251e-08
9.20736e-08
9.20748e-08
9.20743e-08
9.20743e-08
9.20748e-08
9.20736e-08
9.22814e-08
9.23512e-08
9.23235e-08
9.22288e-08
9.20736e-08
9.20748e-08
9.20743e-08
9.20743e-08
9.20748e-08
9.20736e-08
9.22793e-08
9.22471e-08
9.22267e-08
9.20731e-08
9.20761e-08
9.20748e-08
9.20748e-08
9.20761e-08
9.20731e-08
9.22811e-08
9.2355e-08
9.2352e-08
9.2245e-08
9.2073e-08
9.20735e-08
9.20735e-08
9.2073e-08
9.22677e-08
9.22624e-08
9.23552e-08
9.23281e-08
9.22431e-08
9.22817e-08
9.22813e-08
9.22792e-08
9.22809e-08
9.22619e-08
9.2362e-08
9.2353e-08
9.23511e-08
9.22469e-08
9.23549e-08
9.23549e-08
9.12093e-08
9.12008e-08
9.12081e-08
9.11067e-08
9.11025e-08
9.11061e-08
9.11039e-08
9.12291e-08
9.12053e-08
9.12078e-08
9.11002e-08
9.09505e-08
9.0951e-08
9.0951e-08
9.09505e-08
9.11222e-08
9.11215e-08
9.11065e-08
9.09505e-08
9.09534e-08
9.09522e-08
9.09522e-08
9.09534e-08
9.09505e-08
9.11593e-08
9.12305e-08
9.12091e-08
9.11024e-08
9.09509e-08
9.09522e-08
9.09516e-08
9.09516e-08
9.09522e-08
9.0951e-08
9.11587e-08
9.12285e-08
9.12007e-08
9.11061e-08
9.09509e-08
9.09522e-08
9.09516e-08
9.09516e-08
9.09522e-08
9.09509e-08
9.11567e-08
9.11244e-08
9.11039e-08
9.09505e-08
9.09534e-08
9.09522e-08
9.09522e-08
9.09534e-08
9.09505e-08
9.11583e-08
9.12323e-08
9.12292e-08
9.11222e-08
9.09504e-08
9.09509e-08
9.09509e-08
9.09504e-08
9.1145e-08
9.11397e-08
9.12324e-08
9.12054e-08
9.11203e-08
9.1159e-08
9.11586e-08
9.11565e-08
9.11582e-08
9.11392e-08
9.12392e-08
9.12302e-08
9.12283e-08
9.11242e-08
9.12321e-08
9.12321e-08
9.00869e-08
9.00784e-08
9.00857e-08
8.99843e-08
8.99801e-08
8.99838e-08
8.99816e-08
9.01069e-08
9.0083e-08
9.00854e-08
8.99778e-08
8.98282e-08
8.98286e-08
8.98286e-08
8.98282e-08
8.99999e-08
8.9998e-08
8.99841e-08
8.98281e-08
8.9831e-08
8.98299e-08
8.98299e-08
8.9831e-08
8.98282e-08
9.00367e-08
9.01079e-08
9.00867e-08
8.998e-08
8.98286e-08
8.98299e-08
8.98292e-08
8.98292e-08
8.98299e-08
8.98286e-08
9.00363e-08
9.0106e-08
9.00783e-08
8.99837e-08
8.98286e-08
8.98299e-08
8.98292e-08
8.98292e-08
8.98299e-08
8.98286e-08
9.00342e-08
9.00019e-08
8.99815e-08
8.98281e-08
8.9831e-08
8.98298e-08
8.98298e-08
8.9831e-08
8.98282e-08
9.00359e-08
9.01099e-08
9.01068e-08
8.99999e-08
8.98281e-08
8.98285e-08
8.98285e-08
8.98281e-08
9.00226e-08
9.00173e-08
9.011e-08
9.0083e-08
8.99979e-08
9.00366e-08
9.00362e-08
9.00341e-08
9.00358e-08
9.00168e-08
9.01168e-08
9.01078e-08
9.01059e-08
9.00018e-08
9.01097e-08
9.01097e-08
8.89646e-08
8.89561e-08
8.89634e-08
8.8862e-08
8.88578e-08
8.88615e-08
8.88593e-08
8.89846e-08
8.89608e-08
8.89631e-08
8.88555e-08
8.87059e-08
8.87063e-08
8.87063e-08
8.87059e-08
8.88777e-08
8.88757e-08
8.88618e-08
8.87059e-08
8.87087e-08
8.87076e-08
8.87076e-08
8.87087e-08
8.87059e-08
8.89144e-08
8.89856e-08
8.89644e-08
8.88577e-08
8.87063e-08
8.87076e-08
8.87069e-08
8.8707e-08
8.87076e-08
8.87063e-08
8.8914e-08
8.89837e-08
8.8956e-08
8.88614e-08
8.87063e-08
8.87076e-08
8.87069e-08
8.87069e-08
8.87076e-08
8.87063e-08
8.8912e-08
8.88797e-08
8.88592e-08
8.87059e-08
8.87087e-08
8.87076e-08
8.87076e-08
8.87087e-08
8.87059e-08
8.89137e-08
8.89876e-08
8.89845e-08
8.88776e-08
8.87058e-08
8.87063e-08
8.87063e-08
8.87058e-08
8.89003e-08
8.8895e-08
8.89877e-08
8.89607e-08
8.88757e-08
8.89144e-08
8.89139e-08
8.89119e-08
8.89135e-08
8.88945e-08
8.89946e-08
8.89856e-08
8.89836e-08
8.88796e-08
8.89874e-08
8.89875e-08
8.78423e-08
8.78338e-08
8.78411e-08
8.77398e-08
8.77355e-08
8.77392e-08
8.77369e-08
8.78621e-08
8.78383e-08
8.78408e-08
8.77332e-08
8.75837e-08
8.75841e-08
8.7584e-08
8.75836e-08
8.77553e-08
8.77546e-08
8.77396e-08
8.75836e-08
8.75865e-08
8.75854e-08
8.75854e-08
8.75865e-08
8.75837e-08
8.77924e-08
8.78635e-08
8.78421e-08
8.77354e-08
8.7584e-08
8.75853e-08
8.75847e-08
8.75847e-08
8.75854e-08
8.75841e-08
8.77918e-08
8.78615e-08
8.78337e-08
8.77391e-08
8.7584e-08
8.75853e-08
8.75847e-08
8.75847e-08
8.75854e-08
8.75841e-08
8.77897e-08
8.77574e-08
8.77369e-08
8.75836e-08
8.75865e-08
8.75854e-08
8.75854e-08
8.75865e-08
8.75836e-08
8.77913e-08
8.78653e-08
8.7862e-08
8.77552e-08
8.75836e-08
8.75841e-08
8.75841e-08
8.75837e-08
8.77781e-08
8.77723e-08
8.78653e-08
8.78382e-08
8.77545e-08
8.77924e-08
8.77918e-08
8.77897e-08
8.77914e-08
8.77728e-08
8.78723e-08
8.78635e-08
8.78615e-08
8.77574e-08
8.78653e-08
8.78654e-08
8.672e-08
8.67116e-08
8.67189e-08
8.66175e-08
8.66133e-08
8.66169e-08
8.66147e-08
8.67399e-08
8.67161e-08
8.67186e-08
8.6611e-08
8.64614e-08
8.64618e-08
8.64618e-08
8.64614e-08
8.6633e-08
8.66323e-08
8.66173e-08
8.64614e-08
8.64642e-08
8.64631e-08
8.64631e-08
8.64643e-08
8.64615e-08
8.66702e-08
8.67413e-08
8.67199e-08
8.66132e-08
8.64618e-08
8.64631e-08
8.64625e-08
8.64625e-08
8.64631e-08
8.64619e-08
8.66696e-08
8.67393e-08
8.67115e-08
8.66169e-08
8.64618e-08
8.64631e-08
8.64625e-08
8.64625e-08
8.64631e-08
8.64619e-08
8.66675e-08
8.66352e-08
8.66146e-08
8.64614e-08
8.64642e-08
8.64631e-08
8.64631e-08
8.64643e-08
8.64614e-08
8.66692e-08
8.67431e-08
8.67398e-08
8.6633e-08
8.64614e-08
8.64618e-08
8.64618e-08
8.64614e-08
8.66559e-08
8.66505e-08
8.67432e-08
8.6716e-08
8.66323e-08
8.66701e-08
8.66695e-08
8.66674e-08
8.66691e-08
8.66501e-08
8.67501e-08
8.67412e-08
8.67392e-08
8.66351e-08
8.6743e-08
8.6743e-08
8.55978e-08
8.55894e-08
8.55967e-08
8.54953e-08
8.54911e-08
8.54947e-08
8.54925e-08
8.56176e-08
8.55939e-08
8.55964e-08
8.54888e-08
8.53392e-08
8.53396e-08
8.53396e-08
8.53392e-08
8.55108e-08
8.55101e-08
8.54951e-08
8.53392e-08
8.5342e-08
8.53409e-08
8.53409e-08
8.5342e-08
8.53392e-08
8.55479e-08
8.56191e-08
8.55977e-08
8.5491e-08
8.53396e-08
8.53409e-08
8.53402e-08
8.53403e-08
8.53409e-08
8.53396e-08
8.55474e-08
8.56171e-08
8.55893e-08
8.54947e-08
8.53396e-08
8.53409e-08
8.53402e-08
8.53402e-08
8.53409e-08
8.53396e-08
8.55453e-08
8.5513e-08
8.54925e-08
8.53392e-08
8.5342e-08
8.53409e-08
8.53409e-08
8.5342e-08
8.53392e-08
8.5547e-08
8.56209e-08
8.56178e-08
8.55109e-08
8.53391e-08
8.53395e-08
8.53395e-08
8.53391e-08
8.55336e-08
8.55283e-08
8.5621e-08
8.5594e-08
8.55089e-08
8.55476e-08
8.55472e-08
8.55452e-08
8.55468e-08
8.55278e-08
8.56279e-08
8.56188e-08
8.56169e-08
8.55128e-08
8.56207e-08
8.56208e-08
8.44756e-08
8.44672e-08
8.44744e-08
8.43731e-08
8.43689e-08
8.43726e-08
8.43704e-08
8.44956e-08
8.44718e-08
8.44742e-08
8.43666e-08
8.4217e-08
8.42174e-08
8.42174e-08
8.4217e-08
8.43887e-08
8.43868e-08
8.43729e-08
8.42169e-08
8.42198e-08
8.42187e-08
8.42187e-08
8.42198e-08
8.4217e-08
8.44255e-08
8.44967e-08
8.44755e-08
8.43688e-08
8.42173e-08
8.42187e-08
8.4218e-08
8.4218e-08
8.42187e-08
8.42174e-08
8.44251e-08
8.44948e-08
8.44671e-08
8.43725e-08
8.42173e-08
8.42187e-08
8.4218e-08
8.4218e-08
8.42187e-08
8.42174e-08
8.4423e-08
8.43907e-08
8.43703e-08
8.42169e-08
8.42198e-08
8.42186e-08
8.42186e-08
8.42198e-08
8.4217e-08
8.44247e-08
8.44987e-08
8.44956e-08
8.43886e-08
8.42169e-08
8.42173e-08
8.42173e-08
8.42169e-08
8.44114e-08
8.44061e-08
8.44988e-08
8.44717e-08
8.43867e-08
8.44254e-08
8.4425e-08
8.44229e-08
8.44245e-08
8.44056e-08
8.45056e-08
8.44966e-08
8.44947e-08
8.43906e-08
8.44985e-08
8.44985e-08
8.33534e-08
8.33449e-08
8.33522e-08
8.32509e-08
8.32466e-08
8.32503e-08
8.3248e-08
8.33732e-08
8.33494e-08
8.33519e-08
8.32443e-08
8.30947e-08
8.30951e-08
8.30951e-08
8.30947e-08
8.32664e-08
8.32656e-08
8.32507e-08
8.30947e-08
8.30976e-08
8.30964e-08
8.30964e-08
8.30976e-08
8.30948e-08
8.33035e-08
8.33746e-08
8.33533e-08
8.32465e-08
8.30951e-08
8.30964e-08
8.30958e-08
8.30958e-08
8.30965e-08
8.30952e-08
8.33029e-08
8.33726e-08
8.33449e-08
8.32502e-08
8.30951e-08
8.30964e-08
8.30958e-08
8.30958e-08
8.30964e-08
8.30952e-08
8.33008e-08
8.32685e-08
8.32481e-08
8.30947e-08
8.30975e-08
8.30964e-08
8.30964e-08
8.30976e-08
8.30947e-08
8.33025e-08
8.33764e-08
8.33733e-08
8.32664e-08
8.30947e-08
8.30951e-08
8.30951e-08
8.30947e-08
8.32892e-08
8.32838e-08
8.33765e-08
8.33495e-08
8.32645e-08
8.33032e-08
8.33028e-08
8.33007e-08
8.33023e-08
8.32834e-08
8.33834e-08
8.33744e-08
8.33724e-08
8.32684e-08
8.33763e-08
8.33763e-08
8.22311e-08
8.22227e-08
8.223e-08
8.21286e-08
8.21244e-08
8.2128e-08
8.21258e-08
8.22509e-08
8.22272e-08
8.22297e-08
8.21221e-08
8.19725e-08
8.19729e-08
8.19729e-08
8.19725e-08
8.21441e-08
8.21434e-08
8.21284e-08
8.19725e-08
8.19753e-08
8.19742e-08
8.19742e-08
8.19754e-08
8.19725e-08
8.21813e-08
8.22524e-08
8.2231e-08
8.21243e-08
8.19729e-08
8.19742e-08
8.19735e-08
8.19736e-08
8.19742e-08
8.19729e-08
8.21807e-08
8.22504e-08
8.22226e-08
8.2128e-08
8.19729e-08
8.19742e-08
8.19735e-08
8.19735e-08
8.19742e-08
8.19729e-08
8.21786e-08
8.21463e-08
8.21258e-08
8.19725e-08
8.19753e-08
8.19742e-08
8.19742e-08
8.19753e-08
8.19725e-08
8.21803e-08
8.22542e-08
8.22511e-08
8.21442e-08
8.19724e-08
8.19728e-08
8.19728e-08
8.19724e-08
8.21669e-08
8.21616e-08
8.22543e-08
8.22273e-08
8.21422e-08
8.21809e-08
8.21805e-08
8.21785e-08
8.21801e-08
8.21611e-08
8.22612e-08
8.22521e-08
8.22502e-08
8.21461e-08
8.2254e-08
8.22541e-08
8.11089e-08
8.11004e-08
8.11077e-08
8.10064e-08
8.10021e-08
8.10058e-08
8.10035e-08
8.11287e-08
8.11049e-08
8.11075e-08
8.09999e-08
8.08503e-08
8.08507e-08
8.08506e-08
8.08502e-08
8.10219e-08
8.10212e-08
8.10062e-08
8.08502e-08
8.08531e-08
8.0852e-08
8.0852e-08
8.08531e-08
8.08503e-08
8.1059e-08
8.11302e-08
8.11088e-08
8.10021e-08
8.08506e-08
8.0852e-08
8.08513e-08
8.08513e-08
8.0852e-08
8.08507e-08
8.10585e-08
8.11282e-08
8.11004e-08
8.10058e-08
8.08506e-08
8.0852e-08
8.08513e-08
8.08513e-08
8.0852e-08
8.08507e-08
8.10564e-08
8.10241e-08
8.10036e-08
8.08503e-08
8.08531e-08
8.08519e-08
8.08519e-08
8.08531e-08
8.08503e-08
8.10581e-08
8.1132e-08
8.11289e-08
8.1022e-08
8.08502e-08
8.08506e-08
8.08506e-08
8.08502e-08
8.10447e-08
8.10394e-08
8.11321e-08
8.1105e-08
8.102e-08
8.10587e-08
8.10583e-08
8.10562e-08
8.10579e-08
8.10389e-08
8.11389e-08
8.11299e-08
8.1128e-08
8.10239e-08
8.11318e-08
8.11318e-08
7.99866e-08
7.99781e-08
7.99852e-08
7.9884e-08
7.98798e-08
7.98835e-08
7.98813e-08
8.00064e-08
7.99827e-08
7.99855e-08
7.98776e-08
7.9728e-08
7.97284e-08
7.97284e-08
7.9728e-08
7.98996e-08
7.98989e-08
7.98841e-08
7.9728e-08
7.97309e-08
7.97297e-08
7.97297e-08
7.97309e-08
7.97281e-08
7.99368e-08
8.00079e-08
7.99866e-08
7.98799e-08
7.97284e-08
7.97297e-08
7.97291e-08
7.97291e-08
7.97298e-08
7.97285e-08
7.99362e-08
8.00059e-08
7.99782e-08
7.98836e-08
7.97284e-08
7.97297e-08
7.97291e-08
7.97291e-08
7.97298e-08
7.97285e-08
7.99342e-08
7.99019e-08
7.98814e-08
7.9728e-08
7.97309e-08
7.97297e-08
7.97297e-08
7.97309e-08
7.97281e-08
7.99358e-08
8.00098e-08
8.00067e-08
7.98997e-08
7.9728e-08
7.97284e-08
7.97284e-08
7.9728e-08
7.99225e-08
7.99172e-08
8.00099e-08
7.99828e-08
7.98978e-08
7.99365e-08
7.99361e-08
7.9934e-08
7.99356e-08
7.99167e-08
8.00167e-08
8.00077e-08
8.00058e-08
7.99017e-08
8.00096e-08
8.00096e-08
7.88644e-08
7.88559e-08
7.88632e-08
7.87619e-08
7.87577e-08
7.87613e-08
7.87591e-08
7.88842e-08
7.88604e-08
7.8863e-08
7.87554e-08
7.86058e-08
7.86062e-08
7.86062e-08
7.86058e-08
7.87774e-08
7.87767e-08
7.87617e-08
7.86057e-08
7.86086e-08
7.86075e-08
7.86075e-08
7.86086e-08
7.86058e-08
7.88145e-08
7.88857e-08
7.88643e-08
7.87576e-08
7.86062e-08
7.86075e-08
7.86068e-08
7.86069e-08
7.86075e-08
7.86062e-08
7.8814e-08
7.88837e-08
7.88559e-08
7.87613e-08
7.86062e-08
7.86075e-08
7.86069e-08
7.86069e-08
7.86075e-08
7.86062e-08
7.88119e-08
7.87796e-08
7.8759e-08
7.86057e-08
7.86086e-08
7.86075e-08
7.86075e-08
7.86087e-08
7.86058e-08
7.88136e-08
7.88875e-08
7.88842e-08
7.87774e-08
7.86058e-08
7.86062e-08
7.86062e-08
7.86058e-08
7.88003e-08
7.87949e-08
7.88876e-08
7.88604e-08
7.87767e-08
7.88145e-08
7.8814e-08
7.88119e-08
7.88135e-08
7.87945e-08
7.88945e-08
7.88856e-08
7.88836e-08
7.87795e-08
7.88874e-08
7.88874e-08
7.77422e-08
7.77337e-08
7.7741e-08
7.76397e-08
7.76355e-08
7.76391e-08
7.76369e-08
7.7762e-08
7.77382e-08
7.77408e-08
7.76332e-08
7.74836e-08
7.7484e-08
7.7484e-08
7.74836e-08
7.76552e-08
7.76545e-08
7.76395e-08
7.74835e-08
7.74864e-08
7.74853e-08
7.74853e-08
7.74864e-08
7.74836e-08
7.76923e-08
7.77634e-08
7.77421e-08
7.76353e-08
7.74839e-08
7.74853e-08
7.74846e-08
7.74846e-08
7.74853e-08
7.7484e-08
7.76917e-08
7.77614e-08
7.77336e-08
7.7639e-08
7.74839e-08
7.74853e-08
7.74846e-08
7.74846e-08
7.74853e-08
7.7484e-08
7.76896e-08
7.76573e-08
7.76368e-08
7.74835e-08
7.74864e-08
7.74853e-08
7.74853e-08
7.74864e-08
7.74836e-08
7.76912e-08
7.77652e-08
7.7762e-08
7.76551e-08
7.74836e-08
7.7484e-08
7.7484e-08
7.74836e-08
7.7678e-08
7.76722e-08
7.77652e-08
7.77382e-08
7.76544e-08
7.76923e-08
7.76917e-08
7.76897e-08
7.76914e-08
7.76727e-08
7.77723e-08
7.77634e-08
7.77614e-08
7.76574e-08
7.77653e-08
7.77654e-08
7.662e-08
7.66116e-08
7.66188e-08
7.65175e-08
7.65133e-08
7.65169e-08
7.65148e-08
7.664e-08
7.66162e-08
7.66186e-08
7.6511e-08
7.63614e-08
7.63618e-08
7.63618e-08
7.63614e-08
7.65331e-08
7.65311e-08
7.65173e-08
7.63613e-08
7.63642e-08
7.63631e-08
7.63631e-08
7.63642e-08
7.63613e-08
7.65698e-08
7.6641e-08
7.66199e-08
7.65132e-08
7.63617e-08
7.63631e-08
7.63624e-08
7.63624e-08
7.6363e-08
7.63617e-08
7.65694e-08
7.66391e-08
7.66115e-08
7.65169e-08
7.63617e-08
7.63631e-08
7.63624e-08
7.63624e-08
7.6363e-08
7.63617e-08
7.65673e-08
7.6535e-08
7.65147e-08
7.63613e-08
7.63642e-08
7.6363e-08
7.6363e-08
7.63642e-08
7.63613e-08
7.6569e-08
7.66429e-08
7.664e-08
7.65331e-08
7.63613e-08
7.63617e-08
7.63617e-08
7.63613e-08
7.65558e-08
7.655e-08
7.66429e-08
7.66161e-08
7.65311e-08
7.65698e-08
7.65694e-08
7.65674e-08
7.65691e-08
7.65505e-08
7.665e-08
7.6641e-08
7.66391e-08
7.65351e-08
7.6643e-08
7.66431e-08
7.54978e-08
7.54893e-08
7.54966e-08
7.53953e-08
7.53911e-08
7.53947e-08
7.53925e-08
7.55178e-08
7.5494e-08
7.54963e-08
7.53887e-08
7.52391e-08
7.52395e-08
7.52395e-08
7.52391e-08
7.54109e-08
7.54089e-08
7.53951e-08
7.52391e-08
7.5242e-08
7.52408e-08
7.52408e-08
7.5242e-08
7.52391e-08
7.54476e-08
7.55188e-08
7.54977e-08
7.53909e-08
7.52395e-08
7.52408e-08
7.52402e-08
7.52402e-08
7.52408e-08
7.52395e-08
7.54472e-08
7.55169e-08
7.54893e-08
7.53946e-08
7.52395e-08
7.52408e-08
7.52402e-08
7.52402e-08
7.52408e-08
7.52395e-08
7.54452e-08
7.54129e-08
7.53925e-08
7.52391e-08
7.52419e-08
7.52408e-08
7.52408e-08
7.52419e-08
7.52391e-08
7.54469e-08
7.55208e-08
7.55178e-08
7.54108e-08
7.52391e-08
7.52395e-08
7.52395e-08
7.52391e-08
7.54335e-08
7.54282e-08
7.55209e-08
7.54939e-08
7.54089e-08
7.54476e-08
7.54472e-08
7.54451e-08
7.54467e-08
7.54278e-08
7.55278e-08
7.55188e-08
7.55169e-08
7.54128e-08
7.55207e-08
7.55207e-08
7.43755e-08
7.4367e-08
7.43744e-08
7.4273e-08
7.42688e-08
7.42724e-08
7.42702e-08
7.43953e-08
7.43715e-08
7.43741e-08
7.42665e-08
7.41169e-08
7.41173e-08
7.41173e-08
7.41169e-08
7.42885e-08
7.42878e-08
7.42728e-08
7.41169e-08
7.41197e-08
7.41186e-08
7.41186e-08
7.41197e-08
7.41169e-08
7.43256e-08
7.43968e-08
7.43754e-08
7.42687e-08
7.41173e-08
7.41186e-08
7.41179e-08
7.41179e-08
7.41186e-08
7.41173e-08
7.43251e-08
7.43948e-08
7.4367e-08
7.42724e-08
7.41173e-08
7.41186e-08
7.41179e-08
7.41179e-08
7.41186e-08
7.41173e-08
7.4323e-08
7.42907e-08
7.42702e-08
7.41169e-08
7.41197e-08
7.41186e-08
7.41186e-08
7.41197e-08
7.41169e-08
7.43247e-08
7.43986e-08
7.43955e-08
7.42886e-08
7.41169e-08
7.41173e-08
7.41173e-08
7.41169e-08
7.43113e-08
7.4306e-08
7.43987e-08
7.43717e-08
7.42867e-08
7.43254e-08
7.4325e-08
7.43229e-08
7.43245e-08
7.43056e-08
7.44056e-08
7.43966e-08
7.43946e-08
7.42906e-08
7.43985e-08
7.43985e-08
7.32532e-08
7.32447e-08
7.32518e-08
7.31506e-08
7.31464e-08
7.31501e-08
7.31479e-08
7.32731e-08
7.32493e-08
7.32521e-08
7.31442e-08
7.29946e-08
7.2995e-08
7.2995e-08
7.29946e-08
7.31662e-08
7.31655e-08
7.31508e-08
7.29947e-08
7.29975e-08
7.29963e-08
7.29963e-08
7.29975e-08
7.29947e-08
7.32034e-08
7.32745e-08
7.32533e-08
7.31465e-08
7.2995e-08
7.29964e-08
7.29957e-08
7.29957e-08
7.29964e-08
7.29951e-08
7.32028e-08
7.32725e-08
7.32448e-08
7.31502e-08
7.2995e-08
7.29964e-08
7.29957e-08
7.29957e-08
7.29964e-08
7.29951e-08
7.32007e-08
7.31684e-08
7.31479e-08
7.29946e-08
7.29975e-08
7.29964e-08
7.29964e-08
7.29975e-08
7.29946e-08
7.32023e-08
7.32763e-08
7.32731e-08
7.31663e-08
7.29947e-08
7.29951e-08
7.29951e-08
7.29947e-08
7.31891e-08
7.31833e-08
7.32763e-08
7.32493e-08
7.31655e-08
7.32034e-08
7.32028e-08
7.32008e-08
7.32024e-08
7.31838e-08
7.32833e-08
7.32745e-08
7.32725e-08
7.31684e-08
7.32764e-08
7.32765e-08
7.21309e-08
7.21225e-08
7.21296e-08
7.20283e-08
7.20242e-08
7.20279e-08
7.20257e-08
7.21508e-08
7.2127e-08
7.21299e-08
7.2022e-08
7.18724e-08
7.18728e-08
7.18728e-08
7.18724e-08
7.2044e-08
7.20433e-08
7.20285e-08
7.18724e-08
7.18752e-08
7.18741e-08
7.18741e-08
7.18753e-08
7.18724e-08
7.20811e-08
7.21523e-08
7.2131e-08
7.20243e-08
7.18728e-08
7.18741e-08
7.18735e-08
7.18735e-08
7.18741e-08
7.18728e-08
7.20806e-08
7.21503e-08
7.21225e-08
7.20279e-08
7.18728e-08
7.18741e-08
7.18735e-08
7.18735e-08
7.18741e-08
7.18728e-08
7.20785e-08
7.20462e-08
7.20257e-08
7.18724e-08
7.18753e-08
7.18741e-08
7.18741e-08
7.18753e-08
7.18724e-08
7.20801e-08
7.2154e-08
7.21508e-08
7.2044e-08
7.18724e-08
7.18728e-08
7.18728e-08
7.18724e-08
7.20669e-08
7.20611e-08
7.2154e-08
7.21271e-08
7.20433e-08
7.20811e-08
7.20806e-08
7.20785e-08
7.20802e-08
7.20616e-08
7.21611e-08
7.21523e-08
7.21503e-08
7.20462e-08
7.21541e-08
7.21542e-08
7.10088e-08
7.10004e-08
7.10077e-08
7.09063e-08
7.09021e-08
7.09058e-08
7.09036e-08
7.10288e-08
7.1005e-08
7.10074e-08
7.08998e-08
7.07502e-08
7.07506e-08
7.07506e-08
7.07502e-08
7.09219e-08
7.092e-08
7.09061e-08
7.07502e-08
7.0753e-08
7.07519e-08
7.07519e-08
7.0753e-08
7.07502e-08
7.09587e-08
7.10299e-08
7.10087e-08
7.0902e-08
7.07506e-08
7.07519e-08
7.07512e-08
7.07512e-08
7.07519e-08
7.07506e-08
7.09583e-08
7.1028e-08
7.10003e-08
7.09057e-08
7.07506e-08
7.07519e-08
7.07512e-08
7.07512e-08
7.07519e-08
7.07506e-08
7.09563e-08
7.0924e-08
7.09035e-08
7.07502e-08
7.0753e-08
7.07519e-08
7.07519e-08
7.0753e-08
7.07502e-08
7.0958e-08
7.10319e-08
7.10288e-08
7.09219e-08
7.07501e-08
7.07505e-08
7.07506e-08
7.07501e-08
7.09446e-08
7.09393e-08
7.1032e-08
7.1005e-08