/*--------------------------------*- C++ -*----------------------------------*\
| =========                 |                                                 |
| \\      /  F ield         | OpenFOAM: The Open Source CFD Toolbox           |
|  \\    /   O peration     | Version:                                        |
|   \\  /    A nd           | Website:  www.openfoam.com                      |
|    \\/     M anipulation  |                                                 |
\*---------------------------------------------------------------------------*/
FoamFile
{
    version     2.0;
    format      ascii;
    class       volScalarField;
    location    "20350.5";
    object      p;
}
// * * * * * * * * * * * * * * * * * * * * * * * * * * * * * * * * * * * * * //

dimensions      [0 2 -2 0 0 0 0];


internalField   nonuniform List<scalar> 
247096
(
1.15442e-07
1.15445e-07
1.15588e-07
1.15675e-07
1.15707e-07
1.15666e-07
1.15575e-07
1.15421e-07
1.15445e-07
1.15643e-07
1.1582e-07
1.15913e-07
1.15936e-07
1.15906e-07
1.15802e-07
1.15619e-07
1.15588e-07
1.1582e-07
1.15961e-07
1.16002e-07
1.16009e-07
1.16e-07
1.1595e-07
1.15793e-07
1.15561e-07
1.15675e-07
1.15913e-07
1.16002e-07
1.16014e-07
1.16013e-07
1.16014e-07
1.15997e-07
1.15891e-07
1.15642e-07
1.15442e-07
1.15707e-07
1.15936e-07
1.16009e-07
1.16013e-07
1.16009e-07
1.16013e-07
1.16006e-07
1.15916e-07
1.15673e-07
1.15666e-07
1.15906e-07
1.16e-07
1.16014e-07
1.16013e-07
1.16014e-07
1.15995e-07
1.15883e-07
1.15633e-07
1.15575e-07
1.15802e-07
1.1595e-07
1.15997e-07
1.16006e-07
1.15995e-07
1.15938e-07
1.15774e-07
1.15549e-07
1.15421e-07
1.15619e-07
1.15793e-07
1.15891e-07
1.15916e-07
1.15883e-07
1.15774e-07
1.15597e-07
1.15561e-07
1.15642e-07
1.15673e-07
1.15633e-07
1.15549e-07
1.12629e-07
1.12604e-07
1.12613e-07
1.12465e-07
1.12478e-07
1.12497e-07
1.12477e-07
1.12662e-07
1.126e-07
1.12613e-07
1.12486e-07
1.12282e-07
1.123e-07
1.123e-07
1.12282e-07
1.12543e-07
1.12489e-07
1.12465e-07
1.12282e-07
1.1232e-07
1.12341e-07
1.12341e-07
1.1232e-07
1.12282e-07
1.12606e-07
1.12651e-07
1.12629e-07
1.12478e-07
1.123e-07
1.12341e-07
1.12364e-07
1.12364e-07
1.12341e-07
1.123e-07
1.12634e-07
1.12669e-07
1.12604e-07
1.12497e-07
1.123e-07
1.12341e-07
1.12364e-07
1.12364e-07
1.12341e-07
1.123e-07
1.12637e-07
1.12493e-07
1.12477e-07
1.12282e-07
1.1232e-07
1.12341e-07
1.12341e-07
1.1232e-07
1.12282e-07
1.1263e-07
1.12678e-07
1.12662e-07
1.12543e-07
1.12282e-07
1.123e-07
1.123e-07
1.12282e-07
1.12624e-07
1.12548e-07
1.12661e-07
1.126e-07
1.12489e-07
1.12606e-07
1.12634e-07
1.12637e-07
1.1263e-07
1.12548e-07
1.12671e-07
1.12651e-07
1.12669e-07
1.12493e-07
1.12678e-07
1.12661e-07
1.10846e-07
1.10838e-07
1.10846e-07
1.10716e-07
1.10716e-07
1.10726e-07
1.10718e-07
1.1088e-07
1.10837e-07
1.10846e-07
1.10711e-07
1.10475e-07
1.10483e-07
1.10483e-07
1.10475e-07
1.10734e-07
1.10728e-07
1.10716e-07
1.10475e-07
1.10495e-07
1.10506e-07
1.10506e-07
1.10495e-07
1.10475e-07
1.10778e-07
1.1087e-07
1.10846e-07
1.10716e-07
1.10483e-07
1.10506e-07
1.1052e-07
1.1052e-07
1.10506e-07
1.10483e-07
1.10782e-07
1.10867e-07
1.10838e-07
1.10726e-07
1.10483e-07
1.10506e-07
1.1052e-07
1.1052e-07
1.10506e-07
1.10483e-07
1.1078e-07
1.10735e-07
1.10718e-07
1.10475e-07
1.10495e-07
1.10506e-07
1.10506e-07
1.10495e-07
1.10475e-07
1.10785e-07
1.10875e-07
1.1088e-07
1.10734e-07
1.10475e-07
1.10483e-07
1.10483e-07
1.10475e-07
1.10766e-07
1.10757e-07
1.1088e-07
1.10837e-07
1.10728e-07
1.10778e-07
1.10782e-07
1.1078e-07
1.10785e-07
1.10757e-07
1.10883e-07
1.1087e-07
1.10867e-07
1.10735e-07
1.10875e-07
1.1088e-07
1.09242e-07
1.09233e-07
1.09242e-07
1.09118e-07
1.09117e-07
1.09125e-07
1.09119e-07
1.09272e-07
1.09235e-07
1.09242e-07
1.09113e-07
1.08904e-07
1.0891e-07
1.0891e-07
1.08904e-07
1.09137e-07
1.09132e-07
1.09118e-07
1.08904e-07
1.08916e-07
1.08922e-07
1.08922e-07
1.08916e-07
1.08904e-07
1.09177e-07
1.09265e-07
1.09242e-07
1.09117e-07
1.0891e-07
1.08922e-07
1.0893e-07
1.0893e-07
1.08922e-07
1.0891e-07
1.09181e-07
1.09263e-07
1.09233e-07
1.09125e-07
1.0891e-07
1.08922e-07
1.0893e-07
1.0893e-07
1.08922e-07
1.0891e-07
1.09179e-07
1.09137e-07
1.09119e-07
1.08904e-07
1.08916e-07
1.08922e-07
1.08922e-07
1.08916e-07
1.08904e-07
1.09183e-07
1.0927e-07
1.09272e-07
1.09136e-07
1.08904e-07
1.0891e-07
1.0891e-07
1.08904e-07
1.09164e-07
1.09157e-07
1.09273e-07
1.09235e-07
1.09132e-07
1.09177e-07
1.09181e-07
1.09179e-07
1.09183e-07
1.09157e-07
1.09277e-07
1.09265e-07
1.09263e-07
1.09137e-07
1.0927e-07
1.09273e-07
1.07803e-07
1.07794e-07
1.07802e-07
1.07685e-07
1.07682e-07
1.07688e-07
1.07684e-07
1.07829e-07
1.07797e-07
1.07802e-07
1.07679e-07
1.07492e-07
1.07495e-07
1.07495e-07
1.07492e-07
1.07702e-07
1.07699e-07
1.07685e-07
1.07492e-07
1.075e-07
1.07503e-07
1.07503e-07
1.075e-07
1.07492e-07
1.0774e-07
1.07826e-07
1.07803e-07
1.07682e-07
1.07495e-07
1.07503e-07
1.07508e-07
1.07508e-07
1.07503e-07
1.07495e-07
1.07742e-07
1.07823e-07
1.07794e-07
1.07688e-07
1.07495e-07
1.07503e-07
1.07508e-07
1.07508e-07
1.07503e-07
1.07495e-07
1.0774e-07
1.07704e-07
1.07684e-07
1.07492e-07
1.075e-07
1.07503e-07
1.07503e-07
1.075e-07
1.07492e-07
1.07743e-07
1.07829e-07
1.07829e-07
1.07702e-07
1.07492e-07
1.07495e-07
1.07495e-07
1.07492e-07
1.07727e-07
1.07722e-07
1.07831e-07
1.07797e-07
1.07699e-07
1.0774e-07
1.07742e-07
1.0774e-07
1.07743e-07
1.07722e-07
1.07836e-07
1.07826e-07
1.07823e-07
1.07704e-07
1.07829e-07
1.07831e-07
1.06492e-07
1.06483e-07
1.06491e-07
1.06379e-07
1.06375e-07
1.0638e-07
1.06377e-07
1.06515e-07
1.06487e-07
1.06491e-07
1.06372e-07
1.06201e-07
1.06203e-07
1.06203e-07
1.06201e-07
1.06395e-07
1.06393e-07
1.06379e-07
1.06201e-07
1.06206e-07
1.06207e-07
1.06207e-07
1.06206e-07
1.06201e-07
1.06433e-07
1.06514e-07
1.06492e-07
1.06375e-07
1.06203e-07
1.06207e-07
1.0621e-07
1.0621e-07
1.06207e-07
1.06203e-07
1.06434e-07
1.06512e-07
1.06483e-07
1.0638e-07
1.06203e-07
1.06207e-07
1.0621e-07
1.0621e-07
1.06207e-07
1.06203e-07
1.06432e-07
1.06397e-07
1.06377e-07
1.06201e-07
1.06206e-07
1.06207e-07
1.06207e-07
1.06206e-07
1.06201e-07
1.06435e-07
1.06517e-07
1.06515e-07
1.06395e-07
1.06201e-07
1.06203e-07
1.06203e-07
1.06201e-07
1.0642e-07
1.06414e-07
1.06518e-07
1.06487e-07
1.06393e-07
1.06433e-07
1.06434e-07
1.06432e-07
1.06435e-07
1.06414e-07
1.06525e-07
1.06514e-07
1.06512e-07
1.06397e-07
1.06517e-07
1.06518e-07
1.05257e-07
1.05247e-07
1.05255e-07
1.05146e-07
1.05142e-07
1.05146e-07
1.05143e-07
1.05278e-07
1.05252e-07
1.05255e-07
1.05139e-07
1.04977e-07
1.04978e-07
1.04978e-07
1.04977e-07
1.05163e-07
1.05161e-07
1.05146e-07
1.04977e-07
1.04981e-07
1.04981e-07
1.04981e-07
1.04981e-07
1.04977e-07
1.05201e-07
1.05279e-07
1.05257e-07
1.05142e-07
1.04978e-07
1.04981e-07
1.04981e-07
1.04981e-07
1.04981e-07
1.04978e-07
1.05201e-07
1.05277e-07
1.05247e-07
1.05146e-07
1.04978e-07
1.04981e-07
1.04981e-07
1.04981e-07
1.04981e-07
1.04978e-07
1.05199e-07
1.05165e-07
1.05143e-07
1.04977e-07
1.04981e-07
1.04981e-07
1.04981e-07
1.04981e-07
1.04977e-07
1.05201e-07
1.05281e-07
1.05278e-07
1.05163e-07
1.04977e-07
1.04978e-07
1.04978e-07
1.04977e-07
1.05187e-07
1.05181e-07
1.05282e-07
1.05252e-07
1.05161e-07
1.05201e-07
1.05201e-07
1.05199e-07
1.05201e-07
1.05181e-07
1.05289e-07
1.05279e-07
1.05277e-07
1.05165e-07
1.05281e-07
1.05282e-07
1.04054e-07
1.04044e-07
1.04052e-07
1.03944e-07
1.03939e-07
1.03944e-07
1.03941e-07
1.04075e-07
1.0405e-07
1.04052e-07
1.03937e-07
1.03778e-07
1.03779e-07
1.03779e-07
1.03778e-07
1.03961e-07
1.03959e-07
1.03944e-07
1.03778e-07
1.03781e-07
1.03781e-07
1.03781e-07
1.03781e-07
1.03778e-07
1.04e-07
1.04076e-07
1.04054e-07
1.03939e-07
1.03779e-07
1.03781e-07
1.0378e-07
1.0378e-07
1.03781e-07
1.03779e-07
1.04e-07
1.04074e-07
1.04044e-07
1.03944e-07
1.03779e-07
1.03781e-07
1.0378e-07
1.0378e-07
1.03781e-07
1.03779e-07
1.03998e-07
1.03963e-07
1.03941e-07
1.03778e-07
1.03781e-07
1.03781e-07
1.03781e-07
1.03781e-07
1.03778e-07
1.03999e-07
1.04078e-07
1.04075e-07
1.03961e-07
1.03778e-07
1.03779e-07
1.03779e-07
1.03778e-07
1.03985e-07
1.03979e-07
1.04078e-07
1.0405e-07
1.03959e-07
1.04e-07
1.04e-07
1.03998e-07
1.03999e-07
1.03979e-07
1.04086e-07
1.04076e-07
1.04074e-07
1.03963e-07
1.04078e-07
1.04078e-07
1.0286e-07
1.02851e-07
1.02859e-07
1.02751e-07
1.02746e-07
1.02751e-07
1.02748e-07
1.02882e-07
1.02856e-07
1.02859e-07
1.02744e-07
1.02586e-07
1.02586e-07
1.02586e-07
1.02586e-07
1.02768e-07
1.02766e-07
1.02751e-07
1.02586e-07
1.02589e-07
1.02588e-07
1.02588e-07
1.02589e-07
1.02586e-07
1.02807e-07
1.02883e-07
1.0286e-07
1.02746e-07
1.02586e-07
1.02588e-07
1.02587e-07
1.02587e-07
1.02588e-07
1.02586e-07
1.02807e-07
1.02881e-07
1.02851e-07
1.02751e-07
1.02586e-07
1.02588e-07
1.02587e-07
1.02587e-07
1.02588e-07
1.02586e-07
1.02805e-07
1.0277e-07
1.02748e-07
1.02586e-07
1.02589e-07
1.02588e-07
1.02588e-07
1.02589e-07
1.02586e-07
1.02807e-07
1.02885e-07
1.02882e-07
1.02768e-07
1.02586e-07
1.02586e-07
1.02586e-07
1.02586e-07
1.02792e-07
1.02786e-07
1.02885e-07
1.02856e-07
1.02766e-07
1.02807e-07
1.02807e-07
1.02805e-07
1.02807e-07
1.02786e-07
1.02893e-07
1.02883e-07
1.02881e-07
1.0277e-07
1.02885e-07
1.02885e-07
1.01669e-07
1.0166e-07
1.01668e-07
1.01559e-07
1.01555e-07
1.01559e-07
1.01557e-07
1.0169e-07
1.01665e-07
1.01668e-07
1.01553e-07
1.01394e-07
1.01395e-07
1.01395e-07
1.01394e-07
1.01577e-07
1.01575e-07
1.01559e-07
1.01394e-07
1.01398e-07
1.01396e-07
1.01396e-07
1.01398e-07
1.01394e-07
1.01616e-07
1.01691e-07
1.01669e-07
1.01555e-07
1.01395e-07
1.01396e-07
1.01396e-07
1.01396e-07
1.01396e-07
1.01395e-07
1.01616e-07
1.01689e-07
1.0166e-07
1.01559e-07
1.01395e-07
1.01396e-07
1.01396e-07
1.01396e-07
1.01396e-07
1.01395e-07
1.01613e-07
1.01578e-07
1.01557e-07
1.01394e-07
1.01398e-07
1.01396e-07
1.01396e-07
1.01398e-07
1.01394e-07
1.01615e-07
1.01693e-07
1.0169e-07
1.01577e-07
1.01394e-07
1.01395e-07
1.01395e-07
1.01394e-07
1.01601e-07
1.01595e-07
1.01694e-07
1.01665e-07
1.01575e-07
1.01616e-07
1.01616e-07
1.01613e-07
1.01615e-07
1.01595e-07
1.01701e-07
1.01691e-07
1.01689e-07
1.01578e-07
1.01693e-07
1.01694e-07
1.00478e-07
1.00468e-07
1.00476e-07
1.00368e-07
1.00364e-07
1.00368e-07
1.00365e-07
1.00499e-07
1.00474e-07
1.00476e-07
1.00362e-07
1.00203e-07
1.00204e-07
1.00204e-07
1.00203e-07
1.00385e-07
1.00383e-07
1.00368e-07
1.00203e-07
1.00206e-07
1.00205e-07
1.00205e-07
1.00206e-07
1.00203e-07
1.00425e-07
1.005e-07
1.00478e-07
1.00364e-07
1.00204e-07
1.00205e-07
1.00204e-07
1.00204e-07
1.00205e-07
1.00204e-07
1.00424e-07
1.00498e-07
1.00468e-07
1.00368e-07
1.00204e-07
1.00205e-07
1.00204e-07
1.00204e-07
1.00205e-07
1.00204e-07
1.00422e-07
1.00387e-07
1.00365e-07
1.00203e-07
1.00206e-07
1.00205e-07
1.00205e-07
1.00206e-07
1.00203e-07
1.00424e-07
1.00502e-07
1.00499e-07
1.00385e-07
1.00203e-07
1.00204e-07
1.00204e-07
1.00203e-07
1.0041e-07
1.00403e-07
1.00502e-07
1.00474e-07
1.00383e-07
1.00425e-07
1.00424e-07
1.00422e-07
1.00424e-07
1.00403e-07
1.0051e-07
1.005e-07
1.00498e-07
1.00387e-07
1.00502e-07
1.00502e-07
9.92861e-08
9.92769e-08
9.92848e-08
9.91765e-08
9.91721e-08
9.91762e-08
9.91737e-08
9.93074e-08
9.92821e-08
9.92848e-08
9.91701e-08
9.90115e-08
9.9012e-08
9.9012e-08
9.90115e-08
9.91937e-08
9.91919e-08
9.91765e-08
9.90115e-08
9.90148e-08
9.90135e-08
9.90135e-08
9.90148e-08
9.90115e-08
9.92331e-08
9.93086e-08
9.92861e-08
9.91721e-08
9.9012e-08
9.90135e-08
9.90127e-08
9.90127e-08
9.90135e-08
9.9012e-08
9.92327e-08
9.93063e-08
9.92769e-08
9.91762e-08
9.9012e-08
9.90135e-08
9.90127e-08
9.90127e-08
9.90135e-08
9.9012e-08
9.92305e-08
9.91955e-08
9.91737e-08
9.90115e-08
9.90148e-08
9.90135e-08
9.90135e-08
9.90148e-08
9.90115e-08
9.92322e-08
9.93104e-08
9.93074e-08
9.91937e-08
9.90115e-08
9.9012e-08
9.9012e-08
9.90115e-08
9.92182e-08
9.92118e-08
9.93108e-08
9.92821e-08
9.91919e-08
9.92331e-08
9.92328e-08
9.92305e-08
9.92322e-08
9.92118e-08
9.93186e-08
9.93086e-08
9.93063e-08
9.91955e-08
9.93104e-08
9.93108e-08
9.80946e-08
9.80854e-08
9.80933e-08
9.7985e-08
9.79806e-08
9.79847e-08
9.79822e-08
9.81159e-08
9.80906e-08
9.80933e-08
9.79786e-08
9.782e-08
9.78205e-08
9.78205e-08
9.782e-08
9.80022e-08
9.80004e-08
9.7985e-08
9.782e-08
9.78232e-08
9.7822e-08
9.7822e-08
9.78232e-08
9.782e-08
9.80416e-08
9.81171e-08
9.80946e-08
9.79806e-08
9.78205e-08
9.7822e-08
9.78212e-08
9.78212e-08
9.7822e-08
9.78205e-08
9.80412e-08
9.81148e-08
9.80854e-08
9.79847e-08
9.78205e-08
9.7822e-08
9.78212e-08
9.78212e-08
9.7822e-08
9.78205e-08
9.8039e-08
9.8004e-08
9.79822e-08
9.782e-08
9.78232e-08
9.7822e-08
9.7822e-08
9.78232e-08
9.782e-08
9.80407e-08
9.81189e-08
9.81159e-08
9.80022e-08
9.782e-08
9.78205e-08
9.78205e-08
9.782e-08
9.80267e-08
9.80202e-08
9.81193e-08
9.80906e-08
9.80003e-08
9.80416e-08
9.80412e-08
9.8039e-08
9.80407e-08
9.80203e-08
9.81271e-08
9.81171e-08
9.81148e-08
9.8004e-08
9.81189e-08
9.81193e-08
9.69031e-08
9.68939e-08
9.69018e-08
9.67935e-08
9.67891e-08
9.67932e-08
9.67907e-08
9.69244e-08
9.68991e-08
9.69018e-08
9.67871e-08
9.66285e-08
9.6629e-08
9.6629e-08
9.66285e-08
9.68107e-08
9.68088e-08
9.67935e-08
9.66285e-08
9.66317e-08
9.66305e-08
9.66305e-08
9.66317e-08
9.66285e-08
9.68501e-08
9.69256e-08
9.69031e-08
9.67891e-08
9.6629e-08
9.66305e-08
9.66297e-08
9.66297e-08
9.66305e-08
9.6629e-08
9.68497e-08
9.69233e-08
9.68939e-08
9.67932e-08
9.6629e-08
9.66305e-08
9.66297e-08
9.66297e-08
9.66305e-08
9.6629e-08
9.68475e-08
9.68125e-08
9.67907e-08
9.66285e-08
9.66317e-08
9.66305e-08
9.66305e-08
9.66317e-08
9.66285e-08
9.68492e-08
9.69274e-08
9.69244e-08
9.68107e-08
9.66285e-08
9.6629e-08
9.6629e-08
9.66285e-08
9.68352e-08
9.68287e-08
9.69278e-08
9.68991e-08
9.68088e-08
9.68501e-08
9.68497e-08
9.68475e-08
9.68492e-08
9.68287e-08
9.69356e-08
9.69256e-08
9.69233e-08
9.68125e-08
9.69274e-08
9.69278e-08
9.57116e-08
9.57024e-08
9.57103e-08
9.56019e-08
9.55976e-08
9.56017e-08
9.55992e-08
9.57329e-08
9.57076e-08
9.57103e-08
9.55956e-08
9.5437e-08
9.54375e-08
9.54375e-08
9.5437e-08
9.56192e-08
9.56173e-08
9.5602e-08
9.5437e-08
9.54402e-08
9.54389e-08
9.54389e-08
9.54402e-08
9.5437e-08
9.56586e-08
9.5734e-08
9.57116e-08
9.55976e-08
9.54375e-08
9.54389e-08
9.54382e-08
9.54382e-08
9.54389e-08
9.54375e-08
9.56582e-08
9.57317e-08
9.57024e-08
9.56017e-08
9.54375e-08
9.54389e-08
9.54382e-08
9.54382e-08
9.54389e-08
9.54375e-08
9.5656e-08
9.5621e-08
9.55992e-08
9.5437e-08
9.54402e-08
9.54389e-08
9.54389e-08
9.54402e-08
9.5437e-08
9.56577e-08
9.57359e-08
9.57329e-08
9.56192e-08
9.5437e-08
9.54375e-08
9.54375e-08
9.5437e-08
9.56437e-08
9.56372e-08
9.57363e-08
9.57076e-08
9.56173e-08
9.56586e-08
9.56582e-08
9.5656e-08
9.56577e-08
9.56372e-08
9.57441e-08
9.57341e-08
9.57317e-08
9.5621e-08
9.57359e-08
9.57363e-08
9.45201e-08
9.45109e-08
9.45188e-08
9.44104e-08
9.44061e-08
9.44102e-08
9.44077e-08
9.45414e-08
9.4516e-08
9.45188e-08
9.44041e-08
9.42455e-08
9.4246e-08
9.4246e-08
9.42455e-08
9.44277e-08
9.44258e-08
9.44104e-08
9.42455e-08
9.42487e-08
9.42474e-08
9.42474e-08
9.42487e-08
9.42455e-08
9.4467e-08
9.45425e-08
9.45201e-08
9.44061e-08
9.4246e-08
9.42474e-08
9.42467e-08
9.42467e-08
9.42474e-08
9.4246e-08
9.44667e-08
9.45402e-08
9.45109e-08
9.44102e-08
9.4246e-08
9.42474e-08
9.42467e-08
9.42467e-08
9.42474e-08
9.4246e-08
9.44645e-08
9.44295e-08
9.44077e-08
9.42455e-08
9.42487e-08
9.42474e-08
9.42474e-08
9.42487e-08
9.42455e-08
9.44662e-08
9.45444e-08
9.45414e-08
9.44277e-08
9.42455e-08
9.4246e-08
9.4246e-08
9.42455e-08
9.44522e-08
9.44457e-08
9.45448e-08
9.4516e-08
9.44258e-08
9.44671e-08
9.44667e-08
9.44645e-08
9.44662e-08
9.44457e-08
9.45526e-08
9.45425e-08
9.45402e-08
9.44295e-08
9.45444e-08
9.45448e-08
9.33286e-08
9.33194e-08
9.33272e-08
9.32189e-08
9.32146e-08
9.32187e-08
9.32162e-08
9.33499e-08
9.33245e-08
9.33272e-08
9.32126e-08
9.3054e-08
9.30545e-08
9.30545e-08
9.3054e-08
9.32362e-08
9.32343e-08
9.32189e-08
9.3054e-08
9.30572e-08
9.30559e-08
9.30559e-08
9.30572e-08
9.3054e-08
9.32755e-08
9.3351e-08
9.33286e-08
9.32146e-08
9.30545e-08
9.30559e-08
9.30552e-08
9.30552e-08
9.30559e-08
9.30545e-08
9.32752e-08
9.33487e-08
9.33193e-08
9.32186e-08
9.30545e-08
9.30559e-08
9.30552e-08
9.30552e-08
9.30559e-08
9.30545e-08
9.3273e-08
9.32379e-08
9.32162e-08
9.3054e-08
9.30572e-08
9.30559e-08
9.30559e-08
9.30572e-08
9.3054e-08
9.32747e-08
9.33529e-08
9.33499e-08
9.32362e-08
9.3054e-08
9.30545e-08
9.30545e-08
9.3054e-08
9.32607e-08
9.32542e-08
9.33533e-08
9.33245e-08
9.32343e-08
9.32755e-08
9.32752e-08
9.3273e-08
9.32747e-08
9.32542e-08
9.3361e-08
9.3351e-08
9.33487e-08
9.32379e-08
9.33529e-08
9.33533e-08
9.21371e-08
9.21279e-08
9.21357e-08
9.20274e-08
9.20231e-08
9.20271e-08
9.20247e-08
9.21584e-08
9.2133e-08
9.21357e-08
9.20211e-08
9.18625e-08
9.1863e-08
9.18629e-08
9.18625e-08
9.20447e-08
9.20428e-08
9.20274e-08
9.18625e-08
9.18657e-08
9.18644e-08
9.18644e-08
9.18657e-08
9.18625e-08
9.2084e-08
9.21595e-08
9.21371e-08
9.20231e-08
9.18629e-08
9.18644e-08
9.18637e-08
9.18637e-08
9.18644e-08
9.1863e-08
9.20837e-08
9.21572e-08
9.21278e-08
9.20271e-08
9.18629e-08
9.18644e-08
9.18637e-08
9.18637e-08
9.18644e-08
9.18629e-08
9.20815e-08
9.20464e-08
9.20247e-08
9.18625e-08
9.18657e-08
9.18644e-08
9.18644e-08
9.18657e-08
9.18625e-08
9.20832e-08
9.21613e-08
9.21584e-08
9.20447e-08
9.18625e-08
9.1863e-08
9.18629e-08
9.18625e-08
9.20692e-08
9.20627e-08
9.21618e-08
9.2133e-08
9.20428e-08
9.2084e-08
9.20837e-08
9.20815e-08
9.20832e-08
9.20627e-08
9.21695e-08
9.21595e-08
9.21572e-08
9.20464e-08
9.21614e-08
9.21618e-08
9.09456e-08
9.09364e-08
9.09442e-08
9.08359e-08
9.08316e-08
9.08356e-08
9.08332e-08
9.09669e-08
9.09415e-08
9.09442e-08
9.08296e-08
9.0671e-08
9.06715e-08
9.06714e-08
9.0671e-08
9.08532e-08
9.08513e-08
9.08359e-08
9.0671e-08
9.06742e-08
9.06729e-08
9.06729e-08
9.06742e-08
9.0671e-08
9.08925e-08
9.0968e-08
9.09456e-08
9.08316e-08
9.06714e-08
9.06729e-08
9.06722e-08
9.06722e-08
9.06729e-08
9.06714e-08
9.08922e-08
9.09657e-08
9.09363e-08
9.08356e-08
9.06714e-08
9.06729e-08
9.06722e-08
9.06722e-08
9.06729e-08
9.06714e-08
9.089e-08
9.08549e-08
9.08332e-08
9.0671e-08
9.06742e-08
9.06729e-08
9.06729e-08
9.06742e-08
9.0671e-08
9.08917e-08
9.09698e-08
9.09669e-08
9.08532e-08
9.0671e-08
9.06714e-08
9.06714e-08
9.0671e-08
9.08776e-08
9.08712e-08
9.09703e-08
9.09415e-08
9.08513e-08
9.08925e-08
9.08922e-08
9.089e-08
9.08917e-08
9.08712e-08
9.0978e-08
9.0968e-08
9.09657e-08
9.08549e-08
9.09699e-08
9.09703e-08
8.97541e-08
8.97449e-08
8.97527e-08
8.96444e-08
8.96401e-08
8.96441e-08
8.96417e-08
8.97754e-08
8.975e-08
8.97527e-08
8.96381e-08
8.94795e-08
8.94799e-08
8.94799e-08
8.94795e-08
8.96617e-08
8.96598e-08
8.96444e-08
8.94795e-08
8.94827e-08
8.94814e-08
8.94814e-08
8.94827e-08
8.94795e-08
8.9701e-08
8.97765e-08
8.97541e-08
8.96401e-08
8.94799e-08
8.94814e-08
8.94807e-08
8.94807e-08
8.94814e-08
8.94799e-08
8.97007e-08
8.97742e-08
8.97448e-08
8.96441e-08
8.94799e-08
8.94814e-08
8.94807e-08
8.94807e-08
8.94814e-08
8.94799e-08
8.96985e-08
8.96634e-08
8.96417e-08
8.94795e-08
8.94827e-08
8.94814e-08
8.94814e-08
8.94827e-08
8.94795e-08
8.97002e-08
8.97783e-08
8.97754e-08
8.96616e-08
8.94795e-08
8.94799e-08
8.94799e-08
8.94795e-08
8.96861e-08
8.96797e-08
8.97788e-08
8.975e-08
8.96598e-08
8.9701e-08
8.97007e-08
8.96985e-08
8.97002e-08
8.96797e-08
8.97865e-08
8.97765e-08
8.97742e-08
8.96634e-08
8.97784e-08
8.97788e-08
8.85626e-08
8.85533e-08
8.85612e-08
8.84529e-08
8.84486e-08
8.84526e-08
8.84501e-08
8.85839e-08
8.85585e-08
8.85612e-08
8.84466e-08
8.8288e-08
8.82884e-08
8.82884e-08
8.8288e-08
8.84701e-08
8.84683e-08
8.84529e-08
8.8288e-08
8.82912e-08
8.82899e-08
8.82899e-08
8.82912e-08
8.8288e-08
8.85095e-08
8.8585e-08
8.85626e-08
8.84486e-08
8.82884e-08
8.82899e-08
8.82892e-08
8.82892e-08
8.82899e-08
8.82884e-08
8.85092e-08
8.85827e-08
8.85533e-08
8.84526e-08
8.82884e-08
8.82899e-08
8.82892e-08
8.82892e-08
8.82899e-08
8.82884e-08
8.85069e-08
8.84719e-08
8.84501e-08
8.8288e-08
8.82912e-08
8.82899e-08
8.82899e-08
8.82912e-08
8.8288e-08
8.85087e-08
8.85868e-08
8.85839e-08
8.84701e-08
8.8288e-08
8.82884e-08
8.82884e-08
8.8288e-08
8.84946e-08
8.84882e-08
8.85872e-08
8.85585e-08
8.84683e-08
8.85095e-08
8.85092e-08
8.85069e-08
8.85087e-08
8.84882e-08
8.8595e-08
8.8585e-08
8.85827e-08
8.84719e-08
8.85868e-08
8.85872e-08
8.7371e-08
8.73618e-08
8.73697e-08
8.72614e-08
8.7257e-08
8.72611e-08
8.72586e-08
8.73923e-08
8.7367e-08
8.73697e-08
8.7255e-08
8.70964e-08
8.70969e-08
8.70969e-08
8.70964e-08
8.72786e-08
8.72768e-08
8.72614e-08
8.70964e-08
8.70996e-08
8.70984e-08
8.70984e-08
8.70996e-08
8.70964e-08
8.7318e-08
8.73935e-08
8.7371e-08
8.7257e-08
8.70969e-08
8.70984e-08
8.70976e-08
8.70976e-08
8.70984e-08
8.70969e-08
8.73176e-08
8.73912e-08
8.73618e-08
8.72611e-08
8.70969e-08
8.70984e-08
8.70976e-08
8.70976e-08
8.70984e-08
8.70969e-08
8.73154e-08
8.72804e-08
8.72586e-08
8.70964e-08
8.70996e-08
8.70984e-08
8.70984e-08
8.70996e-08
8.70964e-08
8.73171e-08
8.73953e-08
8.73923e-08
8.72786e-08
8.70964e-08
8.70969e-08
8.70969e-08
8.70964e-08
8.73031e-08
8.72966e-08
8.73957e-08
8.7367e-08
8.72768e-08
8.7318e-08
8.73176e-08
8.73154e-08
8.73171e-08
8.72967e-08
8.74035e-08
8.73935e-08
8.73912e-08
8.72804e-08
8.73953e-08
8.73957e-08
8.61795e-08
8.61703e-08
8.61782e-08
8.60698e-08
8.60655e-08
8.60696e-08
8.60671e-08
8.62008e-08
8.61755e-08
8.61782e-08
8.60635e-08
8.59049e-08
8.59054e-08
8.59054e-08
8.59049e-08
8.60871e-08
8.60852e-08
8.60698e-08
8.59049e-08
8.59081e-08
8.59068e-08
8.59068e-08
8.59081e-08
8.59049e-08
8.61265e-08
8.62019e-08
8.61795e-08
8.60655e-08
8.59054e-08
8.59068e-08
8.59061e-08
8.59061e-08
8.59068e-08
8.59054e-08
8.61261e-08
8.61996e-08
8.61703e-08
8.60696e-08
8.59054e-08
8.59068e-08
8.59061e-08
8.59061e-08
8.59068e-08
8.59054e-08
8.61239e-08
8.60889e-08
8.60671e-08
8.59049e-08
8.59081e-08
8.59068e-08
8.59068e-08
8.59081e-08
8.59049e-08
8.61256e-08
8.62038e-08
8.62008e-08
8.60871e-08
8.59049e-08
8.59054e-08
8.59054e-08
8.59049e-08
8.61116e-08
8.61051e-08
8.62042e-08
8.61755e-08
8.60852e-08
8.61265e-08
8.61261e-08
8.61239e-08
8.61256e-08
8.61051e-08
8.6212e-08
8.6202e-08
8.61996e-08
8.60889e-08
8.62038e-08
8.62042e-08
8.4988e-08
8.49788e-08
8.49866e-08
8.48783e-08
8.4874e-08
8.4878e-08
8.48756e-08
8.50093e-08
8.49839e-08
8.49866e-08
8.4872e-08
8.47134e-08
8.47138e-08
8.47138e-08
8.47134e-08
8.48955e-08
8.48937e-08
8.48783e-08
8.47134e-08
8.47166e-08
8.47153e-08
8.47153e-08
8.47166e-08
8.47134e-08
8.49349e-08
8.50104e-08
8.4988e-08
8.4874e-08
8.47138e-08
8.47153e-08
8.47146e-08
8.47146e-08
8.47153e-08
8.47138e-08
8.49346e-08
8.50081e-08
8.49787e-08
8.4878e-08
8.47138e-08
8.47153e-08
8.47146e-08
8.47146e-08
8.47153e-08
8.47138e-08
8.49324e-08
8.48973e-08
8.48755e-08
8.47134e-08
8.47166e-08
8.47153e-08
8.47153e-08
8.47166e-08
8.47134e-08
8.49341e-08
8.50122e-08
8.50093e-08
8.48955e-08
8.47134e-08
8.47138e-08
8.47138e-08
8.47134e-08
8.492e-08
8.49136e-08
8.50127e-08
8.49839e-08
8.48937e-08
8.49349e-08
8.49346e-08
8.49324e-08
8.49341e-08
8.49136e-08
8.50204e-08
8.50104e-08
8.50081e-08
8.48973e-08
8.50123e-08
8.50127e-08
8.37964e-08
8.37872e-08
8.37951e-08
8.36868e-08
8.36824e-08
8.36865e-08
8.3684e-08
8.38177e-08
8.37924e-08
8.37951e-08
8.36804e-08
8.35218e-08
8.35223e-08
8.35223e-08
8.35218e-08
8.3704e-08
8.37022e-08
8.36868e-08
8.35218e-08
8.35251e-08
8.35238e-08
8.35238e-08
8.35251e-08
8.35218e-08
8.37434e-08
8.38189e-08
8.37964e-08
8.36824e-08
8.35223e-08
8.35238e-08
8.3523e-08
8.3523e-08
8.35238e-08
8.35223e-08
8.3743e-08
8.38166e-08
8.37872e-08
8.36865e-08
8.35223e-08
8.35238e-08
8.3523e-08
8.3523e-08
8.35238e-08
8.35223e-08
8.37408e-08
8.37058e-08
8.3684e-08
8.35218e-08
8.35251e-08
8.35238e-08
8.35238e-08
8.35251e-08
8.35218e-08
8.37425e-08
8.38207e-08
8.38177e-08
8.3704e-08
8.35218e-08
8.35223e-08
8.35223e-08
8.35218e-08
8.37285e-08
8.37221e-08
8.38211e-08
8.37924e-08
8.37022e-08
8.37434e-08
8.37431e-08
8.37408e-08
8.37425e-08
8.37221e-08
8.38289e-08
8.38189e-08
8.38166e-08
8.37058e-08
8.38207e-08
8.38211e-08
8.26049e-08
8.25957e-08
8.26036e-08
8.24953e-08
8.24909e-08
8.2495e-08
8.24925e-08
8.26262e-08
8.26009e-08
8.26036e-08
8.24889e-08
8.23303e-08
8.23308e-08
8.23308e-08
8.23303e-08
8.25125e-08
8.25106e-08
8.24953e-08
8.23303e-08
8.23335e-08
8.23322e-08
8.23322e-08
8.23335e-08
8.23303e-08
8.25519e-08
8.26274e-08
8.26049e-08
8.24909e-08
8.23308e-08
8.23322e-08
8.23315e-08
8.23315e-08
8.23322e-08
8.23308e-08
8.25515e-08
8.2625e-08
8.25957e-08
8.2495e-08
8.23308e-08
8.23322e-08
8.23315e-08
8.23315e-08
8.23322e-08
8.23308e-08
8.25493e-08
8.25143e-08
8.24925e-08
8.23303e-08
8.23335e-08
8.23322e-08
8.23322e-08
8.23335e-08
8.23303e-08
8.2551e-08
8.26292e-08
8.26262e-08
8.25125e-08
8.23303e-08
8.23308e-08
8.23308e-08
8.23303e-08
8.2537e-08
8.25305e-08
8.26296e-08
8.26009e-08
8.25106e-08
8.25519e-08
8.25515e-08
8.25493e-08
8.2551e-08
8.25305e-08
8.26374e-08
8.26274e-08
8.2625e-08
8.25143e-08
8.26292e-08
8.26296e-08
8.14134e-08
8.14041e-08
8.1412e-08
8.13037e-08
8.12994e-08
8.13034e-08
8.13009e-08
8.14347e-08
8.14093e-08
8.1412e-08
8.12974e-08
8.11388e-08
8.11392e-08
8.11392e-08
8.11388e-08
8.13209e-08
8.13191e-08
8.13037e-08
8.11388e-08
8.1142e-08
8.11407e-08
8.11407e-08
8.1142e-08
8.11388e-08
8.13603e-08
8.14358e-08
8.14134e-08
8.12993e-08
8.11392e-08
8.11407e-08
8.114e-08
8.114e-08
8.11407e-08
8.11392e-08
8.136e-08
8.14335e-08
8.14041e-08
8.13034e-08
8.11392e-08
8.11407e-08
8.114e-08
8.114e-08
8.11407e-08
8.11392e-08
8.13577e-08
8.13227e-08
8.13009e-08
8.11388e-08
8.1142e-08
8.11407e-08
8.11407e-08
8.1142e-08
8.11388e-08
8.13595e-08
8.14376e-08
8.14347e-08
8.13209e-08
8.11388e-08
8.11392e-08
8.11392e-08
8.11388e-08
8.13454e-08
8.1339e-08
8.1438e-08
8.14093e-08
8.13191e-08
8.13603e-08
8.136e-08
8.13577e-08
8.13595e-08
8.1339e-08
8.14458e-08
8.14358e-08
8.14335e-08
8.13227e-08
8.14376e-08
8.14381e-08
8.02218e-08
8.02126e-08
8.02205e-08
8.01121e-08
8.01078e-08
8.01119e-08
8.01094e-08
8.02431e-08
8.02178e-08
8.02205e-08
8.01058e-08
7.99472e-08
7.99477e-08
7.99477e-08
7.99472e-08
8.01294e-08
8.01275e-08
8.01121e-08
7.99472e-08
7.99504e-08
7.99491e-08
7.99491e-08
7.99504e-08
7.99472e-08
8.01688e-08
8.02442e-08
8.02218e-08
8.01078e-08
7.99477e-08
7.99491e-08
7.99484e-08
7.99484e-08
7.99491e-08
7.99477e-08
8.01684e-08
8.02419e-08
8.02126e-08
8.01119e-08
7.99477e-08
7.99491e-08
7.99484e-08
7.99484e-08
7.99491e-08
7.99477e-08
8.01662e-08
8.01312e-08
8.01094e-08
7.99472e-08
7.99504e-08
7.99491e-08
7.99491e-08
7.99504e-08
7.99472e-08
8.01679e-08
8.02461e-08
8.02431e-08
8.01294e-08
7.99472e-08
7.99477e-08
7.99477e-08
7.99472e-08
8.01539e-08
8.01474e-08
8.02465e-08
8.02178e-08
8.01275e-08
8.01688e-08
8.01684e-08
8.01662e-08
8.01679e-08
8.01474e-08
8.02543e-08
8.02443e-08
8.02419e-08
8.01312e-08
8.02461e-08
8.02465e-08
7.90302e-08
7.9021e-08
7.90289e-08
7.89206e-08
7.89162e-08
7.89203e-08
7.89178e-08
7.90515e-08
7.90262e-08
7.90289e-08
7.89142e-08
7.87556e-08
7.87561e-08
7.87561e-08
7.87556e-08
7.89378e-08
7.89359e-08
7.89206e-08
7.87556e-08
7.87588e-08
7.87575e-08
7.87575e-08
7.87588e-08
7.87556e-08
7.89772e-08
7.90527e-08
7.90302e-08
7.89162e-08
7.87561e-08
7.87575e-08
7.87568e-08
7.87568e-08
7.87575e-08
7.87561e-08
7.89768e-08
7.90504e-08
7.9021e-08
7.89203e-08
7.87561e-08
7.87575e-08
7.87568e-08
7.87568e-08
7.87575e-08
7.87561e-08
7.89746e-08
7.89396e-08
7.89178e-08
7.87556e-08
7.87588e-08
7.87575e-08
7.87575e-08
7.87588e-08
7.87556e-08
7.89763e-08
7.90545e-08
7.90515e-08
7.89378e-08
7.87556e-08
7.87561e-08
7.87561e-08
7.87556e-08
7.89623e-08
7.89558e-08
7.90549e-08
7.90262e-08
7.89359e-08
7.89772e-08
7.89768e-08
7.89746e-08
7.89763e-08
7.89558e-08
7.90627e-08
7.90527e-08
7.90504e-08
7.89396e-08
7.90545e-08
7.90549e-08
7.78386e-08
7.78294e-08
7.78373e-08
7.7729e-08
7.77246e-08
7.77287e-08
7.77262e-08
7.78599e-08
7.78346e-08
7.78373e-08
7.77226e-08
7.7564e-08
7.75645e-08
7.75645e-08
7.7564e-08
7.77462e-08
7.77444e-08
7.7729e-08
7.7564e-08
7.75672e-08
7.7566e-08
7.7566e-08
7.75672e-08
7.7564e-08
7.77856e-08
7.78611e-08
7.78386e-08
7.77246e-08
7.75645e-08
7.7566e-08
7.75652e-08
7.75652e-08
7.7566e-08
7.75645e-08
7.77852e-08
7.78588e-08
7.78294e-08
7.77287e-08
7.75645e-08
7.7566e-08
7.75652e-08
7.75652e-08
7.7566e-08
7.75645e-08
7.7783e-08
7.7748e-08
7.77262e-08
7.7564e-08
7.75672e-08
7.7566e-08
7.7566e-08
7.75672e-08
7.7564e-08
7.77847e-08
7.78629e-08
7.78599e-08
7.77462e-08
7.7564e-08
7.75645e-08
7.75645e-08
7.7564e-08
7.77707e-08
7.77642e-08
7.78633e-08
7.78346e-08
7.77444e-08
7.77856e-08
7.77853e-08
7.7783e-08
7.77847e-08
7.77643e-08
7.78711e-08
7.78611e-08
7.78588e-08
7.7748e-08
7.78629e-08
7.78633e-08
7.66471e-08
7.66379e-08
7.66457e-08
7.65374e-08
7.65331e-08
7.65371e-08
7.65346e-08
7.66684e-08
7.6643e-08
7.66457e-08
7.65311e-08
7.63725e-08
7.63729e-08
7.63729e-08
7.63725e-08
7.65546e-08
7.65528e-08
7.65374e-08
7.63725e-08
7.63757e-08
7.63744e-08
7.63744e-08
7.63757e-08
7.63725e-08
7.6594e-08
7.66695e-08
7.66471e-08
7.65331e-08
7.63729e-08
7.63744e-08
7.63737e-08
7.63737e-08
7.63744e-08
7.63729e-08
7.65937e-08
7.66672e-08
7.66378e-08
7.65371e-08
7.63729e-08
7.63744e-08
7.63737e-08
7.63737e-08
7.63744e-08
7.63729e-08
7.65914e-08
7.65564e-08
7.65346e-08
7.63725e-08
7.63757e-08
7.63744e-08
7.63744e-08
7.63757e-08
7.63725e-08
7.65932e-08
7.66713e-08
7.66684e-08
7.65546e-08
7.63725e-08
7.63729e-08
7.63729e-08
7.63725e-08
7.65791e-08
7.65727e-08
7.66718e-08
7.6643e-08
7.65528e-08
7.6594e-08
7.65937e-08
7.65915e-08
7.65932e-08
7.65727e-08
7.66795e-08
7.66695e-08
7.66672e-08
7.65564e-08
7.66714e-08
7.66718e-08
7.54555e-08
7.54463e-08
7.54542e-08
7.53458e-08
7.53415e-08
7.53456e-08
7.53431e-08
7.54768e-08
7.54514e-08
7.54542e-08
7.53395e-08
7.51809e-08
7.51814e-08
7.51813e-08
7.51809e-08
7.53631e-08
7.53612e-08
7.53458e-08
7.51809e-08
7.51841e-08
7.51828e-08
7.51828e-08
7.51841e-08
7.51809e-08
7.54025e-08
7.54779e-08
7.54555e-08
7.53415e-08
7.51813e-08
7.51828e-08
7.51821e-08
7.51821e-08
7.51828e-08
7.51813e-08
7.54021e-08
7.54756e-08
7.54463e-08
7.53456e-08
7.51813e-08
7.51828e-08
7.51821e-08
7.51821e-08
7.51828e-08
7.51813e-08
7.53999e-08
7.53649e-08
7.53431e-08
7.51809e-08
7.51841e-08
7.51828e-08
7.51828e-08
7.51841e-08
7.51809e-08
7.54016e-08
7.54798e-08
7.54768e-08
7.53631e-08
7.51809e-08
7.51814e-08
7.51813e-08
7.51809e-08
7.53876e-08
7.53811e-08
7.54802e-08
7.54515e-08
7.53612e-08
7.54025e-08
7.54021e-08
7.53999e-08